/*--------------------------------*- C++ -*----------------------------------*\
| =========                 |                                                 |
| \\      /  F ield         | OpenFOAM: The Open Source CFD Toolbox           |
|  \\    /   O peration     | Version:  2.3.1                                 |
|   \\  /    A nd           | Web:      www.OpenFOAM.org                      |
|    \\/     M anipulation  |                                                 |
\*---------------------------------------------------------------------------*/
FoamFile
{
    version     2.0;
    format      ascii;
    class       volSymmTensorField;
    location    "1700";
    object      sigma;
}
// * * * * * * * * * * * * * * * * * * * * * * * * * * * * * * * * * * * * * //

dimensions      [1 -1 -2 0 0 0 0];

internalField   nonuniform List<symmTensor> 
11800
(
(95124 60810.2 4.62487e-14 -2273.69 2.45363e-14 23038.1)
(-49611.1 57612.1 7.09958e-14 -2463.31 2.25604e-14 -12920.7)
(415653 70753 -1.11034e-15 1025.74 -5.20471e-14 103386)
(-364552 42895.8 0 1624.45 0 -90049.8)
(-50986.5 55372.6 1.32469e-14 -6906.28 -3.74874e-14 -14364.4)
(-229249 74838.5 5.17262e-14 2929.81 2.71738e-14 -56154.3)
(-42240.6 72925.2 9.72381e-14 -726.182 -2.53203e-14 -10660.9)
(-58965.2 73277 -1.45091e-14 1368.56 5.84857e-14 -14290.9)
(131018 49033.5 1.99947e-14 391.259 -1.37133e-14 32605.2)
(86303.9 76771.5 -5.03642e-14 1539.2 -4.24914e-14 21795.7)
(110141 52725.9 -3.85832e-14 197.85 3.30774e-14 27377.3)
(-528757 33436.3 -4.65858e-14 -4161.34 -2.11804e-14 -132228)
(16407.3 -23861.1 8.90274e-17 -44272.8 6.91824e-17 -6914.01)
(385635 42889.3 4.2335e-14 2844.19 -1.16221e-14 96389.7)
(-310938 69910.5 -3.51053e-14 6843.38 2.73421e-14 -75452)
(1.51453e+06 1431.02 0 -4017.88 0 374790)
(-27802.1 60410 3.29049e-14 2043.68 2.90783e-15 -6391.19)
(-42505.2 55105.3 -1.86036e-14 4696.31 1.07068e-13 -9381.16)
(89125.9 92405.5 -1.9616e-14 -12892.9 1.39977e-14 18914.9)
(65383.1 51112 -6.70381e-14 -6031.31 -2.1709e-14 14726.4)
(-287766 47852 2.08077e-14 875.344 2.18336e-14 -71183.5)
(-461950 65901.6 3.33352e-14 2135.33 -1.94104e-14 -114089)
(-654578 90039.1 -1.75342e-14 8313.18 1.13659e-14 -160351)
(-600890 58064.6 1.80469e-16 270.257 3.07416e-15 -149026)
(1.22879e+06 63716.1 2.04882e-15 -5413.49 2.52385e-14 303544)
(-773853 88486.9 -1.71709e-14 5008.16 -5.1224e-16 -190766)
(-772447 46749.2 0 6405.52 0 -190071)
(378957 37140.1 -5.48736e-14 -5449.44 -3.31835e-14 92674.9)
(-849664 48457.2 -9.82679e-15 7595.17 -4.66767e-14 -208934)
(-929836 49593.1 1.29201e-14 7743.77 -2.02216e-14 -228790)
(253463 40438.6 -6.79111e-14 -1346.97 -1.21904e-13 62555)
(49988.9 58168.3 -1.14839e-14 1843.56 -9.60168e-15 12860.7)
(779055 84248.7 -2.75848e-15 8915.44 -1.22966e-14 195512)
(-20883.6 66658.1 8.88624e-15 -596.452 -6.66127e-14 -5329.64)
(13511.3 69036.4 -2.34818e-14 3862.21 -1.00985e-13 4310.72)
(-249517 32262.9 -6.1667e-14 3063.68 -4.48442e-14 -61150)
(14173 69205.7 8.34165e-14 2614.97 -9.93812e-14 4165.44)
(835266 55083.5 -1.01245e-14 4267.49 -4.41574e-14 208305)
(-29569.9 65708.1 0 -3407.85 0 -8182.44)
(62500 61133.1 -2.90544e-14 3758.84 5.41906e-14 16440.2)
(-811707 37922.3 -5.21283e-14 -3730.77 -2.42875e-14 -202327)
(-892608 38504.4 3.74308e-14 -3754.01 -2.15244e-14 -222406)
(397672 47442.7 -2.11235e-14 -2878.22 -7.05593e-14 97956.3)
(-977040 39855.9 -7.30561e-15 -5201.36 -3.83933e-14 -243714)
(266103 48393.4 1.80556e-13 1987.09 -5.64194e-14 66518.5)
(1.41401e+06 42127.9 0 -5368.82 0 349514)
(619235 96406.5 -1.10967e-14 -2731.98 5.85876e-15 152967)
(739648 44376.5 -1.95181e-14 -7968.08 -1.36641e-14 181545)
(-67115.7 67306.6 -7.15943e-14 -1357.31 -4.41841e-14 -16989.6)
(153335 63529.4 0 1900.29 0 38517.1)
(-545475 37809.8 -3.42851e-15 2482.54 3.68683e-14 -134727)
(-384322 37116.1 1.20126e-13 4744.78 1.41012e-14 -94180.9)
(-7980.21 68374.1 6.7265e-14 -475.659 4.19608e-14 -2098.07)
(27269.1 107410 -1.55554e-15 5736.27 1.35923e-14 8189.3)
(-1.62537e+06 6673.31 -2.44071e-15 -8535.83 -3.68369e-15 -405406)
(1.32296e+06 -47589.6 3.16472e-15 -60897.5 5.76686e-15 313143)
(-44646.9 23439.5 5.79544e-14 1744.43 2.15457e-14 -10645)
(-346204 73528.4 4.34177e-15 -3480 -3.6392e-14 -86763.7)
(275039 51177.4 -3.68157e-14 5785.38 5.3961e-14 69678.3)
(-247490 75239.5 3.03606e-14 -5795.1 -5.48191e-15 -62845.2)
(1.35523e+06 26121.3 -2.79088e-14 -10266.3 -9.68708e-15 333713)
(-33771.6 71149.2 2.84663e-14 475.059 -4.64131e-14 -8261.54)
(-273586 62395.7 -1.66264e-14 -2639.3 2.86648e-14 -68537)
(215586 62659.8 5.02175e-14 1036.61 -2.8689e-14 53748.5)
(1.2154e+06 18452.6 3.09292e-15 624.52 -1.82173e-14 301720)
(-173829 33550.4 -8.14948e-14 2518.63 -9.86163e-14 -42505.5)
(-563737 20777.2 5.75284e-14 2315.9 1.92184e-14 -139300)
(-401537 23168.9 1.60336e-15 4123.16 -1.00843e-13 -98606.5)
(-45874.9 25197.8 0 -2498.79 0 -12002.5)
(-721640 54924.5 -1.27605e-15 6911.14 4.51812e-14 -177339)
(-17516 70200.6 -1.63219e-14 451.74 3.37524e-14 -4233.99)
(-35720.2 56795.3 -6.28837e-14 -3144.37 7.04643e-14 -9643.09)
(-31747.4 55137.2 4.41047e-14 -3565.27 -2.70326e-14 -8761.8)
(-1.12433e+06 259685 -4.02832e-15 148748 3.72636e-15 -242062)
(1.34163e+06 59033.7 -1.0061e-15 -5273.84 -1.12145e-14 331578)
(-234878 44481.6 -6.05812e-14 6166.21 -4.41074e-14 -56748)
(1.26312e+06 17558.6 -2.31049e-14 3154.53 2.05669e-14 314188)
(-169471 23945.8 5.35786e-14 781.292 -1.7602e-13 -41855.3)
(-125950 42112.3 1.00721e-14 3045.23 -9.62804e-15 -30495.2)
(-120873 51231.5 1.02811e-13 3427.68 1.03265e-13 -29140.7)
(-1.64173e+06 -26900.2 8.7383e-15 5961.76 4.00013e-14 -405868)
(67208.2 48590 0 6258.68 0 18228.6)
(38444.8 57301.1 -1.06908e-13 580.11 -4.21918e-14 9682.86)
(26366.8 61023.7 3.70638e-14 2422.78 -2.95304e-16 7143.27)
(-54132.3 54039.6 2.55771e-14 -5552.6 7.24862e-14 -14809)
(-903052 60517 -1.43162e-14 -5273.97 7.35056e-14 -225374)
(271560 45865.1 8.63168e-14 2662.42 -2.68917e-14 68040)
(-823592 56630.6 0 -4157.41 0 -205382)
(-749025 55155.7 -3.03117e-14 -3840.9 -3.10357e-14 -186801)
(397825 42911.3 3.96065e-14 3673.64 2.4127e-15 99619.9)
(-9094.31 66840.1 -1.39354e-13 -2191.84 -8.95214e-14 -2800.32)
(923007 78449.8 0 -2923.94 0 228291)
(-74567.8 59983.7 -2.95638e-14 1785.13 -4.90933e-14 -18058.9)
(51394.4 20748.3 -1.70653e-14 3691.92 -2.47883e-14 13668)
(108583 56831.5 1.31493e-13 48.3009 2.35073e-15 26953.5)
(37976.4 -28654.4 -5.66731e-16 -80705.8 -4.20128e-16 -10602)
(-2009.39 7858.31 1.47169e-17 4717.12 -8.75364e-17 671.845)
(-38230 -28393.6 -3.57699e-16 80281.9 2.38345e-16 10433.9)
(-9049.61 68281 -4.33263e-14 -1086.43 -6.33448e-16 -2514.96)
(-459967 44894.5 -1.06709e-14 -2047.36 4.28296e-14 -114635)
(35744.4 37325.9 2.38189e-14 -324.915 -6.67401e-14 8788.29)
(498206 49853.4 -5.17607e-14 -5161.43 -7.18231e-14 122334)
(-874116 86655.6 3.6141e-15 847.41 7.3482e-15 -216676)
(-291360 66384.9 -2.22133e-15 4897.53 7.06087e-15 -71077.2)
(560.936 72221.6 -6.68892e-15 -412.823 -3.33238e-14 36.7497)
(221214 82197.7 -1.42534e-14 1989.55 -2.47784e-14 55381.4)
(-101790 58412.1 -4.10537e-14 563.922 9.06847e-14 -25116.2)
(-71673.7 62031.3 -1.38825e-13 -645.493 -6.70506e-14 -17943.9)
(1.32308e+06 23600 8.11523e-15 2981.72 1.71755e-14 329022)
(823352 50672.9 1.29798e-14 2446.88 2.63279e-15 204897)
(903860 52630.2 2.48993e-14 3254.96 3.48916e-14 225074)
(749707 48703.8 9.05051e-14 3160.97 5.37142e-14 186802)
(-276135 46720.5 4.0468e-14 -4204.46 6.3261e-14 -69558)
(-404451 44570.6 -1.07118e-13 -3713.3 3.85375e-14 -101274)
(143397 53522.3 4.61303e-14 265.787 -2.42208e-14 35645.7)
(1.19225e+06 36187.7 1.23213e-14 -145.241 7.30736e-15 295785)
(164373 29392.6 -3.33338e-14 -3321.71 -1.31134e-13 39960.2)
(-50410.9 64370.4 -1.15492e-13 1484 1.08169e-13 -12139.8)
(1.11629e+06 63401.2 -1.42622e-14 344.422 1.78024e-14 277060)
(-90176 79346 -3.78224e-14 731.487 -1.0194e-14 -22193)
(-149030 44841.9 -2.65911e-14 1586.94 -1.12467e-14 -36583.7)
(43534.2 73078.2 8.27415e-14 -3201.31 -1.18607e-13 10007.4)
(61126.9 74498 -5.78052e-14 -1095.97 3.98031e-14 14894.9)
(-42951.9 61098.3 -1.67919e-14 205.006 -2.48012e-14 -10606.4)
(-78044.4 57186.3 -1.05164e-13 470.2 -8.21806e-14 -19247.7)
(-2533.91 67858.5 -1.01071e-13 -2532.81 -7.61845e-14 -1257.16)
(-25614.3 67615.9 -6.06009e-14 -4018.54 6.6683e-14 -7352.5)
(-4528.87 67851.3 -3.9621e-14 -1390.47 -3.78184e-14 -1468.71)
(6902.71 51053.6 1.88974e-15 31284.2 8.46151e-14 9474.95)
(-29470.1 11704.3 -3.11029e-16 -6759.06 4.02974e-14 -8989.18)
(-1.44481e+06 -228696 1.30059e-14 61629.1 -6.64413e-15 -343195)
(-1.0142e+06 61679.4 9.24623e-15 -7608.42 -1.40584e-15 -253531)
(297609 41451.7 4.56876e-14 4221.19 -4.46068e-14 74890.2)
(-897323 60974.1 -3.60643e-14 2445.31 2.27051e-14 -222037)
(424868 37714.2 -2.06684e-14 5215.48 6.25121e-14 106712)
(-815761 56358.1 1.37498e-14 2716.39 1.38082e-14 -201733)
(-741333 54178.1 -7.85668e-14 2758.08 6.01587e-14 -183256)
(247512 54889.1 4.46921e-14 -1487.03 1.24802e-13 61043.7)
(-768630 32368.2 4.91812e-14 6542.58 -6.79745e-14 -189089)
(356191 55282.6 5.56434e-14 -1279.22 -4.43501e-14 88060.8)
(-699629 30509.3 4.05005e-14 5468.8 -7.01079e-14 -172235)
(-636147 31006.9 -4.20267e-14 5506.98 -3.78575e-14 -156475)
(-372284 75794.3 3.22747e-15 10433.5 3.22767e-14 -89782.5)
(107374 62793.6 -2.23014e-14 -5365.39 -1.48933e-13 25310.3)
(152281 58948.4 -3.57308e-14 -5275.98 -1.03479e-13 36475)
(-224984 57548 -1.08021e-14 7448.05 6.25503e-14 -53975.2)
(903430 36960.3 -6.8599e-14 1041.06 -2.3119e-14 224418)
(-939534 -5186.03 6.60776e-14 -8178.98 2.0494e-14 -235147)
(524000 39698.1 4.64236e-14 -3035.94 -4.32635e-14 129262)
(-288836 45917.1 1.07201e-15 5108.11 6.38805e-15 -70398.6)
(-128326 60754.9 -5.78609e-14 3091.4 -4.78774e-14 -31073.2)
(-134251 53144 4.95199e-14 -596 -4.48713e-14 -33458.3)
(13311.4 68084.8 3.76445e-14 2135.76 6.8877e-14 3832.75)
(-189565 45982.4 -8.46737e-14 1499.96 8.79277e-14 -46662.8)
(156339 52689.6 -4.44619e-14 -4282.83 -4.70564e-14 37728.2)
(105134 62183.6 -4.06925e-14 1188.04 3.14158e-14 26380.5)
(-343130 49189.2 6.89253e-14 6243.23 -4.646e-14 -83588.5)
(-477005 53056.5 2.5188e-14 2028.77 5.50653e-14 -117851)
(1.00163e+06 25471.3 1.59659e-14 1406.95 -2.35384e-16 248875)
(-4109.24 70477.9 1.97607e-14 379.141 -9.62797e-14 -925.513)
(1.50384e+06 63994.7 -1.8905e-14 -10201.3 -1.03343e-14 370602)
(-156271 54782.3 -7.31386e-14 1649.4 5.04672e-14 -38364.8)
(1.26863e+06 42370.1 0 -14093.7 0 311276)
(-354399 55457.7 2.1947e-14 -2309.4 9.14455e-14 -88506.6)
(-389549 56518.6 -2.24925e-14 -3123.63 2.67692e-14 -97430.1)
(-426941 59689.4 -3.55243e-15 -3388.95 9.74148e-14 -106773)
(190322 59311.4 -5.4341e-14 408.907 1.33906e-14 47324.1)
(129193 62963.3 -5.78579e-14 -456.153 1.43104e-14 31942.1)
(-1.65575e+06 -6018.29 1.50521e-14 -7280.2 -8.61685e-15 -412633)
(-990942 60139 -1.50961e-14 -5616.48 2.86984e-14 -247266)
(334296 45179.6 -5.77809e-14 4008.22 -3.3862e-14 83940.1)
(459690 41172.2 1.62895e-13 3017.79 -8.76644e-14 114807)
(54081.5 65802.3 3.17687e-14 -6262.84 -8.22593e-14 11864.8)
(-279131 33006.5 0 1803.1 0 -68810.7)
(-284718 22080.3 8.68527e-14 521.009 -4.42037e-14 -70515)
(1.4048e+06 45122.6 2.42646e-14 -10368.5 1.62292e-14 345987)
(1.44015e+06 -1544.38 2.00776e-14 9689.8 1.78324e-14 359735)
(729724 28044.7 1.09216e-15 -85.1941 4.19764e-14 181038)
(664910 27939.1 8.26679e-15 942.771 1.01352e-13 165212)
(800569 27216.6 2.18545e-14 -885.109 -3.15641e-14 198418)
(-341085 56151.9 -5.24526e-14 3196.71 4.72638e-14 -83837)
(-229389 55966.7 -5.08288e-14 1548 5.58342e-14 -56531.9)
(147461 72491.8 0 1444.71 0 36946.5)
(99007.4 74236.2 -2.13614e-15 907.746 8.09278e-14 24791)
(322060 57782.7 -6.28671e-14 -533.6 5.14617e-14 79777.3)
(-137727 55243.2 -5.02502e-14 1232.94 1.19417e-13 -33867)
(-226440 83265.2 -1.02044e-14 2245.58 4.53647e-14 -55627.3)
(66426.2 62008.1 -1.85167e-13 -857.156 -4.92118e-14 16269)
(93596.6 57124 -1.28391e-13 -211.16 5.37999e-14 23170.8)
(-61735 68278.6 -2.49535e-14 1755.1 -3.48422e-16 -14882.2)
(-169880 52754.8 -2.11605e-14 3272.56 -1.32548e-14 -41338.7)
(-154413 51261.9 1.39028e-14 2370.92 -2.38035e-14 -37724.8)
(-157726 41246.2 0 -829.385 0 -39340.9)
(-79881.6 86994.3 3.02892e-16 -3752.95 -2.84476e-14 -20751.4)
(-688120 9520.24 6.09768e-14 -6062.73 -2.67072e-14 -172241)
(867923 42461.2 -7.98606e-14 -3677 -7.96897e-15 214437)
(1.1736e+06 138368 4.97111e-15 -211771 2.52805e-15 238649)
(-28160.1 62129.6 1.65325e-14 -2155.56 -3.75322e-14 -7521.93)
(172075 25347.4 6.03181e-14 1075.8 -1.37888e-13 42962.2)
(-1.47914e+06 -174693 1.24622e-14 124783 -8.2272e-15 -336044)
(79644.1 50678.7 2.58306e-15 3577.69 7.0101e-14 20649)
(213124 35209.1 4.87222e-14 2452.56 -5.59864e-14 53488.9)
(234754 37743.5 6.80243e-14 -3851.15 -2.87315e-14 57291.7)
(-3140.38 70551.5 5.12131e-14 0.432103 -7.60879e-15 -779.084)
(-3742.44 72375 5.40241e-14 -548.046 4.57653e-15 -1064.56)
(628644 31530.7 1.73752e-14 -4861.45 5.82913e-14 154773)
(520483 69686 2.22551e-14 2421.66 -5.3827e-15 129743)
(-471855 58434.9 0 3310.02 0 -116256)
(-404183 37346 -5.61978e-14 -7221.02 -3.52027e-14 -102078)
(1.43612e+06 -230581 -5.2165e-15 -63191.9 -3.59393e-15 340651)
(-424564 93942.3 -4.60158e-15 11191.3 5.45556e-14 -102566)
(-686114 42297.7 3.2204e-14 -2347.34 -1.91015e-14 -170821)
(-1.502e+06 -603896 -1.40928e-14 320198 5.54374e-15 -293228)
(1.7285e+06 4291.08 0 23851.4 0 434794)
(-1.31583e+06 -559926 -4.5886e-15 151971 1.42606e-15 -288777)
(219306 96296.5 -3.07278e-14 171.383 1.09246e-14 54456.7)
(-49652.1 58917.5 -5.22575e-15 -2666.54 7.316e-14 -12981.3)
(-632680 70681.6 2.66971e-14 -4934.71 -2.94944e-14 -158205)
(-572510 68099.9 3.96435e-14 -3876.43 -4.93811e-15 -143013)
(-520887 65749.9 -4.5004e-14 -3622.09 1.72793e-15 -130141)
(185849 52540.9 3.87854e-14 2978.7 -1.08326e-13 46852)
(274665 48660 -9.7512e-14 3324.08 9.4899e-14 68974.7)
(27616.6 60183 -1.53019e-14 -6072.53 7.19135e-14 5345.52)
(38487.5 55242.5 3.63044e-14 -7323.83 4.65703e-14 7732.33)
(-96236.2 89452.1 -4.27696e-14 14273.9 1.16129e-14 -20336.5)
(-57247.1 53269.6 3.11093e-14 10157.4 -3.98575e-14 -11683.9)
(-825385 -332307 -3.55956e-15 -20334.4 7.4333e-16 -209840)
(140695 89574 -2.41545e-14 10665.8 -8.61459e-14 37555.6)
(-69256.1 54588.9 -8.11483e-14 -6138.45 -3.71525e-14 -18706.9)
(-324618 78778.8 0 243.618 0 -80484)
(140782 56428.6 6.42498e-14 1069.68 -2.63393e-14 35196.2)
(-68409.6 69777.2 0 -92.3558 0 -16996.7)
(-53160.1 60583.4 -3.93268e-14 74.0125 -6.23858e-14 -13171.7)
(479712 57946.6 5.56746e-14 3165.43 -5.82308e-14 119812)
(493259 40845.3 8.50191e-14 -575.898 4.06513e-14 122245)
(1.49494e+06 -601205 -5.2561e-15 -319323 -1.74545e-15 291694)
(821641 -331132 6.15061e-15 20216.1 1.68837e-15 208882)
(-157820 45882.8 1.19898e-14 930.95 1.70857e-14 -38927.3)
(-169089 47575.5 -3.64174e-14 -2187.28 -7.45871e-14 -42497.1)
(-863498 8859.14 -4.06053e-14 -4338.96 -9.34995e-15 -215328)
(694425 42012.1 9.14402e-14 -3464.99 -2.39616e-14 171441)
(229077 57383.2 2.96395e-15 -1384.47 1.65317e-13 56495.2)
(339580 58561.9 5.61324e-14 -2478.8 6.11432e-14 83641.7)
(-807881 28365.6 -1.42232e-15 -1591.4 3.59225e-14 -200847)
(-738808 29119.7 -3.61902e-14 -224.553 1.19756e-14 -183369)
(-672199 30060 -2.29084e-15 -426.345 5.6084e-14 -166892)
(-9594.5 71508.7 -8.52566e-14 -1090.99 2.46984e-14 -2651.29)
(-888179 28916.8 2.38746e-14 -2102.99 2.57144e-14 -220897)
(283903 55745.4 -5.75263e-14 -1590.76 2.82599e-14 70047.4)
(393609 56443.3 0 -2968.52 0 96925.8)
(373143 47067.4 2.20255e-14 -2497.26 5.27835e-14 91964.8)
(73073.5 59071.1 -7.20347e-14 2328.01 -1.90737e-13 18708.7)
(5280.7 64675 -6.31435e-14 -7113.46 -2.32668e-14 -454.746)
(326362 44063 -8.40108e-14 10827.4 1.52241e-14 83663.5)
(-265170 47603.1 -6.98924e-15 -1057.66 -5.63668e-14 -66056.6)
(41373 70450.8 9.7061e-16 -9939.38 1.24416e-14 7799.31)
(1.30933e+06 -557978 -4.76048e-15 -151994 -1.20114e-15 287159)
(184338 63291.6 5.83693e-15 -2700.73 -1.0694e-13 45068)
(222919 62363.2 4.97003e-14 -557.939 1.69254e-14 55172.3)
(-149050 62496.1 0 1263.98 0 -36668.6)
(-176819 68454.7 1.84263e-14 -3773.72 -5.14051e-14 -44808.8)
(516524 64949 0 5902.65 0 129625)
(567753 68107.7 3.30702e-14 5298 3.1485e-14 142186)
(621849 72116.1 -7.45793e-14 5246.4 -7.16218e-15 155595)
(-277383 46102.2 1.02927e-13 -4243.48 1.04661e-13 -69877.3)
(-190131 50688 5.39135e-15 -3180.86 -6.25366e-14 -47964.7)
(-11810.3 69714.4 6.07237e-14 1456.98 3.23814e-14 -2568.88)
(1.3275e+06 20954.7 -9.86559e-15 -20507.4 -1.841e-14 324291)
(-9187.96 73366.1 -6.57504e-14 -4423.5 2.05095e-14 -3377.28)
(13381.8 47698 -6.44834e-14 7843.52 -4.02733e-14 5266.43)
(27488.2 66926.2 4.71918e-14 502.697 -1.09702e-13 6945.11)
(291609 62322.2 5.06744e-14 -819.017 5.36588e-14 72151)
(-121728 10772.2 -8.35856e-14 -2857.46 4.11138e-15 -30912.1)
(383413 69758.8 0 -2402.26 0 94536.5)
(1.41155e+06 -47190 2.30021e-16 -206907 9.283e-17 298897)
(297787 21602.7 4.82226e-14 3929.44 1.09797e-13 74862)
(284805 30163.1 2.18616e-14 -4714.31 1.19235e-14 69496.3)
(-420026 57771.2 7.22317e-15 4269.02 1.52397e-14 -103158)
(-299521 56069.1 -5.60274e-14 2653.91 1.79585e-14 -73658.8)
(-358440 41127.4 -1.14862e-13 99.3596 -2.01375e-14 -88911.6)
(-257233 44926.7 5.78064e-15 -1488.96 -6.08852e-15 -64194.3)
(923826 26158.3 -4.18902e-15 -2088.32 1.36811e-14 228702)
(763125 76638.4 1.79764e-15 247.673 -2.8278e-14 189408)
(210503 67216.2 1.01738e-14 -1818.65 6.02508e-15 51778.9)
(283916 58129.9 1.90808e-14 624.108 3.25392e-14 70600.1)
(154826 67302.4 5.29705e-14 -3729.13 3.77965e-14 37490.1)
(209654 58253 4.7516e-14 -3321.05 -7.5317e-15 51195.4)
(-420271 48747.2 -8.98582e-15 3607.26 2.26807e-14 -103383)
(-550760 67638.8 -2.49874e-14 638.544 4.49005e-15 -136496)
(-131482 100781 2.80381e-14 -698.538 2.01116e-14 -32796.6)
(928287 50900.1 3.14225e-14 3857.08 2.26741e-14 231284)
(1.00744e+06 51735.9 -6.83981e-15 16379.7 3.42167e-15 254031)
(1.2013e+06 51313.8 5.54391e-15 -2305.65 3.51254e-15 297494)
(79518.8 65130.4 -1.02959e-13 2377.13 1.25187e-13 20320)
(-294076 22901.4 -6.3827e-14 -2077 -3.28419e-14 -73481.6)
(-282829 32187.3 -8.09746e-14 5432.52 5.42196e-14 -68827.7)
(1.37532e+06 1771.25 0 10902.4 0 343950)
(1.37694e+06 50102.8 0 1005.35 0 341897)
(779005 40925.3 1.24595e-14 -2052.36 6.01323e-14 192778)
(774897 14707.4 4.05404e-14 3709.1 -1.13327e-13 193188)
(-810634 15133.6 0 -7055.97 0 -202885)
(-789226 40012.7 0 5578.98 0 -194439)
(23789.3 65654.2 -1.41859e-14 3274.07 4.06958e-14 6714.98)
(-61565.5 35615 1.51896e-13 -4568.47 -6.43855e-14 -16409.2)
(-222902 31330.3 -4.00415e-14 -3308.02 -1.47897e-14 -56127.3)
(1.84865e+06 5048.81 0 37875.4 0 468084)
(-33124.3 59985.9 -1.00134e-13 -4590.06 -2.51681e-15 -9357.71)
(-37694.3 62774 -1.44228e-14 -5630.61 -8.0353e-14 -10749.8)
(186776 71008.5 -5.18625e-14 -3736.19 -3.55871e-14 45416)
(-149835 71473.6 -1.08257e-13 -3573.96 4.54004e-14 -38063.9)
(179016 48602.8 3.1667e-14 -6268.42 -3.27938e-14 42862.3)
(-691569 39368.4 2.22669e-14 -5590.51 -4.55495e-14 -172979)
(691910 41938.8 -9.15843e-15 -6561.91 -5.57305e-14 170049)
(-1.23207e+06 62038 9.76386e-15 -7441.05 -4.258e-14 -307548)
(-1.5319e+06 -130283 5.38158e-15 296427 -3.95603e-15 -306546)
(520635 87102.3 -8.49859e-15 -10856.2 1.06488e-14 126486)
(53023.2 76595.5 -5.41261e-15 -3202.45 3.0461e-14 12361.5)
(-653041 64108.2 -2.72203e-14 -4689.35 -7.59605e-14 -163196)
(544782 29219 -3.51567e-14 5061.4 5.06837e-14 136427)
(-383855 42974 3.89777e-14 -7314.57 5.00121e-14 -97057.2)
(294534 62327.7 5.8067e-14 3427.16 1.00285e-15 73930.3)
(53104.2 73454.6 1.61004e-14 1833.66 7.54778e-16 13631.2)
(96342.2 60204.9 -6.80993e-14 -1315.46 8.56655e-14 23578.1)
(-194688 54002.9 4.77951e-14 -12424.7 -5.09278e-14 -51388.8)
(-313372 92317.1 8.39613e-16 4694.4 6.41333e-14 -76589.1)
(-176963 52915.9 7.31468e-15 -11794.8 -5.12356e-14 -46834.8)
(-285150 87950.6 4.64123e-14 3694.37 -1.69835e-14 -69834.8)
(69013 48744.9 -2.96019e-14 -2308.05 9.23996e-15 16550.9)
(-32228.9 74415 -7.65781e-16 2102.55 -5.6492e-14 -7474.96)
(-21136.6 75299.1 6.97949e-14 1585.41 5.60599e-14 -4851.04)
(-14771.3 71102.4 3.58925e-14 18.062 -7.82829e-14 -3660.58)
(995480 39636.1 2.16868e-14 2090.27 3.34912e-15 247517)
(-10532.7 75985.9 -7.9395e-14 -4632.66 -3.53431e-14 -3762.84)
(-39556 61659.4 3.89731e-14 -6749.41 -1.30709e-13 -11489.3)
(1.41662e+06 -30214.2 -1.08351e-14 -74461.6 -8.03181e-15 333016)
(215051 48988.1 4.16341e-14 -4570.34 -5.34544e-14 52224.5)
(-516791 81186.2 2.85835e-14 9206.4 7.75404e-15 -125942)
(-570951 49804.9 -4.56903e-14 1751.8 -2.00212e-14 -141230)
(-568098 28233.5 0 -5634.73 0 -142355)
(715557 20417.5 -4.13047e-14 5335.23 -1.9654e-14 178868)
(683840 57056.5 2.39937e-15 7527.27 4.9314e-14 171542)
(-24712.4 52609.2 -4.61126e-14 2096.17 3.76464e-14 -5611.55)
(-18793.4 52899.7 3.34643e-14 1893.17 -1.87327e-13 -4193.28)
(-475894 87630 -1.91027e-14 4606.26 -4.82476e-16 -116936)
(-639835 66202.1 0 7502.46 0 -156895)
(456518 49315.8 1.05099e-14 4945.17 2.62513e-14 114498)
(-1.19144e+06 78501.1 4.58122e-15 -4181.35 -1.47461e-14 -296658)
(36604.4 54817.3 0 8085.74 0 11088.5)
(629812 42069.8 -2.29e-15 -65.3714 1.56574e-14 156253)
(476136 84855.2 -1.21617e-15 6020.07 6.04766e-17 119633)
(-290939 66545.3 8.60366e-14 5306.67 -1.10697e-14 -70871.2)
(-226512 49341 -8.38082e-15 1536.81 6.07077e-14 -55821)
(-207116 64374.4 1.32577e-14 3055.73 -5.05225e-14 -50631.4)
(-161056 51757.4 -7.49472e-16 -427.531 2.96848e-15 -40067.3)
(-239612 35761.5 3.1013e-14 2007.86 4.58499e-14 -58954.4)
(-200583 40264 -5.42477e-14 5800.85 1.09381e-14 -48329.4)
(-241532 78759.3 0 1501.39 0 -59556.6)
(-274142 82392.1 -2.78536e-14 263.471 2.42572e-14 -67954.8)
(-301546 87056.4 -2.28888e-15 636.604 -2.61502e-15 -74661.8)
(79433.9 55471.8 -1.33504e-13 1536.35 -6.68198e-14 20090.4)
(-16434 67871 -2.96271e-14 -2438.74 5.90692e-14 -4682.7)
(570811 34951.6 -1.69495e-14 3997.02 4.81001e-14 142622)
(596901 45343.9 2.3432e-14 -4733.14 -4.54366e-14 146929)
(100382 60663.7 4.8101e-15 -1468.66 -3.33534e-14 24542.3)
(144265 54077.6 0 1520.38 0 36172.2)
(-333388 85838.6 3.53824e-14 -2849.63 -3.90539e-14 -83427.5)
(286998 57094 -6.75684e-14 3832.8 -8.195e-16 72161.1)
(313342 77635.8 -2.9572e-14 4514.93 -1.8186e-15 78866.6)
(-110891 62554.6 -5.49101e-14 -2572.87 7.88198e-14 -28152.6)
(-93654.7 64525 3.20512e-14 -2455.96 1.88809e-15 -23847)
(-137945 67280.6 5.20729e-14 932.977 1.85457e-14 -33995.5)
(-153381 59789.2 0 -336.392 0 -38140.3)
(-693819 42660.1 1.57238e-14 -66.8001 -2.41373e-14 -172167)
(302811 60202.9 -2.5124e-14 311.431 -9.9793e-14 75210.9)
(218371 60446 -1.15157e-14 -495.772 -1.64679e-15 54059.2)
(-82628.9 157910 -7.36871e-15 14324.5 -5.36613e-15 -16947.7)
(789774 31027.8 -5.30329e-14 -6350.43 -3.1811e-14 194383)
(-931190 15092 4.62309e-14 2286.41 2.7698e-14 -230480)
(-120794 147473 0 -5962.39 0 -31451)
(-113622 62641.2 1.91841e-14 2473.5 5.79928e-14 -27578.3)
(-96811.1 65588.7 -1.44299e-13 4123.54 -3.66464e-14 -22997.7)
(-163367 58301.1 6.23512e-14 1260.94 7.01182e-16 -40221.9)
(-140889 62832.7 0 2913.71 0 -34234.5)
(318106 53674.3 3.27006e-14 -2061.27 -5.26815e-14 78417.1)
(365376 70237.7 1.19014e-14 -2696.48 5.05518e-15 89988.1)
(293605 55703.7 -2.41616e-14 -4571.38 2.31706e-14 71715.1)
(342947 70800.1 2.56524e-14 -3572.25 7.13028e-14 84205.7)
(266587 53701.8 2.00725e-14 -3230.65 3.37955e-14 65344)
(311328 67538.3 -4.37203e-14 -2842.17 2.50288e-14 76541.6)
(251235 33945.3 1.95617e-14 1118.6 7.39969e-14 62614)
(242480 23570.5 5.75386e-14 4486.46 1.23364e-13 61277.3)
(-505481 72646.9 -1.14908e-14 -57.3265 1.52029e-14 -125434)
(221372 64022.7 -5.97001e-14 -3253.35 -1.445e-15 54119.6)
(-545758 54890 0 4351.62 0 -134334)
(941976 71420.2 3.33108e-14 -8560.96 -2.10073e-14 231599)
(-461230 35046.3 6.02025e-14 1736.67 -9.91924e-14 -114010)
(-338970 38010.5 7.25962e-14 189.113 -4.8846e-14 -84058.3)
(-1.13425e+06 -536069 -4.37274e-15 183559 9.80639e-16 -235886)
(33757.5 64345.7 8.10034e-14 661.123 -2.13046e-14 8539.95)
(1.00243e+06 45415.3 -1.11109e-14 -2566.34 -5.50271e-16 248087)
(-470755 48594.1 -1.69275e-14 1401.8 -4.89993e-14 -116456)
(-341453 47763.7 1.05233e-13 745.416 5.18609e-14 -84536.4)
(1.53949e+06 -4388.07 1.83191e-14 -3139.82 8.16312e-15 381201)
(-67430 58119.9 -1.16189e-14 -206.569 4.66762e-14 -16782)
(1.03932e+06 19445.9 2.77968e-14 3367.89 -1.73263e-14 258713)
(-239762 49403.3 3.63578e-14 1656.91 -6.4185e-14 -59078.6)
(-876403 73329.7 2.26302e-14 9123.12 -2.93974e-15 -215190)
(-824195 50934.8 -1.3827e-14 -5505.32 -1.07072e-15 -205865)
(791201 52283.4 -2.62283e-14 555.818 1.72286e-14 196451)
(-97305.7 64352.6 -1.59699e-13 4341.99 -7.2805e-14 -23066.2)
(-2505.09 -28830.4 1.77844e-16 -45197.6 6.32301e-17 -11836)
(-13938.3 62407 0 3006.08 0 -2712.5)
(-1.50439e+06 -478964 7.17469e-15 194359 -1.98445e-15 -325046)
(1.12832e+06 -534219 8.47297e-15 -184531 2.67916e-15 234173)
(-687078 75139.1 2.8913e-14 -6613.72 -2.81621e-14 -172119)
(230558 49648.9 1.21415e-14 1269.45 4.6984e-14 57521.1)
(314666 44632.8 -3.92724e-14 1363.72 8.93586e-14 78413.4)
(96157 62072.8 7.8235e-14 -1693.18 2.33353e-14 23438.4)
(-176905 19037.8 4.53529e-14 665.501 -6.98156e-14 -43728.6)
(151556 74927.2 -3.79908e-14 -908.931 3.48032e-14 37378.7)
(-78395.2 51483.3 1.12218e-14 1124.55 1.72308e-14 -19172.4)
(-78759.2 88772.2 8.31345e-15 3113.6 2.42676e-14 -18769.2)
(-1.22306e+06 13329.8 -3.88899e-15 33251.8 9.42822e-15 -295217)
(10090.9 -17153.4 4.66501e-17 -29956.1 2.89559e-17 -4928.98)
(-391100 73842 -1.66187e-16 4681.2 3.1992e-15 -95878.3)
(304225 46048.2 2.83644e-14 -1426.93 8.82119e-14 75130.4)
(1.27832e+06 -246752 7.43311e-16 -34984.5 9.90958e-16 308496)
(-35110.7 50896.3 -7.32332e-15 -5165.45 -5.70057e-14 -9993.33)
(-39909.2 76950.9 5.81176e-15 -1655.5 5.56639e-14 -10313)
(-23287.1 68041.6 -9.95193e-16 1044.97 -8.54917e-14 -5518.72)
(-63390.9 65643.3 -1.61469e-14 1857.03 2.20883e-14 -15267.8)
(25973.7 66944.5 2.53222e-14 -795.982 6.55294e-14 6247.1)
(17602.9 70251.9 -5.93609e-14 -857.993 -1.94092e-14 4154.75)
(-1.28511e+06 -245902 3.22451e-15 33924 -9.94357e-16 -310445)
(429494 76232.1 -2.4061e-14 1230.01 1.30853e-14 106871)
(-149043 61023.4 -1.58811e-13 1332.42 -4.51106e-14 -36650.1)
(487584 64848.1 8.4936e-14 5546.65 -1.43706e-13 122356)
(443631 61992.7 -9.44588e-16 4955.36 -5.47779e-14 111303)
(403591 58870.9 -1.55733e-13 2505.08 2.36201e-14 100761)
(72092.4 40638.3 -7.75989e-14 4332.29 -2.90662e-14 18962.5)
(-992846 32071.4 4.29497e-14 -3193.6 -4.18758e-14 -247138)
(301207 48451.3 8.42151e-14 -1588.64 9.08224e-15 74341.4)
(422028 48750.4 -3.81679e-14 -1593.1 -5.47148e-14 104319)
(-85250.5 61555 -1.3447e-13 -517.319 -2.27067e-14 -21280.7)
(651446 84024 9.21884e-15 -8354.72 1.3489e-14 159564)
(119723 49483.6 -5.44176e-14 -1348.7 3.69078e-14 29371.1)
(-1.31315e+06 26907.5 -1.48569e-14 -1787.87 -5.55829e-15 -326263)
(36339.3 63063.7 -7.01645e-14 2024.43 -5.91172e-14 9518.83)
(-107685 65290.4 -1.39571e-13 2546.83 6.6012e-14 -26086.9)
(349533 54557.7 1.07578e-13 2426.31 -1.55958e-14 87328.2)
(317708 52810.6 9.99925e-14 1720.82 2.43349e-14 79256.7)
(288982 50242.2 -7.22333e-14 -93.8954 1.99593e-14 71678.9)
(680157 46692.5 1.10649e-14 510.858 2.36173e-14 168887)
(137211 63331.7 -4.71279e-14 2106.86 -1.01191e-13 34567.5)
(-362882 58436.1 3.29976e-14 -5275.66 7.49887e-16 -91347.5)
(-291631 97034 2.03611e-14 2841.91 2.28105e-14 -71654.5)
(-158295 45462 0 964.642 0 -39036.9)
(-489815 69833.4 -4.38604e-14 -5298.46 1.33602e-14 -122848)
(-538354 72434.4 -6.63101e-14 -5728.34 -4.42509e-15 -134998)
(-591446 77352.9 -6.64602e-14 -6680.54 3.20928e-14 -148407)
(273136 50507 1.32866e-15 4133.86 1.66314e-14 68796.2)
(188418 55869.4 2.09886e-14 2389.78 -2.63095e-14 47343.3)
(56851.5 13177.5 -6.10373e-14 2594.9 2.20358e-14 14749.9)
(99450.9 51923.7 0 -1919.5 0 24199.5)
(129134 43616.6 -7.14224e-14 -83.0634 4.26757e-14 32020.2)
(1.54111e+06 -64320.7 -4.01398e-15 -213534 -1.95613e-15 329399)
(536660 38136.5 7.13099e-14 -641.975 -7.32076e-14 132997)
(-410110 62884.4 0 50.8333 0 -101744)
(-292029 59173.8 -3.52624e-14 5348.06 -1.56154e-15 -71131.4)
(230467 62636.3 1.87235e-14 -2737.35 -2.31771e-14 56504.4)
(-74253.1 69342.8 3.12333e-14 -1670.15 2.56512e-14 -18838.1)
(-12018.7 72467.3 9.16363e-14 -1118.95 -7.23229e-14 -3259.71)
(21818.5 53656.2 7.43087e-14 6367.81 -1.17872e-14 6993.59)
(24280.8 55348.6 -3.90439e-14 6919.91 -3.64564e-14 7741.53)
(-6132.43 89913.7 -1.9651e-15 -3405.45 -1.61814e-14 -2366.54)
(-6133.24 48943 -1.71719e-14 -589.527 5.78318e-14 -1668.05)
(-1474.17 55438.6 -6.41214e-14 -2612.4 4.78345e-14 -1013.96)
(8152.61 62802.1 6.11496e-14 -11460.4 -2.78215e-14 -820.731)
(105365 49799.4 -4.90344e-15 2198.69 -2.33095e-14 26688.8)
(-209055 96218.3 -1.16579e-15 1718.59 -1.14368e-14 -51444.4)
(61371.7 61242.6 1.53544e-13 -7.93802 -3.02614e-14 15225.6)
(6107.88 93736.9 6.70649e-15 -11967.9 9.6784e-15 -1453.99)
(-430743 91678.1 -1.6655e-14 -2642.69 -1.00602e-14 -107532)
(523310 48112.1 5.41277e-14 4255.22 4.84735e-14 130900)
(-222239 63138.7 -5.91262e-14 23.4606 1.93565e-14 -55136.2)
(-1.02516e+06 200900 -2.93052e-15 188603 1.78012e-15 -207568)
(-143539 44878.8 4.20283e-14 -2355.68 4.57161e-14 -36199.5)
(-237265 91657.4 0 1702.3 0 -58448)
(67020.1 60036 8.19151e-14 -2001.92 -1.13305e-13 16132.3)
(102087 53457.5 4.33937e-15 -93.8959 1.41196e-14 25306.5)
(1.12794e+06 -249084 -9.11106e-16 35802.7 1.62375e-16 288747)
(-1.51406e+06 14872.4 -1.23134e-14 8517.65 5.66925e-15 -373555)
(441360 50678.7 2.62767e-14 6058.33 2.21341e-14 111014)
(485492 52604.8 -2.69265e-14 5975.78 5.85529e-14 121943)
(-151171 65042.6 -1.94257e-13 3505.24 -6.94378e-14 -36638.8)
(100350 77845.5 3.45557e-14 6103.8 6.82708e-14 26413.4)
(-24491.3 59429.4 5.46432e-14 -4431.65 8.32906e-14 -7176.37)
(-640968 -416573 -7.78514e-16 48483.9 3.28374e-16 -147007)
(-1.46023e+06 56792.3 4.05258e-15 1979.89 5.22087e-15 -361821)
(1.3046e+06 34224.7 2.20505e-14 1216.3 -1.09305e-14 323999)
(-1.91343e+06 -28967.1 -5.77018e-15 -5863.77 -2.50424e-15 -476217)
(563095 44148.1 -2.38081e-14 -3728.31 -3.71414e-14 138790)
(390872 41642.5 -3.94885e-14 -2529.16 1.45264e-13 96355.7)
(-509214 68730.1 0 10422.9 0 -123760)
(64200.4 45147.7 -7.15372e-14 -6328.07 3.40567e-14 14359.3)
(-47077.7 75674.7 -5.82382e-14 3214.71 3.08757e-14 -10883.3)