/*--------------------------------*- C++ -*----------------------------------*\
| =========                 |                                                 |
| \\      /  F ield         | OpenFOAM: The Open Source CFD Toolbox           |
|  \\    /   O peration     | Version:  2.3.1                                 |
|   \\  /    A nd           | Web:      www.OpenFOAM.org                      |
|    \\/     M anipulation  |                                                 |
\*---------------------------------------------------------------------------*/
FoamFile
{
    version     2.0;
    format      ascii;
    class       volVectorField;
    location    "4380";
    object      D;
}
// * * * * * * * * * * * * * * * * * * * * * * * * * * * * * * * * * * * * * //

dimensions      [0 1 0 0 0 0 0];

internalField   nonuniform List<vector> 
11800
(
(1.0282e-05 0.000291272 0)
(-1.29684e-05 0.000324652 0)
(7.20512e-06 9.74079e-05 0)
(-8.21578e-06 0.000132776 0)
(-1.18471e-05 0.000324101 0)
(-5.32093e-06 0.000133037 0)
(-1.95769e-06 0.000218307 0)
(-1.86129e-06 0.000168017 0)
(8.5807e-07 2.54734e-05 0)
(1.57608e-06 0.000101058 0)
(1.14152e-05 0.00029058 0)
(-1.02332e-05 0.000113059 0)
(-9.86026e-09 -7.85085e-09 0)
(6.40454e-06 9.68158e-05 0)
(-7.2866e-06 0.000133339 0)
(6.95797e-06 1.55939e-05 0)
(-1.09246e-06 0.000217667 0)
(-1.0572e-06 0.000167411 0)
(4.8636e-07 2.5757e-05 0)
(9.76702e-07 0.000100554 0)
(-6.26302e-06 0.000132544 0)
(-9.3764e-06 0.000113511 0)
(-1.52145e-06 5.48422e-06 0)
(-1.62415e-06 5.71204e-06 0)
(6.21262e-06 1.78222e-05 0)
(-2.43724e-06 9.11328e-06 0)
(-9.99961e-06 6.72486e-05 0)
(1.46254e-05 0.000195545 0)
(-8.89433e-06 5.09296e-05 0)
(-7.68517e-06 3.65557e-05 0)
(1.5498e-05 0.000247528 0)
(6.51415e-08 4.26566e-06 0)
(3.1825e-06 1.1729e-05 0)
(-7.882e-06 0.000333181 0)
(6.40986e-06 0.000331676 0)
(-1.76378e-05 0.000264426 0)
(5.97177e-06 0.000332824 0)
(3.13258e-06 1.20602e-05 0)
(-1.91414e-06 0.000230641 0)
(1.58102e-06 0.000111045 0)
(-9.8327e-06 6.80067e-05 0)
(-8.75486e-06 5.16042e-05 0)
(1.42879e-05 0.000194421 0)
(-7.57376e-06 3.71457e-05 0)
(1.51542e-05 0.000246345 0)
(6.63779e-06 1.57183e-05 0)
(1.7548e-06 6.49878e-06 0)
(1.95594e-06 6.39493e-06 0)
(-3.01047e-06 0.00023084 0)
(2.45792e-06 0.000111202 0)
(-1.67451e-05 0.00017026 0)
(-1.79011e-05 0.000220567 0)
(-1.63982e-06 0.00028815 0)
(9.04365e-08 4.04724e-06 0)
(-8.52794e-06 1.85865e-05 0)
(1.15312e-06 9.51538e-07 0)
(-2.20118e-05 0.000337764 0)
(-5.50834e-06 9.37557e-05 0)
(6.32246e-06 0.000136983 0)
(-4.00049e-06 9.00463e-05 0)
(2.30558e-06 3.04029e-06 0)
(-2.82841e-06 0.000288367 0)
(-4.78889e-06 9.35427e-05 0)
(5.51404e-06 0.000137238 0)
(5.81915e-06 1.75483e-05 0)
(-2.10159e-05 0.000298474 0)
(-1.73716e-05 0.000169513 0)
(-1.86344e-05 0.000219745 0)
(-2.0907e-05 0.000337217 0)
(-2.5579e-06 9.4104e-06 0)
(-7.02557e-06 0.000334119 0)
(-1.24081e-05 0.000332306 0)
(-1.2769e-05 0.000331122 0)
(-1.08638e-07 1.20648e-07 0)
(2.46204e-06 3.17136e-06 0)
(-1.66138e-05 0.000265171 0)
(7.63559e-06 2.46586e-05 0)
(-2.1357e-05 0.000299593 0)
(-1.70057e-05 0.000302132 0)
(-1.58874e-05 0.000303145 0)
(-8.12924e-06 1.83308e-05 0)
(1.26252e-06 0.00011533 0)
(1.17155e-05 0.000329696 0)
(1.04582e-05 0.000329901 0)
(-1.50099e-06 0.000118547 0)
(-7.39015e-06 4.11881e-05 0)
(1.40103e-05 0.000238506 0)
(-8.4543e-06 5.62253e-05 0)
(-9.43283e-06 7.31767e-05 0)
(1.31717e-05 0.000187 0)
(-3.73103e-07 0.000281899 0)
(3.38205e-06 1.11476e-05 0)
(-1.05603e-05 0.000304086 0)
(2.18575e-05 0.000340356 0)
(3.4668e-06 0.000146369 0)
(-2.62695e-09 -1.99837e-09 0)
(6.79404e-11 -4.24727e-10 0)
(2.62894e-09 -2.0002e-09 0)
(-2.18995e-07 0.000291704 0)
(-9.71593e-06 0.000115573 0)
(1.88148e-05 0.000339136 0)
(1.13554e-05 0.000127045 0)
(-4.10128e-06 1.63116e-05 0)
(-9.22719e-07 1.25778e-05 0)
(-6.0436e-07 0.000322644 0)
(1.13389e-06 2.66516e-05 0)
(-2.39114e-06 0.000165547 0)
(-2.48767e-06 0.000215569 0)
(3.58402e-06 6.0734e-06 0)
(8.53303e-06 5.62009e-05 0)
(7.45945e-06 4.11663e-05 0)
(9.52086e-06 7.31492e-05 0)
(-1.41899e-05 0.000238535 0)
(-1.33423e-05 0.00018704 0)
(2.0332e-06 9.89893e-05 0)
(2.8363e-06 5.53582e-06 0)
(2.08495e-05 0.000299697 0)
(-8.51753e-06 0.000307657 0)
(2.88789e-06 5.33327e-06 0)
(-1.4143e-06 0.000102322 0)
(-8.43062e-07 2.47983e-05 0)
(1.91174e-06 0.000219919 0)
(1.81405e-06 0.00016946 0)
(-2.62359e-06 0.000210861 0)
(-1.06293e-05 0.000305236 0)
(-9.23293e-07 0.000290791 0)
(-6.82576e-06 0.000322772 0)
(-1.58179e-06 0.000321892 0)
(-2.36217e-05 0.000348977 0)
(-2.44658e-05 0.000348131 0)
(-6.74731e-07 3.02978e-07 0)
(-3.06993e-06 7.18227e-06 0)
(1.43721e-05 0.000231392 0)
(-7.93649e-06 4.50509e-05 0)
(1.3461e-05 0.000180323 0)
(-9.01115e-06 6.06191e-05 0)
(-9.99822e-06 7.80589e-05 0)
(1.32615e-05 0.000231603 0)
(-7.31345e-06 4.49158e-05 0)
(1.24222e-05 0.000180518 0)
(-8.30577e-06 6.04693e-05 0)
(-9.21729e-06 7.78955e-05 0)
(-1.92257e-06 2.29619e-05 0)
(4.66108e-06 0.000224148 0)
(4.34723e-06 0.000173533 0)
(-3.67108e-06 0.000105678 0)
(1.78509e-05 0.000116056 0)
(-1.77266e-05 0.000113512 0)
(1.11704e-05 0.000127971 0)
(-1.29375e-06 1.33499e-05 0)
(-1.17563e-05 0.000280595 0)
(-1.16546e-05 0.000282085 0)
(5.74841e-06 0.000329132 0)
(-1.31485e-05 0.000264796 0)
(5.2773e-06 0.000186906 0)
(5.72748e-06 0.00023838 0)
(-1.4643e-05 0.000209945 0)
(-1.35746e-05 0.000160321 0)
(6.83855e-06 2.93854e-05 0)
(-1.07049e-06 0.000282959 0)
(3.89608e-06 6.18184e-06 0)
(-1.20159e-05 0.000265058 0)
(7.99262e-06 2.50167e-05 0)
(-5.34343e-06 7.61777e-05 0)
(-4.80576e-06 5.89121e-05 0)
(-4.2208e-06 4.35338e-05 0)
(7.33198e-06 0.000182674 0)
(7.81836e-06 0.000233913 0)
(-3.43446e-06 4.24118e-06 0)
(-6.2651e-06 2.82644e-05 0)
(1.36764e-05 0.000212279 0)
(1.26703e-05 0.000162509 0)
(3.05736e-06 0.00021533 0)
(-2.00935e-05 0.000263192 0)
(-2.02962e-05 0.000264775 0)
(7.15272e-06 1.7854e-05 0)
(7.16283e-06 1.83477e-05 0)
(7.89594e-06 5.45687e-05 0)
(8.82973e-06 7.13303e-05 0)
(6.88187e-06 3.97331e-05 0)
(-1.25487e-05 0.000189571 0)
(-1.33295e-05 0.000241244 0)
(5.36816e-06 0.00018573 0)
(5.75903e-06 0.00023717 0)
(5.82802e-06 0.000113053 0)
(-2.77776e-06 0.000105438 0)
(-1.46202e-06 2.30806e-05 0)
(3.52838e-06 0.000223847 0)
(3.28974e-06 0.000173251 0)
(-4.57997e-06 0.000276748 0)
(-1.53991e-06 4.82621e-05 0)
(-1.73881e-06 6.42699e-05 0)
(-1.72924e-05 0.000296172 0)
(-4.69192e-07 1.0949e-05 0)
(-1.66733e-05 0.000139211 0)
(1.43764e-05 9.21411e-05 0)
(1.65253e-07 1.57327e-07 0)
(-1.03482e-05 0.000333713 0)
(2.07041e-05 0.000300907 0)
(-5.8876e-07 3.50884e-07 0)
(1.36398e-05 0.000315422 0)
(1.70365e-05 0.000269458 0)
(1.82715e-05 0.000269679 0)
(-5.30036e-07 0.000324282 0)
(-1.38235e-06 0.000325324 0)
(9.61423e-06 8.99029e-05 0)
(8.4931e-06 9.03022e-05 0)
(-1.13737e-05 0.000141588 0)
(-1.00202e-05 0.000141089 0)
(6.65265e-07 2.98734e-07 0)
(-1.87446e-06 1.60253e-05 0)
(-2.10977e-06 8.91812e-06 0)
(-4.9238e-08 1.85104e-08 0)
(6.42755e-06 1.05748e-05 0)
(-1.53164e-07 4.86304e-08 0)
(8.35693e-07 8.75865e-06 0)
(-1.17378e-05 0.000322573 0)
(-5.64826e-06 4.01966e-05 0)
(-6.45787e-06 5.5114e-05 0)
(-7.21613e-06 7.19445e-05 0)
(1.08026e-05 0.00024028 0)
(1.01941e-05 0.000188685 0)
(7.01197e-07 0.000223431 0)
(6.52101e-07 0.000172859 0)
(-2.98502e-07 2.32461e-05 0)
(-5.68759e-07 0.000105123 0)
(-2.2468e-07 3.73163e-08 0)
(8.80883e-07 2.90833e-05 0)
(-1.76578e-06 0.000160623 0)
(-5.30255e-06 0.000101524 0)
(1.22814e-06 2.86552e-05 0)
(-2.48639e-06 0.000161476 0)
(-8.02137e-06 0.000305194 0)
(9.92621e-06 0.000113885 0)
(9.24772e-06 0.000113007 0)
(4.90383e-08 1.84365e-08 0)
(2.24374e-07 3.72541e-08 0)
(-1.55579e-05 0.000284007 0)
(-1.49668e-05 0.000285215 0)
(-1.46635e-05 9.63915e-05 0)
(1.65322e-05 0.000134233 0)
(1.32511e-05 0.000241141 0)
(1.24724e-05 0.00018948 0)
(-6.86827e-06 3.97913e-05 0)
(-7.8822e-06 5.46309e-05 0)
(-8.8136e-06 7.13998e-05 0)
(-4.73787e-07 0.000289624 0)
(-5.78866e-06 2.70375e-05 0)
(1.29299e-05 0.000214942 0)
(1.19975e-05 0.000164978 0)
(7.92906e-06 0.000115078 0)
(6.70221e-06 0.000273082 0)
(1.05225e-05 0.000340766 0)
(1.06909e-06 8.63149e-06 0)
(-3.88536e-06 9.0974e-05 0)
(-9.57933e-09 3.18453e-06 0)
(1.52768e-07 4.85098e-08 0)
(3.75101e-06 9.60085e-05 0)
(3.22833e-06 9.50031e-05 0)
(-4.06607e-06 0.000134479 0)
(-3.48319e-06 0.000135475 0)
(7.21675e-06 7.19233e-05 0)
(6.45829e-06 5.5095e-05 0)
(5.63462e-06 4.01869e-05 0)
(-1.02111e-05 0.000188685 0)
(-1.08523e-05 0.000240311 0)
(-5.74619e-06 0.000333814 0)
(1.94128e-06 2.35139e-06 0)
(5.46571e-09 0.000191631 0)
(-1.5549e-08 3.84756e-05 0)
(7.6522e-06 0.000322071 0)
(6.22902e-06 0.000112232 0)
(-2.42259e-05 0.000318244 0)
(7.15908e-06 0.000115911 0)
(2.76529e-07 2.01608e-07 0)
(1.99401e-05 0.00025993 0)
(2.0055e-05 0.000258465 0)
(-1.21791e-05 0.000165188 0)
(-1.3125e-05 0.000215162 0)
(-1.08799e-05 0.00016477 0)
(-1.17282e-05 0.000214716 0)
(5.84294e-06 2.69383e-05 0)
(5.23908e-06 2.71166e-05 0)
(5.93257e-06 0.000151691 0)
(7.05596e-06 0.000151514 0)
(6.44015e-06 0.000200591 0)
(7.66262e-06 0.000200397 0)
(-3.2539e-06 3.38265e-05 0)
(-3.87625e-06 3.39369e-05 0)
(-6.79785e-07 1.51859e-05 0)
(3.43881e-06 9.67776e-06 0)
(3.21922e-06 9.34225e-06 0)
(3.28361e-06 7.06713e-06 0)
(5.73164e-06 0.00027426 0)
(-1.97702e-05 0.000260409 0)
(-1.98759e-05 0.000258888 0)
(7.3911e-06 1.9946e-05 0)
(7.24502e-06 1.93761e-05 0)
(1.56635e-05 0.000116081 0)
(1.58753e-05 0.000117388 0)
(-1.55408e-05 0.000113421 0)
(-1.56221e-05 0.000112137 0)
(7.09033e-06 0.000328911 0)
(-1.94011e-05 0.000333212 0)
(-1.86497e-05 0.000280354 0)
(4.33838e-06 4.87752e-06 0)
(-1.13935e-05 0.000329019 0)
(-1.01733e-05 0.000327888 0)
(4.82774e-06 0.000153432 0)
(-2.9833e-06 0.000137832 0)
(2.65898e-06 9.30357e-05 0)
(-1.33297e-05 0.000116515 0)
(1.30658e-05 0.000112875 0)
(-6.28072e-06 1.95986e-05 0)
(-1.83398e-07 1.15967e-07 0)
(9.90066e-07 4.00889e-06 0)
(1.19888e-06 9.93042e-05 0)
(-1.12158e-05 0.000100013 0)
(1.20941e-05 0.000129909 0)
(-6.45422e-06 9.10111e-05 0)
(7.69656e-06 0.000140255 0)
(3.90533e-06 0.000244912 0)
(5.38683e-06 0.000244383 0)
(-2.28296e-06 5.23173e-05 0)
(-3.15307e-06 5.2634e-05 0)
(-2.5613e-06 6.88268e-05 0)
(-3.53587e-06 6.91803e-05 0)
(6.11054e-07 2.64687e-05 0)
(-1.30406e-06 0.00016592 0)
(-1.32171e-06 0.000215992 0)
(-2.14188e-06 0.000316699 0)
(3.00326e-06 7.02177e-06 0)
(-5.98493e-07 0.00013428 0)
(-9.2081e-06 0.000324668 0)
(1.24255e-06 9.87292e-07 0)
(8.24106e-06 0.000192552 0)
(-4.43422e-06 3.80518e-05 0)
(-1.3901e-05 0.00013571 0)
(-1.30553e-05 0.00013503 0)
(1.21475e-05 9.5027e-05 0)
(1.14514e-05 9.56066e-05 0)
(-1.37941e-05 0.000338613 0)
(-1.39462e-05 0.000337155 0)
(-2.252e-06 1.52815e-05 0)
(-2.67071e-06 1.52236e-05 0)
(1.08395e-06 4.20217e-06 0)
(-2.56352e-06 4.36178e-06 0)
(6.54725e-07 0.000140937 0)
(3.9655e-06 2.74295e-05 0)
(3.33501e-06 2.76046e-05 0)
(-8.18453e-06 0.000164046 0)
(-6.86116e-06 0.000163656 0)
(-8.82525e-06 0.000213946 0)
(-7.4e-06 0.000213529 0)
(-1.78945e-05 0.000271284 0)
(-1.65588e-05 0.000271392 0)
(-3.90543e-06 8.1387e-05 0)
(-3.60671e-06 6.3594e-05 0)
(-3.19119e-06 4.76649e-05 0)
(5.66788e-06 0.000253063 0)
(-9.62422e-07 0.000286802 0)
(1.1756e-05 0.000112765 0)
(1.11318e-05 0.00011375 0)
(5.22737e-06 0.000218777 0)
(4.99609e-06 0.000168469 0)
(-2.32921e-06 2.52772e-05 0)
(2.19708e-06 2.83147e-05 0)
(1.80832e-06 2.88682e-05 0)
(-4.05096e-06 0.000210819 0)
(-4.82071e-06 0.000211912 0)
(-4.46203e-06 0.000162179 0)
(-3.6354e-06 0.000161064 0)
(-4.63549e-06 2.59482e-05 0)
(9.82436e-06 0.000167167 0)
(1.05734e-05 0.000217304 0)
(-1.24673e-07 1.18332e-06 0)
(1.74856e-05 0.000128767 0)
(-1.60386e-05 0.000101361 0)
(-6.98537e-08 1.10067e-06 0)
(-5.27449e-06 0.000241092 0)
(-6.18664e-06 0.000242424 0)
(-4.83621e-06 0.000189527 0)
(-5.6644e-06 0.000190789 0)
(3.06834e-06 3.89839e-05 0)
(2.64365e-06 3.96714e-05 0)
(3.63153e-06 5.3793e-05 0)
(3.11744e-06 5.45787e-05 0)
(4.06556e-06 7.04762e-05 0)
(3.48607e-06 7.13552e-05 0)
(1.97463e-05 0.000271812 0)
(2.01141e-05 0.000273201 0)
(-1.83146e-06 8.99121e-06 0)
(7.41126e-06 0.000193516 0)
(-3.95872e-06 3.7524e-05 0)
(6.43269e-06 2.9639e-05 0)
(-1.27068e-05 0.000159786 0)
(-1.37396e-05 0.000209338 0)
(-1.78558e-07 5.41693e-08 0)
(2.57249e-06 0.000283333 0)
(6.35078e-06 2.82706e-05 0)
(-1.28846e-05 0.000162503 0)
(-1.39207e-05 0.000212227 0)
(4.80522e-06 8.21147e-06 0)
(-9.73753e-06 0.000307212 0)
(6.08946e-06 2.25427e-05 0)
(-1.53797e-05 0.000251966 0)
(-3.24702e-06 1.20886e-05 0)
(-3.46452e-06 1.2534e-05 0)
(3.40314e-06 1.2403e-05 0)
(-1.65397e-06 0.000134071 0)
(-1.25928e-08 -9.26812e-09 0)
(-1.03406e-05 0.000336751 0)
(-1.60111e-07 6.35526e-08 0)
(1.78015e-07 5.4008e-08 0)
(-4.75957e-06 2.73803e-05 0)
(1.05519e-05 0.000214105 0)
(9.7859e-06 0.000164196 0)
(8.13374e-06 0.000283781 0)
(-2.33257e-05 0.00030457 0)
(2.99311e-06 0.000125439 0)
(-1.91448e-06 0.000122138 0)
(-5.19915e-07 1.26512e-05 0)
(-1.46136e-06 1.51975e-06 0)
(-9.0911e-09 -8.18677e-09 0)
(-5.78911e-06 9.18665e-05 0)
(6.90039e-06 0.000139266 0)
(4.96392e-07 1.7367e-07 0)
(-7.66409e-07 0.000120328 0)
(-7.22668e-07 0.000119158 0)
(-1.27337e-08 0.000100898 0)
(-1.34059e-07 2.56009e-05 0)
(2.67014e-07 0.000167739 0)
(2.40507e-07 0.000218102 0)
(-4.985e-07 1.7443e-07 0)
(2.06112e-06 1.36893e-05 0)
(-8.04557e-06 0.000247839 0)
(4.58428e-06 5.06509e-05 0)
(5.15622e-06 6.69524e-05 0)
(5.67745e-06 8.50675e-05 0)
(1.69358e-05 0.000323181 0)
(-6.16694e-06 2.44828e-05 0)
(1.4521e-05 0.000220833 0)
(1.35203e-05 0.00017046 0)
(-9.58788e-06 0.000298003 0)
(1.38205e-06 3.50361e-06 0)
(1.29483e-05 0.000292442 0)
(-2.73707e-06 4.29594e-06 0)
(9.07558e-06 0.000324472 0)
(-6.93445e-06 0.000247867 0)
(3.94743e-06 5.06287e-05 0)
(4.44012e-06 6.6929e-05 0)
(4.89221e-06 8.50372e-05 0)
(1.20734e-06 3.31972e-06 0)
(5.98108e-06 0.00019845 0)
(-3.07513e-06 3.49162e-05 0)
(-1.03789e-06 1.36316e-05 0)
(-1.69768e-05 0.000293487 0)
(-6.2819e-06 7.64618e-05 0)
(-5.65154e-06 5.91697e-05 0)
(-4.96562e-06 4.37625e-05 0)
(8.55663e-06 0.000182373 0)
(9.12549e-06 0.000233591 0)
(2.33355e-05 0.0003426 0)
(1.3591e-05 0.000300488 0)
(1.50671e-05 0.00029997 0)
(1.86834e-07 1.30083e-07 0)
(8.42004e-06 9.13504e-05 0)
(-9.861e-06 0.000139839 0)
(-4.27611e-06 9.26625e-05 0)
(5.02442e-06 0.000138372 0)
(-1.43865e-06 0.000149119 0)
(-1.09202e-06 0.000242675 0)
(7.03933e-07 7.02925e-05 0)
(6.28616e-07 5.36258e-05 0)
(4.10899e-08 3.76787e-05 0)
(-2.31282e-07 0.000144882 0)
(-9.87386e-08 0.000193158 0)
(1.06875e-05 0.000342136 0)
(6.02056e-07 1.4042e-05 0)
(-2.5773e-07 3.23156e-06 0)
(2.05498e-06 0.000205136 0)
(1.02933e-07 3.34245e-06 0)
(-1.55767e-06 1.04778e-05 0)
(3.92851e-06 3.75872e-05 0)
(-7.44481e-06 0.000193389 0)
(-1.45714e-07 1.59439e-07 0)
(-1.57236e-05 0.000293349 0)
(-1.2952e-06 2.51097e-05 0)
(2.80304e-06 0.000219272 0)
(2.77821e-06 0.000168798 0)
(3.49084e-07 8.36707e-08 0)
(-4.60362e-06 8.34656e-06 0)
(5.13491e-06 6.86203e-05 0)
(4.57571e-06 5.21372e-05 0)
(-7.91221e-06 0.000245268 0)
(1.53492e-06 9.55345e-05 0)
(-1.06343e-05 0.000332399 0)
(-1.75266e-07 2.45456e-08 0)
(-6.03361e-06 1.30756e-05 0)
(3.90841e-06 7.18673e-06 0)
(-3.92923e-06 4.29471e-06 0)
(1.18367e-05 0.000114843 0)
(9.01003e-06 0.000139866 0)
(-7.70616e-06 9.13185e-05 0)
(5.55835e-07 3.72923e-05 0)
(-1.27797e-06 0.000145435 0)
(-1.06892e-06 0.000193881 0)
(1.13277e-05 0.000289105 0)
(1.0524e-05 0.000125856 0)
(5.49557e-06 0.000334979 0)
(5.2946e-06 0.000336233 0)
(1.539e-06 0.000139209 0)
(2.09267e-06 9.48146e-05 0)
(1.75016e-07 2.4502e-08 0)
(-1.5196e-05 0.000262021 0)
(5.47282e-06 1.86924e-05 0)
(1.90207e-08 2.54857e-07 0)
(2.91948e-06 0.000186813 0)
(3.8124e-06 0.000187464 0)
(5.11954e-09 2.21302e-08 0)
(-2.86448e-06 6.9516e-06 0)
(7.18721e-06 6.97762e-05 0)
(6.41429e-06 5.31742e-05 0)
(5.5785e-06 3.845e-05 0)
(-1.03422e-05 0.000191644 0)
(-1.09748e-05 0.000243551 0)
(9.56672e-06 0.000119747 0)
(1.41113e-06 0.000283638 0)
(-6.1847e-06 0.000320011 0)
(-5.85507e-06 0.000321706 0)
(-5.89222e-07 0.000246625 0)
(-5.03902e-07 0.000247987 0)
(4.25984e-07 5.05136e-05 0)
(3.89076e-07 5.12645e-05 0)
(4.79187e-07 6.68041e-05 0)
(4.37147e-07 6.76475e-05 0)
(3.18607e-07 8.49024e-05 0)
(3.79703e-07 8.58053e-05 0)
(7.62439e-07 0.000139677 0)
(1.39214e-06 0.000141932 0)
(2.41606e-06 0.000216709 0)
(-6.01664e-07 0.000148751 0)
(-3.49651e-07 8.38287e-08 0)
(-3.90494e-07 3.08146e-06 0)
(5.26921e-06 0.000197391 0)
(-2.73314e-06 3.54599e-05 0)
(1.37564e-06 4.28265e-06 0)
(2.05542e-05 0.000324775 0)
(-1.55655e-06 0.000249074 0)
(9.71227e-07 4.99425e-05 0)
(1.09352e-06 6.61621e-05 0)
(1.08016e-06 8.41563e-05 0)
(-1.56905e-05 0.000272693 0)
(5.40426e-06 9.70908e-05 0)
(8.02322e-06 0.000344804 0)
(9.07184e-06 0.000344034 0)
(-1.54829e-06 1.0805e-05 0)
(-9.88362e-07 0.00019062 0)
(5.25271e-07 3.9027e-05 0)
(2.2962e-07 2.32499e-07 0)
(2.01686e-05 0.000333971 0)
(-2.70663e-07 5.45321e-06 0)
(-3.7654e-06 5.67134e-05 0)
(-4.19856e-06 7.37346e-05 0)
(-5.0255e-06 7.45131e-05 0)
(-4.51124e-06 5.74141e-05 0)
(-3.25677e-06 4.15843e-05 0)
(-3.94084e-06 4.22161e-05 0)
(6.6745e-06 0.000184967 0)
(7.11213e-06 0.000236365 0)
(2.86154e-06 3.88645e-06 0)
(-1.83514e-07 1.11115e-07 0)
(-1.73814e-05 0.00022551 0)
(-1.81108e-05 0.000333288 0)
(5.91476e-06 0.00014182 0)
(-4.99617e-07 5.58057e-06 0)
(-9.39629e-06 0.00018463 0)
(-1.00068e-05 0.000235993 0)
(5.34253e-06 4.24745e-05 0)
(6.09526e-06 5.77029e-05 0)
(6.78755e-06 7.48304e-05 0)
(8.73954e-06 0.000284727 0)
(1.98322e-05 0.000335162 0)
(-1.06406e-05 0.00011588 0)
(4.37491e-06 3.80418e-05 0)
(-8.25648e-06 0.000192544 0)
(5.66008e-06 0.000142929 0)
(-2.13393e-06 0.000101691 0)
(5.68643e-06 6.92082e-05 0)
(5.07115e-06 5.26631e-05 0)
(-8.72232e-06 0.00024438 0)
(-1.58236e-05 0.00011722 0)
(1.5449e-05 0.000112368 0)
(1.54494e-05 0.000113628 0)
(-1.5615e-05 0.000115882 0)
(-7.25625e-06 1.93646e-05 0)
(-7.46944e-06 1.99692e-05 0)
(-7.33496e-06 0.000113609 0)
(-3.70341e-06 4.39755e-06 0)
(-1.18723e-05 0.000114486 0)
(-1.72935e-06 0.000274281 0)
(-1.5137e-06 1.80458e-06 0)
(1.19167e-05 6.66027e-05 0)
(1.05906e-05 5.03631e-05 0)
(-1.68464e-05 0.000171752 0)
(2.72031e-06 6.92506e-05 0)
(2.42616e-06 5.26961e-05 0)
(-4.18241e-06 0.000244269 0)
(5.55344e-06 1.66945e-05 0)
(9.31891e-06 0.000138728 0)
(-8.02664e-06 9.23045e-05 0)
(-4.3704e-06 4.89924e-06 0)
(4.79833e-06 0.00021758 0)
(4.58289e-06 0.000167399 0)
(-2.16091e-06 2.57778e-05 0)
(1.38934e-05 0.000205407 0)
(-6.74331e-06 3.15316e-05 0)
(1.28175e-05 0.000156154 0)
(-7.67565e-06 1.91069e-05 0)
(9.79789e-06 0.000320656 0)
(1.12357e-05 0.000320186 0)
(1.08234e-05 0.000243559 0)
(1.02541e-05 0.000191664 0)
(-5.55329e-06 3.85598e-05 0)
(-6.35341e-06 5.31676e-05 0)
(-7.11902e-06 6.97692e-05 0)
(-1.59418e-06 1.56426e-06 0)
(-8.57913e-06 0.000297697 0)
(9.38588e-06 0.000189528 0)
(-5.16204e-06 3.97208e-05 0)
(-9.68758e-07 1.20061e-06 0)
(8.02746e-06 0.00032426 0)
(1.92644e-06 1.57581e-06 0)
(1.59759e-06 1.19465e-06 0)
(4.05486e-06 5.75003e-06 0)
(9.70251e-06 0.000260434 0)
(-1.63977e-05 0.000267631 0)
(2.1856e-05 0.000325191 0)
(4.10702e-06 6.045e-06 0)
(9.58385e-06 0.000125817 0)
(1.31641e-05 0.000276201 0)
(-2.11179e-05 0.000261109 0)
(7.69101e-06 1.91498e-05 0)
(-4.83934e-06 0.000277942 0)
(1.97301e-06 6.94667e-05 0)
(1.76018e-06 5.28884e-05 0)
(-3.03496e-06 0.000243934 0)
(-7.20409e-07 3.45297e-06 0)
(5.6084e-06 0.000149675 0)
(1.58669e-07 6.30014e-08 0)
(-6.37854e-06 1.29493e-05 0)
(-1.12939e-06 0.000122902 0)
(-2.85751e-06 2.35451e-05 0)
(-3.32638e-06 2.3701e-05 0)
(6.38102e-06 0.000172271 0)
(7.40611e-06 0.000171949 0)
(7.94758e-06 0.000222445 0)
(6.84639e-06 0.000222792 0)
(1.87637e-07 6.92994e-07 0)
(-4.57971e-08 8.71926e-06 0)
(-1.14348e-05 0.000154695 0)
(-1.24068e-05 0.000203829 0)
(6.07909e-06 3.22798e-05 0)
(-3.56422e-06 1.91841e-05 0)
(-2.13734e-06 0.000209604 0)
(-3.22335e-06 8.19872e-06 0)
(6.71628e-06 0.000321171 0)
(-5.37956e-06 0.00010459 0)
(-6.23449e-06 0.000104326 0)
(1.8312e-07 1.84012e-07 0)
(-3.56172e-06 0.000108191 0)
(-1.7951e-06 2.16549e-05 0)
(4.18955e-06 0.000176513 0)
(4.48388e-06 0.000227339 0)
(-5.00982e-06 0.000209639 0)
(-4.40499e-06 0.000159983 0)
(2.21566e-06 2.94206e-05 0)
(2.93537e-06 1.10117e-05 0)
(2.72626e-06 1.06105e-05 0)
(1.44363e-06 0.000104283 0)
(-1.85999e-06 0.000222363 0)
(-1.74158e-06 0.000171842 0)
(7.71318e-07 2.37061e-05 0)
(-1.69887e-06 4.09228e-05 0)
(-3.03551e-06 8.42816e-06 0)
(1.25016e-05 0.000328744 0)
(-1.21699e-05 0.000196186 0)
(9.36597e-06 9.19384e-05 0)
(-1.09223e-05 0.000139177 0)
(1.33249e-05 0.000277453 0)
(-1.2178e-05 8.44687e-05 0)
(-1.10759e-05 6.64031e-05 0)
(1.49484e-05 0.0001482 0)
(-9.84031e-06 5.0182e-05 0)
(-8.50155e-06 3.59307e-05 0)
(1.63367e-05 0.000196802 0)
(1.72761e-05 0.000248922 0)
(-4.47306e-06 0.000238148 0)
(-4.20594e-06 0.000186649 0)
(2.68407e-06 5.63456e-05 0)
(2.34758e-06 4.12765e-05 0)
(2.9942e-06 7.33266e-05 0)
(2.56742e-06 5.71599e-05 0)
(-4.24802e-06 0.000236808 0)
(2.86094e-06 7.42336e-05 0)
(2.24886e-06 4.199e-05 0)
(-3.99172e-06 0.000185388 0)
(-2.35502e-06 0.000302394 0)
(-4.727e-06 6.1694e-06 0)
(-5.15156e-06 2.91417e-05 0)
(1.1056e-05 0.000210301 0)
(1.02303e-05 0.000160671 0)
(-3.23888e-06 3.92949e-05 0)
(5.95741e-06 0.000190259 0)
(1.63993e-05 0.000235965 0)
(1.53975e-05 0.000184617 0)
(-8.79538e-06 4.25878e-05 0)
(-1.00333e-05 5.78137e-05 0)
(-1.11712e-05 7.49386e-05 0)
(1.728e-05 0.000257642 0)
(1.8859e-05 0.000257313 0)
(4.19674e-07 7.4368e-06 0)
(-1.72793e-06 0.000120879 0)
(-4.58674e-06 1.26212e-05 0)
(2.34182e-07 4.31608e-07 0)
(-4.51826e-06 1.60438e-05 0)
(-7.19772e-07 0.000274831 0)
(1.90272e-07 7.11601e-06 0)
(-3.77349e-06 0.000129588 0)
(1.56525e-05 0.000171854 0)
(-7.03657e-06 2.39026e-05 0)
(1.67966e-05 0.000222324 0)
(-1.54321e-08 -1.06956e-08 0)
(1.05665e-06 0.000205333 0)
(2.9368e-07 1.23244e-07 0)
(2.0049e-07 1.4687e-07 0)
(2.78593e-06 0.00014726 0)
(-3.35145e-07 2.69099e-07 0)
(1.27759e-05 0.000331212 0)
(9.63545e-07 0.000187411 0)
(-4.99229e-07 4.07979e-05 0)
(2.75882e-06 1.63319e-05 0)
(1.76713e-06 0.000186825 0)
(-9.74876e-07 4.10975e-05 0)
(-1.63728e-07 3.59654e-06 0)
(-1.18943e-05 6.65681e-05 0)
(-1.05698e-05 5.03325e-05 0)
(-9.13314e-06 3.60714e-05 0)
(-7.58113e-06 2.39612e-05 0)
(1.68481e-05 0.000171789 0)
(1.75199e-05 0.000196586 0)
(1.80801e-05 0.000222249 0)
(1.85342e-05 0.000248695 0)
(-8.18905e-06 0.000268425 0)
(-7.275e-06 0.000319387 0)
(-2.35364e-05 0.0002635 0)
(8.38669e-06 1.83369e-05 0)
(5.38807e-06 0.000338678 0)
(6.26545e-06 0.000337213 0)
(1.68189e-06 0.000182663 0)
(1.82418e-06 0.000233931 0)
(-1.2756e-06 7.62671e-05 0)
(-1.14734e-06 5.89881e-05 0)
(-1.00778e-06 4.35955e-05 0)
(-6.66237e-06 1.91568e-05 0)
(2.42854e-06 1.37168e-05 0)
(-9.07793e-06 7.99239e-05 0)
(1.20685e-05 0.000177759 0)
(-8.19804e-06 6.23002e-05 0)
(-7.23952e-06 4.65317e-05 0)
(1.29051e-05 0.000228658 0)
(-5.06378e-06 2.12383e-05 0)
(1.30697e-05 0.000255315 0)
(2.20185e-06 0.000115747 0)
(-1.35756e-06 0.000285351 0)
(1.32265e-06 6.58229e-07 0)
(-9.9179e-07 0.000250398 0)
(6.4615e-07 4.91944e-05 0)
(7.28302e-07 6.53205e-05 0)
(6.79062e-07 8.32271e-05 0)
(4.09948e-06 0.000295676 0)
(-5.4807e-07 3.45299e-07 0)
(2.07309e-05 0.000290919 0)
(-3.09593e-06 0.000122724 0)
(-9.23071e-08 1.96316e-07 0)
(7.41662e-06 0.000174976 0)
(-3.2257e-06 2.23521e-05 0)
(7.94429e-06 0.000225689 0)
(1.59951e-07 1.23827e-07 0)
(-4.33501e-06 2.6992e-05 0)
(8.98268e-06 0.000164967 0)
(9.68111e-06 0.000214938 0)
(1.49673e-06 1.94691e-06 0)
(-6.27938e-06 0.000106916 0)
(1.34021e-06 0.000114367 0)
(-1.43353e-05 0.000311015 0)
(1.3319e-06 0.000183664 0)
(1.42008e-06 0.000234973 0)
(-1.07603e-06 7.55281e-05 0)
(-8.46668e-07 4.30134e-05 0)
(-9.66984e-07 5.83226e-05 0)
(2.133e-06 0.000116609 0)
(-2.93408e-07 1.1084e-06 0)
(-2.59156e-07 3.7857e-06 0)
(6.41901e-07 0.000274381 0)
(1.41025e-05 0.000125444 0)
(-1.32017e-05 0.000104336 0)
(-1.00576e-05 0.000348188 0)
(-2.28416e-05 0.000227078 0)
(-2.13463e-05 0.00017631 0)
(-2.21611e-05 0.000201265 0)
(-2.03936e-05 0.000152365 0)
(1.11178e-05 3.37848e-05 0)
(1.29451e-05 4.76575e-05 0)
(1.46303e-05 6.35361e-05 0)
(1.61762e-05 8.126e-05 0)
(2.28211e-05 0.000227075 0)
(2.21403e-05 0.000201264 0)
(-1.11292e-05 3.37854e-05 0)
(-1.29577e-05 4.76587e-05 0)
(2.13244e-05 0.00017631 0)
(-1.4645e-05 6.35371e-05 0)
(2.03741e-05 0.000152365 0)
(-1.61925e-05 8.12611e-05 0)
(-6.41174e-06 1.8619e-05 0)
(-3.53145e-06 0.000284741 0)
(-2.51486e-06 0.000284468 0)
(-3.1327e-06 0.000322665 0)
(5.22392e-06 0.000194943 0)
(-2.76295e-06 3.67457e-05 0)
(-9.84682e-07 1.44174e-06 0)
(-4.05687e-06 0.000341095 0)
(-4.43338e-06 7.27552e-05 0)
(-5.43269e-06 7.24798e-05 0)
(-3.9714e-06 5.58348e-05 0)
(-4.86495e-06 5.55897e-05 0)
(6.61856e-06 0.000239424 0)
(7.94774e-06 0.000239536 0)
(1.74546e-05 0.000235348 0)
(1.63831e-05 0.000184042 0)
(-9.39951e-06 4.29406e-05 0)
(-1.07149e-05 5.82116e-05 0)
(-1.1924e-05 7.5378e-05 0)
(-1.0538e-05 0.000155244 0)
(-1.14295e-05 0.000204427 0)
(5.57136e-06 3.19698e-05 0)
(-3.30489e-06 0.000138939 0)
(2.81422e-06 9.20919e-05 0)
(3.45263e-06 0.000246237 0)
(-1.99498e-06 5.14644e-05 0)
(-2.24113e-06 6.78709e-05 0)
(-2.43057e-06 8.58987e-05 0)
(6.50236e-06 9.09882e-05 0)
(5.51108e-06 9.12221e-05 0)
(-7.63776e-06 0.00014022 0)
(-6.46577e-06 0.000139931 0)
(-7.70154e-06 0.000338531 0)
(5.11359e-07 1.38397e-06 0)
(1.28382e-05 0.000291238 0)
(4.61438e-06 0.000101132 0)
(1.25789e-05 0.000201051 0)
(-6.32619e-06 3.3671e-05 0)
(1.15727e-05 0.000152135 0)
(-1.07375e-05 0.000121403 0)
(2.59158e-06 2.54562e-05 0)
(-6.00203e-06 0.00021831 0)
(-5.58167e-06 0.000168097 0)
(7.54257e-07 0.000105253 0)
(-9.21226e-07 0.000172995 0)
(-9.81161e-07 0.000223595 0)
(3.98093e-07 2.31851e-05 0)
(7.23996e-06 9.52634e-05 0)
(-8.25746e-06 0.00013527 0)
(-3.95388e-06 0.000302389 0)
(-1.8349e-05 0.000299486 0)
(3.28347e-06 0.000129 0)
(8.23212e-06 0.000129408 0)
(-6.60387e-06 2.47374e-05 0)
(1.54709e-05 0.000220284 0)
(1.44003e-05 0.00016995 0)
(-7.27403e-07 3.06886e-06 0)
(-2.47422e-06 0.000252147 0)
(1.37727e-06 4.82015e-05 0)
(1.55507e-06 6.42016e-05 0)
(1.70593e-06 8.20041e-05 0)
(-3.77889e-06 0.000122121 0)
(-1.70076e-05 0.000299587 0)
(-4.85829e-06 4.82604e-05 0)
(-5.48541e-06 6.42615e-05 0)
(-6.03989e-06 8.21029e-05 0)
(8.68372e-06 0.000252058 0)
(1.54851e-08 1.99669e-08 0)
(1.06501e-05 0.000120424 0)
(1.37072e-07 9.29708e-06 0)
(-4.97195e-07 8.59115e-07 0)
(-1.03439e-06 3.97475e-06 0)
(-4.97835e-06 1.71147e-05 0)
(-5.07237e-07 1.86178e-07 0)
(2.09336e-06 5.45212e-05 0)
(1.83323e-06 3.96532e-05 0)
(2.34102e-06 7.12924e-05 0)
(-3.55058e-06 0.000241174 0)
(-3.36008e-06 0.000189545 0)
(-1.03232e-05 9.97951e-05 0)
(1.12201e-05 0.000130192 0)
(-1.00594e-06 5.88948e-07 0)
(1.36491e-05 0.000320766 0)
(9.84778e-06 0.000286834 0)
(-2.09448e-05 0.000269908 0)
(7.75301e-06 0.000128402 0)
(2.80205e-06 0.000139531 0)
(-5.26524e-06 0.00034094 0)
(-1.46487e-05 0.000146228 0)
(-1.39332e-05 0.000145578 0)
(2.06994e-05 0.000340839 0)
(-1.64651e-06 0.000303904 0)
(-4.62052e-06 9.17181e-05 0)
(5.58066e-06 0.000139503 0)
(1.69558e-07 9.62443e-06 0)
(2.52384e-06 3.38963e-06 0)
(5.04244e-07 1.85047e-07 0)
(4.93582e-06 0.000148692 0)
(1.82443e-05 0.00034786 0)
(-9.9836e-06 0.000241216 0)
(-9.39067e-06 0.000189539 0)
(5.1454e-06 3.97022e-05 0)
(6.6091e-06 7.13101e-05 0)
(5.90991e-06 5.45443e-05 0)
(-1.848e-07 1.28434e-07 0)
(-7.4016e-07 0.000316372 0)
(9.33373e-06 0.000129793 0)
(-8.46815e-06 0.000100305 0)
(-1.4963e-05 0.000308669 0)
(-2.23421e-05 0.000228247 0)
(-2.16812e-05 0.000202393 0)
(-2.08934e-05 0.0001774 0)
(-1.99678e-05 0.000153406 0)
(1.07783e-05 3.32027e-05 0)
(1.25702e-05 4.69834e-05 0)
(1.42228e-05 6.27767e-05 0)
(1.57394e-05 8.04224e-05 0)
(2.23195e-05 0.000228239 0)
(2.16605e-05 0.000202393 0)
(-1.07891e-05 3.32054e-05 0)
(-1.25814e-05 4.69864e-05 0)
(2.08689e-05 0.000177396 0)
(-1.42359e-05 6.27798e-05 0)
(1.99466e-05 0.000153402 0)
(-1.5754e-05 8.04257e-05 0)
(-3.21178e-06 4.28777e-06 0)
(1.26271e-06 1.17769e-06 0)
(-1.69006e-06 3.07295e-06 0)
(8.31018e-06 0.000127337 0)
(-9.10815e-06 0.000131139 0)
(1.61199e-06 1.92607e-06 0)
(-2.49236e-07 4.15906e-08 0)
(-2.01405e-05 0.000270562 0)
(1.15439e-05 0.00034434 0)
(1.29541e-05 0.000344992 0)
(2.48967e-07 4.15368e-08 0)
(3.63394e-06 4.81361e-06 0)
(1.80746e-05 0.000313351 0)
(-6.84822e-06 0.000145059 0)
(-4.42134e-07 3.84047e-07 0)
(-1.00184e-06 1.54351e-06 0)
(-1.56252e-07 3.9894e-08 0)
(2.9321e-07 2.26053e-07 0)
(1.86307e-05 0.00011547 0)
(-1.85749e-05 0.000114127 0)
(5.70908e-06 8.69421e-05 0)
(-7.01883e-06 0.000142391 0)
(5.92849e-06 8.91868e-05 0)
(-3.01621e-07 5.1323e-06 0)
(-4.32681e-06 0.000228199 0)
(3.42744e-06 0.000108909 0)
(-2.41164e-06 0.00022571 0)
(-2.30542e-06 0.000174862 0)
(9.9046e-07 2.23633e-05 0)
(1.88637e-06 0.000106924 0)
(-7.63848e-06 0.000144316 0)
(3.87305e-06 5.10091e-06 0)
(6.3945e-06 8.76021e-05 0)
(2.38536e-06 0.000129198 0)
(1.81643e-05 0.00032364 0)
(-5.51223e-06 0.000130269 0)
(-6.33894e-06 0.000131159 0)
(-5.09095e-06 1.08281e-05 0)
(-6.14791e-06 0.000135347 0)
(-5.2566e-06 0.000134404 0)
(5.47487e-06 9.51058e-05 0)
(4.81019e-06 9.60484e-05 0)
(-5.72546e-06 2.64237e-05 0)
(1.20208e-05 0.000166252 0)
(1.29446e-05 0.000216314 0)
(-1.5717e-06 1.73784e-06 0)
(-7.65242e-06 0.000143152 0)
(6.43942e-06 8.85846e-05 0)
(-4.87987e-06 0.000184431 0)
(-5.19716e-06 0.000235789 0)
(2.77283e-06 4.25428e-05 0)
(3.52143e-06 7.49321e-05 0)
(3.16275e-06 5.77885e-05 0)
(-2.51258e-06 1.16969e-05 0)
(-1.60118e-05 0.00019455 0)
(-1.51727e-05 0.000193932 0)
(8.42264e-06 3.71007e-05 0)
(8.01249e-06 3.74238e-05 0)
(1.05557e-05 0.000154241 0)
(1.16044e-05 0.000153478 0)
(-5.65653e-06 3.25062e-05 0)
(-6.26389e-06 3.29385e-05 0)
(1.14569e-05 0.00020334 0)
(1.26017e-05 0.000202508 0)
(-4.60075e-06 0.000301276 0)
(9.20666e-06 0.000275012 0)
(9.33907e-06 0.000273723 0)
(-6.77866e-06 8.9195e-05 0)
(7.98855e-06 0.000142356 0)
(-2.41241e-05 0.000335812 0)
(-6.94028e-06 0.000267656 0)
(-6.66483e-06 0.000266396 0)
(2.29801e-06 1.70182e-05 0)
(2.36151e-06 1.65834e-05 0)
(2.08395e-05 0.000270646 0)
(-9.18641e-06 0.000114588 0)
(-7.88578e-06 0.000114628 0)
(2.06182e-05 0.000305731 0)
(-2.0836e-05 0.000322361 0)
(-2.0809e-05 0.000323902 0)
(-6.26671e-07 3.17558e-06 0)