/*--------------------------------*- C++ -*----------------------------------*\
| =========                 |                                                 |
| \\      /  F ield         | OpenFOAM: The Open Source CFD Toolbox           |
|  \\    /   O peration     | Version:  2.3.1                                 |
|   \\  /    A nd           | Web:      www.OpenFOAM.org                      |
|    \\/     M anipulation  |                                                 |
\*---------------------------------------------------------------------------*/
FoamFile
{
    version     2.0;
    format      ascii;
    class       volSymmTensorField;
    location    "5100";
    object      sigma;
}
// * * * * * * * * * * * * * * * * * * * * * * * * * * * * * * * * * * * * * //

dimensions      [1 -1 -2 0 0 0 0];

internalField   nonuniform List<symmTensor> 
11800
(
(161338 78059.6 7.75932e-14 -2875.5 4.10911e-14 39317.7)
(-79523.3 68104.2 1.19115e-13 0.435988 3.77617e-14 -19731.2)
(734153 100985 -1.99024e-15 1585.25 -8.59157e-14 182552)
(-636798 50326.1 0 -2258.3 0 -158563)
(-82489.5 65764.5 2.22234e-14 -4630.93 -6.27722e-14 -21616.3)
(-398165 103959 8.60515e-14 2074.92 4.51258e-14 -98277.9)
(-73973.6 99752.7 1.62993e-13 -594.999 -4.23751e-14 -18502)
(-104402 104095 -2.42597e-14 785.915 9.75725e-14 -25709.3)
(224914 50296.8 3.21586e-14 469.627 -2.19459e-14 55922.3)
(154570 109477 -8.33874e-14 441.273 -7.02201e-14 38461.5)
(186201 63801 -6.47283e-14 2159.24 5.53937e-14 46735.9)
(-923591 35899.5 -7.7209e-14 -6824.67 -3.50192e-14 -230855)
(25507.2 -37052.9 1.38315e-16 -68761.2 1.07495e-16 -10732.2)
(679922 50835.5 6.9973e-14 4075.45 -1.91382e-14 169714)
(-542931 97446.8 -5.84472e-14 6319.43 4.54229e-14 -133144)
(2.49458e+06 -10574.8 0 -8605.48 0 616820)
(-48281.4 77387.5 5.51582e-14 4719.45 4.86221e-15 -10808.6)
(-74601.7 71363 -3.11086e-14 9202.72 1.78597e-13 -16226.8)
(155992 121929 -3.15499e-14 -19971.7 2.24118e-14 33749.3)
(117823 64743.9 -1.10974e-13 -13314.8 -3.58883e-14 25930.6)
(-499936 57303.1 3.46022e-14 -2270.84 3.62561e-14 -124608)
(-808041 91576.6 5.53375e-14 4158.77 -3.21686e-14 -199460)
(-1.04626e+06 115564 -2.77106e-14 13055.9 1.77983e-14 -256358)
(-960022 65122.9 2.77794e-16 417.165 4.8083e-15 -238097)
(2.03735e+06 86909.6 3.51374e-15 -9120.76 4.0169e-14 503244)
(-1.25045e+06 115552 -2.7223e-14 9170.15 -7.69783e-16 -307986)
(-1.33499e+06 60917 0 11893.1 0 -328287)
(659764 45221.4 -9.19e-14 -5475.36 -5.5488e-14 162342)
(-1.45201e+06 62040.3 -1.57475e-14 12948.2 -7.58359e-14 -357060)
(-1.56875e+06 62426.4 2.10236e-14 15432.7 -3.26538e-14 -385410)
(431771 47403.2 -1.13924e-13 -2195.96 -2.0412e-13 106586)
(86492 60060.2 -1.8137e-14 2900.71 -1.49625e-14 22180.2)
(1.27828e+06 111677 -4.45925e-15 14725.4 -1.94403e-14 320821)
(-31106.2 81484.2 1.4898e-14 -2282.13 -1.11529e-13 -8284.32)
(22023.3 86565.8 -3.94061e-14 1886.85 -1.69093e-13 5932.58)
(-420995 35131.2 -1.03442e-13 -2013.65 -7.51338e-14 -104957)
(24392.2 87923.2 1.39951e-13 1452 -1.66388e-13 6412.47)
(1.37022e+06 62690.4 -1.6382e-14 7368.95 -6.98331e-14 341807)
(-49994.2 85551.9 0 -1177.11 0 -12696.6)
(112532 80646 -4.81536e-14 6571.71 8.96818e-14 29552)
(-1.40265e+06 44478.1 -8.53597e-14 -7162.52 -3.96568e-14 -349804)
(-1.5256e+06 43716.4 6.11236e-14 -7656.32 -3.50608e-14 -380431)
(693632 61189.5 -3.54564e-14 -353.485 -1.17951e-13 172017)
(-1.64812e+06 43794.6 -1.15858e-14 -5380.99 -6.19313e-14 -410267)
(453967 60007.1 3.02794e-13 899.111 -9.44251e-14 112861)
(2.33343e+06 54992 0 -8158.3 0 576948)
(1.00486e+06 127007 -1.75113e-14 -3712.5 9.15719e-15 248406)
(1.19637e+06 43293 -3.09304e-14 -13098 -2.14553e-14 293593)
(-117370 88781.8 -1.20035e-13 931.426 -7.3932e-14 -28890.8)
(270207 85573.1 0 2537.31 0 67673.4)
(-959588 51326.3 -5.82055e-15 2578.1 6.15346e-14 -237454)
(-671532 47596.7 2.01222e-13 2927.73 2.35702e-14 -165894)
(-13732.8 85794.4 1.12877e-13 1396.46 7.02573e-14 -3060.9)
(50173.2 138843 -2.4288e-15 9150.04 2.11594e-14 14719.3)
(-2.68199e+06 4710.33 -3.70834e-15 -13873.7 -5.84374e-15 -668900)
(2.08624e+06 -97327.3 5.00869e-15 -95430.1 8.79497e-15 493962)
(-71302.3 20148.4 9.71587e-14 1923.14 3.60743e-14 -17214.4)
(-601951 102411 7.24283e-15 -6734.92 -6.00143e-14 -151027)
(483683 63440.3 -6.12236e-14 10105.1 8.96564e-14 122519)
(-425311 108296 5.01258e-14 -7866.93 -9.04939e-15 -107480)
(2.16174e+06 19940.1 -4.38022e-14 -16547.7 -1.51769e-14 532266)
(-58590.6 90396.4 4.77767e-14 1000.72 -7.77246e-14 -14289.2)
(-474072 83181.2 -2.75154e-14 -2834.71 4.7279e-14 -118330)
(380092 83394.1 8.35833e-14 3919.57 -4.76654e-14 95281.1)
(2.01086e+06 10387.1 4.775e-15 -1318.73 -2.89637e-14 498609)
(-293745 33733.7 -1.36677e-13 1996.76 -1.6513e-13 -72388.6)
(-989385 21025.6 9.60653e-14 5308.26 3.20184e-14 -244169)
(-699815 24344.2 2.81593e-15 3926.81 -1.68731e-13 -172664)
(-73994.4 21621.8 0 -3792.94 0 -19300.6)
(-1.16572e+06 62043.5 -2.18812e-15 12326 7.11567e-14 -286181)
(-24326.8 87068.2 -2.73823e-14 -19.2313 5.65127e-14 -6040.76)
(-58151 67602.8 -1.05486e-13 -3283 1.17971e-13 -15243)
(-50931.2 66248.5 7.39819e-14 -1098.49 -4.52669e-14 -12909.6)
(-1.75242e+06 374781 -6.2628e-15 213669 5.6305e-15 -381795)
(2.14426e+06 74269.3 -1.71924e-15 -7325.23 -1.73827e-14 530216)
(-395475 54711.9 -1.01631e-13 2757.97 -7.39023e-14 -97441)
(2.10987e+06 11689 -3.68978e-14 4240.05 3.28343e-14 524553)
(-285171 19688.3 8.98513e-14 -451.176 -2.94726e-13 -70868.6)
(-211298 43906.8 1.68993e-14 -735.091 -1.61206e-14 -52609.7)
(-199164 58945.3 1.72545e-13 2061.23 1.72961e-13 -48905.2)
(-2.70147e+06 -53399.4 1.35123e-14 12175 6.36186e-14 -667269)
(119563 58005.1 0 9781.72 0 32093)
(62955.5 70358.4 -1.79368e-13 2183.89 -7.06482e-14 16162.4)
(43740.8 75125.4 6.21886e-14 862.443 -4.89227e-16 11067)
(-93676.4 67176.8 4.24612e-14 -9694.01 1.20122e-13 -25648.3)
(-1.52949e+06 76205.8 -2.364e-14 -8103.29 1.18859e-13 -381508)
(469288 54181 1.4472e-13 4926.22 -4.49958e-14 117662)
(-1.41209e+06 74882.9 0 -8198.72 0 -352403)
(-1.29577e+06 73461 -4.96428e-14 -7269.89 -5.08287e-14 -323310)
(697954 51386.4 6.62753e-14 6092.84 4.05293e-15 174688)
(-14543.5 85542 -2.33864e-13 -3193.06 -1.49934e-13 -4400.79)
(1.51203e+06 102821 0 -4899.45 0 373950)
(-125003 74521.1 -4.96173e-14 1896.49 -8.22348e-14 -30545.3)
(77123.7 15020.2 -2.85987e-14 5166.07 -4.1494e-14 20417.8)
(191290 76695.8 2.19212e-13 1821.36 3.92541e-15 47914.9)
(59011.1 -44499.5 -8.80312e-16 -125353 -6.52615e-16 -16460.7)
(-3128.54 12249.3 2.29336e-17 7358.11 -1.36455e-16 1049.44)
(-59621 -44260.3 -5.57603e-16 125143 3.71535e-16 16257.4)
(-14592.3 86888.5 -7.27078e-14 493.065 -1.05651e-15 -3498.31)
(-805061 56362.4 -1.78126e-14 -3029.8 7.09508e-14 -200504)
(55254.7 38827.3 3.99568e-14 -22.8129 -1.11724e-13 13704.2)
(878394 63891.2 -8.62671e-14 -7936.06 -1.19258e-13 215978)
(-1.43431e+06 117396 5.73203e-15 -923.646 1.16695e-14 -356110)
(-468965 77022.6 -3.54424e-15 7340.88 1.1172e-14 -114538)
(-2400.33 92769.2 -1.12185e-14 -937.239 -5.57985e-14 -828.119)
(375396 105795 -2.2999e-14 2601.22 -3.97193e-14 93788.7)
(-180245 77672.1 -6.86277e-14 -1066.33 1.51241e-13 -44987.1)
(-126150 80898.5 -2.32653e-13 -779.434 -1.12158e-13 -31493.7)
(2.13357e+06 19664.3 1.29564e-14 5680.69 2.69055e-14 530791)
(1.42585e+06 63074.7 2.12082e-14 5230.76 4.31508e-15 355081)
(1.54466e+06 64245.3 4.06275e-14 6001.7 5.64787e-14 384750)
(1.30864e+06 62531.9 1.4895e-13 4578.4 8.82244e-14 325836)
(-474646 56014.5 6.78019e-14 -3938.47 1.05856e-13 -118746)
(-705510 55295.3 -1.79282e-13 -4843.96 6.44395e-14 -176253)
(256343 69611.5 7.62919e-14 -100.374 -3.99755e-14 63579)
(1.92083e+06 35146.4 1.94814e-14 -15.9286 1.14714e-14 476592)
(271630 31922.4 -5.58763e-14 -2969.81 -2.19645e-13 66660)
(-86429.5 80445.6 -1.93807e-13 745.21 1.81139e-13 -21260)
(1.79908e+06 79758.6 -2.22828e-14 1335.48 2.77489e-14 446719)
(-155894 113554 -6.26104e-14 -356.435 -1.68444e-14 -38768.8)
(-240047 43618.6 -4.27786e-14 4201.27 -1.79935e-14 -58518)
(75900.2 99749.3 1.38684e-13 -2522.29 -1.98469e-13 18206.5)
(108607 107112 -9.65771e-14 -2189.24 6.64052e-14 26404.3)
(-77785.4 81642.9 -2.81211e-14 4671.15 -4.14743e-14 -18141.1)
(-131891 70440.9 -1.76475e-13 -1541.36 -1.37658e-13 -33107.3)
(-3030.92 85332.9 -1.69619e-13 -2482.99 -1.27576e-13 -1368.11)
(-40266.3 84543.4 -1.01685e-13 -161.965 1.11672e-13 -10031.1)
(-9274.17 86945.4 -6.64743e-14 -2388.54 -6.33268e-14 -2893.75)
(9972.2 57970.5 3.15746e-15 41882.4 1.41436e-13 12866.2)
(-39915.4 4734.21 -4.55502e-16 -9226.72 6.71931e-14 -12193.2)
(-2.24811e+06 -363834 2.01888e-14 91982.5 -1.01703e-14 -534979)
(-1.63126e+06 77157 1.4614e-14 -12432.4 -2.22918e-15 -407834)
(512273 49651.8 7.65641e-14 3638.29 -7.46509e-14 128008)
(-1.52609e+06 79635.4 -5.87176e-14 400.732 3.68489e-14 -378554)
(744965 45624.4 -3.44478e-14 4074.03 1.04372e-13 185852)
(-1.40611e+06 77223.4 2.24096e-14 505.672 2.2516e-14 -348759)
(-1.2882e+06 75226.1 -1.29504e-13 1140.65 9.8904e-14 -319345)
(426451 70806 7.50102e-14 -5539.22 2.08926e-13 104437)
(-1.30474e+06 29215.3 8.02414e-14 8428.7 -1.10176e-13 -321640)
(624259 74774.1 9.29917e-14 -6906.8 -7.40232e-14 153178)
(-1.20285e+06 30951.3 6.65507e-14 7508.6 -1.14458e-13 -296589)
(-1.10254e+06 33063.5 -6.89936e-14 7382.88 -6.21041e-14 -271731)
(-611185 96160.2 5.13459e-15 19284.4 5.1604e-14 -146863)
(188838 81407.1 -3.74547e-14 -6051.29 -2.49286e-13 45353.2)
(270410 79469.8 -5.98214e-14 -8377.1 -1.72734e-13 65015.7)
(-394211 77649.2 -1.79787e-14 12394.2 1.03453e-13 -94736.5)
(1.59413e+06 49171.3 -1.13876e-13 2122.47 -3.84203e-14 396062)
(-1.64238e+06 -23340.1 1.09454e-13 -12854.7 3.3815e-14 -410698)
(925063 46008.2 7.7063e-14 -2561.8 -7.17652e-14 228891)
(-465077 44310.7 1.70502e-15 8417.81 1.01143e-14 -113306)
(-214275 77378.2 -9.71102e-14 2016.58 -8.02128e-14 -52665.6)
(-224608 63442.9 8.31056e-14 -3189.58 -7.51575e-14 -56521.3)
(24007 86114.4 6.31754e-14 1338.37 1.15343e-13 6288.69)
(-319300 55538.7 -1.42068e-13 -1311.37 1.47276e-13 -79550.2)
(276318 67635 -7.44467e-14 -4677.02 -7.86295e-14 67399.7)
(187611 76429.2 -6.82544e-14 2988.59 5.25891e-14 47291.6)
(-596764 63316.4 1.15504e-13 8155.99 -7.77247e-14 -146046)
(-836536 70486.4 4.19236e-14 3558.16 9.1752e-14 -206679)
(1.68548e+06 19120.6 2.57256e-14 1918.78 -3.35459e-16 418679)
(-7865.93 90776.3 3.31645e-14 -859.605 -1.61245e-13 -2164.98)
(2.42867e+06 86051.5 -2.98669e-14 -14645.1 -1.6264e-14 598969)
(-262805 69432.9 -1.22715e-13 916.566 8.45274e-14 -64979.8)
(2.12431e+06 54907.6 0 -21326 0 521792)
(-610387 70342.8 3.59346e-14 -6392.31 1.50065e-13 -153036)
(-665539 70139.8 -3.68451e-14 -7152.09 4.36759e-14 -166908)
(-720150 70870 -5.98873e-15 -7494.41 1.57726e-13 -180543)
(337541 78512.5 -9.09072e-14 1141.97 2.23492e-14 84034.1)
(229457 79778.4 -9.70407e-14 768.385 2.39481e-14 57123.5)
(-2.63722e+06 -23388.7 2.36615e-14 -9901.36 -1.34842e-14 -656805)
(-1.65255e+06 75600.7 -2.44752e-14 -9705.65 4.60712e-14 -412440)
(584703 53346.6 -9.68504e-14 5283.95 -5.66622e-14 146388)
(813392 50415.7 2.71796e-13 6538.23 -1.46035e-13 203441)
(90515.7 87163.1 5.3251e-14 -8620.66 -1.37628e-13 20319.8)
(-475049 38990.6 0 1668.25 0 -117455)
(-480766 20592.9 1.45659e-13 -3466.09 -7.4027e-14 -120148)
(2.32802e+06 60915.9 3.88815e-14 -16477.9 2.59196e-14 573540)
(2.38231e+06 -16751.8 3.22408e-14 14610.5 2.84595e-14 594724)
(1.26037e+06 23589.4 2.01379e-15 -1370.44 6.83104e-14 312383)
(1.15811e+06 26346.6 1.40578e-14 -1130.11 1.66053e-13 287069)
(1.36414e+06 20910.1 3.52428e-14 -2518.3 -5.09494e-14 337845)
(-595900 76865.3 -8.78304e-14 4955.47 7.89998e-14 -146625)
(-394838 71828.3 -8.52422e-14 3918.75 9.34597e-14 -96995.1)
(259892 103010 0 2109.41 0 65007.9)
(177676 98838.5 -3.53688e-15 775.446 1.35483e-13 44277.3)
(566534 76234.4 -1.04205e-13 -118.086 8.51807e-14 140539)
(-238726 71910.3 -8.33411e-14 3159.37 1.97497e-13 -58448.9)
(-369446 107867 -1.64255e-14 4807.16 7.25351e-14 -90474.4)
(115328 78772.8 -3.10536e-13 -845.754 -8.23739e-14 28405.4)
(164542 75422.3 -2.14646e-13 -1260.86 8.9778e-14 40513.5)
(-99990.4 90841.7 -4.18771e-14 2307.64 -5.85775e-16 -24237.1)
(-281544 57879.1 -3.44627e-14 6181.91 -2.1504e-14 -68323)
(-259270 59688.2 2.27976e-14 5550.68 -3.89027e-14 -62952.9)
(-261324 42985.1 0 -376.173 0 -64933.1)
(-123916 111444 4.68395e-16 -5516 -4.49255e-14 -32114.6)
(-1.21378e+06 1573.41 1.01623e-13 -7236.79 -4.44957e-14 -302959)
(1.52241e+06 59081.2 -1.31843e-13 -6941.27 -1.3298e-14 376019)
(1.84393e+06 185600 7.7702e-15 -314159 3.92345e-15 379567)
(-43890 75278.1 2.77315e-14 -3884.74 -6.28354e-14 -11853.9)
(283445 25410.2 1.012e-13 2581.75 -2.30981e-13 70969.2)
(-2.30728e+06 -290208 1.94068e-14 186317 -1.25014e-14 -526255)
(132014 59648.7 4.33032e-15 3876.05 1.17379e-13 33717)
(362866 42159.7 8.16904e-14 748.7 -9.37589e-14 90220.1)
(401074 46404.3 1.14067e-13 -5763.73 -4.81154e-14 98084.5)
(-5070.45 89429.1 8.59285e-14 -113.281 -1.2739e-14 -1286.19)
(-5734.5 92628 9.06395e-14 -656.497 7.66191e-15 -1585.74)
(1.10208e+06 33825.2 2.89205e-14 -5216.53 9.60525e-14 272154)
(913735 98554.9 3.67119e-14 8557.16 -8.84806e-15 228839)
(-831393 81613.3 0 8386.09 0 -204205)
(-710508 42277.3 -9.35616e-14 -10828.4 -5.85059e-14 -178978)
(2.2434e+06 -367697 -8.14759e-15 -94238.3 -5.48359e-15 533251)
(-692488 125352 -7.45742e-15 19305.8 8.66838e-14 -167030)
(-1.10573e+06 39487.7 5.11434e-14 -2308.6 -3.01123e-14 -274926)
(-2.33786e+06 -941682 -2.19075e-14 489125 8.55677e-15 -458710)
(2.81877e+06 1578.69 0 38501 0 708947)
(-2.04729e+06 -872005 -7.12844e-15 230323 2.20276e-15 -450827)
(361921 124117 -4.87207e-14 -161.18 1.7153e-14 89760)
(-80980.5 72317.3 -8.76424e-15 -747.66 1.22513e-13 -20278.4)
(-1.06956e+06 90964.4 4.34066e-14 -9066.05 -4.76991e-14 -267629)
(-979980 91556 6.47325e-14 -8189.09 -8.08465e-15 -245185)
(-899660 89474 -7.39138e-14 -7357.61 2.87602e-15 -225049)
(319770 63032.4 6.50047e-14 4190.8 -1.81322e-13 80381.2)
(481144 60322.3 -1.63099e-13 5373.26 1.5852e-13 120715)
(47426.6 78403.5 -2.56518e-14 -8223.24 1.20353e-13 9727.14)
(67811.3 73956.1 6.06949e-14 -11343.6 7.7729e-14 14010.8)
(-152681 118281 -6.87159e-14 25479 1.85812e-14 -31561.4)
(-98232.1 68631.3 5.15449e-14 16871.5 -6.59034e-14 -20187.2)
(-1.28148e+06 -515764 -5.52069e-15 -32034.3 1.15288e-15 -325909)
(242543 119542 -3.90819e-14 18409.2 -1.38333e-13 64747.5)
(-120624 70478 -1.35505e-13 -9506.91 -6.19233e-14 -32288.1)
(-566659 113449 0 42.3863 0 -140589)
(242067 64164.5 1.03564e-13 1292.73 -4.22414e-14 60382.4)
(-119435 97071.4 0 -702.075 0 -29808.6)
(-88912.2 76484.6 -6.59947e-14 -1053.71 -1.04495e-13 -22322.4)
(847349 80649.1 9.21653e-14 4707.57 -9.63819e-14 211413)
(870487 49572.2 1.41155e-13 79.3701 6.73992e-14 216005)
(2.33632e+06 -941147 -8.20043e-15 -489288 -2.7094e-15 458286)
(1.28027e+06 -515802 9.57786e-15 31953.1 2.62494e-15 325588)
(-262642 55245.6 2.01172e-14 2088.98 2.86189e-14 -64648.5)
(-280231 56040.6 -6.11185e-14 -3040.2 -1.24934e-13 -70285.3)
(-1.50707e+06 -1464.73 -6.7061e-14 -5596.58 -1.5353e-14 -375323)
(1.22347e+06 54295 1.52039e-13 -4032.43 -3.96983e-14 302568)
(395036 72509.6 5.0598e-15 -3357.23 2.76723e-13 97183.4)
(595448 78474 9.40215e-14 -4050.95 1.02187e-13 146738)
(-1.36408e+06 21110.3 -2.48303e-15 -702.097 5.80266e-14 -338629)
(-1.2628e+06 25717.2 -5.91171e-14 -1021.5 1.9545e-14 -313581)
(-1.1601e+06 28416.4 -3.98552e-15 -1065.26 9.18678e-14 -288109)
(-17865.2 92051.8 -1.43065e-13 -887.09 4.13649e-14 -4652.83)
(-1.47599e+06 23530.8 3.82979e-14 -2248.98 4.11725e-14 -366782)
(497152 73291.3 -9.63643e-14 -3399.36 4.72561e-14 122510)
(698514 77744.5 0 -3702.55 0 172397)
(658536 57327.4 3.66803e-14 -4959.21 8.745e-14 162166)
(126722 76829.8 -1.20908e-13 531.791 -3.19506e-13 31574.2)
(11134.4 78509.7 -1.05947e-13 -9296.64 -3.89471e-14 455.996)
(534523 39408.7 -1.33246e-13 16458 2.38213e-14 136709)
(-456853 59859.6 -1.14733e-14 -1326.01 -9.29062e-14 -113683)
(72344.2 79507.4 1.55488e-15 -17271.6 1.93084e-14 13664.6)
(2.04514e+06 -872149 -7.41957e-15 -231040 -1.86465e-15 450114)
(326132 84980.5 9.50702e-15 -2698.66 -1.76416e-13 80250.3)
(392867 82539 8.21602e-14 296.636 2.79347e-14 97551.8)
(-257239 81456.6 0 -798.664 0 -64024.3)
(-305598 92080.4 3.0707e-14 -7971.36 -8.54126e-14 -77802.9)
(903883 89283.2 0 8117.64 0 226286)
(984556 91419.5 5.41278e-14 8975.02 5.13194e-14 246515)
(1.06448e+06 95072 -1.2098e-13 9418.29 -1.17034e-14 266455)
(-480831 57274.5 1.7216e-13 -6144.76 1.74834e-13 -120829)
(-323027 61980.3 9.05376e-15 -4417.87 -1.04676e-13 -81245.8)
(-17057.1 87516.2 1.01908e-13 -688.184 5.42346e-14 -4402.97)
(2.11029e+06 10760.9 -1.56362e-14 -33276.4 -2.84765e-14 515348)
(-13099.8 104034 -1.1005e-13 -6435.44 3.42773e-14 -4847.1)
(28293.7 49374.4 -1.04587e-13 12745.2 -6.5045e-14 10182.6)
(47591.9 82941.3 7.91831e-14 1460.87 -1.83688e-13 12171)
(512058 84226.8 8.41465e-14 603.812 8.8867e-14 127202)
(-199015 3221.35 -1.40139e-13 -3227.12 6.86269e-15 -50180.5)
(677312 93963.6 0 -4205.06 0 167011)
(2.21514e+06 -97890 3.59312e-16 -306289 1.44247e-16 473624)
(508263 21736.5 8.09113e-14 7577.25 1.83927e-13 127990)
(488765 35233 3.66678e-14 -7068.47 1.99755e-14 119519)
(-736520 80628.5 1.20358e-14 6775.96 2.54144e-14 -181064)
(-523626 75163.3 -9.38886e-14 5817.57 3.00681e-14 -128479)
(-627489 48526.8 -1.91834e-13 -3266.45 -3.35407e-14 -156503)
(-449688 53640.2 9.69112e-15 -3294.7 -1.01857e-14 -112394)
(1.54958e+06 18916.6 -6.64981e-15 -4099.34 2.19166e-14 383465)
(1.28348e+06 101162 2.7273e-15 -711.371 -4.53289e-14 318281)
(372007 92970.9 1.6979e-14 -4621.69 1.00392e-14 91155.7)
(500199 76388.9 3.18804e-14 -391.309 5.41992e-14 124013)
(274266 91808.1 8.87381e-14 -4477.51 6.32018e-14 66940)
(367278 76770.9 7.95679e-14 -1318.07 -1.2589e-14 90802.2)
(-700550 52215.5 -1.45762e-14 7359.85 3.65269e-14 -171994)
(-922084 84652 -4.04092e-14 2882.09 7.26321e-15 -228073)
(-209538 135295 4.47724e-14 -696.231 3.19265e-14 -52163.5)
(1.51397e+06 59126.9 4.99694e-14 6009.19 3.58133e-14 377137)
(1.64145e+06 58624.6 -1.08163e-14 26789.4 5.36678e-15 413924)
(1.9451e+06 60276.9 8.78591e-15 -1845.43 5.52839e-15 482161)
(136648 86043.1 -1.72735e-13 -662.465 2.0967e-13 33740.7)
(-501544 22750.1 -1.07017e-13 -7201.52 -5.50083e-14 -126230)
(-485464 38325.2 -1.358e-13 3975.76 9.08016e-14 -119467)
(2.28057e+06 -11202.1 0 14127.3 0 569361)
(2.28726e+06 68580.5 0 1570.53 0 567906)
(1.37617e+06 53016.5 2.09636e-14 -1825.27 9.96106e-14 341003)
(1.36408e+06 6426.41 6.67408e-14 5475.49 -1.87655e-13 339813)
(-1.41606e+06 9679.03 0 -10364.1 0 -353926)
(-1.38112e+06 53617.6 0 9413.36 0 -340349)
(39378.6 82976.7 -2.38035e-14 2329.46 6.8151e-14 10348.6)
(-95401.2 33646.9 2.54718e-13 -5317.58 -1.07771e-13 -24990.4)
(-371274 35474 -6.7166e-14 -3605.99 -2.4774e-14 -93015.4)
(2.96935e+06 3061.49 0 59903.1 0 751620)
(-52277.9 72191.3 -1.67981e-13 -870.413 -4.18646e-15 -13187.2)
(-62333.3 74988.3 -2.41948e-14 -4694.24 -1.34507e-13 -16630.9)
(330900 100631 -8.65635e-14 -7624.39 -5.9303e-14 80211.1)
(-260565 98289.6 -1.80292e-13 -7963.04 7.54695e-14 -66627.3)
(316643 58577.1 5.22774e-14 -8380.35 -5.40494e-14 76486.3)
(-1.20991e+06 50176.7 3.71101e-14 -11200.5 -7.54872e-14 -302983)
(1.2206e+06 55300.9 -1.54331e-14 -12663.9 -9.22947e-14 299715)
(-2.03427e+06 84012.8 1.59435e-14 -12583.7 -6.79017e-14 -507866)
(-2.38892e+06 -219567 8.36685e-15 439531 -5.99123e-15 -483683)
(838729 107315 -1.33427e-14 -17535.1 1.65446e-14 203755)
(96827.6 108935 -8.93722e-15 -5236.08 5.0303e-14 22725.7)
(-1.1415e+06 89084.7 -4.47365e-14 -4738.3 -1.25408e-13 -284405)
(961169 27226.7 -5.83244e-14 12695.8 8.41138e-14 241636)
(-663908 53239.6 6.42677e-14 -11392.7 8.24064e-14 -167556)
(519675 87875.9 9.67023e-14 6429.13 1.69757e-15 130537)
(97516.8 94197.8 2.70127e-14 6002.88 1.26346e-15 25685.3)
(165971 71732.9 -1.14238e-13 -831.535 1.43404e-13 40974.5)
(-328421 61004.5 7.80348e-14 -20852.6 -8.28223e-14 -86661.9)
(-532030 126787 1.26104e-15 9128.28 1.04304e-13 -129743)
(-301942 62497.3 1.20501e-14 -19247.9 -8.38717e-14 -79693.8)
(-488838 122871 7.62016e-14 8379.9 -2.78374e-14 -119211)
(121573 49393.5 -4.76613e-14 -3469.1 1.47931e-14 29304.1)
(-57530 105478 -1.26894e-15 2795.83 -9.42227e-14 -13580.7)
(-37573.2 102985 1.16981e-13 2814.4 9.37912e-14 -8624.37)
(-25066.9 90728.3 6.02249e-14 985.077 -1.31075e-13 -5975.18)
(1.61149e+06 40704.1 3.42808e-14 4718.82 5.31727e-15 401015)
(-16608.2 105461 -1.32153e-13 -7606.84 -5.87169e-14 -6008.23)
(-63710.9 74666.9 6.53877e-14 -4276.67 -2.18855e-13 -16869.1)
(2.23517e+06 -69173 -1.69777e-14 -114977 -1.2349e-14 526062)
(378441 61122.1 6.9658e-14 -5449.96 -8.93363e-14 92546.6)
(-870820 108298 4.62832e-14 15878.2 1.24837e-14 -212128)
(-1.00622e+06 69770.9 -7.59655e-14 2058.5 -3.32291e-14 -249152)
(-998862 29823.2 0 -12410.9 0 -250917)
(1.25657e+06 16250.3 -6.83434e-14 5779.07 -3.2491e-14 313214)
(1.20395e+06 78871.2 4.19932e-15 10009.1 8.13605e-14 301207)
(-37881.9 61672.7 -7.73424e-14 731.536 6.30178e-14 -9217.75)
(-28841.2 62158.6 5.61047e-14 1602.72 -3.13604e-13 -6758.43)
(-775730 115859 -3.04951e-14 9195.73 -7.43382e-16 -190193)
(-1.0451e+06 80911.9 0 13350.5 0 -255999)
(736453 47873.7 1.66749e-14 8251.5 4.0894e-14 184776)
(-1.90066e+06 103018 7.29667e-15 -9276.83 -2.29879e-14 -473893)
(68480.3 72290.8 0 17646.7 0 21369.9)
(1.05858e+06 41260.3 -3.61427e-15 -3556.26 2.50991e-14 261772)
(803243 112456 -1.95845e-15 6340.08 9.48627e-17 200874)
(-509610 92890.7 1.43707e-13 4508.89 -1.84767e-14 -125326)
(-395631 61824.3 -1.40468e-14 -4247.43 1.0122e-13 -99217.9)
(-363464 88269.6 2.22504e-14 3884.61 -8.45116e-14 -89219)
(-285098 66307.3 -1.25765e-15 -3414.28 4.96499e-15 -71585.8)
(-403417 40892.9 5.20197e-14 -137.749 7.68018e-14 -100130)
(-340564 46683.7 -9.09947e-14 2490.35 1.8304e-14 -83883)
(-416738 113277 0 953.264 0 -103165)
(-467392 114045 -4.56564e-14 -1288.6 3.96435e-14 -116289)
(-507784 117211 -3.72232e-15 -1618.87 -4.24188e-15 -126393)
(139324 72342 -2.23978e-13 1296.85 -1.11938e-13 34891)
(-27685.3 86266.9 -4.97158e-14 -2354.7 9.89169e-14 -7453.54)
(1.00717e+06 42779.8 -2.79314e-14 6007.52 7.96256e-14 251389)
(1.05461e+06 59128.7 3.86921e-14 -6832.82 -7.52202e-14 259975)
(173977 75867.3 8.0578e-15 1811.69 -5.58093e-14 43616.8)
(255654 69413.5 0 3031.16 0 64185.1)
(-547532 111836 5.69683e-14 -2882.83 -6.2553e-14 -136569)
(487422 65396 -1.08918e-13 4818.43 -1.38738e-15 122135)
(532237 99539.4 -4.76797e-14 5493.43 -2.95451e-15 133422)
(-196131 83898.4 -9.20335e-14 -329.326 1.31845e-13 -48745.8)
(-167521 87973.6 5.36914e-14 -1703.86 3.14831e-15 -41988.1)
(-239833 92353.5 8.69539e-14 -1438.39 3.09181e-14 -59864.4)
(-266235 78670.7 0 -3403.97 0 -66903)
(-1.14966e+06 42997.1 2.53829e-14 -282.895 -3.86754e-14 -285323)
(537595 81069.7 -4.21456e-14 -1261.06 -1.6647e-13 133075)
(381665 78232 -1.93037e-14 -1310.44 -2.75868e-15 94373.7)
(-122387 217408 -1.15672e-14 24382.6 -8.23598e-15 -24317)
(1.3924e+06 34680 -8.83019e-14 -9965.14 -5.2878e-14 343010)
(-1.62355e+06 8239.96 7.63336e-14 2220.56 4.56647e-14 -402286)
(-182380 200730 0 -7195.08 0 -47037.4)
(-191240 81033.7 3.21752e-14 2081.31 9.70872e-14 -46934.1)
(-161321 85717.8 -2.42012e-13 3677.03 -6.13711e-14 -39114.6)
(-279425 80675.7 1.04337e-13 1762.3 1.16604e-15 -68893.7)
(-240601 88933.5 0 3193.53 0 -58905.7)
(546884 63343.4 5.28646e-14 -4939.65 -8.50717e-14 134467)
(627850 90692 1.93164e-14 -3723.58 8.18272e-15 154858)
(510915 67854.5 -3.9378e-14 -10126.1 3.7681e-14 124256)
(595673 94072.4 4.2086e-14 -7004.33 1.16124e-13 146061)
(469280 68402.6 3.3039e-14 -9272.41 5.53878e-14 114137)
(546985 92655.1 -7.17426e-14 -6485.24 4.09776e-14 134109)
(429550 39968.6 3.2837e-14 -367.737 1.23943e-13 106489)
(414451 22305.1 9.65503e-14 1840.72 2.06642e-13 103291)
(-813801 88583.4 -1.82585e-14 1084.2 2.39419e-14 -201652)
(388582 86329.3 -9.99622e-14 -4816.48 -2.43222e-15 95219.9)
(-918329 62854 0 7889.77 0 -225898)
(1.58868e+06 95355.6 5.35265e-14 -13432.7 -3.36542e-14 390850)
(-808550 38504.4 1.00702e-13 3067.74 -1.65342e-13 -199856)
(-588142 45025 1.21656e-13 1026.42 -8.17289e-14 -145675)
(-1.764e+06 -833963 -6.7847e-15 279390 1.51671e-15 -368361)
(52405.4 80651.5 1.35935e-13 62.467 -3.56798e-14 13018.3)
(1.68471e+06 50651.2 -1.78951e-14 -3815.92 -9.11817e-16 417065)
(-825917 61417.6 -2.81581e-14 3174.53 -8.16619e-14 -204139)
(-593268 59207.9 1.76232e-13 2901.49 8.66882e-14 -146482)
(2.49508e+06 -21172.4 2.90041e-14 -5463.02 1.29088e-14 617724)
(-113074 71535.3 -1.94956e-14 -1936.93 7.81735e-14 -28536.5)
(1.73277e+06 10568.8 4.44481e-14 5039.15 -2.76e-14 431186)
(-408561 62674.6 6.09944e-14 1565.85 -1.07482e-13 -100984)
(-1.4249e+06 93386.2 3.60099e-14 14641.6 -4.69444e-15 -349914)
(-1.33918e+06 57705 -2.19955e-14 -7747.27 -1.66728e-15 -334200)
(1.29958e+06 59320.9 -4.16252e-14 2262.61 2.71889e-14 323015)
(-167063 84848.8 -2.65807e-13 6544.12 -1.20933e-13 -39828.1)
(-3861.14 -44769.1 2.76138e-16 -70195.2 9.81673e-17 -18374.9)
(-19902 76332.9 0 3072.27 0 -4175.8)
(-2.34129e+06 -748754 1.11453e-14 293111 -3.07207e-15 -508196)
(1.7614e+06 -834057 1.3203e-14 -281872 4.15114e-15 367102)
(-1.14335e+06 97836.2 4.66644e-14 -9140.58 -4.52096e-14 -285956)
(399675 59712.7 2.03769e-14 3989.26 7.85948e-14 100157)
(556682 55014 -6.54514e-14 5403.7 1.48988e-13 139465)
(159147 79529.4 1.31236e-13 -1193.41 3.9065e-14 39191.4)
(-298111 14052.9 7.60536e-14 -61.4895 -1.16915e-13 -73982.6)
(270714 105512 -6.31089e-14 -1783.84 5.7732e-14 66727.1)
(-136848 62359.4 1.8644e-14 789.121 2.8574e-14 -33758.9)
(-121713 113430 1.32593e-14 4966.06 3.84011e-14 -28967.4)
(-1.92477e+06 -1569.09 -6.13123e-15 51591.5 1.44797e-14 -464775)
(15689.7 -26642.9 7.24755e-17 -46528.5 4.49867e-17 -7651.73)
(-678628 105078 -2.8126e-16 8498.36 5.27436e-15 -166273)
(535143 56619.8 4.7382e-14 -3618.48 1.46665e-13 131882)
(1.9934e+06 -386374 1.17508e-15 -52087.5 1.5145e-15 481680)
(-60635.8 61930.7 -1.21613e-14 -10725.5 -9.45056e-14 -17706.2)
(-67901.3 107964 9.64796e-15 -5083.9 9.22611e-14 -18109.1)
(-38442.5 93851.5 -1.65062e-15 -45.5019 -1.41217e-13 -9549.66)
(-98480.9 77375.4 -2.59817e-14 4213.49 3.53737e-14 -23389.7)
(45382.3 92536.8 4.23157e-14 -1714.5 1.0931e-13 10834.9)
(29806.4 94319.9 -9.95022e-14 -101.237 -3.24709e-14 7370.46)
(-1.99679e+06 -383857 4.98821e-15 50253.3 -1.54278e-15 -482976)
(710454 96031.4 -3.83092e-14 2770.66 2.07018e-14 176966)
(-249707 78213 -2.66389e-13 -1124.09 -7.5554e-14 -62236.4)
(844175 81871.6 1.37838e-13 4936.13 -2.33326e-13 210682)
(776447 81188.4 -1.7486e-15 4504.32 -8.96197e-14 193770)
(711552 78902.1 -2.56711e-13 2506.59 3.86904e-14 177172)
(122435 43687.9 -1.30182e-13 3921.61 -4.86876e-14 31351.8)
(-1.64734e+06 30911.3 6.92281e-14 -4088.89 -6.71014e-14 -409754)
(524663 62502.5 1.41141e-13 -3020.7 1.52282e-14 129430)
(746376 65143.3 -6.3889e-14 -3038.51 -9.13197e-14 184437)
(-141847 77612.4 -2.25624e-13 -306.591 -3.8025e-14 -35271.1)
(1.04587e+06 104779 1.45754e-14 -13940.6 2.09834e-14 256042)
(202899 59550.4 -9.1292e-14 630.361 6.18165e-14 50499.8)
(-2.09123e+06 21481.8 -2.33045e-14 -2774.52 -8.59813e-15 -519565)
(61460.9 79557.4 -1.17736e-13 1799.93 -9.90113e-14 15696.3)
(-178199 85579.4 -2.34093e-13 1197.13 1.10496e-13 -43917.8)
(606453 63709.7 1.75292e-13 394.433 -2.51899e-14 150571)
(557839 64592 1.64051e-13 325.921 3.99155e-14 138492)
(510628 63403.3 -1.19064e-13 -1627.22 3.27803e-14 126293)
(1.08973e+06 44299.3 1.75377e-14 33.1756 3.66941e-14 270393)
(243620 86047.1 -7.8996e-14 3471.36 -1.69205e-13 61308.4)
(-605577 68915.4 5.33882e-14 -9381.63 1.18953e-15 -152584)
(-470768 128057 3.2449e-14 4274.26 3.61354e-14 -115747)
(-266008 50943.7 0 2050.27 0 -65493.2)
(-846525 95781.5 -7.21792e-14 -9689.43 2.19682e-14 -212444)
(-923448 98162 -1.08426e-13 -10776.5 -7.14904e-15 -231800)
(-1.00194e+06 101360 -1.08097e-13 -12206.2 5.20431e-14 -251629)
(480657 63413 2.2431e-15 7876.46 2.77794e-14 121215)
(327997 68464.4 3.51901e-14 5788.83 -4.40412e-14 82819)
(82932.3 5530.02 -1.02301e-13 4256.49 3.68949e-14 21633.3)
(168423 66404.5 0 -1752.97 0 41354.1)
(215990 53112.3 -1.19808e-13 2222.7 7.14874e-14 54142.9)
(2.41523e+06 -121194 -6.27213e-15 -314001 -3.01708e-15 521359)
(940521 43124.8 1.17496e-13 1958.99 -1.2056e-13 233848)
(-722677 87346.6 0 1634.27 0 -178905)
(-504640 78403.1 -5.82593e-14 9883.96 -2.55496e-15 -122759)
(406682 82695 3.11531e-14 -4140.29 -3.85173e-14 99878.7)
(-129435 99164.4 5.20703e-14 -2851.93 4.27059e-14 -32823.1)
(-15444.8 94808.7 1.537e-13 -3424.85 -1.21059e-13 -4681.94)
(43470.7 67104.3 1.22016e-13 10476.5 -1.92952e-14 13385.4)
(47389.6 66006.6 -6.37587e-14 11461.4 -5.93326e-14 14602.1)
(-3980.52 121143 -3.19125e-15 -2858.7 -2.61194e-14 -1696.95)
(-11363.7 62453.9 -2.86277e-14 -1051.77 9.62382e-14 -3080.52)
(892.502 73024.3 -1.07335e-13 421.791 7.99589e-14 326.103)
(14641.7 75300 1.02595e-13 -14782.7 -4.65866e-14 -34.9851)
(179161 50663.2 -7.86187e-15 2482.75 -3.69487e-14 45069.4)
(-326762 120968 -1.84413e-15 2014.76 -1.77578e-14 -80576.3)
(106711 75813.8 2.57279e-13 1692.95 -5.06019e-14 26897.2)
(16692 117128 1.05813e-14 -19451 1.50396e-14 -684.571)
(-695258 119800 -2.64489e-14 -2857.29 -1.58576e-14 -173217)
(893211 53103.7 8.79047e-14 3580.93 7.83391e-14 222512)
(-384649 89200.2 -9.89891e-14 -470.06 3.23711e-14 -95555.9)
(-1.59806e+06 282993 -4.56091e-15 280234 2.72274e-15 -326978)
(-236778 48470.2 7.05322e-14 -1918.67 7.65593e-14 -59225.4)
(-387630 121529 0 4206.85 0 -95135)
(115774 76526.1 1.37303e-13 839.301 -1.89588e-13 28934.2)
(180435 69886 7.2586e-15 -497.314 2.35565e-14 44646.2)
(1.75672e+06 -388615 -1.41273e-15 56745.8 2.46155e-16 449957)
(-2.44313e+06 7861.64 -1.95002e-14 14605.9 8.95934e-15 -602567)
(772992 62087 4.32018e-14 3766.82 3.62765e-14 192730)
(840817 61117.7 -4.3679e-14 3953.63 9.51425e-14 209605)
(-253973 84729.5 -3.2581e-13 617.925 -1.16291e-13 -62862.5)
(179645 108361 5.71755e-14 11931.4 1.12619e-13 47533.9)
(-38804.4 72422.1 9.16686e-14 -2689.26 1.39434e-13 -10295.4)
(-995168 -646431 -1.20865e-15 74562.9 5.08575e-16 -228421)
(-2.38422e+06 78434.4 6.38212e-15 1791.71 8.24904e-15 -591129)
(2.11215e+06 37129.2 3.46625e-14 4183.08 -1.70587e-14 525105)
(-3.04923e+06 -53888.2 -8.97465e-15 -8042.5 -3.86006e-15 -758571)
(993909 56653.4 -3.96286e-14 -7356.33 -6.15466e-14 244784)