/*--------------------------------*- C++ -*----------------------------------*\
| =========                 |                                                 |
| \\      /  F ield         | OpenFOAM: The Open Source CFD Toolbox           |
|  \\    /   O peration     | Version:  2.3.1                                 |
|   \\  /    A nd           | Web:      www.OpenFOAM.org                      |
|    \\/     M anipulation  |                                                 |
\*---------------------------------------------------------------------------*/
FoamFile
{
    version     2.0;
    format      ascii;
    class       surfaceScalarField;
    location    "0.2";
    object      phi;
}
// * * * * * * * * * * * * * * * * * * * * * * * * * * * * * * * * * * * * * //

dimensions      [0 3 -1 0 0 0 0];

internalField   nonuniform List<scalar> 
1460
(
1.06926e-06
2.77828e-06
1.52106e-06
2.45691e-06
1.94172e-06
1.44861e-06
1.90323e-06
1.07902e-08
1.7608e-06
-1.30504e-06
1.41133e-06
-2.36091e-06
8.44402e-07
-2.99275e-06
1.69343e-07
-3.18737e-06
-4.67724e-07
-3.05477e-06
-9.5156e-07
-2.71663e-06
-1.2825e-06
-2.2687e-06
-1.76658e-06
-1.5103e-06
1.53724e-06
2.48487e-06
1.8099e-06
2.18425e-06
2.02822e-06
1.23028e-06
1.99258e-06
4.64319e-08
1.74525e-06
-1.05771e-06
1.29037e-06
-1.90603e-06
7.11292e-07
-2.41367e-06
1.32231e-07
-2.60831e-06
-3.63148e-07
-2.55939e-06
-7.48811e-07
-2.33097e-06
-1.04204e-06
-1.97547e-06
-1.55381e-06
-1.25481e-06
1.51962e-06
2.33602e-06
1.69139e-06
2.01248e-06
1.80473e-06
1.11695e-06
1.72625e-06
1.24914e-07
1.45901e-06
-7.90476e-07
1.04601e-06
-1.49303e-06
5.82311e-07
-1.94997e-06
1.34926e-07
-2.16092e-06
-2.63586e-07
-2.16088e-06
-6.00597e-07
-1.99396e-06
-8.65942e-07
-1.71012e-06
-1.35951e-06
-1.06025e-06
1.35623e-06
2.49436e-06
1.38728e-06
1.98143e-06
1.43093e-06
1.0733e-06
1.36369e-06
1.92155e-07
1.15301e-06
-5.79797e-07
8.43258e-07
-1.18328e-06
4.87872e-07
-1.59459e-06
1.28409e-07
-1.80146e-06
-2.07203e-07
-1.82527e-06
-4.97205e-07
-1.70396e-06
-7.29926e-07
-1.4774e-06
-9.04074e-07
-1.18536e-06
-1.66105e-06
-1.24116e-06
-1.73967e-06
-6.96502e-07
-1.68264e-06
-1.25914e-07
-1.58329e-06
3.57883e-07
-1.42407e-06
8.05525e-07
-1.21332e-06
1.19265e-06
-9.70252e-07
1.5141e-06
-6.85093e-07
1.81129e-06
-3.73647e-07
2.09111e-06
-6.47695e-08
2.31645e-06
2.58763e-07
2.45813e-06
2.47524e-06
6.94887e-07
-1.39566e-06
-1.10031e-06
-1.46498e-06
-6.27184e-07
-1.44485e-06
-1.46048e-07
-1.37281e-06
2.85843e-07
-1.24552e-06
6.78238e-07
-1.07384e-06
1.02097e-06
-8.69857e-07
1.31012e-06
-6.19803e-07
1.56123e-06
-3.03807e-07
1.77511e-06
8.87398e-08
1.92391e-06
5.73435e-07
1.97343e-06
1.80523e-06
1.24345e-06
-1.1887e-06
-9.71854e-07
-1.25271e-06
-5.63173e-07
-1.24717e-06
-1.51584e-07
-1.18985e-06
2.28514e-07
-1.08657e-06
5.74966e-07
-9.42312e-07
8.76704e-07
-7.65915e-07
1.13373e-06
-5.58145e-07
1.35346e-06
-3.09801e-07
1.52677e-06
1.61912e-08
1.59791e-06
5.212e-07
1.46842e-06
9.55427e-07
1.371e-06
-1.02125e-06
-8.5468e-07
-1.08164e-06
-5.02776e-07
-1.08438e-06
-1.48853e-07
-1.03937e-06
1.83508e-07
-9.51824e-07
4.8742e-07
-8.27271e-07
7.52151e-07
-6.71033e-07
9.77489e-07
-4.9062e-07
1.17305e-06
-2.98357e-07
1.33451e-06
-6.19993e-08
1.36156e-06
4.57308e-07
9.49115e-07
1.51535e-06
-1.02614e-07
1.06852e-06
2.77835e-06
1.52035e-06
2.45683e-06
1.94089e-06
1.44812e-06
1.90195e-06
1.02514e-08
1.75939e-06
-1.30557e-06
1.40977e-06
-2.3609e-06
8.42921e-07
-2.99224e-06
1.6825e-07
-3.18657e-06
-4.68267e-07
-3.05395e-06
-9.51647e-07
-2.71592e-06
-1.28235e-06
-2.26812e-06
-1.76617e-06
-1.51004e-06
1.5367e-06
2.48509e-06
1.80923e-06
2.1843e-06
2.02735e-06
1.23e-06
1.99156e-06
4.60421e-08
1.74402e-06
-1.05802e-06
1.28917e-06
-1.90604e-06
7.10345e-07
-2.41342e-06
1.31677e-07
-2.6079e-06
-3.63353e-07
-2.55892e-06
-7.4881e-07
-2.33047e-06
-1.04191e-06
-1.97502e-06
-1.55349e-06
-1.25459e-06
1.51958e-06
2.33652e-06
1.69107e-06
2.0128e-06
1.80421e-06
1.11687e-06
1.7256e-06
1.24654e-07
1.4583e-06
-7.90725e-07
1.04539e-06
-1.49314e-06
5.81881e-07
-1.9499e-06
1.34687e-07
-2.1607e-06
-2.63675e-07
-2.16056e-06
-6.00561e-07
-1.99358e-06
-8.65809e-07
-1.70978e-06
-1.35927e-06
-1.06003e-06
1.35664e-06
2.49522e-06
1.3874e-06
1.98205e-06
1.43086e-06
1.0734e-06
1.36351e-06
1.92007e-07
1.15278e-06
-5.79996e-07
8.43037e-07
-1.18339e-06
4.87706e-07
-1.59457e-06
1.28308e-07
-1.8013e-06
-2.07231e-07
-1.82502e-06
-4.97139e-07
-1.70367e-06
-7.29774e-07
-1.47714e-06
-9.03862e-07
-1.18518e-06
-1.66071e-06
-1.24091e-06
-1.73926e-06
-6.9643e-07
-1.6823e-06
-1.2608e-07
-1.58306e-06
3.57588e-07
-1.42408e-06
8.04991e-07
-1.21356e-06
1.1919e-06
-9.70639e-07
1.51319e-06
-6.8549e-07
1.81028e-06
-3.73972e-07
2.0901e-06
-6.49979e-08
2.31554e-06
2.58624e-07
2.45737e-06
2.47469e-06
-1.39538e-06
-1.10012e-06
-1.46466e-06
-6.27155e-07
-1.44454e-06
-1.46202e-07
-1.3725e-06
2.8555e-07
-1.2453e-06
6.77794e-07
-1.07378e-06
1.02037e-06
-8.6999e-07
1.3094e-06
-6.20111e-07
1.5604e-06
-3.04235e-07
1.77423e-06
8.82385e-08
1.92307e-06
5.7287e-07
1.97274e-06
1.80486e-06
-1.18843e-06
-9.71715e-07
-1.25242e-06
-5.63171e-07
-1.24689e-06
-1.51728e-07
-1.18958e-06
2.28237e-07
-1.08635e-06
5.74564e-07
-9.42162e-07
8.76189e-07
-7.65873e-07
1.13311e-06
-5.58257e-07
1.35278e-06
-3.10087e-07
1.52606e-06
1.57136e-08
1.59727e-06
5.20443e-07
1.46801e-06
9.55575e-07
-1.02099e-06
-8.54583e-07
-1.08137e-06
-5.02793e-07
-1.08411e-06
-1.48989e-07
-1.03913e-06
1.8326e-07
-9.51626e-07
4.87056e-07
-8.27125e-07
7.51688e-07
-6.70964e-07
9.76954e-07
-4.90637e-07
1.17246e-06
-2.98486e-07
1.3339e-06
-6.23046e-08
1.36108e-06
4.56552e-07
9.49153e-07
-1.01589e-07
7.77364e-07
1.717e-06
1.00131e-06
1.75748e-06
1.10086e-06
9.73745e-07
1.07618e-06
2.16838e-07
9.31188e-07
-4.34807e-07
6.98146e-07
-9.50237e-07
4.14882e-07
-1.31132e-06
1.17597e-07
-1.50417e-06
-1.64873e-07
-1.5428e-06
-4.15451e-07
-1.45338e-06
-6.21345e-07
-1.27151e-06
-1.02828e-06
-7.78424e-07
3.7457e-07
1.34243e-06
7.10748e-07
1.42131e-06
8.63081e-07
8.21411e-07
8.699e-07
2.10019e-07
7.66683e-07
-3.3159e-07
5.83577e-07
-7.67132e-07
3.52368e-07
-1.08011e-06
1.03904e-07
-1.25571e-06
-1.36786e-07
-1.30211e-06
-3.54914e-07
-1.23525e-06
-5.36088e-07
-1.09034e-06
-8.87063e-07
-6.77307e-07
2.5842e-07
1.08401e-06
5.45682e-07
1.13404e-06
6.91861e-07
6.75232e-07
7.11998e-07
1.89882e-07
6.35155e-07
-2.54747e-07
4.89453e-07
-6.2143e-07
2.99062e-07
-8.89723e-07
8.96196e-08
-1.04627e-06
-1.17924e-07
-1.09456e-06
-3.06876e-07
-1.0463e-06
-4.69201e-07
-9.2801e-07
-7.60195e-07
-5.9607e-07
2.12094e-07
8.71915e-07
4.38753e-07
9.07385e-07
5.63163e-07
5.50823e-07
5.87554e-07
1.65491e-07
5.30799e-07
-1.97992e-07
4.13132e-07
-5.03762e-07
2.54625e-07
-7.31216e-07
7.6218e-08
-8.67861e-07
-1.03771e-07
-9.14574e-07
-2.70333e-07
-8.79738e-07
-4.14739e-07
-7.83604e-07
-6.44035e-07
-5.30899e-07
1.75094e-07
6.96821e-07
3.59527e-07
7.22952e-07
4.65156e-07
4.45193e-07
4.90921e-07
1.39726e-07
4.4842e-07
-1.55491e-07
3.51903e-07
-4.07245e-07
2.18114e-07
-5.97427e-07
6.43176e-08
-7.14065e-07
-9.3427e-08
-7.56829e-07
-2.42185e-07
-7.3098e-07
-3.71889e-07
-6.53899e-07
-5.38617e-07
-4.77308e-07
1.455e-07
5.51321e-07
2.99235e-07
5.69216e-07
3.90378e-07
3.54051e-07
4.16273e-07
1.1383e-07
3.83659e-07
-1.22878e-07
3.03198e-07
-3.26784e-07
1.88479e-07
-4.82707e-07
5.41928e-08
-5.79779e-07
-8.57118e-08
-6.16925e-07
-2.1945e-07
-5.97242e-07
-3.3789e-07
-5.35459e-07
-4.41706e-07
-4.34802e-07
1.23669e-07
4.27652e-07
2.54018e-07
4.38867e-07
3.33659e-07
2.7441e-07
3.589e-07
8.85893e-08
3.33151e-07
-9.71283e-08
2.6488e-07
-2.58513e-07
1.64899e-07
-3.82727e-07
4.59402e-08
-4.6082e-07
-7.97208e-08
-4.91264e-07
-2.01192e-07
-4.75771e-07
-3.09844e-07
-4.26806e-07
-3.52092e-07
-3.99458e-07
1.07674e-07
3.19978e-07
2.20418e-07
3.26123e-07
2.90953e-07
2.03875e-07
3.15184e-07
6.43583e-08
2.94344e-07
-7.62877e-08
2.3517e-07
-1.99339e-07
1.46576e-07
-2.94134e-07
3.95491e-08
-3.53793e-07
-7.47941e-08
-3.7692e-07
-1.86391e-07
-3.64174e-07
-2.86936e-07
-3.26262e-07
-2.67567e-07
-3.7146e-07
9.60144e-08
2.23964e-07
1.95689e-07
2.26448e-07
2.59297e-07
1.40267e-07
2.82396e-07
4.12589e-08
2.65128e-07
-5.90195e-08
2.12693e-07
-1.46904e-07
1.32764e-07
-2.14204e-07
3.498e-08
-2.56009e-07
-7.0484e-08
-2.71456e-07
-1.74056e-07
-2.60602e-07
-2.68789e-07
-2.31529e-07
-1.87304e-07
-3.49053e-07
8.76281e-08
1.36336e-07
1.77762e-07
1.36313e-07
2.36119e-07
8.19103e-08
2.58016e-07
1.93626e-08
2.43028e-07
-4.40316e-08
1.95302e-07
-9.91791e-08
1.21572e-07
-1.40474e-07
3.04161e-08
-1.64853e-07
-6.85541e-08
-1.72486e-07
-1.66398e-07
-1.62758e-07
-2.56507e-07
-1.41419e-07
-1.10916e-07
-3.32896e-07
8.02623e-08
5.60734e-08
1.61887e-07
5.46888e-08
2.14346e-07
2.94514e-08
2.32879e-07
8.28881e-10
2.16705e-07
-2.78574e-08
1.69451e-07
-5.19252e-08
9.75021e-08
-6.85249e-08
9.13799e-09
-7.64885e-08
-8.61774e-08
-7.71708e-08
-1.79197e-07
-6.97386e-08
-2.63701e-07
-5.69149e-08
-4.15674e-08
-3.3305e-07
5.60734e-08
1.10762e-07
1.40214e-07
1.41042e-07
1.13185e-07
6.12598e-08
-7.26502e-09
-8.37535e-08
-1.60924e-07
-2.30663e-07
-2.87578e-07
-3.29145e-07
-8.85781e-07
-7.47322e-07
-9.43106e-07
-4.45451e-07
-9.51087e-07
-1.40873e-07
-9.15723e-07
1.48144e-07
-8.41798e-07
4.13495e-07
-7.34717e-07
6.4507e-07
-5.9712e-07
8.39892e-07
-4.32855e-07
1.00878e-06
-2.6104e-07
1.16269e-06
-1.21216e-07
1.22173e-06
-5.78031e-08
8.85702e-07
-1.60417e-07
-7.75905e-07
-6.48724e-07
-8.3019e-07
-3.91166e-07
-8.41523e-07
-1.2954e-07
-8.13644e-07
1.20266e-07
-7.50782e-07
3.50633e-07
-6.58016e-07
5.52305e-07
-5.38439e-07
7.20314e-07
-3.90177e-07
8.60521e-07
-2.14669e-07
9.87186e-07
-4.84265e-08
1.05549e-06
2.64028e-08
8.10873e-07
-1.34014e-07
-6.86584e-07
-5.5821e-07
-7.38103e-07
-3.39648e-07
-7.51652e-07
-1.1599e-07
-7.29409e-07
9.80225e-08
-6.75328e-07
2.96552e-07
-5.93568e-07
4.70545e-07
-4.88174e-07
6.14921e-07
-3.5713e-07
7.29476e-07
-1.89876e-07
8.19932e-07
4.1282e-09
8.61484e-07
1.23703e-07
6.91299e-07
-1.03118e-08
-6.1362e-07
-4.75489e-07
-6.62736e-07
-2.90532e-07
-6.77431e-07
-1.01295e-07
-6.59937e-07
8.05282e-08
-6.13008e-07
2.49623e-07
-5.40285e-07
3.97821e-07
-4.45655e-07
5.20291e-07
-3.29897e-07
6.13719e-07
-1.85832e-07
6.75867e-07
-1.33408e-08
6.88993e-07
1.01893e-07
5.76065e-07
9.15813e-08
-5.54273e-07
-3.98524e-07
-6.00979e-07
-2.43826e-07
-6.16424e-07
-8.58499e-08
-6.02521e-07
6.66258e-08
-5.61568e-07
2.0867e-07
-4.96524e-07
3.32777e-07
-4.11078e-07
4.34845e-07
-3.07738e-07
5.10378e-07
-1.86165e-07
5.54294e-07
-5.08639e-08
5.53692e-07
4.78113e-08
4.7739e-07
1.39393e-07
-5.06463e-07
-3.26863e-07
-5.5035e-07
-1.99938e-07
-5.66318e-07
-6.98816e-08
-5.55328e-07
5.56357e-08
-5.19067e-07
1.72408e-07
-4.60614e-07
2.74324e-07
-3.8317e-07
3.574e-07
-2.90237e-07
4.17446e-07
-1.85091e-07
4.49147e-07
-7.57224e-08
4.44324e-07
9.09753e-09
3.9257e-07
1.4849e-07
-4.66775e-07
-2.59546e-07
-5.09032e-07
-1.57681e-07
-5.25348e-07
-5.35654e-08
-5.16638e-07
4.6925e-08
-4.8427e-07
1.40041e-07
-4.31103e-07
2.21157e-07
-3.6047e-07
2.86766e-07
-2.76231e-07
3.33208e-07
-1.82925e-07
3.5584e-07
-8.87934e-08
3.50193e-07
-9.59167e-09
3.13368e-07
1.38898e-07
-4.35384e-07
-1.95622e-07
-4.7592e-07
-1.17145e-07
-4.92035e-07
-3.74498e-08
-4.84928e-07
3.98179e-08
-4.55768e-07
1.10881e-07
-4.06958e-07
1.72347e-07
-3.41955e-07
2.21762e-07
-2.64692e-07
2.55945e-07
-1.80188e-07
2.71336e-07
-9.58019e-08
2.65806e-07
-2.15043e-08
2.3907e-07
1.17394e-07
-4.09804e-07
-1.34871e-07
-4.4877e-07
-7.81787e-08
-4.65365e-07
-2.08552e-08
-4.59306e-07
3.37588e-08
-4.32602e-07
8.41768e-08
-3.87302e-07
1.27048e-07
-3.26776e-07
1.61236e-07
-2.55007e-07
1.84177e-07
-1.77082e-07
1.93411e-07
-9.94848e-08
1.88209e-07
-2.9429e-08
1.69014e-07
8.79651e-08
-3.90621e-07
-7.71453e-08
-4.2835e-07
-4.04503e-08
-4.44269e-07
-4.93642e-09
-4.39121e-07
2.86108e-08
-4.13832e-07
5.88882e-08
-3.71156e-07
8.43714e-08
-3.13951e-07
1.04031e-07
-2.46378e-07
1.16604e-07
-1.73384e-07
1.20417e-07
-1.00727e-07
1.15552e-07
-3.41389e-08
1.02426e-07
5.38262e-08
-3.84963e-07
-2.52324e-08
-4.16645e-07
-8.76788e-09
-4.28201e-07
6.61971e-09
-4.20342e-07
2.0752e-08
-3.94037e-07
3.25825e-08
-3.51881e-07
4.22159e-08
-2.96834e-07
4.89837e-08
-2.32694e-07
5.24638e-08
-1.64295e-07
5.20179e-08
-9.66799e-08
4.79373e-08
-3.46953e-08
4.04418e-08
1.91309e-08
-3.54378e-07
-3.63146e-07
-3.56526e-07
-3.35774e-07
-3.03191e-07
-2.60975e-07
-2.11992e-07
-1.59528e-07
-1.0751e-07
-5.95727e-08
-1.91309e-08
7.77685e-07
1.71754e-06
1.00158e-06
1.75815e-06
1.10103e-06
9.73947e-07
1.07625e-06
2.16788e-07
9.31173e-07
-4.34914e-07
6.9809e-07
-9.50311e-07
4.14822e-07
-1.31131e-06
1.1757e-07
-1.50405e-06
-1.64838e-07
-1.54261e-06
-4.1535e-07
-1.45316e-06
-6.21179e-07
-1.27131e-06
-1.02814e-06
-7.78216e-07
3.74694e-07
1.34285e-06
7.10979e-07
1.42187e-06
8.63281e-07
8.21645e-07
8.70023e-07
2.10046e-07
7.66745e-07
-3.31637e-07
5.83587e-07
-7.67154e-07
3.52372e-07
-1.08009e-06
1.03932e-07
-1.25561e-06
-1.36711e-07
-1.30196e-06
-3.54793e-07
-1.23508e-06
-5.35918e-07
-1.09019e-06
-8.86961e-07
-6.77101e-07
2.58477e-07
1.08437e-06
5.45853e-07
1.13449e-06
6.92034e-07
6.75464e-07
7.12129e-07
1.89951e-07
6.35244e-07
-2.54751e-07
4.89509e-07
-6.21419e-07
2.99114e-07
-8.89697e-07
8.96888e-08
-1.04619e-06
-1.17826e-07
-1.09445e-06
-3.06738e-07
-1.04617e-06
-4.69026e-07
-9.27899e-07
-7.6012e-07
-5.95867e-07
2.12145e-07
8.72223e-07
4.38888e-07
9.07748e-07
5.63316e-07
5.51035e-07
5.87688e-07
1.65579e-07
5.30904e-07
-1.97966e-07
4.13222e-07
-5.03737e-07
2.54711e-07
-7.31186e-07
7.63169e-08
-8.67793e-07
-1.03649e-07
-9.14483e-07
-2.70183e-07
-8.79635e-07
-4.14561e-07
-7.83521e-07
-6.43986e-07
-5.30695e-07
1.75142e-07
6.97082e-07
3.59642e-07
7.23248e-07
4.65296e-07
4.45381e-07
4.91057e-07
1.39818e-07
4.4854e-07
-1.5545e-07
3.52015e-07
-4.07211e-07
2.18221e-07
-5.97393e-07
6.44363e-08
-7.14008e-07
-9.32884e-08
-7.56759e-07
-2.4203e-07
-7.30893e-07
-3.71709e-07
-6.53842e-07
-5.38585e-07
-4.77109e-07
1.45545e-07
5.51536e-07
2.99336e-07
5.69458e-07
3.90507e-07
3.5421e-07
4.16407e-07
1.13917e-07
3.83785e-07
-1.22827e-07
3.03323e-07
-3.26749e-07
1.88602e-07
-4.82672e-07
5.43263e-08
-5.79732e-07
-8.55626e-08
-6.1687e-07
-2.19287e-07
-5.97169e-07
-3.37706e-07
-5.35423e-07
-4.41687e-07
-4.34605e-07
1.2371e-07
4.27826e-07
2.54109e-07
4.39059e-07
3.3378e-07
2.74539e-07
3.59028e-07
8.86695e-08
3.33281e-07
-9.70805e-08
2.65012e-07
-2.5848e-07
1.65034e-07
-3.82694e-07
4.6081e-08
-4.60779e-07
-7.95659e-08
-4.91223e-07
-2.01023e-07
-4.75712e-07
-3.09647e-07
-4.26799e-07
-3.52071e-07
-3.99262e-07
1.07715e-07
3.20111e-07
2.20502e-07
3.26272e-07
2.91067e-07
2.03974e-07
3.15313e-07
6.44243e-08
2.94475e-07
-7.62432e-08
2.35306e-07
-1.99311e-07
1.46717e-07
-2.94105e-07
3.96964e-08
-3.53759e-07
-7.46349e-08
-3.76892e-07
-1.86213e-07
-3.64133e-07
-2.8675e-07
-3.26262e-07
-2.6754e-07
-3.71282e-07
9.60532e-08
2.24058e-07
1.95767e-07
2.26558e-07
2.59407e-07
1.40334e-07
2.82523e-07
4.13078e-08
2.6526e-07
-5.89802e-08
2.12832e-07
-1.46883e-07
1.32909e-07
-2.14181e-07
3.51302e-08
-2.5598e-07
-7.03221e-08
-2.71439e-07
-1.73844e-07
-2.60612e-07
-2.686e-07
-2.31506e-07
-1.87279e-07
-3.4886e-07
8.76644e-08
1.36394e-07
1.7784e-07
1.36382e-07
2.3622e-07
8.19535e-08
2.58137e-07
1.93913e-08
2.43161e-07
-4.40046e-08
1.95442e-07
-9.91641e-08
1.21719e-07
-1.40457e-07
3.05661e-08
-1.64828e-07
-6.83959e-08
-1.72477e-07
-1.6624e-07
-1.62768e-07
-2.5636e-07
-1.41386e-07
-1.10935e-07
-3.32704e-07
8.02957e-08
5.60979e-08
1.6196e-07
5.47186e-08
2.14445e-07
2.94676e-08
2.32994e-07
8.42331e-10
2.16834e-07
-2.78442e-08
1.69587e-07
-5.19173e-08
9.76457e-08
-6.85159e-08
9.28165e-09
-7.64636e-08
-8.60191e-08
-7.71767e-08
-1.7904e-07
-6.97473e-08
-2.6352e-07
-5.69048e-08
-4.15713e-08
-3.32884e-07
5.60979e-08
1.10816e-07
1.40284e-07
1.41126e-07
1.13282e-07
6.13649e-08
-7.15096e-09
-8.36146e-08
-1.60791e-07
-2.30539e-07
-2.87443e-07
-3.29015e-07
-8.85543e-07
-7.47256e-07
-9.42854e-07
-4.45482e-07
-9.50845e-07
-1.40998e-07
-9.15499e-07
1.47915e-07
-8.41619e-07
4.13176e-07
-7.34586e-07
6.44656e-07
-5.97062e-07
8.3943e-07
-4.32865e-07
1.00826e-06
-2.61109e-07
1.16215e-06
-1.21317e-07
1.22129e-06
-5.78893e-08
8.85726e-07
-1.59478e-07
-7.75676e-07
-6.48681e-07
-8.29952e-07
-3.91206e-07
-8.41301e-07
-1.29649e-07
-8.13436e-07
1.20049e-07
-7.50611e-07
3.5035e-07
-6.57899e-07
5.51944e-07
-5.38382e-07
7.19913e-07
-3.90196e-07
8.60074e-07
-2.14755e-07
9.86706e-07
-4.85553e-08
1.05509e-06
2.62795e-08
8.10891e-07
-1.33199e-07
-6.86365e-07
-5.58183e-07
-7.37887e-07
-3.39685e-07
-7.5144e-07
-1.16096e-07
-7.2921e-07
9.78196e-08
-6.75158e-07
2.96298e-07
-5.93456e-07
4.70242e-07
-4.88121e-07
6.14578e-07
-3.57147e-07
7.291e-07
-1.89981e-07
8.19539e-07
3.9688e-09
8.61143e-07
1.23546e-07
6.91314e-07
-9.65235e-09
-6.13407e-07
-4.75471e-07
-6.62525e-07
-2.90567e-07
-6.77234e-07
-1.01387e-07
-6.59749e-07
8.0334e-08
-6.12851e-07
2.494e-07
-5.40178e-07
3.97569e-07
-4.45601e-07
5.20001e-07
-3.29907e-07
6.13406e-07
-1.85925e-07
6.75558e-07
-1.35329e-08
6.88751e-07
1.01702e-07
5.76078e-07
9.205e-08
-5.54067e-07
-3.98513e-07
-6.00774e-07
-2.4386e-07
-6.16225e-07
-8.59352e-08
-6.02354e-07
6.64624e-08
-5.61429e-07
2.08476e-07
-4.96424e-07
3.32564e-07
-4.11025e-07
4.34601e-07
-3.07742e-07
5.10123e-07
-1.86235e-07
5.5405e-07
-5.10077e-08
5.53523e-07
4.76698e-08
4.77401e-07
1.3972e-07
-5.06262e-07
-3.26855e-07
-5.50167e-07
-1.99955e-07
-5.66134e-07
-6.99688e-08
-5.55163e-07
5.54912e-08
-5.18934e-07
1.72247e-07
-4.60521e-07
2.74152e-07
-3.83116e-07
3.57197e-07
-2.90235e-07
4.17242e-07
-1.8514e-07
4.48955e-07
-7.5821e-08
4.44204e-07
8.9991e-09
3.92581e-07
1.48719e-07
-4.6658e-07
-2.59537e-07
-5.08839e-07
-1.57696e-07
-5.25166e-07
-5.36427e-08
-5.16492e-07
4.68177e-08
-4.84145e-07
1.399e-07
-4.31023e-07
2.2103e-07
-3.60416e-07
2.8659e-07
-2.76223e-07
3.33049e-07
-1.82959e-07
3.55691e-07
-8.88612e-08
3.50107e-07
-9.65015e-09
3.1337e-07
1.39069e-07
-4.35196e-07
-1.95623e-07
-4.75735e-07
-1.17157e-07
-4.91859e-07
-3.75191e-08
-4.84776e-07
3.97351e-08
-4.55642e-07
1.10766e-07
-4.06859e-07
1.72246e-07
-3.41899e-07
2.2163e-07
-2.64678e-07
2.55828e-07
-1.8021e-07
2.71223e-07
-9.58508e-08
2.65747e-07
-2.15516e-08
2.3907e-07
1.17517e-07
-4.09611e-07
-1.34873e-07
-4.4856e-07
-7.82076e-08
-4.65192e-07
-2.08868e-08
-4.5915e-07
3.36929e-08
-4.32484e-07
8.41001e-08
-3.87214e-07
1.26976e-07
-3.26723e-07
1.6114e-07
-2.5499e-07
1.84095e-07
-1.77097e-07
1.9333e-07
-9.95205e-08
1.88171e-07
-2.94662e-08
1.69016e-07
8.8051e-08
-3.90439e-07
-7.7138e-08
-4.28173e-07
-4.04742e-08
-4.44102e-07
-4.95733e-09
-4.3898e-07
2.85709e-08
-4.13712e-07
5.88318e-08
-3.71064e-07
8.43283e-08
-3.139e-07
1.03975e-07
-2.46357e-07
1.16553e-07
-1.73394e-07
1.20366e-07
-1.00755e-07
1.15532e-07
-3.41693e-08
1.02431e-07
5.38816e-08
-3.84784e-07
-2.52381e-08
-4.16476e-07
-8.78226e-09
-4.28045e-07
6.61093e-09
-4.20204e-07
2.07307e-08
-3.93932e-07
3.25592e-08
-3.51803e-07
4.21993e-08
-2.96782e-07
4.89543e-08
-2.32674e-07
5.24448e-08
-1.64305e-07
5.19968e-08
-9.6705e-08
4.79318e-08
-3.47225e-08
4.04481e-08
1.91591e-08
-3.54253e-07
-3.63035e-07
-3.56424e-07
-3.35693e-07
-3.03134e-07
-2.60935e-07
-2.11981e-07
-1.59536e-07
-1.07539e-07
-5.96072e-08
-1.91591e-08
)
;

boundaryField
{
    rotor
    {
        type            calculated;
        value           nonuniform 0();
    }
    stator
    {
        type            calculated;
        value           nonuniform List<scalar> 
96
(
3.76908e-53
9.60471e-35
1.20371e-35
7.52316e-35
0
-1.20371e-35
-6.01853e-36
0
0
0
0
0
5.22024e-54
0
-3.00927e-36
-3.13394e-36
0
0
1.80556e-35
0
-3.61112e-35
1.20371e-35
-7.22224e-35
0
3.63605e-35
1.20371e-34
0
1.14601e-34
0
1.20371e-35
-1.17877e-35
-3.00927e-36
2.6143e-35
-3.00303e-35
0
2.11981e-34
4.70198e-38
2.57077e-36
0
0
3.00927e-36
0
6.01853e-35
7.22224e-35
0
4.81482e-35
2.40741e-35
-1.15607e-34
0
6.01853e-36
-6.01853e-36
6.01853e-36
0
6.01853e-36
-6.01853e-36
0
0
0
0
0
0
-6.01853e-36
6.01853e-36
-6.01853e-36
0
-6.01853e-36
6.01853e-36
0
0
0
0
0
0
6.01853e-36
-6.01853e-36
6.01853e-36
0
0
-6.01853e-36
0
0
0
0
-1.20371e-35
0
-6.01853e-36
0
0
6.01853e-36
0
6.01853e-36
1.20371e-35
1.20371e-35
0
0
0
)
;
    }
    AMI1
    {
        type            cyclicAMI;
        value           nonuniform 0();
    }
    AMI2
    {
        type            cyclicAMI;
        value           nonuniform List<scalar> 
48
(
-3.1518e-06
-2.90871e-06
-1.86927e-06
2.76971e-08
1.44748e-06
2.71038e-06
3.55968e-06
3.86243e-06
3.69184e-06
3.20047e-06
2.59963e-06
1.99439e-06
1.39191e-06
7.75119e-07
6.88887e-08
-4.57238e-07
-9.64739e-07
-1.4034e-06
-1.75717e-06
-2.09645e-06
-2.40256e-06
-2.62533e-06
-2.78166e-06
-2.91136e-06
-3.15199e-06
-2.90866e-06
-1.86866e-06
2.86878e-08
1.44813e-06
2.71052e-06
3.55908e-06
3.86124e-06
3.69047e-06
3.1993e-06
2.59882e-06
1.99386e-06
1.39158e-06
7.7498e-07
6.91173e-08
-4.56828e-07
-9.63973e-07
-1.40241e-06
-1.75611e-06
-2.09543e-06
-2.40162e-06
-2.62451e-06
-2.78099e-06
-2.91083e-06
)
;
    }
    front
    {
        type            empty;
        value           nonuniform 0();
    }
    back
    {
        type            empty;
        value           nonuniform 0();
    }
    procBoundary1to0
    {
        type            processor;
        value           nonuniform List<scalar> 8(-6.95742e-07 -1.24384e-06 -1.37077e-06 -1.51457e-06 6.94766e-07 1.2427e-06 1.36973e-06 1.51372e-06);
    }
}


// ************************************************************************* //
