/*--------------------------------*- C++ -*----------------------------------*\
| =========                 |                                                 |
| \\      /  F ield         | OpenFOAM: The Open Source CFD Toolbox           |
|  \\    /   O peration     | Version:  2.3.1                                 |
|   \\  /    A nd           | Web:      www.OpenFOAM.org                      |
|    \\/     M anipulation  |                                                 |
\*---------------------------------------------------------------------------*/
FoamFile
{
    version     2.0;
    format      ascii;
    class       volScalarField;
    location    "0.84";
    object      epsilon;
}
// * * * * * * * * * * * * * * * * * * * * * * * * * * * * * * * * * * * * * //

dimensions      [0 2 -3 0 0 0 0];

internalField   nonuniform List<scalar> 
15166
(
1077.61
1003.61
1000.23
1064
1106.59
1135.6
1106.48
1023.38
922.593
805.883
688.733
589.593
1078.21
882.529
931.132
1001.44
1045.9
1069.27
1037.37
960.081
864.42
756.767
649.259
551.049
1090.31
787.901
864.733
940.347
987.171
1006.84
974.572
902.596
812.606
712.856
612.961
518.037
1106.2
716.785
805.492
883.582
931.669
948.691
917.287
850.314
766.043
673.221
579.452
486.918
1123.5
663.284
753.853
832.174
880.314
895.172
865.123
802.775
723.96
637.279
548.833
460.044
1142.25
622.158
708.581
785.706
833.063
846.115
817.583
759.472
685.757
604.513
520.739
435.222
1162.58
589.992
668.607
743.548
789.561
801.104
774.136
719.928
650.899
574.492
494.744
411.506
1184.13
564.614
633.189
705.204
749.483
759.754
734.327
683.693
618.958
546.892
470.829
390.687
1206.67
544.522
601.746
670.273
712.545
721.716
697.757
650.384
589.584
521.451
448.792
371.659
1229.9
528.603
573.753
638.381
678.471
686.671
664.088
619.697
562.482
497.936
428.515
354.776
1253.58
516.028
548.761
609.189
646.997
654.324
633.013
591.342
537.412
476.162
409.803
339.245
1277.59
506.153
526.381
582.406
617.881
624.411
604.267
565.076
514.155
455.965
392.651
325.951
1301.76
498.488
506.289
557.767
590.897
596.689
577.612
540.684
492.532
437.201
376.868
314.018
1325.97
492.641
488.209
535.054
565.85
570.952
552.843
517.988
472.378
419.71
362.075
301.393
1350.06
488.301
471.901
514.074
542.564
547.009
529.782
496.818
453.566
403.403
348.396
290.864
1374.01
485.214
457.16
494.657
520.88
524.699
508.273
477.047
435.964
388.148
335.659
280.972
1397.67
483.175
443.809
476.655
500.657
503.873
488.171
458.534
419.468
373.866
323.745
271.518
1421.05
482.012
431.698
459.94
481.767
484.396
469.349
441.184
403.992
360.465
312.575
262.644
1444.06
481.581
420.691
444.393
464.098
466.156
451.704
424.884
389.442
347.87
302.106
254.482
1466.58
481.768
410.674
429.914
447.548
449.047
435.128
409.555
375.74
336.019
292.264
246.775
1488.55
482.465
401.544
416.409
432.025
432.974
419.538
395.116
362.824
324.836
282.962
239.269
1510.02
483.596
393.21
403.799
417.447
417.856
404.856
381.498
350.625
314.271
274.145
232.092
1531.02
485.076
385.592
392.01
403.742
403.616
391.007
368.634
339.093
304.27
265.746
224.962
1551.26
486.863
378.623
380.976
390.842
390.187
377.928
356.468
328.176
294.794
257.756
218.288
1570.95
488.907
372.241
370.64
378.688
377.508
365.565
344.955
317.829
285.791
250.139
211.86
1589.93
491.138
366.39
360.948
367.225
365.527
353.865
334.041
308.009
277.237
242.886
205.863
1608.23
493.534
361.019
351.849
356.403
354.19
342.778
323.687
298.68
269.094
235.98
200.14
1625.89
496.056
356.085
343.302
346.177
343.454
332.261
313.853
289.807
261.341
229.399
194.804
1642.82
498.693
351.553
335.265
336.506
333.276
322.279
304.501
281.361
253.951
223.142
189.813
1659.1
501.437
347.382
327.702
327.352
323.62
312.792
295.606
273.313
246.904
217.161
184.877
1674.69
504.213
343.541
320.578
318.681
314.449
303.77
287.132
265.638
240.173
211.46
180.286
1689.43
507.055
340.001
313.865
310.46
305.735
295.181
279.057
258.312
233.744
205.999
175.777
1703.3
509.935
336.743
307.533
302.661
297.445
287.001
271.352
251.315
227.596
200.785
171.605
1716.74
512.814
333.736
301.558
295.259
289.557
279.201
263.997
244.627
221.715
195.793
167.508
1729.22
515.694
330.969
295.914
288.227
282.043
271.76
256.97
238.232
216.086
191.017
163.686
1740.9
518.583
328.415
290.583
281.544
274.882
264.655
250.253
232.111
210.692
186.434
159.89
1752.06
521.457
326.065
285.54
275.187
268.051
257.869
243.828
226.246
205.519
182.034
156.293
1762.31
524.313
323.9
280.77
269.138
261.532
251.38
237.675
220.625
200.557
177.82
152.968
1771.91
527.149
321.905
276.254
263.378
255.309
245.172
231.781
215.234
195.798
173.775
149.692
1780.84
529.954
320.068
271.977
257.891
249.362
239.233
226.135
210.064
191.229
169.908
146.69
1788.81
532.754
318.375
267.928
252.663
243.679
233.545
220.719
205.1
186.836
166.167
143.491
1796.14
535.658
316.827
264.092
247.68
238.244
228.096
215.523
200.33
182.612
162.54
140.269
1802.56
538.568
315.406
260.456
242.927
233.045
222.872
210.535
195.747
178.545
159.052
137.425
1808.39
541.542
314.138
257.013
238.393
228.069
217.863
205.745
191.341
174.631
155.685
134.569
1813.49
544.431
313.038
253.757
234.066
223.303
213.057
201.143
187.101
170.86
152.445
131.97
1817.79
547.142
312.078
250.688
229.933
218.735
208.443
196.719
183.02
167.226
149.313
129.27
1821.34
549.906
311.238
247.804
225.991
214.361
204.013
192.464
179.092
163.722
146.302
126.894
1824.33
552.493
310.51
245.077
222.23
210.172
199.758
188.37
175.305
160.343
143.392
124.446
1826.57
554.995
309.85
242.508
218.644
206.155
195.666
184.427
171.654
157.081
140.587
122.221
1828.08
557.423
309.308
240.084
215.223
202.305
191.733
180.629
168.133
153.93
137.869
119.913
1828.87
559.691
308.844
237.798
211.959
198.61
187.95
176.969
164.733
150.885
135.25
117.843
1829.05
562.005
308.458
235.647
208.849
195.069
184.312
173.444
161.453
147.944
132.722
115.83
1828.58
564.132
308.139
233.613
205.881
191.673
180.813
170.045
158.287
145.102
130.266
113.687
1827.37
566.211
307.885
231.703
203.052
188.414
177.445
166.768
155.23
142.354
127.893
111.764
1825.65
568.214
307.692
229.905
200.354
185.289
174.205
163.608
152.276
139.697
125.601
109.925
1823.36
570.138
307.558
228.214
197.78
182.293
171.087
160.56
149.423
137.129
123.393
108.229
1820.31
571.871
307.472
226.623
195.328
179.418
168.086
157.62
146.668
134.644
121.255
106.486
1816.72
573.66
307.441
225.138
192.991
176.66
165.198
154.785
144.005
132.243
119.192
104.881
1812.61
575.25
307.46
223.746
190.767
174.019
162.418
152.048
141.433
129.92
117.178
103.037
1807.73
576.78
307.5
222.433
188.644
171.483
159.743
149.409
138.947
127.671
115.226
101.419
1802.39
578.166
307.61
221.215
186.626
169.053
157.167
146.861
136.542
125.494
113.341
99.9481
1796.53
579.572
307.762
220.08
184.708
166.724
154.688
144.403
134.218
123.386
111.525
98.5655
1790.08
580.798
307.95
219.024
182.881
164.492
152.303
142.031
131.972
121.349
109.765
97.1307
1782.99
581.967
308.153
218.053
181.148
162.355
150.008
139.742
129.8
119.376
108.063
95.7852
1775.4
582.984
308.421
217.148
179.504
160.309
147.8
137.535
127.701
117.467
106.411
94.3867
1767.16
583.967
308.699
216.315
177.948
158.35
145.678
135.404
125.672
115.62
104.809
93.0891
1758.8
584.911
309.016
215.56
176.471
156.478
143.636
133.351
123.712
113.832
103.252
91.7488
1749.2
585.686
309.357
214.866
175.076
154.687
141.674
131.37
121.816
112.1
101.745
90.5364
1739.61
586.406
309.741
214.241
173.762
152.979
139.789
129.46
119.987
110.424
100.283
89.3265
1729.69
587.013
310.156
213.682
172.519
151.345
137.979
127.618
118.217
108.802
98.8707
88.2073
1718.86
587.616
310.589
213.195
171.355
149.787
136.241
125.845
116.508
107.233
97.4995
87.0468
1707.64
587.918
311.061
212.762
170.262
148.306
134.573
124.135
114.857
105.714
96.1705
85.9862
1695.88
588.375
311.527
212.376
169.236
146.895
132.975
122.489
113.262
104.246
94.8885
84.9546
1683.69
588.594
312.098
212.082
168.292
145.558
131.446
120.907
111.724
102.826
93.6451
83.9164
1670.99
588.722
312.622
211.827
167.402
144.287
129.98
119.384
110.239
101.452
92.4393
82.9345
1658.27
588.923
313.199
211.638
166.587
143.082
128.579
117.919
108.807
100.124
91.2691
81.9057
1644.64
588.891
313.786
211.502
165.84
141.947
127.241
116.513
107.428
98.8403
90.1333
80.9538
1630.24
588.654
314.385
211.427
165.155
140.877
125.965
115.163
106.098
97.6013
89.0329
79.9919
1615.84
588.534
315.035
211.406
164.537
139.869
124.75
113.869
104.819
96.4044
87.968
79.1038
1601.24
588.247
315.699
211.448
163.979
138.926
123.594
112.629
103.588
95.2504
86.9343
78.174
1585.72
587.852
316.407
211.544
163.488
138.046
122.498
111.442
102.403
94.1356
85.935
77.3331
1569.95
587.383
317.1
211.703
163.064
137.231
121.457
110.309
101.265
93.0594
84.9699
76.5541
1553.76
586.791
317.807
211.908
162.698
136.473
120.477
109.228
100.175
92.0246
84.0412
75.7692
1537.12
586.115
318.561
212.167
162.398
135.778
119.554
108.2
99.1313
91.0308
83.1424
74.9529
1520.07
585.37
319.333
212.483
162.164
135.145
118.686
107.223
98.1318
90.074
82.2757
74.2182
1503.01
584.546
320.132
212.878
161.985
134.57
117.875
106.294
97.1772
89.1572
81.4397
73.458
1485.15
583.574
320.946
213.319
161.874
134.061
117.12
105.417
96.2657
88.2758
80.6338
72.7962
1466.94
582.501
321.774
213.804
161.835
133.613
116.423
104.591
95.3983
87.4344
79.8617
72.0955
1448.35
581.325
322.621
214.356
161.852
133.228
115.784
103.815
94.5761
86.6304
79.1191
71.4241
1429.37
580.064
323.527
214.982
161.942
132.906
115.199
103.09
93.7986
85.8639
78.4002
70.702
1410.02
578.683
324.401
215.646
162.09
132.64
114.67
102.412
93.0622
85.1321
77.718
70.1978
1390.3
577.182
325.292
216.388
162.315
132.445
114.198
101.786
92.3729
84.4439
77.0781
69.6409
1370.62
575.69
326.241
217.189
162.605
132.313
113.785
101.213
91.7275
83.7906
76.4685
69.1448
1349.86
573.918
327.191
218.048
162.966
132.252
113.432
100.691
91.1269
83.1768
75.8921
68.6385
1329.49
572.17
328.151
218.968
163.404
132.25
113.139
100.223
90.5706
82.6014
75.3493
68.179
1308.45
570.227
329.11
219.944
163.902
132.322
112.907
99.8064
90.0617
82.0679
74.8391
67.6889
1287.07
568.262
330.124
221.005
164.485
132.463
112.738
99.4453
89.5993
81.5719
74.3595
67.2768
1265.35
566.06
331.135
222.126
165.144
132.681
112.634
99.1372
89.184
81.1163
73.914
66.8509
1243.69
563.923
332.156
223.31
165.888
132.966
112.594
98.8869
88.8161
80.702
73.5035
66.4878
1221.39
561.496
333.211
224.58
166.712
133.339
112.622
98.6976
88.5004
80.3313
73.1275
66.0923
1198.78
559.007
334.261
225.911
167.616
133.782
112.721
98.5662
88.2336
80.002
72.7839
65.7833
1175.86
556.377
335.31
227.329
168.616
134.312
112.891
98.4944
88.0188
79.716
72.4823
65.5245
1152.68
553.588
336.396
228.812
169.701
134.926
113.14
98.4907
87.8613
79.4803
72.2226
65.2518
1129.24
550.711
337.471
230.362
170.886
135.635
113.465
98.5526
87.7608
79.2921
72.0013
65.0106
1105.85
547.76
338.582
232.004
172.163
136.438
113.87
98.6847
87.7175
79.1513
71.8209
64.8558
1081.91
544.607
339.677
233.738
173.549
137.336
114.362
98.888
87.7349
79.0653
71.6889
64.7028
1058.02
541.372
340.803
235.542
175.033
138.331
114.946
99.1692
87.8166
79.0289
71.5968
64.6267
1033.63
537.905
341.901
237.418
176.632
139.439
115.623
99.5323
87.9677
79.0528
71.5587
64.5837
1008.65
534.254
343.02
239.417
178.342
140.662
116.402
99.9786
88.1892
79.1372
71.5692
64.5542
984.026
530.611
344.167
241.472
180.178
142.002
117.289
100.513
88.4862
79.2821
71.6297
64.582
958.967
526.752
345.292
243.655
182.149
143.471
118.285
101.149
88.8655
79.4961
71.7472
64.6249
933.669
522.697
346.425
245.919
184.242
145.07
119.403
101.885
89.3298
79.7839
71.9302
64.7692
908.49
518.566
347.536
248.287
186.482
146.822
120.647
102.732
89.889
80.1527
72.1886
64.9652
882.892
514.211
348.65
250.744
188.87
148.718
122.033
103.692
90.5439
80.5983
72.4989
65.1179
857.096
509.655
349.798
253.34
191.418
150.775
123.559
104.779
91.3006
81.1259
72.8755
65.3946
831.173
504.983
350.873
256.019
194.114
152.995
125.239
105.997
92.167
81.7479
73.3373
65.7278
805.093
500.115
351.981
258.822
196.988
155.408
127.085
107.359
93.1563
82.4723
73.8779
66.1557
779.153
495.135
353.059
261.726
200.045
158.01
129.121
108.883
94.2842
83.3107
74.5204
66.6627
753.146
489.917
354.151
264.784
203.304
160.825
131.349
110.576
95.5562
84.2762
75.275
67.3026
726.602
484.434
355.177
267.947
206.767
163.869
133.798
112.464
96.9869
85.3757
76.1466
68.0121
700.128
478.836
356.197
271.266
210.44
167.156
136.473
114.554
98.5917
86.6113
77.1134
68.7184
673.857
473.061
357.205
274.709
214.363
170.711
139.403
116.863
100.386
88.0061
78.2169
69.6276
647.608
467.059
358.187
278.305
218.539
174.555
142.614
119.429
102.396
89.5881
79.4902
70.6717
620.937
460.822
359.133
282.081
222.981
178.715
146.142
122.268
104.642
91.3646
80.9098
71.8523
594.564
454.421
360.073
286.016
227.736
183.227
150.005
125.42
107.153
93.3609
82.5211
73.1641
568.305
447.797
360.996
290.15
232.813
188.126
154.254
128.914
109.961
95.6029
84.328
74.6703
541.73
440.962
361.916
294.525
238.286
193.468
158.947
132.812
113.113
98.1354
86.3849
76.3864
515.462
433.946
362.877
299.158
244.187
199.314
164.13
137.161
116.656
100.999
88.7135
78.2945
489.181
426.77
363.92
304.142
250.602
205.739
169.892
142.026
120.638
104.227
91.3411
80.4363
463.057
419.468
365.146
309.572
257.634
212.858
176.31
147.479
125.126
107.865
94.2965
82.8803
436.886
412.173
366.719
315.643
265.463
220.791
183.513
153.622
130.194
111.983
97.6577
85.6495
410.803
405.18
369.042
322.686
274.342
229.745
191.641
160.568
135.921
116.638
101.444
88.7878
384.569
399.294
372.846
331.241
284.597
239.923
200.822
168.408
142.402
121.891
105.697
92.2159
358.175
397.471
380.24
342.613
296.922
251.755
211.376
177.406
149.812
127.881
110.499
96.0407
328.052
400.064
389.135
355.337
309.502
263.679
222.046
186.801
157.584
134.283
115.659
100.322
204.086
0.00127441
6.61775
4.94885
4.91199
12.0029
11.4402
81.1005
45.1606
26.4326
7.6089
0.00269739
0.0225726
574.715
12.1847
0.000851397
481.44
0.218374
0.207455
0.000828388
2.43328
5.66624
0.255374
0.0183571
209.859
6.57502
4.01593
16.2407
16.9305
48.3733
14.6179
364.472
0.00108589
7.42513
0.0211521
2.32597
87.3125
12.6938
29.7372
0.00290816
0.239167
0.000794187
0.119465
23.9633
23.6686
5.45042
0.0575867
0.0148362
23.9213
2.39964
2.27283
77.6353
18.4156
0.000749082
215.542
0.00118114
0.00428362
0.00079315
12.7286
11.311
3.50664
378.967
0.000746608
0.00894721
0.71402
0.00121407
75.9471
17.9971
321.659
18.7692
185.479
0.0485434
28.399
43.4682
0.0188437
0.000739237
41.2157
0.000696187
0.0790857
11.206
0.211301
0.000699393
75.3503
20.5114
0.00845128
70.1885
75.0853
0.000739954
5.19597
25.7361
19.5228
26.1258
0.000741583
0.000984347
53.613
0.000751866
15.2005
0.00909664
0.000728964
76.8288
144.547
1.15134
0.000785221
0.00114027
0.000707795
68.0712
66.1519
101.278
19.2741
0.0283864
0.527111
0.000709766
8.2874
0.000913662
0.000734491
8.35024
0.010855
1.92839
69.2549
0.649427
120.104
0.0204744
176.396
0.995413
0.320172
53.335
0.00104706
1333.1
0.0233482
0.000742466
123.043
0.000758846
87.3268
0.00114264
4.19361
0.00146183
28.4059
13.2092
8.70771
0.0017623
0.00877363
2.76333
14.175
0.128728
31.2679
198.491
17.2479
0.00121802
61.6779
21.7508
0.585717
8.01251
0.000693019
0.265996
0.616612
0.000716845
12.5465
0.000727041
89.0491
0.00234149
0.0178407
0.000857527
0.326193
0.00608342
2.60502
0.191017
314.81
30.1564
18.4518
0.000686872
205.681
47.3628
217.145
0.00947202
0.000680104
18.5026
0.00070594
20.4644
0.723526
34.7373
330.644
3.28959
0.0834685
26.3602
0.000796767
13.4499
0.000724079
0.000721553
30.1126
0.000736009
9.21565
0.000697711
199.403
0.00130534
16.1363
14.1847
10.8616
4.55662
0.000709812
409.893
63.8313
19.751
54.8028
9.1721
20.1026
0.142261
0.181141
1.48669
39.2781
1.55947
139.74
52.6011
48.1488
34.2889
0.000722341
15.4567
0.00601982
11.2042
426.91
20.9696
20.2818
64.0561
24.5867
0.000718588
0.000731013
55.5832
70.2644
0.000758436
1485.37
0.0228411
167.473
0.297631
0.000704642
89.0415
10.2827
12.1995
11.7484
70.5073
34.7484
20.4975
0.507653
0.39386
32.644
95.4646
196.149
132.797
82.9099
0.000837442
44.8985
16.2079
17.2013
43.1346
5.54325
4010.17
21.7494
1.83418
4.02927
19.1565
14.5001
24.607
1.55312
12.6807
0.00757996
0.174996
577.56
13.1496
58.4019
48.4791
8.02189
164.45
10.7473
0.0432522
174.612
87.619
85.5334
186.19
30.0788
105.965
29.1215
27.2093
178.813
29.6738
26.812
21.0097
25.2634
11.0091
12.519
82.2574
86.0489
1.95074
26.811
170.928
99.5039
98.8978
16.1903
191.455
0.677895
85.1602
0.0705455
54.5246
6.57847
1.01918
336.839
214.35
0.569159
54.04
32.9335
0.00073701
0.69075
0.52251
0.708799
40.7766
0.000720436
97.9478
20.0141
0.0941335
93.3654
43.0648
0.000721189
442.736
0.0292787
14.5198
10.741
9247.99
50.2903
42.6495
18.4743
0.000714317
0.000717295
39.9756
13.4946
0.000683283
11.0567
0.000703652
0.000717383
0.000740062
0.000705937
0.231963
0.000725323
0.00175281
123.102
49.8673
0.000755471
19.1175
0.00381973
75.8047
147.327
90.5741
1101.6
15.0728
0.000659342
0.000744368
0.0952317
0.710613
96.1965
0.000682236
0.178218
24.5163
51.5242
5.43961
27.6968
25.1728
71.2758
1008.96
2.59282
4.97149
0.000883417
0.000735548
1.61033
4.12664
0.242995
28.1263
50.7703
5051.77
175.039
2.94463
22.8834
65.9967
0.000734758
8.93492
49.8425
0.00151419
0.000714546
51.8797
3771.22
81.0711
0.00068545
0.0499559
3.97402
0.0156112
0.000730484
53.1701
6.86708
17.5987
16.0693
0.000919415
920.985
0.000714644
1.66842
18.8635
0.0020459
0.0046939
92.768
0.00319558
45.4683
313.835
85.4381
26.1228
41.2516
98.9833
0.000714963
0.000689677
0.000729242
74.8547
0.0843553
315.27
5355.13
4.53368
59.7355
0.000724198
0.0435444
14.4787
0.000689968
0.000725726
97.5171
0.00067985
1.72343
55.1201
27.6809
0.000667646
0.00255822
0.259376
0.239522
10.9759
0.407615
0.000700725
809.887
54.1686
0.813661
0.00544779
33.3626
88.955
0.00234466
15.3591
0.00225213
65.2079
0.00084404
12.7222
1.03224
0.000705393
77.0723
11.106
172.089
0.00351783
10.0361
2.70049
0.00146973
89.4759
51.1019
2.51822
210.77
0.0152322
0.0467355
0.00488259
117.012
31.6529
0.202612
2.45291
4.17139
171.025
0.830773
83.3539
1148.54
0.000673691
211.043
56.3859
10.4205
0.000697367
19.7028
94.4764
0.15167
84.5115
23.3661
2.42126
0.326836
30.045
120.683
0.000863279
0.0103592
55.2974
0.0328103
0.00190387
240.857
1087.31
0.0331501
22.7768
52.1741
0.63199
46.2223
26.9824
52.1212
19.3118
24.4693
0.000738999
0.18925
44.9571
18.5931
116.654
21.7098
98.1361
175.884
991.202
75.0599
2.5785
0.000727144
216.712
91.0625
46.2586
10.3925
1.11735
0.149639
11.1614
0.000731124
17.0702
0.00073215
35.688
10.6881
92.1676
29.3692
78.0543
111.048
119.956
29.7008
221.001
0.000734524
0.340664
58.1067
1424.34
7.72925
23.9189
0.000875362
0.0194389
6.20059
118.188
18.2096
0.000699182
0.0653798
0.000708429
0.0541448
19.8441
0.0280704
66.1424
2.82844
72.083
0.446116
0.442323
298.25
658.819
0.000740135
0.000740699
5.49786
186.019
17.5798
13.2297
3.27158
30.8995
19.4986
0.00066485
0.752098
12.235
0.0013433
77.4913
12.8392
26.9353
17.4183
0.00564442
0.000664668
0.0148125
0.000713661
26.9407
20.3156
122.756
22.9305
0.000731614
139.394
0.123252
118.66
1.79538
194.09
0.030665
0.508115
0.000685121
38.9053
566.818
19.5397
4.60083
0.000657609
104.449
44.929
50.5646
0.000700563
0.620868
56.771
26.8971
0.0018721
1071.13
0.000918095
59.1331
28.9788
0.000879834
2.05196
0.141199
1.09082
0.00070051
0.000741847
75.5074
36.4471
19.7848
54.0704
0.00135234
1.92141
0.220834
44.7522
8.30496
0.00100863
1.57322
403.339
0.000689
0.00289091
26.2942
130.867
88.4923
0.000720255
696.127
23.8525
115.772
0.0201938
2.51923
144.834
0.000735713
101.368
2.47769
18.1087
7.84868
45.326
7.97872
94.3626
96.8892
15.9419
4967.27
0.000746673
0.000719185
142.829
47.3006
0.00130357
0.000723311
9.37565
0.000745337
51.9783
52.5764
1.13885
0.000701394
39.9151
0.405083
21.4497
66.6097
25.595
0.267036
2.35776
118.994
0.000738987
2.36776
61.5378
21.5153
18.1861
0.00232538
10.709
2.74465
2789.49
0.000711224
2.56627
35.7504
18.345
0.000771087
0.166367
28.7979
55.7299
77.3467
0.0607295
205.021
31.8893
0.303981
31.5699
0.000712602
0.0024672
9.09709
0.000684435
26.5396
0.000726288
115.093
0.00454597
57.1751
0.000732343
0.924505
51.9269
127.019
7.58846
31.0892
0.388082
241.804
0.00778809
0.155574
18.4021
0.000697686
0.000745103
27.9533
0.38321
94.8469
25.9062
0.000758644
90.811
105.902
81.2722
7.20527
170.469
95.8213
0.000740884
2399.22
4212.38
49.7603
0.000759723
0.00435888
273.531
54.224
0.00070467
90.887
0.000698266
0.111493
303.596
0.000851926
16.9051
0.00072004
0.0642317
121.432
0.000762143
0.00101787
0.000734967
0.000938576
0.0137164
1018.32
51.4725
0.309754
11.3895
0.000726474
49.2967
0.000729748
8.99187
1.82525
0.0157948
4.44007
0.00628675
73.9539
0.000725041
10698.8
4.25269
30.2337
208.298
4.79194
0.000697113
26.0421
180.2
1.99015
49.7088
58.3651
184.816
23.1182
0.036455
28.6093
0.174933
0.00103708
0.292449
4116.68
155.079
1.03304
0.0292659
20.6415
0.00092433
9.40854
52.2746
174.55
64.4402
60.5231
0.0301315
0.00176372
32.5427
24.3998
0.0490954
42.762
0.000720327
120.914
218.986
0.000766954
176.407
48.8617
1.15436
0.152754
140.094
0.0155341
0.316809
13.411
3.00445
2.84588
0.000752868
27.1358
0.111473
150.17
28.1058
79.8938
6.18388
0.00223541
39.2262
0.000730491
0.000724029
10.5809
0.14955
1.72226
211.989
0.000669084
72.7589
0.148705
0.0586054
0.00079128
166.396
8.12327
0.348385
40.6885
0.058557
309.412
3.96198
0.000716372
236.619
270.711
0.00159329
0.00318275
77.655
26.5946
0.418687
233.407
0.0277711
2.02093
0.246079
0.391632
32.0616
94.3405
0.000736747
96.2003
22.0605
0.00735488
1.29291
1498.04
15.9813
0.000731446
0.00068358
35.4569
23.5296
66.9769
0.000683102
34.3286
2.89307
32.2541
0.000926317
167.474
46.6529
0.00156367
16.4325
0.00074096
86.8721
32.1847
28.3428
40.2225
0.000716166
0.000718333
9.82913
110.401
5.68063
37.9985
0.000665296
0.0436189
0.000734272
0.00194279
39.794
0.0887108
0.34811
0.917342
21.7517
152.295
24.7978
65.6863
0.000728963
29.424
37.8984
20.6601
0.000738997
44.1351
0.00073533
0.000726962
0.158974
20.7583
0.0161936
336.766
35.1091
328.374
0.000762577
0.00132089
0.0372646
110.277
4.60568
145.811
0.000725841
0.000715973
0.0019618
0.00296932
139.769
44.86
83.1166
0.308846
0.0360328
3.86435
3.79045
57.2959
15.298
61.2803
18.9407
0.000690189
182.591
0.00155585
1.83354
62.139
26.2518
1.31019
0.619606
0.000943321
106.324
7.47888
20.0294
28.5108
0.000722606
67.2863
43.0427
171.596
0.00440725
59.1357
47.6227
56.669
191.118
22.0782
55.8489
0.277515
814.122
4.28472
0.188824
121.15
0.000729539
94.0526
173.507
0.000703883
35.835
0.00130996
102.239
102.352
1.77333
18.8106
106.396
97.4798
13.3804
0.943479
50.2275
9.34914
0.00560337
0.000696511
24.6831
0.0862121
19.5032
58.1463
4.48939
53.931
105.074
0.000717039
15.9814
461.706
243.564
10.3981
99.7609
18.2204
208.574
97.344
1.65226
0.0159488
0.22175
68.1244
84.0312
0.222196
53.8695
59.903
53.0039
11.0927
2.07408
10.6433
32.9937
0.000738547
238.743
88.8098
1.51877
0.000738418
26.8073
15.5615
17.1628
0.000720235
149.682
0.000728796
12.0523
0.180631
0.000733694
39.412
81.5265
0.000701061
50.5276
27.9134
24.8522
12.7044
40.4074
15.4362
40.7527
52.8685
1.7175
0.000708693
0.00128167
33.6914
5.62511
0.126424
0.000738557
84.1894
0.00185356
0.977083
0.250785
10.8762
8.66929
0.0645084
0.523456
394.634
173.189
24.336
1421.42
56.9486
0.000706103
51.5616
18.042
182.305
0.000709436
5.48316
0.000737103
0.000866613
17.458
4.00069
0.0327353
0.000802667
56.9968
3020.59
0.00246934
0.00072892
1.63798
9.51194
0.0158721
0.0871891
3169.26
0.55366
0.000795803
0.000727664
66.8466
20.7729
0.306558
0.0668042
64.2437
193.173
29.5413
103.473
35.2965
0.000730545
16.6223
0.000723076
130.357
15.4918
2935.95
6.15456
0.14654
0.000951907
97.3607
0.000739878
0.000712134
0.00176183
13.7147
18.5059
61.6879
0.000719014
16.6915
0.000727254
529.708
61.7504
0.000744625
126.183
6.2758
0.000729066
0.000766879
0.0263527
139.715
5.64883
0.0173902
0.000727497
0.000709723
134.684
91.5319
20.8816
34.5877
0.474695
34.4938
0.000718456
0.00406395
6.8891
209.964
48.1351
0.00325741
0.000731396
33.2606
0.000727524
87.9406
140.606
7.23356
0.0382062
91.8397
16.6099
3.15464
0.000727966
7.44168
95.0683
85.2052
0.00217336
0.0221229
31.8242
3012.28
0.0536051
4.56427
0.000703037
0.00068991
0.000740627
0.0102669
31.9862
69.9628
0.04169
99.6763
22.5753
419.998
8.16146
0.0109769
0.00276805
0.00617782
2.59044
48.0765
20.1534
0.000753059
96.3223
0.000716165
0.00631937
65.6617
49.72
0.0266895
5.32455
9.82906
0.00104964
0.740414
2.52797
0.000722277
0.000931254
146.963
0.000888902
0.000753606
110.969
25.2429
3163.54
8.83022
1375.51
0.000851905
0.00070029
3520.44
17.3003
1.17938
3.72165
0.0572905
18.5505
1.02494
986.629
47.0431
66.6523
143.514
104.545
1.0563
27.194
99.3813
0.00693334
80.7341
0.000980921
37.0334
6.32221
0.736032
7.88672
6.98909
3.50003
2.0393
39.2247
61.0172
45.0639
28.7072
50.2176
36.1618
6.28129
0.00109218
0.000724307
0.236992
252.388
0.000725512
80.0876
0.000705567
0.00379306
189.952
112.721
45.0491
74.9552
979.746
77.5643
19.0902
40.2792
0.000724389
16.7221
74.4964
0.000760093
198.601
0.00253941
719.436
250.267
294.801
14.1517
84.1489
4.53404
0.501117
16.0452
94.3991
20.5333
12.2252
5.38863
77.2856
0.13577
124.336
335.529
0.00368001
34.5775
0.000739834
0.000988045
17.5249
133.349
168.945
14.6291
0.612708
0.218594
0.320299
0.000848491
22.8514
0.000847976
154.812
0.000803081
0.120893
258.612
5.554
2.89851
192.114
157.85
0.00194695
0.000740096
0.194298
13.6204
0.166093
112.997
0.0371942
25.7626
5.13129
27.1025
56.1335
0.000867468
0.000719444
130.489
0.722725
5.57546
56.3074
29.2694
38.8183
0.00388996
164.644
56.1528
90.4929
0.000828361
1.28802
24.7624
79.1433
1.00388
14.0355
0.000737704
11.8608
0.000710647
221.849
0.00436208
34.7297
0.172581
10.1456
0.000761946
1961.39
0.000739093
142.753
0.0160698
0.000727374
0.00678363
14.5697
0.000729275
0.000733365
10.3295
0.0268846
20.4682
0.063437
0.000772376
22.413
6.44903
39.6929
0.000782261
111.689
4.55509
351.894
37.5107
29.9436
57.4787
93.0149
4.63557
299.271
249.185
98.3265
0.000753326
2.42129
25.6177
18.2159
0.00128569
0.0163383
20.6327
482.283
0.000735472
1.66516
105.138
0.000675629
57.877
66.84
182.226
73.3773
52.5656
12.3109
0.341807
202.366
9.27843
73.8009
51.7814
52.4075
0.489102
0.000727257
34.1889
0.00182387
0.000750513
0.000711671
177.876
0.00072755
0.000913193
18.3863
9466.29
2.85512
2.58865
52.7468
11.167
0.000728511
42.318
223.838
0.0161878
4.73963
55.7995
49.03
0.282537
0.0208534
0.000717028
0.00072621
0.0173091
0.0416928
25.2442
21.2208
88.1928
14.1341
13.9378
0.000995504
197.962
28.2684
0.00074783
23.104
826.99
0.000734651
6.95867
119.794
43.7475
91.741
0.717473
143.969
0.000856753
0.925201
0.000773862
0.0019877
0.000746828
63.3832
18.1491
0.0967102
0.000739345
0.000686729
188.251
28.6448
2.73459
19.9818
6.24292
36.3338
18.4272
24.4773
26.5616
0.000732268
0.482342
0.879188
0.353954
19.0572
77.2036
49.5795
84.075
27.8185
88.0993
161.596
95.3772
46.5645
32.1643
0.13153
56.7894
29.6188
0.0202638
79.566
53.9151
10.9301
0.00069945
0.000742731
0.000873467
0.00118269
49.901
0.00067443
109.754
50.5034
229.908
28.952
0.00072644
12.4741
15.8882
58.0825
15.3692
29.4782
13.7349
0.000754703
0.000742226
0.00345308
0.176012
0.000710774
84.53
13.9612
1.74276
47.6622
15.0693
39.0288
118.306
0.000728216
19.0925
30.9788
0.000944619
0.0907729
52.8284
168.853
20.2818
4.75177
0.000753929
33.6854
39.6361
0.000959507
0.011621
0.000722848
39.7523
0.00116595
0.517959
112.711
0.763673
0.0999099
21.8078
2877.59
0.000758172
30.214
0.000675457
10.2403
23.0477
22.287
17.0792
60.8671
31.7205
58.2628
189.002
45.3545
0.000732409
0.000718148
0.0475286
0.206896
53.1992
4.54811
0.000730225
164.412
2.8984
0.00301843
52.3433
0.0545833
0.00287149
0.0322898
74.2089
0.00203753
0.000734265
21.3526
83.4569
25.1438
1.62659
53.9656
8.2495
0.000737461
16.8038
0.146141
0.0685528
0.000791113
34.6982
20.0476
5.51037
139.124
94.6202
16.4153
2.90026
0.000725723
25.858
0.000726208
223.156
0.0040755
33.4125
0.157986
53.6963
0.00810718
0.00356634
4.54877
3.74155
386.584
0.000853167
1.89433
46.3901
91.2244
6.40698
114.718
1.32769
0.000812304
0.000744797
58.195
24.6038
313.176
2.24705
0.16446
54.9291
21.096
59.5233
0.0668334
0.00072599
0.000734803
1.27416
767.897
18.6068
105.983
0.000842797
0.00453228
1.10957
48.9154
22.8251
45.0745
57.9198
60.8548
0.000741921
0.000735549
179.035
135.889
61.5936
427.113
48.0778
0.0161027
132.994
0.000724673
226.238
0.0177352
0.0210122
0.00072721
0.0347078
0.173059
53.6966
48.43
0.000754517
116.311
0.000719039
82.8557
148.524
0.000718105
0.470241
0.0007544
16.4692
0.32411
5.61877
0.000691775
13.187
90.9351
13.1429
45.1296
1.24021
60.626
1.58094
62.672
33.387
84.0334
30.8136
0.000955106
0.000736192
27.2197
0.480853
61.6526
0.000731901
123.35
0.000724324
0.00131046
0.250973
0.000720462
273.635
97.6724
0.000762186
21.8772
2.57114
0.175172
33.1995
0.00188092
0.000708279
42.9999
9.15719
0.0205807
46.5982
2371.85
108.394
1.62936
183.01
0.225341
0.000735777
0.00090053
0.0276562
1.55175
57.7076
140.771
312.549
52.4268
55.042
10.6063
1.98002
37.3464
154.174
56.1178
0.0352203
0.0854647
13.0683
83.8762
0.000793217
1.00354
17.5312
192.491
0.000726907
49.0897
0.000680748
0.00644355
129.558
0.000790495
65.1869
1155.59
0.000738013
175.25
0.000870226
8.89695
0.00652841
0.00103379
47.532
16.2044
64.6367
8.46945
79.566
350.453
105.554
5.9606
36.6803
20.3435
0.000705297
162.897
0.0565421
88.6092
4.03135
10.5361
0.0347014
0.00108869
167.198
116.644
12.6438
48.3879
18.0947
0.0103111
0.000694836
0.000744478
1.65772
75.3322
17.2542
0.00070393
1167.96
20.4524
0.00960895
0.141789
20.1877
0.000664273
0.392135
0.000762217
0.000723747
21.4316
30.0439
0.0546546
0.00624152
0.000708808
29.0793
1.77426
20.7294
0.00231512
0.0321783
0.00738229
61.1691
103.268
1.23314
0.000729312
160.241
0.000780825
0.0337235
0.00416217
0.00141259
34.8224
64.8528
0.000725239
49.9838
0.000748745
0.000696272
0.00088084
53.4435
15.4255
53.2224
42.4433
20.077
61.8963
0.0442246
0.00072878
0.00706972
0.00161845
2.86905
0.000713548
61.6087
11.7277
0.0330885
101.132
0.353804
22.3097
1.87889
0.00184176
125.489
56.7819
20.1906
0.0072446
0.146529
214.857
0.000732765
8.92478
57.7623
0.000724659
0.708872
0.00279792
19.5267
0.000691665
81.5044
37.2715
1.71726
0.430815
94.1659
365.901
4.71912