/*--------------------------------*- C++ -*----------------------------------*\
| =========                 |                                                 |
| \\      /  F ield         | OpenFOAM: The Open Source CFD Toolbox           |
|  \\    /   O peration     | Version:  2.3.1                                 |
|   \\  /    A nd           | Web:      www.OpenFOAM.org                      |
|    \\/     M anipulation  |                                                 |
\*---------------------------------------------------------------------------*/
FoamFile
{
    version     2.0;
    format      ascii;
    class       volScalarField;
    location    "0.84";
    object      p;
}
// * * * * * * * * * * * * * * * * * * * * * * * * * * * * * * * * * * * * * //

dimensions      [0 2 -2 0 0 0 0];

internalField   nonuniform List<scalar> 
15166
(
-17.3011
-22.3287
-25.0977
-27.3079
-29.1866
-30.7848
-32.2171
-33.4744
-34.5614
-35.3679
-36.11
-36.6831
-22.0171
-24.5289
-25.8899
-27.5567
-29.1305
-30.556
-31.8604
-33.0392
-34.0709
-34.9004
-35.6416
-36.2349
-27.2027
-28.0905
-28.3661
-29.3012
-30.299
-31.3144
-32.3134
-33.2454
-34.0946
-34.8203
-35.4655
-36.0029
-30.1782
-30.5902
-30.5852
-31.1456
-31.7369
-32.4055
-33.1098
-33.7975
-34.4481
-35.0269
-35.5463
-35.9749
-32.0467
-32.3011
-32.2755
-32.6751
-33.0519
-33.5062
-34.0003
-34.4977
-34.9806
-35.4224
-35.8254
-36.1743
-33.6945
-33.8139
-33.7564
-34.0306
-34.2663
-34.5753
-34.9167
-35.2668
-35.6127
-35.9352
-36.2316
-36.4939
-35.2849
-35.2849
-35.1777
-35.3306
-35.4477
-35.6353
-35.8499
-36.0766
-36.3049
-36.5199
-36.7152
-36.8777
-36.7578
-36.6703
-36.5254
-36.5776
-36.5974
-36.681
-36.7875
-36.9083
-37.0344
-37.1547
-37.2629
-37.3495
-38.0954
-37.9418
-37.7736
-37.7488
-37.694
-37.6936
-37.7108
-37.7426
-37.7818
-37.8204
-37.853
-37.8703
-39.3179
-39.1112
-38.9273
-38.8421
-38.73
-38.6621
-38.6069
-38.5652
-38.5313
-38.4996
-38.4643
-38.4171
-40.4475
-40.1974
-40.0013
-39.8667
-39.7087
-39.5855
-39.4708
-39.3677
-39.272
-39.1807
-39.0888
-38.978
-41.5011
-41.2139
-41.0076
-40.831
-40.6351
-40.4654
-40.3009
-40.146
-39.9979
-39.8555
-39.7181
-39.5747
-42.4862
-42.1679
-41.9529
-41.7406
-41.5128
-41.3035
-41.0968
-40.8977
-40.7044
-40.5165
-40.3349
-40.1602
-43.4101
-43.0649
-42.8427
-42.5999
-42.3449
-42.1019
-41.8589
-41.6211
-41.3873
-41.1557
-40.918
-40.6612
-44.2795
-43.911
-43.6824
-43.4128
-43.1347
-42.8626
-42.5886
-42.318
-42.0508
-41.7892
-41.5362
-41.2731
-45.0993
-44.7104
-44.476
-44.1834
-43.8853
-43.5882
-43.2878
-42.9893
-42.693
-42.4011
-42.1184
-41.842
-45.8739
-45.4673
-45.2277
-44.9148
-44.5992
-44.2802
-43.9566
-43.6334
-43.3116
-42.9922
-42.6784
-42.3765
-46.6081
-46.1851
-45.9404
-45.6092
-45.2782
-44.9399
-44.5961
-44.2514
-43.9075
-43.5656
-43.2271
-42.8983
-47.3036
-46.8664
-46.617
-46.2698
-45.9252
-45.5698
-45.2081
-44.8444
-44.4809
-44.12
-43.7632
-43.4139
-47.9641
-47.5139
-47.2601
-46.8982
-46.5413
-46.1706
-45.7929
-45.4122
-45.0311
-44.6524
-44.2792
-43.9195
-48.5915
-48.1295
-47.8714
-47.4966
-47.1286
-46.744
-46.3518
-45.9556
-45.5581
-45.1618
-44.7694
-44.3922
-49.1873
-48.715
-48.4532
-48.0663
-47.6881
-47.2911
-46.8859
-46.4754
-46.0628
-45.6499
-45.2366
-44.8312
-49.7568
-49.2733
-49.007
-48.6092
-48.2219
-47.8136
-47.3966
-46.9736
-46.5482
-46.1231
-45.6995
-45.2837
-50.2975
-49.8038
-49.5342
-49.1264
-48.7307
-48.3123
-47.8848
-47.4508
-47.0139
-46.5772
-46.1408
-45.7061
-50.8058
-50.3073
-50.0354
-49.6188
-49.2156
-48.7881
-48.3513
-47.9073
-47.46
-47.0126
-46.5662
-46.1201
-51.2958
-50.7882
-50.5126
-50.0876
-49.6777
-49.242
-48.7967
-48.3436
-47.8869
-47.4297
-46.9732
-46.5147
-51.7611
-51.2455
-50.9672
-50.5343
-50.1181
-49.6746
-49.2216
-48.7603
-48.2952
-47.83
-47.3677
-46.9032
-52.2038
-51.68
-51.3991
-50.9592
-50.5371
-50.0867
-49.6265
-49.1576
-48.6845
-48.2102
-47.7377
-47.2686
-52.6196
-52.0919
-51.8096
-51.3629
-50.9355
-50.4787
-50.0119
-49.5359
-49.0554
-48.5729
-48.0896
-47.6018
-53.0161
-52.4826
-52.1992
-51.7462
-51.3141
-50.8514
-50.3786
-49.8963
-49.4092
-48.9206
-48.4329
-47.9392
-53.3923
-52.8559
-52.5692
-52.1102
-51.6735
-51.2055
-50.7272
-50.2391
-49.7461
-49.2514
-48.7576
-48.2573
-53.7523
-53.2106
-52.9206
-52.4554
-52.0144
-51.5413
-51.0579
-50.5645
-50.0661
-49.5657
-49.0675
-48.5659
-54.0827
-53.5429
-53.2515
-52.7813
-52.3365
-51.8589
-51.371
-50.8728
-50.3692
-49.8629
-49.3572
-48.8475
-54.4022
-53.858
-53.5633
-53.0885
-52.6407
-52.1589
-51.6668
-51.1644
-50.6565
-50.1461
-49.637
-49.1273
-54.7026
-54.1539
-53.8575
-53.3781
-52.927
-52.4415
-51.9458
-51.4396
-50.928
-50.4142
-49.9011
-49.3859
-54.9801
-54.4308
-54.1336
-53.6499
-53.1961
-52.707
-52.2077
-51.698
-51.1831
-50.6664
-50.1526
-49.6388
-55.2418
-54.6902
-54.3924
-53.9043
-53.4477
-52.9553
-52.4528
-51.9395
-51.4206
-50.8989
-50.3785
-49.8639
-55.4914
-54.9336
-54.6347
-54.1416
-53.6826
-53.1869
-52.681
-52.164
-51.6411
-51.1144
-50.5842
-50.0478
-55.7143
-55.1574
-54.8597
-54.3619
-53.9007
-53.4021
-52.8933
-52.3732
-51.847
-51.3171
-50.7828
-50.2235
-55.9289
-55.3657
-55.0684
-54.5653
-54.1024
-53.6013
-53.0902
-52.5679
-52.0399
-51.511
-50.9897
-50.4641
-56.1207
-55.5562
-55.26
-54.7517
-54.2879
-53.7846
-53.2715
-52.7469
-52.2163
-51.6815
-51.146
-50.6103
-56.2972
-55.7329
-55.4338
-54.9211
-54.4572
-53.9519
-53.4368
-52.9101
-52.3773
-51.8408
-51.3045
-50.7621
-56.4623
-55.8944
-55.5917
-55.075
-54.611
-54.1036
-53.5868
-53.0583
-52.5236
-51.9856
-51.4478
-50.9003
-56.6022
-56.0379
-55.7353
-55.2122
-54.7496
-54.2402
-53.7218
-53.1917
-52.6553
-52.1157
-51.5778
-51.0368
-56.7339
-56.1665
-55.8616
-55.3352
-54.874
-54.3619
-53.8419
-53.3101
-52.772
-52.2302
-51.6886
-51.1424
-56.8432
-56.2771
-55.9704
-55.4434
-54.9845
-54.4681
-53.9468
-53.4137
-52.8744
-52.3317
-51.7918
-51.2579
-56.9389
-56.3733
-56.063
-55.539
-55.0786
-54.5576
-54.0365
-53.5023
-52.9616
-52.4167
-51.8707
-51.326
-57.0173
-56.456
-56.1378
-55.621
-55.1516
-54.6341
-54.112
-53.5763
-53.0346
-52.4892
-51.9444
-51.4084
-57.0835
-56.5228
-56.1995
-55.6865
-55.2127
-54.6958
-54.1725
-53.6359
-53.0932
-52.5467
-51.9987
-51.4531
-57.1333
-56.5748
-56.2466
-55.7352
-55.2599
-54.7428
-54.2184
-53.6811
-53.1376
-52.5905
-52.0435
-51.5058
-57.1638
-56.6088
-56.2793
-55.7687
-55.2921
-54.775
-54.2498
-53.7118
-53.1674
-52.6186
-52.0661
-51.5129
-57.1833
-56.6289
-56.2978
-55.7878
-55.31
-54.7929
-54.2673
-53.7291
-53.1842
-52.635
-52.0821
-51.5205
-57.1865
-56.6334
-56.3014
-55.7916
-55.3133
-54.7966
-54.271
-53.7332
-53.1891
-52.6421
-52.0968
-51.5498
-57.1706
-56.6229
-56.29
-55.7809
-55.3022
-54.7858
-54.2605
-53.7231
-53.1794
-52.6321
-52.085
-51.533
-57.1436
-56.5984
-56.264
-55.7556
-55.2767
-54.7607
-54.2356
-53.6984
-53.1547
-52.6068
-52.0595
-51.5146
-57.1008
-56.5589
-56.2233
-55.7157
-55.2368
-54.7214
-54.1965
-53.6597
-53.1161
-52.568
-52.0182
-51.4663
-57.0479
-56.5041
-56.168
-55.6613
-55.1825
-54.6678
-54.1436
-53.6075
-53.0649
-52.518
-51.9709
-51.4291
-56.9706
-56.4345
-56.0981
-55.5924
-55.114
-54.6001
-54.0769
-53.5419
-53.0003
-52.4545
-51.9057
-51.348
-56.8879
-56.3501
-56.0134
-55.509
-55.0312
-54.5183
-53.9961
-53.4625
-52.9228
-52.3805
-51.8436
-51.3221
-56.7841
-56.2502
-55.9139
-55.4108
-54.9337
-54.4221
-53.9009
-53.3684
-52.8296
-52.2865
-51.7417
-51.2045
-56.6663
-56.1362
-55.8001
-55.2985
-54.8221
-54.3114
-53.7911
-53.2592
-52.7208
-52.1776
-51.6311
-51.0865
-56.5385
-56.0101
-55.673
-55.1725
-54.6967
-54.187
-53.6676
-53.1367
-52.599
-52.0568
-51.5112
-50.9586
-56.3952
-55.8678
-55.5311
-55.0319
-54.557
-54.0487
-53.5308
-53.0015
-52.4655
-51.9258
-51.3864
-50.8514
-56.2328
-55.7099
-55.3744
-54.8771
-54.4035
-53.8967
-53.3804
-52.8529
-52.3188
-51.7801
-51.2386
-50.6928
-56.0586
-55.5379
-55.2031
-54.7079
-54.2357
-53.7309
-53.2164
-52.691
-52.159
-51.6232
-51.0876
-50.5549
-55.8679
-55.3518
-55.018
-54.5247
-54.0541
-53.5511
-53.0386
-52.5153
-51.9855
-51.4517
-50.9162
-50.3776
-55.6643
-55.1526
-54.819
-54.3276
-53.8585
-53.3575
-52.8471
-52.3259
-51.7983
-51.2672
-50.7372
-50.2155
-55.4527
-54.9391
-54.6057
-54.1162
-53.6489
-53.1498
-52.6414
-52.1225
-51.597
-51.067
-50.5349
-50.0039
-55.2135
-54.7081
-54.3771
-53.8905
-53.425
-52.9283
-52.4221
-51.9056
-51.3825
-50.8555
-50.329
-49.8176
-54.9657
-54.4641
-54.1346
-53.6504
-53.1871
-52.6926
-52.189
-51.6747
-51.1543
-50.6296
-50.1023
-49.5826
-54.7058
-54.2078
-53.8785
-53.3969
-52.9353
-52.4432
-51.9421
-51.4303
-50.9125
-50.3906
-49.868
-49.3655
-54.4318
-53.9357
-53.6082
-53.1294
-52.67
-52.1801
-51.6813
-51.1722
-50.6567
-50.1367
-49.612
-49.0924
-54.1438
-53.6512
-53.3238
-52.8474
-52.3904
-51.9033
-51.4071
-50.9007
-50.3877
-49.8707
-49.3496
-48.8349
-53.8342
-53.3487
-53.0248
-52.552
-52.0975
-51.6133
-51.1201
-50.6168
-50.1073
-49.5944
-49.0803
-48.5781
-53.5127
-53.0326
-52.7111
-52.2418
-51.7902
-51.3093
-50.8193
-50.3194
-49.8132
-49.3032
-48.7896
-48.2798
-53.1855
-52.7075
-52.3857
-51.9188
-51.4695
-50.9917
-50.505
-50.0084
-49.5059
-49
-48.4938
-48.003
-52.8386
-52.3652
-52.0454
-51.582
-51.1356
-50.6606
-50.1773
-49.6841
-49.1847
-48.6814
-48.1738
-47.669
-52.4775
-52.0073
-51.6902
-51.2305
-50.7874
-50.3159
-49.8357
-49.3463
-48.8508
-48.352
-47.8522
-47.3683
-52.1012
-51.6365
-51.3212
-50.8651
-50.4251
-49.957
-49.4808
-48.995
-48.5035
-48.0086
-47.5102
-47.0139
-51.7065
-51.2494
-50.9373
-50.4855
-50.0489
-49.5846
-49.112
-48.6301
-48.143
-47.6528
-47.1636
-46.6923
-51.3029
-50.8501
-50.5399
-50.0922
-49.6589
-49.1985
-48.7297
-48.2515
-47.7679
-47.2803
-46.7888
-46.3098
-50.8864
-50.4376
-50.1296
-49.6856
-49.2558
-48.7991
-48.3338
-47.8595
-47.3793
-46.8947
-46.404
-45.9145
-50.4543
-50.0102
-49.7044
-49.2649
-48.8388
-48.3863
-47.9251
-47.4554
-46.9802
-46.5018
-46.0213
-45.5446
-50.0067
-49.5682
-49.2653
-48.8303
-48.4082
-47.9601
-47.5038
-47.0391
-46.5695
-46.0976
-45.6273
-45.1734
-49.5441
-49.1117
-48.8119
-48.3817
-47.9639
-47.5202
-47.0685
-46.6087
-46.1434
-45.6747
-45.2025
-44.736
-49.066
-48.6416
-48.3451
-47.9197
-47.5059
-47.0666
-46.6194
-46.1644
-45.704
-45.2404
-44.776
-44.3321
-48.5823
-48.1598
-47.8649
-47.4443
-47.0344
-46.5997
-46.1573
-45.7069
-45.2514
-44.7921
-44.328
-43.8622
-48.0787
-47.6622
-47.3703
-46.9549
-46.5494
-46.1196
-45.6821
-45.237
-44.787
-44.3349
-43.8838
-43.45
-47.5592
-47.1493
-46.8611
-46.4511
-46.0506
-45.6259
-45.1939
-44.7542
-44.3096
-43.8632
-43.4171
-42.9954
-47.0257
-46.6229
-46.3385
-45.9341
-45.5382
-45.1188
-44.692
-44.2577
-43.8181
-43.3755
-42.9309
-42.5115
-46.4796
-46.0826
-45.8017
-45.4028
-45.012
-44.5981
-44.1768
-43.7476
-43.3133
-42.8749
-42.4283
-41.9833
-45.9199
-45.529
-45.2519
-44.8588
-44.4731
-44.0647
-43.6494
-43.2267
-42.8001
-42.3725
-41.9478
-41.5596
-45.3476
-44.9635
-44.689
-44.3016
-43.921
-43.5183
-43.1091
-42.6928
-42.2727
-41.8507
-41.4239
-41.0084
-44.7627
-44.3824
-44.112
-43.7307
-43.3555
-42.9588
-42.5552
-42.145
-41.731
-41.3143
-40.8949
-40.4984
-44.157
-43.7868
-43.521
-43.1459
-42.7762
-42.3856
-41.9881
-41.5844
-41.1767
-40.7668
-40.3526
-39.9431
-43.5461
-43.1794
-42.9163
-42.5472
-42.1836
-41.7991
-41.4082
-41.0114
-40.611
-40.2095
-39.8093
-39.4339
-42.9198
-42.5583
-42.2986
-41.9357
-41.5777
-41.1996
-40.8154
-40.4254
-40.0316
-39.6357
-39.2352
-38.8367
-42.269
-41.9186
-41.6655
-41.3099
-40.9584
-40.5872
-40.2095
-39.8266
-39.4402
-39.0524
-38.6649
-38.3009
-41.6159
-41.2703
-41.0198
-40.6707
-40.3256
-39.9615
-39.591
-39.2153
-38.8367
-38.4565
-38.0734
-37.6939
-40.9451
-40.6071
-40.3611
-40.019
-39.6807
-39.3233
-38.9601
-38.592
-38.2212
-37.8496
-37.4808
-37.1371
-40.2637
-39.9309
-39.6889
-39.3536
-39.0219
-38.6721
-38.3163
-37.956
-37.5925
-37.2268
-36.8569
-36.4991
-39.5632
-39.2393
-39.0028
-38.6754
-38.3507
-38.0083
-37.6601
-37.3076
-36.9523
-36.5957
-36.2355
-35.884
-38.8511
-38.5351
-38.3039
-37.9842
-37.6666
-37.3323
-36.9926
-36.6487
-36.3028
-35.9576
-35.6148
-35.2874
-38.1315
-37.8201
-37.5928
-37.2806
-36.9704
-36.6439
-36.3127
-35.9775
-35.6406
-35.3038
-34.9682
-34.6539
-37.3946
-37.0918
-36.8693
-36.5644
-36.2617
-35.9433
-35.6202
-35.2935
-34.965
-34.6355
-34.3028
-33.9787
-36.6463
-36.3497
-36.1324
-35.8357
-35.5407
-35.2307
-34.9158
-34.5982
-34.2794
-33.9609
-33.6446
-33.3559
-35.8827
-35.5951
-35.3827
-35.0943
-34.8072
-34.5059
-34.2001
-33.8918
-33.5821
-33.2722
-32.9589
-32.6505
-35.11
-34.8284
-34.6204
-34.3404
-34.0618
-33.7694
-33.4733
-33.1747
-32.8749
-32.5754
-32.2755
-31.9896
-34.3239
-34.0484
-33.8464
-33.575
-33.3048
-33.0218
-32.7355
-32.4474
-32.1587
-31.8715
-31.587
-31.3229
-33.5219
-33.256
-33.0597
-32.7972
-32.5358
-32.263
-31.9868
-31.7092
-31.4311
-31.1542
-30.8756
-30.6026
-32.7109
-32.4521
-32.2617
-32.0083
-31.7561
-31.4933
-31.2279
-30.961
-30.6945
-30.4296
-30.1677
-29.927
-31.8864
-31.6362
-31.4521
-31.2079
-30.965
-30.7126
-30.4582
-30.203
-29.9488
-29.6958
-29.4414
-29.2014
-31.056
-30.8118
-30.6325
-30.3974
-30.1638
-29.9219
-29.6787
-29.4356
-29.1945
-28.957
-28.7229
-28.5232
-30.2127
-29.9757
-29.8013
-29.5757
-29.352
-29.1211
-28.8889
-28.6574
-28.4284
-28.2033
-27.9808
-27.7675
-29.3556
-29.1279
-28.9608
-28.7446
-28.5306
-28.3103
-28.0894
-27.8689
-27.65
-27.4323
-27.2123
-26.9921
-28.4951
-28.2714
-28.1092
-27.9028
-27.6989
-27.49
-27.2812
-27.0732
-26.8671
-26.6641
-26.4658
-26.2946
-27.6175
-27.4034
-27.2485
-27.0525
-26.8592
-26.6622
-26.4662
-26.2718
-26.08
-25.8911
-25.7019
-25.5173
-26.7343
-26.5277
-26.3787
-26.193
-26.0112
-25.8272
-25.6448
-25.4652
-25.2884
-25.1158
-24.9478
-24.8014
-25.8419
-25.6449
-25.5023
-25.3268
-25.1563
-24.9849
-24.8165
-24.6522
-24.4922
-24.3361
-24.1827
-24.0466
-24.9473
-24.7546
-24.6177
-24.453
-24.2946
-24.1368
-23.983
-23.8338
-23.6903
-23.5524
-23.4199
-23.3221
-24.0424
-23.8567
-23.7268
-23.5727
-23.4261
-23.2823
-23.1437
-23.0102
-22.882
-22.7596
-22.6394
-22.5216
-23.1275
-22.9514
-22.829
-22.6866
-22.5527
-22.4233
-22.3
-22.1826
-22.0703
-21.9623
-21.8552
-21.7492
-22.2121
-22.0431
-21.9268
-21.7958
-21.6757
-21.5614
-21.455
-21.3559
-21.2633
-21.1779
-21.103
-21.0653
-21.2941
-21.1304
-21.0211
-20.9019
-20.7956
-20.6979
-20.6094
-20.5295
-20.457
-20.3903
-20.3256
-20.2691
-20.3684
-20.2132
-20.1117
-20.0056
-19.9141
-19.8337
-19.7646
-19.7049
-19.6533
-19.6081
-19.568
-19.5574
-19.4427
-19.2948
-19.2006
-19.1073
-19.0321
-18.9707
-18.9221
-18.8847
-18.8561
-18.8334
-18.8115
-18.7964
-18.5175
-18.3751
-18.2893
-18.2104
-18.1525
-18.112
-18.0864
-18.0733
-18.0702
-18.0744
-18.0828
-18.1052
-17.5889
-17.4544
-17.3776
-17.3146
-17.2764
-17.2588
-17.2588
-17.2731
-17.2984
-17.3319
-17.3718
-17.426
-16.6638
-16.5352
-16.4684
-16.4232
-16.4071
-16.4156
-16.4441
-16.4878
-16.5426
-16.6053
-16.6741
-16.762
-15.7378
-15.6174
-15.5624
-15.5381
-15.5486
-15.587
-15.6474
-15.7235
-15.8091
-15.899
-15.987
-16.0783
-14.816
-14.702
-14.662
-14.6639
-14.7069
-14.7815
-14.8788
-14.9913
-15.1116
-15.2343
-15.3561
-15.4929
-13.8937
-13.789
-13.7705
-13.8086
-13.8941
-14.0128
-14.1528
-14.3044
-14.4609
-14.6163
-14.7646
-14.9122
-12.9674
-12.8765
-12.895
-12.9872
-13.1292
-13.3005
-13.4879
-13.6813
-13.8737
-14.0602
-14.2351
-14.4045
-12.0297
-11.9715
-12.0589
-12.2342
-12.4497
-12.6808
-12.915
-13.1447
-13.3697
-13.584
-13.7761
-13.9342
-11.0585
-11.1446
-11.3818
-11.6852
-11.9819
-12.2603
-12.5301
-12.7867
-13.0299
-13.2727
-13.4732
-13.6562
-1.51269
9.70877
-10.3092
-19.2172
-19.8575
-7.19869
-4.75625
32.7499
-44.7908
-39.9597
-35.0468
-14.8549
16.5882
-41.2456
1.38588
-6.7573
-41.2709
-30.5991
-30.0392
-6.48878
27.9833
26.3249
17.785
-16.1201
-0.858652
-10.8531
24.365
0.646036
-42.5138
-37.8098
-42.4767
30.9143
9.58128
-34.6553
16.7938
18.0437
33.6641
-30.8184
33.2344
-14.7594
2.32274
-1.99087
24.6822
-0.419966
33.434
26.1244
19.0532
19.9917
33.3653
27.9719
18.7597
32.5675
30.9377
1.49101
-36.9582
9.41829
12.904
-2.36873
-31.5742
0.921362
24.1695
30.3288
1.53647
-3.96665
17.5257
9.71185
-13.6897
30.4921
16.3348
-39.4145
-37.055
13.9389
33.1334
-13.2586
-15.493
2.61661
-44.3284
-1.67791
10.0155
28.8019
2.66454
-1.93246
33.9139
32.5582
1.96527
-44.398
-13.7155
0.919701
-39.5738
33.5435
27.9869
-41.322
-0.226376
7.8281
34.3247
-4.18765
0.516214
-1.9076
-0.642043
-13.3458
-15.8574
14.5777
5.57208
8.91225
-1.70931
33.9713
1.83124
33.2502
-13.6629
0.350486
17.9787
-2.06971
30.5201
-7.73153
1.68699
15.6667
-19.9034
-6.20128
-45.7001
-33.3358
-10.6059
-21.5295
-42.0198
15.4073
-18.1226
-40.3264
-1.92272
11.6043
19.3703
1.03089
31.5956
1.40025
21.4138
8.84741
23.5184
10.7801
34.0288
-39.3992
31.5453
10.3896
-19.1498
28.7191
27.1233
0.538235
30.8963
-37.1295
31.6718
-10.6839
-47.9226
3.35873
0.321651
16.6472
-1.66768
4.76359
22.1791
3.2273
31.8298
-1.3502
-41.7123
-14.5817
-22.0909
-6.32601
-30.1839
-15.0632
24.1414
26.3773
31.5945
34.3124
10.9024
1.48677
-38.1092
-18.0682
-36.9175
-19.2508
-1.10227
-41.2491
1.95433
32.3913
25.2141
-36.9816
31.0679
-32.2829
-7.56626
33.4019
6.30582
31.4886
3.49409
-1.70582
31.7774
1.62168
-40.3784
-1.7451
31.9149
-5.90096
32.0477
8.0615
26.9524
30.4001
2.38186
-61.4218
-47.5672
32.4145
34.355
31.1708
32.8675
14.1225
-7.975
-36.2492
-13.8291
-15.9309
4.31324
-46.9816
33.4127
34.2282
1.93913
31.1855
-11.191
-13.1315
-63.5311
30.5448
32.4367
-47.8287
33.569
-3.23898
-3.26702
-39.9198
-44.8065
-2.0733
-56.4282
20.0275
33.7383
-17.1121
-2.30148
-13.012
-13.3758
27.4043
31.241
-47.3663
-1.80741
32.8943
-33.3318
19.4551
-40.7459
-45.934
33.0707
2.45577
19.883
6.01828
-42.4808
31.3425
-40.1262
-13.3947
-40.3663
-71.537
28.2598
-31.6904
0.0947613
32.6677
-42.1988
33.4004
-15.2354
27.094
17.3274
-8.60997
-14.3263
27.5837
-46.58
32.7186
-3.68267
6.48037
0.177142
18.6138
-45.2871
33.0934
32.8856
-44.4146
21.8556
34.4527
34.2542
32.6635
32.6384
23.3635
33.6996
33.1974
-25.4653
27.4652
-33.0661
33.2283
-50.0973
29.507
32.6457
-42.3223
34.9561
34.949
30.4558
32.0086
28.0432
30.7009
23.9776
34.247
29.0812
-0.741288
-10.8263
-37.5654
22.3456
-46.5047
34.4993
1.55045
14.387
16.6655
-27.937
34.7071
3.447
-50.9237
32.5041
24.3754
34.9042
-31.4268
2.0124
27.8126
22.0459
-41.8214
-15.3313
69.706
34.2389
-30.7888
-26.2044
-2.31627
2.57501
34.7397
-4.08407
0.640519
-41.8266
-2.27026
2.63713
4.24892
-1.70751
14.9908
2.15805
6.52431
-0.323838
33.0153
0.121724
29.3955
12.9122
31.6246
33.6236
-42.1349
-60.7287
-12.6702
-0.170172
-4.06261
13.8576
26.0114
34.7971
-1.17874
-25.3459
33.5392
-46.1392
-40.0121
30.1015
33.7032
-49.0017
-61.3682
21.262
-21.6343
-3.18212
0.324795
-1.55295
0.706401
-29.7901
30.247
33.9941
-33.1989
-41.7279
28.7309
33.1788
-48.2764
3.57212
-35.8023
-11.0469
-11.0818
-1.39268
33.149
-67.0623
28.0376
-0.864842
21.773
28.6235
19.7465
3.50482
-37.2371
-35.6886
30.765
30.2909
-3.0242
-55.76
-2.80576
-33.8537
-26.8316
13.1528
-14.3693
-12.9864
14.1073
-43.432
30.9285
-48.7956
-41.2343
31.3148
33.3118
-2.21847
-0.821369
1.55675
-49.2653
12.7164
28.7864
-62.5199
30.4041
30.6387
3.41167
0.202386
30.6396
1.69707
-3.00127
32.5317
0.58382
-21.6437
-47.3118
33.9104
0.580261
-14.0844
-11.2367
-31.4653
29.4255
-32.5511
1.96331
-41.494
-37.3313
28.6093
-6.84173
34.5698
33.253
12.9851
32.0713
8.54983
-14.457
-6.82782
31.8918
27.0098
2.12669
-37.527
29.7146
33.4659
10.7459
-41.83
28.3661
9.66308
34.7981
34.2329
-32.4325
28.6083
-10.4217
22.8582
-4.52603
-50.1392
-28.1425
2.28262
29.3305
22.8507
33.3538
-25.8525
33.6561
19.1351
0.823494
-38.0159
-46.7775
30.8417
1.99124
31.8789
-13.159
0.115718
33.5102
33.2831
-23.2128
-20.6292
30.2084
34.1741
-6.22568
-19.4047
-42.8956
-22.3527
0.944912
32.4122
-57.7263
-17.2721
30.5446
-23.7882
-1.0267
33.1337
33.9284
-40.5084
31.0783
33.6245
2.45383
26.2929
34.3915
22.9634
-48.3233
31.0993
-37.6734
31.7013
-49.5375
-13.7755
-36.8346
2.00615
-15.7101
31.4396
-37.6475
-13.9797
21.4095
15.8632
-12.5264
1.31246
31.5563
-0.694067
3.77537
-14.8056
33.6813
30.2589
-38.9822
34.9538
-15.2394
-17.4611
-37.2813
-2.15888
25.9697
-47.4007
-36.3907
30.3888
-42.5654
-7.712
-17.8138
-21.4712
-48.245
-43.3061
-1.82925
-26.3763
1.95682
19.6123
9.0685
13.8135
-17.3895
28.474
33.6714
-30.388
26.2233
29.0594
-13.8722
0.00813655
-0.106073
16.6567
-13.4322
30.6452
-39.1187
-31.5294
-25.9526
31.7889
0.499646
16.9994
27.6798
10.862
-49.6758
24.3572
30.0034
30.3205
12.4572
0.44996
-9.38793
-2.67422
-36.0465
-36.124
33.0708
-43.7467
4.26555
-45.8295
25.0434
33.0043
27.5532
-43.9611
0.13008
-32.4613
1.30785
28.5275
-13.3961
32.2831
-36.7074
-0.0879475
-46.0908
-40.8498
33.4607
1.83869
-0.660889
-26.6591
-17.3416
11.7117
11.9935
8.30444
-12.7977
-6.26498
7.62106
29.7407
-29.2459
-33.8715
-1.86125
0.821053
-44.4459
34.1616
32.6959
33.5987
10.7179
29.3628
-6.83711
-30.698
25.6762
-1.78591
11.3483
30.2421
1.56016
14.4133
33.8743
-50.3731
-50.7109
3.39493
-13.0622
29.1766
-49.7365
19.3727
25.1676
32.2123
-2.12197
31.9849
29.4069
23.5544
-22.1537
-9.3906
-0.321582
-48.2329
-50.9597
32.2003
-60.8084
4.45219
2.76273
-45.9048
-31.0181
10.4447
1.96418
-41.9238
-1.12049
-36.3043
31.7156
-31.2633
2.02352
-45.9065
-0.0556719
32.886
-37.7948
33.5816
17.0765
25.4818
-48.4524
-1.14361
19.0923
-48.116
31.7541
-36.8398
-3.98178
-40.3362
-17.9679
1.34446
2.35875
24.1741
-15.0313
32.2643
4.06476
-25.4102
34.2338
34.3041
-38.7182
23.5395
-38.4749
33.8133
27.4066
33.0819
-2.17941
13.5333
-1.13194
1.5035
30.1592
2.13804
34.8893
-10.6979
-35.4067
1.45863
28.6792
34.1123
-37.1406
-5.31363
-26.7281
18.8936
-52.7999
-17.3548
-28.6037
-40.6108
-1.86528
0.845143
33.2053
20.6279
34.3398
29.6525
3.82777
34.8361
34.9154
32.8927
-37.0517
-16.6348
32.8879
-0.532934
4.46238
-56.5842
33.4981
1.26169
15.142
-38.4369
6.45022
-2.37113
-41.5408
2.0542
-26.6074
-57.9177
6.35013
32.1525
-1.61941
23.034
32.7933
1.41709
-8.69809
-1.28421
7.34561
-9.47255
-52.4263
-32.0878
27.601
29.3696
1.92146
-13.8799
-0.634677
-0.647712
-21.2377
14.8982
30.6168
16.5075
-43.6544
-2.86906
-109.937
-0.506724
-10.2917
33.0053
30.1059
-1.66013
31.6937
-17.4876
29.2846
-10.4856
-42.7106
-43.9294
31.3882
-24.7434
-15.0104
17.3421
8.05727
27.3585
-58.0186
-13.3492
29.036
0.119193
32.5604
-8.1188
-39.5386
-44.9467
-16.1671
-13.9754
-43.1429
-23.866
6.08247
34.3737
29.1905
-12.4081
7.35256
-3.33202
33.8416
-37.4045
-5.30657
-42.2563
-28.3816
25.9428
24.243
-48.3392
-11.1445
27.6852
-12.2075
-38.9227
-38.7161
0.209723
-43.2187
-15.762
34.1371
32.4845
30.5677
0.113459
-10.7378
-2.82293
1.74876
2.38282
31.0471
23.1995
20.4826
-37.873
0.665622
-43.797
15.5697
23.5981
1.95707
-38.5731
-4.19208
26.4397
-42.6962
23.7774
30.6363
28.5201
-2.12407
26.3503
-38.1638
10.2427
14.1346
31.9728
-39.9677
28.0087
16.0802
-15.3864
-13.9894
26.9793
-26.9049
-28.8916
30.8751
0.417617
-50.6022
15.3059
12.6141
-9.05626
-58.3942
26.8693
-0.424868
1.19826
-45.3466
29.9381
-48.6148
1.38825
-36.3587
-38.1918
33.7616
6.52062
33.5864
-29.9327
6.56182
29.3282
-2.04935
-50.3314
34.086
34.0224
34.6386
3.19291
1.99489
15.4295
-41.3321
-40.5928
-32.0398
0.323086
-14.3858
3.88945
12.7773
-39.7155
25.044
27.7164
28.0082
16.8944
33.3535
32.6238
-37.5228
0.00685305
34.292
-32.308
31.6937
1.15148
-41.6906
-4.3376
1.98101
4.4797
29.8323
-20.8225
-10.8196
26.3715
-54.7524
-4.7032
3.80044
16.3247
23.141
-11.7455
27.9145
2.61434
-3.12742
-13.7404
13.9227
-12.9852
-40.9047
33.2474
-16.5743
22.2405
-35.6763
28.3164
30.4534
32.3706
-40.4898
31.8766
1.66874
32.8125
-10.5734
-2.2626
-41.3782
30.0156
21.1451
25.7236
-8.22014
-44.0117
-35.8608
-0.41463
34.1248
2.73927
33.1899
-31.5357
33.2042
-2.0355
-45.3649
34.2537
-35.5533
33.1187
32.9915
-15.1144
-29.5381
23.731
0.625544
15.0992
34.9204
-1.37915
-48.2949
32.2824
-2.32811
-15.4488
10.6853
33.2676
33.6732
-31.4992
31.4343
32.6516
-10.2929
31.5616
27.0207
30.5855
31.2981
1.56173
-1.61593
-40.2612
-6.00718
-38.8825
32.9994
-0.808483
-36.8773
33.2247
-2.2776
30.064
25.2494
31.1483
31.0628
18.4371
-41.1714
-38.1731
30.8021
-33.1003
-21.2879
26.1202
33.868
-45.5447
-30.7039
-38.5942
-21.5088
-15.8937
28.5317
-9.88314
-18.2696
-31.1199
-0.44164
-40.5809
33.0397
12.6592
1.70934
-3.20573
-3.2068
31.5027
-2.11189
32.6853
-0.164179
31.7907
-7.40135
3.34947
-46.3816
33.7313
1.88265
31.4897
33.7563
-25.0798
27.0596
-17.8678
32.2719
-1.61923
30.3542
21.4526
2.9292
10.3907
34.4825
30.9578
-0.140301
2.31271
33.7328
2.32837
28.6957
-31.3624
-31.538
31.3351
-19.2652
18.8104
-100.842
-44.935
33.5166
-53.7445
-41.4551
2.31059
31.1342
-43.0732
-44.474
2.46817
26.4052
-1.20389
-7.25322
30.6221
-10.4838
-17.3582
6.32752
-13.8776
-62.0405
13.9523
-1.15855
25.0339
0.472696
10.4802
24.7293
-64.6478
24.6573
5.48187
-3.15682
-47.6633
26.8694
4.72159
7.88337
27.875
24.5466
33.6665
34.7276
-15.0235
-1.39806
-13.6575
2.63329
39.329
26.7193
-87.8048
29.524
-29.8722
1.10472
-50.7338
-0.330137
2.7463
11.6268
30.7685
31.6867
-48.1347
2.6421
-16.967
-1.91348
27.2522
-48.2243
0.949528
32.9989
1.3869
1.10946
5.79058
16.4224
-13.2177
-40.6065
-22.1801
2.97843
-2.63342
31.3927
32.4264
32.1378
-44.8415
27.6007
31.3204
2.88161
11.4046
-35.2478
32.4819
-14.2201
14.104
1.29043
34.1249
-2.04976
31.9497
32.1903
-7.64938
-12.1768
33.2154
-16.4535
21.8005
1.67029
-35.998
-40.78
33.1617
-2.86256
-17.8751
-35.3422
-20.3017
23.3232
-38.7318
1.95666
1.53407
0.316564
-19.6482
33.9728
-47.0191
0.244639
34.8609
-43.5483
29.7668
25.6965
-19.0919
14.1024
1.71593
20.5042
30.4624
31.2485
-1.03892
-40.5271
-2.35399
-16.8486
-17.0906
-44.226
21.6102
-39.873
-41.5203
8.90326
14.5456
2.25707
-1.66515
6.32621
-12.6575
-7.35179
0.963971
-44.0449
33.3938
-0.583663
31.493
-34.9024
3.53396
1.89543
-62.3609
31.439
-35.7654
-20.8094
23.5532
30.2917
-27.0116
20.2101
-40.0722
33.0507
32.6472
34.7958
25.8431
33.7727
31.804
-18.4931
33.7085
3.71744
33.3285
15.446
28.4472
-22.9034
29.3648
-32.9957
11.3405
34.4981
23.034
34.2954
33.3736
34.6
-28.1207
-3.82833
8.57864
2.0987
-20.3501
-39.3707
1.93397
-45.092
2.59584
15.4198
32.8993
30.9634
-43.4652
-22.7228
22.8399
-46.3379
-7.21173
34.5394
-2.81389
32.3633
-49.2541
0.775943
-15.9547
-4.19053
21.4192
32.2059
30.8647
25.3506
31.5587
-1.80274
21.1877
30.5593
-46.7151
5.90151
14.3474
29.3266
31.4846
-19.0311
32.048
-16.8403
-7.39588
-12.5824
1.21856
-8.95101
32.481
-41.5755
33.3063
29.7228
-26.7538
-30.0121
25.8108
1.44966
32.8996
1.24007
1.62754
-0.74877
16.0368
32.1445
28.6417
-38.4423
33.0745
32.6656
6.31791
3.49979
26.5307
26.6304
19.8716
33.1017
-22.4573
33.5617
-0.838894
33.7141
7.68957
7.34195
1.9318
-37.5701
-19.1507
28.787
-26.2807
-42.0509
-46.0018
2.01522
-40.1612
34.5441
33.8334
-0.335481
-9.5988
28.0761
32.731
-35.1126
31.898
-1.74651
-37.1832
3.08957
32.348
-16.3208
31.1436
13.6598
-12.3293
-0.662237
43.5761
-0.893655
-45.0969
18.2031
3.31358
16.3237
30.7052
-1.39547
-0.601982
-1.90004
16.0583
32.9166
-25.9223
-3.49833
31.6102
25.0827
34.0988
1.85167
34.4754
25.91
27.8123
-21.8937
33.673
-16.014
34.8269
-11.0365
30.828
32.2955
33.9253
-0.742578
26.0028
32.5849
31.9034
7.62458
0.810952
31.3787
23.9705
1.73473
-4.78653
-50.7253
0.913559
-37.1471
-45.3318
32.9796
33.574
-27.2285
24.6973
-31.7014
-52.1801
-25.8377
-13.3698
-35.959
34.7805
28.4327
-1.48642
33.8316
-5.61128
-0.816269
2.92493
-0.21417
1.89906
4.1768
-25.6974
-100.279
-31.4013
8.13087
-37.8244
29.1181
-3.71372
30.983
28.4087
-21.3936
27.1205
-43.4173
34.6849
24.7253
20.2514
-2.00241
2.23413
16.4976
21.3967
33.6459
32.8218
-44.0828
27.9065
30.9256
-9.0073
32.8815
33.3692
-1.13708
32.8032
-42.4146
4.05547
-18.584
14.8394
-18.3198
33.0214
-32.1605
-15.9469
7.0474
-33.0321
5.31213
-10.4806
1.1973
-18.6875
-40.3559
-25.6265
-0.641952
-1.44464
25.6427
32.4811
-38.2122
31.2369
-24.4733
33.305
32.1831
2.02411
33.6207
-1.26762
-33.1772
27.9866
-31.777
24.2363
-49.5411
-16.0649
33.5935
33.8507
-50.566
32.4904
-14.2891
34.6228
-38.7946
22.8508
-31.6132
33.922
12.0564
5.43035
-41.0622
-32.2187
1.70967
-0.122411
-6.96299
-5.50422
34.4046
-0.920183
33.0505
30.2897
31.8841
-43.2016
2.92399
-33.8318
30.4092
34.1809
32.1973
32.9078
-42.3672
-5.05119
1.62504
3.43628
-28.8577
2.90978
33.5273
31.3424
5.20224
-17.62
-35.9838
34.0543
33.0433
1.87961
31.2075
-27.066
8.71785
11.5494
34.2539
33.5292
-9.85389
26.5603
-1.45931
2.73107
34.64
7.32479
-19.6828
2.46187
32.5993
-9.88156
23.7491
-50.1417
16.2258
-28.0629
-40.5652
6.43356
3.43947
-9.85614
0.808749
30.7841
33.4186
32.4244
-1.11692
22.8853
-27.9183
8.40253
-13.1693
-16.8217
-0.314786
2.12642
14.6183
-11.7771
0.71045
28.8856
4.03753
-46.0708
-5.95263
-7.49425
-22.5226
23.2174
13.9085
21.3904
-48.2612
12.3565
-1.9194
32.4549
30.9392
-40.3042
0.0218021
34.7909
31.3384
-4.36337
32.1844
-28.2122
-26.5696
5.69206
26.4892
-9.29256
30.9013
-48.0455
-40.1176
11.0584
-30.3658
-1.51727
33.541
-1.83123
-23.4755
14.6268
31.2214
-27.8324
-38.239
16.6817
-13.8929
-0.801577
-32.9514
-10.6325
3.23256
-3.68613
34.1154
33.6552
25.1476
14.0077
29.398
-6.39454
1.55676
2.42129
-40.4554
-15.228
-36.2058
26.4182
33.6576
32.8134
-21.2156
17.2452
2.79981
-1.24174
29.4114
-26.6841
-38.8975
-14.5228
4.11056
-16.1145
20.4287
34.3539
33.1893
-25.6324
34.4216
-40.594
-0.705196
4.19894
-17.5077
33.8108
-41.0063
32.8581
34.6815
8.0528
-48.8495
-2.71041
31.6803
19.7979
20.0049
-1.62016
21.5041
17.7119
-37.6602
-32.9111
-1.00712
32.3834
-3.22182
33.5525
-42.9766
-1.68162
21.1551
-0.385413
29.3473
-26.3673
26.8763
-1.64425
29.502
33.7639
31.614
-38.4747
19.8948
-36.9296
3.58783
-14.4784
34.3241
-49.8681
-12.4304
-8.4869
-4.3164
33.6315
6.55466
-13.566
1.34127
-24.4643
1.91269
7.5892
-0.0297486
-3.16339
-16.5785
-13.2699
1.19644
-43.6826
-17.305
-26.168
-38.0229
-8.68094
-2.53998
34.3582
-6.4959
0.908989
-29.5456
-11.0287
-43.9475
21.8635
-12.2794
10.5231
-0.948436
-7.58354
-22.7073
20.4095
-36.0645
-12.5915
-11.2228
-26.8776
33.6661
-41.0268
3.47578
-0.307088
-43.1523
-11.8289
12.1333
18.4378
1.48551
-40.5263
5.66864
-30.6958
-40.4941
33.0122
-2.4188
34.4471
1.24172
-14.1449
31.3032
1.8178
34.4982
-30.0489
1.68806
32.8311
1.57841
13.6627
15.0689
3.99185
-23.8259
29.1113
-43.8116
-27.603
-48.2648
11.8314
32.9905
29.8042
-42.3063
-17.0618
2.04837
-58.2859
23.7717
-43.6506
13.017
-18.5117
0.253191
-2.66244
31.2888
-14.6363
31.1365
-28.5374
31.3179
-2.60103
1.95694
4.33098
22.5609
12.0502
-23.1018
-1.87955
-30.4941
32.0928
18.31
-16.1674
-38.4865
0.22074
27.8972
0.856436
1.87367
30.9266
-41.2348
-25.5342