/*--------------------------------*- C++ -*----------------------------------*\
| =========                 |                                                 |
| \\      /  F ield         | OpenFOAM: The Open Source CFD Toolbox           |
|  \\    /   O peration     | Version:  2.3.1                                 |
|   \\  /    A nd           | Web:      www.OpenFOAM.org                      |
|    \\/     M anipulation  |                                                 |
\*---------------------------------------------------------------------------*/
FoamFile
{
    version     2.0;
    format      ascii;
    class       volScalarField;
    location    "0.13";
    object      k;
}
// * * * * * * * * * * * * * * * * * * * * * * * * * * * * * * * * * * * * * //

dimensions      [0 2 -2 0 0 0 0];

internalField   nonuniform List<scalar> 
15166
(
1.0554
1.25177
1.58806
1.94336
2.21525
2.48583
2.67457
2.78043
2.80862
2.77358
2.68345
2.57166
1.0567
1.22022
1.58721
1.93258
2.20417
2.45606
2.62657
2.71816
2.73721
2.69835
2.61017
2.48987
1.06562
1.18655
1.56926
1.90913
2.18054
2.41784
2.57467
2.65554
2.66843
2.62707
2.5396
2.41637
1.077
1.1591
1.54597
1.88014
2.14951
2.37452
2.52063
2.59348
2.60214
2.55911
2.47138
2.34355
1.08929
1.13785
1.52159
1.8494
2.11492
2.32897
2.46616
2.53277
2.53842
2.49433
2.40648
2.27809
1.10251
1.12119
1.49712
1.81814
2.07863
2.28273
2.41226
2.47386
2.4773
2.4325
2.34448
2.21492
1.11663
1.10805
1.47309
1.7869
2.04151
2.23657
2.35943
2.41694
2.41868
2.37337
2.28487
2.15239
1.13145
1.09781
1.44994
1.75607
2.00423
2.19101
2.30798
2.36206
2.36249
2.31687
2.22827
2.09644
1.14675
1.08998
1.42799
1.72601
1.96731
2.1464
2.25808
2.30925
2.30865
2.26289
2.17446
2.04332
1.16235
1.0841
1.40732
1.69689
1.93108
2.103
2.20987
2.25849
2.25704
2.21132
2.12352
1.99475
1.17813
1.07986
1.38796
1.66877
1.89573
2.06093
2.16337
2.20972
2.2076
2.16212
2.0754
1.94989
1.19397
1.07693
1.36984
1.64172
1.86137
2.02024
2.11857
2.16289
2.16023
2.11521
2.03029
1.91025
1.2098
1.07509
1.35293
1.6157
1.82808
1.98095
2.07545
2.1179
2.11484
2.07048
1.9878
1.87341
1.22552
1.07417
1.33715
1.5907
1.79587
1.94305
2.03396
2.07469
2.07131
2.02772
1.94684
1.83297
1.24109
1.07397
1.32242
1.56672
1.76477
1.90652
1.99404
2.03318
2.02958
1.98688
1.90814
1.79876
1.25645
1.07437
1.30865
1.54371
1.73475
1.87132
1.95563
1.99329
1.98953
1.9478
1.87129
1.76561
1.27154
1.07523
1.29575
1.52163
1.7058
1.83741
1.91866
1.95493
1.95108
1.91037
1.83605
1.73343
1.28636
1.07648
1.28368
1.50047
1.6779
1.80474
1.88308
1.91804
1.91414
1.87449
1.80227
1.70234
1.30085
1.07804
1.27233
1.48016
1.651
1.77324
1.84881
1.88253
1.87863
1.84005
1.76997
1.6733
1.31498
1.07982
1.26168
1.46067
1.62507
1.74289
1.81579
1.84833
1.84445
1.80698
1.73901
1.64548
1.32873
1.08179
1.25163
1.44195
1.60007
1.71362
1.78395
1.81538
1.81155
1.77515
1.70915
1.61762
1.34211
1.08387
1.24213
1.42399
1.57597
1.68538
1.75325
1.78361
1.77985
1.74449
1.68027
1.59052
1.35508
1.08605
1.23314
1.40671
1.55272
1.65814
1.72364
1.75296
1.74928
1.71491
1.65227
1.56373
1.36764
1.0883
1.22462
1.3901
1.5303
1.63184
1.69505
1.72338
1.71977
1.68635
1.62515
1.53786
1.37976
1.09058
1.21652
1.37414
1.50867
1.60645
1.66744
1.69482
1.69128
1.65873
1.59887
1.51297
1.39144
1.09287
1.20879
1.35878
1.48779
1.58193
1.64077
1.66721
1.66373
1.63201
1.57344
1.48906
1.40269
1.09515
1.20141
1.34397
1.46763
1.55823
1.61498
1.64052
1.63709
1.60616
1.54888
1.46636
1.41351
1.09743
1.19437
1.32971
1.44815
1.53531
1.59005
1.6147
1.6113
1.58113
1.52518
1.44501
1.42386
1.09969
1.1876
1.31596
1.42933
1.51315
1.56592
1.58971
1.58634
1.55691
1.50232
1.42432
1.43379
1.10191
1.18112
1.30269
1.41114
1.49171
1.54256
1.56551
1.56216
1.53345
1.48016
1.4039
1.44325
1.10411
1.17485
1.28988
1.39355
1.47096
1.51994
1.54206
1.53872
1.51071
1.45872
1.3843
1.45226
1.10626
1.16883
1.27749
1.37653
1.45086
1.49803
1.51933
1.516
1.48867
1.43792
1.36513
1.4608
1.10837
1.16302
1.26553
1.36006
1.4314
1.47679
1.4973
1.49395
1.46728
1.41776
1.34673
1.46895
1.11043
1.1574
1.25395
1.34411
1.41254
1.4562
1.47592
1.47256
1.44653
1.3982
1.32874
1.47658
1.11245
1.15198
1.24275
1.32867
1.39426
1.43623
1.45517
1.45181
1.42639
1.37922
1.31143
1.48382
1.11444
1.14673
1.23189
1.3137
1.37653
1.41685
1.43503
1.43164
1.40682
1.36079
1.29448
1.49061
1.11638
1.14165
1.22138
1.29919
1.35933
1.39804
1.41547
1.41204
1.3878
1.34291
1.27837
1.49696
1.11828
1.13672
1.21117
1.28511
1.34264
1.37977
1.39646
1.393
1.36933
1.32556
1.26291
1.50289
1.12015
1.13194
1.20128
1.27146
1.32644
1.36202
1.37799
1.37448
1.35138
1.30871
1.2476
1.50839
1.12199
1.12731
1.19168
1.25822
1.31071
1.34478
1.36003
1.35648
1.33392
1.29239
1.23326
1.51341
1.1238
1.12281
1.18236
1.24536
1.29543
1.32802
1.34257
1.33896
1.31693
1.27636
1.21764
1.51798
1.12557
1.11843
1.17331
1.23287
1.28058
1.31173
1.32558
1.32192
1.30037
1.26064
1.20225
1.52209
1.12728
1.11419
1.16452
1.22075
1.26615
1.29588
1.30904
1.30532
1.28423
1.24533
1.18818
1.52577
1.12894
1.11008
1.15598
1.20897
1.25212
1.28047
1.29295
1.28915
1.26849
1.23039
1.17421
1.52903
1.1305
1.10609
1.14769
1.19752
1.23848
1.26547
1.27728
1.2734
1.25315
1.21584
1.16099
1.53186
1.13196
1.10222
1.13965
1.18639
1.22521
1.25087
1.26203
1.25805
1.23819
1.20163
1.14759
1.53429
1.13336
1.09847
1.13185
1.17556
1.21229
1.23666
1.24716
1.24308
1.2236
1.18782
1.13526
1.53631
1.13464
1.09484
1.12426
1.16501
1.19973
1.22282
1.23267
1.22849
1.20936
1.17434
1.12283
1.53794
1.13582
1.0913
1.11687
1.15475
1.18751
1.20934
1.21855
1.21425
1.19548
1.16122
1.11111
1.53918
1.13694
1.08787
1.10969
1.14477
1.1756
1.1962
1.20477
1.20036
1.18191
1.14838
1.09917
1.54004
1.13798
1.08451
1.10271
1.13507
1.164
1.18339
1.19133
1.18679
1.16866
1.13586
1.08789
1.54052
1.13899
1.08125
1.09591
1.12563
1.1527
1.1709
1.17821
1.17353
1.15571
1.12364
1.07692
1.54064
1.13992
1.07806
1.08929
1.11644
1.1417
1.15872
1.16541
1.16059
1.14306
1.11165
1.06562
1.54038
1.14082
1.07496
1.08285
1.10749
1.13098
1.14685
1.15292
1.14795
1.13069
1.09996
1.05515
1.53978
1.14167
1.07194
1.07657
1.09879
1.12053
1.13527
1.14073
1.13559
1.1186
1.08856
1.04506
1.53882
1.14245
1.06899
1.07046
1.0903
1.11034
1.12398
1.12882
1.12352
1.10679
1.07746
1.03538
1.53752
1.14317
1.06613
1.06451
1.08204
1.10042
1.11296
1.1172
1.11173
1.09525
1.06661
1.02559
1.53588
1.14388
1.06334
1.05871
1.07399
1.09074
1.10221
1.10585
1.10021
1.08397
1.05601
1.01614
1.5339
1.1445
1.06063
1.05307
1.06615
1.08131
1.09172
1.09477
1.08896
1.07294
1.04556
1.00601
1.53159
1.1451
1.058
1.04757
1.05851
1.07211
1.08149
1.08394
1.07795
1.06216
1.03535
0.996684
1.52895
1.14564
1.05545
1.04222
1.05106
1.06314
1.0715
1.07337
1.0672
1.0516
1.02538
0.987945
1.526
1.14616
1.05298
1.03701
1.0438
1.05439
1.06175
1.06304
1.05668
1.04128
1.01567
0.979501
1.52272
1.14661
1.05059
1.03194
1.03672
1.04586
1.05224
1.05295
1.0464
1.0312
1.00617
0.97093
1.51912
1.14704
1.04827
1.02701
1.02983
1.03754
1.04295
1.0431
1.03636
1.02133
0.996874
0.962612
1.51521
1.14743
1.04604
1.02222
1.02311
1.02943
1.03389
1.03348
1.02654
1.01169
0.987761
0.954167
1.51099
1.1478
1.04389
1.01756
1.01657
1.02152
1.02504
1.02408
1.01695
1.00226
0.978838
0.946069
1.50647
1.14813
1.04181
1.01304
1.0102
1.0138
1.01642
1.01491
1.00757
0.993025
0.970081
0.937904
1.50164
1.14842
1.03983
1.00865
1.004
1.00628
1.00799
1.00594
0.998402
0.983992
0.961507
0.930148
1.4965
1.1487
1.03793
1.0044
0.997963
0.998948
0.999773
0.997186
0.989444
0.975157
0.953114
0.922474
1.49108
1.14892
1.03612
1.00028
0.992089
0.9918
0.991753
0.988634
0.980684
0.966512
0.944907
0.915118
1.48535
1.14913
1.03439
0.9963
0.986375
0.984832
0.983927
0.980285
0.972125
0.958057
0.936861
0.907656
1.47934
1.14927
1.03274
0.992445
0.98082
0.978043
0.976292
0.972128
0.963757
0.949781
0.928976
0.900517
1.47303
1.14942
1.03118
0.988719
0.975422
0.971432
0.968845
0.964165
0.955578
0.94169
0.921274
0.893527
1.46642
1.14955
1.02975
0.985146
0.970188
0.964999
0.961587
0.956396
0.947589
0.933776
0.913728
0.886599
1.45952
1.14963
1.02836
0.981694
0.965103
0.958732
0.954507
0.948809
0.93978
0.926031
0.906337
0.87988
1.45237
1.14969
1.02708
0.978381
0.960175
0.952636
0.947608
0.941408
0.932154
0.91846
0.899091
0.873045
1.44492
1.14968
1.02589
0.975203
0.955406
0.946709
0.940886
0.934189
0.924707
0.911054
0.89198
0.866413
1.43718
1.14966
1.02479
0.972162
0.950791
0.940951
0.93434
0.927145
0.917435
0.903816
0.885012
0.859821
1.42915
1.14964
1.0238
0.969263
0.946333
0.935358
0.927967
0.920281
0.910337
0.896738
0.878186
0.853457
1.42086
1.14956
1.02291
0.966507
0.942031
0.929931
0.921767
0.913588
0.903411
0.889821
0.871492
0.84704
1.41228
1.14946
1.02212
0.963898
0.937887
0.92467
0.915736
0.907066
0.896646
0.883054
0.864939
0.84094
1.40342
1.14931
1.02141
0.96143
0.933901
0.919573
0.909871
0.900714
0.890046
0.876435
0.858525
0.835049
1.39429
1.14912
1.0208
0.959104
0.930072
0.914641
0.904178
0.894533
0.883615
0.869979
0.852265
0.829205
1.38489
1.14891
1.02031
0.956929
0.926408
0.909878
0.898656
0.888523
0.877351
0.863682
0.846141
0.823337
1.3752
1.14868
1.01993
0.954908
0.922907
0.905279
0.893298
0.882679
0.871246
0.857532
0.840149
0.817737
1.36525
1.14838
1.01964
0.953049
0.919569
0.900845
0.888108
0.876997
0.865303
0.851536
0.83429
0.812089
1.35503
1.14803
1.01946
0.951342
0.9164
0.896582
0.883086
0.871484
0.859518
0.845682
0.828558
0.806773
1.34453
1.14763
1.01938
0.949788
0.913405
0.892492
0.878235
0.866136
0.853894
0.839989
0.822978
0.801416
1.33375
1.14721
1.01941
0.948405
0.910582
0.888574
0.873555
0.860957
0.848433
0.834447
0.817532
0.796219
1.3227
1.14676
1.01957
0.947199
0.90794
0.884833
0.869045
0.855944
0.843133
0.829049
0.812188
0.790815
1.31137
1.14625
1.01982
0.946148
0.905473
0.881263
0.864705
0.851093
0.837985
0.823793
0.807003
0.786235
1.29977
1.14569
1.02019
0.945282
0.903197
0.877881
0.860543
0.846416
0.833013
0.818718
0.802016
0.781573
1.28791
1.14505
1.02067
0.944594
0.90111
0.874682
0.856559
0.841913
0.828202
0.813786
0.797156
0.77706
1.27576
1.14438
1.02127
0.944087
0.899216
0.871678
0.852759
0.837583
0.823557
0.809012
0.792445
0.772566
1.26335
1.14364
1.02198
0.943764
0.897526
0.868862
0.849142
0.833431
0.819078
0.804396
0.787872
0.768201
1.25066
1.1428
1.02279
0.943626
0.896033
0.866247
0.845713
0.829456
0.814773
0.799948
0.783448
0.763828
1.23771
1.14192
1.02374
0.943701
0.89476
0.863836
0.842479
0.825666
0.810638
0.795649
0.779145
0.759688
1.22445
1.14099
1.0248
0.943977
0.893706
0.861641
0.839444
0.822059
0.806679
0.791518
0.775002
0.755604
1.21093
1.13994
1.02599
0.944455
0.892883
0.859659
0.836612
0.818645
0.802899
0.787554
0.771006
0.751722
1.19713
1.13883
1.02729
0.945159
0.892295
0.85791
0.833992
0.815432
0.799309
0.783767
0.767176
0.747864
1.18305
1.13763
1.02872
0.946077
0.891945
0.856388
0.831588
0.812416
0.795898
0.780141
0.763483
0.744295
1.16867
1.13638
1.03027
0.94723
0.891856
0.855113
0.829409
0.809604
0.792678
0.776695
0.759968
0.740897
1.154
1.13504
1.03194
0.948613
0.892026
0.85409
0.827469
0.807017
0.789669
0.773452
0.756648
0.73757
1.13906
1.13359
1.03373
0.950228
0.89247
0.853335
0.825771
0.804652
0.786868
0.770399
0.753505
0.734453
1.12384
1.132
1.03566
0.952102
0.893193
0.852857
0.824325
0.802519
0.784276
0.767536
0.750542
0.73163
1.10832
1.13034
1.0377
0.954238
0.894219
0.852666
0.823144
0.800626
0.781907
0.764894
0.747798
0.728886
1.09251
1.12853
1.03988
0.956634
0.89555
0.852772
0.822245
0.798989
0.779767
0.762447
0.745214
0.726388
1.0764
1.12662
1.04217
0.959299
0.897207
0.853203
0.821638
0.797622
0.777876
0.760237
0.742857
0.724015
1.05998
1.12467
1.0446
0.962273
0.899206
0.853973
0.821347
0.796536
0.776242
0.758267
0.74072
0.72183
1.04326
1.12251
1.04717
0.965531
0.901566
0.855096
0.821386
0.795745
0.774876
0.756533
0.738781
0.719805
1.02622
1.12027
1.04988
0.969114
0.904314
0.856602
0.821774
0.795277
0.773802
0.755066
0.737099
0.718005
1.00887
1.11792
1.05272
0.97301
0.90745
0.858501
0.822533
0.795145
0.773031
0.753882
0.735685
0.716534
0.99123
1.11531
1.05568
0.97724
0.911005
0.860838
0.823688
0.795374
0.772596
0.753019
0.734605
0.715297
0.973261
1.11262
1.05879
0.98181
0.915
0.863616
0.825269
0.795978
0.772494
0.752442
0.733721
0.713961
0.954966
1.1098
1.06202
0.986759
0.919467
0.866874
0.827288
0.796982
0.772742
0.752163
0.733094
0.713051
0.936359
1.10674
1.0654
0.992068
0.924415
0.870633
0.829786
0.798416
0.773376
0.752247
0.732833
0.712536
0.917401
1.10358
1.06892
0.997788
0.929888
0.874958
0.832803
0.800324
0.774432
0.752702
0.73287
0.71229
0.898112
1.10014
1.07261
1.00391
0.935922
0.879866
0.836394
0.802749
0.77596
0.753588
0.73334
0.712541
0.878477
1.09652
1.07641
1.01049
0.942561
0.885415
0.840593
0.80573
0.777988
0.754937
0.734252
0.713269
0.858514
1.09278
1.08036
1.01751
0.949834
0.891652
0.845462
0.809328
0.78056
0.756785
0.735641
0.71429
0.838194
1.08878
1.08447
1.02502
0.957781
0.898633
0.851041
0.813574
0.783709
0.759107
0.737352
0.71528
0.817499
1.08452
1.08876
1.03305
0.966466
0.906425
0.857408
0.818532
0.787494
0.761995
0.739591
0.717073
0.796446
1.07997
1.0932
1.04162
0.975944
0.915104
0.864647
0.824302
0.792012
0.76556
0.742515
0.719641
0.775032
1.07534
1.0978
1.05079
0.986284
0.924745
0.87286
0.830957
0.79731
0.769797
0.745953
0.72251
0.753216
1.07031
1.10262
1.0606
0.99757
0.935471
0.882129
0.838602
0.803492
0.774809
0.750112
0.726005
0.731006
1.06499
1.10766
1.07113
1.0099
0.947389
0.8926
0.847351
0.810658
0.780667
0.754965
0.730137
0.708401
1.05957
1.11294
1.08245
1.02342
0.960662
0.904435
0.857379
0.818963
0.78753
0.760738
0.735154
0.685347
1.05371
1.11857
1.09469
1.03827
0.975476
0.917808
0.868845
0.828549
0.795523
0.76748
0.740825
0.661844
1.04764
1.12462
1.108
1.05468
0.992051
0.932954
0.881943
0.839565
0.804738
0.775286
0.747606
0.637822
1.04127
1.13125
1.12269
1.07292
1.0107
0.950131
0.896887
0.852193
0.8153
0.784187
0.755246
0.613266
1.03486
1.13886
1.13913
1.09345
1.03177
0.969672
0.913966
0.866666
0.827429
0.794484
0.76422
0.58804
1.02858
1.14804
1.15803
1.11684
1.05575
0.99194
0.933481
0.883197
0.841262
0.80615
0.774266
0.562035
1.02369
1.16005
1.1804
1.14377
1.0831
1.01724
0.955634
0.901992
0.856932
0.81927
0.785334
0.535082
1.02394
1.17831
1.20873
1.17562
1.11474
1.04636
0.981184
0.923621
0.874888
0.834089
0.797694
0.503332
1.02632
1.19585
1.23834
1.20696
1.14594
1.07526
1.00752
0.94593
0.893982
0.849912
0.811426
0.90149
0.00449581
0.279873
0.261742
0.260997
0.260146
0.252523
0.647727
0.699261
0.645001
0.472343
0.00712692
0.0279411
2.65283
0.223545
0.00352613
2.47566
0.0914764
0.0890439
0.00346849
0.117718
0.160316
0.119809
0.0236489
0.913539
0.279353
0.13774
0.299105
0.497439
0.688466
0.440987
1.15074
0.00408126
0.46429
0.0267302
0.127758
0.406878
0.384041
0.396506
0.00749196
0.0569087
0.00334595
0.0585129
0.413562
0.303399
0.156848
0.0512748
0.0207397
0.306562
0.11741
0.126735
0.635665
0.298273
0.0032146
1.71009
0.00427789
0.00908415
0.00334432
0.384701
0.214003
0.131461
1.17404
0.00320908
0.0143954
0.144341
0.00435189
0.71859
0.287553
1.52325
0.569557
1.61601
0.0456634
0.386175
0.595258
0.0240687
0.00329748
0.669071
0.00315548
0.0596181
0.245687
0.0850242
0.00315949
0.432002
0.329563
0.0138498
0.943898
0.71621
0.00319431
0.318958
0.269826
0.352435
0.541268
0.00319798
0.00382047
0.492895
0.00329064
0.288387
0.0105134
0.00317294
0.733964
0.927611
0.155973
0.00334071
0.004179
0.00315521
0.549438
0.47965
0.705924
0.434355
0.00729463
0.0854115
0.00315831
0.193935
0.00367563
0.00318268
0.20703
0.0171947
0.180927
0.922911
0.144542
0.845067
0.0249266
1.46333
0.154075
0.108192
1.09589
0.0039717
1.92874
0.0253951
0.00319994
0.236381
0.00323635
0.248285
0.00419141
0.140276
0.00487785
0.263879
0.490927
0.199677
0.00540742
0.0148906
0.134959
0.294577
0.017347
0.195696
1.6317
0.31874
0.00437395
0.831937
0.392725
0.0362096
0.20134
0.003169
0.0950628
0.124011
0.00317174
0.243901
0.0032797
1.08426
0.00658606
0.0232634
0.00355372
0.108223
0.0119609
0.121882
0.0689366
0.968564
0.327179
0.353785
0.00315638
1.62669
0.630356
1.71454
0.0156979
0.00316049
0.47177
0.00315491
0.338837
0.109136
0.601154
0.992064
0.367876
0.0540626
0.388622
0.00338923
0.258281
0.00322242
0.00316304
0.196945
0.00318584
0.399667
0.00318036
0.932223
0.00462835
0.280594
0.297514
0.26816
0.1544
0.00315852
2.77828
0.861913
0.341831
0.448882
0.210405
0.337643
0.0882935
0.0784714
0.188045
0.577973
0.181012
0.309107
0.75976
0.506092
0.431412
0.00316279
0.297964
0.0117011
0.345081
2.84429
0.241241
0.328942
0.863017
0.371481
0.00318789
0.00319594
1.1094
0.943493
0.00325702
3.77098
0.025573
0.30966
0.104547
0.00316494
0.775983
0.334482
0.267392
0.241246
0.912732
0.521149
0.322063
0.129154
0.130876
1.08082
1.44414
0.354322
0.301893
0.242649
0.0034643
1.20177
0.308296
0.536768
0.594519
0.308688
3.65377
0.2733
0.198602
0.159604
0.30922
0.474976
0.373217
0.180635
0.275147
0.0137352
0.0771567
0.676712
0.281225
0.78343
0.507637
0.288321
1.43729
0.227639
0.0425533
1.41776
0.215853
0.215395
1.46781
0.281784
0.264709
0.338036
0.231294
0.868239
0.277213
0.394913
0.343512
0.507399
0.269252
0.387139
0.213702
0.960944
0.113531
0.229165
1.437
0.230267
0.228873
0.310373
0.916209
0.0965907
0.213319
0.0559822
0.514888
0.171686
0.0782951
1.27811
1.76786
0.122606
0.80264
0.36019
0.00318792
0.159589
0.13618
0.174395
0.320018
0.00317857
1.02088
0.343772
0.0548587
0.228859
0.642767
0.00316168
0.614207
0.0315029
0.47622
0.341789
4.48912
0.525486
0.639429
0.441898
0.00316239
0.00322762
0.315731
0.357712
0.00318797
0.424028
0.00316559
0.00322402
0.00325779
0.00315493
0.116822
0.00316918
0.00563882
0.850217
0.514979
0.00322893
0.333441
0.00852331
0.202849
0.292855
1.09154
3.68437
0.389648
0.00315566
0.00326866
0.0693643
0.106535
0.211627
0.00316049
0.0848982
0.351831
0.74258
0.307896
0.20205
0.308742
0.875227
3.62372
0.124992
0.264868
0.00365429
0.00318482
0.12494
0.188371
0.0958348
0.196608
0.52729
2.70903
1.45939
0.123609
0.346563
0.860058
0.00320246
0.342079
0.606116
0.00505245
0.00324168
0.524798
3.53961
0.736096
0.00317928
0.0394796
0.136482
0.0214524
0.00324663
0.708472
0.311751
0.310951
0.309299
0.00373905
3.37907
0.00317128
0.19458
0.446853
0.00600299
0.0101044
0.788624
0.00803033
1.21298
0.744345
0.981838
0.541104
0.189581
0.698202
0.0031609
0.00318928
0.0031735
0.888393
0.0640761
1.24955
2.6154
0.153894
0.59258
0.00322573
0.00827565
0.288097
0.00315781
0.00318298
0.704319
0.00318005
0.18949
0.774908
0.399857
0.00315689
0.00688094
0.0950832
0.0965945
0.238815
0.119357
0.00315534
2.96642
0.711705
0.091899
0.0109169
0.364346
0.204805
0.00646493
0.282204
0.00623423
0.694255
0.00350499
0.245718
0.106353
0.00315636
1.09969
0.240348
0.317363
0.0086621
0.384686
0.133965
0.00500189
0.223652
0.520457
0.291079
1.10483
0.0204343
0.0412258
0.0100575
1.13125
0.563552
0.0511661
0.118044
0.140154
0.330072
0.153769
0.54146
1.08523
0.00316158
1.76061
0.775695
0.221671
0.0031577
0.302677
0.794021
0.0226575
0.460974
0.368529
0.211675
0.108999
0.20054
0.260394
0.00357145
0.0164266
0.744419
0.0328584
0.00434886
0.918485
3.63471
0.0330368
0.228561
0.661088
0.067728
0.495083
0.292898
0.716471
0.319047
0.326959
0.00329989
0.0695621
0.482946
0.378654
1.14621
0.244969
1.20546
0.929643
3.33579
0.72874
0.253367
0.00317047
1.10573
0.211563
0.677711
0.336392
0.126359
0.0675412
0.344301
0.00332407
0.317141
0.00317802
0.388203
0.340928
0.218869
0.198375
1.07331
0.24535
0.857889
0.531695
1.70435
0.00327839
0.0999762
0.79113
2.258
0.186481
0.5934
0.00356947
0.0239325
0.284366
1.59553
0.486868
0.0031572
0.0488972
0.00315518
0.0493573
0.370741
0.0323191
0.700931
0.122286
0.610259
0.127414
0.100583
1.21818
0.703288
0.00319474
0.00319601
0.248131
1.04299
0.309792
0.493083
0.371521
0.555183
0.301592
0.00315629
0.14698
0.267295
0.00468099
0.899271
0.280477
0.20108
0.309001
0.0106641
0.0031578
0.02008
0.0031677
0.536184
0.682302
0.728677
0.526189
0.0032102
1.27213
0.0740243
0.752179
0.110896
1.50024
0.00447316
0.129352
0.00317186
0.49829
0.705756
0.340573
0.335542
0.0031553
1.11138
0.679402
0.521421
0.00319861
0.047001
0.684703
0.509368
0.00563194
2.13503
0.00367561
0.648083
0.496237
0.00358616
0.113486
0.073751
0.167914
0.003157
0.00319852
0.977906
0.456289
0.334539
0.540259
0.00466134
0.112926
0.0838118
0.649158
0.202952
0.00389352
0.156573
1.19191
0.00315628
0.00739203
0.322227
0.692316
0.960094
0.00318102
0.724345
0.255989
1.12772
0.023517
0.142994
0.818823
0.00319922
0.206702
0.118534
0.372789
0.310977
0.582508
0.213829
1.03923
1.01314
0.27878
2.57142
0.00323976
0.00316583
1.28872
0.662811
0.00455495
0.00316392
0.386936
0.00320625
0.699639
0.540013
0.203728
0.00319295
0.675575
0.0331918
0.326409
1.02382
0.267086
0.123062
0.118621
1.15849
0.00319225
0.249027
0.83076
0.267584
0.457542
0.00624454
0.437804
0.216622
2.01342
0.00315841
0.121437
0.565284
0.302732
0.00336151
0.0817408
0.37886
0.475242
1.07116
0.0482367
1.61719
0.428165
0.0760318
0.407615
0.00316037
0.00667827
0.284281
0.0031569
0.199641
0.00316962
0.249295
0.00981645
0.713665
0.00332152
0.0939429
0.524001
1.36954
0.285621
0.557322
0.13305
2.11825
0.0139209
0.0793912
0.469609
0.00315822
0.00320578
0.383106
0.126646
0.253042
0.390609
0.00332884
0.21968
0.223951
0.207213
0.404856
0.982937
0.207799
0.00319641
1.86707
2.31294
0.517246
0.00323831
0.00934717
1.81781
0.297894
0.00317083
1.09653
0.00315898
0.0665357
2.38774
0.00350066
0.288236
0.00316118
0.045914
0.758632
0.00324367
0.00393838
0.0031838
0.00377313
0.0190846
3.3879
0.681983
0.0768164
0.245969
0.00316831
0.626201
0.00317391
0.217214
0.19323
0.0191918
0.145876
0.0117334
0.971892
0.00323343
4.08172
0.166596
0.512393
0.327685
0.148618
0.00315502
0.219617
0.956224
0.115399
0.604665
0.755463
1.46546
0.348088
0.0357741
0.51758
0.0688121
0.00394417
0.0865133
2.34959
0.966287
0.0986561
0.00399439
0.33154
0.00368651
0.361771
0.738364
0.943964
0.690141
0.765269
0.0318199
0.00566967
0.363488
0.259764
0.0418496
0.310972
0.00318828
0.263806
1.69438
0.00331071
1.46155
0.660892
0.103
0.0840707
1.25273
0.0208187
0.0824448
0.369963
0.253286
0.24
0.00322313
0.5584
0.0659663
0.269557
0.382048
0.205803
0.170446
0.00647004
0.546951
0.00317508
0.00316747
0.2236
0.0870431
0.122642
1.65313
0.00315719
0.963429
0.0544514
0.046955
0.00348062
1.47599
0.290533
0.0746477
0.658341
0.0490536
1.14482
0.13648
0.0031609
1.19158
1.81323
0.00508446
0.00776917
0.210324
0.881696
0.0814924
1.3185
0.029485
0.193465
0.0846658
0.12887
0.567462
0.209088
0.00318739
1.01176
0.366693
0.0124469
0.164745
3.81354
0.308207
0.00317663
0.00317133
0.636948
0.211104
0.860556
0.00315912
0.597429
0.241565
0.429918
0.00375817
0.310086
0.656688
0.00500436
0.292008
0.00321325
0.963745
0.236632
0.381657
0.290543
0.00317288
0.00315939
0.334459
1.19561
0.314587
0.614244
0.00315889
0.0394679
0.00324787
0.005811
0.98264
0.0608308
0.0793719
0.100782
0.362759
0.301054
0.356176
1.01914
0.00317336
0.340657
0.614025
0.279722
0.00319234
0.788423
0.00322131
0.00316988
0.0731563
0.243394
0.0214977
1.27485
0.232618
2.43716
0.00327876
0.00473493
0.0305896
0.903868
0.248042
0.963062
0.00317488
0.00317975
0.00591267
0.00765331
0.92421
0.679366
0.653085
0.106452
0.0370358
0.257414
0.155319
0.578671
0.272485
0.75138
0.309883
0.00315693
0.310803
0.00514632
0.156382
0.760099
0.210667
0.197534
0.105926
0.00373626
1.14478
0.425289
0.380266
0.351214
0.00317029
0.594096
0.643185
0.326845
0.00706548
0.777662
0.508333
0.713008
0.316927
0.339394
0.577297
0.101617
0.838087
0.189038
0.0787968
0.241704
0.00318038
1.03719
0.864631
0.00317142
0.566494
0.00460422
0.562488
0.211042
0.196069
0.301703
0.731914
0.7738
0.257601
0.104974
0.190994
0.212734
0.010803
0.00318029
0.874726
0.0524332
0.797977
0.55458
0.172083
0.7098
0.569269
0.00316339
0.307952
1.51668
1.04953
0.221923
0.254102
0.468739
1.63503
0.197478
0.193819
0.0213537
0.0686643
0.577037
1.01393
0.0929523
0.71619
0.684918
0.648883
0.244257
0.190836
0.344479
0.578143
0.0031913
1.68432
0.675956
0.154253
0.00319101
0.475253
0.379209
0.319413
0.00323766
0.591582
0.00317319
0.238107
0.0781663
0.00319871
0.68707
0.366826
0.00315493
0.531612
0.400957
0.503058
0.276154
0.543448
0.280946
0.557742
0.183318
0.121215
0.00317448
0.00450184
0.381256
0.161434
0.0144707
0.00330318
0.375144
0.00554282
0.0981977
0.0988731
0.363216
0.199041
0.049766
0.0852976
0.591746
1.41508
0.364178
3.69271
0.741481
0.00315811
0.541088
0.484381
1.4519
0.00315985
0.157325
0.00318825
0.00354613
0.310862
0.235331
0.0327279
0.00340694
0.659826
3.43022
0.00676925
0.00317787
0.119483
0.207664
0.0194709
0.0608827
3.54476
0.111993
0.00340681
0.00318693
0.828023
0.300838
0.110485
0.0505828
0.65422
1.13267
0.409653
0.251566
0.56166
0.00317527
0.407714
0.00316916
0.235254
0.304571
4.87107
0.165551
0.0755546
0.00371903
1.01994
0.00319422
0.00316351
0.00542913
0.268691
0.320905
0.827507
0.00316423
0.41349
0.00317679
0.666508
0.827747
0.00320474
0.742188
0.182159
0.0031738
0.00331376
0.024492
0.924802
0.312655
0.0226208
0.00318099
0.00317493
0.844983
0.686026
0.325099
0.628672
0.0947639
0.438479
0.0031661
0.00951177
0.312009
0.807617
0.622812
0.00798606
0.00317674
0.430009
0.00326257
0.211439
0.808115
0.2844
0.0358607
0.207072
0.412389
0.128693
0.00317219
0.42282
1.12948
0.660097
0.00594952
0.0268118
0.575072
3.57408
0.04451
0.305083
0.00315505
0.00317663
0.00320922
0.0165446
0.428965
0.90989
0.00733964
0.22506
0.522877
1.21581
0.200136
0.0170323
0.00719106
0.00718212
0.125517
0.18756
0.270299
0.00322347
1.13925
0.00316357
0.0122514
0.698785
0.720902
0.0295895
0.30379
0.382181
0.00399693
0.117317
0.18566
0.00316356
0.00377346
0.942966
0.00361354
0.00322474
0.751295
0.267561
2.07376
0.201134
2.22415
0.00360825
0.00319332
3.01736
0.320514
0.183946
0.42218
0.0497953
0.266439
0.164924
1.00343
0.688519
0.591474
0.583693
0.237282
0.0998283
0.358693
0.726028
0.0128878
0.372441
0.0039536
0.445989
0.338709
0.0897698
0.311811
0.177512
0.342826
0.155101
0.291237
1.02351
0.492533
0.243745
0.347076
0.595085
0.260659
0.00407007
0.0031657
0.0957942
1.92186
0.00316666
1.54589
0.00318474
0.00872189
0.322673
0.227053
0.690879
0.679136
0.881778
0.965517
0.422449
0.424209
0.00317852
0.287234
0.902256
0.00323916
1.07731
0.00660886
1.68159
0.934993
1.119
0.297492
0.213508
0.226447
0.0817526
0.309799
1.05354
0.378851
0.662762
0.155346
0.211141
0.0737798
0.235219
0.887845
0.00852754
0.545017
0.00319418
0.00384603
0.305714
1.29787
0.336314
0.295088
0.139308
0.0918602
0.0984848
0.0035858
0.34058
0.00359131
0.697926
0.00346415
0.0490394
0.936926
0.157293
0.249817
0.325344
0.298847
0.00569988
0.00321661
0.0810125
0.28879
0.0956886
0.532396
0.0356055
0.386286
0.185246
0.396547
0.772564
0.00355354
0.00316019
1.43889
0.190807
0.157651
0.682243
0.571441
0.682675
0.00864708
1.44534
0.364094
0.21627
0.00342915
0.164665
0.402706
0.21337
0.170204
0.266492
0.00329835
0.386002
0.0031756
0.606366
0.0096572
0.440048
0.0989894
0.330342
0.00324325
6.0447
0.00319254
1.2983
0.0198524
0.00318367
0.0121099
0.288525
0.00317323
0.00318042
0.314682
0.0251518
0.339716
0.0481082
0.00336338
0.250294
0.172961
0.472498
0.0033156
0.225288
0.183321
1.34361
0.590964
0.412392
0.469841
0.217419
0.248421
0.755465
0.816904
0.215925
0.0032241
0.11906
0.362136
0.329622
0.00462309
0.0070574
0.267441
1.55651
0.00318484
0.169524
1.064
0.00316206
0.723519
0.802086
0.343704
0.614694
0.671615
0.272195
0.109177
2.26414
0.334384
0.722186
0.697991
0.239295
0.0875185
0.00317002
0.443002
0.00557247
0.00321782
0.00316754
0.320305
0.00316971
0.00376693
0.440792
3.832
0.341007
0.157362
0.708715
0.242897
0.0031956
0.180542
1.13968
0.0218123
0.146542
0.855534
0.342448
0.102072
0.0262556
0.00316065
0.00317301
0.0235665
0.0360336
0.339752
0.334241
1.04825
0.291959
0.278754
0.00387912
0.482495
0.24159
0.0032118
0.342343
2.99827
0.00324482
0.293945
1.00755
0.615439
0.675467
0.155113
0.923659
0.00352177
0.17161
0.00330996
0.00601982
0.00320961
0.692904
0.467078
0.0614461
0.003193
0.00315672
1.1137
0.38581
0.236123
0.268672
0.28793
0.441504
0.303114
0.30133
0.383803
0.00317851
0.126085
0.0999245
0.112365
0.381155
0.906366
0.634194
0.621137
0.396164
0.959803
0.832158
0.78394
0.453899
0.733671
0.0533469
0.698836
0.412557
0.0224659
0.986619
0.727727
0.364431
0.00319886
0.00320051
0.00355845
0.00434842
0.507245
0.00315784
0.512611
0.178996
0.987781
0.635716
0.00317931
0.387009
0.308504
0.198272
0.272637
0.392324
0.453772
0.00327702
0.00319931
0.00800336
0.0831253
0.0031686
0.655586
0.271777
0.18841
0.631232
0.421165
0.46888
0.547994
0.00317101
0.316909
0.556931
0.00374452
0.0668458
0.444562
0.313659
0.436426
0.186236
0.00324475
0.421468
0.396197
0.00376096
0.0176973
0.00316637
0.196258
0.00425209
0.114688
1.10927
0.102333
0.0616905
0.854329
1.79648
0.00325868
0.511701
0.00316654
0.219988
0.358671
0.282306
0.381393
0.687935
0.563893
0.782908
1.04949
0.618622
0.00317846
0.00315936
0.0451447
0.0873234
0.507765
0.163952
0.00322661
1.3725
0.206722
0.0076659
0.659455
0.0485371
0.00732795
0.0324757
0.857045
0.00593186
0.00319491
0.293471
0.21328
0.530104
0.0809803
0.243248
0.194371
0.00323376
0.287817
0.0766166
0.0504925
0.00338776
0.231746
0.433772
0.162566
1.25099
1.13152
0.329206
0.347367
0.0031681
0.387529
0.00326344
2.39876
0.00896275
0.430388
0.0802578
0.714705
0.0133011
0.00858563
0.183233
0.251414
1.25529
0.00361513
0.17261
0.506134
0.638113
0.172072
0.991144
0.102391
0.00341876
0.00320504
0.447241
0.525757
0.989705
0.236243
0.0692277
0.543379
0.353049
0.682959
0.0378877
0.00317629
0.00318343
0.101975
0.696525
0.570218
0.811259
0.00357248
0.00991349
0.129216
0.488854
0.30357
0.638683
0.378817
0.75111
0.00319872
0.00323904
0.983684
0.277192
0.756879
2.65921
0.394121
0.0217399
1.21806
0.00323513
1.01286
0.0221829
0.0244798
0.003174
0.0334493
0.069043
0.712057
0.672592
0.00322672
0.760257
0.00319528
0.629785
1.34374
0.00315965
0.126084
0.00322652
0.292305
0.108851
0.159183
0.00316421
0.274576
0.216189
0.257636
0.855938
0.130455
1.03181
0.166999
0.683973
0.265833
0.956121
0.522431
0.0037704
0.00322523
0.396694
0.158198
0.666594
0.00317778
1.8377
0.00316517
0.00468514
0.0271064
0.00318426
1.04708
0.803948
0.00324378
0.549027
0.211448
0.0843583
0.59151
0.00579331
0.00317417
0.460124
0.309282
0.0080391
0.655795
6.05423
1.15715
0.119962
1.0268
0.0851562
0.00318547
0.0036255
0.0296733
0.128738
0.718202
0.917339
1.21938