/*--------------------------------*- C++ -*----------------------------------*\
| =========                 |                                                 |
| \\      /  F ield         | OpenFOAM: The Open Source CFD Toolbox           |
|  \\    /   O peration     | Version:  2.3.1                                 |
|   \\  /    A nd           | Web:      www.OpenFOAM.org                      |
|    \\/     M anipulation  |                                                 |
\*---------------------------------------------------------------------------*/
FoamFile
{
    version     2.0;
    format      ascii;
    class       surfaceScalarField;
    location    "0.13";
    object      phi;
}
// * * * * * * * * * * * * * * * * * * * * * * * * * * * * * * * * * * * * * //

dimensions      [0 3 -1 0 0 0 0];

internalField   nonuniform List<scalar> 
23326
(
-1.26829e-05
0.000113746
-0.000101063
-2.17142e-05
0.000128844
-0.000119813
-2.73781e-05
0.000142758
-0.000137094
-3.10412e-05
0.000157856
-0.000154193
-3.41606e-05
0.000169999
-0.00016688
-3.63704e-05
0.000181811
-0.000179602
-3.7899e-05
0.000191916
-0.000190388
-3.87023e-05
0.000200114
-0.000199311
-3.91354e-05
0.000206251
-0.000205818
-3.92402e-05
0.000210943
-0.000210838
-3.92085e-05
0.00021442
-0.000214451
0.00021692
-3.91057e-05
-0.000217023
-7.03274e-06
0.000120779
-1.38714e-05
0.000135683
-1.99696e-05
0.000148856
-2.45047e-05
0.000162391
-2.82128e-05
0.000173707
-3.09577e-05
0.000184556
-3.28927e-05
0.000193851
-3.41892e-05
0.00020141
-3.50238e-05
0.000207086
-3.55313e-05
0.00021145
-3.58077e-05
0.000214696
0.000217064
-3.59523e-05
-5.66732e-06
0.000126446
-1.10153e-05
0.000141031
-1.60726e-05
0.000153913
-2.02272e-05
0.000166546
-2.3807e-05
0.000177287
-2.66135e-05
0.000187363
-2.87116e-05
0.000195949
-3.022e-05
0.000202919
-3.1336e-05
0.000208202
-3.21214e-05
0.000212236
-3.26488e-05
0.000215223
0.000217488
-3.30729e-05
-4.76839e-06
0.000131215
-9.3773e-06
0.00014564
-1.37022e-05
0.000158238
-1.73587e-05
0.000170202
-2.05941e-05
0.000180522
-2.32339e-05
0.000190003
-2.53419e-05
0.000198057
-2.69337e-05
0.00020451
-2.81561e-05
0.000209424
-2.91125e-05
0.000213192
-2.984e-05
0.000215951
0.000218105
-3.04569e-05
-3.89678e-06
0.000135111
-7.96606e-06
0.000149709
-1.18069e-05
0.000162079
-1.51167e-05
0.000173512
-1.80475e-05
0.000183453
-2.05362e-05
0.000192491
-2.25393e-05
0.00020006
-2.41323e-05
0.000206104
-2.54398e-05
0.000210731
-2.64373e-05
0.00021419
-2.7305e-05
0.000216818
0.000218808
-2.80077e-05
-3.23752e-06
0.000138349
-6.82635e-06
0.000153298
-1.02522e-05
0.000165505
-1.32635e-05
0.000176523
-1.59906e-05
0.00018618
-1.82665e-05
0.000194767
-2.01761e-05
0.00020197
-2.17639e-05
0.000207691
-2.30346e-05
0.000212002
-2.41084e-05
0.000215264
-2.50145e-05
0.000217725
0.000219595
-2.58017e-05
-2.78044e-06
0.000141129
-5.96472e-06
0.000156483
-9.0294e-06
0.00016857
-1.17849e-05
0.000179279
-1.42428e-05
0.000188638
-1.6385e-05
0.000196909
-1.8191e-05
0.000203776
-1.96885e-05
0.000209189
-2.09721e-05
0.000213286
-2.20681e-05
0.00021636
-2.30307e-05
0.000218687
0.000220458
-2.38932e-05
-2.43953e-06
0.000143569
-5.29796e-06
0.000159341
-8.05381e-06
0.000171326
-1.05287e-05
0.000181754
-1.28011e-05
0.000190911
-1.47876e-05
0.000198896
-1.64922e-05
0.000205481
-1.79192e-05
0.000210616
-1.91814e-05
0.000214548
-2.02814e-05
0.00021746
-2.12397e-05
0.000219645
0.000221314
-2.20953e-05
-2.16852e-06
0.000145737
-4.76039e-06
0.000161933
-7.259e-06
0.000173824
-9.54354e-06
0.000184038
-1.1614e-05
0.000192981
-1.343e-05
0.000200712
-1.50285e-05
0.000207079
-1.64253e-05
0.000212013
-1.76216e-05
0.000215744
-1.86863e-05
0.000218524
-1.9642e-05
0.000220601
0.000222234
-2.05622e-05
-1.94012e-06
0.000147678
-4.29842e-06
0.000164291
-6.58384e-06
0.00017611
-8.67581e-06
0.00018613
-1.06049e-05
0.00019491
-1.22955e-05
0.000202403
-1.37728e-05
0.000208557
-1.507e-05
0.00021331
-1.6249e-05
0.000216923
-1.72915e-05
0.000219567
-1.82416e-05
0.000221551
0.000223098
-1.91057e-05
-1.75052e-06
0.000149428
-3.91726e-06
0.000166458
-6.01236e-06
0.000178205
-7.94384e-06
0.000188062
-9.71193e-06
0.000196678
-1.12829e-05
0.000203974
-1.26743e-05
0.000209948
-1.39063e-05
0.000214542
-1.50183e-05
0.000218035
-1.60288e-05
0.000220577
-1.69932e-05
0.000222515
0.000223938
-1.78335e-05
-1.58349e-06
0.000151012
-3.57368e-06
0.000168448
-5.50437e-06
0.000180135
-7.31951e-06
0.000189877
-8.93554e-06
0.000198294
-1.04059e-05
0.000205444
-1.17113e-05
0.000211254
-1.28805e-05
0.000215711
-1.39417e-05
0.000219096
-1.49194e-05
0.000221555
-1.57909e-05
0.000223387
0.000224782
-1.6635e-05
-1.443e-06
0.000152455
-3.27741e-06
0.000170282
-5.07443e-06
0.000181932
-6.7443e-06
0.000191547
-8.27646e-06
0.000199826
-9.65011e-06
0.000206818
-1.08549e-05
0.000212458
-1.19678e-05
0.000216824
-1.29587e-05
0.000220087
-1.38891e-05
0.000222485
-1.47451e-05
0.000224243
0.000225514
-1.54768e-05
-1.32196e-06
0.000153777
-3.04178e-06
0.000172002
-4.69896e-06
0.00018359
-6.24044e-06
0.000193088
-7.67006e-06
0.000201256
-8.93504e-06
0.000208083
-1.01003e-05
0.000213624
-1.11307e-05
0.000217854
-1.21055e-05
0.000221062
-1.30244e-05
0.000223404
-1.38787e-05
0.000225097
0.000226388
-1.47521e-05
-1.20987e-06
0.000154986
-2.79485e-06
0.000173587
-4.36598e-06
0.000185161
-5.81002e-06
0.000194532
-7.12754e-06
0.000202574
-8.34207e-06
0.000209297
-9.41642e-06
0.000214698
-1.04261e-05
0.000218864
-1.13068e-05
0.000221943
-1.21525e-05
0.00022425
-1.29647e-05
0.000225909
0.000227108
-1.36852e-05
-1.11245e-06
0.000156099
-2.5955e-06
0.00017507
-4.05121e-06
0.000186616
-5.40045e-06
0.000195882
-6.6413e-06
0.000203814
-7.76174e-06
0.000210418
-8.78109e-06
0.000215717
-9.7093e-06
0.000219792
-1.06059e-05
0.000222839
-1.14475e-05
0.000225092
-1.22177e-05
0.00022668
0.000227819
-1.2929e-05
-1.02564e-06
0.000157124
-2.39675e-06
0.000176441
-3.75865e-06
0.000187978
-5.03468e-06
0.000197158
-6.19977e-06
0.000204979
-7.25754e-06
0.000211475
-8.22059e-06
0.00021668
-9.13759e-06
0.000220709
-9.96424e-06
0.000223666
-1.07255e-05
0.000225853
-1.14698e-05
0.000227424
0.000228527
-1.21772e-05
-9.35195e-07
0.00015806
-2.23048e-06
0.000177737
-3.52023e-06
0.000189268
-4.72137e-06
0.000198359
-5.82134e-06
0.000206079
-6.82557e-06
0.00021248
-7.73671e-06
0.000217592
-8.52981e-06
0.000221502
-9.32692e-06
0.000224463
-1.00802e-05
0.000226606
-1.07987e-05
0.000228143
0.000229214
-1.14855e-05
-8.67062e-07
0.000158927
-2.08448e-06
0.000178954
-3.27651e-06
0.00019046
-4.4111e-06
0.000199493
-5.42581e-06
0.000207094
-6.37319e-06
0.000213427
-7.21856e-06
0.000218437
-8.05105e-06
0.000222335
-8.78325e-06
0.000225195
-9.50478e-06
0.000227328
-1.01701e-05
0.000228808
0.000229877
-1.08335e-05
-8.05038e-07
0.000159732
-1.92894e-06
0.000180078
-3.07742e-06
0.000191609
-4.12761e-06
0.000200543
-5.115e-06
0.000208082
-5.98846e-06
0.0002143
-6.81436e-06
0.000219263
-7.5566e-06
0.000223077
-8.28202e-06
0.000225921
-8.91778e-06
0.000227963
-9.57482e-06
0.000229465
0.000230474
-1.01718e-05
-7.48598e-07
0.00016048
-1.80581e-06
0.000181135
-2.87051e-06
0.000192673
-3.86756e-06
0.000201541
-4.77287e-06
0.000208987
-5.62649e-06
0.000215154
-6.38658e-06
0.000220023
-7.0969e-06
0.000223787
-7.76436e-06
0.000226588
-8.42649e-06
0.000228626
-9.0296e-06
0.000230068
0.000231072
-9.62793e-06
-6.71735e-07
0.000161152
-1.66939e-06
0.000182133
-2.6807e-06
0.000193685
-3.64444e-06
0.000202504
-4.5063e-06
0.000209849
-5.27002e-06
0.000215918
-5.99375e-06
0.000220747
-6.66958e-06
0.000224463
-7.33752e-06
0.000227256
-7.95241e-06
0.00022924
-8.55064e-06
0.000230666
0.000231638
-9.11652e-06
-6.30239e-07
0.000161782
-1.56812e-06
0.000183071
-2.52396e-06
0.00019464
-3.39377e-06
0.000203374
-4.21419e-06
0.000210669
-4.95901e-06
0.000216663
-5.65183e-06
0.000221439
-6.2952e-06
0.000225107
-6.90934e-06
0.00022787
-7.50108e-06
0.000229832
-8.06493e-06
0.00023123
0.000232186
-8.61289e-06
-5.69309e-07
0.000162352
-1.45157e-06
0.000183953
-2.3572e-06
0.000195546
-3.18174e-06
0.000204199
-3.9585e-06
0.000211446
-4.67009e-06
0.000217374
-5.32797e-06
0.000222097
-5.94568e-06
0.000225724
-6.5094e-06
0.000228434
-7.04518e-06
0.000230368
-7.59826e-06
0.000231783
0.000232722
-8.1345e-06
-5.24696e-07
0.000162876
-1.33869e-06
0.000184767
-2.19881e-06
0.000196406
-3.00631e-06
0.000205006
-3.72005e-06
0.00021216
-4.39765e-06
0.000218052
-4.99856e-06
0.000222698
-5.56469e-06
0.00022629
-6.12582e-06
0.000228995
-6.67248e-06
0.000230915
-7.17039e-06
0.000232281
0.000233243
-7.69097e-06
-4.92815e-07
0.000163369
-1.25707e-06
0.000185531
-2.05068e-06
0.0001972
-2.81881e-06
0.000205774
-3.49689e-06
0.000212838
-4.11619e-06
0.000218671
-4.68828e-06
0.00022327
-5.25044e-06
0.000226853
-5.76627e-06
0.000229511
-6.25985e-06
0.000231408
-6.77635e-06
0.000232798
0.00023372
-7.25337e-06
-4.35727e-07
0.000163805
-1.15577e-06
0.000186251
-1.90792e-06
0.000197952
-2.61354e-06
0.00020648
-3.28294e-06
0.000213507
-3.87183e-06
0.00021926
-4.41679e-06
0.000223815
-4.92959e-06
0.000227365
-5.41938e-06
0.000230001
-5.91938e-06
0.000231908
-6.34819e-06
0.000233226
0.000234169
-6.7969e-06
-3.85716e-07
0.00016419
-1.08658e-06
0.000186952
-1.79798e-06
0.000198663
-2.44639e-06
0.000207128
-3.05581e-06
0.000214116
-3.61801e-06
0.000219822
-4.16131e-06
0.000224359
-4.62347e-06
0.000227827
-5.092e-06
0.000230469
-5.54623e-06
0.000232362
-6.01687e-06
0.000233697
0.000234568
-6.4157e-06
-3.59098e-07
0.00016455
-9.92663e-07
0.000187586
-1.6475e-06
0.000199318
-2.30749e-06
0.000207788
-2.86607e-06
0.000214675
-3.39652e-06
0.000220353
-3.86413e-06
0.000224826
-4.36097e-06
0.000228324
-4.77986e-06
0.000230888
-5.21901e-06
0.000232802
-5.61988e-06
0.000234098
0.000235025
-6.07698e-06
-3.03594e-07
0.000164853
-8.84541e-07
0.000188166
-1.54808e-06
0.000199982
-2.12909e-06
0.000208369
-2.68224e-06
0.000215228
-3.16271e-06
0.000220833
-3.63381e-06
0.000225297
-4.05019e-06
0.000228741
-4.4814e-06
0.000231319
-4.8688e-06
0.000233189
-5.30521e-06
0.000234534
0.0002354
-5.68048e-06
-2.81526e-07
0.000165135
-8.45302e-07
0.00018873
-1.40634e-06
0.000200543
-1.98202e-06
0.000208945
-2.47996e-06
0.000215726
-2.96197e-06
0.000221315
-3.38561e-06
0.000225721
-3.81087e-06
0.000229166
-4.19095e-06
0.0002317
-4.59097e-06
0.000233589
-4.93094e-06
0.000234874
0.000235787
-5.31813e-06
-2.47836e-07
0.000165382
-7.45721e-07
0.000189228
-1.31995e-06
0.000201117
-1.8157e-06
0.000209441
-2.31492e-06
0.000216225
-2.74639e-06
0.000221747
-3.17111e-06
0.000226146
-3.52152e-06
0.000229516
-3.91481e-06
0.000232093
-4.26867e-06
0.000233943
-4.63948e-06
0.000235245
0.000236094
-4.94622e-06
-2.19403e-07
0.000165602
-6.67695e-07
0.000189676
-1.18718e-06
0.000201636
-1.70536e-06
0.000209959
-2.15367e-06
0.000216674
-2.56227e-06
0.000222155
-2.91389e-06
0.000226497
-3.30027e-06
0.000229903
-3.64486e-06
0.000232437
-3.98436e-06
0.000234282
-4.32072e-06
0.000235582
0.000236428
-4.65412e-06
-1.5992e-07
0.000165762
-6.17585e-07
0.000190134
-1.10808e-06
0.000202127
-1.54948e-06
0.0002104
-1.97314e-06
0.000217097
-2.35924e-06
0.000222541
-2.71776e-06
0.000226856
-3.05638e-06
0.000230241
-3.38567e-06
0.000232767
-3.68056e-06
0.000234577
-3.99869e-06
0.0002359
0.000236769
-4.34033e-06
-1.6932e-07
0.000165931
-5.47246e-07
0.000190512
-9.83488e-07
0.000202563
-1.44893e-06
0.000210866
-1.82167e-06
0.00021747
-2.15959e-06
0.000222879
-2.4981e-06
0.000227194
-2.82133e-06
0.000230565
-3.10319e-06
0.000233049
-3.40961e-06
0.000234884
-3.71563e-06
0.000236206
0.000237048
-3.99415e-06
-1.0599e-07
0.000166037
-4.79097e-07
0.000190885
-9.10797e-07
0.000202995
-1.27487e-06
0.00021123
-1.6519e-06
0.000217847
-1.99533e-06
0.000223223
-2.31278e-06
0.000227512
-2.58797e-06
0.00023084
-2.85295e-06
0.000233314
-3.13882e-06
0.00023517
-3.38776e-06
0.000236455
0.000237329
-3.66889e-06
-8.95125e-08
0.000166127
-4.09006e-07
0.000191205
-7.92186e-07
0.000203378
-1.18159e-06
0.000211619
-1.51086e-06
0.000218176
-1.80728e-06
0.000223519
-2.07987e-06
0.000227784
-2.33553e-06
0.000231095
-2.61291e-06
0.000233591
-2.88196e-06
0.000235439
-3.11976e-06
0.000236692
0.000237551
-3.34127e-06
-6.0264e-08
0.000166187
-3.47694e-07
0.000191492
-7.00777e-07
0.000203731
-1.04198e-06
0.00021196
-1.34952e-06
0.000218484
-1.65182e-06
0.000223821
-1.90814e-06
0.000228041
-2.14934e-06
0.000231337
-2.3816e-06
0.000233823
-2.61214e-06
0.000235669
-2.84116e-06
0.000236921
0.000237776
-3.06664e-06
-2.28482e-08
0.00016621
-2.83932e-07
0.000191753
-6.13243e-07
0.00020406
-9.31372e-07
0.000212278
-1.21828e-06
0.000218771
-1.44926e-06
0.000224052
-1.71299e-06
0.000228304
-1.93879e-06
0.000231562
-2.15921e-06
0.000234044
-2.35243e-06
0.000235862
-2.58862e-06
0.000237158
0.000238044
-2.85685e-06
3.10515e-09
0.000166207
-2.26791e-07
0.000191983
-5.29565e-07
0.000204363
-8.23569e-07
0.000212572
-1.09022e-06
0.000219037
-1.32968e-06
0.000224292
-1.5226e-06
0.000228497
-1.70373e-06
0.000231744
-1.90543e-06
0.000234245
-2.10154e-06
0.000236059
-2.27906e-06
0.000237335
0.000238198
-2.43309e-06
1.23813e-08
0.000166194
-1.70558e-07
0.000192166
-4.4623e-07
0.000204639
-6.92805e-07
0.000212819
-9.389e-07
0.000219284
-1.13167e-06
0.000224484
-1.33452e-06
0.0002287
-1.52723e-06
0.000231936
-1.68771e-06
0.000234406
-1.8779e-06
0.000236249
-2.04877e-06
0.000237506
0.000238406
-2.25592e-06
4.39127e-08
0.00016615
-1.08585e-07
0.000192318
-3.35954e-07
0.000204866
-5.88745e-07
0.000213072
-7.88717e-07
0.000219484
-9.92641e-07
0.000224688
-1.15084e-06
0.000228858
-1.2996e-06
0.000232085
-1.47426e-06
0.00023458
-1.61797e-06
0.000236392
-1.78991e-06
0.000237678
0.00023855
-1.93391e-06
6.71589e-08
0.000166083
-7.72907e-08
0.000192463
-2.83098e-07
0.000205072
-4.86917e-07
0.000213276
-6.69036e-07
0.000219666
-8.2711e-07
0.000224846
-9.70094e-07
0.000229001
-1.13243e-06
0.000232247
-1.26277e-06
0.000234711
-1.39398e-06
0.000236524
-1.52904e-06
0.000237813
0.000238689
-1.66846e-06
1.00161e-07
0.000165983
2.70853e-09
0.00019256
-1.76585e-07
0.000205251
-3.59695e-07
0.000213459
-5.23859e-07
0.00021983
-6.65069e-07
0.000224988
-7.92063e-07
0.000229128
-9.11268e-07
0.000232367
-1.02788e-06
0.000234827
-1.14468e-06
0.00023664
-1.26009e-06
0.000237928
0.000238801
-1.37183e-06
1.23601e-07
0.000165859
5.51994e-08
0.000192629
-9.45763e-08
0.000205401
-2.60151e-07
0.000213624
-4.07716e-07
0.000219977
-5.06665e-07
0.000225087
-6.17541e-07
0.000229239
-7.21962e-07
0.000232471
-8.24818e-07
0.00023493
-9.29329e-07
0.000236745
-1.04096e-06
0.00023804
0.000238929
-1.16888e-06
1.28769e-07
0.000165731
1.04259e-07
0.000192653
-2.39978e-08
0.000205529
-1.4114e-07
0.000213741
-2.69479e-07
0.000220106
-3.77578e-07
0.000225195
-4.73301e-07
0.000229335
-5.34948e-07
0.000232533
-6.2267e-07
0.000235018
-6.83137e-07
0.000236805
-7.67979e-07
0.000238125
0.000238974
-8.13177e-07
1.75782e-07
0.000165555
1.51528e-07
0.000192678
7.28314e-08
0.000205608
-5.33136e-08
0.000213868
-1.34733e-07
0.000220187
-2.24032e-07
0.000225284
-2.76358e-07
0.000229387
-3.51192e-07
0.000232607
-3.9772e-07
0.000235065
-4.75733e-07
0.000236883
-5.34488e-07
0.000238184
0.000239079
-6.39222e-07
1.83767e-07
0.000165371
2.03722e-07
0.000192658
1.2062e-07
0.000205691
3.78634e-08
0.00021395
-2.06004e-08
0.000220246
-7.10088e-08
0.000225334
-1.3695e-07
0.000229453
-1.69648e-07
0.00023264
-2.02435e-07
0.000235097
-2.37284e-07
0.000236918
-3.00961e-07
0.000238247
0.000239106
-3.27818e-07
2.07579e-07
0.000165164
2.26235e-07
0.000192639
2.12484e-07
0.000205705
1.56706e-07
0.000214006
8.27691e-08
0.00022032
5.02799e-08
0.000225367
5.56257e-08
0.000229448
9.27771e-09
0.000232687
-9.84017e-09
0.000235116
-3.27629e-08
0.000236941
-6.41133e-08
0.000238279
0.000239155
-1.135e-07
2.32016e-07
0.000164932
3.01192e-07
0.00019257
2.82786e-07
0.000205723
2.43696e-07
0.000214045
2.40897e-07
0.000220322
1.97561e-07
0.00022541
1.90343e-07
0.000229455
2.13931e-07
0.000232663
2.0886e-07
0.000235122
1.7277e-07
0.000236977
1.94261e-07
0.000238257
0.000239151
1.98565e-07
2.38098e-07
0.000164693
3.49339e-07
0.000192459
3.51122e-07
0.000205721
3.3104e-07
0.000214065
3.17821e-07
0.000220336
3.43579e-07
0.000225385
3.50448e-07
0.000229448
3.59576e-07
0.000232654
3.94907e-07
0.000235086
4.25317e-07
0.000236947
4.19332e-07
0.000238263
0.000239161
4.09051e-07
2.8285e-07
0.000164411
3.96134e-07
0.000192345
4.43687e-07
0.000205674
4.43366e-07
0.000214066
4.73344e-07
0.000220306
4.87995e-07
0.00022537
5.36971e-07
0.000229399
5.59263e-07
0.000232632
5.77466e-07
0.000235068
5.87927e-07
0.000236937
6.12408e-07
0.000238239
0.000239194
5.79155e-07
2.85325e-07
0.000164125
4.42657e-07
0.000192188
4.86547e-07
0.00020563
5.29364e-07
0.000214023
5.75874e-07
0.000220259
6.32718e-07
0.000225313
6.68188e-07
0.000229364
7.32535e-07
0.000232567
7.65637e-07
0.000235035
8.22269e-07
0.00023688
8.76211e-07
0.000238185
0.000239137
9.33639e-07
3.13224e-07
0.000163812
4.90895e-07
0.00019201
5.78918e-07
0.000205542
6.40736e-07
0.000213961
6.76938e-07
0.000220223
7.49108e-07
0.000225241
8.27099e-07
0.000229286
9.05974e-07
0.000232488
9.8104e-07
0.00023496
1.05094e-06
0.00023681
1.08413e-06
0.000238152
0.000239092
1.12892e-06
3.36302e-07
0.000163476
5.36549e-07
0.00019181
6.46636e-07
0.000205432
7.25779e-07
0.000213882
8.05232e-07
0.000220143
8.92956e-07
0.000225153
9.85482e-07
0.000229193
1.07737e-06
0.000232396
1.16644e-06
0.000234871
1.248e-06
0.000236728
1.32479e-06
0.000238075
0.000239012
1.40544e-06
3.61199e-07
0.000163115
5.83761e-07
0.000191587
7.13095e-07
0.000205303
8.10902e-07
0.000213784
9.33261e-07
0.000220021
1.03532e-06
0.000225051
1.14198e-06
0.000229087
1.24771e-06
0.000232291
1.37574e-06
0.000234743
1.46806e-06
0.000236636
1.54891e-06
0.000237994
0.000238948
1.61263e-06
3.63434e-07
0.000162751
6.29098e-07
0.000191322
7.79703e-07
0.000205152
9.21734e-07
0.000213642
1.03334e-06
0.000219909
1.15092e-06
0.000224933
1.29923e-06
0.000228938
1.44632e-06
0.000232144
1.53161e-06
0.000234657
1.66536e-06
0.000236502
1.76528e-06
0.000237894
0.00023881
1.90319e-06
4.09901e-07
0.000162341
6.74995e-07
0.000191057
8.71245e-07
0.000204956
1.0064e-06
0.000213507
1.13534e-06
0.000219781
1.32238e-06
0.000224746
1.45775e-06
0.000228803
1.58953e-06
0.000232012
1.74354e-06
0.000234503
1.85809e-06
0.000236388
2.00633e-06
0.000237746
0.000238771
2.04574e-06
4.13101e-07
0.000161928
7.23182e-07
0.000190747
9.39447e-07
0.000204739
1.11739e-06
0.000213329
1.28964e-06
0.000219608
1.41144e-06
0.000224625
1.58781e-06
0.000228627
1.7644e-06
0.000231835
1.93326e-06
0.000234335
2.09767e-06
0.000236223
2.23582e-06
0.000237608
0.000238592
2.41424e-06
4.38017e-07
0.00016149
7.46258e-07
0.000190438
9.81583e-07
0.000204504
1.17784e-06
0.000213133
1.36587e-06
0.00021942
1.5836e-06
0.000224407
1.77628e-06
0.000228434
1.96557e-06
0.000231646
2.15143e-06
0.000234149
2.32584e-06
0.000236049
2.48787e-06
0.000237446
0.000238444
2.63616e-06
4.49215e-07
0.000161041
8.18771e-07
0.000190069
1.0751e-06
0.000204248
1.28989e-06
0.000212918
1.49605e-06
0.000219214
1.70058e-06
0.000224202
1.90703e-06
0.000228227
2.11045e-06
0.000231443
2.33386e-06
0.000233925
2.52141e-06
0.000235862
2.69962e-06
0.000237268
0.000238264
2.87975e-06
4.91158e-07
0.00016055
8.65629e-07
0.000189694
1.14378e-06
0.00020397
1.40279e-06
0.000212659
1.6228e-06
0.000218994
1.84381e-06
0.000223981
2.09175e-06
0.000227979
2.30815e-06
0.000231226
2.48836e-06
0.000233745
2.71357e-06
0.000235636
2.89299e-06
0.000237088
0.000238084
3.0735e-06
4.96193e-07
0.000160054
9.13264e-07
0.000189277
1.21016e-06
0.000203673
1.46223e-06
0.000212407
1.72595e-06
0.00021873
1.98872e-06
0.000223719
2.22172e-06
0.000227746
2.47918e-06
0.000230969
2.72856e-06
0.000233496
2.91181e-06
0.000235453
3.14517e-06
0.000236855
0.000237872
3.35688e-06
5.21911e-07
0.000159532
9.36262e-07
0.000188863
1.30584e-06
0.000203303
1.57522e-06
0.000212137
1.85603e-06
0.00021845
2.1056e-06
0.000223469
2.38337e-06
0.000227469
2.62665e-06
0.000230725
2.88668e-06
0.000233236
3.1358e-06
0.000235204
3.36603e-06
0.000236625
0.000237701
3.53688e-06
5.30539e-07
0.000159001
1.00957e-06
0.000188384
1.34933e-06
0.000202963
1.66337e-06
0.000211823
1.96074e-06
0.000218152
2.25392e-06
0.000223176
2.54478e-06
0.000227178
2.82788e-06
0.000230442
3.07743e-06
0.000232986
3.3683e-06
0.000234913
3.59757e-06
0.000236395
0.000237419
3.8795e-06
5.58797e-07
0.000158442
1.0372e-06
0.000187906
1.41946e-06
0.000202581
1.77981e-06
0.000211463
2.06601e-06
0.000217866
2.40344e-06
0.000222838
2.67978e-06
0.000226902
2.97282e-06
0.000230149
3.30393e-06
0.000232655
3.54836e-06
0.000234669
3.82927e-06
0.000236114
0.000237226
4.02277e-06
5.93665e-07
0.000157849
1.08826e-06
0.000187411
1.51207e-06
0.000202157
1.85123e-06
0.000211124
2.20225e-06
0.000217515
2.51878e-06
0.000222522
2.85367e-06
0.000226567
3.19444e-06
0.000229808
3.47608e-06
0.000232373
3.78728e-06
0.000234357
4.06987e-06
0.000235832
0.000236911
4.38419e-06
6.00623e-07
0.000157248
1.12497e-06
0.000186887
1.57083e-06
0.000201712
1.9451e-06
0.00021075
2.31292e-06
0.000217147
2.65097e-06
0.000222184
3.01168e-06
0.000226206
3.33689e-06
0.000229483
3.6791e-06
0.000232031
4.00846e-06
0.000234028
4.28899e-06
0.000235551
0.000236644
4.55694e-06
6.22986e-07
0.000156625
1.18417e-06
0.000186325
1.63392e-06
0.000201262
2.0696e-06
0.000210314
2.4375e-06
0.000216779
2.81428e-06
0.000221807
3.16711e-06
0.000225853
3.55733e-06
0.000229093
3.8581e-06
0.00023173
4.20283e-06
0.000233683
4.53731e-06
0.000235217
0.000236302
4.8785e-06
6.44113e-07
0.000155981
1.22964e-06
0.00018574
1.71851e-06
0.000200773
2.12859e-06
0.000209904
2.53263e-06
0.000216375
2.95602e-06
0.000221384
3.31854e-06
0.000225491
3.70072e-06
0.000228711
4.07063e-06
0.000231361
4.42756e-06
0.000233327
4.76005e-06
0.000234884
0.000236025
5.03719e-06
6.82625e-07
0.000155298
1.26791e-06
0.000185155
1.80545e-06
0.000200235
2.25692e-06
0.000209452
2.65687e-06
0.000215975
3.07005e-06
0.000220971
3.49976e-06
0.000225061
3.89657e-06
0.000228314
4.2809e-06
0.000230976
4.65332e-06
0.000232954
5.01587e-06
0.000234522
0.000235656
5.38522e-06
6.62091e-07
0.000154636
1.3324e-06
0.000184484
1.86656e-06
0.000199701
2.33866e-06
0.00020898
2.8059e-06
0.000215508
3.20881e-06
0.000220568
3.65617e-06
0.000224614
4.06716e-06
0.000227903
4.49129e-06
0.000230552
4.84902e-06
0.000232596
5.24303e-06
0.000234128
0.000235316
5.58325e-06
7.33057e-07
0.000153903
1.34386e-06
0.000183873
1.90221e-06
0.000199143
2.41915e-06
0.000208463
2.90512e-06
0.000215022
3.37651e-06
0.000220096
3.81196e-06
0.000224178
4.23649e-06
0.000227479
4.67507e-06
0.000230114
5.09623e-06
0.000232175
5.47111e-06
0.000233753
0.000234966
5.82122e-06
7.20266e-07
0.000153183
1.46057e-06
0.000183133
2.04126e-06
0.000198562
2.57966e-06
0.000207925
3.05849e-06
0.000214543
3.54671e-06
0.000219608
3.99763e-06
0.000223727
4.46427e-06
0.000227012
4.89015e-06
0.000229688
5.32876e-06
0.000231737
5.7269e-06
0.000233355
0.000234516
6.17671e-06
7.42456e-07
0.000152441
1.45431e-06
0.000182421
2.07666e-06
0.00019794
2.60848e-06
0.000207393
3.15894e-06
0.000213993
3.63688e-06
0.00021913
4.15629e-06
0.000223208
4.61037e-06
0.000226558
5.0773e-06
0.000229221
5.49935e-06
0.000231315
5.92515e-06
0.000232929
0.000234135
6.30666e-06
8.01008e-07
0.00015164
1.52245e-06
0.0001817
2.16982e-06
0.000197293
2.74744e-06
0.000206816
3.25875e-06
0.000213481
3.81021e-06
0.000218579
4.29216e-06
0.000222726
4.78821e-06
0.000226062
5.29737e-06
0.000228712
5.76391e-06
0.000230848
6.24902e-06
0.000232444
0.000233706
6.67772e-06
7.9918e-07
0.00015084
1.56011e-06
0.000180939
2.23031e-06
0.000196622
2.86018e-06
0.000206186
3.41978e-06
0.000212922
3.95419e-06
0.000218044
4.51084e-06
0.000222169
5.02239e-06
0.00022555
5.49108e-06
0.000228243
5.9681e-06
0.000230371
6.42032e-06
0.000231992
0.000233272
6.85424e-06
7.9307e-07
0.000150047
1.60481e-06
0.000180127
2.32115e-06
0.000195906
2.94286e-06
0.000205564
3.54722e-06
0.000212318
4.1101e-06
0.000217481
4.6459e-06
0.000221633
5.17294e-06
0.000225023
5.71691e-06
0.000227699
6.23777e-06
0.00022985
6.7173e-06
0.000231512
0.00023279
7.1991e-06
8.56416e-07
0.000149191
1.67053e-06
0.000179313
2.38934e-06
0.000195187
3.05757e-06
0.000204896
3.65612e-06
0.000211719
4.2571e-06
0.00021688
4.81524e-06
0.000221075
5.41874e-06
0.00022442
5.91235e-06
0.000227205
6.45297e-06
0.00022931
6.96072e-06
0.000231004
0.000232362
7.38897e-06
8.67426e-07
0.000148323
1.7103e-06
0.00017847
2.48401e-06
0.000194413
3.14059e-06
0.000204239
3.7931e-06
0.000211066
4.4123e-06
0.000216261
4.98739e-06
0.0002205
5.5747e-06
0.000223832
6.17986e-06
0.0002266
6.70017e-06
0.000228789
7.21657e-06
0.000230488
0.000231787
7.79157e-06
8.8403e-07
0.000147439
1.79064e-06
0.000177564
2.54659e-06
0.000193658
3.26773e-06
0.000203518
3.93225e-06
0.000210402
4.56978e-06
0.000215624
5.18807e-06
0.000219882
5.76498e-06
0.000223256
6.37865e-06
0.000225987
6.95454e-06
0.000228213
7.50234e-06
0.00022994
0.000231313
7.97619e-06
9.14805e-07
0.000146525
1.80627e-06
0.000176672
2.6526e-06
0.000192811
3.38776e-06
0.000202783
4.09798e-06
0.000209692
4.69205e-06
0.00021503
5.36379e-06
0.00021921
5.98213e-06
0.000222637
6.58147e-06
0.000225387
7.15837e-06
0.000227637
7.70748e-06
0.000229391
0.000230733
8.28761e-06
9.33261e-07
0.000145591
1.85316e-06
0.000175752
2.71456e-06
0.00019195
3.47249e-06
0.000202025
4.17858e-06
0.000208986
4.88959e-06
0.000214319
5.54287e-06
0.000218557
6.20376e-06
0.000221976
6.79155e-06
0.000224799
7.41087e-06
0.000227017
7.97769e-06
0.000228824
0.000230207
8.50422e-06
9.58867e-07
0.000144633
1.92366e-06
0.000174788
2.7888e-06
0.000191085
3.59458e-06
0.000201219
4.33553e-06
0.000208245
5.05509e-06
0.000213599
5.75282e-06
0.000217859
6.40564e-06
0.000221323
7.06591e-06
0.000224139
7.65346e-06
0.00022643
8.31891e-06
0.000228159
0.00022961
8.91567e-06
9.87029e-07
0.000143645
1.97467e-06
0.0001738
2.86512e-06
0.000190194
3.7331e-06
0.000200351
4.46937e-06
0.000207508
5.18393e-06
0.000212884
5.93982e-06
0.000217103
6.60998e-06
0.000220653
7.25973e-06
0.000223489
7.94013e-06
0.000225749
8.53736e-06
0.000227562
0.000229069
9.07838e-06
1.01932e-06
0.000142626
2.0327e-06
0.000172786
3.00416e-06
0.000189223
3.79736e-06
0.000199558
4.59335e-06
0.000206712
5.39324e-06
0.000212085
6.0628e-06
0.000216434
6.84345e-06
0.000219873
7.53665e-06
0.000222796
8.22212e-06
0.000225064
8.8372e-06
0.000226947
0.000228404
9.50167e-06
1.03746e-06
0.000141589
2.08745e-06
0.000171737
3.06835e-06
0.000188242
3.92477e-06
0.000198702
4.78472e-06
0.000205852
5.52525e-06
0.000211344
6.32058e-06
0.000215638
7.02668e-06
0.000219167
7.73511e-06
0.000222088
8.41894e-06
0.00022438
9.06611e-06
0.0002263
0.000227781
9.68952e-06
1.06161e-06
0.000140527
2.13823e-06
0.00017066
3.12501e-06
0.000187255
4.0948e-06
0.000197732
4.89767e-06
0.00020505
5.74176e-06
0.0002105
6.51627e-06
0.000214864
7.22482e-06
0.000218458
7.99421e-06
0.000221318
8.6983e-06
0.000223676
9.42118e-06
0.000225577
0.000227167
1.00353e-05
1.08508e-06
0.000139442
2.19398e-06
0.000169551
3.22903e-06
0.00018622
4.16267e-06
0.000196798
5.07175e-06
0.000204141
5.92144e-06
0.00020965
6.71644e-06
0.000214069
7.4861e-06
0.000217688
8.23361e-06
0.000220571
8.9843e-06
0.000222925
9.68268e-06
0.000224878
0.000226472
1.03777e-05
1.11129e-06
0.000138331
2.28773e-06
0.000168375
3.34744e-06
0.00018516
4.31543e-06
0.00019583
5.23206e-06
0.000203224
6.07901e-06
0.000208803
6.91956e-06
0.000213228
7.75211e-06
0.000216856
8.54291e-06
0.00021978
9.28255e-06
0.000222186
1.00258e-05
0.000224135
0.000225755
1.07424e-05
1.13646e-06
0.000137194
2.30627e-06
0.000167205
3.39901e-06
0.000184068
4.40958e-06
0.00019482
5.32663e-06
0.000202307
6.26459e-06
0.000207865
7.09933e-06
0.000212394
7.93121e-06
0.000216024
8.73549e-06
0.000218976
9.48076e-06
0.00022144
1.02022e-05
0.000223414
0.000225125
1.08325e-05
1.15905e-06
0.000136035
2.36292e-06
0.000166001
3.532e-06
0.000182899
4.56904e-06
0.000193783
5.536e-06
0.00020134
6.42941e-06
0.000206972
7.31076e-06
0.000211512
8.18916e-06
0.000215146
9.03538e-06
0.00021813
9.83634e-06
0.000220639
1.05975e-05
0.000222653
0.000224308
1.14151e-05
1.22037e-06
0.000134815
2.45641e-06
0.000164765
3.62162e-06
0.000181733
4.68778e-06
0.000192716
5.68118e-06
0.000200346
6.6236e-06
0.000206029
7.55277e-06
0.000210583
8.44844e-06
0.00021425
9.2496e-06
0.000217328
1.01145e-05
0.000219774
1.08956e-05
0.000221871
0.000223541
1.16619e-05
1.20128e-06
0.000133614
2.51275e-06
0.000163453
3.71083e-06
0.000180535
4.81622e-06
0.000191611
5.90024e-06
0.000199262
6.82091e-06
0.000205109
7.7704e-06
0.000209634
8.69159e-06
0.000213329
9.5573e-06
0.000216463
1.03939e-05
0.000218938
1.12282e-05
0.000221037
0.000222733
1.20367e-05
1.26639e-06
0.000132347
2.5686e-06
0.000162151
3.80455e-06
0.000179299
4.98613e-06
0.000190429
5.9824e-06
0.000198266
7.04569e-06
0.000204045
8.02132e-06
0.000208658
8.91363e-06
0.000212436
9.82451e-06
0.000215552
1.07046e-05
0.000218058
1.15404e-05
0.000220201
0.000221963
1.23106e-05
1.28096e-06
0.000131066
2.6232e-06
0.000160809
3.89458e-06
0.000178028
5.06751e-06
0.000189257
6.21175e-06
0.000197122
7.22844e-06
0.000203029
8.22817e-06
0.000207658
9.19363e-06
0.000211471
1.01509e-05
0.000214595
1.10306e-05
0.000217178
1.19152e-05
0.000219317
0.000221068
1.28103e-05
1.33321e-06
0.000129733
2.71766e-06
0.000159424
4.03158e-06
0.000176714
5.24357e-06
0.000188045
6.36949e-06
0.000195996
7.44014e-06
0.000201958
8.48969e-06
0.000206609
9.47726e-06
0.000210483
1.04317e-05
0.00021364
1.13519e-05
0.000216258
1.22285e-05
0.00021844
0.000220296
1.30006e-05
1.32564e-06
0.000128407
2.77744e-06
0.000157973
4.12639e-06
0.000175365
5.37543e-06
0.000186795
6.58584e-06
0.000194786
7.68163e-06
0.000200862
8.68247e-06
0.000205608
9.74388e-06
0.000209422
1.06951e-05
0.000212689
1.1638e-05
0.000215315
1.25532e-05
0.000217525
0.000219329
1.35197e-05
1.41955e-06
0.000126988
2.83474e-06
0.000156557
4.22342e-06
0.000173976
5.55935e-06
0.00018546
6.70845e-06
0.000193637
7.88566e-06
0.000199685
8.95677e-06
0.000204537
9.99294e-06
0.000208386
1.10172e-05
0.000211665
1.20311e-05
0.000214301
1.29488e-05
0.000216607
0.000218522
1.37562e-05
1.40392e-06
0.000125584
2.93487e-06
0.000155027
4.36715e-06
0.000172544
5.69496e-06
0.000184132
6.97816e-06
0.000192353
8.0948e-06
0.000198568
9.26421e-06
0.000203367