/*--------------------------------*- C++ -*----------------------------------*\
| =========                 |                                                 |
| \\      /  F ield         | OpenFOAM: The Open Source CFD Toolbox           |
|  \\    /   O peration     | Version:  2.3.1                                 |
|   \\  /    A nd           | Web:      www.OpenFOAM.org                      |
|    \\/     M anipulation  |                                                 |
\*---------------------------------------------------------------------------*/
FoamFile
{
    version     2.0;
    format      ascii;
    class       volVectorField;
    location    "0.13";
    object      U;
}
// * * * * * * * * * * * * * * * * * * * * * * * * * * * * * * * * * * * * * //

dimensions      [0 1 -1 0 0 0 0];

internalField   nonuniform List<vector> 
15166
(
(6.1011 0.565362 2.46595e-19)
(7.29712 1.04854 1.35926e-18)
(8.3558 0.904825 -7.91134e-19)
(9.36115 0.952294 7.08321e-19)
(10.1283 1.00852 7.40513e-19)
(10.8758 1.05694 3.96438e-19)
(11.5006 1.14748 -7.91599e-19)
(12.0147 1.20655 7.68668e-19)
(12.3854 1.29274 -3.92923e-19)
(12.6707 1.34576 1.5613e-18)
(12.8785 1.39521 -1.14943e-18)
(13.0186 1.44751 1.14986e-18)
(6.80344 1.04139 4.26172e-19)
(7.71605 1.44947 5.4972e-20)
(8.64267 1.21789 2.90898e-20)
(9.5373 1.2309 4.12567e-19)
(10.2691 1.24223 -3.54009e-19)
(10.9681 1.2612 0)
(11.5566 1.31476 3.91518e-19)
(12.0351 1.35325 7.14303e-22)
(12.3894 1.40605 3.89341e-19)
(12.6618 1.44118 -7.88006e-19)
(12.8606 1.47517 1.55217e-18)
(13.0045 1.50865 -1.16019e-18)
(7.3545 1.27748 -4.00808e-19)
(8.15602 1.59617 -2.21141e-18)
(8.9903 1.38744 4.41341e-19)
(9.78482 1.41568 -8.3992e-19)
(10.4646 1.41354 -1.72116e-20)
(11.1068 1.42125 8.12927e-19)
(11.6511 1.45276 -1.16976e-18)
(12.0912 1.47593 -4.05922e-19)
(12.4225 1.5067 7.74866e-19)
(12.6768 1.5273 6.30907e-21)
(12.8636 1.54745 -1.16229e-18)
(13.0029 1.56695 1.52944e-18)
(7.66526 1.39682 0)
(8.472 1.6554 -9.84427e-19)
(9.2753 1.49045 2.31892e-18)
(10.0124 1.53402 -1.32261e-18)
(10.6555 1.53003 8.50315e-19)
(11.2522 1.53688 1.26345e-18)
(11.7577 1.55761 -3.91212e-19)
(12.1644 1.57187 4.06561e-19)
(12.4733 1.5889 -7.96121e-19)
(12.7095 1.59893 7.89141e-19)
(12.8848 1.60785 3.93196e-19)
(13.0192 1.61583 7.82002e-19)
(7.87917 1.47208 -5.72165e-19)
(8.71566 1.69138 -5.32872e-19)
(9.50401 1.56668 -1.44496e-18)
(10.2068 1.61647 1.36748e-18)
(10.8259 1.61278 -4.34158e-19)
(11.3894 1.62124 -4.22344e-19)
(11.8641 1.6363 -4.13571e-19)
(12.2439 1.6453 4.23251e-19)
(12.5333 1.65378 -4.03099e-19)
(12.7536 1.65663 -3.97766e-19)
(12.9183 1.65807 -1.19139e-18)
(13.0457 1.6593 -4.93397e-21)
(8.06871 1.52475 1.13395e-18)
(8.93423 1.71388 1.08317e-18)
(9.70639 1.62391 -1.01647e-18)
(10.3824 1.67539 1.9254e-18)
(10.9818 1.6733 -1.84638e-18)
(11.5185 1.68356 8.86256e-19)
(11.968 1.69514 0)
(12.3257 1.70071 8.50061e-19)
(12.5981 1.70362 -1.65891e-18)
(12.8047 1.70148 8.12541e-19)
(12.9596 1.69759 0)
(13.0799 1.69366 1.19079e-18)
(8.24294 1.56 -6.24682e-19)
(9.13701 1.72386 5.7717e-19)
(9.89318 1.66363 0)
(10.5468 1.7151 0)
(11.128 1.71595 4.86366e-19)
(11.6415 1.72809 4.67552e-19)
(12.0694 1.73759 -8.94174e-19)
(12.408 1.74092 1.30435e-18)
(12.6657 1.7401 4.29494e-19)
(12.8604 1.73425 0)
(13.0069 1.72606 4.13624e-19)
(13.1218 1.71799 0)
(8.39855 1.5812 -1.26507e-18)
(9.32184 1.72391 1.17028e-18)
(10.0645 1.68879 5.35989e-19)
(10.7 1.73923 5.27722e-19)
(11.2649 1.74363 -2.45871e-18)
(11.7585 1.75757 4.80428e-19)
(12.1675 1.76603 0)
(12.4898 1.76805 -4.39512e-19)
(12.7347 1.76485 4.41174e-19)
(12.9192 1.7565 3.10208e-21)
(13.0582 1.74542 -8.26788e-19)
(13.1667 1.73477 8.18729e-19)
(8.53679 1.59136 1.30738e-18)
(9.48915 1.7166 -1.20862e-18)
(10.2208 1.70264 5.52654e-19)
(10.8418 1.75132 -1.58955e-18)
(11.3924 1.75925 2.03315e-18)
(11.8689 1.77467 -1.95063e-18)
(12.2617 1.78272 9.4076e-19)
(12.5701 1.78407 0)
(12.8039 1.77946 4.49762e-19)
(12.9795 1.76957 0)
(13.1118 1.75661 8.6039e-19)
(13.215 1.74374 -4.16489e-19)
(8.6609 1.59285 1.34982e-18)
(9.64161 1.70367 0)
(10.3642 1.70761 5.88062e-19)
(10.973 1.75406 5.56206e-19)
(11.511 1.76521 5.29353e-19)
(11.9727 1.78174 5.07232e-19)
(12.3515 1.78971 0)
(12.6479 1.79078 0)
(12.8722 1.78537 -1.35907e-18)
(13.0402 1.77454 2.22444e-18)
(13.1667 1.76044 -8.61164e-19)
(13.2647 1.74758 -1.28144e-18)
(8.77365 1.58748 1.38142e-18)
(9.78178 1.68634 -1.89805e-18)
(10.4966 1.70535 1.79158e-18)
(11.0951 1.74932 -1.67946e-18)
(11.6216 1.76329 -5.27518e-19)
(12.0704 1.78057 -5.06006e-19)
(12.437 1.7886 9.86498e-19)
(12.7229 1.78961 -9.5752e-19)
(12.939 1.78381 -1.39783e-18)
(13.1005 1.77247 -4.4665e-19)
(13.222 1.75734 1.77912e-18)
(13.3149 1.74323 -8.57798e-19)
(8.8768 1.57645 -1.41991e-18)
(9.91136 1.66528 -1.93678e-18)
(10.6197 1.69701 -3.01517e-19)
(11.2091 1.73838 1.15203e-18)
(11.725 1.75477 8.15061e-19)
(12.1624 1.77251 -2.09741e-18)
(12.5183 1.78069 2.01957e-18)
(12.7952 1.78176 -3.77233e-21)
(13.004 1.77591 -1.42783e-18)
(13.1597 1.76458 9.25938e-19)
(13.2766 1.74938 -4.47142e-19)
(13.3649 1.73449 8.70902e-19)
(8.9715 1.56072 -1.08415e-18)
(10.0315 1.64111 -3.35566e-19)
(10.7345 1.68351 3.06271e-19)
(11.3158 1.72224 0)
(11.8221 1.74065 2.76058e-19)
(12.2492 1.75861 -2.70533e-19)
(12.5955 1.76696 0)
(12.8644 1.76817 0)
(13.0669 1.7624 2.44119e-19)
(13.2173 1.75129 0)
(13.3291 1.73653 0)
(13.4117 1.72168 -8.82745e-19)
(9.05879 1.54104 -3.65845e-19)
(10.1434 1.61424 3.34023e-19)
(10.8419 1.66558 0)
(11.4159 1.70169 0)
(11.9133 1.72175 1.13571e-18)
(12.3312 1.73971 -8.24819e-19)
(12.669 1.74819 1.04748e-18)
(12.9308 1.74947 -1.01867e-18)
(13.1277 1.74368 7.38449e-19)
(13.2738 1.73227 -5.58916e-21)
(13.382 1.71691 -1.86835e-18)
(13.4617 1.70545 1.13862e-18)
(9.13941 1.51798 -1.50855e-18)
(10.2478 1.58501 0)
(10.9428 1.64381 1.2826e-18)
(11.51 1.67736 -1.5285e-18)
(11.9992 1.69873 0)
(12.4087 1.71654 2.80435e-19)
(12.739 1.72513 1.06602e-18)
(12.9945 1.72654 -2.32847e-18)
(13.1865 1.72103 2.00564e-18)
(13.3287 1.71012 -9.78509e-19)
(13.4338 1.69479 9.47482e-19)
(13.5106 1.6774 -1.15515e-18)
(9.21407 1.49203 3.62283e-21)
(10.3454 1.55369 7.02226e-19)
(11.0376 1.61871 0)
(11.5986 1.64976 3.0632e-19)
(12.0802 1.67216 0)
(12.4822 1.68971 8.4611e-19)
(12.8056 1.69838 -7.89437e-21)
(13.0555 1.69991 -7.947e-19)
(13.2431 1.69468 0)
(13.3817 1.68422 -2.49787e-19)
(13.4834 1.66948 2.43261e-19)
(13.5575 1.65068 0)
(9.28335 1.46362 3.82601e-19)
(10.4368 1.52054 -1.07084e-18)
(11.1269 1.59067 9.96348e-19)
(11.6823 1.61931 -4.69854e-21)
(12.1567 1.64247 2.97443e-19)
(12.5517 1.65966 -2.86821e-19)
(12.8689 1.66837 0)
(13.1138 1.67002 0)
(13.2975 1.66501 1.03186e-18)
(13.4329 1.65489 -7.60998e-19)
(13.5316 1.64082 -4.90257e-19)
(13.6024 1.62313 -2.38513e-19)
(9.34764 1.433 3.92248e-19)
(10.5226 1.48565 3.56665e-19)
(11.2112 1.56 -3.33756e-19)
(11.7613 1.58633 6.34605e-19)
(12.2291 1.61003 -1.51637e-18)
(12.6177 1.6268 2.95972e-19)
(12.9292 1.63551 0)
(13.1696 1.63728 5.40003e-19)
(13.3498 1.63254 -5.27897e-19)
(13.4824 1.62278 -7.66336e-19)
(13.5786 1.6093 2.50923e-19)
(13.6469 1.59297 7.22806e-19)
(9.40741 1.40047 0)
(10.6033 1.44922 0)
(11.2909 1.527 0)
(11.836 1.55111 3.25211e-19)
(12.2976 1.57516 0)
(12.6803 1.59144 5.88229e-19)
(12.9866 1.60013 -8.57879e-19)
(13.2229 1.602 0)
(13.3999 1.59759 -5.31016e-19)
(13.53 1.58826 5.16898e-19)
(13.624 1.57531 0)
(13.6904 1.55932 0)
(9.46303 1.36626 2.0316e-18)
(10.6792 1.41138 -1.4779e-18)
(11.3663 1.49191 6.9267e-19)
(11.9068 1.51388 -9.75368e-19)
(12.3625 1.5381 1.24764e-18)
(12.7397 1.55386 -8.95604e-19)
(13.0413 1.56248 8.65283e-19)
(13.2738 1.56444 2.74389e-19)
(13.4479 1.56036 -1.081e-18)
(13.5755 1.55155 7.88551e-19)
(13.6674 1.53927 0)
(13.7318 1.52293 0)
(9.51476 1.33055 -1.64613e-18)
(10.7506 1.37222 0)
(11.4377 1.45493 0)
(11.9738 1.47484 -6.58633e-19)
(12.424 1.49908 6.34032e-19)
(12.7962 1.51426 -9.04078e-19)
(13.0933 1.52277 5.19861e-21)
(13.3223 1.52479 8.47456e-19)
(13.4937 1.52097 5.44978e-19)
(13.6191 1.51258 -5.34503e-19)
(13.7088 1.50097 -2.60461e-19)
(13.7711 1.48448 0)
(9.56278 1.29354 -1.24765e-18)
(10.8179 1.33188 1.13887e-18)
(11.5053 1.41626 0)
(12.0373 1.43414 -6.65829e-19)
(12.4824 1.45827 9.62532e-19)
(12.8497 1.47285 0)
(13.1428 1.4812 0)
(13.3686 1.48321 2.87399e-19)
(13.5377 1.47957 5.51501e-19)
(13.6611 1.47137 -5.41032e-19)
(13.7491 1.46001 5.24072e-19)
(13.8103 1.44544 0)
(9.60756 1.25523 -4.42302e-21)
(10.8814 1.2903 -1.14593e-18)
(11.5695 1.37598 0)
(12.0976 1.39195 1.01253e-18)
(12.5378 1.41587 -9.6898e-19)
(12.9006 1.42981 3.11699e-19)
(13.19 1.43797 3.00467e-19)
(13.4129 1.43997 -8.62435e-19)
(13.5798 1.43656 5.63107e-19)
(13.7015 1.42874 -2.73901e-19)
(13.7882 1.41787 2.9507e-21)
(13.848 1.40459 0)
(9.64863 1.21572 -8.46312e-19)
(10.941 1.24761 7.74493e-19)
(11.6302 1.33431 0)
(12.1547 1.34839 -3.39146e-19)
(12.5903 1.37201 0)
(12.949 1.3853 -3.11314e-19)
(13.2349 1.39326 3.36689e-21)
(13.4552 1.39525 2.93662e-19)
(13.62 1.39207 -2.84831e-19)
(13.7402 1.38461 -2.95552e-21)
(13.8257 1.37406 -2.54081e-21)
(13.8844 1.36227 -1.0488e-18)
(9.68664 1.1755 -4.3187e-19)
(10.997 1.20424 -7.75315e-19)
(11.6877 1.29142 7.29341e-19)
(12.2088 1.30362 3.46122e-19)
(12.6401 1.32685 0)
(12.9949 1.33947 3.1784e-19)
(13.2776 1.34722 -6.09916e-19)
(13.4954 1.34918 -5.84317e-19)
(13.6584 1.34621 8.60211e-19)
(13.7772 1.33911 -2.83734e-21)
(13.8615 1.32884 -2.72635e-21)
(13.9193 1.31751 2.63899e-19)
(9.72215 1.13435 4.26673e-19)
(11.0499 1.15987 -7.88648e-19)
(11.7422 1.24732 -3.6865e-19)
(12.2602 1.25772 -3.455e-19)
(12.6874 1.28051 -3.33769e-19)
(13.0385 1.29246 3.17788e-19)
(13.3181 1.29996 -1.23487e-18)
(13.5337 1.30188 2.9767e-21)
(13.6951 1.2991 0)
(13.8126 1.29235 8.39287e-19)
(13.896 1.28245 -2.77763e-19)
(13.9533 1.27233 -2.66476e-19)
(9.75472 1.09231 -4.3952e-19)
(11.0996 1.1146 0)
(11.7938 1.20215 3.26481e-21)
(12.3089 1.21078 3.51751e-19)
(12.7322 1.23307 6.69841e-19)
(13.0798 1.24434 3.17415e-19)
(13.3567 1.25158 -1.24594e-18)
(13.5701 1.25346 3.05288e-19)
(13.7299 1.2509 8.79949e-19)
(13.8463 1.24458 0)
(13.9289 1.23513 0)
(13.9855 1.2249 0)
(9.7843 1.04942 1.76449e-18)
(11.1463 1.06847 -7.94976e-19)
(11.8426 1.156 7.51059e-19)
(12.355 1.16288 -3.51551e-19)
(12.7746 1.18462 6.8138e-19)
(13.119 1.1952 9.69504e-19)
(13.3932 1.20217 -9.41718e-19)
(13.6047 1.20399 6.04342e-21)
(13.7631 1.20158 1.18075e-18)
(13.8784 1.1956 -8.6341e-19)
(13.96 1.18667 2.80039e-19)
(14.0158 1.1773 -5.36018e-19)
(9.81124 1.00606 -4.42684e-19)
(11.19 1.02185 -4.0328e-19)
(11.8887 1.10898 -3.73888e-19)
(12.3986 1.11409 -7.08084e-19)
(12.8147 1.13526 -3.32577e-19)
(13.156 1.14515 3.29022e-19)
(13.4278 1.15182 3.11576e-19)
(13.6375 1.15355 -9.168e-19)
(13.7946 1.15127 3.01357e-19)
(13.909 1.14553 5.77761e-19)
(13.9899 1.1369 -2.80136e-19)
(14.045 1.12931 -2.75402e-19)
(9.83566 0.962206 -8.91231e-19)
(11.2308 0.974667 1.62229e-18)
(11.9323 1.06116 0)
(12.4399 1.06451 0)
(12.8527 1.08505 0)
(13.191 1.09424 6.59441e-19)
(13.4605 1.1006 6.36908e-19)
(13.6685 1.10225 -3.07201e-19)
(13.8245 1.10012 3.00663e-19)
(13.9381 1.09472 2.29271e-21)
(14.0185 1.08637 -5.64331e-19)
(14.073 1.07909 5.52991e-19)
(9.85806 0.918075 9.0253e-19)
(11.2693 0.92697 -2.01215e-19)
(11.9734 1.01248 -1.91092e-19)
(12.4788 1.01416 0)
(12.8885 1.03407 0)
(13.2241 1.04255 -3.30803e-19)
(13.4914 1.04861 3.18873e-19)
(13.6979 1.05017 -6.24758e-19)
(13.8528 1.04819 2.99885e-19)
(13.9656 1.04311 -8.82712e-19)
(14.0455 1.03515 0)
(14.0997 1.02859 -2.77468e-19)
(9.87789 0.873377 -1.8127e-18)
(11.3049 0.878519 6.20031e-19)
(12.0121 0.962974 1.90879e-19)
(12.5155 0.963075 -5.40389e-19)
(12.9222 0.982356 6.97848e-19)
(13.2552 0.99014 0)
(13.5205 0.995884 6.42901e-19)
(13.7256 0.997362 -6.2928e-19)
(13.8795 0.995506 0)
(13.9916 0.990771 0)
(14.0709 0.983221 0)
(14.1246 0.976022 5.53356e-19)
(9.89537 0.828641 0)
(11.3379 0.829899 0)
(12.0483 0.912881 -3.83697e-19)
(12.55 0.911363 1.76508e-21)
(12.954 0.929984 0)
(13.2845 0.937077 -6.69683e-19)
(13.5478 0.942505 1.46402e-18)
(13.7516 0.943869 -4.75504e-19)
(13.9046 0.942108 -6.09139e-19)
(14.0162 0.937616 1.55663e-19)
(14.095 0.93046 6.13315e-21)
(14.1482 0.92372 5.70197e-19)
(9.91081 0.783493 4.57713e-19)
(11.3685 0.780624 -2.0898e-19)
(12.0823 0.862136 1.94459e-19)
(12.5824 0.859091 -1.82526e-19)
(12.9837 0.877023 8.7931e-19)
(13.3119 0.883421 -1.70384e-19)
(13.5735 0.888526 -4.88753e-19)
(13.7761 0.889786 -3.13954e-19)
(13.9283 0.888136 3.09791e-19)
(14.0394 0.883935 -2.99919e-19)
(14.1178 0.877218 1.46534e-19)
(14.1707 0.870439 -1.39848e-19)
(9.92422 0.737923 6.92471e-19)
(11.3967 0.730842 -6.27185e-19)
(12.1141 0.81084 -1.9431e-19)
(12.6128 0.806254 1.85062e-19)
(13.0116 0.82351 -5.27979e-19)
(13.3375 0.829222 5.11223e-19)
(13.5974 0.834007 -3.30084e-21)
(13.7989 0.835179 -1.6171e-19)
(13.9504 0.833667 -3.0855e-19)
(14.0611 0.829761 4.53971e-19)
(14.1393 0.823517 1.45934e-19)
(14.1921 0.817473 -4.33384e-19)
(9.93512 0.692215 2.33367e-19)
(11.4224 0.680825 0)
(12.1437 0.759089 -1.96464e-19)
(12.6411 0.752923 1.04982e-21)
(13.0375 0.76948 0)
(13.3613 0.774509 1.71635e-19)
(13.6197 0.778982 0)
(13.8201 0.780084 0)
(13.971 0.778742 0)
(14.0812 0.77523 0)
(14.1591 0.769565 -2.94378e-19)
(14.2119 0.763359 5.75104e-19)
(9.94449 0.646304 -4.67843e-19)
(11.4459 0.630503 0)
(12.1711 0.706901 3.93728e-19)
(12.6674 0.699095 -1.85857e-19)
(13.0617 0.714973 -3.55352e-19)
(13.3834 0.71932 1.74176e-19)
(13.6403 0.723469 -3.31133e-19)
(13.8397 0.724466 3.24468e-19)
(13.9899 0.723229 -3.12149e-19)
(14.0997 0.720003 3.2224e-21)
(14.1772 0.71499 1.52331e-19)
(14.2297 0.710042 2.89055e-19)
(9.95169 0.599897 0)
(11.4671 0.579607 -2.12134e-19)
(12.1964 0.654221 -1.97287e-19)
(12.6918 0.644779 0)
(13.084 0.660009 -3.57015e-19)
(13.4038 0.66366 6.91376e-19)
(13.6593 0.667474 -3.3614e-19)
(13.8577 0.668337 0)
(14.0074 0.667138 0)
(14.1169 0.664009 -1.53901e-19)
(14.194 0.659142 -1.4926e-19)
(14.2456 0.657127 0)
(9.95681 0.55352 4.69896e-19)
(11.486 0.528719 -4.45245e-21)
(12.2197 0.601217 -3.03573e-21)
(12.7143 0.590032 -3.4889e-21)
(13.1045 0.60464 -5.42451e-19)
(13.4225 0.607595 0)
(13.6767 0.611056 0)
(13.8743 0.611775 0)
(14.0236 0.610609 0)
(14.1329 0.607542 1.53972e-19)
(14.2105 0.602193 -1.48337e-19)
(14.2629 0.602219 2.97128e-21)
(9.9602 0.506684 -5.90896e-19)
(11.5028 0.477341 6.42095e-19)
(12.241 0.54781 3.97015e-19)
(12.7349 0.534867 -3.79355e-19)
(13.1233 0.548916 8.98498e-20)
(13.4395 0.551181 0)
(13.6925 0.554323 3.35773e-19)
(13.8895 0.55494 -3.38718e-21)
(14.0383 0.553966 -3.20187e-19)
(14.1475 0.551494 0)
(14.225 0.546848 -2.26586e-19)
(14.2772 0.541204 0)
(9.96169 0.459751 2.06525e-21)
(11.5174 0.42585 4.30769e-19)
(12.2601 0.494073 1.00304e-19)
(12.7535 0.479357 2.82354e-19)
(13.1403 0.4929 -2.74144e-19)
(13.455 0.49446 0)
(13.7068 0.497273 3.37168e-19)
(13.9031 0.49776 -3.40472e-21)
(14.0516 0.496815 -2.41472e-19)
(14.1606 0.494508 0)
(14.2378 0.490464 1.51864e-19)
(14.2902 0.48867 0)
(9.96189 0.412852 1.25369e-21)
(11.5299 0.374077 3.23871e-19)
(12.2772 0.439855 -1.00285e-19)
(12.7704 0.423587 1.90115e-19)
(13.1556 0.436642 0)
(13.4688 0.437454 0)
(13.7196 0.439937 -8.51974e-20)
(13.9152 0.440287 -8.27125e-20)
(14.0634 0.439402 -8.01617e-20)
(14.1723 0.437318 -7.83634e-20)
(14.2496 0.433582 -1.51428e-19)
(14.302 0.432207 1.4817e-19)
(9.96024 0.365699 -1.19803e-19)
(11.5402 0.321771 -1.07675e-19)
(12.2925 0.385175 2.00633e-19)
(12.7855 0.367569 -4.76791e-19)
(13.1693 0.380139 1.83617e-19)
(13.481 0.38019 0)
(13.7308 0.382341 8.52083e-20)
(13.9259 0.382554 8.27323e-20)
(14.0739 0.381744 -1.60386e-19)
(14.1827 0.379874 2.36323e-19)
(14.2601 0.376379 1.52574e-19)
(14.3125 0.375268 -1.50405e-19)
(9.95693 0.318817 0)
(11.5481 0.269588 0)
(12.3058 0.330154 1.01285e-19)
(12.7987 0.31127 0)
(13.1814 0.323456 -9.18185e-20)
(13.4916 0.322691 8.85544e-20)
(13.7405 0.324512 1.70403e-19)
(13.9351 0.324585 -2.50457e-19)
(14.0829 0.323851 0)
(14.1917 0.322247 -7.89491e-20)
(14.2691 0.319166 7.61671e-20)
(14.3217 0.317257 -2.24212e-19)
(9.95208 0.271749 6.04776e-20)
(11.5541 0.217061 2.16391e-19)
(12.317 0.27474 -3.0469e-19)
(12.8103 0.254757 0)
(13.1918 0.266613 4.57779e-20)
(13.5008 0.264968 8.79371e-20)
(13.7488 0.266467 -3.43598e-19)
(13.9429 0.266391 4.17007e-19)
(14.0905 0.265706 -1.63219e-19)
(14.1994 0.264284 1.18597e-19)
(14.2769 0.261547 0)
(14.3297 0.259615 7.54244e-20)
(9.94543 0.224783 -6.04975e-20)
(11.5581 0.164458 0)
(12.326 0.219256 -5.02748e-20)
(12.8202 0.198289 9.66639e-20)
(13.2007 0.209552 1.37765e-19)
(13.5083 0.206968 -8.93659e-20)
(13.7555 0.208216 -4.31172e-20)
(13.9492 0.208016 4.18834e-20)
(14.0968 0.207414 8.09973e-20)
(14.2057 0.206294 -1.19415e-19)
(14.2833 0.204255 -3.8741e-20)
(14.3365 0.201304 -3.7494e-20)
(9.93722 0.177864 -9.04338e-20)
(11.5602 0.111684 1.36894e-19)
(12.3331 0.16365 -7.63928e-20)
(12.8283 0.14186 1.20104e-19)
(13.2079 0.152296 -2.07884e-19)
(13.5143 0.148719 1.78282e-19)
(13.7608 0.149802 -6.5273e-20)
(13.9541 0.149451 4.15596e-20)
(14.1016 0.148883 -1.63315e-19)
(14.2106 0.14786 6.00998e-20)
(14.2884 0.146129 3.87688e-20)
(14.3415 0.143477 3.79818e-20)
(9.92758 0.131214 -9.09772e-20)
(11.5605 0.0587989 2.76307e-20)
(12.3383 0.108029 2.55001e-20)
(12.8348 0.0854203 -2.4121e-20)
(13.2132 0.0946539 -2.29438e-20)
(13.5188 0.0903312 4.48886e-20)
(13.7646 0.0913166 2.16179e-20)
(13.9576 0.0907659 0)
(14.1051 0.0902506 0)
(14.2143 0.0894504 1.99312e-20)
(14.2923 0.0883093 0)
(14.3458 0.0858166 0)
(9.91655 0.0846386 -1.52549e-20)
(11.559 0.00558284 1.36442e-20)
(12.3419 0.0525231 6.99769e-22)
(12.8395 0.0287706 -1.25306e-20)
(13.2169 0.0366798 0)
(13.5218 0.0320576 0)
(13.767 0.0326795 1.14625e-20)
(13.9597 0.0319292 -2.10675e-20)
(14.1072 0.0314688 1.03112e-20)
(14.2166 0.0307998 6.254e-22)
(14.2948 0.02993 0)
(14.3485 0.0281161 0)
(9.90373 0.0382864 4.58652e-20)
(11.5556 -0.0478174 2.73308e-20)
(12.3437 -0.00316549 -1.36745e-20)
(12.8424 -0.0279357 3.78187e-22)
(13.2192 -0.0213345 -1.16116e-20)
(13.5233 -0.026274 1.1204e-20)
(13.7679 -0.0261039 -1.15384e-20)
(13.9604 -0.0270045 -3.15391e-20)
(14.1079 -0.0274008 -1.00593e-20)
(14.2175 -0.027835 9.48983e-21)
(14.296 -0.0281494 -9.77437e-21)
(14.3501 -0.0293949 0)
(9.88942 -0.00775542 4.56307e-20)
(11.5504 -0.101029 -8.24697e-20)
(12.3438 -0.0588581 1.29732e-20)
(12.8436 -0.0847095 -2.4024e-20)
(13.22 -0.0793796 3.52915e-20)
(13.5233 -0.0846806 3.38544e-20)
(13.7673 -0.0849772 1.08585e-20)
(13.9597 -0.0860373 1.05531e-20)
(14.1073 -0.0864271 1.02767e-20)
(14.2171 -0.0868049 3.00758e-20)
(14.2958 -0.0870344 -9.79304e-21)
(14.3494 -0.0871513 5.73169e-20)
(9.87375 -0.0537144 -6.06988e-20)
(11.5431 -0.154238 -8.15718e-20)
(12.3421 -0.114558 1.28661e-19)
(12.8431 -0.141541 -2.42619e-20)
(13.2192 -0.137444 -1.15805e-19)
(13.5218 -0.143146 1.79469e-19)
(13.7654 -0.143892 -4.39155e-20)
(13.9576 -0.145115 0)
(14.1054 -0.145525 4.11794e-20)
(14.2155 -0.14586 -2.00588e-20)
(14.2949 -0.1463 1.95706e-20)
(14.3495 -0.144976 -1.915e-20)
(9.85638 -0.0995214 -1.23467e-19)
(11.5341 -0.207339 -5.72342e-22)
(12.3386 -0.17025 0)
(12.841 -0.198409 -9.67407e-20)
(13.2169 -0.19547 9.35001e-20)
(13.5188 -0.201598 0)
(13.762 -0.202781 2.11536e-23)
(13.9542 -0.204126 0)
(14.1022 -0.204464 -4.118e-20)
(14.2128 -0.204449 0)
(14.2927 -0.204474 0)
(14.3484 -0.202667 -7.52525e-20)
(9.83751 -0.144969 6.14804e-20)
(11.5233 -0.260125 5.44162e-20)
(12.3334 -0.225849 -4.11084e-19)
(12.8372 -0.255258 3.88989e-19)
(13.2131 -0.253458 -1.8707e-19)
(13.5144 -0.260032 0)
(13.7572 -0.261624 -4.3525e-20)
(13.9494 -0.263091 0)
(14.0976 -0.263389 0)
(14.2085 -0.263153 0)
(14.2888 -0.262941 0)
(14.3448 -0.261147 -1.51204e-19)
(9.8173 -0.190134 1.23076e-19)
(11.5108 -0.312747 2.20462e-19)
(12.3265 -0.281432 0)
(12.8319 -0.31208 2.90937e-19)
(13.2077 -0.311381 -9.39796e-20)
(13.5084 -0.318431 0)
(13.751 -0.32043 -8.61948e-20)
(13.9432 -0.322044 8.63942e-20)
(14.0916 -0.322338 1.65742e-19)
(14.2029 -0.32191 2.40301e-19)
(14.2836 -0.32128 -1.57712e-19)
(14.34 -0.320045 7.57045e-20)
(9.79584 -0.234985 -4.92688e-19)
(11.4964 -0.365136 -1.10296e-19)
(12.3177 -0.336952 1.02924e-19)
(12.8249 -0.36885 -3.07777e-23)
(13.2008 -0.369221 -9.31482e-20)
(13.5011 -0.376774 8.98078e-20)
(13.7433 -0.379186 8.61665e-20)
(13.9356 -0.380962 -2.54789e-19)
(14.0843 -0.381288 0)
(14.196 -0.380792 -2.40284e-19)
(14.2772 -0.37996 3.13703e-19)
(14.3338 -0.378651 -3.07098e-19)
(9.77268 -0.27987 2.46473e-19)
(11.4803 -0.417571 2.19953e-19)
(12.3072 -0.392355 -2.06611e-19)
(12.8162 -0.425536 -9.73123e-20)
(13.1923 -0.426967 1.85339e-19)
(13.4922 -0.43503 -9.15958e-20)
(13.7343 -0.437839 -8.79481e-20)
(13.9266 -0.439771 8.45806e-20)
(14.0757 -0.440107 0)
(14.1879 -0.439445 0)
(14.2696 -0.438158 0)
(14.3268 -0.436695 8.02566e-22)
(9.74807 -0.324121 -2.46529e-19)
(11.4622 -0.469444 0)
(12.295 -0.447597 -8.86835e-23)
(12.806 -0.482105 0)
(13.1823 -0.484583 9.30387e-20)
(13.482 -0.493153 -3.57268e-19)
(13.7238 -0.496355 2.62706e-19)
(13.9163 -0.498443 -8.46006e-20)
(14.0658 -0.4988 0)
(14.1786 -0.498116 -3.19611e-19)
(14.2611 -0.496978 3.15218e-19)
(14.3191 -0.495284 -7.6979e-20)
(9.72216 -0.368415 -3.69812e-19)
(11.4425 -0.521338 2.20446e-19)
(12.281 -0.502655 -3.0868e-19)
(12.794 -0.538514 1.94331e-19)
(13.1708 -0.542044 -2.78992e-19)
(13.4702 -0.551139 0)
(13.712 -0.554703 0)
(13.9046 -0.556908 3.36274e-19)
(14.0545 -0.557166 -4.95518e-19)
(14.1679 -0.556039 -1.58969e-19)
(14.2512 -0.553982 1.58472e-19)
(14.3109 -0.55305 0)
(9.69451 -0.412309 0)
(11.421 -0.572847 -1.339e-21)
(12.2653 -0.557496 -2.06903e-19)
(12.7805 -0.594761 -1.71036e-21)
(13.1578 -0.599321 -1.87472e-19)
(13.457 -0.608946 5.35758e-19)
(13.6987 -0.612886 -3.49131e-19)
(13.8915 -0.615237 1.67219e-19)
(14.0417 -0.615495 -1.66096e-19)
(14.1556 -0.614268 1.58584e-19)
(14.2393 -0.611834 -1.58083e-19)
(14.2993 -0.608755 3.01223e-19)
(9.66573 -0.455836 7.39097e-19)
(11.3979 -0.624 2.20512e-19)
(12.2478 -0.612103 0)
(12.7654 -0.650818 3.88333e-19)
(13.1432 -0.656432 3.69643e-19)
(13.4423 -0.666606 -1.82702e-19)
(13.6839 -0.670938 -3.48726e-19)
(13.8769 -0.673465 2.80745e-22)
(14.0276 -0.673759 0)
(14.142 -0.672503 0)
(14.2263 -0.66991 0)
(14.2864 -0.666029 0)
(9.6357 -0.499142 -7.39148e-19)
(11.373 -0.674983 -2.19951e-19)
(12.2286 -0.666567 0)
(12.7487 -0.706704 -1.94163e-19)
(13.1271 -0.713368 -1.85297e-19)
(13.4262 -0.724103 -1.77187e-19)
(13.6678 -0.728832 3.51113e-21)
(13.861 -0.73156 8.4212e-19)
(14.0121 -0.731916 -3.29821e-19)
(14.1272 -0.730657 0)
(14.2123 -0.728285 3.10463e-19)
(14.273 -0.72463 -3.06299e-19)
(9.60394 -0.542247 -2.46441e-19)
(11.3463 -0.725738 1.34302e-21)
(12.2076 -0.720767 2.06693e-19)
(12.7303 -0.762385 0)
(13.1095 -0.770083 1.77355e-21)
(13.4086 -0.78138 3.58376e-19)
(13.6503 -0.786507 -3.44164e-19)
(13.8438 -0.789424 5.05914e-19)
(13.9955 -0.789799 0)
(14.1112 -0.78835 0)
(14.1971 -0.785534 0)
(14.2589 -0.782126 4.5063e-19)
(9.57065 -0.584883 -9.83532e-19)
(11.3178 -0.775997 -6.57935e-19)
(12.185 -0.774613 6.16231e-19)
(12.7102 -0.817783 0)
(13.0904 -0.826544 -3.69859e-19)
(13.3896 -0.838411 -1.78395e-19)
(13.6315 -0.843924 0)
(13.8253 -0.847033 3.33482e-19)
(13.9775 -0.847468 -3.28674e-19)
(14.094 -0.846002 0)
(14.1806 -0.843206 0)
(14.2431 -0.838996 -1.52038e-19)
(9.53601 -0.627206 9.7997e-19)
(11.2877 -0.825923 -2.21828e-19)
(12.1605 -0.828146 -2.02948e-19)
(12.6886 -0.872884 1.95264e-19)
(13.0697 -0.88271 1.84852e-19)
(13.3692 -0.895149 -5.31485e-19)
(13.6112 -0.90105 3.46327e-19)
(13.8054 -0.904341 -3.34888e-19)
(13.9582 -0.9048 -3.24528e-19)
(14.0755 -0.903149 3.19889e-19)
(14.163 -0.89999 0)
(14.2266 -0.895667 -1.49886e-19)
(9.49993 -0.66904 4.87362e-19)
(11.2558 -0.875349 -6.59507e-19)
(12.1343 -0.881325 -2.04513e-19)
(12.6653 -0.927674 1.15332e-18)
(13.0475 -0.938574 -7.40239e-19)
(13.3473 -0.951586 1.7771e-19)
(13.5895 -0.957873 6.84093e-19)
(13.7841 -0.961352 -5.04403e-19)
(13.9376 -0.961838 1.62503e-19)
(14.0556 -0.960106 0)
(14.144 -0.956873 0)
(14.2084 -0.952557 1.51001e-19)
(9.4629 -0.71047 -7.92156e-22)
(11.2222 -0.924322 0)
(12.1065 -0.934189 6.07942e-19)
(12.6404 -0.982152 -9.66037e-19)
(13.0238 -0.994108 -7.31749e-19)
(13.3239 -1.00772 7.11574e-19)
(13.5664 -1.01438 5.11189e-19)
(13.7615 -1.01802 -8.36513e-19)
(13.9155 -1.01854 -1.6258e-19)
(14.0344 -1.0166 -7.87863e-19)
(14.1237 -1.01283 4.671e-19)
(14.1893 -1.00915 0)
(9.42386 -0.751821 -2.44851e-19)
(11.1868 -0.973251 0)
(12.0768 -0.986732 1.01344e-18)
(12.6138 -1.0363 -1.5358e-18)
(12.9986 -1.04934 3.70693e-19)
(13.2991 -1.06351 -3.52497e-19)
(13.5419 -1.07056 1.71296e-19)
(13.7374 -1.07439 4.95989e-19)
(13.8922 -1.07499 -6.50884e-19)
(14.0118 -1.07307 1.58125e-19)
(14.1019 -1.06919 4.59565e-19)
(14.1681 -1.06619 -6.03198e-19)
(9.38315 -0.7923 4.86835e-19)
(11.1496 -1.0213 4.3449e-19)
(12.0453 -1.03874 8.07893e-19)
(12.5856 -1.09001 -1.53231e-18)
(12.9717 -1.10417 1.1013e-18)
(13.2728 -1.11895 -3.4798e-19)
(13.516 -1.12638 3.45075e-19)
(13.712 -1.13041 3.31969e-19)
(13.8674 -1.13103 0)
(13.988 -1.12897 0)
(14.0791 -1.12444 -3.03408e-19)
(14.1465 -1.1217 6.53773e-21)
(9.34156 -0.832375 -2.0088e-21)
(11.1109 -1.06885 -1.77887e-21)
(12.0121 -1.09031 0)
(12.5557 -1.14334 -3.79301e-19)
(12.9434 -1.15863 1.09647e-18)
(13.2451 -1.174 -3.5032e-19)
(13.4886 -1.18184 -6.74865e-19)
(13.6851 -1.18608 3.34413e-19)
(13.8413 -1.18675 3.18916e-19)
(13.9627 -1.18472 -9.43839e-19)
(14.0548 -1.18001 0)
(14.1227 -1.17799 -2.98289e-19)
(9.29855 -0.872042 -2.12969e-21)
(11.0702 -1.11595 4.29294e-19)
(11.9771 -1.14151 -4.06999e-19)
(12.5241 -1.19625 -1.13987e-18)
(12.9135 -1.2127 -3.57499e-19)
(13.2158 -1.2287 1.40278e-18)
(13.4598 -1.23691 1.48775e-21)
(13.6569 -1.24135 1.44522e-21)
(13.8139 -1.24204 3.21216e-19)
(13.9362 -1.23991 3.13315e-19)
(14.0293 -1.23457 0)
(14.0988 -1.23133 8.83766e-19)
(9.25412 -0.911373 -4.85179e-19)
(11.0282 -1.16268 -4.30625e-19)
(11.9404 -1.19219 -4.03279e-19)
(12.4909 -1.24872 -3.77118e-19)
(12.882 -1.26633 7.27882e-19)
(13.1851 -1.28299 -1.04325e-18)
(13.4296 -1.29159 3.4505e-19)
(13.6273 -1.29626 6.6067e-19)
(13.785 -1.29702 0)
(13.9082 -1.29496 3.08828e-19)
(14.0022 -1.28972 -1.21518e-18)
(14.0718 -1.28641 5.97802e-19)
(9.20788 -0.950138 4.79635e-19)
(10.9839 -1.20889 -4.33413e-19)
(11.9019 -1.24249 -1.19804e-18)
(12.4561 -1.30077 3.63661e-21)
(12.849 -1.31953 0)
(13.1529 -1.33681 -3.46477e-19)
(13.398 -1.34585 -3.35333e-19)
(13.5964 -1.35075 3.27399e-19)
(13.7549 -1.35163 0)
(13.8791 -1.34958 3.10929e-19)
(13.9743 -1.34441 6.02177e-19)
(14.0453 -1.34069 -6.6102e-21)
(9.15995 -0.988111 4.82513e-19)
(10.938 -1.25419 0)
(11.8614 -1.29204 7.97677e-19)
(12.4194 -1.35222 -3.79654e-19)
(12.8143 -1.37222 -3.5877e-19)
(13.1192 -1.39015 1.03552e-18)
(13.365 -1.39962 -1.00351e-18)
(13.564 -1.40475 9.7822e-19)
(13.7235 -1.40571 0)
(13.8487 -1.40354 -3.06379e-19)
(13.945 -1.39804 9.06391e-19)
(14.0174 -1.3939 2.92229e-19)
(9.11121 -1.02552 -9.58825e-19)
(10.8907 -1.29886 4.25696e-19)
(11.8194 -1.34104 -4.02271e-21)
(12.3812 -1.40319 -7.54275e-19)
(12.7781 -1.42443 7.16287e-19)
(13.084 -1.443 0)
(13.3305 -1.45291 -3.32331e-19)
(13.5303 -1.45829 -3.24586e-19)
(13.6907 -1.45936 0)
(13.817 -1.45724 3.03234e-19)
(13.9144 -1.45189 -9.0366e-19)
(13.9879 -1.44778 -2.93486e-19)
(9.06127 -1.06257 0)
(10.8413 -1.34312 2.48072e-21)
(11.7755 -1.3896 1.18689e-18)
(12.3412 -1.45363 -6.89619e-21)
(12.7403 -1.47613 -1.78417e-18)
(13.0474 -1.49535 1.37163e-18)
(13.2946 -1.50567 -1.32512e-18)
(13.4953 -1.51129 6.47741e-19)
(13.6566 -1.51244 0)
(13.7839 -1.51019 0)
(13.8827 -1.50441 -2.96314e-19)
(13.958 -1.50009 5.79926e-19)
(9.00942 -1.09902 0)
(10.7903 -1.38673 2.62119e-21)
(11.7299 -1.43755 -1.1791e-18)
(12.2996 -1.5035 7.48201e-19)
(12.701 -1.52724 0)
(13.0092 -1.54717 6.79293e-19)
(13.2573 -1.55792 -3.32418e-19)
(13.4588 -1.56377 0)
(13.621 -1.56505 -6.2101e-19)
(13.7495 -1.56291 6.11941e-19)
(13.8494 -1.55734 -2.97874e-19)
(13.9256 -1.55321 0)
(8.95595 -1.13491 9.48046e-19)
(10.7376 -1.42976 4.23283e-19)
(11.6823 -1.4848 7.85802e-19)
(12.2561 -1.55276 0)
(12.6599 -1.57779 7.03252e-19)
(12.9695 -1.59841 -3.45222e-19)
(13.2185 -1.6096 -6.60206e-19)
(13.4209 -1.6157 0)
(13.5842 -1.61707 3.09427e-19)
(13.7139 -1.61481 0)
(13.8151 -1.60886 0)
(13.8932 -1.60424 0)
(8.90086 -1.16996 4.69343e-19)
(10.6828 -1.47197 -8.44112e-19)
(11.6329 -1.53139 -3.9238e-19)
(12.2109 -1.60138 0)
(12.6173 -1.62772 6.99783e-19)
(12.9282 -1.64906 -3.40033e-19)
(13.1782 -1.66067 -6.4992e-19)
(13.3816 -1.66702 9.53632e-19)
(13.5459 -1.6685 -9.23901e-19)
(13.6768 -1.66631 9.05198e-19)
(13.7794 -1.66057 -8.77024e-19)
(13.8584 -1.65625 6.51784e-21)
(8.84447 -1.2042 1.87478e-18)
(10.6264 -1.51319 -4.23353e-19)
(11.5816 -1.57722 0)
(12.1639 -1.6493 1.09596e-18)
(12.573 -1.67702 -6.5553e-21)
(12.8855 -1.69907 -6.75347e-19)
(13.1365 -1.71113 -3.2358e-19)
(13.3408 -1.71773 -2.25263e-21)
(13.5063 -1.71925 6.10578e-19)
(13.6384 -1.71689 -6.03762e-19)
(13.7424 -1.71057 1.16449e-18)
(13.8236 -1.70599 -1.13105e-18)
(8.78684 -1.23791 -9.34783e-19)
(10.5683 -1.55374 -4.1737e-19)
(11.5284 -1.62234 -3.85488e-19)
(12.1152 -1.69653 -2.72732e-21)
(12.527 -1.72565 -3.46508e-19)
(12.8411 -1.74843 -6.64919e-19)
(13.0933 -1.76097 6.51291e-19)
(13.2986 -1.76786 -2.34534e-21)
(13.4651 -1.76951 0)
(13.5984 -1.76721 -8.8996e-19)
(13.7035 -1.76074 5.81175e-19)
(13.7854 -1.75528 0)
(8.72768 -1.27097 4.71093e-19)
(10.5083 -1.59362 8.30943e-19)
(11.4735 -1.66674 1.15236e-18)
(12.0647 -1.74306 -1.0935e-18)
(12.4794 -1.7736 -3.4115e-19)
(12.7952 -1.79716 9.97915e-19)
(13.0485 -1.81022 3.22024e-19)
(13.2549 -1.8174 -3.12571e-19)
(13.4226 -1.81927 -1.20577e-18)
(13.5571 -1.81723 1.18774e-18)
(13.6636 -1.81122 -2.89222e-19)
(13.7464 -1.80567 -1.12415e-18)
(8.66683 -1.30329 -9.20887e-19)
(10.4465 -1.63272 1.64597e-18)
(11.4167 -1.7104 -3.86575e-19)
(12.0124 -1.78886 3.59108e-19)
(12.4301 -1.82087 3.42189e-19)
(12.7477 -1.84519 -2.69213e-21)
(13.0024 -1.85876 9.51175e-19)
(13.2099 -1.86622 -1.2436e-18)
(13.3789 -1.86827 0)
(13.5149 -1.86626 2.92167e-19)
(13.6231 -1.86042 0)
(13.7081 -1.85517 2.78881e-19)
(8.60433 -1.3348 -1.83128e-18)
(10.3828 -1.67091 1.64239e-18)
(11.3578 -1.75321 -3.81785e-19)
(11.9583 -1.83386 -3.5986e-19)
(12.3791 -1.86736 -3.42908e-19)