/*--------------------------------*- C++ -*----------------------------------*\
| =========                 |                                                 |
| \\      /  F ield         | OpenFOAM: The Open Source CFD Toolbox           |
|  \\    /   O peration     | Version:  2.3.1                                 |
|   \\  /    A nd           | Web:      www.OpenFOAM.org                      |
|    \\/     M anipulation  |                                                 |
\*---------------------------------------------------------------------------*/
FoamFile
{
    version     2.0;
    format      ascii;
    class       surfaceScalarField;
    location    "0.71";
    object      phi;
}
// * * * * * * * * * * * * * * * * * * * * * * * * * * * * * * * * * * * * * //

dimensions      [0 3 -1 0 0 0 0];

internalField   nonuniform List<scalar> 
2700
(
3.43942e-06
3.59717e-05
-3.12793e-05
2.95604e-06
3.41035e-05
-3.36179e-05
1.4294e-06
3.45922e-05
-3.30661e-05
8.52771e-07
3.43048e-05
-3.3732e-05
3.1063e-07
3.43917e-05
-3.38558e-05
-1.30765e-07
3.43535e-05
-3.39199e-05
-4.17772e-07
3.41986e-05
-3.39212e-05
-4.85616e-07
3.39593e-05
-3.39009e-05
-3.0602e-07
3.36958e-05
-3.38862e-05
3.35091e-05
-3.38236e-05
9.1059e-07
7.23122e-05
-3.7264e-05
1.22114e-06
7.15805e-05
-3.77995e-05
1.19585e-06
7.23782e-05
-3.77753e-05
7.85521e-07
7.27245e-05
-3.8027e-05
2.45669e-07
7.30272e-05
-3.81154e-05
-2.77264e-07
7.30085e-05
-3.81537e-05
-6.34266e-07
7.26692e-05
-3.81358e-05
-6.73907e-07
7.20741e-05
-3.80977e-05
-3.55606e-07
7.13826e-05
-3.80284e-05
7.06307e-05
-3.74963e-05
1.29401e-06
0.0001157
-4.47248e-05
1.72032e-06
0.000116883
-4.57749e-05
1.65866e-06
0.000118319
-4.59285e-05
1.04315e-06
0.0001194
-4.61135e-05
2.15547e-07
0.000120015
-4.62164e-05
-6.0508e-07
0.000120016
-4.62447e-05
-1.19507e-06
0.000119399
-4.6199e-05
-1.30188e-06
0.000118245
-4.61203e-05
-8.30227e-07
0.000116855
-4.60024e-05
0.000115108
-4.53547e-05
2.14377e-06
0.000172161
-5.86989e-05
2.90059e-06
0.000175603
-5.95823e-05
2.65608e-06
0.000178228
-5.97737e-05
1.60336e-06
0.0001803
-5.99652e-05
2.10323e-07
0.00018138
-6.00938e-05
-1.1811e-06
0.000181403
-6.01172e-05
-2.24365e-06
0.000180374
-6.00341e-05
-2.53649e-06
0.000178327
-5.99047e-05
-1.84149e-06
0.000175792
-5.97488e-05
0.000172179
-5.89921e-05
5.74512e-06
-8.4534e-05
0.000250813
6.61516e-06
-8.62537e-05
0.000260852
5.42809e-06
-8.69495e-05
0.000266217
3.03873e-06
-8.74661e-05
0.000270005
2.51465e-07
-8.77642e-05
0.00027178
-2.53517e-06
-8.77927e-05
0.000271827
-4.92702e-06
-8.755e-05
0.000270172
-6.16435e-06
-8.70937e-05
0.000266517
-5.43646e-06
-8.64541e-05
0.000261391
-8.47961e-05
0.000251465
6.31154e-07
2.99845e-05
-6.18993e-05
7.37843e-07
3.06012e-05
-6.43293e-05
8.49047e-07
3.11394e-05
-6.43207e-05
5.93444e-07
3.12145e-05
-6.46968e-05
2.22493e-07
3.13262e-05
-6.48183e-05
-1.47459e-07
3.13095e-05
-6.48678e-05
-4.13003e-07
3.11694e-05
-6.48348e-05
-5.15854e-07
3.094e-05
-6.47475e-05
-4.15009e-07
3.06446e-05
-6.4642e-05
2.99614e-05
-6.42074e-05
5.63005e-07
6.26385e-05
-7.04917e-05
8.69883e-07
6.37495e-05
-7.12653e-05
9.80785e-07
6.4596e-05
-7.13546e-05
6.65314e-07
6.50968e-05
-7.16084e-05
2.01799e-07
6.54003e-05
-7.17421e-05
-2.71181e-07
6.53933e-05
-7.17821e-05
-6.12358e-07
6.50787e-05
-7.17219e-05
-7.06459e-07
6.45154e-05
-7.15961e-05
-4.9786e-07
6.38245e-05
-7.14348e-05
6.27344e-05
-7.07821e-05
1.20315e-06
0.000100768
-8.40908e-05
1.5748e-06
0.000102593
-8.50242e-05
1.49303e-06
0.000104029
-8.53174e-05
9.42414e-07
0.000105122
-8.56302e-05
1.89964e-07
0.000105711
-8.58198e-05
-5.68722e-07
0.000105718
-8.58564e-05
-1.13801e-06
0.000105142
-8.57382e-05
-1.32106e-06
0.000104048
-8.55134e-05
-9.97398e-07
0.000102694
-8.52408e-05
0.000100794
-8.44489e-05
2.34848e-06
0.000146658
-0.000107015
2.87031e-06
0.000150631
-0.000108228
2.51113e-06
0.000153268
-0.000108743
1.49501e-06
0.000155295
-0.00010922
1.92081e-07
0.000156329
-0.000109509
-1.11526e-06
0.000156353
-0.000109546
-2.15435e-06
0.000155374
-0.000109329
-2.57959e-06
0.000153402
-0.000108927
-2.14768e-06
0.000150876
-0.00010846
0.000146904
-0.000107317
5.4951e-06
-0.000145883
0.000202401
6.14863e-06
-0.000148134
0.00021174
4.97369e-06
-0.000149436
0.000216802
2.76846e-06
-0.00015051
0.000220413
2.28563e-07
-0.000151108
0.00022208
-2.31128e-06
-0.000151157
0.000222124
-4.52354e-06
-0.000150656
0.000220567
-5.74707e-06
-0.000149679
0.000217088
-5.24246e-06
-0.000148468
0.000212269
-0.000146285
0.000203089
9.79872e-07
2.40454e-05
-8.69317e-05
8.69476e-07
2.41098e-05
-8.83355e-05
7.33308e-07
2.43564e-05
-8.85477e-05
4.6749e-07
2.4451e-05
-8.88898e-05
1.67757e-07
2.45339e-05
-8.90611e-05
-1.22508e-07
2.45234e-05
-8.91103e-05
-3.37453e-07
2.44124e-05
-8.90425e-05
-4.33672e-07
2.42267e-05
-8.88877e-05
-3.76634e-07
2.39829e-05
-8.86921e-05
2.33849e-05
-8.79755e-05
7.18085e-07
4.88325e-05
-9.60045e-05
8.44485e-07
4.9598e-05
-9.68874e-05
8.16714e-07
5.0187e-05
-9.71656e-05
5.36879e-07
5.06033e-05
-9.74913e-05
1.60439e-07
5.08419e-05
-9.76851e-05
-2.17763e-07
5.0837e-05
-9.773e-05
-4.97874e-07
5.05839e-05
-9.76258e-05
-5.93653e-07
5.01275e-05
-9.74124e-05
-4.56454e-07
4.95574e-05
-9.7158e-05
4.85916e-05
-9.64546e-05
1.07214e-06
7.69127e-05
-0.000113262
1.33319e-06
7.85039e-05
-0.000114211
1.21258e-06
7.96554e-05
-0.000114687
7.58181e-07
8.05421e-05
-0.000115141
1.52477e-07
8.10146e-05
-0.000115415
-4.56798e-07
8.10192e-05
-0.000115458
-9.24719e-07
8.05558e-05
-0.00011527
-1.10027e-06
7.96711e-05
-0.000114907
-8.75565e-07
7.85498e-05
-0.000114485
7.68789e-05
-0.000113636
2.01488e-06
0.000108866
-0.000141033
2.3964e-06
0.000112282
-0.00014244
2.04996e-06
0.000114475
-0.000143273
1.20944e-06
0.000116109
-0.00014401
1.54415e-07
0.000116935
-0.00014444
-9.04288e-07
0.000116952
-0.000144487
-1.7611e-06
0.000116168
-0.000144148
-2.15657e-06
0.000114581
-0.000143502
-1.85635e-06
0.000112465
-0.00014274
0.000109051
-0.00014139
4.48172e-06
-0.000183511
0.00014194
4.88968e-06
-0.000186219
0.000149883
3.90393e-06
-0.000187996
0.000153937
2.16351e-06
-0.000189448
0.000156703
1.79117e-07
-0.000190245
0.000157967
-1.80436e-06
-0.000190305
0.000157995
-3.55156e-06
-0.00018963
0.000156808
-4.57328e-06
-0.000188299
0.000154143
-4.29423e-06
-0.000186635
0.000150276
-0.000183995
0.000142423
4.70831e-07
1.5268e-05
-0.000102679
4.66025e-07
1.54791e-05
-0.000103819
4.32022e-07
1.56229e-05
-0.000104146
2.90438e-07
1.57092e-05
-0.000104467
1.14289e-07
1.5764e-05
-0.000104659
-5.93566e-08
1.57575e-05
-0.000104705
-1.92904e-07
1.56863e-05
-0.000104606
-2.58359e-07
1.55675e-05
-0.0001044
-2.33226e-07
1.54156e-05
-0.000104144
1.50676e-05
-0.000103283
4.12171e-07
3.12454e-05
-0.000112401
5.21158e-07
3.1773e-05
-0.000113297
5.07267e-07
3.21391e-05
-0.000113675
3.41627e-07
3.24185e-05
-0.000114044
1.12269e-07
3.25722e-05
-0.000114273
-1.19871e-07
3.25677e-05
-0.000114318
-2.94823e-07
3.24029e-05
-0.000114177
-3.54127e-07
3.21066e-05
-0.000113901
-2.60504e-07
3.17373e-05
-0.000113582
3.11435e-05
-0.000112798
6.37785e-07
4.86871e-05
-0.000131352
8.39788e-07
4.9694e-05
-0.000132344
7.6874e-07
5.04414e-05
-0.00013293
4.85878e-07
5.10201e-05
-0.000133475
1.06545e-07
5.13256e-05
-0.000133805
-2.76402e-07
5.13263e-05
-0.000133851
-5.72352e-07
5.10231e-05
-0.00013361
-6.79303e-07
5.04455e-05
-0.000133153
-5.20837e-07
4.97112e-05
-0.000132631
4.86741e-05
-0.000131702
1.25651e-06
6.72482e-05
-0.000160875
1.54126e-06
6.93529e-05
-0.00016241
1.32199e-06
7.07866e-05
-0.000163428
7.81271e-07
7.18384e-05
-0.000164321
1.0585e-07
7.23669e-05
-0.000164841
-5.73896e-07
7.23752e-05
-0.000164892
-1.12565e-06
7.18662e-05
-0.000164474
-1.37902e-06
7.08429e-05
-0.000163675
-1.15642e-06
6.94521e-05
-0.000162737
6.73511e-05
-0.000161247
2.76037e-06
-0.000202491
8.3434e-05
3.07426e-06
-0.000205317
8.8104e-05
2.45691e-06
-0.000207262
9.06312e-05
1.36318e-06
-0.000208854
9.22977e-05
1.17827e-07
-0.000209734
9.3059e-05
-1.12712e-06
-0.000209799
9.3071e-05
-2.22801e-06
-0.000209047
9.23475e-05
-2.87164e-06
-0.000207583
9.07334e-05
-2.64672e-06
-0.000205755
8.83112e-05
-0.000202983
8.36752e-05
1.61074e-07
5.94813e-06
-0.0001088
1.46056e-07
6.02e-06
-0.000109835
1.3296e-07
6.06006e-06
-0.000110204
1.01364e-07
6.08459e-06
-0.000110532
6.76557e-08
6.09856e-06
-0.000110736
3.2356e-08
6.09339e-06
-0.000110775
-6.19974e-11
6.06747e-06
-0.000110654
-2.8749e-08
6.02654e-06
-0.000110411
-4.50525e-08
5.97324e-06
-0.000110113
5.85295e-06
-0.000109189
1.32721e-07
1.22288e-05
-0.000118823
1.57849e-07
1.24124e-05
-0.000119723
1.54589e-07
1.25381e-05
-0.000120159
1.16404e-07
1.26328e-05
-0.000120564
6.61454e-08
1.2682e-05
-0.000120816
1.22711e-08
1.26758e-05
-0.000120857
-3.25858e-08
1.26127e-05
-0.000120689
-5.72237e-08
1.25034e-05
-0.000120363
-4.98282e-08
1.23651e-05
-0.000119991
1.2151e-05
-0.000119152
2.05694e-07
1.91071e-05
-0.000138443
2.65438e-07
1.9488e-05
-0.000139487
2.42911e-07
1.97804e-05
-0.000140158
1.62517e-07
2.00006e-05
-0.000140772
5.9583e-08
2.01126e-05
-0.000141143
-4.67103e-08
2.01074e-05
-0.000141187
-1.3545e-07
1.99855e-05
-0.000140905
-1.77154e-07
1.97565e-05
-0.000140374
-1.44011e-07
1.94591e-05
-0.000139769
1.90631e-05
-0.000138767
4.47809e-07
2.62831e-05
-0.000168508
5.40529e-07
2.71233e-05
-0.000170147
4.54387e-07
2.77283e-05
-0.000171301
2.7106e-07
2.81563e-05
-0.000172307
5.36804e-08
2.83649e-05
-0.00017289
-1.66251e-07
2.83621e-05
-0.000172942
-3.57452e-07
2.81508e-05
-0.000172462
-4.59318e-07
2.77232e-05
-0.000171552
-3.99489e-07
2.71278e-05
-0.000170478
2.62854e-05
-0.000168877
1.05511e-06
-0.000209156
3.18906e-05
1.15865e-06
-0.000212022
3.37208e-05
9.00783e-07
-0.00021407
3.47899e-05
4.93121e-07
-0.00021576
3.5461e-05
5.21098e-08
-0.000216696
3.57591e-05
-3.90414e-07
-0.000216761
3.57571e-05
-7.99578e-07
-0.000215954
3.54596e-05
-1.07041e-06
-0.00021439
3.47994e-05
-1.00753e-06
-0.000212456
3.37609e-05
-0.000209636
3.1935e-05
-1.26875e-07
-3.69589e-06
-0.00010499
-1.92223e-07
-3.82263e-06
-0.000105961
-1.74096e-07
-3.8943e-06
-0.000106341
-9.21966e-08
-3.95512e-06
-0.000106672
2.85689e-08
-3.99237e-06
-0.000106877
1.50172e-07
-3.99818e-06
-0.000106912
2.31627e-07
-3.97332e-06
-0.000106776
2.44068e-07
-3.92536e-06
-0.000106511
1.71949e-07
-3.86682e-06
-0.000106187
-3.75875e-06
-0.000105267
-1.59086e-07
-7.39874e-06
-0.000114973
-2.46842e-07
-7.59222e-06
-0.000115878
-2.28221e-07
-7.73195e-06
-0.000116351
-1.24542e-07
-7.85309e-06
-0.000116782
2.53469e-08
-7.92505e-06
-0.000117046
1.75343e-07
-7.93526e-06
-0.000117083
2.76713e-07
-7.88351e-06
-0.000116892
2.88815e-07
-7.78224e-06
-0.000116531
1.9215e-07
-7.66116e-06
-0.000116112
-7.48364e-06
-0.000115244
-2.60664e-07
-1.08732e-05
-0.000134716
-3.77385e-07
-1.11311e-05
-0.000135839
-3.45427e-07
-1.13299e-05
-0.0001366
-1.95035e-07
-1.15057e-05
-0.000137279
1.51235e-08
-1.16071e-05
-0.00013768
2.24655e-07
-1.16199e-05
-0.000137722
3.72134e-07
-1.15433e-05
-0.000137403
3.99618e-07
-1.13919e-05
-0.000136801
2.77072e-07
-1.12138e-05
-0.000136102
-1.09684e-05
-0.00013501
-4.25729e-07
-1.37733e-05
-0.000165181
-5.74548e-07
-1.40973e-05
-0.000167031
-5.15432e-07
-1.43206e-05
-0.000168368
-2.96139e-07
-1.45269e-05
-0.000169505
2.10464e-09
-1.46451e-05
-0.00017015
2.98956e-07
-1.46596e-05
-0.000170199
5.17219e-07
-1.45683e-05
-0.000169654
5.74358e-07
-1.43877e-05
-0.000168612
4.26806e-07
-1.41872e-05
-0.000167356
-1.38728e-05
-0.000165541
-6.3781e-07
-0.000206493
-1.57788e-05
-8.24465e-07
-0.000209779
-1.61345e-05
-7.34791e-07
-0.000212126
-1.63334e-05
-4.24232e-07
-0.000214024
-1.65555e-05
-1.21289e-08
-0.000215052
-1.66828e-05
3.98889e-07
-0.000215114
-1.66981e-05
7.09438e-07
-0.000214213
-1.66017e-05
8.01587e-07
-0.000212441
-1.64075e-05
6.24714e-07
-0.000210212
-1.62315e-05
-0.000206974
-1.58892e-05
-4.04291e-07
-1.33567e-05
-9.12429e-05
-5.45256e-07
-1.37353e-05
-9.20988e-05
-4.93401e-07
-1.39431e-05
-9.24634e-05
-2.92894e-07
-1.41103e-05
-9.27766e-05
-5.34551e-09
-1.42086e-05
-9.29699e-05
2.824e-07
-1.42162e-05
-9.29978e-05
4.86774e-07
-1.41337e-05
-9.28602e-05
5.4186e-07
-1.39816e-05
-9.25979e-05
4.08809e-07
-1.379e-05
-9.22773e-05
-1.34202e-05
-9.14471e-05
-4.8149e-07
-2.71946e-05
-0.000100666
-6.96722e-07
-2.7841e-05
-0.00010157
-6.43698e-07
-2.82969e-05
-0.000102063
-3.81884e-07
-2.86726e-05
-0.000102494
-1.12474e-08
-2.88845e-05
-0.000102753
3.59991e-07
-2.88993e-05
-0.000102784
6.24707e-07
-2.87174e-05
-0.000102587
6.82605e-07
-2.83713e-05
-0.000102212
4.77272e-07
-2.7944e-05
-0.000101766
-2.73099e-05
-0.000100884
-8.11731e-07
-4.13203e-05
-0.000119785
-1.11451e-06
-4.23499e-05
-0.000121034
-1.00211e-06
-4.31329e-05
-0.000121883
-5.87325e-07
-4.37693e-05
-0.000122604
-2.6106e-08
-4.41147e-05
-0.000123016
5.34813e-07
-4.41358e-05
-0.000123053
9.52893e-07
-4.3833e-05
-0.000122712
1.07368e-06
-4.32396e-05
-0.000122059
7.90566e-07
-4.24985e-05
-0.00012127
-4.14852e-05
-0.000120045
-1.48408e-06
-5.46356e-05
-0.000150366
-1.87715e-06
-5.63527e-05
-0.000152621
-1.62006e-06
-5.7539e-05
-0.000154203
-9.29071e-07
-5.84721e-05
-0.000155479
-4.78642e-08
-5.89563e-05
-0.000156174
8.32601e-07
-5.89814e-05
-0.000156218
1.5266e-06
-5.85509e-05
-0.000155616
1.79598e-06
-5.76731e-05
-0.00015443
1.44034e-06
-5.65464e-05
-0.000152934
-5.48505e-05
-0.000150713
-2.65555e-06
-0.000193897
-6.45317e-05
-3.11434e-06
-0.000198301
-6.73257e-05
-2.581e-06
-0.000201214
-6.89381e-05
-1.44089e-06
-0.000203432
-7.01598e-05
-7.47266e-08
-0.000204574
-7.07537e-05
1.28745e-06
-0.000204631
-7.0782e-05
2.42863e-06
-0.000203609
-7.02501e-05
2.97657e-06
-0.00020152
-6.90937e-05
2.5814e-06
-0.000198747
-6.75651e-05
-0.000194395
-6.48051e-05
-6.65136e-07
-2.26188e-05
-6.79708e-05
-8.84215e-07
-2.33304e-05
-6.85614e-05
-7.99612e-07
-2.37094e-05
-6.88502e-05
-4.81456e-07
-2.40055e-05
-6.91009e-05
-3.31701e-08
-2.41734e-05
-6.92558e-05
4.17129e-07
-2.41835e-05
-6.92756e-05
7.42635e-07
-2.40363e-05
-6.91602e-05
8.40383e-07
-2.3761e-05
-6.89455e-05
6.43386e-07
-2.34035e-05
-6.86875e-05
-2.26982e-05
-6.81113e-05
-8.54731e-07
-4.65448e-05
-7.58967e-05
-1.17487e-06
-4.77686e-05
-7.68236e-05
-1.06686e-06
-4.86182e-05
-7.72733e-05
-6.3695e-07
-4.92979e-05
-7.76428e-05
-4.2095e-08
-4.967e-05
-7.78612e-05
5.5421e-07
-4.96904e-05
-7.78842e-05
9.91574e-07
-4.93598e-05
-7.77108e-05
1.11548e-06
-4.87227e-05
-7.7384e-05
8.23284e-07
-4.79153e-05
-7.69714e-05
-4.67065e-05
-7.60573e-05
-1.50944e-06
-7.21431e-05
-9.26761e-05
-1.95662e-06
-7.42456e-05
-9.41109e-05
-1.71229e-06
-7.57824e-05
-9.49613e-05
-9.9695e-07
-7.69846e-05
-9.56313e-05
-6.25852e-08
-7.76161e-05
-9.60027e-05
8.72652e-07
-7.76455e-05
-9.60302e-05
1.59483e-06
-7.70772e-05
-9.5715e-05
1.85838e-06
-7.59417e-05
-9.51008e-05
1.45583e-06
-7.44749e-05
-9.43031e-05
-7.23974e-05
-9.28847e-05
-2.90448e-06
-9.82397e-05
-0.000121332
-3.45647e-06
-0.000102108
-0.000124173
-2.88137e-06
-0.000104619
-0.000125905
-1.62383e-06
-0.000106495
-0.000127192
-9.2895e-08
-0.000107426
-0.000127857
1.43463e-06
-0.000107463
-0.000127892
2.6961e-06
-0.000106615
-0.000127302
3.29255e-06
-0.000104831
-0.000126097
2.81638e-06
-0.000102435
-0.000124454
-9.86075e-05
-0.000121644
-5.52058e-06
-0.00016632
-0.000120217
-6.02291e-06
-0.000172695
-0.00012714
-4.77401e-06
-0.000176198
-0.000130808
-2.58936e-06
-0.000178615
-0.000133426
-1.33761e-07
-0.000179768
-0.000134616
2.31488e-06
-0.000179813
-0.000134655
4.49137e-06
-0.000178763
-0.000133565
5.75184e-06
-0.000176472
-0.00013106
5.37815e-06
-0.000173146
-0.000127579
-0.000166829
-0.000120727
-8.33881e-07
-3.06254e-05
-3.65206e-05
-1.14531e-06
-3.15542e-05
-3.67052e-05
-1.04563e-06
-3.21031e-05
-3.68552e-05
-6.3366e-07
-3.253e-05
-3.69915e-05
-5.3013e-08
-3.27665e-05
-3.70775e-05
5.30665e-07
-3.27791e-05
-3.70879e-05
9.52848e-07
-3.2568e-05
-3.70219e-05
1.07316e-06
-3.21679e-05
-3.69043e-05
7.95482e-07
-3.16465e-05
-3.67698e-05
-3.07264e-05
-3.65945e-05
-1.12248e-06
-6.39198e-05
-4.14852e-05
-1.57328e-06
-6.56553e-05
-4.22776e-05
-1.42897e-06
-6.69394e-05
-4.25864e-05
-8.52656e-07
-6.79443e-05
-4.28098e-05
-6.43178e-08
-6.84799e-05
-4.29405e-05
7.26293e-07
-6.85052e-05
-4.29527e-05
1.31286e-06
-6.80226e-05
-4.28466e-05
1.47965e-06
-6.70748e-05
-4.26476e-05
1.07086e-06
-6.58498e-05
-4.23619e-05
-6.41348e-05
-4.15741e-05
-2.15478e-06
-0.000101702
-5.27259e-05
-2.75904e-06
-0.000105057
-5.40925e-05
-2.37981e-06
-0.000107524
-5.47419e-05
-1.37102e-06
-0.000109382
-5.51889e-05
-8.9721e-08
-0.000110323
-5.54249e-05
1.19129e-06
-0.00011036
-5.54403e-05
2.20762e-06
-0.000109503
-5.52358e-05
2.6126e-06
-0.000107737
-5.48229e-05
2.07455e-06
-0.00010538
-5.42122e-05
-0.000102066
-5.2854e-05
-4.49064e-06
-0.000144476
-7.40079e-05
-5.16037e-06
-0.000151537
-7.69662e-05
-4.18013e-06
-0.000155935
-7.84161e-05
-2.30585e-06
-0.000159044
-7.93455e-05
-1.29825e-07
-0.000160508
-7.9788e-05
2.04148e-06
-0.000160556
-7.98075e-05
3.9137e-06
-0.000159205
-7.94087e-05
4.91418e-06
-0.000156236
-7.85353e-05
4.35821e-06
-0.000152043
-7.71657e-05
-0.000145056
-7.42269e-05
-9.40696e-06
-0.000113511
-0.000187773
-9.56457e-06
-0.000121143
-0.000202836
-7.23796e-06
-0.000124417
-0.000209949
-3.78654e-06
-0.000126315
-0.000214707
-1.80696e-07
-0.00012711
-0.000216678
3.40667e-06
-0.000127134
-0.000216731
6.82589e-06
-0.000126399
-0.000214894
9.13171e-06
-0.000124598
-0.000210316
9.18413e-06
-0.000121523
-0.000203607
-0.000113938
-0.000188675
-8.26609e-07
-3.56983e-05
-1.23993e-06
-3.6296e-05
-1.16503e-06
-3.69341e-05
-7.11216e-07
-3.7449e-05
-6.2514e-08
-3.77297e-05
5.89594e-07
-3.77431e-05
1.05538e-06
-3.74904e-05
1.15392e-06
-3.70056e-05
7.79441e-07
-3.63983e-05
-3.58148e-05
-1.201e-06
-7.59815e-05
-1.77588e-06
-7.79976e-05
-1.63639e-06
-7.96583e-05
-9.75728e-07
-8.09178e-05
-7.48934e-08
-8.15683e-05
8.28106e-07
-8.15963e-05
1.4992e-06
-8.10054e-05
1.66341e-06
-7.98132e-05
1.13813e-06
-7.82292e-05
-7.62434e-05
-2.6087e-06
-0.000126077
-3.31825e-06
-0.00013136
-2.8322e-06
-0.000134865
-1.61074e-06
-0.000137307
-1.0356e-07
-0.000138479
1.40215e-06
-0.00013852
2.62838e-06
-0.000137444
3.13879e-06
-0.000135121
2.50924e-06
-0.000131784
-0.00012656
-6.16689e-06
-0.000193862
-6.66213e-06
-0.00020778
-5.18988e-06
-0.000214705
-2.77982e-06
-0.000219013
-1.4725e-07
-0.000220847
2.47352e-06
-0.000220897
4.86585e-06
-0.00021919
6.33719e-06
-0.000215073
5.99621e-06
-0.000208543
-0.000194744
-1.50475e-05
-0.000292246
-1.35049e-05
-0.000330403
-9.44493e-06
-0.000343122
-4.6731e-06
-0.000350042
-2.04443e-07
-0.000352368
4.2336e-06
-0.000352407
8.92091e-06
-0.000350217
1.28811e-05
-0.000343568
1.47312e-05
-0.000331838
-0.0002939
-4.00543e-05
-0.000446522
0.000194462
-2.86368e-05
-0.00055995
0.00021819
-1.64468e-05
-0.000581655
0.00022639
-7.26221e-06
-0.000589882
0.000230697
-2.49094e-07
-0.00059152
0.000232191
6.6761e-06
-0.000591507
0.00023222
1.56247e-05
-0.000589939
0.000230821
2.74153e-05
-0.000582018
0.000226713
3.93978e-05
-0.000562855
0.000219109
-0.000449944
0.000195534
-8.49782e-05
-0.000683355
0.000321715
-5.8447e-05
-0.000954369
0.000367882
-2.89619e-05
-0.000992307
0.000381091
-1.19114e-05
-0.000993936
0.000386958
-3.4157e-07
-0.000991541
0.000388397
1.10696e-05
-0.000991371
0.000388399
2.75234e-05
-0.000993448
0.000387015
5.61066e-05
-0.000992082
0.000381383
8.3711e-05
-0.000959679
0.000369313
-0.000689631
0.000323335
-0.000233111
-0.000975094
0.000524845
-0.000115134
-0.00173758
0.000664946
-3.0516e-05
-0.0017731
0.000696016
-7.54112e-06
-0.00172621
0.000709081
-4.52333e-08
-0.0017102
0.000710956
7.20799e-06
-0.00170972
0.000710921
2.87092e-05
-0.00172432
0.000709076
0.000110603
-0.00177065
0.000696631
0.000230245
-0.00174782
0.000668207
-0.000988752
0.000529283
-0.000293498
-0.00160423
0.000922219
-0.000123615
-0.00278439
0.000876618
-3.67123e-05
-0.00281152
0.000951113
-9.80183e-06
-0.00273684
0.000983356
-1.27489e-07
-0.00271105
0.000990811
9.29035e-06
-0.00271037
0.000990782
3.49055e-05
-0.00273401
0.000983764
0.000119156
-0.00280788
0.000952511
0.000289332
-0.00279622
0.000877982
-0.00162452
0.000924878
0.000329692
-0.00193416
0.000171091
-0.00262608
5.66173e-05
-0.00269734
1.72594e-05
-0.00269779
1.97167e-07
-0.00269431
-1.64391e-05
-0.00269402
-5.37384e-05
-0.00269702
-0.000164674
-0.00269721
-0.000325167
-0.00263598
-0.00194981
-1.92796e-05
-0.000205558
0.000231603
-1.61669e-05
-0.000235088
0.000247398
-1.09784e-05
-0.000242903
0.000254211
-5.30978e-06
-0.000248217
0.000258592
-2.17127e-07
-0.000249986
0.000260457
4.83146e-06
-0.000250021
0.000260511
1.04137e-05
-0.000248388
0.000258787
1.54842e-05
-0.000243213
0.000254597
1.89341e-05
-0.000236071
0.0002482
-0.000206674
0.000232504
-4.11701e-05
-0.000191784
0.000349115
-3.47518e-05
-0.000255672
0.000382004
-2.269e-05
-0.00026965
0.000395741
-1.06229e-05
-0.00027774
0.000404362
-3.77416e-07
-0.000279631
0.000407747
9.7814e-06
-0.000279651
0.000407824
2.16257e-05
-0.000277913
0.000404648
3.34445e-05
-0.000270015
0.000396339
4.03928e-05
-0.000257126
0.000383379
-0.000193683
0.000350719
-4.32214e-05
6.2196e-06
0.000369854
-2.69221e-05
-6.03742e-05
0.000453204
-9.91209e-06
-5.6498e-05
0.000465672
-3.40758e-06
-4.70672e-05
0.000471735
-9.49331e-08
-4.48537e-05
0.000472693
3.14423e-06
-4.48395e-05
0.000472684
9.24489e-06
-4.68914e-05
0.000471799
2.58698e-05
-5.61722e-05
0.000465962
4.26082e-05
-6.09451e-05
0.000455167
5.9048e-06
0.000372159
-0.000155625
0.000297159
0.0007866
-0.000111837
-0.000103458
0.000875633
-5.83411e-05
-8.72559e-05
0.000928115
-2.4444e-05
-5.27887e-05
0.000954903
-7.6523e-07
-4.14285e-05
0.000963406
2.27616e-05
-4.13799e-05
0.000963521
5.59234e-05
-5.20084e-05
0.000955413
0.000109307
-8.65501e-05
0.000929254
0.000153195
-0.000105437
0.000878308
0.000292666
0.000791082
0.000208791
-0.00184601
0.000115446
-0.00263639
4.27026e-05
-0.00271206
1.38032e-05
-0.0027219
2.38028e-07
-0.00272239
-1.30947e-05
-0.00272229
-4.07083e-05
-0.00272162
-0.000111689
-0.00271297
-0.000206397
-0.00264693
-0.00186364
-9.35256e-06
-0.000124811
0.000245594
-8.59415e-06
-0.00013479
0.00025435
-6.36056e-06
-0.000137675
0.000258887
-3.27671e-06
-0.000140006
0.000262133
-1.5498e-07
-0.00014092
0.000263684
2.94597e-06
-0.000140955
0.000263745
6.007e-06
-0.000140124
0.000262336
8.21334e-06
-0.000137871
0.000259248
9.16452e-06
-0.000135229
0.000254955
-0.000125297
0.000246262
-2.0781e-05
-0.000102679
0.000347766
-1.9248e-05
-0.000118789
0.000364461
-1.38984e-05
-0.000121393
0.000374112
-6.97168e-06
-0.000123527
0.000380941
-2.95395e-07
-0.000123978
0.000384108
6.34248e-06
-0.000123987
0.000384217
1.31844e-05
-0.000123634
0.000381297
1.84619e-05
-0.000121572
0.000374765
2.0311e-05
-0.000119279
0.000365575
-0.000103389
0.000349091
-1.22736e-05
-9.50941e-06
0.000288837
-7.42795e-06
1.55631e-05
0.000313921
-3.14008e-06
2.13112e-05
0.000318573
-1.28361e-06
2.49851e-05
0.000321265
-5.57775e-08
2.55481e-05
0.000321846
1.14256e-06
2.55419e-05
0.000321846
2.91083e-06
2.49559e-05
0.000321348
7.08185e-06
2.13945e-05
0.000318725
1.20722e-05
1.61579e-05
0.000314628
-8.74084e-06
0.00028948
-6.37061e-05
0.000293716
0.000546868
-4.7885e-05
0.000315383
0.000559787
-2.89481e-05
0.00034857
0.00058171
-1.34294e-05
0.000366753
0.000597403
-5.80625e-07
0.000372551
0.000603327
1.21638e-05
0.000372594
0.000603502
2.73691e-05
0.000366922
0.00059802
4.62537e-05
0.000348734
0.000582823
6.23814e-05
0.00031657
0.000561531
0.000295286
0.00054928
8.06978e-05
-0.00163312
4.21175e-05
-0.00228256
1.53635e-05
-0.00233687
4.58872e-06
-0.00234451
8.94498e-08
-0.00234548
-4.28579e-06
-0.00234545
-1.45608e-05
-0.00234455
-4.0844e-05
-0.00233809
-7.98654e-05
-0.00229149
-0.00164828
-3.8495e-06
-6.63197e-05
0.000251264
-3.90109e-06
-6.95916e-05
0.000256705
-3.11308e-06
-7.0642e-05
0.000259839
-1.69106e-06
-7.1674e-05
0.000262256
-8.99748e-08
-7.21441e-05
0.000263503
1.50468e-06
-7.21696e-05
0.000263566
2.92642e-06
-7.17596e-05
0.000262455
3.71787e-06
-7.07769e-05
0.000260175
3.75804e-06
-6.9815e-05
0.000257202
-6.65763e-05
0.000251808
-9.21913e-06
-5.11304e-05
0.000341812
-9.29907e-06
-5.81434e-05
0.000353115
-7.12722e-06
-5.94621e-05
0.000360773
-3.74935e-06
-6.05219e-05
0.000366424
-1.81346e-07
-6.08268e-05
0.000369235
3.37044e-06
-6.08483e-05
0.000369354
6.72353e-06
-6.06014e-05
0.000366803
8.88731e-06
-5.95993e-05
0.000361443
8.97477e-06
-5.84343e-05
0.000354127
-5.15068e-05
0.000342992
-2.54623e-06
-3.98042e-05
0.000279988
-1.63005e-06
-3.36852e-05
0.000288522
-1.03649e-06
-3.18128e-05
0.000290297
-5.87007e-07
-3.15535e-05
0.00029182
-4.43467e-08
-3.18972e-05
0.000292342
4.98009e-07
-3.1935e-05
0.000292362
9.43833e-07
-3.16476e-05
0.00029192
1.51822e-06
-3.19202e-05
0.000290439
2.4841e-06
-3.36685e-05
0.000288868
-3.98967e-05
0.000280294
-3.10512e-05
9.81631e-05
0.000439842
-2.32297e-05
9.06648e-05
0.000427501
-1.49525e-05
0.000100108
0.000441419
-7.20732e-06
0.000105314
0.000452684
-3.77323e-07
0.000107042
0.000457448
6.39637e-06
0.000107054
0.000457632
1.40119e-05
0.000105358
0.000453282
2.2275e-05
0.000100099
0.000442453
3.0309e-05
9.08849e-05
0.000428815
9.8306e-05
0.000441293
2.13066e-05
-0.00155637
1.06694e-05
-0.00218133
3.68306e-06
-0.00222985
8.84949e-07
-0.00223647
3.73014e-08
-0.00223766
-7.66536e-07
-0.00223768
-3.40084e-06
-0.00223663
-1.0321e-05
-0.00223115
-2.11111e-05
-0.00218989
-0.00157112
-6.62546e-07
-1.49673e-05
0.000251135
-7.99e-07
-1.481e-05
0.000255538
-7.49594e-07
-1.45619e-05
0.000258039
-4.45535e-07
-1.46173e-05
0.00026003
-2.44408e-08
-1.4679e-05
0.000261095
3.95516e-07
-1.46944e-05
0.000261159
7.03824e-07
-1.46616e-05
0.000260224
7.60027e-07
-1.46247e-05
0.000258363
6.40637e-07
-1.48822e-05
0.000255994
-1.50582e-05
0.000251631
-1.27767e-06
-1.79716e-05
0.000346097
-1.71603e-06
-1.81474e-05
0.000356948
-1.60479e-06
-1.81011e-05
0.000364242
-9.45734e-07
-1.84214e-05
0.00036962
-5.82752e-08
-1.86035e-05
0.00037232
8.25886e-07
-1.8626e-05
0.000372444
1.4942e-06
-1.84862e-05
0.00037002
1.623e-06
-1.8208e-05
0.000364939
1.20538e-06
-1.82694e-05
0.000357993
-1.81659e-05
0.000347308
1.15336e-06
-2.09588e-05
0.000281831
8.09344e-07
-1.79045e-05
0.000288652
2.14295e-07
-1.74086e-05
0.000290255
-3.22308e-08
-1.78956e-05
0.000291589
-2.0158e-08
-1.83402e-05
0.000292105
4.18933e-09
-1.83738e-05
0.000292143
-2.23778e-07
-1.8004e-05
0.000291699
-8.0828e-07
-1.75519e-05
0.000290438
-1.16619e-06
-1.8018e-05
0.000288994
-2.12201e-05
0.000282153
-2.1879e-06
-5.07375e-06
0.000426058
-3.83948e-06
-1.02551e-05
0.000421497
-3.90255e-06
-1.08432e-05
0.000434898
-2.37737e-06
-1.16367e-05
0.000444894
-1.84351e-07
-1.20207e-05
0.000448933
1.98298e-06
-1.20275e-05
0.00044909
3.5388e-06
-1.16885e-05
0.000445429
3.59064e-06
-1.09854e-05
0.000435811
1.89377e-06
-1.04658e-05
0.000422919
-5.47099e-06
0.00042738
2.20809e-09
-0.00156151
-1.30104e-06
-0.00219033
-1.51635e-06
-0.0022405
-9.72325e-07
-0.0022487
-1.8782e-09
-0.0022507
9.87775e-07
-0.00225073
1.54696e-06
-0.00224895
1.32727e-06
-0.00224193
3.83721e-08
-0.00219911
-0.00157659
1.74154e-06
3.83923e-05
0.00024288
1.64474e-06
4.21813e-05
0.000247185
1.1731e-06
4.39932e-05
0.000249307
5.99639e-07
4.50371e-05
0.000251032
3.96787e-08
4.54537e-05
0.000251964
-5.20635e-07
4.54515e-05
0.000252024
-1.08861e-06
4.50487e-05
0.000251218
-1.56119e-06
4.40279e-05
0.00024961
-1.70181e-06
4.2299e-05
0.000247613
3.85158e-05
0.000243348
6.35555e-06
1.51317e-05
0.000363026
5.49642e-06
2.34703e-05
0.000376582
3.62655e-06
2.53861e-05
0.000384795
1.73411e-06
2.59656e-05
0.000390668
6.79432e-08
2.59681e-05
0.000393544
-1.57683e-06
2.59519e-05
0.000393682
-3.44251e-06
2.59095e-05
0.0003911
-5.27075e-06
2.53281e-05
0.00038556
-6.24896e-06
2.3563e-05
0.000377782
1.51223e-05
0.00036445
4.5177e-06
1.30262e-05
0.000279437
2.93797e-06
2.5717e-05
0.00028808
1.39607e-06
2.80624e-05
0.000289209
5.08831e-07
2.81556e-05
0.000290404
2.07379e-08
2.78086e-05
0.000290884
-4.71313e-07
2.77631e-05
0.000290917
-1.31825e-06
2.80766e-05
0.000290537
-2.82836e-06
2.79581e-05
0.000289412
-4.48973e-06
2.58237e-05
0.000288427
1.29531e-05
0.000279831
3.11656e-05
-0.00010028
0.000508179
1.72146e-05
-9.00823e-05
0.000551264
6.88547e-06
-9.64377e-05
0.000569824
2.29649e-06
-0.000103455
0.000581133
-1.16697e-08
-0.000106269
0.000585346
-2.26137e-06
-0.000106314
0.000585515
-6.67492e-06
-0.000103759
0.000581662
-1.67482e-05
-9.6963e-05
0.000570881
-3.11543e-05
-9.05973e-05
0.000553767
-0.000101659
0.000510793
-1.72672e-05
-0.00164455
-1.2609e-05
-0.00228504
-6.89487e-06
-0.00234269
-3.01156e-06
-0.00235605
-3.23881e-08
-0.00235997
2.90339e-06
-0.00236006
6.70585e-06
-0.00235648
1.23361e-05
-0.00234452
1.72228e-05
-0.00229463
-0.00166103
4.03632e-06
0.000102799
0.000219439
3.80358e-06
0.000112095
0.000223404
2.86626e-06
0.000115984
0.000224864
1.5277e-06
0.000118453
0.0002262
1.0023e-07
0.000119496
0.00022693
-1.321e-06
0.000119519
0.000226984
-2.66193e-06
0.000118535
0.000226361
-3.61151e-06
0.000116159
0.000225118
-3.93504e-06
0.000112479
0.000223763
0.000103232
0.000219831
1.6372e-05
6.74567e-05
0.000382021
1.39337e-05
9.47278e-05
0.000396454
9.45586e-06
0.000100394
0.000404938
4.61418e-06
0.000102868
0.0004112
2.08413e-07
0.000103319
0.000414247
-4.16239e-06
0.000103291
0.000414389
-8.93529e-06
0.000102885
0.000411652
-1.33266e-05
0.000100464
0.000405733
-1.60373e-05
9.53097e-05
0.000397708
6.80159e-05
0.000383649
8.70302e-06
7.87804e-05
0.00025948
5.33912e-06
0.000119263
0.000266986
2.62535e-06
0.000126861
0.000265645
1.05337e-06
0.000128912
0.00026608
5.47448e-08
0.000129121
0.000266228
-9.1742e-07
0.000129135
0.00026627
-2.44415e-06
0.000128842
0.000266193
-5.12308e-06
0.000126931
0.000265776
-8.58161e-06
0.0001201
0.000267174
7.94971e-05
0.000259778
9.54402e-05
-0.00022073
0.000712264
5.29856e-05
-0.000119419
0.000832565
2.23849e-05
-0.000127808
0.000855132
8.37914e-06
-0.000145489
0.000869645
2.22549e-07
-0.000152748
0.000875499
-7.87342e-06
-0.000152979
0.000875712
-2.13154e-05
-0.000146215
0.000870332
-5.11463e-05
-0.000128872
0.000856577
-9.45286e-05
-0.000118873
0.000836164
-0.00022179
0.000717591
-5.16916e-05
-0.00181351
-3.51867e-05
-0.00242096
-1.74539e-05
-0.00248818
-7.07425e-06
-0.00251188
-1.32835e-07
-0.00251968
6.76093e-06
-0.00251986
1.67655e-05
-0.00251266
3.41436e-05
-0.00249073
5.12767e-05
-0.0024306
-0.00183149
6.01856e-06
0.000182379