/*--------------------------------*- C++ -*----------------------------------*\
| =========                 |                                                 |
| \\      /  F ield         | OpenFOAM: The Open Source CFD Toolbox           |
|  \\    /   O peration     | Version:  2.3.1                                 |
|   \\  /    A nd           | Web:      www.OpenFOAM.org                      |
|    \\/     M anipulation  |                                                 |
\*---------------------------------------------------------------------------*/
FoamFile
{
    version     2.0;
    format      ascii;
    class       volScalarField;
    location    "100";
    object      nuTilda;
}
// * * * * * * * * * * * * * * * * * * * * * * * * * * * * * * * * * * * * * //

dimensions      [0 2 -1 0 0 0 0];

internalField   nonuniform List<scalar> 
10720
(
0.0929075
0.0974333
0.102554
0.108131
0.114474
0.12159
0.129616
0.138392
0.147881
0.157722
0.167422
0.176434
0.183911
0.189567
0.193361
0.195475
0.196112
0.195549
0.193905
0.19137
0.187928
0.18366
0.178609
0.173007
0.167266
0.161664
0.156184
0.150682
0.145057
0.1393
0.133405
0.127337
0.121055
0.114504
0.107495
0.0999047
0.0906029
0.0802416
0.0570423
0.0886352
0.0840368
0.0790412
0.0729274
0.0657247
0.0569044
0.0461451
0.0370034
0.0346598
0.0363594
0.0435932
0.0497311
0.0547382
0.0592116
0.0635141
0.0677786
0.0720079
0.076154
0.0801623
0.084012
0.08771
0.0912779
0.0947411
0.0980958
0.101155
0.103697
0.105697
0.107203
0.108269
0.108943
0.109262
0.10933
0.109178
0.108767
0.108012
0.106902
0.104996
0.102839
0.0938865
0.100241
0.0998239
0.0991271
0.0981701
0.0971474
0.0959875
0.0947877
0.0935831
0.0930584
0.0936173
0.0950276
0.0972062
0.100361
0.104456
0.109505
0.115285
0.121697
0.128484
0.13549
0.142368
0.14899
0.15494
0.159901
0.16336
0.164871
0.164517
0.162698
0.159737
0.155969
0.151659
0.147012
0.14217
0.137239
0.132317
0.127509
0.122908
0.118741
0.114767
0.110682
0.100681
0.100795
0.101036
0.100791
0.100278
0.0994411
0.0980798
0.0959647
0.0930842
0.0895825
0.085499
0.0813153
0.0772041
0.0732033
0.0694584
0.0660201
0.0629403
0.0602421
0.0579445
0.056036
0.0545077
0.0533408
0.052512
0.0519815
0.0517228
0.0516983
0.0518441
0.0520931
0.0523978
0.0528863
0.0543648
0.057058
0.0603831
0.0637172
0.0666971
0.0693424
0.0715611
0.0755034
0.0791101
0.121718
0.121518
0.121113
0.120502
0.119801
0.118899
0.117794
0.116545
0.115104
0.113505
0.111791
0.110059
0.108597
0.107534
0.106723
0.106083
0.105634
0.105401
0.105049
0.104575
0.104781
0.1057
0.107391
0.110791
0.117251
0.124415
0.131155
0.136965
0.141628
0.145064
0.147322
0.148545
0.148926
0.148662
0.14795
0.146834
0.145769
0.143058
0.145453
0.121896
0.121851
0.121822
0.121533
0.121049
0.120349
0.119362
0.118056
0.116443
0.114475
0.112137
0.109488
0.10658
0.103432
0.100139
0.0967446
0.0933133
0.0898912
0.0865316
0.0832494
0.0800721
0.0770126
0.0740664
0.0711377
0.0681772
0.0652479
0.0623904
0.0596473
0.0570473
0.0546387
0.0523973
0.0512808
0.0515252
0.0527267
0.0544981
0.056728
0.0593451
0.0622053
0.0673317
0.128912
0.128812
0.128606
0.128291
0.127909
0.127415
0.126804
0.126099
0.125267
0.124318
0.12325
0.12206
0.120818
0.119625
0.118472
0.117089
0.115185
0.112999
0.110589
0.107975
0.105232
0.102588
0.100206
0.0983384
0.0974633
0.0977973
0.0990787
0.104041
0.110756
0.118134
0.125613
0.132776
0.139349
0.145204
0.150374
0.154864
0.159157
0.161383
0.166769
0.128951
0.1289
0.128831
0.128667
0.128402
0.128033
0.127512
0.126816
0.125941
0.12485
0.123532
0.121999
0.120258
0.118298
0.116154
0.113838
0.111379
0.108806
0.106152
0.103438
0.100692
0.0979219
0.0951241
0.0922151
0.08913
0.0859146
0.0825986
0.079219
0.0758083
0.0724008
0.0690194
0.0657261
0.062636
0.0599001
0.0574473
0.0566395
0.0572233
0.0581089
0.0610397
0.132434
0.132394
0.132276
0.132088
0.13185
0.131536
0.131149
0.130698
0.130164
0.129551
0.128855
0.128065
0.127176
0.126183
0.12508
0.123856
0.122477
0.120908
0.119099
0.117025
0.114638
0.111952
0.109007
0.105918
0.102873
0.100085
0.0975718
0.0959382
0.0955819
0.0966942
0.101573
0.108593
0.11704
0.126402
0.136276
0.14636
0.156809
0.16664
0.177241
0.13241
0.132359
0.132306
0.132214
0.132061
0.131843
0.131522
0.131087
0.130546
0.129882
0.129085
0.128157
0.127095
0.125886
0.124542
0.123056
0.121439
0.119696
0.117844
0.115887
0.113839
0.111703
0.109471
0.107076
0.104459
0.101643
0.0986445
0.0954852
0.0921861
0.0887702
0.0852612
0.0816869
0.0780716
0.0744593
0.0708577
0.0673967
0.0643561
0.0613227
0.0602585
0.134376
0.134366
0.134306
0.1342
0.134061
0.133874
0.133637
0.133353
0.133013
0.132615
0.132158
0.131633
0.131037
0.130363
0.129599
0.128737
0.127759
0.126643
0.125357
0.123878
0.122161
0.120174
0.117878
0.115274
0.112431
0.109414
0.106279
0.103097
0.100058
0.0973231
0.0956992
0.0956017
0.0993192
0.106025
0.115451
0.127464
0.141953
0.159208
0.17764
0.134354
0.134347
0.134347
0.134322
0.134244
0.13411
0.133885
0.133571
0.133191
0.132736
0.132202
0.131589
0.130894
0.130106
0.129228
0.128253
0.127181
0.12601
0.124747
0.123387
0.121936
0.120387
0.118732
0.116917
0.114889
0.112654
0.110212
0.107567
0.104726
0.101697
0.0984974
0.0951439
0.0916515
0.088037
0.0843135
0.0804459
0.076462
0.0720657
0.0655467
0.135623
0.13561
0.135567
0.135496
0.135401
0.135274
0.135113
0.13492
0.134687
0.134414
0.134097
0.133729
0.133306
0.132823
0.132268
0.131635
0.130911
0.130091
0.129156
0.128091
0.126865
0.125453
0.123822
0.121946
0.119842
0.117504
0.114907
0.112035
0.108892
0.105541
0.10215
0.0989144
0.0967421
0.0963625
0.100316
0.108604
0.121792
0.142363
0.168755
0.135658
0.135716
0.135771
0.135785
0.135741
0.13564
0.135458
0.135209
0.134913
0.134569
0.134175
0.133734
0.133242
0.132691
0.132084
0.131412
0.130674
0.129865
0.128986
0.128033
0.127004
0.125892
0.124686
0.123346
0.121829
0.12013
0.11824
0.116153
0.113862
0.111364
0.108659
0.105749
0.102641
0.0993397
0.0958462
0.0921307
0.0880971
0.0837564
0.0751421
0.136577
0.136539
0.136494
0.13643
0.136351
0.136251
0.13613
0.135988
0.135821
0.135627
0.135405
0.135147
0.134852
0.134513
0.134122
0.133674
0.133158
0.132564
0.131875
0.131078
0.130152
0.129085
0.127859
0.12646
0.124898
0.12316
0.121205
0.118998
0.116497
0.113667
0.110493
0.106972
0.103277
0.099743
0.0974123
0.098952
0.105705
0.12251
0.152887
0.136677
0.136775
0.136843
0.136851
0.136803
0.136711
0.136562
0.136362
0.136124
0.135849
0.13554
0.135199
0.134827
0.134417
0.133971
0.133482
0.132949
0.132367
0.131735
0.131048
0.130302
0.129492
0.128605
0.127612
0.12648
0.125201
0.123762
0.122154
0.120364
0.11838
0.116191
0.113792
0.111175
0.108334
0.105256
0.101913
0.0981446
0.0941783
0.0854656
0.137385
0.137321
0.137264
0.137193
0.137113
0.137018
0.136908
0.136785
0.136647
0.136491
0.136318
0.136121
0.135898
0.135643
0.135351
0.135016
0.134628
0.134182
0.133667
0.133072
0.132379
0.131575
0.130645
0.12958
0.128388
0.127063
0.125574
0.123893
0.121983
0.1198
0.117289
0.114389
0.111045
0.107253
0.10311
0.0996578
0.0992334
0.10703
0.134475
0.137508
0.137584
0.137605
0.13757
0.1375
0.137418
0.137314
0.137168
0.136986
0.136772
0.136527
0.136258
0.135965
0.135646
0.135301
0.134929
0.134526
0.134089
0.133617
0.133104
0.132549
0.131943
0.131278
0.130531
0.129676
0.128705
0.127609
0.126373
0.124986
0.123432
0.121699
0.119772
0.117637
0.11528
0.112677
0.109799
0.10646
0.102953
0.0949432
0.138045
0.137978
0.137917
0.137842
0.13776
0.137666
0.13756
0.137445
0.137319
0.137183
0.137035
0.136873
0.136694
0.136493
0.136267
0.136009
0.135714
0.135373
0.134979
0.134522
0.133989
0.133369
0.132649
0.131824
0.130897
0.129862
0.128698
0.127385
0.125896
0.124199
0.122248
0.120007
0.11743
0.114334
0.110562
0.106076
0.10159
0.100282
0.118776
0.138115
0.138107
0.138045
0.137969
0.137887
0.137834
0.137781
0.137696
0.137576
0.137423
0.13724
0.137033
0.136804
0.136552
0.136281
0.135989
0.135674
0.135334
0.134969
0.134574
0.134147
0.133682
0.133171
0.132597
0.13194
0.131193
0.130346
0.12939
0.12831
0.127095
0.125728
0.124196
0.122481
0.120564
0.118417
0.116009
0.113153
0.11014
0.103125
0.138488
0.138451
0.138405
0.138344
0.138274
0.138193
0.138099
0.137996
0.137883
0.137761
0.13763
0.137489
0.137334
0.137165
0.136978
0.136768
0.136529
0.136258
0.135946
0.135587
0.13517
0.134686
0.134125
0.133479
0.13275
0.131933
0.13101
0.129966
0.128781
0.127432
0.125883
0.124108
0.122184
0.120015
0.117321
0.113594
0.108575
0.101531
0.109214
0.138446
0.138343
0.138226
0.138147
0.13808
0.138059
0.138049
0.138016
0.137953
0.137858
0.137734
0.137586
0.137416
0.137225
0.137014
0.136784
0.136536
0.136267
0.135978
0.135666
0.135329
0.134963
0.134561
0.134109
0.133594
0.133009
0.132346
0.131596
0.130748
0.12979
0.128709
0.12749
0.126116
0.124569
0.12282
0.120838
0.118448
0.115917
0.109953
0.138679
0.138696
0.138683
0.138654
0.138615
0.138564
0.138499
0.138423
0.138335
0.138236
0.138126
0.138004
0.137871
0.137725
0.137564
0.137386
0.137187
0.136962
0.136706
0.136414
0.136078
0.135691
0.135244
0.134732
0.134152
0.1335
0.132762
0.131924
0.13097
0.129882
0.128633
0.127197
0.125659
0.124046
0.122199
0.119653
0.116149
0.107921
0.106548
0.138537
0.138403
0.138308
0.138273
0.138237
0.138226
0.138228
0.138221
0.138194
0.138142
0.138067
0.13797
0.137853
0.137714
0.137558
0.137382
0.137189
0.136977
0.136748
0.136499
0.136229
0.135935
0.135613
0.135251
0.134839
0.134372
0.133845
0.133248
0.132574
0.131811
0.130948
0.129973
0.12887
0.127621
0.126201
0.124581
0.122604
0.120506
0.11554
0.138689
0.138751
0.138774
0.138783
0.138783
0.138771
0.138747
0.13871
0.138658
0.138591
0.138511
0.138416
0.138307
0.138184
0.138047
0.137895
0.137724
0.137533
0.137317
0.137073
0.136794
0.136477
0.136114
0.135701
0.135235
0.13471
0.134113
0.133435
0.132662
0.131778
0.130766
0.129621
0.128381
0.127075
0.12567
0.123861
0.121723
0.115431
0.109031
0.13854
0.138476
0.138475
0.138499
0.138483
0.138449
0.138429
0.138411
0.138388
0.138353
0.138305
0.138242
0.138164
0.138068
0.137957
0.137828
0.137682
0.137519
0.13734
0.137142
0.136926
0.136689
0.136428
0.136134
0.1358
0.135423
0.134997
0.134516
0.133972
0.133358
0.132662
0.131875
0.130983
0.129971
0.128814
0.12749
0.125862
0.124134
0.120058
0.138687
0.138751
0.138789
0.13882
0.138846
0.138865
0.138876
0.138875
0.138859
0.138827
0.138779
0.138716
0.138636
0.138541
0.138431
0.138305
0.138162
0.138
0.137817
0.13761
0.137374
0.137108
0.136806
0.136466
0.136086
0.135658
0.135173
0.13462
0.13399
0.133273
0.132471
0.131587
0.130615
0.129546
0.128381
0.126946
0.125425
0.121677
0.113986
0.138644
0.138708
0.138806
0.138858
0.138835
0.138767
0.138704
0.138652
0.138606
0.13856
0.138513
0.138463
0.138404
0.138336
0.138256
0.138163
0.138056
0.137933
0.137796
0.137641
0.13747
0.137281
0.137069
0.136831
0.136558
0.13625
0.135902
0.13551
0.135066
0.134565
0.133999
0.133357
0.13263
0.131803
0.130857
0.129771
0.12843
0.127004
0.123686
0.138834
0.138849
0.138869
0.138892
0.138916
0.13894
0.138962
0.138977
0.138982
0.138974
0.138953
0.138917
0.138866
0.138799
0.138718
0.13862
0.138505
0.138373
0.138221
0.138047
0.137848
0.137622
0.137368
0.137084
0.136768
0.136415
0.136017
0.135565
0.135057
0.134493
0.133876
0.1332
0.132448
0.131594
0.130622
0.129433
0.128085
0.126012
0.119239
0.138941
0.139094
0.139218
0.13925
0.139209
0.139123
0.13903
0.138944
0.138867
0.138798
0.138736
0.138678
0.138621
0.138562
0.138499
0.138428
0.138347
0.138256
0.138151
0.138033
0.137899
0.137749
0.13758
0.137387
0.137165
0.136913
0.136627
0.136304
0.13594
0.135528
0.135061
0.134534
0.133935
0.133255
0.132475
0.131579
0.130471
0.12929
0.126596
0.139164
0.139112
0.139092
0.13908
0.139077
0.139079
0.139085
0.13909
0.139092
0.139088
0.139077
0.139056
0.139024
0.138981
0.138924
0.138853
0.138766
0.138664
0.138543
0.138402
0.138239
0.13805
0.137836
0.137597
0.137333
0.13704
0.136714
0.136353
0.135956
0.135522
0.135047
0.134522
0.133935
0.133262
0.132471
0.131505
0.13025
0.128951
0.123718
0.13935
0.139478
0.139531
0.139515
0.139477
0.139409
0.139321
0.139228
0.139138
0.139053
0.138974
0.138904
0.138839
0.138778
0.138718
0.138656
0.138591
0.138518
0.138438
0.138346
0.138243
0.138125
0.137991
0.137836
0.137657
0.137451
0.137216
0.13695
0.136649
0.136307
0.13592
0.135483
0.134986
0.134421
0.133774
0.133029
0.132109
0.131125
0.128937
0.139548
0.139461
0.139409
0.139363
0.139328
0.139299
0.139275
0.139254
0.139235
0.139217
0.139198
0.139177
0.139151
0.139119
0.139079
0.139029
0.138968
0.138894
0.138804
0.138697
0.13857
0.13842
0.138248
0.138055
0.137841
0.137606
0.137346
0.137062
0.136752
0.136412
0.136037
0.13562
0.13515
0.134613
0.133975
0.133206
0.132104
0.131093
0.127207
0.139672
0.139674
0.139614
0.139566
0.139559
0.139538
0.139493
0.139429
0.139355
0.139276
0.139197
0.139122
0.139053
0.138987
0.138926
0.138867
0.138808
0.138746
0.13868
0.138608
0.138526
0.138434
0.138328
0.138205
0.13806
0.137892
0.1377
0.137481
0.137231
0.136947
0.136625
0.136259
0.135844
0.135372
0.13483
0.134208
0.133439
0.132614
0.130831
0.13979
0.139732
0.139681
0.139629
0.139583
0.139538
0.139493
0.139451
0.139411
0.139374
0.13934
0.139308
0.139277
0.139246
0.139213
0.139177
0.139136
0.139088
0.139028
0.138955
0.138868
0.138763
0.138641
0.138499
0.138338
0.138156
0.137953
0.137728
0.137479
0.137204
0.136898
0.136555
0.136168
0.135726
0.135204
0.134588
0.133675
0.132796
0.129873
0.139753
0.139623
0.139497
0.139457
0.139484
0.139514
0.139524
0.139508
0.139473
0.139423
0.139364
0.139301
0.139238
0.139177
0.139118
0.139061
0.139006
0.138951
0.138895
0.138835
0.138769
0.138695
0.138611
0.138512
0.138395
0.138259
0.138102
0.137921
0.137713
0.137477
0.137207
0.136901
0.136552
0.136155
0.1357
0.135175
0.134529
0.133834
0.132375
0.139786
0.139801
0.139786
0.139762
0.139736
0.139704
0.139665
0.139621
0.139575
0.13953
0.139487
0.139446
0.139409
0.139375
0.139345
0.139318
0.139293
0.139265
0.139232
0.139189
0.139138
0.139075
0.138998
0.138904
0.138791
0.138658
0.138503
0.138328
0.138129
0.137906
0.137653
0.137367
0.137041
0.136669
0.13623
0.135721
0.134981
0.134215
0.131947
0.139609
0.139443
0.139349
0.139344
0.139377
0.139427
0.13947
0.139494
0.139498
0.139484
0.139456
0.139418
0.139373
0.139326
0.139277
0.139229
0.139181
0.139133
0.139085
0.139035
0.138981
0.138921
0.138853
0.138772
0.138677
0.138565
0.138436
0.138286
0.138114
0.137916
0.13769
0.137433
0.137139
0.136804
0.13642
0.135976
0.135431
0.134842
0.133642
0.139605
0.139683
0.139714
0.139734
0.139745
0.139746
0.139734
0.139711
0.139681
0.139645
0.139606
0.139567
0.13953
0.139498
0.139473
0.139454
0.139439
0.139425
0.139408
0.139384
0.139356
0.139321
0.139277
0.13922
0.139149
0.139059
0.13895
0.13882
0.13867
0.138495
0.138294
0.13806
0.13779
0.137476
0.137104
0.136672
0.136065
0.135412
0.133607
0.139418
0.139343
0.139347
0.139367
0.139371
0.139397
0.139432
0.139463
0.139484
0.139493
0.13949
0.139476
0.139454
0.139426
0.139394
0.13936
0.139324
0.139287
0.139249
0.139208
0.139165
0.139116
0.13906
0.138994
0.138916
0.138823
0.138715
0.13859
0.138446
0.13828
0.138091
0.137874
0.137626
0.137343
0.137018
0.136642
0.136181
0.13568
0.13469
0.139446
0.139529
0.139581
0.139627
0.139665
0.139694
0.139711
0.139717
0.139711
0.139696
0.139675
0.139649
0.139623
0.1396
0.139584
0.139573
0.139566
0.139559
0.139551
0.139537
0.139521
0.139501
0.139477
0.139446
0.139404
0.139349
0.139277
0.139188
0.139081
0.138953
0.138801
0.138621
0.138407
0.138152
0.137843
0.137478
0.136973
0.136423
0.134966
0.139387
0.139453
0.139544
0.139558
0.139519
0.139495
0.139488
0.139492
0.1395
0.139507
0.139509
0.139507
0.1395
0.139488
0.139472
0.139453
0.139432
0.139408
0.139382
0.139353
0.139321
0.139282
0.139237
0.139183
0.139117
0.13904
0.138949
0.138844
0.138722
0.138582
0.138422
0.138239
0.13803
0.13779
0.137514
0.137196
0.136805
0.136382
0.135561
0.13948
0.139507
0.139539
0.139574
0.139608
0.139638
0.139665
0.139684
0.139696
0.1397
0.139696
0.139687
0.139677
0.13967
0.139667
0.139666
0.139667
0.139666
0.139663
0.139655
0.139646
0.139634
0.139621
0.139604
0.139581
0.139549
0.139505
0.139447
0.139374
0.139285
0.139177
0.139046
0.138886
0.138691
0.138446
0.138148
0.137731
0.137275
0.136092
0.139585
0.139734
0.139837
0.139828
0.139763
0.139696
0.139644
0.139608
0.139584
0.139568
0.139558
0.13955
0.139543
0.139536
0.139529
0.139521
0.139512
0.139501
0.139487
0.13947
0.139447
0.13942
0.139384
0.13934
0.139286
0.13922
0.139144
0.139054
0.138951
0.138833
0.138697
0.138541
0.138364
0.138161
0.137927
0.137657
0.137325
0.136972
0.13629
0.13972
0.139674
0.139661
0.139655
0.139655
0.13966
0.13967
0.13968
0.13969
0.139698
0.139702
0.139703
0.139705
0.13971
0.139719
0.139729
0.139737
0.139743
0.139745
0.139743
0.139738
0.139732
0.139725
0.139716
0.139704
0.139687
0.139662
0.139626
0.139579
0.139518
0.139444
0.139352
0.139238
0.139096
0.138914
0.138684
0.138351
0.137983
0.137027
0.139901
0.140017
0.140057
0.140037
0.13998
0.139907
0.139836
0.139774
0.139723
0.139682
0.13965
0.139625
0.139607
0.139594
0.139586
0.139581
0.139578
0.139575
0.13957
0.139562
0.139549
0.13953
0.139504
0.139469
0.139424
0.13937
0.139305
0.139229
0.139141
0.13904
0.138924
0.138792
0.138641
0.138468
0.138269
0.13804
0.137757
0.137474
0.136907
0.140022
0.13994
0.13989
0.139844
0.139807
0.139777
0.139756
0.139742
0.139733
0.139728
0.139725
0.139724
0.139728
0.139738
0.139753
0.139769
0.139784
0.139795
0.139803
0.139807
0.139807
0.139805
0.139802
0.139798
0.139793
0.139784
0.139771
0.139751
0.139721
0.139681
0.139631
0.139567
0.139488
0.139389
0.139259
0.139092
0.138838
0.138554
0.137795
0.140141
0.140143
0.140101
0.140094
0.140075
0.140034
0.13998
0.139922
0.139866
0.139814
0.139767
0.139728
0.139696
0.139672
0.139656
0.139647
0.139643
0.139642
0.139641
0.139638
0.139631
0.139619
0.1396
0.139573
0.139537
0.139492
0.139437
0.139373
0.139298
0.139212
0.139113
0.139
0.138871
0.138724
0.138554
0.13836
0.138118
0.137899
0.13743
0.140201
0.140145
0.140094
0.140037
0.139984
0.139936
0.139892
0.139855
0.139826
0.139802
0.139784
0.139771
0.139766
0.139771
0.139783
0.139799
0.139816
0.139831
0.139842
0.13985
0.139855
0.139858
0.139859
0.139859
0.139858
0.139855
0.139849
0.139839
0.139822
0.139797
0.139764
0.13972
0.139665
0.139596
0.139505
0.139389
0.139205
0.138998
0.138411
0.140181
0.140082
0.140001
0.140016
0.140037
0.140041
0.140027
0.139998
0.139961
0.139918
0.139874
0.139832
0.139793
0.139761
0.139737
0.139721
0.139713
0.139709
0.139708
0.139706
0.139701
0.139693
0.139679
0.139657
0.139628
0.139591
0.139546
0.139492
0.139428
0.139355
0.13927
0.139174
0.139063
0.138937
0.138792
0.138627
0.138424
0.138257
0.137871
0.140181
0.140186
0.140168
0.140135
0.140098
0.140058
0.140014
0.139973
0.139934
0.139899
0.139868
0.139842
0.139825
0.139818
0.139822
0.139832
0.139846
0.13986
0.139872
0.139882
0.139889
0.139895
0.1399
0.139904
0.139906
0.139907
0.139906
0.139902
0.139894
0.13988
0.13986
0.13983
0.139792
0.139744
0.139681
0.139601
0.139471
0.139329
0.138889
0.140052
0.139936
0.139877
0.139899
0.139938
0.139972
0.139992
0.139997
0.139988
0.139969
0.139941
0.139909
0.139876
0.139844
0.139817
0.139798
0.139785
0.139778
0.139774
0.13977
0.139766
0.139758
0.139746
0.139729
0.139704
0.139673
0.139635
0.139589
0.139535
0.139473
0.139401
0.139318
0.139224
0.139115
0.138992
0.138852
0.138684
0.138556
0.138241
0.14003
0.140086
0.140109
0.140116
0.140112
0.140098
0.140076
0.140048
0.140017
0.139985
0.139953
0.139921
0.139895
0.139878
0.139872
0.139873
0.13988
0.139889
0.139899
0.139908
0.139916
0.139923
0.13993
0.139937
0.139942
0.139946
0.139948
0.139948
0.139946
0.13994
0.139929
0.139911
0.139886
0.139852
0.139808
0.139753
0.139662
0.139568
0.139247
0.139897
0.139846
0.139843
0.139849
0.139875
0.139906
0.139936
0.139958
0.13997
0.139971
0.139964
0.139949
0.139928
0.139904
0.139882
0.139864
0.139851
0.139843
0.139837
0.139831
0.139826
0.139818
0.139806
0.13979
0.139769
0.139742
0.139709
0.13967
0.139624
0.139571
0.139509
0.139439
0.139358
0.139265
0.139159
0.139042
0.138905
0.138807
0.13855
0.1399
0.139961
0.140002
0.140035
0.140057
0.14007
0.140073
0.140067
0.140054
0.140036
0.140013
0.139987
0.139961
0.139939
0.139925
0.13992
0.13992
0.139924
0.139929
0.139935
0.139941
0.139947
0.139955
0.139962
0.13997
0.139976
0.13998
0.139983
0.139985
0.139984
0.13998
0.13997
0.139955
0.139933
0.139902
0.139864
0.1398
0.13974
0.13951
0.139854
0.13989
0.139928
0.139909
0.139902
0.139906
0.139919
0.139934
0.139948
0.139957
0.139962
0.13996
0.139953
0.13994
0.139926
0.139913
0.139903
0.139896
0.13989
0.139885
0.139879
0.139871
0.13986
0.139845
0.139825
0.139801
0.139772
0.139738
0.139699
0.139653
0.1396
0.13954
0.139471
0.139391
0.139301
0.139202
0.139091
0.139015
0.138806
0.139898
0.139921
0.139949
0.139979
0.140004
0.140025
0.140041
0.140051
0.140055
0.140052
0.140043
0.140029
0.14001
0.13999
0.139974
0.139964
0.13996
0.139959
0.139961
0.139963
0.139966
0.139971
0.139976
0.139984
0.139992
0.139999
0.140005
0.14001
0.140014
0.140017
0.140017
0.140014
0.140006
0.139993
0.139972
0.139946
0.139901
0.139864
0.139698
0.139956
0.140037
0.14008
0.140045
0.140009
0.139983
0.139966
0.13996
0.139959
0.13996
0.139963
0.139965
0.139964
0.139959
0.139951
0.139944
0.139939
0.139935
0.139932
0.139928
0.139923
0.139916
0.139906
0.139892
0.139874
0.139852
0.139827
0.139797
0.139762
0.139723
0.139677
0.139625
0.139565
0.139497
0.13942
0.139337
0.139246
0.139186
0.139016
0.140025
0.139999
0.139994
0.139998
0.140006
0.140016
0.140027
0.140038
0.140047
0.140052
0.140053
0.140049
0.140039
0.140026
0.140011
0.14
0.139994
0.139992
0.139991
0.139991
0.139992
0.139994
0.139997
0.140003
0.14001
0.140018
0.140025
0.140032
0.140037
0.140042
0.140045
0.140046
0.140044
0.140038
0.140025
0.140008
0.139976
0.139954
0.139834
0.140131
0.140197
0.140216
0.140183
0.14014
0.140097
0.14006
0.140031
0.14001
0.139996
0.139987
0.139983
0.13998
0.139976
0.139971
0.139966
0.139964
0.139962
0.139962
0.139961
0.139958
0.139953
0.139944
0.139932
0.139916
0.139896
0.139873
0.139847
0.139817
0.139782
0.139742
0.139697
0.139646
0.139587
0.13952
0.139449
0.139373
0.139326
0.139187
0.140194
0.140143
0.14011
0.140087
0.140071
0.140061
0.140056
0.140056
0.140058
0.14006
0.140062
0.140062
0.140059
0.140051
0.14004
0.140029
0.140021
0.140017
0.140015
0.140015
0.140015
0.140015
0.140017
0.140022
0.140027
0.140034
0.140042
0.140049
0.140056
0.140062
0.140067
0.140071
0.140073
0.140071
0.140065
0.140055
0.140032
0.140021
0.139932
0.140277
0.140297
0.14029
0.14027
0.140238
0.1402
0.140159
0.14012
0.140086
0.140058
0.140037
0.140021
0.14001
0.140002
0.139995
0.139989
0.139986
0.139984
0.139984
0.139985
0.139984
0.13998
0.139974
0.139964
0.13995
0.139934
0.139913
0.13989
0.139863
0.139833
0.139798
0.139759
0.139714
0.139663
0.139604
0.139542
0.139476
0.139439
0.139323
0.140314
0.14027
0.140232
0.140196
0.140167
0.140142
0.140123
0.140109
0.140099
0.140092
0.140088
0.140084
0.14008
0.140074
0.140066
0.140055
0.140045
0.140038
0.140035
0.140033
0.140033
0.140033
0.140035
0.140038
0.140043
0.140049
0.140056
0.140063
0.14007
0.140077
0.140083
0.140089
0.140094
0.140096
0.140095
0.140091
0.140076
0.140072
0.140004
0.140338
0.140321
0.140304
0.140295
0.140283
0.140262
0.140232
0.140197
0.140161
0.140128
0.140099
0.140075
0.140056
0.140041
0.140029
0.140019
0.140012
0.140008
0.140006
0.140006
0.140005
0.140003
0.139998
0.13999
0.139979
0.139964
0.139947
0.139927
0.139903
0.139876
0.139846
0.139811
0.139772
0.139727
0.139676
0.139621
0.139561
0.139529
0.139433
0.140351
0.140334
0.140309
0.14028
0.140253
0.140228
0.140204
0.140182
0.140163
0.140146
0.140133
0.140122
0.140112
0.140104
0.140095
0.140084
0.140073
0.140062
0.140054
0.140049
0.140047
0.140047
0.140049
0.140052
0.140056
0.140061
0.140067
0.140074
0.140082
0.140089
0.140096
0.140103
0.140109
0.140114
0.140117
0.140118
0.140109
0.140111
0.140058
0.14033
0.140307
0.140295
0.140289
0.14029
0.140284
0.140269
0.140245
0.140217
0.140187
0.140158
0.140131
0.140108
0.140088
0.140072
0.140057
0.140046
0.140037
0.140032
0.140028
0.140026
0.140023
0.140019
0.140012
0.140003
0.13999
0.139976
0.139958
0.139937
0.139914
0.139887
0.139856
0.139821
0.139782
0.139737
0.139687
0.139631
0.139602
0.13952
0.140335
0.140339
0.140332
0.140321
0.140307
0.140291
0.140272
0.140252
0.14023
0.14021
0.14019
0.140173
0.140157
0.140144
0.140131
0.140119
0.140106
0.140092
0.140079
0.140068
0.140061
0.140058
0.140059
0.140062
0.140067
0.140072
0.140078
0.140084
0.140091
0.140098
0.140106
0.140113
0.140121
0.140127
0.140133
0.140138
0.140134
0.140141
0.140099
0.140306
0.140301
0.140298
0.140288
0.14029
0.140291
0.140284
0.14027
0.140251
0.140228
0.140204
0.14018
0.140157
0.140136
0.140117
0.140101
0.140086
0.140073
0.140063
0.140056
0.140051
0.140046
0.14004
0.140033
0.140024
0.140014
0.14
0.139985
0.139967
0.139946
0.139922
0.139895
0.139864
0.139829
0.139789
0.139745
0.139691
0.139663
0.139591
0.140317
0.140325
0.140329
0.140333
0.140333
0.140328
0.140318
0.140304
0.140287
0.140268
0.140248
0.140229
0.14021
0.140192
0.140176
0.14016
0.140146
0.14013
0.140114
0.140098
0.140083
0.140073
0.14007
0.140071
0.140075
0.14008
0.140086
0.140092
0.140099
0.140106
0.140113
0.140121
0.140129
0.140137
0.140144
0.140151
0.140152
0.140163
0.140129
0.140309
0.140324
0.140325
0.140308
0.140305
0.140303
0.140296
0.140285
0.140271
0.140255
0.140238
0.140218
0.140199
0.140179
0.140161
0.140144
0.140128
0.140113
0.1401
0.140089
0.14008
0.140072
0.140065
0.140056
0.140047
0.140036
0.140024
0.14001
0.139993
0.139974
0.139953
0.139929
0.139901
0.13987
0.139835
0.139796
0.139746
0.139715
0.139651
0.140327
0.140326
0.14033
0.140343
0.140347
0.140348
0.140345
0.140338
0.140328
0.140314
0.140298
0.140281
0.140262
0.140243
0.140225
0.140207
0.140189
0.140172
0.140155
0.140137
0.140119
0.1401
0.140087
0.140082
0.140083
0.140087
0.140092
0.140098
0.140104
0.140111
0.140119
0.140127
0.140135
0.140143
0.140151
0.14016
0.140163
0.140178
0.140151
0.140341
0.14036
0.14036
0.140344
0.140335
0.140327
0.140315
0.140302
0.140289
0.140277
0.140263
0.140249
0.140233
0.140216
0.1402
0.140184
0.140168
0.140153
0.140139
0.140125
0.140114
0.140103
0.140093
0.140082
0.140071
0.14006
0.140047
0.140034
0.140018
0.140001
0.139981
0.139959
0.139935
0.139907
0.139875
0.13984
0.139796
0.139762
0.139704
0.140359
0.140349
0.140349
0.140359
0.140362
0.140363
0.140365
0.140362
0.140358
0.14035
0.140338
0.140325
0.140309
0.140292
0.140273
0.140254
0.140235
0.140217
0.140198
0.140179
0.14016
0.14014
0.140119
0.140103
0.140096
0.140096
0.140099
0.140104
0.140109
0.140116
0.140123
0.14013
0.140138
0.140147
0.140155
0.140165
0.140171
0.140189
0.140164
0.140378
0.140387
0.140383
0.140373
0.140363
0.140353
0.14034
0.140325
0.140311
0.140299
0.140287
0.140275
0.140262
0.140249
0.140234
0.140219
0.140205
0.140191
0.140176
0.140162
0.140149
0.140136
0.140124
0.140111
0.140099
0.140086
0.140073
0.140059
0.140044
0.140027
0.140009
0.139988
0.139965
0.13994
0.139911
0.13988
0.139842
0.139805
0.139751
0.140387
0.140378
0.140374
0.140376
0.140377
0.140378
0.14038
0.140381
0.14038
0.140377
0.14037
0.140361
0.140349
0.140334
0.140318
0.140301
0.140282
0.140262
0.140243
0.140223
0.140203
0.140183
0.140161
0.140138
0.14012
0.140111
0.140109
0.140111
0.140114
0.140119
0.140126
0.140133
0.14014
0.140149
0.140158
0.140168
0.140174
0.140195
0.140167
0.140397
0.140395
0.140391
0.140385
0.140377
0.140369
0.140359
0.140347
0.140335
0.140324
0.140312
0.140301
0.140289
0.140277
0.140264
0.140251
0.140238
0.140224
0.140211
0.140197
0.140184
0.14017
0.140156
0.140143
0.140129
0.140114
0.1401
0.140085
0.14007
0.140053
0.140035
0.140016
0.139995
0.139971
0.139945
0.139916
0.139883
0.139847
0.139796
0.1404
0.140395
0.140391
0.14039
0.140389
0.140389
0.14039
0.140392
0.140393
0.140394
0.140393
0.140388
0.14038
0.14037
0.140357
0.140342
0.140326
0.140308
0.140288
0.140268
0.140247
0.140226
0.140204
0.140182
0.140159
0.140138
0.140126
0.140122
0.140121
0.140124
0.140128
0.140134
0.140141
0.140149
0.140158
0.140168
0.140175
0.140198
0.140169
0.140398
0.140391
0.140388
0.140385
0.140381
0.140375
0.140368
0.14036
0.140353
0.140345
0.140335
0.140324
0.140314
0.140303
0.140291
0.140279
0.140267
0.140255
0.140242
0.140229
0.140216
0.140202
0.140189
0.140174
0.140159
0.140144
0.140129
0.140114
0.140098
0.140081
0.140063
0.140044
0.140024
0.140002
0.139977
0.13995
0.13992
0.139887
0.139841
0.140398
0.140398
0.140398
0.140398
0.140398
0.140398
0.140399
0.1404
0.140401
0.140402
0.140403
0.140403
0.140402
0.140398
0.14039
0.140379
0.140365
0.14035
0.140332
0.140313
0.140293
0.140271
0.140249
0.140226
0.140203
0.140179
0.140156
0.14014
0.140133
0.140131
0.140132
0.140136
0.140141
0.140148
0.140156
0.140167
0.140174
0.140197
0.140172
0.14039
0.140388
0.140387
0.140384
0.140381
0.140377
0.140371
0.140366
0.14036
0.140356
0.140351
0.140344
0.140336
0.140326
0.140316
0.140305
0.140294
0.140283
0.140271
0.140259
0.140246
0.140233
0.140219
0.140205
0.14019
0.140175
0.140159
0.140143
0.140127
0.14011
0.140092
0.140073
0.140054
0.140032
0.140009
0.139984
0.139955
0.139925
0.139884
0.140392
0.140395
0.140398
0.140401
0.140403
0.140404
0.140406
0.140407
0.140408
0.140409
0.14041
0.14041
0.140411
0.140411
0.14041
0.140407
0.1404
0.140389
0.140375
0.140358
0.140339
0.140318
0.140296
0.140272
0.140249
0.140225
0.140199
0.140174
0.140154
0.140142
0.140139
0.140139
0.140142
0.140147
0.140154
0.140163
0.14017
0.140193
0.140173
0.140391
0.140396
0.140395
0.140389
0.140384
0.14038
0.140375
0.14037
0.140365
0.140361
0.140357
0.140354
0.14035
0.140345
0.140338
0.140328
0.140318
0.140307
0.140296
0.140285
0.140273
0.140261
0.140248
0.140234
0.14022
0.140205
0.140189
0.140173
0.140157
0.14014
0.140123
0.140104
0.140085
0.140064
0.140042
0.140017
0.139989
0.13996
0.139924
0.140395
0.140397
0.1404
0.140403
0.140406
0.140409
0.140411
0.140413
0.140415
0.140416
0.140417
0.140418
0.140418
0.140418
0.140418
0.140418
0.140417
0.140414
0.140409
0.1404
0.140386
0.140368
0.140346
0.140322
0.140298
0.140273
0.140247
0.14022
0.140193
0.140168
0.140151
0.140144
0.140144
0.140147
0.140151
0.140159
0.140165
0.140187
0.140171
0.140405
0.140415
0.140413
0.140404
0.140396
0.140388
0.140382
0.140376
0.140371
0.140367
0.140363
0.14036
0.140357
0.140354
0.140351
0.140346
0.140339
0.14033
0.14032
0.140309
0.140298
0.140287