/*--------------------------------*- C++ -*----------------------------------*\
| =========                 |                                                 |
| \\      /  F ield         | OpenFOAM: The Open Source CFD Toolbox           |
|  \\    /   O peration     | Version:  2.3.1                                 |
|   \\  /    A nd           | Web:      www.OpenFOAM.org                      |
|    \\/     M anipulation  |                                                 |
\*---------------------------------------------------------------------------*/
FoamFile
{
    version     2.0;
    format      ascii;
    class       volScalarField;
    location    "100";
    object      p;
}
// * * * * * * * * * * * * * * * * * * * * * * * * * * * * * * * * * * * * * //

dimensions      [0 2 -2 0 0 0 0];

internalField   nonuniform List<scalar> 
10720
(
-0.134131
-76.7914
-166.549
-253.547
-332.714
-412.818
-482.662
-540.151
-589.406
-626.926
-654.766
-674.375
-686.828
-693.24
-693.945
-688.368
-677.543
-660.215
-637.555
-608.242
-573.333
-532.082
-486.719
-438.184
-389.911
-346.826
-307.924
-269.704
-231.865
-194.605
-157.73
-121.102
-84.6012
-48.0283
-11.1666
27.0304
66.6578
113.179
156.737
77.7408
148.932
226.344
299.807
364.021
415.057
448.917
463.793
465.812
457.94
440.731
419.251
396.765
374.564
353.423
333.289
314.308
296.132
278.535
261.041
243.606
225.916
208.056
190.417
174.867
162.474
152.211
143.706
136.968
132.059
128.887
127.336
127.32
128.831
131.861
136.788
144.09
157.365
180.204
122.54
63.82
-1.23949
-69.5867
-139.174
-209.801
-277.697
-340.766
-398.463
-449.083
-492.423
-528.569
-557.561
-579.43
-594.081
-601.389
-601.997
-595.477
-582.401
-562.191
-535.444
-501.94
-463.387
-420.962
-377.719
-337.874
-300.976
-264.291
-227.632
-191.286
-155.148
-119.115
-83.0949
-46.9031
-10.3349
27.6386
67.0974
113.557
156.366
175.715
226.792
278.243
328.659
374.083
411.91
438.96
453.288
456.483
450.081
436.257
418.283
398.429
377.962
357.709
337.985
319
300.653
282.797
265.128
247.562
229.897
212.212
194.909
179.444
166.733
156.075
147.159
140.014
134.7
131.144
129.248
128.924
130.163
132.965
137.714
144.878
158.074
179.921
141.793
89.2019
30.6522
-33.3655
-99.1798
-166.082
-232.403
-295.407
-353.553
-405.894
-451.249
-489.332
-519.957
-543.23
-559.371
-568.672
-571.305
-567.099
-556.291
-538.696
-514.659
-484.277
-448.839
-409.647
-369.228
-331.05
-295.217
-259.605
-223.887
-188.319
-152.829
-117.324
-81.7271
-45.8709
-9.56255
28.2068
67.5005
113.803
156.251
189.627
236.551
283.684
328.967
368.953
401.991
425.862
439.499
443.807
439.76
429.024
413.812
396.001
376.946
357.585
338.425
319.745
301.585
283.857
266.353
248.961
231.548
214.177
197.215
181.819
168.885
158.019
148.923
141.607
136.12
132.4
130.351
129.886
130.997
133.692
138.358
145.461
158.546
179.484
170.339
126
75.8631
21.1885
-35.815
-95.0192
-154.677
-212.93
-268.439
-320.081
-366.748
-407.793
-442.77
-471.469
-493.745
-509.566
-518.608
-520.698
-515.841
-503.97
-485.305
-460.1
-429.409
-394.58
-357.804
-322.048
-287.877
-253.732
-219.234
-184.651
-149.975
-115.137
-80.0797
-44.6538
-8.68035
28.8196
67.8869
113.919
156.061
210.325
249.061
288.219
326.507
360.714
389.574
411.104
424.289
429.558
427.508
419.419
406.94
391.567
374.514
356.679
338.616
320.668
302.984
285.562
268.29
251.092
233.9
216.787
200.099
184.788
171.696
160.634
151.329
143.782
138.049
134.083
131.796
131.112
132.029
134.563
139.1
146.099
159.001
179.039
180.841
141.378
96.5225
47.2577
-4.26306
-58.4194
-113.727
-168.502
-221.708
-272.181
-318.782
-360.734
-397.391
-428.263
-453.011
-471.357
-483.006
-487.861
-485.865
-477.049
-461.559
-439.717
-412.39
-380.857
-347.008
-313.325
-280.597
-247.73
-214.345
-180.697
-146.827
-112.677
-78.201
-43.2559
-7.673
29.4984
68.2742
113.939
155.638
216.526
250.903
285.738
319.772
350.175
376.101
395.903
408.729
414.75
414.348
408.533
398.535
385.507
370.473
354.26
337.43
320.374
303.322
286.353
269.442
252.556
235.676
218.891
202.524
187.368
174.195
162.974
153.49
145.747
139.806
135.63
133.144
132.277
133.03
135.424
139.846
146.739
159.432
178.561
188.119
153.099
113.065
69.1013
23.0736
-25.6958
-75.8371
-126.005
-175.426
-223.03
-267.831
-309.069
-346.017
-378.059
-404.731
-425.625
-440.455
-448.943
-450.853
-446.096
-434.717
-416.991
-393.634
-365.82
-335.201
-303.88
-272.815
-241.346
-209.158
-176.501
-143.47
-110.035
-76.1646
-41.7291
-6.57137
30.225
68.6492
113.84
154.979
219.779
250.148
281.114
311.57
338.892
362.455
380.895
393.387
399.927
400.837
396.894
389.05
378.195
365.163
350.677
335.261
319.31
303.096
286.761
270.352
253.884
237.384
220.96
204.924
189.949
176.74
165.39
155.749
147.824
141.678
137.289
134.594
133.53
134.101
136.339
140.627
147.394
159.834
178.039
190.902
159.279
123.017
83.1562
41.4968
-2.90047
-48.7967
-95.0187
-141.043
-185.9
-228.731
-268.839
-305.466
-337.945
-365.719
-388.287
-405.187
-416.06
-420.586
-418.651
-410.287
-395.75
-375.644
-351.012
-323.281
-294.208
-264.797
-234.728
-203.755
-172.115
-139.946
-107.247
-74.0024
-40.0997
-5.3957
30.9876
69.0018
113.612
154.093
219.516
246.87
274.892
302.548
327.433
349.097
366.416
378.566
385.45
387.379
384.957
378.936
370.017
358.863
346.083
332.136
317.393
302.145
286.573
270.777
254.821
238.775
222.765
207.092
192.344
179.163
167.73
157.964
149.88
143.544
138.953
136.056
134.798
135.191
137.272
141.421
148.048
160.196
177.477
191.571
162.837
129.808
93.5256
55.689
15.2328
-26.7124
-69.1224
-111.647
-153.458
-193.804
-232.095
-267.625
-299.727
-327.807
-351.305
-369.684
-382.562
-389.562
-390.451
-385.166
-373.878
-357.066
-335.627
-310.794
-284.044
-256.388
-227.786
-198.085
-167.513
-136.246
-104.316
-71.7255
-38.3786
-4.15476
31.7809
69.3307
113.259
152.987
217.604
242.429
267.987
293.322
316.189
336.267
352.622
364.42
371.514
374.214
373.007
368.505
361.267
351.824
340.673
328.195
314.725
300.542
285.846
270.772
255.424
239.904
224.36
209.083
194.602
181.504
170.032
160.171
151.949
145.439
140.655
137.559
136.108
136.318
138.235
142.233
148.703
160.517
176.877
190.657
164.332
134.029
100.758
66.1674
29.1069
-9.38929
-48.3995
-87.7249
-126.633
-164.493
-200.82
-234.967
-266.304
-294.243
-318.193
-337.578
-351.935
-360.841
-363.97
-361.207
-352.672
-338.745
-320.188
-298.048
-273.555
-247.671
-220.559
-192.159
-162.693
-132.366
-101.239
-69.3342
-36.572
-2.85464
32.6008
69.6402
112.793
151.676
214.539
237.27
260.78
284.167
305.328
324.069
339.574
351.011
358.212
361.487
361.241
357.988
352.189
344.266
334.623
323.567
311.38
298.317
284.574
270.307
255.646
240.721
225.694
210.853
196.682
183.723
172.261
162.339
154.005
147.341
142.376
139.088
137.447
137.472
139.222
143.059
149.355
160.795
176.24
188.794
164.539
136.589
105.938
74.1616
40.0882
4.67283
-31.2528
-67.5923
-103.702
-139.059
-173.272
-205.762
-235.975
-263.343
-287.27
-307.18
-322.563
-332.983
-338.05
-337.566
-331.577
-320.356
-304.529
-284.976
-262.713
-238.631
-213.041
-185.974
-157.651
-128.299
-98.0107
-66.8236
-34.6782
-1.49881
33.4426
69.9331
112.228
150.193
210.832
231.778
253.536
275.255
294.948
312.533
327.28
338.344
345.578
349.274
349.785
347.55
342.965
336.372
328.098
318.38
307.451
295.527
282.788
269.393
255.488
241.219
226.762
212.399
198.58
185.814
174.409
164.462
156.045
149.247
144.114
140.643
138.815
138.656
140.232
143.899
150.002
161.032
175.568
186.314
163.848
137.946
109.572
80.2558
48.8011
16.1124
-17.0562
-50.6716
-84.1715
-117.129
-149.238
-179.984
-208.881
-235.411
-259.008
-279.095
-295.148
-306.698
-313.329
-314.758
-310.973
-302.163
-288.827
-271.689
-251.579
-229.298
-205.246
-179.535
-152.387
-124.043
-94.6254
-64.1897
-32.6951
-0.0885843
34.3016
70.2079
111.572
148.566
206.758
226.164
246.407
266.677
285.092
301.664
315.714
326.408
333.616
337.612
338.71
337.303
333.735
328.292
321.239
312.759
303.032
292.234
280.522
268.043
254.946
241.388
227.548
213.701
200.278
187.756
176.458
166.526
158.055
151.146
145.863
142.218
140.208
139.865
141.263
144.749
150.642
161.226
174.865
183.463
162.57
138.468
112.102
84.9461
55.8146
25.5577
-5.1284
-36.2615
-67.3424
-98.02
-128.06
-157.019
-184.483
-209.98
-232.984
-252.948
-269.348
-281.697
-289.576
-292.627
-290.779
-284.14
-273.091
-258.216
-240.182
-219.69
-197.185
-172.847
-146.901
-119.596
-91.0812
-61.43
-30.6211
1.37601
35.174
70.4602
110.828
146.817
202.511
220.574
239.487
258.481
275.771
291.438
304.845
315.174
322.307
326.509
328.064
327.326
324.604
320.145
314.169
306.813
298.214
288.507
277.818
266.278
254.029
241.226
228.043
214.753
201.767
189.537
178.396
168.518
160.025
153.031
147.614
143.808
141.622
141.096
142.313
145.607
151.273
161.379
174.132
180.406
160.901
138.399
113.813
88.5763
61.51
33.4272
4.97782
-23.9009
-52.762
-81.3061
-109.366
-136.558
-162.533
-186.881
-209.12
-228.738
-245.228
-258.09
-266.924
-271.308
-271.117
-266.392
-257.408
-244.625
-228.568
-209.832
-188.873
-165.917
-141.194
-114.958
-87.3764
-58.5434
-28.4559
2.89433
36.0579
70.6853
110.001
144.963
198.215
215.096
232.829
250.687
266.973
281.826
294.636
304.603
311.628
315.962
317.866
317.665
315.646
312.025
306.988
300.642
293.083
284.413
274.727
264.13
252.749
240.731
228.243
215.545
203.035
191.145
180.207
170.425
161.943
154.89
149.362
145.407
143.052
142.346
143.379
146.471
151.891
161.492
173.373
177.255
158.989
137.918
114.927
91.4012
66.1872
40.0553
13.6228
-13.2082
-40.0316
-66.5923
-92.774
-118.251
-142.729
-165.86
-187.213
-206.309
-222.673
-235.81
-245.332
-250.792
-252.006
-248.954
-241.826
-230.968
-216.78
-199.753
-180.327
-158.756
-135.272
-110.13
-83.5115
-55.5295
-26.1987
4.46666
36.9539
70.88
109.095
143.011
193.956
209.783
226.462
243.295
258.681
272.791
285.04
294.658
301.548
305.958
308.126
308.355
306.915
304.003
299.781
294.331
287.721
280.023
271.3
261.633
251.127
239.913
228.147
216.074
204.075
192.567
181.879
172.234
163.799
156.716
151.097
147.009
144.495
143.612
144.458
147.338
152.495
161.567
172.591
174.087
156.935
137.153
115.598
93.6123
70.0625
45.6937
21.0841
-3.88359
-28.8359
-53.5603
-77.979
-101.815
-124.828
-146.715
-167.1
-185.549
-201.62
-214.836
-224.819
-231.12
-233.499
-231.892
-226.41
-217.305
-204.868
-189.487
-171.569
-151.377
-129.142
-105.115
-79.4882
-52.3885
-23.8498
6.09333
37.8623
71.0451
108.114
140.97
189.792
204.669
220.396
236.3
250.871
264.298
276.021
285.298
292.036
296.474
298.838
299.41
298.447
296.134
292.614
287.955
282.202
275.401
267.591
258.825
249.187
238.786
227.761
216.337
204.881
193.795
183.4
173.933
165.579
158.496
152.81
148.607
145.944
144.888
145.545
148.205
153.083
161.605
171.79
170.953
154.814
136.2
115.947
95.3503
73.311
50.5398
27.5834
4.31467
-18.9234
-41.9535
-64.7267
-87.0059
-108.596
-129.244
-148.618
-166.332
-181.98
-195.113
-205.358
-212.293
-215.623
-215.244
-211.209
-203.687
-192.876
-179.069
-162.623
-143.796
-122.815
-99.9193
-75.3087
-49.1216
-21.4084
7.77522
38.7846
71.1808
107.066
138.849
185.756
199.776
214.635
229.693
243.519
256.313
267.541
276.486
283.058
287.491
289.996
290.839
290.269
288.459
285.542
281.574
276.589
270.609
263.652
255.749
246.958
237.366
227.091
216.337
205.451
194.821
184.76
175.51
167.273
160.221
154.493
150.192
147.392
146.171
146.638
149.068
153.652
161.609
170.974
167.894
152.674
135.126
116.062
96.7276
76.0616
54.7425
33.2938
11.5761
-10.0936
-31.5603
-52.7991
-73.6119
-93.8388
-113.271
-131.62
-148.542
-163.672
-176.591
-186.936
-194.317
-198.402
-199.053
-196.275
-190.169
-180.853
-168.537
-153.517
-136.034
-116.302
-94.5498
-70.9764
-45.7294
-18.8747
9.51253
39.721
71.289
105.957
136.657
181.873
195.111
209.177
223.457
236.6
248.804
259.563
268.187
274.583
278.984
281.586
282.641
282.392
281.006
278.605
275.241
270.936
265.701
259.535
252.447
244.473
235.677
226.152
216.079
205.785
195.64
185.948
176.954
168.87
161.879
156.136
151.757
148.834
147.454
147.731
149.925
154.201
161.581
170.148
164.932
150.556
133.987
116.009
97.829
78.4162
58.4253
38.3518
18.0546
-2.17426
-22.1985
-42.0156
-61.4532
-80.3867
-98.6404
-115.967
-132.067
-146.607
-159.209
-169.517
-177.184
-181.85
-183.35
-181.651
-176.799
-168.849
-157.931
-144.28
-128.11
-109.618
-89.0148
-66.4958
-42.2138
-16.2489
11.3053
40.673
71.371
104.796
134.405
178.156
190.678
204.013
217.577
230.088
241.74
252.055
260.366
266.583
270.93
273.595
274.815
274.829
273.796
271.836
268.996
265.293
260.728
255.286
248.96
241.766
233.742
224.959
215.571
205.884
196.25
186.959
178.255
170.358
163.46
157.728
153.294
150.262
148.732
148.819
150.772
154.728
161.524
169.314
162.085
148.485
132.818
115.841
98.7186
80.4563
61.6825
42.8718
23.8752
4.97099
-13.7236
-32.2213
-50.3749
-68.084
-85.2068
-101.529
-116.793
-130.7
-142.906
-153.072
-160.884
-165.976
-168.163
-167.376
-163.623
-156.907
-147.29
-134.944
-120.049
-102.778
-83.3246
-61.8729
-38.5782
-13.5327
13.1535
41.6406
71.4287
103.59
132.103
174.612
186.474
199.136
212.035
223.955
235.093
244.985
252.994
259.028
263.305
266.004
267.351
267.578
266.842
265.258
262.872
259.699
255.732
250.949
245.329
238.869
231.588
223.531
214.826
205.754
196.65
187.787
179.406
171.728
164.954
159.261
154.793
151.668
149.998
149.899
151.605
155.231
161.441
168.479
159.363
146.482
131.647
115.595
99.4473
82.2444
64.5915
46.9392
29.14
11.4552
-6.01071
-23.2854
-40.2393
-56.796
-72.8408
-88.1903
-102.619
-115.866
-127.618
-137.558
-145.397
-150.784
-153.509
-153.483
-150.683
-145.072
-136.654
-125.543
-111.877
-95.8028
-77.4919
-57.1155
-34.8271
-10.7282
15.056
42.6249
71.465
102.348
129.764
171.243
182.497
194.531
206.813
218.183
228.833
238.325
246.041
251.891
256.087
258.798
260.24
260.641
260.154
258.889
256.896
254.186
250.751
246.564
241.593
235.819
229.244
221.889
213.858
205.404
196.841
188.43
180.399
172.971
166.351
160.724
156.245
153.045
151.245
150.964
152.421
155.708
161.335
167.647
156.771
144.557
130.496
115.301
100.055
83.8307
67.2116
50.6284
33.9328
17.373
1.04024
-15.1002
-30.9383
-46.4134
-61.4343
-75.8469
-89.4541
-102.026
-113.282
-122.931
-130.701
-136.269
-139.403
-139.999
-138.016
-133.386
-126.064
-116.11
-103.62
-88.7117
-71.5313
-52.2335
-30.9663
-7.83867
17.0115
43.6271
71.484
101.082
127.401
168.052
178.738
190.188
201.892
212.747
222.939
232.049
239.483
245.148
249.253
251.959
253.472
254.013
253.733
252.741
251.086
248.781
245.818
242.166
237.785
232.648
226.737
220.057
212.683
204.843
196.83
188.886
181.229
174.078
167.641
162.107
157.64
154.384
152.466
152.008
153.215
156.158
161.208
166.822
154.312
142.719
129.379
114.983
100.572
85.2555
69.5938
53.9978
38.3243
22.8034
7.51925
-7.57139
-22.3701
-36.8328
-50.8883
-64.4023
-77.209
-89.1048
-99.8392
-109.147
-116.771
-122.421
-125.852
-126.947
-125.655
-121.886
-115.558
-106.68
-95.3076
-81.5279
-65.4596
-47.2381
-27.0031
-4.86811
19.0192
44.649
71.4906
99.8019
125.028
165.033
175.191
186.093
197.258
207.628
217.386
226.132
233.292
238.776
242.784
245.472
247.034
247.688
247.581
246.82
245.457
243.506
240.959
237.785
233.94
229.387
224.098
218.057
211.319
204.084
196.622
189.156
181.893
175.045
168.816
163.401
158.971
155.676
153.654
153.026
153.983
156.58
161.065
166.009
151.987
140.973
128.307
114.657
101.022
86.55
71.7768
57.0969
42.3681
27.8108
13.4976
-0.617792
-14.4498
-27.9662
-41.1118
-53.772
-65.8044
-77.0317
-87.2304
-96.1605
-103.579
-109.227
-112.857
-114.344
-113.628
-110.607
-105.171
-97.2868
-86.9698
-74.2754
-59.295
-42.1424
-22.9459
-1.82064
21.0776
45.6928
71.4908
98.5193
122.66
162.183
171.847
182.236
192.893
202.807
212.154
220.553
227.449
232.753
236.661
239.319
240.914
241.658
241.696
241.132
240.02
238.377
236.196
233.446
230.084
226.066
221.353
215.916
209.787
203.142
196.226
189.245
182.39
175.864
169.869
164.597
160.226
156.913
154.8
154.011
154.722
156.972
160.906
165.212
149.793
139.323
127.288
114.335
101.425
87.74
73.7937
59.9644
46.1136
32.4482
19.0358
5.82559
-7.1059
-19.7375
-32.0273
-43.8782
-55.1679
-65.7399
-75.3976
-83.9246
-91.092
-96.6724
-100.417
-102.201
-101.956
-99.5795
-94.9386
-87.9643
-78.6373
-66.9798
-53.0573
-36.9601
-18.8042
1.29785
23.1855
46.7611
71.4919
97.2466
120.312
159.498
168.699
178.605
188.785
198.267
207.222
215.29
221.931
227.059
230.864
233.484
235.099
235.915
236.072
235.676
234.78
233.405
231.546
229.174
226.244
222.712
218.53
213.657
208.108
202.032
195.653
189.157
182.721
176.534
170.793
165.688
161.398
158.085
155.898
154.957
155.427
157.334
160.736
164.435
147.728
137.769
126.326
114.028
101.797
88.8456
75.6714
62.6348
49.5996
36.7635
24.1878
11.8195
-0.274592
-12.0812
-23.5676
-34.6531
-45.2326
-55.1691
-64.2888
-72.3962
-79.2795
-84.737
-88.527
-90.5233
-90.6594
-88.8309
-84.8919
-78.7448
-70.3392
-59.6675
-46.7669
-31.7081
-14.5886
4.48232
25.3409
47.8572
71.5008
95.9957
118
156.971
165.736
175.188
184.916
193.99
202.573
210.324
216.72
221.676
225.376
227.953
229.577
230.448
230.706
230.452
229.743
228.601
227.023
224.984
222.441
219.348
215.651
211.303
206.3
200.771
194.915
188.901
182.888
177.053
171.583
166.665
162.478
159.185
156.938
155.858
156.095
157.664
160.556
163.682
145.789
136.31
125.425
113.741
102.146
89.8835
77.4308
65.1334
52.8587
40.7948
28.9969
17.412
6.0986
-4.93772
-15.6715
-26.0347
-35.938
-45.2622
-53.852
-61.5332
-68.1081
-73.4003
-77.1777
-79.317
-79.7528
-78.3843
-75.0593
-69.6581
-62.1044
-52.3635
-40.4473
-26.4021
-10.3106
7.7247
27.5431
48.9831
71.526
94.7786
115.736
154.596
162.952
171.974
181.275
189.96
198.189
205.637
211.798
216.587
220.182
222.71
224.334
225.249
225.59
225.457
224.908
223.968
222.637
220.892
218.694
215.995
212.741
208.876
204.386
199.376
194.026
188.484
182.894
177.419
172.236
167.524
163.459
160.205
157.914
156.707
156.72
157.962
160.367
162.955
143.971
134.945
124.586
113.482
102.484
90.8664
79.0896
67.4836
55.9188
44.5752
33.5016
22.6458
12.0591
1.74275
-8.28648
-17.9697
-27.2313
-35.9675
-44.0398
-51.294
-57.5458
-62.6389
-66.3576
-68.5792
-69.2439
-68.2581
-65.4668
-60.7339
-53.9624
-45.0949
-34.1198
-21.0612
-5.983
11.0193
29.7876
50.1424
71.575
93.6053
113.534
152.367
160.335
168.952
177.848
186.165
194.057
201.215
207.149
211.775
215.266
217.742
219.359
220.306
220.716
220.687
220.276
219.511
218.396
216.91
215.017
212.671
209.818
206.397
202.384
197.866
192.999
187.917
182.747
177.636
172.75
168.259
164.334
161.137
158.819
157.498
157.3
158.226
160.172
162.258
142.27
133.672
123.81
113.252
102.815
91.8053
80.6627
69.7029
58.8026
48.131
37.7333
27.5566
17.6483
8.00334
-1.36551
-10.4092
-19.0636
-27.2379
-34.8092
-41.6394
-47.5611
-52.4302
-56.0536
-58.308
-59.1408
-58.4679
-56.1351
-51.9975
-45.9403
-37.8882
-27.8075
-15.7023
-1.61981
14.3568
32.0738
51.3372
71.6549
92.4879
111.407
150.277
157.88
166.112
174.623
182.589
190.16
197.04
202.756
207.224
210.612
213.034
214.639
215.611
216.078
216.136
215.844
215.232
214.305
213.046
211.424
209.393
206.901
203.886
200.314
196.256
191.849
187.211
182.452
177.706
173.124
168.866
165.097
161.974
159.645
158.226
157.83
158.456
159.971
161.591
140.681
132.488
123.096
113.054
103.146
92.7073
82.1611
71.8082
61.5295
51.486
41.7202
32.1773
22.9012
13.8843
5.13307
-3.31075
-11.3919
-19.0311
-26.1197
-32.5333
-38.1217
-42.7507
-46.2487
-48.4969
-49.4465
-49.0247
-47.0839
-43.4717
-38.0637
-30.7685
-21.5338
-10.3458
2.76617
17.7282
34.3975
52.5704
71.7759
91.436
109.366
148.319
155.576
163.443
171.588
179.222
186.486
193.1
198.605
202.92
206.207
208.574
210.162
211.151
211.666
211.798
211.609
211.129
210.366
209.307
207.923
206.174
204.007
201.359
198.192
194.563
190.591
186.378
182.019
177.634
173.359
169.344
165.744
162.711
160.386
158.885
158.307
158.65
159.765
160.957
139.199
131.389
122.442
112.888
103.48
93.5804
83.5951
73.8121
64.1166
54.6616
45.4857
36.5354
27.8498
19.4191
11.2457
3.36522
-4.17571
-11.3069
-17.933
-23.9419
-29.1984
-33.5773
-36.9283
-39.1363
-40.1602
-39.9374
-38.3278
-35.1775
-30.3554
-23.7588
-15.3203
-5.00984
7.15915
21.1256
36.7552
53.8446
71.9439
90.4605
107.425
146.488
153.416
160.936
168.734
176.05
183.021
189.38
194.683
198.85
202.037
204.348
205.917
206.918
207.471
207.667
207.566
207.201
206.581
205.697
204.524
203.023
201.147
198.832
196.037
192.805
189.24
185.43
181.457
177.425
173.458
169.692
166.272
163.341
161.037
159.469
158.727
158.806
159.554
160.354
137.819
130.373
121.847
112.757
103.82
94.4286
84.972
75.7252
66.577
57.6732
49.0497
40.6535
32.5197
24.6371
17.0046
9.65217
2.61961
-4.031
-10.2151
-15.8327
-20.762
-24.8861
-28.0742
-30.2171
-31.2795
-31.21
-29.8782
-27.132
-22.8367
-16.8818
-9.18881
0.286665
11.5451
24.538
39.1435
55.1611
72.1669
89.5699
105.593
144.776
151.392
158.583
166.05
173.062
179.754
185.868
190.977
195.002
198.092
200.346
201.893
202.9
203.485
203.735
203.71
203.445
202.949
202.219
201.231
199.951
198.333
196.318
193.861
190.995
187.81
184.38
180.775
177.087
173.423
169.909
166.678
163.863
161.594
159.975
159.087
158.925
159.336
159.783
136.536
129.435
121.31
112.658
104.167
95.2564
86.2984
77.5556
68.9219
60.5356
52.4294
44.5518
36.9342
29.5643
22.4377
15.5802
9.02596
2.82922
-2.93467
-8.17642
-12.7856
-16.655
-19.6693
-21.727
-22.7997
-22.8452
-21.7442
-19.3494
-15.5252
-10.1577
-3.15943
5.52487
15.9091
27.9563
41.558
56.5211
72.4513
88.7726
103.88
143.177
149.497
156.375
163.526
170.249
176.673
182.553
187.475
191.362
194.358
196.556
198.079
199.089
199.698
199.994
200.036
199.856
199.47
198.873
198.047
196.963
195.575
193.829
191.679
189.148
186.314
183.24
179.985
176.627
173.261
169.999
166.961
164.272
162.052
160.399
159.384
159.004
159.113
159.242
135.344
128.571
120.827
112.591
104.523
96.0664
87.5794
79.3124
71.1625
63.2622
55.6407
48.2486
41.1139
34.2229
27.5701
21.1764
15.0715
9.30252
3.93699
-0.944784
-5.24389
-8.86092
-11.6957
-13.6544
-14.7143
-14.843
-13.932
-11.8409
-8.43723
-3.60467
2.74896
10.6881
20.2367
31.3703
43.9937
57.926
72.8025
88.0759
102.294
141.686
147.723
154.303
161.153
167.599
173.768
179.423
184.166
187.92
190.824
192.967
194.465
195.473
196.104
196.438
196.536
196.431
196.139
195.66
194.977
194.063
192.881
191.375
189.501
187.276
184.766
182.023
179.098
176.055
172.977
169.964
167.123
164.568
162.409
160.737
159.616
159.043
158.881
158.729
134.24
127.779
120.396
112.555
104.888
96.8612
88.8194
81.0005
73.3069
65.8632
58.6969
51.7596
45.0771
38.6344
32.4243
26.4648
20.7814
15.4149
10.4265
5.88741
1.88713
-1.48283
-4.13556
-5.98507
-7.01478
-7.20089
-6.44505
-4.6159
-1.58538
2.76124
8.51959
15.7593
24.5142
34.7699
46.4456
59.3747
73.2257
87.4859
100.841
140.296
146.065
152.361
158.923
165.105
171.029
176.469
181.04
184.666
187.48
189.568
191.04
192.045
192.691
193.058
193.205
193.165
192.955
192.577
192.019
191.257
190.255
188.964
187.339
185.391
183.177
180.741
178.124
175.379
172.579
169.809
167.166
164.75
162.663
160.988
159.78
159.04
158.64
158.242
133.218
127.053
120.015
112.549
105.262
97.6421
90.0212
82.6258
75.3615
68.3476
61.6086
55.0977
48.8384
42.8154
37.0199
31.4671
26.1787
21.1908
16.5578
12.3441
8.63002
5.49971
3.02793
1.29368
0.307894
0.0860007
0.715726
2.31955
5.01956
8.92692
14.1371
20.7239
28.7281
38.1451
48.908
60.8668
73.7235
87.0067
99.5279
139.002
144.515
150.54
156.828
162.757
168.446
173.68
178.086
181.588
184.316
186.35
187.794
188.794
189.452
189.847
190.035
190.051
189.913
189.624
189.175
188.545
187.702
186.602
185.2
183.503
181.559
179.405
177.073
174.609
172.073
169.539
167.092
164.82
162.815
161.151
159.876
158.993
158.388
157.777
132.273
126.391
119.68
112.571
105.644
98.4106
91.1881
84.1924
77.3329
70.7235
64.386
58.2752
52.4127
46.7822
41.3744
36.202
31.2839
26.6515
22.3532
18.4472
15.0058
12.1062
9.81251
8.1967
7.26406
7.0231
7.55141
8.96227
11.3699
14.8809
19.5884
25.5681
32.8661
41.4863
51.375
62.4006
74.2979
86.6419
98.3572
137.798
143.068
148.834
154.86
160.547
166.012
171.048
175.294
178.678
181.322
183.304
184.72
185.712
186.38
186.797
187.02
187.085
187.008
186.796
186.442
185.928
185.226
184.294
183.092
181.621
179.922
178.026
175.957
173.755
171.469
169.161
166.906
164.78
162.864
161.224
159.903
158.902
158.123
157.331
131.401
125.788
119.389
112.62
106.035
99.1668
92.3215
85.7036
79.2262
72.9976
67.0377
61.3023
55.8117
50.5488
45.5039
40.6873
36.1156
31.8163
27.8327
24.2167
21.034
18.3554
16.235
14.7377
13.8644
13.6177
14.0654
15.311
17.4605
20.6143
24.8623
30.2801
36.917
44.784
53.8406
63.9733
74.9501
86.3931
97.3314
136.679
141.717
147.236
153.011
158.467
163.717
168.563
172.657
175.926
178.49
180.419
181.808
182.791
183.464
183.9
184.154
184.26
184.237
184.092
183.82
183.408
182.829
182.046
181.021
179.753
178.275
176.613
174.786
172.826
170.774
168.682
166.613
164.634
162.813
161.21
159.859
158.765
157.842
156.899
130.597
125.24
119.138
112.692
106.432
99.9116
93.4233
87.1625
81.0462
75.1761
69.571
64.1882
59.046
54.1274
49.4218
44.9383
40.6905
36.703
33.0144
29.6717
26.7332
24.2643
22.3111
20.931
20.1214
19.8785
20.2622
21.3663
23.2881
26.1208
29.9502
34.8496
40.8704
48.0297
56.2984
65.5813
75.6792
86.261
96.4514
135.64
140.457
145.739
151.275
156.51
161.554
166.218
170.165
173.324
175.809
177.688
179.049
180.022
180.699
181.15
181.429
181.571
181.593
181.506
181.306
180.982
180.511
179.859
178.991
177.904
176.625
175.175
173.57
171.833
169.999
168.111
166.22
164.386
162.665
161.108
159.746
158.582
157.542
156.478
129.858
124.745
118.926
112.788
106.836
100.645
94.4949
88.572
82.7959
77.2638
71.9925
66.9409
62.1254
57.5289
53.1408
48.9686
45.0236
41.3277
37.9154
34.829
32.1208
29.8501
28.0569
26.7909
26.0462
25.8145
26.1481
27.1307
28.8516
31.3962
34.8451
39.2681
44.7174
51.215
58.7418
67.2207
76.4831
86.2441
95.7162
134.676
139.281
144.339
149.644
154.668
159.515
164.004
167.811
170.864
173.273
175.102
176.435
177.397
178.076
178.539
178.839
179.011
179.073
179.036
178.898
178.65
178.273
177.736
177.007
176.081
174.98
173.721
172.316
170.784
169.151
167.454
165.735
164.042
162.423
160.923
159.565
158.352
157.223
156.063
129.178
124.299
118.749
112.903
107.244
101.367
95.5372
89.9337
84.4792
79.2656
74.3085
69.5677
65.0584
60.7636
56.6724
52.791
49.1287
45.7052
42.5513
39.7047
37.2128
35.1285
33.4872
32.3309
31.6512
31.4362
31.7302
32.6087
34.152
36.4383
39.5419
43.529
48.4506
54.3323
61.1646
68.8864
77.3586
86.34
95.1238
133.782
138.186
143.028
148.115
152.936
157.594
161.915
165.586
168.538
170.873
172.654
173.96
174.908
175.587
176.06
176.378
176.575
176.671
176.676
176.592
176.41
176.114
175.679
175.072
174.289
173.347
172.259
171.035
169.688
168.241
166.721
165.164
163.608
162.093
160.656
159.317
158.075
156.882
155.651
128.555
123.898
118.605
113.038
107.657
102.076
96.5508
91.2494
86.0986
81.1853
76.5235
72.0747
67.8526
63.8403
60.0267
56.4169
53.0186
49.8492
46.9362
44.3137
42.024
40.1146
38.6166
37.565
36.9489
36.7537
37.0169
37.8059
39.1922
41.247
44.0381
47.6271
52.0635
57.3751
63.5602
70.573
78.3013
86.5447
94.6711
132.955
137.167
141.803
146.679
151.306
155.784
159.944
163.485
166.338
168.603
170.336
171.614
172.549
173.227
173.706
174.039
174.257
174.382
174.424
174.385
174.26
174.035
173.687
173.188
172.531
171.729
170.795
169.733
168.555
167.276
165.921
164.515
163.091
161.681
160.313
159.004
157.753
156.517
155.237
127.985
123.539
118.491
113.189
108.072
102.773
97.5362
92.5206
87.6565
83.0264
78.6425
74.468
70.515
66.7672
63.2129
59.8565
56.7045
53.7719
51.0834
48.6697
46.5687
44.823
43.4591
42.5065
41.9518
41.7782
42.0173
42.7289
43.9765
45.8238
48.3324
51.5592
55.5509
60.3372
65.9225
72.2745
79.3059
86.8534
94.3529
132.189
136.218
140.657
145.333
149.774
154.078
158.083
161.499
164.258
166.454
168.141
169.391
170.313
170.987
171.472
171.816
172.052
172.201
172.273
172.273
172.197
172.033
171.762
171.357
170.81
170.133
169.334
168.418
167.391
166.266
165.062
163.798
162.5
161.193
159.898
158.63
157.384
156.126
154.819
127.463
123.218
118.404
113.354
108.489
103.458
98.4935
93.7484
89.1553
84.792
80.6697
76.7526
73.0519
69.5514
66.2395
63.1195
60.1968
57.4846
55.0051
52.7856
50.8603
49.2666
48.0281
47.1682
46.6721
46.5212
46.7413
47.3856
48.5102
50.1718
52.4255
55.3233
58.9093
63.2134
68.2453
73.9849
80.3661
87.2596
94.1636
131.481
135.335
139.587
144.07
148.334
152.471
156.328
159.623
162.29
164.42
166.063
167.285
168.192
168.862
169.349
169.703
169.954
170.122
170.221
170.254
170.22
170.108
169.902
169.579
169.13
168.562
167.884
167.096
166.205
165.219
164.152
163.02
161.841
160.634
159.417
158.198
156.972
155.71
154.392
126.987
122.935
118.342
113.532
108.906
104.128
99.4231
94.9339
90.5966
86.4848
82.6085
78.9333
75.4689
72.1998
69.1142
66.2148
63.5055
60.9983
58.7128
56.6736
54.9113
53.4588
52.3366
51.563
51.1221
50.9936
51.199
51.7845
52.7999
54.2951
56.3191
58.919
62.136
65.9995
70.5234
75.6976
81.4751
87.7564
94.0965
130.828
134.514
138.587
142.887
146.98
150.957
154.672
157.852
160.43
162.495
164.094
165.289
166.181
166.845
167.334
167.694
167.957
168.142
168.263
168.324
168.325
168.258
168.109
167.857
167.492
167.02
166.447
165.774
165.004
164.143
163.201
162.19
161.122
160.014
158.875
157.711
156.518
155.267
153.954
126.554
122.684
118.303
113.721
109.322
104.785
100.325
96.0779
91.9821
88.1074
84.4626
81.0144
77.7715
74.7186
71.8442
69.1501
66.6393
64.3226
62.2171
60.345
58.7333
57.4115
56.3969
55.7034
55.314
55.2072
55.4007
55.9347
56.8529
58.1991
60.0165
62.3473
65.2295
68.6918
72.7512
77.406
82.6252
88.3358
94.1438
130.225
133.752
137.653
141.777
145.708
149.533
153.11
156.178
158.672
160.674
162.229
163.397
164.274
164.931
165.419
165.785
166.057
166.256
166.394
166.478
166.509
166.481
166.38
166.189
165.898
165.51
165.03
164.457
163.794
163.045
162.216
161.316
160.353
159.338
158.278
157.175
156.023
154.797
153.504
126.159
122.464
118.284
113.92
109.736
105.428
101.199
97.1811
93.3133
89.6621
86.2349
82.9998
79.9645
77.1137
74.4362
71.9332
69.607
67.4668
65.5282
63.8105
62.3381
61.1367
60.2209
59.6012
59.2592
59.1731
59.3569
59.8457
60.6774
61.8901
63.5218
65.6101
68.1896
71.2879
74.9243
79.1037
83.8091
88.9894
94.2971
129.669
133.045
136.782
140.738
144.513
148.191
151.637
154.598
157.009
158.95
160.464
161.604
162.464
163.114
163.6
163.969
164.248
164.458
164.611
164.715
164.771
164.774
164.715
164.577
164.349
164.035
163.635
163.151
162.583
161.933
161.205
160.406
159.54
158.614
157.633
156.594
155.491
154.301
153.039