/*--------------------------------*- C++ -*----------------------------------*\
| =========                 |                                                 |
| \\      /  F ield         | OpenFOAM: The Open Source CFD Toolbox           |
|  \\    /   O peration     | Version:  2.3.1                                 |
|   \\  /    A nd           | Web:      www.OpenFOAM.org                      |
|    \\/     M anipulation  |                                                 |
\*---------------------------------------------------------------------------*/
FoamFile
{
    version     2.0;
    format      ascii;
    class       surfaceScalarField;
    location    "100";
    object      phi;
}
// * * * * * * * * * * * * * * * * * * * * * * * * * * * * * * * * * * * * * //

dimensions      [0 3 -1 0 0 0 0];

internalField   nonuniform List<scalar> 
21254
(
-0.249989
0.269164
-0.0191375
0.29078
-0.0216113
0.309071
-0.0182984
0.32525
-0.0161782
0.340477
-0.0152314
0.352404
-0.0119273
0.361606
-0.00920579
0.36892
-0.00731535
0.373421
-0.00450106
0.376202
-0.00278041
0.377483
-0.00127966
0.377013
0.000470239
0.375184
0.00182915
0.372087
0.00309722
0.367676
0.00441136
0.362273
0.00540374
0.355686
0.0065867
0.348018
0.00766834
0.33912
0.00889803
0.329219
0.00990044
0.317989
0.0112306
0.306
0.0119888
0.29352
0.0124796
0.28185
0.0116709
0.272178
0.0096722
0.263813
0.00836496
0.255621
0.00819243
0.247279
0.00834284
0.238449
0.00882889
0.229038
0.00940899
0.219015
0.0100238
0.208356
0.0106605
0.196973
0.0113829
0.184596
0.0123746
0.170658
0.0139402
0.154052
0.0166052
0.132455
0.0215979
0.101139
0.03132
0.0900015
0.0112354
-0.227136
-0.0228519
-0.203529
-0.0235951
-0.174267
-0.0292641
-0.141976
-0.0322866
-0.107804
-0.0341756
-0.0723177
-0.0354874
-0.0370625
-0.0352553
-0.00408358
-0.032976
0.025859
-0.0299388
0.0526449
-0.0267836
0.0756249
-0.0229788
0.0952125
-0.019587
0.111767
-0.0165539
0.125643
-0.0138761
0.137545
-0.0119022
0.147813
-0.0102684
0.156931
-0.00911861
0.165145
-0.00821421
0.172772
-0.00762688
0.179944
-0.00717169
0.186838
-0.00689363
0.193452
-0.00661425
0.199725
-0.00627259
0.205037
-0.00531213
0.209201
-0.00416385
0.212492
-0.00329094
0.214908
-0.00241662
0.216564
-0.0016559
0.2175
-0.000935241
0.217708
-0.000208085
0.21706
0.000647827
0.215628
0.00143251
0.213538
0.00209004
0.210879
0.00265933
0.207547
0.00333212
0.203169
0.00437843
0.196706
0.00646329
0.183161
0.0135415
0.164212
0.0189526
-0.228742
0.250179
-0.0405643
0.272042
-0.0434727
0.294788
-0.0410443
0.315937
-0.0373265
0.336505
-0.0358014
0.355463
-0.0308868
0.372434
-0.026178
0.387684
-0.0225674
0.400809
-0.0176254
0.411876
-0.0138467
0.420961
-0.0103633
0.428284
-0.00685283
0.434097
-0.00398291
0.438396
-0.00120146
0.441046
0.00176145
0.441744
0.00470608
0.440437
0.00789326
0.437273
0.0108329
0.431769
0.0144022
0.42424
0.0174289
0.414309
0.0211614
0.402295
0.0240033
0.388218
0.0265567
0.372747
0.0271422
0.357161
0.0252593
0.341899
0.0236269
0.327044
0.0230489
0.312791
0.022596
0.298942
0.0226772
0.285334
0.0230158
0.271746
0.0236118
0.257999
0.0244067
0.243827
0.0255538
0.228984
0.0272172
0.213025
0.0298988
0.194859
0.0347707
0.173118
0.0433393
0.138872
0.0655703
0.0999301
0.0502434
-0.206784
-0.044804
-0.183245
-0.0471293
-0.155648
-0.0568594
-0.126389
-0.0615459
-0.0952396
-0.0653253
-0.0626257
-0.0681034
-0.0300646
-0.0678154
0.00120597
-0.0642444
0.0301359
-0.0588665
0.0559273
-0.0525734
0.0785535
-0.045604
0.0982567
-0.0392897
0.115469
-0.0337661
0.130422
-0.0288286
0.143544
-0.025025
0.155137
-0.0218613
0.165492
-0.0194736
0.174918
-0.0176399
0.183671
-0.01638
0.19187
-0.01537
0.199677
-0.0147
0.207166
-0.0141032
0.214269
-0.0133756
0.220533
-0.0115764
0.225685
-0.00931555
0.229926
-0.00753179
0.233252
-0.00574289
0.23572
-0.00412375
0.237354
-0.00256854
0.238261
-0.00111599
0.238588
0.000322062
0.238343
0.00167743
0.237405
0.00302861
0.23572
0.00434509
0.233231
0.00582145
0.229703
0.00790789
0.225217
0.0109495
0.215245
0.0235093
0.196919
0.0372833
-0.222135
0.243713
-0.0621349
0.265393
-0.0651516
0.288736
-0.0643834
0.310015
-0.0586067
0.330172
-0.0559563
0.349397
-0.0501136
0.36641
-0.0431918
0.381627
-0.0377844
0.394604
-0.0306018
0.405647
-0.0248886
0.414773
-0.0194888
0.422151
-0.0142309
0.42764
-0.00947137
0.431737
-0.00529791
0.434252
-0.000753756
0.43589
0.00306887
0.436299
0.00748361
0.435809
0.0113236
0.434067
0.0161436
0.431
0.0204958
0.42648
0.0256815
0.420326
0.0301573
0.412506
0.0343766
0.403119
0.0365289
0.392695
0.0356832
0.381313
0.035009
0.368885
0.0354773
0.355575
0.0359065
0.341567
0.036685
0.326961
0.0376194
0.311899
0.0386749
0.296393
0.0399142
0.280359
0.0415886
0.263585
0.04399
0.245636
0.0478495
0.225439
0.0549674
0.201758
0.0670215
0.166903
0.100426
0.118483
0.0987024
-0.200383
-0.0665505
-0.176477
-0.071034
-0.147814
-0.0855181
-0.117915
-0.0914459
-0.0865903
-0.0966512
-0.0539708
-0.100722
-0.0216748
-0.100111
0.00857799
-0.0944954
0.036497
-0.0867837
0.061845
-0.0779201
0.0843463
-0.0681046
0.104147
-0.0590901
0.121582
-0.0512012
0.136917
-0.0441636
0.15046
-0.0385686
0.162542
-0.0339433
0.173427
-0.0303585
0.183381
-0.0275938
0.192614
-0.0256134
0.201294
-0.0240496
0.209607
-0.0230129
0.217571
-0.0220678
0.225101
-0.0209053
0.231898
-0.0183735
0.237677
-0.0150947
0.242539
-0.0123934
0.246541
-0.00974522
0.249718
-0.00730005
0.252134
-0.00498503
0.253782
-0.00276385
0.25473
-0.000626198
0.254982
0.00142618
0.254571
0.00343936
0.25344
0.00547613
0.251506
0.00775483
0.248413
0.0110005
0.243815
0.0155483
0.234142
0.03318
0.21616
0.0552668
-0.214482
0.237112
-0.0847594
0.259748
-0.0877837
0.284579
-0.0892139
0.307196
-0.0812206
0.329046
-0.0778072
0.349912
-0.0709789
0.369003
-0.062283
0.386119
-0.0549004
0.401484
-0.0459665
0.414883
-0.0382871
0.426429
-0.0310342
0.436125
-0.0239265
0.444016
-0.0173614
0.450147
-0.0114292
0.454818
-0.00542416
0.457623
0.000264355
0.458742
0.00636409
0.457946
0.0121204
0.455583
0.0185065
0.451542
0.0245369
0.445976
0.0312475
0.439131
0.0370019
0.431124
0.0423838
0.422439
0.0452146
0.413476
0.0446474
0.404265
0.0442205
0.394418
0.0453242
0.383775
0.0465509
0.37215
0.0483096
0.359375
0.0503931
0.345461
0.0525888
0.330406
0.0549692
0.314211
0.057783
0.296734
0.0614661
0.277682
0.0669016
0.256039
0.0766096
0.23051
0.0925513
0.194376
0.136564
0.143337
0.149781
-0.192116
-0.0889156
-0.168075
-0.0950709
-0.138867
-0.114726
-0.108817
-0.121495
-0.0774148
-0.128053
-0.0446843
-0.133454
-0.0124854
-0.132308
0.017387
-0.124366
0.0447657
-0.114161
0.0696899
-0.102843
0.0918245
-0.0902385
0.111403
-0.0786686
0.128823
-0.0686212
0.144314
-0.0596541
0.158187
-0.0524413
0.170667
-0.0464243
0.182038
-0.041729
0.192478
-0.0380338
0.202218
-0.0353527
0.211398
-0.0332296
0.220132
-0.0317472
0.22849
-0.0304254
0.236416
-0.0288306
0.243594
-0.0255521
0.249784
-0.0212848
0.255045
-0.0176544
0.259422
-0.0141218
0.262964
-0.0108417
0.265704
-0.0077255
0.267702
-0.00476131
0.268987
-0.00191142
0.269589
0.000824288
0.269517
0.00351265
0.268763
0.00623055
0.267227
0.00929153
0.264562
0.0136653
0.260254
0.0198568
0.251173
0.0422586
0.233312
0.0731311
-0.210438
0.233887
-0.108206
0.257415
-0.111309
0.283679
-0.115476
0.307072
-0.104614
0.329967
-0.100701
0.351958
-0.09297
0.371971
-0.0822967
0.390097
-0.0730255
0.406647
-0.0625163
0.420962
-0.0526019
0.433438
-0.0435097
0.444015
-0.0345028
0.45298
-0.0263267
0.46
-0.0184488
0.46524
-0.010664
0.468727
-0.00322215
0.470632
0.00445891
0.470978
0.0117743
0.469514
0.0199702
0.466508
0.0275425
0.461819
0.0359369
0.455594
0.0432263
0.448079
0.0498985
0.439676
0.053618
0.43095
0.0533729
0.422095
0.0530754
0.41295
0.054469
0.40343
0.0560715
0.393362
0.058377
0.382545
0.0612081
0.370704
0.064432
0.357587
0.0680875
0.342968
0.0724028
0.326551
0.0778817
0.307912
0.0855436
0.286124
0.0983958
0.259716
0.118961
0.222626
0.173655
0.170919
0.201509
-0.187012
-0.112339
-0.162253
-0.119829
-0.131783
-0.145193
-0.100892
-0.152388
-0.0687692
-0.160176
-0.0354276
-0.166794
-0.00278995
-0.164945
0.0271543
-0.154309
0.0543272
-0.141332
0.0789783
-0.127493
0.100803
-0.112063
0.120128
-0.0979935
0.137445
-0.0859382
0.152958
-0.0751669
0.166974
-0.0664575
0.179753
-0.0592041
0.19147
-0.0534463
0.202306
-0.0488693
0.212451
-0.045498
0.222045
-0.0428234
0.231183
-0.0408849
0.239906
-0.0391489
0.248184
-0.0371083
0.255745
-0.0331125
0.262328
-0.027868
0.267964
-0.0232905
0.272685
-0.0188435
0.276546
-0.014702
0.279575
-0.0107542
0.281806
-0.00699246
0.283284
-0.00338975
0.284064
4.39064e-05
0.284152
0.00342443
0.283518
0.00686448
0.282128
0.0106819
0.279623
0.0161697
0.275461
0.0240183
0.266949
0.05077
0.249617
0.0904634
-0.207202
0.231675
-0.132678
0.256551
-0.136184
0.284202
-0.143126
0.308824
-0.129234
0.332751
-0.124628
0.356139
-0.116358
0.377141
-0.103298
0.396578
-0.0924632
0.414136
-0.0800743
0.429711
-0.0681766
0.443528
-0.0573264
0.455397
-0.0463712
0.465549
-0.0364777
0.47396
-0.0268595
0.480483
-0.0171869
0.485449
-0.00818844
0.48846
0.00144837
0.489614
0.01062
0.489029
0.0205556
0.486534
0.0300369
0.482189
0.0402816
0.476226
0.0491901
0.4688
0.0573243
0.460339
0.0620797
0.451355
0.0623576
0.442106
0.0623248
0.432547
0.064029
0.422688
0.0659316
0.412519
0.0685463
0.401946
0.0717799
0.390865
0.0755134
0.37899
0.0799624
0.365988
0.085404
0.351364
0.0925047
0.334441
0.102467
0.313971
0.118865
0.288259
0.144674
0.251343
0.210574
0.199819
0.253062
-0.182802
-0.136738
-0.157219
-0.14541
-0.125434
-0.17698
-0.093389
-0.184432
-0.0602587
-0.193307
-0.0259799
-0.201074
0.00737019
-0.198295
0.0376487
-0.184586
0.0649128
-0.168595
0.0894809
-0.15206
0.111109
-0.13369
0.130195
-0.11708
0.147337
-0.10308
0.162785
-0.0906147
0.176843
-0.0805155
0.189767
-0.0721284
0.201716
-0.0653954
0.212877
-0.0600299
0.223376
-0.0559966
0.233339
-0.0527861
0.242857
-0.0504031
0.251955
-0.048246
0.26058
-0.0457336
0.26855
-0.0410822
0.275537
-0.0348546
0.281529
-0.0292832
0.286612
-0.0239269
0.290783
-0.0188722
0.294088
-0.0140599
0.296561
-0.00946526
0.298243
-0.0050716
0.299163
-0.00087533
0.299337
0.00325044
0.298792
0.00741025
0.297394
0.01208
0.294887
0.0186776
0.290634
0.0282712
0.282408
0.0589942
0.265675
0.1072
-0.205327
0.231139
-0.158489
0.25705
-0.162094
0.286278
-0.172354
0.312188
-0.155144
0.337385
-0.149824
0.361855
-0.140829
0.384046
-0.125489
0.404344
-0.112761
0.422972
-0.0987018
0.439505
-0.0847094
0.454169
-0.0719906
0.467111
-0.0593128
0.478194
-0.0475608
0.487482
-0.0361473
0.495039
-0.0247438
0.500682
-0.0138306
0.504571
-0.00244069
0.506618
0.0085726
0.506841
0.0203329
0.505177
0.0316999
0.501673
0.0437857
0.496394
0.0544686
0.489671
0.0640478
0.481689
0.0700615
0.472958
0.0710883
0.46371
0.0715721
0.453953
0.0737854
0.443724
0.0761608
0.433106
0.0791633
0.422064
0.0828198
0.410599
0.0869816
0.398639
0.0919238
0.386006
0.0980382
0.372284
0.106225
0.356844
0.11791
0.338323
0.137384
0.314656
0.168343
0.279623
0.245607
0.229292
0.303406
-0.179711
-0.162354
-0.153015
-0.172106
-0.119774
-0.210219
-0.0864131
-0.217795
-0.0520745
-0.227646
-0.0165401
-0.236608
0.017779
-0.232614
0.048712
-0.215518
0.0763286
-0.19621
0.101051
-0.176782
0.122596
-0.155234
0.141517
-0.136
0.158492
-0.120055
0.173814
-0.105937
0.187821
-0.0945225
0.200799
-0.0851072
0.212912
-0.0775082
0.2243
-0.0714175
0.235092
-0.0667894
0.245382
-0.0630754
0.255237
-0.060258
0.264673
-0.0576819
0.273667
-0.054728
0.281978
-0.0493925
0.289372
-0.0422489
0.295772
-0.0356834
0.301198
-0.029353
0.305701
-0.0233745
0.309283
-0.0176418
0.312007
-0.0121899
0.313879
-0.0069431
0.314958
-0.00195433
0.31526
0.00294735
0.314746
0.00792449
0.313378
0.0134476
0.31081
0.0212451
0.306408
0.032673
0.29827
0.0671316
0.282089
0.123381
-0.204213
0.231364
-0.18564
0.258717
-0.189447
0.289633
-0.203269
0.316744
-0.182254
0.343236
-0.176316
0.368964
-0.166556
0.392179
-0.148704
0.413706
-0.134288
0.433154
-0.11815
0.450636
-0.102192
0.46637
-0.0877244
0.480188
-0.0731306
0.492168
-0.0595407
0.502428
-0.0464067
0.510898
-0.0332135
0.517534
-0.0204669
0.522363
-0.00726979
0.525327
0.00560863
0.526322
0.0193386
0.525363
0.0326587
0.522543
0.0466054
0.517869
0.0591428
0.511587
0.0703304
0.504052
0.0775962
0.495588
0.0795533
0.486444
0.0807172
0.476674
0.0835555
0.466285
0.0865514
0.455319
0.0901293
0.443841
0.0942979
0.431805
0.0990183
0.419252
0.104477
0.406078
0.111211
0.39215
0.120152
0.376996
0.133065
0.359608
0.154771
0.338107
0.189845
0.306251
0.277467
0.258449
0.351229
-0.177365
-0.189202
-0.149508
-0.199962
-0.114543
-0.245185
-0.0796511
-0.252687
-0.0438771
-0.263421
-0.00696517
-0.273522
0.0285824
-0.268161
0.0603902
-0.247325
0.088548
-0.224367
0.113562
-0.201795
0.135184
-0.176855
0.154015
-0.154831
0.170848
-0.136888
0.186028
-0.121117
0.19994
-0.108435
0.212925
-0.0980927
0.225102
-0.0896846
0.236646
-0.082962
0.247655
-0.077798
0.258218
-0.0736379
0.268363
-0.0704035
0.278135
-0.0674528
0.28747
-0.0640627
0.296161
-0.0580843
0.303941
-0.0500285
0.310724
-0.0424664
0.316522
-0.035151
0.321364
-0.0282165
0.325244
-0.0215223
0.328208
-0.0151538
0.330304
-0.00903932
0.331541
-0.00319099
0.331956
0.0025328
0.331518
0.00836312
0.330131
0.0148347
0.327504
0.0238725
0.322968
0.0372098
0.314844
0.0752543
0.299224
0.139002
-0.203991
0.232509
-0.214157
0.261311
-0.21825
0.293925
-0.235883
0.322428
-0.210758
0.350396
-0.204284
0.377484
-0.193645
0.401925
-0.173145
0.424336
-0.156699
0.44491
-0.138724
0.463234
-0.120516
0.479683
-0.104173
0.494329
-0.0877767
0.507187
-0.0723986
0.51826
-0.0574797
0.527551
-0.0425042
0.535083
-0.0279989
0.540716
-0.0129035
0.54442
0.00190502
0.546174
0.0175846
0.545938
0.0328947
0.543796
0.0487469
0.539794
0.0631439
0.534106
0.0760182
0.527051
0.0846511
0.518955
0.0876494
0.510016
0.0896554
0.500285
0.0932859
0.489835
0.0970011
0.478723
0.10124
0.466939
0.10608
0.454494
0.111466
0.441387
0.117585
0.427564
0.125036
0.412905
0.134809
0.397176
0.148797
0.37968
0.172266
0.359276
0.21025
0.330702
0.306041
0.286269
0.395669
-0.175644
-0.217548
-0.146428
-0.229178
-0.109681
-0.28193
-0.0732275
-0.289142
-0.0357912
-0.300858
0.0027146
-0.312027
0.0397467
-0.305193
0.072604
-0.280182
0.101491
-0.253253
0.126981
-0.227284
0.1488
-0.198673
0.167654
-0.173684
0.184406
-0.15364
0.19946
-0.13617
0.213257
-0.122232
0.226163
-0.110999
0.23836
-0.101882
0.249987
-0.0945897
0.261148
-0.0889583
0.271928
-0.0844184
0.282361
-0.0808361
0.292412
-0.0775036
0.302064
-0.0737149
0.311122
-0.0671422
0.319306
-0.0582129
0.326459
-0.0496188
0.332631
-0.0413231
0.337794
-0.0333791
0.341995
-0.0257233
0.345233
-0.0183921
0.347541
-0.0113474
0.348961
-0.00461107
0.349487
0.00200689
0.34912
0.00872989
0.347762
0.0161916
0.345094
0.0265406
0.340405
0.0418989
0.332317
0.0833416
0.317264
0.154055
-0.20424
0.234377
-0.244294
0.26473
-0.248602
0.299238
-0.270391
0.329195
-0.240715
0.358444
-0.233533
0.387006
-0.222207
0.412619
-0.198758
0.436173
-0.180253
0.457736
-0.160286
0.476943
-0.139723
0.494254
-0.121484
0.509788
-0.10331
0.523359
-0.0859694
0.535157
-0.0692779
0.545322
-0.0526689
0.553565
-0.0362419
0.559987
-0.0193254
0.564441
-0.00254864
0.566999
0.0150271
0.567548
0.0323449
0.566013
0.0502821
0.562655
0.0665018
0.557539
0.0811352
0.550977
0.0912127
0.543224
0.0954035
0.534443
0.0984367
0.524807
0.102923
0.51436
0.107449
0.503094
0.112507
0.491111
0.118063
0.478363
0.124215
0.464816
0.131132
0.450429
0.139422
0.435082
0.150156
0.418561
0.165318
0.40026
0.190566
0.379664
0.230847
0.353303
0.332406
0.312196
0.436793
-0.174526
-0.247262
-0.143838
-0.259865
-0.105123
-0.320647
-0.0667951
-0.327469
-0.0276673
-0.339987
0.012688
-0.352384
0.0512546
-0.34376
0.085368
-0.314295
0.115158
-0.283043
0.141297
-0.253422
0.163444
-0.220819
0.182394
-0.192634
0.199135
-0.17038
0.214093
-0.151128
0.227771
-0.13591
0.240587
-0.123815
0.252741
-0.114036
0.264388
-0.106236
0.275667
-0.100238
0.286613
-0.0953635
0.297233
-0.091456
0.307566
-0.0878367
0.317534
-0.0836826
0.326936
-0.0765437
0.335483
-0.0667602
0.343035
-0.057171
0.349557
-0.0478452
0.355083
-0.0389047
0.359588
-0.0302286
0.3631
-0.0219046
0.365657
-0.0139041
0.367245
-0.00619921
0.367916
0.001336
0.367634
0.00901244
0.366288
0.0175384
0.363563
0.0292654
0.358788
0.0466754
0.350758
0.0913702
0.336249
0.168566
-0.20515
0.236855
-0.275998
0.268783
-0.280531
0.305218
-0.306826
0.336859
-0.272357
0.367724
-0.264397
0.397755
-0.252238
0.424504
-0.225508
0.449288
-0.205037
0.471886
-0.182884
0.492037
-0.159875
0.510141
-0.139588
0.526309
-0.119478
0.540685
-0.100346
0.553337
-0.0819291
0.564093
-0.0634249
0.573117
-0.0452663
0.580261
-0.0264695
0.585505
-0.00779286
0.588723
0.0118095
0.589941
0.0311267
0.589122
0.0511007
0.586336
0.0692878
0.581791
0.08568
0.57573
0.0972727
0.568367
0.102767
0.559878
0.106925
0.550347
0.112453
0.539856
0.11794
0.528526
0.123835
0.516312
0.130274
0.503276
0.137254
0.489379
0.145029
0.474534
0.154269
0.458597
0.166091
0.441323
0.182595
0.422151
0.209737
0.40061
0.25239
0.375158
0.357857
0.336593
0.475363
-0.173753
-0.278658
-0.141557
-0.292061
-0.100757
-0.361447
-0.0604897
-0.367738
-0.0193825
-0.381095
0.0228477
-0.394615
0.0631917
-0.384104
0.0987105
-0.349813
0.129583
-0.313914
0.156443
-0.280281
0.179062
-0.243438
0.198229
-0.2118
0.215038
-0.187189
0.229933
-0.166023
0.243506
-0.149483
0.256216
-0.136525
0.268296
-0.126116
0.27994
-0.117879
0.291243
-0.111541
0.302298
-0.106419
0.313122
-0.10228
0.323684
-0.0983982
0.333919
-0.0939175
0.343661
-0.0862864
0.352575
-0.0756733
0.360495
-0.065091
0.367402
-0.0547519
0.373268
-0.0447712
0.378109
-0.0350694
0.381905
-0.0257005
0.384685
-0.0166843
0.386493
-0.00800678
0.387297
0.000531191
0.387108
0.00920145
0.385783
0.0188631
0.383041
0.0320062
0.378162
0.0515548
0.370205
0.0993275
0.356304
0.182466
-0.206402
0.239912
-0.309508
0.2736
-0.314219
0.31207
-0.345296
0.345306
-0.305592
0.377778
-0.29687
0.409388
-0.283848
0.437646
-0.253766
0.463557
-0.230949
0.487224
-0.20655
0.508276
-0.180927
0.527279
-0.158591
0.544314
-0.136513
0.559305
-0.115337
0.572578
-0.095202
0.584112
-0.0749583
0.593825
-0.054979
0.601628
-0.0342729
0.607505
-0.0136694
0.611404
0.00791062
0.613309
0.0292217
0.613162
0.0512476
0.611033
0.0714166
0.607063
0.0896504
0.601491
0.102845
0.594505
0.109753
0.586279
0.115152
0.576886
0.121847
0.566451
0.128376
0.55501
0.135277
0.542632
0.142653
0.529319
0.150569
0.51505
0.159298
0.499787
0.169531
0.483318
0.182559
0.4654
0.200513
0.445463
0.229673
0.422832
0.275021
0.397271
0.383422
0.360395
0.512253
-0.173368
-0.311691
-0.139435
-0.325993
-0.0964981
-0.404385
-0.0541273
-0.410109
-0.0109672
-0.424256
0.0333233
-0.438907
0.0756272
-0.426408
0.112658
-0.386843
0.144715
-0.345971
0.172492
-0.308058
0.195699
-0.266644
0.215183
-0.231284
0.232093
-0.204098
0.246996
-0.180927
0.260491
-0.162977
0.273099
-0.149133
0.285077
-0.138094
0.296661
-0.129463
0.307986
-0.122866
0.3191
-0.117533
0.330045
-0.113225
0.340793
-0.109146
0.351309
-0.104434
0.361365
-0.0963414
0.37063
-0.0849385
0.378918
-0.0733792
0.386181
-0.0620144
0.392413
-0.0510038
0.397558
-0.0402146
0.401659
-0.0298015
0.404699
-0.0197237
0.4067
-0.0100079
0.407675
-0.000444257
0.407567
0.00931029
0.406288
0.0201419
0.403518
0.0347764
0.398564
0.0565103
0.390744
0.107147
0.377472
0.195739
-0.208189
0.243402
-0.344721
0.278951
-0.349769
0.319576
-0.385921
0.354665
-0.340681
0.388885
-0.331089
0.422127
-0.31709
0.451797
-0.283437
0.47904
-0.258191
0.503759
-0.231269
0.525793
-0.202961
0.545626
-0.178424
0.563395
-0.154282
0.579208
-0.13115
0.593187
-0.109181
0.605335
-0.0871063
0.615642
-0.0652858
0.624116
-0.0427477
0.630683
-0.0202356
0.635236
0.00335683
0.637709
0.0267491
0.638187
0.0507688
0.636635
0.0729691
0.633221
0.0930633
0.62819
0.107876
0.621688
0.116255
0.613747
0.123092
0.604545
0.131048
0.594147
0.138773
0.582644
0.146779
0.570109
0.155185
0.556549
0.164132
0.541931
0.173917
0.526207
0.185257
0.509212
0.199552
0.490688
0.219041
0.470075
0.250284
0.446533
0.298565
0.420399
0.409555
0.384527
0.548127
-0.173226
-0.346653
-0.137637
-0.361582
-0.0923226
-0.449699
-0.0477582
-0.454674
-0.00233408
-0.469682
0.0442433
-0.485484
0.0885188
-0.470684
0.127271
-0.425595
0.160643
-0.379343
0.189441
-0.336855
0.213328
-0.29053
0.233218
-0.251174
0.250362
-0.221241
0.265321
-0.195886
0.278771
-0.176427
0.291288
-0.161651
0.303164
-0.149969
0.314662
-0.140962
0.32594
-0.134144
0.337088
-0.128681
0.348118
-0.124254
0.359036
-0.120064
0.369768
-0.115166
0.380126
-0.106699
0.389721
-0.0945332
0.398363
-0.0820209
0.405985
-0.0696366
0.412545
-0.0575636
0.418035
-0.0457041
0.422436
-0.034202
0.425744
-0.0230325
0.427977
-0.0122401
0.42911
-0.0015778
0.42912
0.00929961
0.427878
0.0213838
0.42512
0.0375335
0.420118
0.0615124
0.412397
0.114868
0.399808
0.208328
-0.21024
0.247399
-0.38188
0.284914
-0.387283
0.327835
-0.428842
0.364809
-0.377656
0.400803
-0.367083
0.435795
-0.352082
0.467006
-0.314648
0.495551
-0.286736
0.521497
-0.257215
0.544519
-0.225983
0.565315
-0.19922
0.583865
-0.172831
0.600385
-0.147671
0.615035
-0.123831
0.627722
-0.0997931
0.638711
-0.0762745
0.647805
-0.0518416
0.654964
-0.0273947
0.66016
-0.00183881
0.663296
0.0236129
0.664352
0.0497129
0.663405
0.073916
0.660561
0.095908
0.656028
0.112409
0.649937
0.122347
0.642312
0.130716
0.633332
0.140029
0.623041
0.149065
0.611509
0.158312
0.59883
0.167865
0.585013
0.17795
0.570063
0.188867
0.553883
0.201437
0.536382
0.217053
0.51725
0.238174
0.495991
0.271543
0.47163
0.322926
0.444881
0.436307
0.409676
0.583342
-0.173503
-0.38339
-0.135856
-0.399228
-0.0881605
-0.497395
-0.0412048
-0.50163
0.00653915
-0.517426
0.05546
-0.534406
0.102022
-0.517246
0.142575
-0.466147
0.177439
-0.414207
0.207359
-0.366773
0.232044
-0.315215
0.252419
-0.271549
0.269845
-0.238667
0.284913
-0.210954
0.298346
-0.18986
0.310801
-0.174105
0.322585
-0.161753
0.333973
-0.15235
0.345188
-0.145359
0.35633
-0.139822
0.367414
-0.135338
0.378445
-0.131095
0.389387
-0.126108
0.400008
-0.117321
0.409911
-0.104436
0.418888
-0.0909979
0.426859
-0.0776071
0.433778
-0.0644828
0.4396
-0.0515262
0.444306
-0.0389083
0.447882
-0.0266079
0.450331
-0.0146892
0.45165
-0.00289685
0.45178
0.00916926
0.450599
0.0225649
0.447848
0.0402853
0.442832
0.0665295
0.435296
0.122403
0.423374
0.22025
-0.212632
0.251902
-0.42115
0.291436
-0.426817
0.336766
-0.474173
0.375688
-0.416577
0.413606
-0.405001
0.450547
-0.389023
0.483272
-0.347372
0.513254
-0.316718
0.540551
-0.284512
0.564667
-0.2501
0.58634
-0.220893
0.605733
-0.192224
0.622875
-0.164813
0.638199
-0.139154
0.651638
-0.113232
0.663189
-0.0878251
0.672882
-0.0615348
0.680608
-0.0351214
0.686284
-0.00751478
0.689986
0.0199109
0.691652
0.0480469
0.69122
0.0743472
0.688926
0.0982024
0.68491
0.116424
0.679281
0.127975
0.672054
0.137943
0.663272
0.148811
0.653104
0.159232
0.641612
0.169802
0.628821
0.180653
0.614793
0.19198
0.599501
0.204161
0.582929
0.21801
0.564896
0.235084
0.545131
0.257942
0.523219
0.293452
0.498181
0.347967
0.470812
0.463675
0.436204
0.617951
-0.173891
-0.422131
-0.134372
-0.438748
-0.0840028
-0.547763
-0.0345545
-0.55108
0.0156938
-0.567675
0.0672004
-0.585913
0.11607
-0.566117
0.158628
-0.508705
0.19503
-0.450609
0.226234
-0.397976
0.251789
-0.340769
0.272779
-0.292539
0.290571
-0.256458
0.305814
-0.226197
0.3193
-0.203346
0.331694
-0.1865
0.343379
-0.173438
0.354684
-0.163655
0.365813
-0.156488
0.376902
-0.150911
0.388002
-0.146438
0.399136
-0.142229
0.410246
-0.137217
0.421103
-0.128178
0.431311
-0.114644
0.440603
-0.10029
0.448907
-0.0859116
0.456153
-0.0717282
0.462306
-0.0576792
0.467309
-0.0439111
0.47117
-0.0304688
0.473873
-0.0173919
0.475364
-0.00438831
0.475641
0.00889147
0.474541
0.0236648
0.471814
0.0430119
0.466812
0.0715317
0.459431
0.129783
0.448233
0.231448
-0.215425
0.256854
-0.462579
0.298513
-0.468475
0.34635
-0.52201
0.387331
-0.457558
0.427363
-0.445033
0.466247
-0.427907
0.500667
-0.381792
0.532194
-0.348246
0.560773
-0.313091
0.585974
-0.275301
0.608632
-0.243551
0.628892
-0.212484
0.646904
-0.182825
0.662848
-0.155098
0.676868
-0.127253
0.688996
-0.0999527
0.699234
-0.0717723
0.70751
-0.0433979
0.713833
-0.0138372
0.718047
0.0156966
0.7202
0.0458937
0.72035
0.074198
0.718547
0.100005
0.715023
0.119948
0.709825
0.133173
0.702961
0.144808
0.694475
0.157298
0.684461
0.169247
0.672993
0.18127
0.660124
0.193523
0.645917
0.206188
0.630342
0.219736
0.613338
0.235014
0.594792
0.25363
0.574435
0.2783
0.551888
0.315999
0.526171
0.373684
0.498264
0.491585
0.464236
0.651986
-0.174515
-0.463041
-0.132843
-0.480419
-0.0797691
-0.600838
-0.0276797
-0.603169
0.0252264
-0.620582
0.0794379
-0.640126
0.130828
-0.617506
0.175479
-0.553355
0.213606
-0.488735
0.246154
-0.430523
0.27272
-0.367335
0.294369
-0.314187
0.312581
-0.274669
0.328071
-0.241688
0.341635
-0.216909
0.35403
-0.198895
0.365632
-0.18504
0.376833
-0.174856
0.387867
-0.167521
0.398898
-0.161943
0.409983
-0.157523
0.421162
-0.153408
0.432415
-0.14847
0.443508
-0.13927
0.453973
-0.125108
0.463556
-0.109873
0.472178
-0.0945328
0.479751
-0.0793015
0.48623
-0.0641579
0.491554
-0.0492356
0.495696
-0.0346107
0.498623
-0.020319
0.500338
-0.00610295
0.500752
0.00847773
0.499747
0.0246697
0.497068
0.0456906
0.492098
0.0765026
0.484935
0.136947
0.474492
0.241891
-0.218455
0.2621
-0.506224
0.306087
-0.512463
0.356603
-0.572525
0.39981
-0.500765
0.441994
-0.487217
0.482897
-0.468809
0.519162
-0.418058
0.552289
-0.381372
0.582233
-0.343035
0.608653
-0.301722
0.632437
-0.267334
0.653539
-0.233586
0.672305
-0.201591
0.68897
-0.171764
0.70358
-0.141862
0.7163
-0.112673
0.727068
-0.0825406
0.735902
-0.0522317
0.742683
-0.0206183
0.747451
0.0109284
0.750101
0.0432439
0.750712
0.0735866
0.749435
0.101282
0.746382
0.123
0.741659
0.137896
0.735156
0.151311
0.726948
0.165505
0.717117
0.179077
0.705706
0.19268
0.692811
0.206416
0.67844
0.220561
0.662596
0.23558
0.645217
0.252394
0.62618
0.272666
0.605255
0.299227
0.582027
0.339226
0.555699
0.400014
0.527309
0.519975
0.493831
0.685463
-0.175321
-0.506175
-0.131438
-0.524302
-0.0754873
-0.656788
-0.0205514
-0.658106
0.035141
-0.676275
0.0921785
-0.697163
0.146301
-0.671629
0.193157
-0.600212
0.233142
-0.52872
0.267151
-0.464531
0.294784
-0.394968
0.317184
-0.336587
0.335927
-0.293412
0.351706
-0.257467
0.36541
-0.230613
0.377838
-0.211323
0.389397
-0.196599
0.400506
-0.185964
0.411439
-0.178455
0.42238
-0.172884
0.433437
-0.16858
0.444643
-0.164615
0.456008
-0.159834
0.467279
-0.150542
0.477978
-0.135807
0.487849
-0.119744
0.496766
-0.10345
0.504666
-0.0872007
0.51145
-0.0709418
0.517083
-0.0548684
0.521508
-0.0390357
0.524706
-0.0235173
0.526617
-0.00801421
0.527182
0.00791251
0.526295
0.0255555
0.523676
0.0483093
0.5188
0.081379
0.511846
0.1439
0.502138
0.251599
-0.221842
0.267887
-0.552269
0.314314
-0.55889
0.367503
-0.625713
0.413173
-0.546435
0.457508
-0.531551
0.500672
-0.511973
0.538769
-0.456155
0.573596
-0.416199
0.605067
-0.374506
0.632783
-0.329438
0.657529
-0.29208
0.679657
-0.255714
0.699172
-0.221105
0.716542
-0.189134
0.731876
-0.157196
0.745124
-0.125921
0.756462
-0.0938787
0.765789
-0.0615585
0.773115
-0.0279451
0.778326
0.00571827
0.78144
0.0401294
0.782568
0.0724588
0.781701
0.102149
0.779105
0.125596
0.774789
0.142212
0.768661
0.157439
0.760767
0.1734
0.751145
0.188699
0.739873
0.203954
0.726951
0.219338
0.71245
0.235063
0.696354
0.251676
0.678616
0.270132
0.65913
0.292152
0.637605
0.320753
0.613781
0.363049
0.586838
0.426956
0.557954
0.548861
0.525049
0.718372
-0.176366
-0.551651
-0.130096
-0.570572
-0.0710533
-0.715832
-0.0132002
-0.715959
0.0455031
-0.734979
0.10557
-0.757231
0.162452
-0.728511
0.211766
-0.649525
0.25368
-0.570633
0.289303
-0.500154
0.318118
-0.423782
0.341363
-0.359831
0.360676
-0.312725
0.376814
-0.273605
0.39071
-0.244509
0.403186
-0.223799
0.41474
-0.208152
0.425758
-0.196982
0.43659
-0.189287
0.44744
-0.183734
0.45844
-0.179579
0.469651
-0.175825
0.481105
-0.171289
0.492541
-0.161977
0.503461
-0.146726
0.513571
-0.129855
0.522761
-0.112639
0.530944
-0.0953835
0.538047
-0.0780449
0.543971
-0.0607925
0.548694
-0.0437583
0.552132
-0.0269552
0.554277
-0.0101596
0.555034
0.00715523
0.554244
0.0263457
0.55175
0.0508039
0.54696
0.0861693
0.540291
0.150569
0.531337
0.260555
-0.225486
0.27406
-0.600843
0.322951
-0.607781
0.379205
-0.681968
0.42717
-0.594399
0.474021
-0.578402
0.519433
-0.557385
0.559627
-0.496349
0.596163
-0.452735
0.629199
-0.407543
0.658229
-0.358467
0.684241
-0.318092
0.707278
-0.278752
0.727722
-0.24155
0.745832
-0.207244
0.761781
-0.173144
0.775637
-0.139777
0.78748
-0.105722
0.797278
-0.0713567
0.805029
-0.0356961
0.810707
3.98893e-05
0.814311
0.0365255
0.815803
0.0709667
0.815378
0.102574
0.813232
0.127743
0.809327
0.146116
0.803613
0.163153
0.796027
0.180986
0.786616
0.198109
0.775444
0.215125
0.762564
0.232217
0.747969
0.249659
0.731656
0.267989
0.713591
0.288198
0.693659
0.312083
0.671623
0.342791
0.647193
0.387477
0.619675
0.454476
0.590343
0.578193
0.557968
0.750746
-0.177541
-0.599596
-0.128764
-0.61935
-0.0664957
-0.7781
-0.00556626
-0.77689
0.0562945
-0.796841
0.11957
-0.820507
0.179483
-0.788425
0.231295
-0.701337
0.275308
-0.614646
0.31261
-0.537455
0.342714
-0.453885
0.366889
-0.384006
0.386845
-0.332681
0.403416
-0.290176
0.417555
-0.258648
0.430146
-0.23639
0.441694
-0.219701
0.452662
-0.20795
0.463398
-0.200023
0.474174
-0.19451
0.48509
-0.190495
0.496299
-0.187034
0.507807
-0.182796
0.519379
-0.17355
0.530492
-0.157839
0.540812
-0.140175
0.550273
-0.122101
0.558733
-0.103843
0.566105
-0.0854166
0.572349
-0.067037
0.577343
-0.0487521
0.581051
-0.0306632
0.583401
-0.0125096
0.584341
0.00621493
0.583722
0.0269643
0.581326
0.0531989
0.576703
0.0907932
0.570294
0.156977
0.562109
0.268739
-0.229451
0.280639
-0.652031
0.332199
-0.65934
0.391496
-0.741265
0.442178
-0.645081
0.491455
-0.627678
0.539384
-0.605314
0.581572
-0.538537
0.620046
-0.491209
0.65476
-0.442256
0.685256
-0.388964
0.712423
-0.345259
0.736597
-0.302926
0.757903
-0.262855
0.776791
-0.226133
0.793366
-0.189718
0.807848
-0.154259
0.820185
-0.118059
0.830457
-0.0816285
0.838704
-0.0439428
0.844779
-0.00603505
0.848758
0.0325467
0.850671
0.0690536
0.85064
0.102605
0.848887
0.129495
0.845395
0.149609
0.840026
0.168522
0.83275
0.188262
0.82362
0.20724
0.812607