/*--------------------------------*- C++ -*----------------------------------*\
| =========                 |                                                 |
| \\      /  F ield         | OpenFOAM: The Open Source CFD Toolbox           |
|  \\    /   O peration     | Version:  2.3.1                                 |
|   \\  /    A nd           | Web:      www.OpenFOAM.org                      |
|    \\/     M anipulation  |                                                 |
\*---------------------------------------------------------------------------*/
FoamFile
{
    version     2.0;
    format      ascii;
    class       volScalarField;
    location    "0.96";
    object      epsilon;
}
// * * * * * * * * * * * * * * * * * * * * * * * * * * * * * * * * * * * * * //

dimensions      [0 2 -3 0 0 0 0];

internalField   nonuniform List<scalar> 
9648
(
2387.97
2388.01
2385.17
2378.22
2366.75
2350.08
2328.54
2301.84
2269.91
2232.88
2191
2144.47
2094.19
2041.15
1986.21
1930.31
1874.55
1819.91
1767.07
1716.51
1668.74
1624.03
1582.51
1544.3
1509.42
1477.74
1449.14
1423.52
1400.76
1380.67
1363.13
1347.99
1335.12
1324.36
1315.64
1308.8
1303.73
1300.36
1298.65
1298.52
1299.86
1302.66
1306.9
1312.48
1319.48
1327.91
1337.75
1348.96
1361.64
1375.91
1391.79
1409.23
1428.48
1449.51
1472.3
1496.68
1522.48
1549.34
1576.53
1603.42
1629.59
587.083
578.516
568.848
558.598
549.719
544.562
542.565
542.784
544.921
549.042
554.879
561.754
569.247
576.984
584.643
591.868
598.5
604.514
609.913
614.641
618.8
622.455
625.655
628.514
631.156
633.635
636.002
638.327
640.69
643.136
645.684
648.39
651.294
654.389
657.71
661.284
665.1
669.158
673.472
678.073
682.951
688.092
693.506
699.205
705.17
711.434
717.991
724.81
731.875
739.181
746.688
754.364
762.161
770.115
778.083
786.049
793.857
801.619
809.189
816.49
823.473
233.254
235.144
238.664
244.427
252.415
262.302
274.166
287.615
302.542
318.549
335.414
352.686
370.027
387.109
403.65
419.428
434.282
448.132
460.926
472.654
483.343
493.026
501.778
509.679
516.819
523.28
529.139
534.483
539.377
543.892
548.089
552.023
555.74
559.283
562.688
565.982
569.195
572.343
575.446
578.519
581.578
584.64
587.704
590.779
593.869
596.967
600.07
603.161
606.234
609.269
612.262
615.209
618.07
620.902
623.585
626.223
628.716
631.204
633.522
635.713
637.768
132.903
141.62
151.786
163.626
177.16
192.312
209.005
227.009
246.065
265.811
285.917
306.008
325.768
344.903
363.18
380.404
396.454
411.258
424.786
437.045
448.063
457.887
466.594
474.268
481.008
486.91
492.065
496.562
500.479
503.895
506.881
509.5
511.815
513.87
515.709
517.37
518.888
520.284
521.583
522.805
523.97
525.095
526.195
527.275
528.343
529.4
530.446
531.479
532.498
533.497
534.457
535.405
536.314
537.197
538.004
538.796
539.57
540.317
541.016
541.675
542.333
99.2925
111.128
124.492
139.455
156.012
174.086
193.507
214.017
235.293
256.944
278.605
299.902
320.535
340.237
358.81
376.078
391.952
406.389
419.38
430.964
441.183
450.09
457.778
464.337
469.885
474.533
478.381
481.528
484.05
486.035
487.562
488.698
489.514
490.06
490.375
490.507
490.492
490.352
490.116
489.804
489.432
489.026
488.601
488.173
487.742
487.317
486.902
486.494
486.09
485.695
485.292
484.883
484.478
484.069
483.651
483.227
482.823
482.416
481.991
481.559
481.129
86.6808
100.609
116.207
133.458
152.262
172.493
193.906
216.185
238.954
261.781
284.289
306.091
326.92
346.525
364.775
381.478
396.578
410.082
421.99
432.393
441.349
448.902
455.183
460.264
464.306
467.435
469.752
471.378
472.371
472.83
472.847
472.477
471.813
470.907
469.782
468.499
467.106
465.608
464.042
462.426
460.771
459.108
457.457
455.837
454.24
452.676
451.149
449.673
448.235
446.822
445.436
444.064
442.712
441.378
440.053
438.77
437.52
436.281
435.039
433.803
432.561
82.7144
98.4279
115.937
135.13
155.788
177.748
200.685
224.24
248.022
271.509
294.376
316.172
336.717
355.756
373.295
389.043
402.995
415.236
425.731
434.671
442.132
448.098
452.799
456.23
458.632
460.148
460.861
460.948
460.403
459.347
457.903
456.081
454.024
451.771
449.31
446.729
444.11
441.402
438.677
435.94
433.181
430.458
427.786
425.188
422.632
420.14
417.72
415.37
413.095
410.874
408.697
406.553
404.46
402.371
400.312
398.307
396.355
394.456
392.557
390.637
388.743
82.8022
100.148
119.391
140.306
162.521
185.839
209.925
234.388
258.814
282.565
305.423
326.776
346.65
364.711
381.294
395.822
408.369
419.167
427.998
435.271
441.105
445.306
448.38
450.027
450.703
450.556
449.624
448.204
446.12
443.573
440.743
437.519
434.154
430.642
426.923
423.141
419.384
415.515
411.719
407.957
404.175
400.463
396.883
393.41
389.989
386.695
383.468
380.363
377.342
374.412
371.546
368.734
365.976
363.208
360.493
357.876
355.289
352.822
350.321
347.782
345.34
84.7496
103.406
124.194
146.431
170.036
194.328
219.137
244.366
268.992
292.857
315.357
336.159
354.988
371.787
387.204
400.41
411.476
420.686
428.053
433.667
437.642
440.027
441.229
441.262
440.267
438.315
435.844
432.963
429.253
425.272
420.992
416.522
412.116
407.357
402.277
397.474
392.5
387.461
382.699
377.797
372.904
367.97
363.654
359.338
355.011
351.113
346.971
343.228
339.314
335.672
331.927
328.504
325.171
321.688
318.315
315.249
311.933
309.182
306.054
302.804
299.927
1655.12
1679.85
1703.47
1725.94
1747.46
1768.45
1789.03
1809.5
1829.78
1849.07
1867.05
1884.28
1901.03
1917.68
1934.46
1952.05
1971.06
1991.97
2015.11
2040.9
2068.96
2098.77
2129.95
2162.14
2195.01
2228.51
2262.83
2297.59
2332.79
2368.43
2404.71
2441.49
2478.78
2516.74
2555.39
2594.61
2634.51
2675.23
2716.84
2759.18
2802.27
2846.36
2891.43
2937.31
2984.33
3032.34
3081.22
3131.01
3181.93
3234.01
3287.16
3341.27
3396.9
3453.62
3511.81
3571.25
3632.7
3696.11
3761.52
3828.8
3898.09
830.111
836.824
843.359
849.632
855.671
861.6
867.57
873.426
879.38
885.082
890.745
896.302
901.873
907.476
913.105
918.805
924.594
930.512
936.544
942.662
948.823
954.967
961.076
967.131
973.12
979.021
984.763
990.316
995.677
1000.87
1005.91
1010.77
1015.47
1020.04
1024.46
1028.73
1032.89
1036.92
1040.82
1044.6
1048.27
1051.84
1055.3
1058.64
1061.89
1065.02
1068.03
1070.9
1073.67
1076.33
1078.86
1081.27
1083.55
1085.87
1087.98
1090.17
1092.29
1094.61
1096.78
1099.01
1101.34
639.789
641.725
643.708
645.658
647.577
649.395
651.292
653.093
654.88
656.523
658.118
659.66
661.224
662.758
664.266
665.735
667.161
668.541
669.862
671.112
672.276
673.356
674.339
675.221
675.999
676.666
677.218
677.651
677.956
678.14
678.19
678.113
677.91
677.578
677.131
676.565
675.882
675.08
674.16
673.118
671.961
670.692
669.318
667.823
666.22
664.496
662.638
660.638
658.503
656.234
653.805
651.265
648.573
645.761
642.745
639.637
636.429
633.136
629.744
626.289
622.834
542.963
543.593
544.191
544.777
545.331
545.856
546.347
546.824
547.24
547.559
547.818
548.04
548.202
548.285
548.316
548.284
548.19
548.024
547.78
547.45
547.035
546.532
545.948
545.275
544.509
543.641
542.673
541.605
540.433
539.159
537.782
536.293
534.694
532.991
531.192
529.296
527.302
525.209
523.011
520.711
518.316
515.837
513.276
510.643
507.936
505.152
502.271
499.291
496.207
493.035
489.746
486.351
482.863
479.265
475.53
471.667
467.723
463.683
459.575
455.437
451.296
480.704
480.255
479.785
479.288
478.767
478.19
477.562
476.932
476.302
475.626
474.921
474.178
473.378
472.527
471.619
470.65
469.651
468.583
467.446
466.236
464.956
463.612
462.211
460.755
459.235
457.645
455.979
454.239
452.43
450.549
448.594
446.552
444.423
442.21
439.927
437.573
435.144
432.632
430.032
427.346
424.586
421.759
418.881
415.966
413.022
410.048
407.01
403.931
400.776
397.567
394.282
390.909
387.471
383.953
380.33
376.598
372.775
368.855
364.904
360.928
356.945
431.334
430.103
428.87
427.598
426.307
424.989
423.634
422.271
420.871
419.453
418.002
416.534
415.034
413.488
411.902
410.287
408.649
406.951
405.189
403.363
401.482
399.557
397.603
395.626
393.609
391.543
389.427
387.26
385.059
382.824
380.552
378.215
375.817
373.351
370.842
368.287
365.669
362.991
360.232
357.394
354.489
351.525
348.528
345.524
342.532
339.564
336.561
333.562
330.525
327.493
324.415
321.266
318.087
314.833
311.522
308.078
304.561
300.96
297.361
293.715
290.084
386.874
385.021
383.17
381.314
379.428
377.507
375.562
373.623
371.654
369.643
367.626
365.609
363.564
361.499
359.392
357.276
355.164
353.006
350.783
348.488
346.135
343.763
341.378
339.009
336.628
334.208
331.753
329.257
326.765
324.283
321.834
319.343
316.831
314.264
311.694
309.097
306.434
303.727
300.95
298.099
295.176
292.176
289.146
286.122
283.129
280.233
277.311
274.463
271.6
268.836
266.071
263.218
260.369
257.455
254.527
251.413
248.279
245.028
241.862
238.622
235.426
342.905
340.537
338.169
335.851
333.518
331.209
328.835
326.54
324.222
321.799
319.386
317.024
314.621
312.198
309.698
307.227
304.837
302.411
299.921
297.287
294.57
291.872
289.154
286.476
283.856
281.197
278.503
275.711
272.936
270.235
267.7
265.142
262.655
260.133
257.686
255.25
252.673
250.021
247.35
244.661
241.859
238.92
235.945
232.958
229.982
227.22
224.369
221.695
219.005
216.588
214.233
211.724
209.261
206.729
204.249
201.472
198.753
195.858
193.197
190.413
187.725
296.829
293.97
290.962
288.293
285.475
283.088
280.38
278.087
275.776
273.251
270.719
268.445
265.939
263.468
260.704
257.901
255.44
253.083
250.738
248.142
245.12
242.31
239.422
236.486
233.721
231.003
228.382
225.432
222.254
219.263
216.657
214.032
211.625
209.272
207.264
205.326
203.06
200.493
198.003
195.705
193.333
190.582
187.736
184.928
182.016
179.484
176.609
174.106
171.48
169.537
167.703
165.538
163.554
161.481
159.564
157.079
154.813
152.208
150.108
147.819
145.751
3970.48
4045.45
4122.37
4201.29
4282.62
4367.3
4454.74
4544.91
4637.51
4732.75
4831.04
4931.39
5034.05
5143.1
5279.09
5403.39
5526.97
5653.16
5781.86
5913.01
6046.93
6183.67
6322.81
6464.56
6608.71
6754.56
6901.82
7050.23
7199.6
7349.07
7498.56
7647.44
7794.88
7940.27
8083.09
8221.94
8355.68
8482.88
8595.17
8677.66
8733.52
8764.23
8769.56
8747.65
8696.85
8614.62
8496.82
8338.72
8135.88
7883.56
7575.36
7204.31
6765.03
6250.59
5603.06
4686.4
4283.22
4084.27
4006.53
3966.26
3878.01
1103.91
1106.56
1109.41
1112.32
1115.31
1118.52
1122.26
1126.39
1130.98
1135.85
1141.2
1144.43
1145.65
1148.42
1151.78
1156.55
1161.46
1166.32
1171.31
1176.55
1182.06
1187.87
1193.94
1200.28
1206.86
1213.67
1220.75
1228.09
1235.77
1243.82
1252.29
1261.24
1270.79
1281.06
1292.16
1304.32
1317.72
1332.73
1350.8
1379.89
1415.15
1453.31
1494.68
1539.39
1588.14
1641.26
1698.83
1761.12
1828.4
1900.2
1975.61
2052.99
2130.9
2207.88
2276.21
2340.46
2400.63
2487.87
2593.99
2699.94
2640.21
619.35
615.864
612.339
608.79
605.18
601.589
598.1
594.758
591.475
588.144
584.361
578.671
572.652
567.442
562.734
558.64
554.636
550.531
546.366
542.194
538.053
533.941
529.852
525.783
521.732
517.692
513.675
509.682
505.735
501.828
497.985
494.226
490.563
487.042
483.69
480.557
477.691
475.164
473.123
472.067
472.193
476.625
484.832
496.354
511.661
531.418
556.36
587.528
625.935
672.673
728.762
794.995
872.581
961.749
1062.06
1169.81
1277.02
1394.98
1540.89
1730.63
1913.09
447.152
443.014
438.872
434.709
430.496
426.278
422.102
418.019
413.906
409.685
404.683
398.644
392.768
387.425
382.465
377.855
373.353
368.866
364.376
359.908
355.465
351.028
346.605
342.201
337.809
333.441
329.097
324.778
320.486
316.223
311.992
307.799
303.656
299.574
295.565
291.648
287.845
284.172
280.659
277.369
274.385
272.022
270.989
271.671
273.959
278.2
284.863
294.612
308.303
326.975
352.061
384.902
427.172
479.953
543.762
616.421
693.933
778.109
877.748
1006.93
1166.67
352.976
349.065
345.17
341.248
337.257
333.261
329.275
325.366
321.421
317.355
312.526
307.182
302.096
297.407
292.963
288.755
284.645
280.627
276.662
272.76
268.896
265.02
261.164
257.334
253.518
249.731
245.971
242.239
238.527
234.837
231.17
227.533
223.932
220.378
216.878
213.447
210.093
206.83
203.667
200.622
197.722
195.034
192.694
191.067
190.247
190.266
191.351
193.809
198.079
204.712
214.514
228.506
247.902
273.959
307.649
349.014
396.638
450.137
511.968
587.933
684.033
286.446
282.925
279.429
275.928
272.287
268.646
264.992
261.449
257.874
254.226
249.89
245.346
241.055
237.104
233.288
229.636
226.044
222.601
219.245
215.987
212.775
209.522
206.305
203.132
199.967
196.841
193.732
190.655
187.581
184.522
181.473
178.453
175.461
172.515
169.616
166.779
164.009
161.317
158.704
156.184
153.768
151.481
149.364
147.507
146.157
145.213
144.797
145.035
146.136
148.382
152.15
157.973
166.531
178.6
195.046
216.41
242.799
274.293
311.564
356.357
411.8
232.141
229.046
225.99
222.981
219.713
216.474
213.168
210.059
206.928
203.819
200.041
196.256
192.679
189.462
186.261
183.201
180.128
177.277
174.515
171.871
169.277
166.582
163.969
161.443
158.903
156.415
153.917
151.46
148.973
146.499
144.013
141.568
139.148
136.785
134.461
132.201
129.998
127.869
125.808
123.835
121.948
120.172
118.516
117.016
115.739
114.824
114.191
113.905
114.071
114.826
116.361
118.933
122.866
128.596
136.594
147.349
161.27
178.68
200.058
226.218
258.467
184.778
182.109
179.518
177.077
174.2
171.395
168.43
165.817
163.18
160.691
157.448
154.346
151.38
148.868
146.22
143.758
141.159
138.893
136.686
134.583
132.542
130.304
128.231
126.355
124.397
122.482
120.505
118.613
116.622
114.652
112.633
110.708
108.798
106.981
105.177
103.449
101.748
100.128
98.5686
97.1076
95.721
94.4464
93.285
92.2321
91.3208
90.655
90.1914
89.9264
89.9271
90.2669
91.0474
92.3925
94.4742
97.4912
101.694
107.367
114.806
124.347
136.363
151.364
170.026
143.108
140.799
138.698
136.911
134.423
132.079
129.404
127.378
125.276
123.448
120.687
118.172
115.671
113.843
111.636
109.786
107.567
105.897
104.181
102.472
100.899
98.9699
97.3863
96.2581
94.7853
93.2891
91.6842
90.3199
88.6673
87.0864
85.3733
83.9496
82.4686
81.1685
79.7837
78.5168
77.1664
75.9572
74.8181
73.8114
72.876
72.0451
71.3341
70.7074
70.1197
69.6465
69.3575
69.187
69.244
69.4568
70.064
70.9832
72.4181
74.3366
76.9516
80.2965
84.6649
90.1517
97.1533
105.934
116.856
3732.01
3572.22
3400.79
3221.3
3042.61
2869.99
2706.87
2557.79
2426.37
2314.53
2222.53
2149.19
2092.8
2051.05
2021.21
2000.71
1987.41
1979.78
1976.41
1976.13
1978.3
1982.39
1987.98
1995.02
2003.41
2012.88
2023.57
2035.3
2048.21
2062.16
2077.11
2093
2109.7
2126.99
2144.75
2162.69
2180.49
2197.86
2214.62
2230.46
2244.94
2257.88
2269.16
2278.6
2286.33
2292.66
2297.73
2301.78
2305.36
2309.17
2313.51
2318.48
2324.54
2331.8
2339.89
2348.52
2357.37
2366.46
2374.76
2381.35
2385.67
2447.3
2244.18
2044.96
1856.01
1689.25
1535.16
1392.63
1262.85
1145.96
1042.9
953.739
877.92
814.424
761.733
719.536
686.954
662.046
642.942
628.153
616.612
607.577
600.476
594.96
590.795
587.926
585.931
585.049
585.065
586.018
587.887
590.685
594.39
598.992
604.452
610.71
617.692
625.283
633.346
641.699
650.127
658.333
665.974
672.645
677.913
681.391
682.729
681.662
678.134
672.357
664.781
656.015
646.799
637.92
630.009
623.242
617.821
613.384
609.595
605.562
600.661
594.425
1993.55
1975.18
1868.17
1693.02
1514.08
1340.62
1171.7
1019.5
883.352
763.018
659.504
572.134
499.761
441.048
395.001
359.774
332.685
311.317
294.446
281.236
270.874
262.693
256.182
250.984
246.784
243.468
240.785
238.747
237.263
236.307
235.853
235.899
236.427
237.403
238.801
240.58
242.697
245.103
247.741
250.526
253.357
256.123
258.686
260.871
262.516
263.423
263.409
262.324
260.104
256.762
252.449
247.517
242.413
237.654
233.611
230.706
229.051
228.599
229.072
230.198
231.723
1331.75
1476.68
1569.97
1581.17
1508.3
1380.81
1210.36
1041.39
885.064
741.024
616.407
512.132
426.337
357.81
304.165
262.555
230.289
204.862
184.938
169.48
157.558
148.407
141.383
135.947
131.68
128.295
125.578
123.406
121.686
120.354
119.372
118.717
118.361
118.27
118.407
118.735
119.219
119.821
120.496
121.197
121.869
122.459
122.906
123.15
123.134
122.805
122.121
121.058
119.619
117.823
115.732
113.49
111.314
109.476
108.262
108.03
109.038
111.33
114.845
119.496
125.428
801.335
937.118
1079.86
1204.99
1283.27
1297.85
1244.5
1136.81
999.409
844.111
698.667
573.544
466.076
378.805
309.636
254.982
212.263
178.908
152.915
132.872
117.596
106.115
97.5531
91.1424
86.2755
82.5209
79.5897
77.2881
75.4819
74.0672
72.9843
72.1992
71.675
71.3688
71.2399
71.2513
71.3664
71.5489
71.7625
71.9666
72.1183
72.1768
72.1027
71.8591
71.4145
70.7463
69.8492
68.7319
67.4104
65.9275
64.3543
62.8078
61.4747
60.592
60.4587
61.3143
63.5484
67.3583
72.8285
80.0748
88.9008
480.949
566.881
670.388
787.066
904.429
1004.5
1067.19
1077.62
1034.35
945.5
828.489
702.082
574.667
464.813
374.807
300.519
241.941
195.648
158.904
130.595
109.276
93.5835
82.1806
73.8656
67.7127
63.079
59.5534
56.8559
54.7894
53.1954
51.9833
51.1012
50.4995
50.1239
49.9276
49.8697
49.9116
50.0186
50.1555
50.2855
50.37
50.3759
50.2688
50.0203
49.602
48.9993
48.2096
47.2464
46.1232
44.8766
43.5665
42.2945
41.2188
40.5613
40.625
41.792
44.4656
48.9644
55.4754
64.0147
74.4463
298.562
348.758
411.366
487.763
576.857
673.72
768.154
845.922
892.799
898.596
861.589
789.381
694.007
589.626
487.625
391.218
312.5
248.075
194.587
152.857
121.304
98.4039
82.1365
70.5189
62.0943
55.8623
51.2137
47.7365
45.1365
43.1639
41.6791
40.6003
39.8594
39.3834
39.1137
39.0017
39.0042
39.085
39.2085
39.3389
39.4392
39.4821
39.4339
39.2709
38.962
38.4994
37.8779
37.1129
36.2094
35.2032
34.1413
33.113
32.2558
31.7664
31.9418
33.194
35.9684
40.7251
47.7927
57.2384
68.9377
193.328
222.504
259.127
304.802
360.806
427.282
502.362
580.907
654.868
713.473
746.356
747.4
717.005
659.795
584.572
499.453
414.433
334.275
259.604
199.522
152.137
117.958
94.1236
77.2961
65.1768
56.2738
49.7066
44.899
41.3958
38.7734
36.8184
35.3945
34.4082
33.7544
33.3563
33.1506
33.086
33.1211
33.2184
33.3411
33.4512
33.5282
33.5372
33.4581
33.2537
32.9235
32.4558
31.8714
31.1657
30.3747
29.5366
28.7335
28.0862
27.7706
28.0685
29.3876
32.2152
37.1223
44.5924
54.7986
67.6243
130.601
147.695
169.099
196.083
229.695
270.946
320.169
376.788
438.237
500.4
555.344
597.06
619.262
619.353
595.822
550.941
490.69
419.193
345.706
271.277
202.411
153.274
119.042
94.6487
76.6928
63.4838
53.7648
46.7884
41.8142
38.1248
35.4107
33.4207
32.0345
31.0913
30.484
30.1223
29.9418
29.8908
29.9295
30.0126
30.1062
30.1937
30.2392
30.2222
30.1024
29.8803
29.5458
29.1146
28.5814
27.9752
27.3369
26.7403
26.3025
26.1792
26.6327
28.0645
30.9828
36.0295
43.8035
54.6275
68.3386
1.49036
207.591
185.492
2.33209
2.14939
0.203903
0.000719877
90.4655
0.000796395
0.0146984
93.1985
7.06134
0.000720783
244.248
0.166922
136.946
0.000757416
92.0634
117.286
0.00071617
2.3432
233.671
196.965
0.000766981
0.000781129
0.21259
0.000717279
7.73101
0.000753181
0.000819622
6.35337
0.000743163
0.00878496
65.8139
3.99311
111.1
71.1017
16.1876
0.000723231
44.5733
64.9415
27.6153
0.000743328
104.328
174.721
0.718073
0.000869025
0.00860921
1.30416
7.27148
361.372
350.995
0.000698527
0.00102918
0.0633424
0.0356207
0.000816738
8.88132
58.3325
278.685
139.061
0.000905987
1.5516
0.0249651
197.379
2.37629
38.5058
63.0837
0.00113253
0.000747677
9.82109
42.3768
55.5893
0.0377203
0.0512506
80.1653
224.243
57.6556
0.00070023
5.496
0.0023427
47.5704
0.0127347
113.664
0.000749935
8.82218
0.000791101
37.0573
0.0111075
0.00136682
0.232567
0.000698557
0.000933572
302.17
141.772
0.000867114
1.58562
1.82581
0.00184884
206.084
1.01656
31.6271
6.08003
0.000696989
0.000725939
0.000694339
1.44292
0.210145
0.000748003
173.168
221.449
0.00478199
235.939
26.9317
113.392
54.6974
28.2982
0.000977746
0.111035
0.00110534
0.00162203
190.787
0.00309055
285.968
406.572
28.1993
0.000746034
7.36415
7.16115
0.000743946
0.0299924
0.0268306
91.2354
0.00187204
64.205
0.000748858
0.000723787
390.215
344.363
0.000748838
0.750942
148.312
0.232448
0.908135
26.6698
120.059
0.298503
27.6174
0.00526289
271.127
11.1623
0.0383519
50.8325
111.24
187.029
0.000765912
0.000757175
0.517235
0.00069614
41.1181
0.114309
0.00144946
0.00074041
0.0007475
0.000758572
41.9679
69.5993
34.0569
0.000768577
281.516
299.494
408.122
165.466
0.00692728
162.168
45.9419
28.2335
0.000750063
0.00169735
193.222
67.6259
28.3459
71.7689
0.000745378
0.000841862
240.06
0.0295738
2.49279
0.000757824
0.00086713
0.173869
0.000797832
325.286
4.16634
0.000691799
0.687178
90.072
138.554
0.00119818
52.2238
0.000746644
0.000750224
108.787
34.0593
295.857
0.00121514
0.000800624
0.00286418
42.7887
75.782
10.1576
119.713
14.3834
230.969
0.80374
89.0817
83.2842
26.0458
10.8562
39.5126
0.00144224
0.0294128
0.000747689
0.000726623
28.385
0.0100168
0.0117421
0.00197948
0.00628697
48.8188
198.389
0.0111432
166.581
7.69773
2.96051
0.000732457
0.522441
40.0993
7.49699
0.00106358
13.1578
35.2889
0.842016
2.47188
269.873
7.64223
4.89529
124.424
0.000955245
0.000724106
0.0010268
0.00428896
28.795
0.000784436
0.0024979
0.000723631
1.78955
76.548
76.6316
48.9388
12.1205
11.6236
321.268
0.00114031
47.7236
98.8582
0.000743921
86.8194
0.000749607
325.406
1.78869
55.4244
0.00154851
0.000748504
20.7564
7.55131
0.000759627
0.000750577
0.00075538
0.000751497
1.18653
35.484
46.4923
0.0108998
0.000760437
0.000724403
0.000696076
107.562
1.14178
0.00119061
19.5089
0.116657
0.0962692
0.00069237
0.791019
0.000760157
0.109117
47.1381
270.303
3.14484
0.000977922
0.00184585
58.3844
0.35309
130.368
319.346
0.000838165
0.000739923
0.000733981
158.619
0.000773581
137.216
0.000749847
24.1802
12.3509
0.024231
143.349
237.262
0.0012721
49.7728
50.9021
89.4481
91.0976
9.74339
341.794
38.5405
72.0925
140.202
96.8235
55.7872
0.34212
332.321
278.065
62.3185
33.5911
0.001002
264.827
129.187
230.475
0.0188253
0.000867444
0.000745778
0.000811645
0.686679
1.56618
6.31526
0.125335
0.000726282
169.45
0.000746389
27.0593
24.4749
192.148
42.0045
19.5908
0.00192895
0.00110596
0.467606
87.8146
0.00435825
7.95761
258.704
35.8464
86.9559
189.567
61.5115
0.000821213
281.199
140.709
97.1208
0.000750495
190.101
150.927
0.00078146
30.5065
0.000751628
386.864
171.968
28.0387
84.1693
117.504
148.92
0.00076468
148.405
0.000964899
68.542
84.115
28.2542
277.583
3.6898
0.493681
2.58996
0.00109974
440.13
1.49642
0.00290633
0.00182728
254.162
0.00095335
95.7894
0.000737579
0.000750018
0.0018384
32.1088
0.193334
22.65
0.00197838
86.0364
0.309403
213.877
278.827
39.7216
333.335
0.000793878
277.806
43.8435
0.000742275
81.437
26.7327
0.000696677
0.000727431
114.656
0.00206234
26.4158
0.464449
78.863
0.0177209
3.58677
40.7721
120.025
34.1767
82.4963
70.2047
0.00100176
0.0339938
28.8274
20.776
328.2
334.898
137.817
0.0847062
123.463
122.328
3.45596
91.3217
46.6452
27.0338
0.000822539
87.2799
376.455
0.0010761
90.6562
19.5706
47.2287
0.0153543
0.0893053
265.811
0.00193185
324.186
0.00124635
1.78361
0.000738019
7.96489
168.277
0.557194
0.00132052
0.000902703
77.4643
26.82
0.36662
5.50041
291.306
545.033
0.00139324
11.8977
27.2551
73.1674
26.2307
449.385
28.7661
154.919
53.8116
3.50368
7.20623
300.189
54.0051
349.786
171.837
0.239475
176.097
61.0081
0.000792012
91.8648
29.5023
13.1355
0.00979523
97.4005
44.554
4.30847
52.9762
0.00159314
0.000747177
0.154478
28.3365
105.022
72.2296
0.000750208
0.000731268
0.000743878
28.2884
0.0278653
0.000745739
0.248191
95.5893
270.857
0.00439995
0.00453388
0.000721506
0.000738736
0.0019414
30.0909
101.387
20.3943
1.89591
291.251
375.532
0.00151087
61.2776
27.9013
28.4247
78.2898
428.792
0.000821839
0.00445299
0.000750908
397.656
0.795872
0.000726891
10.671
0.356114
299.193
0.000759335
317.266
9.0542
0.0656403
200.741
0.000748094
0.00073645
0.00102716
396.519
55.0199
130.378
313.664
10.9449
28.6315
0.000708811
0.00184501
0.46929
0.0152665
0.0163696
179.74
40.7394
0.000747858
25.1454
44.8105
182.173
398.774
0.00294879
402.403
0.00182469
0.021842
151.389
0.000739266
148.467
0.000759584
0.000791539
0.0212089
34.484
2.93829
327.081
61.5511
0.000886032
28.5263
498.549
0.209449
2.26549
7.44153
0.000774738
0.000759627
0.002309
138.499
5.38728
0.000783494
265.377
276.183
214.416
0.110602
59.1642
0.00109043
31.277
0.532352
0.131819
120.572
29.7506
151.442
173.921
0.00076105
0.000711601
0.00493746
72.7781
101.644
5.99821
0.00659219
0.000772542
0.000749923
0.00343506
0.127561
0.0021149
71.6248
21.229
0.00499069
26.3638
170.824
0.000760539
38.0551
0.000742599
3.3036
0.000762492
0.0132517
37.0398
0.0116617
0.000744595
4.10833
355.687
256.405
0.00073103
0.000748328
1.59108
0.137654
0.00074774
96.8221
0.000905207
31.9144
369.621
30.6818
87.302
299.214
130.778
333.014
0.000747602
0.00250503
0.01112
289.727
60.0188
196.343
5.47803
4.34571
99.5191
169.871
123.565
4.9097
45.0943
0.000750542
1.57179
41.674
34.2007
306.125
25.6979
1.12175
42.372
0.20624
0.00984674
41.7056
0.00075101
174.346
0.000887159
2.69092
290.982
185.578
3.13575
0.00251211
7.25229
0.00076872
0.000736238
0.199027
0.0135239
53.6708
0.00872516
28.74
0.000750517
0.0190875
0.000725457
97.2497
0.00181901
85.901
304.924
0.0142669
169.337
364.851
0.000757006
99.0349
223.763
0.000785637
285.589
0.273822
0.000825052
0.00079144
274.765
0.000731613
0.00111828
0.122833
0.217554
421.477
268.017
0.000751496
0.000754514
9.18158
28.966
0.00710398
2.34088
22.7157
0.000747673
0.000953942
0.000912547
169.192
269.73
3.47417
289.641
0.0171973
26.6722
0.000772112
0.00719234
0.0160507
0.0433578
0.000749682
292.236
0.000741931
0.0161007
0.000771655
1.32478
0.0147596
0.0394011
2.49247
5.24692
34.9266
2.14499
9.5394
27.9197
189.047
0.000816326
166.224
321.062
13.0666
77.8759
0.000761774
265.369
78.0897
0.000745645
400.817
65.2644
0.00619002
0.0242245
164.165
164.821
0.220838
311.963
399.205
4.43397
421.095
258.273
132.089
50.0939
20.4246
28.1384
261.141
284.86
0.0142415
302.168
40.2262
400.976
0.000813408
1.62039
2.80084
225.518
163.104
0.0118548
444.059
197.063
6.90631
0.0549419
2.73167
28.1192
0.00154748
28.2504
430.255
0.0294131
222.031
14.3011
94.9447
188.699
0.000746058
0.00168037
7.54104
5.46522
0.0133289
0.000748304
0.818994
1.78481
0.00120889
0.000758696
267.772
7.30296
52.6152
10.958
0.00314896
0.00107497
0.413683
86.771
0.000823927
22.6567
30.2117
1.85199
165.534
0.00100523
0.391474
0.000740606
1.78919
89.5735
0.00162163
0.185669
40.6324
163.234
0.504312
98.4053
5.14456
0.91315
0.000987756
34.1621
324.679
0.00074407
0.000755704
148.028
0.0158256
0.000758246
73.8888
2.12553
165.883
29.5723
37.7994
0.31681
17.5234
200.332
159.129
242.532
0.000763242
272.82
0.000969188
38.1561
0.000796938
0.001467
44.6784
0.00209704
252.041
0.0122162
0.0324156
45.2247
7.68003
0.557793
0.000897135
183.296
0.000886737
0.000719222
337.854
160.406
42.1886
28.6275
0.00081369
0.000683627
19.5331
148.464
0.00073239
213.683
37.0257
0.000752898
171.888
0.000702646
3.31669
6.51298
10.8267
1.56769
76.1478
21.1374
0.000700884
266.509
320.682
0.000744512
0.0133793
28.8827
0.000708963
238.72
161.665
401.446
0.000745546
0.000727844
200.459
0.0973814
0.000836828
31.9516
80.52
251.253
0.000720893
0.000793968
0.0158015
0.0116462
0.000746825
0.00203194
128.762
50.5768
0.000746661
13.6952
0.000747041
9.88003
0.00109118
0.000866981
28.3103
0.000748565
0.339176
0.000730514
48.9264
2.07292
20.5836
187.47
358.241
150.531
5.34659
14.7372
0.000758249
5.74413
275.59
530.707
0.157186
0.000826624
129.348
0.000746084
0.114688
0.000720583
431.695
14.8027
3.08681
193.394
52.6185
4.88321
82.7801
7.68088
224.863
117.208
0.000773771
0.000756182
0.00308368
0.000737223
0.0140609
96.3684
0.000932219
245.212
0.0018652
0.30179
3.13523
154.313
0.00136031
42.7094
0.0136248
54.3207
31.6779
426.712
0.000795939
0.000955177
1.4305
87.7839
63.6901
68.021
2.00937
8.0171
19.5936
0.0629829
9.98619
1.79184
30.1805
0.000756507
388.705
1.44289
57.7709
0.000787864
54.7389
15.9799
0.00184933
88.6298
17.6458
0.0845968
0.000715148
0.000746023
204.39
49.544
14.9176
0.000737811
0.00954999
50.0064
189.527
3.46468
0.00585464
0.000735634
144.647
129.824
35.7044
37.2068
0.00074363
103.338
426.684
0.000746914
0.00074929
18.5074
0.0012639
0.00387244
0.228087
47.2767
0.00105233
36.2231
340.536
0.000731838
0.000821594
0.000727442
0.000769877
68.788
513.533
328.625
0.0206325
34.6636
46.7772
0.133843
46.0565
0.000824225
31.3238
0.535054
30.4415
5.39
82.0124
103.798
0.146463
0.000759141
160.489
85.0046
275.785
5.84133
30.0782
0.534971
20.4324
0.00353627
0.00133419
155.553
143.015
0.0339337
1.21829
0.000753994
0.0999846
20.2783
0.0279882
13.7322
4.34453
387.418
37.2008
1.74743
269.814
142.935
56.2181
16.1472
201.965
185.67
3.24419
39.3157
0.00360505
48.8099
46.8715
0.000743456
0.000711055
0.342176
0.000748457
0.000775423
57.2123
297.147
0.000744608
83.1436
0.000744948
0.0007368
0.000740799
0.00075284
0.00181553
29.5673
43.5017
248.268
0.000718774
0.0010642
6.91123
0.000855004
0.0284034
0.000762785
0.000866007
168.341
0.000983144
0.00466004
182.547
0.00426061
0.000749447
188.968
0.000745376
0.000760539
1.48921
0.000870429
6.58573
0.00123969
0.0239355
0.000743843
0.000753517
300.645
412.726
43.5377
0.0237989
112.446
16.7914
0.00130265
27.6355
305.921
235.074
474.108
0.00070101
26.8662
57.4539
0.262827
28.6166
101.191
0.352206
31.6296
1.04617
28.5219
0.286221
7.49899
0.000757622
217.014
0.000757399
28.6985
33.4614
0.000747867
0.919999
0.00245722
0.0292157
0.000726466
3.89565
0.000893686
0.000741869
40.2118
0.0361064
0.165655
230.974
153.829
0.00081913
0.000968386
31.5505
258.513
0.000690564
0.00075397
0.195046
23.883
149.974
0.00209831
16.4088
0.000745438
0.000818188
0.000718492
0.0279452
23.4333
0.00409336
269.909
29.8476
257.011
171.174
0.000842999
293.357
68.6313
0.000732719
0.000754065
0.000750338
0.00115888
0.000740215
125.753
0.000745391
0.000750376
344.056
1.24055
0.00267818
0.0349651
61.2091
7.71509
0.00783339
0.000823979
185.054
0.000762694
6.79654
0.000754963
0.000845554
162.461
160.803
0.00333582
0.000835277
3.85014
0.000744256
360.939
0.000753016
148.066
0.0270835
8.36172
0.117635
3.10608
1.97788
29.5567
0.000760955
0.000859916
0.00489883
58.5259
0.284689
300.664
0.000747058
0.00124336
0.00163941
254.975
63.4859
273.919
0.00226282
0.00351046
0.830141
0.000751313
19.4341
38.9626
0.00877142
267.076
182.322
43.1054
0.00154695
1.46807
169.578
222.877
27.9525
0.0105918
124.125
0.527711
131.498
0.144847
2.31399
41.5396
0.000761954
28.5229
0.00122332
0.00509621
0.00622048
0.0479108
0.000906925
11.0498
0.000745941
45.9449
0.132607
0.000867322
1.61638
0.000756578
0.766592
0.22882
40.1665
3.75608
92.8596
0.824191
0.00074839
0.000732204