/*--------------------------------*- C++ -*----------------------------------*\
| =========                 |                                                 |
| \\      /  F ield         | OpenFOAM: The Open Source CFD Toolbox           |
|  \\    /   O peration     | Version:  2.3.1                                 |
|   \\  /    A nd           | Web:      www.OpenFOAM.org                      |
|    \\/     M anipulation  |                                                 |
\*---------------------------------------------------------------------------*/
FoamFile
{
    version     2.0;
    format      ascii;
    class       volScalarField;
    location    "0.96";
    object      k;
}
// * * * * * * * * * * * * * * * * * * * * * * * * * * * * * * * * * * * * * //

dimensions      [0 2 -2 0 0 0 0];

internalField   nonuniform List<scalar> 
9648
(
2.68438
2.68429
2.68209
2.67703
2.66861
2.65604
2.63971
2.61953
2.59532
2.56705
2.53481
2.49887
2.45972
2.41799
2.37439
2.32971
2.28472
2.24012
2.19652
2.15446
2.11432
2.07641
2.04092
2.00798
1.97763
1.94987
1.92467
1.90195
1.88164
1.86363
1.84783
1.83412
1.82242
1.81262
1.80462
1.79834
1.79371
1.79063
1.78905
1.78889
1.79013
1.7927
1.79658
1.80172
1.80813
1.81577
1.82468
1.83488
1.84639
1.85923
1.87346
1.88911
1.90625
1.92485
1.94495
1.96641
1.98897
2.01215
2.03549
2.05862
2.08116
1.7177
1.71055
1.70259
1.69499
1.69001
1.69015
1.69757
1.7132
1.7369
1.76864
1.80807
1.85452
1.90704
1.96461
2.02621
2.09086
2.15767
2.22583
2.29468
2.3637
2.43244
2.50056
2.56783
2.63407
2.69919
2.76314
2.82597
2.88767
2.94827
3.00785
3.06651
3.1243
3.1813
3.23761
3.29329
3.34838
3.403
3.45721
3.51102
3.5644
3.61743
3.67021
3.7227
3.77487
3.82683
3.87843
3.92968
3.98069
4.03152
4.08202
4.13206
4.18159
4.23068
4.27895
4.32667
4.37357
4.41987
4.46486
4.5088
4.55172
4.59369
1.43176
1.47003
1.51143
1.55857
1.61388
1.67835
1.75167
1.83365
1.92356
2.02076
2.12401
2.23235
2.34458
2.45953
2.57605
2.69307
2.80969
2.92505
3.03848
3.14945
3.25754
3.36246
3.46402
3.56214
3.65685
3.74821
3.83638
3.92143
4.00356
4.08294
4.15974
4.23417
4.30644
4.37665
4.44496
4.51157
4.57656
4.64009
4.70224
4.76309
4.82275
4.88126
4.93875
4.99526
5.05078
5.10529
5.15877
5.2113
5.26273
5.31309
5.36235
5.41056
5.45791
5.50374
5.54896
5.59256
5.6353
5.67608
5.71613
5.75503
5.79284
1.37228
1.45501
1.54386
1.64044
1.74577
1.86022
1.9835
2.11474
2.25272
2.39618
2.54357
2.69353
2.84462
2.99568
3.14547
3.29293
3.43721
3.57759
3.71351
3.84457
3.97051
4.09109
4.20631
4.31625
4.42109
4.52106
4.61642
4.70743
4.79437
4.87751
4.9572
5.03372
5.10734
5.17835
5.2469
5.31327
5.37763
5.44014
5.50096
5.56023
5.61806
5.67461
5.72995
5.78421
5.83739
5.88953
5.94066
5.99081
6.03992
6.08797
6.13511
6.18097
6.22579
6.26938
6.31225
6.35386
6.39424
6.4334
6.47139
6.50826
6.54381
1.42074
1.54197
1.67192
1.81075
1.9586
2.11542
2.28044
2.45225
2.62933
2.80985
2.99205
3.17418
3.35489
3.53289
3.70703
3.87615
4.03949
4.19656
4.34689
4.49034
4.62672
4.75592
4.87809
4.9934
5.10227
5.20512
5.30229
5.39419
5.48114
5.56354
5.64181
5.71631
5.78748
5.85558
5.92085
5.98361
6.04412
6.10248
6.15892
6.2136
6.26666
6.31828
6.36864
6.41782
6.46587
6.51284
6.55875
6.60364
6.64758
6.69036
6.73213
6.77278
6.81217
6.85035
6.88748
6.92366
6.95861
6.9924
7.02495
7.05614
7.08602
1.51722
1.67305
1.83982
2.01662
2.20253
2.39691
2.59848
2.80553
3.01601
3.22767
3.43853
3.64655
3.85049
4.04896
4.2412
4.42588
4.60219
4.77005
4.92896
5.07917
5.22065
5.35319
5.47728
5.593
5.70114
5.8023
5.89693
5.98566
6.06864
6.14645
6.21966
6.28857
6.35386
6.41586
6.47469
6.5308
6.58459
6.63606
6.68551
6.73308
6.77883
6.82309
6.86607
6.90794
6.94863
6.9883
7.02706
7.06468
7.10141
7.1371
7.17168
7.20513
7.23741
7.26837
7.29825
7.32702
7.35479
7.38147
7.40677
7.43048
7.45298
1.64181
1.82951
2.03029
2.24185
2.46208
2.68999
2.92375
3.16134
3.40057
3.63822
3.87272
4.10123
4.32297
4.53642
4.74194
4.93714
5.1215
5.29545
5.45815
5.61056
5.75293
5.88451
6.00661
6.1186
6.22203
6.31782
6.40629
6.48866
6.56448
6.63456
6.69982
6.76013
6.81675
6.87004
6.91972
6.96653
7.01131
7.05347
7.0937
7.13205
7.16832
7.20309
7.23663
7.26922
7.30047
7.33074
7.36018
7.38863
7.41634
7.44297
7.46856
7.49295
7.51622
7.53806
7.55854
7.57818
7.59696
7.61471
7.63088
7.64527
7.65843
1.78276
1.99973
2.23197
2.47535
2.72651
2.98372
3.2455
3.50965
3.77334
4.03267
4.28652
4.53065
4.76536
4.98841
5.20296
5.40453
5.59287
5.76942
5.93169
6.08205
6.22172
6.34837
6.46564
6.57014
6.66503
6.75194
6.83078
6.90403
6.9697
7.02918
7.08408
7.13288
7.17806
7.22009
7.25804
7.29304
7.3263
7.35635
7.38502
7.41202
7.43652
7.45932
7.48105
7.50205
7.52151
7.54028
7.55794
7.57482
7.59102
7.6064
7.62065
7.6337
7.64593
7.65632
7.66536
7.67373
7.68087
7.68805
7.69312
7.6958
7.69779
1.93137
2.17247
2.4334
2.70299
2.98302
3.26448
3.54895
3.83756
4.11971
4.39808
4.66636
4.92453
5.16727
5.39531
5.61347
5.8182
6.0075
6.18347
6.34598
6.4909
6.62309
6.74229
6.85078
6.94809
7.03117
7.10498
7.17181
7.23317
7.28571
7.33241
7.3747
7.41095
7.44238
7.47003
7.49312
7.51451
7.53204
7.54728
7.5622
7.57457
7.58467
7.59178
7.60015
7.60679
7.61201
7.61799
7.62021
7.623
7.62368
7.62391
7.6224
7.62028
7.61864
7.61526
7.61066
7.60554
7.59711
7.59301
7.58453
7.57225
7.56106
2.10283
2.1235
2.14331
2.16223
2.18031
2.1977
2.21465
2.23151
2.2482
2.26399
2.27858
2.29262
2.30622
2.31961
2.33308
2.34725
2.36251
2.37916
2.39749
2.4179
2.43999
2.46336
2.48773
2.51274
2.53811
2.56385
2.59012
2.6166
2.64325
2.67011
2.69731
2.72473
2.75237
2.7804
2.80874
2.83737
2.86639
2.89589
2.9258
2.95606
2.98676
3.01801
3.04978
3.08201
3.11484
3.14808
3.18174
3.21597
3.25081
3.28611
3.32194
3.35837
3.39552
3.43313
3.47156
3.51072
3.55092
3.59187
3.63392
3.67719
3.7218
4.63475
4.67372
4.71175
4.74897
4.78512
4.81976
4.85243
4.88381
4.91292
4.94125
4.96783
4.99338
5.01782
5.0412
5.06343
5.08436
5.10412
5.12267
5.14003
5.15617
5.17116
5.18503
5.19765
5.20909
5.21936
5.22842
5.23614
5.24227
5.24691
5.25003
5.25164
5.25177
5.25047
5.24771
5.24354
5.23803
5.23113
5.22295
5.21344
5.20263
5.19059
5.17734
5.16298
5.14745
5.13074
5.11277
5.09344
5.0728
5.05078
5.0274
5.00263
4.9764
4.94885
4.91952
4.88915
4.85712
4.82406
4.7895
4.75451
4.71896
4.68301
5.82897
5.86397
5.89736
5.9298
5.96118
5.9919
6.02068
6.0481
6.0733
6.09718
6.11941
6.14037
6.15991
6.17837
6.1955
6.21124
6.22561
6.23859
6.25017
6.26033
6.26915
6.27659
6.28266
6.28738
6.29071
6.29264
6.2932
6.29234
6.29002
6.28617
6.28084
6.27395
6.26552
6.25561
6.24419
6.23131
6.21693
6.20109
6.18378
6.16505
6.14497
6.12361
6.10105
6.07732
6.05238
6.02617
5.99853
5.96942
5.93878
5.9066
5.87286
5.8373
5.80004
5.7609
5.72012
5.67736
5.63286
5.58689
5.5399
5.492
5.44334
6.57829
6.61145
6.64329
6.67353
6.70252
6.73029
6.75656
6.78113
6.80403
6.82528
6.8449
6.86291
6.87935
6.89427
6.90757
6.9194
6.92972
6.93847
6.94563
6.9512
6.95525
6.95784
6.95899
6.95873
6.95697
6.9537
6.9489
6.94259
6.93481
6.92552
6.91466
6.90216
6.88802
6.87227
6.85497
6.83611
6.81565
6.79355
6.7698
6.74448
6.71771
6.68959
6.6603
6.62995
6.59856
6.56609
6.53231
6.49718
6.4606
6.42261
6.38305
6.34178
6.29878
6.25393
6.20719
6.15835
6.1076
6.05525
6.00178
5.94724
5.89206
7.11455
7.14186
7.1677
7.19191
7.21442
7.2353
7.25459
7.27227
7.28853
7.3034
7.3167
7.32847
7.33872
7.34736
7.35443
7.36003
7.36401
7.36636
7.367
7.36593
7.36328
7.35916
7.35368
7.34689
7.33866
7.32896
7.31779
7.3052
7.29129
7.27606
7.25945
7.24127
7.2215
7.20015
7.17735
7.15304
7.1271
7.09951
7.07014
7.03907
7.00644
6.97239
6.93723
6.90121
6.86445
6.82699
6.78845
6.74883
6.70803
6.66619
6.62294
6.57806
6.53165
6.48344
6.43334
6.38085
6.32644
6.27021
6.21289
6.15443
6.09541
7.47411
7.49387
7.51203
7.52869
7.5436
7.55676
7.56833
7.57809
7.58622
7.59281
7.598
7.60176
7.60401
7.60465
7.6037
7.60134
7.59749
7.59195
7.58454
7.57521
7.56419
7.55173
7.53799
7.52313
7.50694
7.48929
7.47021
7.44979
7.42832
7.40593
7.38261
7.35793
7.33189
7.3044
7.27574
7.24573
7.21411
7.1809
7.14584
7.10896
7.07039
7.03019
6.98884
6.94681
6.90441
6.86197
6.81865
6.77486
6.7302
6.68526
6.63923
6.59159
6.54283
6.4924
6.44034
6.3855
6.32879
6.26997
6.21051
6.14971
6.08844
7.67032
7.68087
7.68985
7.69722
7.70284
7.70668
7.7087
7.70918
7.70801
7.70497
7.70054
7.69492
7.68785
7.67916
7.66874
7.65717
7.64452
7.63016
7.61374
7.59497
7.57427
7.55217
7.52886
7.50475
7.47955
7.45277
7.42453
7.39472
7.36416
7.33324
7.30243
7.27054
7.23797
7.20412
7.16981
7.13448
7.09731
7.05867
7.01827
6.97609
6.93202
6.88584
6.83827
6.79005
6.74167
6.69432
6.64596
6.59814
6.5497
6.50256
6.45494
6.40534
6.35528
6.30365
6.25112
6.1948
6.13716
6.07679
6.017
5.95537
5.89369
7.69833
7.69787
7.69572
7.69234
7.68724
7.68068
7.67198
7.66274
7.65201
7.63861
7.62382
7.60848
7.59159
7.5732
7.55229
7.53045
7.50886
7.48593
7.46094
7.43251
7.40125
7.36906
7.33549
7.30124
7.26679
7.23069
7.19297
7.15243
7.11078
7.06942
7.03036
6.99049
6.95147
6.91153
6.8728
6.83403
6.79214
6.74803
6.70295
6.65717
6.60904
6.5579
6.50488
6.45076
6.3963
6.34474
6.29093
6.23935
6.18688
6.13879
6.09153
6.04089
5.99066
5.93902
5.88783
5.83079
5.77372
5.7126
5.65463
5.59399
5.53433
7.54692
7.53306
7.51615
7.49983
7.48076
7.46375
7.44264
7.42376
7.40477
7.38315
7.35943
7.33587
7.31002
7.28407
7.25251
7.21823
7.18732
7.15759
7.12822
7.09397
7.05104
7.01033
6.96792
6.92273
6.87886
6.83455
6.79101
6.74142
6.6857
6.63104
6.58253
6.53309
6.48709
6.44116
6.4016
6.36419
6.32065
6.27046
6.22084
6.17425
6.12637
6.07274
6.01526
5.9572
5.89774
5.84366
5.7835
5.72834
5.67056
5.62416
5.58011
5.52888
5.48027
5.43093
5.38355
5.3264
5.27145
5.20989
5.15593
5.09852
5.04406
3.76773
3.81462
3.86273
3.91208
3.96268
4.01467
4.06796
4.12269
4.17859
4.23563
4.29397
4.35333
4.41361
4.47702
4.55552
4.62685
4.69724
4.76842
4.84041
4.91333
4.98722
5.0621
5.13784
5.21438
5.29154
5.36907
5.44687
5.52475
5.6025
5.67982
5.75659
5.83252
5.90719
5.98041
6.05181
6.12086
6.18708
6.24979
6.30476
6.34492
6.37215
6.3871
6.38968
6.37917
6.35452
6.31425
6.25643
6.17867
6.0782
5.95177
5.79551
5.60483
5.37458
5.09843
4.73995
4.20783
3.96293
3.83896
3.78988
3.76452
3.70885
4.64636
4.60934
4.57149
4.53294
4.49368
4.4544
4.41482
4.37572
4.33659
4.29782
4.26011
4.21724
4.17082
4.12695
4.07781
4.03051
3.98311
3.9356
3.88844
3.8419
3.79598
3.75041
3.70508
3.65994
3.61492
3.57004
3.52531
3.48083
3.43661
3.39274
3.34931
3.30647
3.26433
3.22312
3.1831
3.14456
3.10792
3.07377
3.04272
3.01631
2.99199
2.96999
2.95066
2.93461
2.92275
2.91602
2.91546
2.92243
2.93841
2.9647
3.00258
3.05323
3.11803
3.1983
3.28661
3.42076
3.59926
3.87435
4.26575
4.76879
5.0634
5.39412
5.34435
5.29376
5.24203
5.18913
5.13558
5.08165
5.02781
4.97366
4.91914
4.86146
4.79575
4.73043
4.66833
4.60635
4.5451
4.48309
4.42034
4.35723
4.29417
4.2312
4.16805
4.10469
4.04111
3.97719
3.91296
3.84839
3.78349
3.7182
3.65253
3.58646
3.52002
3.45325
3.38618
3.31891
3.25153
3.18415
3.1169
3.04993
2.98345
2.91743
2.85145
2.7861
2.72219
2.66004
2.60024
2.54367
2.49157
2.44559
2.40793
2.38141
2.36965
2.37745
2.41008
2.47098
2.57118
2.71607
2.93714
3.28047
3.79804
4.40837
5.8364
5.78063
5.72415
5.6666
5.60759
5.54788
5.48781
5.42799
5.36784
5.30674
5.23911
5.16546
5.09407
5.02607
4.95922
4.89318
4.82674
4.76002
4.69314
4.62643
4.55976
4.49269
4.42537
4.35784
4.28996
4.22181
4.15333
4.08451
4.01523
3.94548
3.87523
3.8045
3.73332
3.66177
3.5899
3.51779
3.44551
3.37313
3.30065
3.22809
3.15542
3.08257
3.00888
2.93429
2.85947
2.78452
2.70968
2.6354
2.56236
2.49165
2.42471
2.36373
2.31164
2.27214
2.24904
2.24868
2.27989
2.36108
2.52272
2.80919
3.24233
6.03586
5.97661
5.91688
5.85622
5.7936
5.73024
5.66644
5.60327
5.53964
5.47479
5.40198
5.32538
5.25177
5.18161
5.1126
5.04442
4.97605
4.90822
4.8407
4.7737
4.70682
4.63924
4.57148
4.50363
4.43541
4.367
4.29825
4.22918
4.15956
4.0894
4.01868
3.94751
3.87596
3.80416
3.73217
3.66012
3.58809
3.51615
3.44429
3.37255
3.30092
3.22943
3.15794
3.08589
3.01308
2.93967
2.8657
2.79127
2.71651
2.64179
2.5675
2.49424
2.42294
2.3548
2.29137
2.23574
2.19423
2.17801
2.20442
2.29946
2.4927
6.02627
5.96517
5.90388
5.84193
5.77709
5.71151
5.64513
5.58012
5.51476
5.44858
5.37374
5.29711
5.22371
5.1542
5.08526
5.01715
4.94874
4.88193
4.81591
4.75093
4.68613
4.62009
4.5542
4.48856
4.42247
4.35633
4.28972
4.22284
4.15516
4.08689
4.01796
3.94873
3.87924
3.80977
3.7403
3.67105
3.60208
3.5335
3.46529
3.39754
3.33024
3.26348
3.19725
3.13139
3.06546
2.99898
2.93196
2.8645
2.79664
2.72848
2.66013
2.59161
2.52289
2.45394
2.38457
2.31542
2.24905
2.191
2.15047
2.14139
2.18293
5.8298
5.76825
5.70689
5.64573
5.57972
5.51324
5.44515
5.37999
5.31469
5.24984
5.17495
5.10035
5.02885
4.9625
4.89553
4.82972
4.76284
4.6991
4.63639
4.57523
4.51429
4.451
4.38879
4.32772
4.26577
4.20397
4.14125
4.0785
4.01436
3.94967
3.88407
3.81868
3.75319
3.68825
3.62344
3.55927
3.49555
3.43264
3.37041
3.30912
3.24862
3.18918
3.1307
3.07317
3.01636
2.95985
2.90292
2.84561
2.78807
2.73046
2.67285
2.61522
2.55737
2.49883
2.43893
2.37706
2.31336
2.24965
2.18984
2.1406
2.11216
5.46947
5.40851
5.34868
5.29093
5.22507
5.15932
5.09034
5.02704
4.96387
4.90322
4.82965
4.75844
4.68985
4.62894
4.56523
4.50381
4.43957
4.38076
4.32282
4.26657
4.21061
4.15041
4.0932
4.03932
3.98311
3.92691
3.86886
3.81168
3.75174
3.69153
3.62994
3.56997
3.50993
3.45148
3.39296
3.33568
3.27863
3.22312
3.1686
3.11584
3.06411
3.01408
2.96552
2.91811
2.87176
2.82656
2.78119
2.73541
2.6897
2.64433
2.59959
2.55544
2.5117
2.46784
2.42309
2.37651
2.32733
2.27543
2.22177
2.16879
2.121
4.97933
4.91873
4.86254
4.81107
4.74704
4.68351
4.61409
4.55542
4.49706
4.44326
4.37218
4.30487
4.23914
4.18582
4.12582
4.07087
4.00977
3.95782
3.90567
3.85383
3.80302
3.74515
3.69415
3.65162
3.60175
3.55012
3.49615
3.44578
3.38916
3.33323
3.27482
3.22228
3.16843
3.11838
3.06668
3.01743
2.96658
2.91939
2.87376
2.83129
2.78981
2.75051
2.71317
2.67697
2.64082
2.6054
2.57041
2.53481
2.50083
2.46748
2.43708
2.40789
2.38048
2.3534
2.32639
2.29807
2.26781
2.2347
2.19871
2.15945
2.11861
3.61517
3.51087
3.39755
3.27711
3.15499
3.03445
2.91827
2.81013
2.71309
2.62909
2.55889
2.50234
2.45842
2.42556
2.40195
2.38573
2.3752
2.36909
2.36635
2.36613
2.36785
2.3711
2.3756
2.38122
2.38785
2.39537
2.40386
2.41318
2.42337
2.43437
2.44613
2.45857
2.47162
2.4851
2.49887
2.51276
2.52654
2.53997
2.55284
2.56495
2.57605
2.58595
2.59455
2.6018
2.60771
2.61246
2.61626
2.61938
2.62216
2.62501
2.62824
2.63207
2.63665
2.64207
2.64817
2.65475
2.66146
2.66811
2.6742
2.67919
2.68269
5.05216
4.97727
4.85159
4.67732
4.48365
4.27229
4.04119
3.79855
3.55271
3.31175
3.08193
2.86961
2.6783
2.50902
2.36223
2.23904
2.13848
2.05762
1.99329
1.94281
1.90366
1.8736
1.85081
1.83391
1.82212
1.81404
1.80988
1.8088
1.81069
1.81526
1.8223
1.83157
1.84281
1.85568
1.86983
1.88491
1.90042
1.91588
1.93071
1.94426
1.95579
1.96451
1.96956
1.97012
1.96551
1.95527
1.93925
1.91784
1.892
1.86331
1.83369
1.8053
1.7802
1.75988
1.74494
1.73547
1.73047
1.72865
1.72794
1.7265
1.72299
4.90353
5.25276
5.44034
5.4372
5.29991
5.09979
4.83711
4.53857
4.21983
3.89295
3.57026
3.26282
2.97805
2.72077
2.49401
2.29906
2.13405
1.99471
1.87864
1.78478
1.71061
1.65316
1.60935
1.5764
1.55188
1.53439
1.52219
1.51472
1.51111
1.51083
1.51342
1.51844
1.52542
1.53384
1.54319
1.55295
1.56259
1.57157
1.57932
1.58522
1.58864
1.58899
1.58569
1.57816
1.56595
1.54871
1.52625
1.49871
1.46667
1.43126
1.3943
1.3584
1.32665
1.30201
1.28672
1.28235
1.2889
1.30542
1.32998
1.36047
1.39489
3.78082
4.3704
4.93014
5.35062
5.55924
5.59117
5.45838
5.20313
4.88402
4.52003
4.14053
3.76766
3.41374
3.08975
2.80018
2.54502
2.32139
2.12786
1.96321
1.82653
1.71582
1.6287
1.56188
1.51162
1.47434
1.44742
1.42863
1.41652
1.40984
1.4076
1.40908
1.41366
1.42064
1.42929
1.43888
1.44873
1.45813
1.46639
1.47277
1.47652
1.47691
1.47327
1.46498
1.45152
1.43251
1.4078
1.37744
1.34179
1.30145
1.25747
1.21153
1.16623
1.12513
1.09254
1.07286
1.0699
1.08494
1.11729
1.16473
1.22474
1.29474
2.80368
3.24105
3.78805
4.38105
4.92087
5.32977
5.55812
5.58207
5.44088
5.16031
4.79561
4.40166
3.99785
3.61151
3.25591
2.93392
2.6472
2.39377
2.17503
1.99073
1.83893
1.71777
1.62386
1.55258
1.49925
1.46005
1.43214
1.41343
1.40215
1.39681
1.39642
1.40024
1.40738
1.41691
1.42793
1.43959
1.45105
1.46147
1.46997
1.47567
1.47767
1.4752
1.46749
1.45393
1.43399
1.40748
1.37441
1.33512
1.29013
1.24042
1.1875
1.13382
1.08296
1.03978
1.01065
1.00199
1.01746
1.05846
1.12332
1.20822
1.30856
2.2972
2.50787
2.83356
3.27566
3.80394
4.36065
4.86857
5.2461
5.44772
5.46231
5.30561
5.02288
4.64556
4.23654
3.8343
3.44825
3.09645
2.77883
2.49441
2.24918
2.04529
1.88167
1.7543
1.65703
1.58347
1.52834
1.48809
1.46005
1.4419
1.43149
1.42754
1.42913
1.43527
1.44478
1.45661
1.46976
1.48322
1.49606
1.50728
1.51585
1.52076
1.52115
1.51613
1.50499
1.487
1.46192
1.42963
1.39043
1.34465
1.29317
1.23731
1.17936
1.12269
1.07207
1.0343
1.01743
1.02787
1.07029
1.14514
1.2485
1.37429
2.11865
2.17819
2.31161
2.53842
2.86917
3.29824
3.79565
4.30542
4.7591
5.09196
5.26004
5.25544
5.09737
4.81968
4.46707
4.06305
3.66711
3.28907
2.92913
2.60882
2.3367
2.11663
1.9452
1.81342
1.71263
1.63567
1.57813
1.53682
1.50871
1.49062
1.48082
1.47817
1.48155
1.48954
1.50087
1.51437
1.5289
1.54337
1.55667
1.56767
1.57522
1.57844
1.57634
1.56816
1.55294
1.53042
1.50036
1.46308
1.41871
1.36812
1.31246
1.25393
1.1957
1.14216
1.09977
1.07717
1.08281
1.12434
1.20527
1.32308
1.471
2.08565
2.07321
2.09773
2.17621
2.32626
2.56195
2.88828
3.29339
3.74693
4.19862
4.58869
4.86618
5.00386
4.99206
4.84676
4.59126
4.26275
3.88735
3.47288
3.07809
2.72249
2.43002
2.20211
2.02561
1.88889
1.7824
1.70076
1.64044
1.59827
1.56916
1.55077
1.54144
1.54001
1.5447
1.55398
1.56647
1.58084
1.59585
1.61024
1.62277
1.63222
1.63772
1.63817
1.63287
1.62054
1.60098
1.5738
1.53933
1.49754
1.44931
1.39572
1.33884
1.28164
1.22827
1.18474
1.15968
1.16263
1.20365
1.28925
1.41922
1.58664
2.07898
2.04536
2.0258
2.0306
2.0731
2.16798
2.32918
2.56555
2.87587
3.24694
3.64329
4.02829
4.35899
4.60095
4.72502
4.72288
4.59724
4.35479
4.03242
3.63024
3.19659
2.83091
2.54142
2.31178
2.12647
1.97864
1.86255
1.77616
1.7145
1.66963
1.63913
1.61988
1.61091
1.61017
1.61557
1.62547
1.63833
1.65266
1.66705
1.6799
1.69044
1.69733
1.69986
1.69701
1.6876
1.671
1.64729
1.61592
1.57758
1.53242
1.48226
1.42849
1.37418
1.32344
1.28148
1.25655
1.25894
1.30067
1.38992
1.53003
1.71264
0.28336
6.34527
6.05053
0.218544
0.341444
0.126623
0.00316211
2.43276
0.00337854
0.0233912
3.30261
1.07904
0.00316384
5.91174
0.110981
5.57473
0.00326096
2.54398
3.59932
0.00315805
0.220041
5.76286
6.11943
0.00329952
0.00333273
0.106647
0.00316024
0.497948
0.00324729
0.00345988
0.677987
0.00324765
0.0163324
2.57263
0.787451
3.37446
2.52115
1.59128
0.00316519
2.59451
1.89426
1.98727
0.003209
4.84269
3.1727
0.281368
0.00360873
0.0151178
0.136587
1.10231
6.40056
7.64561
0.00310781
0.00405293
0.0372514
0.00900418
0.0034506
0.674122
2.39958
7.306
2.47423
0.00369589
0.15185
0.0318346
6.40572
0.434346
1.97864
1.73032
0.00432307
0.00321286
1.2284
2.6158
1.71685
0.0144427
0.0394832
4.0655
6.66257
3.34366
0.00310854
0.936555
0.00710417
2.61795
0.0107926
4.95258
0.00321772
1.08468
0.0033618
2.22084
0.0148964
0.00491185
0.120091
0.00310413
0.00378239
7.47021
5.50335
0.00359435
0.438398
0.289923
0.00604744
6.68544
0.202778
2.47007
0.763231
0.00310006
0.00316492
0.00309729
0.313367
0.124927
0.00324128
6.18646
6.87832
0.00936183
4.50893
1.51727
2.56601
2.76277
1.78839
0.00390805
0.0856207
0.00418072
0.0043569
3.41241
0.00725979
7.44019
7.52343
0.980431
0.00321411
1.03762
1.03953
0.00320979
0.0341765
0.0333782
1.69492
0.0056622
3.09102
0.00321949
0.00316024
7.57509
7.65109
0.00322916
0.159731
5.68669
0.10621
0.30201
1.55872
4.80274
0.0382852
1.64624
0.0120962
6.81951
1.25364
0.00936611
2.87448
4.88831
6.34036
0.00330587
0.00326713
0.217211
0.00311601
1.94854
0.0310953
0.00511153
0.0031986
0.00321882
0.00323667
2.88672
1.76542
1.57822
0.00332032
6.55915
4.6574
3.18907
4.88219
0.0139902
3.71601
1.74029
1.89692
0.00324012
0.00568254
2.8914
3.05517
2.02152
3.77185
0.00321476
0.00352206
4.81972
0.0360128
0.566289
0.00323737
0.00360497
0.105117
0.00339252
7.5458
0.697695
0.00310478
0.256058
1.78877
5.16818
0.00449297
1.9229
0.00321721
0.00323267
4.99715
2.49796
7.02537
0.00453695
0.00339415
0.0076807
2.83447
2.19188
1.10922
4.84622
1.56804
7.0066
0.190192
4.46339
4.21547
1.88847
1.36602
2.32729
0.00487994
0.0370303
0.00322449
0.00320182
1.82513
0.0181593
0.0201502
0.00570412
0.01313
2.82953
4.63359
0.0189117
5.73559
1.0871
0.398871
0.00318308
0.158585
2.85401
1.04596
0.00414186
1.20324
1.13528
0.178416
0.271037
7.34937
0.806213
0.478367
5.30301
0.00384015
0.00316136
0.00403317
0.0105098
1.75151
0.00336116
0.00648715
0.00316473
0.391888
4.111
3.98886
2.73495
1.29764
1.4424
7.56566
0.00434405
2.07349
4.51773
0.00320938
2.05874
0.00321715
3.98657
0.390374
1.63165
0.00533638
0.00321955
1.90911
0.49069
0.00323892
0.00323599
0.0032504
0.00324566
0.35932
1.619
3.08519
0.0148091
0.00324058
0.00316415
0.00309841
4.88421
0.21692
0.00446715
1.71904
0.0879092
0.0408644
0.0030919
0.265249
0.00323971
0.0504125
1.45101
4.59175
0.304138
0.00391346
0.00595598
3.33096
0.141084
1.93524
7.54914
0.00350194
0.00319724
0.00318705
5.97505
0.0033108
4.84256
0.00322114
1.92119
1.22461
0.0271268
2.96219
3.90537
0.00467592
2.71694
2.71634
1.63384
4.73883
1.06864
7.63816
2.45018
3.99973
3.58378
4.64462
1.70716
0.158547
7.6117
7.37834
2.99324
2.13527
0.0039535
6.72718
2.78961
6.997
0.0275558
0.00358584
0.00321399
0.00342324
0.176716
0.421284
0.68257
0.0924563
0.00317466
6.10735
0.00321475
1.46969
2.01722
6.51303
2.53062
1.87948
0.00595664
0.00425453
0.0876312
2.87201
0.0102972
0.746635
5.099
2.05269
4.26952
5.99205
3.30939
0.0034621
7.40675
5.47555
1.73644
0.00323428
6.29473
5.73746
0.00333236
1.97719
0.003238
6.59335
5.55845
1.86922
4.31528
2.57074
5.76759
0.00329201
5.77822
0.00386248
3.6383
4.11958
1.90967
7.3875
0.721188
0.213421
0.550258
0.00423858
4.28354
0.149479
0.00815007
0.00508383
4.39188
0.00383013
4.49643
0.00319223
0.00323519
0.00600549
1.85557
0.105287
1.91536
0.00570551
4.38051
0.163718
6.51462
4.34081
2.75073
6.05224
0.00338471
7.40678
2.9629
0.00321111
4.04401
2.1409
0.00310266
0.00316805
3.34699
0.00648868
1.83961
0.0870099
2.43643
0.0268317
0.624865
2.75465
4.82368
2.50577
3.85043
3.80216
0.00395201
0.0218318
1.69256
1.59906
7.57899
6.2836
5.15633
0.0655031
5.20575
5.17792
0.511253
1.71013
2.95069
2.15649
0.00347747
4.25572
7.66093
0.00416195
4.42249
1.89644
2.97493
0.0241938
0.0677713
6.05497
0.00596388
7.57003
0.00461617
0.253255
0.00320388
1.00163
2.297
0.230878
0.00479557
0.00370266
2.77887
1.60556
0.0831444
0.399761
5.74006
4.10093
0.00450132
1.45646
1.64787
3.30298
1.50291
4.19024
1.95514
5.41404
3.31935
0.501502
0.992859
7.50688
1.93284
7.61453
6.20418
0.0329769
3.38633
2.90882
0.00337831
1.78604
1.61876
1.35674
0.0173989
4.88032
1.44694
0.711976
1.93729
0.00545593
0.00321493
0.0421809
2.29562
4.38604
2.57572
0.00322111
0.00318936
0.00321531
1.71246
0.0277616
0.0032153
0.125011
4.56917
4.86951
0.0105139
0.0107489
0.00315545
0.00320515
0.00598463
1.79869
1.73769
1.57927
0.457167
7.38109
5.69679
0.00526402
3.20252
1.83923
1.93903
4.1558
7.26423
0.00346227
0.0104485
0.003238
3.85811
0.247136
0.00316909
1.37232
0.162975
7.47523
0.00323853
7.5163
1.16352
0.04703
6.62804
0.00323176
0.00319508
0.00404583
7.5936
3.33148
5.40303
4.8807
1.05076
1.76669
0.00312659
0.00602335
0.0878596
0.013407
0.0251745
1.97404
2.14415
0.00322448
1.27765
1.83172
6.24642
7.58187
0.00822997
7.55823
0.005908
0.0303503
3.59892
0.00320143
5.77496
0.00324076
0.00336673
0.0222644
2.13787
0.62513
2.58069
1.89505
0.00365873
1.76659
4.60271
0.0523575
0.216861
0.865031
0.00331482
0.00326713
0.00693626
5.55854
0.5292
0.00335778
7.19774
5.82845
6.77054
0.0319012
2.02512
0.00421248
2.45727
0.159563
0.0914741
2.63047
1.67448
1.90442
6.241
0.00327904
0.00313283
0.0104478
4.11954
4.58491
0.97623
0.0138674
0.00333393
0.00323891
0.00880469
0.0264948
0.00660627
2.1664
1.72375
0.0115898
1.5617
6.09034
0.00327112
2.37947
0.00321751
0.547268
0.00324484
0.0222162
2.2945
0.0201295
0.00320606
0.766704
7.65178
6.91239
0.00318972
0.00326421
0.394465
0.0277317
0.00321638
4.18652
0.00370027
1.67939
7.66709
2.40956
1.67598
2.46893
3.65341
7.58773
0.00322912
0.00744762
0.0148766
4.19214
1.41688
6.37335
0.664051
0.351858
4.28004
3.6302
4.9538
0.731009
2.62334
0.00322238
0.367851
1.72123
2.56256
3.90446
1.87745
0.214559
2.58446
0.103624
0.00935146
1.78821
0.00323938
5.6452
0.00366322
0.381597
7.46598
2.72021
0.576537
0.0074187
0.782496
0.00329885
0.00319165
0.10716
0.0225282
1.86227
0.0152593
1.7432
0.0032213
0.0280066
0.00316627
4.65683
0.00508467
4.09981
2.53449
0.0218838
1.92763
7.31518
0.00325805
1.71
4.37507
0.00335872
7.44357
0.0613841
0.00348322
0.00339487
7.03223
0.00317845
0.00428862
0.087232
0.102076
6.94203
7.29849
0.00322105
0.00327002
1.10604
2.36409
0.0145949
0.263544
2.04176
0.00321769
0.0038333
0.00372458
6.17144
7.35682
0.506358
6.93981
0.0261146
1.60008
0.0033243
0.0147907
0.0249111
0.0364111
0.00322989
6.65494
0.00320088
0.0250681
0.00332169
0.240861
0.0224013
0.014782
0.451837
0.698851
2.28339
0.406791
1.08642
1.82659
5.05154
0.00343875
4.87179
7.57157
1.16516
4.14501
0.00327867
4.3028
3.91778
0.00321579
7.22033
2.30499
0.00811746
0.0107153
6.04163
5.85759
0.0577223
7.53266
7.14811
0.795129
7.13238
7.09597
5.0827
1.92496
1.57329
1.00473
7.20383
7.332
0.0218638
7.16732
2.55521
4.32297
0.00343283
0.346723
0.384269
6.93596
5.92196
0.0202493
4.26228
6.57395
0.457065
0.0335398
0.385961
1.81862
0.00534958
1.85421
6.77165
0.033882
6.89445
1.40567
4.5858
6.45024
0.00322217
0.00566158
1.06698
0.719573
0.0182804
0.00321832
0.191393
0.254814
0.00451214
0.00323648
4.19977
1.01184
3.15648
1.0425
0.00862287
0.00417108
0.0901659
3.35547
0.00345975
1.93506
1.69125
0.477492
2.30104
0.00397161
0.116879
0.00320211
0.350303
4.46143
0.00434826
0.118545
2.10422
5.57509
0.224981
4.0998
0.607569
0.163033
0.00392714
2.4806
7.52809
0.00321143
0.00328238
5.77496
0.0245456
0.00323562
3.9328
0.249945
1.93633
2.00574
1.46944
0.146552
1.74122
3.45611
5.65045
4.31916
0.00327539
5.47531
0.00389089
2.6028
0.00340072
0.0045247
2.10871
0.00656698
3.83368
0.0207518
0.0398296
1.86323
0.734558
0.0619808
0.00367358
6.27557
0.00364306
0.00315326
7.63013
5.94841
2.87515
1.92487
0.00343418
0.00307299
1.8857
5.75835
0.00319865
6.40213
1.70038
0.00324241
6.14862
0.0031172
0.346915
0.91797
1.36239
0.367582
1.57752
1.94351
0.0031132
7.25362
7.19187
0.00321542
0.0168615
1.92746
0.00313163
7.0936
5.44096
4.37665
0.00321765
0.00317069
3.47039
0.0409949
0.00350201
1.88576
1.71104
4.08454
0.00315382
0.00337977
0.0243612
0.0194802
0.00321703
0.00642271
5.34627
2.87043
0.00322234
1.395
0.0032147
0.697249
0.00421633
0.00358576
2.31979
0.00326667
0.118988
0.00317614
2.99912
0.180757
1.7841
6.41719
4.34587
3.68771
0.831386
1.21156
0.00323548
0.936234
7.36194
4.09232
0.107078
0.00346656
5.38274
0.00321467
0.0312962
0.00315604
7.00141
0.760244
0.361041
6.3549
2.2572
0.475678
4.29308
0.724973
6.92395
4.65982
0.00331002
0.00327465
0.00818176
0.00323298
0.022757
4.29466
0.00378052
6.94767
0.00600082
0.0741342
0.593052
4.73471
0.00488237
2.84029
0.0169892
2.98377
2.4903
6.77959
0.00339863
0.00384577
0.251153
3.76062
1.67182
3.7712
0.433309
1.05721
1.66679
0.0508857
0.972907
0.266126
1.69004
0.00328308
4.29794
0.415562
3.19987
0.00336455
3.10639
0.976862
0.00459919
1.62548
1.8063
0.0653589
0.00314926
0.00321797
4.82873
2.86632
1.38485
0.00320711
0.0175762
1.99059
6.4584
0.470018
0.0126014
0.00322429
5.48656
5.35469
2.07973
2.7262
0.00321318
3.58192
7.28253
0.00321103
0.00321771
1.26693
0.00410387
0.00987765
0.032254
1.96418
0.00411063
2.2089
7.6039
0.00320489
0.00346322
0.00316809
0.00330581
3.86037
4.62324
7.58759
0.0290433
2.47393
2.19504
0.0874002
3.01864
0.00348144
1.69404
0.221846
2.07347
0.70666
1.64064
3.16457
0.0287434
0.00323893
6.02432
4.4758
4.55221
0.914297
1.78019
0.178029
1.55662
0.00928829
0.00483293
3.44688
5.6426
0.0218064
0.132457
0.0032451
0.0782657
1.93254
0.0277635
1.05551
0.690596
3.81009
2.15873
0.435758
6.60686
5.61053
2.93777
1.67624
4.17657
3.49882
0.572004
2.7053
0.00611558
2.85693
3.00005
0.00320396
0.00313647
0.118984
0.00322657
0.00333046
3.00141
4.34527
0.00321997
3.2167
0.00321469
0.00319228
0.00321564
0.0032627
0.00594799
1.93435
2.67804
7.17023
0.0031598
0.00390617
0.977536
0.00355407
0.0330863
0.00324573
0.00361063
4.37559
0.00390951
0.010934
2.79844
0.0104888
0.00321964
3.92387
0.00321416
0.00326649
0.265393
0.00360467
0.943324
0.00458239
0.0299554
0.00320422
0.00325383
7.47875
7.47237
2.774
0.0268385
3.00521
1.62471
0.00473933
1.76368
4.1277
7.04838
4.55932
0.0031266
1.84322
2.6134
0.146788
1.74286
4.47591
0.173555
2.05321
0.213873
1.72209
0.0375353
1.02306
0.00323488
6.63668
0.0032917
1.79958
2.55184
0.00321513
0.313393
0.0073065
0.0192687
0.0031763
0.765488
0.00366285
0.0032214
2.52161
0.00949596
0.110559
7.00073
1.91905
0.00345972
0.00388105
2.46866
7.20356
0.00309372
0.00324639
0.0714033
1.38002
5.71461
0.00659546
1.68474
0.00321791
0.00344292
0.0031481
0.0348578
0.972723
0.0101484
6.33319
1.81146
7.20606
6.10292
0.00351865
7.08841
3.84995
0.00317933
0.00322625
0.00321814
0.00439544
0.00320253
3.83647
0.00320799
0.00323931
6.53718
0.330503
0.00775332
0.0215856
2.04524
0.937168
0.00823374
0.00345914
6.40504
0.00324545
0.824047
0.00326203
0.00352333
5.99219
5.67959
0.00868438
0.00351275
0.325358
0.00320641
6.58809
0.00325514
5.53228
0.024807
0.729686
0.0330605
0.364137
0.370349
1.52652
0.00324274
0.00356571
0.0115681
3.24502
0.118775
7.48251
0.00321936
0.00459302
0.00555399
7.18723
2.87751
3.0766
0.00694375
0.00900169
0.215852
0.00322348
1.25849
2.52811
0.0169853
5.78653
6.32159
2.06187
0.00534078
0.389978
2.83684
6.80742
1.80328
0.0188431
3.14777
0.0601255
5.22703
0.0916916
0.523187
2.61818
0.00324365
1.76265
0.00454924
0.011866
0.00807013
0.0501392
0.0037013
1.2913
0.00322637
3.02898
0.0957419
0.00361231
0.248511
0.00323205
0.284072
0.118077
2.3039
0.468168
4.66606
0.246819
0.00321695
0.00319029
0.722326
0.091609
2.95825
7.21605
0.00322405
3.84574
2.77657
0.0232247
2.04149
0.606442
2.34876
2.18055
0.0335597
0.00588222
6.99731
1.52355
6.02376
0.00321076
1.65118