/*--------------------------------*- C++ -*----------------------------------*\
| =========                 |                                                 |
| \\      /  F ield         | OpenFOAM: The Open Source CFD Toolbox           |
|  \\    /   O peration     | Version:  2.3.1                                 |
|   \\  /    A nd           | Web:      www.OpenFOAM.org                      |
|    \\/     M anipulation  |                                                 |
\*---------------------------------------------------------------------------*/
FoamFile
{
    version     2.0;
    format      ascii;
    class       surfaceScalarField;
    location    "0.96";
    object      phi;
}
// * * * * * * * * * * * * * * * * * * * * * * * * * * * * * * * * * * * * * //

dimensions      [0 3 -1 0 0 0 0];

internalField   nonuniform List<scalar> 
15416
(
-0.000708773
-4.34105e-06
0.000713147
-0.000705255
-3.51719e-06
-0.000702698
-2.55621e-06
-0.000701223
-1.47526e-06
-0.000701009
-2.14317e-07
-0.000702371
1.35974e-06
-0.000706033
3.66093e-06
-0.000712304
6.26774e-06
-0.000721347
9.03914e-06
-0.000733504
1.21527e-05
-0.000749183
1.56734e-05
-0.000768588
1.9399e-05
-0.00079184
2.32445e-05
-0.000819005
2.71553e-05
-0.000850159
3.11438e-05
-0.000885212
3.50403e-05
-0.000923964
3.87382e-05
-0.000966199
4.22202e-05
-0.00101177
4.55539e-05
-0.00106035
4.85573e-05
-0.00111166
5.12944e-05
-0.00116546
5.37781e-05
-0.00122139
5.59046e-05
-0.00127908
5.76689e-05
-0.0013383
5.91931e-05
-0.0013988
6.04806e-05
-0.0014603
6.14732e-05
-0.00152248
6.21513e-05
-0.00158513
6.26139e-05
-0.00164806
6.29029e-05
-0.00171099
6.29062e-05
-0.00177373
6.27069e-05
-0.00183618
6.24184e-05
-0.0018981
6.18953e-05
-0.00195931
6.11814e-05
-0.00201976
6.04193e-05
-0.00207934
5.95505e-05
-0.00213787
5.85035e-05
-0.00219513
5.72337e-05
-0.00225111
5.59504e-05
-0.00230579
5.46549e-05
-0.00235899
5.31848e-05
-0.00241062
5.16002e-05
-0.0024607
5.0063e-05
-0.00250897
4.82495e-05
-0.0025554
4.6412e-05
-0.0026001
4.46847e-05
-0.00264308
4.29645e-05
-0.00268415
4.10512e-05
-0.00272324
3.90751e-05
-0.00276033
3.70754e-05
-0.00279558
3.52433e-05
-0.00282851
3.29158e-05
-0.00285956
3.10452e-05
-0.00288854
2.8967e-05
-0.0029158
2.72494e-05
-0.00294039
2.45853e-05
-0.00296274
2.23425e-05
-0.0029832
2.04562e-05
-0.00300193
1.87306e-05
1.7041e-05
-0.00301898
-0.000411573
-4.32188e-06
0.000411558
-0.000413441
-1.64653e-06
-0.000417609
1.61551e-06
-0.000424717
5.6353e-06
-0.000436253
1.13254e-05
-0.000451556
1.66655e-05
-0.000470837
2.29447e-05
-0.000493869
2.93033e-05
-0.000521348
3.65201e-05
-0.000552785
4.35929e-05
-0.000588357
5.1247e-05
-0.000627906
5.89503e-05
-0.00067132
6.66598e-05
-0.000718466
7.43023e-05
-0.000769041
8.17195e-05
-0.000822906
8.8906e-05
-0.000879798
9.563e-05
-0.000939505
0.000101926
-0.00100167
0.00010772
-0.0010661
0.000112982
-0.00113257
0.000117764
-0.00120065
0.000121855
-0.00127014
0.000125402
-0.00134085
0.000128372
-0.00141245
0.000130796
-0.00148472
0.000132745
-0.00155732
0.00013407
-0.0016302
0.000135031
-0.00170307
0.000135474
-0.00177559
0.000135423
-0.00184779
0.000135102
-0.0019195
0.000134416
-0.00199034
0.000133252
-0.00206028
0.000131829
-0.00212932
0.000130216
-0.00219707
0.000128169
-0.00226357
0.000126047
-0.00232868
0.000123612
-0.0023924
0.000120949
-0.00245452
0.000118065
-0.00251474
0.000114869
-0.00257334
0.000111783
-0.00263013
0.000108389
-0.00268485
0.000104779
-0.00273768
0.000101068
-0.00278841
9.71437e-05
-0.00283713
9.34034e-05
-0.00288341
8.92408e-05
-0.00292763
8.52637e-05
-0.00296973
8.11683e-05
-0.0030097
7.70444e-05
-0.00304786
7.33993e-05
-0.00308258
6.76317e-05
-0.00311663
6.50872e-05
-0.00314688
5.9218e-05
-0.00317561
5.59723e-05
-0.00320001
4.89815e-05
-0.00322426
4.65831e-05
-0.00324624
4.2434e-05
-0.00326607
3.85561e-05
3.25462e-05
-0.00328158
-0.000271528
3.40402e-06
0.000263806
-0.00028227
9.09903e-06
-0.000296907
1.62553e-05
-0.000315863
2.45945e-05
-0.000338375
3.38407e-05
-0.00036543
4.37234e-05
-0.000396584
5.41011e-05
-0.000432123
6.48444e-05
-0.000471952
7.63521e-05
-0.000516164
8.78063e-05
-0.000564466
9.95512e-05
-0.000616468
0.000110954
-0.00067229
0.000122483
-0.000731546
0.000133558
-0.00079403
0.000144204
-0.000859459
0.000154335
-0.000927613
0.000163784
-0.000998216
0.000172529
-0.00107095
0.000180455
-0.00114566
0.000187692
-0.00122189
0.000193988
-0.00129956
0.000199522
-0.00137836
0.00020421
-0.00145806
0.000208064
-0.00153834
0.00021108
-0.00161898
0.000213385
-0.00169982
0.000214906
-0.00178058
0.000215793
-0.00186099
0.000215881
-0.00194116
0.000215584
-0.0020206
0.000214548
-0.00209913
0.000212941
-0.00217693
0.000211054
-0.00225354
0.000208431
-0.00232886
0.00020553
-0.00240285
0.000202159
-0.00247534
0.000198541
-0.0025462
0.000194461
-0.00261536
0.000190114
-0.00268275
0.000185444
-0.00274839
0.000180508
-0.00281173
0.000175122
-0.00287316
0.00016981
-0.00293241
0.000164032
-0.0029895
0.000158146
-0.00304443
0.00015207
-0.00309696
0.00014593
-0.0031472
0.000139485
-0.00319491
0.000132964
-0.00324083
0.000127093
-0.00328308
0.00011929
-0.00332276
0.000113073
-0.00336083
0.000105697
-0.00339662
0.000100872
-0.00343027
9.28723e-05
-0.00345967
8.53677e-05
-0.00348893
7.82398e-05
-0.0035139
7.15428e-05
-0.00353665
6.51827e-05
-0.00355516
5.7062e-05
5.09595e-05
-0.00357357
-0.000205067
1.85147e-05
0.000189959
-0.000224281
2.83159e-05
-0.000247594
3.95715e-05
-0.000275053
5.20562e-05
-0.000306808
6.55988e-05
-0.000343023
7.99415e-05
-0.000383619
9.47001e-05
-0.000428972
0.0001102
-0.000478628
0.000126011
-0.000532684
0.000141865
-0.000590687
0.000157556
-0.000652821
0.00017309
-0.000718648
0.000188312
-0.000787739
0.000202652
-0.000860033
0.0002165
-0.000935175
0.000229479
-0.00101288
0.000241489
-0.00109284
0.000252496
-0.00117485
0.000262467
-0.0012585
0.000271336
-0.00134375
0.000279249
-0.00143013
0.0002859
-0.00151753
0.000291615
-0.00160564
0.000296169
-0.00169426
0.000299707
-0.00178299
0.000302112
-0.00187172
0.000303637
-0.00196025
0.000304331
-0.00204846
0.000304094
-0.00213588
0.000302997
-0.00222258
0.00030125
-0.00230843
0.0002988
-0.00239292
0.000295538
-0.00247624
0.000291753
-0.00255819
0.000287482
-0.00263861
0.000282581
-0.00271718
0.000277109
-0.00279407
0.000271348
-0.00286905
0.000265098
-0.00294217
0.00025856
-0.00301299
0.000251328
-0.0030819
0.000244034
-0.00314825
0.00023616
-0.0032124
0.00022818
-0.00327406
0.000219811
-0.00333324
0.000211246
-0.00338988
0.00020257
-0.00344428
0.000193884
-0.00349534
0.000184024
-0.00354388
0.000175635
-0.00359104
0.000166442
-0.00363411
0.00015615
-0.00367499
0.000146575
-0.00371177
0.000137649
-0.00374821
0.00012931
-0.00378053
0.00011769
-0.00381062
0.000108321
-0.00383848
9.9403e-05
-0.00386216
8.88704e-05
-0.00388363
7.85246e-05
6.82519e-05
-0.00390092
-0.000175398
4.06203e-05
0.000153296
-0.000201381
5.43013e-05
-0.000231789
6.9982e-05
-0.000266751
8.70206e-05
-0.00030633
0.000105181
-0.000350758
0.000124372
-0.000400228
0.000144173
-0.000454194
0.000164169
-0.00051291
0.00018473
-0.000575983
0.000204941
-0.000643449
0.000225025
-0.000714993
0.000244637
-0.000790068
0.00026339
-0.000868715
0.000281302
-0.000950721
0.000298509
-0.00103507
0.000313827
-0.00112207
0.000328494
-0.00121128
0.000341712
-0.00130234
0.000353525
-0.00139508
0.000364084
-0.00148916
0.000373335
-0.00158448
0.000381218
-0.00168062
0.000387756
-0.00177732
0.000392874
-0.0018742
0.000396596
-0.00197135
0.000399261
-0.00206826
0.000400545
-0.00216477
0.000400844
-0.00226071
0.000400038
-0.00235596
0.000398256
-0.00245022
0.000395508
-0.00254324
0.000391824
-0.00263504
0.000387337
-0.00272544
0.000382154
-0.0028141
0.000376147
-0.00290098
0.000369461
-0.00298626
0.000362386
-0.00306939
0.000354482
-0.00315042
0.000346128
-0.00322913
0.000337272
-0.00330581
0.000328006
-0.00337994
0.000318168
-0.00345169
0.000307915
-0.00352082
0.000297304
-0.0035873
0.000286288
-0.00365175
0.000275699
-0.00371146
0.000262279
-0.00376913
0.000251552
-0.00382515
0.000240043
-0.00387723
0.000227714
-0.00392703
0.000216245
-0.00397466
0.000203775
-0.00401833
0.000190249
-0.00405977
0.000179089
-0.00409525
0.000164786
-0.00413029
0.000152733
-0.00416313
0.000141153
-0.0041918
0.000128074
-0.00421634
0.000113411
-0.00424064
0.000102821
8.8401e-05
-0.00426079
-0.000163935
6.92543e-05
0.000135304
-0.000196945
8.73126e-05
-0.000234482
0.000107521
-0.000277207
0.000129749
-0.000325067
0.000153044
-0.000377902
0.00017721
-0.000435758
0.000202032
-0.000498831
0.000227246
-0.000566582
0.000252485
-0.000639271
0.000277634
-0.00071636
0.000302117
-0.000797389
0.00032567
-0.000882377
0.000348381
-0.000970521
0.000369449
-0.00106162
0.00038961
-0.00115571
0.000407924
-0.00125229
0.000425077
-0.00135118
0.000440606
-0.0014517
0.00045405
-0.00155373
0.000466113
-0.00165719
0.000476803
-0.00176151
0.000485541
-0.00186671
0.000492962
-0.00197239
0.000498556
-0.00207829
0.000502503
-0.00218401
0.000504979
-0.00228949
0.000506029
-0.00239438
0.000505736
-0.00249857
0.000504231
-0.00260187
0.000501566
-0.00270405
0.000497688
-0.00280478
0.000492554
-0.0029041
0.000486662
-0.00300181
0.000479868
-0.00309759
0.00047193
-0.00319153
0.000463405
-0.0032833
0.000454163
-0.00337293
0.000444106
-0.00346037
0.000433574
-0.00354554
0.000422445
-0.00362795
0.000410412
-0.00370787
0.000398093
-0.00378496
0.000385005
-0.00385882
0.000371165
-0.00393015
0.000357624
-0.00399885
0.000344396
-0.00406552
0.00032895
-0.00412818
0.000314208
-0.00418689
0.000298752
-0.00424335
0.000284178
-0.00429586
0.000268754
-0.00434432
0.000252232
-0.00439234
0.000238273
-0.0044346
0.000221342
-0.00447646
0.000206643
-0.00451422
0.000190498
-0.00454587
0.0001728
-0.00457525
0.000157455
-0.00460444
0.000142601
-0.00462761
0.000125989
0.00010939
-0.0046486
-0.000165543
0.000104369
0.000130431
-0.000205755
0.000127527
-0.000251166
0.000152934
-0.000302176
0.00018076
-0.000358396
0.000209267
-0.0004203
0.000239117
-0.000487534
0.000269269
-0.000559865
0.00029958
-0.000637558
0.000330182
-0.000719709
0.000359789
-0.000806732
0.000389144
-0.00089803
0.000416972
-0.000992854
0.000443209
-0.00109098
0.000467576
-0.00119269
0.000491327
-0.00129709
0.000512326
-0.00140361
0.000531602
-0.00151242
0.000549423
-0.00162284
0.000564472
-0.00173488
0.000578163
-0.0018481
0.000590021
-0.00196218
0.000599633
-0.00207711
0.000607893
-0.00219233
0.000613784
-0.00230752
0.000617699
-0.00242253
0.000619997
-0.00253682
0.000620315
-0.00265068
0.000619602
-0.00276369
0.000617242
-0.00287536
0.000613249
-0.00298592
0.000608254
-0.00309491
0.000601545
-0.00320189
0.000593648
-0.00330723
0.000585206
-0.00341069
0.000575401
-0.00351174
0.000564451
-0.00361068
0.000553107
-0.00370712
0.000540555
-0.00380103
0.000527479
-0.00389235
0.000513775
-0.00398112
0.000499182
-0.00406632
0.000483291
-0.00414925
0.000467935
-0.00422903
0.000450952
-0.00430609
0.000434678
-0.00437916
0.000417473
-0.00444837
0.000398156
-0.00451518
0.000381024
-0.00457972
0.000363292
-0.00463854
0.000342997
-0.00469515
0.000325355
-0.0047495
0.00030659
-0.00479813
0.000286893
-0.00484468
0.000267893
-0.00488723
0.000249197
-0.0049256
0.000228858
-0.00496348
0.000210686
-0.0049953
0.000189266
-0.00502317
0.000170471
-0.0050471
0.000149916
0.00013112
-0.00506883
-0.000177754
0.000146151
0.000135975
-0.000225554
0.000175329
-0.0002791
0.000206481
-0.00033926
0.000240922
-0.000404988
0.000274997
-0.000476356
0.000310488
-0.00055354
0.000346456
-0.000635585
0.000381629
-0.000723606
0.000418206
-0.00081621
0.000452397
-0.000914332
0.000487271
-0.00101606
0.000518704
-0.00112242
0.00054957
-0.00123106
0.000576228
-0.00134309
0.000603356
-0.00145866
0.000627898
-0.00157613
0.000649083
-0.00169565
0.000668949
-0.00181727
0.000686092
-0.00193918
0.00070008
-0.00206309
0.000713936
-0.00218722
0.00072377
-0.00231279
0.000733467
-0.00243846
0.000739457
-0.00256352
0.000742772
-0.00268863
0.000745111
-0.00281225
0.000743942
-0.00293541
0.000742765
-0.00305779
0.000739629
-0.00317809
0.000733553
-0.00329769
0.000727857
-0.00341545
0.000719315
-0.00353053
0.000708728
-0.003644
0.000698687
-0.00375566
0.000687063
-0.00386396
0.000672752
-0.00397022
0.000659373
-0.00407381
0.000644155
-0.00417401
0.000627684
-0.00427194
0.000611702
-0.00436741
0.00059466
-0.00446002
0.000575901
-0.004547
0.000554915
-0.00463326
0.000537217
-0.00471453
0.000515945
-0.00479143
0.000494375
-0.00486803
0.000474755
-0.00493836
0.000451353
-0.00500515
0.000430077
-0.00506911
0.000406964
-0.005128
0.000384241
-0.00518426
0.00036285
-0.0052366
0.000339225
-0.00528722
0.000318518
-0.00533228
0.000294257
-0.00537465
0.000271218
-0.00541105
0.000247087
-0.0054428
0.00022101
-0.00547287
0.000200538
-0.00549945
0.000176496
0.000153318
-0.00552165
-0.000198372
0.000150736
0.000193784
-0.000255
0.000231949
-0.000315977
0.000267452
-0.000386802
0.000311742
-0.000461923
0.000350114
-0.000543837
0.0003924
-0.000631835
0.00043445
-0.000723091
0.000472884
-0.000823944
0.000519055
-0.000925943
0.000554394
-0.00103757
0.000598896
-0.00114926
0.000630387
-0.00127048
0.000670787
-0.00138775
0.000693499
-0.00151241
0.000728022
-0.00164063
0.000756116
-0.00176776
0.000776202
-0.00190066
0.000801849
-0.00203355
0.000818977
-0.00216564
0.000832176
-0.0023042
0.000852493
-0.00243691
0.000856487
-0.00257491
0.000871466
-0.0027121
0.000876645
-0.00284726
0.000877934
-0.00298491
0.000882764
-0.00311693
0.000875965
-0.00325055
0.000876386
-0.00338399
0.000873078
-0.00351217
0.000861734
-0.00364219
0.000857874
-0.00376895
0.00084607
-0.00389213
0.000831916
-0.0040142
0.000820764
-0.0041362
0.000809069
-0.00424997
0.000786534
-0.00436535
0.000774757
-0.00447622
0.000755033
-0.00458234
0.000733802
-0.00468897
0.000718334
-0.00478763
0.000693317
-0.004887
0.00067527
-0.00498041
0.000648325
-0.00507054
0.000627349
-0.00515972
0.000605127
-0.00524148
0.00057614
-0.00532205
0.000555326
-0.00539562
0.000524923
-0.00546718
0.000501643
-0.0055326
0.000472385
-0.00559799
0.000449635
-0.0056564
0.000421254
-0.00571177
0.000394605
-0.00576327
0.000370018
-0.00581242
0.000343405
-0.0058538
0.000312599
-0.00589365
0.000286934
-0.00592705
0.000254411
-0.00595784
0.000231332
-0.00598519
0.000203846
-0.00600693
0.00017506
-0.00303246
1.34786e-05
-0.00304413
1.16721e-05
-0.00305413
9.99707e-06
-0.00306226
8.13435e-06
-0.00306816
5.89337e-06
-0.00307145
3.2915e-06
-0.00307301
1.55896e-06
-0.00307248
-5.21481e-07
-0.00306998
-2.50042e-06
-0.00306507
-4.91613e-06
-0.00305827
-6.7941e-06
-0.00304945
-8.82227e-06
-0.00303858
-1.08697e-05
-0.00302565
-1.29279e-05
-0.00301096
-1.46809e-05
-0.00299445
-1.65181e-05
-0.00297591
-1.85359e-05
-0.00295533
-2.05761e-05
-0.00293306
-2.22738e-05
-0.00290891
-2.4148e-05
-0.00288297
-2.59365e-05
-0.00285542
-2.75568e-05
-0.00282612
-2.92984e-05
-0.00279499
-3.11288e-05
-0.00276223
-3.27648e-05
-0.00272809
-3.41393e-05
-0.00269227
-3.58213e-05
-0.00265479
-3.7478e-05
-0.00261578
-3.9015e-05
-0.00257538
-4.03944e-05
-0.0025335
-4.18839e-05
-0.00249017
-4.33295e-05
-0.0024456
-4.45768e-05
-0.00239971
-4.58915e-05
-0.00235249
-4.72208e-05
-0.00230411
-4.83823e-05
-0.00225463
-4.94772e-05
-0.00220403
-5.06055e-05
-0.00215222
-5.18073e-05
-0.00209938
-5.28453e-05
-0.00204564
-5.3743e-05
-0.00199096
-5.46798e-05
-0.00193536
-5.56033e-05
-0.001879
-5.63585e-05
-0.00182174
-5.72593e-05
-0.00176367
-5.80734e-05
-0.00170496
-5.87081e-05
-0.0016457
-5.92579e-05
-0.00158578
-5.9928e-05
-0.00152528
-6.04976e-05
-0.00146433
-6.0948e-05
-0.00140304
-6.12846e-05
-0.00134124
-6.18055e-05
-0.00127921
-6.20312e-05
-0.00121693
-6.22722e-05
-0.00115463
-6.23024e-05
-0.00109203
-6.25985e-05
-0.00102937
-6.26577e-05
-0.000966832
-6.2537e-05
-0.00090449
-6.23399e-05
-6.21043e-05
-0.000842384
-0.00329696
2.88633e-05
-0.00330778
2.24845e-05
-0.00331661
1.88247e-05
-0.00332324
1.47586e-05
-0.00332974
1.23988e-05
-0.00333208
5.62483e-06
-0.00333288
2.35681e-06
-0.00332991
-3.49776e-06
-0.00332629
-6.11914e-06
-0.0033191
-1.21035e-05
-0.0033101
-1.58031e-05
-0.00329879
-2.01278e-05
-0.00328546
-2.4203e-05
-0.00327026
-2.81303e-05
-0.0032526
-3.23399e-05
-0.00323291
-3.62144e-05
-0.00321109
-4.03571e-05
-0.00318732
-4.43425e-05
-0.00316133
-4.82634e-05
-0.00313342
-5.20676e-05
-0.00310373
-5.56208e-05
-0.00307185
-5.94413e-05
-0.00303805
-6.30986e-05
-0.0030025
-6.66783e-05
-0.00296512
-7.01486e-05
-0.00292588
-7.33773e-05
-0.00288485
-7.6848e-05
-0.00284233
-8.00067e-05
-0.00279812
-8.32171e-05
-0.00275209
-8.64255e-05
-0.00270463
-8.93466e-05
-0.00265578
-9.21819e-05
-0.00260525
-9.51048e-05
-0.00255329
-9.78508e-05
-0.00250011
-0.000100409
-0.00244542
-0.000103065
-0.00238945
-0.000105449
-0.00233222
-0.000107835
-0.00227389
-0.000110142
-0.00221438
-0.000112355
-0.00215357
-0.000114551
-0.00209185
-0.000116399
-0.00202916
-0.000118289
-0.0019654
-0.000120119
-0.00190081
-0.000121851
-0.00183534
-0.000123547
-0.0017691
-0.000124944
-0.00170194
-0.00012642
-0.0016342
-0.000127669
-0.00156586
-0.000128837
-0.00149694
-0.000129861
-0.00142767
-0.000130555
-0.00135742
-0.000132054
-0.00128742
-0.000132033
-0.00121648
-0.000133211
-0.00114555
-0.000133226
-0.00107381
-0.000134336
-0.00100269
-0.00013378
-0.000931512
-0.000133713
-0.000860348
-0.000133503
-0.000133702
-0.000788749
-0.00358766
4.29513e-05
-0.00360189
3.67123e-05
-0.00361168
2.86103e-05
-0.00361921
2.2289e-05
-0.00362248
1.56647e-05
-0.00362587
9.01002e-06
-0.0036249
1.37994e-06
-0.00362189
-6.50938e-06
-0.00361658
-1.14331e-05
-0.0036096
-1.90848e-05
-0.00360016
-2.52448e-05
-0.003587
-3.32908e-05
-0.00357211
-3.90876e-05
-0.00355463
-4.56207e-05
-0.00353484
-5.21313e-05
-0.00351264
-5.84072e-05
-0.00348829
-6.47132e-05
-0.00346173
-7.09002e-05
-0.00343292
-7.70771e-05
-0.00340215
-8.28404e-05
-0.00336888
-8.88905e-05
-0.00333371
-9.46173e-05
-0.0032965
-0.00010031
-0.00325729
-0.000105889
-0.00321602
-0.000111412
-0.00317275
-0.000116654
-0.00312765
-0.000121941
-0.00308066
-0.000127002
-0.00303171
-0.000132169
-0.00298132
-0.000136813
-0.00292905
-0.000141614
-0.00287499
-0.000146248
-0.00281963
-0.000150468
-0.00276256
-0.000154913
-0.00270395
-0.000159027
-0.00264392
-0.000163095
-0.00258243
-0.000166938
-0.00251951
-0.000170748
-0.00245531
-0.000174342
-0.00238987
-0.000177797
-0.00232335
-0.000181069
-0.00225543
-0.000184321
-0.00218656
-0.00018716
-0.0021166
-0.000190073
-0.00204569
-0.000192764
-0.00197389
-0.000195345
-0.00190116
-0.000197677
-0.00182762
-0.000199959
-0.00175325
-0.000202037
-0.00167852
-0.000203562
-0.00160251
-0.000205874
-0.00152591
-0.000207155
-0.00144917
-0.000208789
-0.00137207
-0.000209137
-0.00129468
-0.000210598
-0.00121637
-0.00021153
-0.00113866
-0.000212049
-0.00106025
-0.000212194
-0.000981861
-0.000212097
-0.000903059
-0.000212304
-0.000211851
-0.000824908
-0.00391796
5.99928e-05
-0.00393093
4.96816e-05
-0.00394165
3.93212e-05
-0.00394812
2.87645e-05
-0.00395244
1.99742e-05
-0.00395435
1.09231e-05
-0.0039519
-1.07363e-06
-0.00394952
-8.88486e-06
-0.00394314
-1.78183e-05
-0.00393472
-2.75058e-05
-0.00392206
-3.79064e-05
-0.00390822
-4.7137e-05
-0.00389186
-5.54425e-05
-0.0038721
-6.53848e-05
-0.00385015
-7.40807e-05
-0.00382567
-8.28934e-05
-0.00379869
-9.16944e-05
-0.00376918
-0.000100407
-0.00373745
-0.000108805
-0.00370305
-0.000117242
-0.00366671
-0.000125231
-0.00362786
-0.000133475
-0.00358691
-0.000141253
-0.00354375
-0.000149054
-0.00349856
-0.000156601
-0.00345099
-0.000164223
-0.0034014
-0.000171533
-0.00334987
-0.000178534
-0.00329653
-0.000185505
-0.00324095
-0.000192396
-0.00318368
-0.000198886
-0.00312476
-0.000205169
-0.0030638
-0.000211422
-0.00300133
-0.000217391
-0.00293725
-0.000223106
-0.0028716
-0.000228739
-0.00280421
-0.000234332
-0.00273543
-0.000239525
-0.00266523
-0.000244548
-0.00259376
-0.000249266
-0.0025208
-0.00025403
-0.00244686
-0.000258263
-0.00237152
-0.0002625
-0.00229517
-0.000266421
-0.0022177
-0.000270234
-0.00213918
-0.000273861
-0.0020597
-0.000277155
-0.0019795
-0.000280159
-0.00189812
-0.000283417
-0.00181602
-0.000285665
-0.00173386
-0.00028803
-0.00165039
-0.000290625
-0.00156656
-0.00029262
-0.00148166
-0.000294033
-0.00139725
-0.000295011
-0.00131202
-0.000296758
-0.00122669
-0.000297374
-0.00114141
-0.000297481
-0.00105561
-0.000297896
-0.000969994
-0.000297916
-0.000297751
-0.000884094
-0.00427675
7.59513e-05
-0.00428856
6.14901e-05
-0.00430015
5.09041e-05
-0.00430757
3.61861e-05
-0.00431082
2.32212e-05
-0.00431178
1.18875e-05
-0.00431289
2.71378e-08
-0.00430748
-1.42937e-05
-0.0043
-2.53027e-05
-0.00428861
-3.88925e-05
-0.00427516
-5.13618e-05
-0.00425953
-6.27666e-05
-0.00423989
-7.50828e-05
-0.00421879
-8.64867e-05
-0.00419584
-9.70331e-05
-0.00416789
-0.000110848
-0.00413802
-0.000121567
-0.00410548
-0.000132946
-0.00407026
-0.000144029
-0.00403268
-0.000154816
-0.00399246
-0.000165452
-0.00395014
-0.000175798
-0.00390523
-0.000186169
-0.00385788
-0.000196403
-0.00380796
-0.000206522
-0.00375606
-0.000216123
-0.00370187
-0.000225725
-0.00364536
-0.000235045
-0.00358676
-0.0002441
-0.00352623
-0.000252925
-0.00346356
-0.000261558
-0.00339887
-0.000269862
-0.00333243
-0.000277862
-0.00326422
-0.000285597
-0.00319413
-0.0002932
-0.00312222
-0.000300647
-0.00304891
-0.00030764
-0.00297376
-0.000314676
-0.00289706
-0.000321252
-0.00281876
-0.000327566
-0.00273929
-0.000333497
-0.00265839
-0.000339164
-0.00257635
-0.000344541
-0.00249304
-0.000349728
-0.00240859
-0.000354683
-0.0023234
-0.000359049
-0.002236
-0.000364555
-0.00214813
-0.000368031
-0.00206003
-0.000371511
-0.00197053
-0.000375168
-0.00188055
-0.000378015
-0.00179021
-0.000380962
-0.00169877
-0.000384058
-0.00160703
-0.000385776
-0.00151364
-0.000388393
-0.00142087
-0.000389532
-0.00132805
-0.00039019
-0.00123475
-0.000390782
-0.00114103
-0.000391616
-0.0010481
-0.00039085
-0.000390974
-0.000954874
-0.00466545
9.27918e-05
-0.00468012
7.61639e-05
-0.00468867
5.9448e-05
-0.00469702
4.45407e-05
-0.0047032
2.94008e-05
-0.00470328
1.19637e-05
-0.00469929
-3.96515e-06
-0.00469506
-1.8526e-05
-0.00468488
-3.54825e-05
-0.00467453
-4.92515e-05
-0.00466015
-6.57443e-05
-0.00464178
-8.11409e-05
-0.0046213
-9.55615e-05
-0.0045969
-0.00011089
-0.00456849
-0.000125439
-0.00453819
-0.000141157
-0.00450529
-0.000154464
-0.00446991
-0.000168328
-0.0044312
-0.000182742
-0.00438973
-0.000196288
-0.00434578
-0.000209401
-0.00429892
-0.000222662
-0.00424955
-0.000235542
-0.00419767
-0.000248283
-0.00414332
-0.000260871
-0.00408626
-0.000273185
-0.00402699
-0.000284999
-0.00396523
-0.000296807
-0.00390116
-0.00030817
-0.00383503
-0.000319058
-0.00376654
-0.000330049
-0.0036959
-0.000340504
-0.00362333
-0.000350425
-0.00354893
-0.000360004
-0.00347238
-0.000369748
-0.00339415
-0.000378875
-0.00331387
-0.000387919
-0.00323185
-0.000396697
-0.00314826
-0.000404847
-0.00306313
-0.000412692
-0.00297625
-0.000420381
-0.00288812
-0.000427294
-0.0027986
-0.000434053
-0.00270754
-0.000440788
-0.00261556
-0.000446665
-0.00252243
-0.000452183
-0.00242879
-0.000458192
-0.00233346
-0.000463366
-0.00223685
-0.000468123
-0.00213973
-0.000472284
-0.00204139
-0.000476356
-0.001942
-0.000480346
-0.00184299
-0.000483076
-0.00174237
-0.000486395
-0.00164209
-0.000488672
-0.00154117
-0.000490454
-0.00143894
-0.000492421
-0.00133706
-0.000492654
-0.00123585
-0.000492825
-0.00113401
-0.000492696
-0.000492556
-0.00103243
-0.00508646
0.000110417
-0.00510191
9.16076e-05
-0.00511329
7.08253e-05
-0.00512056
5.18097e-05
-0.0051218
3.06405e-05
-0.00512294
1.31045e-05
-0.00511995
-6.95799e-06
-0.00511288
-2.55996e-05
-0.00510374
-4.46223e-05
-0.00508883
-6.41667e-05
-0.00507189
-8.26854e-05
-0.00505275
-0.00010028
-0.00502775
-0.000120572
-0.00500072
-0.000137914
-0.00497173
-0.000154436
-0.00493876
-0.000174125
-0.00490177
-0.000191461
-0.00486194
-0.000208158
-0.00481893
-0.000225751
-0.00477405
-0.000241179
-0.00472547
-0.000257979
-0.00467437
-0.00027376
-0.00462038
-0.000289537
-0.00456346
-0.000305205
-0.00450374
-0.000320592
-0.00444137
-0.000335562
-0.00437628
-0.000350091
-0.00430891
-0.000364177
-0.00423916
-0.000377916
-0.00416683
-0.000391387
-0.00409204
-0.000404842
-0.0040151
-0.00041744
-0.00393578
-0.000429752
-0.00385463
-0.000441152
-0.00377147
-0.000452909
-0.00368616
-0.00046418
-0.00359885
-0.000475239
-0.00350945
-0.000486091
-0.00341824
-0.000496061
-0.00332523
-0.000505701
-0.00323068
-0.000514931
-0.00313415
-0.000523822
-0.00303681
-0.000531389
-0.00293817
-0.000539434
-0.00283851
-0.000546324
-0.00273684
-0.000553848
-0.00263381
-0.000561229
-0.00253011
-0.000567064
-0.00242616
-0.000572067
-0.00231999
-0.000578459
-0.00221336
-0.000582981
-0.00210656
-0.000587151
-0.00199789
-0.00059175
-0.00188911
-0.000595168
-0.00177922
-0.000598569
-0.00166885
-0.000600818
-0.00155897
-0.000602304
-0.00144841
-0.000603211
-0.00133744
-0.000603804
-0.00122659
-0.00060354
-0.000603169
-0.00111598
-0.00553995
0.000128709
-0.00555392
0.000105583
-0.00556412
8.10204e-05
-0.005572
5.96834e-05
-0.00557611
3.47441e-05
-0.00557442
1.14146e-05
-0.00557074
-1.06432e-05
-0.00556071
-3.56307e-05
-0.00554868
-5.66552e-05
-0.00553326
-7.95863e-05
-0.00551575
-0.000100201
-0.00549232
-0.000123707
-0.00546654
-0.00014636
-0.00543706
-0.000167392
-0.00540225
-0.00018925
-0.00536679
-0.000209589
-0.00532743
-0.000230827
-0.00528208
-0.000253508
-0.00523626
-0.00027157
-0.00518551
-0.000291927
-0.00513155
-0.000311943
-0.00507562
-0.000329694
-0.00501689
-0.000348266
-0.00495444
-0.000367657
-0.00488905
-0.000385977
-0.00482069
-0.000403922
-0.00474957
-0.00042122
-0.0046758
-0.000437941
-0.00459947
-0.000454248
-0.00452064
-0.000470217
-0.0044389
-0.000486579
-0.00435516
-0.000501188
-0.00426872
-0.000516183
-0.00418091
-0.000528964
-0.00409041
-0.000543411
-0.00399768
-0.000556903
-0.00390284
-0.000570087
-0.00380543
-0.0005835
-0.00370578
-0.000595704
-0.00360464
-0.000606847
-0.00350186
-0.00061771
-0.00339727
-0.000628414
-0.00329047
-0.000638184
-0.00318382
-0.000646081
-0.00307497
-0.000655179
-0.00296389
-0.00066492
-0.00285355
-0.000671579
-0.00274037
-0.000680235
-0.00262696
-0.000685486
-0.00251261
-0.000692809
-0.00239619
-0.000699394
-0.00227999
-0.000703356
-0.00216246
-0.000709281
-0.00204505
-0.00071258
-0.00192521
-0.00071841
-0.00180599
-0.000720037
-0.00168513
-0.000723162
-0.00156498
-0.000723357
-0.0014446
-0.000724192
-0.00132474
-0.000723398
-0.000723733
-0.00120418
-0.00602592
0.000147692
-0.00603969
0.000119357
-0.00605042
9.17484e-05
-0.00605441
6.36719e-05
-0.00605717
3.74998e-05
-0.00605618
1.04266e-05
-0.00605075
-1.60784e-05
-0.00604054
-4.58389e-05
-0.00602521
-7.19897e-05
-0.0060092
-9.55886e-05
-0.00598718
-0.000122224
-0.00596157
-0.000149324
-0.00593361
-0.000174318
-0.00589882
-0.000202181
-0.00586478
-0.000223292
-0.00582349
-0.000250889
-0.00577783
-0.000276481
-0.00573081
-0.000300528
-0.0056772
-0.000325182
-0.00562261
-0.000346519
-0.0055654
-0.000369151
-0.00550248
-0.000392613
-0.00543955
-0.000411199
-0.00537085
-0.000436359
-0.00529855
-0.00045828
-0.00522465
-0.000477822
-0.00514595
-0.000499927
-0.00506624
-0.000517647
-0.00498102
-0.000539469
-0.00489717
-0.000554068
-0.00480592
-0.00057783
-0.00471624
-0.000590862
-0.00462041
-0.000612015
-0.00452681
-0.000622559
-0.00442885
-0.00064137
-0.00432782
-0.000657934
-0.00422608
-0.000671833
-0.00411931
-0.000690269
-0.0040105
-0.000704513
-0.00390218
-0.000715161
-0.00378845
-0.000731442
-0.00367332
-0.000743547
-0.00355944
-0.00075206
-0.00344072
-0.000764803
-0.00332604
-0.000769862
-0.00320354
-0.000787423
-0.00308478
-0.000790335
-0.00296003
-0.000804984
-0.00283942
-0.000806096
-0.00271551
-0.000816721
-0.00258872
-0.000826182
-0.00246503
-0.00082705
-0.00233602
-0.000838294
-0.00221032
-0.000838281
-0.00207767
-0.000851055
-0.00195004
-0.000847676
-0.00181601
-0.000857186
-0.00168968
-0.000849689
-0.00155627
-0.000857608
-0.00142865
-0.00085102
-0.00129447
-0.000857911
-0.000780079
-6.23039e-05
-0.000718126
-6.19508e-05
-0.000656544
-6.15796e-05
-0.00059537
-6.11718e-05
-0.000534664
-6.07043e-05
-0.000474466
-6.01955e-05
-0.000415034
-5.94293e-05
-0.000356416
-5.86162e-05
-0.000298816
-5.75972e-05
-0.000242368
-5.64452e-05
-0.000186986
-5.53801e-05
-0.000130881
-5.61019e-05
-7.3045e-05
-5.78336e-05
-1.40268e-05
-5.90157e-05
4.39854e-05
-5.80097e-05
9.94197e-05
-5.54318e-05
0.000152565
-5.3143e-05
0.000203941
-5.13732e-05
0.000253739
-4.97957e-05
0.000301974
-4.8232e-05
0.000348662
-4.66855e-05
0.000393745
-4.50801e-05
0.000437158
-4.34104e-05
0.000478772
-4.16119e-05
0.000518526
-3.9751e-05
0.000556355
-3.78266e-05
0.000592141
-3.57835e-05
0.000625752
-3.36081e-05
0.000657071
-3.13173e-05
0.000686008
-2.89347e-05
0.000712364
-2.63536e-05
0.000735979
-2.36134e-05
0.000756731
-2.07498e-05
0.000774373
-1.76402e-05
0.000788687
-1.43125e-05
0.000799479
-1.07901e-05
0.00080649
-7.00983e-06
0.000809437
-2.94565e-06
0.000808957
4.8044e-07
0.000804932
4.02687e-06
0.000797446
7.48654e-06
0.000785829
1.16177e-05
0.000769562
1.62669e-05
0.000748212
2.13501e-05
0.000721136
2.70762e-05
0.000687698
3.34384e-05
0.000647265
4.0432e-05
0.000599089
4.81755e-05
0.000542302
5.67865e-05
0.000476129
6.61727e-05
0.000399839
7.62897e-05
0.000312862
8.69754e-05
0.000214554
9.83078e-05
0.000103811
0.000110741
-2.489e-05
0.0001287
-0.000164891
0.00014
-0.000293417
0.000128526
-0.000399146
0.000105729
-0.000478907
7.97613e-05
-0.000538841
5.99354e-05
5.07326e-05
-0.000589573
-0.00071777
-0.000133281
-0.000646484
-0.000133236
-0.000575414
-0.000132648
-0.000504599
-0.000131985
-0.000434399
-0.000130903
-0.000364316
-0.000130276
-0.00029477
-0.000128974
-0.000225613
-0.000127771
-0.000157176
-0.000126032
-8.92868e-05
-0.000124333
-2.10901e-05
-0.000123575
4.75223e-05
-0.000124712
0.000115139
-0.000125448
0.000181468
-0.000125343
0.000247048
-0.000123587
0.000311998
-0.00012038
0.000375884
-0.000117027
0.000438464
-0.000113952
0.000499649
-0.000110979
0.000559456
-0.000108037
0.000617888
-0.000105116
0.000674807
-0.000101998
0.000730185
-9.87875e-05
0.000784015
-9.54408e-05
0.000836195
-9.19299e-05
0.000886664
-8.82951e-05
0.000935292
-8.44101e-05
0.000982096
-8.04114e-05
0.00102693
-7.61495e-05
0.00106961
-7.16207e-05
0.00111017
-6.69136e-05