/*--------------------------------*- C++ -*----------------------------------*\
| =========                 |                                                 |
| \\      /  F ield         | OpenFOAM: The Open Source CFD Toolbox           |
|  \\    /   O peration     | Version:  2.3.1                                 |
|   \\  /    A nd           | Web:      www.OpenFOAM.org                      |
|    \\/     M anipulation  |                                                 |
\*---------------------------------------------------------------------------*/
FoamFile
{
    version     2.0;
    format      ascii;
    class       volVectorField;
    location    "0.96";
    object      U;
}
// * * * * * * * * * * * * * * * * * * * * * * * * * * * * * * * * * * * * * //

dimensions      [0 1 -1 0 0 0 0];

internalField   nonuniform List<vector> 
9648
(
(0.160801 -4.82444 -1.73149e-22)
(0.284262 -4.79212 -5.67838e-23)
(0.406932 -4.76261 0)
(0.529257 -4.7359 0)
(0.652107 -4.71406 9.71967e-21)
(0.776271 -4.69829 1.51795e-20)
(0.904304 -4.69254 -2.79113e-20)
(1.03835 -4.69877 -1.29905e-20)
(1.17975 -4.71825 1.2958e-20)
(1.32896 -4.753 3.95315e-20)
(1.48808 -4.80469 -3.93651e-20)
(1.65894 -4.87434 -5.68068e-20)
(1.84355 -4.96253 3.02049e-19)
(2.0439 -5.06915 7.8102e-20)
(2.26167 -5.19334 -7.32765e-19)
(2.49807 -5.3338 0)
(2.75424 -5.48876 0)
(3.03099 -5.65614 1.32927e-19)
(3.329 -5.8333 4.28195e-19)
(3.64831 -6.01744 -1.23129e-18)
(3.98892 -6.20593 -2.13853e-20)
(4.35069 -6.39571 3.3895e-19)
(4.73284 -6.5839 4.00222e-19)
(5.13469 -6.76772 -1.81708e-18)
(5.55529 -6.94451 0)
(5.99361 -7.11166 1.08631e-18)
(6.44833 -7.26671 -1.13845e-18)
(6.91809 -7.40763 0)
(7.40145 -7.53224 0)
(7.89679 -7.6389 -6.89904e-19)
(8.40261 -7.72597 -1.52486e-18)
(8.91712 -7.79199 2.39342e-18)
(9.43871 -7.83588 0)
(9.96564 -7.85642 0)
(10.4961 -7.85297 1.83098e-18)
(11.0284 -7.82468 -1.96934e-18)
(11.5607 -7.77114 0)
(12.0915 -7.6921 4.22496e-18)
(12.6189 -7.58717 1.13887e-18)
(13.1413 -7.45624 -3.37161e-18)
(13.6567 -7.29936 6.33064e-20)
(14.1637 -7.11701 2.39725e-18)
(14.6607 -6.90908 -3.18315e-18)
(15.1458 -6.67612 6.40248e-19)
(15.6181 -6.4189 0)
(16.0759 -6.13756 0)
(16.5178 -5.8328 4.82548e-18)
(16.9426 -5.50541 7.06112e-19)
(17.3496 -5.15624 -2.18137e-18)
(17.7381 -4.78526 -7.34196e-19)
(18.1058 -4.39344 -7.63302e-19)
(18.4512 -3.983 7.58592e-19)
(18.7741 -3.55561 3.9173e-19)
(19.0736 -3.112 -3.89624e-19)
(19.3485 -2.6539 1.98824e-18)
(19.5984 -2.18238 -1.95767e-18)
(19.8223 -1.69887 -2.16721e-20)
(20.02 -1.2046 0)
(20.1909 -0.701004 -3.97492e-19)
(20.3346 -0.189749 -5.13903e-20)
(20.4511 0.327967 -4.87282e-20)
(-0.0651571 -2.53814 2.20175e-22)
(0.00528113 -2.54417 0)
(0.0777002 -2.56084 0)
(0.153232 -2.59118 4.83238e-21)
(0.233773 -2.64138 -5.5516e-21)
(0.323719 -2.71458 -3.59685e-20)
(0.42454 -2.8084 0)
(0.538031 -2.92161 0)
(0.665967 -3.05479 -4.43157e-20)
(0.808877 -3.20795 0)
(0.968034 -3.38 -1.0714e-19)
(1.14423 -3.56939 8.45377e-20)
(1.33833 -3.77479 -4.57279e-20)
(1.55129 -3.99449 0)
(1.78384 -4.22651 2.85292e-19)
(2.03627 -4.46874 1.6886e-19)
(2.30889 -4.71893 -1.66132e-19)
(2.60182 -4.97484 2.15639e-19)
(2.91525 -5.23393 -6.56888e-19)
(3.24892 -5.49377 5.22382e-19)
(3.60251 -5.752 -5.77983e-19)
(3.97574 -6.00612 -3.11296e-19)
(4.3678 -6.2538 -3.19102e-19)
(4.77793 -6.49275 1.09587e-18)
(5.20521 -6.72077 3.79225e-19)
(5.64871 -6.93573 4.50158e-19)
(6.1073 -7.13565 -3.99414e-19)
(6.5797 -7.3188 0)
(7.06467 -7.48341 0)
(7.56071 -7.62815 0)
(8.06648 -7.75158 0)
(8.58034 -7.85253 0)
(9.10081 -7.93 0)
(9.62638 -7.98302 0)
(10.1552 -8.01104 -8.2089e-19)
(10.686 -8.01329 7.45854e-19)
(11.2168 -7.98951 8.21882e-19)
(11.7462 -7.9394 -4.17456e-18)
(12.2725 -7.86266 -8.85457e-19)
(12.794 -7.75925 2.72264e-18)
(13.3092 -7.62928 1.90963e-18)
(13.8163 -7.4732 -1.97016e-18)
(14.314 -7.2909 9.41064e-19)
(14.8004 -7.08307 9.92574e-19)
(15.2743 -6.85037 -1.05441e-18)
(15.7343 -6.59302 1.04508e-18)
(16.1788 -6.31188 -2.23904e-18)
(16.6066 -6.00777 0)
(17.0163 -5.68158 -5.71663e-19)
(17.4074 -5.33343 1.14864e-18)
(17.779 -4.96422 -5.77125e-19)
(18.1298 -4.57572 0)
(18.4587 -4.16929 1.18562e-18)
(18.7649 -3.74573 0)
(19.0474 -3.3065 0)
(19.3054 -2.85278 2.80847e-18)
(19.5382 -2.38586 -1.26552e-18)
(19.7453 -1.90737 -3.07823e-19)
(19.9261 -1.41816 3.24828e-19)
(20.0802 -0.919948 0)
(20.2072 -0.413993 8.16551e-20)
(0.0525146 -1.49737 -3.69079e-22)
(0.111479 -1.54486 0)
(0.176511 -1.61065 -1.0742e-22)
(0.248458 -1.69751 -3.2189e-22)
(0.32854 -1.80379 0)
(0.420037 -1.92862 3.04029e-20)
(0.524119 -2.0736 2.09138e-20)
(0.64226 -2.23771 0)
(0.776059 -2.42048 2.30621e-21)
(0.927187 -2.62044 4.56269e-20)
(1.09657 -2.83645 9.14087e-20)
(1.28484 -3.06657 -3.17154e-20)
(1.49252 -3.30898 0)
(1.71994 -3.56157 0)
(1.96737 -3.82225 2.17169e-19)
(2.23472 -4.08888 -1.38071e-19)
(2.52197 -4.35924 -1.47987e-19)
(2.82891 -4.63116 0)
(3.15531 -4.90238 5.69037e-19)
(3.50082 -5.17074 -5.90669e-19)
(3.86496 -5.43418 -4.41206e-19)
(4.24718 -5.69059 -4.85484e-19)
(4.64671 -5.93798 0)
(5.06267 -6.17438 -8.68757e-19)
(5.49412 -6.39789 -3.05325e-19)
(5.94009 -6.60669 3.62316e-19)
(6.39947 -6.79909 3.99714e-19)
(6.87109 -6.97359 0)
(7.35368 -7.12875 0)
(7.84588 -7.26336 0)
(8.34627 -7.37624 0)
(8.85339 -7.46641 0)
(9.3658 -7.53296 0)
(9.88199 -7.57519 0)
(10.4004 -7.59256 -1.8017e-18)
(10.9194 -7.58454 5.9846e-19)
(11.4376 -7.55089 -6.59532e-19)
(11.9533 -7.49139 3.31849e-18)
(12.4651 -7.40589 0)
(12.9714 -7.29444 1.41058e-18)
(13.4705 -7.15727 1.45825e-18)
(13.9609 -6.99467 7.22363e-19)
(14.4413 -6.8068 -8.26672e-19)
(14.9101 -6.5942 -1.59223e-18)
(15.3659 -6.35742 2.47976e-18)
(15.8076 -6.097 -8.38674e-19)
(16.2336 -5.8137 -1.71005e-18)
(16.6429 -5.50835 0)
(17.0342 -5.18196 0)
(17.4065 -4.83553 -4.66271e-19)
(17.7589 -4.47009 -4.55817e-19)
(18.0903 -4.08658 -9.32104e-19)
(18.4003 -3.68608 -9.75319e-19)
(18.6875 -3.27001 0)
(18.9515 -2.83917 -9.64241e-19)
(19.1913 -2.39529 -1.00453e-18)
(19.4067 -1.93909 0)
(19.5967 -1.47276 1.62466e-20)
(19.7609 -0.996608 0)
(19.8989 -0.512381 0)
(20.0108 -0.0210994 -6.21649e-20)
(0.0249905 -1.00259 7.54924e-22)
(0.0875085 -1.0873 -1.10031e-21)
(0.161229 -1.19002 6.34355e-22)
(0.245937 -1.3106 -1.72568e-21)
(0.342161 -1.44871 0)
(0.450342 -1.6043 -1.26453e-20)
(0.571971 -1.77753 -1.80546e-20)
(0.708313 -1.96786 0)
(0.860707 -2.17438 3.16867e-21)
(1.02999 -2.3959 -3.90184e-20)
(1.21699 -2.63095 8.77839e-20)
(1.42202 -2.87778 1.06307e-19)
(1.64542 -3.1344 0)
(1.88739 -3.39876 -8.3835e-20)
(2.14814 -3.66883 -1.77824e-19)
(2.42741 -3.94261 -9.46913e-20)
(2.7251 -4.218 3.6435e-19)
(3.04095 -4.49296 -2.63137e-19)
(3.3746 -4.76544 2.94781e-19)
(3.72573 -5.03345 5.01633e-19)
(4.09393 -5.29519 7.25442e-19)
(4.47849 -5.54883 4.08684e-19)
(4.87877 -5.79257 1.96641e-19)
(5.29385 -6.02471 7.13306e-19)
(5.72287 -6.24348 2.34262e-19)
(6.16488 -6.44726 2.66162e-19)
(6.61887 -6.63453 3.13547e-19)
(7.08384 -6.80391 -9.38194e-19)
(7.55855 -6.95419 6.72917e-19)
(8.04172 -7.08423 7.59375e-19)
(8.53212 -7.19297 -1.55173e-18)
(9.0283 -7.27954 7.92002e-19)
(9.52892 -7.34307 -8.47734e-19)
(10.0327 -7.38293 4.22442e-19)
(10.538 -7.39866 4.62617e-19)
(11.0436 -7.38981 5.12814e-19)
(11.5478 -7.35608 -5.06286e-19)
(12.0494 -7.29734 -5.51276e-19)
(12.5467 -7.21349 -1.65163e-18)
(13.0385 -7.1046 -1.19069e-18)
(13.523 -6.97092 -2.41292e-18)
(13.999 -6.81266 -3.1242e-18)
(14.4649 -6.63011 1.28033e-18)
(14.9194 -6.42368 2.88351e-20)
(15.3613 -6.19392 -7.16148e-19)
(15.7892 -5.94137 -7.02312e-19)
(16.202 -5.66671 4.24509e-18)
(16.5984 -5.37071 -7.11363e-19)
(16.9775 -5.05419 0)
(17.3382 -4.71807 0)
(17.6795 -4.36336 -7.13781e-19)
(18.0007 -3.99123 3.17411e-20)
(18.3008 -3.60269 7.65263e-19)
(18.5792 -3.19889 0)
(18.8349 -2.78108 8.14383e-19)
(19.0673 -2.35059 0)
(19.2758 -1.90858 0)
(19.4598 -1.456 6.201e-19)
(19.6189 -0.994383 1.97196e-19)
(19.7529 -0.525188 -2.00902e-19)
(19.8613 -0.0498808 1.02772e-19)
(0.116013 -0.756225 4.69371e-23)
(0.180078 -0.862584 9.60965e-22)
(0.257742 -0.984842 -1.78736e-21)
(0.349344 -1.1238 5.0008e-22)
(0.454811 -1.27963 -2.295e-21)
(0.574841 -1.45203 5.07657e-21)
(0.710048 -1.64067 2.42153e-21)
(0.861104 -1.84465 -1.32219e-20)
(1.02899 -2.06303 4.0352e-20)
(1.21385 -2.29451 -5.84161e-20)
(1.41622 -2.53754 6.58759e-20)
(1.6359 -2.7904 -8.2135e-20)
(1.87311 -3.05104 -4.74569e-20)
(2.1277 -3.31748 0)
(2.39997 -3.58772 8.70411e-20)
(2.68936 -3.86005 8.35895e-20)
(2.99569 -4.13245 0)
(3.31874 -4.40299 2.06584e-19)
(3.65795 -4.66982 0)
(4.01314 -4.931 -2.73089e-19)
(4.38394 -5.18501 2.97888e-19)
(4.76956 -5.43028 1.03376e-20)
(5.16945 -5.66512 -1.72119e-20)
(5.58256 -5.88811 2.92936e-20)
(6.00813 -6.0975 -8.3408e-19)
(6.4453 -6.29182 -4.78122e-19)
(6.89306 -6.46968 9.83708e-19)
(7.35063 -6.62978 1.06627e-18)
(7.81678 -6.77117 -5.76699e-19)
(8.29032 -6.89271 0)
(8.77013 -6.99347 0)
(9.25474 -7.07268 0)
(9.743 -7.12944 7.27715e-19)
(10.2337 -7.16321 -3.00365e-18)
(10.7254 -7.17366 1.57084e-18)
(11.2167 -7.16031 -7.98531e-19)
(11.7063 -7.12285 -1.72096e-18)
(12.1929 -7.06131 1.74508e-18)
(12.675 -6.97551 3.99465e-20)
(13.1513 -6.86559 -9.83813e-19)
(13.6205 -6.73184 1.01602e-18)
(14.0809 -6.57445 1.04993e-18)
(14.5313 -6.39371 0)
(14.9704 -6.18993 -1.06533e-18)
(15.397 -5.96369 0)
(15.8098 -5.71553 -1.70028e-18)
(16.2078 -5.44611 5.25649e-19)
(16.5897 -5.15615 0)
(16.9547 -4.84634 -6.15801e-19)
(17.3016 -4.51771 -1.45837e-20)
(17.6299 -4.17106 1.31087e-18)
(17.9384 -3.80759 -6.22846e-19)
(18.2266 -3.42835 -3.46093e-19)
(18.4936 -3.03446 6.3395e-19)
(18.7387 -2.62727 -4.77442e-21)
(18.9611 -2.20776 3.3036e-19)
(19.16 -1.77722 1.59562e-19)
(19.3352 -1.33658 3.36596e-19)
(19.4863 -0.887059 -8.45372e-19)
(19.613 -0.430143 3.39445e-19)
(19.7149 0.0326138 -4.34204e-20)
(0.199678 -0.624055 -3.69652e-22)
(0.276449 -0.745952 0)
(0.367954 -0.882761 2.74284e-21)
(0.47469 -1.03531 0)
(0.595836 -1.20357 3.25392e-22)
(0.732364 -1.387 6.32521e-21)
(0.88446 -1.58512 7.92347e-21)
(1.05252 -1.79677 2.57469e-20)
(1.23741 -2.02094 3.8739e-21)
(1.43863 -2.25645 5.92786e-21)
(1.65679 -2.50165 1.14706e-21)
(1.89101 -2.755 -3.1201e-20)
(2.14166 -3.01444 4.6072e-20)
(2.4079 -3.27797 -1.40439e-19)
(2.69077 -3.54366 1.19606e-19)
(2.98925 -3.81033 -8.57945e-21)
(3.30294 -4.07578 -1.48261e-19)
(3.63194 -4.33828 -1.78503e-19)
(3.97529 -4.59619 0)
(4.33305 -4.84749 2.12218e-19)
(4.70514 -5.091 8.42851e-21)
(5.09031 -5.32545 -5.48956e-19)
(5.48855 -5.54917 -2.33807e-20)
(5.89837 -5.76114 -2.97194e-19)
(6.31908 -5.95947 1.04726e-18)
(6.75002 -6.14282 3.5501e-20)
(7.19008 -6.30996 -3.88922e-19)
(7.63892 -6.45951 -4.12141e-20)
(8.09521 -6.59095 0)
(8.55773 -6.70312 0)
(9.02573 -6.79507 0)
(9.49749 -6.86635 0)
(9.97197 -6.91583 0)
(10.4484 -6.94301 5.72853e-20)
(10.9253 -6.94785 -6.73318e-19)
(11.401 -6.92985 -3.88719e-20)
(11.8748 -6.88846 2.91818e-20)
(12.3451 -6.82405 6.94039e-19)
(12.8107 -6.73631 1.58469e-18)
(13.2706 -6.62539 -2.38935e-18)
(13.7231 -6.49181 1.66228e-18)
(14.167 -6.33562 -8.38547e-19)
(14.6007 -6.15717 0)
(15.0234 -5.95652 9.30405e-19)
(15.4338 -5.73435 0)
(15.8306 -5.49123 9.78563e-19)
(16.2129 -5.2276 -1.00091e-18)
(16.5794 -4.94449 4.70134e-19)
(16.9294 -4.6422 5.01911e-19)
(17.2619 -4.32178 -5.23425e-19)
(17.5763 -3.98406 3.74109e-20)
(17.8716 -3.63027 -1.05448e-20)
(18.1473 -3.26117 1.0638e-18)
(18.4025 -2.87816 -1.09439e-18)
(18.6367 -2.48246 -5.39837e-19)
(18.8487 -2.07538 -2.64272e-19)
(19.038 -1.65767 -8.40255e-19)
(19.2041 -1.23019 0)
(19.347 -0.794039 5.67263e-19)
(19.4665 -0.351032 -1.45581e-19)
(19.5621 0.0975592 0)
(0.304486 -0.558986 0)
(0.395243 -0.692132 0)
(0.501923 -0.839993 -1.44146e-21)
(0.625885 -1.00301 1.24938e-21)
(0.7642 -1.18063 -1.83618e-21)
(0.918797 -1.37174 -1.01542e-20)
(1.08894 -1.57582 5.52484e-21)
(1.27432 -1.79139 -1.80316e-20)
(1.47703 -2.01768 -1.28613e-21)
(1.69438 -2.25355 4.80801e-20)
(1.9286 -2.49738 -8.93578e-20)
(2.17681 -2.748 0)
(2.44063 -3.00306 0)
(2.71727 -3.26081 1.59814e-19)
(3.01029 -3.51882 1.02366e-19)
(3.31701 -3.77729 -2.25655e-19)
(3.63687 -4.03342 3.6587e-19)
(3.97112 -4.28563 1.52857e-19)
(4.31736 -4.53291 -3.05776e-19)
(4.67641 -4.7725 -1.85013e-19)
(5.0492 -5.00362 2.12557e-19)
(5.43261 -5.22589 -5.2168e-21)
(5.82861 -5.43684 0)
(6.23409 -5.63687 5.46793e-19)
(6.64883 -5.82319 -8.99702e-19)
(7.0728 -5.99452 2.99539e-19)
(7.50375 -6.1502 6.61617e-19)
(7.94302 -6.28811 -1.8388e-18)
(8.38863 -6.40879 3.74344e-19)
(8.83893 -6.51096 0)
(9.29443 -6.59322 0)
(9.75234 -6.65624 0)
(10.2118 -6.69805 5.11617e-19)
(10.6732 -6.71787 1.58301e-18)
(11.1344 -6.71662 -1.07006e-18)
(11.5932 -6.69391 5.89983e-19)
(12.0503 -6.64789 6.46022e-19)
(12.5034 -6.58031 -1.28108e-18)
(12.9513 -6.49033 0)
(13.3938 -6.37782 -1.31425e-18)
(13.8287 -6.24424 6.82289e-19)
(14.2552 -6.08901 3.51576e-20)
(14.6711 -5.91302 -3.14902e-20)
(15.0763 -5.71526 7.50305e-19)
(15.4695 -5.49706 3.14418e-20)
(15.8492 -5.25924 -2.39324e-18)
(16.215 -5.00139 8.10628e-19)
(16.5651 -4.72535 -1.68279e-18)
(16.8992 -4.43051 0)
(17.2162 -4.11871 0)
(17.5159 -3.78987 1.77475e-18)
(17.797 -3.44624 -4.23915e-19)
(18.0591 -3.0877 -9.18897e-19)
(18.302 -2.71554 -4.41532e-19)
(18.5245 -2.33187 1.4093e-18)
(18.7256 -1.93769 7.10539e-19)
(18.9045 -1.53328 2.45472e-19)
(19.0606 -1.11979 -4.61987e-21)
(19.1947 -0.697319 -2.45498e-19)
(19.3066 -0.268321 0)
(19.3955 0.165355 0)
(0.426519 -0.536571 4.08538e-22)
(0.534534 -0.677841 0)
(0.657551 -0.833644 0)
(0.801391 -1.00468 -9.06135e-22)
(0.957232 -1.18919 0)
(1.13084 -1.38524 3.13963e-21)
(1.31922 -1.5925 5.38886e-21)
(1.5209 -1.80899 -1.11809e-20)
(1.74263 -2.03465 0)
(1.97473 -2.26832 -2.87903e-20)
(2.226 -2.50838 4.05363e-21)
(2.48662 -2.75437 0)
(2.76439 -3.00322 0)
(3.04846 -3.25369 -6.72098e-20)
(3.35195 -3.50096 7.34336e-20)
(3.66667 -3.74996 -9.2201e-20)
(3.99083 -3.99545 -1.06071e-19)
(4.3303 -4.23582 0)
(4.6781 -4.47215 1.36699e-19)
(5.03688 -4.69879 -2.88445e-19)
(5.4111 -4.91614 -3.22938e-19)
(5.79043 -5.12597 -3.78263e-19)
(6.18451 -5.32266 -3.35856e-20)
(6.58474 -5.51089 -4.79372e-19)
(6.99248 -5.68484 4.60069e-19)
(7.40961 -5.84341 5.12401e-19)
(7.82936 -5.98774 -5.82536e-19)
(8.25872 -6.11265 3.17913e-20)
(8.69331 -6.22225 4.2606e-20)
(9.1295 -6.31447 -6.70894e-19)
(9.57231 -6.38609 0)
(10.0154 -6.4413 -8.14699e-19)
(10.4587 -6.47511 1.61558e-18)
(10.9044 -6.48642 -4.49796e-20)
(11.3497 -6.47934 9.46246e-19)
(11.7893 -6.45314 -9.41045e-19)
(12.2298 -6.40118 1.03619e-18)
(12.6646 -6.33055 1.08001e-18)
(13.0932 -6.23824 -2.13477e-18)
(13.5175 -6.12336 1.16677e-18)
(13.9335 -5.99022 1.14697e-18)
(14.342 -5.83559 1.81044e-18)
(14.7384 -5.66245 -6.43939e-19)
(15.1252 -5.46646 0)
(15.5005 -5.25236 3.43189e-20)
(15.8614 -5.02085 6.98222e-19)
(16.2104 -4.76842 -6.78483e-19)
(16.5423 -4.50082 7.30067e-19)
(16.8597 -4.21339 0)
(17.1597 -3.91127 0)
(17.444 -3.59124 -3.97844e-20)
(17.7099 -3.25879 7.82659e-19)
(17.9572 -2.91014 0)
(18.1869 -2.54863 3.88478e-19)
(18.3975 -2.17814 3.91678e-19)
(18.5871 -1.79796 -7.97473e-19)
(18.7551 -1.40743 -3.91052e-19)
(18.9 -1.00902 -2.07646e-19)
(19.0239 -0.599776 0)
(19.1281 -0.185837 0)
(19.2097 0.231495 2.48423e-20)
(0.565861 -0.541134 -1.15166e-21)
(0.697401 -0.687098 2.34121e-21)
(0.836231 -0.84614 -6.08052e-24)
(1.00619 -1.02307 -2.19374e-21)
(1.17578 -1.21101 2.78943e-21)
(1.36808 -1.41157 -1.51369e-21)
(1.5754 -1.61793 0)
(1.7895 -1.83128 1.51753e-21)
(2.03534 -2.05485 -1.35939e-20)
(2.27636 -2.28291 0)
(2.55036 -2.51811 5.8871e-20)
(2.81614 -2.759 -3.70009e-20)
(3.11131 -3.00183 3.77379e-20)
(3.39544 -3.24526 4.83549e-20)
(3.71207 -3.47623 -6.35173e-20)
(4.03445 -3.71688 -7.76805e-20)
(4.35865 -3.95159 2.56489e-19)
(4.70762 -4.17681 -2.67178e-19)
(5.05039 -4.40492 0)
(5.40411 -4.62006 -9.24122e-21)
(5.7864 -4.82246 7.94442e-19)
(6.15362 -5.0224 -2.99027e-20)
(6.55334 -5.19969 -3.76193e-19)
(6.94217 -5.37927 7.20741e-19)
(7.34096 -5.54315 0)
(7.75453 -5.68907 -4.42655e-19)
(8.15669 -5.82372 -4.53278e-19)
(8.57791 -5.9341 1.00413e-18)
(9.00255 -6.03354 -6.55286e-21)
(9.42036 -6.11735 5.94958e-19)
(9.85316 -6.17563 -1.21555e-18)
(10.2775 -6.2256 1.93113e-18)
(10.7021 -6.25297 -1.38348e-18)
(11.1331 -6.25561 -1.44991e-18)
(11.565 -6.242 0)
(11.9807 -6.21296 8.24442e-19)
(12.41 -6.15238 0)
(12.8228 -6.08178 -3.1609e-21)
(13.2297 -5.98902 9.74439e-19)
(13.6385 -5.86857 -1.81276e-18)
(14.0331 -5.73501 -6.82596e-21)
(14.4249 -5.58105 -2.00199e-18)
(14.7959 -5.41349 0)
(15.1633 -5.22053 -5.72214e-19)
(15.5216 -5.01191 2.19535e-18)
(15.8593 -4.78784 -5.58031e-19)
(16.195 -4.54025 5.90511e-19)
(16.505 -4.28222 0)
(16.8075 -4.00122 6.06998e-19)
(17.088 -3.70788 -1.8313e-18)
(17.3579 -3.39291 -2.53859e-20)
(17.607 -3.07179 0)
(17.8366 -2.73589 6.28531e-19)
(18.0537 -2.38553 -1.88251e-20)
(18.2536 -2.02579 0)
(18.4285 -1.65807 3.53628e-19)
(18.5876 -1.28911 -3.21009e-19)
(18.7185 -0.907896 3.36553e-19)
(18.8307 -0.513084 3.33634e-19)
(18.93 -0.110552 -1.67472e-19)
(19.0012 0.29108 -6.33577e-20)
(20.5394 0.85124 1.51563e-19)
(20.5993 1.37836 -5.13811e-20)
(20.6313 1.90877 0)
(20.6352 2.44004 0)
(20.6115 2.97045 8.16282e-19)
(20.5603 3.49886 1.17464e-18)
(20.4817 4.02349 -1.20923e-18)
(20.376 4.5429 -3.98475e-19)
(20.2432 5.05565 3.98421e-19)
(20.0839 5.56068 7.79673e-19)
(19.8984 6.05735 -7.8014e-19)
(19.6868 6.54384 -7.58459e-19)
(19.4507 7.01907 3.77227e-18)
(19.1912 7.48183 7.33651e-19)
(18.9087 7.93069 -6.47429e-18)
(18.6039 8.36416 0)
(18.2776 8.78133 0)
(17.9311 9.18123 6.73365e-19)
(17.5651 9.56333 1.98893e-18)
(17.1804 9.92628 -5.11283e-18)
(16.7785 10.2694 -7.46208e-20)
(16.3603 10.5923 1.17205e-18)
(15.9267 10.8937 1.20562e-18)
(15.479 11.1732 -4.49881e-18)
(15.0185 11.4307 0)
(14.5463 11.6661 2.11303e-18)
(14.0625 11.879 -1.9582e-18)
(13.5692 12.0674 0)
(13.068 12.2312 0)
(12.5606 12.3699 -8.97221e-19)
(12.048 12.4837 -1.64048e-18)
(11.5317 12.5721 2.33825e-18)
(11.0131 12.6355 0)
(10.4933 12.6738 0)
(9.97378 12.6869 1.1804e-18)
(9.45562 12.6751 -1.1221e-18)
(8.9402 12.6384 0)
(8.42881 12.5775 1.76926e-18)
(7.92248 12.4924 3.68733e-19)
(7.42246 12.3836 -1.02028e-18)
(6.92997 12.2514 3.54097e-20)
(6.44642 12.0966 4.30166e-19)
(5.97259 11.9198 -4.25714e-19)
(5.50968 11.7214 7.45288e-20)
(5.05887 11.5023 0)
(4.62087 11.2633 0)
(4.19674 11.0049 -1.71142e-19)
(3.78741 10.728 -3.69763e-20)
(3.39386 10.4337 2.20623e-19)
(3.01681 10.1231 9.17958e-20)
(2.65687 9.797 1.43627e-19)
(2.31487 9.45623 -1.455e-19)
(1.99157 9.10209 -9.75073e-20)
(1.68727 8.73577 9.88377e-20)
(1.40268 8.35818 -5.90392e-19)
(1.1382 7.97077 6.4415e-19)
(0.894263 7.57466 -1.30135e-21)
(0.671167 7.17135 0)
(0.469087 6.7619 1.64093e-19)
(0.288376 6.3474 2.22917e-20)
(0.129117 5.92908 2.35913e-20)
(20.3065 0.098055 -8.17239e-20)
(20.3773 0.614138 0)
(20.4205 1.13184 0)
(20.4365 1.65087 9.38174e-19)
(20.425 2.16985 -6.27249e-19)
(20.3866 2.68755 -2.21004e-18)
(20.3212 3.20222 0)
(20.2289 3.71288 0)
(20.11 4.21786 -1.20316e-18)
(19.9645 4.71576 0)
(19.7929 5.2058 -1.76269e-18)
(19.5957 5.68569 1.16942e-18)
(19.3744 6.15367 -5.8051e-19)
(19.13 6.60955 0)
(18.8627 7.05284 2.29546e-18)
(18.5728 7.48219 1.07519e-18)
(18.2611 7.89643 -1.07733e-18)
(17.9288 8.29438 1.02471e-18)
(17.5767 8.6754 -3.02808e-18)
(17.2056 9.03828 2.03884e-18)
(16.8171 9.38191 -1.98004e-18)
(16.4117 9.70583 -1.00937e-18)
(15.9909 10.0088 -9.13121e-19)
(15.5557 10.2902 2.64914e-18)
(15.1073 10.5492 8.49104e-19)
(14.6465 10.7856 7.76916e-19)
(14.1745 10.9998 -7.02202e-19)
(13.6931 11.1906 0)
(13.2035 11.3574 0)
(12.707 11.4996 0)
(12.2048 11.6173 0)
(11.6984 11.71 0)
(11.1891 11.7778 0)
(10.6781 11.8208 0)
(10.1668 11.8386 -4.89614e-19)
(9.65652 11.8316 4.34778e-19)
(9.14849 11.7998 3.48266e-19)
(8.64396 11.7434 -1.69046e-18)
(8.14404 11.6629 -2.6391e-19)
(7.65007 11.5586 7.87232e-19)
(7.16327 11.4307 4.33331e-19)
(6.685 11.2799 -3.45646e-19)
(6.21613 11.1068 1.28441e-19)
(5.75801 10.9118 9.41299e-20)
(5.31173 10.6956 -7.72693e-21)
(4.8781 10.459 7.81349e-21)
(4.45819 10.2026 9.25658e-20)
(4.05297 9.92724 0)
(3.6635 9.63386 8.03532e-20)
(3.29055 9.32346 -1.82315e-19)
(2.9348 8.9969 1.02252e-19)
(2.59714 8.65508 0)
(2.27843 8.29913 -3.04719e-19)
(1.97892 7.93021 0)
(1.69953 7.54926 0)
(1.4405 7.15767 -9.4722e-19)
(1.20247 6.75665 4.56966e-19)
(0.985651 6.34762 1.26298e-19)
(0.7906 5.93157 -1.32168e-19)
(0.61763 5.50979 0)
(0.46698 5.08349 -3.72846e-20)
(20.0963 0.475171 6.21995e-20)
(20.1556 0.975209 0)
(20.1883 1.4757 -2.4809e-19)
(20.1934 1.97654 -1.6297e-20)
(20.1719 2.47633 0)
(20.1245 2.97446 1.9897e-18)
(20.051 3.47014 9.7134e-19)
(19.9512 3.96289 0)
(19.8253 4.45054 3.19603e-20)
(19.6735 4.93083 9.40018e-19)
(19.4971 5.4022 1.42767e-18)
(19.2969 5.86324 -4.69303e-19)
(19.0736 6.31228 0)
(18.8272 6.7486 0)
(18.5584 7.17169 1.7283e-18)
(18.2681 7.58066 -8.52583e-19)
(17.9572 7.9745 -7.9907e-19)
(17.6266 8.35224 0)
(17.2771 8.7131 2.41272e-18)
(16.9099 9.05611 -2.31521e-18)
(16.526 9.38035 -1.47866e-18)
(16.1265 9.68512 -1.43076e-18)
(15.7123 9.9695 0)
(15.2847 10.2328 -2.04392e-18)
(14.8447 10.4744 -6.66844e-19)
(14.3936 10.6936 6.09149e-19)
(13.9325 10.89 5.99469e-19)
(13.4629 11.0634 0)
(12.9856 11.2134 0)
(12.5022 11.3398 0)
(12.0137 11.4422 0)
(11.5214 11.5207 0)
(11.0267 11.5751 0)
(10.5308 11.6055 0)
(10.035 11.6117 -1.04668e-18)
(9.54061 11.5939 3.35124e-19)
(9.04876 11.5522 -2.6715e-19)
(8.56063 11.4869 1.27259e-18)
(8.07736 11.3983 0)
(7.60017 11.2868 3.57538e-19)
(7.13023 11.1527 2.91529e-19)
(6.66879 10.9966 1.24839e-19)
(6.21685 10.8191 -7.43894e-20)
(5.77557 10.6206 -9.35384e-20)
(5.34598 10.4018 2.88117e-20)
(4.92897 10.1633 -9.63595e-22)
(4.52543 9.90592 1.02494e-19)
(4.13631 9.63037 0)
(3.76252 9.33763 0)
(3.40492 9.02854 8.02583e-20)
(3.06423 8.70401 9.68512e-20)
(2.74114 8.36499 2.08752e-19)
(2.43642 8.01241 2.39205e-19)
(2.15048 7.6474 0)
(1.88405 7.27084 2.9754e-19)
(1.63735 6.88418 3.28391e-19)
(1.41091 6.48847 0)
(1.20509 6.08519 -1.8836e-21)
(1.02042 5.67524 0)
(0.857145 5.25993 0)
(0.715525 4.84035 2.85083e-20)
(19.9439 0.430498 -1.02806e-19)
(20.001 0.914394 2.01075e-19)
(20.0321 1.40123 -3.96426e-19)
(20.0371 1.88902 -2.13083e-19)
(20.0159 2.37625 0)
(19.9683 2.86178 -8.25156e-19)
(19.894 3.34504 -8.19082e-19)
(19.7945 3.82422 0)
(19.6705 4.29913 3.3828e-20)
(19.5225 4.76764 -7.91305e-19)
(19.3505 5.22768 1.49419e-18)
(19.1548 5.67828 1.47073e-18)
(18.936 6.11831 0)
(18.6947 6.54656 -7.16499e-19)
(18.4315 6.9618 -1.42287e-18)
(18.1475 7.36284 -7.01647e-19)
(17.8433 7.74882 2.05471e-18)
(17.5198 8.11886 -1.32013e-18)
(17.178 8.47221 1.28437e-18)
(16.8189 8.80802 1.8643e-18)
(16.4436 9.12548 2.42038e-18)
(16.0531 9.42379 1.19627e-18)
(15.6484 9.70211 5.50839e-19)
(15.2307 9.95975 1.6643e-18)
(14.8008 10.1962 5.0959e-19)
(14.36 10.411 5.09963e-19)
(13.9094 10.6035 4.62033e-19)
(13.4504 10.7736 -1.3455e-18)
(12.984 10.9208 8.34272e-19)
(12.5116 11.0448 7.78384e-19)
(12.0343 11.1454 -1.51037e-18)
(11.5533 11.2227 7.31922e-19)
(11.0699 11.2764 -6.37007e-19)
(10.5854 11.3067 2.99077e-19)
(10.1012 11.3134 2.88762e-19)
(9.61825 11.2965 2.3452e-19)
(9.13787 11.2564 -2.3604e-19)
(8.66112 11.193 -2.22249e-19)
(8.18911 11.107 -5.08412e-19)
(7.72306 10.9986 -2.94588e-19)
(7.26414 10.8682 -4.60142e-19)
(6.81343 10.7164 -4.27314e-19)
(6.37213 10.5437 1.23001e-19)
(5.94127 10.3506 7.03287e-21)
(5.52187 10.1377 -1.22241e-21)
(5.11483 9.90544 3.09818e-20)
(4.72087 9.65474 -2.65068e-19)
(4.34099 9.38634 5.73733e-20)
(3.97602 9.1012 0)
(3.6269 8.80009 0)
(3.29422 8.48385 1.47761e-19)
(2.97881 8.15356 6.4169e-22)
(2.68128 7.81003 -1.93888e-19)
(2.4021 7.45428 0)
(2.14188 7.08715 -2.41004e-19)
(1.9008 6.71008 0)
(1.67944 6.32421 0)
(1.47799 5.9308 -2.31747e-19)
(1.29729 5.53098 -8.24852e-20)
(1.13728 5.12591 8.57236e-20)
(0.998557 4.71677 -4.54915e-20)
(19.7917 0.500083 1.85345e-21)
(19.8435 0.971039 -1.7362e-19)
(19.8699 1.44455 5.08769e-19)
(19.8711 1.91905 3.37471e-19)
(19.8469 2.39338 -4.9704e-19)
(19.7974 2.86624 3.32864e-19)
(19.7234 3.33569 -2.42264e-21)
(19.6247 3.79965 -6.44284e-19)
(19.5014 4.25799 9.8098e-19)
(19.3548 4.70986 -1.27772e-18)
(19.1851 5.15416 1.20251e-18)
(18.9926 5.58944 -1.27796e-18)
(18.7778 6.0146 -6.13957e-19)
(18.5413 6.42859 0)
(18.2838 6.83009 6.31702e-19)
(18.0062 7.21787 5.39409e-19)
(17.709 7.59121 0)
(17.3931 7.94915 1.06208e-18)
(17.0594 8.29097 0)
(16.7089 8.61594 -1.05015e-18)
(16.3428 8.92318 9.27623e-19)
(15.9621 9.2119 -4.01105e-20)
(15.5679 9.4812 -4.48511e-20)
(15.161 9.73036 1.61042e-21)
(14.7424 9.95896 -1.74488e-18)
(14.3132 10.1665 -7.93522e-19)
(13.8745 10.3526 1.55057e-18)
(13.4276 10.517 1.4337e-18)
(12.9737 10.6592 -7.14758e-19)
(12.514 10.7789 0)
(12.0495 10.8759 0)
(11.5813 10.9503 0)
(11.1109 11.0019 5.44646e-19)
(10.6394 11.0309 -1.90778e-18)
(10.1682 11.037 8.85364e-19)
(9.69843 11.0203 -4.22093e-19)
(9.23109 10.9808 -6.75421e-19)
(8.76727 10.9188 6.34108e-19)
(8.30796 10.8348 2.10424e-20)
(7.85444 10.7292 -1.99748e-19)
(7.40782 10.6023 2.19045e-19)
(6.96916 10.4547 1.42371e-19)
(6.53969 10.2868 0)
(6.12041 10.0993 -3.97132e-20)
(5.71232 9.89255 0)
(5.31635 9.66699 7.63175e-20)
(4.93298 9.42355 -3.97081e-20)
(4.56323 9.16294 0)
(4.20774 8.88616 9.34388e-20)
(3.86783 8.59388 1.93928e-20)
(3.54377 8.28683 -2.45343e-19)
(3.23639 7.96615 1.44108e-19)
(2.94649 7.63261 9.49811e-20)
(2.67426 7.28718 -1.73927e-19)
(2.42059 6.93062 8.03763e-21)
(2.18506 6.56422 -1.05575e-19)
(1.9687 6.18922 -5.68973e-20)
(1.77142 5.80691 -1.26563e-19)
(1.59434 5.41837 3.35598e-19)
(1.43709 5.02473 -1.42752e-19)
(1.30077 4.62712 1.89047e-20)
(19.6335 0.550547 3.64824e-20)
(19.6806 1.00678 0)
(19.7033 1.46512 -5.68523e-19)
(19.7015 1.92443 0)
(19.6752 2.38336 2.82764e-19)
(19.6248 2.84053 8.27108e-19)
(19.5503 3.29455 5.42406e-19)
(19.4518 3.74488 1.09955e-18)
(19.3299 4.18958 9.53971e-21)
(19.1853 4.62781 -6.73228e-21)
(19.0184 5.05813 -5.91343e-20)
(18.8294 5.47957 -5.22487e-19)
(18.619 5.89107 5.04399e-19)
(18.3876 6.29171 -1.47866e-18)
(18.1362 6.68026 1.00291e-18)
(17.8653 7.05547 -4.78769e-20)
(17.5755 7.41656 -9.09384e-19)
(17.2675 7.76266 -9.31277e-19)
(16.9421 8.09323 0)
(16.6006 8.40768 8.33785e-19)
(16.2441 8.70503 -3.7225e-20)
(15.8736 8.98451 -1.63957e-18)
(15.4903 9.24516 -5.629e-21)
(15.0948 9.48609 -6.8063e-19)
(14.6878 9.70711 2.07068e-18)
(14.2707 9.90776 -3.42819e-20)
(13.8444 10.0877 -6.60987e-19)
(13.4101 10.2467 -6.93012e-20)
(12.9692 10.3843 0)
(12.5226 10.5002 0)
(12.0716 10.5939 0)
(11.6168 10.6659 0)
(11.1599 10.7159 0)
(10.7018 10.7442 5.29437e-20)
(10.2445 10.7502 -3.42996e-19)
(9.78832 10.7341 3.86921e-20)
(9.33461 10.6959 5.22671e-20)
(8.88427 10.6358 2.20465e-19)
(8.43808 10.5543 4.18562e-19)
(7.99747 10.452 -5.21416e-19)
(7.56357 10.329 3.06343e-19)
(7.13723 10.1862 -9.4876e-20)
(6.71991 10.0238 0)
(6.31257 9.84256 3.45988e-20)
(5.91612 9.64288 0)
(5.53175 9.42471 -3.96564e-20)
(5.15915 9.18929 7.62245e-20)
(4.79996 8.93724 -5.28939e-20)
(4.45419 8.66976 -6.69045e-20)
(4.12381 8.38721 1.00529e-19)
(3.80861 8.09023 1.87838e-20)
(3.50947 7.78015 1.51845e-20)
(3.22742 7.45745 -2.771e-19)
(2.9623 7.12327 3.16034e-19)
(2.71536 6.77796 1.73075e-19)
(2.48543 6.42315 9.05032e-20)
(2.27427 6.05984 3.01303e-19)
(2.0808 5.68953 0)
(1.9073 5.31312 -2.30605e-19)
(1.7526 4.93187 6.12703e-20)
(1.61857 4.5466 0)
(19.4611 0.603276 0)
(19.5031 1.04415 0)
(19.5216 1.48708 2.46357e-19)
(19.5166 1.93064 -4.71872e-19)
(19.4881 2.37389 -2.43401e-19)
(19.4365 2.81553 -1.18168e-18)
(19.3618 3.2539 4.56175e-19)
(19.2638 3.68795 -9.42892e-19)
(19.1432 4.11732 1.52212e-20)
(19.0009 4.54075 1.33611e-18)
(18.8373 4.95628 -1.7831e-18)
(18.6524 5.36301 0)
(18.4467 5.7599 0)
(18.2207 6.14668 1.68775e-18)
(17.9757 6.52191 8.15594e-19)
(17.7123 6.88362 -1.65488e-18)
(17.4303 7.23171 2.36943e-18)
(17.1306 7.56526 7.5359e-19)
(16.814 7.88391 -1.47715e-18)
(16.4817 8.1874 -7.41137e-19)
(16.1353 8.47427 6.83824e-19)
(15.7756 8.74414 -6.96925e-20)
(15.4037 8.99587 0)
(15.0204 9.22791 1.28029e-18)
(14.6257 9.44088 -1.80621e-18)
(14.2211 9.63425 5.81895e-19)
(13.8078 9.80753 1.04732e-18)
(13.3866 9.96106 -2.54245e-18)
(12.9595 10.0937 4.9751e-19)
(12.527 10.2058 0)
(12.0904 10.2958 0)
(11.6495 10.3655 0)
(11.207 10.4136 3.45131e-19)
(10.7631 10.4417 9.76665e-19)
(10.3206 10.448 -5.76062e-19)
(9.87897 10.4327 2.51282e-19)
(9.43979 10.3961 2.40641e-19)
(9.00405 10.3377 -4.28336e-19)
(8.57168 10.2589 0)
(8.14463 10.1601 -2.40635e-19)
(7.72428 10.0413 1.25141e-19)
(7.31065 9.90333 1.38757e-20)
(6.90587 9.74683 9.67426e-21)
(6.51108 9.57221 2.98974e-20)
(6.12663 9.38034 -1.04738e-20)
(5.75496 9.16985 1.48182e-19)
(5.3935 8.94317 -6.36102e-20)
(5.04572 8.70011 2.17931e-19)
(4.70971 8.44283 0)
(4.38986 8.17092 0)
(4.08403 7.88467 -3.93566e-19)
(3.79328 7.58605 1.07063e-19)
(3.52002 7.27509 2.45877e-19)
(3.26211 6.95305 1.45348e-19)
(3.02302 6.61962 -4.58249e-19)
(2.79856 6.27702 -2.56576e-19)
(2.59319 5.92593 -9.44648e-20)
(2.40315 5.56853 -2.06235e-21)
(2.23394 5.20516 1.01228e-19)
(2.08137 4.83705 0)
(1.95012 4.4649 0)
(19.269 0.653357 -2.48635e-20)
(19.3053 1.0778 0)
(19.3193 1.50448 0)
(19.3105 1.93166 2.08957e-19)
(19.2795 2.35826 0)
(19.2268 2.78335 8.04672e-19)
(19.1526 3.2052 3.96788e-19)
(19.0554 3.62221 -7.79224e-19)
(18.9356 4.0362 0)
(18.7959 4.44506 -7.90687e-19)
(18.6369 4.8442 4.3284e-20)
(18.4565 5.23548 0)
(18.2562 5.61658 0)
(18.0359 5.98867 -7.3692e-19)
(17.7976 6.35071 6.80545e-19)
(17.5429 6.69773 -7.04685e-19)
(17.2694 7.03213 -6.87008e-19)
(16.9784 7.3528 0)
(16.6712 7.65843 6.49168e-19)
(16.3484 7.95045 -1.18406e-18)
(16.013 8.22595 -1.14396e-18)
(15.6645 8.48582 -1.17444e-18)
(15.3044 8.72888 -9.27102e-21)
(14.9351 8.95083 -9.69996e-19)
(14.5529 9.15524 1.0286e-18)
(14.1611 9.34125 9.27375e-19)
(13.7619 9.50692 -9.41023e-19)
(13.3539 9.65495 5.86354e-20)
(12.9416 9.78188 9.43534e-22)
(12.523 9.89088 -7.8705e-19)
(12.1025 9.97592 0)
(11.6754 10.044 -6.27965e-19)
(11.2488 10.0896 1.20993e-18)
(10.8187 10.1186 -4.54154e-20)
(10.3932 10.1254 5.18058e-19)
(9.96735 10.1111 -4.22227e-19)
(9.54378 10.0764 3.59107e-19)
(9.12468 10.0195 2.57989e-19)
(8.70683 9.94358 -5.67135e-19)
(8.29388 9.84857 2.38639e-19)
(7.88872 9.73389 1.53316e-19)
(7.48762 9.60097 1.63101e-19)
(7.09543 9.45027 -3.53712e-20)
(6.71417 9.28255 0)