/*--------------------------------*- C++ -*----------------------------------*\
| =========                 |                                                 |
| \\      /  F ield         | OpenFOAM: The Open Source CFD Toolbox           |
|  \\    /   O peration     | Version:  2.3.1                                 |
|   \\  /    A nd           | Web:      www.OpenFOAM.org                      |
|    \\/     M anipulation  |                                                 |
\*---------------------------------------------------------------------------*/
FoamFile
{
    version     2.0;
    format      ascii;
    class       volScalarField;
    location    "780";
    object      sigmaEq;
}
// * * * * * * * * * * * * * * * * * * * * * * * * * * * * * * * * * * * * * //

dimensions      [1 -1 -2 0 0 0 0];

internalField   nonuniform List<scalar> 
11800
(
98006.8
90876.3
203987
181552
86558.8
144494
97115.8
94981.6
102536
100726
95876.7
245830
42602.8
182460
172062
781405
85848.4
78761.8
132933
77261.7
152760
226988
381896
340306
633067
432414
368613
187239
415179
464434
138033
99812
416410
99324.7
99556.4
138529
98520.4
440555
91505.5
85946.1
382475
430196
197616
480785
144726
730943
354954
405286
96087.3
107451
252454
187951
98368.5
148855
831017
767439
51158.5
183918
142006
146058
747153
102304
150375
128055
621104
105125
258030
192171
53059.8
397653
103016
87539.9
83834.2
787655
738588
139227
632607
97125.8
97576.7
103469
849233
76773.1
86704.9
90171.1
80651.2
445866
144587
397586
355703
190111
94302.8
493664
95347.6
51348.3
89735.8
72657
9337.64
72009.8
96916.4
217707
66252.3
235842
468931
188552
101560
155475
91008
91244.2
709472
389099
438061
347542
145847
194577
95590.3
643454
99622.8
96443.1
606040
106071
111169
98412.4
94930.5
83489.4
92749.7
97403.6
98181.1
95615.4
82601.4
32714.6
889161
550021
150936
443990
196557
393038
351867
139143
381078
175985
337440
302802
223628
101625
104517
129553
405945
424879
243887
176567
109507
105289
97329.1
118397
103489
102027
176491
228463
496675
98749.2
813833
111232
642663
184295
202975
227402
116306
106684
903126
503389
165324
212343
94389.8
145891
148317
722825
731423
344921
307731
388955
173812
134100
111372
108621
164973
98914.8
165502
93409.6
87941.7
98412.3
121025
109163
105802
129335
304758
397307
792862
93768.7
99228.1
920545
86303.4
113751
127666
100541
102130
292522
251304
224183
187861
880589
259792
374115
1.21383e+06
897093
1.02972e+06
174342
89693.1
322906
286606
257427
116929
142228
84815.1
76488.6
134027
79900.4
589783
134282
80918.5
176826
109370
94313.7
90864.3
224367
228809
1.20073e+06
583892
105608
112028
393338
318905
135639
173947
398627
357628
319456
100256
451890
150432
189999
180826
87661.2
96382.5
183203
141363
112806
1.01923e+06
117938
130404
111646
121977
246024
276120
310088
143343
117528
100853
740696
91570.4
79041.9
98357.5
156082
67659.2
194727
903362
147304
145852
206031
156625
176182
135458
463002
390767
127208
148966
113267
126814
226579
290557
151706
491826
528984
645945
95235.4
148529
147955
693521
700817
352872
347572
368025
365250
94336.2
71540.4
121209
980667
90868.8
95818.8
121508
114733
109240
318215
315954
634188
1.03554e+06
311519
97195.6
305369
248737
186223
152018
105589
102140
123313
193890
112366
175424
87909.5
93832.4
98919
100835
533860
96703.4
93115.3
825853
122251
279931
264520
259146
321496
311001
82430.1
81949.3
277959
351427
257324
658847
75073.7
318717
256540
160658
128599
127347
102764
133777
121178
149341
169167
188776
84137.9
96558.5
257758
275187
100457
98524.6
206919
162596
183892
95524.4
92814.6
108969
108728
360705
154696
130608
212335
359632
430107
205345
104966
104415
108865
105067
170615
199218
158209
185275
140576
165168
129991
119676
291307
132701
283988
476911
217317
167580
945409
94471.2
502940
224251
172401
819001
91891.1
523155
136756
478141
439849
418334
99362
40109.8
92822.2
1.08997e+06
936263
358667
130914
154956
101143
96583.6
114464
84074.1
132605
701520
29114.4
204335
152337
791190
75899.7
98601.5
87902.4
105060
86723.8
94295.3
798623
244642
115251
240496
214737
194656
73914.6
505780
154966
199138
97997.5
375765
95721.2
720507
91756.2
106743
178962
160462
145852
377681
102454
200512
204986
107164
244363
270952
304530
141514
119582
46801.1
88904.1
92443.5
983639
251875
199900
159594
134190
91463.2
100078
76083.2
82138.2
118251
68376.2
75388.7
95147.5
97576.3
181919
93596.3
134597
260980
259236
130808
727949
102977
174507
91531.3
85934.8
682003
814670
208071
234592
120003
106757
88547.4
602335
769884
696954
1.04443e+06
259523
184814
254496
82883.4
93926.4
92114.1
101303
240908
101048
99140.9
77668.3
89344.1
596434
125005
512807
411810
86753.3
104450
562817
579273
240939
271540
305458
144419
123525
220476
97862.8
97141.9
95883.9
103323
89083
110604
75397.1
100510
69961.3
94628.4
64088.7
94521
86680.5
95910.8
71864.3
688803
138006
105035
226844
382092
69412
96522.9
86935.9
79885.7
72576.1
122845
151286
101205
99070.8
247659
76476.4
112442
743778
57331.7
108239
194951
176937
189415
208098
216762
233584
107351
99785.3
801304
1.06867e+06
173043
70549.6
130906
182109
136446
110308
289208
260988
232974
99443.3
60332.1
259721
264457
123588
130648
87971.1
209896
236033
113162
354999
351342
356176
360210
723951
708238
200664
947334
271457
91191.6
685875
459552
516587
248978
113601
127402
106396
616030
178331
230076
996646
105726
105929
220248
179301
495693
228530
766354
95024.4
90162.8
119891
142857
319491
286333
256128
794116
93753
146618
316295
573062
92498.4
921009
864734
848781
103518
137129
65102.3
867808
202840
107637
153328
753756
91873.2
109540
121050
93930.5
225932
115872
1.07935e+06
843227
106533
244471
308625
116719
127147
114296
110237
321509
130185
199620
158586
412806
391769
94904.4
533757
100253
147642
171873
783607
133793
187053
111720
110470
89959.1
99969.6
176312
393132
435869
82862
86234.6
80285.9
112685
156401
542816
78848.5
162609
272402
208430
101487
358361
406977
251500
458563
515191
199898
145012
93122.4
88555.2
146804
160202
132393
141285
106185
126649
155636
104074
92775.8
1.02009e+06
399818
150165
182656
199051
104445
153895
205391
481260
427778
382169
130230
149157
127782
107711
615431
520842
516730
96616.8
115414
121214
222664
573521
170105
43291.5
99790.4
996799
941887
105884
866141
83369.2
91459.3
90980.6
287254
78176.6
127214
152036
459807
517465
582076
655347
253192
224445
191143
161396
106619
91945.1
154279
809807
100614
101841
87729.2
93738.6
86868.8
91673.2
101273
634295
331837
289094
166479
321673
363815
131690
455192
115281
109976
100084
980579
91642.1
98346.2
90187.7
87929
89827.9
897477
116173
121072
530031
137413
293682
123463
919132
344758
157924
135787
593819
177500
98075.5
93449.2
80309.2
88901.3
115046
136462
123250
88051.2
252071
118131
91458.2
285725
324075
93306.8
213116
291239
254712
330923
688613
611494
541610
483142
210996
251134
701619
622517
287021
553076
328748
490184
666395
102151
93335
102144
105837
219519
532153
103263
175331
221399
192557
245830
105356
119060
157898
213597
504077
448305
400735
191394
152587
384973
99227.2
112544
101663
150177
135258
119656
204696
168476
171694
134601
98758.6
326348
102600
127610
163828
419893
204814
236783
232772
91060.7
104881
96908.9
88434.9
93675.4
103221
212181
189603
92206.8
106111
97928.8
167715
560531
172003
222922
238644
100213
106324
97567.5
87297.1
109219
100713
245117
217243
194924
98618.7
758103
248965
139800
451035
293472
558210
871429
110610
122885
100446
95650
83851.9
262455
225141
892952
84023.4
104287
142906
187317
102642
103168
263160
258529
57809
89930.5
147102
119235
84457.7
741620
863687
118404
93558.2
127878
150595
307815
241680
272095
998875
97456.9
212088
235577
100318
222171
268930
306829
347068
722365
639892
566531
505481
221470
265230
733791
651033
301286
578527
343850
513101
795095
699270
531353
176983
202601
691995
545340
139587
93256.6
89504.4
539944
884402
79164
158833
790993
531535
872862
880825
402871
410962
194211
162741
204950
155323
96095.9
126135
93417.7
97018.4
109912
101895
153441
855374
205822
100786
75749.3
145618
156734
757528
151786
138205
156468
166550
465310
186160
147329
685060
159053
195753
92932.2
96004.6
161769
133300
148217
382246
207655
198030
502720
482744
197168
202062
397570
428348
160573
160611
93291.7
93966.1
97396.4
203623
158092
43961.2
97548.1
105454
270232
265242
129378
229935
183416
89275.3
70619.6
73078.1
259700
564427
81055.6
864275
125202
280147
251221
100004
118413
182618
94902
95483.2
664721
150082
391560
349814
313468
132125
168861
93483.7
672200
758759
96651.2
95098.9
411904
143977
179608
307345
345015
394403
138578
173161
48232.6
345474
148907
745919
182753
443496
308397
342038
101353
91990.2
84455.3
105770
89154.7
88262.6
644967
173019
84475
101167
107524
120812
126726
141424
289268
285224
258855
253150
228714
233713
553067
99343.9
91948.2
97086.2
98827.9
129395
99915.6
92459.8
636794
120391
221624
158564
412549
197748
86475.2
92690.6
168968
137471
219763
184525
487762
408242
363308
324081
187314
572872
244270
651831
112936
101347
122611
130599
95426.4
103799
94276.2
620456
910177
132080
79314.1
102398
211190
159739
69274.7
94154.8
134857
121998
104535
108108
119008
114880
102323
182713
203184
199801
223517
161551
181144
254453
96552.5
416109
315834
184296
513722
486391
281384
901933
153334
145595
167512
187151
89198
93485
101315
179012
94670.6
675283
124092
101142
275250
47057.7
88041.3
751413
93630.7
156185
495021
209588
440957
394024
680090
458053
77195.4
218208
178189
120172
553767
224733
136402
395557
352855
444245
100725
102085
77712.1
1.08891e+06
133646
163357
191804
112900
92617.6
86173.9
171290
188550
102406
758715
157934
632546
108104
370322
91401.3
222346
269133
398572
153128
191849
231097
119285
955707
92774.3
75923.7
85438.5
849195
592781
131596
172603
408689
367675
328411
874342
215728
180394
954689
1.06175e+06
695770
87496.8
249176
537803
378328
193793
155000
333600
297229
153516
536110
134346
141986
186642
158416
138269
724555
1.05239e+06
82901.2
96686.5
114663
1.04954e+06
89134.8
93882.6
254068
185434
951931
995271
102144
272054
117683
106521
225769
106559
75355.9
245110
88344.7
101476
1.04662e+06
395312
208732
167450
150735
123047
294050
264877
235457
128773
1.00251e+06
206224
179871
159682
848723
318221
434801
78041.7
123131
90608.1
377234
175552
230610
87149.2
112133
142149
323164
118188
106466
98588.4
176278
934233
118944
147816
317692
613482
862350
513207
366356
231883
272934
53026.5
113195
129634
262589
234394
208722
854800
84188.2
91486.4
98368.8
96167.5
94932
105683
114686
97509.5
92016.5
290358
723155
169911
386635
343680
307220
132296
826469
215638
238428
277867
238914
475816
797264
262626
94263.3
377112
88890
305570
182243
340043
384196
145633
479274
126668
1.17169e+06
387014
93770.3
726608
1.16954e+06
1.00794e+06
228130
99750.2
413758
94179.5
84035
92470
148105
93915.9
86803.4
87177.6
78241.3
651078
682668
91339.3
516068
101992
92613.8
92945.7
118404
369710
379790
110347
376757
384378
629525
215808
96027.7
96988.2
119643
234013
260685
112817
28491.2
95370.4
363777
134498
288672
324207
363386
408036
202237
153070
146388
88027.9
84372
877182
461155
99221
107909
372447
301562
156445
172577
113153
85944.7
157786
140702
86952.1
99126.9
90297.4
721616
216821
549671
80930.4
92510.6
1.17451e+06
100761
898451
865540
84759.3
368365
169616
723416
93574.7
316190
447546
982448
106416
85319.3
87051.8
224991
109498
127141
232332
207476
184431
79897.2
97737.8
81526.4
77000.3
366396
406237
283748
499555
445319
551636
893767
109204
287747
851858
307090
864523
312726
350797
397065
173290
133465
172732
217962
823003
100285
95267.5
122567
114688
103073
104541
151500
135530
126401
349119
270974
1.03642e+06
100941
80099.3
117046
868149
258428
122092
115539
855393
317720
221657
78538.8
103966
86113.7
307591
397933
130117
531159
90472.6
89580.7
1.1043e+06
742422
910699
147464
176517
338524
148868
239204
863107
1.00538e+06
91601.6
102783
158839
140281
350538
387917
256385
288231
935965
942752
121902
101883
80834.9
629285
88557.2
822620
207776
121204
435539
130760
87301.1
818050
111828
114149
87272.7
96452
631307
168122
93081.2
310509
140812
97534.7
86470.9
97706.3
231357
99176.7
789384
785283
125175
286041
171638
88903.8
94798.7
661816
95563.4
419912
114526
219722
371290
434368
743696
92662.3
157204
876009
113862
95460.8
76630.4
96163.4
98074.5
939679
663187
137264
168057
330919
286364
440578
147693
184279
150140
200322
435982
387528
345212
622686
248671
187892
716108
191120
777593
267148
238105
812715
1.18257e+06
965219
154350
230856
456170
186927
150646
87682
172268
827513
92651.5
97234.8
970961
715274
900358
298563
369788
378671
323704
85435.1
75863.9
118559
78772.4
256240
283914
319310
139135
113306
256657
907664
89171.4
121316
103571
88514.4
338471
307724
116797
791477
932284
400303
319102
729518
838893
97754
411560
272144
507847
85215.5
107319
114348
639282
637442
339128
139288
90126
99057.8
102624
202399
707210
101112
510750
82470.6
138135
118419
130143
231722
126803
210570
20224
5879.63
208424
1.09718e+06
92713.1
88846.5
102881
89848.5
91946.2
101491
110191
89737
102059
192392
87132.1
92372.3
106064
331174
413949
289011
797653
962150
91696.3
113983
150214
90631.2
596830
131388
984806
104330
121808
234411
159226
110871
105049
233801
94540.6
104620
109605
89197.6
100084
82582.5
785233
81149.1
84361.4
115426
95181.4
77341.3
870777
91574.9
738790
742589
283652
215763
134993
174347
400345
363054
324163
95190.4
482298
295084
97851.5
922152
99493.7
100063
142702
491477
294837
334463
547776
92491.4
86248.6
153814
212946
486150
244729
550046
186430
430829
384734
152321
558528
178144
492622
205922
438747
391827
233557
698432
99781.3
219307
162949
85369.6
98145.9
717621
332576
459378
423956
371647
469770
334382
141534
156069
223834
558715
96013.4
1.0477e+06
105754
92101.5
807060
90207.3
120799
264716
285279
776574
88315.7
437062
391194
349555
140919
185775
932063
140490
119539
268049
99386.5
277966
129771
181087
85085.3
108803
119360
95689
194428
95000.1
256054
143931
115844
300414
402507
411902
299911
166508
841326
100330
99966.6
773457
732347
429913
1.15718e+06
381830
323589
427463
1.03744e+06
380343
292221
912705
211575
204051
231277
783118
87752.2
725098
88780
133859
150936
245226
272400
305579
145529
120286
241751
61919.8
63502.8
91990.5
86433.2
118198
92261.8
94529.5
128483
443993
929650
105028
105081
862650
503455
193541
249752
89432.1
93536.2
726310
502365
137384
362381
336097
497223
81936.3
86517.6
108372
96886.4
519324
909500
927703
611023
1.02407e+06
125364
87163.2
134541
379711
338985
427713
189618
140875
944057
185145
217732
283327
113397
117355
419216
166216
85487.9
295790
117728
131850
939898
140403
129536
428145
385328
343062
177384
617782
570754
732964
235354
250672
253320
595308
239095
181461
526942
107774
1.16167e+06
97427.8
893682
223452
259484
71198.3
268152
484497
91389.3
98971.1
93056.2
1.03373e+06
239533
210397
263476
127630
105787
158722
216796
689275
220272
438079
551734
491786
159375
470008
343144
368386
435070
463714
342568
373836
445189
265770
271926
23039.8
144398
97648.4
162593
224109
195536
256426
572684
507159
449275
401102
159409
470691
203074
100264
72597.8
80466.1
126203
72986.9
186581
400031
422363
167659
810786
99898
85610.3
658930
831101
79832.2
473902
186102
237300
324997
269647
129692
88934.7
181734
339809
59398.2
97980.5
831168
115472
104646
188519
168018
208276
159885
100450
101425
169075
547929
898743
1.04152e+06
135810
148496
632244
570324
771618
95215.4
483564
741133
1.04234e+06
1.08377e+06
1.00844e+06
209628
382321
162293
890118
600567
236065
580525
89665
94590
689114
691544
91327.3
208384
946433
750888
697777
721244
1.08696e+06
722666
823762
760579
93824.1
125612
521931
339423
454285
105352
80639.2
99334.5
93827.9
103194
114052
97126.6
166542
815087
493825
158489
204633
539761
99751.2
259004
202765
1.12455e+06
134052
123162
270371
132443
242424
105829
102632
913220
7428.76
73352.9
72578.6
15064.5
168247
254238
95394.1
104589
115862
92315.4
299280
241139
91250.5
913215
801197
213010
526677
163462
102889
617021
140049
918713
204440
248114
282319
321396
675347
600353
530858
474054
204462
243455
687445
610366
277072
541717
317309
480917
119278
105706
244870
229428
194424
106727
102560
96608
90071.4
88688.1
84270.9
86662
82299.2
131436
403400
435226
310898
179678
340228
375191
684319
257015
205179
841308
287845
101355
61525.5
90861
93931.5
138157
118731
124897
101863
206167
157806
150269
283725
100889
104840
459455
97647.3
91091.7
101663
86078.6
565476
105268
141032
234193
188229
145777
245401
133415
80653.3
74639.5
1.01952e+06
984715
462607
371269
356926
464777
919251
453510
99585.4
292428
148333
125800
168325
98799.5
975197
104356
464430
416228
371898
194113
144456
257435
139774
118045
988249
112527
99353.4
325812
322524
130485
102353
109005
167737
376166
693315
237899
184132
505063
539441
135283
177002
418840
373165
334204
186449
203563
383922
257514
369082
202507
416197
469164
145775
527358
1.09617e+06
801478
93629.4
285493
318643
356895
134814
109610
646600
109489
139085
198166
202882
90978.5
111225
109472
93572.2
494097
362851
385348
462240
160392
815020
1.00936e+06
370246
84602.8
282016
312833
350959
376298
478582
128412
735860
327610
250078
221281
277511
116229
141820
100036
100060
176635
221244
196604
217530
241969
272620
158977
155604
208027
210482
450237
445960
356219
399140
353063
395563
228487
255340
116996
94304.3
97258.1
94055.6
578481
271065
98681.7
427835
350690
328587
437404
106418
171869
612111
239183
543550
483409
74942.6
110977
458784
227155
174671
588673
243292
61592.2
402848
359743
455086
197445
145997
685622
208674
173187
847441
208513
281953
85852.2
96740.2
149458
135992
121203
702871
158844
149272
188207
167813
205984
107285
98706.1
495725
575875
107725
294098
84498
456411
887968
584225
210135
169348
415753
195218
181556
149899
112412
90911.1
180638
95701.9
184874
94140.8
170819
91427.6
85692.9
958823
159398
687939
334673
375088
200408
162700
400955
868961
77493
94121.8
102792
91439.1
175470
16789.4
5591.04
173675
340877
82386.8
323784
140784
146412
85109.9
196895
264844
619564
89881.2
86822.3
92715
92703.3
189881
118279
375262
328610
117309
84322.5
88568.6
948717
343483
88736.5
154067
85116.4
1.12368e+06
806906
156657
102632
288231
154016
200734
414747
328408
368351
931940
727493
96035.2
730589
1.05358e+06
757932
815620
398174
107385
576830
117654
92723.9
99100.2
182067
169146
139738
130995
315862
116705
93825.5
87159.9
484942
476105
536500
604620
675300
260017
229769
195276
163401
107739
88822.3
242456
11365.4
121521
120270
6231.76
232625
120360
98276.1
79350.2
137159
159851
102827
187513
578555
291066
204947
155039
176605
878761
704791
86350.9
296812
100071
100494
204220
241896
311111
649261
149313
168375
101249
793790
99437
132211
161406
148205
470907
529705
261257
386906
382970
199692
265961
575906
546428
525172
164394
213063
72134.2
93254.2
75107.4
114642
76687.4
276467
431270
387118
475038
340761
486306
339534
241980
220853
417257
305078
425109
305927
132719
543643
387436
337340
439123
391094
482221
348175
489872
346598
528885
1.11518e+06
184636
251308
598480
250798
79414.5
98050.3
112899
11048.5
111732
9850.67
91640.9
166161
483767
431678
547059
231054
165928
930942
59728.4
93644.5
161304
481792
121956
327276
155764
982470
991572
643788
81575.9
171445
598735
267838
217959
206619
279767
248308
311542
124445
153884
1.05291e+06
249594
916023
86524.6
92719.9
102557
88633.7
77426.8
895984
86676.9
613076
78057
439684
655400
78515.6
104317
107769
258893
115969
197018
176315
137111
151292
169385
95898.9
134273
177095
213535
155764
527698
471365
420597
668412
906474
1.00773e+06
82254.4
86632.2
94434.8
90936.3
117746
78352.3
119589
985309
1.02394e+06
905924
806909
31342
604093
871912
465138
355213
371302
461285
285285
302473
490689
272591
660587
78317.2
125910
132967
259442
109126
104979
123085
100197
114764
87070.6
98979
166921
175905
194497
186085
208771
217500
255444
262692
93750.1
97477.5
200257
151577
89093
94984.3
444494
667273
96017.7
340759
741879
203974
684673
271134
111729
744559
294894
249295
388472
779206
1.07123e+06
433854
139352
919989
127138
102500
94743.9
236810
71538.1
402290
648362
144339
239991
110992
102565
107782
979915
142489
155784
152122
130738
366730
116475
103848
405376
91094
800764
93469.4
468841
153910
164379
723793
529792
304585
594571
671255
263255
752936
228252
184750
519683
581900
742939
657812
185376
267745
307675
229337
914305
108772
719146
89160.2
95263.1
86673.6
4098.75
31146.5
364585
53378.3
692984
121722
110954
215263
236660
192518
232641
119881
507679
118716
121386
507414
83978.4
174326
157477
156215
466236
416116
526999
218138
263600
104255
162689
257180
686063
66656.6
149011
102743
83449.2
233675
769173
376473
343428
784664
125529
396308
886298
428031
773155
102387
841380
118527
582897
178152
218870
95051.9
7187.5
72881.4
72098.9
12400.4
114565
663757
90029.6
677640
351171
113726
455634
436880
511124
490010
576050
552656
244759
236464
178646
173690
193603
143713
465659
417863
372557
132357
164840
147235
96139.2
400318
339258
82695.3
97961.7
83430.2
96059.3
94903.3
899232
689521
158782
500367
446198
563993
98643.4
373213
591809
575691
105906
101144
748317
271007
106702
113372
136984
125315
95859.5
221335
197717
178862
708213
1.11279e+06
763815
480554
215296
162772
96600.2
104564
128201
103998
100583
100058
98232.1
240011
185964
88918.9
704868
781888
240971
266909
97442.3
107149
97462.3
91700.3
227060
741262
424318
313618
327454
389346
97015.9
84594.1
131340
88322
81427.9
121336
1.16075e+06
911539
79777.9
101826
284148
247367
182081
567672
639341
448862
501997
404540
177502
145673
162328
103865
105224
822750
177534
497092
66472.5
789510
84972.9
231949
260274
1.14858e+06
89526.8
233429
96389.4
219428
93201.6
148770
489628
189607
487650
303096
547938
618167
268213
697135
231255
196215
236843
196421
104237
269891
307541
390503
82856.8
127821
599559
283619
1.0204e+06
864200
967103
192718
703585
371374
239625
116615
96524.1
929902
529358
83068
1.06035e+06
821419
32779.1
241906
204158
46176.4
479055
317140
90098.9
82672
766608
1.01552e+06
97021.6
271783
279735
647401
626277
207173
212873
209834
219547
89204.4
91866.6
92948
89848
63647.6
1.11536e+06
782215
766064
959819
332743
158960
669041
327689
366371
410927
70274.7
793673
126139
569907
882873
249966
158132
1.06992e+06
218776
230186
170300
181624
490875
476918
125646
125747
75379.6
91559.1
161590
567737
504745
448137
222994
1.10359e+06
97147.8
113913
78249.9
440313
493537
267273
555486
232064
630486
201778
560785
443432
496256
632242
167838
281872
245349
209529
91418.7
109966
106864
113741
189317
151893
170584
817804
303816
370500
811846
113982
131312
92341.8
214391
278629
109427
136016
869270
102498
90348.8
100603
101745
91160.4
75819
142620
96836
104826
665836
809164
90365.5
78518.4
88300.4
153171
298999
923840
850639
427330
103847
89161.5
677016
97747
100710
1.11777e+06
385786
793289
181272
520274
273832
307143
109695
446563
509445
221769
166526
92513.3
188684
88645
53611.9
80208.1
916787
393580
395552
781303
136394
147868
95600.7
259439
89707.3
95644.9
109990
143017
145059
14607.1
143581
10074.8
98341.6
537786
141714
190215
412889
367069
326868
92477.2
963481
363816
162376
761259
381551
408021
93153.4
9046.18
92173
9603.06
713423
233133
246659
310206
280295
86070.9
874855
153698
123714
334643
255432
91183.6
19653.5
602765
118020
628495
133856
164941
323685
322642
267241
84332.3
278326
123041
139071
94760.4
101864
272462
281984
101489
151772
83929.1
85264.8
420379
196507
153023
97713.5
273193
7022.9
26166
270420
250104
204632
291795
347342
76478.1
1.00792e+06
1.07141e+06
120370
96192.2
95271.3
113588
126131
12900.5
124843
11202.7
456071
149243
197569
998480
1.00987e+06
775493
787838
344584
304038
289554
260781
856305
115916
215013
96302.5
79235.1
90936
141734
186069
258562
870312
891321
115337
61563.1
261328
291329
118823
453917
174344
153277
805118
94896.8
100047
119649
383929
377828
415030
263601
143152
189218
80920.7
74524.1
554774
78312.3
456575
62227
199430
317599
279094
546392
637834
98362.3
109349
166881
744329
4245.38
53256.5
15778.9
53019.7
126425
127454
78128.6
956634
17207.6
916015
238788
22868.2
7413.86
236357
129454
77500.3
8833.04
76740
163315
721150
159850
949731
1.02234e+06
31745.2
232777
292659
264073
368772
165496
127947
423379
326018
61786.5
110964
143285
116062
238230
327420
109085
109374
991623
275974
316503
304974
349278
641470
95120
72879.8
537053
676564
264709
109491
121917
85927.8
157415
179344
99954.9
112340
141466
96868
68145.4
580520
692432
116548
227316
182520
190715
633194
250972
122757
116099
258976
261282
80940.7
142236
683031
811534
177881
135450
299114
377903
336472
77329
88278
137889
114180
629681
232243
75974.2
39606.3
39242.1
177970
137894
288827
364227
325088
94304.7
924663
1.03796e+06
102077
86911.1
79290.3
75093.6
887124
150697
131264
347366
1.10643e+06
916401
202017
106331
208556
186572
129550
117102
141757
90209.3
96134.1
93900
164468
907112
91592.5
363751
393842
731874
516337
503421
183241
179551
230769
234947
156968
132250
125585
81205
91796.1
272036
104510
814288
521389
125438
90052.3
388718
1.07518e+06
85400.7
418840
347025
320211
432362
364297
149596
184634
467207
105943
343763
146243
156782
101368
248444
108202
132705
360546
170062
99954.6
89822.7
109790
397407
327604
108683
102459
107215
112933
93451.7
225658
172678
97443.6
167576
99935.8
106117
154715
975693
860766
609572
142226
123296
311217
276686
246291
139403
153271
67810.1
537629
92922.5
216990
297685
115936
149465
890867
68954.4
144038
133062
87981.4
906491
65356.6
104083
196318
234044
102699
94751
111224
83533.5
93127.5
596206
91440
73240.8
9020.79
72502.2
590194
520683
973205
678573
801355
104585
841748
525087
8164.2
59222.7
123073
112456
196655
216371
241557
333544
166592
718012
356866
401982
92130
80056.2
74879.6
89091.8
98827.4
89718.6
112251
477723
59804.5
961432
255792
91098
461512
266384
146913
193857
110459
94780.4
127579
208788
125955
274326
266725
104970
99476
278393
512300
74993.3
75267.4
120823
75544.7
91246.4
808648
160942
136329
391042
744172
213561
126459
277637
252460
279754
225114
142972
117375
91498.3
4802.92
37981.2
272529
227632
309794
711309
561732
632000
226773
267293
724978
642277
306843
571912
119478
159722
132971
159814
92337.6
113235
95839.2
262599
121815
113258
109317
183790
542961
237407
91560.7
102788
83164
94196.2
111483
156080
98160.6
87088.1
71636
420014
144931
179585
136238
165378
347858
294365
317477
256846
519459
147637
101200
159971
280510
209664
119190
147268
200255
92727.3
158307
100868
98282.5
228175
225887
106423
307690
108302
105695
608980
511184
86837.4
104137
875586
86324.6
119479
77555.6
106969
127341
371367
330047
292552
193884
190727
394976
108590
89829.6
93378.4
585866
113662
103785
125735
114749
95146
107173
74594.2
94803
684704
662237
178257
145621
102057
428338
370757
146625
190103
262435
100328
67932.4
91299.8
890481
262873
311058
60283.5
228642
107116
46157.5
97806.5
109750
111533
224109
94529.2
148835
123252
98984.1
1.06688e+06
156493
458457
129503
818435
280413
331008
175802
140227
452369
77237.2
94991.4
93255.5
158564
199335
164718
103795
60851.3
54411.3
362572
144765
124631
81156
84435.1
86125
84931.8
171318
137270
153888
51652.3
82224.2
770025
82843.9
1.09759e+06
196964
131119
432788
101354
84849
324898
110851
103607
484891
94700.4
261418
554809
494282
621577
87365.7
134576
181857
600693
569196
146204
88347
156973
159001
215957
249112
486415
215559
242665
552903
480752
537979
384965
431337
380392
426085
730188
196466
123137
902876
92565.5
103566
306626
772052
214913
121708
102201
88539.1
80225.8
100708
108086
82743.8
589249
136243
165951
311861
98224.6
390302
106693
163412
167453
259745
96883.4
95446
113517
88859.1
92649
117094
106360
98409.5
918123
110707
89965.1
156040
201110
74558.3
115001
114443
645257
121685
104501
100561
105016
87235.6
896943
137721
133025
317608
133424
120073
854975
625337
654059
192191
101963
755203
219736
247324
109080
417610
337757
410261
332085
556989
299946
716028
478441
632348
460414
276338
221220
75512.9
89546.6
758423
81362.2
91336.8
89892.6
94014
89598.5
79042.7
379394
395553
103531
222106
21364.8
2951.49
219844
109280
69094.2
729029
215010
307523
128388
113963
124065
97966.7
105275
179295
202682
90016.3
109998
243159
174805
134794
234915
470974
396286
73741.5
357328
300417
1.03795e+06
545668
319366
612587
692105
277481
776392
240738
197140
536559
600517
679189
767090
280320
195852
321105
242386
92980.9
372842
69141.9
494548
489543
1.03744e+06
98370.4
196133
540652
97301.6
302090
63190.1
72388
554035
89735.9
122146
307218
393513
886340
148799
167777
188201
94334.3
139931
170554
393357
181667
109997
97639.2
99528.8
101917
840753
352472
343179
708983
690293
140453
128280
176846
158944
355397
328970
627026
726529
404694
453320
512532
582561
163174
255669
194643
224604
591026
522315
465829
416097
159776
185952
216697
244361
104334
129765
540324
819000
140289
127090
143331
316020
345660
310265
275077
237513
130102
166748
1.13591e+06
76808.4
121932
437682
705180
601123
198292
250604
104738
38715.5
115425
622299
227346
961276
105353
126050
557981
726294
89195.1
407672
458312
364037
931760
283724
129006
154878
239692
120541
129596
296883
434968
207479
411684
340337
121613
288098
363924
323605
147900
194275
1.05518e+06
846626
140760
103997
822173
103350
140803
148568
182471
190408
394826
404052
131795
109591
275688
247720
220949
300294
84093.8
573150
766198
352218
91557.1
98895.3
732262
319505
306068
381600
368096
779785
139632
185649
134243
106600
99988.3
180122
436377
103057
88949.2
96032.4
1.01175e+06
786565
227041
128687
101841
142060
84230.9
268227
196585
216820
242742
117262
107003
98934.6
90812.4
889473
43196.9
747060
136270
149480
120897
106999
90954.5
95565.1
736928
81585.5
1.1082e+06
295261
225012
324358
306271
341896
272752
130366
166702
1.01294e+06
242893
280965
123470
135629
280886
238022
1.08097e+06
307636
274716
343995
156583
121980
105081
891247
757620
733952
142890
104309
126989
109188
130091
248335
811220
144535
409647
179210
462025
496595
440212
174774
107882
98666.3
801345
147448
130153
324010
820840
101778
357632
122050
318890
286681
154333
135332
72134
211783
160882
451450
399971
357447