/*--------------------------------*- C++ -*----------------------------------*\
| =========                 |                                                 |
| \\      /  F ield         | OpenFOAM: The Open Source CFD Toolbox           |
|  \\    /   O peration     | Version:  2.3.1                                 |
|   \\  /    A nd           | Web:      www.OpenFOAM.org                      |
|    \\/     M anipulation  |                                                 |
\*---------------------------------------------------------------------------*/
FoamFile
{
    version     2.0;
    format      ascii;
    class       volScalarField;
    location    "0.32";
    object      epsilon;
}
// * * * * * * * * * * * * * * * * * * * * * * * * * * * * * * * * * * * * * //

dimensions      [0 2 -3 0 0 0 0];

internalField   nonuniform List<scalar> 
15166
(
1076.81
1002.17
998.346
1061.57
1103.78
1132.44
1103.15
1020.03
919.349
802.841
685.951
587.08
1077.41
881.194
929.318
999.107
1043.19
1066.25
1034.2
956.905
861.354
753.889
646.621
548.677
1089.5
786.658
862.992
938.12
984.573
1003.96
971.566
899.588
809.704
710.129
610.458
515.791
1105.4
715.609
803.822
881.458
929.188
945.952
914.434
847.463
763.292
670.634
577.075
484.791
1122.71
662.153
752.248
830.142
877.946
892.567
862.413
800.07
721.348
634.82
546.574
458.023
1141.48
621.054
707.036
783.76
830.801
843.636
815.007
756.902
683.274
602.173
518.587
433.299
1161.84
588.904
667.116
741.681
787.399
798.742
771.685
717.482
648.534
572.262
492.693
409.677
1183.4
563.534
631.746
703.408
747.414
757.5
731.99
681.362
616.703
544.765
468.872
388.942
1205.96
543.445
600.345
668.544
710.561
719.563
695.528
648.16
587.432
519.419
446.923
369.991
1229.21
527.526
572.388
636.713
676.567
684.611
661.958
617.573
560.425
495.993
426.725
353.178
1252.9
514.948
547.429
607.578
645.166
652.35
630.975
589.311
535.444
474.301
408.089
337.712
1276.92
505.07
525.078
580.847
616.119
622.517
602.315
563.131
512.27
454.181
391.005
324.473
1301.11
497.401
505.013
556.257
589.2
594.87
575.74
538.819
490.723
435.489
375.286
312.593
1325.33
491.551
486.956
533.59
564.213
569.204
551.046
516.199
470.642
418.065
360.553
300.023
1349.44
487.206
470.669
512.652
540.984
545.326
528.055
495.098
451.897
401.821
346.93
289.54
1373.41
484.115
455.948
493.275
519.353
523.078
506.611
475.393
434.358
386.625
334.245
279.691
1397.08
482.072
442.614
475.311
499.179
502.309
486.571
456.942
417.922
372.397
322.381
270.279
1420.48
480.905
430.519
458.63
480.336
482.886
467.806
439.651
402.502
359.049
311.257
261.445
1443.5
480.47
419.526
443.115
462.711
464.696
450.215
423.404
388.005
346.502
300.831
253.319
1466.03
480.653
409.522
428.665
446.201
447.635
433.69
408.127
374.352
334.697
291.031
245.648
1488.01
481.347
400.403
415.188
430.717
431.606
418.148
393.736
361.483
323.558
281.768
238.176
1509.5
482.476
392.08
402.604
416.175
416.53
403.51
380.163
349.328
313.034
272.988
231.031
1530.51
483.954
384.473
390.839
402.503
402.33
389.704
367.342
337.837
303.072
264.624
223.933
1550.77
485.74
377.513
379.828
389.635
388.938
376.665
355.217
326.96
293.632
256.668
217.289
1570.48
487.784
371.14
369.513
377.511
376.294
364.34
343.742
316.65
284.665
249.083
210.89
1589.47
490.014
365.297
359.84
366.076
364.346
352.675
332.864
306.866
276.144
241.86
204.92
1607.79
492.411
359.934
350.76
355.28
353.041
341.622
322.544
297.57
268.033
234.983
199.223
1625.47
494.935
355.007
342.23
345.079
342.334
331.137
312.743
288.73
260.31
228.43
193.911
1642.42
497.573
350.482
334.209
335.432
332.185
321.185
303.423
280.314
252.949
222.2
188.943
1658.72
500.32
346.318
326.661
326.3
322.555
311.727
294.557
272.294
245.929
216.243
184.029
1674.33
503.1
342.484
319.552
317.649
313.409
302.732
286.111
264.647
239.225
210.566
179.459
1689.09
505.945
338.95
312.853
309.449
304.718
294.169
278.063
257.347
232.82
205.129
174.971
1702.98
508.83
335.699
306.534
301.669
296.452
286.013
270.383
250.375
226.696
199.937
170.818
1716.44
511.714
332.698
300.571
294.284
288.584
278.237
263.052
243.711
220.839
194.965
166.739
1728.95
514.599
329.937
294.939
287.269
281.091
270.818
256.048
237.339
215.231
190.209
162.935
1740.65
517.494
327.39
289.619
280.602
273.949
263.735
249.353
231.239
209.857
185.645
159.156
1751.84
520.375
325.046
284.587
274.26
267.137
256.969
242.949
225.395
204.704
181.263
155.575
1762.11
523.238
322.887
279.827
268.226
260.636
250.499
236.816
219.794
199.761
177.066
152.265
1771.74
526.082
320.899
275.321
262.48
254.429
244.31
230.941
214.422
195.02
173.039
149.004
1780.69
528.895
319.067
271.054
257.006
248.498
238.388
225.313
209.27
190.469
169.188
146.016
1788.68
531.705
317.38
267.014
251.79
242.831
232.716
219.914
204.323
186.092
165.462
142.832
1796.03
534.619
315.839
263.186
246.819
237.41
227.284
214.735
199.57
181.884
161.85
139.624
1802.48
537.539
314.424
259.558
242.078
232.225
222.076
209.763
195.003
177.834
158.377
136.793
1808.33
540.524
313.162
256.123
237.555
227.261
217.081
204.988
190.612
173.934
155.024
133.95
1813.46
543.426
312.067
252.875
233.237
222.508
212.289
200.401
186.387
170.177
151.798
131.362
1817.78
546.15
311.114
249.812
229.115
217.953
207.687
195.991
182.32
166.557
148.678
128.674
1821.35
548.927
310.281
246.935
225.182
213.589
203.27
191.749
178.405
163.066
145.679
126.309
1824.36
551.529
309.56
244.215
221.429
209.411
199.027
187.667
174.631
159.699
142.781
123.872
1826.62
554.045
308.907
241.652
217.851
205.404
194.947
183.737
170.992
156.449
139.988
121.656
1828.15
556.487
308.372
239.236
214.439
201.563
191.024
179.95
167.483
153.31
137.28
119.359
1828.96
558.769
307.916
236.956
211.183
197.879
187.252
176.302
164.095
150.277
134.672
117.299
1829.15
561.098
307.537
234.812
208.08
194.347
183.624
172.787
160.826
147.346
132.155
115.295
1828.7
563.239
307.226
232.784
205.12
190.958
180.135
169.399
157.67
144.515
129.709
113.161
1827.51
565.334
306.98
230.881
202.298
187.708
176.777
166.131
154.623
141.777
127.346
111.246
1825.8
567.352
306.796
229.089
199.606
184.591
173.545
162.981
151.679
139.129
125.062
109.415
1823.54
569.292
306.669
227.403
197.039
181.602
170.435
159.941
148.836
136.57
122.863
107.726
1820.51
571.042
306.591
225.819
194.593
178.734
167.442
157.01
146.089
134.094
120.733
105.991
1816.94
572.847
306.568
224.339
192.262
175.983
164.562
154.183
143.434
131.701
118.678
104.393
1812.86
574.455
306.594
222.952
190.043
173.348
161.789
151.454
140.87
129.386
116.671
102.557
1808
576.001
306.642
221.644
187.926
170.819
159.121
148.823
138.392
127.145
114.727
100.946
1802.67
577.404
306.761
220.432
185.914
168.395
156.552
146.282
135.995
124.975
112.85
99.4813
1796.84
578.826
306.921
219.303
184.001
166.073
154.08
143.831
133.678
122.875
111.04
98.1049
1790.4
580.068
307.119
218.253
182.18
163.847
151.701
141.466
131.439
120.845
109.287
96.6763
1783.32
581.254
307.331
217.289
180.453
161.716
149.412
139.183
129.273
118.878
107.592
95.3366
1775.74
582.288
307.61
216.39
178.814
159.675
147.21
136.982
127.181
116.975
105.945
93.9438
1767.51
583.287
307.898
215.563
177.263
157.721
145.093
134.857
125.158
115.135
104.349
92.6515
1759.17
584.247
308.224
214.815
175.791
155.853
143.057
132.809
123.203
113.351
102.798
91.3164
1749.6
585.038
308.574
214.126
174.4
154.067
141.099
130.832
121.312
111.625
101.295
90.109
1740.05
585.774
308.966
213.505
173.09
152.363
139.219
128.928
119.488
109.954
99.8387
88.9041
1730.16
586.399
309.388
212.951
171.851
150.733
137.413
127.091
117.723
108.337
98.4312
87.7897
1719.36
587.019
309.83
212.467
170.691
149.179
135.679
125.322
116.019
106.774
97.065
86.6342
1708.16
587.34
310.31
212.04
169.601
147.701
134.015
123.617
114.372
105.259
95.7408
85.5781
1696.41
587.816
310.786
211.659
168.579
146.294
132.42
121.975
112.782
103.795
94.4632
84.5506
1684.23
588.055
311.37
211.371
167.638
144.96
130.895
120.396
111.248
102.38
93.2239
83.5165
1671.51
588.203
311.905
211.123
166.753
143.692
129.431
118.876
109.767
101.009
92.0219
82.5384
1658.8
588.422
312.496
210.941
165.941
142.49
128.033
117.414
108.338
99.6849
90.8553
81.5135
1645.18
588.408
313.094
210.81
165.198
141.357
126.699
116.012
106.962
98.4045
89.723
80.5653
1630.8
588.188
313.703
210.74
164.516
140.29
125.425
114.664
105.635
97.1686
88.6259
79.607
1616.44
588.083
314.361
210.724
163.9
139.285
124.213
113.373
104.359
95.9747
87.5642
78.7222
1601.87
587.813
315.031
210.769
163.345
138.344
123.06
112.135
103.131
94.8236
86.5336
77.7958
1586.39
587.435
315.747
210.867
162.856
137.466
121.965
110.952
101.948
93.7117
85.5373
76.9579
1570.66
586.985
316.446
211.029
162.434
136.653
120.927
109.82
100.813
92.6382
84.575
76.1816
1554.48
586.411
317.163
211.238
162.069
135.896
119.948
108.741
99.7252
91.6058
83.6489
75.3995
1537.85
585.756
317.928
211.502
161.772
135.203
119.026
107.715
98.6832
90.6143
82.7525
74.5859
1520.8
585.031
318.712
211.825
161.54
134.57
118.159
106.739
97.6853
89.6593
81.888
73.8535
1503.73
584.228
319.525
212.225
161.364
133.997
117.35
105.811
96.7321
88.7442
81.0538
73.0956
1485.88
583.274
320.35
212.671
161.254
133.49
116.596
104.936
95.8219
87.8642
80.2497
72.4357
1467.69
582.219
321.189
213.161
161.218
133.042
115.9
104.111
94.9556
87.024
79.479
71.7367
1449.13
581.059
322.045
213.717
161.236
132.658
115.261
103.336
94.1344
86.2212
78.7377
71.0669
1430.18
579.815
322.96
214.347
161.327
132.337
114.677
102.611
93.358
85.4557
78.02
70.3466
1410.87
578.45
323.841
215.013
161.477
132.072
114.149
101.935
92.6223
84.7249
77.3389
69.8433
1391.18
576.967
324.74
215.758
161.702
131.877
113.678
101.309
91.9337
84.0373
76.6999
69.2875
1371.51
575.495
325.7
216.563
161.994
131.745
113.264
100.736
91.2886
83.3846
76.0911
68.7923
1350.76
573.742
326.661
217.427
162.356
131.684
112.911
100.214
90.6881
82.7711
75.5152
68.2869
1330.39
572.013
327.634
218.353
162.796
131.682
112.618
99.7453
90.1315
82.1958
74.9728
67.8281
1309.34
570.09
328.607
219.336
163.296
131.754
112.385
99.3278
89.6219
81.6621
74.4627
67.3386
1287.97
568.143
329.635
220.403
163.881
131.895
112.215
98.9657
89.1587
81.1655
73.9828
66.9267
1266.25
565.958
330.659
221.53
164.542
132.113
112.11
98.6566
88.7425
80.7091
73.5369
66.5009
1244.62
563.839
331.691
222.72
165.288
132.398
112.069
98.4051
88.3736
80.294
73.1258
66.1377
1222.33
561.429
332.757
223.995
166.113
132.77
112.096
98.2146
88.0567
79.9222
72.7491
65.7421
1199.74
558.957
333.818
225.331
167.018
133.212
112.194
98.0817
87.7884
79.5917
72.4045
65.4324
1176.85
556.345
334.879
226.754
168.019
133.742
112.363
98.0083
87.5719
79.3041
72.1017
65.1727
1153.67
553.573
335.977
228.243
169.106
134.355
112.609
98.0025
87.4123
79.0666
71.8405
64.899
1130.25
550.716
337.063
229.799
170.292
135.062
112.932
98.0619
87.3095
78.8762
71.6174
64.6566
1106.86
547.78
338.187
231.447
171.571
135.865
113.335
98.1915
87.2637
78.7331
71.435
64.5001
1082.92
544.645
339.296
233.188
172.959
136.762
113.825
98.3919
87.2783
78.6445
71.3007
64.3454
1059.03
541.426
340.435
234.999
174.445
137.756
114.406
98.6702
87.357
78.6054
71.2062
64.2671
1034.64
537.976
341.546
236.882
176.045
138.862
115.08
99.0301
87.5049
78.6262
71.1652
64.2217
1009.67
534.34
342.679
238.887
177.756
140.084
115.856
99.473
87.7228
78.7072
71.1726
64.1896
985.045
530.715
343.839
240.949
179.593
141.421
116.739
100.004
88.016
78.8483
71.2297
64.2145
959.991
526.872
344.978
243.139
181.565
142.889
117.732
100.635
88.3909
79.0581
71.3433
64.2541
934.695
522.835
346.126
245.411
183.66
144.485
118.846
101.366
88.8503
79.3412
71.5219
64.3944
909.515
518.721
347.251
247.787
185.901
146.235
120.086
102.208
89.4042
79.705
71.7756
64.5862
883.915
514.383
348.381
250.252
188.291
148.128
121.468
103.163
90.0536
80.1452
72.081
64.7351
858.11
509.843
349.545
252.857
190.842
150.184
122.988
104.244
90.8042
80.667
72.4522
65.0073
832.177
505.188
350.636
255.547
193.542
152.401
124.664
105.455
91.6642
81.2828
72.9082
65.3354
806.086
500.336
351.763
258.362
196.419
154.813
126.505
106.812
92.6466
82.0005
73.4426
65.7577
780.131
495.371
352.859
261.277
199.481
157.412
128.535
108.328
93.7669
82.8315
74.0782
66.2583
754.11
490.169
353.97
264.348
202.744
160.226
130.757
110.014
95.0309
83.789
74.8251
66.8908
727.551
484.701
355.015
267.524
206.213
163.268
133.201
111.894
96.4531
84.8798
75.6883
67.5926
701.059
479.118
356.055
270.857
209.892
166.555
135.871
113.976
98.0489
86.1063
76.6464
68.2915
674.768
473.357
357.082
274.314
213.821
170.109
138.795
116.277
99.8333
87.4914
77.7405
69.1919
648.498
467.37
358.084
277.926
218.004
173.953
142
118.834
101.834
89.063
79.0036
70.2264
621.8
461.146
359.051
281.719
222.455
178.113
145.523
121.664
104.069
90.8285
80.4124
71.3968
595.399
454.757
360.012
285.671
227.219
182.626
149.381
124.807
106.57
92.8131
82.0122
72.6978
569.107
448.145
360.957
289.825
232.308
187.528
153.626
128.292
109.366
95.0428
83.8067
74.1922
542.495
441.32
361.9
294.221
237.792
192.874
158.314
132.182
112.506
97.5622
85.8503
75.8955
516.188
434.314
362.885
298.876
243.708
198.724
163.494
136.521
116.036
100.412
88.1647
77.7899
489.865
427.147
363.952
303.885
250.14
205.156
169.253
141.377
120.006
103.626
90.7773
79.9173
463.694
419.854
365.205
309.342
257.19
212.283
175.67
146.822
124.481
107.248
93.7167
82.3454
437.473
412.566
366.805
315.442
265.042
220.227
182.873
152.957
129.536
111.351
97.0611
85.0977
411.337
405.582
369.158
322.517
273.945
229.194
191.003
159.896
135.251
115.989
100.83
88.218
385.043
399.704
372.994
331.109
284.23
239.389
200.19
167.732
141.72
121.227
105.065
91.6282
358.584
397.895
380.429
342.525
296.59
251.244
210.753
176.728
149.12
127.201
109.849
95.4345
328.387
400.508
389.372
355.302
309.216
263.199
221.44
186.126
156.885
133.59
114.992
99.6965
203.565
0.00127176
6.55461
4.90192
4.86548
11.9734
11.4148
81.1654
44.8873
26.234
7.54888
0.00268753
0.0224311
572.145
12.1087
0.000850716
479.171
0.216548
0.20573
0.000827794
2.43028
5.66186
0.253548
0.0182583
209.318
6.51246
4.01031
16.1163
16.7974
48.0999
14.5014
364.583
0.00108411
7.36646
0.0210208
2.31756
87.3443
12.5912
29.7674
0.00289748
0.237584
0.000793641
0.118681
23.7421
23.7324
5.44629
0.0571932
0.0147306
23.9855
2.39705
2.26505
77.6997
18.4734
0.000749082
214.359
0.00117876
0.00425603
0.000792611
12.6258
11.2379
3.5011
379.08
0.000746608
0.00889119
0.709287
0.00121153
75.3939
18.0533
321.848
18.622
184.426
0.0482275
28.4273
43.1486
0.0187423
0.000739171
40.9597
0.000696213
0.0785557
11.2195
0.209673
0.00069936
75.4163
20.5726
0.00839588
69.7487
74.5433
0.00073995
5.15008
25.7937
19.5511
25.9438
0.000741581
0.000982862
53.7239
0.000751565
15.0825
0.0089639
0.000728931
76.2886
143.862
1.14407
0.000784755
0.00113801
0.000707783
68.1957
65.9815
101.397
19.129
0.0278731
0.526247
0.000709734
8.28969
0.000912713
0.000734489
8.34396
0.0108
1.90676
68.8274
0.643651
119.459
0.0203433
175.46
0.988962
0.317493
52.9713
0.00104384
1333.24
0.0231249
0.000742464
123.093
0.000758846
87.4673
0.00114046
4.18714
0.00145804
28.4639
13.1023
8.71251
0.00175613
0.00872734
2.76547
14.213
0.127457
31.3097
197.404
17.2866
0.00121574
61.3159
21.7761
0.574377
8.00706
0.000693157
0.264085
0.612907
0.000716784
12.5551
0.000727358
88.5024
0.00233415
0.0177347
0.000856865
0.323455
0.00605704
2.59967
0.189918
314.821
30.2308
18.4794
0.000687279
204.581
47.0523
215.954
0.00942257
0.000681456
18.3611
0.000705937
20.5244
0.720366
34.5181
330.656
3.26496
0.0828168
26.4087
0.000796301
13.4657
0.00072396
0.000721541
30.1561
0.000736007
9.13843
0.000697791
199.512
0.00130306
16.1512
14.1891
10.8768
4.5607
0.00070979
407.858
63.4475
19.7986
54.9031
9.1818
20.1361
0.141282
0.179548
1.47291
39.0018
1.54364
140.003
52.2887
48.1987
34.3759
0.000722339
15.4862
0.00599308
11.1088
424.778
21.0203
20.3426
63.6711
24.6538
0.000718447
0.00073085
55.2035
69.8245
0.000758096
1480.01
0.0226289
167.376
0.295154
0.00070457
88.4403
10.1939
12.2228
11.7626
70.0845
34.4465
20.516
0.503209
0.391089
32.4457
94.8644
195.627
133.039
83.0355
0.000836696
44.6202
16.2432
17.0655
42.8219
5.49365
4000.39
21.807
1.81678
3.98047
19.1735
14.3834
24.6725
1.53734
12.7079
0.00753743
0.173475
577.437
13.1801
58.0752
48.5234
7.94505
164.361
10.6634
0.042963
173.728
87.6837
85.6011
185.252
30.1512
105.986
29.1973
27.2581
178.926
29.7439
26.868
21.0433
25.0907
11.0237
12.4169
82.305
85.5936
1.95086
26.8597
170.025
99.5304
98.9258
16.2358
191.563
0.675571
85.2307
0.0700189
54.6357
6.57731
1.00239
336.667
213.136
0.565718
53.701
33.0158
0.000737008
0.685861
0.518513
0.703178
40.8429
0.000720353
97.4415
20.0622
0.0934625
93.3781
42.8144
0.000721185
442.132
0.0290375
14.403
10.6494
9216.64
50.3752
42.4014
18.3376
0.000714268
0.000717282
40.0409
13.3778
0.000689395
10.9651
0.000703579
0.00071735
0.000739855
0.000705925
0.230314
0.000725292
0.00174945
122.439
49.9152
0.000755471
19.1451
0.00379698
75.8618
147.217
90.0185
1097.09
14.9522
0.000672004
0.000744099
0.0945936
0.707555
96.1662
0.000683163
0.176878
24.5875
51.2229
5.39121
27.7376
25.2413
70.8851
1004.74
2.58576
4.92456
0.000882653
0.00073554
1.58807
4.10099
0.240934
28.1673
50.8546
5049.21
174.109
2.94226
22.9068
65.6152
0.000734587
8.8586
49.4497
0.00151108
0.000714843
51.9313
3762.09
81.169
0.000687953
0.0495585
3.97162
0.0155008
0.00073035
52.8776
6.80654
17.6541
16.1144
0.000918404
917.124
0.00071455
1.65275
18.7244
0.00203878
0.00467468
92.1463
0.00318291
45.1858
313.628
84.964
25.9408
41.2873
99.1005
0.000714928
0.000692521
0.000729215
74.4541
0.0837977
315.465
5344.96
4.53764
59.8051
0.000724082
0.042422
14.506
0.000690189
0.000725604
97.5938
0.000687122
1.70639
54.7973
27.7466
0.00067406
0.00254903
0.25711
0.23753
10.9869
0.404023
0.000700733
806.626
53.8706
0.812386
0.00542041
33.4457
89.0006
0.00233501
15.3748
0.0022423
64.7479
0.000843382
12.7312
1.02907
0.000705379
76.5623
11.1171
171.958
0.00350615
9.95079
2.70295
0.00146691
89.5298
51.2034
2.49757
210.958
0.0151355
0.0463534
0.0048558
116.413
31.4511
0.20127
2.45178
4.16481
170.897
0.82317
83.466
1147.9
0.000677859
209.845
56.0641
10.426
0.000697387
19.7628
93.8652
0.14491
84.5764
23.4142
2.39752
0.324133
30.0837
120.605
0.000862605
0.0103016
54.9923
0.0325845
0.00189696
240.943
1082.89
0.0329168
22.8252
51.8503
0.620989
46.2682
27.0476
51.8325
19.337
24.5387
0.000738952
0.188164
45.0605
18.6138
116.044
21.7628
97.5082
175.988
987.251
74.5404
2.55533
0.000727125
216.115
91.0975
45.9934
10.3028
1.11201
0.148335
11.0662
0.000731879
17.1085
0.000732137
35.7736
10.5968
92.2183
29.408
77.5422
111.077
119.262
29.5027
219.813
0.000734346
0.338552
57.774
1421.04
7.73102
23.7376
0.000874494
0.0193145
6.14355
117.464
18.069
0.000699162
0.0649039
0.000708425
0.0537711
19.8724
0.0278971
65.6986
2.82637
72.1867
0.442246
0.439979
298.45
658.505
0.000740132
0.000740696
5.49714
185.294
17.6361
13.1227
3.24742
30.7
19.558
0.000673161
0.74702
12.2583
0.00134057
77.0813
12.8636
26.976
17.4755
0.00560497
0.000674757
0.0147169
0.000713584
26.7573
20.1605
122.891
22.7609
0.000731442
138.664
0.122357
118.768
1.79248
193.116
0.0297364
0.503695
0.000686332
38.96
566.756
19.5885
4.56093
0.00067181
103.865
44.6644
50.6257
0.000700846
0.607301
56.427
26.7125
0.00186547
1071.4
0.000916998
58.6771
28.7498
0.000878946
2.05139
0.1401
1.08075
0.000700486
0.000741845
75.0392
36.5203
19.8176
54.141
0.00134923
1.92164
0.218733
44.4939
8.30685
0.00100566
1.56363
403.453
0.000689275
0.00287803
26.3653
131.023
88.0351
0.000720164
695.842
23.9099
115.179
0.0200045
2.52053
144.937
0.000735543
101.428
2.47652
18.1296
7.77898
44.961
7.90272
93.8406
96.3898
15.9563
4957.86
0.00074642
0.000719144
142.081
47.0311
0.00130067
0.000723308
9.29639
0.000745337
51.6902
52.6305
1.1293
0.000701535
39.6558
0.387093
21.5132
66.1604
25.653
0.26514
2.3534
118.372
0.000738986
2.35678
61.1767
21.5723
18.0481
0.00231501
10.6201
2.71737
2788.51
0.000711203
2.56145
35.5107
18.3622
0.00077082
0.165121
28.8776
55.838
76.8386
0.06025
203.929
31.9519
0.302592
31.6008
0.000712561
0.00245678
9.00284
0.000685085
26.5809
0.000726265
115.131
0.00452712
56.856
0.000732901
0.923205
52.029
126.231
7.51578
30.8886
0.385364
240.457
0.00775213
0.154395
18.2617
0.000697672
0.000745102
27.9809
0.380556
94.8513
25.9434
0.000758419
90.8231
105.894
81.3247
7.14459
169.849
95.8648
0.000740882
2398.48
4205.09
49.8201
0.000759723
0.00433294
272.173
54.3224
0.000704579
90.3284
0.000698273
0.110621
301.99
0.000851107
16.9206
0.000720033
0.0637396
121.535
0.000762143
0.00101656
0.000734966
0.000937682
0.0136397
1014.24
51.1796
0.308325
11.4027
0.000726471
48.9391
0.000729721
8.96711
1.8071
0.0156389
4.44146
0.00624441
73.4935
0.000724847
10676
4.20286
30.0087
207.811
4.79228
0.00069713
26.0902
179.681
1.99061
49.3149
58.0494
183.883
23.1462
0.0362174
28.4144
0.173668
0.00103534
0.29079
4109.33
154.33
1.03083
0.0283029
20.7027
0.000923243
9.32834
51.975
174.04
63.9806
60.1983
0.0299398
0.00176037
32.6259
24.4594
0.0487671
42.8509
0.000720184
120.787
217.811
0.000766599
175.474
48.5758
1.15392
0.151668
139.381
0.0154483
0.31523
13.3007
2.97711
2.81963
0.000752868
26.946
0.110669
150.095
28.1329
79.9546
6.12471
0.00222952
38.8887
0.000730485
0.000724
10.5866
0.148485
1.71596
210.854
0.000674655
72.3067
0.147855
0.0581352
0.000791268
165.461
8.04581
0.347064
40.4382
0.0581042
309.539
3.95993
0.000716341
236.848
269.364
0.00158817
0.00316691
77.7143
26.4126
0.416979
233.573
0.0275773
2.00023
0.244584
0.388439
31.857
94.3826
0.000736741
95.7038
22.1186
0.00729874
1.27909
1492.62
16.0293
0.000731427
0.000685149
35.2212
23.5742
66.5947
0.000683941
34.1123
2.86638
32.3167
0.00092555
167.358
46.3842
0.00155856
16.4846
0.000740751
86.414
32.2305
28.4213
40.2805
0.000716102
0.000718327
9.82827
109.746
5.63023
37.7671
0.000677058
0.0433441
0.000734102
0.00193626
39.5193
0.088043
0.346553
0.914732
21.8095
152.154
24.8215
65.2435
0.000728921
29.5001
37.6682
20.7184
0.000738994
43.8301
0.000735111
0.000726945
0.157709
20.8077
0.0160934
336.591
35.1713
326.638
0.000762218
0.0013192
0.0368809
110.393
4.55973
145.969
0.000725768
0.000715852
0.00195643
0.00295785
139.034
44.5962
83.2106
0.306265
0.0357596
3.82834
3.79411
57.3635
15.3101
60.9516
18.9614
0.000690393
182.17
0.00155266
1.81027
61.8077
26.294
1.30317
0.616725
0.000942173
105.712
7.41663
19.8405
28.5876
0.000722553
67.351
42.7933
171.427
0.00434697
58.8128
47.7169
56.3542
190.849
22.1004
55.7841
0.275236
813.363
4.25888
0.187193
121.138
0.000729438
93.5327
173.621
0.000703794
35.5961
0.00130736
102.333
102.365
1.75655
18.8687
106.479
96.8595
13.3951
0.940578
50.2634
9.35895
0.00557014
0.000696655
24.5155
0.0854656
19.3702
58.2031
4.43758
53.634
105.169
0.000716993
16.0293
461.97
243.685
10.4034
99.9096
18.0812
207.46
97.3738
1.63676
0.0158515
0.220617
68.2437
83.5286
0.22037
53.5736
59.517
52.6412
11.1059
2.05195
10.5526
32.7859
0.000738543
237.554
88.8928
1.50982
0.000738418
26.5869
15.4277
17.2069
0.000720119
149.653
0.000728751
12.061
0.179029
0.000733538
39.1483
81.5406
0.000701071
50.5819
27.9787
24.6824
12.7319
40.4298
15.4509
40.3937
52.8964
1.71129
0.000708637
0.00127878
33.778
5.62756
0.117212
0.000738536
84.1991
0.00184679
0.975059
0.248706
10.7856
8.67478
0.0640893
0.522634
395.327
172.31
24.4058
1416.32
56.6396
0.000706083
51.6194
17.9029
181.388
0.000709409
5.47917
0.000737102
0.000865782
17.5132
3.95995
0.0325073
0.000802181
56.5882
3012.96
0.00245984
0.000728828
1.63819
9.43858
0.01574
0.0865404
3161.21
0.550661
0.000795395
0.000727528
66.4874
20.8325
0.3041
0.0663555
64.3296
193.371
29.5939
103.499
35.0598
0.000730543
16.4922
0.00072303
130.398
15.5376
2926.69
6.15417
0.145399
0.000950475
96.8568
0.000739875
0.000712091
0.00175588
13.7327
18.5631
61.3293
0.000718981
16.5629
0.000727166
529.01
61.3914
0.000744624
126.313
6.25131
0.000729023
0.000766542
0.0260798
138.977
5.59853
0.0172834
0.000727397
0.000709615
134.791
91.6039
20.9025
34.3585
0.472407
34.5358
0.000718411
0.00404929
6.82839
210.006
47.7909
0.00324282
0.00073138
33.3414
0.000727406
87.9643
140.706
7.1651
0.0379331
91.8443
16.4818
3.14758
0.000727935
7.37971
94.4824
85.3002
0.00216238
0.0220013
31.6189
3011.19
0.0531749
4.52401
0.000703038
0.000690595
0.000740417
0.010215
32.0579
69.5436
0.0405418
99.6378
22.4085
420.109
8.16303
0.0109144
0.00275599
0.00614636
2.58331
48.1112
20.2092
0.000753059
95.7273
0.000716115
0.00629167
65.2212
49.4313
0.0264706
5.27698
9.74554
0.00104804
0.738075
2.51037
0.000722268
0.000930482
146.214
0.000888039
0.000753606
111.037
25.3015
3162.67
8.83582
1372.33
0.00085153
0.000700492
3512.81
17.3446
1.16866
3.69598
0.0568544
18.6044
1.01541
986.038
46.7722
66.7118
143.493
104.564
1.05615
27.2705
99.4615
0.00689835
80.7466
0.000980235
37.0747
6.30861
0.734666
7.81675
6.98833
3.47185
2.028
39.2834
60.8688
45.1632
28.7569
50.2804
35.9399
6.21829
0.00109016
0.000724298
0.235142
251.007
0.00072551
79.6129
0.000705546
0.00377335
189.596
112.783
44.7795
74.8884
979.037
77.1009
18.9399
40.3774
0.000724282
16.7375
74.0858
0.000760093
197.941
0.00252824
719.67
250.352
294.919
14.1869
84.2188
4.48473
0.50013
16.088
93.8653
20.5593
12.1521
5.38767
77.3603
0.134789
124.365
335.338
0.00366319
34.3269
0.000739832
0.000986726
17.5463
132.595
168.746
14.6647
0.607291
0.216792
0.318337
0.00084881
22.8724
0.00084847
154.605
0.000802324
0.120225
258.691
5.55214
2.8722
191.768
157.474
0.0019394
0.000739888
0.193025
13.654
0.164925
113.031
0.0369362
25.8148
5.07447
27.1587
56.1468
0.00086663
0.000719442
129.678
0.717635
5.57392
55.9664
29.0704
38.5595
0.00386916
163.733
56.2246
90.5085
0.000827621
1.27429
24.7962
79.217
0.994755
14.048
0.000737622
11.7632
0.000710586
221.619
0.00434411
34.7735
0.171383
10.0572
0.000761946
1956.52
0.000739091
141.992
0.0159104
0.000727265
0.00673381
14.5969
0.000729268
0.000733354
10.2315
0.0266069
20.5016
0.0629858
0.000772062
22.4681
6.44536
39.7752
0.000781787
111.68
4.56027
352.129
37.278
29.9971
57.5958
93.0126
4.58923
299.083
249.134
98.3702
0.000753326
2.41676
25.6427
18.2605
0.00128374
0.0162055
20.6888
482.575
0.000735472
1.64581
104.597
0.000678869
57.5587
66.4896
181.964
73.4807
52.2533
12.3327
0.338896
201.316
9.19883
73.2782
51.4941
52.438
0.487242
0.000727248
34.2562
0.00181852
0.000750513
0.000711618
178.2
0.000727548
0.000912652
18.2501
9446.68
2.83352
2.57462
52.4563
11.1796
0.000728349
42.3564
224.037
0.0160936
4.73586
55.4339
49.0918
0.280634
0.0207103
0.000717002
0.000726145
0.0172054
0.041343
25.3173
21.2833
87.6651
14.172
13.9601
0.000994245
197.646
28.3179
0.000747831
23.1257
823.657
0.000734476
6.89522
119.871
43.4646
91.86
0.711136
143.288
0.00085594
0.916976
0.00077345
0.00198298
0.000746827
62.962
18.0107
0.0959716
0.000739342
0.000687082
188.44
28.673
2.70944
20.0373
6.18567
36.3741
18.4453
24.3799
26.6341
0.000732265
0.478127
0.876793
0.350881
19.0768
76.7897
49.2408
84.2105
27.8923
87.6437
161.713
94.7476
46.671
31.9256
0.130812
56.4624
29.6744
0.0200832
79.5614
53.6187
10.8391
0.000699828
0.000742729
0.000872581
0.00118084
50.0109
0.000677111
109.794
50.5316
230.013
28.7398
0.000726348
12.3724
15.9306
58.0935
15.3819
29.5071
13.6241
0.000754396
0.000742226
0.0034349
0.174578
0.000710719
84.6401
13.9776
1.73022
47.3464
14.9507
39.1101
118.345
0.000728214
19.1168
30.7798
0.000943424
0.0901606
52.9278
168.674
20.1272
4.7564
0.000753627
33.7627
39.7302
0.000958148
0.0115545
0.000722817
39.7942
0.00116385
0.514964
112.132
0.762565
0.0991541
21.6619
2876.65
0.000757841
29.9874
0.000680341
10.2453
23.0835
22.3486
16.9197
60.9234
31.5178
58.2751
188.27
45.0499
0.000732393
0.000718141
0.0472135
0.20517
52.92
4.5536
0.000730063
163.576
2.86668
0.00300792
52.0138
0.0541736
0.00285837
0.0320144
73.8251
0.00202986
0.000734113
21.4145
83.527
24.9674
1.60013
53.9966
8.25498
0.000737218
16.8197
0.145039
0.0680557
0.000790702
34.7577
19.8947
5.51385
138.414
94.0362
16.4348
2.87865
0.000725706
25.9207
0.000726149
222.113
0.00405197
33.4528
0.156803
53.4011
0.00804136
0.00355359
4.52223
3.70663
386.752
0.000852792
1.87146
46.4738
91.362
6.4037
114.801
1.32671
0.00081175
0.000744797
58.0347
24.4308
312.958
2.2268
0.163419
54.9989
21.1467
59.1398
0.0663727
0.000725911
0.000734801
1.27225
767.248
18.4609
105.328
0.000842392
0.00451357
1.10417
49.0254
22.8891
44.8063
57.9936
60.529
0.000741919
0.000735353
178.473
135.75
61.2656
426.077
48.1639
0.0160138
132.314
0.000724482
226.35
0.0175804
0.020822
0.000727135
0.0344065
0.171814
53.4013
48.1562
0.000754517
116.403
0.000718883
82.9888
147.715
0.000718097
0.467167
0.0007544
16.5212
0.321434
5.61489
0.000691909
13.2111
90.9689
13.1544
44.8068
1.23421
60.2088
1.57195
62.2298
33.4416
83.5803
30.5933
0.000953937
0.000735966
27.275
0.477054
61.1918
0.000731888
122.693
0.000724323
0.00130846
0.234193
0.00072033
273.32
97.0467
0.000762186
21.7112
2.54538
0.173761
32.9863
0.00187643
0.000708171
43.1022
9.07322
0.0204187
46.3289
2364.68
107.769
1.6238
182.289
0.223597
0.000735773
0.000899529
0.0274704
1.55146
57.3871
140.053
312.265
52.1143
55.1079
10.5186
1.96541
37.0215
153.244
56.05
0.0349997
0.0848744
12.9942
83.3232
0.000792802
0.994247
17.3927
192.192
0.000726803
49.2001
0.000681905
0.00640902
129.669
0.000790562
65.235
1153.31
0.000738013
174.867
0.000870336
8.89625
0.00647879
0.00103292
47.2439
16.255
64.2973
8.39557
79.1142
350.61
105.6
5.96065
36.4479
20.2984
0.00070529
163.135
0.0560979
88.0789
4.02324
10.4466
0.0338217
0.00108663
167.305
115.94
12.6555
48.1069
18.1169
0.0101861
0.000694941
0.000744243
1.6521
75.3694
17.1234
0.000703953
1165.07
20.4729
0.00954294
0.140715
20.0453
0.000677849
0.390556
0.000762217
0.000723745
21.4841
29.8433
0.0542659
0.00620101
0.000708767
28.8869
1.75501
20.7489
0.00230944
0.0318958
0.00733529
60.8297
103.383
1.23016
0.000729192
159.357
0.000780364
0.0335238
0.00413733
0.00140899
34.9059
64.4945
0.000725102
49.7027
0.000748745
0.000696267
0.000880196
53.1468
15.4597
53.2525
42.4811
19.935
61.506
0.0439402
0.000728777
0.00703062
0.00161315
2.87152
0.000713473
61.2054
11.6314
0.0328718
100.591
0.352211
22.1376
1.87281
0.00183619
125.614
56.4505
20.2516
0.00720389
0.145412
213.681
0.000732763
8.8468
57.4503
0.000724584
0.703833
0.00278649
19.5779
0.000691889
81.521
37.0253
1.71277
0.429084
94.2879
365.925
4.71572
124.919
0.00104554
18.3099