/*--------------------------------*- C++ -*----------------------------------*\
| =========                 |                                                 |
| \\      /  F ield         | OpenFOAM: The Open Source CFD Toolbox           |
|  \\    /   O peration     | Version:  2.3.1                                 |
|   \\  /    A nd           | Web:      www.OpenFOAM.org                      |
|    \\/     M anipulation  |                                                 |
\*---------------------------------------------------------------------------*/
FoamFile
{
    version     2.0;
    format      ascii;
    class       volScalarField;
    location    "0.32";
    object      k;
}
// * * * * * * * * * * * * * * * * * * * * * * * * * * * * * * * * * * * * * //

dimensions      [0 2 -2 0 0 0 0];

internalField   nonuniform List<scalar> 
15166
(
1.07856
1.32248
1.70425
2.10538
2.41561
2.72511
2.94615
3.07835
3.1242
3.10145
3.0177
2.90619
1.07894
1.29377
1.70796
2.09751
2.40714
2.69555
2.89615
3.01165
3.04709
3.01946
2.93698
2.81667
1.08701
1.26213
1.69249
2.07542
2.38438
2.6562
2.84125
2.94417
2.97245
2.94146
2.8591
2.73554
1.09756
1.23674
1.67082
2.04697
2.35311
2.61086
2.78359
2.877
2.9002
2.86684
2.78377
2.65536
1.10898
1.2176
1.64767
2.01633
2.31761
2.56278
2.72514
2.81108
2.83052
2.79552
2.71196
2.58287
1.12131
1.20303
1.62414
1.98485
2.27998
2.51368
2.66707
2.74694
2.7635
2.72729
2.64329
2.51296
1.13459
1.19194
1.60087
1.95316
2.2412
2.46447
2.60998
2.68482
2.69907
2.66193
2.57721
2.44389
1.14861
1.18368
1.57837
1.92171
2.20206
2.41572
2.55423
2.62481
2.6372
2.59938
2.51438
2.38175
1.16316
1.17776
1.55699
1.89093
2.16315
2.3679
2.50008
2.56697
2.57782
2.53954
2.45459
2.32275
1.17805
1.17372
1.53685
1.86102
2.12488
2.32128
2.44768
2.51132
2.52085
2.48233
2.39794
2.26868
1.19315
1.17123
1.51798
1.83208
2.08745
2.27602
2.39709
2.4578
2.46622
2.4277
2.34437
2.21862
1.20835
1.16995
1.50034
1.80418
2.05102
2.2322
2.34832
2.40636
2.41384
2.37558
2.29409
2.17419
1.22355
1.16967
1.48387
1.7773
2.01569
2.18986
2.30133
2.35692
2.36361
2.32584
2.24665
2.13265
1.23868
1.17023
1.46852
1.75144
1.98148
2.14899
2.2561
2.30942
2.31543
2.27827
2.20087
2.08731
1.25367
1.17138
1.45419
1.72662
1.94841
2.10958
2.21257
2.26376
2.26922
2.23281
2.15757
2.04878
1.26847
1.17304
1.4408
1.70277
1.91648
2.07158
2.17067
2.21988
2.22486
2.18927
2.1163
2.01137
1.28302
1.17506
1.42824
1.67988
1.88568
2.03497
2.13034
2.17769
2.18227
2.14757
2.07678
1.97502
1.29729
1.17737
1.41648
1.65792
1.85599
1.9997
2.09152
2.1371
2.14134
2.10756
2.03889
1.93994
1.31125
1.17989
1.40541
1.63683
1.82735
1.96569
2.05413
2.09803
2.10199
2.06916
2.00262
1.90709
1.32486
1.18253
1.395
1.61658
1.79976
1.93292
2.01811
2.06041
2.06413
2.03226
1.96785
1.87558
1.33809
1.18527
1.38516
1.59713
1.77314
1.90132
1.98339
2.02416
2.02767
1.99675
1.93429
1.84412
1.35096
1.18803
1.37583
1.57845
1.74749
1.87084
1.94991
1.98922
1.99254
1.96253
1.90183
1.81349
1.36342
1.19079
1.36698
1.56046
1.72274
1.84143
1.91762
1.95552
1.95866
1.92951
1.87036
1.78326
1.37547
1.19353
1.35855
1.54317
1.69887
1.81306
1.88646
1.92299
1.92597
1.89762
1.83986
1.75409
1.38708
1.19623
1.3505
1.52654
1.67585
1.78567
1.85637
1.89159
1.89439
1.86679
1.81033
1.72602
1.39825
1.19886
1.34279
1.51052
1.65363
1.75923
1.82732
1.86126
1.86388
1.83697
1.78175
1.69906
1.409
1.20139
1.33538
1.49506
1.63217
1.73367
1.79924
1.83194
1.83437
1.80811
1.75417
1.67346
1.41931
1.20385
1.32828
1.48016
1.61145
1.70898
1.77209
1.80358
1.80582
1.78019
1.72756
1.64933
1.42916
1.20622
1.32141
1.46578
1.59143
1.68511
1.74583
1.77614
1.77819
1.75316
1.70187
1.62588
1.43858
1.20848
1.3148
1.45189
1.57207
1.66201
1.72042
1.74958
1.75142
1.727
1.67699
1.60281
1.44754
1.21065
1.30837
1.43846
1.55335
1.63967
1.69583
1.72385
1.7255
1.70165
1.65291
1.58063
1.45604
1.21272
1.30215
1.42546
1.53525
1.61804
1.67201
1.69893
1.70036
1.67707
1.62955
1.55895
1.46409
1.21469
1.29609
1.41289
1.51772
1.5971
1.64894
1.67477
1.676
1.65324
1.60691
1.53812
1.47173
1.21656
1.29022
1.40071
1.50075
1.57682
1.62658
1.65135
1.65236
1.63012
1.58494
1.51778
1.47887
1.21832
1.28449
1.38891
1.48432
1.55716
1.6049
1.62864
1.62943
1.60769
1.56364
1.49818
1.48562
1.22001
1.27893
1.37745
1.46839
1.53811
1.58388
1.60659
1.60717
1.5859
1.54295
1.47905
1.49191
1.22159
1.27349
1.36634
1.45294
1.51963
1.56348
1.58519
1.58554
1.56474
1.52289
1.46084
1.49777
1.22309
1.26818
1.35554
1.43796
1.50171
1.54368
1.56441
1.56454
1.54419
1.50342
1.44329
1.50322
1.22451
1.263
1.34504
1.42342
1.48431
1.52446
1.54422
1.54412
1.52422
1.48452
1.4259
1.50824
1.22586
1.25795
1.33485
1.40931
1.46743
1.5058
1.52461
1.52429
1.50482
1.46621
1.4096
1.5128
1.22714
1.253
1.32493
1.39561
1.45103
1.48766
1.50554
1.505
1.48594
1.44822
1.39195
1.51692
1.22832
1.24814
1.31528
1.3823
1.4351
1.47004
1.48701
1.48624
1.46754
1.43059
1.37466
1.52061
1.22941
1.2434
1.30589
1.36937
1.41963
1.45292
1.46899
1.46798
1.44962
1.41343
1.35877
1.52386
1.23039
1.23877
1.29675
1.35681
1.40459
1.43627
1.45146
1.4502
1.43216
1.3967
1.34306
1.52671
1.23124
1.23423
1.28787
1.34459
1.38996
1.42007
1.43439
1.4329
1.41514
1.38042
1.32813
1.52914
1.23195
1.2298
1.27924
1.33269
1.37573
1.40432
1.41779
1.41604
1.39856
1.36453
1.31309
1.53116
1.23256
1.22548
1.27082
1.32111
1.3619
1.38899
1.40162
1.39961
1.38239
1.34908
1.29915
1.53279
1.23304
1.22124
1.26263
1.30983
1.34844
1.37406
1.38587
1.3836
1.36662
1.33402
1.28517
1.53403
1.23339
1.21708
1.25464
1.29886
1.33534
1.35953
1.37052
1.36799
1.35124
1.31935
1.27192
1.53489
1.23366
1.213
1.24685
1.28819
1.32258
1.34537
1.35556
1.35275
1.33622
1.305
1.25849
1.53537
1.23384
1.20899
1.23925
1.2778
1.31016
1.33157
1.34097
1.33789
1.32156
1.29101
1.24572
1.53548
1.23395
1.20505
1.23184
1.26767
1.29805
1.31813
1.32675
1.32339
1.30725
1.27736
1.2333
1.53522
1.23397
1.20118
1.2246
1.25782
1.28626
1.30503
1.31288
1.30924
1.29328
1.264
1.22065
1.53459
1.23394
1.19738
1.21753
1.24821
1.27478
1.29227
1.29935
1.29543
1.27964
1.25099
1.20889
1.53362
1.23383
1.19365
1.21063
1.23885
1.26359
1.27982
1.28616
1.28195
1.26633
1.23831
1.19755
1.5323
1.23364
1.18998
1.20389
1.22972
1.25267
1.26769
1.27329
1.26879
1.25333
1.22596
1.18659
1.53064
1.23336
1.18637
1.19731
1.22081
1.24204
1.25586
1.26074
1.25595
1.24064
1.21389
1.17555
1.52863
1.23305
1.18284
1.19088
1.21213
1.23167
1.24433
1.24849
1.24342
1.22825
1.20211
1.16482
1.5263
1.23265
1.17937
1.1846
1.20366
1.22157
1.23308
1.23655
1.23119
1.21616
1.19054
1.15357
1.52363
1.23221
1.17597
1.17846
1.1954
1.21171
1.22211
1.22489
1.21925
1.20434
1.17922
1.14313
1.52063
1.23169
1.17264
1.17247
1.18734
1.2021
1.21141
1.21351
1.20759
1.19279
1.1682
1.1333
1.51731
1.23112
1.16937
1.16662
1.17947
1.19272
1.20097
1.20241
1.19621
1.18152
1.15746
1.12376
1.51368
1.23049
1.16617
1.16091
1.1718
1.18357
1.19079
1.19157
1.18509
1.17051
1.14696
1.11414
1.50972
1.22982
1.16305
1.15534
1.16432
1.17465
1.18085
1.181
1.17424
1.15975
1.1367
1.10474
1.50544
1.2291
1.16
1.14991
1.15702
1.16595
1.17116
1.17069
1.16365
1.14924
1.12664
1.09529
1.50085
1.22835
1.15702
1.14461
1.1499
1.15746
1.16171
1.16062
1.15331
1.13898
1.1168
1.08619
1.49597
1.22754
1.15411
1.13945
1.14296
1.14919
1.15249
1.1508
1.14321
1.12895
1.10716
1.07709
1.49077
1.22669
1.15128
1.13442
1.13619
1.14111
1.14349
1.14121
1.13335
1.11914
1.09773
1.06841
1.48526
1.22582
1.14853
1.12952
1.12959
1.13324
1.13472
1.13186
1.12374
1.10957
1.08852
1.05987
1.47946
1.22489
1.14586
1.12475
1.12316
1.12557
1.12617
1.12274
1.11434
1.10022
1.07953
1.05164
1.47337
1.22393
1.14326
1.12012
1.1169
1.11809
1.11782
1.11384
1.10518
1.09109
1.07072
1.04335
1.46698
1.2229
1.14073
1.11561
1.1108
1.11079
1.10969
1.10515
1.09623
1.08216
1.0621
1.03538
1.4603
1.22187
1.13829
1.11124
1.10487
1.10369
1.10175
1.09668
1.0875
1.07344
1.05369
1.0276
1.45331
1.22081
1.13596
1.10703
1.09911
1.09678
1.09403
1.08843
1.07898
1.06493
1.04547
1.01992
1.44603
1.21971
1.13368
1.10293
1.0935
1.09005
1.0865
1.08038
1.07066
1.05661
1.03742
1.01245
1.43848
1.21856
1.1315
1.09898
1.08807
1.0835
1.07916
1.07253
1.06256
1.0485
1.02955
1.00491
1.43064
1.21735
1.1294
1.09516
1.08279
1.07713
1.07202
1.06489
1.05465
1.04057
1.02184
0.997568
1.42249
1.21613
1.12739
1.09147
1.07768
1.07094
1.06508
1.05744
1.04694
1.03284
1.0143
0.990311
1.41408
1.21489
1.12547
1.08792
1.07272
1.06493
1.05832
1.0502
1.03944
1.0253
1.00692
0.98329
1.40539
1.21361
1.12365
1.08452
1.06793
1.0591
1.05175
1.04314
1.03212
1.01794
0.999716
0.976291
1.39641
1.2123
1.1219
1.08125
1.0633
1.05344
1.04537
1.03628
1.02499
1.01076
0.99267
0.969621
1.38717
1.21094
1.12025
1.07813
1.05884
1.04796
1.03916
1.0296
1.01805
1.00375
0.985785
0.963147
1.37764
1.20954
1.11869
1.07515
1.05454
1.04265
1.03315
1.02311
1.0113
0.996928
0.979087
0.956744
1.36783
1.20811
1.11724
1.07233
1.05042
1.03753
1.02732
1.01682
1.00475
0.990294
0.972556
0.95039
1.35774
1.20666
1.11589
1.06967
1.04646
1.03259
1.02167
1.01071
0.99837
0.98383
0.96618
0.944311
1.34737
1.20515
1.11465
1.06716
1.04268
1.02782
1.01621
1.00478
0.992176
0.977548
0.95997
0.938233
1.33674
1.20357
1.11348
1.0648
1.03908
1.02324
1.01093
0.999046
0.986165
0.971432
0.953907
0.932498
1.32583
1.20196
1.11243
1.0626
1.03565
1.01884
1.00585
0.993496
0.98034
0.965508
0.948041
0.926791
1.31464
1.20033
1.11147
1.06057
1.03241
1.01464
1.00095
0.988137
0.974703
0.959763
0.942341
0.921281
1.30317
1.19867
1.11063
1.05871
1.02935
1.01062
0.996239
0.982962
0.969249
0.954188
0.936773
0.915607
1.29144
1.19694
1.10988
1.057
1.02647
1.00678
0.991715
0.977973
0.963975
0.948787
0.931393
0.910737
1.27943
1.19519
1.10923
1.05547
1.02379
1.00315
0.98739
0.973179
0.958905
0.943604
0.926262
0.905862
1.26717
1.19334
1.1087
1.05413
1.02131
0.99971
0.983259
0.968582
0.95402
0.938587
0.921268
0.901103
1.25462
1.19148
1.10827
1.05296
1.01903
0.996481
0.979331
0.964179
0.949327
0.933757
0.916454
0.896391
1.24179
1.18953
1.10796
1.05198
1.01696
0.993458
0.975606
0.959977
0.944826
0.929112
0.911801
0.891816
1.2287
1.1875
1.10774
1.05118
1.0151
0.99065
0.97209
0.955978
0.940526
0.924666
0.907334
0.887307
1.21534
1.18542
1.10766
1.05059
1.01346
0.988065
0.96879
0.952187
0.936422
0.920394
0.903008
0.883037
1.20168
1.18331
1.10768
1.0502
1.01205
0.985708
0.96571
0.948605
0.932523
0.916324
0.898886
0.878887
1.18777
1.18106
1.10782
1.05001
1.01088
0.983581
0.962858
0.945242
0.928833
0.91245
0.894935
0.87494
1.17357
1.17878
1.10806
1.05004
1.00994
0.981703
0.960238
0.942107
0.925361
0.908787
0.8912
0.871119
1.15911
1.17641
1.10841
1.05027
1.00925
0.980067
0.957857
0.939195
0.922097
0.905317
0.887632
0.867618
1.14435
1.174
1.10889
1.05073
1.00883
0.978694
0.955724
0.936518
0.91906
0.902066
0.884284
0.864292
1.12932
1.17152
1.10948
1.05142
1.00867
0.977589
0.953854
0.934095
0.916268
0.89906
0.88118
0.861097
1.11403
1.16891
1.11018
1.05233
1.00878
0.976767
0.952253
0.931922
0.913717
0.896277
0.878295
0.858195
1.09846
1.16618
1.11101
1.0535
1.00918
0.97624
0.950928
0.930013
0.91141
0.893726
0.875631
0.855599
1.0826
1.16338
1.11195
1.05491
1.00989
0.976016
0.949895
0.928379
0.909365
0.891439
0.873236
0.853128
1.06646
1.16043
1.11301
1.05658
1.0109
0.976108
0.94917
0.927034
0.907585
0.889383
0.871024
0.850924
1.05004
1.15741
1.11419
1.05851
1.01225
0.976539
0.948766
0.925992
0.906096
0.88761
0.869093
0.848887
1.03333
1.15436
1.11548
1.06073
1.01393
0.977324
0.948703
0.92527
0.904903
0.886121
0.867429
0.847103
1.01634
1.15109
1.11692
1.06324
1.01598
0.978476
0.949
0.924878
0.904021
0.884908
0.865994
0.845494
0.999055
1.14776
1.11848
1.06604
1.01841
0.980027
0.949674
0.924846
0.903474
0.884014
0.864885
0.844221
0.981481
1.14434
1.12015
1.06915
1.02122
0.981986
0.95075
0.925193
0.903282
0.883462
0.864116
0.84336
0.963637
1.14066
1.12195
1.07257
1.02445
0.984394
0.952252
0.925944
0.903478
0.883299
0.863759
0.84279
0.945495
1.13691
1.12388
1.07632
1.02811
0.987254
0.954205
0.927106
0.90405
0.883455
0.863617
0.842109
0.927061
1.13306
1.1259
1.08041
1.03223
0.990602
0.956622
0.928704
0.905011
0.883957
0.863785
0.841933
0.908348
1.12896
1.12808
1.08485
1.03682
0.994458
0.959544
0.930774
0.906414
0.884886
0.864406
0.842275
0.889324
1.1248
1.13038
1.08968
1.04192
0.998885
0.963014
0.933361
0.908292
0.886244
0.865374
0.842919
0.870009
1.12034
1.13284
1.09488
1.04756
1.0039
0.967082
0.936513
0.910702
0.888112
0.866878
0.844209
0.850396
1.11574
1.13538
1.1005
1.05378
1.00956
0.971789
0.940268
0.913678
0.89052
0.868915
0.846073
0.830512
1.11105
1.13807
1.10653
1.06061
1.0159
0.977183
0.944687
0.917262
0.893504
0.871507
0.848275
0.810329
1.1061
1.1409
1.11301
1.06808
1.02297
0.983306
0.949791
0.921475
0.89701
0.874444
0.850412
0.789833
1.10092
1.14388
1.11996
1.07624
1.03083
0.990233
0.95565
0.926382
0.90116
0.878016
0.853559
0.76905
1.09547
1.147
1.12741
1.08514
1.03956
0.998043
0.962363
0.932095
0.906081
0.882403
0.85765
0.747987
1.08998
1.15024
1.13539
1.09486
1.04922
1.00683
0.970003
0.938647
0.911744
0.887352
0.862024
0.726605
1.0841
1.15368
1.14397
1.10545
1.05993
1.01668
0.978665
0.946149
0.918266
0.893122
0.867117
0.704921
1.07796
1.15731
1.15319
1.11702
1.07178
1.02772
0.988468
0.954697
0.925714
0.899668
0.872968
0.682952
1.07177
1.16115
1.16311
1.12968
1.08493
1.0401
0.999577
0.964456
0.934267
0.907261
0.879845
0.660644
1.06516
1.16531
1.17387
1.14358
1.09954
1.054
1.01215
0.975558
0.944042
0.915935
0.887462
0.638015
1.05839
1.16984
1.18561
1.15892
1.11581
1.06962
1.02635
0.988135
0.955117
0.925779
0.896357
0.615008
1.05137
1.1749
1.19861
1.17595
1.13403
1.0872
1.04239
1.00235
0.967603
0.936799
0.906211
0.591624
1.04435
1.18089
1.21322
1.19511
1.15454
1.10704
1.06052
1.01844
0.981729
0.94934
0.917576
0.567748
1.0375
1.18836
1.23013
1.2169
1.17774
1.12945
1.081
1.03657
0.99759
0.963311
0.930095
0.54331
1.03207
1.19854
1.25027
1.24197
1.20405
1.15469
1.10398
1.05689
1.01527
0.97874
0.943605
0.518186
1.03158
1.21465
1.27605
1.27161
1.23431
1.18348
1.13022
1.07998
1.03524
0.995911
0.958532
0.488613
1.03291
1.2296
1.30244
1.29991
1.26329
1.21127
1.15664
1.10333
1.05616
1.01397
0.974891
1.03632
0.00467331
0.345276
0.319954
0.318904
0.287545
0.278052
0.646696
0.827138
0.77429
0.565242
0.00775983
0.0324748
3.00898
0.274864
0.00354797
2.8216
0.110088
0.107139
0.00348162
0.139786
0.175449
0.144066
0.0268144
1.05165
0.344381
0.159167
0.372226
0.601658
0.809227
0.535301
1.16629
0.00419578
0.555767
0.0310064
0.164624
0.387634
0.468254
0.392964
0.00816245
0.0700106
0.00337567
0.071283
0.527484
0.269121
0.172415
0.0605604
0.0247315
0.272062
0.139243
0.16281
0.634444
0.263651
0.00321463
1.98045
0.00444064
0.0106167
0.00337264
0.468954
0.26426
0.154838
1.191
0.0032091
0.016813
0.182393
0.00452617
0.883447
0.253014
1.53175
0.685922
1.87685
0.0533352
0.383305
0.724758
0.0272771
0.00322989
0.793851
0.00309482
0.0698851
0.240934
0.102983
0.00310374
0.406214
0.295932
0.0162953
1.11424
0.879161
0.00319467
0.388981
0.238411
0.3536
0.650519
0.00319825
0.00391792
0.45753
0.00326099
0.359719
0.0127516
0.00317198
0.893845
1.10315
0.202207
0.00335184
0.00433462
0.0031213
0.515467
0.510515
0.689687
0.530046
0.00871389
0.0941746
0.00312695
0.20215
0.00372408
0.00318214
0.219222
0.0194585
0.218723
1.08859
0.175249
1.01888
0.0292202
1.6934
0.198286
0.125148
1.28715
0.00404727
1.96431
0.0321765
0.00320012
0.231741
0.00323636
0.233446
0.0043396
0.161921
0.00513994
0.233907
0.593077
0.207634
0.00584293
0.016961
0.144993
0.26991
0.0251348
0.175
1.89022
0.299184
0.00453696
0.978804
0.374105
0.0626427
0.213363
0.00309258
0.11419
0.155543
0.00314709
0.248249
0.00320272
1.27464
0.00707003
0.026937
0.00356731
0.127513
0.01325
0.14879
0.0839832
0.984157
0.292395
0.335203
0.00307411
1.88122
0.75444
1.98523
0.0178536
0.00306294
0.571592
0.00311684
0.306525
0.137124
0.716156
1.00864
0.436195
0.0626604
0.371434
0.00338899
0.26247
0.00317763
0.00315332
0.175758
0.00318554
0.48517
0.00310687
0.936526
0.0047517
0.283848
0.296078
0.271527
0.164719
0.00312695
3.16515
1.01551
0.318576
0.41464
0.216924
0.325015
0.104509
0.0911487
0.227764
0.699418
0.215864
0.288618
0.896036
0.500527
0.397212
0.00315442
0.283708
0.0129306
0.424848
3.24168
0.210893
0.295295
1.01665
0.339486
0.00315653
0.0031877
1.30346
1.11356
0.00326918
4.19486
0.0322041
0.312369
0.120886
0.0031176
0.942134
0.411702
0.253719
0.246026
1.07433
0.652404
0.322028
0.154045
0.160473
1.25065
1.68057
0.374809
0.28217
0.228239
0.00350377
1.39088
0.290102
0.647567
0.722532
0.376954
3.94412
0.237364
0.239184
0.208473
0.310305
0.57519
0.342275
0.215311
0.258313
0.0156949
0.0895783
0.683646
0.262065
0.918029
0.506814
0.358992
1.48964
0.285708
0.050055
1.63339
0.209201
0.208459
1.68962
0.243002
0.260505
0.302524
0.204135
0.866065
0.239454
0.372995
0.331698
0.610945
0.272894
0.4719
0.208063
1.11625
0.128072
0.202207
1.66242
0.226366
0.224921
0.283448
0.919587
0.118991
0.206189
0.0674213
0.480994
0.183113
0.105052
1.36414
2.04986
0.153323
0.949853
0.324235
0.00318779
0.200191
0.165304
0.210182
0.289516
0.0031574
1.18164
0.320406
0.0670255
0.225836
0.75867
0.00315193
0.638206
0.0386248
0.576697
0.420149
4.91871
0.503682
0.754794
0.536146
0.00313866
0.00316288
0.285636
0.444258
0.00309394
0.514684
0.00311554
0.00316216
0.003224
0.00311703
0.139686
0.0031636
0.00580005
1.03251
0.512197
0.003229
0.33477
0.00983152
0.195959
0.295529
1.28295
4.13439
0.478235
0.00304291
0.00323792
0.0815756
0.133357
0.208986
0.00306669
0.0984729
0.316519
0.874612
0.375795
0.178097
0.273987
1.02175
4.07452
0.155988
0.323681
0.00364683
0.00318512
0.157873
0.255709
0.115805
0.173894
0.506168
2.74307
1.68906
0.143104
0.343274
1.00983
0.00319782
0.417547
0.748783
0.00526296
0.00316362
0.520318
3.8199
0.734803
0.00308679
0.0486462
0.154077
0.0255484
0.00319841
0.829603
0.380606
0.277977
0.282464
0.00374533
3.80296
0.00314257
0.234627
0.541852
0.00647497
0.0111034
0.957308
0.00877318
1.40424
0.76653
1.14642
0.650297
0.172564
0.681807
0.00313942
0.00310178
0.00317218
1.03412
0.0751218
1.26201
2.75891
0.164285
0.591895
0.00317875
0.01065
0.274444
0.00308143
0.00317145
0.703186
0.00308779
0.22676
0.912365
0.372377
0.00304647
0.0074769
0.110119
0.115509
0.236843
0.144258
0.00310506
3.33357
0.833041
0.108939
0.0123516
0.328103
0.199677
0.00709795
0.279535
0.00688398
0.84145
0.00352626
0.250015
0.13228
0.0031162
1.29731
0.238241
0.322018
0.00928041
0.468815
0.143739
0.00516129
0.217565
0.490623
0.350702
1.10862
0.0239647
0.0506128
0.0115039
1.3071
0.672984
0.0626321
0.136901
0.162331
0.334753
0.181321
0.51158
1.10298
0.00305661
2.04178
0.910934
0.226318
0.00309813
0.268303
0.958014
0.024349
0.437164
0.349143
0.255405
0.126195
0.177567
0.259395
0.00358446
0.0188561
0.87176
0.0389817
0.00438259
0.922767
4.07593
0.0393837
0.200431
0.784975
0.0896072
0.491356
0.259871
0.839937
0.320984
0.29167
0.00322988
0.0847186
0.448245
0.382093
1.3277
0.214752
1.41785
0.937249
3.74119
0.883714
0.308953
0.00316683
1.25932
0.204284
0.797972
0.413974
0.162587
0.0839524
0.423959
0.00321673
0.297699
0.00317777
0.341644
0.419115
0.213319
0.175499
1.26691
0.241317
1.03771
0.639264
1.97045
0.00321734
0.123133
0.929151
2.44432
0.195647
0.714109
0.00361467
0.0281284
0.348262
1.85143
0.589222
0.00310237
0.0579679
0.00312256
0.0584114
0.35132
0.0374248
0.842275
0.142237
0.589953
0.155062
0.124447
1.2297
0.708824
0.00319513
0.00319638
0.257405
1.21253
0.276251
0.595617
0.439421
0.664047
0.267288
0.00304473
0.186314
0.253799
0.00485245
1.04504
0.265255
0.176827
0.274957
0.0126932
0.00305066
0.0236196
0.0031391
0.643895
0.814164
0.709819
0.634961
0.00319252
1.47258
0.0894109
0.742987
0.134644
1.72602
0.00841645
0.153944
0.00307754
0.496991
0.716335
0.316042
0.407579
0.00304265
1.2965
0.802224
0.511003
0.00311729
0.0698463
0.809962
0.614542
0.00608951
2.17214
0.00373596
0.800122
0.61069
0.00362761
0.131121
0.0873406
0.201516
0.00310538
0.00319886
1.1528
0.432115
0.322219
0.526747
0.004873
0.12753
0.0978338
0.765282
0.208012
0.00395179
0.207393
1.20836
0.00307869
0.00818723
0.287005
0.635761
1.11175
0.00315781
0.729288
0.222003
1.30359
0.0296861
0.151417
0.816379
0.00319934
0.199501
0.13725
0.376013
0.381152
0.721307
0.274164
1.21211
1.17236
0.28211
2.70424
0.00323581
0.00315023
1.49137
0.779931
0.00475145
0.00315673
0.470972
0.00320625
0.820001
0.540261
0.246858
0.00311731
0.804409
0.0509472
0.292063
1.21095
0.236026
0.147768
0.144306
1.34162
0.00319209
0.284554
0.977326
0.235173
0.55437
0.00671768
0.530799
0.261875
2.03127
0.00313008
0.14795
0.679939
0.305547
0.00332018
0.0949105
0.342879
0.439905
1.26439
0.0589365
1.86949
0.406677
0.0923322
0.404863
0.00313409
0.00735366
0.360356
0.00306922
0.175753
0.00316521
0.244762
0.0107494
0.835791
0.0032187
0.110109
0.494489
1.60431
0.354613
0.666474
0.16267
2.43991
0.0155555
0.0930949
0.568868
0.00309929
0.00320601
0.380235
0.155154
0.248896
0.390594
0.00328347
0.216293
0.218816
0.201102
0.489974
1.14324
0.2002
0.00319666
1.88254
2.42203
0.506964
0.00323832
0.0107904
2.08648
0.261087
0.00311954
1.28905
0.00310059
0.0800869
2.73639
0.00354577
0.291292
0.00314939
0.0563027
0.75142
0.00324368
0.00401341
0.00318308
0.0037974
0.0216034
3.8002
0.801351
0.0933924
0.242002
0.00316396
0.761049
0.00317331
0.246715
0.231545
0.0246392
0.15923
0.0138465
1.14614
0.0031838
4.32082
0.216314
0.62536
0.351023
0.162467
0.00309679
0.1939
1.09346
0.128854
0.747641
0.882198
1.68757
0.349606
0.0417899
0.624373
0.0836399
0.00406098
0.106089
2.46787
1.14339
0.119329
0.00818391
0.298123
0.0037528
0.441347
0.868123
1.0822
0.838111
0.892432
0.0370505
0.00582418
0.326709
0.225151
0.0481759
0.27023
0.00316072
0.261368
1.95853
0.00330145
1.69062
0.779499
0.114143
0.101401
1.44525
0.0235723
0.100841
0.454914
0.309071
0.292586
0.00322322
0.670652
0.0760059
0.27129
0.382939
0.199148
0.220844
0.00684491
0.684203
0.00317335
0.00316046
0.228154
0.104424
0.158914
1.91157
0.00304763
1.13595
0.064303
0.0575537
0.00338866
1.71578
0.361462
0.0894999
0.780905
0.0594815
1.15957
0.153941
0.00314242
1.19356
2.08201
0.00545166
0.00873326
0.203669
1.03353
0.0988305
1.32432
0.0351017
0.232259
0.10356
0.156221
0.677535
0.203351
0.00318774
1.17117
0.32943
0.0150868
0.196081
4.24446
0.27696
0.00317657
0.003075
0.760501
0.184582
1.00929
0.00306768
0.711634
0.294403
0.408814
0.00376471
0.313859
0.773633
0.00537273
0.259173
0.00321575
1.11885
0.211589
0.346072
0.262901
0.00314592
0.00314546
0.345161
1.40018
0.383944
0.728898
0.0030586
0.0452379
0.00320776
0.00624727
1.15518
0.073818
0.096583
0.124126
0.325928
0.30555
0.356306
1.20514
0.0031727
0.305042
0.728478
0.246217
0.00319247
0.938932
0.00320488
0.00316619
0.0880954
0.212569
0.0250598
1.36139
0.203769
2.79272
0.00328412
0.00475612
0.0395143
0.903057
0.304226
0.962533
0.00316804
0.00314816
0.00627973
0.00833675
1.10026
0.802085
0.640865
0.123033
0.0446605
0.313843
0.163852
0.577908
0.275617
0.875702
0.312381
0.0030815
0.332469
0.00536117
0.193331
0.885219
0.184896
0.23077
0.132448
0.0038064
1.33837
0.513881
0.485295
0.31524
0.00315919
0.588595
0.758902
0.333983
0.00820314
0.909129
0.48003
0.834749
0.328461
0.336576
0.588699
0.119534
0.861045
0.256162
0.0974406
0.23633
0.00317862
1.20956
0.862434
0.00311792
0.680884
0.00476739
0.538463
0.204717
0.236056
0.267341
0.730575
0.947471
0.262025
0.130529
0.175052
0.219211
0.012497
0.00310439
1.02386
0.0613053
0.934361
0.54975
0.222647
0.830838
0.54539
0.00314495
0.278741
1.53366
1.06063
0.226487
0.239565
0.567748
1.8902
0.190925
0.233484
0.0248319
0.0833054
0.54743
1.19121
0.111118
0.838358
0.817058
0.78158
0.239696
0.230032
0.422996
0.689219
0.00319154
1.93474
0.669877
0.203393
0.00319069
0.588565
0.471319
0.29525
0.00317396
0.591324
0.00317244
0.242908
0.0908316
0.00319409
0.819459
0.347978
0.00310569
0.531702
0.374021
0.605649
0.25896
0.519238
0.279487
0.700957
0.169457
0.156175
0.00312914
0.00470086
0.344155
0.172918
0.0230127
0.00322951
0.355249
0.00602814
0.119092
0.118005
0.443282
0.206861
0.0572774
0.094023
0.550066
1.63099
0.33017
4.10773
0.866326
0.00311838
0.540906
0.586074
1.67135
0.00312655
0.172713
0.00318786
0.00358916
0.27788
0.288062
0.0389561
0.00340679
0.801401
3.71856
0.0073726
0.00317625
0.128968
0.260786
0.0238937
0.0736575
3.84507
0.139704
0.00338936
0.00317719
0.965085
0.263292
0.13492
0.059021
0.651718
1.13144
0.39227
0.247396
0.675735
0.00317321
0.499322
0.00315964
0.231146
0.274687
5.36943
0.177785
0.0894067
0.00382507
1.18097
0.00319449
0.00313391
0.00584359
0.272269
0.287891
0.972854
0.00314921
0.504767
0.00317224
0.692325
0.972985
0.00320493
0.725607
0.223394
0.00317299
0.00330106
0.0317507
1.10178
0.381663
0.0263292
0.00317419
0.00313236
0.848579
0.6857
0.327245
0.750358
0.117051
0.438533
0.00314883
0.0102841
0.380811
0.8106
0.755091
0.00884859
0.00317626
0.398437
0.00319728
0.203775
0.805721
0.351723
0.0429423
0.200961
0.503502
0.156197
0.00316966
0.510888
1.32734
0.648321
0.00642109
0.0305
0.686925
3.68942
0.0545409
0.371794
0.00311027
0.00308848
0.00321404
0.0187151
0.402226
1.07093
0.0103866
0.221006
0.630771
1.23403
0.205798
0.0196381
0.00794249
0.0075611
0.15737
0.171668
0.237424
0.00322348
1.33905
0.00314317
0.0136105
0.83983
0.84914
0.0362486
0.370763
0.465688
0.00409556
0.129903
0.253387
0.00315477
0.00377913
1.11849
0.00365398
0.0032248
0.70735
0.235999
2.09264
0.208879
2.40823
0.00355908
0.00311512
3.23995
0.296424
0.224086
0.496437
0.0600858
0.233271
0.195561
1.0209
0.810906
0.588361
0.582114
0.233405
0.110839
0.322302
0.72828
0.0145994
0.351721
0.00392046
0.439636
0.365884
0.106524
0.382122
0.188053
0.411457
0.206213
0.262738
1.10824
0.460264
0.216155
0.31788
0.707278
0.324044
0.00420796
0.00315951
0.110554
2.22036
0.00316167
1.78257
0.00312456
0.00986212
0.340045
0.221589
0.816781
0.679431
0.902464
1.13517
0.519381
0.387011
0.00316691
0.290575
1.0538
0.00323919
1.2427
0.00712338
1.70868
0.940489
1.1335
0.274449
0.206355
0.282028
0.0915215
0.284917
1.23113
0.360694
0.777119
0.16924
0.203238
0.0850437
0.231823
0.952699
0.00952301
0.662507
0.00319426
0.0039302
0.300146
1.51242
0.338321
0.274151
0.163696
0.11016
0.121053
0.00347
0.340901
0.00346851
0.705157
0.00341667
0.0577938
0.943105
0.171194
0.304714
0.333913
0.317982
0.00622304
0.00321428
0.0986972
0.267103
0.114252
0.517348
0.042309
0.36629
0.238346
0.374877
0.79125
0.00359189
0.00314781
1.68249
0.225621
0.171423
0.807096
0.684859
0.813888
0.00984378
1.67889
0.336326
0.213205
0.00347584
0.195923
0.403515
0.205592
0.206687
0.265853
0.00323023
0.47041
0.00313394
0.627869
0.0106444
0.43977
0.11749
0.407136
0.00324326
6.53267
0.0031925
1.5048
0.025462
0.00317489
0.0145201
0.2751
0.00317078
0.00318042
0.394172
0.0325899
0.32759
0.0567401
0.00332566
0.219581
0.185857
0.445486
0.0033398
0.224007
0.189639
1.35582
0.703638
0.394898
0.41645
0.215741
0.304799
0.778144
0.831779
0.211315
0.00322413
0.144137
0.362225
0.306634
0.00471273
0.00851079
0.234953
1.57341
0.00318406
0.205087
1.23066
0.00305859
0.845896
0.931939
0.356972
0.595046
0.793071
0.259149
0.129456
2.58232
0.409245
0.880203
0.818103
0.22274
0.106896
0.00316627
0.420823
0.00586326
0.00321786
0.00313409
0.300826
0.00316627
0.00373216
0.53482
4.05271
0.405201
0.210789
0.830122
0.239439
0.00318183
0.1662
1.14364
0.0251663
0.163658
1.01457
0.313561
0.124892
0.0310656
0.00314363
0.00316798
0.0271863
0.0446533
0.303538
0.300627
1.2312
0.267757
0.2688
0.00395195
0.5029
0.214162
0.0032118
0.342628
3.36885
0.00320795
0.36061
1.01632
0.735525
0.656499
0.188921
1.09777
0.00356069
0.209165
0.00331773
0.00632618
0.00320971
0.830783
0.565615
0.0737913
0.00319327
0.00307391
1.11309
0.386647
0.287708
0.235939
0.352545
0.435289
0.305854
0.34782
0.350654
0.00317719
0.150469
0.122866
0.135657
0.38503
1.05489
0.763545
0.591361
0.363824
1.11168
0.826519
0.957488
0.416745
0.877454
0.0643684
0.821475
0.39345
0.0279613
1.01179
0.852053
0.444737
0.00311515
0.00320084
0.00360825
0.00443772
0.472875
0.00305204
0.494636
0.165339
0.996017
0.763199
0.00317114
0.471677
0.283732
0.187083
0.275753
0.390229
0.549953
0.00326448
0.00319927
0.00908024
0.100049
0.00313234
0.637774
0.267237
0.251004
0.756312
0.51186
0.441856
0.532339
0.00316787
0.319021
0.665691
0.00381117
0.0785755
0.409891
0.314922
0.53435
0.192973
0.00325515
0.376259
0.35918
0.00384897
0.020414
0.00315781
0.179114
0.00440132
0.143065
1.28257
0.111289
0.073186
0.997596
1.81196
0.00326847
0.625082
0.00306518
0.224651
0.347028
0.248466
0.4807
0.69074
0.673471
0.801644
1.21834
0.742725
0.00317857
0.00314515
0.0529378
0.100965
0.603046
0.171962
0.00319319
1.58229
0.252442
0.00823444
0.784465
0.0584002
0.00814295
0.0401553
0.993683
0.00645271
0.00319453
0.259054
0.206068
0.637625
0.116558
0.226533
0.202547
0.00321322
0.29108
0.0898917
0.0597684
0.00337456
0.203121
0.531136
0.173209
1.44383
1.32981
0.316463
0.411667
0.00316334
0.360186
0.00319483
2.72158
0.0102955
0.430554
0.0938421
0.836621
0.0162863
0.0093147
0.246071
0.30611
1.30144
0.00356348
0.210827
0.482618
0.609594
0.184925
0.998949
0.120083
0.00343345
0.00320506
0.477477
0.632409
1.06083
0.287978
0.0844176
0.530503
0.328916
0.814834
0.0457644
0.00316897
0.00318277
0.121625
0.707038
0.686653
0.987386
0.00353215
0.0109303
0.166756
0.453072
0.269157
0.755421
0.350461
0.87536
0.00319887
0.00320896
1.132
0.275238
0.8815
2.87214
0.360648
0.0245451
1.40615
0.00318346
1.0229
0.0275574
0.0306407
0.0031709
0.0415517
0.0841293
0.833575
0.790554
0.00322673
0.758275
0.00315964
0.60158
1.56001
0.00314502
0.15642
0.00322657
0.259625
0.126998
0.174054
0.00308818
0.262127
0.211825
0.257145
1.01912
0.168957
1.2196
0.215862
0.828819
0.237911
1.11303
0.634248
0.00383921
0.00320795
0.375772
0.194001
0.818644
0.00317722
2.10457
0.00315892
0.00477696
0.0366523
0.00315985
1.13952
0.96935
0.00324379
0.662203
0.255284
0.102033
0.705854
0.00607348
0.00312886
0.423663
0.383508
0.0097157
0.772731
6.65329
1.35279
0.154165
1.19227
0.103824
0.00318523
0.00368528
0.0350266
0.136763
0.840484
1.08492
1.31289
0.7918
0.531715
0.506639
0.255663
0.647106
1.93648
0.589669
0.042865
0.0779471
0.276635
1.50065
0.00338115
0.193353
0.652317
0.333127
0.00317254
0.424669
0.00306208
0.0138156
0.843491
0.00338766
0.298514
1.84652
0.00318984
0.35228
0.00351467
0.336867
0.0140432
0.00406482
0.763235
0.25577
0.911654
0.397496
1.11597
1.64585
0.489975
0.175336
0.748588
0.387037
0.00311567
0.578341