/*--------------------------------*- C++ -*----------------------------------*\
| =========                 |                                                 |
| \\      /  F ield         | OpenFOAM: The Open Source CFD Toolbox           |
|  \\    /   O peration     | Version:  2.3.1                                 |
|   \\  /    A nd           | Web:      www.OpenFOAM.org                      |
|    \\/     M anipulation  |                                                 |
\*---------------------------------------------------------------------------*/
FoamFile
{
    version     2.0;
    format      ascii;
    class       surfaceScalarField;
    location    "0.79";
    object      phi;
}
// * * * * * * * * * * * * * * * * * * * * * * * * * * * * * * * * * * * * * //

dimensions      [0 3 -1 0 0 0 0];

internalField   nonuniform List<scalar> 
2700
(
3.01615e-06
4.20906e-05
-3.83844e-05
2.57126e-06
4.07117e-05
-4.02778e-05
1.35414e-06
4.11169e-05
-3.99123e-05
8.38069e-07
4.09741e-05
-4.04721e-05
2.65216e-07
4.11187e-05
-4.05602e-05
-2.13138e-07
4.10852e-05
-4.0621e-05
-5.25675e-07
4.0913e-05
-4.06147e-05
-5.85498e-07
4.06368e-05
-4.0592e-05
-3.62978e-07
4.03398e-05
-4.05798e-05
4.01298e-05
-4.05058e-05
8.62746e-07
8.57985e-05
-4.45873e-05
1.26812e-06
8.54962e-05
-4.52075e-05
1.24348e-06
8.63575e-05
-4.52348e-05
8.13947e-07
8.68421e-05
-4.54574e-05
2.15315e-07
8.72318e-05
-4.55332e-05
-3.73178e-07
8.72234e-05
-4.55679e-05
-7.68593e-07
8.68339e-05
-4.55439e-05
-7.88124e-07
8.61392e-05
-4.55037e-05
-3.95118e-07
8.53496e-05
-4.5424e-05
8.44667e-05
-4.4746e-05
1.36506e-06
0.000137578
-5.3167e-05
1.92504e-06
0.000139257
-5.43435e-05
1.85329e-06
0.000140915
-5.45083e-05
1.15637e-06
0.000142215
-5.46964e-05
2.02307e-07
0.000142965
-5.47987e-05
-7.46607e-07
0.000142979
-5.48255e-05
-1.41988e-06
0.00014226
-5.47737e-05
-1.51132e-06
0.0001409
-5.46922e-05
-9.38498e-07
0.000139316
-5.45609e-05
0.000137248
-5.37322e-05
2.12143e-06
0.000203721
-6.82773e-05
3.02834e-06
0.000207502
-6.91661e-05
2.86892e-06
0.000210322
-6.92578e-05
1.74764e-06
0.00021272
-6.93912e-05
2.07296e-07
0.000213995
-6.94955e-05
-1.33533e-06
0.000214034
-6.95178e-05
-2.47278e-06
0.000212843
-6.94539e-05
-2.68933e-06
0.000210487
-6.93791e-05
-1.86154e-06
0.00020779
-6.93101e-05
0.000203907
-6.85154e-05
7.01296e-06
-9.99122e-05
0.000296651
8.18693e-06
-0.00010202
0.000308386
6.80547e-06
-0.000102804
0.00031455
3.82104e-06
-0.000103376
0.000319125
2.84639e-07
-0.000103711
0.00032129
-3.25023e-06
-0.000103741
0.000321354
-6.24051e-06
-0.000103465
0.000319344
-7.67827e-06
-0.000102958
0.000314929
-6.6539e-06
-0.000102231
0.000309049
-0.000100179
0.000297481
6.70186e-07
3.60295e-05
-7.5095e-05
8.41239e-07
3.6866e-05
-7.73263e-05
8.84589e-07
3.74076e-05
-7.73764e-05
6.02359e-07
3.75493e-05
-7.77536e-05
1.90423e-07
3.77022e-05
-7.78653e-05
-2.24847e-07
3.76905e-05
-7.79108e-05
-5.22286e-07
3.75305e-05
-7.78621e-05
-6.33356e-07
3.72598e-05
-7.77566e-05
-5.10176e-07
3.69109e-05
-7.76317e-05
3.6053e-05
-7.70818e-05
6.37591e-07
7.53028e-05
-8.45129e-05
1.00728e-06
7.66987e-05
-8.54266e-05
1.07375e-06
7.76541e-05
-8.55651e-05
7.1002e-07
7.82743e-05
-8.58357e-05
1.78817e-07
7.86554e-05
-8.59721e-05
-3.62979e-07
7.86575e-05
-8.6009e-05
-7.5051e-07
7.829e-05
-8.59328e-05
-8.4692e-07
7.76209e-05
-8.57867e-05
-5.90957e-07
7.68095e-05
-8.55984e-05
7.54701e-05
-8.47657e-05
1.36801e-06
0.000121028
-0.00010028
1.81143e-06
0.00012329
-0.000101396
1.70541e-06
0.000124959
-0.000101724
1.06032e-06
0.000126276
-0.000102068
1.79399e-07
0.000126997
-0.000102273
-7.08357e-07
0.000127015
-0.000102309
-1.36897e-06
0.000126333
-0.000102171
-1.56617e-06
0.000125026
-0.000101918
-1.17637e-06
0.000123457
-0.000101614
0.00012118
-0.000100626
2.6271e-06
0.000176207
-0.000126089
3.18086e-06
0.000181022
-0.000127458
2.81365e-06
0.000183987
-0.000127921
1.67569e-06
0.000186405
-0.000128382
1.91197e-07
0.000187655
-0.000128668
-1.29878e-06
0.000187694
-0.000128705
-2.46274e-06
0.000186529
-0.000128489
-2.90081e-06
0.000184186
-0.000128102
-2.43909e-06
0.000181366
-0.000127681
0.000176597
-0.000126363
6.72851e-06
-0.000174763
0.000244364
7.68061e-06
-0.000177266
0.000255356
6.30132e-06
-0.000178716
0.000261323
3.51684e-06
-0.000179953
0.000265815
2.60514e-07
-0.000180652
0.000267902
-2.99554e-06
-0.000180707
0.000267963
-5.7893e-06
-0.000180115
0.000266022
-7.22123e-06
-0.000178985
0.000261695
-6.42215e-06
-0.000177632
0.000256019
-0.000175203
0.000245248
1.00302e-06
2.89306e-05
-0.00010504
9.48321e-07
2.92433e-05
-0.000106527
7.85773e-07
2.95496e-05
-0.000106777
4.87948e-07
2.96884e-05
-0.000107158
1.48102e-07
2.98017e-05
-0.000107342
-1.83985e-07
2.97951e-05
-0.000107388
-4.29277e-07
2.96646e-05
-0.000107296
-5.38659e-07
2.94399e-05
-0.000107103
-4.71306e-07
2.91425e-05
-0.000106859
2.83759e-05
-0.00010594
7.87023e-07
5.92105e-05
-0.000115593
9.60239e-07
6.02637e-05
-0.000116634
9.11105e-07
6.09849e-05
-0.000116966
5.83141e-07
6.15073e-05
-0.000117341
1.44953e-07
6.18115e-05
-0.000117557
-2.94419e-07
6.18131e-05
-0.000117601
-6.18352e-07
6.15102e-05
-0.000117468
-7.2674e-07
6.09537e-05
-0.000117208
-5.60245e-07
6.02608e-05
-0.000116899
5.9035e-05
-0.000115994
1.25788e-06
9.35661e-05
-0.000135904
1.56133e-06
9.56171e-05
-0.000137064
1.41007e-06
9.70176e-05
-0.000137615
8.65874e-07
9.81189e-05
-0.000138143
1.44612e-07
9.87106e-05
-0.000138458
-5.79054e-07
9.87247e-05
-0.000138503
-1.13367e-06
9.81601e-05
-0.000138275
-1.3375e-06
9.7072e-05
-0.000137842
-1.07214e-06
9.57181e-05
-0.000137346
9.36099e-05
-0.000136275
2.38565e-06
0.000133383
-0.000168293
2.78301e-06
0.000137734
-0.000169967
2.38442e-06
0.000140359
-0.000170856
1.39826e-06
0.000142402
-0.000171669
1.55135e-07
0.000143444
-0.000172145
-1.0926e-06
0.000143472
-0.000172196
-2.09555e-06
0.0001425
-0.000171814
-2.54504e-06
0.000140521
-0.000171096
-2.22717e-06
0.000138006
-0.000170277
0.000133687
-0.000168655
5.70738e-06
-0.000222039
0.000174995
6.31103e-06
-0.000225197
0.000185105
5.08843e-06
-0.000227315
0.000190231
2.81663e-06
-0.000229107
0.000193884
2.05205e-07
-0.000230098
0.000195554
-2.40239e-06
-0.000230167
0.0001956
-4.68254e-06
-0.000229321
0.000194037
-5.94106e-06
-0.000227667
0.000190517
-5.47073e-06
-0.000225678
0.000185635
-0.000222609
0.000175669
4.87293e-07
1.86794e-05
-0.000124218
4.99814e-07
1.90236e-05
-0.000125576
4.56121e-07
1.92163e-05
-0.000125963
2.95945e-07
1.93337e-05
-0.000126346
9.8059e-08
1.94091e-05
-0.000126568
-9.73091e-08
1.94053e-05
-0.000126613
-2.47349e-07
1.93198e-05
-0.00012648
-3.22047e-07
1.91727e-05
-0.000126216
-2.94171e-07
1.89826e-05
-0.000125886
1.85287e-05
-0.000124773
4.46077e-07
3.84548e-05
-0.000135826
5.801e-07
3.91839e-05
-0.00013694
5.5932e-07
3.96574e-05
-0.000137398
3.6466e-07
4.00187e-05
-0.000137843
9.88723e-08
4.02203e-05
-0.000138114
-1.68691e-07
4.02207e-05
-0.000138159
-3.69837e-07
4.0018e-05
-0.000137977
-4.36677e-07
3.96464e-05
-0.000137627
-3.24213e-07
3.91821e-05
-0.000137223
3.84058e-05
-0.000136201
7.58725e-07
6.02826e-05
-0.000158499
9.89282e-07
6.16432e-05
-0.000159759
8.97168e-07
6.26013e-05
-0.000160471
5.53764e-07
6.3351e-05
-0.000161135
9.8402e-08
6.37492e-05
-0.000161534
-3.59946e-07
6.37563e-05
-0.000161583
-7.14607e-07
6.33747e-05
-0.000161279
-8.43197e-07
6.26365e-05
-0.000160709
-6.54209e-07
6.17066e-05
-0.000160062
6.03333e-05
-0.000158857
1.55426e-06
8.42711e-05
-0.000193828
1.86118e-06
8.71432e-05
-0.000195765
1.58589e-06
8.90044e-05
-0.000196972
9.25594e-07
9.04039e-05
-0.000198046
1.03715e-07
9.11087e-05
-0.000198669
-7.20008e-07
9.11274e-05
-0.000198725
-1.39317e-06
9.04605e-05
-0.000198214
-1.70216e-06
8.91082e-05
-0.000197244
-1.4538e-06
8.7317e-05
-0.000196123
8.44687e-05
-0.000194232
3.69799e-06
-0.000246435
0.000105005
4.13123e-06
-0.000250025
0.000111583
3.30979e-06
-0.000252517
0.00011508
1.82291e-06
-0.000254599
0.000117436
1.34046e-07
-0.000255746
0.000118506
-1.55409e-06
-0.000255826
0.000118525
-3.04584e-06
-0.000254832
0.000117522
-3.89288e-06
-0.000252905
0.000115243
-3.55289e-06
-0.000250554
0.000111903
-0.000247042
0.00010539
1.4758e-07
7.56103e-06
-0.000131939
1.24174e-07
7.67986e-06
-0.000133245
1.06835e-07
7.74097e-06
-0.0001337
7.74039e-08
7.77704e-06
-0.000134108
5.26879e-08
7.79893e-06
-0.000134357
2.76659e-08
7.79489e-06
-0.000134398
1.08868e-09
7.76413e-06
-0.000134233
-2.98613e-08
7.71261e-06
-0.000133913
-5.29128e-08
7.64411e-06
-0.000133522
7.48325e-06
-0.000132317
1.22845e-07
1.56767e-05
-0.000144074
1.43191e-07
1.59448e-05
-0.000145235
1.37341e-07
1.6122e-05
-0.000145784
9.87473e-08
1.62536e-05
-0.000146292
5.24896e-08
1.63239e-05
-0.000146604
4.42859e-09
1.63203e-05
-0.000146647
-3.79679e-08
1.62413e-05
-0.000146423
-6.38694e-08
1.60988e-05
-0.000145999
-5.73222e-08
1.59166e-05
-0.000145512
1.56253e-05
-0.000144405
2.35318e-07
2.47685e-05
-0.000167831
2.92536e-07
2.53212e-05
-0.000169198
2.59202e-07
2.5731e-05
-0.000170052
1.64487e-07
2.60405e-05
-0.000170831
4.86947e-08
2.62e-05
-0.000171297
-6.90207e-08
2.61988e-05
-0.000171346
-1.69978e-07
2.60371e-05
-0.000170978
-2.20768e-07
2.5726e-05
-0.000170289
-1.84142e-07
2.53204e-05
-0.000169505
2.47608e-05
-0.000168179
5.75417e-07
3.46792e-05
-0.000204313
6.67942e-07
3.59378e-05
-0.000206467
5.46774e-07
3.68177e-05
-0.000207928
3.14636e-07
3.7448e-05
-0.000209209
4.67311e-08
3.77586e-05
-0.000209946
-2.22813e-07
3.77605e-05
-0.000210005
-4.60584e-07
3.74605e-05
-0.000209386
-5.96111e-07
3.68419e-05
-0.000208215
-5.30445e-07
3.59876e-05
-0.000206844
3.47372e-05
-0.000204733
1.52025e-06
-0.000255373
4.21297e-05
1.66084e-06
-0.000259191
4.49956e-05
1.28048e-06
-0.000261929
4.6648e-05
6.88659e-07
-0.000264209
4.76946e-05
5.37537e-08
-0.000265466
4.81533e-05
-5.78514e-07
-0.000265544
4.81594e-05
-1.17205e-06
-0.00026445
4.77096e-05
-1.56145e-06
-0.000262323
4.66928e-05
-1.46176e-06
-0.00025973
4.50976e-05
-0.000255982
4.22422e-05
-2.02605e-07
-4.10048e-06
-0.000127648
-3.00302e-07
-4.25712e-06
-0.000128903
-2.77073e-07
-4.34516e-06
-0.000129392
-1.60394e-07
-4.42147e-06
-0.000129818
1.22823e-08
-4.46732e-06
-0.000130078
1.86977e-07
-4.47282e-06
-0.000130115
3.05693e-07
-4.43918e-06
-0.000129928
3.27041e-07
-4.37559e-06
-0.000129574
2.31697e-07
-4.29875e-06
-0.000129141
-4.15885e-06
-0.000127932
-2.40888e-07
-8.10233e-06
-0.000139843
-3.66922e-07
-8.34243e-06
-0.000141035
-3.44459e-07
-8.51098e-06
-0.000141652
-2.00701e-07
-8.66084e-06
-0.000142209
9.55632e-09
-8.74782e-06
-0.000142546
2.20384e-07
-8.75799e-06
-0.000142587
3.64842e-07
-8.69006e-06
-0.000142329
3.85269e-07
-8.55978e-06
-0.000141847
2.60041e-07
-8.40729e-06
-0.000141289
-8.18001e-06
-0.00014013
-3.63622e-07
-1.1647e-05
-0.00016393
-5.2507e-07
-1.19559e-05
-0.000165431
-4.87313e-07
-1.2181e-05
-0.000166428
-2.85263e-07
-1.23872e-05
-0.000167315
-3.77476e-10
-1.2505e-05
-0.000167834
2.85512e-07
-1.25171e-05
-0.000167881
4.87394e-07
-1.24226e-05
-0.000167456
5.25997e-07
-1.22392e-05
-0.000166656
3.6877e-07
-1.20329e-05
-0.000165729
-1.17341e-05
-0.000164261
-5.55103e-07
-1.42494e-05
-0.000201157
-7.51229e-07
-1.45854e-05
-0.000203643
-6.8504e-07
-1.47792e-05
-0.000205396
-4.01991e-07
-1.49843e-05
-0.000206894
-1.23974e-08
-1.5103e-05
-0.000207735
3.77336e-07
-1.51148e-05
-0.000207793
6.61841e-07
-1.50208e-05
-0.00020707
7.31753e-07
-1.4837e-05
-0.000205683
5.46646e-07
-1.46635e-05
-0.000204028
-1.43376e-05
-0.000201585
-7.56771e-07
-0.000252425
-1.64354e-05
-1.00441e-06
-0.000256833
-1.66785e-05
-9.22615e-07
-0.000259983
-1.6786e-05
-5.43726e-07
-0.000262558
-1.69933e-05
-2.47239e-08
-0.000263945
-1.71151e-05
4.92903e-07
-0.000264023
-1.71318e-05
8.75972e-07
-0.000262793
-1.70345e-05
9.64311e-07
-0.000260376
-1.68531e-05
7.32925e-07
-0.000257378
-1.67667e-05
-0.000253037
-1.65406e-05
-5.576e-07
-1.58812e-05
-0.000111221
-7.53423e-07
-1.63766e-05
-0.000112344
-6.8583e-07
-1.66473e-05
-0.000112826
-4.14022e-07
-1.68662e-05
-0.000113239
-2.3766e-08
-1.6993e-05
-0.00011349
3.67361e-07
-1.70019e-05
-0.000113521
6.46542e-07
-1.68924e-05
-0.000113331
7.23588e-07
-1.66907e-05
-0.000112974
5.47921e-07
-1.64366e-05
-0.000112539
-1.59488e-05
-0.000111442
-6.60334e-07
-3.22721e-05
-0.000122802
-9.49598e-07
-3.31226e-05
-0.000124013
-8.80993e-07
-3.37107e-05
-0.000124671
-5.29151e-07
-3.41991e-05
-0.000125243
-3.0801e-08
-3.44723e-05
-0.000125582
4.69682e-07
-3.44887e-05
-0.000125616
8.27765e-07
-3.42498e-05
-0.000125346
9.08897e-07
-3.37941e-05
-0.000124838
6.42237e-07
-3.32371e-05
-0.000124233
-3.23987e-05
-0.000123045
-1.09373e-06
-4.88496e-05
-0.000146272
-1.48964e-06
-5.02026e-05
-0.000147969
-1.34392e-06
-5.11943e-05
-0.000149104
-7.93216e-07
-5.20126e-05
-0.000150069
-4.71987e-08
-5.24522e-05
-0.000150615
6.99335e-07
-5.24762e-05
-0.000150658
1.2579e-06
-5.20837e-05
-0.000150195
1.42039e-06
-5.13136e-05
-0.000149311
1.05787e-06
-5.03703e-05
-0.000148245
-4.90367e-05
-0.000146575
-1.9678e-06
-6.42363e-05
-0.000183812
-2.4657e-06
-6.64642e-05
-0.000186893
-2.13559e-06
-6.79214e-05
-0.000189008
-1.2283e-06
-6.90984e-05
-0.000190724
-7.1835e-08
-6.97037e-05
-0.00019165
1.08614e-06
-6.97313e-05
-0.000191703
2e-06
-6.91859e-05
-0.000190889
2.35049e-06
-6.80703e-05
-0.000189283
1.90546e-06
-6.6685e-05
-0.000187275
-6.44861e-05
-0.000184238
-3.46425e-06
-0.000237367
-7.58277e-05
-4.08722e-06
-0.000243302
-7.9374e-05
-3.4179e-06
-0.000247186
-8.1387e-05
-1.9146e-06
-0.000250188
-8.29705e-05
-1.03581e-07
-0.000251724
-8.37337e-05
1.70535e-06
-0.000251794
-8.37645e-05
3.21195e-06
-0.000250409
-8.30752e-05
3.90267e-06
-0.000247566
-8.15645e-05
3.35903e-06
-0.000243863
-7.96587e-05
-0.000238002
-7.61624e-05
-9.02882e-07
-2.72591e-05
-8.30696e-05
-1.20162e-06
-2.82013e-05
-8.38559e-05
-1.08891e-06
-2.87041e-05
-8.42472e-05
-6.59464e-07
-2.90978e-05
-8.45844e-05
-5.46875e-08
-2.93194e-05
-8.479e-05
5.53268e-07
-2.93314e-05
-8.48122e-05
9.93773e-07
-2.91348e-05
-8.46514e-05
1.12819e-06
-2.87656e-05
-8.4355e-05
8.66165e-07
-2.82877e-05
-8.39982e-05
-2.73513e-05
-8.32272e-05
-1.15949e-06
-5.60407e-05
-9.28733e-05
-1.58594e-06
-5.76731e-05
-9.41296e-05
-1.44136e-06
-5.87899e-05
-9.4745e-05
-8.63771e-07
-5.96907e-05
-9.52459e-05
-6.52992e-08
-6.01793e-05
-9.55382e-05
7.35304e-07
-6.0204e-05
-9.55647e-05
1.32489e-06
-5.97647e-05
-9.53244e-05
1.49452e-06
-5.89145e-05
-9.48731e-05
1.11199e-06
-5.78481e-05
-9.43011e-05
-5.62335e-05
-9.30595e-05
-2.03622e-06
-8.66729e-05
-0.000113619
-2.61695e-06
-8.94792e-05
-0.0001156
-2.29243e-06
-9.14735e-05
-0.000116765
-1.33574e-06
-9.30563e-05
-0.000117681
-8.99856e-08
-9.38807e-05
-0.000118183
1.15821e-06
-9.39156e-05
-0.000118216
2.12611e-06
-9.31666e-05
-0.000117781
2.48044e-06
-9.16632e-05
-0.000116932
1.96225e-06
-8.97557e-05
-0.000115833
-8.69834e-05
-0.000113873
-3.89043e-06
-0.000117543
-0.000149064
-4.5851e-06
-0.000122673
-0.000153023
-3.8267e-06
-0.000125862
-0.000155394
-2.15529e-06
-0.000128309
-0.000157164
-1.25938e-07
-0.000129508
-0.000158068
1.9008e-06
-0.000129552
-0.000158111
3.57939e-06
-0.00012845
-0.0001573
4.36772e-06
-0.000126111
-0.00015563
3.77131e-06
-0.000123071
-0.000153378
-0.000117997
-0.00014946
-7.2671e-06
-0.000204148
-0.000143507
-7.97238e-06
-0.000212906
-0.000152377
-6.36777e-06
-0.000217633
-0.000157036
-3.45802e-06
-0.000220936
-0.000160487
-1.76279e-07
-0.000222492
-0.000162039
3.09673e-06
-0.000222549
-0.000162088
6.0001e-06
-0.00022112
-0.000160653
7.61655e-06
-0.000217972
-0.000157335
7.07082e-06
-0.000213479
-0.000152919
-0.000204795
-0.00014414
-1.13413e-06
-3.71753e-05
-4.47682e-05
-1.55504e-06
-3.84132e-05
-4.50325e-05
-1.42005e-06
-3.91475e-05
-4.52454e-05
-8.62168e-07
-3.9722e-05
-4.54337e-05
-7.71872e-08
-4.00377e-05
-4.55507e-05
7.11637e-07
-4.00532e-05
-4.55627e-05
1.28417e-06
-3.9769e-05
-4.54692e-05
1.44956e-06
-3.92271e-05
-4.53025e-05
1.07936e-06
-3.8526e-05
-4.51075e-05
-3.72984e-05
-4.48536e-05
-1.52889e-06
-7.75405e-05
-5.09913e-05
-2.1265e-06
-7.98803e-05
-5.20781e-05
-1.93193e-06
-8.15871e-05
-5.25161e-05
-1.15301e-06
-8.29362e-05
-5.28284e-05
-9.12799e-08
-8.36495e-05
-5.30077e-05
9.73745e-07
-8.36805e-05
-5.30222e-05
1.76752e-06
-8.30325e-05
-5.28718e-05
1.99536e-06
-8.17529e-05
-5.25887e-05
1.45773e-06
-8.01201e-05
-5.21793e-05
-7.78076e-05
-5.10986e-05
-2.9269e-06
-0.000123152
-6.50916e-05
-3.71287e-06
-0.000127693
-6.70214e-05
-3.20221e-06
-0.00013094
-6.79426e-05
-1.84234e-06
-0.000133427
-6.85731e-05
-1.22428e-07
-0.000134675
-6.88999e-05
1.59797e-06
-0.000134721
-6.89183e-05
2.96955e-06
-0.000133576
-6.86301e-05
3.5169e-06
-0.000131201
-6.80416e-05
2.81899e-06
-0.000128096
-6.71722e-05
-0.000123613
-6.52558e-05
-6.07598e-06
-0.000174385
-9.17768e-05
-6.91529e-06
-0.000183891
-9.60031e-05
-5.60493e-06
-0.000189602
-9.80643e-05
-3.08445e-06
-0.000193753
-9.93819e-05
-1.70876e-07
-0.000195682
-9.99973e-05
2.73621e-06
-0.000195741
-0.000100022
5.25676e-06
-0.00019395
-9.94598e-05
6.5907e-06
-0.000189967
-9.82148e-05
5.89753e-06
-0.000184526
-9.62618e-05
-0.000175119
-9.20643e-05
-1.24736e-05
-0.000140796
-0.000225264
-1.27455e-05
-0.000152033
-0.000244522
-9.69954e-06
-0.000156702
-0.000253609
-5.0713e-06
-0.000159386
-0.00025997
-2.35117e-07
-0.000160471
-0.000262576
4.58015e-06
-0.000160499
-0.000262639
9.16926e-06
-0.00015949
-0.000260204
1.2188e-05
-0.000156924
-0.000254053
1.2173e-05
-0.000152543
-0.000245477
-0.000141358
-0.000226379
-1.14155e-06
-4.36323e-05
-1.69178e-06
-4.44886e-05
-1.58618e-06
-4.53588e-05
-9.67566e-07
-4.60611e-05
-8.82867e-08
-4.64398e-05
7.95314e-07
-4.64565e-05
1.4308e-06
-4.61128e-05
1.57044e-06
-4.54479e-05
1.07632e-06
-4.4617e-05
-4.37794e-05
-1.67196e-06
-9.29581e-05
-2.42353e-06
-9.58247e-05
-2.22523e-06
-9.80841e-05
-1.32358e-06
-9.98037e-05
-1.0397e-07
-0.00010068
1.1187e-06
-0.000100714
2.03546e-06
-9.99126e-05
2.26914e-06
-9.82767e-05
1.58632e-06
-9.61189e-05
-9.3295e-05
-3.63945e-06
-0.000154423
-4.53615e-06
-0.000161961
-3.85036e-06
-0.000166727
-2.17895e-06
-0.000170064
-1.39206e-07
-0.000171635
1.89854e-06
-0.000171686
3.57756e-06
-0.000170231
4.29516e-06
-0.000167045
3.50427e-06
-0.000162506
-0.000155051
-8.60251e-06
-0.000237597
-9.12666e-06
-0.000257458
-7.06085e-06
-0.000266874
-3.7537e-06
-0.000272772
-1.93434e-07
-0.000275213
3.35349e-06
-0.000275272
6.63461e-06
-0.000272991
8.69031e-06
-0.000267321
8.36885e-06
-0.000258462
-0.000238742
-2.10907e-05
-0.000357324
-1.86831e-05
-0.000411925
-1.28854e-05
-0.000429411
-6.30996e-06
-0.000438775
-2.61343e-07
-0.000441771
5.7415e-06
-0.000441815
1.22088e-05
-0.000438972
1.78674e-05
-0.000429948
2.06644e-05
-0.000413811
-0.000359437
-5.61558e-05
-0.000543393
0.000242253
-4.05123e-05
-0.000703871
0.00027622
-2.25343e-05
-0.000735125
0.000287638
-9.80512e-06
-0.000745146
0.00029354
-3.13513e-07
-0.000746862
0.000295499
9.07364e-06
-0.000746821
0.000295534
2.14618e-05
-0.000745151
0.000293684
3.89044e-05
-0.000735502
0.000288037
5.52911e-05
-0.000707704
0.000277431
-0.000547758
0.000243644
-0.000119455
-0.000821642
0.000397509
-8.09634e-05
-0.00120607
0.00046364
-3.78079e-05
-0.0012616
0.000483177
-1.5115e-05
-0.00125975
0.000491785
-3.94395e-07
-0.00125551
0.000493817
1.41105e-05
-0.00125527
0.000493811
3.59842e-05
-0.00125898
0.000491857
7.79292e-05
-0.00126118
0.000483556
0.000117879
-0.0012131
0.000465526
-0.00082962
0.000399652
-0.000300556
-0.00116076
0.000639755
-0.000155483
-0.00214093
0.00078961
-4.40457e-05
-0.00220728
0.000834168
-1.1607e-05
-0.00214707
0.000854778
-8.44993e-08
-0.00212564
0.000858494
1.11033e-05
-0.00212501
0.000858479
4.16738e-05
-0.00214462
0.000854887
0.00014999
-0.00220452
0.000835112
0.000296972
-0.00215336
0.000793067
-0.00117751
0.000644875
-0.000327296
-0.00179786
0.00096416
-0.000133619
-0.00317665
0.0008419
-3.71373e-05
-0.00323158
0.000927657
-8.54277e-06
-0.00315039
0.000974561
-8.96072e-08
-0.00312177
0.000987527
8.11674e-06
-0.00312102
0.000987606
3.54545e-05
-0.0031474
0.000975334
0.000129338
-0.00322816
0.000929521
0.000322961
-0.00318946
0.000842448
-0.00182068
0.000966032
0.000343846
-0.00214185
0.000179382
-0.00301234
5.70075e-05
-0.00310938
1.64236e-05
-0.00310999
1.47586e-07
-0.00310568
-1.56944e-05
-0.00310538
-5.41675e-05
-0.00310909
-0.000173119
-0.00310936
-0.000339242
-0.00302348
-0.00215999
-2.56622e-05
-0.000241012
0.000283626
-2.18125e-05
-0.000277671
0.000305486
-1.47487e-05
-0.000287713
0.000314621
-7.08432e-06
-0.00029475
0.000320599
-2.73524e-07
-0.000297021
0.000323076
6.48136e-06
-0.000297061
0.000323142
1.40283e-05
-0.000294957
0.000320845
2.09479e-05
-0.000288095
0.000315102
2.52083e-05
-0.00027884
0.000306518
-0.000242329
0.000284782
-5.04416e-05
-0.000214737
0.000421653
-4.31984e-05
-0.000284885
0.000463505
-2.84069e-05
-0.000299981
0.000480569
-1.33766e-05
-0.000309613
0.000491513
-4.63063e-07
-0.000311966
0.000495747
1.23525e-05
-0.000311993
0.000495839
2.71177e-05
-0.000309829
0.000491854
4.16471e-05
-0.000300392
0.000481268
4.95218e-05
-0.000286448
0.000465169
-0.000216746
0.000423581
-5.2456e-05
1.45114e-05
0.000462777
-3.87434e-05
-7.27611e-05
0.0005637
-1.67501e-05
-7.02813e-05
0.000582371
-6.28958e-06
-5.76455e-05
0.000592246
-1.62327e-07
-5.39543e-05
0.000594255
5.86378e-06
-5.39154e-05
0.000594256
1.58315e-05
-5.73654e-05
0.000592384
3.74774e-05
-6.98828e-05
0.000582824
5.16056e-05
-7.3556e-05
0.000566038
1.39895e-05
0.000465655
-0.000126221
0.000252083
0.000852657
-0.000100581
-0.000175399
0.000918816
-5.61638e-05
-0.000162743
0.000975627
-2.48205e-05
-0.000122291
0.00100778
-8.23592e-07
-0.000108354
0.00101783
2.29887e-05
-0.000108148
0.00101795
5.39903e-05
-0.000121502
0.00100838
9.89115e-05
-0.000162142
0.000976834
0.000124052
-0.000177454
0.000921109
0.00024704
0.000856917
0.000222554
-0.00211241
0.000123794
-0.00308905
4.32535e-05
-0.00319166
1.29192e-05
-0.00320203
1.52224e-07
-0.00320135
-1.2264e-05
-0.00320118
-4.12591e-05
-0.00320167
-0.000119961
-0.00319286
-0.000220011
-0.00310099
-0.00213301
-1.25359e-05
-0.000145237
0.000297886
-1.15155e-05
-0.000157965
0.000310041
-8.45312e-06
-0.000161636
0.000316146
-4.30976e-06
-0.000164617
0.000320571
-1.95542e-07
-0.000165735
0.000322641
3.89693e-06
-0.000165767
0.000322719
8.00561e-06
-0.000164755
0.000320823
1.10302e-05
-0.000161864
0.000316595
1.22862e-05
-0.000158484
0.000310817
-0.000145813
0.00029874
-2.53673e-05
-0.000120976
0.000422708
-2.33839e-05
-0.000140055
0.000443601
-1.7134e-05
-0.000142717
0.000455377
-8.66748e-06
-0.000145614
0.00046402
-3.6173e-07
-0.00014632
0.00046801
7.89603e-06
-0.000146351
0.000468137
1.6277e-05
-0.000145752
0.000464453
2.24578e-05
-0.000142955
0.000456155
2.48165e-05
-0.000140615
0.000444943
-0.000121728
0.000424286
-1.82886e-05
8.7492e-07
0.000359159
-1.21756e-05
2.31616e-05
0.000394328
-6.22868e-06
3.15642e-05
0.000402106
-2.66735e-06
3.60832e-05
0.000406953
-9.85298e-08
3.70821e-05
0.000408235
2.45166e-06
3.70685e-05
0.000408253
5.85751e-06
3.60845e-05
0.000407094
1.16212e-05
3.16967e-05
0.000402399
1.80157e-05
2.35796e-05
0.00039539
1.72933e-06
0.000360166
-6.72648e-05
0.000304718
0.000615947
-5.14578e-05
0.000314036
0.000612054
-3.21151e-05
0.000351446
0.000636311
-1.54391e-05
0.000371771
0.000655326
-6.76427e-07
0.000377684
0.000662382
1.39758e-05
0.000377689
0.000662576
3.04449e-05
0.000371878
0.000656046
4.98535e-05
0.000351512
0.000637521
6.58167e-05
0.000315032
0.000613585
0.000306183
0.00061819
8.33271e-05
-0.00189108
4.35581e-05
-0.0027353
1.46339e-05
-0.00281134
3.86221e-06
-0.00281953
4.97454e-08
-0.0028199
-3.61407e-06
-0.00281987
-1.38804e-05
-0.00281957
-4.23371e-05
-0.00281294
-8.24598e-05
-0.00274591
-0.00190932
-5.10092e-06
-7.52576e-05
0.000302422
-5.11315e-06
-7.93689e-05
0.000310074
-4.0523e-06
-8.0576e-05
0.000314301
-2.18469e-06
-8.18019e-05
0.000317559
-1.12532e-07
-8.23388e-05
0.00031921
1.949e-06
-8.23688e-05
0.000319284
3.8182e-06
-8.18913e-05
0.000317803
4.87901e-06
-8.07209e-05
0.000314711
4.97697e-06
-7.96146e-05
0.000310698
-7.55342e-05
0.000303105
-1.09663e-05
-6.09798e-05
0.000419433
-1.10319e-05
-6.95441e-05
0.000433873
-8.65423e-06
-7.10694e-05
0.000443531
-4.60921e-06
-7.26128e-05
0.000450834
-2.2767e-07
-7.31227e-05
0.000454444
4.14358e-06
-7.31453e-05
0.000454593
8.16572e-06
-7.27286e-05
0.0004513
1.05448e-05
-7.12519e-05
0.00044435
1.06698e-05
-6.98887e-05
0.00043512
-6.14354e-05
0.000420887
-4.33582e-06
-4.02892e-05
0.000342738
-3.17857e-06
-3.25972e-05
0.000356256
-2.2001e-06
-2.99832e-05
0.000360062
-1.17872e-06
-2.96434e-05
0.000362981
-6.20834e-08
-3.00383e-05
0.000364067
1.04708e-06
-3.00937e-05
0.000364099
2.05441e-06
-2.97402e-05
0.000363135
2.99307e-06
-3.00936e-05
0.000360299
4.23797e-06
-3.25234e-05
0.000356821
-4.03396e-05
0.000343271
-3.47787e-05
9.07556e-05
0.000519622
-2.69251e-05
7.61868e-05
0.000495349
-1.79486e-05
8.60156e-05
0.000511292
-8.85892e-06
9.10002e-05
0.000525548
-4.62524e-07
9.23939e-05
0.000531487
7.88216e-06
9.23923e-05
0.000531712
1.68646e-05
9.09882e-05
0.000526261
2.58988e-05
8.59138e-05
0.000512461
3.38908e-05
7.62607e-05
0.000496718
9.05959e-05
0.000521077
1.98926e-05
-0.0018203
9.14592e-06
-0.00264843
2.16288e-06
-0.0027184
9.99361e-08
-0.00272652
1.86871e-08
-0.00272748
-3.29184e-08
-0.00272749
-1.92502e-06
-0.00272673
-8.86205e-06
-0.00272016
-1.96984e-05
-0.00265888
-0.00183847
-6.96623e-07
-1.274e-05
0.000299484
-8.86819e-07
-1.19223e-05
0.000305566
-8.76135e-07
-1.12414e-05
0.000308811
-5.31199e-07
-1.11012e-05
0.000311399
-3.55707e-08
-1.10916e-05
0.000312755
4.66658e-07
-1.11029e-05
0.000312833
8.14004e-07
-1.11457e-05
0.00031163
8.35554e-07
-1.12933e-05
0.0003092
6.66131e-07
-1.19673e-05
0.000306123
-1.28116e-05
0.000300094
-6.48925e-07
-1.96296e-05
0.000426995
-1.35963e-06
-1.84147e-05
0.000441187
-1.56161e-06
-1.79509e-05
0.000450546
-1.00506e-06
-1.82898e-05
0.000457571
-7.17481e-08
-1.85271e-05
0.000461067
8.53456e-07
-1.85583e-05
0.000461218
1.43536e-06
-1.83665e-05
0.00045806
1.26069e-06
-1.80818e-05
0.000451393
5.74321e-07
-1.85235e-05
0.000442482
-1.98388e-05
0.000428522
2.24872e-06
-2.17645e-05
0.000342653
1.45044e-06
-1.46601e-05
0.000353361
4.2272e-07
-1.32708e-05
0.000356504
-5.65988e-10
-1.37746e-05
0.000358974
-3.2465e-08
-1.43395e-05
0.000359967
-2.42867e-08
-1.43822e-05
0.000360016
-4.34937e-07
-1.39225e-05
0.00035914
-1.42496e-06
-1.34701e-05
0.000356792
-2.24912e-06
-1.47282e-05
0.000353888
-2.20195e-05
0.000343175
1.6616e-06
-1.89432e-05
0.000515056
-1.96744e-06
-2.52866e-05
0.000509572
-3.91695e-06
-2.69652e-05
0.000526894
-2.77383e-06
-2.90088e-05
0.000539604
-2.24779e-07
-2.98544e-05
0.000544441
2.29177e-06
-2.98696e-05
0.00054462
3.51785e-06
-2.90905e-05
0.00054021
1.64231e-06
-2.71551e-05
0.000527971
-2.15565e-06
-2.56041e-05
0.000511304
-1.97193e-05
0.000516566
-1.86471e-06
-0.00183751
-3.21366e-06
-0.00267244
-2.74062e-06
-0.00274591
-1.56698e-06
-0.00275678
-2.20642e-08
-0.00275896
1.55005e-06
-0.00275899
2.72607e-06
-0.00275709
3.19322e-06
-0.00274786
1.91408e-06
-0.00268327
-0.00185636
2.51414e-06
5.28316e-05
0.000286333
2.31312e-06
5.88166e-05
0.000292046
1.61419e-06
6.16602e-05
0.000294602
8.01567e-07
6.33028e-05
0.000296709
4.41808e-08
6.39553e-05
0.000297827
-7.14129e-07
6.39537e-05
0.000297897
-1.51671e-06
6.33347e-05
0.000296925
-2.21612e-06
6.17357e-05
0.000294951
-2.46371e-06
5.90271e-05
0.000292546
5.30548e-05
0.000286886
9.62515e-06
2.43504e-05
0.000445932
8.08377e-06
3.92366e-05
0.00046246
5.25045e-06
4.28351e-05
0.000472372
2.46841e-06
4.4069e-05
0.000479753
8.29217e-08
4.41643e-05
0.000483388
-2.27958e-06
4.41581e-05
0.000483556
-5.01882e-06
4.39966e-05
0.000480273
-7.78579e-06
4.27856e-05
0.00047328
-9.48256e-06
3.94628e-05
0.000463903
2.4422e-05
0.000447706
7.82947e-06
2.20341e-05
0.000337225
5.36308e-06
4.56778e-05
0.000349478
2.68536e-06
5.06085e-05
0.00035151
1.03839e-06
5.1324e-05
0.000353467
4.06149e-08
5.101e-05
0.000354244
-9.64409e-07
5.09532e-05
0.000354291
-2.55699e-06
5.12299e-05
0.000353637
-5.17028e-06
5.05203e-05
0.000351795
-7.76069e-06
4.59842e-05
0.000349943
2.20822e-05
0.000337785
5.2238e-05
-0.000127697
0.000612371
2.84345e-05
-9.35792e-05
0.000672585
1.04962e-05
-9.95477e-05
0.000694945
3.30782e-06
-0.000109269
0.000707337
-2.13496e-08
-0.000113069
0.000711765
-3.26009e-06
-0.00011314
0.000711936
-1.01174e-05
-0.000109688
0.000707916
-2.76474e-05
-0.000100214
0.000696128
-5.2183e-05
-9.38818e-05
0.000675697
-0.000129288
0.000615593
-2.27709e-05
-0.00194252
-1.65536e-05
-0.00277233
-8.44294e-06
-0.00285366
-3.57157e-06
-0.00287101
-4.4345e-08
-0.00287565
3.44173e-06
-0.00287574
8.15911e-06
-0.00287159
1.61511e-05
-0.0028561
2.27141e-05
-0.00278388
-0.00196299
5.36953e-06
0.000131724
0.000254329
4.9705e-06
0.000144942
0.000259208
3.67529e-06
0.000150408
0.000260696
1.91796e-06
0.000153884
0.000262151
1.13762e-07
0.000155318
0.000262943
-1.68219e-06
0.000155353
0.000263005
-3.43919e-06
0.000153999
0.000262329
-4.74558e-06
0.000150654
0.000260972
-5.23707e-06
0.000145481
0.000259599
0.000132348
0.000254763
2.21748e-05
9.58471e-05
0.000459802
1.86029e-05
0.000136982
0.000474154
1.25739e-05
0.000145886
0.000483108
6.10956e-06
0.000149977
0.000490309
2.51999e-07
0.00015088
0.000493888
-5.56803e-06
0.000150854
0.000494052
-1.19402e-05
0.000150008
0.000490832
-1.78447e-05
0.000146043
0.000484007
-2.17259e-05
0.000137861
0.000475523
9.67687e-05
0.000461659
1.40119e-05
0.00011083
0.000308213
9.21746e-06
0.000174636
0.000316725
4.74805e-06
0.000186992
0.000314984
1.97087e-06
0.000190862
0.000315465
8.97079e-08
0.00019142
0.000315663
-1.7748e-06
0.00019142
0.00031571
-4.45525e-06
0.000190825
0.000315607
-8.87829e-06
0.000187169
0.000315132
-1.38047e-05
0.000175923
0.000316932
0.000112115
0.000308573
0.000135872
-0.000240017
0.000827315
7.60915e-05
-4.09643e-05
0.000947873
3.06826e-05
-4.18314e-05
0.000969064
1.12028e-05
-6.65523e-05
0.000984126
2.64875e-07
-7.63743e-05
0.000990421
-1.05185e-05
-7.66519e-05
0.000990674
-2.92872e-05
-6.75603e-05
0.00098496
-7.34966e-05
-4.30968e-05
0.000970573
-0.000134448
-3.88727e-05
0.000951219
-0.000240084
0.000833274
-6.40608e-05
-0.00211859
-4.29334e-05
-0.00283456
-1.97727e-05
-0.00291877
-7.74475e-06
-0.00294971
-1.30912e-07
-0.00295977
7.36991e-06
-0.00296001
1.89267e-05
-0.00295081
4.14748e-05
-0.00292191
6.34796e-05