/*--------------------------------*- C++ -*----------------------------------*\
| =========                 |                                                 |
| \\      /  F ield         | OpenFOAM: The Open Source CFD Toolbox           |
|  \\    /   O peration     | Version:  2.3.1                                 |
|   \\  /    A nd           | Web:      www.OpenFOAM.org                      |
|    \\/     M anipulation  |                                                 |
\*---------------------------------------------------------------------------*/
FoamFile
{
    version     2.0;
    format      ascii;
    class       volVectorField;
    location    "50";
    object      U;
}
// * * * * * * * * * * * * * * * * * * * * * * * * * * * * * * * * * * * * * //

dimensions      [0 1 -1 0 0 0 0];

internalField   nonuniform List<vector> 
10720
(
(0.829026 24.1397 6.12044e-18)
(2.35616 26.5379 -5.51061e-18)
(4.34203 28.7675 0)
(6.64301 30.498 -3.25836e-16)
(9.22306 31.8884 3.67202e-16)
(12.0233 32.8745 2.83267e-16)
(14.8901 33.3354 3.995e-16)
(17.7311 33.3064 0)
(20.4777 32.8483 0)
(23.0526 31.9897 0)
(25.4175 30.7947 1.05959e-16)
(27.5463 29.3314 0)
(29.4179 27.6433 2.25018e-15)
(31.0311 25.7867 0)
(32.3516 23.7695 0)
(33.3887 21.6351 0)
(34.1326 19.3954 -3.84895e-15)
(34.5841 17.0928 -5.77906e-15)
(34.7202 14.747 5.17607e-15)
(34.5456 12.4149 0)
(34.04 10.1354 4.32248e-15)
(33.2376 7.98495 -8.51728e-15)
(32.1883 6.02292 4.26421e-15)
(31.0056 4.31941 -1.28439e-16)
(29.8884 2.92775 0)
(28.9273 1.80395 1.72499e-15)
(28.038 0.866493 2.68648e-17)
(27.1266 0.0739147 -7.72894e-16)
(26.152 -0.598352 -2.86953e-15)
(25.1041 -1.1676 -1.06112e-14)
(23.9753 -1.64284 4.83582e-15)
(22.7569 -2.02856 9.0285e-15)
(21.4442 -2.32623 7.99394e-15)
(20.0183 -2.53491 2.82229e-14)
(18.4273 -2.64728 -1.19073e-14)
(16.6454 -2.66084 -8.7446e-17)
(14.3485 -2.51334 4.0873e-17)
(11.7815 -2.20811 1.44466e-14)
(5.86691 -1.75275 -2.75815e-16)
(-0.292503 21.6925 -5.16073e-18)
(-1.18019 19.0693 -2.2794e-17)
(-1.7206 16.0898 7.87195e-17)
(-1.79617 12.677 -2.09199e-16)
(-1.25401 9.16271 -7.17736e-16)
(-0.108884 5.76924 1.2826e-15)
(1.45759 2.80772 6.98196e-15)
(3.2278 0.256332 2.17007e-15)
(5.3193 -2.03333 0)
(7.58546 -3.82182 0)
(9.78306 -5.0291 1.3271e-15)
(11.7858 -5.74786 4.89948e-16)
(13.5614 -6.10465 -8.32992e-16)
(15.1071 -6.20591 6.80974e-16)
(16.4451 -6.1452 1.1086e-15)
(17.6143 -5.9834 7.03623e-16)
(18.6482 -5.7641 8.61326e-16)
(19.5791 -5.51235 5.48611e-16)
(20.4384 -5.24533 0)
(21.2488 -4.96333 0)
(22.028 -4.66534 -5.9183e-16)
(22.7858 -4.33821 -1.90527e-17)
(23.522 -3.96403 2.2109e-16)
(24.2026 -3.50984 -2.81259e-17)
(24.7579 -2.9705 2.50214e-17)
(25.171 -2.38553 0)
(25.4717 -1.78196 -1.48735e-16)
(25.678 -1.17506 0)
(25.7971 -0.575223 0)
(25.8217 0.00789151 -2.113e-16)
(25.735 0.56663 0)
(25.5522 1.09378 9.01505e-16)
(25.2923 1.58278 1.66714e-15)
(24.9714 2.02792 7.92615e-15)
(24.5881 2.42611 -2.84143e-15)
(24.1384 2.78004 1.0415e-17)
(23.5066 3.08719 0)
(22.6779 3.32104 -1.93286e-15)
(20.1088 3.56882 1.22275e-15)
(6.52694 21.0322 -1.09115e-17)
(8.18127 22.7953 3.23326e-18)
(10.2531 24.4115 0)
(12.6336 25.7929 0)
(15.2223 26.886 -1.08799e-16)
(18.0305 27.6246 -2.70085e-16)
(20.9458 27.9552 0)
(23.8422 27.8951 0)
(26.669 27.4525 6.2061e-16)
(29.3453 26.6637 0)
(31.8118 25.5713 2.34194e-15)
(34.0299 24.2193 0)
(35.9702 22.6622 8.55366e-16)
(37.6241 20.9615 -8.43703e-16)
(39.0218 19.1873 1.71347e-15)
(40.1594 17.3715 -3.4527e-15)
(41.0327 15.5266 3.69571e-15)
(41.6285 13.67 3.41004e-15)
(41.9395 11.802 3.35289e-15)
(41.937 9.94549 2.04649e-16)
(41.6092 8.12192 -3.51278e-15)
(40.9363 6.38309 3.3427e-15)
(39.9352 4.77116 -1.8872e-16)
(38.6382 3.34479 0)
(37.1525 2.15671 0)
(35.6253 1.16024 0)
(34.1199 0.283525 1.45014e-16)
(32.6334 -0.485071 -3.28869e-17)
(31.1679 -1.1507 2.08447e-15)
(29.7176 -1.72184 3.38135e-17)
(28.2604 -2.20192 -2.7272e-17)
(26.7718 -2.59273 -8.90012e-17)
(25.23 -2.89336 5.40702e-15)
(23.611 -3.10221 -9.32035e-15)
(21.8722 -3.21438 -5.36814e-17)
(19.994 -3.2263 -1.19136e-14)
(17.6881 -3.08608 0)
(15.2504 -2.80728 -3.91293e-15)
(9.43649 -2.04959 -3.13109e-16)
(5.22705 19.1758 1.47033e-17)
(4.11084 17.1568 -5.56376e-17)
(3.19793 14.8155 -6.44677e-16)
(2.57995 12.1845 8.13994e-16)
(2.44173 9.36972 0)
(2.85264 6.53366 -1.65586e-15)
(3.78274 3.86373 -1.10157e-15)
(5.09478 1.44122 -6.18379e-15)
(6.71199 -0.623757 1.61011e-15)
(8.54188 -2.20774 -1.22459e-15)
(10.4262 -3.30653 1.5849e-15)
(12.2403 -4.00149 -4.54458e-16)
(13.9232 -4.38814 0)
(15.4452 -4.55031 -2.87431e-16)
(16.8001 -4.5705 5.84215e-17)
(18.0064 -4.49774 -6.06052e-16)
(19.0848 -4.37175 0)
(20.0607 -4.21299 0)
(20.9596 -4.03612 -5.48784e-17)
(21.8055 -3.83447 5.29501e-17)
(22.6144 -3.60268 -5.45544e-16)
(23.3981 -3.32031 -4.91458e-17)
(24.1568 -2.96487 1.89631e-17)
(24.8643 -2.4978 8.2422e-17)
(25.4639 -1.93462 8.1446e-17)
(25.9319 -1.34719 1.37263e-16)
(26.2873 -0.764297 0)
(26.5452 -0.19502 0)
(26.7083 0.356292 0)
(26.7838 0.882126 8.95301e-18)
(26.7946 1.37486 0)
(26.7375 1.83085 0)
(26.6052 2.24828 -2.77862e-15)
(26.3953 2.62604 -2.60156e-15)
(26.1041 2.96739 2.31528e-15)
(25.7462 3.28094 -1.89787e-15)
(25.2172 3.57002 2.85567e-15)
(24.7551 3.84589 1.35321e-15)
(22.73 3.96679 -8.11176e-16)
(8.32742 19.4357 -2.50746e-18)
(9.52255 20.9723 -6.7134e-18)
(10.9989 22.481 3.45399e-18)
(12.713 23.8762 -2.73356e-17)
(14.6288 25.0565 -1.42016e-16)
(16.7492 26.0022 5.11037e-16)
(19.0024 26.6673 -3.61978e-16)
(21.3176 27.0135 -4.47759e-16)
(23.6454 27.0342 8.81567e-18)
(25.9307 26.7318 -5.94642e-16)
(28.1196 26.1196 5.70434e-16)
(30.1717 25.2261 -1.47689e-15)
(32.0511 24.0894 -7.19554e-16)
(33.738 22.7442 0)
(35.2171 21.2243 -1.7211e-15)
(36.4907 19.5581 3.4996e-15)
(37.5777 17.7528 0)
(38.4683 15.8414 -6.72978e-15)
(39.1532 13.8474 -3.38104e-15)
(39.6048 11.8197 3.97864e-16)
(39.8077 9.79781 -3.94228e-16)
(39.7397 7.85395 -1.80006e-16)
(39.4016 6.04384 -2.56485e-15)
(38.8018 4.43412 1.29179e-15)
(37.9902 3.07118 0)
(37.0403 1.90299 1.13789e-15)
(35.9727 0.862085 -1.34952e-16)
(34.7798 -0.0574208 0)
(33.4739 -0.857546 1.83801e-15)
(32.0766 -1.54566 3.45812e-15)
(30.5996 -2.12527 -6.2077e-15)
(29.0485 -2.5987 -5.44247e-15)
(27.4234 -2.96587 -1.14313e-16)
(25.7124 -3.22629 -8.10792e-15)
(23.8793 -3.37572 -6.72109e-15)
(21.9085 -3.40883 1.01958e-14)
(19.5379 -3.28321 0)
(17.0541 -2.96851 -3.06724e-15)
(11.8044 -2.39317 4.3978e-16)
(7.37905 17.836 -1.78384e-17)
(6.57038 16.1144 -6.15057e-17)
(5.93409 14.109 2.58391e-16)
(5.47166 11.8758 0)
(5.32026 9.50407 4.4969e-16)
(5.52391 7.08101 0)
(6.10162 4.72641 2.87386e-15)
(7.02599 2.54828 1.35596e-15)
(8.24675 0.647674 1.14679e-15)
(9.67073 -0.917267 0)
(11.1851 -2.13173 -1.65552e-15)
(12.6964 -3.01988 -3.46324e-16)
(14.1479 -3.63036 1.57015e-15)
(15.5047 -4.01726 0)
(16.7506 -4.23419 -6.97194e-16)
(17.8888 -4.324 -2.08431e-16)
(18.9298 -4.32275 8.1772e-16)
(19.8896 -4.25482 4.06563e-16)
(20.7864 -4.13724 1.02666e-16)
(21.6384 -3.97297 -5.95118e-17)
(22.4587 -3.76193 4.95282e-16)
(23.2557 -3.49307 0)
(24.0282 -3.15152 0)
(24.7544 -2.71537 2.5538e-17)
(25.3884 -2.20048 0)
(25.9071 -1.65818 -2.50338e-16)
(26.3236 -1.10656 4.96644e-18)
(26.6511 -0.550514 6.22135e-17)
(26.8933 0.0049042 0)
(27.0504 0.551172 1.71452e-16)
(27.1267 1.08016 -3.44586e-16)
(27.1281 1.58396 0)
(27.0575 2.05501 1.37048e-15)
(26.9177 2.48744 0)
(26.7006 2.8813 0)
(26.4106 3.24105 4.3181e-17)
(25.9392 3.57451 -8.57167e-17)
(25.4377 3.85091 -1.34157e-15)
(23.6636 4.01704 1.61051e-15)
(10.6758 17.8994 -1.37094e-17)
(11.7671 19.2075 -1.25392e-17)
(13.1022 20.499 4.69529e-18)
(14.6567 21.6943 -4.48524e-18)
(16.392 22.7117 0)
(18.3155 23.5362 0)
(20.3755 24.1193 -6.29208e-16)
(22.5158 24.4222 7.58211e-16)
(24.6928 24.4358 0)
(26.854 24.1579 -9.60722e-16)
(28.9481 23.5987 -1.22206e-15)
(30.9327 22.7791 -1.17277e-15)
(32.7691 21.7285 1.39944e-15)
(34.4287 20.4778 1.33543e-15)
(35.8899 19.06 0)
(37.1426 17.5062 2.14565e-15)
(38.166 15.8541 7.47567e-16)
(38.9447 14.1373 6.06421e-15)
(39.471 12.3781 3.69912e-16)
(39.744 10.6028 -3.66464e-16)
(39.7648 8.84433 3.1209e-15)
(39.5441 7.15144 -5.11906e-16)
(39.1084 5.5712 2.79538e-15)
(38.4966 4.15296 1.17742e-15)
(37.7694 2.93001 -6.98288e-17)
(36.987 1.86666 -1.02568e-15)
(36.1565 0.906797 7.66749e-18)
(35.2466 0.038332 -7.70027e-18)
(34.2354 -0.741922 -1.75606e-15)
(33.1116 -1.43837 -4.75405e-17)
(31.8629 -2.04808 3.02505e-15)
(30.4825 -2.56458 -5.24476e-15)
(28.9699 -2.97903 -4.31643e-15)
(27.3207 -3.28374 -8.9708e-18)
(25.51 -3.46929 6.05605e-15)
(23.5307 -3.52476 0)
(21.1469 -3.4123 5.99177e-15)
(18.5958 -3.05785 2.63701e-15)
(13.7132 -2.5563 -1.92243e-16)
(9.78401 16.5413 -2.85559e-17)
(9.00803 15.0865 8.24302e-17)
(8.36628 13.3857 3.44309e-16)
(7.87191 11.4802 0)
(7.6396 9.45249 -3.90611e-16)
(7.69966 7.36132 0)
(8.06419 5.28783 -2.11306e-15)
(8.71787 3.32915 -8.03526e-17)
(9.62889 1.57706 8.73319e-16)
(10.7367 0.0814109 7.54946e-16)
(11.9631 -1.13021 2.52907e-17)
(13.2355 -2.05954 1.26885e-15)
(14.5022 -2.73665 -7.86617e-16)
(15.7254 -3.20085 2.52098e-16)
(16.881 -3.49301 8.29562e-16)
(17.961 -3.65235 8.85334e-16)
(18.9667 -3.71183 -7.67832e-16)
(19.905 -3.69655 9.1749e-18)
(20.7876 -3.6241 0)
(21.6278 -3.50096 6.85954e-16)
(22.436 -3.3275 2.84885e-17)
(23.2188 -3.09553 -4.09998e-16)
(23.9751 -2.79244 0)
(24.6866 -2.40085 2.44335e-17)
(25.3155 -1.92943 0)
(25.8389 -1.4189 1.0288e-16)
(26.2648 -0.891126 0)
(26.6052 -0.355336 -5.86349e-17)
(26.8642 0.180792 3.14463e-18)
(27.043 0.70788 -2.1894e-18)
(27.1453 1.21574 3.13398e-16)
(27.1775 1.69553 9.84984e-18)
(27.1432 2.1419 0)
(27.0464 2.55196 -1.13646e-15)
(26.8809 2.92824 -1.72641e-17)
(26.6493 3.2748 1.79461e-15)
(26.2513 3.60248 -5.35195e-15)
(25.7945 3.85257 -7.44736e-18)
(24.2372 4.02961 0)
(12.3171 16.7105 -1.80259e-17)
(13.2489 17.8647 -4.72791e-18)
(14.3896 19.0254 5.90462e-18)
(15.7096 20.1212 9.02775e-17)
(17.1772 21.0766 -3.76713e-17)
(18.8126 21.8881 -1.63632e-16)
(20.5729 22.5111 2.67367e-16)
(22.4153 22.9101 0)
(24.3106 23.0739 1.10113e-15)
(26.2147 22.9926 5.16817e-16)
(28.088 22.6645 0)
(29.8955 22.0967 1.12055e-15)
(31.601 21.304 -5.97654e-16)
(33.1745 20.3044 1.67444e-15)
(34.5922 19.1208 0)
(35.8342 17.7773 -2.79192e-15)
(36.8869 16.2932 2.69512e-15)
(37.7428 14.6808 -1.56515e-16)
(38.3866 12.9651 0)
(38.8002 11.1872 2.94688e-15)
(38.9691 9.39398 -2.97635e-15)
(38.8878 7.647 -1.52774e-16)
(38.5702 6.00459 -2.3348e-15)
(38.0515 4.52289 -2.1437e-15)
(37.3941 3.23942 0)
(36.6672 2.12786 0)
(35.899 1.13493 -2.36384e-16)
(35.0809 0.240742 -2.68021e-17)
(34.2031 -0.562293 1.66613e-15)
(33.2567 -1.28227 -4.51041e-17)
(32.2213 -1.92005 4.50748e-17)
(31.0723 -2.47075 4.87447e-15)
(29.7869 -2.92476 0)
(28.3402 -3.27152 1.41566e-14)
(26.6943 -3.49698 -4.93695e-17)
(24.8359 -3.58371 0)
(22.5457 -3.494 -2.18067e-17)
(20.0159 -3.12056 0)
(15.3892 -2.6253 2.11685e-16)
(11.5465 15.5174 2.82443e-17)
(10.8708 14.2496 -1.77691e-16)
(10.2921 12.7652 1.90215e-16)
(9.82018 11.1008 2.95579e-16)
(9.55489 9.33453 -1.19671e-15)
(9.52328 7.50031 -1.52039e-15)
(9.74185 5.65652 1.62571e-15)
(10.2044 3.89261 -1.53453e-15)
(10.8904 2.28965 -6.7697e-16)
(11.7586 0.884842 -5.92357e-16)
(12.7516 -0.295358 1.14225e-15)
(13.8132 -1.24331 -1.08089e-15)
(14.9013 -1.97628 -4.5979e-16)
(15.9818 -2.52016 4.48985e-16)
(17.0293 -2.90163 -9.35495e-16)
(18.0308 -3.15067 1.7378e-16)
(18.9816 -3.29307 0)
(19.8824 -3.34988 -5.87607e-16)
(20.7392 -3.33661 1.99716e-16)
(21.5603 -3.26148 -7.24238e-16)
(22.3532 -3.12645 0)
(23.1221 -2.92686 3.5467e-16)
(23.8649 -2.65365 2.35113e-16)
(24.5656 -2.29525 -9.95407e-17)
(25.1919 -1.85849 0)
(25.7214 -1.37706 5.46736e-17)
(26.157 -0.87395 0)
(26.5085 -0.358876 0)
(26.7797 0.160713 0)
(26.972 0.675403 -1.28392e-16)
(27.0889 1.17517 0)
(27.1362 1.65209 0)
(27.1181 2.09995 1.10988e-15)
(27.0391 2.51431 1.0788e-15)
(26.8942 2.89636 0)
(26.6873 3.24818 1.61047e-15)
(26.3273 3.5804 7.91605e-17)
(25.9106 3.82112 0)
(24.5542 3.99653 -6.78072e-16)
(13.7749 15.6804 2.14938e-17)
(14.6147 16.7028 -1.52132e-17)
(15.6393 17.738 0)
(16.821 18.7199 1.05396e-17)
(18.1283 19.5804 -1.00385e-16)
(19.588 20.3227 1.53368e-16)
(21.1626 20.9063 4.188e-17)
(22.8177 21.2991 -6.97165e-16)
(24.5336 21.4878 -7.74385e-17)
(26.2742 21.4594 1.07229e-15)
(28.0059 21.207 -3.82174e-16)
(29.699 20.7315 8.74733e-16)
(31.319 20.04 4.40097e-16)
(32.8354 19.1451 3.3205e-16)
(34.2214 18.0645 0)
(35.4528 16.8193 -6.10363e-16)
(36.5106 15.4319 -1.34651e-15)
(37.3728 13.9348 -5.04547e-15)
(38.0202 12.361 1.49668e-15)
(38.4401 10.7412 -1.89527e-15)
(38.624 9.11051 -2.97652e-16)
(38.5711 7.51222 0)
(38.2935 5.99275 2.08199e-15)
(37.8206 4.59781 1.33032e-16)
(37.2036 3.36133 -5.98256e-17)
(36.5012 2.27058 -8.37066e-16)
(35.7441 1.28647 1.93564e-16)
(34.9343 0.392965 4.09437e-16)
(34.0722 -0.413808 -1.54533e-15)
(33.1617 -1.13983 -8.42864e-17)
(32.1959 -1.78683 2.71199e-15)
(31.1607 -2.35124 4.4781e-15)
(30.0356 -2.82524 0)
(28.7878 -3.19887 -1.33468e-17)
(27.3631 -3.45685 -5.40481e-15)
(25.7257 -3.57707 0)
(23.6465 -3.51859 -1.03485e-14)
(21.2741 -3.14725 0)
(16.9045 -2.651 -2.04672e-16)
(13.0724 14.6261 -2.82833e-17)
(12.4526 13.512 6.93935e-17)
(11.9078 12.2037 0)
(11.4483 10.7333 0)
(11.1613 9.17543 5.02872e-16)
(11.0672 7.54656 2.36871e-15)
(11.184 5.89296 0)
(11.5091 4.29793 -1.13138e-15)
(12.0279 2.83162 -1.07657e-15)
(12.7119 1.52199 1.07602e-15)
(13.5182 0.393302 -4.61269e-17)
(14.4036 -0.541777 4.56861e-16)
(15.3353 -1.29284 3.14783e-17)
(16.2845 -1.87687 1.15702e-15)
(17.2271 -2.31083 1.0053e-15)
(18.1485 -2.61681 -9.25278e-16)
(19.0403 -2.8149 1.23475e-16)
(19.8987 -2.92287 -2.2524e-16)
(20.7247 -2.95467 1.01999e-16)
(21.5223 -2.91908 5.48161e-16)
(22.2958 -2.81932 6.76788e-17)
(23.0471 -2.65296 -3.80285e-17)
(23.7731 -2.41294 -1.93744e-16)
(24.4596 -2.09085 0)
(25.079 -1.6918 1.2344e-20)
(25.6094 -1.24305 -8.37686e-17)
(26.0501 -0.767094 2.08669e-18)
(26.4085 -0.274777 -2.06916e-18)
(26.6878 0.225538 0)
(26.8892 0.72369 1.20678e-16)
(27.016 1.20936 0)
(27.0734 1.67393 0)
(27.0655 2.11092 -1.0269e-15)
(26.9964 2.51614 -9.6856e-16)
(26.8613 2.89076 0)
(26.664 3.23534 -1.50369e-15)
(26.3205 3.56004 4.45151e-15)
(25.9188 3.78217 -1.21437e-17)
(24.7116 3.93804 6.10627e-16)
(14.9895 14.8018 4.48309e-19)
(15.7468 15.7182 -1.36905e-17)
(16.6695 16.6532 4.89345e-18)
(17.7284 17.5441 -4.75671e-18)
(18.8917 18.331 6.97537e-17)
(20.1912 19.0219 0)
(21.5928 19.5803 -3.20192e-16)
(23.0682 19.9775 -3.12061e-18)
(24.6058 20.2017 -3.17808e-16)
(26.1747 20.2387 -6.49447e-16)
(27.7483 20.0793 0)
(29.3025 19.7206 -1.59193e-15)
(30.8066 19.1643 -1.36988e-15)
(32.2325 18.4168 -3.34888e-15)
(33.5538 17.4901 0)
(34.7452 16.4 -2.07994e-15)
(35.7842 15.1661 -2.18711e-15)
(36.652 13.8082 2.38232e-15)
(37.3317 12.3468 -2.34666e-15)
(37.8064 10.8128 2.18498e-15)
(38.0629 9.24372 2.6882e-16)
(38.095 7.68717 -2.31888e-15)
(37.9087 6.19285 0)
(37.5259 4.80772 -1.99876e-15)
(36.9884 3.56552 1.17126e-16)
(36.3462 2.46054 8.7225e-16)
(35.6302 1.46184 0)
(34.8468 0.554455 -2.94529e-17)
(34 -0.264712 6.55588e-17)
(33.0978 -1.00082 2.54814e-15)
(32.1415 -1.65583 -2.39358e-15)
(31.1288 -2.22708 -4.22491e-15)
(30.0544 -2.70874 3.64949e-15)
(28.9009 -3.0934 -6.13506e-17)
(27.6264 -3.36809 5.12204e-15)
(26.1976 -3.51175 7.56723e-15)
(24.3806 -3.48287 4.96667e-15)
(22.2902 -3.12697 -3.47074e-17)
(18.2572 -2.64686 8.58204e-18)
(14.3502 13.8586 1.07856e-17)
(13.7825 12.8671 1.29675e-16)
(13.2718 11.6997 1.75168e-16)
(12.8284 10.3852 -3.3602e-16)
(12.5304 8.99644 -1.31932e-15)
(12.3936 7.53568 3.9379e-16)
(12.4376 6.0412 9.33555e-16)
(12.6622 4.59229 2.34898e-15)
(13.0556 3.24939 9.36674e-16)
(13.5973 2.03319 -8.70901e-16)
(14.2547 0.965143 -2.6127e-17)
(14.9937 0.0590786 -4.06296e-16)
(15.7891 -0.691046 0)
(16.6176 -1.29635 -1.95197e-17)
(17.4584 -1.76718 -6.26311e-16)
(18.2973 -2.11913 2.62804e-16)
(19.1244 -2.36688 -2.57972e-16)
(19.9332 -2.52395 0)
(20.7215 -2.60148 3.54954e-16)
(21.4897 -2.6073 -5.78812e-16)
(22.2391 -2.54461 0)
(22.9696 -2.41214 3.54776e-16)
(23.6771 -2.20477 0)
(24.3485 -1.91686 -6.30892e-18)
(24.9597 -1.55296 6.24601e-18)
(25.4897 -1.13554 2.89934e-17)
(25.9346 -0.68615 -1.0671e-19)
(26.2994 -0.216707 1.71019e-18)
(26.5866 0.263739 -1.51383e-18)
(26.7972 0.744966 1.02972e-16)
(26.9337 1.21669 2.23735e-16)
(27.0009 1.67061 -4.52545e-16)
(27.0022 2.10023 -1.46164e-17)
(26.9417 2.50067 2.87795e-17)
(26.8143 2.87203 0)
(26.6235 3.21256 -1.8692e-17)
(26.2907 3.53075 -2.01118e-15)
(25.8964 3.73561 -9.59143e-18)
(24.7978 3.86692 5.40366e-16)
(16.0424 14.0314 3.98018e-18)
(16.7359 14.8579 1.89302e-17)
(17.5795 15.7048 0)
(18.5434 16.5135 -2.21898e-17)
(19.5957 17.2295 2.88747e-17)
(20.7705 17.8643 0)
(22.037 18.3851 -1.27868e-16)
(23.3702 18.7659 9.2994e-16)
(24.7637 18.9966 -1.3003e-15)
(26.192 19.0633 4.16192e-16)
(27.6331 18.956 5.63676e-16)
(29.0678 18.6695 2.04362e-15)
(30.4698 18.2018 1.46989e-15)
(31.8138 17.5547 1.7415e-15)
(33.0746 16.7353 4.63228e-16)
(34.2268 15.7549 1.52569e-15)
(35.2465 14.6288 2.09676e-15)
(36.113 13.3764 2.05146e-15)
(36.8041 12.0237 -1.51287e-15)
(37.3021 10.5995 -4.6216e-15)
(37.5943 9.13649 0)
(37.6747 7.67398 7.87851e-17)
(37.5479 6.25505 1.81269e-15)
(37.2321 4.92156 1.89791e-15)
(36.7614 3.70555 -1.07981e-16)
(36.1775 2.60895 -7.89487e-16)
(35.5091 1.61108 5.68838e-18)
(34.7647 0.700523 -4.03698e-16)
(33.9487 -0.123917 4.26315e-17)
(33.0683 -0.865599 -4.74952e-15)
(32.1255 -1.52574 -7.15677e-18)
(31.1209 -2.1011 -6.53468e-17)
(30.0555 -2.58616 -3.47715e-15)
(28.9241 -2.97435 -5.96457e-17)
(27.7042 -3.25436 -4.75892e-15)
(26.3892 -3.40788 -1.43417e-14)
(24.7777 -3.39752 4.68886e-15)
(23.0083 -3.05835 1.99795e-15)
(19.4093 -2.61041 -3.90199e-16)
(15.452 13.1819 -4.64099e-17)
(14.9256 12.2918 -1.73686e-16)
(14.443 11.2417 -1.22835e-16)
(14.0146 10.0569 -3.1815e-16)
(13.7118 8.80737 7.24662e-16)
(13.546 7.48691 -5.8376e-17)
(13.537 6.12801 -2.33273e-15)
(13.6865 4.8056 -8.06372e-16)
(13.9844 3.57276 1.96179e-17)
(14.4155 2.44468 0)
(14.9537 1.44039 -7.38872e-16)
(15.5718 0.573295 6.75992e-16)
(16.2504 -0.161127 -6.41303e-16)
(16.9713 -0.77058 -3.26753e-16)
(17.7171 -1.26102 2.60523e-16)
(18.4755 -1.64332 2.59454e-16)
(19.2365 -1.9275 8.9449e-16)
(19.9924 -2.12312 -2.08347e-16)
(20.7388 -2.23866 -3.32676e-16)
(21.4736 -2.28055 0)
(22.1956 -2.25163 -4.47938e-16)
(22.9026 -2.15136 -2.97343e-16)
(23.5896 -1.97599 -1.12532e-17)
(24.2443 -1.72192 -2.45332e-17)
(24.8452 -1.39334 -2.09554e-18)
(25.3722 -1.00849 5.62338e-18)
(25.8192 -0.587463 2.79665e-18)
(26.1887 -0.142748 -2.99079e-17)
(26.4824 0.316205 -1.06932e-17)
(26.7008 0.779196 -9.52896e-17)
(26.8461 1.23597 -1.11226e-17)
(26.9221 1.67808 8.87394e-16)
(26.9321 2.09859 8.19161e-16)
(26.8796 2.492 8.31065e-16)
(26.7596 2.85741 2.27692e-17)
(26.5749 3.191 -1.04834e-17)
(26.2522 3.49938 1.78831e-15)
(25.8664 3.6854 7.39131e-16)
(24.8579 3.79021 -5.0213e-16)
(16.9563 13.3498 -1.13087e-17)
(17.5962 14.0998 -7.15553e-18)
(18.373 14.871 -1.08969e-17)
(19.2567 15.6083 -2.78426e-17)
(20.2154 16.2618 6.37277e-17)
(21.2841 16.8463 -1.48823e-16)
(22.434 17.3313 4.62625e-16)
(23.6432 17.694 0)
(24.9089 17.9266 3.97603e-16)
(26.2092 18.0158 1.51046e-17)
(27.5264 17.9517 -4.88866e-16)
(28.8459 17.7281 -1.89027e-15)
(30.1451 17.3408 -7.64573e-16)
(31.4021 16.7885 0)
(32.5939 16.0743 0)
(33.6961 15.2054 0)
(34.6849 14.1935 0)
(35.5383 13.0551 -1.97603e-15)
(36.2356 11.8088 1.97666e-15)
(36.7578 10.4797 1.93607e-15)
(37.0899 9.09884 -1.56539e-15)
(37.2235 7.70429 1.36917e-15)
(37.1596 6.33789 -1.41417e-15)
(36.9119 5.04058 -1.0368e-16)
(36.5081 3.84371 -4.74526e-17)
(35.9833 2.7538 7.97155e-16)
(35.3648 1.75742 1.72592e-16)
(34.6636 0.845908 0)
(33.8854 0.0189074 0)
(33.037 -0.725789 3.59801e-17)
(32.1203 -1.38917 0)
(31.1351 -1.96769 3.62136e-15)
(30.0823 -2.45579 -3.27426e-15)
(28.959 -2.84646 -5.39111e-15)
(27.7513 -3.12841 8.82937e-15)
(26.4726 -3.28419 6.79416e-15)
(24.963 -3.28077 -4.44441e-15)
(23.4449 -2.94877 -3.85734e-15)
(20.3256 -2.53602 3.83407e-16)
(16.4077 12.5793 0)
(15.9167 11.7746 4.78698e-17)
(15.4594 10.8231 2.36809e-16)
(15.046 9.74746 -1.00225e-15)
(14.7425 8.61494 8.81574e-16)
(14.5573 7.41332 -6.70293e-16)
(14.5092 6.17097 1.40285e-17)
(14.6016 4.95884 6.20036e-16)
(14.8261 3.82411 6.5206e-16)
(15.1703 2.77807 0)
(15.613 1.83718 3.0334e-16)
(16.1314 1.01402 -9.24142e-16)
(16.7108 0.30444 1.43304e-15)
(17.3368 -0.297484 2.53079e-16)
(17.9955 -0.795349 -5.12476e-16)
(18.6769 -1.19651 -4.65655e-16)
(19.372 -1.50744 -4.15815e-16)
(20.0729 -1.73441 0)
(20.7742 -1.8831 0)
(21.472 -1.95809 0)
(22.1631 -1.96147 4.22041e-16)
(22.8439 -1.8928 0)
(23.5085 -1.74926 -2.19605e-16)
(24.145 -1.52867 -2.47649e-17)
(24.7339 -1.23477 -8.58574e-17)
(25.2561 -0.882507 -3.36664e-18)
(25.7035 -0.49011 0)
(26.0765 -0.0703616 2.58467e-17)
(26.3758 0.367005 1.12838e-17)
(26.6014 0.811703 -2.35029e-18)
(26.7548 1.25342 -3.75592e-16)
(26.8393 1.68348 -1.91457e-17)
(26.8576 2.09472 -7.99099e-16)
(26.8129 2.48086 7.27979e-16)
(26.7002 2.8399 0)
(26.5219 3.16594 1.57212e-17)
(26.2096 3.46344 -7.91683e-17)
(25.8336 3.63099 -6.9943e-16)
(24.9079 3.70912 9.20076e-19)
(17.7588 12.7395 1.30287e-17)
(18.3536 13.4233 0)
(19.0742 14.1279 3.25618e-17)
(19.8907 14.8019 -3.12091e-18)
(20.7711 15.3992 -3.75261e-17)
(21.7509 15.9359 1.39234e-16)
(22.8029 16.3846 -2.07182e-16)
(23.907 16.7252 -2.53402e-16)
(25.0631 16.9512 0)
(26.2522 17.0508 -4.28028e-16)
(27.4602 17.0145 -4.62579e-16)
(28.6759 16.8358 4.58918e-16)
(29.8801 16.5094 1.69737e-15)
(31.0544 16.0315 6.78013e-16)
(32.1784 15.4024 -2.05731e-15)
(33.2288 14.6261 -1.4843e-15)
(34.183 13.7109 1.17042e-15)
(35.0188 12.6697 8.62216e-16)
(35.7148 11.52 -4.34429e-16)
(36.2508 10.2853 4.34182e-16)
(36.6107 8.99364 1.09811e-15)
(36.7852 7.67876 2.04848e-16)
(36.773 6.37833 -1.9333e-16)
(36.5844 5.13017 -1.28905e-15)
(36.2412 3.96424 0)
(35.7724 2.89045 -6.78172e-16)
(35.2025 1.90217 -3.24251e-16)
(34.5443 0.994352 -3.00848e-16)
(33.8048 0.16803 -1.11968e-15)
(32.9911 -0.577571 4.22353e-15)
(32.1055 -1.2428 1.76002e-15)
(31.1479 -1.82388 9.13218e-18)
(30.1178 -2.31514 3.69015e-17)
(29.0111 -2.70907 0)
(27.8143 -2.99349 -4.15261e-15)
(26.5465 -3.15009 0)
(25.0695 -3.14867 0)
(23.6843 -2.81343 1.8553e-15)
(21.0064 -2.42588 -1.59261e-17)
(17.2458 12.0371 -4.38439e-17)
(16.7852 11.3051 1.512e-16)
(16.3504 10.4381 1.41672e-17)
(15.9517 9.45669 2.23775e-16)
(15.6502 8.423 -7.774e-16)
(15.4522 7.32336 5.39566e-16)
(15.3748 6.18276 2.38928e-17)
(15.4235 5.06746 -5.15146e-16)
(15.591 4.02013 -4.98056e-16)
(15.8666 3.04938 -5.31445e-16)
(16.232 2.16965 -1.03392e-15)
(16.6683 1.39241 0)
(17.1637 0.713223 -5.19959e-16)
(17.707 0.126971 -2.048e-17)
(18.2872 -0.368463 0)
(18.8966 -0.77843 -4.11189e-16)
(19.5277 -1.1067 -1.93415e-16)
(20.1732 -1.35701 -1.7739e-16)
(20.8274 -1.53268 5.7908e-16)
(21.4857 -1.63639 4.92472e-16)
(22.1434 -1.66909 -4.59116e-17)
(22.7958 -1.63021 3.31356e-16)
(23.4362 -1.51742 5.07254e-17)
(24.0531 -1.32928 -2.47757e-17)
(24.6284 -1.06917 7.78605e-17)
(25.1438 -0.749321 3.58626e-18)
(25.5898 -0.385882 0)
(25.9649 0.00843353 0)
(26.2687 0.423641 2.06734e-18)
(26.5006 0.849393 -7.01075e-18)
(26.6615 1.27529 3.43953e-16)
(26.7539 1.69239 -1.86825e-17)
(26.7803 2.09323 -7.27889e-16)
(26.7433 2.47079 -6.99752e-16)
(26.6379 2.82206 -1.83817e-17)
(26.4661 3.13924 3.33203e-18)
(26.1648 3.42467 -3.04119e-15)
(25.7997 3.57412 6.06334e-16)
(24.9523 3.62613 -8.54129e-19)
(18.4683 12.1883 4.63893e-18)
(19.024 12.8143 0)
(19.6962 13.4603 -2.17356e-17)
(20.4548 14.0779 0)
(21.2682 14.6248 -9.15654e-17)
(22.1715 15.1179 8.85543e-17)
(23.139 15.5321 1.68499e-16)
(24.152 15.8497 2.38444e-16)
(25.2121 16.0658 0)
(26.3026 16.1696 -2.94914e-16)
(27.4122 16.1531 4.67476e-16)
(28.5326 16.0095 -9.63876e-16)
(29.6476 15.7329 -5.36099e-16)
(30.7416 15.3188 -5.49832e-16)
(31.7969 14.7651 1.31107e-15)
(32.7926 14.0731 1.41731e-15)
(33.7072 13.2484 -1.51809e-15)
(34.5187 12.3011 -1.51833e-15)
(35.2067 11.2454 0)
(35.7508 10.1008 3.99953e-16)
(36.1336 8.8925 -7.7381e-16)
(36.3443 7.6517 1.90003e-16)
(36.3795 6.41359 3.69472e-18)
(36.2458 5.21378 3.04799e-15)
(35.9602 4.08079 -1.66969e-16)
(35.5459 3.02648 9.91981e-17)
(35.0246 2.04936 3.01469e-16)
(34.4096 1.14766 3.20206e-16)
(33.709 0.323778 9.6563e-16)
(32.9304 -0.421514 -1.95149e-15)
(32.077 -1.08783 -1.61678e-15)
(31.1493 -1.67097 -6.43202e-15)
(30.1467 -2.16529 5.63305e-15)
(29.0645 -2.56273 -8.03734e-17)
(27.8877 -2.85037 3.89377e-15)
(26.6345 -3.00825 -1.30838e-16)
(25.1728 -3.00862 7.51785e-17)
(23.8277 -2.66572 -1.70572e-17)
(21.4945 -2.2871 6.8534e-16)
(17.9863 11.5452 2.02556e-17)
(17.5524 10.8761 -7.91541e-17)
(17.1383 10.0823 1.54408e-16)
(16.7537 9.18252 0)
(16.4557 8.2348 4.39717e-16)
(16.2496 7.22348 0)
(16.1506 6.17211 0)
(16.1656 5.14228 0)
(16.2883 4.17312 9.30875e-16)
(16.509 3.27119 -4.51257e-16)
(16.8119 2.44936 5.17268e-16)
(17.1804 1.71811 0)
(17.6048 1.07243 0)
(18.0764 0.507308 -4.40268e-16)
(18.5865 0.0213644 0)
(19.1296 -0.389447 3.84247e-16)
(19.6997 -0.727446 9.59498e-18)
(20.2907 -0.994265 0)
(20.8972 -1.19125 -4.17764e-16)
(21.5142 -1.31945 -5.88774e-16)
(22.1365 -1.3787 -3.84199e-16)
(22.7585 -1.36786 -3.03999e-16)
(23.373 -1.2846 4.62194e-16)
(23.969 -1.1278 0)
(24.5291 -0.900443 9.62032e-17)
(25.0358 -0.612415 4.51288e-17)
(25.4786 -0.277926 -5.83371e-18)
(25.8545 0.0907045 0)
(26.1617 0.483328 5.94548e-18)
(26.3992 0.889587 6.26592e-17)
(26.5669 1.29903 -3.04898e-16)
(26.667 1.70246 -1.81781e-17)
(26.7013 2.0921 6.69652e-16)
(26.6719 2.46035 -5.91011e-16)
(26.5739 2.80314 -1.90669e-18)
(26.4089 3.11094 -1.64749e-17)
(26.1192 3.38383 2.80052e-15)
(25.7657 3.51659 -5.70127e-16)
(24.9926 3.54404 6.42073e-16)
(19.0997 11.6867 1.67011e-18)
(19.6212 12.2617 -1.28285e-17)
(20.251 12.8556 0)
(20.9594 13.4229 1.44615e-17)
(21.7147 13.9242 0)
(22.5519 14.377 0)
(23.446 14.7586 2.0304e-17)
(24.3797 15.053 2.17013e-16)
(25.3557 15.2564 4.91501e-16)
(26.3591 15.3598 1.22584e-15)
(27.3807 15.3558 6.92593e-16)
(28.4145 15.2384 7.93968e-16)
(29.447 15.0015 0)
(30.4653 14.6395 1.52983e-15)
(31.4541 14.1494 -5.40015e-16)
(32.3946 13.5305 0)
(33.2672 12.7859 1.2817e-15)
(34.0509 11.9228 1.45276e-15)
(34.726 10.9532 0)
(35.2718 9.89389 1.42865e-15)
(35.6705 8.76744 -1.39569e-15)
(35.9103 7.6018 0)
(35.9858 6.42883 -1.65409e-16)
(35.9009 5.2814 3.62637e-17)
(35.6683 4.18629 7.87991e-17)
(35.3059 3.15646 1.18477e-15)
(34.8324 2.19444 -3.59592e-18)
(34.2607 1.30174 -3.18738e-17)
(33.5995 0.482439 -2.72794e-17)
(32.8565 -0.261188 5.89869e-17)
(32.0357 -0.927632 1.63451e-15)
(31.1384 -1.51213 5.82486e-15)
(30.1646 -2.00892 5.1569e-17)
(29.1099 -2.4095 -4.4002e-15)
(27.9593 -2.70035 -3.5277e-15)
(26.7294 -2.85962 -5.56176e-15)
(25.2918 -2.86256 -3.73506e-15)
(23.9474 -2.51431 5.70354e-17)
(21.8544 -2.13025 -6.57917e-16)
(18.6451 11.0959 -4.74752e-17)
(18.2351 10.4819 -1.78461e-16)
(17.8396 9.75214 3.5509e-16)
(17.4687 8.92398 0)
(17.1756 8.05115 6.78949e-16)
(16.9646 7.11766 0)
(16.8498 6.14522 -3.63387e-16)
(16.8387 5.19134 1.4532e-15)
(16.9259 4.29228 -1.11854e-15)
(17.1025 3.45333 0)
(17.3543 2.6858 8.21169e-16)
(17.6665 1.99924 7.77539e-16)
(18.031 1.38823 0)
(18.4408 0.84776 -7.46045e-16)
(18.889 0.376556 1.76463e-16)
(19.3717 -0.0290124 -1.76466e-16)
(19.8847 -0.37022 1.68644e-16)
(20.423 -0.647368 2.83456e-16)
(20.982 -0.860308 -1.49847e-17)
(21.5569 -1.00865 3.13714e-16)
(22.1424 -1.09108 8.39321e-17)
(22.7323 -1.10582 -8.15501e-17)
(23.3196 -1.05035 -2.22174e-16)
(23.8932 -0.923453 1.64283e-16)
(24.4367 -0.727545 -8.60541e-17)
(24.9329 -0.470652 -4.81683e-17)
(25.371 -0.165041 5.55559e-18)
(25.7461 0.177602 5.16237e-19)
(26.0558 0.547138 -6.19736e-18)
(26.2979 0.933299 -5.99702e-17)
(26.472 1.32561 9.7e-18)
(26.5793 1.71465 -1.764e-17)
(26.6212 2.09233 -6.04238e-16)
(26.5994 2.4505 6.07722e-16)
(26.509 2.78411 -1.57406e-17)
(26.3511 3.0821 8.96194e-16)
(26.0735 3.34235 -1.3187e-15)
(25.7325 3.46002 0)
(25.0295 3.46471 -6.25735e-16)
(19.6647 11.2274 7.27896e-18)
(20.1559 11.7569 0)
(20.7482 12.3043 0)
(21.4121 12.8262 -4.85795e-17)
(22.1166 13.2865 -2.02523e-17)
(22.8957 13.7025 0)
(23.7254 14.0533 0)
(24.5894 14.3249 -7.22041e-16)
(25.4911 14.5147 -2.62107e-17)
(26.4171 14.6146 -3.3228e-17)
(27.3597 14.6184 -1.61053e-15)
(28.3149 14.5205 -4.12339e-16)
(29.2713 14.3152 7.97048e-16)
(30.2182 13.9968 -5.89737e-17)
(31.1428 13.5612 0)
(32.0285 13.0065 0)
(32.8575 12.3339 -3.52847e-15)
(33.6102 11.548 -6.47376e-16)
(34.2676 10.6588 6.63058e-16)
(34.81 9.67987 -1.38446e-15)
(35.2193 8.63115 2.63378e-15)
(35.4823 7.53771 1.24989e-15)
(35.5925 6.42859 -1.20986e-15)
(35.5511 5.33419 -1.36147e-15)
(35.3669 4.27942 2.16199e-16)
(35.0537 3.27748 -1.17002e-15)
(34.6268 2.3338 -1.32113e-16)
(34.0984 1.45284 2.97091e-17)
(33.4769 0.640253 -2.96187e-17)
(32.7702 -0.100024 1.01213e-16)
(31.9826 -0.765325 -3.67397e-17)
(31.1163 -1.35023 -2.87718e-15)
(30.1718 -1.84862 -1.05578e-16)
(29.1455 -2.25154 1.21784e-16)
(28.0234 -2.545 0)
(26.8215 -2.70532 5.16919e-15)
(25.4202 -2.71067 3.4878e-15)
(24.0756 -2.36235 0)
(22.1452 -1.9642 0)
(19.2348 10.683 0)
(18.8459 10.1176 1.56381e-16)
(18.4679 9.4445 -5.21882e-16)
(18.1102 8.67947 -2.54286e-16)
(17.8228 7.87313 -6.1624e-16)
(17.6094 7.00859 0)
(17.483 6.10638 0)
(17.4516 5.22057 -6.50837e-16)
(17.5106 4.38479 6.76726e-16)
(17.6514 3.6033 0)
(17.8613 2.88625 -3.41951e-16)
(18.1268 2.24251 -3.68226e-16)
(18.4407 1.66642 3.40066e-16)
(18.7972 1.1525 3.50303e-16)
(19.1909 0.699382 -6.36388e-16)
(19.6192 0.303697 0)
(20.0793 -0.0354532 -1.36697e-16)
(20.5674 -0.31757 1.22148e-17)
(21.08 -0.541541 5.78688e-16)
(21.6128 -0.705833 -1.00341e-16)
(22.1606 -0.808093 9.49285e-17)
(22.7174 -0.845847 -6.28822e-17)
(23.2763 -0.816201 8.5728e-17)
(23.8263 -0.717658 -3.41344e-16)
(24.3517 -0.551868 -9.77393e-17)
(24.8358 -0.325208 4.86175e-17)
(25.2674 -0.0481827 -1.86777e-18)
(25.6404 0.268363 0)
(25.9513 0.614477 4.12658e-18)
(26.1972 0.980039 -4.39872e-17)
(26.377 1.35462 1.2269e-16)
(26.4913 1.72864 -2.8049e-16)
(26.5405 2.09372 1.13523e-15)
(26.5263 2.44123 -1.08517e-15)
(26.4437 2.76518 1.60861e-17)
(26.2933 3.05318 -8.46873e-16)
(26.0284 3.30081 -1.35986e-17)