/*--------------------------------*- C++ -*----------------------------------*\
| =========                 |                                                 |
| \\      /  F ield         | OpenFOAM: The Open Source CFD Toolbox           |
|  \\    /   O peration     | Version:  2.3.1                                 |
|   \\  /    A nd           | Web:      www.OpenFOAM.org                      |
|    \\/     M anipulation  |                                                 |
\*---------------------------------------------------------------------------*/
FoamFile
{
    version     2.0;
    format      ascii;
    class       volScalarField;
    location    "1";
    object      epsilon;
}
// * * * * * * * * * * * * * * * * * * * * * * * * * * * * * * * * * * * * * //

dimensions      [0 2 -3 0 0 0 0];

internalField   nonuniform List<scalar> 
1000
(
0.000790309
0.000817163
0.000818214
0.00081821
0.000818199
0.000818195
0.000818187
0.00081818
0.00081805
0.000815596
0.000818899
0.000830775
0.000831885
0.000831951
0.000831963
0.00083196
0.000831942
0.000831876
0.000830809
0.00081805
0.000822936
0.000835442
0.000836773
0.000836882
0.000836906
0.000836902
0.000836868
0.000836766
0.000835458
0.000820745
0.000826918
0.00084069
0.000842232
0.000842422
0.000842485
0.000842482
0.000842417
0.000842246
0.00084075
0.000824784
0.000828836
0.000845255
0.000847086
0.000847328
0.000847402
0.000847402
0.000847343
0.000847131
0.000845392
0.00082679
0.00081838
0.000827192
0.00082815
0.000828261
0.00082829
0.000828302
0.000828303
0.000828269
0.000827453
0.000817878
0.000828509
0.000576233
0.00056051
0.000559733
0.000559703
0.000559685
0.000559666
0.000560252
0.000575424
0.000827359
0.000831841
0.000556664
0.000538747
0.000537889
0.000537875
0.000537873
0.000537872
0.000538596
0.000555968
0.000830656
0.000835368
0.000555792
0.000537523
0.00053664
0.000536625
0.000536624
0.000536633
0.000537392
0.000555178
0.000834193
0.000838031
0.000561158
0.000542777
0.000542117
0.000542218
0.000542224
0.000542127
0.000542681
0.000560621
0.000836888
0.000821628
0.000829965
0.000830966
0.000831076
0.00083111
0.000831126
0.000831128
0.000831087
0.00083016
0.000819818
0.000830869
0.000559881
0.000542382
0.000541521
0.000541495
0.000541484
0.000541473
0.000542166
0.000559117
0.000829776
0.000833834
0.000539107
0.000519074
0.000518067
0.000518048
0.000518046
0.000518055
0.000518909
0.00053834
0.000832796
0.000836785
0.00053859
0.000518203
0.000517187
0.000517172
0.000517173
0.000517179
0.00051805
0.000537863
0.000835741
0.000839862
0.00054149
0.000520893
0.000519988
0.000520037
0.00052004
0.00051999
0.000520756
0.000540803
0.000838828
0.000823124
0.000831461
0.000832452
0.000832551
0.000832584
0.000832599
0.0008326
0.000832553
0.000831614
0.000821202
0.000832176
0.000557302
0.000539641
0.000538782
0.000538759
0.000538751
0.000538753
0.000539471
0.00055667
0.000831075
0.000834825
0.000537619
0.000517481
0.000516465
0.00051644
0.00051644
0.000516453
0.000517323
0.000536898
0.000833799
0.00083736
0.000537383
0.000516966
0.000515951
0.00051594
0.00051594
0.000515944
0.000516812
0.000536675
0.000836321
0.000840514
0.000538681
0.000518046
0.000517066
0.000517074
0.000517075
0.00051706
0.000517897
0.000537984
0.000839472
0.000823952
0.000832298
0.000833278
0.000833369
0.000833398
0.00083341
0.000833408
0.000833357
0.000832409
0.000821944
0.000832945
0.000555368
0.000537602
0.000536738
0.00053671
0.000536707
0.000536718
0.000537458
0.000554804
0.000831808
0.000835406
0.000537067
0.000516962
0.000515946
0.00051592
0.000515919
0.000515937
0.000516807
0.000536382
0.00083436
0.000837736
0.000537001
0.000516701
0.000515703
0.000515691
0.000515692
0.000515694
0.000516551
0.000536317
0.000836684
0.00084084
0.000537659
0.000517225
0.000516231
0.000516224
0.000516224
0.000516222
0.000517072
0.000536977
0.00083978
0.000824076
0.000832781
0.000833792
0.000833888
0.000833919
0.000833929
0.000833922
0.000833858
0.000832874
0.000822031
0.000833145
0.000554143
0.000536308
0.000535441
0.000535417
0.000535417
0.000535437
0.000536189
0.000553636
0.000831985
0.000835615
0.000536889
0.000516816
0.000515808
0.000515783
0.000515784
0.0005158
0.00051667
0.000536233
0.000834553
0.000838003
0.000536932
0.000516733
0.000515747
0.00051574
0.00051574
0.000515741
0.000516584
0.000536271
0.000836935
0.00084114
0.000537528
0.000517314
0.000516347
0.000516343
0.000516344
0.000516336
0.000517163
0.000536865
0.000840064
0.000823542
0.00083321
0.000834314
0.000834424
0.000834458
0.000834466
0.000834449
0.000834368
0.000833293
0.000821473
0.000832776
0.000554201
0.000536382
0.000535521
0.000535496
0.000535498
0.000535514
0.000536266
0.000553704
0.000831591
0.000835509
0.000537263
0.00051725
0.000516256
0.000516238
0.000516237
0.00051625
0.000517104
0.000536621
0.000834421
0.000838255
0.000537459
0.000517339
0.000516379
0.000516377
0.00051638
0.00051637
0.000517193
0.000536804
0.000837162
0.000841717
0.000538704
0.000518663
0.000517762
0.000517785
0.000517786
0.000517754
0.000518512
0.000538052
0.00084061
0.000822304
0.000832858
0.000834044
0.000834169
0.000834209
0.000834214
0.00083419
0.000834087
0.000832935
0.000820223
0.000831783
0.000555885
0.000538295
0.000537459
0.000537444
0.000537444
0.000537457
0.000538183
0.000555413
0.000830572
0.000834942
0.000539761
0.000520097
0.000519161
0.000519158
0.000519163
0.000519155
0.000519962
0.000539148
0.000833825
0.000838267
0.000540832
0.000521198
0.000520332
0.000520365
0.000520365
0.00052033
0.000521058
0.000540217
0.000837136
0.000842366
0.000544701
0.000525529
0.000524892
0.000525005
0.000525012
0.000524888
0.000525398
0.000544114
0.000841218
0.000820297
0.000830511
0.000831612
0.000831737
0.000831777
0.000831782
0.00083175
0.000831646
0.000830564
0.000818193
0.000829368
0.000577813
0.000562546
0.000561908
0.000561926
0.000561934
0.000561915
0.000562478
0.000577496
0.000828047
0.000832964
0.000566279
0.000549603
0.00054897
0.000549038
0.000549043
0.000548983
0.000549518
0.000565871
0.000831714
0.000836938
0.000572321
0.000556286
0.000555904
0.000556056
0.000556068
0.000555914
0.000556213
0.000571938
0.000835659
0.000842184
0.00058825
0.000574176
0.000574466
0.000574828
0.000574835
0.000574487
0.000574126
0.000588
0.000840871
0.000815835
0.000816303
0.000816377
0.000816401
0.000816412
0.000816414
0.000816404
0.00081638
0.000816227
0.000813594
0.000818658
0.000826967
0.00082794
0.000828058
0.000828092
0.000828096
0.000828062
0.000827963
0.000827006
0.000816487
0.00082218
0.000831423
0.000832633
0.000832832
0.000832902
0.000832906
0.00083284
0.000832656
0.000831478
0.000820014
0.000827003
0.000836746
0.000838195
0.000838523
0.000838634
0.000838641
0.000838522
0.000838208
0.000836785
0.000824835
0.000835044
0.00084961
0.000852439
0.000852945
0.000853058
0.000853051
0.000852926
0.000852418
0.000849782
0.000832973
0.000862465
0.000965676
0.000990365
0.000988
0.000986149
0.000986033
0.000987619
0.000990204
0.000969
0.000861681
0.00107171
0.00236331
0.00267227
0.00260528
0.00257016
0.00256839
0.00259983
0.00266982
0.00240625
0.00108649
0.00282826
0.014448
0.017115
0.0165853
0.0163037
0.0162898
0.0165417
0.0171
0.0147782
0.00296365
0.0119399
0.0692969
0.0819158
0.0813022
0.080606
0.080558
0.0811587
0.0818997
0.070501
0.0125303
0.0411816
0.242348
0.28663
0.28977
0.289294
0.289185
0.289468
0.286711
0.245554
0.0427707
0.000851612
0.000627838
0.000619355
0.000620589
0.000621011
0.000621007
0.000620579
0.000619342
0.000628146
0.000850406
0.000876847
0.00085645
0.000891241
0.000891208
0.000889097
0.000888912
0.00089072
0.000891317
0.000862303
0.000877112
0.00107226
0.00281187
0.00324385
0.00315483
0.0031073
0.00310519
0.00314833
0.00324316
0.00286561
0.00108471
0.00313109
0.0355093
0.0403742
0.0385998
0.0378119
0.0377895
0.0385393
0.0403934
0.0360959
0.00324915
0.0666219
0.492215
0.559891
0.564141
0.563569
0.563454
0.563867
0.560374
0.49748
0.069144
0.000847499
0.000552872
0.000534935
0.000534785
0.000535056
0.00053506
0.000534789
0.000534823
0.000552396
0.0008464
0.000854671
0.000578852
0.000565937
0.000566377
0.000566559
0.000566551
0.000566355
0.000565883
0.000579052
0.00085375
0.000882531
0.000911435
0.000956252
0.000956512
0.000954663
0.000954502
0.000956103
0.000956762
0.000918992
0.000883206
0.00196522
0.0168868
0.0188776
0.0188055
0.018725
0.0187212
0.0187986
0.0189069
0.0171341
0.00201815
0.0696451
0.516492
0.570389
0.57219
0.571386
0.571345
0.572149
0.571266
0.522039
0.0722419
0.000844632
0.00054184
0.000522176
0.000521519
0.000521646
0.000521649
0.000521515
0.000522037
0.000541222
0.000843559
0.000850446
0.000544133
0.00052493
0.000524181
0.000524217
0.000524217
0.000524173
0.000524796
0.000543635
0.000849439
0.00086423
0.000738835
0.000738553
0.000738853
0.000739452
0.000739504
0.000739014
0.000739098
0.000741792
0.000864064
0.0018372
0.0164814
0.0182209
0.0183363
0.0183363
0.0183358
0.0183396
0.0182615
0.0167156
0.00188336
0.0772762
0.562713
0.617731
0.621659
0.621679
0.621677
0.621775
0.618927
0.568794
0.0802245
0.000842921
0.000540266
0.000520333
0.000519581
0.00051968
0.000519683
0.000519579
0.000520197
0.000539634
0.000841858
0.000848739
0.000538788
0.000518555
0.00051756
0.000517534
0.000517533
0.000517549
0.000518406
0.000538183
0.000847736
0.000859509
0.000717604
0.00072005
0.000723304
0.0007248
0.000724854
0.000723562
0.000720767
0.000720498
0.000859244
0.00208304
0.0188072
0.0207376
0.0213448
0.0215579
0.0215631
0.0213717
0.0208118
0.0190621
0.0021451
0.0805094
0.571068
0.625151
0.629609
0.629876
0.629888
0.629786
0.626452
0.577174
0.0835812
0.000842592
0.000541409
0.000521136
0.000520378
0.00052049
0.000520493
0.00052038
0.000521006
0.000540771
0.000841544
0.000848836
0.000539928
0.000518655
0.000517628
0.000517602
0.000517601
0.000517619
0.000518508
0.000539289
0.000847846
0.000863091
0.000737266
0.00074435
0.000752472
0.000755781
0.000755863
0.000752858
0.000745251
0.000740269
0.000862972
0.00284842
0.0185881
0.0205552
0.0213623
0.0216937
0.0217019
0.0213998
0.020631
0.0188137
0.00294103
0.0813072
0.548524
0.597759
0.602479
0.603091
0.603119
0.602728
0.599069
0.554113
0.0843459
0.000843329
0.000544062
0.000523455
0.00052271
0.000522843
0.000522849
0.000522718
0.000523334
0.000543423
0.000842317
0.000849758
0.000543955
0.000521743
0.000520869
0.000520916
0.000520919
0.000520872
0.000521616
0.000543321
0.000848774
0.000873169
0.000750225
0.000757059
0.000766385
0.000770359
0.000770462
0.000766834
0.000758019
0.000753038
0.000873313
0.00341991
0.0158177
0.0175821
0.0180649
0.0182493
0.0182536
0.0180864
0.0176383
0.0160124
0.00350915
0.078669
0.482268
0.521397
0.526178
0.527285
0.527332
0.526481
0.522543
0.486637
0.0813585
0.000845233
0.00054729
0.000526452
0.000525674
0.000525796
0.000525804
0.000525686
0.000526338
0.000546656
0.000844246
0.00085027
0.000556166
0.000534001
0.000533726
0.000533992
0.000534002
0.000533756
0.000533923
0.000555628
0.000849277
0.00088312
0.000755759
0.000757611
0.000764434
0.000767366
0.000767441
0.000764763
0.000758333
0.000757912
0.000883076
0.00254794
0.0117488
0.0130302
0.0132852
0.0133735
0.0133748
0.0132953
0.0130643
0.011885
0.0025901
0.0672738
0.361169
0.387169
0.390905
0.392046
0.392092
0.391156
0.387985
0.363981
0.0691314
0.000847349
0.000564319
0.000545381
0.000544628
0.000544696
0.000544703
0.000544638
0.000545287
0.000563807
0.000846288
0.000848482
0.00059945
0.000581052
0.000582021
0.000582687
0.000582708
0.00058209
0.000581081
0.00059923
0.000847406
0.000892285
0.000774082
0.000770724
0.000774598
0.000776274
0.000776309
0.000774765
0.000771119
0.000775393
0.000892042
0.00175386
0.0070411
0.00780574
0.00791072
0.00794072
0.00794051
0.00791357
0.00782137
0.00711615
0.00177955
0.0421226
0.200804
0.214036
0.21617
0.216876
0.2169
0.216304
0.214448
0.202191
0.0430051
0.000840712
0.000860331
0.000862946
0.000863511
0.000863731
0.000863748
0.000863539
0.000863048
0.000860583
0.000838682
0.000833239
0.000866429
0.000870876
0.000871582
0.000871779
0.000871798
0.000871645
0.000871039
0.000866817
0.000831201
0.000891055
0.000943446
0.000950744
0.000952568
0.000953164
0.000953173
0.000952651
0.000950924
0.000944137
0.000889434
0.00115426
0.00171509
0.00182731
0.00184428
0.00184852
0.00184846
0.00184454
0.00182937
0.00172506
0.0011603
0.0117349
0.0288292
0.0304904
0.0309422
0.0310806
0.0310847
0.0309621
0.030548
0.0290185
0.0118931
)
;

boundaryField
{
    walls
    {
        type            epsilonWallFunction;
        value           nonuniform List<scalar> 
500
(
0.000790309
0.000790309
0.000790309
0.000817163
0.000817163
0.000818214
0.000818214
0.00081821
0.00081821
0.000818199
0.000818199
0.000818195
0.000818195
0.000818187
0.000818187
0.00081818
0.00081818
0.00081805
0.00081805
0.000815596
0.000815596
0.000815596
0.000818899
0.000818899
0.000830775
0.000831885
0.000831951
0.000831963
0.00083196
0.000831942
0.000831876
0.000830809
0.00081805
0.00081805
0.000822936
0.000822936
0.000835442
0.000836773
0.000836882
0.000836906
0.000836902
0.000836868
0.000836766
0.000835458
0.000820745
0.000820745
0.000826918
0.000826918
0.00084069
0.000842232
0.000842422
0.000842485
0.000842482
0.000842417
0.000842246
0.00084075
0.000824784
0.000824784
0.000828836
0.000828836
0.000845255
0.000847086
0.000847328
0.000847402
0.000847402
0.000847343
0.000847131
0.000845392
0.00082679
0.00082679
0.00081838
0.00081838
0.000827192
0.00082815
0.000828261
0.00082829
0.000828302
0.000828303
0.000828269
0.000827453
0.000817878
0.000817878
0.000828509
0.000827359
0.000831841
0.000830656
0.000835368
0.000834193
0.000838031
0.000836888
0.000821628
0.000821628
0.000829965
0.000830966
0.000831076
0.00083111
0.000831126
0.000831128
0.000831087
0.00083016
0.000819818
0.000819818
0.000830869
0.000829776
0.000833834
0.000832796
0.000836785
0.000835741
0.000839862
0.000838828
0.000823124
0.000823124
0.000831461
0.000832452
0.000832551
0.000832584
0.000832599
0.0008326
0.000832553
0.000831614
0.000821202
0.000821202
0.000832176
0.000831075
0.000834825
0.000833799
0.00083736
0.000836321
0.000840514
0.000839472
0.000823952
0.000823952
0.000832298
0.000833278
0.000833369
0.000833398
0.00083341
0.000833408
0.000833357
0.000832409
0.000821944
0.000821944
0.000832945
0.000831808
0.000835406
0.00083436
0.000837736
0.000836684
0.00084084
0.00083978
0.000824076
0.000824076
0.000832781
0.000833792
0.000833888
0.000833919
0.000833929
0.000833922
0.000833858
0.000832874
0.000822031
0.000822031
0.000833145
0.000831985
0.000835615
0.000834553
0.000838003
0.000836935
0.00084114
0.000840064
0.000823542
0.000823542
0.00083321
0.000834314
0.000834424
0.000834458
0.000834466
0.000834449
0.000834368
0.000833293
0.000821473
0.000821473
0.000832776
0.000831591
0.000835509
0.000834421
0.000838255
0.000837162
0.000841717
0.00084061
0.000822304
0.000822304
0.000832858
0.000834044
0.000834169
0.000834209
0.000834214
0.00083419
0.000834087
0.000832935
0.000820223
0.000820223
0.000831783
0.000830572
0.000834942
0.000833825
0.000838267
0.000837136
0.000842366
0.000841218
0.000820297
0.000820297
0.000830511
0.000831612
0.000831737
0.000831777
0.000831782
0.00083175
0.000831646
0.000830564
0.000818193
0.000818193
0.000829368
0.000828047
0.000832964
0.000831714
0.000836938
0.000835659
0.000842184
0.000840871
0.000815835
0.000815835
0.000815835
0.000816303
0.000816303
0.000816377
0.000816377
0.000816401
0.000816401
0.000816412
0.000816412
0.000816414
0.000816414
0.000816404
0.000816404
0.00081638
0.00081638
0.000816227
0.000816227
0.000813594
0.000813594
0.000813594
0.000818658
0.000818658
0.000826967
0.00082794
0.000828058
0.000828092
0.000828096
0.000828062
0.000827963
0.000827006
0.000816487
0.000816487
0.00082218
0.00082218
0.000831423
0.000832633
0.000832832
0.000832902
0.000832906
0.00083284
0.000832656
0.000831478
0.000820014
0.000820014
0.000827003
0.000827003
0.000836746
0.000838195
0.000838523
0.000838634
0.000838641
0.000838522
0.000838208
0.000836785
0.000824835
0.000824835
0.000835044
0.000835044
0.00084961
0.000852439
0.000852945
0.000853058
0.000853051
0.000852926
0.000852418
0.000849782
0.000832973
0.000832973
0.000862465
0.000862465
0.000965676
0.000990365
0.000988
0.000986149
0.000986033
0.000987619
0.000990204
0.000969
0.000861681
0.000861681
0.00107171
0.00107171
0.00236331
0.00267227
0.00260528
0.00257016
0.00256839
0.00259983
0.00266982
0.00240625
0.00108649
0.00108649
0.00282826
0.00282826
0.014448
0.017115
0.0165853
0.0163037
0.0162898
0.0165417
0.0171
0.0147782
0.00296365
0.00296365
0.0119399
0.0119399
0.0692969
0.0819158
0.0813022
0.080606
0.080558
0.0811587
0.0818997
0.070501
0.0125303
0.0125303
0.0411816
0.0411816
0.242348
0.28663
0.28977
0.289294
0.289185
0.289468
0.286711
0.245554
0.0427707
0.0427707
0.000851612
0.000850406
0.000876847
0.000877112
0.00107226
0.00108471
0.00313109
0.00324915
0.0666219
0.069144
0.000847499
0.0008464
0.000854671
0.00085375
0.000882531
0.000883206
0.00196522
0.00201815
0.0696451
0.0722419
0.000844632
0.000843559
0.000850446
0.000849439
0.00086423
0.000864064
0.0018372
0.00188336
0.0772762
0.0802245
0.000842921
0.000841858
0.000848739
0.000847736
0.000859509
0.000859244
0.00208304
0.0021451
0.0805094
0.0835812
0.000842592
0.000841544
0.000848836
0.000847846
0.000863091
0.000862972
0.00284842
0.00294103
0.0813072
0.0843459
0.000843329
0.000842317
0.000849758
0.000848774
0.000873169
0.000873313
0.00341991
0.00350915
0.078669
0.0813585
0.000845233
0.000844246
0.00085027
0.000849277
0.00088312
0.000883076
0.00254794
0.0025901
0.0672738
0.0691314
0.000847349
0.000846288
0.000848482
0.000847406
0.000892285
0.000892042
0.00175386
0.00177955
0.0421226
0.0430051
0.000840712
0.000840712
0.000860331
0.000862946
0.000863511
0.000863731
0.000863748
0.000863539
0.000863048
0.000860583
0.000838682
0.000838682
0.000833239
0.000833239
0.000866429
0.000870876
0.000871582
0.000871779
0.000871798
0.000871645
0.000871039
0.000866817
0.000831201
0.000831201
0.000891055
0.000891055
0.000943446
0.000950744
0.000952568
0.000953164
0.000953173
0.000952651
0.000950924
0.000944137
0.000889434
0.000889434
0.00115426
0.00115426
0.00171509
0.00182731
0.00184428
0.00184852
0.00184846
0.00184454
0.00182937
0.00172506
0.0011603
0.0011603
0.0117349
0.0117349
0.0288292
0.0304904
0.0309422
0.0310806
0.0310847
0.0309621
0.030548
0.0290185
0.0118931
0.0118931
)
;
        Cmu             0.09;
        kappa           0.41;
        E               9.8;
    }
    lid
    {
        type            epsilonWallFunction;
        value           nonuniform List<scalar> 
100
(
0.0411816
0.242348
0.28663
0.28977
0.289294
0.289185
0.289468
0.286711
0.245554
0.0427707
0.0666219
0.492215
0.559891
0.564141
0.563569
0.563454
0.563867
0.560374
0.49748
0.069144
0.0696451
0.516492
0.570389
0.57219
0.571386
0.571345
0.572149
0.571266
0.522039
0.0722419
0.0772762
0.562713
0.617731
0.621659
0.621679
0.621677
0.621775
0.618927
0.568794
0.0802245
0.0805094
0.571068
0.625151
0.629609
0.629876
0.629888
0.629786
0.626452
0.577174
0.0835812
0.0813072
0.548524
0.597759
0.602479
0.603091
0.603119
0.602728
0.599069
0.554113
0.0843459
0.078669
0.482268
0.521397
0.526178
0.527285
0.527332
0.526481
0.522543
0.486637
0.0813585
0.0672738
0.361169
0.387169
0.390905
0.392046
0.392092
0.391156
0.387985
0.363981
0.0691314
0.0421226
0.200804
0.214036
0.21617
0.216876
0.2169
0.216304
0.214448
0.202191
0.0430051
0.0117349
0.0288292
0.0304904
0.0309422
0.0310806
0.0310847
0.0309621
0.030548
0.0290185
0.0118931
)
;
        Cmu             0.09;
        kappa           0.41;
        E               9.8;
    }
}


// ************************************************************************* //
