/*--------------------------------*- C++ -*----------------------------------*\
| =========                 |                                                 |
| \\      /  F ield         | OpenFOAM: The Open Source CFD Toolbox           |
|  \\    /   O peration     | Version:  2.3.1                                 |
|   \\  /    A nd           | Web:      www.OpenFOAM.org                      |
|    \\/     M anipulation  |                                                 |
\*---------------------------------------------------------------------------*/
FoamFile
{
    version     2.0;
    format      ascii;
    class       volScalarField;
    location    "1";
    object      nut;
}
// * * * * * * * * * * * * * * * * * * * * * * * * * * * * * * * * * * * * * //

dimensions      [0 2 -1 0 0 0 0];

internalField   nonuniform List<scalar> 
1000
(
0.000514976
0.000520679
0.000520913
0.000520912
0.000520911
0.000520909
0.000520908
0.000520905
0.000520877
0.000520347
0.000521079
0.000523799
0.000524058
0.000524076
0.000524077
0.000524078
0.000524073
0.000524058
0.000523809
0.000520922
0.000522003
0.000524879
0.000525191
0.000525215
0.000525223
0.00052522
0.000525214
0.000525189
0.000524885
0.000521545
0.000522942
0.000526096
0.000526454
0.000526499
0.000526512
0.000526513
0.000526498
0.000526458
0.00052611
0.000522496
0.000523345
0.000527115
0.000527542
0.000527598
0.000527615
0.000527615
0.000527602
0.000527552
0.000527146
0.000522918
0.000520978
0.000522953
0.000523171
0.000523197
0.000523202
0.000523206
0.000523205
0.000523197
0.000523009
0.00052088
0.000523253
0.0010104
0.00106272
0.00106575
0.00106593
0.00106599
0.00106601
0.0010638
0.00101424
0.000523014
0.000524019
0.00107782
0.00114242
0.00114619
0.00114636
0.00114638
0.00114629
0.00114326
0.00108173
0.000523772
0.000524838
0.00108383
0.00115006
0.00115394
0.00115412
0.00115413
0.00115401
0.00115083
0.00108754
0.000524595
0.000525424
0.00108795
0.00115654
0.00116084
0.00116114
0.00116115
0.00116092
0.00115734
0.00109166
0.000525187
0.000521713
0.000523593
0.000523823
0.000523846
0.000523855
0.000523857
0.000523859
0.000523847
0.000523635
0.000521333
0.0005238
0.00106368
0.00112566
0.00112925
0.00112941
0.00112946
0.00112946
0.0011267
0.00106778
0.000523571
0.00052448
0.00113914
0.00121654
0.00122119
0.00122139
0.0012214
0.00122129
0.00121751
0.00114375
0.000524265
0.000525162
0.00114512
0.00122441
0.00122923
0.00122945
0.00122945
0.0012293
0.00122535
0.00114964
0.000524946
0.000525855
0.00114628
0.00122733
0.00123244
0.00123273
0.00123273
0.00123252
0.00122828
0.00115078
0.000525642
0.000522061
0.000523939
0.000524166
0.000524189
0.000524196
0.0005242
0.000524199
0.000524189
0.000523971
0.000521657
0.000524101
0.00107152
0.00113454
0.00113814
0.0011383
0.00113833
0.0011383
0.00113543
0.00107522
0.000523872
0.000524712
0.00114351
0.00122158
0.00122627
0.00122647
0.00122648
0.00122636
0.00122253
0.00114797
0.000524499
0.000525293
0.00114884
0.00122857
0.00123341
0.00123364
0.00123364
0.00123349
0.00122951
0.00115331
0.00052508
0.000526017
0.00114901
0.0012298
0.00123479
0.00123504
0.00123504
0.00123486
0.00123074
0.00115346
0.000525802
0.000522252
0.000524134
0.000524359
0.000524379
0.000524387
0.000524388
0.000524389
0.000524375
0.000524158
0.000521831
0.000524282
0.00107714
0.00114087
0.00114451
0.00114467
0.00114469
0.00114462
0.00114167
0.00108063
0.000524044
0.000524846
0.00114472
0.00122272
0.00122738
0.00122758
0.00122758
0.00122746
0.00122363
0.00114906
0.00052463
0.000525384
0.00114941
0.0012287
0.00123349
0.00123371
0.00123372
0.00123357
0.00122962
0.00115378
0.000525166
0.000526098
0.00114954
0.00122932
0.00123417
0.00123439
0.00123439
0.00123424
0.00123024
0.00115389
0.000525882
0.000522284
0.000524246
0.000524479
0.000524503
0.000524508
0.000524512
0.000524508
0.000524495
0.000524265
0.000521853
0.000524328
0.0010811
0.00114536
0.00114902
0.00114918
0.00114918
0.00114909
0.00114606
0.00108441
0.000524086
0.000524899
0.00114551
0.00122345
0.00122811
0.00122831
0.00122831
0.00122818
0.00122434
0.00114974
0.000524679
0.000525445
0.00114979
0.00122875
0.00123351
0.00123373
0.00123373
0.00123358
0.00122965
0.00115407
0.000525226
0.000526173
0.00115029
0.00122931
0.00123408
0.0012343
0.00123431
0.00123415
0.0012302
0.00115455
0.00052595
0.000522157
0.000524356
0.000524613
0.000524637
0.000524647
0.000524646
0.000524645
0.000524622
0.000524375
0.000521723
0.000524248
0.00108174
0.00114606
0.00114973
0.00114989
0.0011499
0.00114979
0.00114675
0.00108501
0.000523999
0.000524873
0.00114541
0.00122321
0.00122785
0.00122806
0.00122806
0.00122793
0.00122409
0.0011496
0.000524649
0.000525513
0.00114947
0.00122819
0.00123293
0.00123315
0.00123315
0.001233
0.00122909
0.00115371
0.000525285
0.000526307
0.00114998
0.00122866
0.00123342
0.00123365
0.00123365
0.00123349
0.00122955
0.00115419
0.000526081
0.000521873
0.000524284
0.000524559
0.000524592
0.000524598
0.000524603
0.000524593
0.000524572
0.000524299
0.000521434
0.000524014
0.00107734
0.00114065
0.00114425
0.00114441
0.00114441
0.00114431
0.00114132
0.00108051
0.000523762
0.00052475
0.00113847
0.0012145
0.00121899
0.00121916
0.00121917
0.00121905
0.00121535
0.0011425
0.000524516
0.000525514
0.00114052
0.0012169
0.00122138
0.00122155
0.00122155
0.00122145
0.00121774
0.00114456
0.000525282
0.000526466
0.00113776
0.00121309
0.00121746
0.00121759
0.0012176
0.00121751
0.0012139
0.00114168
0.000526227
0.000521402
0.000523743
0.000524002
0.00052403
0.000524042
0.00052404
0.000524036
0.000524007
0.000523757
0.00052096
0.000523459
0.0010087
0.00105969
0.00106239
0.00106244
0.00106243
0.0010624
0.00106015
0.00101106
0.00052318
0.000524287
0.001052
0.00111091
0.001114
0.00111399
0.00111398
0.00111401
0.00111147
0.00105491
0.000524028
0.000525219
0.00104276
0.00109962
0.00110232
0.00110218
0.00110218
0.00110231
0.00110014
0.00104553
0.000524949
0.000526434
0.00102174
0.00107377
0.00107579
0.0010755
0.00107549
0.00107577
0.00107419
0.00102419
0.000526164
0.000520407
0.000520518
0.000520536
0.000520543
0.000520544
0.000520546
0.000520542
0.000520538
0.000520501
0.000519932
0.000521068
0.000522933
0.000523158
0.000523184
0.000523195
0.000523193
0.000523188
0.000523162
0.000522943
0.000520611
0.0005219
0.000523973
0.000524251
0.000524302
0.000524315
0.00052432
0.0005243
0.000524259
0.000523983
0.000521444
0.000523034
0.00052524
0.000525582
0.000525658
0.00052569
0.000525686
0.000525663
0.00052558
0.000525252
0.000522583
0.000524988
0.000528755
0.000529552
0.000529677
0.000529691
0.000529697
0.000529663
0.000529555
0.000528813
0.000524564
0.00053239
0.000562842
0.000570228
0.000569474
0.000568916
0.000568872
0.000569375
0.000570188
0.000563825
0.000532382
0.000586999
0.000818148
0.000861392
0.000853223
0.000848657
0.000848438
0.000852533
0.000861202
0.00082398
0.00059078
0.000852724
0.00151836
0.00161492
0.00159991
0.00159092
0.00159047
0.00159858
0.00161473
0.00152994
0.000867664
0.00137593
0.00248889
0.0026388
0.00263495
0.00262792
0.00262743
0.00263356
0.00263897
0.00250284
0.00139852
0.00204327
0.00370113
0.00391989
0.00393579
0.00393388
0.00393343
0.00393458
0.00392061
0.00371683
0.0020693
0.000528715
0.000979067
0.00102139
0.00102228
0.0010218
0.00102178
0.00102224
0.00102167
0.000980889
0.000528476
0.000535726
0.000921457
0.000947362
0.000950966
0.00095176
0.000951792
0.000951072
0.000947655
0.000921995
0.000535932
0.000584353
0.000785681
0.000801086
0.000818891
0.000824736
0.000824824
0.000819253
0.000801573
0.000785398
0.000587361
0.000862387
0.000965796
0.00102149
0.00101393
0.00100985
0.00100963
0.00101344
0.00102185
0.000972518
0.000873776
0.00239133
0.00462586
0.00483447
0.00484827
0.00484692
0.00484664
0.00484763
0.00483612
0.00464164
0.00242062
0.000527669
0.0011293
0.00120202
0.00120604
0.00120611
0.00120611
0.00120608
0.00120277
0.00113301
0.000527447
0.000529434
0.00110137
0.00116443
0.00116769
0.00116764
0.00116764
0.00116773
0.00116506
0.00110434
0.000529258
0.00053678
0.000930854
0.000952962
0.000963458
0.000966901
0.00096701
0.000963832
0.000953463
0.000930015
0.000537039
0.000726575
0.000685707
0.000709056
0.000711475
0.000711831
0.000711795
0.000711455
0.00070943
0.000688684
0.000733619
0.00242367
0.00470555
0.00486949
0.00487612
0.00487411
0.00487401
0.00487612
0.00487214
0.00472158
0.00245287
0.000526999
0.00115104
0.00122998
0.00123488
0.00123517
0.00123518
0.00123496
0.00123087
0.00115525
0.000526778
0.000528349
0.00114041
0.00121609
0.00122041
0.00122048
0.00122047
0.00122046
0.0012169
0.00114434
0.00052815
0.000531719
0.000952094
0.000989806
0.00099389
0.000994054
0.000994016
0.000993824
0.000989901
0.000952395
0.000531711
0.000707936
0.00063523
0.000652596
0.000654667
0.000655093
0.000655091
0.000654724
0.000653008
0.000637755
0.00071434
0.00251113
0.00483471
0.00499297
0.00500493
0.00500527
0.0050053
0.00500529
0.00499624
0.00485115
0.00254186
0.000526594
0.00115274
0.00123254
0.00123754
0.00123786
0.00123786
0.00123762
0.00123346
0.00115704
0.000526378
0.000527948
0.00114594
0.00122444
0.00122905
0.0012292
0.0012292
0.00122911
0.00122531
0.00115008
0.000527741
0.000530646
0.000952351
0.000984906
0.000984513
0.000983325
0.000983272
0.000984317
0.000984723
0.000952355
0.000530627
0.000748033
0.000628866
0.000647427
0.000650082
0.000650891
0.00065091
0.0006502
0.000647942
0.000631565
0.000755946
0.00254403
0.00484814
0.0050012
0.00501422
0.00501518
0.00501518
0.00501473
0.00500465
0.00486424
0.00257504
0.000526513
0.00115226
0.0012335
0.00123867
0.00123901
0.00123901
0.00123875
0.00123445
0.00115667
0.000526297
0.000527968
0.00114275
0.00122511
0.00123005
0.00123021
0.00123021
0.00123012
0.00122603
0.00114703
0.000527768
0.000531671
0.0009397
0.000968644
0.000964012
0.000961277
0.000961218
0.000963715
0.000968349
0.000939791
0.000531682
0.000832827
0.000652456
0.000675539
0.000682756
0.000685483
0.000685536
0.000683051
0.000676283
0.000655118
0.000841973
0.00254879
0.00476494
0.00490601
0.00492016
0.00492293
0.00492305
0.00492091
0.00490952
0.00477974
0.00257865
0.000526678
0.00115244
0.00123529
0.00124066
0.00124102
0.00124103
0.00124075
0.00123628
0.00115696
0.000526471
0.000528159
0.00113989
0.00122742
0.00123297
0.00123319
0.00123318
0.00123304
0.0012284
0.00114438
0.000527957
0.000533978
0.000969155
0.00100287
0.000998784
0.000996028
0.00099596
0.000998502
0.00100267
0.000969817
0.000534051
0.000873858
0.000651909
0.000675455
0.000683794
0.000687187
0.000687262
0.000684121
0.000676217
0.000654084
0.000880734
0.00250983
0.00453543
0.00465617
0.00467155
0.00467529
0.00467544
0.00467244
0.00465944
0.00454768
0.00253619
0.000527113
0.0011502
0.00123368
0.00123912
0.00123949
0.00123949
0.00123921
0.00123467
0.00115475
0.00052691
0.000528239
0.00114257
0.00123634
0.00124313
0.00124361
0.00124361
0.00124323
0.00123742
0.00114738
0.000528042
0.000535844
0.00105137
0.00110048
0.00110115
0.00110011
0.00110009
0.00110104
0.00110072
0.00105323
0.000535861
0.000778406
0.000627161
0.000649571
0.000655019
0.000656927
0.000656956
0.000655177
0.000650073
0.000628844
0.00078305
0.0023629
0.00409617
0.00419392
0.00420782
0.00421209
0.00421226
0.00420869
0.00419669
0.00410575
0.00238243
0.000527583
0.00109269
0.00116375
0.00116823
0.00116851
0.00116852
0.00116831
0.00116457
0.00109645
0.000527366
0.000527807
0.00110903
0.00119665
0.00120404
0.0012049
0.00120492
0.00120416
0.0011977
0.00111349
0.000527588
0.000537624
0.00110383
0.00116511
0.00116989
0.00117039
0.00117041
0.00116996
0.00116575
0.00110652
0.000537592
0.000686003
0.000623853
0.00064918
0.000650787
0.000650664
0.000650643
0.000650757
0.000649424
0.000625024
0.00068941
0.00200353
0.00335954
0.00343411
0.00344579
0.00344957
0.0034497
0.00344647
0.00343621
0.00336668
0.00201629
0.000526132
0.000530536
0.000531127
0.000531253
0.000531303
0.000531306
0.00053126
0.000531149
0.000530591
0.000525714
0.000524411
0.000531953
0.000532978
0.000533144
0.000533189
0.000533193
0.000533157
0.000533015
0.00053204
0.00052399
0.000537039
0.000548332
0.000549886
0.000550264
0.000550386
0.000550388
0.00055028
0.000549924
0.000548474
0.000536723
0.000590411
0.000680709
0.000696686
0.000698991
0.000699538
0.000699527
0.000699019
0.000696954
0.000682062
0.00059152
0.00129853
0.00176209
0.00179723
0.00180655
0.00180936
0.00180944
0.00180694
0.00179836
0.00176588
0.00130418
)
;

boundaryField
{
    walls
    {
        type            nutkWallFunction;
        Cmu             0.09;
        kappa           0.41;
        E               9.8;
        value           nonuniform List<scalar> 
500
(
6.27129e-05
6.27129e-05
6.27129e-05
6.34105e-05
6.34105e-05
6.34379e-05
6.34379e-05
6.34378e-05
6.34378e-05
6.34376e-05
6.34376e-05
6.34374e-05
6.34374e-05
6.34372e-05
6.34372e-05
6.3437e-05
6.3437e-05
6.34336e-05
6.34336e-05
6.33702e-05
6.33702e-05
6.33702e-05
6.34562e-05
6.34562e-05
6.37664e-05
6.37954e-05
6.37972e-05
6.37974e-05
6.37974e-05
6.37969e-05
6.37952e-05
6.37673e-05
6.3435e-05
6.3435e-05
6.35618e-05
6.35618e-05
6.38879e-05
6.39227e-05
6.39255e-05
6.39262e-05
6.3926e-05
6.39252e-05
6.39225e-05
6.38884e-05
6.35058e-05
6.35058e-05
6.36667e-05
6.36667e-05
6.40244e-05
6.40644e-05
6.40693e-05
6.40709e-05
6.40709e-05
6.40692e-05
6.40647e-05
6.40259e-05
6.36123e-05
6.36123e-05
6.37156e-05
6.37156e-05
6.41414e-05
6.41888e-05
6.41951e-05
6.4197e-05
6.4197e-05
6.41955e-05
6.419e-05
6.4145e-05
6.36635e-05
6.36635e-05
6.34431e-05
6.34431e-05
6.36723e-05
6.36972e-05
6.37001e-05
6.37008e-05
6.37011e-05
6.37011e-05
6.37003e-05
6.36789e-05
6.34304e-05
6.34304e-05
6.37065e-05
6.36773e-05
6.37934e-05
6.37633e-05
6.38853e-05
6.38556e-05
6.39536e-05
6.39248e-05
6.35279e-05
6.35279e-05
6.37446e-05
6.37707e-05
6.37735e-05
6.37745e-05
6.37748e-05
6.37749e-05
6.37738e-05
6.37497e-05
6.34816e-05
6.34816e-05
6.37682e-05
6.37404e-05
6.38453e-05
6.3819e-05
6.39221e-05
6.38957e-05
6.40014e-05
6.39753e-05
6.35672e-05
6.35672e-05
6.37837e-05
6.38095e-05
6.38121e-05
6.38129e-05
6.38133e-05
6.38133e-05
6.38121e-05
6.37876e-05
6.3518e-05
6.3518e-05
6.38023e-05
6.37743e-05
6.38712e-05
6.38452e-05
6.39369e-05
6.39107e-05
6.40186e-05
6.39924e-05
6.35889e-05
6.35889e-05
6.38055e-05
6.3831e-05
6.38334e-05
6.38342e-05
6.38345e-05
6.38344e-05
6.3833e-05
6.38084e-05
6.35376e-05
6.35376e-05
6.38224e-05
6.37935e-05
6.38863e-05
6.38598e-05
6.39468e-05
6.39202e-05
6.40273e-05
6.40007e-05
6.35923e-05
6.35923e-05
6.38182e-05
6.38445e-05
6.3847e-05
6.38478e-05
6.38481e-05
6.38478e-05
6.38462e-05
6.38205e-05
6.35399e-05
6.35399e-05
6.38276e-05
6.37981e-05
6.38919e-05
6.3865e-05
6.39537e-05
6.39268e-05
6.40352e-05
6.40081e-05
6.35782e-05
6.35782e-05
6.38297e-05
6.38584e-05
6.38613e-05
6.38622e-05
6.38624e-05
6.3862e-05
6.38597e-05
6.38318e-05
6.35252e-05
6.35252e-05
6.38181e-05
6.3788e-05
6.3889e-05
6.38616e-05
6.39606e-05
6.39329e-05
6.40502e-05
6.40224e-05
6.35458e-05
6.35458e-05
6.38208e-05
6.38517e-05
6.38551e-05
6.3856e-05
6.38563e-05
6.38555e-05
6.38529e-05
6.38227e-05
6.34924e-05
6.34924e-05
6.37921e-05
6.37614e-05
6.38745e-05
6.38462e-05
6.39608e-05
6.39323e-05
6.40673e-05
6.40383e-05
6.34929e-05
6.34929e-05
6.37596e-05
6.37885e-05
6.37917e-05
6.37928e-05
6.37929e-05
6.37921e-05
6.37893e-05
6.37611e-05
6.34389e-05
6.34389e-05
6.37292e-05
6.36955e-05
6.38229e-05
6.37912e-05
6.39267e-05
6.38942e-05
6.40629e-05
6.40298e-05
6.33766e-05
6.33766e-05
6.33766e-05
6.33891e-05
6.33891e-05
6.3391e-05
6.3391e-05
6.33917e-05
6.33917e-05
6.33919e-05
6.33919e-05
6.3392e-05
6.3392e-05
6.33917e-05
6.33917e-05
6.33911e-05
6.33911e-05
6.3387e-05
6.3387e-05
6.33189e-05
6.33189e-05
6.33189e-05
6.34512e-05
6.34512e-05
6.36673e-05
6.36928e-05
6.36958e-05
6.36968e-05
6.36968e-05
6.3696e-05
6.36933e-05
6.36684e-05
6.33954e-05
6.33954e-05
6.35442e-05
6.35442e-05
6.3784e-05
6.38155e-05
6.38208e-05
6.38225e-05
6.38228e-05
6.38209e-05
6.38162e-05
6.37854e-05
6.34887e-05
6.34887e-05
6.36711e-05
6.36711e-05
6.39237e-05
6.39615e-05
6.397e-05
6.39731e-05
6.39731e-05
6.39702e-05
6.39617e-05
6.39248e-05
6.36159e-05
6.36159e-05
6.38837e-05
6.38837e-05
6.4273e-05
6.43502e-05
6.43634e-05
6.4366e-05
6.4366e-05
6.43627e-05
6.43499e-05
6.4278e-05
6.38314e-05
6.38314e-05
6.46231e-05
6.46231e-05
6.73805e-05
6.80208e-05
6.79585e-05
6.79106e-05
6.79073e-05
6.79491e-05
6.80169e-05
6.74669e-05
6.46082e-05
6.46082e-05
6.98554e-05
6.98554e-05
9.1782e-05
9.57036e-05
9.49062e-05
9.44762e-05
9.44547e-05
9.48401e-05
9.56776e-05
9.23375e-05
7.02022e-05
7.02022e-05
9.6778e-05
9.6778e-05
0.000162828
0.000171811
0.000170192
0.000169295
0.00016925
0.000170055
0.000171772
0.000163976
9.82742e-05
9.82742e-05
0.00015222
0.00015222
0.000262119
0.00027605
0.000275483
0.000274772
0.000274723
0.000275338
0.000276042
0.000263495
0.000154528
0.000154528
0.000222251
0.000222251
0.000382208
0.000402361
0.000403734
0.000403538
0.000403493
0.00040361
0.000402404
0.000383727
0.000224852
0.000224852
6.43094e-05
6.42795e-05
6.49896e-05
6.50007e-05
6.97866e-05
7.00738e-05
9.94287e-05
0.000100626
0.000257388
0.000260319
6.42005e-05
6.4173e-05
6.43884e-05
6.43659e-05
6.51256e-05
6.51458e-05
8.53148e-05
8.60649e-05
0.000260827
0.000263751
6.41262e-05
6.40992e-05
6.42764e-05
6.42515e-05
6.46356e-05
6.46323e-05
8.34095e-05
8.40952e-05
0.000269304
0.000272386
6.40816e-05
6.4055e-05
6.42322e-05
6.42071e-05
6.45154e-05
6.45099e-05
8.71335e-05
8.79758e-05
0.00027266
0.000275776
6.40729e-05
6.40466e-05
6.42347e-05
6.421e-05
6.4613e-05
6.46111e-05
9.63963e-05
9.73917e-05
0.000273395
0.000276441
6.40919e-05
6.40665e-05
6.42578e-05
6.42332e-05
6.48692e-05
6.48741e-05
0.000101866
0.000102685
0.000270378
0.000273124
6.4141e-05
6.41162e-05
6.42698e-05
6.42452e-05
6.51082e-05
6.51079e-05
9.23445e-05
9.28417e-05
0.000257257
0.00025936
6.4195e-05
6.41685e-05
6.42231e-05
6.41963e-05
6.53289e-05
6.53235e-05
8.18493e-05
8.22373e-05
0.000222402
0.000223794
6.40259e-05
6.40259e-05
6.45274e-05
6.45939e-05
6.46082e-05
6.46138e-05
6.46142e-05
6.46089e-05
6.45965e-05
6.45338e-05
6.39748e-05
6.39748e-05
6.38319e-05
6.38319e-05
6.46835e-05
6.47967e-05
6.48148e-05
6.48198e-05
6.48202e-05
6.48163e-05
6.48008e-05
6.46933e-05
6.37803e-05
6.37803e-05
6.52889e-05
6.52889e-05
6.6562e-05
6.67358e-05
6.67789e-05
6.67929e-05
6.67931e-05
6.67808e-05
6.67401e-05
6.65784e-05
6.52499e-05
6.52499e-05
7.12438e-05
7.12438e-05
8.12536e-05
8.29778e-05
8.32305e-05
8.32925e-05
8.32916e-05
8.32341e-05
8.30082e-05
8.14073e-05
7.13681e-05
7.13681e-05
0.00014957
0.00014957
0.000197824
0.000201318
0.000202244
0.000202525
0.000202534
0.000202284
0.000201434
0.000198222
0.000150191
0.000150191
)
;
    }
    lid
    {
        type            nutkWallFunction;
        Cmu             0.09;
        kappa           0.41;
        E               9.8;
        value           nonuniform List<scalar> 
100
(
0.000222251
0.000382208
0.000402361
0.000403734
0.000403538
0.000403493
0.00040361
0.000402404
0.000383727
0.000224852
0.000257388
0.000472637
0.000491623
0.00049279
0.000492645
0.000492616
0.000492721
0.000491758
0.000474151
0.000260319
0.000260827
0.00047971
0.000494519
0.000495028
0.000494823
0.000494813
0.00049502
0.000494754
0.000481252
0.000263751
0.000269304
0.000492192
0.000506459
0.000507467
0.000507479
0.000507479
0.000507497
0.000506758
0.00049378
0.000272386
0.00027266
0.000494159
0.000508028
0.000509152
0.000509224
0.000509226
0.000509197
0.000508349
0.000495731
0.000275776
0.000273395
0.00048772
0.000500676
0.000501903
0.000502083
0.000502091
0.000501967
0.000501008
0.000489193
0.000276441
0.000270378
0.000468333
0.000479591
0.00048095
0.000481268
0.000481281
0.000481034
0.000479907
0.000469584
0.000273124
0.000257257
0.00042841
0.000437598
0.000438887
0.000439281
0.000439296
0.000438972
0.000437874
0.000429397
0.00025936
0.000222402
0.000358146
0.000365228
0.00036634
0.000366705
0.000366717
0.000366408
0.00036544
0.000358883
0.000223794
0.00014957
0.000197824
0.000201318
0.000202244
0.000202525
0.000202534
0.000202284
0.000201434
0.000198222
0.000150191
)
;
    }
}


// ************************************************************************* //
