/*--------------------------------*- C++ -*----------------------------------*\
| =========                 |                                                 |
| \\      /  F ield         | OpenFOAM: The Open Source CFD Toolbox           |
|  \\    /   O peration     | Version:  2.3.1                                 |
|   \\  /    A nd           | Web:      www.OpenFOAM.org                      |
|    \\/     M anipulation  |                                                 |
\*---------------------------------------------------------------------------*/
FoamFile
{
    version     2.0;
    format      ascii;
    class       volVectorField;
    location    "1";
    object      U;
}
// * * * * * * * * * * * * * * * * * * * * * * * * * * * * * * * * * * * * * //

dimensions      [0 1 -1 0 0 0 0];

internalField   nonuniform List<vector> 
1000
(
(-0.00284154 0.0032675 0.000251494)
(-0.00306016 0.00310482 0.000187559)
(-0.00309675 0.0031011 0.000134174)
(-0.00312592 0.00309532 0.000123377)
(-0.00313359 0.00310297 4.48142e-05)
(-0.00313623 0.00310209 -1.51725e-05)
(-0.00313732 0.00308915 -7.05604e-05)
(-0.00313567 0.00307282 -9.41775e-05)
(-0.00313837 0.00305426 -7.41165e-05)
(-0.00313968 0.00304439 -2.99174e-05)
(-0.00337526 0.00925199 6.82333e-05)
(-0.00351463 0.00923986 8.83064e-05)
(-0.00353504 0.00932217 0.000150295)
(-0.00355061 0.00936832 0.000130528)
(-0.00355445 0.00941007 5.42844e-05)
(-0.00355845 0.00940874 -2.71129e-05)
(-0.00355614 0.00937061 -9.78158e-05)
(-0.00355599 0.00930403 -0.000126565)
(-0.00354672 0.00923282 -7.99787e-05)
(-0.00344329 0.00916732 -2.55427e-05)
(-0.00403046 0.0154678 0.000120762)
(-0.00419434 0.0156209 0.000215897)
(-0.0042151 0.0157266 0.000261662)
(-0.00422482 0.0158224 0.000210724)
(-0.00423231 0.0158829 8.58641e-05)
(-0.00423272 0.0158839 -5.40166e-05)
(-0.00423155 0.0158298 -0.000174743)
(-0.00422805 0.0157287 -0.000232223)
(-0.00421554 0.0156321 -0.000175132)
(-0.00407649 0.0154813 -8.17143e-05)
(-0.00499886 0.0276421 0.000115056)
(-0.0051229 0.0281424 0.000301744)
(-0.00511901 0.028581 0.00035505)
(-0.00511676 0.0289462 0.000287104)
(-0.0051169 0.0291432 0.000115853)
(-0.00511919 0.029152 -8.01865e-05)
(-0.00511961 0.0289707 -0.00025312)
(-0.00512736 0.0286171 -0.000327179)
(-0.00513232 0.0281978 -0.000279025)
(-0.00501465 0.0276911 -9.79852e-05)
(-0.00739968 0.0255884 0.000659697)
(-0.00767941 0.0259335 0.00108564)
(-0.00773004 0.0260274 0.00106685)
(-0.00775255 0.0261987 0.000770085)
(-0.00776806 0.0262903 0.000290623)
(-0.00776965 0.0262927 -0.000225891)
(-0.00775832 0.0262088 -0.000707195)
(-0.00773935 0.0260382 -0.00100681)
(-0.00769206 0.0259505 -0.00103404)
(-0.00741506 0.025605 -0.000635074)
(-0.00876438 0.00278671 6.62388e-05)
(-0.00889778 0.00288973 8.39553e-05)
(-0.00890041 0.00292641 0.000102809)
(-0.00893569 0.00293633 9.63215e-05)
(-0.00894396 0.00294858 3.88365e-05)
(-0.00894884 0.00294639 -1.76466e-05)
(-0.00894406 0.00293614 -7.02888e-05)
(-0.00893568 0.00291604 -9.67297e-05)
(-0.0089277 0.00288771 -0.000100889)
(-0.00887354 0.00276989 -4.61548e-05)
(-0.00970298 0.00830819 5.71241e-05)
(-0.00986027 0.00850651 0.000110584)
(-0.00987872 0.00860923 0.000143476)
(-0.00990053 0.0086739 0.00012041)
(-0.00991095 0.00871521 5.08434e-05)
(-0.00991451 0.00871575 -2.75491e-05)
(-0.00990766 0.00867873 -9.65035e-05)
(-0.00989697 0.00861122 -0.000130259)
(-0.00987538 0.00852745 -0.000114429)
(-0.0097126 0.0083426 -4.89992e-05)
(-0.0113913 0.0141128 0.000121142)
(-0.0116094 0.0143628 0.00023212)
(-0.0116441 0.0144999 0.000256986)
(-0.0116724 0.0146141 0.000200404)
(-0.0116887 0.0146788 8.14867e-05)
(-0.0116919 0.014681 -5.2273e-05)
(-0.0116804 0.014622 -0.000171362)
(-0.0116628 0.0145095 -0.000233473)
(-0.0116305 0.0143845 -0.000215491)
(-0.0114314 0.0141461 -0.000105253)
(-0.0138101 0.0245877 0.00020692)
(-0.0140156 0.0249907 0.000432317)
(-0.0140252 0.0253914 0.000395316)
(-0.0140366 0.0257392 0.000299368)
(-0.0140482 0.0259265 0.000117909)
(-0.0140504 0.0259337 -8.36978e-05)
(-0.0140442 0.0257628 -0.000267127)
(-0.0140379 0.0254275 -0.000368204)
(-0.0140295 0.0250479 -0.000412698)
(-0.0138274 0.0246577 -0.000196274)
(-0.0198747 0.0231496 0.000636351)
(-0.0202121 0.0241775 0.00108414)
(-0.0203194 0.0244528 0.00102312)
(-0.0204038 0.0247019 0.000734252)
(-0.0204545 0.0248213 0.000275045)
(-0.0204597 0.0248253 -0.000215218)
(-0.0204175 0.0247135 -0.000676229)
(-0.0203411 0.0244718 -0.000965908)
(-0.0202397 0.0242081 -0.00103688)
(-0.0199076 0.0231791 -0.00061543)
(-0.0139691 0.00226838 8.78249e-05)
(-0.0140915 0.00234541 0.000132771)
(-0.0141068 0.0023704 0.000101117)
(-0.0141423 0.00238351 8.1799e-05)
(-0.0141584 0.00239132 3.31209e-05)
(-0.0141624 0.00239224 -1.49844e-05)
(-0.0141497 0.00238111 -5.82605e-05)
(-0.0141257 0.00236507 -8.26028e-05)
(-0.0140964 0.00233763 -9.41087e-05)
(-0.0139619 0.00223484 -4.68282e-05)
(-0.0152364 0.00674945 6.93551e-05)
(-0.0153694 0.00690271 0.000127316)
(-0.0154035 0.00698524 0.000130511)
(-0.0154412 0.0070415 0.000102893)
(-0.0154627 0.00707641 4.31267e-05)
(-0.0154665 0.00707676 -2.31112e-05)
(-0.0154496 0.00704446 -8.18958e-05)
(-0.01542 0.00698387 -0.000112921)
(-0.0153825 0.00690609 -0.000111338)
(-0.0152397 0.00672836 -5.19077e-05)
(-0.0177738 0.0114666 0.000117831)
(-0.0179342 0.0117045 0.000226355)
(-0.0179909 0.0118395 0.00022678)
(-0.0180455 0.0119497 0.000172235)
(-0.0180783 0.01201 6.92486e-05)
(-0.0180819 0.0120122 -4.51556e-05)
(-0.0180564 0.0119558 -0.000147908)
(-0.0180097 0.0118468 -0.00020648)
(-0.0179561 0.0117185 -0.000206892)
(-0.0177992 0.0114766 -0.000105288)
(-0.0214735 0.0193393 0.000215497)
(-0.0216905 0.0197688 0.000428302)
(-0.0217532 0.0201303 0.000373616)
(-0.0218169 0.0204352 0.000273033)
(-0.021855 0.0205959 0.000105621)
(-0.0218595 0.0206024 -7.67538e-05)
(-0.0218282 0.0204525 -0.000246193)
(-0.0217725 0.0201609 -0.000348158)
(-0.0217128 0.0198149 -0.00041015)
(-0.0214964 0.0193945 -0.000206474)
(-0.0294108 0.018766 0.000583685)
(-0.0296819 0.0197611 0.0010048)
(-0.0298637 0.0200977 0.000902439)
(-0.0300383 0.0203613 0.000636503)
(-0.0301387 0.0204881 0.000235637)
(-0.0301461 0.0204898 -0.000187809)
(-0.0300605 0.0203735 -0.000588049)
(-0.0298977 0.0201161 -0.000853536)
(-0.0297265 0.0197933 -0.000963822)
(-0.0294643 0.0187974 -0.00056633)
(-0.0176849 0.00152698 4.12048e-05)
(-0.0179017 0.00158609 6.78421e-05)
(-0.0179553 0.00160458 5.77483e-05)
(-0.018008 0.00161425 4.52369e-05)
(-0.0180369 0.0016221 1.89768e-05)
(-0.0180414 0.00162064 -8.89948e-06)
(-0.01802 0.00161533 -3.39031e-05)
(-0.0179805 0.00160173 -4.8749e-05)
(-0.0179302 0.00158482 -5.90378e-05)
(-0.0177432 0.00151993 -2.96571e-05)
(-0.0192967 0.0045899 3.81235e-05)
(-0.019493 0.0047039 7.59875e-05)
(-0.0195577 0.00476304 7.98601e-05)
(-0.0196181 0.00480765 6.27867e-05)
(-0.0196534 0.0048326 2.62089e-05)
(-0.0196581 0.00483387 -1.42105e-05)
(-0.0196304 0.00481003 -5.04092e-05)
(-0.0195799 0.00476579 -7.06327e-05)
(-0.0195192 0.00470908 -6.78573e-05)
(-0.0193313 0.00459156 -3.12575e-05)
(-0.0224217 0.00788271 7.36155e-05)
(-0.0226404 0.00805821 0.000147883)
(-0.0227368 0.00816824 0.000152734)
(-0.0228253 0.00825648 0.000114341)
(-0.0228772 0.00830472 4.57749e-05)
(-0.0228822 0.00830624 -3.01837e-05)
(-0.0228393 0.00826158 -9.96746e-05)
(-0.0227614 0.00817506 -0.000139794)
(-0.022671 0.00807056 -0.00013937)
(-0.0224586 0.00789642 -6.74415e-05)
(-0.0270467 0.0129543 0.00015504)
(-0.0273615 0.0133008 0.000313664)
(-0.0274979 0.0135821 0.000276142)
(-0.0276215 0.0138097 0.000198736)
(-0.0276929 0.0139294 7.58742e-05)
(-0.0276989 0.0139326 -5.68863e-05)
(-0.0276386 0.0138218 -0.000180684)
(-0.0275245 0.0136026 -0.00025975)
(-0.0273968 0.0133348 -0.000299498)
(-0.0270853 0.0129956 -0.000149071)
(-0.0355817 0.0130282 0.000426027)
(-0.0360363 0.0137718 0.000752581)
(-0.0363331 0.0140878 0.00066514)
(-0.0366036 0.0143219 0.000460342)
(-0.0367528 0.0144326 0.000167992)
(-0.0367626 0.0144355 -0.000137183)
(-0.0366313 0.0143285 -0.000428438)
(-0.0363796 0.0141047 -0.000630417)
(-0.0360981 0.013798 -0.000725052)
(-0.0356538 0.0130567 -0.000415076)
(-0.0199324 0.000694103 1.08553e-05)
(-0.0201572 0.000715523 1.12087e-05)
(-0.0202287 0.000722446 1.19467e-06)
(-0.0202922 0.000727498 4.31141e-07)
(-0.02033 0.000729226 -2.81539e-07)
(-0.020334 0.000730362 1.87907e-06)
(-0.0203053 0.000726409 2.3663e-06)
(-0.0202506 0.000722856 1.05319e-06)
(-0.0201841 0.00071374 -6.33737e-06)
(-0.0199667 0.000689852 -6.05959e-06)
(-0.0217242 0.00211771 7.72112e-06)
(-0.0219402 0.00216445 1.18464e-05)
(-0.022028 0.00219215 1.08901e-05)
(-0.0221069 0.00221152 7.49351e-06)
(-0.022154 0.00222362 3.21842e-06)
(-0.0221587 0.00222375 -7.7933e-08)
(-0.0221204 0.00221367 -3.94821e-06)
(-0.0220512 0.00219307 -7.9831e-06)
(-0.0219685 0.00216659 -1.04096e-05)
(-0.021756 0.00211753 -4.97082e-06)
(-0.0252109 0.00371844 2.62486e-05)
(-0.0254644 0.0038027 4.95385e-05)
(-0.0255971 0.00386135 4.48823e-05)
(-0.0257174 0.00390783 3.18713e-05)
(-0.0257881 0.00393197 1.24014e-05)
(-0.0257936 0.00393287 -7.26475e-06)
(-0.0257346 0.00390933 -2.70621e-05)
(-0.0256239 0.00386474 -4.18256e-05)
(-0.0254994 0.00380809 -4.52665e-05)
(-0.02525 0.00372471 -2.40818e-05)
(-0.0304289 0.00617539 6.93831e-05)
(-0.0308081 0.0063704 0.000136761)
(-0.0310151 0.00653161 0.000114893)
(-0.0312001 0.00665429 7.76407e-05)
(-0.0313051 0.00671762 2.81644e-05)
(-0.0313122 0.00671928 -2.23904e-05)
(-0.0312205 0.00665795 -7.13892e-05)
(-0.0310492 0.00654032 -0.000108152)
(-0.0308525 0.00638526 -0.000133103)
(-0.0304777 0.00619522 -6.68406e-05)
(-0.0389335 0.006543 0.000223717)
(-0.0395217 0.00695144 0.000395684)
(-0.0399223 0.00716853 0.000328985)
(-0.0402744 0.00731651 0.000216559)
(-0.0404684 0.00738994 7.68445e-05)
(-0.0404788 0.00738956 -6.64236e-05)
(-0.040307 0.00732118 -0.00020474)
(-0.0399758 0.00717547 -0.000314918)
(-0.0395955 0.00696795 -0.000381366)
(-0.0390184 0.00655982 -0.0002178)
(-0.0203991 -0.000213922 -2.72025e-05)
(-0.0206349 -0.000229552 -6.49941e-05)
(-0.0207221 -0.000235903 -7.04008e-05)
(-0.0207983 -0.0002426 -5.58422e-05)
(-0.0208421 -0.000244151 -2.27529e-05)
(-0.0208472 -0.000246113 1.57926e-05)
(-0.0208102 -0.000240921 4.92496e-05)
(-0.0207444 -0.000238389 6.58221e-05)
(-0.0206625 -0.000230192 6.04753e-05)
(-0.0204324 -0.000215115 2.69893e-05)
(-0.0223048 -0.000573788 -2.77535e-05)
(-0.0225425 -0.000604033 -6.92086e-05)
(-0.0226535 -0.000619733 -8.07831e-05)
(-0.0227508 -0.000633292 -6.30135e-05)
(-0.0228091 -0.000641465 -2.5583e-05)
(-0.0228131 -0.000641509 1.93382e-05)
(-0.0227663 -0.000634242 5.6893e-05)
(-0.0226767 -0.000620762 7.48562e-05)
(-0.0225733 -0.000606552 6.654e-05)
(-0.0223394 -0.000576558 2.69203e-05)
(-0.0260257 -0.000820455 -3.76646e-05)
(-0.0263186 -0.000850005 -8.81419e-05)
(-0.026492 -0.000865416 -9.72893e-05)
(-0.0266465 -0.000884044 -7.68808e-05)
(-0.0267346 -0.000893895 -3.04784e-05)
(-0.0267418 -0.000894722 2.33624e-05)
(-0.0266642 -0.000885652 7.01414e-05)
(-0.0265224 -0.000869245 9.18499e-05)
(-0.0263569 -0.00085393 8.20124e-05)
(-0.0260683 -0.000823582 3.66533e-05)
(-0.0316697 -0.000768353 -4.66238e-05)
(-0.0321323 -0.000763745 -0.000102998)
(-0.0324213 -0.000751841 -0.000115452)
(-0.0326716 -0.000756073 -9.19163e-05)
(-0.0328124 -0.00075969 -3.63326e-05)
(-0.032819 -0.000761463 2.78087e-05)
(-0.0326966 -0.000759461 8.29279e-05)
(-0.0324596 -0.000758043 0.000107184)
(-0.0321859 -0.000768477 0.00010044)
(-0.0317287 -0.000772806 4.56956e-05)
(-0.0401025 -0.000465123 -2.3518e-05)
(-0.0408542 -0.000459115 -6.14918e-05)
(-0.0413787 -0.000423035 -9.24992e-05)
(-0.0418249 -0.000409359 -8.63994e-05)
(-0.0420648 -0.000402791 -3.64016e-05)
(-0.0420767 -0.000401792 2.40971e-05)
(-0.0418584 -0.000412315 7.5162e-05)
(-0.0414371 -0.000422356 8.5467e-05)
(-0.0409347 -0.000460884 5.63839e-05)
(-0.040195 -0.000464161 2.20402e-05)
(-0.0189828 -0.00116002 -6.41255e-05)
(-0.0192135 -0.0012287 -0.000145996)
(-0.0193108 -0.00125541 -0.000155209)
(-0.0193927 -0.00127317 -0.000119323)
(-0.0194419 -0.00128649 -4.9197e-05)
(-0.0194453 -0.00128401 3.37032e-05)
(-0.0194053 -0.00127719 0.000104908)
(-0.0193298 -0.00125497 0.000141986)
(-0.0192398 -0.00123298 0.000139229)
(-0.0190124 -0.00116459 6.1308e-05)
(-0.0209187 -0.00339794 -7.71021e-05)
(-0.0211708 -0.00352664 -0.000176473)
(-0.0213016 -0.00359959 -0.000191255)
(-0.0214146 -0.00366041 -0.000148034)
(-0.0214792 -0.00369324 -5.90747e-05)
(-0.0214851 -0.00369501 4.27619e-05)
(-0.0214282 -0.00366356 0.000132336)
(-0.0213249 -0.00360604 0.00017866)
(-0.0212007 -0.00353517 0.00016481)
(-0.0209517 -0.00340711 7.34468e-05)
(-0.0247564 -0.0056521 -0.000122098)
(-0.0251017 -0.00583406 -0.000266391)
(-0.0253197 -0.00596023 -0.000280812)
(-0.0255054 -0.00606798 -0.00021132)
(-0.025611 -0.00612687 -8.31254e-05)
(-0.0256161 -0.00612853 6.33118e-05)
(-0.0255255 -0.006076 0.00019286)
(-0.0253495 -0.00597192 0.000262948)
(-0.0251432 -0.00585177 0.000256624)
(-0.0248023 -0.00567026 0.000117661)
(-0.0307683 -0.00789214 -0.000219486)
(-0.0313535 -0.00816195 -0.000447355)
(-0.0317403 -0.00835227 -0.000426231)
(-0.0320626 -0.00852091 -0.000315129)
(-0.0322342 -0.00860887 -0.00011965)
(-0.0322441 -0.00861187 9.37953e-05)
(-0.0320868 -0.0085329 0.000289487)
(-0.0317839 -0.00837147 0.000403913)
(-0.0314124 -0.00818932 0.000428574)
(-0.0308341 -0.00792202 0.000214427)
(-0.0393481 -0.00828331 -0.000368559)
(-0.0403707 -0.00876586 -0.000692257)
(-0.0410575 -0.00895706 -0.000646872)
(-0.0416129 -0.0091265 -0.000470529)
(-0.0419006 -0.00920243 -0.000174783)
(-0.0419101 -0.00920607 0.000139944)
(-0.0416488 -0.00913273 0.000435751)
(-0.0411158 -0.00897124 0.000613261)
(-0.0404591 -0.00878698 0.000671092)
(-0.0394492 -0.00830656 0.000360978)
(-0.0156323 -0.00210956 -0.000107244)
(-0.015828 -0.00223422 -0.000237766)
(-0.0159211 -0.00228473 -0.000242817)
(-0.0160002 -0.00232484 -0.000186717)
(-0.0160465 -0.00234268 -7.54177e-05)
(-0.0160501 -0.00234705 5.2365e-05)
(-0.0160102 -0.00232382 0.000164575)
(-0.015937 -0.00229115 0.000224786)
(-0.0158496 -0.00223841 0.000221918)
(-0.0156563 -0.00211356 0.000102214)
(-0.0174414 -0.00624406 -0.000136566)
(-0.0176872 -0.00649821 -0.000300721)
(-0.0178258 -0.00664771 -0.000318456)
(-0.0179403 -0.006767 -0.000240445)
(-0.0180062 -0.00683217 -9.61402e-05)
(-0.0180103 -0.00683376 7.03315e-05)
(-0.017953 -0.00677512 0.000216939)
(-0.0178459 -0.00665918 0.000296249)
(-0.0177148 -0.00651611 0.000287088)
(-0.0174712 -0.00626278 0.000130723)
(-0.021169 -0.0106757 -0.000247939)
(-0.0215529 -0.011065 -0.000509689)
(-0.0218037 -0.0113399 -0.00049876)
(-0.0220082 -0.0115684 -0.000368411)
(-0.022118 -0.0116856 -0.000141209)
(-0.0221243 -0.0116903 0.000108913)
(-0.0220247 -0.0115806 0.000336943)
(-0.0218332 -0.011364 0.000471732)
(-0.0215933 -0.011098 0.000486006)
(-0.0212128 -0.0107117 0.000240688)
(-0.0273054 -0.0153486 -0.000472612)
(-0.0280501 -0.0159999 -0.000915635)
(-0.0285345 -0.0164504 -0.000826422)
(-0.0289116 -0.0168217 -0.000586909)
(-0.0291051 -0.0170064 -0.000218055)
(-0.0291112 -0.0170125 0.000175463)
(-0.028937 -0.0168408 0.000544052)
(-0.0285762 -0.0164848 0.000783107)
(-0.0281132 -0.016051 0.000889391)
(-0.0273765 -0.0154079 0.00046281)
(-0.0362713 -0.0175004 -0.000880006)
(-0.0377794 -0.0187681 -0.0015737)
(-0.0386815 -0.0193436 -0.00133769)
(-0.0393542 -0.0198028 -0.000928842)
(-0.0396754 -0.0200071 -0.000332889)
(-0.0396868 -0.02001 0.000275416)
(-0.0393864 -0.019822 0.00086877)
(-0.038741 -0.0193704 0.00127784)
(-0.0378755 -0.0188256 0.0015242)
(-0.0363809 -0.0175635 0.000864038)
(-0.0103791 -0.00294735 -0.000133757)
(-0.0104946 -0.003119 -0.00030303)
(-0.0105644 -0.00319716 -0.0003211)
(-0.0106239 -0.0032523 -0.00024427)
(-0.010658 -0.00328625 -9.89769e-05)
(-0.0106611 -0.00328403 6.99468e-05)
(-0.0106296 -0.00325894 0.000217622)
(-0.0105759 -0.00320065 0.000296411)
(-0.0105087 -0.00312922 0.000287706)
(-0.0103941 -0.00295764 0.00012751)
(-0.0118164 -0.00884849 -0.000188203)
(-0.0121118 -0.00920283 -0.000413457)
(-0.0122432 -0.0094357 -0.000435059)
(-0.0123384 -0.00962213 -0.000327232)
(-0.0123916 -0.0097187 -0.000128598)
(-0.0123938 -0.00972303 9.57596e-05)
(-0.0123477 -0.00963156 0.000295629)
(-0.012258 -0.00945533 0.000407914)
(-0.0121337 -0.00922973 0.000391033)
(-0.0118389 -0.00887734 0.000180682)
(-0.0149966 -0.0155212 -0.000371697)
(-0.0155195 -0.0161521 -0.000753161)
(-0.0157878 -0.0166163 -0.00072852)
(-0.0159761 -0.0169852 -0.000524078)
(-0.0160707 -0.0171714 -0.000198705)
(-0.016075 -0.0171752 0.000156362)
(-0.015988 -0.0170059 0.000482634)
(-0.0158118 -0.0166495 0.00068704)
(-0.0155546 -0.0162048 0.000727956)
(-0.0150341 -0.0155807 0.000362024)
(-0.0208107 -0.0229622 -0.000800881)
(-0.0219497 -0.0242004 -0.00149927)
(-0.0225304 -0.0250161 -0.00128233)
(-0.0229109 -0.0256468 -0.000884303)
(-0.0230862 -0.0259444 -0.000318699)
(-0.0230915 -0.0259525 0.000261562)
(-0.0229295 -0.0256744 0.000823241)
(-0.0225651 -0.0250648 0.00122253)
(-0.0220105 -0.0242817 0.00144981)
(-0.0208777 -0.0230572 0.000785852)
(-0.0306734 -0.0288921 -0.00167053)
(-0.0335242 -0.0314877 -0.00286415)
(-0.0347669 -0.0327194 -0.00221373)
(-0.0355049 -0.0336648 -0.00145864)
(-0.0358056 -0.034057 -0.000504953)
(-0.0358108 -0.0340689 0.00042712)
(-0.0355308 -0.0336916 0.00137624)
(-0.0348153 -0.0327739 0.00211649)
(-0.0336386 -0.0315998 0.00279149)
(-0.0307987 -0.0290217 0.00164702)
(-0.00377859 -0.00352462 -0.000142452)
(-0.00380352 -0.00361504 -0.000325906)
(-0.00383053 -0.0037017 -0.00036309)
(-0.00385135 -0.00377423 -0.000276961)
(-0.00386712 -0.00380999 -0.00011144)
(-0.00386541 -0.00381334 7.98717e-05)
(-0.00385618 -0.00377637 0.000246701)
(-0.00383301 -0.00371041 0.000337071)
(-0.00381023 -0.00362489 0.000306394)
(-0.00378548 -0.00353593 0.000135878)
(-0.00439222 -0.0107349 -0.00022223)
(-0.004562 -0.0111168 -0.00047818)
(-0.00462423 -0.0114292 -0.00051833)
(-0.004667 -0.0116708 -0.000382673)
(-0.00468641 -0.0117938 -0.000149507)
(-0.00469041 -0.0117963 0.000112866)
(-0.00466777 -0.0116844 0.000347454)
(-0.0046329 -0.0114518 0.000484971)
(-0.00457048 -0.0111528 0.000456071)
(-0.00440044 -0.0107758 0.000213915)
(-0.00585352 -0.0195886 -0.000523215)
(-0.00618539 -0.0206697 -0.000999974)
(-0.00633113 -0.0213805 -0.000924204)
(-0.00641671 -0.0218905 -0.000644335)
(-0.00646315 -0.0221279 -0.000237786)
(-0.00645987 -0.0221358 0.000190113)
(-0.00642646 -0.0219117 0.000594109)
(-0.006338 -0.0214241 0.000875545)
(-0.00620444 -0.0207405 0.000961846)
(-0.00587339 -0.0196693 0.000511432)
(-0.00887429 -0.0310612 -0.00132401)
(-0.00965644 -0.0339124 -0.00227421)
(-0.0100082 -0.0353592 -0.00176069)
(-0.0102108 -0.0362848 -0.00113725)
(-0.0102889 -0.0366745 -0.000396508)
(-0.0102972 -0.0366812 0.000330756)
(-0.0102126 -0.0363175 0.00106598)
(-0.0100288 -0.0354179 0.00167643)
(-0.00968668 -0.034045 0.00221438)
(-0.0089064 -0.0312107 0.00130566)
(-0.0150491 -0.0465357 -0.00352089)
(-0.0174826 -0.0542867 -0.00545321)
(-0.018407 -0.0570808 -0.00335897)
(-0.0188464 -0.0586117 -0.00197684)
(-0.0190018 -0.0591333 -0.000636786)
(-0.0189971 -0.0591409 0.000549711)
(-0.0188621 -0.0586413 0.00187389)
(-0.0184271 -0.0571573 0.00320621)
(-0.0175653 -0.0545388 0.0053229)
(-0.0151349 -0.0468109 0.00349272)
(-0.0291389 -0.0717699 -0.00924528)
(-0.03566 -0.0909015 -0.0131822)
(-0.0378609 -0.0962949 -0.00619341)
(-0.0388145 -0.0983313 -0.00321542)
(-0.0390624 -0.0988669 -0.000929608)
(-0.0390668 -0.0988693 0.000826407)
(-0.0388203 -0.0983467 0.00307435)
(-0.037911 -0.0963817 0.0058856)
(-0.0358374 -0.0913945 0.0129276)
(-0.02934 -0.0722643 0.00920653)
(-0.0499755 -0.0996918 -0.0209017)
(-0.0566591 -0.159781 -0.0267259)
(-0.0603987 -0.171898 -0.0102802)
(-0.0626589 -0.172512 -0.00456898)
(-0.0632294 -0.172114 -0.0011885)
(-0.063228 -0.172075 0.0010794)
(-0.0626885 -0.172415 0.00438697)
(-0.0604855 -0.171893 0.00977508)
(-0.0568312 -0.160854 0.0262451)
(-0.0502868 -0.100848 0.0208429)
(-0.0678817 -0.169891 -0.0437481)
(-0.0418959 -0.278531 -0.0432121)
(-0.0459347 -0.295503 -0.0139935)
(-0.0521051 -0.290757 -0.00452242)
(-0.0540636 -0.288558 -0.000987632)
(-0.0540961 -0.288493 0.000930958)
(-0.0522558 -0.290514 0.00434922)
(-0.0461795 -0.295382 0.0133804)
(-0.0416935 -0.280017 0.0424485)
(-0.0679459 -0.17162 0.0434485)
(0.0101466 -0.144796 -0.0409703)
(0.106009 -0.330333 -0.0287369)
(0.108703 -0.343708 -0.00965922)
(0.102172 -0.332497 -0.00190981)
(0.0995698 -0.327988 -0.000454199)
(0.0995149 -0.327883 0.000425402)
(0.101952 -0.332111 0.00180388)
(0.108478 -0.343397 0.00939389)
(0.106817 -0.331892 0.0282981)
(0.0115011 -0.147733 0.0405102)
(0.280528 -0.402183 0.0300711)
(0.402306 -0.612845 0.0289222)
(0.423268 -0.633011 0.00799736)
(0.423966 -0.629148 0.00244668)
(0.423277 -0.627141 0.0003878)
(0.423235 -0.627094 -0.000378089)
(0.423847 -0.629009 -0.00235885)
(0.423355 -0.633059 -0.00756388)
(0.403765 -0.614333 -0.0284106)
(0.282885 -0.405718 -0.0297623)
(-0.0484357 -0.0406181 -0.00340986)
(-0.0553548 -0.0439281 -0.00545527)
(-0.0578493 -0.0456825 -0.00351292)
(-0.0592255 -0.0471485 -0.00221535)
(-0.0597059 -0.0477532 -0.00071752)
(-0.0597165 -0.0477648 0.000622534)
(-0.059255 -0.0472008 0.00211146)
(-0.0579306 -0.0457659 0.00336437)
(-0.0555787 -0.0440968 0.00532888)
(-0.0486898 -0.0408286 0.00337756)
(-0.0727562 -0.0209763 -0.00573421)
(-0.0856118 -0.0268197 -0.00872032)
(-0.0898274 -0.0280636 -0.00555182)
(-0.0920505 -0.0291415 -0.00351852)
(-0.0927329 -0.0293973 -0.00111009)
(-0.0927361 -0.0293962 0.00097078)
(-0.0920864 -0.0291516 0.00336571)
(-0.0899244 -0.0280855 0.00533619)
(-0.0859491 -0.0269372 0.00852058)
(-0.0731495 -0.0211295 0.005672)
(-0.10689 -0.031348 -0.00486894)
(-0.135116 -0.0444908 -0.00652619)
(-0.143363 -0.0480371 -0.00421942)
(-0.146917 -0.0489814 -0.00296824)
(-0.147809 -0.0491366 -0.000842211)
(-0.147814 -0.0491469 0.000748707)
(-0.146955 -0.049011 0.00286875)
(-0.143518 -0.0481371 0.00409459)
(-0.135698 -0.0447611 0.00633452)
(-0.10772 -0.0316688 0.0047774)
(-0.168888 0.0335629 -0.00600567)
(-0.17331 0.0109338 0.000830968)
(-0.186494 0.00990764 -0.00263975)
(-0.193776 0.0142454 -0.00257775)
(-0.196069 0.0158881 -0.000929387)
(-0.196088 0.015929 0.000753984)
(-0.193862 0.0143908 0.00242693)
(-0.186665 0.0100607 0.00270058)
(-0.173636 0.0108542 -0.000819579)
(-0.169741 0.0334412 0.0058673)
(0.284881 -0.0203935 0.0217416)
(0.433649 -0.099897 0.022546)
(0.45379 -0.0992264 0.00792175)
(0.455112 -0.0956448 0.00253351)
(0.454736 -0.0943955 0.000465089)
(0.454709 -0.0944099 -0.00044358)
(0.455057 -0.0957054 -0.00243735)
(0.453968 -0.0994119 -0.00759383)
(0.435084 -0.100286 -0.022166)
(0.287822 -0.0215324 -0.0215721)
(-0.0477662 -0.0255039 -0.00157184)
(-0.0509359 -0.0268464 -0.00262145)
(-0.0524802 -0.027656 -0.00187142)
(-0.0536209 -0.0283864 -0.00124948)
(-0.0541215 -0.0287104 -0.000424156)
(-0.0541355 -0.0287229 0.00035962)
(-0.053666 -0.0284181 0.00118279)
(-0.0525612 -0.0277126 0.0017892)
(-0.0510909 -0.0269392 0.00255664)
(-0.0479417 -0.025624 0.00155474)
(-0.0654428 -0.00847813 -0.00273401)
(-0.069843 -0.0105107 -0.00420541)
(-0.0722446 -0.0105896 -0.00302704)
(-0.0741526 -0.0107258 -0.00203039)
(-0.0749696 -0.0106982 -0.000681834)
(-0.0749883 -0.0106928 0.000579019)
(-0.0742194 -0.0107188 0.00192401)
(-0.0723622 -0.0105763 0.00290033)
(-0.0700577 -0.0105208 0.00409241)
(-0.0657076 -0.00849122 0.00269465)
(-0.061423 -0.0252054 -0.00202433)
(-0.0656604 -0.0280479 -0.00301392)
(-0.0674164 -0.0285972 -0.00164698)
(-0.0695293 -0.0292492 -0.0011562)
(-0.0703171 -0.029435 -0.000332502)
(-0.0703333 -0.0294485 0.000290048)
(-0.0695955 -0.0292929 0.00111005)
(-0.0675238 -0.0286747 0.00157178)
(-0.0658265 -0.0281681 0.00292604)
(-0.0616706 -0.0253948 0.00199255)
(-0.0687486 0.035306 -0.00600636)
(-0.0541236 0.0408055 -0.00590937)
(-0.0573485 0.0442183 -0.00354309)
(-0.0608965 0.0468985 -0.00262417)
(-0.0622549 0.0477376 -0.000845968)
(-0.062287 0.0477559 0.00068554)
(-0.0610117 0.0469763 0.00246297)
(-0.0575124 0.0443615 0.00340026)
(-0.0540768 0.0410605 0.00573492)
(-0.0687985 0.0356981 0.0059026)
(0.277648 0.0184637 0.00733125)
(0.419713 0.0037355 0.00714227)
(0.436584 0.00794693 0.00231821)
(0.437727 0.00942417 0.000596427)
(0.437536 0.00973345 6.78393e-05)
(0.437526 0.00970813 -6.01698e-05)
(0.437735 0.00933348 -0.000561281)
(0.43687 0.0077661 -0.00222028)
(0.421192 0.00357843 -0.00701941)
(0.280307 0.0181739 -0.00725613)
(-0.0476819 -0.0124025 -0.000567258)
(-0.0496075 -0.0127272 -0.00100646)
(-0.0506075 -0.012974 -0.000784878)
(-0.051396 -0.0132635 -0.00055985)
(-0.0517741 -0.0134054 -0.000198713)
(-0.0517877 -0.0134108 0.000163169)
(-0.0514359 -0.0132843 0.000523766)
(-0.0506778 -0.013004 0.000747695)
(-0.0497218 -0.0127737 0.000976804)
(-0.0478104 -0.0124624 0.000558396)
(-0.0654282 -0.00223831 -0.000939747)
(-0.0683491 -0.00268979 -0.00150011)
(-0.0701406 -0.00244611 -0.0012611)
(-0.071556 -0.00236761 -0.000929314)
(-0.0722212 -0.00230133 -0.00033037)
(-0.0722408 -0.00229878 0.000268104)
(-0.0716247 -0.00235837 0.000868316)
(-0.0702546 -0.0024276 0.00119859)
(-0.0685367 -0.00267314 0.00144965)
(-0.065651 -0.00221773 0.000921511)
(-0.0565354 -0.0133198 -0.000277616)
(-0.0597057 -0.0134655 -0.000465155)
(-0.0608806 -0.0134138 -0.000294972)
(-0.0618849 -0.0139134 -0.000342012)
(-0.0622738 -0.0141318 -0.000107905)
(-0.0622825 -0.0141463 8.82706e-05)
(-0.0619264 -0.0139518 0.000327031)
(-0.0609494 -0.0134718 0.000273116)
(-0.0598255 -0.0135214 0.000434553)
(-0.0566776 -0.0134554 0.000263799)
(-0.0732043 0.011712 -0.00160578)
(-0.0631705 0.0148768 -0.00194396)
(-0.0648798 0.0162933 -0.00172901)
(-0.0670836 0.0171961 -0.0016525)
(-0.0679505 0.0174669 -0.000570221)
(-0.0679796 0.0174777 0.000452806)
(-0.0671778 0.0172322 0.00154595)
(-0.065011 0.0163661 0.00165062)
(-0.0632647 0.0150262 0.00182056)
(-0.0732946 0.0119062 0.00151159)
(0.267787 -0.00372047 0.00157642)
(0.409807 -0.0090863 0.00123969)
(0.426281 -0.00859671 0.000166474)
(0.428287 -0.00925209 -0.000157413)
(0.428505 -0.00958448 -6.70719e-05)
(0.428512 -0.00959874 7.10315e-05)
(0.428339 -0.00933002 0.000170138)
(0.426619 -0.00873056 -0.000133219)
(0.411291 -0.00919377 -0.00121023)
(0.270574 -0.00407844 -0.0015536)
(-0.0464295 6.76074e-05 -7.0523e-06)
(-0.0477882 0.000591418 -2.96183e-05)
(-0.048481 0.000842733 -6.45973e-05)
(-0.0490438 0.000936274 -7.14926e-05)
(-0.0493312 0.0009714 -2.85954e-05)
(-0.0493409 0.000968671 1.82055e-05)
(-0.0490793 0.000935632 6.22411e-05)
(-0.0485399 0.000839081 5.74229e-05)
(-0.0478787 0.000593851 2.6357e-05)
(-0.0465278 6.3706e-05 8.01982e-06)
(-0.0658839 0.00211437 0.000438807)
(-0.0682885 0.00264388 0.000636826)
(-0.0698244 0.00305517 0.000217662)
(-0.0710739 0.00327298 2.4013e-05)
(-0.0716773 0.00336022 -1.00825e-05)
(-0.0716992 0.00336216 -6.45291e-06)
(-0.0711448 0.00328706 -3.72157e-05)
(-0.0699472 0.00307893 -0.000223202)
(-0.0684699 0.00267329 -0.000642473)
(-0.066103 0.00214735 -0.000445934)
(-0.0544896 -0.00156104 0.000730967)
(-0.0566761 0.00265042 0.00111291)
(-0.0574611 0.00390955 0.000608039)
(-0.0581887 0.0041393 0.000251296)
(-0.0584857 0.00412587 6.60097e-05)
(-0.0584979 0.00411949 -5.9254e-05)
(-0.0582254 0.00411739 -0.000237339)
(-0.0575156 0.00388208 -0.00059811)
(-0.0567735 0.00270073 -0.00110902)
(-0.0545959 -0.00157445 -0.000729944)
(-0.0739732 0.00143502 0.00420426)
(-0.068395 0.00223507 0.00567189)
(-0.0705947 0.00246688 0.00155875)
(-0.0729218 0.00247285 0.000159732)
(-0.0737575 0.00246207 -5.02129e-05)
(-0.0737839 0.00246043 4.55059e-06)
(-0.0730038 0.00247664 -0.000196313)
(-0.070727 0.0024861 -0.0014958)
(-0.0685525 0.00229147 -0.00566405)
(-0.0741281 0.00149985 -0.00426868)
(0.26865 -0.0158542 -0.000813325)
(0.408543 -0.00460236 -0.00101359)
(0.424867 -0.00388632 -0.00062831)
(0.427484 -0.00565917 -0.00043699)
(0.427979 -0.00647612 -0.000117987)
(0.427993 -0.00650404 0.00011268)
(0.427563 -0.00575298 0.000443994)
(0.425238 -0.00398702 0.000631533)
(0.410023 -0.00452315 0.00102697)
(0.271511 -0.0160564 0.000850315)
(-0.0439066 0.0131749 0.000381977)
(-0.0450205 0.014512 0.000683231)
(-0.0455057 0.0152655 0.000475725)
(-0.0459097 0.0157669 0.000299435)
(-0.046118 0.0159822 0.000101486)
(-0.0461271 0.0159865 -9.13156e-05)
(-0.0459395 0.015783 -0.000285854)
(-0.0455559 0.0152988 -0.000457589)
(-0.0450927 0.0145652 -0.000669777)
(-0.0439828 0.0132394 -0.000378814)
(-0.0667776 0.00652414 0.00168538)
(-0.0688118 0.00794167 0.00255967)
(-0.070123 0.00846322 0.00158057)
(-0.0712391 0.00877353 0.000915126)
(-0.0717951 0.00887384 0.00028978)
(-0.0718175 0.0088798 -0.000259961)
(-0.0713121 0.00878706 -0.000875271)
(-0.070245 0.00848473 -0.00153004)
(-0.0689909 0.00798371 -0.00251655)
(-0.0670094 0.0065645 -0.00167039)
(-0.0525627 0.0145361 0.00155121)
(-0.054497 0.0254222 0.00233735)
(-0.0549343 0.0282415 0.00125999)
(-0.0553853 0.0296695 0.000699523)
(-0.0555857 0.029998 0.000205474)
(-0.0555971 0.0299936 -0.000175718)
(-0.0554134 0.0296763 -0.00067084)
(-0.054977 0.0282801 -0.00121579)
(-0.0545699 0.025613 -0.00230464)
(-0.0526544 0.0147526 -0.00154738)
(-0.0794542 -0.00299644 0.0117522)
(-0.0820951 -0.00210442 0.0155329)
(-0.0841026 -0.00223054 0.00549589)
(-0.0857841 -0.00283395 0.00240568)
(-0.086387 -0.00303646 0.000538369)
(-0.0864078 -0.00304386 -0.000512741)
(-0.0858484 -0.00285366 -0.00233153)
(-0.0842422 -0.00223909 -0.00526953)
(-0.0823345 -0.00207384 -0.0153221)
(-0.0796959 -0.00299872 -0.0117023)
(0.281722 -0.0265782 -0.00367643)
(0.412803 0.0170206 -0.00361722)
(0.428832 0.020673 -0.00198719)
(0.432736 0.0174097 -0.00114187)
(0.433897 0.0158517 -0.00027281)
(0.433922 0.0158138 0.000253795)
(0.432874 0.0172643 0.00112036)
(0.429269 0.0205839 0.00195543)
(0.414228 0.0175069 0.00356431)
(0.284731 -0.0263351 0.00366656)
(-0.0392266 0.0279094 0.000641633)
(-0.040135 0.0299386 0.0011539)
(-0.0403913 0.0311136 0.000811995)
(-0.0406284 0.031975 0.000543272)
(-0.0407519 0.0323725 0.000189715)
(-0.04076 0.0323819 -0.000161071)
(-0.0406528 0.0320146 -0.00051131)
(-0.040429 0.0311792 -0.000776952)
(-0.0401857 0.0300475 -0.0011274)
(-0.0392795 0.0280526 -0.000631872)
(-0.0665825 0.0116009 0.00283244)
(-0.0679234 0.0140028 0.00422464)