/*--------------------------------*- C++ -*----------------------------------*\
| =========                 |                                                 |
| \\      /  F ield         | OpenFOAM: The Open Source CFD Toolbox           |
|  \\    /   O peration     | Version:  2.3.1                                 |
|   \\  /    A nd           | Web:      www.OpenFOAM.org                      |
|    \\/     M anipulation  |                                                 |
\*---------------------------------------------------------------------------*/
FoamFile
{
    version     2.0;
    format      ascii;
    class       volScalarField;
    location    "2640";
    object      sigmaEq;
}
// * * * * * * * * * * * * * * * * * * * * * * * * * * * * * * * * * * * * * //

dimensions      [1 -1 -2 0 0 0 0];

internalField   nonuniform List<scalar> 
11800
(
164540
121293
521750
444521
117093
315007
155168
166783
177240
189039
162988
633232
83671.6
469586
403785
1.76159e+06
122881
121550
217915
131556
355325
572857
774785
693687
1.44198e+06
910089
932426
463376
1.01861e+06
1.10622e+06
310343
117194
908558
128652
133631
299771
135031
967826
133135
140651
966469
1.05579e+06
486989
1.14719e+06
327213
1.64927e+06
739698
860523
155369
222723
663479
469831
132084
211690
1.8793e+06
1.56097e+06
64676.5
436834
339797
328221
1.55464e+06
143871
347493
286515
1.41409e+06
214432
682021
485985
64800.1
841218
135767
113443
109532
1.50179e+06
1.53932e+06
292075
1.47455e+06
202825
166222
170971
1.91136e+06
118386
117544
120110
119027
1.06578e+06
332301
979538
896340
481819
130324
1.08149e+06
145269
61966.6
172778
142703
18483.7
142560
132863
557440
77060
613602
1.0266e+06
359661
140793
304666
168893
149033
1.51396e+06
985015
1.07216e+06
901317
336856
489215
203331
1.36755e+06
200537
137855
1.28452e+06
195587
188759
156683
171269
133086
142469
130880
132859
132187
97383.2
29164.1
1.75392e+06
1.15961e+06
359629
1.06798e+06
512327
979239
895159
315888
914239
445058
838346
766678
465604
181630
223123
300602
1.09168e+06
1.12028e+06
639044
344688
192403
185085
132539
239275
217926
173179
427004
585248
1.17569e+06
137673
1.73929e+06
212772
1.50111e+06
432113
470270
510411
258068
198341
1.87868e+06
1.1578e+06
406842
557807
147411
336968
336124
1.64782e+06
1.66588e+06
871644
797907
949093
427541
295721
230890
190089
404648
198195
309986
144412
159820
153659
222498
207043
197028
189752
825470
1.05135e+06
1.55122e+06
121282
203111
1.82419e+06
130521
259288
290727
136663
140877
761788
638555
585513
484967
1.75074e+06
534696
787686
2.38626e+06
1.97096e+06
2.02399e+06
316343
125416
752457
688068
630870
239768
339922
124220
122208
216029
129893
1.15576e+06
236984
131587
422157
195822
163507
132424
588306
600612
2.38081e+06
1.15325e+06
204504
214193
1.03196e+06
844202
296109
427044
950570
876324
802043
139998
1.03502e+06
360155
492541
461887
144379
123363
374380
327860
142040
2.01982e+06
257624
295688
215967
247541
629000
686659
745725
339180
241725
134989
1.52993e+06
150587
84193.3
132100
372483
138931
485890
1.7928e+06
350360
347211
522565
379477
436364
318468
1.08591e+06
908715
290384
360852
233559
278683
502384
658988
249983
1.07149e+06
1.14966e+06
1.38525e+06
159272
346982
344935
1.59234e+06
1.60736e+06
945742
930750
966444
956835
129488
88811.3
263944
2.07855e+06
118589
124620
272235
226822
239865
827966
846065
1.42933e+06
2.0264e+06
629448
171395
791075
652924
458440
374222
156265
161634
238136
418564
221351
386713
120052
157933
153997
139285
1.14332e+06
154110
123747
1.67734e+06
279243
637328
697488
679570
857701
825906
102139
101176
580342
756985
525431
1.36135e+06
114230
743811
580042
378438
287107
283286
218108
289852
251411
331361
364348
394176
144192
132761
688392
730736
167307
202420
419013
351578
395985
182137
171537
213501
216889
810881
386284
288155
335774
960419
1.11804e+06
322724
182442
173494
227721
212560
393665
457609
372109
437027
341990
401850
304064
287567
595373
298187
653206
1.12479e+06
559922
411761
1.85522e+06
129465
1.18164e+06
575655
419812
1.77308e+06
135744
1.21126e+06
300461
1.02794e+06
948430
920494
174434
78765.3
119979
2.14278e+06
1.85202e+06
809450
289131
387445
165441
210212
240184
135732
194807
1.41489e+06
57188.3
496078
378639
1.56493e+06
102878
163038
139971
142557
139145
141636
1.56751e+06
519262
211343
591438
543160
498902
109555
1.15525e+06
374654
520822
154801
770355
169559
1.4936e+06
128643
180558
428620
394377
362731
780778
207553
432635
387678
204415
595446
649529
706807
339014
246778
61545.5
155792
171683
1.9453e+06
648518
511383
372718
306694
167350
142960
105226
106462
179166
95164.9
109381
120122
150220
300830
137951
181456
523886
622742
294899
1.39387e+06
183585
330113
141663
162133
1.34636e+06
1.74491e+06
535352
584046
219936
195603
115602
1.17989e+06
1.69093e+06
1.49822e+06
2.17488e+06
689210
481738
635095
113843
168122
155757
172457
627813
137522
135573
115663
162236
1.17757e+06
260037
1.17322e+06
719234
154325
196660
987539
1.22166e+06
624211
681735
738927
336094
241171
568376
134945
135658
132603
150725
121451
174160
92378.7
166977
91205.2
163834
81923.6
160180
146885
153828
107254
1.34926e+06
213535
220231
491497
786753
110995
142041
122433
118976
106440
257554
367658
125119
123975
512816
113303
168310
1.46422e+06
75991.8
152053
450944
414436
435118
472353
485176
513050
238590
182491
1.68182e+06
2.0961e+06
424689
83287.3
303205
306256
324101
232671
692386
638381
584889
157609
79636
665469
626483
279787
309241
159748
531878
579687
207145
935189
945773
956957
949696
1.63746e+06
1.60221e+06
498082
1.97733e+06
698887
129873
1.38569e+06
1.18612e+06
1.29508e+06
657063
267675
290561
170086
1.396e+06
454153
574865
2.09153e+06
189534
228213
458236
437316
1.1552e+06
592472
1.73013e+06
129170
125826
238836
336420
748908
686301
628873
1.60427e+06
140205
343253
739554
1.1433e+06
126586
1.87945e+06
1.75867e+06
1.81127e+06
210221
285115
110699
1.85196e+06
520567
215206
360708
1.72416e+06
136653
217589
231997
133474
430393
258824
2.1399e+06
1.85118e+06
184423
524357
670076
255599
299596
227085
202438
576647
180907
511678
380167
978746
862625
155587
1.13395e+06
134083
351453
430351
1.53063e+06
286234
389414
219081
184348
167155
194450
368372
859312
947432
130532
127608
127268
169435
309101
1.15007e+06
108831
389811
700565
544498
200405
929163
1.03147e+06
665544
1.12671e+06
1.22586e+06
503417
332664
147821
171138
317955
339701
294553
324032
175748
298207
349892
208498
132978
2.15755e+06
916097
342985
459965
429576
209693
368169
534093
1.1608e+06
1.06575e+06
974333
301615
355488
186456
194066
1.34059e+06
1.00217e+06
1.14031e+06
142548
183583
252530
583956
1.31393e+06
415907
84988.8
144302
1.97615e+06
1.85819e+06
220276
1.70252e+06
108188
149059
115460
637434
119549
206002
231174
1.1689e+06
1.27674e+06
1.38833e+06
1.50494e+06
669267
571181
475586
377102
176511
127652
369760
1.84483e+06
136656
134246
142176
137573
141082
146921
153296
1.43001e+06
724112
728689
427138
796329
868780
304523
1.0236e+06
245588
206783
141760
1.95289e+06
133001
155382
148830
154408
132419
1.77799e+06
246960
245858
968127
307848
651419
235909
1.81125e+06
780792
385704
291448
1.21827e+06
428337
171455
146050
129892
127888
213548
237481
225616
161959
446178
150498
130086
750777
840070
116148
534245
765328
650647
879725
1.66296e+06
1.53172e+06
1.40321e+06
1.27759e+06
533639
649340
1.66818e+06
1.53633e+06
763922
1.40792e+06
879184
1.28133e+06
1.49935e+06
147657
128631
140602
219321
475708
1.05764e+06
135657
394400
535393
427514
583744
178633
226751
387722
563339
1.21774e+06
1.11794e+06
1.02183e+06
484447
361503
914124
189588
237319
156598
307381
284612
258191
520012
408000
419144
312527
128277
645248
179532
318280
393500
981123
526126
614919
507181
185866
238421
171735
152200
146571
165933
547176
464537
135258
195488
209814
425652
1.28692e+06
417369
581760
455799
150416
202470
190067
174822
236637
175000
568977
522076
475894
190501
1.42298e+06
640290
206262
870725
583618
1.23874e+06
1.71176e+06
210600
235070
197337
140888
145938
679265
578544
1.77971e+06
124249
171919
321925
470571
208329
136319
685485
677827
60992.5
131061
333738
270834
90408.3
1.54842e+06
1.70959e+06
275002
118909
253005
350352
746217
626562
684536
1.95442e+06
131118
538207
605579
155703
555095
677583
797832
916464
1.74171e+06
1.60452e+06
1.4701e+06
1.33918e+06
554540
676089
1.7457e+06
1.60794e+06
795170
1.47386e+06
915166
1.34184e+06
1.65241e+06
1.42598e+06
1.07602e+06
442702
505422
1.42418e+06
1.06747e+06
309690
118033
113181
1.06527e+06
1.87355e+06
143280
381401
1.55885e+06
1.0624e+06
1.71245e+06
1.74481e+06
1.0827e+06
1.08705e+06
498560
397505
517719
235840
169292
278472
149182
176815
211212
182145
378751
1.81443e+06
517358
182523
112749
334666
359526
1.64431e+06
340500
307615
385747
409953
1.06058e+06
492460
358229
1.38505e+06
383793
496674
184301
156827
349732
300648
325584
814670
518021
501916
1.22397e+06
1.17107e+06
496190
522474
926804
996009
372336
388642
131865
171043
178980
505519
393091
70935.5
155015
176536
597004
570151
304864
588529
456295
184321
116023
116894
483430
1.15061e+06
118957
1.70915e+06
245585
673796
617435
195565
243245
404251
142027
124962
1.4404e+06
358167
925761
851727
780136
288469
415040
155171
1.32249e+06
1.71276e+06
163645
139496
939783
340563
461720
798219
871697
958751
293099
419427
60032.1
697031
354637
1.70438e+06
300165
984635
800925
897715
136444
136937
137343
149046
146491
131125
1.42145e+06
433098
166564
195010
213695
240739
294656
327353
672764
652543
619305
598481
549575
567790
1.01547e+06
156809
133357
131348
170242
197636
141672
156718
1.20291e+06
244151
444872
370962
959361
499005
178668
186935
411996
320510
565659
463723
1.15041e+06
1.00388e+06
922493
843719
469935
1.32853e+06
646100
1.34383e+06
235805
198256
254369
249931
175983
164243
173518
1.35482e+06
1.78695e+06
310306
111427
231258
518895
401322
117358
144882
235778
221937
224495
210833
273595
258087
197620
439829
488461
475904
528816
401906
447310
507598
127890
1.07851e+06
851634
454608
1.10792e+06
1.04168e+06
607240
1.78473e+06
332325
315635
358539
385974
177895
150945
163894
339832
138705
1.47376e+06
199175
137285
718376
57352.9
114605
1.48476e+06
171056
373602
1.1927e+06
543778
1.09575e+06
1.00198e+06
1.33908e+06
891036
145360
548376
439199
193228
1.24487e+06
561376
200253
1.02332e+06
930724
1.11692e+06
132906
135200
146680
2.15671e+06
256680
392184
477732
222122
134946
131862
380560
412298
167487
1.48756e+06
381755
1.47106e+06
225654
739725
132779
575147
689238
924663
368632
493140
591555
245184
2.08775e+06
155823
112543
134478
1.79077e+06
1.18373e+06
291704
425226
970127
895788
820235
1.84338e+06
549389
446226
1.86289e+06
2.10002e+06
1.43851e+06
86401.8
495907
1.20987e+06
902039
487460
365264
894578
797868
371204
1.2353e+06
298387
252254
459348
402882
310749
1.45802e+06
2.20307e+06
120332
133473
157483
2.11568e+06
149737
171672
635780
485714
1.87904e+06
1.96788e+06
133424
555167
198183
187271
459129
199566
121951
496440
123914
140964
2.21217e+06
947745
522847
393078
353854
256718
717509
660512
604055
199190
1.9899e+06
392243
352838
390764
1.66854e+06
672366
980185
138658
216820
163309
746206
443056
589901
121523
255229
345871
738979
260970
174366
150985
293831
1.85546e+06
264011
353691
731787
1.20113e+06
1.69681e+06
1.12797e+06
775683
596905
706338
78167.6
215001
292550
622710
572572
525147
1.69452e+06
137002
173231
185888
185521
185780
183030
261530
133394
133234
603418
1.52161e+06
421296
937136
861165
788730
292742
1.72158e+06
537924
611354
730189
629238
1.04686e+06
1.6816e+06
510651
140943
668253
115191
773650
463523
845749
922885
332536
1.08109e+06
267895
2.29939e+06
783617
134757
1.56357e+06
2.30429e+06
1.98406e+06
464783
131987
878822
156282
144664
114343
254017
142453
143912
126808
129419
1.41645e+06
1.48664e+06
133076
992491
163898
154861
132251
209141
994062
1.00097e+06
232835
1.01193e+06
1.01599e+06
1.34083e+06
442351
168876
205869
278249
557323
606756
210590
55980.1
150222
682378
313755
759269
854808
936375
1.02124e+06
522486
370927
280789
158649
139182
1.72235e+06
944010
126627
198426
832329
649965
350634
380708
182406
158842
294178
259925
112762
197303
141321
1.44123e+06
545040
1.33217e+06
132202
128187
2.30634e+06
131076
1.7862e+06
1.75756e+06
131927
809254
402956
1.41685e+06
144976
757436
886093
1.93313e+06
213911
139926
122364
437577
207538
277880
556317
508246
465659
142200
124075
160816
152646
972503
1.0723e+06
733356
1.25859e+06
1.1528e+06
1.34236e+06
1.94133e+06
241733
619076
1.84913e+06
558186
1.75357e+06
810196
884808
963816
425363
292217
363677
431277
1.62776e+06
154220
175006
252053
238473
221610
169691
330589
304100
284810
711458
712736
2.15823e+06
233931
118286
165086
1.71829e+06
493670
262568
252862
1.67862e+06
841409
581205
104124
183478
122083
828050
1.05768e+06
273923
1.21455e+06
169802
165224
2.23204e+06
1.46739e+06
1.79681e+06
341235
448265
793421
258406
617815
1.84765e+06
1.97687e+06
167622
192618
320242
264063
900785
1.00541e+06
685199
771956
2.04731e+06
1.90787e+06
244020
167887
103960
1.35056e+06
118005
1.77992e+06
364279
266980
954165
302078
132334
1.66617e+06
193876
243831
105784
124307
1.24571e+06
416383
137021
668580
315329
179051
137723
125878
604012
126265
1.69039e+06
1.53995e+06
276405
737800
420589
134493
148693
1.31926e+06
163060
881324
226991
482247
991114
1.13442e+06
1.61194e+06
176199
282277
1.77468e+06
222997
146085
132791
157702
127852
1.8286e+06
1.40918e+06
319551
434937
764735
754127
1.0038e+06
350227
477256
348270
501746
1.07464e+06
987199
902562
1.43473e+06
663056
475610
1.41324e+06
479115
1.53705e+06
567898
615675
1.68526e+06
2.3047e+06
1.9619e+06
375416
384943
1.03901e+06
486509
356238
129376
320102
1.63182e+06
142689
163354
2.06111e+06
1.53722e+06
1.79035e+06
798245
990164
999806
862191
120843
112548
169994
115136
623291
679484
740933
342196
243553
539784
1.81399e+06
141775
189883
159406
147525
902590
816179
177441
1.61001e+06
1.83095e+06
1.04496e+06
851055
1.46746e+06
1.69039e+06
118839
811918
517866
1.11207e+06
151874
235644
252329
1.42472e+06
1.4193e+06
665798
326860
113459
134003
208856
437146
1.5002e+06
200826
1.14391e+06
140570
328149
228522
297368
513055
265398
412852
40065.1
11584.2
411915
2.15532e+06
185794
156112
160597
128740
121324
170108
177051
131065
135228
467691
129316
140416
170187
870411
1.07524e+06
771123
1.51583e+06
1.91527e+06
139222
187809
343158
155754
1.34621e+06
200809
2.00234e+06
213966
275025
531726
390251
213160
217731
505549
127036
147445
180312
119660
172266
116365
1.75476e+06
105815
146069
255276
121079
93195.1
1.70994e+06
187911
1.47562e+06
1.55904e+06
567856
374693
292539
420972
950730
883817
809294
128940
1.05988e+06
560584
127153
1.82567e+06
133566
138716
331239
998590
774763
861698
1.20636e+06
176225
138000
369606
544384
1.19669e+06
632238
1.29973e+06
457531
1.09874e+06
1.00489e+06
365020
1.29259e+06
450741
1.18558e+06
534353
1.08943e+06
996219
621871
1.33545e+06
170569
537222
416552
141033
176074
1.48016e+06
895237
1.21565e+06
1.12988e+06
986136
1.22384e+06
899476
344652
378336
559057
1.35645e+06
141327
2.06037e+06
170440
139898
1.55834e+06
182076
283258
565433
566308
1.67056e+06
111300
1.04665e+06
963187
881210
322807
470042
2.04486e+06
338995
262407
607695
164569
635453
292864
319707
120448
186963
196046
168622
480285
121326
594319
319841
244236
799129
1.06604e+06
1.07266e+06
798635
395055
1.92091e+06
133017
133740
1.722e+06
1.56439e+06
946039
2.29238e+06
995415
856678
907757
2.03925e+06
984864
784543
1.80939e+06
391159
407492
588872
1.58875e+06
109353
1.36747e+06
163471
239589
361169
604120
659659
718200
350421
253622
420571
74050.6
78968.6
140568
146731
199621
164592
134868
186130
997637
1.85209e+06
219504
168802
1.70755e+06
1.21004e+06
475479
642451
139500
146773
1.47976e+06
984643
216329
774758
725477
982397
125001
139391
148662
128560
1.14519e+06
1.87009e+06
1.83653e+06
1.24191e+06
1.99368e+06
251095
119224
318811
964143
882199
1.04967e+06
475491
325222
2.07017e+06
448367
561993
735141
243088
210465
869124
311193
160015
653181
249202
318685
1.93476e+06
327319
290478
1.0174e+06
936812
857877
432004
1.31458e+06
1.23522e+06
1.61716e+06
504788
523895
654379
1.37105e+06
640655
461341
1.21812e+06
235851
2.30154e+06
157729
1.75798e+06
464790
532696
127416
564982
1.0778e+06
137734
160414
155034
2.03364e+06
582475
531752
631151
310972
227372
293677
562616
1.33246e+06
568383
1.11132e+06
1.32007e+06
1.21471e+06
381479
1.22628e+06
928386
984194
1.16521e+06
1.22674e+06
929110
993222
1.17429e+06
679659
580486
45273.1
280570
174680
391206
574122
479513
664945
1.35393e+06
1.2483e+06
1.14587e+06
1.04776e+06
386721
1.08429e+06
528739
156285
109544
115771
195508
105427
459185
1.08079e+06
1.1078e+06
397577
1.85927e+06
160809
142337
1.4548e+06
1.80778e+06
97818.1
1.13934e+06
448812
604831
843809
489950
303856
142909
448652
659037
67628.1
135358
1.88438e+06
250209
191929
451740
414335
490423
320481
133908
138676
328148
1.14408e+06
1.78436e+06
2.0662e+06
311482
345696
1.46041e+06
1.31656e+06
1.72132e+06
116984
970727
1.67398e+06
2.0774e+06
2.14484e+06
2.08449e+06
530573
927480
398134
1.95018e+06
1.45659e+06
593199
1.27095e+06
146265
134223
1.51271e+06
1.51461e+06
134985
411907
1.90222e+06
1.58676e+06
1.50481e+06
1.55714e+06
2.15347e+06
1.45801e+06
1.86628e+06
1.62471e+06
148194
257597
1.18754e+06
586226
978986
207538
139050
176007
162668
153581
196200
175465
400897
1.86867e+06
1.13503e+06
394054
542011
1.21696e+06
165062
565647
399428
2.20574e+06
301849
290631
547264
307149
505820
222666
178215
1.79475e+06
14721.8
143953
143590
29614.6
430980
479253
172332
188741
201732
144138
517405
496093
129557
1.90258e+06
1.62882e+06
567237
1.21153e+06
409826
126726
1.4144e+06
312633
1.89263e+06
510944
624382
736179
847811
1.62522e+06
1.49876e+06
1.37323e+06
1.25292e+06
510147
622030
1.62778e+06
1.50023e+06
733001
1.37517e+06
845131
1.2535e+06
283088
220020
533751
571207
502269
240684
200605
173386
142644
134524
148012
129431
133888
224215
877329
942625
826669
463693
901105
993136
1.56227e+06
653183
525723
1.68944e+06
564760
194079
119526
166910
141775
266918
243964
248273
140742
365009
285934
359337
731997
139909
197441
897224
148486
113570
138786
118575
1.3138e+06
163182
196850
610953
487416
249219
612765
208288
124906
113959
2.00988e+06
2.05555e+06
1.21482e+06
992797
967044
1.23419e+06
2.00431e+06
1.03126e+06
130369
664895
366242
282708
405517
197277
1.92441e+06
208874
1.10909e+06
1.0219e+06
935243
490905
335120
583904
338406
260309
1.94506e+06
222411
130451
638429
636995
285370
183733
220477
367820
764983
1.44763e+06
593452
472046
913329
1.17263e+06
315772
456533
1.001e+06
919402
841234
473085
510293
839299
678262
955685
508111
1.05281e+06
1.1497e+06
334465
1.25061e+06
2.27607e+06
1.61143e+06
116777
751447
821828
896064
279787
194331
1.37693e+06
237204
311275
392002
426950
182564
232082
191665
152949
1.28576e+06
983614
1.03304e+06
1.23792e+06
297620
1.6155e+06
2.00298e+06
738404
134574
738159
806198
879419
836325
981134
272418
1.56344e+06
685269
623034
569081
676914
247435
340151
200297
187615
425403
504107
462871
530326
579332
630972
383849
380296
543801
546625
1.11431e+06
1.10833e+06
933652
1.02183e+06
928366
1.01626e+06
555416
605751
221001
143709
160814
186595
1.1404e+06
707220
136237
1.1247e+06
931802
891505
1.15764e+06
191502
406490
1.46416e+06
612762
1.34601e+06
1.23192e+06
107146
243757
1.01816e+06
591860
421464
1.34665e+06
479018
71809.9
1.02008e+06
933748
1.1112e+06
495391
337352
1.39959e+06
527098
427230
1.84671e+06
529029
745809
182181
141362
310429
289391
264281
1.56903e+06
384811
266794
440944
404447
476350
240148
186376
1.04423e+06
1.17662e+06
191647
664361
144899
905978
1.81131e+06
1.1428e+06
542194
408348
978808
495616
443303
365742
242252
156310
374822
186280
449812
184707
316641
137490
150418
1.90232e+06
375613
1.59409e+06
900454
972406
524382
394303
944198
1.73194e+06
116955
142122
146530
137611
344079
33264.1
11011.3
343293
716232
135643
749697
332047
239906
159094
494671
689156
1.45778e+06
127376
104312
160296
183281
393717
252538
975832
868818
217173
144282
120100
1.92416e+06
716730
128171
282715
140623
2.20553e+06
1.7727e+06
282475
208709
761505
370017
521633
1.03338e+06
865083
947320
2.05067e+06
1.62898e+06
141756
1.53684e+06
2.08636e+06
1.61629e+06
1.79152e+06
782902
164636
1.06171e+06
254375
162665
196902
382888
411539
304641
301732
691382
227553
159109
123798
1.01237e+06
1.21402e+06
1.32592e+06
1.44183e+06
1.5493e+06
683467
584510
483418
382256
242403
120680
484288
22526.6
238340
237783
12243.1
516982
259172
204514
91298.6
322640
367065
135709
339038
1.02502e+06
766896
529625
376512
429962
1.89155e+06
1.45366e+06
191488
621682
134471
143224
521405
615010
648446
1.29498e+06
368251
403660
139708
1.70909e+06
146717
296787
347252
323342
1.21801e+06
1.32968e+06
686547
758168
756463
520057
670202
1.27255e+06
1.21114e+06
1.2051e+06
411127
567249
110725
123757
114981
257812
125864
564398
1.15433e+06
1.02561e+06
1.25714e+06
916195
1.26759e+06
914965
624621
428139
1.108e+06
810898
1.11082e+06
813624
273176
1.24046e+06
1.02643e+06
898874
1.17101e+06
1.03695e+06
1.27899e+06
929121
1.28036e+06
928234
1.17823e+06
2.20711e+06
468711
656355
1.40556e+06
521772
133359
145313
221483
21895.3
220957
19374.8
133715
398164
1.23146e+06
1.12683e+06
1.34096e+06
591615
411030
1.944e+06
71220.8
128856
253260
856669
274266
757084
370763
1.98383e+06
2.00151e+06
1.20822e+06
144675
269886
1.33805e+06
699691
561380
392821
697407
637554
757885
267394
370659
2.04576e+06
480254
1.81666e+06
134532
133384
130814
133797
94337.3
1.79262e+06
148175
1.30899e+06
92495.9
954934
1.23485e+06
147025
138148
189330
547518
199091
457059
419223
309502
335498
364181
160348
330830
445955
551218
372478
1.26235e+06
1.16208e+06
1.06321e+06
1.34149e+06
1.79649e+06
1.98388e+06
122837
121732
124282
133465
259079
153882
278486
1.98685e+06
2.03132e+06
2.01028e+06
1.56011e+06
61545.1
1.08575e+06
1.84383e+06
1.23004e+06
967624
989390
1.2143e+06
608108
550193
1.08708e+06
704681
1.30105e+06
102597
235094
295029
569501
234564
230260
263784
180727
208647
153141
178047
395582
399681
434408
431043
468519
470515
552456
547231
138207
137266
511287
334498
110347
196442
785035
1.3043e+06
138782
769741
1.66626e+06
508725
1.58059e+06
713916
205139
1.49381e+06
770726
647987
1.02631e+06
1.77345e+06
2.14485e+06
844177
349413
1.80954e+06
256675
190952
164750
408169
93683.9
764388
1.32505e+06
337821
516061
210858
135187
223842
1.94472e+06
340986
395825
382440
285671
818859
256958
205313
821328
180643
1.74888e+06
144895
1.03336e+06
377902
409959
1.61863e+06
1.35693e+06
816965
1.48365e+06
1.61528e+06
700375
1.74909e+06
586195
468556
1.355e+06
1.48083e+06
1.74906e+06
1.61259e+06
470143
703663
820344
588116
1.79882e+06
180626
1.41218e+06
156488
115364
139548
8105.15
61684.2
766162
84582.8
1.35866e+06
275264
209258
515152
557588
472566
411039
261547
1.16235e+06
260213
278725
1.06095e+06
99561.8
409305
378236
375189
1.18366e+06
1.08339e+06
1.2885e+06
561500
493815
207164
350430
676668
1.35577e+06
74280.9
338791
204812
134760
448000
1.4419e+06
801626
692198
1.51472e+06
179425
822545
1.7643e+06
887559
1.63745e+06
151161
1.83874e+06
222334
1.23291e+06
433965
535679
136561
14245.9
143007
142615
24379.2
235537
1.27286e+06
179801
1.5325e+06
704129
251979
1.17161e+06
1.12482e+06
1.28251e+06
1.23147e+06
1.39743e+06
1.34223e+06
644768
623413
441987
428310
489871
332918
1.11496e+06
1.02763e+06
940158
298883
351279
323621
165885
1.03901e+06
904960
94656.2
182975
138916
158471
166642
1.799e+06
1.49268e+06
384707
1.26272e+06
1.15638e+06
1.37236e+06
123764
672747
1.21422e+06
1.25693e+06
138531
130097
1.46113e+06
471317
164061
261671
305675
283542
169282
494029
454845
419917
1.65291e+06
2.20299e+06
1.61043e+06
1.1314e+06
548560
397044
173908
189276
278693
202659
137121
124399
210263
599681
477170
132762
1.33934e+06
1.54482e+06
622625
554778
166576
162075
145673
152276
432751
1.45821e+06
1.10287e+06
847136
873488
1.04155e+06
131296
141459
212208
130279
130937
275797
2.27932e+06
1.80718e+06
140744
176123
746879
644811
450164
1.40045e+06
1.51657e+06
1.17461e+06
1.28487e+06
783463
398934
340454
370055
178144
217796
1.6641e+06
434697
1.05427e+06
84055.8
1.54759e+06
143590
591800
685302
2.27464e+06
131078
608913
154178
570135
161689
361380
1.11276e+06
501023
1.26306e+06
816530
1.38373e+06
1.5085e+06
707243
1.63685e+06
596056
486575
598290
487081
233376
707027
799678
1.0436e+06
134619
216674
1.30995e+06
572056
2.08031e+06
1.69827e+06
1.90313e+06
345886
1.47818e+06
701892
532960
260233
200151
2.01712e+06
1.05524e+06
128231
2.20026e+06
1.84096e+06
64353
628303
514982
81573.4
865999
681709
110909
172689
1.43991e+06
2.11331e+06
136370
725643
744753
1.51278e+06
1.46515e+06
528657
541915
529783
543536
138840
140243
139611
131890
103594
2.19099e+06
1.68663e+06
1.53515e+06
1.93577e+06
723625
381981
1.55484e+06
860377
941892
1.02709e+06
78301.6
1.61823e+06
278826
1.20738e+06
1.74006e+06
512570
356175
2.20232e+06
573839
602561
423385
447032
1.15004e+06
1.11198e+06
201494
199546
112310
133605
373535
1.35732e+06
1.24789e+06
1.1421e+06
563895
2.18591e+06
139154
258954
121703
1.12784e+06
1.2342e+06
716295
1.34422e+06
612872
1.46999e+06
519380
1.38472e+06
1.16148e+06
1.27062e+06
1.50037e+06
417906
737966
636835
522409
131529
178961
189120
239645
442971
373059
406534
1.78487e+06
811242
989930
1.66001e+06
197966
294061
133071
463828
643591
224052
308793
1.68964e+06
180273
129232
133699
136143
130007
87437.9
206594
155855
168656
1.4359e+06
1.70159e+06
153552
132702
166382
288428
622317
1.85018e+06
1.72145e+06
776870
139625
185237
1.45981e+06
139472
141365
2.24472e+06
857569
1.68352e+06
463668
1.13689e+06
706540
699769
198749
815061
1.19359e+06
569682
410867
167538
379514
134600
99668.4
121358
1.82323e+06
1.04248e+06
1.06175e+06
1.77326e+06
279873
300582
160139
564173
144855
133322
145842
350846
284595
28939.6
283959
19835.9
133873
1.12093e+06
332461
479035
1.01849e+06
935384
854990
176780
2.0526e+06
686052
385802
1.75066e+06
1.02725e+06
1.0708e+06
182782
17930.4
182323
18885.4
1.5569e+06
396561
637795
759833
699235
147666
1.694e+06
385212
278778
883070
677855
128898
38642.5
1.23495e+06
253981
1.23955e+06
309231
408434
757769
837458
701865
157257
623709
257302
327763
163271
175506
594368
619152
206571
369566
135229
136412
986233
490185
361260
146780
535669
13857.3
51833.5
534465
649018
524807
775142
920672
113869
2.05584e+06
2.14584e+06
265452
136160
148633
223387
247507
25558.5
246957
22050.4
1.06403e+06
361648
500418
1.99952e+06
2.02862e+06
1.70469e+06
1.56445e+06
905361
801980
767045
681450
1.69606e+06
242197
477030
176127
118705
132262
340722
475549
679381
1.9393e+06
1.96057e+06
245950
127465
635543
692817
236174
1.05638e+06
429718
354241
1.57527e+06
159111
148848
195459
1.01876e+06
1.02294e+06
1.08505e+06
687923
346446
482415
93679.4
93639.6
1.20252e+06
128438
1.05842e+06
136357
514187
835162
731995
1.23957e+06
1.4497e+06
138692
175129
391688
1.7186e+06
8430.46
104519
30999
104903
277724
257787
92839
1.89595e+06
33840.8
1.79835e+06
468294
45305
14620
467239
300268
152150
17495.3
151874
381984
1.66731e+06
383470
1.87011e+06
2.13637e+06
62393.4
599476
713509
656701
857191
408345
298454
927156
597781
104280
228564
356423
257694
632276
839269
237601
238515
2.05545e+06
722133
837465
782897
903152
1.30541e+06
127258
130890
1.09229e+06
1.3344e+06
456005
248431
285404
151488
301446
432913
142428
231753
331562
139431
97272.1
1.1923e+06
1.39671e+06
265938
583159
455762
466702
1.45845e+06
654838
285886
225046
564449
477245
121383
335085
1.33679e+06
1.69583e+06
444058
311496
780275
929418
853726
88897.7
132297
324269
233749
1.26624e+06
459218
106650
51543
77100.3
434035
306799
754849
898840
825980
137859
1.84326e+06
2.10091e+06
151373
146400
138699
134783
1.83588e+06
358548
269032
773816
2.27074e+06
1.83112e+06
506480
183738
472117
434100
267984
249363
286135
162176
145988
145467
384398
1.79517e+06
113880
963799
1.04394e+06
1.67335e+06
1.20391e+06
1.17482e+06
446441
439964
598204
607735
287940
313663
272915
130601
131099
704781
231022
1.66257e+06
1.14114e+06
287226
129596
719142
2.13303e+06
127580
1.10477e+06
918377
870615
1.14098e+06
797383
340058
469374
1.05576e+06
189124
770834
332136
370289
193754
407261
236594
306467
842734
415374
182576
159072
207777
1.06656e+06
875908
197873
188374
179582
204263
135415
565909
434769
123941
412602
139626
237985
381780
1.94943e+06
1.71674e+06
1.17213e+06
333049
240580
744845
687055
629661
302656
304782
144892
1.05721e+06
148883
577396
755889
226175
208602
1.74366e+06
102367
338349
315014
156344
1.83196e+06
99157.6
135621
502217
593097
184865
174658
194923
142413
138499
1.16869e+06
113783
143834
17861.1
143528
1.16612e+06
1.10019e+06
2.08046e+06
1.26516e+06
1.58182e+06
140112
1.63643e+06
1.107e+06
16158
117270
271755
209296
461593
502290
543980
716690
397218
1.66582e+06
962826
1.04858e+06
172094
118205
114602
132765
147127
151172
228235
971035
117483
2.08677e+06
515020
205209
1.07205e+06
694355
354658
492611
231013
199717
283248
430588
276086
573376
524898
207035
140128
724877
1.03531e+06
96071.4
102850
185416
110478
116205
1.5843e+06
406585
301729
877077
1.52688e+06
417989
295971
729830
623626
677253
570948
331816
241517
140474
9504.21
75210.8
699011
576121
819036
1.72292e+06
1.45234e+06
1.58563e+06
576146
696799
1.72903e+06
1.59038e+06
817543
1.45689e+06
195492
385817
320834
322787
127982
217506
191866
567561
272359
213593
256825
452145
1.26227e+06
619863
140805
226398
130075
143030
243117
375466
128053
130046
132536
916544
337586
447588
303330
395599
821573
698691
841450
674404
1.15321e+06
346575
199348
286260
726355
548139
260654
354055
504712
140578
289603
174220
169311
586659
588619
210318
742177
225828
241923
1.32336e+06
1.10717e+06
127912
149383
1.76282e+06
106860
180747
113841
222512
274538
895160
820091
746431
489012
494721
886224
203979
146494
136179
1.18032e+06
224739
210109
205397
196935
195537
188376
107563
173903
1.38976e+06
1.3952e+06
429623
337569
138547
953167
813371
342757
476764
682303
128526
96356.9
145715
1.77572e+06
686001
825583
64448
584432
222565
90701.7
217812
235567
204646
569874
136360
345736
267509
143010
2.1938e+06
365611
1.06216e+06
300599
1.68193e+06
742799
868370
455209
328855
1.02282e+06
117050
147120
183924
400989
486006
313020