/*--------------------------------*- C++ -*----------------------------------*\
| =========                 |                                                 |
| \\      /  F ield         | OpenFOAM: The Open Source CFD Toolbox           |
|  \\    /   O peration     | Version:  2.3.1                                 |
|   \\  /    A nd           | Web:      www.OpenFOAM.org                      |
|    \\/     M anipulation  |                                                 |
\*---------------------------------------------------------------------------*/
FoamFile
{
    version     2.0;
    format      ascii;
    class       volVectorField;
    location    "0.61";
    object      U;
}
// * * * * * * * * * * * * * * * * * * * * * * * * * * * * * * * * * * * * * //

dimensions      [0 1 -1 0 0 0 0];

internalField   nonuniform List<vector> 
9648
(
(0.164059 -4.73388 1.14248e-24)
(0.280524 -4.70996 -1.09264e-22)
(0.397715 -4.67749 0)
(0.517271 -4.65035 0)
(0.637817 -4.62798 1.02803e-20)
(0.759638 -4.61219 1.59638e-20)
(0.885375 -4.60674 -2.82055e-20)
(1.01723 -4.61351 -1.29437e-20)
(1.15624 -4.63364 1.29107e-20)
(1.30298 -4.66903 3.89427e-20)
(1.45956 -4.72123 -3.8778e-20)
(1.62782 -4.79116 -5.56465e-20)
(1.80974 -4.87942 2.95673e-19)
(2.00732 -4.98591 7.63205e-20)
(2.22225 -5.10987 -7.15888e-19)
(2.45577 -5.25006 0)
(2.70906 -5.40479 0)
(2.98296 -5.57206 1.29889e-19)
(3.27818 -5.74929 4.18526e-19)
(3.59481 -5.93374 -1.20405e-18)
(3.93289 -6.12283 -2.09742e-20)
(4.2923 -6.3135 3.31703e-19)
(4.67231 -6.50288 3.92076e-19)
(5.07225 -6.68821 -1.78206e-18)
(5.49118 -6.8668 0)
(5.92811 -7.03602 1.0671e-18)
(6.38171 -7.1934 -1.11909e-18)
(6.85064 -7.33686 0)
(7.33345 -7.46421 0)
(7.82853 -7.57378 -6.7945e-19)
(8.33438 -7.66388 -1.50348e-18)
(8.84919 -7.73305 2.36113e-18)
(9.37137 -7.78015 0)
(9.89915 -7.80395 0)
(10.4307 -7.80378 1.8097e-18)
(10.9644 -7.77877 -1.94775e-18)
(11.4983 -7.72848 0)
(12.0309 -7.65264 4.18294e-18)
(12.5604 -7.55084 1.12849e-18)
(13.0849 -7.42296 -3.341e-18)
(13.6027 -7.26901 6.29927e-20)
(14.1123 -7.08949 2.37778e-18)
(14.612 -6.88425 -3.15909e-18)
(15.1 -6.65386 6.35481e-19)
(15.5751 -6.39905 0)
(16.036 -6.11997 0)
(16.4809 -5.81732 4.79559e-18)
(16.9087 -5.4919 7.01887e-19)
(17.3187 -5.14466 -2.16928e-18)
(17.7103 -4.77562 -7.30275e-19)
(18.0813 -4.38526 -7.59743e-19)
(18.4299 -3.97601 7.55007e-19)
(18.756 -3.54959 3.90117e-19)
(19.0586 -3.1068 -3.87996e-19)
(19.3365 -2.64933 1.98081e-18)
(19.5894 -2.17828 -1.95053e-18)
(19.8163 -1.69509 -2.16897e-20)
(20.0169 -1.20098 0)
(20.1905 -0.697416 -3.96311e-19)
(20.3368 -0.186065 -5.12605e-20)
(20.4558 0.331859 -4.8604e-20)
(-0.0576679 -2.44748 1.03601e-22)
(0.00572122 -2.44549 0)
(0.072394 -2.45735 0)
(0.145302 -2.48371 5.99451e-21)
(0.22321 -2.53078 -6.21461e-21)
(0.310558 -2.60204 -3.75713e-20)
(0.408805 -2.69499 0)
(0.519657 -2.80772 0)
(0.644645 -2.94076 -4.41705e-20)
(0.784378 -3.09383 0)
(0.940222 -3.26583 -1.05356e-19)
(1.11303 -3.45521 8.29156e-20)
(1.30376 -3.66067 -4.47901e-20)
(1.51337 -3.88053 0)
(1.74266 -4.11287 2.78434e-19)
(1.99193 -4.35562 1.64741e-19)
(2.26153 -4.60655 -1.62079e-19)
(2.55162 -4.86346 2.10454e-19)
(2.86237 -5.12384 -6.40991e-19)
(3.19358 -5.38525 5.10221e-19)
(3.54492 -5.64536 -5.64889e-19)
(3.91613 -5.90166 -3.04358e-19)
(4.30642 -6.1518 -3.12186e-19)
(4.71502 -6.39348 1.07303e-18)
(5.14104 -6.62449 3.7158e-19)
(5.58354 -6.84266 4.41799e-19)
(6.04138 -7.04599 -3.91655e-19)
(6.5133 -7.23272 0)
(6.99806 -7.40107 0)
(7.49416 -7.54966 0)
(8.00024 -7.67703 0)
(8.51469 -7.78197 0)
(9.03599 -7.86349 0)
(9.56263 -7.92058 0)
(10.0928 -7.95266 -8.11211e-19)
(10.6251 -7.95893 7.36723e-19)
(11.1577 -7.93913 8.12824e-19)
(11.689 -7.89293 -4.12941e-18)
(12.2175 -7.82001 -8.76678e-19)
(12.7414 -7.72032 2.69628e-18)
(13.2591 -7.59395 1.89237e-18)
(13.769 -7.44134 -1.95334e-18)
(14.2694 -7.26235 9.32955e-19)
(14.7589 -7.05769 9.8469e-19)
(15.2358 -6.82797 -1.047e-18)
(15.699 -6.57343 1.03771e-18)
(16.1468 -6.29491 -2.22494e-18)
(16.5779 -5.99326 0)
(16.991 -5.66944 -5.68563e-19)
(17.3854 -5.32359 1.14261e-18)
(17.7602 -4.95631 -5.74203e-19)
(18.1144 -4.56952 0)
(18.4466 -4.16459 1.18061e-18)
(18.7561 -3.74234 0)
(19.0419 -3.30423 0)
(19.3032 -2.85143 2.79961e-18)
(19.5391 -2.38525 -1.26193e-18)
(19.7493 -1.90731 -3.0704e-19)
(19.9331 -1.41848 3.24117e-19)
(20.0902 -0.920489 0)
(20.2199 -0.414584 8.15224e-20)
(0.0478091 -1.39085 -2.45533e-22)
(0.101588 -1.43022 0)
(0.16251 -1.49037 -5.28095e-22)
(0.231975 -1.5745 -2.98902e-22)
(0.309481 -1.67942 0)
(0.39836 -1.80328 3.22239e-20)
(0.499612 -1.94789 2.15267e-20)
(0.614633 -2.11197 0)
(0.74518 -2.29491 2.25331e-21)
(0.892924 -2.49513 4.50556e-20)
(1.05888 -2.7115 8.96554e-20)
(1.24371 -2.94209 -3.10506e-20)
(1.44801 -3.18512 0)
(1.67217 -3.43852 0)
(1.91647 -3.70022 2.11188e-19)
(2.18088 -3.96813 -1.34232e-19)
(2.46537 -4.24003 -1.43811e-19)
(2.76978 -4.51376 0)
(3.09388 -4.78707 5.53842e-19)
(3.43732 -5.05779 -5.74877e-19)
(3.79965 -5.32386 -4.29734e-19)
(4.18031 -5.58316 -4.73244e-19)
(4.57854 -5.83366 0)
(4.99346 -6.07339 -8.48462e-19)
(5.42413 -6.30043 -2.98351e-19)
(5.86958 -6.51292 3.54668e-19)
(6.3287 -6.70915 3.91803e-19)
(6.80032 -6.88759 0)
(7.28317 -7.0468 0)
(7.77588 -7.1855 0)
(8.27704 -7.30252 0)
(8.78518 -7.39684 0)
(9.29885 -7.46755 0)
(9.81653 -7.5139 0)
(10.3366 -7.53534 -1.77661e-18)
(10.8576 -7.53133 5.90232e-19)
(11.3779 -7.5016 -6.51351e-19)
(11.896 -7.44592 3.27839e-18)
(12.4103 -7.36413 0)
(12.9192 -7.25626 1.39531e-18)
(13.4212 -7.12252 1.44337e-18)
(13.9146 -6.9632 7.15162e-19)
(14.398 -6.77844 -8.19642e-19)
(14.87 -6.56878 -1.57879e-18)
(15.3291 -6.33477 2.46046e-18)
(15.7741 -6.07691 -8.32385e-19)
(16.2036 -5.79598 -1.69837e-18)
(16.6163 -5.49279 0)
(17.0112 -5.16834 0)
(17.387 -4.8236 -4.63906e-19)
(17.7427 -4.45971 -4.5364e-19)
(18.0777 -4.07756 -9.27988e-19)
(18.391 -3.67823 -9.71581e-19)
(18.6816 -3.26313 0)
(18.9489 -2.83308 -9.61242e-19)
(19.192 -2.3898 -1.00196e-18)
(19.4104 -1.93403 0)
(19.6035 -1.46795 1.62858e-20)
(19.7706 -0.99189 0)
(19.9115 -0.507606 0)
(20.026 -0.0161177 -6.21179e-20)
(0.0154311 -0.888178 5.29338e-22)
(0.0742859 -0.964918 -6.65959e-22)
(0.145638 -1.06282 -1.49763e-22)
(0.228945 -1.18066 -2.01379e-21)
(0.323763 -1.31711 0)
(0.429855 -1.47168 -1.34427e-20)
(0.548717 -1.64441 -1.85566e-20)
(0.681754 -1.83458 0)
(0.830529 -2.04119 3.0449e-21)
(0.99604 -2.263 -3.84409e-20)
(1.17926 -2.49852 8.60509e-20)
(1.38059 -2.74602 1.03714e-19)
(1.60046 -3.00352 0)
(1.83909 -3.26899 -8.13444e-20)
(2.09674 -3.54043 -1.72431e-19)
(2.37317 -3.81585 -9.18089e-20)
(2.66825 -4.09315 3.53235e-19)
(2.98176 -4.37028 -2.55146e-19)
(3.31332 -4.64519 2.85972e-19)
(3.66264 -4.91587 4.86968e-19)
(4.02928 -5.18052 7.04736e-19)
(4.41255 -5.4373 3.97462e-19)
(4.81179 -5.68439 1.91173e-19)
(5.22608 -5.92005 6.94887e-19)
(5.65457 -6.14251 2.2821e-19)
(6.09629 -6.35011 2.59693e-19)
(6.55022 -6.54134 3.06501e-19)
(7.01538 -6.71475 -9.17359e-19)
(7.49052 -6.86914 6.5867e-19)
(7.97435 -7.00333 7.44441e-19)
(8.46565 -7.11626 -1.52202e-18)
(8.96296 -7.207 7.77236e-19)
(9.46493 -7.2747 -8.32871e-19)
(9.97027 -7.3187 4.15169e-19)
(10.4774 -7.33853 4.55189e-19)
(10.9849 -7.3337 5.05337e-19)
(11.4913 -7.3039 -4.98973e-19)
(11.9952 -7.249 -5.43844e-19)
(12.495 -7.16887 -1.63051e-18)
(12.9894 -7.06358 -1.17664e-18)
(13.4768 -6.93336 -2.38591e-18)
(13.9557 -6.77841 -3.09155e-18)
(14.4247 -6.59902 1.26775e-18)
(14.8824 -6.39559 2.86877e-20)
(15.3275 -6.16865 -7.10311e-19)
(15.7587 -5.91875 -6.96906e-19)
(16.1748 -5.64655 4.21407e-18)
(16.5747 -5.35284 -7.06441e-19)
(16.9572 -5.0384 0)
(17.3213 -4.70415 0)
(17.666 -4.35113 -7.09997e-19)
(17.9906 -3.9805 3.17448e-20)
(18.2941 -3.59328 7.62185e-19)
(18.5758 -3.19059 0)
(18.8348 -2.77372 8.12107e-19)
(19.0704 -2.34398 0)
(19.282 -1.90255 0)
(19.469 -1.45037 6.19291e-19)
(19.6311 -0.989006 1.97e-19)
(19.7678 -0.519904 -2.00788e-19)
(19.8789 -0.0445436 1.02772e-19)
(0.101343 -0.641308 3.97285e-23)
(0.163211 -0.740851 5.8245e-22)
(0.239427 -0.858187 -6.93666e-22)
(0.330053 -0.993635 1.12813e-21)
(0.434288 -1.14692 -3.14466e-21)
(0.552407 -1.31755 5.43617e-21)
(0.684978 -1.50504 2.29706e-21)
(0.832816 -1.70835 -1.37034e-20)
(0.997134 -1.92647 3.99876e-20)
(1.17825 -2.15803 -5.76112e-20)
(1.3769 -2.40146 6.45684e-20)
(1.59297 -2.65501 -8.01316e-20)
(1.82678 -2.91663 -4.61207e-20)
(2.0782 -3.18436 0)
(2.34759 -3.45617 8.42248e-20)
(2.63435 -3.73037 8.07608e-20)
(2.93833 -4.00492 0)
(3.25929 -4.27785 1.99703e-19)
(3.59667 -4.54732 0)
(3.95031 -4.81137 -2.64473e-19)
(4.31983 -5.06847 2.88614e-19)
(4.70439 -5.31704 1.00722e-20)
(5.10349 -5.55535 -1.68808e-20)
(5.51605 -5.78198 2.87358e-20)
(5.94129 -5.99515 -8.11393e-19)
(6.37838 -6.19337 -4.65876e-19)
(6.82628 -6.37525 9.59113e-19)
(7.28421 -6.53943 1.04083e-18)
(7.75094 -6.68496 -5.63549e-19)
(8.22528 -6.81066 0)
(8.70611 -6.9156 0)
(9.19197 -6.99898 0)
(9.68169 -7.05988 7.13927e-19)
(10.1741 -7.09777 -2.94926e-18)
(10.6676 -7.11227 1.54372e-18)
(11.1609 -7.1029 -7.85166e-19)
(11.6528 -7.06933 -1.69438e-18)
(12.1417 -7.01156 1.71903e-18)
(12.6263 -6.92943 3.96099e-20)
(13.1054 -6.82304 -9.71195e-19)
(13.5773 -6.69268 1.00345e-18)
(14.0407 -6.53855 1.0379e-18)
(14.4941 -6.36091 0)
(14.9364 -6.16007 -1.05446e-18)
(15.3662 -5.9366 0)
(15.7823 -5.69104 -1.68551e-18)
(16.1836 -5.42404 5.21079e-19)
(16.5689 -5.1363 0)
(16.9372 -4.82853 -6.11798e-19)
(17.2876 -4.50174 -1.47262e-20)
(17.6192 -4.15674 1.30401e-18)
(17.9311 -3.79473 -6.19789e-19)
(18.2225 -3.41677 -3.44866e-19)
(18.4928 -3.02397 6.31507e-19)
(18.7411 -2.61769 -4.85835e-21)
(18.9666 -2.1989 3.29512e-19)
(19.1686 -1.76892 1.59211e-19)
(19.3467 -1.32867 3.36162e-19)
(19.5006 -0.879378 -8.44735e-19)
(19.63 -0.422541 3.39384e-19)
(19.7345 0.0402862 -4.34405e-20)
(0.178556 -0.51257 -2.74521e-22)
(0.254683 -0.628032 0)
(0.346106 -0.75958 1.38547e-21)
(0.452757 -0.907859 0)
(0.573218 -1.07269 8.92332e-22)
(0.708189 -1.25346 7.69407e-21)
(0.857881 -1.44965 8.59933e-21)
(1.02288 -1.65999 2.6441e-20)
(1.20435 -1.88344 3.65198e-21)
(1.40195 -2.11872 5.61818e-21)
(1.61655 -2.36412 1.0798e-21)
(1.84732 -2.61809 -3.04447e-20)
(2.09479 -2.8785 4.46005e-20)
(2.35811 -3.14337 -1.35865e-19)
(2.63837 -3.41071 1.15492e-19)
(2.9345 -3.67939 -8.299e-21)
(3.24609 -3.94709 -1.43013e-19)
(3.57329 -4.21211 -1.72276e-19)
(3.91507 -4.47277 0)
(4.27156 -4.72702 2.04983e-19)
(4.64265 -4.97369 8.19477e-21)
(5.02701 -5.21151 -5.31431e-19)
(5.42469 -5.43874 -2.2838e-20)
(5.83417 -5.65438 -2.88072e-19)
(6.25478 -5.8565 1.01691e-18)
(6.68584 -6.04376 3.48531e-20)
(7.12621 -6.2149 -3.78297e-19)
(7.57558 -6.36851 -4.04275e-20)
(8.03259 -6.50405 0)
(8.49603 -6.62033 0)
(8.96517 -6.71638 0)
(9.43828 -6.79176 0)
(9.91431 -6.84533 0)
(10.3925 -6.87654 5.64838e-20)
(10.8713 -6.88536 -6.60935e-19)
(11.349 -6.87126 -3.86395e-20)
(11.8251 -6.83367 2.87217e-20)
(12.2978 -6.77296 6.82654e-19)
(12.7659 -6.68879 1.56101e-18)
(13.2285 -6.58131 -2.35509e-18)
(13.6838 -6.45104 1.63977e-18)
(14.1307 -6.29802 -8.27851e-19)
(14.5674 -6.1226 0)
(14.9931 -5.92482 9.2022e-19)
(15.4067 -5.70537 0)
(15.8067 -5.46478 9.69346e-19)
(16.1923 -5.20352 -9.92228e-19)
(16.5621 -4.9226 4.66146e-19)
(16.9154 -4.62231 4.98131e-19)
(17.2512 -4.3037 -5.20051e-19)
(17.5688 -3.96761 3.72263e-20)
(17.8674 -3.61527 -1.06711e-20)
(18.1462 -3.24744 1.05879e-18)
(18.4046 -2.86553 -1.09013e-18)
(18.6419 -2.47074 -5.38032e-19)
(18.8569 -2.0644 -2.63492e-19)
(19.049 -1.64728 -8.38588e-19)
(19.2179 -1.22022 0)
(19.3636 -0.784344 5.66885e-19)
(19.4857 -0.341469 -1.45591e-19)
(19.5838 0.107129 0)
(0.277455 -0.453066 0)
(0.368455 -0.579725 0)
(0.475998 -0.721904 -8.21304e-22)
(0.600639 -0.879994 6.48536e-23)
(0.738893 -1.05341 -2.25243e-21)
(0.892445 -1.24107 -1.21893e-20)
(1.0606 -1.44248 6.24095e-21)
(1.24329 -1.65611 -1.89182e-20)
(1.44291 -1.88118 -1.22691e-21)
(1.65694 -2.11645 4.80564e-20)
(1.88791 -2.36024 -8.77875e-20)
(2.13295 -2.61131 0)
(2.39391 -2.86724 0)
(2.66793 -3.12628 1.5449e-19)
(2.9587 -3.38592 9.87032e-20)
(3.26338 -3.64643 -2.17453e-19)
(3.58143 -3.90485 3.52516e-19)
(3.91417 -4.15961 1.473e-19)
(4.25912 -4.40967 -2.94703e-19)
(4.61716 -4.6522 -1.7847e-19)
(4.98925 -4.88649 2.05269e-19)
(5.37207 -5.11214 -5.03204e-21)
(5.76776 -5.32656 0)
(6.17311 -5.53023 5.29517e-19)
(6.58794 -5.7203 -8.7234e-19)
(7.01224 -5.89549 2.90544e-19)
(7.44366 -6.05513 6.42696e-19)
(7.88363 -6.19702 -1.78865e-18)
(8.33008 -6.32175 3.6434e-19)
(8.7814 -6.42794 0)
(9.23815 -6.51419 0)
(9.6975 -6.5812 0)
(10.1586 -6.62698 5.005e-19)
(10.6218 -6.65074 1.54981e-18)
(11.085 -6.65338 -1.04841e-18)
(11.5459 -6.63447 5.78881e-19)
(12.0053 -6.59214 6.34612e-19)
(12.4607 -6.52817 -1.25912e-18)
(12.9112 -6.44165 0)
(13.3563 -6.33245 -1.2939e-18)
(13.7941 -6.20208 6.72151e-19)
(14.2234 -6.04991 3.4841e-20)
(14.6423 -5.87685 -3.1357e-20)
(15.0505 -5.68188 7.41107e-19)
(15.4468 -5.4663 3.13564e-20)
(15.8296 -5.23096 -2.36835e-18)
(16.1986 -4.9754 8.02699e-19)
(16.5518 -4.70149 -1.66804e-18)
(16.8891 -4.40859 0)
(17.2092 -4.09856 0)
(17.5121 -3.7713 1.76329e-18)
(17.7963 -3.42908 -4.21323e-19)
(18.0613 -3.07179 -9.14314e-19)
(18.3072 -2.70072 -4.39629e-19)
(18.5327 -2.31796 1.40443e-18)
(18.7366 -1.92453 7.08673e-19)
(18.9181 -1.52071 2.4506e-19)
(19.0769 -1.10767 -4.60981e-21)
(19.2134 -0.685508 -2.45372e-19)
(19.3278 -0.256687 0)
(19.4189 0.176932 0)
(0.393191 -0.436924 3.18106e-22)
(0.502248 -0.571673 0)
(0.626972 -0.72154 0)
(0.77216 -0.887202 -3.57752e-22)
(0.928614 -1.06695 0)
(1.10179 -1.25896 4.93067e-21)
(1.28875 -1.46293 6.02028e-21)
(1.4883 -1.67692 -1.23861e-20)
(1.70748 -1.9009 0)
(1.9367 -2.13359 -2.87359e-20)
(2.1852 -2.3733 3.73681e-21)
(2.44301 -2.61953 0)
(2.71836 -2.86904 0)
(3.00017 -3.12067 -6.49617e-20)
(3.3019 -3.3694 7.09421e-20)
(3.6149 -3.62042 -8.88097e-20)
(3.93754 -3.86816 -1.02111e-19)
(4.27583 -4.111 0)
(4.62254 -4.35008 1.31626e-19)
(4.98061 -4.57958 -2.77897e-19)
(5.35449 -4.80002 -3.11417e-19)
(5.73342 -5.01322 -3.65037e-19)
(6.1274 -5.21326 -3.26319e-20)
(6.52769 -5.40506 -4.6386e-19)
(6.93575 -5.58264 4.45119e-19)
(7.35342 -5.74497 4.96518e-19)
(7.77379 -5.8932 -5.65192e-19)
(8.20402 -6.02199 3.09908e-20)
(8.63957 -6.13557 4.17646e-20)
(9.07682 -6.23171 -6.52744e-19)
(9.52098 -6.30714 0)
(9.96562 -6.36622 -7.95032e-19)
(10.4106 -6.40385 1.57721e-18)
(10.8582 -6.41898 -4.41789e-20)
(11.3055 -6.41566 9.26076e-19)
(11.7473 -6.39316 -9.21646e-19)
(12.1901 -6.34474 1.01636e-18)
(12.6273 -6.27762 1.06056e-18)
(13.0584 -6.18866 -2.09687e-18)
(13.4854 -6.07694 1.14756e-18)
(13.9041 -5.94692 1.12886e-18)
(14.3155 -5.7952 1.78371e-18)
(14.7148 -5.6249 -6.35109e-19)
(15.1045 -5.43158 0)
(15.4828 -5.21999 3.40542e-20)
(15.8467 -4.99087 6.90496e-19)
(16.1987 -4.74061 -6.71414e-19)
(16.5336 -4.47508 7.23245e-19)
(16.854 -4.1895 0)
(17.1569 -3.88909 0)
(17.4441 -3.57056 -3.96815e-20)
(17.7129 -3.23949 7.77951e-19)
(17.963 -2.89207 0)
(18.1954 -2.53163 3.86674e-19)
(18.4087 -2.16203 3.90168e-19)
(18.6008 -1.78261 -7.9516e-19)
(18.7712 -1.39267 -3.9018e-19)
(18.9184 -0.994768 -2.07395e-19)
(19.0446 -0.585865 0)
(19.1509 -0.172164 0)
(19.2345 0.245008 2.48642e-20)
(0.526021 -0.447763 -9.01664e-22)
(0.659326 -0.587311 1.72654e-21)
(0.800731 -0.740452 -3.00464e-23)
(0.972578 -0.911832 -1.11018e-21)
(1.14352 -1.0948 7.26538e-22)
(1.33597 -1.2911 -4.08055e-22)
(1.54252 -1.49369 0)
(1.75524 -1.70418 1.35961e-21)
(1.99919 -1.92563 -1.45626e-20)
(2.23789 -2.15236 0)
(2.50983 -2.38676 5.82766e-20)
(2.77331 -2.62768 -3.62459e-20)
(3.06665 -2.87079 3.68952e-20)
(3.34888 -3.11529 4.68994e-20)
(3.66434 -3.34732 -6.12776e-20)
(3.98529 -3.58984 -7.47995e-20)
(4.3083 -3.82682 2.46876e-19)
(4.65657 -4.05411 -2.57118e-19)
(4.99848 -4.28472 0)
(5.35172 -4.50267 -9.03696e-21)
(5.73413 -4.70788 7.64864e-19)
(6.10094 -4.91142 -2.90401e-20)
(6.50091 -5.09154 -3.62875e-19)
(6.89001 -5.27447 6.9548e-19)
(7.28934 -5.442 0)
(7.70357 -5.59137 -4.28106e-19)
(8.10643 -5.72988 -4.38805e-19)
(8.52875 -5.84396 9.73369e-19)
(8.95444 -5.94731 -6.51371e-21)
(9.37336 -6.03505 5.78176e-19)
(9.80763 -6.09675 -1.1819e-18)
(10.2335 -6.1504 1.87997e-18)
(10.66 -6.18152 -1.34851e-18)
(11.0928 -6.1879 -1.41473e-18)
(11.5269 -6.17782 0)
(11.9445 -6.1524 8.06294e-19)
(12.3763 -6.09509 0)
(12.7916 -6.02798 -2.95445e-21)
(13.201 -5.93858 9.56543e-19)
(13.6124 -5.82107 -1.77947e-18)
(14.0097 -5.69062 -6.5567e-21)
(14.4044 -5.53942 -1.96962e-18)
(14.7781 -5.37467 0)
(15.1483 -5.18429 -5.64558e-19)
(15.5095 -4.97801 2.16657e-18)
(15.8499 -4.75629 -5.51163e-19)
(16.1885 -4.51072 5.84004e-19)
(16.5013 -4.25476 0)
(16.8065 -3.9755 6.01513e-19)
(17.0896 -3.68387 -1.81597e-18)
(17.3622 -3.3703 -2.53957e-20)
(17.6139 -3.05053 0)
(17.8459 -2.71583 6.24931e-19)
(18.0654 -2.36652 -1.88218e-20)
(18.2676 -2.00768 0)
(18.4447 -1.64085 3.5278e-19)
(18.6059 -1.27244 -3.20384e-19)
(18.7387 -0.891781 3.36147e-19)
(18.8527 -0.497316 3.33601e-19)
(18.9537 -0.0951364 -1.67615e-19)
(19.0265 0.306197 -6.34599e-20)
(20.5467 0.855435 1.51217e-19)
(20.6089 1.38294 -5.12697e-20)
(20.643 1.9139 0)
(20.649 2.44585 0)
(20.6271 2.97701 8.15025e-19)
(20.5777 3.50626 1.17278e-18)
(20.5007 4.03182 -1.20778e-18)
(20.3965 4.55224 -3.98101e-19)
(20.2651 5.066 3.98039e-19)
(20.1071 5.57202 7.79176e-19)
(19.9227 6.06972 -7.7963e-19)
(19.7121 6.55725 -7.5819e-19)
(19.4768 7.03352 3.7711e-18)
(19.2179 7.49742 7.33585e-19)
(18.936 7.94743 -6.47367e-18)
(18.6316 8.38202 0)
(18.3056 8.80029 0)
(17.9593 9.20127 6.7367e-19)
(17.5933 9.58442 1.99001e-18)
(17.2086 9.94837 -5.11581e-18)
(16.8066 10.2925 -7.50534e-20)
(16.3882 10.6163 1.1727e-18)
(15.9543 10.9185 1.20684e-18)
(15.5062 11.1989 -4.50401e-18)
(15.0453 11.4571 0)
(14.5725 11.6932 2.11629e-18)
(14.0883 11.9066 -1.96126e-18)
(13.5944 12.0957 0)
(13.0925 12.2601 0)
(12.5842 12.3993 -8.99219e-19)
(12.0709 12.5136 -1.64466e-18)
(11.5537 12.6025 2.34471e-18)
(11.0342 12.6662 0)
(10.5135 12.7047 0)
(9.99296 12.718 1.18458e-18)
(9.47381 12.7063 -1.12679e-18)
(8.95739 12.6697 0)
(8.445 12.6087 1.77841e-18)
(7.93765 12.5235 3.71132e-19)
(7.43663 12.4145 -1.02714e-18)
(6.94314 12.2821 3.58133e-20)
(6.4586 12.1271 4.34615e-19)
(5.9838 11.95 -4.3175e-19)
(5.51993 11.7512 7.57428e-20)
(5.06818 11.5318 0)
(4.62928 11.2923 0)
(4.20426 11.0334 -1.63267e-19)
(3.79407 10.7561 -3.58016e-20)
(3.39969 10.4613 2.17174e-19)
(3.02184 10.1501 9.06539e-20)
(2.66113 9.82333 1.42537e-19)
(2.3184 9.48191 -1.44399e-19)
(1.99439 9.12709 -9.6985e-20)
(1.68942 8.76008 9.83104e-20)
(1.4042 8.38178 -5.87871e-19)
(1.13913 7.99364 6.41825e-19)
(0.894636 7.59677 -1.37272e-21)
(0.671023 7.19268 0)
(0.468463 6.78242 1.63675e-19)
(0.287309 6.3671 2.22382e-20)
(0.127641 5.94793 2.35474e-20)
(20.322 0.0976293 -8.16134e-20)
(20.3954 0.614114 0)
(20.4409 1.13229 0)
(20.4592 1.65182 9.37493e-19)
(20.4499 2.1714 -6.26927e-19)
(20.4134 2.6898 -2.20962e-18)
(20.3497 3.20534 0)
(20.2592 3.71687 0)
(20.1419 4.22291 -1.20377e-18)
(19.9979 4.72179 0)
(19.8276 5.21291 -1.76434e-18)
(19.6315 5.69403 1.17073e-18)
(19.4111 6.16329 -5.81229e-19)
(19.1675 6.62031 0)
(18.9008 7.06473 2.29975e-18)
(18.6115 7.49524 1.0773e-18)
(18.3003 7.91065 -1.0795e-18)
(17.9683 8.30977 1.02712e-18)
(17.6163 8.69195 -3.03547e-18)
(17.2453 9.05598 2.04464e-18)
(16.8566 9.40074 -1.98607e-18)
(16.4511 9.72576 -1.01275e-18)
(16.03 10.0298 -9.16035e-19)
(15.5944 10.3122 2.65852e-18)
(15.1455 10.5722 8.52165e-19)
(14.6841 10.8096 7.79997e-19)
(14.2114 11.0246 -7.04619e-19)
(13.7293 11.2162 0)
(13.2388 11.3838 0)
(12.7414 11.5267 0)
(12.2383 11.6449 0)
(11.7308 11.7383 0)
(11.2204 11.8065 0)
(10.7082 11.8498 0)
(10.1958 11.868 -4.93253e-19)
(9.6842 11.8612 4.37718e-19)
(9.1749 11.8295 3.50975e-19)
(8.66908 11.7732 -1.7042e-18)
(8.16786 11.6927 -2.66401e-19)
(7.67258 11.5883 7.95151e-19)
(7.18447 11.4603 4.38445e-19)
(6.7049 11.3092 -3.50472e-19)
(6.23473 11.1358 1.30302e-19)
(5.77532 10.9404 9.6103e-20)
(5.32778 10.7237 -9.35072e-21)
(4.89291 10.4866 9.45617e-21)
(4.4718 10.2296 8.94265e-20)
(4.06541 9.95358 0)
(3.6748 9.65949 7.99054e-20)
(3.30076 9.34831 -1.81518e-19)
(2.94395 9.02093 1.01905e-19)
(2.60528 8.67823 0)
(2.28561 8.32135 -3.04684e-19)
(1.98519 7.95146 0)
(1.70495 7.5695 0)
(1.44513 7.17687 -9.48282e-19)
(1.20636 6.77478 4.57573e-19)
(0.988869 6.36464 1.26612e-19)
(0.793211 5.94744 -1.32411e-19)
(0.6197 5.52447 0)
(0.468572 5.09695 -3.73718e-20)
(20.114 0.480551 6.21748e-20)
(20.1758 0.98122 0)
(20.2108 1.48242 -2.48171e-19)
(20.2182 1.98401 -1.63828e-20)
(20.1986 2.48463 0)
(20.153 2.98358 1.99252e-18)
(20.0812 3.47997 9.72957e-19)
(19.983 3.97362 0)
(19.8586 4.46227 3.22208e-20)
(19.7081 4.94379 9.42581e-19)
(19.5327 5.4164 1.43228e-18)
(19.3334 5.87872 -4.70901e-19)
(19.1108 6.32913 0)
(18.8651 6.76668 0)
(18.5968 7.19095 1.7355e-18)
(18.3069 7.60106 -8.56579e-19)
(17.9962 7.99603 -8.02727e-19)
(17.6657 8.37488 0)
(17.3162 8.73681 2.42591e-18)
(16.9488 9.08087 -2.32805e-18)
(16.5647 9.40611 -1.48718e-18)
(16.1647 9.71185 -1.43937e-18)
(15.7501 9.99715 0)
(15.3219 10.2613 -2.0575e-18)
(14.8813 10.5037 -6.71506e-19)
(14.4294 10.7237 6.13667e-19)
(13.9675 10.9208 6.04165e-19)
(13.4969 11.0948 0)
(13.0188 11.2454 0)
(12.5343 11.3722 0)
(12.0448 11.4751 0)
(11.5514 11.5538 0)
(11.0556 11.6085 0)
(10.5585 11.639 0)
(10.0615 11.6453 -1.05778e-18)
(9.56587 11.6274 3.38723e-19)
(9.07276 11.5856 -2.70282e-19)
(8.58337 11.5201 1.28781e-18)
(8.09882 11.4312 0)
(7.62035 11.3193 3.62266e-19)
(7.14915 11.1848 2.9576e-19)
(6.68646 11.0282 1.2663e-19)
(6.23328 10.8501 -7.6303e-20)
(5.79079 10.651 -9.61537e-20)
(5.36002 10.4315 3.19206e-20)
(4.94186 10.1923 -2.04441e-21)
(4.53721 9.93404 1.01655e-19)
(4.14702 9.65761 0)
(3.77221 9.36394 0)
(3.41364 9.05386 8.05073e-20)
(3.07203 8.72829 9.7446e-20)
(2.74806 8.38818 2.0994e-19)
(2.44251 8.03447 2.4043e-19)
(2.15579 7.6683 0)
(1.88864 7.29055 2.99723e-19)
(1.6413 6.90268 3.30627e-19)
(1.41427 6.50574 0)
(1.20794 6.1012 -1.75268e-21)
(1.02283 5.68996 0)
(0.859169 5.27335 0)
(0.717232 4.85244 2.87624e-20)
(19.9642 0.436012 -1.02853e-19)
(20.0236 0.92018 2.01234e-19)
(20.0571 1.40744 -3.96905e-19)
(20.0643 1.8958 -2.13539e-19)
(20.0452 2.38372 0)
(19.9996 2.86998 -8.27444e-19)
(19.9271 3.3539 -8.21767e-19)
(19.829 3.8339 0)
(19.7063 4.3096 3.41941e-20)
(19.5595 4.77919 -7.94915e-19)
(19.3886 5.24039 1.50114e-18)
(19.1939 5.69214 1.47812e-18)
(18.9759 6.13331 0)
(18.7352 6.56279 -7.20753e-19)
(18.4726 6.97925 -1.43189e-18)
(18.1889 7.3815 -7.06229e-19)
(17.8849 7.76866 2.06933e-18)
(17.5615 8.13985 -1.32977e-18)
(17.2197 8.49432 1.29419e-18)
(16.8604 8.8312 1.87934e-18)
(16.4848 9.14969 2.44064e-18)
(16.0938 9.44899 1.20693e-18)
(15.6886 9.72826 5.55565e-19)
(15.2703 9.9868 1.6801e-18)
(14.8397 10.2241 5.14282e-19)
(14.3981 10.4396 5.15035e-19)
(13.9467 10.6329 4.66841e-19)
(13.4867 10.8037 -1.35964e-18)
(13.0194 10.9514 8.43262e-19)
(12.5459 11.076 7.87306e-19)
(12.0675 11.177 -1.52812e-18)
(11.5853 11.2546 7.40737e-19)
(11.1008 11.3085 -6.44756e-19)
(10.6151 11.3389 3.02685e-19)
(10.1295 11.3457 2.92585e-19)
(9.64532 11.3289 2.37795e-19)
(9.16363 11.2886 -2.39385e-19)
(8.68556 11.2251 -2.25803e-19)
(8.21222 11.1388 -5.16069e-19)
(7.74485 11.03 -2.99715e-19)
(7.2846 10.8992 -4.68303e-19)
(6.8326 10.747 -4.35725e-19)
(6.39002 10.5737 1.25762e-19)
(5.9579 10.3799 7.44082e-21)
(5.53727 10.1663 -2.12967e-21)
(5.12903 9.93331 3.08277e-20)
(4.73392 9.68179 -2.65234e-19)
(4.35294 9.41252 5.75947e-20)
(3.98691 9.12645 0)
(3.63679 8.82435 0)
(3.30315 8.50707 1.49786e-19)
(2.98684 8.17568 9.5516e-22)
(2.68846 7.83102 -1.96352e-19)
(2.40848 7.4741 0)
(2.14751 7.10578 -2.43945e-19)
(1.90577 6.72749 0)
(1.68381 6.34038 0)
(1.48184 5.94572 -2.34862e-19)
(1.30069 5.54464 -8.37166e-20)
(1.1403 5.13828 8.69759e-20)
(1.00127 4.72783 -4.61447e-20)
(19.8138 0.507954 1.86392e-21)
(19.8679 0.979216 -1.73886e-19)
(19.8966 1.45315 5.09744e-19)
(19.8998 1.92819 3.38303e-19)
(19.8776 2.40317 -4.98469e-19)
(19.8298 2.8768 3.34053e-19)
(19.7574 3.3472 -2.37553e-21)
(19.6602 3.81202 -6.47182e-19)
(19.5382 4.27123 9.86168e-19)
(19.3927 4.72394 -1.2849e-18)
(19.2239 5.16918 1.2095e-18)
(19.0323 5.60543 -1.28636e-18)
(18.8181 6.03159 -6.18193e-19)
(18.5822 6.44663 0)
(18.3252 6.84917 6.37032e-19)
(18.0478 7.238 5.43728e-19)
(17.7507 7.61238 0)
(17.4348 7.97131 1.07158e-18)
(17.101 8.3141 0)
(16.7503 8.63999 -1.06076e-18)
(16.3838 8.94811 9.36867e-19)
(16.0026 9.23767 -4.06836e-20)
(15.6078 9.50777 -4.57406e-20)
(15.2002 9.75769 1.86186e-21)
(14.7809 9.987 -1.76576e-18)
(14.3508 10.1952 -8.03278e-19)
(13.9113 10.3819 1.57014e-18)
(13.4634 10.5468 1.45219e-18)
(13.0085 10.6894 -7.24531e-19)
(12.5477 10.8096 0)
(12.0821 10.9069 0)
(11.6129 10.9814 0)
(11.1413 11.0332 5.52977e-19)
(10.6686 11.0622 -1.93676e-18)
(10.1962 11.0682 8.99237e-19)
(9.72515 11.0514 -4.2885e-19)
(9.25654 11.0117 -6.86402e-19)
(8.79144 10.9495 6.44633e-19)
(8.33084 10.8651 2.18625e-20)
(7.87605 10.7591 -2.0342e-19)
(7.42816 10.6317 2.2358e-19)
(6.98827 10.4836 1.45462e-19)
(6.55758 10.3151 0)
(6.13711 10.1269 -4.06226e-20)
(5.72784 9.91943 0)
(5.33073 9.6931 7.71878e-20)
(4.94628 9.44882 -4.06922e-20)
(4.57548 9.18733 0)
(4.21901 8.90961 9.49022e-20)
(3.87816 8.61634 1.97535e-20)
(3.55321 8.30826 -2.48911e-19)
(3.245 7.98649 1.46725e-19)
(2.9543 7.65183 9.65338e-20)
(2.68132 7.30524 -1.77159e-19)
(2.42696 6.94751 8.19558e-21)
(2.1908 6.57993 -1.07524e-19)
(1.97388 6.20374 -5.80249e-20)
(1.77613 5.82023 -1.28961e-19)
(1.59864 5.43048 3.42014e-19)
(1.44106 5.03563 -1.45505e-19)
(1.30447 4.63678 1.92639e-20)
(19.6575 0.560247 3.65298e-20)
(19.7068 1.01672 0)
(19.7315 1.47542 -5.6988e-19)
(19.7316 1.93517 0)
(19.7071 2.39464 2.83752e-19)
(19.6583 2.85246 8.3044e-19)
(19.5853 3.30723 5.44983e-19)
(19.4881 3.75824 1.10564e-18)
(19.3673 4.20375 9.70754e-21)
(19.2237 4.64279 -6.70446e-21)
(19.0576 5.07397 -5.98031e-20)
(18.8694 5.49628 -5.26434e-19)
(18.6594 5.90869 5.08529e-19)
(18.4285 6.31025 -1.49125e-18)
(18.1773 6.69972 1.01225e-18)
(17.9066 7.07585 -4.86762e-20)
(17.6168 7.43782 -9.18419e-19)
(17.3087 7.78477 -9.41322e-19)
(16.9831 8.11616 0)
(16.6413 8.43137 8.43221e-19)
(16.2843 8.72944 -3.78325e-20)
(15.9133 9.00958 -1.66026e-18)
(15.5292 9.27087 -5.92526e-21)
(15.133 9.51241 -6.89098e-19)
(14.7252 9.734 2.09865e-18)
(14.3072 9.93516 -3.47222e-20)
(13.8799 10.1155 -6.70537e-19)
(13.4447 10.275 -7.11123e-20)
(13.0028 10.4129 0)
(12.5552 10.529 0)
(12.1031 10.6229 0)
(11.6472 10.6949 0)
(11.1891 10.7449 0)
(10.73 10.7732 5.46536e-20)
(10.2714 10.7791 -3.48964e-19)
(9.81406 10.7627 3.93712e-20)
(9.35913 10.7243 5.38147e-20)
(8.90757 10.6637 2.23895e-19)
(8.46017 10.5819 4.26577e-19)
(8.01834 10.4791 -5.31063e-19)
(7.58325 10.3556 3.12439e-19)
(7.15577 10.2122 -9.65086e-20)
(6.73732 10.0492 0)
(6.32888 9.86725 3.54994e-20)
(5.93136 9.66683 0)
(5.54592 9.44787 -4.02753e-20)
(5.17233 9.21163 7.76204e-20)
(4.81218 8.95873 -5.42347e-20)
(4.46554 8.69034 -6.83561e-20)
(4.13431 8.40683 1.02728e-19)
(3.81832 8.10886 1.9643e-20)
(3.51844 7.79773 1.55233e-20)
(3.23567 7.47397 -2.83442e-19)
(2.96989 7.13869 3.23198e-19)
(2.72231 6.79228 1.77145e-19)
(2.49184 6.43637 9.26991e-20)
(2.28017 6.07195 3.08304e-19)
(2.0863 5.70053 0)
(1.91243 5.32303 -2.36027e-19)
(1.75747 4.94068 6.26907e-20)
(1.62323 4.55431 0)
(19.4866 0.614916 0)
(19.5306 1.05596 0)
(19.551 1.49916 2.47075e-19)
(19.5477 1.94308 -4.73485e-19)
(19.5208 2.38675 -2.44474e-19)
(19.4705 2.82887 -1.18736e-18)
(19.3971 3.26777 4.5868e-19)
(19.3003 3.70243 -9.48849e-19)
(19.1806 4.13246 1.53719e-20)
(19.039 4.55657 1.34592e-18)
(18.8761 4.97279 -1.79747e-18)
(18.6917 5.38024 0)
(18.4863 5.77786 0)
(18.2606 6.16538 1.70424e-18)
(18.0157 6.54134 8.24044e-19)
(17.7522 6.90378 -1.67315e-18)
(17.4702 7.25257 2.3964e-18)
(17.1703 7.58676 7.62596e-19)
(16.8533 7.90602 -1.49534e-18)
(16.5206 8.21006 -7.50897e-19)
(16.1736 8.49742 6.93018e-19)
(15.8132 8.76772 -7.11347e-20)
(15.4405 9.01986 0)
(15.0564 9.25233 1.29961e-18)
(14.6608 9.46566 -1.83412e-18)
(14.2553 9.65934 5.91001e-19)
(13.841 9.83289 1.06383e-18)
(13.4188 9.98662 -2.58438e-18)
(12.9907 10.1194 5.05888e-19)
(12.5572 10.2315 0)
(12.1195 10.3216 0)
(11.6777 10.3912 0)
(11.2341 10.4393 3.51385e-19)
(10.7891 10.4671 9.94692e-19)
(10.3455 10.4731 -5.86461e-19)
(9.90281 10.4576 2.55996e-19)
(9.46252 10.4205 2.45601e-19)
(9.02567 10.3617 -4.3692e-19)
(8.5922 10.2824 0)
(8.164 10.1831 -2.44518e-19)
(7.74256 10.0637 1.27483e-19)
(7.32795 9.92515 1.45447e-20)
(6.92216 9.768 9.72788e-21)
(6.5264 9.5927 3.01726e-20)
(6.14104 9.40007 -1.05475e-20)
(5.76841 9.18883 1.5304e-19)
(5.4061 8.96136 -6.55273e-20)
(5.05747 8.71751 2.23918e-19)
(4.72075 8.45938 0)
(4.40018 8.18658 0)
(4.0937 7.89942 -4.0404e-19)
(3.80237 7.59984 1.10095e-19)
(3.52849 7.28791 2.52356e-19)
(3.27005 6.96486 1.49417e-19)
(3.0304 6.63045 -4.7046e-19)
(2.80551 6.28687 -2.63464e-19)
(2.59968 5.93481 -9.69606e-20)
(2.40933 5.57646 -2.15659e-21)
(2.23982 5.21214 1.03931e-19)
(2.08706 4.8431 0)
(1.95566 4.47004 0)
(19.2956 0.666842 -2.49045e-20)
(19.3336 1.09135 0)
(19.3492 1.51818 0)
(19.3418 1.94557 2.09825e-19)
(19.3121 2.37248 0)
(19.2606 2.79787 8.09067e-19)
(19.1874 3.22009 3.99371e-19)
(19.091 3.63748 -7.84669e-19)
(18.9719 4.05189 0)
(18.8326 4.46124 -7.97461e-19)
(18.6741 4.86087 4.3933e-20)
(18.4939 5.25262 0)
(18.2938 5.63425 0)
(18.0735 6.00684 -7.45097e-19)
(17.8351 6.36937 6.88234e-19)
(17.5802 6.7169 -7.13351e-19)
(17.3064 7.05175 -6.95848e-19)
(17.0151 7.37281 0)
(16.7075 7.67878 6.58249e-19)
(16.3842 7.97107 -1.20069e-18)
(16.0481 8.24679 -1.16064e-18)
(15.6989 8.50677 -1.19272e-18)
(15.3379 8.74996 -9.72602e-21)
(14.9675 8.97209 -9.85487e-19)
(14.5844 9.17663 1.04575e-18)
(14.1916 9.3627 9.42926e-19)
(13.7914 9.52839 -9.57853e-19)
(13.3825 9.67638 6.03565e-20)
(12.9691 9.80328 1.22845e-21)
(12.5495 9.91211 -8.01692e-19)
(12.128 9.99704 0)
(11.7 10.0649 -6.39931e-19)
(11.2725 10.1102 1.23305e-18)
(10.8416 10.1389 -4.69876e-20)
(10.4151 10.1454 5.28549e-19)
(9.98835 10.1306 -4.30151e-19)
(9.56387 10.0955 3.6601e-19)
(9.14382 10.0381 2.62415e-19)
(8.72505 9.96153 -5.77525e-19)
(8.31105 9.86591 2.43304e-19)
(7.90491 9.75072 1.55446e-19)
(7.50303 9.61718 1.64961e-19)