# Forces     
# CofR       : (0.000000e+00 0.000000e+00 0.000000e+00)
# Time       forces(pressure viscous porous) moment(pressure viscous porous)
7.226128e-05	((1.307237e-01 2.087112e-01 5.995971e-21) (5.690603e-03 -6.627603e-04 5.081944e-23) (0.000000e+00 0.000000e+00 0.000000e+00)) ((-2.087112e-03 1.307237e-03 5.075379e-03) (6.627603e-06 5.690603e-05 -5.255603e-05) (0.000000e+00 0.000000e+00 0.000000e+00))
1.386729e-04	((9.142595e-02 1.796960e-01 3.673738e-21) (5.241384e-03 -6.299957e-04 9.229216e-23) (0.000000e+00 0.000000e+00 0.000000e+00)) ((-1.796960e-03 9.142595e-04 2.204023e-04) (6.299957e-06 5.241384e-05 -6.191383e-05) (0.000000e+00 0.000000e+00 0.000000e+00))
2.095752e-04	((7.949091e-02 1.740596e-01 2.668774e-21) (4.926217e-03 -5.896087e-04 9.429174e-23) (0.000000e+00 0.000000e+00 0.000000e+00)) ((-1.740596e-03 7.949091e-04 -5.667493e-04) (5.896087e-06 4.926217e-05 -6.548042e-05) (0.000000e+00 0.000000e+00 0.000000e+00))
2.825305e-04	((7.292825e-02 1.729135e-01 2.093164e-21) (4.698653e-03 -5.659108e-04 8.780184e-23) (0.000000e+00 0.000000e+00 0.000000e+00)) ((-1.729135e-03 7.292825e-04 -7.736720e-04) (5.659108e-06 4.698653e-05 -6.886665e-05) (0.000000e+00 0.000000e+00 0.000000e+00))
3.553311e-04	((6.880835e-02 1.736241e-01 1.716116e-21) (4.523406e-03 -5.512710e-04 7.993249e-23) (0.000000e+00 0.000000e+00 0.000000e+00)) ((-1.736241e-03 6.880835e-04 -7.411024e-04) (5.512710e-06 4.523406e-05 -7.201921e-05) (0.000000e+00 0.000000e+00 0.000000e+00))
4.271990e-04	((6.638763e-02 1.762596e-01 1.441228e-21) (4.381987e-03 -5.415500e-04 7.340210e-23) (0.000000e+00 0.000000e+00 0.000000e+00)) ((-1.762596e-03 6.638763e-04 -5.144331e-04) (5.415500e-06 4.381987e-05 -7.480568e-05) (0.000000e+00 0.000000e+00 0.000000e+00))
4.981084e-04	((6.502904e-02 1.800716e-01 1.197351e-21) (4.264157e-03 -5.360916e-04 6.852601e-23) (0.000000e+00 0.000000e+00 0.000000e+00)) ((-1.800716e-03 6.502904e-04 -1.630219e-04) (5.360916e-06 4.264157e-05 -7.736171e-05) (0.000000e+00 0.000000e+00 0.000000e+00))
5.681605e-04	((6.428018e-02 1.843262e-01 9.226037e-22) (4.167183e-03 -5.349531e-04 6.455402e-23) (0.000000e+00 0.000000e+00 0.000000e+00)) ((-1.843262e-03 6.428018e-04 2.304856e-04) (5.349531e-06 4.167183e-05 -7.982409e-05) (0.000000e+00 0.000000e+00 0.000000e+00))
6.373899e-04	((6.404487e-02 1.888842e-01 6.229739e-22) (4.088592e-03 -5.381015e-04 6.116079e-23) (0.000000e+00 0.000000e+00 0.000000e+00)) ((-1.888842e-03 6.404487e-04 6.560360e-04) (5.381015e-06 4.088592e-05 -8.230516e-05) (0.000000e+00 0.000000e+00 0.000000e+00))
7.058498e-04	((6.424181e-02 1.938685e-01 2.987543e-22) (4.027212e-03 -5.456674e-04 5.804720e-23) (0.000000e+00 0.000000e+00 0.000000e+00)) ((-1.938685e-03 6.424181e-04 1.130014e-03) (5.456674e-06 4.027212e-05 -8.481628e-05) (0.000000e+00 0.000000e+00 0.000000e+00))
7.735517e-04	((6.500860e-02 1.994092e-01 -2.974039e-23) (3.982986e-03 -5.572793e-04 5.514039e-23) (0.000000e+00 0.000000e+00 0.000000e+00)) ((-1.994092e-03 6.500860e-04 1.675169e-03) (5.572793e-06 3.982986e-05 -8.732490e-05) (0.000000e+00 0.000000e+00 0.000000e+00))
8.406431e-04	((6.612007e-02 2.050704e-01 -3.639064e-22) (3.955701e-03 -5.716982e-04 5.229672e-23) (0.000000e+00 0.000000e+00 0.000000e+00)) ((-2.050704e-03 6.612007e-04 2.237169e-03) (5.716982e-06 3.955701e-05 -8.969968e-05) (0.000000e+00 0.000000e+00 0.000000e+00))
9.073437e-04	((6.745519e-02 2.112280e-01 -7.031185e-22) (3.943823e-03 -5.872297e-04 4.968594e-23) (0.000000e+00 0.000000e+00 0.000000e+00)) ((-2.112280e-03 6.745519e-04 2.849877e-03) (5.872297e-06 3.943823e-05 -9.173594e-05) (0.000000e+00 0.000000e+00 0.000000e+00))
9.739078e-04	((6.908795e-02 2.175414e-01 -1.033588e-21) (3.945282e-03 -6.025964e-04 4.765333e-23) (0.000000e+00 0.000000e+00 0.000000e+00)) ((-2.175414e-03 6.908795e-04 3.483808e-03) (6.025964e-06 3.945282e-05 -9.332670e-05) (0.000000e+00 0.000000e+00 0.000000e+00))
1.040551e-03	((7.081976e-02 2.242632e-01 -1.355391e-21) (3.962247e-03 -6.168500e-04 4.648949e-23) (0.000000e+00 0.000000e+00 0.000000e+00)) ((-2.242632e-03 7.081976e-04 4.153296e-03) (6.168500e-06 3.962247e-05 -9.451702e-05) (0.000000e+00 0.000000e+00 0.000000e+00))
1.107513e-03	((7.262219e-02 2.311471e-01 -1.650283e-21) (3.997700e-03 -6.298659e-04 4.638793e-23) (0.000000e+00 0.000000e+00 0.000000e+00)) ((-2.311471e-03 7.262219e-04 4.851895e-03) (6.298659e-06 3.997700e-05 -9.546906e-05) (0.000000e+00 0.000000e+00 0.000000e+00))
1.175046e-03	((7.435065e-02 2.377468e-01 -1.889546e-21) (4.033477e-03 -6.401924e-04 4.699671e-23) (0.000000e+00 0.000000e+00 0.000000e+00)) ((-2.377468e-03 7.435065e-04 5.522597e-03) (6.401924e-06 4.033477e-05 -9.604992e-05) (0.000000e+00 0.000000e+00 0.000000e+00))
1.243268e-03	((7.581326e-02 2.440345e-01 -2.108369e-21) (4.064862e-03 -6.480057e-04 4.789705e-23) (0.000000e+00 0.000000e+00 0.000000e+00)) ((-2.440345e-03 7.581326e-04 6.164598e-03) (6.480057e-06 4.064862e-05 -9.638957e-05) (0.000000e+00 0.000000e+00 0.000000e+00))
1.312242e-03	((7.719398e-02 2.502797e-01 -2.271422e-21) (4.091326e-03 -6.541071e-04 4.879617e-23) (0.000000e+00 0.000000e+00 0.000000e+00)) ((-2.502797e-03 7.719398e-04 6.799117e-03) (6.541071e-06 4.091326e-05 -9.664983e-05) (0.000000e+00 0.000000e+00 0.000000e+00))
1.382058e-03	((7.832218e-02 2.563711e-01 -2.449730e-21) (4.113453e-03 -6.591817e-04 4.942575e-23) (0.000000e+00 0.000000e+00 0.000000e+00)) ((-2.563711e-03 7.832218e-04 7.414105e-03) (6.591817e-06 4.113453e-05 -9.693214e-05) (0.000000e+00 0.000000e+00 0.000000e+00))
1.452723e-03	((7.923854e-02 2.616381e-01 -2.557200e-21) (4.131333e-03 -6.637774e-04 4.960905e-23) (0.000000e+00 0.000000e+00 0.000000e+00)) ((-2.616381e-03 7.923854e-04 7.952000e-03) (6.637774e-06 4.131333e-05 -9.727933e-05) (0.000000e+00 0.000000e+00 0.000000e+00))
1.524286e-03	((7.967137e-02 2.662151e-01 -2.631717e-21) (4.146494e-03 -6.680022e-04 4.959363e-23) (0.000000e+00 0.000000e+00 0.000000e+00)) ((-2.662151e-03 7.967137e-04 8.407975e-03) (6.680022e-06 4.146494e-05 -9.778417e-05) (0.000000e+00 0.000000e+00 0.000000e+00))
1.596680e-03	((7.996264e-02 2.704964e-01 -2.693358e-21) (4.159692e-03 -6.720591e-04 4.934786e-23) (0.000000e+00 0.000000e+00 0.000000e+00)) ((-2.704964e-03 7.996264e-04 8.829062e-03) (6.720591e-06 4.159692e-05 -9.832828e-05) (0.000000e+00 0.000000e+00 0.000000e+00))
1.669958e-03	((8.020287e-02 2.745832e-01 -2.744286e-21) (4.171435e-03 -6.759925e-04 4.902413e-23) (0.000000e+00 0.000000e+00 0.000000e+00)) ((-2.745832e-03 8.020287e-04 9.228066e-03) (6.759925e-06 4.171435e-05 -9.891145e-05) (0.000000e+00 0.000000e+00 0.000000e+00))
1.744045e-03	((8.038649e-02 2.783872e-01 -2.788953e-21) (4.182141e-03 -6.797664e-04 4.855120e-23) (0.000000e+00 0.000000e+00 0.000000e+00)) ((-2.783872e-03 8.038649e-04 9.597578e-03) (6.797664e-06 4.182141e-05 -9.952202e-05) (0.000000e+00 0.000000e+00 0.000000e+00))
1.818964e-03	((8.046872e-02 2.817813e-01 -2.831905e-21) (4.192122e-03 -6.834360e-04 4.805357e-23) (0.000000e+00 0.000000e+00 0.000000e+00)) ((-2.817813e-03 8.046872e-04 9.926714e-03) (6.834360e-06 4.192122e-05 -1.001564e-04) (0.000000e+00 0.000000e+00 0.000000e+00))
1.894688e-03	((8.071101e-02 2.855438e-01 -2.853476e-21) (4.201998e-03 -6.869727e-04 4.752580e-23) (0.000000e+00 0.000000e+00 0.000000e+00)) ((-2.855438e-03 8.071101e-04 1.028259e-02) (6.869727e-06 4.201998e-05 -1.008123e-04) (0.000000e+00 0.000000e+00 0.000000e+00))
1.971155e-03	((8.090476e-02 2.890090e-01 -2.878012e-21) (4.212193e-03 -6.902697e-04 4.686079e-23) (0.000000e+00 0.000000e+00 0.000000e+00)) ((-2.890090e-03 8.090476e-04 1.061118e-02) (6.902697e-06 4.212193e-05 -1.014775e-04) (0.000000e+00 0.000000e+00 0.000000e+00))
2.048357e-03	((8.100563e-02 2.921987e-01 -2.906321e-21) (4.222745e-03 -6.933501e-04 4.621553e-23) (0.000000e+00 0.000000e+00 0.000000e+00)) ((-2.921987e-03 8.100563e-04 1.091047e-02) (6.933501e-06 4.222745e-05 -1.021477e-04) (0.000000e+00 0.000000e+00 0.000000e+00))
2.126316e-03	((8.118436e-02 2.953666e-01 -2.908209e-21) (4.234250e-03 -6.963359e-04 4.582595e-23) (0.000000e+00 0.000000e+00 0.000000e+00)) ((-2.953666e-03 8.118436e-04 1.120169e-02) (6.963359e-06 4.234250e-05 -1.028369e-04) (0.000000e+00 0.000000e+00 0.000000e+00))
2.204898e-03	((8.128287e-02 2.982350e-01 -2.926003e-21) (4.246540e-03 -6.991240e-04 4.549112e-23) (0.000000e+00 0.000000e+00 0.000000e+00)) ((-2.982350e-03 8.128287e-04 1.146581e-02) (6.991240e-06 4.246540e-05 -1.035375e-04) (0.000000e+00 0.000000e+00 0.000000e+00))
2.284150e-03	((8.137024e-02 3.009825e-01 -2.941674e-21) (4.259418e-03 -7.015805e-04 4.524351e-23) (0.000000e+00 0.000000e+00 0.000000e+00)) ((-3.009825e-03 8.137024e-04 1.171414e-02) (7.015805e-06 4.259418e-05 -1.042295e-04) (0.000000e+00 0.000000e+00 0.000000e+00))
2.364059e-03	((8.144266e-02 3.036485e-01 -2.954882e-21) (4.272772e-03 -7.037203e-04 4.507771e-23) (0.000000e+00 0.000000e+00 0.000000e+00)) ((-3.036485e-03 8.144266e-04 1.195214e-02) (7.037203e-06 4.272772e-05 -1.049114e-04) (0.000000e+00 0.000000e+00 0.000000e+00))
2.444540e-03	((8.159660e-02 3.064958e-01 -2.962195e-21) (4.286481e-03 -7.055524e-04 4.492986e-23) (0.000000e+00 0.000000e+00 0.000000e+00)) ((-3.064958e-03 8.159660e-04 1.220255e-02) (7.055524e-06 4.286481e-05 -1.055804e-04) (0.000000e+00 0.000000e+00 0.000000e+00))
2.525609e-03	((8.159999e-02 3.088498e-01 -2.972851e-21) (4.300328e-03 -7.070673e-04 4.482978e-23) (0.000000e+00 0.000000e+00 0.000000e+00)) ((-3.088498e-03 8.159999e-04 1.240602e-02) (7.070673e-06 4.300328e-05 -1.062278e-04) (0.000000e+00 0.000000e+00 0.000000e+00))
2.607280e-03	((8.159787e-02 3.111424e-01 -2.984617e-21) (4.314055e-03 -7.083378e-04 4.482569e-23) (0.000000e+00 0.000000e+00 0.000000e+00)) ((-3.111424e-03 8.159787e-04 1.260062e-02) (7.083378e-06 4.314055e-05 -1.068540e-04) (0.000000e+00 0.000000e+00 0.000000e+00))
2.689496e-03	((8.156213e-02 3.132445e-01 -2.997239e-21) (4.327292e-03 -7.093861e-04 4.482729e-23) (0.000000e+00 0.000000e+00 0.000000e+00)) ((-3.132445e-03 8.156213e-04 1.277660e-02) (7.093861e-06 4.327292e-05 -1.074527e-04) (0.000000e+00 0.000000e+00 0.000000e+00))
2.772232e-03	((8.155489e-02 3.155254e-01 -3.011075e-21) (4.339673e-03 -7.102700e-04 4.478788e-23) (0.000000e+00 0.000000e+00 0.000000e+00)) ((-3.155254e-03 8.155489e-04 1.296326e-02) (7.102700e-06 4.339673e-05 -1.080206e-04) (0.000000e+00 0.000000e+00 0.000000e+00))
2.855541e-03	((8.155055e-02 3.176359e-01 -3.015622e-21) (4.350950e-03 -7.110325e-04 4.484583e-23) (0.000000e+00 0.000000e+00 0.000000e+00)) ((-3.176359e-03 8.155055e-04 1.313205e-02) (7.110325e-06 4.350950e-05 -1.085538e-04) (0.000000e+00 0.000000e+00 0.000000e+00))
2.939358e-03	((8.147180e-02 3.195712e-01 -3.032998e-21) (4.360809e-03 -7.116278e-04 4.488917e-23) (0.000000e+00 0.000000e+00 0.000000e+00)) ((-3.195712e-03 8.147180e-04 1.328329e-02) (7.116278e-06 4.360809e-05 -1.090402e-04) (0.000000e+00 0.000000e+00 0.000000e+00))
3.023655e-03	((8.138625e-02 3.214409e-01 -3.049912e-21) (4.369474e-03 -7.120538e-04 4.494917e-23) (0.000000e+00 0.000000e+00 0.000000e+00)) ((-3.214409e-03 8.138625e-04 1.342677e-02) (7.120538e-06 4.369474e-05 -1.094820e-04) (0.000000e+00 0.000000e+00 0.000000e+00))
3.108362e-03	((8.122432e-02 3.229761e-01 -3.070056e-21) (4.376621e-03 -7.123473e-04 4.503645e-23) (0.000000e+00 0.000000e+00 0.000000e+00)) ((-3.229761e-03 8.122432e-04 1.354122e-02) (7.123473e-06 4.376621e-05 -1.098755e-04) (0.000000e+00 0.000000e+00 0.000000e+00))
3.193571e-03	((8.124387e-02 3.252119e-01 -3.084345e-21) (4.382018e-03 -7.124993e-04 4.509584e-23) (0.000000e+00 0.000000e+00 0.000000e+00)) ((-3.252119e-03 8.124387e-04 1.370816e-02) (7.124993e-06 4.382018e-05 -1.102164e-04) (0.000000e+00 0.000000e+00 0.000000e+00))
3.279209e-03	((8.107411e-02 3.266645e-01 -3.102837e-21) (4.385639e-03 -7.125203e-04 4.513895e-23) (0.000000e+00 0.000000e+00 0.000000e+00)) ((-3.266645e-03 8.107411e-04 1.380907e-02) (7.125203e-06 4.385639e-05 -1.105050e-04) (0.000000e+00 0.000000e+00 0.000000e+00))
3.365285e-03	((8.100468e-02 3.284796e-01 -3.130712e-21) (4.387537e-03 -7.124028e-04 4.514687e-23) (0.000000e+00 0.000000e+00 0.000000e+00)) ((-3.284796e-03 8.100468e-04 1.393856e-02) (7.124028e-06 4.387537e-05 -1.107419e-04) (0.000000e+00 0.000000e+00 0.000000e+00))
3.451766e-03	((8.086621e-02 3.300589e-01 -3.158836e-21) (4.387666e-03 -7.121590e-04 4.513109e-23) (0.000000e+00 0.000000e+00 0.000000e+00)) ((-3.300589e-03 8.086621e-04 1.404524e-02) (7.121590e-06 4.387666e-05 -1.109275e-04) (0.000000e+00 0.000000e+00 0.000000e+00))
3.538706e-03	((8.073673e-02 3.315677e-01 -3.183874e-21) (4.386081e-03 -7.117845e-04 4.509485e-23) (0.000000e+00 0.000000e+00 0.000000e+00)) ((-3.315677e-03 8.073673e-04 1.414385e-02) (7.117845e-06 4.386081e-05 -1.110637e-04) (0.000000e+00 0.000000e+00 0.000000e+00))
3.626022e-03	((8.049469e-02 3.326306e-01 -3.218369e-21) (4.382968e-03 -7.112789e-04 4.503366e-23) (0.000000e+00 0.000000e+00 0.000000e+00)) ((-3.326306e-03 8.049469e-04 1.420397e-02) (7.112789e-06 4.382968e-05 -1.111529e-04) (0.000000e+00 0.000000e+00 0.000000e+00))
3.713722e-03	((8.025351e-02 3.337619e-01 -3.259448e-21) (4.378467e-03 -7.106471e-04 4.487983e-23) (0.000000e+00 0.000000e+00 0.000000e+00)) ((-3.337619e-03 8.025351e-04 1.426729e-02) (7.106471e-06 4.378467e-05 -1.112001e-04) (0.000000e+00 0.000000e+00 0.000000e+00))
3.801766e-03	((8.015057e-02 3.351555e-01 -3.278748e-21) (4.372684e-03 -7.099175e-04 4.482625e-23) (0.000000e+00 0.000000e+00 0.000000e+00)) ((-3.351555e-03 8.015057e-04 1.435303e-02) (7.099175e-06 4.372684e-05 -1.112096e-04) (0.000000e+00 0.000000e+00 0.000000e+00))
3.890162e-03	((7.999560e-02 3.364192e-01 -3.308579e-21) (4.365492e-03 -7.090469e-04 4.466878e-23) (0.000000e+00 0.000000e+00 0.000000e+00)) ((-3.364192e-03 7.999560e-04 1.442435e-02) (7.090469e-06 4.365492e-05 -1.111760e-04) (0.000000e+00 0.000000e+00 0.000000e+00))
3.978917e-03	((7.980964e-02 3.375090e-01 -3.341416e-21) (4.356965e-03 -7.080818e-04 4.450603e-23) (0.000000e+00 0.000000e+00 0.000000e+00)) ((-3.375090e-03 7.980964e-04 1.448071e-02) (7.080818e-06 4.356965e-05 -1.111061e-04) (0.000000e+00 0.000000e+00 0.000000e+00))
4.068040e-03	((7.956937e-02 3.384078e-01 -3.376725e-21) (4.347198e-03 -7.069915e-04 4.441928e-23) (0.000000e+00 0.000000e+00 0.000000e+00)) ((-3.384078e-03 7.956937e-04 1.451929e-02) (7.069915e-06 4.347198e-05 -1.109978e-04) (0.000000e+00 0.000000e+00 0.000000e+00))
4.157485e-03	((7.944166e-02 3.396418e-01 -3.408101e-21) (4.336281e-03 -7.057858e-04 4.424935e-23) (0.000000e+00 0.000000e+00 0.000000e+00)) ((-3.396418e-03 7.944166e-04 1.458542e-02) (7.057858e-06 4.336281e-05 -1.108540e-04) (0.000000e+00 0.000000e+00 0.000000e+00))
4.247261e-03	((7.929212e-02 3.407647e-01 -3.439815e-21) (4.324265e-03 -7.044371e-04 4.407506e-23) (0.000000e+00 0.000000e+00 0.000000e+00)) ((-3.407647e-03 7.929212e-04 1.464125e-02) (7.044371e-06 4.324265e-05 -1.106724e-04) (0.000000e+00 0.000000e+00 0.000000e+00))
4.337318e-03	((7.910110e-02 3.416977e-01 -3.469762e-21) (4.311287e-03 -7.029731e-04 4.392263e-23) (0.000000e+00 0.000000e+00 0.000000e+00)) ((-3.416977e-03 7.910110e-04 1.467853e-02) (7.029731e-06 4.311287e-05 -1.104594e-04) (0.000000e+00 0.000000e+00 0.000000e+00))
4.427719e-03	((7.889848e-02 3.425598e-01 -3.503311e-21) (4.297536e-03 -7.014128e-04 4.379228e-23) (0.000000e+00 0.000000e+00 0.000000e+00)) ((-3.425598e-03 7.889848e-04 1.471008e-02) (7.014128e-06 4.297536e-05 -1.102206e-04) (0.000000e+00 0.000000e+00 0.000000e+00))
4.518415e-03	((7.870027e-02 3.433894e-01 -3.535725e-21) (4.283049e-03 -6.997441e-04 4.366369e-23) (0.000000e+00 0.000000e+00 0.000000e+00)) ((-3.433894e-03 7.870027e-04 1.473864e-02) (6.997441e-06 4.283049e-05 -1.099554e-04) (0.000000e+00 0.000000e+00 0.000000e+00))
4.609411e-03	((7.849968e-02 3.441952e-01 -3.568848e-21) (4.267839e-03 -6.979734e-04 4.353897e-23) (0.000000e+00 0.000000e+00 0.000000e+00)) ((-3.441952e-03 7.849968e-04 1.476385e-02) (6.979734e-06 4.267839e-05 -1.096648e-04) (0.000000e+00 0.000000e+00 0.000000e+00))
4.700655e-03	((7.830151e-02 3.449743e-01 -3.601440e-21) (4.251954e-03 -6.961065e-04 4.342076e-23) (0.000000e+00 0.000000e+00 0.000000e+00)) ((-3.449743e-03 7.830151e-04 1.478595e-02) (6.961065e-06 4.251954e-05 -1.093505e-04) (0.000000e+00 0.000000e+00 0.000000e+00))
4.792151e-03	((7.810205e-02 3.457057e-01 -3.633184e-21) (4.235600e-03 -6.941887e-04 4.329566e-23) (0.000000e+00 0.000000e+00 0.000000e+00)) ((-3.457057e-03 7.810205e-04 1.480401e-02) (6.941887e-06 4.235600e-05 -1.090206e-04) (0.000000e+00 0.000000e+00 0.000000e+00))
4.883904e-03	((7.789905e-02 3.463722e-01 -3.664231e-21) (4.218724e-03 -6.921966e-04 4.318314e-23) (0.000000e+00 0.000000e+00 0.000000e+00)) ((-3.463722e-03 7.789905e-04 1.481802e-02) (6.921966e-06 4.218724e-05 -1.086724e-04) (0.000000e+00 0.000000e+00 0.000000e+00))
4.975920e-03	((7.770414e-02 3.470541e-01 -3.695478e-21) (4.201382e-03 -6.901217e-04 4.298346e-23) (0.000000e+00 0.000000e+00 0.000000e+00)) ((-3.470541e-03 7.770414e-04 1.483176e-02) (6.901217e-06 4.201382e-05 -1.083061e-04) (0.000000e+00 0.000000e+00 0.000000e+00))
5.068275e-03	((7.751653e-02 3.477399e-01 -3.725765e-21) (4.183629e-03 -6.879639e-04 4.288651e-23) (0.000000e+00 0.000000e+00 0.000000e+00)) ((-3.477399e-03 7.751653e-04 1.484427e-02) (6.879639e-06 4.183629e-05 -1.079232e-04) (0.000000e+00 0.000000e+00 0.000000e+00))
5.160839e-03	((7.737464e-02 3.485457e-01 -3.750335e-21) (4.165553e-03 -6.857317e-04 4.280495e-23) (0.000000e+00 0.000000e+00 0.000000e+00)) ((-3.485457e-03 7.737464e-04 1.486520e-02) (6.857317e-06 4.165553e-05 -1.075260e-04) (0.000000e+00 0.000000e+00 0.000000e+00))
5.253543e-03	((7.708468e-02 3.488333e-01 -3.792937e-21) (4.147213e-03 -6.834349e-04 4.261484e-23) (0.000000e+00 0.000000e+00 0.000000e+00)) ((-3.488333e-03 7.708468e-04 1.484702e-02) (6.834349e-06 4.147213e-05 -1.071170e-04) (0.000000e+00 0.000000e+00 0.000000e+00))
5.346611e-03	((7.690745e-02 3.494729e-01 -3.822802e-21) (4.128640e-03 -6.810693e-04 4.254323e-23) (0.000000e+00 0.000000e+00 0.000000e+00)) ((-3.494729e-03 7.690745e-04 1.485442e-02) (6.810693e-06 4.128640e-05 -1.066970e-04) (0.000000e+00 0.000000e+00 0.000000e+00))
5.439830e-03	((7.672746e-02 3.500588e-01 -3.851076e-21) (4.109960e-03 -6.786434e-04 4.248904e-23) (0.000000e+00 0.000000e+00 0.000000e+00)) ((-3.500588e-03 7.672746e-04 1.485827e-02) (6.786434e-06 4.109960e-05 -1.062688e-04) (0.000000e+00 0.000000e+00 0.000000e+00))
5.533276e-03	((7.654845e-02 3.506296e-01 -3.880951e-21) (4.091428e-03 -6.761639e-04 4.232402e-23) (0.000000e+00 0.000000e+00 0.000000e+00)) ((-3.506296e-03 7.654845e-04 1.486006e-02) (6.761639e-06 4.091428e-05 -1.058370e-04) (0.000000e+00 0.000000e+00 0.000000e+00))
5.626960e-03	((7.636792e-02 3.511709e-01 -3.910613e-21) (4.072880e-03 -6.736246e-04 4.227818e-23) (0.000000e+00 0.000000e+00 0.000000e+00)) ((-3.511709e-03 7.636792e-04 1.485925e-02) (6.736246e-06 4.072880e-05 -1.054000e-04) (0.000000e+00 0.000000e+00 0.000000e+00))
5.720802e-03	((7.616176e-02 3.515709e-01 -3.941748e-21) (4.054355e-03 -6.710286e-04 4.213189e-23) (0.000000e+00 0.000000e+00 0.000000e+00)) ((-3.515709e-03 7.616176e-04 1.484781e-02) (6.710286e-06 4.054355e-05 -1.049593e-04) (0.000000e+00 0.000000e+00 0.000000e+00))
5.814976e-03	((7.603505e-02 3.522584e-01 -3.967849e-21) (4.035911e-03 -6.683661e-04 4.211043e-23) (0.000000e+00 0.000000e+00 0.000000e+00)) ((-3.522584e-03 7.603505e-04 1.485771e-02) (6.683661e-06 4.035911e-05 -1.045160e-04) (0.000000e+00 0.000000e+00 0.000000e+00))
5.909233e-03	((7.586691e-02 3.527547e-01 -3.996818e-21) (4.017673e-03 -6.656752e-04 4.197990e-23) (0.000000e+00 0.000000e+00 0.000000e+00)) ((-3.527547e-03 7.586691e-04 1.485306e-02) (6.656752e-06 4.017673e-05 -1.040760e-04) (0.000000e+00 0.000000e+00 0.000000e+00))
6.003755e-03	((7.570267e-02 3.532425e-01 -4.025658e-21) (3.999716e-03 -6.629637e-04 4.198483e-23) (0.000000e+00 0.000000e+00 0.000000e+00)) ((-3.532425e-03 7.570267e-04 1.484751e-02) (6.629637e-06 3.999716e-05 -1.036429e-04) (0.000000e+00 0.000000e+00 0.000000e+00))
6.098453e-03	((7.554450e-02 3.537251e-01 -4.054262e-21) (3.982089e-03 -6.601842e-04 4.190155e-23) (0.000000e+00 0.000000e+00 0.000000e+00)) ((-3.537251e-03 7.554450e-04 1.484156e-02) (6.601842e-06 3.982089e-05 -1.032131e-04) (0.000000e+00 0.000000e+00 0.000000e+00))
6.193245e-03	((7.539151e-02 3.542050e-01 -4.082720e-21) (3.964767e-03 -6.573264e-04 4.195694e-23) (0.000000e+00 0.000000e+00 0.000000e+00)) ((-3.542050e-03 7.539151e-04 1.483516e-02) (6.573264e-06 3.964767e-05 -1.027871e-04) (0.000000e+00 0.000000e+00 0.000000e+00))
6.288414e-03	((7.524739e-02 3.547019e-01 -4.111811e-21) (3.947771e-03 -6.543756e-04 4.189680e-23) (0.000000e+00 0.000000e+00 0.000000e+00)) ((-3.547019e-03 7.524739e-04 1.482975e-02) (6.543756e-06 3.947771e-05 -1.023655e-04) (0.000000e+00 0.000000e+00 0.000000e+00))
6.383582e-03	((7.508822e-02 3.550695e-01 -4.136855e-21) (3.931276e-03 -6.513423e-04 4.185314e-23) (0.000000e+00 0.000000e+00 0.000000e+00)) ((-3.550695e-03 7.508822e-04 1.481636e-02) (6.513423e-06 3.931276e-05 -1.019520e-04) (0.000000e+00 0.000000e+00 0.000000e+00))
6.479057e-03	((7.494740e-02 3.555205e-01 -4.164667e-21) (3.915182e-03 -6.482110e-04 4.195566e-23) (0.000000e+00 0.000000e+00 0.000000e+00)) ((-3.555205e-03 7.494740e-04 1.480779e-02) (6.482110e-06 3.915182e-05 -1.015453e-04) (0.000000e+00 0.000000e+00 0.000000e+00))
6.574735e-03	((7.481058e-02 3.559628e-01 -4.191936e-21) (3.899556e-03 -6.449762e-04 4.193426e-23) (0.000000e+00 0.000000e+00 0.000000e+00)) ((-3.559628e-03 7.481058e-04 1.479848e-02) (6.449762e-06 3.899556e-05 -1.011467e-04) (0.000000e+00 0.000000e+00 0.000000e+00))
6.670412e-03	((7.467143e-02 3.563682e-01 -4.219063e-21) (3.884424e-03 -6.416460e-04 4.192378e-23) (0.000000e+00 0.000000e+00 0.000000e+00)) ((-3.563682e-03 7.467143e-04 1.478686e-02) (6.416460e-06 3.884424e-05 -1.007575e-04) (0.000000e+00 0.000000e+00 0.000000e+00))
6.766315e-03	((7.451795e-02 3.567226e-01 -4.248651e-21) (3.869783e-03 -6.382108e-04 4.207718e-23) (0.000000e+00 0.000000e+00 0.000000e+00)) ((-3.567226e-03 7.451795e-04 1.477061e-02) (6.382108e-06 3.869783e-05 -1.003779e-04) (0.000000e+00 0.000000e+00 0.000000e+00))
6.862556e-03	((7.449785e-02 3.575407e-01 -4.269000e-21) (3.855666e-03 -6.346605e-04 4.209506e-23) (0.000000e+00 0.000000e+00 0.000000e+00)) ((-3.575407e-03 7.449785e-04 1.478967e-02) (6.346605e-06 3.855666e-05 -1.000077e-04) (0.000000e+00 0.000000e+00 0.000000e+00))
6.958796e-03	((7.435223e-02 3.578855e-01 -4.295629e-21) (3.842148e-03 -6.310484e-04 4.211889e-23) (0.000000e+00 0.000000e+00 0.000000e+00)) ((-3.578855e-03 7.435223e-04 1.477286e-02) (6.310484e-06 3.842148e-05 -9.965281e-05) (0.000000e+00 0.000000e+00 0.000000e+00))
7.055037e-03	((7.424341e-02 3.583383e-01 -4.319733e-21) (3.829228e-03 -6.273939e-04 4.214672e-23) (0.000000e+00 0.000000e+00 0.000000e+00)) ((-3.583383e-03 7.424341e-04 1.476489e-02) (6.273939e-06 3.829228e-05 -9.931464e-05) (0.000000e+00 0.000000e+00 0.000000e+00))
7.151663e-03	((7.415861e-02 3.588710e-01 -4.340732e-21) (3.816860e-03 -6.236408e-04 4.235970e-23) (0.000000e+00 0.000000e+00 0.000000e+00)) ((-3.588710e-03 7.415861e-04 1.476251e-02) (6.236408e-06 3.816860e-05 -9.898678e-05) (0.000000e+00 0.000000e+00 0.000000e+00))
7.248545e-03	((7.398507e-02 3.590774e-01 -4.373523e-21) (3.804989e-03 -6.198000e-04 4.239556e-23) (0.000000e+00 0.000000e+00 0.000000e+00)) ((-3.590774e-03 7.398507e-04 1.473656e-02) (6.198000e-06 3.804989e-05 -9.866839e-05) (0.000000e+00 0.000000e+00 0.000000e+00))
7.345427e-03	((7.388014e-02 3.594991e-01 -4.393052e-21) (3.793630e-03 -6.158904e-04 4.244269e-23) (0.000000e+00 0.000000e+00 0.000000e+00)) ((-3.594991e-03 7.388014e-04 1.472746e-02) (6.158904e-06 3.793630e-05 -9.836007e-05) (0.000000e+00 0.000000e+00 0.000000e+00))
7.442309e-03	((7.377626e-02 3.599390e-01 -4.415788e-21) (3.782795e-03 -6.119186e-04 4.245410e-23) (0.000000e+00 0.000000e+00 0.000000e+00)) ((-3.599390e-03 7.377626e-04 1.471897e-02) (6.119186e-06 3.782795e-05 -9.806151e-05) (0.000000e+00 0.000000e+00 0.000000e+00))
7.539192e-03	((7.367194e-02 3.603702e-01 -4.437625e-21) (3.772386e-03 -6.079021e-04 4.245889e-23) (0.000000e+00 0.000000e+00 0.000000e+00)) ((-3.603702e-03 7.367194e-04 1.471009e-02) (6.079021e-06 3.772386e-05 -9.777098e-05) (0.000000e+00 0.000000e+00 0.000000e+00))
7.636694e-03	((7.356502e-02 3.607944e-01 -4.459086e-21) (3.762285e-03 -6.038293e-04 4.267525e-23) (0.000000e+00 0.000000e+00 0.000000e+00)) ((-3.607944e-03 7.356502e-04 1.470060e-02) (6.038293e-06 3.762285e-05 -9.748580e-05) (0.000000e+00 0.000000e+00 0.000000e+00))
7.734351e-03	((7.345737e-02 3.612078e-01 -4.479875e-21) (3.752490e-03 -5.997356e-04 4.267717e-23) (0.000000e+00 0.000000e+00 0.000000e+00)) ((-3.612078e-03 7.345737e-04 1.469060e-02) (5.997356e-06 3.752490e-05 -9.720594e-05) (0.000000e+00 0.000000e+00 0.000000e+00))
7.832008e-03	((7.335970e-02 3.616656e-01 -4.500670e-21) (3.743052e-03 -5.956418e-04 4.266017e-23) (0.000000e+00 0.000000e+00 0.000000e+00)) ((-3.616656e-03 7.335970e-04 1.468386e-02) (5.956418e-06 3.743052e-05 -9.693237e-05) (0.000000e+00 0.000000e+00 0.000000e+00))
7.929666e-03	((7.325319e-02 3.620825e-01 -4.520566e-21) (3.733859e-03 -5.915604e-04 4.264194e-23) (0.000000e+00 0.000000e+00 0.000000e+00)) ((-3.620825e-03 7.325319e-04 1.467445e-02) (5.915604e-06 3.733859e-05 -9.666312e-05) (0.000000e+00 0.000000e+00 0.000000e+00))
8.027323e-03	((7.314227e-02 3.624834e-01 -4.540249e-21) (3.724824e-03 -5.875001e-04 4.261520e-23) (0.000000e+00 0.000000e+00 0.000000e+00)) ((-3.624834e-03 7.314227e-04 1.466389e-02) (5.875001e-06 3.724824e-05 -9.639677e-05) (0.000000e+00 0.000000e+00 0.000000e+00))
8.124980e-03	((7.303793e-02 3.629157e-01 -4.559977e-21) (3.715923e-03 -5.834722e-04 4.257366e-23) (0.000000e+00 0.000000e+00 0.000000e+00)) ((-3.629157e-03 7.303793e-04 1.465566e-02) (5.834722e-06 3.715923e-05 -9.613284e-05) (0.000000e+00 0.000000e+00 0.000000e+00))
8.222638e-03	((7.292699e-02 3.633140e-01 -4.578607e-21) (3.707165e-03 -5.794900e-04 4.251612e-23) (0.000000e+00 0.000000e+00 0.000000e+00)) ((-3.633140e-03 7.292699e-04 1.464539e-02) (5.794900e-06 3.707165e-05 -9.587158e-05) (0.000000e+00 0.000000e+00 0.000000e+00))
8.320744e-03	((7.281640e-02 3.637251e-01 -4.597544e-21) (3.698447e-03 -5.755360e-04 4.274968e-23) (0.000000e+00 0.000000e+00 0.000000e+00)) ((-3.637251e-03 7.281640e-04 1.463572e-02) (5.755360e-06 3.698447e-05 -9.561096e-05) (0.000000e+00 0.000000e+00 0.000000e+00))
8.419524e-03	((7.270105e-02 3.641032e-01 -4.615563e-21) (3.689676e-03 -5.716089e-04 4.266960e-23) (0.000000e+00 0.000000e+00 0.000000e+00)) ((-3.641032e-03 7.270105e-04 1.462409e-02) (5.716089e-06 3.689676e-05 -9.534899e-05) (0.000000e+00 0.000000e+00 0.000000e+00))
8.518303e-03	((7.260426e-02 3.645791e-01 -4.635902e-21) (3.680880e-03 -5.677368e-04 4.257425e-23) (0.000000e+00 0.000000e+00 0.000000e+00)) ((-3.645791e-03 7.260426e-04 1.461882e-02) (5.677368e-06 3.680880e-05 -9.508692e-05) (0.000000e+00 0.000000e+00 0.000000e+00))
8.617083e-03	((7.249452e-02 3.649886e-01 -4.654364e-21) (3.672046e-03 -5.639224e-04 4.246982e-23) (0.000000e+00 0.000000e+00 0.000000e+00)) ((-3.649886e-03 7.249452e-04 1.460937e-02) (5.639224e-06 3.672046e-05 -9.482474e-05) (0.000000e+00 0.000000e+00 0.000000e+00))
8.715863e-03	((7.238423e-02 3.653957e-01 -4.673086e-21) (3.663200e-03 -5.601710e-04 4.234435e-23) (0.000000e+00 0.000000e+00 0.000000e+00)) ((-3.653957e-03 7.238423e-04 1.459955e-02) (5.601710e-06 3.663200e-05 -9.456320e-05) (0.000000e+00 0.000000e+00 0.000000e+00))
8.814643e-03	((7.227620e-02 3.658167e-01 -4.692987e-21) (3.654342e-03 -5.564835e-04 4.220842e-23) (0.000000e+00 0.000000e+00 0.000000e+00)) ((-3.658167e-03 7.227620e-04 1.459062e-02) (5.564835e-06 3.654342e-05 -9.430234e-05) (0.000000e+00 0.000000e+00 0.000000e+00))
8.913422e-03	((7.216980e-02 3.662121e-01 -4.708277e-21) (3.645464e-03 -5.528583e-04 4.205478e-23) (0.000000e+00 0.000000e+00 0.000000e+00)) ((-3.662121e-03 7.216980e-04 1.458138e-02) (5.528583e-06 3.645464e-05 -9.404203e-05) (0.000000e+00 0.000000e+00 0.000000e+00))
9.012202e-03	((7.205448e-02 3.665940e-01 -4.728810e-21) (3.636554e-03 -5.492911e-04 4.189374e-23) (0.000000e+00 0.000000e+00 0.000000e+00)) ((-3.665940e-03 7.205448e-04 1.457048e-02) (5.492911e-06 3.636554e-05 -9.378225e-05) (0.000000e+00 0.000000e+00 0.000000e+00))
9.110982e-03	((7.194630e-02 3.669952e-01 -4.748858e-21) (3.627606e-03 -5.457862e-04 4.173392e-23) (0.000000e+00 0.000000e+00 0.000000e+00)) ((-3.669952e-03 7.194630e-04 1.456099e-02) (5.457862e-06 3.627606e-05 -9.352304e-05) (0.000000e+00 0.000000e+00 0.000000e+00))
9.209762e-03	((7.184076e-02 3.674011e-01 -4.767704e-21) (3.618604e-03 -5.423452e-04 4.157110e-23) (0.000000e+00 0.000000e+00 0.000000e+00)) ((-3.674011e-03 7.184076e-04 1.455195e-02) (5.423452e-06 3.618604e-05 -9.326431e-05) (0.000000e+00 0.000000e+00 0.000000e+00))
9.308542e-03	((7.173563e-02 3.678015e-01 -4.786338e-21) (3.609558e-03 -5.389662e-04 4.140438e-23) (0.000000e+00 0.000000e+00 0.000000e+00)) ((-3.678015e-03 7.173563e-04 1.454271e-02) (5.389662e-06 3.609558e-05 -9.300630e-05) (0.000000e+00 0.000000e+00 0.000000e+00))
9.407321e-03	((7.163208e-02 3.682057e-01 -4.805463e-21) (3.600515e-03 -5.356646e-04 4.123162e-23) (0.000000e+00 0.000000e+00 0.000000e+00)) ((-3.682057e-03 7.163208e-04 1.453375e-02) (5.356646e-06 3.600515e-05 -9.275148e-05) (0.000000e+00 0.000000e+00 0.000000e+00))
9.506101e-03	((7.152891e-02 3.686051e-01 -4.824670e-21) (3.591462e-03 -5.324132e-04 4.105395e-23) (0.000000e+00 0.000000e+00 0.000000e+00)) ((-3.686051e-03 7.152891e-04 1.452462e-02) (5.324132e-06 3.591462e-05 -9.249781e-05) (0.000000e+00 0.000000e+00 0.000000e+00))
9.604881e-03	((7.142872e-02 3.690122e-01 -4.843848e-21) (3.582400e-03 -5.292062e-04 4.087573e-23) (0.000000e+00 0.000000e+00 0.000000e+00)) ((-3.690122e-03 7.142872e-04 1.451613e-02) (5.292062e-06 3.582400e-05 -9.224509e-05) (0.000000e+00 0.000000e+00 0.000000e+00))