/*--------------------------------*- C++ -*----------------------------------*\
| =========                 |                                                 |
| \\      /  F ield         | OpenFOAM: The Open Source CFD Toolbox           |
|  \\    /   O peration     | Version:  2.3.1                                 |
|   \\  /    A nd           | Web:      www.OpenFOAM.org                      |
|    \\/     M anipulation  |                                                 |
\*---------------------------------------------------------------------------*/
FoamFile
{
    version     2.0;
    format      ascii;
    class       surfaceVectorField;
    location    "0.2";
    object      Uf;
}
// * * * * * * * * * * * * * * * * * * * * * * * * * * * * * * * * * * * * * //

dimensions      [0 1 -1 0 0 0 0];

internalField   nonuniform List<vector> 
1460
(
(0.0245708 0.116755 -6.03327e-20)
(0.022477 0.141898 3.07187e-19)
(0.0271416 0.105961 -3.77458e-19)
(0.0394807 0.133585 -5.03263e-19)
(0.0404051 0.100507 -2.1365e-21)
(0.0670507 0.129081 -6.76214e-20)
(0.0622528 0.0992631 0)
(0.0985621 0.131301 1.09833e-19)
(0.092596 0.100613 -1.51914e-19)
(0.1342 0.136531 0)
(0.130644 0.102622 -5.29015e-19)
(0.172197 0.142447 -2.76075e-20)
(0.173251 0.104357 -4.51699e-19)
(0.210026 0.147671 -2.85987e-19)
(0.215887 0.105413 6.95005e-20)
(0.244446 0.151821 -5.25814e-19)
(0.254608 0.105356 1.44744e-19)
(0.273321 0.154412 6.32016e-19)
(0.286859 0.103696 1.36367e-19)
(0.295916 0.154772 -2.58846e-19)
(0.31142 0.100073 -1.0988e-19)
(0.312379 0.152266 9.77946e-20)
(0.323163 0.14656 -7.52144e-20)
(0.32809 0.0942666 1.04327e-19)
(0.039686 0.151316 -1.23254e-19)
(0.0417336 0.160079 -2.05072e-19)
(0.0815178 0.153601 -1.88119e-19)
(0.0867249 0.166784 1.81633e-19)
(0.129455 0.158821 4.70489e-20)
(0.138082 0.172939 -6.595e-20)
(0.177921 0.166515 1.11914e-19)
(0.187865 0.179718 1.16189e-20)
(0.224209 0.174208 1.08334e-19)
(0.233177 0.184777 -1.62553e-19)
(0.264468 0.180522 2.08319e-19)
(0.270858 0.186831 1.10233e-19)
(0.295533 0.185019 -3.60565e-19)
(0.29894 0.185995 4.90716e-19)
(0.31637 0.187873 -2.04089e-21)
(0.317123 0.183232 -3.22164e-19)
(0.328136 0.189042 1.94032e-19)
(0.326919 0.179391 7.60171e-20)
(0.333183 0.187941 -3.41818e-19)
(0.330779 0.174793 -1.1957e-19)
(0.33394 0.183758 9.88856e-20)
(0.331069 0.169167 -7.93734e-20)
(0.329435 0.161946 3.39356e-19)
(0.33227 0.175927 1.29394e-19)
(0.0932603 0.170132 9.13466e-20)
(0.085218 0.163307 -2.91193e-19)
(0.150209 0.181742 3.01057e-19)
(0.146314 0.180644 4.56386e-19)
(0.204043 0.190346 -9.2247e-20)
(0.200042 0.189117 -1.41018e-19)
(0.249466 0.19532 -2.57564e-19)
(0.244276 0.19397 1.06643e-19)
(0.283713 0.19612 -1.64836e-19)
(0.276488 0.19441 -3.00649e-19)
(0.306022 0.193208 4.00085e-19)
(0.297039 0.191662 9.03109e-23)
(0.317922 0.187613 5.57872e-19)
(0.308222 0.187264 2.71047e-19)
(0.322519 0.180419 -2.36726e-19)
(0.313238 0.182519 2.20265e-19)
(0.32318 0.17234 -2.27423e-19)
(0.315009 0.177927 -3.89262e-19)
(0.322364 0.163741 1.6813e-19)
(0.315291 0.173235 1.12674e-19)
(0.321109 0.154835 1.6022e-19)
(0.314586 0.16792 7.27842e-20)
(0.312864 0.161613 2.98264e-19)
(0.319261 0.145918 -3.47336e-22)
(0.142022 0.175376 7.23898e-20)
(0.128983 0.159729 -1.6959e-20)
(0.198501 0.186051 1.24997e-20)
(0.192851 0.179529 1.55211e-19)
(0.242344 0.191806 6.01875e-20)
(0.235705 0.184747 -1.45187e-19)
(0.272538 0.192438 6.89339e-20)
(0.264798 0.186225 1.47741e-19)
(0.29053 0.189415 -1.34869e-19)
(0.281844 0.183822 -2.14604e-20)
(0.299909 0.184822 -1.36946e-19)
(0.291454 0.179861 -2.25524e-19)
(0.304638 0.180461 -7.25224e-20)
(0.297724 0.175982 -2.61072e-20)
(0.307469 0.177304 7.11676e-20)
(0.302975 0.173183 1.81693e-19)
(0.309366 0.175322 -5.97674e-20)
(0.307479 0.171621 -5.4094e-20)
(0.310005 0.173651 7.88195e-21)
(0.310271 0.170739 1.78744e-19)
(0.308814 0.171016 2.11609e-19)
(0.310346 0.169513 1.36736e-19)
(0.307233 0.167279 2.61162e-19)
(0.30532 0.166056 1.30514e-19)
(0.179644 0.17252 7.2074e-20)
(0.160186 0.155858 2.46392e-19)
(0.227323 0.177701 0)
(0.221754 0.173466 -2.08667e-19)
(0.256501 0.17966 -6.16088e-20)
(0.250415 0.173042 0)
(0.272761 0.177983 5.5305e-20)
(0.266084 0.171963 -6.24003e-20)
(0.281754 0.174492 -1.11359e-19)
(0.27449 0.168513 1.18416e-19)
(0.288434 0.170999 -1.1437e-19)
(0.281743 0.16506 -1.27315e-19)
(0.295246 0.168602 2.31703e-19)
(0.29023 0.162872 1.13638e-19)
(0.302046 0.167614 5.75302e-20)
(0.29943 0.162832 -9.58888e-20)
(0.307319 0.167695 1.88282e-19)
(0.307245 0.165025 -1.67271e-19)
(0.309517 0.168061 3.14745e-19)
(0.311534 0.168655 1.34151e-19)
(0.307824 0.167768 1.88997e-19)
(0.311171 0.17221 -2.71912e-19)
(0.306519 0.173392 9.76927e-21)
(0.303144 0.166295 6.53643e-20)
(0.203528 0.169084 -6.44636e-20)
(0.176155 0.15499 1.2727e-19)
(0.241406 0.167368 -2.11383e-19)
(0.236002 0.168503 -1.22379e-19)
(0.258263 0.165866 0)
(0.252611 0.16168 0)
(0.266431 0.162785 0)
(0.260069 0.158556 0)
(0.273427 0.159308 1.07881e-19)
(0.265973 0.154036 8.01108e-20)
(0.282619 0.156842 1.04337e-19)
(0.275552 0.150486 1.09167e-19)
(0.293668 0.156581 -2.19071e-19)
(0.288707 0.149183 -3.58654e-21)
(0.304265 0.159259 -3.25599e-19)
(0.302952 0.151529 -3.1611e-19)
(0.311792 0.164646 -2.23592e-19)
(0.314797 0.157959 1.85801e-19)
(0.314312 0.171269 -4.58417e-19)
(0.321004 0.167429 -1.12838e-19)
(0.311189 0.176827 -4.54646e-19)
(0.319882 0.177371 -1.3506e-19)
(0.311565 0.184819 -8.29578e-21)
(0.302487 0.17874 4.20554e-20)
(0.213416 0.168461 4.45229e-20)
(0.177778 0.158266 -5.42984e-20)
(0.24468 0.159711 9.56051e-20)
(0.239708 0.166278 1.73724e-19)
(0.253809 0.154647 0)
(0.247585 0.152768 0)
(0.258924 0.149736 8.10777e-20)
(0.25153 0.147471 -6.56379e-20)
(0.267582 0.145171 8.10777e-20)
(0.25827 0.140658 4.80714e-21)
(0.281028 0.142351 0)
(0.271791 0.135337 0)
(0.297277 0.143081 -9.71294e-20)
(0.290437 0.133255 7.37202e-20)
(0.312909 0.148729 1.95902e-19)
(0.31053 0.136856 -1.79182e-19)
(0.324044 0.159197 2.97716e-19)
(0.32678 0.147264 2.97401e-19)
(0.327481 0.172459 2.12465e-19)
(0.334105 0.163292 2.42378e-21)
(0.321949 0.185037 3.1476e-19)
(0.330246 0.181325 4.28403e-19)
(0.316707 0.196795 2.14725e-19)
(0.308554 0.193326 8.79262e-21)
(0.211402 0.171243 1.12249e-19)
(0.167458 0.16762 1.45858e-20)
(0.240379 0.154781 7.79218e-20)
(0.234972 0.165487 1.87268e-20)
(0.245486 0.146012 -6.63765e-20)
(0.238294 0.146529 0)
(0.25071 0.138262 -1.4468e-19)
(0.241285 0.137792 -5.61416e-21)
(0.262392 0.130861 -7.83037e-20)
(0.249934 0.127456 -7.91205e-20)
(0.280719 0.125669 7.45497e-20)
(0.267501 0.118251 -1.21603e-19)
(0.302715 0.125589 -7.33295e-21)
(0.291551 0.113 6.94975e-20)
(0.323248 0.133256 -8.25672e-20)
(0.316794 0.115628 -8.85701e-20)
(0.336299 0.149283 7.50956e-22)
(0.335231 0.128503 -9.19247e-20)
(0.337672 0.170992 2.1517e-19)
(0.339981 0.150715 1.13749e-19)
(0.326931 0.192826 3.29071e-19)
(0.329527 0.177729 6.17587e-21)
(0.308822 0.202592 -8.84921e-20)
(0.307519 0.209222 1.93455e-19)
(0.19954 0.177841 -7.56502e-20)
(0.148635 0.185942 -2.35603e-21)
(0.230819 0.151479 -6.06403e-20)
(0.222875 0.16649 1.67867e-20)
(0.234594 0.13888 6.18364e-20)
(0.226625 0.143018 1.2797e-22)
(0.240759 0.127263 6.18364e-20)
(0.228667 0.128715 -2.17034e-20)
(0.255345 0.115369 -1.22884e-19)
(0.239013 0.113813 8.88329e-20)
(0.27778 0.105347 -1.3017e-19)
(0.259373 0.0987971 -1.18444e-19)
(0.303602 0.101648 -1.11705e-20)
(0.28667 0.0875891 -7.00651e-21)
(0.325417 0.108933 -1.08547e-19)
(0.313519 0.0861083 2.06879e-19)
(0.335607 0.128933 1.54734e-20)
(0.329094 0.0987011 7.90921e-20)
(0.330705 0.158562 -1.05213e-19)
(0.326038 0.125126 -1.9923e-19)
(0.312208 0.190252 -4.23422e-19)
(0.305433 0.160807 -2.17789e-19)
(0.277422 0.195441 -2.09789e-19)
(0.286796 0.216522 -6.30195e-21)
(0.180148 0.192085 5.19468e-20)
(0.127352 0.213769 -6.25646e-20)
(0.216249 0.152261 9.16146e-20)
(0.203739 0.172815 7.30716e-20)
(0.220901 0.132821 -8.38342e-20)
(0.211367 0.142297 -7.29145e-20)
(0.2277 0.11606 8.07918e-21)
(0.212697 0.120216 -8.57685e-20)
(0.243868 0.0983628 9.17306e-20)
(0.223845 0.0997665 1.83762e-19)
(0.267709 0.0814239 6.26415e-21)
(0.244754 0.0780143 -2.81739e-20)
(0.293028 0.0708431 2.13246e-19)
(0.271154 0.0586863 -5.16629e-20)
(0.310508 0.0739668 4.12771e-19)
(0.294209 0.050028 1.55283e-19)
(0.312541 0.0949567 -1.39227e-19)
(0.301758 0.058958 1.32266e-19)
(0.298123 0.130686 -3.23223e-19)
(0.28723 0.0866064 -3.38452e-19)
(0.271957 0.172294 0)
(0.255789 0.128837 -3.74719e-19)
(0.22132 0.173624 0)
(0.241449 0.208906 -9.14461e-20)
(0.161427 0.212771 -4.19431e-20)
(0.111721 0.256224 -2.24181e-20)
(0.197175 0.158394 -7.26637e-20)
(0.181806 0.197483 1.25129e-20)
(0.202845 0.127679 -7.37283e-20)
(0.192661 0.150489 -4.44198e-20)
(0.209978 0.104918 9.40887e-20)
(0.193877 0.113957 0)
(0.226019 0.0811316 5.34956e-20)
(0.203771 0.0855909 -3.09354e-20)
(0.24808 0.0560748 -8.6965e-20)
(0.22243 0.0575628 -4.18988e-20)
(0.268571 0.0364527 -1.2809e-19)
(0.244019 0.0298465 -2.09366e-20)
(0.277189 0.0321534 -1.39747e-19)
(0.258457 0.0123 -7.01467e-20)
(0.26743 0.049999 -4.52081e-20)
(0.254407 0.0151688 -7.08276e-20)
(0.241686 0.0884303 -3.68821e-19)
(0.228137 0.0413684 1.89797e-19)
(0.208556 0.138019 -3.78225e-19)
(0.188098 0.08683 -1.62416e-19)
(0.148712 0.140389 0)
(0.174893 0.184158 0)
(0.1329 0.268878 5.39622e-20)
(0.087156 0.20733 4.35469e-20)
(0.173623 0.188159 4.99218e-20)
(0.131614 0.197377 2.06037e-20)
(0.182458 0.131988 2.60388e-20)
(0.158461 0.162428 3.81629e-20)
(0.189374 0.0951356 -1.23974e-19)
(0.169874 0.116172 3.73028e-20)
(0.202194 0.0638883 -1.24143e-19)
(0.180287 0.0766136 -9.83451e-20)
(0.21893 0.0321048 2.80673e-20)
(0.194549 0.0405286 -6.89128e-21)
(0.231329 0.00389639 3.19479e-20)
(0.208177 0.00514681 1.35114e-20)
(0.229124 -0.00912559 0)
(0.211508 -0.0209844 -1.12986e-19)
(0.207728 0.00276774 1.88878e-19)
(0.195265 -0.025394 0)
(0.172007 0.0399712 4.14523e-19)
(0.159218 -0.00263579 1.90454e-19)
(0.132749 0.0935186 2.25645e-19)
(0.113759 0.0431838 2.27527e-19)
(0.0991137 0.147604 0)
(0.0728169 0.101358 0)
(0.337409 0.0861931 1.15897e-19)
(0.32896 0.137571 2.93512e-19)
(0.340592 0.0761067 -1.85168e-19)
(0.330879 0.125076 -2.40039e-19)
(0.338386 0.0641827 -2.69425e-20)
(0.329174 0.110563 -4.81249e-21)
(0.329748 0.0508776 5.51076e-20)
(0.323149 0.0972814 -7.88709e-20)
(0.314884 0.0378632 7.27918e-20)
(0.313576 0.0837023 9.71836e-20)
(0.294312 0.0264983 -4.32215e-21)
(0.300262 0.0704101 -2.25819e-20)
(0.268202 0.0172087 5.03235e-20)
(0.282753 0.0589909 5.46386e-20)
(0.23678 0.00928934 -1.3642e-20)
(0.260829 0.0499633 -6.12475e-21)
(0.200974 0.000413755 -7.88489e-20)
(0.234785 0.0420691 2.52283e-22)
(0.164057 -0.0131611 2.20276e-20)
(0.205545 0.030345 9.91929e-22)
(0.134123 -0.0328324 2.25081e-19)
(0.173778 0.00642759 -1.31784e-20)
(0.140482 -0.0325408 1.30111e-19)
(0.3284 0.164049 -4.94301e-20)
(0.326034 0.153794 -2.09937e-19)
(0.323361 0.149319 -4.72525e-20)
(0.322047 0.141477 7.60564e-20)
(0.317156 0.133146 -4.72525e-20)
(0.316425 0.127188 -1.61547e-19)
(0.310137 0.117073 -3.74534e-20)
(0.308929 0.113571 3.20921e-20)
(0.301578 0.102277 6.4718e-22)
(0.300083 0.101137 -6.36663e-21)
(0.290785 0.0898761 3.79183e-20)
(0.290118 0.0904888 2.23578e-20)
(0.277431 0.0806187 -2.31568e-21)
(0.279176 0.082491 -2.70183e-20)
(0.260816 0.0737137 6.73414e-21)
(0.267246 0.0777438 -2.62137e-21)
(0.239155 0.0648517 8.10232e-20)
(0.253621 0.0752426 -3.30041e-20)
(0.209533 0.0448839 -3.81167e-20)
(0.236377 0.0690228 1.60884e-19)
(0.172073 0.00433174 -1.14462e-19)
(0.211604 0.0439453 -1.47685e-19)
(0.171796 -0.0161623 0)
(0.317406 0.137709 -8.5046e-20)
(0.310258 0.153555 -1.70618e-19)
(0.312484 0.128438 -3.97767e-20)
(0.305232 0.146258 2.53157e-20)
(0.305189 0.118413 -8.27972e-20)
(0.299081 0.136106 -1.53477e-19)
(0.296521 0.108423 6.48902e-20)
(0.291717 0.124948 -8.32207e-20)
(0.287291 0.0990599 1.55989e-20)
(0.283646 0.113709 6.2174e-20)
(0.278075 0.0912396 -4.41085e-20)
(0.275375 0.10335 2.47252e-20)
(0.269382 0.0861392 -2.77645e-20)
(0.267492 0.094936 -2.47977e-20)
(0.261382 0.0844097 -4.31946e-20)
(0.260648 0.0896162 -9.60868e-21)
(0.252549 0.0833961 4.70642e-20)
(0.254846 0.0880956 -3.05153e-20)
(0.236744 0.0719478 6.09359e-20)
(0.248314 0.0876458 1.17e-19)
(0.203393 0.0292284 -2.96339e-20)
(0.236991 0.0724418 -7.99102e-20)
(0.206894 0.00682157 -5.82399e-20)
(0.299938 0.158413 -6.88283e-20)
(0.301709 0.16198 -6.30146e-20)
(0.294115 0.149019 -9.55514e-20)
(0.294066 0.154868 -6.3775e-20)
(0.287248 0.138232 -1.47448e-19)
(0.285754 0.145823 1.66588e-20)
(0.279798 0.126827 -8.44937e-20)
(0.277363 0.13527 -1.42132e-19)
(0.272239 0.115623 7.13255e-20)
(0.269432 0.124078 3.03017e-20)
(0.265036 0.105452 4.44129e-20)
(0.26229 0.113164 7.08131e-22)
(0.258764 0.0973068 -6.23602e-21)
(0.256258 0.103437 2.44433e-20)
(0.254259 0.0925446 3.63351e-21)
(0.25184 0.0958406 -6.78992e-21)
(0.252115 0.091743 3.98647e-20)
(0.24947 0.0915213 -6.75965e-21)
(0.248767 0.0878548 -2.54182e-20)
(0.248533 0.0913289 5.00833e-20)
(0.228204 0.0530183 -1.09733e-19)
(0.248158 0.0862968 -3.25985e-20)
(0.238365 0.0286248 -1.06852e-19)
(0.294745 0.161876 -5.78952e-20)
(0.297366 0.172508 9.83036e-20)
(0.285126 0.154734 5.04679e-20)
(0.286319 0.16681 -9.98486e-20)
(0.275532 0.145242 2.52055e-20)
(0.274787 0.157605 8.91726e-21)
(0.266792 0.134275 -2.48013e-20)
(0.264242 0.145945 1.75847e-20)
(0.259379 0.122846 -4.17146e-20)
(0.255565 0.13314 3.56867e-20)
(0.253498 0.111915 -2.00872e-20)
(0.249082 0.120408 -4.12248e-20)
(0.249252 0.102306 2.43175e-20)
(0.244805 0.108717 2.18312e-20)
(0.246892 0.0948742 -1.74704e-20)
(0.242716 0.0988273 1.0046e-21)
(0.247248 0.0910894 3.78914e-21)
(0.242928 0.0913784 -3.62248e-20)
(0.250456 0.0897571 4.2384e-20)
(0.245186 0.0877645 4.30501e-20)
(0.243859 0.0657201 -2.85874e-20)
(0.249552 0.0868697 3.56031e-20)
(0.261318 0.043658 -8.26573e-20)
(0.290548 0.176291 5.23302e-20)
(0.297795 0.187373 6.19155e-20)
(0.276934 0.169112 -1.43896e-19)
(0.281526 0.183345 -1.02354e-19)
(0.263934 0.158051 9.92884e-22)
(0.265348 0.173149 -7.32528e-21)
(0.25311 0.144646 7.94114e-20)
(0.251404 0.158682 -2.53618e-20)
(0.245199 0.13049 3.69838e-20)
(0.240935 0.142314 3.44381e-20)
(0.240299 0.116868 8.18264e-22)
(0.234342 0.126051 -1.40986e-20)
(0.238199 0.104723 -1.81748e-21)
(0.231429 0.111169 0)
(0.238644 0.0946616 -1.77534e-20)
(0.231737 0.0983986 -5.97924e-23)
(0.241619 0.0874238 3.81038e-21)
(0.234879 0.0881041 -1.6126e-20)
(0.247901 0.0842166 3.57609e-20)
(0.240851 0.0808946 3.3387e-20)
(0.251924 0.0683125 -2.28738e-21)
(0.247117 0.0784565 4.13771e-20)
(0.274272 0.0487961 -3.8282e-20)
(0.290352 0.19452 -9.70924e-20)
(0.296944 0.205322 -1.58233e-20)
(0.270869 0.18762 3.63663e-20)
(0.274997 0.203916 -1.57954e-19)
(0.253105 0.17403 -3.40001e-20)
(0.254303 0.192708 1.77681e-19)
(0.239076 0.156458 -7.20932e-20)
(0.237178 0.174396 -4.00134e-20)
(0.229736 0.137723 -1.70432e-20)
(0.224888 0.152762 -1.35086e-20)
(0.225145 0.119892 -1.51068e-20)
(0.217876 0.13115 -2.67401e-20)
(0.224802 0.104115 1.74075e-21)
(0.215921 0.111619 -3.93236e-21)
(0.228058 0.0908892 1.74075e-21)
(0.218362 0.0950144 1.76012e-21)
(0.234454 0.0805022 1.33743e-20)
(0.224476 0.0813959 -5.88691e-21)
(0.243893 0.0737006 3.85168e-20)
(0.234299 0.0709565 2.41794e-20)
(0.254784 0.0619288 3.76315e-20)
(0.244519 0.0646305 2.54223e-20)
(0.278245 0.0432945 -1.3687e-20)
(0.283543 0.215422 -8.29848e-20)
(0.283192 0.219463 2.67949e-19)
(0.259461 0.209601 -1.43295e-20)
(0.257501 0.222855 -2.40872e-19)
(0.238486 0.19341 1.73617e-19)
(0.235077 0.212188 1.44366e-19)
(0.222503 0.170722 1.96289e-20)
(0.217556 0.190738 3.14457e-20)
(0.212338 0.145892 -2.26941e-20)
(0.205564 0.163676 -8.14946e-21)
(0.208055 0.122273 -1.55709e-20)
(0.199249 0.135914 -1.17152e-20)
(0.209128 0.101607 -3.97661e-21)
(0.198444 0.110738 -9.35984e-22)
(0.214829 0.0843044 -5.95316e-21)
(0.202689 0.0894198 2.9077e-21)
(0.224569 0.0702835 4.82299e-21)
(0.211411 0.0717888 -2.10663e-21)
(0.238291 0.0596835 1.07762e-20)
(0.224443 0.0574173 -8.9456e-22)
(0.254855 0.0477192 -9.07335e-21)
(0.240404 0.0465613 -3.85539e-21)
(0.275412 0.0282347 -1.77708e-20)
(0.259173 0.229852 1.1068e-19)
(0.247719 0.22253 1.02318e-19)
(0.233995 0.227236 -8.16675e-20)
(0.221897 0.233046 6.65891e-20)
(0.213838 0.210274 -1.35529e-21)
(0.202189 0.225285 -9.80631e-20)
(0.199636 0.183767 3.38886e-21)
(0.18871 0.202782 -2.40249e-20)
(0.191382 0.153401 3.38886e-21)
(0.180742 0.171925 1.91368e-20)
(0.188769 0.123817 2.94558e-21)
(0.177643 0.139037 0)
(0.191451 0.0976817 5.85245e-21)
(0.179105 0.108542 2.97449e-21)
(0.199119 0.0756377 6.19681e-21)
(0.185096 0.0823157 2.96719e-21)
(0.211527 0.057158 -6.83267e-21)
(0.19565 0.0602224 2.77183e-21)
(0.229018 0.0416979 -1.39819e-20)
(0.211031 0.0411225 -1.01849e-20)
(0.251413 0.0263244 -1.5522e-20)
(0.231438 0.0246368 -9.03583e-21)
(0.266145 0.00401175 -1.62872e-20)
(0.213043 0.230831 7.49875e-20)
(0.190369 0.211397 -9.22937e-20)
(0.190979 0.233708 4.91427e-20)
(0.16841 0.230268 2.22565e-19)
(0.176413 0.218697 -1.24311e-19)
(0.155791 0.227328 -1.21996e-19)
(0.168419 0.190999 -8.40555e-21)
(0.150531 0.206279 -3.57589e-20)
(0.165573 0.157279 1.58575e-20)
(0.150148 0.174245 1.47254e-21)
(0.16686 0.12329 0)
(0.152889 0.138541 4.51723e-21)
(0.171985 0.0924608 0)
(0.158065 0.104415 0)
(0.181257 0.0657655 -5.18379e-22)
(0.166019 0.074191 0)
(0.195205 0.0423696 -5.18379e-22)
(0.177483 0.0478662 3.99387e-22)
(0.215162 0.0209903 -2.28671e-21)
(0.193769 0.0234817 4.82746e-21)
(0.24278 -0.00129193 -1.37107e-20)
(0.215474 -0.000294643 -7.30941e-21)
(0.249262 -0.0302888 2.48618e-20)
(0.149237 0.215764 7.15461e-20)
(0.119594 0.187011 0)
(0.134374 0.226191 5.04191e-20)
(0.104448 0.213959 7.21743e-20)
(0.129195 0.215643 -3.25157e-20)
(0.101659 0.217052 -2.13125e-20)
(0.13068 0.18953 -2.60443e-20)
(0.107076 0.19961 1.70142e-20)
(0.135835 0.155263 -1.08556e-20)
(0.116291 0.169035 -9.0514e-21)
(0.142798 0.119352 4.55949e-21)
(0.126344 0.133219 9.71873e-21)
(0.151145 0.0857201 0)
(0.136096 0.0978649 -1.82396e-21)
(0.161668 0.0554993 4.85853e-22)
(0.146072 0.0654482 -2.16627e-23)
(0.175788 0.027367 5.35848e-21)
(0.157354 0.0359261 4.90119e-22)
(0.195835 -0.000672368 2.5893e-21)
(0.17274 0.00653999 4.9154e-21)
(0.22569 -0.0336637 3.78509e-20)
(0.191321 -0.0257552 -5.09263e-21)
(0.225911 -0.0789422 6.41156e-20)
(0.0788288 0.188004 0)
(0.0476667 0.154059 -6.65504e-20)
(0.073189 0.206162 0)
(0.0405539 0.187543 6.44672e-20)
(0.0789778 0.201469 2.95831e-20)
(0.0482489 0.196545 1.53023e-20)
(0.0911343 0.17917 3.56356e-20)
(0.0645523 0.183836 1.43386e-20)
(0.10514 0.146951 1.05154e-20)
(0.0833024 0.156705 6.10303e-21)
(0.118309 0.111714 3.89531e-21)
(0.100507 0.12317 8.54508e-21)
(0.12999 0.077618 -1.91788e-21)
(0.114661 0.0890226 -1.85546e-21)
(0.141059 0.0457968 -2.18546e-23)
(0.126254 0.0567099 2.62301e-22)
(0.153473 0.0140888 0)
(0.136233 0.0258401 0)
(0.170849 -0.022429 0)
(0.146839 -0.00764689 -4.92118e-21)
(0.196579 -0.0819268 -1.73383e-21)
(0.153022 -0.0483753 -6.34172e-21)
(0.158777 -0.134883 -6.09603e-20)
(0.116757 -0.0245745 1.45066e-20)
(0.141898 -0.0224815 3.83666e-19)
(0.105964 -0.0271471 -3.75567e-19)
(0.133585 -0.0394866 -1.25316e-19)
(0.100513 -0.0404133 0)
(0.129083 -0.0670581 -2.4507e-19)
(0.0992709 -0.0622653 -3.21993e-19)
(0.131306 -0.0985732 0)
(0.100623 -0.0926141 1.46052e-19)
(0.136538 -0.134215 -1.11054e-19)
(0.102633 -0.130669 4.67455e-19)
(0.142456 -0.172216 2.50361e-19)
(0.104369 -0.173282 0)
(0.147682 -0.21005 -1.01399e-19)
(0.105427 -0.215921 4.66985e-19)
(0.151835 -0.244471 -1.80268e-19)
(0.105372 -0.254643 1.16583e-20)
(0.154429 -0.273348 6.96132e-19)
(0.103714 -0.286892 -2.05114e-19)
(0.154789 -0.295942 -5.51058e-19)
(0.100092 -0.31145 1.9119e-19)
(0.152285 -0.312403 -9.02438e-20)
(0.146578 -0.323184 3.69326e-19)
(0.0942866 -0.328117 -6.13806e-20)
(0.151314 -0.0396908 2.62108e-19)
(0.160078 -0.0417375 3.02655e-19)
(0.153599 -0.0815249 1.80476e-20)
(0.166781 -0.0867313 7.30477e-20)
(0.158821 -0.129466 -2.49714e-19)
(0.172936 -0.138093 -2.5389e-19)
(0.166518 -0.177936 2.21036e-19)
(0.179716 -0.187881 8.01541e-20)
(0.174214 -0.224227 1.10711e-20)
(0.184777 -0.233197 2.24733e-19)
(0.180532 -0.264489 -3.13927e-19)
(0.186833 -0.27088 3.1849e-20)
(0.185033 -0.295553 -2.87003e-19)
(0.186 -0.298962 -1.83111e-19)
(0.187891 -0.316387 7.81511e-20)
(0.18324 -0.317143 -4.98082e-19)
(0.189062 -0.328151 1.75126e-19)
(0.179402 -0.326938 4.23149e-19)
(0.187963 -0.333197 -4.39537e-19)
(0.174808 -0.330797 -1.05269e-19)
(0.18378 -0.333953 8.40626e-20)
(0.169184 -0.331088 -2.81209e-19)
(0.161964 -0.329453 3.82527e-19)
(0.175947 -0.332283 2.60117e-19)
(0.170129 -0.0932649 1.12222e-19)
(0.163307 -0.0852206 1.4048e-19)
(0.181739 -0.150219 -1.96734e-19)
(0.180642 -0.146323 -1.99723e-19)
(0.190342 -0.204059 8.15173e-20)
(0.189114 -0.200058 0)
(0.195318 -0.249485 8.15173e-20)
(0.193967 -0.244296 -5.61211e-20)
(0.19612 -0.283733 2.45685e-19)
(0.194408 -0.276511 0)
(0.19321 -0.306042 1.61963e-19)
(0.191662 -0.29706 1.15594e-19)
(0.187617 -0.317941 -3.99889e-19)
(0.187266 -0.308243 4.91922e-20)
(0.180425 -0.322537 -1.57338e-19)
(0.182524 -0.313258 -3.21432e-19)
(0.172349 -0.323199 1.60189e-19)
(0.177935 -0.315031 1.62325e-19)
(0.163753 -0.322386 8.05574e-20)
(0.173247 -0.315316 -7.95908e-20)
(0.15485 -0.321132 -5.83626e-22)
(0.167936 -0.314612 1.04083e-21)
(0.161632 -0.312889 -1.48729e-20)
(0.145936 -0.319284 -7.74647e-20)
(0.175374 -0.142028 -1.71667e-19)
(0.15973 -0.128987 -1.07624e-19)
(0.186049 -0.198515 0)
(0.179528 -0.192864 -1.26082e-19)
(0.191804 -0.242364 -1.38995e-19)
(0.184746 -0.235725 0)
(0.192435 -0.272561 -1.38995e-19)
(0.186223 -0.264821 -1.91581e-19)
(0.189413 -0.290553 -1.35888e-19)
(0.18382 -0.281867 -1.15393e-19)
(0.184822 -0.299932 -2.90649e-22)
(0.179861 -0.291477 -1.59692e-20)
(0.180464 -0.304662 1.36093e-19)
(0.175983 -0.297749 1.39881e-19)
(0.177311 -0.307495 0)
(0.173188 -0.303003 -3.52821e-21)
(0.175333 -0.309394 -7.41433e-20)
(0.171631 -0.307512 0)
(0.173667 -0.310034 -1.48508e-19)
(0.170753 -0.310306 -7.51755e-20)
(0.171035 -0.308843 -6.10045e-21)
(0.169532 -0.310381 -7.53998e-20)
(0.167303 -0.307265 -2.36116e-19)
(0.166078 -0.305347 -6.39449e-20)
(0.172519 -0.179654 -8.1851e-20)
(0.155859 -0.160194 2.39418e-19)
(0.1777 -0.227342 -1.27862e-19)
(0.173465 -0.221772 -2.3392e-19)
(0.179659 -0.256524 -4.90552e-20)
(0.173042 -0.250438 -1.01838e-19)
(0.177982 -0.272785 -1.66078e-19)
(0.171962 -0.266108 5.12352e-20)
(0.174491 -0.281778 6.0735e-21)
(0.168511 -0.274514 -3.13147e-19)
(0.170999 -0.288461 1.26249e-19)
(0.165058 -0.281769 2.33932e-19)
(0.168605 -0.295277 -4.48046e-22)
(0.162872 -0.290262 2.05454e-19)
(0.167621 -0.302081 -3.57802e-21)
(0.162835 -0.299467 -2.18591e-19)
(0.167707 -0.307358 0)
(0.165033 -0.307287 1.09999e-19)
(0.168078 -0.309558 0)
(0.16867 -0.31158 -1.11178e-19)
(0.167792 -0.307863 -3.12663e-19)
(0.172233 -0.311217 0)
(0.173423 -0.306562 -2.01424e-19)
(0.166325 -0.30318 -2.45339e-19)
(0.169084 -0.203543 3.8908e-20)
(0.154991 -0.176169 2.20519e-19)
(0.167368 -0.241428 -2.0201e-19)
(0.168503 -0.236022 -1.96688e-19)
(0.165866 -0.258287 3.00821e-21)
(0.161679 -0.252635 -1.71339e-20)
(0.162783 -0.266455 -9.09831e-20)
(0.158554 -0.260092 1.07437e-19)
(0.159306 -0.273453 -8.52361e-20)
(0.154033 -0.265997 -2.3043e-20)
(0.15684 -0.28265 3.1858e-19)
(0.150482 -0.275581 2.07924e-19)
(0.156581 -0.293706 -9.57501e-21)
(0.149179 -0.288744 2.68644e-20)
(0.159263 -0.30431 -1.0632e-19)
(0.151528 -0.302997 -1.2962e-19)
(0.164657 -0.311842 3.62956e-22)
(0.157964 -0.314851 2.09971e-19)
(0.171289 -0.314365 -1.12625e-19)
(0.167443 -0.321062 -1.0359e-20)
(0.176856 -0.311241 1.14117e-19)
(0.177396 -0.31994 0)
(0.184856 -0.311618 1.16308e-19)
(0.178777 -0.302533 5.82646e-20)
(0.16846 -0.213435 -7.66338e-20)
(0.158266 -0.177798 -3.48064e-20)
(0.15971 -0.244703 -8.70516e-21)
(0.166278 -0.23973 6.08386e-20)
(0.154645 -0.253832 8.83122e-20)
(0.152766 -0.247607 1.6497e-20)
(0.149733 -0.258947 1.79744e-19)
(0.147468 -0.251551 7.18548e-20)
(0.145167 -0.267609 2.76102e-19)
(0.140653 -0.258294 1.10022e-19)
(0.142345 -0.281064 -8.67066e-20)
(0.135328 -0.271822 9.72448e-20)
(0.143075 -0.297321 -9.24342e-20)
(0.133245 -0.290477 -1.12494e-19)
(0.148727 -0.312963 1.90206e-19)
(0.136846 -0.31058 1.24864e-20)
(0.159203 -0.324105 2.03243e-19)
(0.14726 -0.32684 -2.65225e-19)
(0.172478 -0.327544 1.04859e-19)
(0.163298 -0.334168 2.01549e-19)
(0.185069 -0.322009 -1.56601e-21)
(0.181345 -0.330306 0)
(0.196832 -0.316761 1.01162e-19)
(0.193372 -0.308607 -1.56601e-21)
(0.171242 -0.211424 1.07017e-19)
(0.167615 -0.167482 -4.82052e-20)
(0.154779 -0.2404 8.95957e-20)
(0.165488 -0.234994 9.69283e-20)
(0.146009 -0.245507 -9.53662e-22)
(0.146525 -0.238313 -1.83783e-20)
(0.138256 -0.250731 -1.1293e-22)
(0.137787 -0.241303 7.34213e-20)
(0.130852 -0.262419 -7.25289e-20)
(0.127447 -0.249956 -7.9978e-20)
(0.125657 -0.280755 7.46436e-20)
(0.118237 -0.26753 5.96875e-20)
(0.125574 -0.30276 -5.92285e-21)
(0.11298 -0.291589 -4.94729e-20)
(0.133243 -0.323303 -4.41562e-19)
(0.115605 -0.316841 5.32138e-21)
(0.149277 -0.336358 -2.72041e-19)
(0.128483 -0.335285 -2.7934e-19)
(0.171 -0.337731 9.95356e-20)
(0.150705 -0.340034 6.78764e-21)
(0.192853 -0.326985 1.01336e-19)
(0.177735 -0.329574 0)
(0.202619 -0.30886 1.02393e-19)
(0.209268 -0.307565 1.01336e-19)
(0.177838 -0.199564 -2.22543e-20)
(0.18593 -0.14866 8.17688e-20)
(0.151477 -0.230838 -1.34774e-20)
(0.166492 -0.222897 -5.70495e-20)
(0.138876 -0.234612 5.65969e-20)
(0.143014 -0.226641 5.71525e-20)
(0.127255 -0.240779 -6.76306e-21)
(0.128709 -0.228683 -7.38597e-20)
(0.115355 -0.25537 5.60447e-20)
(0.113802 -0.239032 -5.59535e-20)
(0.105326 -0.277811 -6.69435e-20)
(0.0987777 -0.259397 1.49088e-19)
(0.10162 -0.303641 -3.23654e-20)
(0.0875597 -0.286699 -7.74607e-20)
(0.108903 -0.32546 1.93731e-19)
(0.086071 -0.313553 1.52587e-19)
(0.128908 -0.33565 -3.3729e-21)
(0.0986621 -0.329129 1.92261e-19)
(0.158551 -0.330743 -9.81329e-20)
(0.125094 -0.326067 -9.90961e-20)
(0.190262 -0.312238 0)
(0.160789 -0.305451 2.54377e-19)
(0.195447 -0.277431 -1.12238e-19)
(0.216555 -0.286817 9.88968e-20)
(0.192077 -0.180173 4.76597e-20)
(0.213755 -0.127376 6.35879e-21)
(0.152256 -0.216267 0)
(0.172811 -0.203759 0)
(0.132817 -0.220917 -7.45918e-20)
(0.142292 -0.211382 0)
(0.116052 -0.227716 -1.23709e-19)
(0.120211 -0.212711 -3.69043e-21)
(0.0983469 -0.243887 3.99362e-20)
(0.0997562 -0.22386 -4.95721e-20)
(0.0813973 -0.267731 1.45246e-19)
(0.0779932 -0.244769 9.62878e-21)
(0.0708044 -0.293053 1.11743e-19)
(0.0586519 -0.27117 5.67138e-20)
(0.0739193 -0.31053 1.52959e-19)
(0.0499812 -0.294224 6.36049e-20)
(0.0949089 -0.312556 8.99387e-20)
(0.0589044 -0.301769 -1.42443e-19)
(0.130648 -0.298129 2.56898e-19)
(0.0865545 -0.28723 -1.56947e-20)
(0.172278 -0.271955 1.43548e-19)
(0.128795 -0.255776 -1.04487e-19)
(0.173607 -0.221298 -2.27706e-19)
(0.208916 -0.241439 1.99578e-20)
(0.212762 -0.161444 -3.08932e-20)
(0.256207 -0.111741 -6.64019e-20)
(0.158383 -0.197188 0)
(0.197467 -0.181819 0)
(0.127675 -0.202859 6.97436e-20)
(0.150473 -0.192676 0)
(0.104912 -0.209991 6.97436e-20)
(0.113951 -0.193888 7.03559e-20)
(0.0811165 -0.226031 -8.17363e-20)
(0.085585 -0.203781 -2.63779e-20)
(0.0560467 -0.24809 -8.17363e-20)
(0.0575454 -0.222437 -5.67388e-20)
(0.0364097 -0.268578 0)
(0.0298134 -0.244021 0)
(0.0320972 -0.27719 -2.51667e-19)
(0.0122518 -0.258454 0)
(0.049936 -0.26742 -2.83576e-19)
(0.0151101 -0.254396 -2.53877e-19)
(0.0883708 -0.241664 -3.97558e-19)
(0.0413068 -0.228113 -2.99212e-19)
(0.137976 -0.208524 -4.95615e-19)
(0.0867737 -0.188062 -5.81714e-20)
(0.140353 -0.148667 -1.15368e-19)
(0.184143 -0.174855 -1.85066e-19)
(0.268856 -0.13291 -5.68324e-20)
(0.207317 -0.0871625 -2.63507e-20)
(0.188133 -0.173631 0)
(0.197379 -0.13163 0)
(0.131975 -0.18247 0)
(0.162406 -0.158484 0)
(0.0951316 -0.189382 -2.66116e-20)
(0.116157 -0.169884 -2.20461e-20)
(0.0638802 -0.202198 5.99479e-21)
(0.0766066 -0.180291 -2.68335e-20)
(0.032083 -0.21893 2.59429e-20)
(0.0405172 -0.194547 9.24939e-20)
(0.00385773 -0.231323 0)
(0.00512189 -0.20817 -2.50886e-20)
(-0.00917968 -0.229109 0)
(-0.0210253 -0.211493 0)
(0.00270374 -0.207701 -2.8574e-19)
(-0.0254482 -0.195241 -1.12887e-19)
(0.0399053 -0.171969 4.33503e-20)
(-0.00269711 -0.159182 -2.66841e-19)
(0.0934624 -0.132702 3.33868e-19)
(0.0431236 -0.113712 5.20603e-19)
(0.147572 -0.0990593 8.78016e-20)
(0.101311 -0.0727629 0)
(0.0862123 -0.337431 0)
(0.137588 -0.32898 -1.75924e-19)
(0.0761237 -0.340611 0)
(0.125091 -0.330896 0)
(0.0641959 -0.338401 0)
(0.110577 -0.329189 0)
(0.0508868 -0.329759 4.87323e-20)
(0.0972944 -0.323161 0)
(0.0378696 -0.314891 7.08972e-20)
(0.0837114 -0.313585 2.13589e-20)
(0.0265021 -0.294316 2.79282e-20)
(0.0704163 -0.300268 -2.16778e-20)
(0.0172102 -0.268205 -1.57195e-20)
(0.0589947 -0.282756 1.01487e-20)
(0.00928876 -0.236782 1.82881e-21)
(0.0499645 -0.26083 -2.624e-20)
(0.000411947 -0.200976 2.26539e-20)
(0.0420682 -0.234786 2.30751e-20)
(-0.0131624 -0.164061 0)
(0.0303433 -0.205546 0)
(-0.0328314 -0.134126 4.9975e-20)
(0.00642786 -0.173779 3.69007e-20)
(-0.0325361 -0.140485 4.52008e-21)
(0.164066 -0.328411 -1.79258e-19)
(0.153816 -0.326051 -1.77108e-19)
(0.149334 -0.323372 0)
(0.141493 -0.322063 3.00901e-19)
(0.133159 -0.317167 0)
(0.127204 -0.31644 -2.17225e-19)
(0.117084 -0.310147 -2.1636e-20)
(0.113586 -0.308941 1.04659e-19)
(0.102286 -0.301585 -5.97732e-20)
(0.101151 -0.300093 -1.19621e-19)
(0.0898826 -0.29079 -3.37779e-20)
(0.0904998 -0.290125 4.46047e-21)
(0.0806222 -0.277433 -1.49078e-22)
(0.0824988 -0.279181 -2.62859e-20)
(0.0737142 -0.260816 -4.44029e-21)
(0.0777482 -0.267249 -4.51454e-21)
(0.0648501 -0.239154 0)
(0.0752435 -0.253621 -1.50196e-20)
(0.0448826 -0.209532 3.75999e-20)
(0.0690213 -0.236376 -5.72083e-20)
(0.00433435 -0.172074 -6.41641e-21)
(0.0439447 -0.211602 9.90978e-20)
(-0.0161573 -0.171797 -1.15504e-19)
(0.137729 -0.317428 3.12892e-19)
(0.15358 -0.310281 -1.24886e-19)
(0.128459 -0.312502 8.34074e-20)
(0.146281 -0.305254 5.01167e-19)
(0.118432 -0.305204 -1.13855e-19)
(0.136128 -0.299099 -2.24276e-19)
(0.108441 -0.296533 6.73227e-21)
(0.124969 -0.291732 5.93853e-20)
(0.0990748 -0.287301 -5.16077e-20)