/*--------------------------------*- C++ -*----------------------------------*\
| =========                 |                                                 |
| \\      /  F ield         | OpenFOAM: The Open Source CFD Toolbox           |
|  \\    /   O peration     | Version:  2.3.1                                 |
|   \\  /    A nd           | Web:      www.OpenFOAM.org                      |
|    \\/     M anipulation  |                                                 |
\*---------------------------------------------------------------------------*/
FoamFile
{
    version     2.0;
    format      ascii;
    class       volSymmTensorField;
    location    "280";
    object      sigma;
}
// * * * * * * * * * * * * * * * * * * * * * * * * * * * * * * * * * * * * * //

dimensions      [1 -1 -2 0 0 0 0];

internalField   nonuniform List<symmTensor> 
11800
(
(22109.5 42249.1 1.01831e-14 -1755.47 5.49266e-15 5050.26)
(-16190.8 46012.8 1.56442e-14 -5128.48 5.07444e-15 -5289.75)
(50631.7 31945.2 -1.05372e-16 231.582 -1.25319e-14 12620.2)
(-57892.4 31252.3 0 5808.46 0 -12923.1)
(-15846.5 43932.4 2.92345e-15 -9394.37 -8.4054e-15 -6262.78)
(-39160.9 38587.2 1.182e-14 3813.41 6.29218e-15 -8770.42)
(-7274.79 43783.4 2.13548e-14 -1072.67 -5.6457e-15 -2071.17)
(-8085.7 37250.2 -3.21822e-15 1918.62 1.32006e-14 -1530.18)
(20846.1 47408.2 5.87442e-15 216.562 -4.1556e-15 5226.08)
(8847.93 34601 -1.18857e-14 2755.77 -1.01512e-14 2879.11)
(26358.3 40974.5 -8.49197e-15 -2106.84 7.3996e-15 6017.27)
(-79196.6 27201.9 -1.0915e-14 -1107.61 -5.04552e-15 -19925.1)
(6108.37 -8887.6 3.3072e-17 -16380.7 2.56269e-17 -2548.78)
(47938.7 29394.9 1.01127e-14 1151.36 -2.84647e-15 12180.2)
(-49988.3 35626.5 -7.98806e-15 7081.21 6.32224e-15 -10646.1)
(363959 14694.4 0 1564.32 0 90693.8)
(-5109.9 41991.8 7.224e-15 -966.179 6.52251e-16 -1507.6)
(-6345.6 35092.6 -4.12288e-15 -315.081 2.41861e-14 -1652.65)
(10749.2 57281.5 -5.76298e-15 -4302.37 4.22756e-15 1599.58)
(5921.72 30797.2 -1.58403e-14 2088.31 -5.17331e-15 1987.45)
(-48759 33708.1 4.76585e-15 4381.63 5.05789e-15 -11010.9)
(-68345.4 33149.4 7.72576e-15 -352.681 -4.55158e-15 -17045.4)
(-200072 64489.7 -5.83574e-15 2782.19 3.99485e-15 -48951.6)
(-184284 53786.2 7.13674e-17 -161.351 1.08889e-15 -45764.6)
(277857 36368.3 3.04475e-16 -1650.93 7.96589e-15 68532.4)
(-217139 59539 -5.59739e-15 615.271 -2.2383e-16 -53724)
(-114649 27166.6 0 215.543 0 -28393.2)
(71405.9 27902.8 -1.21091e-14 -5589.23 -7.42171e-15 16330.5)
(-140373 29821.3 -2.94743e-15 1548.21 -1.26436e-14 -34445.2)
(-174806 32828.8 3.46748e-15 -671.328 -5.7389e-15 -43539.4)
(58612.3 33210.2 -1.49621e-14 -458.134 -2.72083e-14 14429.2)
(8461.76 60358.8 -3.84679e-15 763.413 -3.47415e-15 2288.95)
(195109 54189.3 -7.82011e-16 1558.54 -4.06449e-15 48797.2)
(-9466.4 50159 1.97216e-15 1339.12 -1.49515e-14 -2016.54)
(4092.21 49533.8 -5.16647e-15 5965.41 -2.26504e-14 2495.5)
(-61090.4 29502.7 -1.35523e-14 8807.21 -9.96627e-15 -12972.5)
(2852.67 48358 1.83837e-14 3867.48 -2.23114e-14 1667.4)
(209885 48151.8 -2.8501e-15 716.305 -1.45601e-14 52254.6)
(-7105.68 44538.2 0 -6098.85 0 -3276.31)
(5853.09 34362 -6.80925e-15 291.481 1.2827e-14 1524.59)
(-120981 27133.4 -1.33462e-14 188.196 -6.33635e-15 -29971.2)
(-147542 29716.4 9.78674e-15 603.577 -5.71796e-15 -36458.5)
(73485.4 31956 -4.62049e-15 -5779.46 -1.57896e-14 16799.2)
(-184097 33564 -2.36416e-15 -4373.31 -1.09793e-14 -46763.3)
(60741.8 36088.9 3.96853e-14 3048.56 -1.26041e-14 15827.7)
(333848 26259.2 0 -2451.8 0 82226.1)
(171373 64571.3 -3.73087e-15 -2032.83 2.0823e-15 42016.8)
(209846 49064.5 -6.38974e-15 -1883.83 -4.72724e-15 51599.6)
(-11939.6 44319.2 -1.57268e-14 -3933.73 -9.88567e-15 -3938.49)
(20814.5 33983.7 0 897.548 0 5387.21)
(-87826.5 21947.4 -7.00467e-16 2241.49 8.29737e-15 -21235.4)
(-70039.5 25693 2.65512e-14 6638.45 3.14566e-15 -15731.1)
(-1503.97 49825.4 1.47727e-14 -2537.28 9.40369e-15 -1002.72)
(1465.21 75422.2 -5.5203e-16 1962.49 4.94504e-15 850.483)
(-380217 7340.25 -1.02219e-15 -2243.74 -1.17685e-15 -94896.2)
(449750 11900.1 1.05173e-15 -21266.7 2.34432e-15 106315)
(-14670.7 27050.6 1.28632e-14 1563.97 4.83452e-15 -3252.05)
(-51478.3 35757.1 9.67209e-16 264.079 -8.82346e-15 -12707.3)
(41565.1 34118.6 -8.4325e-15 1125.83 1.24628e-14 10592.5)
(-42160 32547.8 7.3112e-15 -3251.26 -1.31932e-15 -11267.5)
(425666 35340.9 -9.72868e-15 -2822.55 -3.40144e-15 104916)
(-6215.69 50573.7 6.24542e-15 3.41938 -1.03881e-14 -1541.39)
(-42279.7 33949.1 -3.93496e-15 -2129.83 6.94186e-15 -11018.9)
(31813.1 36141.7 1.14406e-14 -1618.89 -6.62618e-15 7491.8)
(280483 28163.5 1.18138e-15 2280.16 -5.79079e-15 70159.2)
(-40939.2 33458.1 -1.79875e-14 3019.69 -2.20913e-14 -9408.59)
(-92968.1 19699.1 1.2869e-14 -909.408 4.36701e-15 -23292.9)
(-75240.4 21897.7 2.92582e-16 4157.15 -2.25244e-14 -17637.2)
(-14332.2 29161 0 -1012.71 0 -3807.38)
(-202972 49054.3 -1.71212e-16 937.173 1.53114e-14 -50128.9)
(-9931.95 51403 -3.59978e-15 998.548 7.57461e-15 -2216.56)
(-10658.8 44784.5 -1.38831e-14 -2945.09 1.58241e-14 -3375.4)
(-10313 42796.2 9.73933e-15 -6255.11 -6.06083e-15 -4110.88)
(-406854 132791 -1.47839e-15 76983.9 1.57723e-15 -81847.6)
(415729 43139.4 -1.61908e-16 -3034.29 -4.18391e-15 102398)
(-58234.6 33695.7 -1.33013e-14 10121 -9.80055e-15 -11937.9)
(264712 23725.4 -7.1404e-15 1680.93 6.3447e-15 66097.4)
(-41346 28708.6 1.18912e-14 1971.23 -3.94636e-14 -9769.68)
(-31362.6 40378.4 2.21955e-15 7205.07 -2.15979e-15 -5993.97)
(-33977.6 42956.2 2.25707e-14 4968.77 2.30858e-14 -7197.69)
(-393962 2821.79 3.33154e-15 -1438.76 1.26876e-14 -98107)
(8396.89 33463.5 0 2125.29 0 2610.77)
(11150.8 42808.7 -2.35619e-14 -1296.34 -9.46394e-15 2445.09)
(7040.63 45359.2 8.16362e-15 4016.64 -7.15424e-17 2743.53)
(-8628.36 34925.1 5.92745e-15 -1034.38 1.70095e-14 -2397.52)
(-163529 39747.6 -3.39181e-15 -1926.39 2.06286e-14 -41052.9)
(55656 37206.3 1.89857e-14 208.92 -6.01241e-15 13861.2)
(-132091 32093.6 0 679.789 0 -32605.9)
(-111848 30323.8 -7.74883e-15 278.26 -7.91458e-15 -27682.7)
(68596.7 32942.4 8.76526e-15 1003.55 5.27467e-16 17269.2)
(-2953.55 46962 -3.05759e-14 -1140.38 -2.00068e-14 -1015.79)
(234402 52191.5 0 -1019.4 0 57907)
(-18521.3 44258.6 -6.488e-15 1727.15 -1.09695e-14 -4166.96)
(22451.3 27131.5 -3.80118e-15 1995.92 -5.57408e-15 6065.84)
(16871.6 31631 2.96715e-14 -1825.27 5.31235e-16 3733.29)
(14143.4 -10679.5 -2.10736e-16 -29889.2 -1.55734e-16 -3906.85)
(-745.124 2872.62 5.41027e-18 1715.73 -3.20019e-17 240.827)
(-14031.7 -10420.7 -1.30935e-16 29213.5 8.6809e-17 3766.91)
(-2797.68 48383.5 -9.51528e-15 -2825.42 -1.46486e-16 -1395.21)
(-67609.7 28416.5 -2.38082e-15 -939.25 1.00731e-14 -17008.4)
(13894.1 35597.1 5.25564e-15 -735.085 -1.50003e-14 3265.01)
(70306.6 31460.8 -1.16858e-14 -1808.26 -1.66437e-14 16995.8)
(-215071 51535.4 1.17626e-15 2485.25 2.35487e-15 -52746.8)
(-82659.6 56515.9 -6.89701e-16 1466.51 2.31956e-15 -20145.7)
(3924.27 49563.4 -1.47821e-15 144.806 -7.47394e-15 1009.62)
(39931.4 53882.7 -4.09229e-15 1136.32 -7.42212e-15 10189.7)
(-14227.4 34992.2 -9.12039e-15 2360.67 2.05081e-14 -2944.37)
(-11765.1 41495.3 -3.05211e-14 -675.125 -1.49936e-14 -3086.67)
(382785 29271.9 2.52432e-15 808.828 6.02473e-15 95177.5)
(116301 33043.3 3.37926e-15 -841.794 6.67227e-16 28647.8)
(148319 36719.9 6.55051e-15 -184.37 9.72068e-15 36755.3)
(99250.8 29129.4 2.23018e-14 1326.76 1.34094e-14 24955.3)
(-58971.1 37005.2 8.92747e-15 -4837.04 1.41674e-14 -15832.1)
(-73233.1 31994.2 -2.36917e-14 -2518.79 8.6105e-15 -18795.6)
(14477.1 30366.1 1.09745e-14 800.105 -5.83934e-15 3790.59)
(347659 39508.1 4.09589e-15 -179.985 2.53156e-15 86216.5)
(45577.7 26656.7 -7.42855e-15 -3761.83 -2.93138e-14 10375.4)
(-10325.3 46906.1 -2.53994e-14 2386.24 2.42357e-14 -1969.85)
(324723 46363.8 -5.10569e-15 -1058.05 6.43177e-15 80307.8)
(-14292.8 35456.2 -8.93736e-15 1774.44 -2.43773e-15 -3106.06)
(-41241.7 46239.7 -7.80478e-15 -1509.19 -3.41765e-15 -10607.4)
(8318.42 44090.9 1.81744e-14 -4271.98 -2.6474e-14 1004.01)
(9261.66 36465.7 -1.28866e-14 124.171 8.98343e-15 2328.82)
(-4579.95 38515.4 -3.70929e-15 -5160.14 -5.55441e-15 -2416.71)
(-18251.4 42876.8 -2.31145e-14 2735.9 -1.83621e-14 -3849.7)
(-1837.77 49217.6 -2.21883e-14 -2525.87 -1.70586e-14 -1082.71)
(-9246.5 48965.8 -1.33419e-14 -8246.94 1.49387e-14 -4340.48)
(825.05 46827.3 -8.73018e-15 -310.208 -8.47925e-15 127.743)
(3425.37 43220.8 4.3158e-16 19331.5 1.92661e-14 5646.44)
(-17691.4 19540.9 -1.46424e-16 -3988.15 9.36164e-15 -5379.13)
(-529227 -74507.2 4.83221e-15 27404.4 -2.64435e-15 -124512)
(-295367 46214.8 3.07702e-15 -1554.12 -4.55877e-16 -73672.3)
(63408.9 32720.4 1.00582e-14 4929.16 -9.96055e-15 16956.1)
(-155836 36285.7 -9.6462e-15 4038.17 6.19568e-15 -37664.1)
(73040.9 28013.3 -4.66308e-15 6548.8 1.40611e-14 19747.8)
(-123450 28785 3.64881e-15 4790.56 3.63999e-15 -29441.9)
(-105852 26321.8 -1.91346e-14 4334.94 1.49113e-14 -25188.4)
(52272.8 37776.3 9.80199e-15 2951.53 2.78319e-14 13702.3)
(-136149 33400.8 1.29358e-14 3677.24 -1.87369e-14 -32868.9)
(61770.2 32838.5 1.23868e-14 5025.88 -9.99673e-15 16573.5)
(-109219 26777.3 1.00859e-14 2753.06 -1.83089e-14 -26416.4)
(-93784.7 25044.8 -1.05528e-14 3259.87 -9.5361e-15 -22461.1)
(-90476.6 52395.7 1.03256e-15 8.23849 9.86052e-15 -22447)
(18414.3 42730.4 -4.85803e-15 -4948.45 -3.31958e-14 3341.16)
(22280.6 34664.4 -7.87309e-15 -1937.33 -2.3283e-14 5047.59)
(-30886.9 30209.7 -2.45318e-15 1719.04 1.48604e-14 -7237.14)
(120737 22095 -1.58962e-14 45.0179 -5.32437e-15 29968.4)
(-140241 14329.2 1.55326e-14 -2745.32 4.9479e-15 -35477.8)
(72322.9 29747.9 1.07563e-14 -3563.15 -1.00883e-14 17060.7)
(-81673.7 50144.2 3.44034e-16 1167.9 2.0894e-15 -19975.1)
(-33402.3 43017.4 -1.26776e-14 4405.32 -1.06651e-14 -7194.74)
(-34553.8 42378.4 1.08757e-14 2332.69 -1.00247e-14 -7994.72)
(1449.9 48079.3 8.27807e-15 2930.8 1.54341e-14 1086.94)
(-46958.2 36019.8 -1.86181e-14 4658.39 1.96152e-14 -10495.4)
(24915.3 35232.8 -9.80121e-15 -3806.63 -1.05456e-14 5237.49)
(15166.9 47253.9 -8.91471e-15 -760.725 7.01288e-15 3574.47)
(-65172 33623.3 1.51813e-14 4129.46 -1.03844e-14 -15145.9)
(-77943.9 32229.6 5.73212e-15 164.047 1.25175e-14 -19298.8)
(195009 31731.3 4.62489e-15 507.465 -1.24814e-16 48511.6)
(181.563 48848.5 4.3334e-15 1754.39 -2.15269e-14 480.349)
(429485 38940.8 -6.31379e-15 -5056.78 -3.52147e-15 105309)
(-39103.3 39261 -1.6069e-14 2466.56 1.12642e-14 -9090.32)
(259452 26586.6 0 -5390.89 0 63037.7)
(-56206 34028.4 5.62203e-15 2612.63 2.29762e-14 -13297.6)
(-65368.3 37110 -5.74288e-15 1651.11 7.02418e-15 -15809.5)
(-80688.8 43949.1 -6.75387e-16 1540.59 2.7077e-14 -19638.3)
(28846.9 37125.7 -1.2027e-14 -207.205 3.01767e-15 7106.08)
(19815.8 45123.5 -1.26771e-14 -1775.82 3.19569e-15 4476.08)
(-519267 14317.7 5.185e-15 -3935.9 -3.04144e-15 -129817)
(-209010 40668 -4.16258e-15 -193.835 8.50139e-15 -51907.7)
(60850.5 36259.5 -1.27072e-14 2735.73 -7.55921e-15 15777)
(68272.1 29367.7 3.65851e-14 -703.71 -1.99453e-14 16765.1)
(14611 42573.8 6.96253e-15 -3795.7 -1.83644e-14 2683.49)
(-63839.4 26747.4 0 1997.77 0 -15344.2)
(-69418.3 23907.4 1.91745e-14 4874.7 -9.88381e-15 -16014.6)
(318701 25882.2 7.32746e-15 -3648.24 5.00279e-15 78171)
(332207 15775.4 5.96671e-15 3889.3 5.52273e-15 83392.3)
(106637 30308.8 4.03229e-18 1029.28 1.12295e-14 26714.1)
(90215.4 26359.3 1.51604e-15 2808.62 2.57741e-14 23081.2)
(135989 32625.8 6.28432e-15 641.565 -8.97613e-15 33900.8)
(-60840.8 32662.5 -1.15775e-14 1165.1 1.0581e-14 -14806.8)
(-48182.1 39149.5 -1.1192e-14 -1340.67 1.24879e-14 -12287.6)
(24432.3 37910.1 0 919.198 0 6290.23)
(13174.3 47977.4 -5.02306e-16 1067.94 1.80561e-14 3533.8)
(44841.6 32851.4 -1.47132e-14 -1048.48 1.21636e-14 10866)
(-21640.4 31789.2 -1.17118e-14 -1057.59 2.83784e-14 -5631.83)
(-57292.7 54869.5 -2.97252e-15 -257.175 1.38504e-14 -14279.3)
(13247.6 44053.8 -4.05521e-14 -890.331 -1.09753e-14 3066.08)
(15889.1 35290 -2.85049e-14 1132.53 1.21274e-14 4223.41)
(-19446.4 44192.3 -5.47209e-15 1117.41 -7.46022e-17 -4547.8)
(-37853.4 43272.7 -5.65458e-15 142.205 -3.62814e-15 -9356.92)
(-31349.1 36982.2 3.52361e-15 -1121.06 -6.16563e-15 -8056.52)
(-43108 39626.6 0 -1449.35 0 -11055.6)
(-27866.8 61862.6 1.06799e-16 -1530.87 -9.47703e-15 -7294.16)
(-98311.7 16979.7 1.37886e-14 -4498.04 -6.05916e-15 -25509.2)
(115219 21219.5 -1.9222e-14 207.509 -1.76814e-15 28639.7)
(409398 87642.9 1.78276e-15 -97369.6 9.44932e-16 77420.7)
(-10603.7 47486.7 3.65178e-15 -189.868 -8.42952e-15 -2678.11)
(48776.9 25379.1 1.32567e-14 -594.622 -3.07924e-14 11955)
(-534007 -40806.6 4.54238e-15 54848.6 -3.39427e-15 -118889)
(21572.9 40913.9 5.80183e-16 3219.14 1.572e-14 6151.42)
(48952.4 27936.4 1.07484e-14 4500.27 -1.25029e-14 13262.7)
(52204.2 28543.9 1.50091e-14 -1706.42 -6.41021e-15 12529.5)
(-976.708 49709.9 1.12787e-14 52.4059 -1.70795e-15 -229.338)
(-1494.63 49960.3 1.19041e-14 -465.369 1.02787e-15 -486.316)
(82992.3 25211 3.93406e-15 -4417.48 1.42133e-14 19496)
(67987.8 32429.9 5.39124e-15 -4265.8 -1.33506e-15 15810.7)
(-69201.1 30100.6 0 -2281.57 0 -17736.3)
(-60666.5 29193.1 -1.27806e-14 -3042.94 -8.11356e-15 -15807.6)
(516829 -74361.9 -1.8783e-15 -28216.6 -1.45329e-15 121235)
(-109067 58962.9 -1.25932e-15 2319.29 1.74262e-14 -26486.3)
(-196432 48323.3 1.03702e-14 -2255.02 -6.43206e-15 -49298.2)
(-550020 -219416 -5.19293e-15 127402 2.11026e-15 -104860)
(453837 5524.23 0 6556.77 0 114233)
(-483010 -204981 -1.69808e-15 62330.7 5.40796e-16 -104379)
(53233.8 66968.4 -1.00073e-14 106.946 3.76604e-15 13234.9)
(-14674.4 44146.5 -1.15914e-15 -4750.96 1.63956e-14 -4819.83)
(-116747 44412.6 7.21748e-15 -154.099 -8.26826e-15 -29005.6)
(-93456.9 37218 1.03762e-14 1297.29 -1.26108e-15 -22866.7)
(-79088.3 34224.4 -1.12664e-14 883.326 3.87962e-16 -19404.2)
(39691.5 41559.2 8.52393e-15 1735.75 -2.42061e-14 10278.9)
(48378.9 35074.9 -2.16069e-14 1115.9 2.13072e-14 12280.7)
(6207.55 40621.9 -3.35637e-15 -3871.62 1.60452e-14 579.591)
(6700.86 32766.9 8.06757e-15 -2943.43 1.04876e-14 932.295)
(-29254.8 56060.6 -1.26695e-14 1160.89 3.52677e-15 -6970.66)
(-9670.43 30982.4 7.3035e-15 2432.87 -9.48713e-15 -1795.78)
(-306474 -124046 -1.33047e-15 -6886.44 2.77912e-16 -77751)
(21150.2 53598.8 -6.79936e-15 1783.14 -2.54816e-14 5690.23)
(-11583.3 34633.8 -1.81365e-14 -2250.94 -8.42816e-15 -3432.55)
(-47051.7 34576 0 332.837 0 -11591.9)
(22001.5 46842.9 1.85725e-14 818.788 -7.86028e-15 5662.18)
(-11140.6 37320.6 0 641.519 0 -2605.03)
(-13390 43377.9 -8.64171e-15 1418.36 -1.39467e-14 -2970.4)
(62686.3 28914.3 1.31459e-14 1594.75 -1.37711e-14 15949.4)
(64791.6 27429.5 1.96812e-14 -1286.72 9.50333e-15 15756.9)
(536794 -214257 -1.90586e-15 -126036 -6.48039e-16 101917)
(299872 -121501 2.25487e-15 6300.43 6.23547e-16 75967.6)
(-42052.9 35918.4 2.63297e-15 -254.473 3.81415e-15 -10497.3)
(-46363.3 38659.5 -7.97389e-15 -1189.62 -1.66539e-14 -11798.8)
(-123383 18702.8 -9.74469e-15 -2673.22 -2.33568e-15 -31277)
(101421 26912.2 2.09639e-14 -2591.66 -5.62799e-15 24521.5)
(47771.7 41271.3 6.28147e-16 767.793 3.69494e-14 12043.6)
(59156.6 36101.7 1.23659e-14 -747.592 1.37004e-14 14492.5)
(-151062 34758 -1.57851e-16 -2600.69 1.01599e-14 -38126.7)
(-122599 29882.8 -9.44049e-15 839.811 3.13361e-15 -30210.8)
(-102765 28315.6 -3.13264e-16 551.773 1.42831e-14 -25361.1)
(-341.471 49491.8 -1.87295e-14 -1323.83 5.52345e-15 -413.195)
(-193973 34423.3 7.15642e-15 -1253.31 7.76596e-15 -48439.5)
(51067.2 36627.2 -1.26806e-14 599.986 6.3263e-15 12819.7)
(56721.4 31419.9 0 -1777.17 0 13632.8)
(49543.8 31830.7 4.99223e-15 115.987 1.24021e-14 12321.6)
(14298.4 40180.3 -1.5798e-14 4249.94 -4.25374e-14 4602.23)
(-1229.62 49142.1 -1.39101e-14 -4736.87 -5.23242e-15 -1480.41)
(84363 52640.8 -2.73035e-14 4022.62 5.35248e-15 21930.3)
(-43762.3 28860.5 -1.75248e-15 -520.133 -1.37155e-14 -10987.4)
(6400.25 64724.9 3.02721e-16 -1779.62 4.60927e-15 1146.47)
(471523 -200664 -1.73656e-15 -62496.3 -4.46928e-16 101488)
(22014.6 33501.7 1.53884e-15 -2513.73 -2.58674e-14 4838.56)
(28093.7 34152 1.18624e-14 -1392.06 4.08068e-15 6625.22)
(-27167.3 37728.1 0 3540.48 0 -5862.3)
(-31878.8 38378.7 4.16995e-15 990.76 -1.18706e-14 -7663.95)
(65553.1 32915.3 0 2967.79 0 17001.4)
(78630 37668.9 8.49888e-15 723.692 8.32485e-15 19689.3)
(100058 42883.4 -2.0534e-14 86.2488 -1.85778e-15 24847.8)
(-53441.3 32973.5 2.28066e-14 -2235.26 2.34922e-14 -13814.5)
(-44666.5 38873.7 1.19314e-15 -2101.02 -1.39788e-14 -11604)
(-5937.98 49885.7 1.33502e-14 3900.42 7.24679e-15 -505.561)
(426787 35226.5 -3.23569e-15 -6037.39 -6.95413e-15 104397)
(-4453.89 38823.1 -1.45293e-14 -2157.3 4.593e-15 -1640.37)
(-3767.36 43657.7 -1.77905e-14 1948.19 -1.14117e-14 -451.372)
(5173.21 49280.7 1.03871e-14 -679.007 -2.46033e-14 1115.1)
(41771.9 33555 1.17195e-14 -2250.86 1.26388e-14 9805.97)
(-35395.3 19071.5 -1.85426e-14 -2462.67 9.46891e-16 -9393.34)
(50555.1 38473.8 0 -423.699 0 12438.6)
(495346 13213.5 8.27703e-17 -94269.6 3.41084e-17 99515.1)
(67368.2 21679 1.06456e-14 76.2046 2.44528e-14 16734.3)
(61437.5 24815.6 4.8186e-15 -2115.35 2.65623e-15 14719)
(-69395.6 31007.5 1.63304e-15 1297.66 3.44604e-15 -16896.5)
(-54088.9 35228.3 -1.234e-14 -962.662 3.99676e-15 -13659.4)
(-59909.3 31273.8 -2.56539e-14 3740.55 -4.57708e-15 -13936.6)
(-46300.4 35390 1.27068e-15 401.794 -1.36115e-15 -11388.4)
(186008 34061.7 -1.34752e-15 -30.8744 4.1172e-15 46144.8)
(149515 46775.4 7.451e-16 410.924 -8.46802e-15 37199.7)
(31270.7 35909.7 2.28073e-15 1465.93 1.36795e-15 8122.61)
(43671.3 35193.4 4.24941e-15 1824.75 7.40458e-15 11288.5)
(24317.6 40093.2 1.16584e-14 -2783.36 8.45493e-15 5343.09)
(37233.7 37575.8 1.04803e-14 -5610.18 -1.68168e-15 7846.44)
(-88906.3 43074.9 -2.47084e-15 -682.14 6.56211e-15 -22228.7)
(-111876 45892.7 -7.04483e-15 -1824.91 1.2569e-15 -28211.4)
(-39200.8 62581.9 8.69651e-15 -361.961 6.46604e-15 -9816.31)
(244783 43138.9 1.00328e-14 655.213 7.54822e-15 60898.1)
(267628 45904.2 -2.26643e-15 3601.77 1.18834e-15 67297.6)
(336185 42893.1 1.8132e-15 -2956.7 1.19659e-15 82680.6)
(16881 42809.1 -2.26135e-14 5700.03 2.79531e-14 5602.8)
(-66365.4 23346.2 -1.40796e-14 3558.03 -7.30972e-15 -15583.8)
(-60301 25724.9 -1.78692e-14 7081.66 1.2112e-14 -13204.8)
(309790 16356.4 0 6282.5 0 78423.9)
(305116 27819.2 0 -538.786 0 75571.8)
(102352 25458.8 2.62302e-15 -1779.84 1.41518e-14 24953.9)
(107022 22505.2 9.91493e-15 1646.88 -2.67429e-14 26963)
(-121904 19423.9 0 -3183.15 0 -31036.7)
(-116259 22776.1 0 825.652 0 -28641.4)
(6489.49 46456 -3.12173e-15 4255.3 9.11791e-15 2666)
(-23629.1 37817.9 3.36356e-14 -3665.46 -1.44865e-14 -6772.32)
(-59341.2 27000.6 -8.82099e-15 -2987.81 -3.29592e-15 -15465.1)
(551444 4860.94 0 12746.6 0 139987)
(-11740.6 46447.9 -2.20927e-14 -8696.02 -5.9462e-16 -5070.74)
(-10218.1 49266.9 -3.17895e-15 -6656.92 -1.80659e-14 -4187.04)
(26994.8 35405.9 -1.1621e-14 739.2 -8.07557e-15 6881.38)
(-25335.8 37843.3 -2.45829e-14 1350.92 1.0459e-14 -5951.14)
(21041.6 32113.5 7.63264e-15 -3669.05 -7.98359e-15 4310.47)
(-103299 24378.4 5.02709e-15 549.059 -1.0685e-14 -25494.3)
(91387.6 24110.7 -1.90184e-15 533.433 -1.31303e-14 22807.5)
(-286784 36144.2 2.52467e-15 -1227.01 -1.32558e-14 -71461.4)
(-554717 -26727.9 1.97969e-15 135332 -1.65663e-15 -104058)
(153386 67652.6 -2.94839e-15 -3543.76 3.91465e-15 37178.8)
(3558.72 34766.8 -1.30169e-15 -790.557 7.31404e-15 686.838)
(-93075.7 32339.4 -6.75511e-15 -4813.03 -1.82752e-14 -24288.2)
(76206.5 28918.3 -8.1742e-15 -3592.08 1.17839e-14 18017.1)
(-60552.4 26935.5 9.47464e-15 -2415.69 1.21965e-14 -15623.7)
(43218.6 30803.6 1.31913e-14 317.468 2.05481e-16 10802.2)
(4672.21 51498.6 3.52505e-15 -2837.66 1.69359e-16 455.189)
(20446.7 48314.4 -1.49128e-14 -1816.86 1.91398e-14 4622.43)
(-36894.1 42109.7 1.25212e-14 -2454.62 -1.36893e-14 -9763.22)
(-55850 48117.8 3.61002e-16 -470.063 1.7231e-14 -13974.1)
(-30487.4 37206.7 1.78688e-15 -2997.11 -1.31092e-14 -8308.18)
(-47011.6 42724.4 1.16507e-14 -1735.42 -4.30346e-15 -12095.1)
(7500 47596.9 -8.63023e-15 -906.522 2.79082e-15 1635.98)
(-3596.32 37990.5 -1.80769e-16 1237.97 -1.27687e-14 -585.153)
(-2844.42 45156.7 1.53293e-14 143.298 1.25221e-14 -670.202)
(-3269.07 49586.3 7.90154e-15 -1136.64 -1.75612e-14 -1093.15)
(279582 40540.7 7.21535e-15 -814.518 1.07829e-15 69168)
(-3238.62 39163.1 -1.80858e-14 -1288.98 -8.16766e-15 -1123.39)
(-12635.6 47329.2 8.59389e-15 -9477.7 -2.93261e-14 -5486.76)
(479348 16769 -3.82487e-15 -28386.4 -3.13557e-15 111893)
(36048.3 34968.3 9.21116e-15 -3662.69 -1.19672e-14 8035.53)
(-98622.3 47226.9 7.9822e-15 1273.16 2.24886e-15 -24154.3)
(-82177.4 25322.9 -1.04857e-14 1283.37 -4.65302e-15 -20071.4)
(-83621.9 24111.8 0 2175.32 0 -20208.6)
(93685.5 22350.2 -9.78445e-15 4414.62 -4.68335e-15 24340.6)
(86801.6 28872.8 3.3024e-16 4506.7 1.19208e-14 22655.4)
(-9991.44 42440.1 -1.01925e-14 3658.07 8.46542e-15 -1571.44)
(-7566.02 42522.9 7.42594e-15 2265.6 -4.20872e-14 -1315.14)
(-123121 56670 -5.93265e-15 -17.6143 -1.84982e-16 -30553.1)
(-163545 51083 0 827.176 0 -40373.6)
(133315 54752.8 3.4251e-15 803.036 9.51597e-15 33277.4)
(-368904 52459.2 1.43474e-15 1592.75 -5.32628e-15 -91137.5)
(1323.51 31904.3 0 -2476.32 0 -286.033)
(124515 42389.7 -7.63379e-16 3252.48 4.68818e-15 31701.7)
(90566.7 51604.5 -3.541e-16 4244.82 2.05726e-17 23524.7)
(-48224.1 35501 1.9206e-14 6199.61 -2.5008e-15 -10427.1)
(-38531.2 33541.1 -1.84009e-15 7860.31 1.37478e-14 -7610.08)
(-35550.4 38204.7 2.89946e-15 2300.8 -1.1299e-14 -8249.89)
(-24787 35787.8 -1.63888e-16 2884.3 6.64307e-16 -5434.51)
(-59277.5 30452.9 6.81437e-15 4478.12 1.02206e-14 -13596.8)
(-46318.8 33625.4 -1.1951e-14 9711.76 2.46606e-15 -9082.96)
(-38044.1 34160.8 0 2111.42 0 -8915.62)
(-47773.2 41260.8 -7.07995e-15 1768.59 6.28374e-15 -11414.7)
(-58174 48356.5 -6.18604e-16 3060.77 -7.16788e-16 -13674.7)
(14005.2 37701.4 -2.92938e-14 1801.65 -1.48676e-14 3922)
(-3915.29 48263 -6.50879e-15 -2573.43 1.32212e-14 -1609.98)
(75101.7 23298.1 -4.12444e-15 1893.72 1.1363e-14 19104.1)
(77267.1 26629.8 5.6268e-15 -2247.42 -1.07309e-14 18613.9)
(20164.2 44281.9 1.05472e-15 -5287.91 -7.44553e-15 3691.11)
(21656.5 35271.6 0 15.239 0 5377.2)
(-80289.8 54928 1.03085e-14 -2434.16 -1.17653e-14 -20525.5)
(51154.7 46666.3 -1.95274e-14 2147.33 -1.56526e-16 13225.3)
(55654.4 51074.8 -8.53295e-15 2962.37 -4.96239e-16 14544)
(-17267.1 39081 -1.20673e-14 -5341.66 1.76147e-14 -5609.68)
(-12427.5 38741.7 7.06711e-15 -3568.91 4.31729e-16 -3969.04)
(-24395.9 37357.8 1.1637e-14 3476.79 4.19857e-15 -5190.46)
(-27593.1 36611.6 0 3140.8 0 -6067.11)
(-155315 41673.1 4.48633e-15 665.725 -7.25079e-15 -38371.6)
(43769.6 35678.7 -5.47054e-15 2498.33 -2.25417e-14 11480)
(40242.9 41237.1 -2.52907e-15 669.411 -3.65742e-16 10151.2)
(-36548.9 95050.4 -2.56836e-15 3418.56 -2.11346e-15 -8220.32)
(111885 25787.3 -1.20511e-14 -2237.37 -7.32518e-15 27205.8)
(-137972 21258.8 1.11099e-14 2336.5 6.72864e-15 -33653.9)
(-49692.6 91776.1 0 -3867.25 0 -13289.3)
(-28557.4 43060.5 4.19884e-15 2825.44 1.29447e-14 -6384.62)
(-26050.9 44146.9 -3.16787e-14 4642.58 -8.1511e-15 -5311.85)
(-35476 32677.6 1.38007e-14 802.835 1.56601e-16 -8603.12)
(-31029.9 33233.3 0 2596.4 0 -7054.92)
(48555.1 40318.6 9.23665e-15 868.668 -1.49423e-14 12263)
(56265.5 43929 3.26542e-15 -1290.48 1.40897e-15 13640.4)
(38669.6 38132.1 -6.41705e-15 1572.75 6.2304e-15 9984.94)
(46472.4 40004.8 6.47652e-15 296.363 1.89728e-14 11604.3)
(30480.1 32419.6 4.94344e-15 3539.15 8.57419e-15 8440.86)
(36977.6 33949.2 -1.10225e-14 1336.43 6.3983e-15 9506.49)
(55440.1 27560.3 4.31364e-15 2910.81 1.65128e-14 14478)
(53777.2 25166.8 1.2691e-14 7659.16 2.75248e-14 15243.6)
(-145195 57046.9 -3.68346e-15 -911.644 5.15468e-15 -36252)
(38286.8 38885.3 -1.31583e-14 -1600.39 -3.14655e-16 9102.66)
(-105725 43565.7 0 -66.4336 0 -26249)
(179063 41931 9.84461e-15 -3212.76 -6.31351e-15 43632.1)
(-75264.4 29543.2 1.33387e-14 249.945 -2.24994e-14 -18612.6)
(-65864.2 30156.4 1.59897e-14 -757.863 -1.08998e-14 -16530.3)
(-417484 -197360 -1.63018e-15 74064.9 3.69671e-16 -85209.3)
(13420.8 47083.6 1.77788e-14 1352.53 -4.76213e-15 3665.56)
(197655 37943.4 -3.22941e-15 -1404.31 -1.25865e-16 48693.7)
(-76778.9 32806.8 -3.86374e-15 -702.154 -1.1128e-14 -19224.6)
(-65624.9 35180.4 2.32358e-14 -1741.95 1.16355e-14 -16715.1)
(426830 14955.4 6.02777e-15 291.558 2.69518e-15 105978)
(-16698.4 43606.4 -2.56103e-15 1759.48 1.04457e-14 -3706.66)
(222392 29370.1 8.51721e-15 1012.05 -5.42551e-15 55431)
(-54700.9 35264 8.00686e-15 1592.29 -1.43242e-14 -13177.3)
(-233483 51805.2 7.18921e-15 2708.19 -9.04687e-16 -57259.8)
(-220382 44430.8 -4.40179e-15 -2595.1 -3.88978e-16 -55325.1)
(196894 45664.4 -8.48132e-15 -1093.71 5.75764e-15 48582.1)
(-18380.4 37618.8 -3.63851e-14 2074.2 -1.68354e-14 -4045.89)
(-931.989 -10729.2 6.62113e-17 -16728.2 2.33778e-17 -4381.84)
(-7281.99 46827.3 0 2979.78 0 -1067.47)
(-551223 -171866 2.65663e-15 81815.9 -7.44618e-16 -116469)
(407694 -193300 3.09295e-15 -74135.8 1.00521e-15 82762.5)
(-148009 47655.6 8.27069e-15 -2515.99 -8.34857e-15 -37348.3)
(45883.2 38817.2 2.66002e-15 -1620.91 1.05039e-14 10982.4)
(47026.8 31505.8 -8.87366e-15 -2844.19 2.02331e-14 10962.6)
(26834.6 43480.9 1.7238e-14 -2390.14 5.24007e-15 6065.18)
(-42255 24573.8 1.00532e-14 1406.06 -1.56384e-14 -10135.4)
(17498.6 36421.4 -8.76704e-15 234.903 8.11614e-15 4400.04)
(-11738.4 35232 2.58622e-15 1253.58 4.02528e-15 -2601.5)
(-27781.2 62433.7 2.60747e-15 963.794 7.96873e-15 -6653.95)
(-416643 33076.4 -1.30795e-15 12364.6 3.69651e-15 -100310)
(3755.33 -6383.84 1.7331e-17 -11089.9 1.07234e-17 -1819.86)
(-59518.8 33370 -3.27771e-17 420.025 7.77131e-16 -14663.6)
(46093.5 31108.5 6.32465e-15 1072.81 2.02863e-14 11702.9)
(465253 -88558.4 2.48123e-16 -15257.7 3.97534e-16 111653)
(-5598.79 34297.4 -1.69415e-15 984.188 -1.33416e-14 -1144.98)
(-7660.11 37639.8 1.34682e-15 1971.97 1.3047e-14 -1411.34)
(-5187.24 33630.3 -2.33943e-16 2193.92 -2.04904e-14 -742.704)
(-21610.3 51562.1 -4.72608e-15 -951.172 6.66037e-15 -5597.97)
(5144.91 36612.1 5.64047e-15 150.247 1.48024e-14 1313.83)
(4541.24 44102.9 -1.30362e-14 -1795.23 -4.34033e-15 681.343)
(-475615 -89434.8 1.22327e-15 15061.3 -3.69573e-16 -114273)
(100596 55223.1 -7.60986e-15 -987.14 4.29993e-15 24715)
(-38611.4 42865.2 -3.48464e-14 4140.07 -1.00291e-14 -8553.04)
(68289 41572.5 2.32882e-14 5508.02 -3.9101e-14 18310.5)
(54935.5 35565 -5.70381e-18 4984.52 -1.40787e-14 14867.4)
(47626.4 31272.5 -3.7938e-14 2226.23 6.008e-15 12369.4)
(16014.5 37311.9 -1.71185e-14 4682.77 -6.50037e-15 5135.41)
(-220550 32926.2 1.24015e-14 -1710.73 -1.25837e-14 -55147.5)
(57250.3 33246.9 1.8542e-14 125.159 2.01124e-15 14236)
(64379.6 29498.4 -8.42696e-15 471.028 -1.23248e-14 16090.8)
(-22573.5 44270.2 -2.95849e-14 -716.488 -5.07927e-15 -5778.71)
(196358 63715.9 3.0712e-15 -2686.58 4.9331e-15 48053.8)
(28017.3 38757.9 -1.19812e-14 -3641.27 8.24726e-15 6048.18)
(-411827 35328 -5.20111e-15 -1003.9 -2.10358e-15 -102432)
(8419.76 44849.2 -1.54454e-14 2181.77 -1.32335e-14 2630.45)
(-30249.3 43756.8 -3.06724e-14 4216.03 1.47811e-14 -6459.37)
(47610.8 40412.3 2.86241e-14 4452.22 -4.39992e-15 12917.9)
(37295 34843.4 2.52438e-14 3177.41 6.13575e-15 10042)
(32926.2 30493.7 -1.76026e-14 1663.13 4.98394e-15 8582.32)
(208038 53581.3 3.63035e-15 510.613 8.69797e-15 51745.2)
(20889.9 37977.8 -1.03355e-14 680.908 -2.26132e-14 5352.17)
(-76179 44544 9.27176e-15 -739.58 2.43119e-16 -19085.1)
(-80870.3 63179.8 6.40881e-15 1118.07 7.43806e-15 -19788.1)
(-39118.4 39711.6 0 -274.814 0 -9774.26)
(-74782.9 35599.8 -1.08168e-14 163.567 3.3086e-15 -18514.6)
(-86350.7 38828 -1.71746e-14 416 -1.24648e-15 -21322.1)
(-106993 46421.8 -1.7928e-14 31.1846 8.81565e-15 -26539.3)
(45255.8 35255.9 2.81077e-16 66.1361 3.73298e-15 11245.3)
(36093.6 42602 4.60433e-15 -1336.08 -5.86747e-15 8624.05)
(27427.7 21728.3 -1.35783e-14 701.028 4.94489e-15 6979.31)
(23126.8 36224.4 0 -2230.17 0 5184.89)
(33041.9 33415.6 -1.57469e-14 -2697.49 9.52747e-15 7529.07)
(545685 2701.84 -1.44212e-15 -100039 -7.49173e-16 110574)
(71740.5 28355.8 1.74183e-14 -3524.09 -1.79247e-14 16925.9)
(-59704.4 32792.3 0 -1691.8 0 -15233.7)
(-46722.4 32416.8 -8.44846e-15 439.619 -3.99094e-16 -11483.7)
(33706.1 36939.6 4.27356e-15 -744.694 -5.3455e-15 8178.4)
(-12163.9 33097.4 7.04899e-15 -233.395 5.85167e-15 -3076.03)
(-8083.95 48674.3 2.01063e-14 1332.26 -1.61707e-14 -1675.23)
(-3014.44 33339 1.86448e-14 1353.2 -3.01465e-15 -412.187)
(-2413.77 39147.9 -1.02221e-14 1138.15 -9.75036e-15 -316.509)
(-8069.3 51009.5 -5.38418e-16 -3507.24 -4.60339e-15 -2872.37)
(431.698 30597.2 -3.87209e-15 -4.3027 1.32254e-14 106.046)
(-3659.13 35281.2 -1.41673e-14 -5936.32 1.0701e-14 -2380.83)
(934.087 48749.5 1.34779e-14 -7784.87 -6.23765e-15 -1699.82)
(19475.2 51226.4 -1.48267e-15 1348.29 -7.56639e-15 5166.74)
(-72560.7 72479.4 -3.92848e-16 1306.62 -4.22795e-15 -17679.6)
(12048.2 45039.9 3.37262e-14 -1997 -6.76285e-15 2493.9)
(-5233.34 71605.3 2.26519e-15 -3711.79 3.56356e-15 -2219.47)
(-120962 62092.6 -5.37074e-15 -1790.02 -3.39154e-15 -30457.4)
(87019 40432.4 1.47822e-14 4010.29 1.36791e-14 22586.2)
(-43663 33752.2 -1.30524e-14 512.555 4.32207e-15 -10706.5)
(-370759 111507 -1.07301e-15 85870 7.10931e-16 -70686.8)
(-40481.5 41261.7 9.22334e-15 -2895.76 1.02289e-14 -10762.8)
(-59507.7 56193.9 0 -1304.88 0 -15088.8)
(13820.3 42229.8 1.7985e-14 -5603.4 -2.52945e-14 2038.77)
(16083.2 33265.4 9.61535e-16 418.498 3.18687e-15 4094.4)
(412746 -90948.7 -3.43422e-16 11892.7 6.54901e-17 105361)
(-430696 23413.2 -4.04102e-15 1123.56 1.87813e-15 -106586)
(54267.7 33295.7 6.52697e-15 8019.78 5.61539e-15 15454.8)
(68013.9 39320.5 -7.40259e-15 7476.79 1.58397e-14 18730.8)
(-38322.2 44184 -4.26405e-14 6864 -1.54443e-14 -7805.42)
(9766 37869.3 8.19379e-15 -606.298 1.65209e-14 2272.71)
(-8490.49 44969.6 1.20526e-14 -6289.69 1.87156e-14 -3667.26)
(-237822 -155393 -2.88996e-16 19204.9 1.22782e-16 -54243.4)
(-375551 30834.1 1.38242e-15 2441.53 1.73207e-15 -92576)
(365437 31750.3 7.60259e-15 -1735.69 -3.92298e-15 90241.8)
(-598847 -1425.24 -2.12858e-15 -3343.33 -9.65183e-16 -149416)
(74458.6 27168.6 -5.41583e-15 574.296 -8.71637e-15 18617.2)
(55549.2 28732.6 -9.24008e-15 1023.46 3.34287e-14 14036.8)
(-76930.9 31658.1 0 1755.95 0 -18652.4)