/*--------------------------------*- C++ -*----------------------------------*\
| =========                 |                                                 |
| \\      /  F ield         | OpenFOAM: The Open Source CFD Toolbox           |
|  \\    /   O peration     | Version:  2.3.1                                 |
|   \\  /    A nd           | Web:      www.OpenFOAM.org                      |
|    \\/     M anipulation  |                                                 |
\*---------------------------------------------------------------------------*/
FoamFile
{
    version     2.0;
    format      ascii;
    class       volSymmTensorField;
    location    "1760";
    object      sigma;
}
// * * * * * * * * * * * * * * * * * * * * * * * * * * * * * * * * * * * * * //

dimensions      [1 -1 -2 0 0 0 0];

internalField   nonuniform List<symmTensor> 
11800
(
(97390.7 61396.1 4.73223e-14 -2294.94 2.51033e-14 23595.2)
(-50634.7 57969.8 7.2644e-14 -2378.14 2.30811e-14 -13153.6)
(426558 71842.5 -1.14046e-15 1039.59 -5.32079e-14 106096)
(-373875 43183.9 0 1493.32 0 -92395.3)
(-52065 55727.4 1.35544e-14 -6827.65 -3.83534e-14 -14612.5)
(-235037 75873.9 5.29021e-14 2906.12 2.77889e-14 -57596.3)
(-43327.3 73845.8 9.94905e-14 -721.43 -2.59045e-14 -10929.4)
(-60514.8 74352.2 -1.48431e-14 1348.3 5.98248e-14 -14680.4)
(134238 49152.4 2.04115e-14 396.396 -1.39957e-14 33405.4)
(88646.8 77948.8 -5.14956e-14 1502.81 -4.34418e-14 22368)
(112745 53099.4 -3.94787e-14 264.72 3.38418e-14 28040.1)
(-542283 33563.2 -4.7635e-14 -4251.11 -2.16547e-14 -135606)
(16718.8 -24312.9 9.07137e-17 -45109.8 7.04921e-17 -7044.4)
(395714 43217.8 4.32819e-14 2883.37 -1.18797e-14 98900.2)
(-318883 70887.6 -3.5905e-14 6828.96 2.79616e-14 -77426.9)
(1.54811e+06 1060.49 0 -4172.58 0 383082)
(-28503.3 60993.9 3.36672e-14 2135.53 2.97478e-15 -6542.38)
(-43597.5 55683.1 -1.90319e-14 4850 1.09519e-13 -9614.04)
(91415.9 93497.3 -2.00249e-14 -13133.1 1.42863e-14 19423.5)
(67184.1 51637.7 -6.85432e-14 -6279.88 -2.2195e-14 15111.6)
(-295038 48213.1 2.12803e-14 770.917 2.23278e-14 -73013.5)
(-473801 66824.8 3.4089e-14 2207.89 -1.98476e-14 -117012)
(-667977 90970.2 -1.78831e-14 8472.9 1.15867e-14 -163636)
(-613171 58363.3 1.83829e-16 274.159 3.13373e-15 -152072)
(1.25647e+06 64568.2 2.09895e-15 -5546.78 2.57507e-14 310380)
(-790155 89476.9 -1.75155e-14 5152.55 -5.21134e-16 -194775)
(-791702 47284.8 0 6596.56 0 -194801)
(388573 37420.9 -5.61419e-14 -5451.82 -3.39476e-14 95060.1)
(-870289 48975.8 -1.00298e-14 7785.24 -4.76765e-14 -214005)
(-951705 50095.2 1.31978e-14 8007.96 -2.06479e-14 -234150)
(259568 40670.5 -6.94872e-14 -1377.28 -1.2472e-13 64062.3)
(51238.9 58300.1 -1.1712e-14 1875.53 -9.78593e-15 13178.8)
(796155 85250.9 -2.81675e-15 9117.67 -1.25417e-14 199804)
(-21233.5 67166.2 9.09217e-15 -653.793 -6.81513e-14 -5430.68)
(13803.9 69636.9 -2.40273e-14 3792.85 -1.03318e-13 4366.1)
(-255387 32355.7 -6.3098e-14 2888.45 -4.58818e-14 -62650)
(14523.9 69846.8 8.5353e-14 2573.69 -1.01676e-13 4242.26)
(853586 55409.3 -1.03389e-14 4373.7 -4.50385e-14 212877)
(-30271.3 66385.5 0 -3329.68 0 -8337.09)
(64212.9 61853.8 -2.97087e-14 3850.88 5.54069e-14 16888)
(-831942 38203.9 -5.32671e-14 -3848.14 -2.48144e-14 -207377)
(-914291 38744.5 3.82427e-14 -3886.4 -2.19886e-14 -227818)
(407805 47919.1 -2.16145e-14 -2793.91 -7.21828e-14 100491)
(-1.00002e+06 40060.6 -7.45237e-15 -5210.1 -3.92006e-14 -249417)
(272534 48784.4 1.84743e-13 1947.31 -5.77212e-14 68104.4)
(1.4455e+06 42616.1 0 -5462.86 0 357303)
(632443 97513 -1.13166e-14 -2766.3 5.97203e-15 156236)
(755290 44399.1 -1.99092e-14 -8145.72 -1.39316e-14 185382)
(-68838.6 68040 -7.32535e-14 -1277.14 -4.52031e-14 -17397.1)
(157344 64337.4 0 1919.97 0 39516.7)
(-559645 38279.3 -3.51043e-15 2488.25 3.77134e-14 -138242)
(-394154 37471.3 1.22904e-13 4681.27 1.44256e-14 -96636)
(-8178.24 68965.4 6.88273e-14 -411.102 4.29301e-14 -2131.19)
(28054.2 108551 -1.58549e-15 5848.76 1.38524e-14 8412.02)
(-1.66157e+06 6628.94 -2.48425e-15 -8718.92 -3.75788e-15 -414434)
(1.34913e+06 -49230.4 3.22791e-15 -62080.7 5.87144e-15 319344)
(-45558 23325.5 5.92973e-14 1750.71 2.20433e-14 -10869.5)
(-354958 74579.3 4.44115e-15 -3588.64 -3.72017e-14 -88962.7)
(282192 51632 -3.76519e-14 5934.24 5.51841e-14 71489.9)
(-253589 76431.1 3.10377e-14 -5869.21 -5.60418e-15 -64376.8)
(1.38284e+06 25963.8 -2.84541e-14 -10473.6 -9.87551e-15 340512)
(-34621.7 71803.2 2.91278e-14 494.678 -4.74856e-14 -8467.6)
(-280449 63170.3 -1.69995e-14 -2643.01 2.93028e-14 -70240.9)
(221225 63405.9 5.13605e-14 1137.23 -2.93392e-14 55172.6)
(1.24264e+06 18237 3.15061e-15 556.047 -1.8586e-14 308461)
(-177936 33550.1 -8.3385e-14 2499.26 -1.00895e-13 -43529.5)
(-578305 20791.4 5.88487e-14 2421.08 1.96569e-14 -142888)
(-411749 23204.6 1.64486e-15 4115.37 -1.03169e-13 -101142)
(-46837.2 25074.3 0 -2543.25 0 -12252.3)
(-736827 55230.3 -1.30704e-15 7095.67 4.60728e-14 -181061)
(-17749.3 70778.7 -1.67007e-14 435.812 3.4532e-14 -4295.83)
(-36488 57165.4 -6.4343e-14 -3148.34 7.20916e-14 -9834.58)
(-32404 55517.5 4.51281e-14 -3479.92 -2.76572e-14 -8903.54)
(-1.1459e+06 263737 -4.1051e-15 151014 3.79227e-15 -246853)
(1.3691e+06 59604.4 -1.03029e-15 -5337.15 -1.14267e-14 338377)
(-240374 44827 -6.19874e-14 6048.54 -4.5128e-14 -58140.8)
(1.29215e+06 17407 -2.35777e-14 3195.37 2.09878e-14 321401)
(-173435 23792.8 5.48211e-14 737.214 -1.80086e-13 -42849.8)
(-128874 42169.2 1.0306e-14 2914.28 -9.85043e-15 -31253.1)
(-123554 51491.9 1.052e-13 3380.37 1.05652e-13 -29817.6)
(-1.67804e+06 -27781.1 8.90215e-15 6174.17 4.08116e-14 -414825)
(69007.4 48963.9 0 6378.1 0 18704.7)
(39283.4 57748.2 -1.0939e-13 633.904 -4.31665e-14 9904.29)
(26961.9 61506.5 3.79244e-14 2367.92 -3.01944e-16 7277.32)
(-55480.7 54541.1 2.61556e-14 -5696.21 7.41187e-14 -15179.2)
(-924505 61127.3 -1.46357e-14 -5371.83 7.50611e-14 -230721)
(278329 46145.1 8.83174e-14 2740.03 -2.75119e-14 69738.9)
(-843750 57313.4 0 -4291.28 0 -210416)
(-767751 55838.1 -3.09741e-14 -3954.51 -3.17143e-14 -191476)
(408102 43209.6 4.05201e-14 3753.49 2.4689e-15 102190)
(-9281.52 67475.7 -1.42592e-13 -2226.53 -9.15907e-14 -2855.38)
(943169 79342.8 0 -2989.47 0 233278)
(-76294.6 60479 -3.02507e-14 1788.22 -5.02285e-14 -18486.5)
(52273 20551.1 -1.74604e-14 3741.85 -2.53605e-14 13898.4)
(111422 57541 1.34498e-13 107.932 2.4047e-15 27672.9)
(38696.6 -29197.3 -5.77465e-16 -82232 -4.28076e-16 -10802)
(-2047.8 8008.44 1.49984e-17 4807.37 -8.92091e-17 684.704)
(-38962.9 -28937.5 -3.64545e-16 81815.2 2.42899e-16 10632.5)
(-9240.52 68914.1 -4.43327e-14 -1030.48 -6.47935e-16 -2548.44)
(-471783 45327 -1.09156e-14 -2078.88 4.37933e-14 -117575)
(36411.4 37376.5 2.43717e-14 -315.727 -6.8281e-14 8956.07)
(511230 50373.3 -5.29429e-14 -5259.26 -7.34486e-14 125542)
(-893300 87766.9 3.68671e-15 785.504 7.49647e-15 -221451)
(-297452 66822.1 -2.26667e-15 4980.72 7.20195e-15 -72568)
(459.242 72924.6 -6.84408e-15 -430.47 -3.40936e-14 7.13891)
(226507 83081.6 -1.45531e-14 2012.25 -2.5291e-14 56700.2)
(-104468 59093 -4.19983e-14 506.975 9.27594e-14 -25794.8)
(-73538 62680.1 -1.42039e-13 -650.189 -6.85957e-14 -18407.6)
(1.35082e+06 23520.9 8.28105e-15 3082.74 1.75096e-14 335931)
(843978 51160.1 1.32618e-14 2539.94 2.69046e-15 210038)
(925802 53100.4 2.54382e-14 3347.58 3.5632e-14 230541)
(768851 49232.5 9.25077e-14 3207.88 5.48973e-14 191564)
(-282933 47033.1 4.14043e-14 -4193.95 6.47201e-14 -71242)
(-414756 44943.8 -1.0959e-13 -3749.79 3.94248e-14 -103840)
(147266 54129.8 4.71636e-14 254.167 -2.47608e-14 36602.8)
(1.21719e+06 36211.5 1.25667e-14 -132.58 7.45029e-15 301977)
(168044 29474.2 -3.41059e-14 -3309.27 -1.34165e-13 40874)
(-51644.2 64918.4 -1.18174e-13 1457.84 1.10668e-13 -12452.3)
(1.13967e+06 64019.3 -1.45374e-14 384.341 1.81442e-14 282870)
(-92419.8 80574.6 -3.86716e-14 694.7 -1.04219e-14 -22758.9)
(-152160 44872.2 -2.71458e-14 1676.21 -1.14781e-14 -37338.1)
(44641.2 73992.3 8.46578e-14 -3178.85 -1.21342e-13 10287.7)
(62756.2 75631.2 -5.91334e-14 -1134.99 4.07145e-14 15289.5)
(-44144.1 61803.3 -1.71799e-14 357.43 -2.53723e-14 -10864.4)
(-79888.2 57637.9 -1.07607e-13 399.905 -8.40809e-14 -19722.7)
(-2552.2 68452.2 -1.03419e-13 -2530.08 -7.79448e-14 -1261.02)
(-26116.3 68195.1 -6.20082e-14 -3885.2 6.8224e-14 -7443.99)
(-4691.32 68504.5 -4.05409e-14 -1424.25 -3.86921e-14 -1517.4)
(7007.77 51289 1.93316e-15 31647 8.65614e-14 9591.04)
(-29826.6 11465.5 -3.15969e-16 -6843.34 4.12187e-14 -9098.56)
(-1.47242e+06 -233310 1.32528e-14 62666 -6.76573e-15 -349789)
(-1.03532e+06 62264.7 9.43026e-15 -7773.58 -1.43408e-15 -258814)
(304959 41728.6 4.67453e-14 4199.23 -4.5636e-14 76708.4)
(-918863 61675.4 -3.68407e-14 2372.72 2.31901e-14 -227400)
(435830 37992.6 -2.11405e-14 5172.92 6.39462e-14 109422)
(-835969 57122.8 1.40466e-14 2643.97 1.41068e-14 -206765)
(-760054 54944.9 -8.03122e-14 2705.96 6.14868e-14 -187913)
(253638 55430.3 4.57306e-14 -1628.55 1.27683e-13 62528.6)
(-786996 32329.5 5.02456e-14 6602.22 -6.94217e-14 -193631)
(365372 55958.4 5.69228e-14 -1477.15 -4.53666e-14 90289.6)
(-716861 30579.9 4.13931e-14 5536.1 -7.16285e-14 -176494)
(-652119 31128.7 -4.29508e-14 5571.27 -3.86887e-14 -160422)
(-380477 76568.2 3.29279e-15 10738.5 3.29396e-14 -91739.6)
(110162 63432.2 -2.28204e-14 -5387.9 -1.52371e-13 25996.5)
(156326 59668.2 -3.65561e-14 -5382.25 -1.05851e-13 37452.3)
(-230770 58291.9 -1.10479e-14 7619.19 6.39521e-14 -55368.1)
(927070 37395 -7.01505e-14 1074.93 -2.36434e-14 230291)
(-963615 -5793.31 6.7564e-14 -8341.1 2.09505e-14 -241162)
(537735 39950.3 4.74733e-14 -3021.2 -4.42402e-14 132673)
(-294884 45931.3 1.09369e-15 5224.5 6.51592e-15 -71870.5)
(-131267 61320.3 -5.92054e-14 3054.17 -4.8985e-14 -31812.3)
(-137344 53492.7 5.06703e-14 -684.558 -4.59087e-14 -34247.7)
(13678.4 68702.4 3.85191e-14 2107.05 7.04686e-14 3916.68)
(-194006 46305.1 -8.66397e-14 1402.85 8.99606e-14 -47788.8)
(160448 53213.3 -4.5489e-14 -4296.07 -4.8138e-14 38744.5)
(107957 62669.7 -4.16366e-14 1250.1 3.21411e-14 27096.5)
(-351810 49671.9 7.05209e-14 6308.75 -4.7531e-14 -85725.9)
(-489307 53668.1 2.57614e-14 2083.53 5.63222e-14 -120890)
(1.02507e+06 25319.8 1.63004e-14 1422.7 -2.38825e-16 254694)
(-4238.73 71168.1 2.02199e-14 336.746 -9.85049e-14 -968.162)
(1.5355e+06 64801.5 -1.92808e-14 -10350.9 -1.05378e-14 378420)
(-159918 55279.6 -7.48368e-14 1623.52 5.16338e-14 -39276)
(1.29796e+06 42849.4 0 -14341.6 0 318492)
(-363165 56040.4 2.24262e-14 -2441.19 9.3455e-14 -90714.4)
(-399002 57064.8 -2.29842e-14 -3254.49 2.73489e-14 -99808.1)
(-436991 60161 -3.63596e-15 -3524.56 9.94831e-14 -109301)
(195363 59982.9 -5.55936e-14 432.623 1.36975e-14 48581)
(132625 63538.6 -5.92001e-14 -413.803 1.46405e-14 32804.3)
(-1.68938e+06 -6580.82 1.53476e-14 -7368.22 -8.78403e-15 -420998)
(-1.01362e+06 60734.2 -1.54175e-14 -5748.82 2.92943e-14 -252925)
(342870 45459.2 -5.91192e-14 4051.38 -3.4643e-14 86078.1)
(471799 41505.7 1.66625e-13 3138.97 -8.96642e-14 117842)
(55329.9 66536.9 3.25046e-14 -6343.88 -8.41559e-14 12154.4)
(-285838 33205.3 0 1797.91 0 -70476.2)
(-291430 22022.4 8.8867e-14 382.436 -4.52252e-14 -72214.8)
(1.43642e+06 45706.9 2.47656e-14 -10590.1 1.65616e-14 353778)
(1.47244e+06 -2026.68 2.04946e-14 9854.63 1.8197e-14 367789)
(747901 27955.4 1.12372e-15 -128.191 4.28794e-14 185538)
(681813 27941.1 8.46524e-15 872.048 1.0357e-13 169388)
(819875 27071.2 2.23133e-14 -940.613 -3.2229e-14 203194)
(-349805 56866.7 -5.36645e-14 3259.16 4.8351e-14 -85985.1)
(-235053 56504.3 -5.20076e-14 1630.31 5.7123e-14 -57916.9)
(151312 73549.1 0 1467.05 0 37907.5)
(101700 75077.3 -2.18413e-15 903.22 8.27965e-14 25457.9)
(330444 58469.1 -6.42832e-14 -520.73 5.26172e-14 81860.7)
(-141181 55872.1 -5.13837e-14 1300.79 1.22093e-13 -34707.1)
(-231341 84186.2 -1.04176e-14 2332.23 4.62967e-14 -56821.8)
(68099.7 62583.5 -1.89462e-13 -856.235 -5.03477e-14 16684.5)
(96028.7 57768.2 -1.31346e-13 -248.452 5.50325e-14 23765)
(-63043.9 69048.1 -2.55332e-14 1772.83 -3.56554e-16 -15202.6)
(-173720 53012.8 -2.16162e-14 3372.8 -1.35377e-14 -42266.7)
(-158014 51625.4 1.42076e-14 2478.76 -2.43212e-14 -38591.3)
(-161275 41300.4 0 -814.13 0 -40217.5)
(-81387.8 87898.2 3.08551e-16 -3813.17 -2.90131e-14 -21140.1)
(-706103 9260.12 6.23694e-14 -6103.02 -2.73167e-14 -176713)
(890343 43057.6 -8.16419e-14 -3793.72 -8.15162e-15 219971)
(1.19663e+06 140076 5.06721e-15 -215352 2.57621e-15 243475)
(-28698.8 62580 1.69161e-14 -2214.49 -3.83989e-14 -7670.22)
(175887 25344.8 6.17185e-14 1127.7 -1.41077e-13 43921)
(-1.50758e+06 -178599 1.27007e-14 126892 -8.37496e-15 -342578)
(81437.7 50982.7 2.64291e-15 3587.87 7.17204e-14 21096.6)
(218251 35442.1 4.98515e-14 2393.74 -5.72802e-14 54746.4)
(240448 38034.3 6.96014e-14 -3916.65 -2.93954e-14 58688.1)
(-3207.02 71197.3 5.24023e-14 -3.54952 -7.78451e-15 -796.607)
(-3810.56 73067.9 5.52783e-14 -551.285 4.68221e-15 -1082.26)
(644870 31659.9 1.77708e-14 -4875.45 5.95856e-14 158796)
(533960 70728.8 2.27505e-14 2628.25 -5.50147e-15 133138)
(-484155 59256 0 3488.86 0 -119263)
(-414665 37546.1 -5.74778e-14 -7340.1 -3.60012e-14 -104708)
(1.46388e+06 -235262 -5.31727e-15 -64253.1 -3.65925e-15 347275)
(-433739 95087.1 -4.6994e-15 11471.8 5.56579e-14 -104773)
(-700472 42262.8 3.28531e-14 -2347.62 -1.94794e-14 -174384)
(-1.53071e+06 -615489 -1.43611e-14 325981 5.64716e-15 -298917)
(1.76585e+06 4214.14 0 24351 0 444186)
(-1.34095e+06 -570637 -4.67579e-15 154644 1.45271e-15 -294346)
(224188 97313.8 -3.13446e-14 159.08 1.11385e-14 55665)
(-50724 59375.3 -5.34695e-15 -2600.35 7.48505e-14 -13230.9)
(-647638 71455.8 2.72696e-14 -5079.17 -3.01188e-14 -161952)
(-586461 68971.5 4.05032e-14 -4019.97 -5.04599e-15 -146510)
(-533855 66627.2 -4.59946e-14 -3746.54 1.76728e-15 -133390)
(190434 52895 3.96835e-14 3019.1 -1.10826e-13 47999.5)
(281737 49068.3 -9.97587e-14 3390.83 9.70785e-14 70746.1)
(28294.2 60808.3 -1.56564e-14 -6145.19 7.35728e-14 5495.61)
(39496.3 55899.4 3.714e-14 -7462.19 4.76378e-14 7948.31)
(-98171.4 90510.3 -4.36587e-14 14658.3 1.1852e-14 -20721.3)
(-58644.7 53849.5 3.18094e-14 10388 -4.07502e-14 -11973.4)
(-841057 -338607 -3.62688e-15 -20746.2 7.57374e-16 -213831)
(144186 90678.1 -2.4666e-14 10931.9 -8.79361e-14 38487.8)
(-71009.4 55157 -8.30104e-14 -6253.42 -3.80012e-14 -19170.5)
(-332902 80019.8 0 237.747 0 -82540.9)
(144256 56771.3 6.5597e-14 1078.06 -2.68848e-14 36060.3)
(-70150.6 70736.3 0 -111.969 0 -17433.6)
(-54384.3 61125.9 -4.02402e-14 35.0246 -6.38282e-14 -13485.2)
(492301 58764.9 5.69248e-14 3217.38 -5.95383e-14 122948)
(506180 41189.8 8.69423e-14 -553.917 4.1568e-14 125456)
(1.52386e+06 -612881 -5.3572e-15 -325139 -1.77851e-15 297427)
(837407 -337476 6.26834e-15 20628.5 1.7205e-15 212896)
(-161407 46197.6 1.22682e-14 971.689 1.74807e-14 -39807.4)
(-172893 47860 -3.72635e-14 -2215.27 -7.63117e-14 -43448)
(-885539 8538.01 -4.15118e-14 -4385.3 -9.55572e-15 -220808)
(712543 42453.9 9.35164e-14 -3490.43 -2.45008e-14 175930)
(234758 57894.4 3.03571e-15 -1453.14 1.69133e-13 57887.6)
(348341 59250.6 5.74303e-14 -2537.2 6.25493e-14 85800.9)
(-826931 28190.9 -1.45863e-15 -1566.52 3.66806e-14 -205567)
(-756764 29064 -3.69759e-14 -249.591 1.22351e-14 -187830)
(-688914 30061.7 -2.3489e-15 -446.485 5.73108e-14 -171044)
(-9878.73 72207.3 -8.72367e-14 -1082.99 2.52692e-14 -2719.83)
(-908334 28796.8 2.43689e-14 -2104.96 2.62447e-14 -225898)
(291202 56345.7 -5.88567e-14 -1653.34 2.89106e-14 71842.9)
(404043 57188 0 -2994.19 0 99508.4)
(382921 47469.1 2.25276e-14 -2584.57 5.39715e-14 94369.1)
(74911.2 59674.6 -7.37088e-14 2265.32 -1.95147e-13 19149.1)
(5480.54 65149.2 -6.46096e-14 -7189.05 -2.38039e-14 -423.918)
(333487 43968.5 -8.56984e-14 11018.9 1.55193e-14 85478.9)
(-271743 48082.5 -7.14284e-15 -1066.81 -5.76192e-14 -67689.6)
(42430.3 70826 9.90641e-16 -10196.8 1.26778e-14 7997.81)
(1.33462e+06 -568767 -4.8518e-15 -154691 -1.22389e-15 292764)
(189201 64089.3 5.96264e-15 -2703.95 -1.09321e-13 46273.6)
(228747 63111.1 5.08124e-14 -530.328 1.73028e-14 56625.2)
(-152757 63186.2 0 1197.91 0 -37604.9)
(-181232 69302.9 1.8847e-14 -3916.38 -5.25704e-14 -45939.1)
(529786 65847.5 0 5978.24 0 132934)
(582020 68977.8 3.37917e-14 5423.26 3.21651e-14 145757)
(637000 72979.8 -7.61693e-14 5389.5 -7.31786e-15 159390)
(-284348 46493.1 1.05299e-13 -4305.99 1.07065e-13 -71621)
(-194683 51070.8 5.5168e-15 -3222.38 -6.39801e-14 -49104.2)
(-11989.7 70324.5 6.21344e-14 1383.27 3.313e-14 -2631.66)
(1.35431e+06 20660.9 -1.00633e-14 -20938.4 -1.87564e-14 330836)
(-9321.83 74425.6 -6.72679e-14 -4492.76 2.09812e-14 -3427.68)
(13896.3 47838.5 -6.58575e-14 8010.18 -4.11229e-14 5435.45)
(28176.4 67473.2 4.82876e-14 535.743 -1.12236e-13 7124.05)
(299174 63127.2 5.18211e-14 -771.608 5.48654e-14 74039.7)
(-124373 10508.4 -8.55228e-14 -2870.71 4.20561e-15 -31571.7)
(393481 70641.1 0 -2466.18 0 97018.6)
(1.43916e+06 -48857.5 2.34462e-16 -210328 9.45922e-17 304899)
(304993 21601.8 4.93423e-14 4055.78 1.12336e-13 76681.4)
(291788 30330.8 2.23688e-14 -4794.79 1.21993e-14 71208.9)
(-430856 58569.1 7.38805e-15 4357.53 1.55883e-14 -105823)
(-307192 56722.6 -5.73243e-14 2763.19 1.83733e-14 -75534.9)
(-367648 41398.2 -1.17499e-13 -15.1237 -2.05967e-14 -91224.7)
(-263820 45224.6 5.91459e-15 -1550.85 -6.22887e-15 -65844)
(945278 25979.6 -4.27334e-15 -2155.71 1.39636e-14 234008)
(780958 77551.7 1.82949e-15 210.025 -2.88629e-14 193824)
(216036 68124.2 1.04069e-14 -1916.1 6.16261e-15 53127.4)
(291326 58782.1 1.95193e-14 588.735 3.32814e-14 72429.9)
(158913 68147.9 5.41957e-14 -3755.22 3.86668e-14 38497.9)
(215050 58893.4 4.86139e-14 -3251.97 -7.70495e-15 52551.5)
(-429884 48941 -9.17741e-15 3731.72 2.31556e-14 -105737)
(-563482 68293.1 -2.55159e-14 713.046 4.58514e-15 -139634)
(-134152 102034 2.86115e-14 -693.797 2.0517e-14 -33458)
(948338 51236.9 3.20583e-14 3933.43 2.3125e-14 236278)
(1.02915e+06 52025.1 -6.97616e-15 16742.5 3.48847e-15 259508)
(1.22677e+06 51675.2 5.65505e-15 -2289.21 3.58174e-15 303819)
(81475 65842.3 -1.05349e-13 2271.33 1.28081e-13 20779.2)
(-301179 22890.5 -6.53064e-14 -2253.84 -3.36012e-14 -75288)
(-289765 32391.7 -8.28525e-14 5381.54 5.54726e-14 -70561.4)
(1.40634e+06 1363.07 0 11011.4 0 351675)
(1.40813e+06 50777.1 0 1014.99 0 349638)
(799442 41366.8 1.27508e-14 -2045.7 6.14853e-14 197850)
(795075 14451.8 4.14382e-14 3773.48 -1.15875e-13 198210)
(-831378 14970.8 0 -7171.16 0 -208061)
(-809497 40502.1 0 5715.85 0 -199434)
(24323.6 66247.7 -1.45154e-14 3240.03 4.16363e-14 6839.1)
(-62723.1 35546.5 1.55418e-13 -4593.68 -6.58716e-14 -16702.6)
(-227981 31465.8 -4.09706e-14 -3317.21 -1.51317e-14 -57389.9)
(1.887e+06 4979.3 0 38640.7 0 477790)
(-33780.1 60403.2 -1.02458e-13 -4461.97 -2.574e-15 -9488.63)
(-38538.2 63191.2 -1.47575e-14 -5597.81 -8.22079e-14 -10951.1)
(191712 72047.3 -5.30513e-14 -3869.73 -3.63997e-14 46607.4)
(-153626 72425.9 -1.10725e-13 -3723.33 4.64307e-14 -39041.5)
(183736 49003.3 3.23731e-14 -6342.65 -3.35224e-14 44014.8)
(-709326 39769.1 2.27754e-14 -5779.99 -4.65755e-14 -177432)
(710011 42430.7 -9.37337e-15 -6770.25 -5.69836e-14 174488)
(-1.25955e+06 62840.1 9.97559e-15 -7623.51 -4.34486e-14 -314412)
(-1.56133e+06 -133296 5.48414e-15 301385 -4.02646e-15 -312618)
(531526 87858.9 -8.66477e-15 -11089.7 1.08515e-14 129131)
(54528.9 77761.4 -5.53335e-15 -3272.91 3.1141e-14 12717.6)
(-669765 65014.8 -2.78205e-14 -4691.44 -7.76552e-14 -167346)
(559040 29187.6 -3.59504e-14 5321.04 5.18293e-14 140029)
(-393456 43380 3.98442e-14 -7455.02 5.11224e-14 -99474.1)
(302249 63231.1 5.93906e-14 3528.02 1.02666e-15 75869.5)
(54624.4 74160.8 1.64742e-14 1976.8 7.72201e-16 14043.9)
(98726.3 60595.6 -6.96797e-14 -1297.71 8.76433e-14 24174)
(-199264 54325.6 4.88311e-14 -12714.9 -5.20214e-14 -52596.2)
(-320861 93581.6 8.54072e-16 4841.91 6.55107e-14 -78410.6)
(-181236 53319.5 7.47687e-15 -12053.4 -5.23544e-14 -47959)
(-292122 89223.4 4.74328e-14 3848.61 -1.73555e-14 -71526.6)
(70817.2 48844.6 -3.02207e-14 -2343.92 9.43046e-15 16989.6)
(-33088.1 75499.9 -7.8304e-16 2125.75 -5.77847e-14 -7682.39)
(-21698.9 76249.9 7.14113e-14 1627.91 5.73523e-14 -4980.03)
(-15123.6 71773.2 3.6726e-14 50.9476 -8.00912e-14 -3739.83)
(1.01659e+06 39728.7 2.21185e-14 2181.83 3.41662e-15 252778)
(-10737.1 77033.9 -8.12024e-14 -4733.33 -3.61441e-14 -3838.52)
(-40383.6 62103.9 3.98779e-14 -6663.95 -1.33729e-13 -11673.4)
(1.44468e+06 -31488.2 -1.10459e-14 -75846.3 -8.18061e-15 339637)
(220645 49412.6 4.25941e-14 -4601.93 -5.46836e-14 53604.8)
(-528913 82196.1 2.919e-14 9430.38 7.91628e-15 -128894)
(-585842 50510.1 -4.67276e-14 1766.75 -2.04738e-14 -144921)
(-582841 28315.3 0 -5863.8 0 -146070)
(734089 20318.7 -4.22311e-14 5352.46 -2.0094e-14 183470)
(701646 57852.5 2.461e-15 7610.37 5.04124e-14 175981)
(-25162.8 52920 -4.71823e-14 2049.51 3.85154e-14 -5734.88)
(-19136.8 53217.1 3.42398e-14 1883.24 -1.91652e-13 -4280.95)
(-486159 88664.5 -1.9493e-14 4765.02 -4.91442e-16 -119444)
(-653707 66772.7 0 7704.32 0 -160286)
(466101 49329.4 1.07213e-14 5054.26 2.67545e-14 116903)
(-1.21575e+06 79398.3 4.67428e-15 -4357.27 -1.50293e-14 -302732)
(37697.6 55450 0 8414.88 0 11441.5)
(644510 42116.8 -2.33537e-15 -184.443 1.59813e-14 159870)
(487341 85875.9 -1.24161e-15 6025.97 6.16562e-17 122414)
(-298421 67467.2 8.80122e-14 5280.88 -1.13235e-14 -72734.1)
(-232300 49789.4 -8.57489e-15 1338.73 6.20957e-14 -57306.2)
(-212465 65192.6 1.35657e-14 3085.09 -5.16868e-14 -51951.5)
(-165300 52255.7 -7.66879e-16 -529.7 3.03687e-15 -41145.6)
(-245219 35931.2 3.17326e-14 1933.81 4.69101e-14 -60364)
(-205373 40477.9 -5.55065e-14 5686.32 1.11904e-14 -49546.4)
(-247528 80004.3 0 1485.43 0 -61048.2)
(-280768 83553.6 -2.84636e-14 208.793 2.47847e-14 -69612.4)
(-308625 88174 -2.33799e-15 557.784 -2.67081e-15 -76437.8)
(81482.8 56047.7 -1.36603e-13 1528.44 -6.83653e-14 20596.8)
(-16820.2 68495.8 -3.03152e-14 -2435.44 6.04341e-14 -4777.72)
(585754 35256.8 -1.73258e-14 4066.49 4.91805e-14 146346)
(612572 45856.6 2.39549e-14 -4806.52 -4.64573e-14 150799)
(102901 61186.7 4.92135e-15 -1355.55 -3.41226e-14 25195.6)
(148082 54621.9 0 1572.13 0 37132.1)
(-340740 86809.4 3.61221e-14 -2846.87 -3.986e-14 -85250.8)
(293862 57453.7 -6.89854e-14 3866.24 -8.38954e-16 73872.3)
(320833 78461.2 -3.01925e-14 4544.91 -1.85756e-15 80732.8)
(-113808 63286.6 -5.61818e-14 -2496.43 8.06362e-14 -28857.4)
(-96181.9 65328.4 3.27925e-14 -2430.34 1.93126e-15 -24467.7)
(-141429 68162.2 5.32678e-14 852.221 1.89696e-14 -34880)
(-157242 60459.7 0 -442.313 0 -39124.6)
(-709454 42745.7 1.60548e-14 -74.6598 -2.4636e-14 -176049)
(310847 60935.1 -2.5707e-14 257.118 -1.02077e-13 77191.3)
(223961 61056 -1.17825e-14 -523.728 -1.68488e-15 55439.3)
(-83995.3 160025 -7.51274e-15 14678.2 -5.46499e-15 -17199)
(810402 31174.8 -5.42413e-14 -6479.77 -3.25329e-14 199469)
(-954918 14887 4.72624e-14 2286.31 2.83138e-14 -236367)
(-122902 149376 0 -5995.22 0 -31981.9)
(-116281 63266.7 1.96291e-14 2459.89 5.93319e-14 -28241.4)
(-99020.7 66273.2 -1.47646e-13 4109.38 -3.74933e-14 -23549.4)
(-167343 59074.6 6.37895e-14 1278.73 7.17105e-16 -41203.8)
(-144304 63733.6 0 2924.5 0 -35079.2)
(325934 54071.9 3.33917e-14 -2157.42 -5.37924e-14 80335.5)
(374358 71005.6 1.21555e-14 -2731.68 5.16243e-15 92208.1)
(301045 56195.3 -2.4683e-14 -4759.79 2.36681e-14 73514.3)
(351602 71672.1 2.62154e-14 -3690.77 7.28397e-14 86323.8)
(273523 54273.1 2.05167e-14 -3432.52 3.45357e-14 67015)
(319396 68465.9 -4.46804e-14 -2965.15 2.55756e-14 78513)
(257339 34145 2.00164e-14 1068.25 7.57077e-14 64116.2)
(248369 23520.1 5.8875e-14 4396.29 1.26217e-13 62716.2)
(-516031 73255.5 -1.17228e-14 -16.528 1.55029e-14 -128042)
(227097 64795.5 -6.10793e-14 -3307.58 -1.47882e-15 55526.8)
(-558516 55244.1 0 4470.44 0 -137470)
(964134 72309.6 3.40037e-14 -8732.89 -2.14411e-14 237054)
(-473115 35182.1 6.15898e-14 1783.37 -1.01459e-13 -116947)
(-347498 38251 7.42767e-14 217.937 -4.99724e-14 -86167.3)
(-1.15588e+06 -546297 -4.45557e-15 186840 9.99005e-16 -240439)
(34395.4 64898.9 8.2885e-14 640.727 -2.1797e-14 8693.17)
(1.02582e+06 45661.3 -1.13434e-14 -2611.87 -5.6267e-16 253879)
(-482908 49047.4 -1.73123e-14 1463.77 -5.01183e-14 -119456)
(-350071 48153.9 1.07665e-13 819.696 5.30539e-14 -86656.4)
(1.57223e+06 -4919.3 1.86855e-14 -3215.15 8.32596e-15 389305)
(-68992.6 58576.8 -1.18887e-14 -267.017 4.7755e-14 -17184.7)
(1.06309e+06 19198.5 2.83676e-14 3424.39 -1.76788e-14 264623)
(-245540 49850.4 3.72017e-14 1652.98 -6.56681e-14 -60513.4)
(-895194 74078.3 2.30888e-14 9315.55 -2.99993e-15 -219804)
(-841842 51222.4 -1.41071e-14 -5584.91 -1.09122e-15 -210264)
(808612 52587 -2.6756e-14 616.646 1.75705e-14 200786)
(-99694.3 65093.8 -1.63334e-13 4417.6 -7.44542e-14 -23640.1)
(-2551.82 -29376.1 1.8121e-16 -46052.1 6.44242e-17 -12059.6)
(-14141.8 62884.4 0 3008.42 0 -2762.41)
(-1.53314e+06 -488217 7.31095e-15 197745 -2.02175e-15 -331339)
(1.15008e+06 -544519 8.63548e-15 -187864 2.7297e-15 238745)
(-702707 75992.8 2.95213e-14 -6694.06 -2.87469e-14 -176017)
(236348 49995.9 1.24236e-14 1363.63 4.80668e-14 58981)
(322952 45008.3 -4.01692e-14 1502.34 9.14016e-14 80503.7)
(98311.4 62665 8.00504e-14 -1676.7 2.38741e-14 23977)
(-181057 18860.9 4.64045e-14 639.58 -7.14289e-14 -44765.1)
(155635 76017.7 -3.88513e-14 -936.864 3.5589e-14 38383.7)
(-80392.1 51909.4 1.14761e-14 1112.51 1.76195e-14 -19670.9)
(-80240.1 89690.6 8.4829e-15 3176.91 2.47526e-14 -19120.9)
(-1.24712e+06 12877.7 -3.96582e-15 33871.1 9.60234e-15 -301032)
(10282.4 -17478.2 4.75336e-17 -30522.6 2.9504e-17 -5021.99)
(-400949 74969.8 -1.70129e-16 4814.43 3.27032e-15 -98289)
(312140 46442.7 2.90159e-14 -1503.12 9.02149e-14 77075.3)
(1.30291e+06 -251542 7.58173e-16 -35562 1.00905e-15 314455)
(-35979.6 51326.1 -7.48908e-15 -5356.09 -5.82909e-14 -10256.2)
(-40865.9 78063.3 5.94319e-15 -1775.16 5.69181e-14 -10580.1)
(-23798.6 68982 -1.01769e-15 1007.04 -8.74015e-14 -5655.05)
(-64596.6 66122.9 -1.64839e-14 1941.91 2.25441e-14 -15545.9)
(26644.8 67840.3 2.59043e-14 -827.052 6.70293e-14 6405.92)
(18020.9 71078.3 -6.07359e-14 -831.481 -1.98566e-14 4265.04)
(-1.30957e+06 -250635 3.28514e-15 34476.4 -1.01317e-15 -316376)
(439119 76974.6 -2.45494e-14 1279.62 1.33466e-14 109272)
(-152489 61607.5 -1.62496e-13 1249.22 -4.61533e-14 -37525.8)
(499776 65507.5 8.6749e-14 5527.71 -1.46779e-13 125376)
(455016 62721.5 -9.72057e-16 4943.68 -5.59724e-14 114125)
(414129 59618 -1.59193e-13 2503.13 2.41367e-14 103375)
(73816 40740.1 -7.94001e-14 4316.85 -2.97383e-14 19386.3)
(-1.01527e+06 32090.5 4.38504e-14 -3224.29 -4.27411e-14 -252710)
(308856 48929.4 8.61651e-14 -1639.14 9.29277e-15 76226.6)
(433129 49322.2 -3.90491e-14 -1643.33 -5.59689e-14 107060)
(-87190.2 62101.3 -1.37593e-13 -509.411 -2.32314e-14 -21760)
(664948 84794.8 9.40252e-15 -8554.1 1.37467e-14 162865)
(122571 49822.9 -5.56807e-14 -1280.27 3.7761e-14 30094.7)
(-1.33982e+06 26779.6 -1.51467e-14 -1824.99 -5.66287e-15 -332889)
(37199.4 63628 -7.17939e-14 2016.07 -6.04837e-14 9730.14)
(-110100 65980.8 -1.42808e-13 2501.6 6.75357e-14 -26697.2)
(358318 54946.7 1.09899e-13 2361.3 -1.59249e-14 89491.9)
(325919 53284.2 1.02187e-13 1677.09 2.48689e-14 81283.3)
(296567 50754.5 -7.38377e-14 -147.175 2.03988e-14 73547.9)
(694179 46671.4 1.12868e-14 487.698 2.40669e-14 172361)
(140852 64117.6 -4.82195e-14 2152.55 -1.03521e-13 35482.5)
(-371208 58873.6 3.36963e-14 -5421.15 7.64979e-16 -93449.3)
(-297777 98170.6 2.07753e-14 2894.14 2.32677e-14 -73166.4)
(-161984 45644 0 1002.47 0 -39942.9)
(-502031 70792.9 -4.48306e-14 -5439.65 1.36553e-14 -125914)
(-551541 73393.3 -6.77531e-14 -5891.31 -4.51846e-15 -138310)
(-605509 78263.5 -6.78868e-14 -6862.39 3.27771e-14 -151942)
(280243 50963 1.35998e-15 4261.6 1.70134e-14 70591.5)
(193197 56300.1 2.14751e-14 2506.97 -2.69168e-14 48558)
(57741.6 12914.8 -6.24507e-14 2651.27 2.25448e-14 14984.7)
(101811 52416.6 0 -1912.79 0 24786.7)
(132106 43938.5 -7.30798e-14 -3.29342 4.36626e-14 32777.4)
(1.57116e+06 -66209.5 -4.09157e-15 -217004 -1.99261e-15 335993)
(550505 38361.6 7.28923e-14 -553.313 -7.48307e-14 136454)
(-420803 63752.7 0 110.735 0 -104382)
(-299315 59894.1 -3.60502e-14 5505.69 -1.59559e-15 -72900.1)
(236508 63361.1 1.91493e-14 -2783.53 -2.37028e-14 57991.7)
(-76136.8 70390.9 3.19472e-14 -1709.65 2.62356e-14 -19315.3)
(-12135.7 73228 9.37622e-14 -1196.94 -7.39923e-14 -3308.1)
(22564.5 54183.2 7.59432e-14 6507.33 -1.20445e-14 7213.32)
(25076.8 55788 -3.98907e-14 7071.36 -3.72408e-14 7976.61)
(-6054.9 91063.5 -2.00712e-15 -3390.33 -1.65223e-14 -2343.55)
(-6302.6 49435.9 -1.75643e-14 -604.777 5.91478e-14 -1713.86)
(-1393.28 56049.3 -6.56017e-14 -2507.63 4.8935e-14 -967.895)
(8374.43 63230.5 6.25692e-14 -11574.9 -2.84642e-14 -794.11)
(107891 49897.7 -5.00481e-15 2208.67 -2.37775e-14 27317.9)
(-213089 97134.9 -1.18906e-15 1725.85 -1.16542e-14 -52443.4)
(62924.2 61747.5 1.57097e-13 50.3841 -3.09582e-14 15625.3)
(6464.35 94602.8 6.8394e-15 -12230.5 9.86275e-15 -1430.7)
(-439793 92706.5 -1.69907e-14 -2648.77 -1.02592e-14 -109779)
(535966 48356.7 5.52851e-14 4228.82 4.94978e-14 134033)
(-227800 64038.9 -6.04918e-14 6.88501 1.98023e-14 -56520)
(-1.04483e+06 203823 -2.98652e-15 191790 1.81264e-15 -211657)
(-146733 44996.2 4.30046e-14 -2340.39 4.67726e-14 -36988.3)
(-242428 92753.9 0 1787.66 0 -59707.8)
(68689 60602.1 8.38124e-14 -1904.97 -1.15918e-13 16570.5)
(104774 54037 4.43938e-15 -108.498 1.44429e-14 25969.7)
(1.14957e+06 -253879 -9.2829e-16 36532.9 1.65259e-16 294295)
(-1.54587e+06 14677.3 -1.25598e-14 8719.15 5.78212e-15 -381399)
(452703 51138.6 2.68566e-14 5984.95 2.26189e-14 113810)
(497644 52972.6 -2.75006e-14 5908.45 5.98076e-14 124942)
(-154690 65712.2 -1.98763e-13 3406.97 -7.10427e-14 -37536.3)
(103070 78953.6 3.53306e-14 6299.89 6.97909e-14 27136.9)
(-24981.3 59874.3 5.59114e-14 -4371.21 8.52137e-14 -7282.94)
(-653138 -424466 -7.93292e-16 49370.7 3.3455e-16 -149807)
(-1.49189e+06 57574.9 4.13247e-15 1974.14 5.32479e-15 -369678)
(1.33225e+06 34377.9 2.2483e-14 1318.68 -1.1141e-14 330887)
(-1.95233e+06 -29793.2 -5.88026e-15 -5939.33 -2.5509e-15 -485887)
(577847 44614.2 -2.43501e-14 -3851.92 -3.79777e-14 142420)
(401137 41979 -4.03776e-14 -2646.15 1.48562e-13 98873.7)
(-522063 69763 0 10674.8 0 -126886)
(65910.5 45212.2 -7.3057e-14 -6438.13 3.47726e-14 14756.3)