/*--------------------------------*- C++ -*----------------------------------*\
| =========                 |                                                 |
| \\      /  F ield         | OpenFOAM: The Open Source CFD Toolbox           |
|  \\    /   O peration     | Version:  2.3.1                                 |
|   \\  /    A nd           | Web:      www.OpenFOAM.org                      |
|    \\/     M anipulation  |                                                 |
\*---------------------------------------------------------------------------*/
FoamFile
{
    version     2.0;
    format      ascii;
    class       volScalarField;
    location    "0.38";
    object      epsilon;
}
// * * * * * * * * * * * * * * * * * * * * * * * * * * * * * * * * * * * * * //

dimensions      [0 2 -3 0 0 0 0];

internalField   nonuniform List<scalar> 
9648
(
2412.02
2413.7
2412.18
2406.49
2396.21
2380.72
2360.32
2334.78
2304
2268.07
2227.19
2181.5
2131.84
2079.17
2024.29
1968.12
1911.76
1856.19
1802.12
1750.05
1700.54
1653.89
1610.27
1569.87
1532.74
1498.81
1467.99
1440.15
1415.17
1392.84
1373.05
1355.67
1340.63
1327.81
1317.14
1308.47
1301.61
1296.51
1293.08
1291.28
1291.01
1292.21
1294.88
1298.93
1304.41
1311.4
1319.84
1329.69
1341.07
1354.09
1368.77
1385.07
1403.24
1423.23
1445.03
1468.43
1493.24
1519.04
1545.08
1570.75
1595.65
597.206
590.582
582.375
573.159
564.958
560.226
558.496
558.845
561.037
565.17
571.006
577.882
585.378
593.117
600.765
607.95
614.497
620.368
625.555
629.991
633.78
636.989
639.673
641.953
643.962
645.762
647.414
649.002
650.613
652.3
654.08
655.998
658.101
660.402
662.971
665.846
669.021
672.47
676.172
680.135
684.328
688.764
693.5
698.582
704.006
709.774
715.843
722.176
728.752
735.581
742.615
749.829
757.177
764.687
772.219
779.746
787.113
794.425
801.539
808.381
814.906
235.252
238.476
243.169
250.017
258.945
269.624
282.166
296.205
311.666
328.171
345.516
363.25
381.033
398.526
415.438
431.531
446.635
460.662
473.554
485.297
495.919
505.459
513.995
521.617
528.423
534.501
539.939
544.835
549.26
553.294
556.999
560.424
563.617
566.629
569.506
572.291
575.016
577.719
580.426
583.122
585.813
588.475
591.103
593.745
596.408
599.119
601.875
604.645
607.417
610.15
612.836
615.473
618.027
620.555
622.941
625.285
627.488
629.685
631.716
633.623
635.398
131.157
140.986
152.328
165.33
179.959
196.128
213.768
232.661
252.56
273.108
293.984
314.806
335.252
355.017
373.856
391.564
408.011
423.12
436.857
449.233
460.277
470.043
478.615
486.087
492.568
498.162
502.97
507.084
510.59
513.579
516.133
518.332
520.234
521.879
523.29
524.468
525.492
526.417
527.32
528.257
529.159
530.021
530.821
531.549
532.263
532.963
533.69
534.45
535.229
536.006
536.746
537.472
538.159
538.824
539.42
540.008
540.583
541.137
541.647
542.122
542.598
95.9307
108.673
123.107
139.212
156.923
176.139
196.674
218.264
240.584
263.239
285.856
308.056
329.525
349.986
369.23
387.069
403.411
418.209
431.454
443.19
453.463
462.335
469.909
476.284
481.59
485.949
489.467
492.25
494.376
495.945
497.054
497.78
498.218
498.413
498.36
498.096
497.622
497.014
496.364
495.677
495.032
494.402
493.771
493.148
492.457
491.734
491.011
490.328
489.71
489.135
488.568
487.997
487.429
486.859
486.285
485.711
485.163
484.615
484.053
483.488
482.925
82.5747
97.2069
113.748
132.096
152.083
173.541
196.192
219.697
243.664
267.643
291.245
314.068
335.833
356.277
375.261
392.581
408.179
422.063
434.233
444.791
453.8
461.311
467.471
472.358
476.146
478.973
480.951
482.21
482.816
482.868
482.459
481.661
480.579
479.289
477.833
476.216
474.502
472.637
470.634
468.606
466.529
464.557
462.745
461.007
459.309
457.541
455.739
454.003
452.347
450.776
449.257
447.761
446.289
444.835
443.394
441.999
440.641
439.295
437.948
436.607
435.26
78.2396
94.4797
112.815
133.059
154.917
178.169
202.444
227.342
252.447
277.202
301.269
324.17
345.718
365.644
383.955
400.339
414.795
427.413
438.159
447.239
454.735
460.639
465.198
468.411
470.533
471.723
472.071
471.779
470.843
469.392
467.539
465.268
462.749
460.052
457.183
454.313
451.464
448.538
445.553
442.344
439.074
435.899
432.955
430.328
427.742
425.17
422.57
419.972
417.489
415.114
412.822
410.58
408.391
406.21
404.061
401.969
399.931
397.946
395.959
393.949
391.963
78.169
95.8898
115.854
137.77
161.19
185.846
211.345
237.244
263.089
288.201
312.342
334.86
355.78
374.751
392.124
407.294
420.337
431.502
440.564
447.954
453.802
457.909
460.817
462.218
462.588
462.088
460.77
458.943
456.448
453.504
450.281
446.651
442.84
438.833
434.634
430.436
426.445
422.488
418.554
414.542
410.243
405.976
402.03
398.371
394.958
391.687
388.363
385.064
381.842
378.776
375.808
372.905
370.063
367.212
364.417
361.722
359.056
356.507
353.92
351.292
348.757
80.1093
99.0014
120.409
143.582
168.378
194.029
220.296
247.021
273.135
298.43
322.277
344.289
364.186
381.897
398.108
411.963
423.516
433.075
440.664
446.38
450.345
452.61
453.616
453.38
452.061
449.747
446.877
443.574
439.415
435.005
430.337
425.513
420.755
415.574
409.964
404.593
399.195
393.968
389.293
384.363
379.155
373.719
368.809
364.181
359.736
355.932
351.778
347.899
343.783
339.993
336.151
332.647
329.223
325.645
322.178
319.027
315.621
312.778
309.537
306.173
303.186
1619.86
1643.24
1665.51
1686.62
1706.77
1726.38
1745.57
1764.62
1783.52
1801.42
1818
1833.8
1849.08
1864.21
1879.4
1895.32
1912.55
1931.59
1952.82
1976.74
2003.08
2031.35
2061.11
2091.95
2123.52
2155.77
2188.85
2222.43
2256.46
2290.98
2326.15
2361.86
2398.11
2435.08
2472.75
2511.04
2550.05
2589.92
2630.71
2672.27
2714.64
2758.05
2802.48
2847.78
2894.26
2941.8
2990.27
3039.73
3090.38
3142.27
3195.31
3249.39
3305.06
3361.92
3420.33
3480.09
3541.93
3605.84
3671.82
3739.77
3809.79
821.089
827.342
833.417
839.237
844.824
850.299
855.808
861.198
866.688
871.925
877.119
882.203
887.294
892.415
897.559
902.769
908.066
913.492
919.041
924.688
930.394
936.098
941.777
947.409
952.982
958.474
963.818
968.984
973.965
978.785
983.461
987.968
992.325
996.553
1000.65
1004.61
1008.46
1012.2
1015.82
1019.33
1022.74
1026.08
1029.31
1032.43
1035.48
1038.43
1041.27
1044
1046.64
1049.19
1051.64
1053.98
1056.22
1058.51
1060.61
1062.8
1064.95
1067.32
1069.56
1071.87
1074.29
637.14
638.8
640.508
642.184
643.832
645.381
647.005
648.533
650.048
651.417
652.733
653.996
655.275
656.526
657.75
658.936
660.078
661.174
662.213
663.182
664.068
664.872
665.579
666.187
666.692
667.089
667.373
667.542
667.587
667.514
667.313
666.989
666.545
665.976
665.299
664.508
663.608
662.594
661.47
660.232
658.886
657.436
655.89
654.232
652.474
650.605
648.613
646.491
644.245
641.877
639.362
636.746
633.992
631.129
628.076
624.941
621.718
618.42
615.036
611.599
608.171
543.05
543.502
543.924
544.332
544.709
545.056
545.367
545.66
545.893
546.025
546.093
546.12
546.084
545.965
545.791
545.551
545.245
544.867
544.407
543.859
543.225
542.501
541.693
540.795
539.803
538.708
537.514
536.22
534.823
533.326
531.728
530.021
528.206
526.291
524.284
522.183
519.989
517.702
515.315
512.833
510.261
507.612
504.89
502.101
499.245
496.32
493.307
490.203
487.005
483.729
480.346
476.868
473.306
469.646
465.859
461.954
457.978
453.915
449.796
445.657
441.523
482.366
481.784
481.179
480.545
479.884
479.162
478.386
477.606
476.823
475.99
475.123
474.214
473.244
472.217
471.129
469.976
468.789
467.529
466.196
464.786
463.305
461.756
460.147
458.48
456.746
454.941
453.06
451.105
449.081
446.988
444.82
442.567
440.23
437.813
435.328
432.776
430.153
427.453
424.669
421.807
418.877
415.886
412.853
409.789
406.703
403.594
400.427
397.228
393.961
390.649
387.27
383.814
380.303
376.72
373.044
369.267
365.408
361.464
357.497
353.515
349.536
433.926
432.585
431.239
429.848
428.435
426.989
425.503
423.998
422.453
420.884
419.277
417.647
415.979
414.261
412.497
410.698
408.871
406.981
405.022
402.998
400.914
398.784
396.621
394.432
392.202
389.921
387.589
385.208
382.794
380.348
377.865
375.319
372.715
370.045
367.336
364.586
361.777
358.914
355.977
352.966
349.896
346.776
343.631
340.487
337.362
334.267
331.145
328.034
324.893
321.764
318.598
315.371
312.123
308.81
305.451
301.967
298.419
294.797
291.187
287.538
283.913
389.997
388.043
386.083
384.111
382.102
380.048
377.965
375.879
373.757
371.585
369.401
367.21
364.986
362.737
360.441
358.13
355.818
353.455
351.024
348.518
345.955
343.37
340.771
338.185
335.587
332.948
330.277
327.567
324.864
322.176
319.522
316.829
314.118
311.355
308.593
305.808
302.963
300.081
297.137
294.123
291.046
287.901
284.738
281.588
278.479
275.473
272.449
269.506
266.555
263.709
260.868
257.948
255.041
252.08
249.114
245.974
242.82
239.559
236.391
233.156
229.974
346.224
343.751
341.27
338.83
336.363
333.91
331.383
328.926
326.437
323.834
321.235
318.679
316.077
313.452
310.747
308.07
305.468
302.824
300.111
297.253
294.314
291.395
288.458
285.562
282.726
279.851
276.943
273.94
270.963
268.067
265.343
262.605
259.939
257.242
254.621
252.016
249.276
246.471
243.655
240.826
237.89
234.826
231.738
228.65
225.582
222.734
219.808
217.065
214.311
211.834
209.424
206.865
204.361
201.798
199.295
196.508
193.788
190.899
188.247
185.48
182.814
299.964
296.983
293.838
291.039
288.077
285.542
282.664
280.211
277.724
275.004
272.274
269.802
267.08
264.38
261.393
258.381
255.723
253.159
250.594
247.767
244.517
241.484
238.367
235.218
232.256
229.344
226.527
223.373
220.005
216.83
214.058
211.291
208.747
206.261
204.117
202.044
199.643
196.956
194.358
191.959
189.49
186.634
183.704
180.826
177.853
175.262
172.347
169.808
167.15
165.172
163.306
161.112
159.11
157.023
155.095
152.622
150.373
147.793
145.712
143.453
141.413
3882.97
3958.82
4036.7
4116.67
4199.17
4285.1
4373.93
4465.6
4559.83
4656.81
4756.91
4858.92
4963.13
5073.95
5212.43
5339.84
5466.21
5595.12
5726.53
5860.4
5997.06
6136.58
6278.55
6423.19
6570.25
6719.05
6869.27
7020.67
7173.04
7325.5
7477.97
7629.82
7780.19
7928.47
8074.15
8215.81
8352.28
8482.37
8598.05
8683.4
8741.73
8774.75
8782.31
8762.68
8714.31
8634.77
8520.04
8365.51
8166.89
7919.57
7617.31
7253.25
6822.16
6315.79
5728.1
4753.94
4320.92
4101.48
4013.8
3973.65
3895.67
1076.96
1079.74
1082.72
1085.77
1088.92
1092.32
1096.27
1100.63
1105.47
1110.63
1116.29
1119.83
1121.36
1124.46
1128.21
1133.4
1138.75
1144.04
1149.46
1155.13
1161.08
1167.33
1173.85
1180.65
1187.7
1194.99
1202.55
1210.4
1218.58
1227.15
1236.14
1245.62
1255.72
1266.53
1278.18
1290.9
1304.85
1320.41
1338.59
1368.04
1403.6
1442.31
1484.16
1529.28
1578.38
1631.8
1689.61
1752.11
1819.59
1891.64
1967.4
2045.28
2123.57
2201.56
2272.18
2338.62
2396.63
2482.68
2586.1
2696.52
2667.69
604.722
601.279
597.805
594.314
590.771
587.26
583.863
580.628
577.467
574.282
570.658
565.137
559.323
554.333
549.855
545.994
542.231
538.368
534.444
530.511
526.611
522.741
518.896
515.073
511.27
507.481
503.717
499.979
496.289
492.641
489.058
485.559
482.158
478.897
475.803
472.926
470.311
468.029
466.202
465.343
465.636
470.024
478.249
489.763
505.012
524.641
549.355
580.172
618.084
664.172
719.458
784.741
861.207
949.299
1049.1
1157.63
1265.03
1381.86
1524.21
1708.32
1902.56
437.396
433.281
429.169
425.043
420.873
416.709
412.6
408.595
404.577
400.469
395.583
389.68
383.976
378.819
374.051
369.636
365.332
361.044
356.752
352.483
348.239
344.002
339.78
335.576
331.386
327.22
323.079
318.964
314.875
310.815
306.786
302.795
298.851
294.966
291.151
287.424
283.806
280.314
276.972
273.842
271.005
268.751
267.733
268.431
270.699
274.87
281.398
290.924
304.277
322.464
346.883
378.851
420.031
471.601
534.367
606.545
683.804
767.278
864.921
990.289
1149.06
345.579
341.687
337.817
333.926
329.971
326.021
322.092
318.252
314.39
310.423
305.694
300.47
295.535
291.011
286.739
282.704
278.771
274.928
271.14
267.414
263.728
260.031
256.353
252.702
249.066
245.459
241.879
238.328
234.795
231.284
227.795
224.334
220.906
217.522
214.189
210.92
207.724
204.613
201.596
198.691
195.922
193.35
191.102
189.513
188.73
188.753
189.803
192.174
196.29
202.681
212.125
225.615
244.339
269.567
302.372
342.972
389.99
442.851
503.647
577.764
671.84
280.291
276.791
273.322
269.854
266.249
262.652
259.052
255.575
252.078
248.521
244.28
239.846
235.69
231.888
228.228
224.734
221.301
218.017
214.82
211.722
208.673
205.583
202.53
199.52
196.52
193.561
190.619
187.708
184.801
181.908
179.023
176.166
173.333
170.543
167.797
165.108
162.483
159.93
157.451
155.059
152.765
150.591
148.575
146.802
145.51
144.608
144.211
144.436
145.487
147.634
151.239
156.816
165.027
176.639
192.537
213.315
239.126
270.03
306.602
350.418
404.583
226.711
223.645
220.623
217.651
214.425
211.232
207.98
204.936
201.881
198.859
195.17
191.488
188.033
184.949
181.888
178.971
176.04
173.33
170.711
168.211
165.763
163.216
160.751
158.374
155.987
153.653
151.31
149.007
146.676
144.357
142.025
139.731
137.46
135.242
133.06
130.939
128.871
126.874
124.94
123.088
121.317
119.652
118.099
116.69
115.482
114.636
114.054
113.801
113.975
114.709
116.186
118.654
122.427
127.932
135.639
146.048
159.579
176.56
197.448
223.002
254.484
179.899
177.268
174.72
172.323
169.496
166.742
163.835
161.283
158.721
156.311
153.153
150.142
147.285
144.888
142.364
140.024
137.549
135.404
133.32
131.341
129.427
127.318
125.375
123.631
121.811
120.035
118.197
116.444
114.595
112.765
110.885
109.097
107.322
105.636
103.962
102.363
100.789
99.2911
97.8496
96.5024
95.2263
94.0581
92.9983
92.0416
91.2171
90.619
90.2289
90.0227
90.0659
90.4293
91.2102
92.5287
94.5518
97.4734
101.54
107.037
114.259
123.543
135.251
149.878
168.073
138.814
136.55
134.499
132.759
130.331
128.042
125.431
123.459
121.428
119.663
116.982
114.546
112.142
110.404
108.303
106.548
104.433
102.86
101.245
99.6366
98.1682
96.349
94.874
93.8564
92.5054
91.128
89.6372
88.3898
86.8607
85.4019
83.8071
82.4991
81.1311
79.9442
78.6751
77.5253
76.2858
75.1834
74.1465
73.2412
72.4097
71.6788
71.0659
70.5377
70.0446
69.6546
69.4403
69.335
69.4494
69.7056
70.342
71.2749
72.7095
74.6062
77.1763
80.4524
84.7237
90.0817
96.9148
105.485
116.137
3750.62
3590.83
3419.3
3238.5
3057.89
2883.24
2718.13
2566.99
2433.59
2319.97
2226.43
2151.81
2094.39
2051.85
2021.43
2000.52
1986.97
1979.22
1975.85
1975.67
1977.99
1982.29
1988.13
1995.42
2004.1
2013.99
2025
2037.15
2050.5
2064.92
2080.38
2096.84
2114.16
2132.13
2150.63
2169.36
2188.01
2206.3
2224.01
2240.82
2256.28
2270.16
2282.29
2292.49
2300.83
2307.58
2312.86
2316.91
2320.29
2323.78
2327.72
2332.34
2338.19
2345.45
2353.85
2363.12
2372.97
2383.35
2393.23
2401.6
2407.8
2477.48
2272.89
2072.66
1878.83
1709.18
1552.3
1407.41
1275.25
1156.22
1051.14
960.117
882.615
817.625
763.57
720.127
686.469
660.676
640.853
625.466
613.427
603.981
596.551
590.778
586.404
583.238
581.15
580.048
579.922
580.738
582.491
585.194
588.831
593.398
598.865
605.183
612.277
620.025
628.317
636.994
645.85
654.617
662.964
670.463
676.65
681.105
683.418
683.241
680.421
675.079
667.607
658.611
648.895
639.387
630.901
623.81
618.474
614.638
611.998
609.618
606.739
602.638
1995.4
1988.09
1891.91
1718.86
1538.33
1362.87
1192.13
1036.72
898.101
775.453
669.679
580.339
506.168
445.859
398.401
362.011
334.016
311.874
294.334
280.554
269.708
261.125
254.29
248.811
244.395
240.835
237.993
235.787
234.159
233.073
232.501
232.439
232.868
233.755
235.075
236.789
238.861
241.245
243.883
246.697
249.591
252.457
255.165
257.549
259.442
260.641
260.945
260.176
258.231
255.069
250.796
245.732
240.333
235.181
230.762
227.633
226.035
226.016
227.317
229.593
232.456
1315.69
1465.46
1567.07
1589.84
1524.83
1401.69
1234.45
1062.59
904.088
758.026
630.473
523.802
435.855
365.365
310.118
267.216
233.9
207.611
186.958
170.885
158.447
148.867
141.487
135.757
131.249
127.656
124.773
122.459
120.62
119.184
118.112
117.378
116.953
116.799
116.881
117.16
117.602
118.168
118.816
119.497
120.156
120.741
121.191
121.445
121.444
121.132
120.463
119.403
117.947
116.097
113.897
111.465
108.997
106.759
105.073
104.376
105.04
107.235
110.961
116.116
122.799
787.246
921.955
1065.62
1195.4
1280.74
1303.4
1257.48
1154.53
1019.08
865.048
716.453
588.989
479.37
389.566
318.412
262.134
218.028
183.548
156.623
135.806
119.884
107.875
98.8902
92.1413
87.0055
83.0321
79.9251
77.4801
75.556
74.043
72.878
72.0243
71.4423
71.0874
70.9175
70.8946
70.9817
71.1419
71.3381
71.529
71.6707
71.7215
71.6406
71.3896
70.9347
70.2507
69.3287
68.1721
66.7898
65.2145
63.5023
61.7493
60.1153
58.81
58.1272
58.3606
59.9579
63.2539
68.442
75.7225
84.9185
472.153
556.319
658.269
774.503
893.159
996.758
1065.05
1082.05
1044.76
960.527
845.626
719.5
591.804
478.9
386.728
310.621
250.21
202.479
164.465
135.059
112.83
96.4048
84.4314
75.6756
69.1823
64.2819
60.546
57.6818
55.4816
53.7788
52.4779
51.5239
50.8641
50.4417
50.2078
50.1205
50.1398
50.2304
50.356
50.4784
50.5581
50.5606
50.4501
50.1967
49.77
49.1537
48.3424
47.3463
46.1732
44.8525
43.4314
41.9939
40.6712
39.6504
39.209
39.7113
41.6173
45.3576
51.2663
59.495
69.972
293.601
342.583
403.789
478.821
566.914
663.647
759.362
840.109
891.437
902.458
870.338
801.82
708.646
604.595
501.887
404.593
323.591
257.622
202.498
159.255
126.402
102.419
85.3246
73.0865
64.1945
57.6048
52.6799
48.9892
46.223
44.1177
42.5266
41.3634
40.5566
40.0292
39.7202
39.5785
39.5599
39.6264
39.7415
39.8678
39.9666
40.0096
39.9614
39.7968
39.4829
39.0104
38.3719
37.5807
36.6368
35.5705
34.4183
33.2554
32.1955
31.4
31.1248
31.7567
33.7496
37.6465
43.921
52.8121
64.3056
190.787
219.221
254.932
299.553
354.443
419.916
494.393
573.106
648.327
709.456
745.908
751.005
724.39
670.047
596.554
512.19
427.004
346.557
270.216
208.327
159.282
123.501
98.4749
80.7733
67.9975
58.593
51.6395
46.5384
42.8141
40.0183
37.9264
36.3948
35.3271
34.6111
34.1669
33.9274
33.8397
33.8599
33.9497
34.0697
34.1804
34.2599
34.2719
34.1942
33.9874
33.6502
33.169
32.5628
31.8229
30.9802
30.0642
29.1455
28.3243
27.7441
27.6479
28.3994
30.4709
34.5002
41.0768
50.5677
63.0031
129.538
146.196
167.048
193.357
226.18
266.573
314.961
370.927
432.131
494.685
550.9
594.719
619.651
622.67
601.905
559.378
500.908
430.606
357.434
282.353
212.169
160.659
124.847
99.3223
80.4632
66.5507
56.2773
48.886
43.6029
39.6741
36.7744
34.6353
33.141
32.1162
31.4502
31.0451
30.8362
30.7655
30.7958
30.8753
30.9708
31.0615
31.1128
31.0989
30.9794
30.7521
30.4074
29.9568
29.3943
28.7417
28.0338
27.3337
26.7407
26.3834
26.4854
27.4032
29.6141
33.8096
40.653
50.6621
63.8555
1.52256
214.46
191.947
2.24355
2.18827
0.205827
0.000721957
90.4178
0.000793196
0.014624
96.4235
7.06449
0.000722644
246.317
0.16843
136.59
0.000756142
91.8425
121.219
0.00072043
2.23465
235.217
202.493
0.00076702
0.000778318
0.210386
0.000721016
7.79521
0.000752004
0.000818552
6.24216
0.000771309
0.00872043
65.0151
4.04276
115.069
74.4991
15.8317
0.000724071
44.07
65.3609
28.9555
0.000742969
103.992
172.801
0.727291
0.000875589
0.00859298
1.34189
7.28818
370.054
359.163
0.000706155
0.00103333
0.0622975
0.0675292
0.000815391
9.06493
61.0011
286.335
139.014
0.000901406
1.55525
0.0250972
203.157
1.49228
40.2634
63.1438
0.00112902
0.000747746
9.62501
40.7963
56.0931
0.0135516
0.0508604
81.5993
231.772
55.4929
0.000705853
5.5441
0.00233052
46.5974
0.01345
110.661
0.000750041
8.65861
0.000788178
38.0398
0.0110045
0.0013615
0.233158
0.000704601
0.000929987
310.254
145.223
0.000863936
1.60678
1.75694
0.00183702
208.94
0.53393
31.2716
5.90576
0.000703775
0.000726529
0.000704031
1.41829
0.210815
0.000748132
175.836
224.485
0.00474956
236.099
27.3683
113.92
55.3679
29.3624
0.000975922
0.111753
0.00110097
0.00121069
189.614
0.00288833
289.787
417.757
28.0087
0.00074587
7.2464
7.08966
0.000743695
0.0297908
0.0269852
90.8135
0.00182331
64.8811
0.000748662
0.000724618
398.612
353.556
0.000747641
0.715118
151.21
0.230159
0.918792
27.4716
121.044
0.315437
28.5265
0.00522839
277.778
11.2434
0.0625769
48.9486
108.219
190.747
0.000766559
0.00075467
0.521877
0.000747575
43.1066
0.120316
0.00144146
0.00074193
0.000747199
0.000758661
40.5169
69.9906
34.5765
0.000773671
286.576
304.957
403.764
167.821
0.00685511
159.64
44.1083
29.3243
0.000747595
0.00168575
192.667
69.8868
29.7516
73.4205
0.000744246
0.000839604
240.284
0.029712
2.52215
0.000758176
0.00087503
0.173725
0.000797659
335.026
4.06511
0.000751753
0.693834
90.0842
143.261
0.00119377
54.826
0.000745775
0.000749378
108.914
33.2428
303.468
0.00121072
0.000797093
0.00284516
42.4666
79.6836
9.84586
124.343
13.9328
233.856
0.810183
86.883
83.5505
27.2874
10.8039
40.4785
0.00141563
0.0293554
0.000746722
0.000757138
29.4688
0.0100303
0.0117752
0.00187077
0.00621992
47.0069
197.552
0.011061
172.465
7.60923
2.66953
0.000732148
0.531203
38.6806
7.36173
0.00106085
12.5537
35.3021
0.852515
2.56945
273.295
7.55868
4.99136
123.814
0.000952349
0.000727142
0.00102048
0.00424943
29.752
0.000784978
0.00235356
0.000724247
1.75166
76.1897
78.2056
50.5597
12.1433
11.4956
327.759
0.00113685
50.098
99.9228
0.000743714
82.2898
0.000749703
336.427
1.75074
51.7515
0.00153856
0.000748326
20.2686
7.60356
0.000759699
0.000748991
0.000754199
0.000750598
1.20376
35.9631
44.9547
0.0107714
0.000760497
0.000724772
0.000702996
105.044
1.13029
0.00118239
19.4555
0.117094
0.0941542
0.000702706
0.789286
0.000760199
0.101756
47.538
273.251
3.21123
0.000984269
0.00184394
56.2041
0.35675
129.066
324.698
0.000835134
0.000739748
0.000733599
157.648
0.000770802
137.32
0.000749867
24.8816
12.3785
0.0239999
139.932
245.216
0.00126305
51.427
49.5153
89.1284
91.8391
8.94232
351.225
39.8472
71.7222
144.927
95.9556
56.2948
0.344223
340.241
282.283
64.3731
34.671
0.00100778
270.922
125.274
231.739
0.0187619
0.000863488
0.000745532
0.00080832
0.690633
1.58497
6.17155
0.126103
0.000727045
172.342
0.000746246
27.3044
23.9558
193.938
41.8336
18.9283
0.00191315
0.00110231
0.453816
86.263
0.00435361
8.07659
260.056
37.3117
84.0137
194.595
60.5979
0.000819271
285.057
144.227
96.8191
0.000749639
195.477
153.95
0.000778884
31.5711
0.000750642
397.288
172.393
29.1272
81.9699
113.478
150.833
0.00076463
149.947
0.000959096
70.2124
81.1555
29.3492
281.345
3.722
0.498576
2.6055
0.00109706
442.399
1.5225
0.00288686
0.00189468
255.973
0.000947821
92.6452
0.000739661
0.000748924
0.00182651
31.8717
0.194443
22.1235
0.00185807
84.1761
0.313646
221.095
281.59
38.8701
339.873
0.000794496
281.252
42.3074
0.00074037
78.5477
26.0708
0.000704966
0.000727877
119.058
0.00204744
26.5832
0.450193
76.3328
0.017675
3.50523
40.2977
120.477
33.3027
83.1895
70.372
0.00100891
0.0335794
29.823
21.7041
333.363
341.621
142.401
0.0852495
125.192
124.101
3.39247
91.0001
46.6838
26.39
0.000827755
84.2838
386.239
0.00106991
91.6772
19.1828
47.3303
0.0153391
0.0899257
268.747
0.00191371
329.49
0.00124075
1.80814
0.000737543
7.79335
166.854
0.561394
0.00131666
0.000903031
76.3488
27.6833
0.210253
5.4418
294.628
544.513
0.0014209
11.7425
28.1681
73.6218
26.9248
451.082
29.8857
154.907
51.8601
3.82331
7.07608
304.313
54.494
356.731
173.265
0.262667
173.793
61.4682
0.000792496
91.7331
29.7932
13.1364
0.00967709
97.9883
44.9926
4.20003
53.4563
0.00158366
0.000747151
0.0585927
27.8866
107.423
75.6415
0.000750358
0.000731696
0.000742065
29.2456
0.0275508
0.00074534
0.248811
95.3283
273.191
0.00440104
0.00453035
0.000724852
0.000738161
0.00192108
29.8154
100.913
21.3294
1.90892
299.828
385.59
0.00150306
62.2566
28.9518
29.5376
76.2641
440.495
0.000821196
0.00444567
0.000749124
397.158
0.788388
0.000727006
10.5915
0.357995
304.577
0.000759437
326.57
8.82054
0.0652936
203.384
0.000745916
0.000734166
0.00103064
406.883
53.0157
131.623
319.896
10.3724
29.7159
0.000712283
0.00183942
0.456631
0.0105795
0.0163134
177.566
42.4567
0.000747168
25.6209
46.9679
186.316
409.358
0.00293025
412.803
0.00182332
0.021822
148.872
0.000737124
147.34
0.000759921
0.000788217
0.0209204
35.5016
2.96809
322.454
62.0324
0.00088832
29.5038
506.02
0.113621
2.16717
7.59787
0.000771881
0.000757327
0.00229317
136.329
5.50817
0.000784951
272.414
278.885
217.808
0.0460571
62.1874
0.00108761
30.1811
0.53946
0.132515
126.557
30.8359
149.586
175.432
0.000760675
0.000714663
0.00488058
73.4644
104.616
6.00109
0.00658589
0.000774859
0.000747546
0.00342394
0.333461
0.00210453
75.33
21.5308
0.00494527
27.1454
174.175
0.000759196
39.3929
0.000741895
3.34955
0.000762519
0.0131985
37.8366
0.0116106
0.000744602
4.13244
365.937
264.507
0.000731622
0.000750247
1.57277
0.300159
0.000747665
99.4065
0.000900769
33.1784
379.328
29.7561
87.0243
294.883
134.945
338.416
0.000745609
0.00248625
0.0110546
296.793
60.0465
202.239
4.88492
4.30259
102.051
167.163
128.4
3.95907
46.8044
0.000750556
1.54752
40.377
33.1128
316.833
26.9394
1.09686
40.8187
0.20394
0.0104532
40.7339
0.000749037
175.391
0.000889806
2.73481
294.863
184.819
3.06657
0.00249402
7.16193
0.000765762
0.000735826
0.200306
0.0135276
51.3777
0.00869553
29.7029
0.000750633
0.0190827
0.000725705
96.4471
0.00187699
88.0377
300.457
0.0143291
167.411
375.197
0.000754963
98.6656
223.299
0.000786141
289.278
0.267229
0.000828918
0.000795782
283.021
0.000731476
0.00111599
0.123507
0.215204
433.917
272.23
0.000751588
0.000754839
8.38981
27.9523
0.00709939
2.46948
22.1721
0.000747525
0.000948375
0.000918274
170.222
272.982
3.42675
296.761
0.0172333
27.419
0.000773792
0.00716465
0.0160786
0.0430153
0.000749066
297.913
0.000741854
0.0160724
0.000771923
0.845559
0.01482
0.0153065
2.54639
5.10239
36.1432
2.19837
9.26769
28.9639
190.613
0.000813784
166.015
328.647
12.7505
76.0733
0.000760942
271.453
80.6294
0.000744649
412.545
68.6732
0.00395047
0.00841685
162.927
161.63
0.149799
318.393
410.824
4.47344
433.5
266.14
128.176
52.6063
21.1744
27.8181
266.674
293.069
0.0143067
310.711
42.0423
411.398
0.000811642
1.58462
2.50037
226.895
166.853
0.0118153
446.417
197.141
6.87872
0.0539183
2.76972
29.1772
0.0015369
29.3262
442.916
0.0292536
223.197
14.4138
94.5002
191.188
0.000745269
0.00167013
7.44192
5.30628
0.0131461
0.000748237
0.827187
1.81112
0.00120206
0.00075874
269.467
7.12019
53.4862
10.6922
0.00313167
0.00107191
0.277864
89.6052
0.000820374
22.0041
30.6322
1.87592
164.227
0.00100001
0.393914
0.00074022
2.15896
87.4803
0.00120058
0.18671
42.3938
167.866
0.508758
95.0776
5.15838
0.760816
0.000983534
33.5793
334.487
0.000743626
0.000757247
149.435
0.0157899
0.000758318
73.9062
2.31586
163.941
30.7165
38.2926
0.316954
17.1956
208.835
164.859
243.55
0.000761729
274.998
0.000973489
37.3611
0.000799882
0.00130215
46.7685
0.00208199
260.716
0.0121468
0.0324266
45.7546
7.78274
0.593904
0.000891935
187.323
0.000881865
0.000720437
346.93
163.034
40.7126
29.737
0.000809934
0.000703758
19.1398
150.163
0.000732223
220.537
37.5372
0.000751874
170.65
0.000708283
3.36155
6.43259
10.7597
1.54461
76.195
21.2609
0.000707299
271.764
329.293
0.00074314
0.0131881
30.0022
0.000712356
240.456
161.842
407.49
0.000744427
0.000727895
199.991
0.0953531
0.000834859
31.5467
80.6195
253.725
0.000722349
0.000793563
0.0157695
0.0115629
0.000746262
0.00201702
126.53
52.1614
0.000745915
13.5437
0.000747025
10.0662
0.00108817
0.000862591
27.304
0.000750677
0.34047
0.000730407
50.2049
2.19302
20.5662
187.2
365.45
148.347
5.23267
15.0449
0.000758285
5.73687
279.722
530.215
0.158446
0.000823413
130.461
0.000745852
0.119277
0.000721579
444.249
14.9952
3.14288
198.725
52.7818
4.97979
80.8089
7.81404
225.602
113.368
0.000771228
0.000757646
0.00306852
0.000751631
0.0141059
100.321
0.000930801
252.892
0.00186291
0.242634
3.07582
154.101
0.00135357
42.2599
0.0134503
56.527
30.549
439.3
0.000799372
0.000953597
0.964057
84.8262
63.982
65.5733
1.97351
7.97322
20.2235
0.0624684
10.3446
2.09999
31.3314
0.000757929
398.975
1.46925
55.6379
0.000786138
52.7223
16.3007
0.00133931
88.3368
17.3071
0.0851694
0.000717725
0.000745161
203.93
47.7097
15.0378
0.000736106
0.00956133
52.5814
189.455
3.81326
0.00585814
0.000736758
149.208
131.717
37.1331
35.9221
0.000741973
102.778
438.474
0.000746973
0.000749398
18.6361
0.00109787
0.00384721
0.257651
47.7605
0.00104999
37.5752
347.121
0.00073504
0.000821256
0.000728741
0.000767157
66.7848
520.738
337.82
0.0206039
34.3517
48.9015
0.133498
45.0782
0.000828548
32.5689
0.538723
31.6119
5.2465
81.9694
102.126
0.276392
0.000759365
161.073
86.002
279.252
5.79572
30.7751
0.527602
20.3101
0.00350997
0.00132611
152.507
144.773
0.0337408
1.2685
0.000753028
0.100483
19.7003
0.0276876
13.8508
3.42723
386.646
38.014
1.76393
275.095
140.5
58.0245
15.6628
200.488
193.15
3.16998
37.9661
0.0022632
47.0054
45.1779
0.000743433
0.000713921
0.340904
0.000747675
0.000776357
59.0348
300.092
0.00074372
85.9528
0.000743867
0.000736429
0.000738833
0.000754039
0.00180268
30.6373
45.5303
251.409
0.000721086
0.00100539
6.75242
0.000850556
0.028249
0.00076283
0.000873286
167.378
0.000977786
0.00466185
182.119
0.00423134
0.00074951
186.983
0.000745052
0.00075922
1.98137
0.000867586
6.45925
0.00123455
0.0240844
0.00074384
0.000752868
305.694
423.917
44.7605
0.0235542
109.737
16.2324
0.00129647
28.655
314.686
236.466
481.038
0.000722971
27.2079
56.6023
0.265774
29.5677
102.995
0.354936
32.7229
1.65066
29.4817
0.302571
7.43416
0.00075774
223.626
0.000769256
29.7994
32.2787
0.000747932
0.932092
0.00244128
0.0200317
0.000727378
3.94489
0.000888793
0.000741945
41.5284
0.122777
0.16734
232.05
152.156
0.000819525
0.000966548
30.4217
262.997
0.000710808
0.000752814
0.193748
24.2293
147.449
0.0020838
15.8902
0.000744721
0.000814651
0.00072113
0.0280558
23.7163
0.00405586
273.862
30.6482
261.043
174.398
0.000838769
301.333
66.6683
0.000732859
0.000754115
0.000750345
0.00116095
0.000739703
124.779
0.000745416
0.000748135
351.666
1.22444
0.00266117
0.0256203
58.8073
7.48582
0.00838686
0.000820968
187.239
0.000762734
7.03783
0.000754879
0.000841642
164.984
166.644
0.00333321
0.000837847
4.02186
0.000744249
369.706
0.00075281
152.931
0.025849
8.5416
0.0541546
3.16363
2.27212
29.9838
0.000761147
0.000855427
0.00487836
60.9595
0.287536
306.095
0.000746494
0.00123867
0.0016361
259.059
62.0721
271.338
0.00224749
0.00347685
0.825039
0.000751451
19.5505
37.5527
0.00876293
269.371
181.339
40.7637
0.00153764
1.46725
169.485
227.769
28.9681
0.0105236
121.154
0.558953
135.553
0.145571
2.32083
43.3551
0.00076198
29.5028
0.00122481
0.00507021
0.00368591
0.0481046
0.000901601
10.9082
0.000744999
46.404
0.133077
0.000873211
1.93351
0.000756586
0.776706
0.229657
41.663
3.81345
94.3261
0.817093
0.000748472
0.000730737