/*--------------------------------*- C++ -*----------------------------------*\
| =========                 |                                                 |
| \\      /  F ield         | OpenFOAM: The Open Source CFD Toolbox           |
|  \\    /   O peration     | Version:  2.3.1                                 |
|   \\  /    A nd           | Web:      www.OpenFOAM.org                      |
|    \\/     M anipulation  |                                                 |
\*---------------------------------------------------------------------------*/
FoamFile
{
    version     2.0;
    format      ascii;
    class       volScalarField;
    location    "4500";
    object      sigmaEq;
}
// * * * * * * * * * * * * * * * * * * * * * * * * * * * * * * * * * * * * * //

dimensions      [1 -1 -2 0 0 0 0];

internalField   nonuniform List<scalar> 
11800
(
194797
135490
659122
558800
131553
389830
180573
198193
213906
228234
194060
800238
101257
594140
504563
2.18119e+06
139246
140916
256195
157184
444135
722225
944084
846166
1.78845e+06
1.11546e+06
1.17433e+06
582908
1.27742e+06
1.38135e+06
386030
127258
1.12009e+06
141319
148427
370374
150883
1.19441e+06
151440
165524
1.21707e+06
1.32413e+06
612331
1.43296e+06
407366
2.04244e+06
905670
1.05647e+06
182296
274373
840295
591642
146642
239136
2.32795e+06
1.90105e+06
72899.3
546692
426842
407502
1.90063e+06
162229
433753
356712
1.75379e+06
263877
864415
612830
72551.7
1.032e+06
149875
125197
121195
1.8083e+06
1.88237e+06
359078
1.83513e+06
250515
198767
202316
2.36596e+06
138597
131286
133398
136674
1.33188e+06
415030
1.22925e+06
1.12849e+06
608475
145820
1.33378e+06
168195
69225.4
210068
172696
22400.1
172769
148366
704102
82670.4
776702
1.26597e+06
435314
157689
371392
204153
175419
1.85857e+06
1.24085e+06
1.34428e+06
1.13914e+06
420924
616937
252081
1.67793e+06
245306
156580
1.57539e+06
234762
225620
182084
204698
155524
165435
145271
148120
147943
103803
30118.5
2.12428e+06
1.42102e+06
450857
1.3357e+06
648919
1.23066e+06
1.12829e+06
393744
1.14328e+06
561893
1.05343e+06
965988
570987
218138
276156
375614
1.38593e+06
1.41857e+06
809564
419321
229732
221725
147845
293018
269380
206959
535884
739367
1.46685e+06
154409
2.13562e+06
258235
1.86871e+06
539829
586330
633442
321306
240730
2.29642e+06
1.4385e+06
512487
707127
170780
420093
417798
2.04383e+06
2.06595e+06
1.09796e+06
1.00857e+06
1.18965e+06
537640
367202
283835
227395
509113
242867
373841
167782
192579
177904
269165
251663
239258
216391
1.04911e+06
1.33186e+06
1.8768e+06
133301
249182
2.21134e+06
151605
323268
362049
152207
157550
963566
805463
741405
613732
2.12341e+06
653843
965868
2.88837e+06
2.43062e+06
2.44978e+06
379754
141764
937528
860938
791813
295391
426802
141436
142459
252222
152574
1.39815e+06
283193
154783
528624
236744
194037
151093
745251
760990
2.88623e+06
1.3971e+06
248951
260280
1.30588e+06
1.07006e+06
367387
537233
1.18769e+06
1.09912e+06
1.00949e+06
157154
1.28526e+06
452026
623543
584028
170452
135042
459294
409347
156478
2.44833e+06
319704
368796
262750
303330
794117
863608
933427
424937
297342
149688
1.86817e+06
175927
87034.4
146968
466975
171291
612609
2.17413e+06
438419
434680
659340
476723
549446
399177
1.35318e+06
1.13136e+06
362440
453763
287333
345862
622308
818072
293121
1.3202e+06
1.41596e+06
1.70213e+06
188451
433165
430510
1.97715e+06
1.9955e+06
1.20036e+06
1.18124e+06
1.22331e+06
1.21075e+06
144877
98757.8
326511
2.54844e+06
131151
137804
338762
276581
298618
1.04699e+06
1.0738e+06
1.7699e+06
2.45096e+06
767364
203994
999993
827343
576193
470883
179189
189926
290484
516675
270877
478993
138087
185701
177807
155927
1.40476e+06
178795
137733
2.0422e+06
348851
791686
883717
860559
1.08797e+06
1.04719e+06
110776
109561
711114
931676
642277
1.66252e+06
131574
927112
720283
473288
357010
352098
269984
358293
309111
410574
449552
483992
171790
148441
873609
926724
198109
249576
511746
435369
489347
221653
207288
259923
265269
1.00464e+06
487579
358282
389022
1.21857e+06
1.41319e+06
373510
217333
204339
279987
259697
491441
570257
466145
546827
430444
504992
380160
361168
726996
371303
812742
1.40272e+06
708060
517897
2.24486e+06
144747
1.47275e+06
727617
527647
2.18158e+06
155907
1.50619e+06
372373
1.26402e+06
1.16686e+06
1.13629e+06
208224
95317.9
131682
2.59367e+06
2.24422e+06
1.0034e+06
359485
488872
194407
260816
296150
160153
222272
1.72071e+06
69209.6
622222
477499
1.8963e+06
115039
190894
162423
159814
161854
162020
1.89679e+06
638631
254368
743459
685385
630656
128022
1.4337e+06
470478
659909
180741
940560
203518
1.82492e+06
145073
213437
537989
496775
457604
954669
254850
533986
467674
249036
746976
812786
880390
425847
304296
70516.8
186137
207463
2.35747e+06
819492
646191
465622
383045
200628
161386
118357
117691
205488
106715
123985
130951
177388
353638
158430
202055
637973
779898
366593
1.6798e+06
221277
398604
164348
196921
1.6309e+06
2.14323e+06
677094
735460
264468
235267
127562
1.42724e+06
2.08529e+06
1.84145e+06
2.65882e+06
874188
610404
799028
131463
200396
183262
204905
794588
153243
151301
133907
196016
1.42646e+06
319492
1.45629e+06
851411
184954
237503
1.17024e+06
1.49716e+06
789558
858681
925644
419715
293792
718954
150886
152508
148752
171120
135373
202164
103395
196034
103035
193860
90527.5
188585
172929
179685
122509
1.63211e+06
248936
272292
606571
961304
131719
161625
140483
137856
122297
317099
462073
135465
134784
628093
129123
192675
1.77356e+06
86095.9
174391
562278
517805
541790
586984
602102
634351
297587
221531
2.05897e+06
2.53627e+06
533553
90779.3
378688
360885
406487
287707
866400
801278
736848
183758
89858.7
840179
782943
348382
387662
192788
671280
728493
249588
1.18426e+06
1.20087e+06
1.21479e+06
1.20275e+06
2.02854e+06
1.98493e+06
626973
2.4183e+06
882794
146555
1.68575e+06
1.49752e+06
1.62867e+06
832629
336583
363826
198014
1.73017e+06
573872
723616
2.56019e+06
227209
282795
562041
549769
1.43806e+06
749697
2.14269e+06
144614
142361
292717
421159
933845
858734
789699
1.95143e+06
161469
429615
922073
1.38811e+06
141612
2.28993e+06
2.14159e+06
2.22336e+06
258386
350170
133144
2.27335e+06
657923
263287
450577
2.13956e+06
156562
265819
281855
150902
520225
322236
2.59414e+06
2.28267e+06
218736
645918
826146
317452
376114
278690
244524
687135
203163
646697
476909
1.2218e+06
1.06516e+06
182994
1.3914e+06
149069
440205
542413
1.85133e+06
353230
478543
266795
217644
202537
237411
453112
1.05975e+06
1.16728e+06
151955
145604
147774
195600
376800
1.41061e+06
122316
488725
884949
689826
245112
1.17399e+06
1.29925e+06
843809
1.4131e+06
1.53033e+06
634587
414814
172535
207844
393454
419053
366093
405118
206691
374400
436138
254458
150366
2.64444e+06
1.13804e+06
428180
580442
530306
257213
461458
675967
1.4521e+06
1.33921e+06
1.22831e+06
376596
445302
213364
232225
1.65136e+06
1.20946e+06
1.40772e+06
162308
216760
311194
739831
1.63112e+06
522695
102844
163468
2.3956e+06
2.25103e+06
270900
2.0611e+06
119386
173945
127016
788800
137791
240542
266754
1.47281e+06
1.60204e+06
1.73363e+06
1.86875e+06
848468
720794
598685
471122
207882
143669
463113
2.28782e+06
152193
148218
165923
156741
165398
172015
177507
1.77074e+06
893371
917529
540217
1.00017e+06
1.08571e+06
380517
1.26742e+06
303252
249718
159739
2.36929e+06
150769
182810
176254
184344
150845
2.1553e+06
305258
301366
1.15652e+06
382969
805968
286583
2.19379e+06
968668
485161
360537
1.48622e+06
537164
203910
170267
152355
145424
256456
281922
270343
196762
530819
165360
147069
950932
1.06172e+06
126214
672677
969129
821087
1.11543e+06
2.07997e+06
1.92566e+06
1.77217e+06
1.61796e+06
672745
820751
2.08186e+06
1.92751e+06
968945
1.77398e+06
1.1156e+06
1.62025e+06
1.85607e+06
167725
144027
157205
270621
587250
1.28343e+06
149600
489742
671375
529725
729948
212692
275733
487494
714072
1.52353e+06
1.4049e+06
1.28814e+06
611374
452604
1.14152e+06
230365
292911
181921
377225
350849
319356
656506
512343
526686
390872
140992
783448
214662
402099
493719
1.22211e+06
665153
777963
626546
228563
297650
204786
180041
169652
196571
692115
583778
154181
237092
260887
537869
1.59818e+06
523894
736536
550958
172022
248347
233543
215666
293824
209952
709124
653938
597262
231741
1.7087e+06
809211
235573
1.05142e+06
709630
1.53047e+06
2.07163e+06
256137
285878
241203
160844
173236
858880
731271
2.15953e+06
143133
202410
399847
593410
256191
150589
867300
858400
63740.3
148944
415092
337861
95587.1
1.89407e+06
2.07188e+06
343994
130006
308675
437563
935194
792615
862478
2.36393e+06
145599
679282
765305
181159
698633
853575
1.00891e+06
1.16112e+06
2.178e+06
2.01749e+06
1.85704e+06
1.69637e+06
698207
853044
2.17878e+06
2.01757e+06
1.00751e+06
1.85726e+06
1.16062e+06
1.69687e+06
2.01958e+06
1.73755e+06
1.30995e+06
557991
636540
1.73811e+06
1.29108e+06
383773
128798
123416
1.29026e+06
2.29706e+06
173273
478279
1.88817e+06
1.29052e+06
2.07201e+06
2.11531e+06
1.3743e+06
1.37704e+06
630345
499676
653088
271383
202804
346186
173434
211716
259195
217489
477041
2.22503e+06
652040
219099
131686
417590
447902
2.02406e+06
423036
382569
486000
515895
1.31596e+06
625065
450695
1.68513e+06
481618
626928
225214
184357
432910
374749
403997
1.00084e+06
651965
633178
1.53307e+06
1.46622e+06
625739
661169
1.15423e+06
1.23972e+06
465084
488270
148801
206084
215772
636002
495235
85143.9
181284
208397
738545
702312
381472
743378
574737
226788
138737
138697
580983
1.40221e+06
136968
2.07098e+06
299949
843621
775587
238574
298757
501823
162592
138012
1.77266e+06
449228
1.15545e+06
1.06744e+06
980861
358334
522614
183040
1.60161e+06
2.12113e+06
192938
158617
1.16652e+06
427461
584207
1.0093e+06
1.09814e+06
1.20121e+06
361588
526356
67485.6
849049
443834
2.11468e+06
352323
1.21691e+06
1.01256e+06
1.13636e+06
151547
156304
160213
168919
171445
149753
1.75399e+06
546129
203557
236575
262371
295066
369070
409175
838407
811145
774906
747473
688132
712164
1.21417e+06
183756
151220
146191
201618
227896
161910
184657
1.44616e+06
298921
542772
464085
1.19418e+06
629463
220683
230135
517795
400900
715141
584705
1.43456e+06
1.25948e+06
1.16253e+06
1.06686e+06
592800
1.65234e+06
819345
1.64056e+06
290700
241814
313311
303839
211630
191359
209853
1.66955e+06
2.16244e+06
388815
125875
288807
651748
506390
141483
167463
280195
265713
278023
257399
341576
321074
240809
551955
612461
596283
661532
506810
563105
618016
141673
1.36266e+06
1.082e+06
571475
1.36284e+06
1.28006e+06
748354
2.16282e+06
410342
390027
441828
472840
218268
178331
191698
410789
158495
1.81583e+06
234200
152840
909402
64846.3
126534
1.79885e+06
206274
468381
1.49178e+06
688081
1.37643e+06
1.26274e+06
1.62193e+06
1.07747e+06
176743
691320
552853
228540
1.54102e+06
706730
228889
1.29249e+06
1.17872e+06
1.40529e+06
147085
149891
178502
2.6141e+06
313148
492228
601712
271829
153172
152332
471934
509955
198218
1.79971e+06
479507
1.8302e+06
279164
899372
150913
727783
870287
1.15066e+06
462833
623756
747013
300567
2.57233e+06
183161
128976
156774
2.19386e+06
1.43743e+06
363038
535191
1.21126e+06
1.12259e+06
1.03159e+06
2.25828e+06
693753
561695
2.25218e+06
2.54485e+06
1.75681e+06
87099.7
603785
1.49799e+06
1.12714e+06
614774
457166
1.13552e+06
1.01296e+06
466126
1.53501e+06
370670
302145
577674
509436
386748
1.77267e+06
2.69565e+06
136435
149269
176381
2.5722e+06
176829
207104
800209
615807
2.27628e+06
2.38442e+06
146886
677798
234011
222948
561054
241379
145469
605721
139904
157959
2.71108e+06
1.18517e+06
658999
491519
442579
316237
900215
831333
763263
229963
2.41287e+06
473796
429272
491458
2.02029e+06
825338
1.21436e+06
166686
260266
196725
905396
559084
744824
136308
318525
434626
918206
324356
204904
174907
346421
2.25033e+06
327844
443270
910362
1.45353e+06
2.05418e+06
1.39161e+06
951922
754598
893007
91332.4
260714
364051
778513
718958
662121
2.05415e+06
161668
210752
225981
225521
226353
219192
326484
148880
150965
738948
1.8636e+06
530661
1.1737e+06
1.08366e+06
995818
364026
2.10495e+06
677248
772310
924798
797420
1.29187e+06
2.0603e+06
618421
161292
793486
127100
974767
585560
1.06298e+06
1.15432e+06
414735
1.33928e+06
330373
2.78244e+06
954637
152646
1.9221e+06
2.7905e+06
2.40245e+06
568383
145961
1.07885e+06
183038
172494
124678
300785
163308
168485
144508
152655
1.74429e+06
1.83105e+06
151978
1.19775e+06
193024
183679
149261
251575
1.26199e+06
1.26753e+06
287359
1.28451e+06
1.28704e+06
1.64562e+06
541057
202535
254934
347997
697237
756411
255682
67750.6
174633
819957
393021
961684
1.08252e+06
1.18223e+06
1.28429e+06
660687
465552
341141
190629
164285
2.08427e+06
1.15152e+06
138424
239206
1.03026e+06
800476
436132
472315
214242
192145
354538
314056
124022
241971
164728
1.7498e+06
686673
1.6674e+06
156651
143617
2.79112e+06
144219
2.16653e+06
2.1397e+06
153269
999082
504636
1.71383e+06
167106
947541
1.07512e+06
2.34047e+06
262653
164658
138358
530525
251367
343967
696833
638714
587647
171446
135498
196655
187155
1.23268e+06
1.35798e+06
926779
1.5838e+06
1.45599e+06
1.68104e+06
2.38981e+06
300149
762342
2.27608e+06
667210
2.13443e+06
1.02398e+06
1.11423e+06
1.20721e+06
534751
362485
448102
524354
1.97282e+06
177887
209894
310910
294569
274972
198955
410211
378992
354598
867896
903071
2.63852e+06
292201
134740
185966
2.08235e+06
596506
324178
313081
2.03178e+06
1.06641e+06
736086
115936
217952
138760
1.05158e+06
1.34061e+06
337491
1.50753e+06
205532
199324
2.71494e+06
1.77839e+06
2.17634e+06
425856
566185
989122
307745
781348
2.26917e+06
2.39293e+06
202178
232580
391862
319366
1.13713e+06
1.27039e+06
870037
980083
2.523e+06
2.32119e+06
298206
197303
115165
1.65959e+06
134481
2.18981e+06
433156
331512
1.17694e+06
376621
153659
2.02961e+06
230684
302052
114007
136468
1.50947e+06
524420
156257
823233
392038
215902
159801
139101
764783
140919
2.07616e+06
1.86313e+06
342786
932173
528217
155140
172923
1.60134e+06
193842
1.07993e+06
277453
596620
1.25721e+06
1.43465e+06
1.98371e+06
213585
337831
2.15959e+06
271115
169619
159583
186094
141058
2.20971e+06
1.72887e+06
399555
550860
951488
955326
1.24566e+06
439479
604346
435001
632256
1.34867e+06
1.24459e+06
1.14186e+06
1.78255e+06
841651
600495
1.71182e+06
604117
1.86229e+06
698266
778624
2.05905e+06
2.78553e+06
2.38871e+06
471788
452052
1.28922e+06
616404
446572
147365
385862
1.9767e+06
165786
194329
2.52769e+06
1.88929e+06
2.17154e+06
1.01284e+06
1.25626e+06
1.26639e+06
1.0936e+06
136047
128308
192289
130903
781435
849770
922559
431369
302281
662736
2.20225e+06
166185
221403
186285
173219
1.14489e+06
1.03469e+06
206184
1.96073e+06
2.21579e+06
1.32148e+06
1.07976e+06
1.78408e+06
2.05527e+06
129245
984638
625075
1.37119e+06
182302
293088
313591
1.76119e+06
1.75429e+06
807209
408297
123522
149057
256787
539598
1.83991e+06
245040
1.41535e+06
168495
411716
278155
371056
635355
326593
499471
48560.9
14027
499053
2.6085e+06
227998
186888
187296
145879
133948
199846
206106
148950
149512
587055
147657
161281
199941
1.10217e+06
1.35877e+06
978476
1.82423e+06
2.32354e+06
159862
222838
427699
185256
1.66732e+06
232048
2.43806e+06
262556
342233
660907
490982
259092
268681
623609
141002
166250
211857
134173
204211
131926
2.16979e+06
117629
173065
316543
132242
100078
2.06931e+06
231811
1.79157e+06
1.90874e+06
691451
444628
362727
528338
1.18721e+06
1.10762e+06
1.01791e+06
143707
1.30769e+06
675975
139765
2.2126e+06
148553
156022
413873
1.21656e+06
981359
1.08823e+06
1.48878e+06
214120
161459
463821
687591
1.50123e+06
799496
1.62096e+06
575037
1.3851e+06
1.27088e+06
457921
1.60711e+06
569288
1.48261e+06
676249
1.36837e+06
1.25548e+06
789303
1.60896e+06
203082
674499
526922
166273
211087
1.80701e+06
1.13697e+06
1.53988e+06
1.43265e+06
1.25e+06
1.54712e+06
1.14228e+06
434187
475835
703654
1.69821e+06
161394
2.49412e+06
199227
161501
1.88071e+06
224038
355347
695910
688467
2.05337e+06
121488
1.30824e+06
1.20863e+06
1.10952e+06
403137
593395
2.52117e+06
426149
325609
754467
194449
790024
365075
381068
135647
221463
230226
200542
603707
132671
740892
396963
301337
1.01351e+06
1.35065e+06
1.35607e+06
1.01311e+06
493998
2.38299e+06
147098
148286
2.12805e+06
1.92078e+06
1.16783e+06
2.77865e+06
1.25885e+06
1.08606e+06
1.11424e+06
2.46864e+06
1.24432e+06
996436
2.1935e+06
470543
497451
743314
1.9339e+06
118809
1.64341e+06
196784
287464
452135
758889
826498
896088
440182
313432
498762
82083.9
88119.8
162001
173379
237700
197303
156680
211827
1.23534e+06
2.24719e+06
270430
198657
2.0694e+06
1.51294e+06
597673
811764
162410
170136
1.80283e+06
1.19117e+06
252695
952262
893185
1.19018e+06
143559
162231
166226
143514
1.41372e+06
2.28142e+06
2.2259e+06
1.51272e+06
2.40925e+06
307004
133065
398803
1.21496e+06
1.11541e+06
1.31647e+06
599271
406268
2.55221e+06
562489
710698
929485
301055
254905
1.0628e+06
375183
193934
807606
308737
401196
2.36079e+06
409300
361834
1.27027e+06
1.17354e+06
1.07897e+06
542587
1.61324e+06
1.5201e+06
1.99575e+06
622153
642733
827055
1.70344e+06
813777
583039
1.51448e+06
292607
2.78979e+06
184021
2.12865e+06
569959
651316
154519
693814
1.33243e+06
159183
186960
183458
2.46188e+06
730781
670721
790117
391222
281956
355071
711866
1.60861e+06
718921
1.40005e+06
1.6493e+06
1.52457e+06
478749
1.55042e+06
1.17961e+06
1.24846e+06
1.47818e+06
1.55377e+06
1.18089e+06
1.25908e+06
1.48681e+06
857923
714081
54793.1
341824
209316
490859
725354
602598
841226
1.68873e+06
1.56601e+06
1.44457e+06
1.32514e+06
486341
1.34749e+06
669618
181787
125720
131095
226129
120267
577257
1.37286e+06
1.40183e+06
497096
2.30803e+06
187070
168712
1.79567e+06
2.22587e+06
106029
1.4247e+06
562884
763352
1.06673e+06
585815
380548
166183
564581
797252
72318.6
151505
2.33516e+06
309566
231224
566413
521703
613306
392296
148560
155071
398956
1.39982e+06
2.1638e+06
2.50512e+06
388240
431711
1.81512e+06
1.63625e+06
2.12783e+06
126414
1.18024e+06
2.07339e+06
2.52069e+06
2.59944e+06
2.54523e+06
669450
1.16174e+06
500833
2.40388e+06
1.82321e+06
747221
1.56683e+06
172643
152206
1.86543e+06
1.86715e+06
153730
501828
2.31155e+06
1.94478e+06
1.8505e+06
1.91525e+06
2.61026e+06
1.77325e+06
2.31247e+06
1.99475e+06
173182
315825
1.47286e+06
692486
1.20439e+06
253280
166796
210946
194582
175795
235159
209793
502290
2.31965e+06
1.40997e+06
496964
687782
1.50738e+06
195083
698631
485989
2.66885e+06
375991
365150
667858
383955
620174
275333
213416
2.1726e+06
17844.8
174184
173997
35844.8
545267
577636
207036
227076
241411
167176
611457
606924
146238
2.32617e+06
1.98339e+06
720067
1.50507e+06
517060
139601
1.75597e+06
388214
2.30967e+06
643189
786575
931431
1.07408e+06
2.03182e+06
1.88346e+06
1.73402e+06
1.58668e+06
642221
785365
2.03031e+06
1.88123e+06
929151
1.73213e+06
1.07204e+06
1.58454e+06
355710
271575
658966
718675
635386
299971
244258
207504
165879
154681
177809
148525
157162
266481
1.08107e+06
1.16049e+06
1.04857e+06
586968
1.14196e+06
1.25842e+06
1.93814e+06
823927
664522
2.05285e+06
685168
235148
146386
201438
163734
324415
299069
303244
157476
435223
343865
449869
924850
156705
239297
1.0857e+06
171584
123357
154762
133345
1.63439e+06
189884
221232
773512
617037
296404
771123
242422
146359
133209
2.43403e+06
2.51402e+06
1.53725e+06
1.25962e+06
1.22888e+06
1.56397e+06
2.46875e+06
1.27924e+06
143623
825679
461493
352042
508331
242263
2.33099e+06
255946
1.38572e+06
1.28176e+06
1.17709e+06
619705
419268
725115
425296
323346
2.35486e+06
271489
143836
772300
771664
353678
219851
269518
456404
932763
1.77081e+06
746929
597122
1.08888e+06
1.44414e+06
395132
577711
1.25081e+06
1.15374e+06
1.0589e+06
597393
642928
1.0351e+06
859408
1.20728e+06
640226
1.3258e+06
1.44144e+06
416975
1.56055e+06
2.7812e+06
1.95846e+06
126756
951846
1.03817e+06
1.12781e+06
343958
231671
1.68998e+06
294018
386467
476790
525115
224246
285762
228766
180577
1.62512e+06
1.25013e+06
1.31103e+06
1.57048e+06
360011
1.95897e+06
2.42854e+06
897450
157194
934305
1.01825e+06
1.10651e+06
1.03428e+06
1.19722e+06
336245
1.91795e+06
839536
784138
719354
849336
305977
426918
245275
226988
533346
627313
578733
665277
725112
785896
481396
477830
688692
691646
1.3991e+06
1.39236e+06
1.18138e+06
1.28889e+06
1.17516e+06
1.28245e+06
696887
757273
268310
166117
190217
228293
1.38109e+06
894939
152402
1.42349e+06
1.18142e+06
1.13316e+06
1.46639e+06
230087
508626
1.82907e+06
773929
1.68978e+06
1.55271e+06
122833
302825
1.2583e+06
749202
528676
1.67142e+06
581851
77780.1
1.28494e+06
1.18014e+06
1.39265e+06
624346
421397
1.70571e+06
664908
537734
2.2745e+06
667312
945270
225134
160973
382442
357700
327853
1.93987e+06
483163
320132
551126
507693
594272
299197
226501
1.27985e+06
1.4345e+06
229325
824277
173009
1.09969e+06
2.20675e+06
1.38203e+06
685692
512277
1.22056e+06
625722
556728
459809
300570
185830
460613
226882
564455
226009
380859
158698
180132
2.30641e+06
469574
1.98203e+06
1.14364e+06
1.22875e+06
664307
495089
1.17744e+06
2.1017e+06
134207
162964
165659
157620
416279
40318.6
13332.4
415926
878141
160767
933259
416214
283292
193109
623545
871897
1.81683e+06
143541
111861
191115
224253
483429
312469
1.23365e+06
1.10109e+06
262915
170582
134103
2.34191e+06
877928
145870
339622
166515
2.66889e+06
2.18617e+06
338411
255958
965079
463889
660123
1.29876e+06
1.0954e+06
1.19574e+06
2.52955e+06
2.01499e+06
162115
1.88219e+06
2.52868e+06
1.98386e+06
2.20932e+06
948783
192246
1.2704e+06
315403
194136
240496
471549
516799
377410
377283
853365
278054
187278
139756
1.23898e+06
1.53019e+06
1.66404e+06
1.8003e+06
1.92351e+06
865781
737402
608031
477406
301280
134765
589982
27305.7
288362
288103
14817.2
640716
321003
252581
96572
404260
457457
149868
406071
1.21686e+06
971607
669841
472913
540034
2.32517e+06
1.7746e+06
237998
762272
149808
162103
658823
776036
794355
1.57203e+06
464042
505401
156259
2.10106e+06
167819
369644
429860
400955
1.53812e+06
1.67236e+06
869476
917155
916412
658825
844286
1.57114e+06
1.49605e+06
1.49662e+06
518775
720175
128477
139586
132554
320806
149877
689074
1.46437e+06
1.29962e+06
1.59233e+06
1.16336e+06
1.60239e+06
1.16211e+06
789540
518551
1.40421e+06
1.02838e+06
1.40482e+06
1.0319e+06
335201
1.53917e+06
1.30059e+06
1.1401e+06
1.48487e+06
1.31417e+06
1.62051e+06
1.17872e+06
1.61914e+06
1.17812e+06
1.45659e+06
2.67485e+06
591611
830749
1.75122e+06
639499
157908
166003
267979
26539.8
267728
23453
152065
499275
1.5519e+06
1.42486e+06
1.68112e+06
747172
517108
2.3777e+06
77822.5
144758
294778
1.01769e+06
341919
942309
464692
2.41268e+06
2.43396e+06
1.45094e+06
173751
313659
1.6548e+06
885708
709744
474412
877558
805518
950324
330881
465270
2.47131e+06
580883
2.20247e+06
155183
150864
143301
153257
101791
2.17671e+06
176323
1.60725e+06
98960.9
1.17629e+06
1.48382e+06
178416
152738
226495
672664
236827
570649
525395
384966
416645
450076
189467
417113
562749
697377
467619
1.57729e+06
1.45821e+06
1.33889e+06
1.63043e+06
2.17768e+06
2.40199e+06
140838
137393
137906
151840
321137
188292
348760
2.41572e+06
2.46277e+06
2.48296e+06
1.88326e+06
74478.4
1.29284e+06
2.2599e+06
1.55793e+06
1.23044e+06
1.25477e+06
1.53706e+06
747705
657576
1.34296e+06
890542
1.57539e+06
113327
284137
366590
704126
290567
286832
326085
218644
251206
184156
213894
495086
496826
538583
537731
581835
580558
681332
670482
157651
154590
645779
414087
119608
241479
931250
1.57713e+06
158118
954596
2.06204e+06
640388
1.96415e+06
904503
247392
1.81495e+06
975456
820093
1.30005e+06
2.19905e+06
2.60456e+06
1.02089e+06
441277
2.19049e+06
316010
230054
196266
483035
104652
920524
1.61519e+06
422530
636055
256517
149232
275235
2.35797e+06
427548
500353
483272
355009
1.01352e+06
318704
251466
1.0004e+06
221348
2.15485e+06
167208
1.27568e+06
475661
517033
2.00177e+06
1.71125e+06
1.03714e+06
1.86435e+06
2.01942e+06
888414
2.17546e+06
740408
591093
1.71282e+06
1.86572e+06
2.17972e+06
2.0213e+06
593078
891160
1.04061e+06
742643
2.17764e+06
215619
1.7096e+06
185928
124309
162275
9820.71
74759.8
939074
100512
1.64372e+06
342856
253916
645452
696913
594326
489271
324020
1.44297e+06
322619
347349
1.29856e+06
106290
511295
474393
470723
1.49109e+06
1.36943e+06
1.61472e+06
709572
594020
252602
433907
857529
1.64257e+06
77814.7
422930
249364
159333
542187
1.73082e+06
984612
842910
1.82821e+06
203315
1.00627e+06
2.14045e+06
1.08535e+06
2.00758e+06
177504
2.2657e+06
268307
1.51168e+06
544864
672439
154418
17268.3
173035
172810
29508.3
289107
1.53475e+06
219988
1.8986e+06
856600
312638
1.47848e+06
1.41965e+06
1.61297e+06
1.54907e+06
1.74926e+06
1.6804e+06
816977
789978
556005
538554
618315
416323
1.39345e+06
1.28921e+06
1.1838e+06
372120
433813
401461
197113
1.31314e+06
1.14817e+06
100053
222179
164696
186659
198003
2.18438e+06
1.83675e+06
483158
1.5894e+06
1.46078e+06
1.71865e+06
134634
802119
1.48121e+06
1.54893e+06
152821
142962
1.76642e+06
558131
189079
328173
381697
354540
203287
612490
566535
524315
2.05736e+06
2.66996e+06
1.97308e+06
1.41049e+06
692525
499106
209603
228461
345169
247543
152852
134960
260264
754815
603456
153095
1.612e+06
1.87158e+06
787193
679770
196944
188384
166636
178698
523164
1.7653e+06
1.39381e+06
1.07633e+06
1.10796e+06
1.32128e+06
146484
167001
248291
148589
152802
343528
2.75839e+06
2.19075e+06
169090
209651
946167
816102
566167
1.75713e+06
1.89223e+06
1.48567e+06
1.62026e+06
946853
496490
426372
461552
211987
268015
2.02449e+06
546564
1.29347e+06
93005
1.87225e+06
170787
747101
868207
2.75694e+06
149711
770817
179962
721496
192641
454366
1.37999e+06
635812
1.59528e+06
1.03719e+06
1.74165e+06
1.8897e+06
896054
2.03911e+06
753400
611970
753971
612501
291006
895397
1.01132e+06
1.32384e+06
157649
256374
1.61439e+06
697421
2.53413e+06
2.05546e+06
2.30399e+06
414007
1.81013e+06
844927
660421
323740
246731
2.48243e+06
1.28116e+06
149981
2.68822e+06
2.27734e+06
77872.7
795065
649502
99113.7
1.03272e+06
839142
119891
212717
1.72901e+06
2.58331e+06
154170
920851
944797
1.88335e+06
1.82432e+06
667612
684168
667807
683372
160983
161726
160957
151380
122938
2.65164e+06
2.07393e+06
1.86508e+06
2.35371e+06
892299
479169
1.93412e+06
1.08916e+06
1.18897e+06
1.29157e+06
82285.1
1.97153e+06
345604
1.48082e+06
2.10719e+06
626972
442088
2.68712e+06
727121
763361
533518
562544
1.43279e+06
1.38432e+06
236367
231743
128679
152138
466015
1.69551e+06
1.56631e+06
1.43957e+06
711094
2.64944e+06
158426
323082
143068
1.4225e+06
1.55148e+06
909412
1.68202e+06
776853
1.82942e+06
656634
1.7376e+06
1.46923e+06
1.60235e+06
1.8721e+06
526265
934401
805563
657372
148912
210954
225859
294783
553879
469797
509767
2.19882e+06
1.02928e+06
1.25571e+06
2.02335e+06
236061
365239
152360
572364
801414
275276
385023
2.0415e+06
218522
145974
147942
150949
146744
92909.2
234995
182814
197451
1.76579e+06
2.08379e+06
180741
157135
201512
348568
762348
2.24692e+06
2.09447e+06
927296
155027
228476
1.7952e+06
158346
158898
2.72725e+06
1.06059e+06
2.06477e+06
585967
1.40131e+06
892624
869090
238705
973625
1.48696e+06
719955
517320
202268
463044
154472
121509
139265
2.21152e+06
1.32093e+06
1.3475e+06
2.19787e+06
342951
367805
189539
696231
168771
151344
161454
441577
344344
35076.6
344069
24015.7
150051
1.3711e+06
415923
604133
1.27835e+06
1.1793e+06
1.08175e+06
215240
2.51886e+06
825290
482547
2.17419e+06
1.30444e+06
1.35515e+06
221162
21734.9
220926
22860.1
1.91812e+06
467770
806394
953578
879881
176152
2.04533e+06
485955
347500
1.11851e+06
859625
145259
46773.4
1.50618e+06
313832
1.50189e+06
386365
514721
944929
1.05877e+06
889350
190422
773126
317509
410637
194598
208972
733668
765073
253876
465327
159703
160913
1.22935e+06
617631
452444
168980
648062
16783.9
62824.1
647531
820955
663288
982959
1.16676e+06
132210
2.50451e+06
2.60594e+06
330038
153819
171697
272563
299481
30979
299247
26695.3
1.32493e+06
454270
631255
2.42823e+06
2.46488e+06
2.10253e+06
1.8977e+06
1.14625e+06
1.01598e+06
972513
862617
2.05571e+06
298380
591250
211001
135890
151280
427621
600668
860597
2.3968e+06
2.41821e+06
304018
158105
797016
865910
289586
1.31485e+06
541031
442258
1.90561e+06
187565
170662
231073
1.2912e+06
1.29994e+06
1.3725e+06
870602
435049
609024
99571.6
102136
1.4802e+06
152748
1.31665e+06
169925
650324
1.05757e+06
926839
1.53659e+06
1.79744e+06
156052
208399
489035
2.13567e+06
10222.7
126470
37515.9
127119
343964
315632
99798.2
2.29824e+06
40962.9
2.17622e+06
566569
54912.9
17705.7
566105
374653
184115
21204.5
184047
476738
2.07231e+06
480242
2.26452e+06
2.61325e+06
75516.7
757621
894958
826106
1.0672e+06
513656
373361
1.14374e+06
715548
124899
281044
449367
320624
802321
1.05924e+06
294744
295998
2.51093e+06
914442
1.06163e+06
988353
1.14101e+06
1.59024e+06
141101
158734
1.33078e+06
1.61617e+06
539043
310062
357270
181844
365075
542759
160846
284790
414060
158704
111176
1.45489e+06
1.69889e+06
331116
736757
574278
586202
1.81183e+06
828854
358145
274798
696867
571518
141201
419893
1.6168e+06
2.07459e+06
559552
388745
987116
1.16636e+06
1.076e+06
94028.1
153123
405288
286486
1.53938e+06
558446
120688
59201.7
93311.6
545237
381060
955310
1.12864e+06
1.04138e+06
156643
2.23671e+06
2.55601e+06
172618
176096
167523
163406
2.24213e+06
449891
330947
957578
2.76921e+06
2.22304e+06
637952
219351
586997
541999
329739
308220
350812
194102
168231
169325
479927
2.17552e+06
123750
1.22139e+06
1.32293e+06
2.07638e+06
1.49863e+06
1.46262e+06
560971
553158
756659
768582
346531
393555
337809
152364
148388
890925
287114
2.02604e+06
1.40696e+06
357760
147639
861703
2.58615e+06
145804
1.39885e+06
1.16382e+06
1.10692e+06
1.44477e+06
983734
424391
593350
1.3084e+06
226635
954764
414239
464038
235941
475580
293847
382825
1.05017e+06
521795
218808
189449
253974
1.3535e+06
1.11128e+06
238323
227481
212882
245387
153593
712933
548815
135344
519412
156696
296314
480946
2.36646e+06
2.08348e+06
1.41413e+06
416644
293355
931798
864185
795159
373982
372603
179897
1.28053e+06
173246
733097
952923
275153
234262
2.10889e+06
118697
423609
395093
187495
2.22829e+06
116034
149277
634833
748138
222704
211412
233917
168176
158238
1.41385e+06
123427
174062
21646.6
173941
1.41276e+06
1.34889e+06
2.55441e+06
1.51717e+06
1.91609e+06
155527
1.97744e+06
1.35684e+06
19581.1
142126
337757
253805
576640
626310
675292
882025
497447
2.07159e+06
1.22313e+06
1.32599e+06
209036
137326
134013
155295
167927
177738
279720
1.18318e+06
142181
2.56845e+06
627862
255441
1.33408e+06
878662
445333
621734
284300
246834
351832
527990
341679
703373
636968
252836
157957
917034
1.26018e+06