/*--------------------------------*- C++ -*----------------------------------*\
| =========                 |                                                 |
| \\      /  F ield         | OpenFOAM: The Open Source CFD Toolbox           |
|  \\    /   O peration     | Version:  2.3.1                                 |
|   \\  /    A nd           | Web:      www.OpenFOAM.org                      |
|    \\/     M anipulation  |                                                 |
\*---------------------------------------------------------------------------*/
FoamFile
{
    version     2.0;
    format      ascii;
    class       surfaceScalarField;
    location    "0.59";
    object      phi;
}
// * * * * * * * * * * * * * * * * * * * * * * * * * * * * * * * * * * * * * //

dimensions      [0 3 -1 0 0 0 0];

internalField   nonuniform List<scalar> 
23326
(
-1.24321e-05
0.000111477
-9.90422e-05
-2.13002e-05
0.000126922
-0.000118001
-2.69369e-05
0.000141324
-0.000135686
-3.05793e-05
0.000156892
-0.000153248
-3.36964e-05
0.000169521
-0.000166403
-3.58979e-05
0.000181829
-0.000179626
-3.74081e-05
0.000192434
-0.000190924
-3.81778e-05
0.000201103
-0.000200333
-3.85684e-05
0.000207664
-0.000207273
-3.86261e-05
0.00021273
-0.000212672
-3.85355e-05
0.000216516
-0.000216607
0.000219262
-3.83701e-05
-0.000219427
-6.91024e-06
0.000118388
-1.36567e-05
0.000133681
-1.96886e-05
0.000147358
-2.41729e-05
0.000161372
-2.78486e-05
0.000173196
-3.05624e-05
0.000184543
-3.24612e-05
0.000194333
-3.37153e-05
0.000202357
-3.4503e-05
0.000208452
-3.4957e-05
0.000213184
-3.51766e-05
0.000216736
0.000219355
-3.52694e-05
-5.57397e-06
0.00012397
-1.08743e-05
0.000138976
-1.58737e-05
0.000152362
-1.99805e-05
0.000165474
-2.3519e-05
0.000176732
-2.6284e-05
0.000187307
-2.83367e-05
0.000196385
-2.97958e-05
0.000203816
-3.08595e-05
0.000209516
-3.15886e-05
0.000213913
-3.20574e-05
0.000217204
0.00021972
-3.2423e-05
-4.69454e-06
0.000128668
-9.26747e-06
0.000143542
-1.3545e-05
0.000156641
-1.71599e-05
0.000169086
-2.03554e-05
0.000179925
-2.29517e-05
0.000189902
-2.50114e-05
0.000198445
-2.6551e-05
0.000205355
-2.77184e-05
0.000210683
-2.86174e-05
0.000214812
-2.92871e-05
0.000217874
0.000220284
-2.98503e-05
-3.84372e-06
0.000132515
-7.88154e-06
0.000147576
-1.16805e-05
0.00016044
-1.49508e-05
0.000172356
-1.78425e-05
0.000182814
-2.02876e-05
0.000192346
-2.22417e-05
0.000200399
-2.37819e-05
0.000206896
-2.50339e-05
0.000211935
-2.59736e-05
0.000215752
-2.67839e-05
0.000218685
0.000220929
-2.74295e-05
-3.20138e-06
0.000135718
-6.76215e-06
0.000151137
-1.01505e-05
0.000163827
-1.31243e-05
0.000175329
-1.58114e-05
0.000185499
-1.80437e-05
0.000194577
-1.99041e-05
0.000202259
-2.14393e-05
0.000208431
-2.26544e-05
0.000213151
-2.36713e-05
0.000216769
-2.45205e-05
0.000219534
0.00022166
-2.52508e-05
-2.7555e-06
0.000138475
-5.91494e-06
0.000154297
-8.94599e-06
0.000166857
-1.16658e-05
0.000178049
-1.4084e-05
0.000187916
-1.61824e-05
0.000196675
-1.79398e-05
0.000204017
-1.93848e-05
0.000209877
-2.06136e-05
0.00021438
-2.16536e-05
0.000217809
-2.25608e-05
0.000220441
0.000222471
-2.33717e-05
-2.42254e-06
0.000140899
-5.25875e-06
0.000157135
-7.98323e-06
0.000169581
-1.04248e-05
0.00018049
-1.26576e-05
0.000190148
-1.46008e-05
0.000198617
-1.62574e-05
0.000205673
-1.76326e-05
0.000211252
-1.88407e-05
0.000215588
-1.98855e-05
0.000218854
-2.07878e-05
0.000221344
0.000223268
-2.15846e-05
-2.15745e-06
0.000143058
-4.72915e-06
0.000159708
-7.19817e-06
0.00017205
-9.45039e-06
0.000182742
-1.14821e-05
0.000192179
-1.32553e-05
0.00020039
-1.48067e-05
0.000207224
-1.61528e-05
0.000212599
-1.72961e-05
0.000216732
-1.83069e-05
0.000219865
-1.92087e-05
0.000222246
0.000224135
-2.00764e-05
-1.93403e-06
0.000144993
-4.27373e-06
0.000162049
-6.53068e-06
0.000174307
-8.59107e-06
0.000184801
-1.04818e-05
0.000194069
-1.21302e-05
0.000202038
-1.35613e-05
0.000208655
-1.48088e-05
0.000213846
-1.59362e-05
0.00021786
-1.69264e-05
0.000220855
-1.78244e-05
0.000223144
0.000224949
-1.86378e-05
-1.74828e-06
0.000146743
-3.89757e-06
0.000164198
-5.96533e-06
0.000176374
-7.86549e-06
0.000186701
-9.59578e-06
0.000195799
-1.11249e-05
0.000203567
-1.24708e-05
0.000210001
-1.36541e-05
0.00021503
-1.47154e-05
0.000218921
-1.56742e-05
0.000221814
-1.65865e-05
0.000224056
0.000225736
-1.73736e-05
-1.58468e-06
0.000148328
-3.55823e-06
0.000166172
-5.46234e-06
0.000178279
-7.24608e-06
0.000188484
-8.82476e-06
0.000197377
-1.02537e-05
0.000204995
-1.15141e-05
0.000211261
-1.26353e-05
0.000216151
-1.36467e-05
0.000219932
-1.45736e-05
0.000222741
-1.53934e-05
0.000224876
0.000226528
-1.61861e-05
-1.44678e-06
0.000149775
-3.26527e-06
0.000167991
-5.03627e-06
0.00018005
-6.67481e-06
0.000190123
-8.1698e-06
0.000198871
-9.50233e-06
0.000206327
-1.06627e-05
0.000212421
-1.17283e-05
0.000217217
-1.267e-05
0.000220874
-1.35498e-05
0.000223621
-1.43547e-05
0.000225681
0.000227205
-1.50318e-05
-1.32801e-06
0.000151104
-3.03206e-06
0.000169696
-4.6638e-06
0.000181681
-6.17407e-06
0.000191633
-7.5667e-06
0.000200264
-8.79097e-06
0.000207551
-9.91235e-06
0.000213542
-1.08963e-05
0.000218201
-1.1823e-05
0.000221801
-1.26927e-05
0.000224491
-1.34967e-05
0.000226485
0.000228034
-1.43253e-05
-1.21772e-06
0.000152322
-2.78753e-06
0.000171266
-4.33321e-06
0.000183227
-5.74598e-06
0.000193045
-7.02678e-06
0.000201544
-8.2009e-06
0.000208725
-9.23191e-06
0.000214573
-1.0196e-05
0.000219165
-1.10294e-05
0.000222634
-1.18273e-05
0.000225289
-1.25916e-05
0.000227249
0.000228701
-1.32585e-05
-1.12192e-06
0.000153444
-2.58991e-06
0.000172734
-4.02048e-06
0.000184657
-5.33835e-06
0.000194363
-6.54254e-06
0.000202748
-7.62288e-06
0.000209805
-8.59931e-06
0.00021555
-9.48238e-06
0.000220048
-1.03323e-05
0.000223484
-1.1126e-05
0.000226082
-1.18474e-05
0.00022797
0.000229364
-1.25105e-05
-1.03627e-06
0.00015448
-2.39279e-06
0.00017409
-3.72959e-06
0.000185994
-4.97404e-06
0.000195607
-6.10253e-06
0.000203876
-7.12039e-06
0.000210823
-8.04096e-06
0.00021647
-8.91341e-06
0.00022092
-9.69389e-06
0.000224265
-1.04077e-05
0.000226796
-1.11039e-05
0.000228667
0.000230023
-1.1763e-05
-9.4715e-07
0.000155427
-2.2277e-06
0.000175371
-3.49226e-06
0.000187259
-4.66169e-06
0.000196777
-5.72513e-06
0.00020494
-6.68966e-06
0.000211787
-7.55875e-06
0.000217339
-8.30781e-06
0.000221669
-9.05962e-06
0.000225016
-9.76692e-06
0.000227504
-1.04397e-05
0.000229339
0.000230666
-1.10824e-05
-8.7974e-07
0.000156307
-2.08256e-06
0.000176574
-3.24952e-06
0.000188426
-4.35221e-06
0.000197879
-5.33044e-06
0.000205918
-6.23821e-06
0.000212695
-7.04176e-06
0.000218142
-7.83072e-06
0.000222458
-8.51798e-06
0.000225704
-9.19384e-06
0.00022818
-9.81286e-06
0.000229958
0.000231283
-1.04301e-05
-8.18395e-07
0.000157126
-1.92788e-06
0.000177684
-3.05091e-06
0.000189549
-4.06917e-06
0.000198898
-5.01993e-06
0.000206869
-5.85392e-06
0.000213529
-6.63817e-06
0.000218926
-7.33702e-06
0.000223156
-8.01773e-06
0.000226384
-8.60766e-06
0.00022877
-9.21828e-06
0.000230569
0.000231831
-9.76644e-06
-7.62313e-07
0.000157888
-1.80518e-06
0.000178726
-2.84442e-06
0.000190589
-3.80933e-06
0.000199863
-4.67805e-06
0.000207737
-5.4921e-06
0.000214343
-6.21066e-06
0.000219645
-6.8778e-06
0.000223824
-7.50083e-06
0.000227007
-8.11798e-06
0.000229387
-8.67663e-06
0.000231128
0.000232388
-9.23362e-06
-6.86308e-07
0.000158574
-1.66931e-06
0.00017971
-2.65485e-06
0.000191574
-3.58606e-06
0.000200794
-4.41126e-06
0.000208562
-5.13561e-06
0.000215067
-5.8179e-06
0.000220327
-6.45069e-06
0.000224456
-7.07448e-06
0.000227631
-7.64447e-06
0.000229957
-8.19751e-06
0.000231681
0.000232911
-8.71987e-06
-6.448e-07
0.000159219
-1.56811e-06
0.000180633
-2.49796e-06
0.000192504
-3.33539e-06
0.000201632
-4.11898e-06
0.000209346
-4.82434e-06
0.000215772
-5.47576e-06
0.000220978
-6.07622e-06
0.000225057
-6.6463e-06
0.000228201
-7.19338e-06
0.000230504
-7.71253e-06
0.0002322
0.000233415
-8.21657e-06
-5.844e-07
0.000159803
-1.45181e-06
0.0001815
-2.33112e-06
0.000193384
-3.12305e-06
0.000202424
-3.86288e-06
0.000210086
-4.53496e-06
0.000216444
-5.15157e-06
0.000221594
-5.72662e-06
0.000225632
-6.24674e-06
0.000228721
-6.73851e-06
0.000230996
-7.24861e-06
0.000232711
0.000233912
-7.74607e-06
-5.39864e-07
0.000160343
-1.3391e-06
0.0001823
-2.17258e-06
0.000194218
-2.947e-06
0.000203199
-3.62385e-06
0.000210763
-4.26192e-06
0.000217082
-4.8217e-06
0.000222154
-5.34539e-06
0.000226155
-5.86324e-06
0.000229239
-6.36656e-06
0.000231499
-6.82145e-06
0.000233165
0.000234389
-7.2983e-06
-5.07921e-07
0.00016085
-1.25731e-06
0.000183049
-2.02419e-06
0.000194985
-2.75892e-06
0.000203934
-3.39994e-06
0.000211404
-3.97975e-06
0.000217662
-4.51074e-06
0.000222685
-5.03061e-06
0.000226675
-5.50346e-06
0.000229712
-5.95405e-06
0.00023195
-6.42888e-06
0.00023364
0.000234828
-6.86783e-06
-4.51273e-07
0.000161301
-1.15609e-06
0.000183754
-1.88104e-06
0.00019571
-2.55316e-06
0.000204607
-3.18508e-06
0.000212036
-3.73437e-06
0.000218211
-4.23826e-06
0.000223188
-4.70884e-06
0.000227145
-5.15581e-06
0.000230159
-5.61316e-06
0.000232407
-6.00032e-06
0.000234028
0.000235238
-6.40964e-06
-4.01952e-07
0.000161701
-1.08662e-06
0.000184439
-1.77039e-06
0.000196394
-2.38511e-06
0.000205222
-2.9571e-06
0.000212608
-3.47949e-06
0.000218733
-3.98153e-06
0.00022369
-4.40143e-06
0.000227565
-4.82692e-06
0.000230584
-5.23793e-06
0.000232818
-5.66554e-06
0.000234455
0.000235592
-6.01953e-06
-3.75925e-07
0.000162076
-9.92611e-07
0.000185056
-1.6194e-06
0.000197022
-2.2452e-06
0.000205848
-2.76618e-06
0.00021313
-3.25684e-06
0.000219224
-3.68321e-06
0.000224116
-4.13771e-06
0.000228019
-4.5137e-06
0.00023096
-4.91009e-06
0.000233214
-5.26906e-06
0.000234814
0.00023601
-5.68757e-06
-3.19859e-07
0.000162394
-8.83863e-07
0.000185621
-1.51893e-06
0.000197657
-2.0658e-06
0.000206396
-2.58134e-06
0.000213646
-3.0219e-06
0.000219664
-3.45166e-06
0.000224546
-3.8258e-06
0.000228393
-4.21436e-06
0.000231348
-4.55926e-06
0.000233559
-4.95394e-06
0.000235209
0.000236343
-5.28648e-06
-2.95129e-07
0.000162688
-8.43489e-07
0.00018617
-1.3764e-06
0.000198191
-1.91777e-06
0.000206938
-2.378e-06
0.000214106
-2.81997e-06
0.000220106
-3.20225e-06
0.000224928
-3.5853e-06
0.000228776
-3.92288e-06
0.000231686
-4.2808e-06
0.000233917
-4.57963e-06
0.000235508
0.000236693
-4.92945e-06
-2.61407e-07
0.000162948
-7.43738e-07
0.000186652
-1.28895e-06
0.000198737
-1.75051e-06
0.0002074
-2.21182e-06
0.000214568
-2.60319e-06
0.000220497
-2.98634e-06
0.000225311
-3.29457e-06
0.000229084
-3.64547e-06
0.000232037
-3.95726e-06
0.000234229
-4.28659e-06
0.000235837
0.000236956
-4.55007e-06
-2.32027e-07
0.000163179
-6.6487e-07
0.000187084
-1.15555e-06
0.000199229
-1.63887e-06
0.000207884
-2.0493e-06
0.000214979
-2.41767e-06
0.000220866
-2.72778e-06
0.000225621
-3.07184e-06
0.000229428
-3.37411e-06
0.000232339
-3.67175e-06
0.000234527
-3.96738e-06
0.000236133
0.000237253
-4.26383e-06
-1.71953e-07
0.000163351
-6.133e-07
0.000187525
-1.07502e-06
0.000199691
-1.48197e-06
0.000208292
-1.86757e-06
0.000215364
-2.21325e-06
0.000221212
-2.53001e-06
0.000225938
-2.82626e-06
0.000229724
-3.11324e-06
0.000232626
-3.36632e-06
0.00023478
-3.64328e-06
0.00023641
0.000237552
-3.94239e-06
-1.79795e-07
0.00016353
-5.41614e-07
0.000187887
-9.49352e-07
0.000200098
-1.37982e-06
0.000208722
-1.71458e-06
0.000215699
-2.01206e-06
0.000221509
-2.30861e-06
0.000226234
-2.58937e-06
0.000230005
-2.82887e-06
0.000232865
-3.09362e-06
0.000235044
-3.35937e-06
0.000236676
0.000237795
-3.60165e-06
-1.15993e-07
0.000163646
-4.72137e-07
0.000188243
-8.74877e-07
0.000200501
-1.20471e-06
0.000209052
-1.54334e-06
0.000216038
-1.84598e-06
0.000221812
-2.12127e-06
0.000226509
-2.35383e-06
0.000230237
-2.57635e-06
0.000233087
-2.82041e-06
0.000235289
-3.02873e-06
0.000236885
0.000238038
-3.27224e-06
-9.84063e-08
0.000163744
-4.00878e-07
0.000188545
-7.5502e-07
0.000200855
-1.10959e-06
0.000209407
-1.40055e-06
0.000216329
-1.65611e-06
0.000222067
-1.88634e-06
0.000226739
-2.09904e-06
0.00023045
-2.33352e-06
0.000233322
-2.5601e-06
0.000235515
-2.75599e-06
0.000237081
0.000238218
-2.93524e-06
-6.82162e-08
0.000163813
-3.38407e-07
0.000188816
-6.62083e-07
0.000201178
-9.68536e-07
0.000209713
-1.23762e-06
0.000216598
-1.49866e-06
0.000222328
-1.71242e-06
0.000226953
-1.91052e-06
0.000230648
-2.0998e-06
0.000233511
-2.28809e-06
0.000235703
-2.47633e-06
0.000237269
0.000238405
-2.66363e-06
-3.0056e-08
0.000163843
-2.73644e-07
0.000189059
-5.73083e-07
0.000201478
-8.56218e-07
0.000209996
-1.10455e-06
0.000216847
-1.29442e-06
0.000222518
-1.51522e-06
0.000227174
-1.69776e-06
0.00023083
-1.8752e-06
0.000233688
-2.02628e-06
0.000235854
-2.22122e-06
0.000237464
0.000238634
-2.45074e-06
-3.15148e-09
0.000163846
-2.15634e-07
0.000189271
-4.88049e-07
0.00020175
-7.46719e-07
0.000210255
-9.74604e-07
0.000217074
-1.17262e-06
0.000222716
-1.32265e-06
0.000227324
-1.46028e-06
0.000230968
-1.61852e-06
0.000233846
-1.77194e-06
0.000236008
-1.90752e-06
0.000237599
0.000238742
-2.01475e-06
7.10381e-09
0.000163839
-1.58228e-07
0.000189437
-4.0338e-07
0.000201995
-6.14451e-07
0.000210466
-8.21584e-07
0.000217281
-9.72881e-07
0.000222868
-1.13251e-06
0.000227484
-1.28146e-06
0.000231117
-1.39845e-06
0.000233963
-1.54582e-06
0.000236155
-1.67577e-06
0.000237729
0.000238917
-1.85162e-06
3.91386e-08
0.0001638
-9.54197e-08
0.000189571
-2.9207e-07
0.000202192
-5.08635e-07
0.000210682
-6.69661e-07
0.000217442
-8.31842e-07
0.00022303
-9.46838e-07
0.000227599
-1.05184e-06
0.000231222
-1.18308e-06
0.000234095
-1.28447e-06
0.000236256
-1.41576e-06
0.000237861
0.000239021
-1.51937e-06
6.31322e-08
0.000163737
-6.30524e-08
0.000189698
-2.37592e-07
0.000202366
-4.04883e-07
0.000210849
-5.48006e-07
0.000217585
-6.64425e-07
0.000223146
-7.64092e-07
0.000227698
-8.82449e-07
0.00023134
-9.69257e-07
0.000234182
-1.058e-06
0.000236345
-1.15242e-06
0.000237955
0.000239124
-1.25497e-06
9.68136e-08
0.00016364
1.76902e-08
0.000189777
-1.27393e-07
0.000202511
-2.75704e-07
0.000210998
-4.01137e-07
0.000217711
-5.00545e-07
0.000223246
-5.83982e-07
0.000227782
-6.59006e-07
0.000231415
-7.3177e-07
0.000234254
-8.05779e-07
0.000236419
-8.79721e-07
0.000238029
0.000239193
-9.49183e-07
1.20592e-07
0.000163519
6.97061e-08
0.000189828
-4.90374e-08
0.00020263
-1.76044e-07
0.000211125
-2.83954e-07
0.000217819
-3.40581e-07
0.000223302
-4.07451e-07
0.000227849
-4.67393e-07
0.000231475
-5.26185e-07
0.000234313
-5.87796e-07
0.000236481
-6.5874e-07
0.0002381
0.000239285
-7.51058e-07
1.26542e-07
0.000163393
1.19442e-07
0.000189835
2.38504e-08
0.000202726
-5.94761e-08
0.000211208
-1.45487e-07
0.000217905
-2.09542e-07
0.000223366
-2.60909e-07
0.0002279
-2.77932e-07
0.000231492
-3.21282e-07
0.000234357
-3.38673e-07
0.000236498
-3.82009e-07
0.000238143
0.000239289
-3.85912e-07
1.74042e-07
0.000163219
1.66884e-07
0.000189842
1.20674e-07
0.000202772
3.27295e-08
0.000211296
-2.82766e-09
0.00021794
-5.27188e-08
0.000223416
-6.15451e-08
0.000227909
-9.15573e-08
0.000231522
-9.35698e-08
0.000234359
-1.28086e-07
0.000236533
-1.45257e-07
0.00023816
0.000239356
-2.12253e-07
1.83934e-07
0.000163035
2.23975e-07
0.000189802
1.70089e-07
0.000202826
1.29653e-07
0.000211337
1.04765e-07
0.000217965
9.95796e-08
0.000223421
7.95783e-08
0.000227929
9.23839e-08
0.000231509
1.04667e-07
0.000234346
1.13743e-07
0.000236524
9.2268e-08
0.000238182
0.000239341
1.07404e-07
2.0822e-07
0.000162827
2.47219e-07
0.000189763
2.64468e-07
0.000202809
2.45198e-07
0.000211356
2.13424e-07
0.000217997
2.2413e-07
0.000223411
2.74029e-07
0.000227879
2.73599e-07
0.00023151
3.0006e-07
0.00023432
3.21766e-07
0.000236502
3.33324e-07
0.00023817
0.000239352
3.22792e-07
2.33112e-07
0.000162594
3.21999e-07
0.000189674
3.35685e-07
0.000202795
3.35222e-07
0.000211356
3.72899e-07
0.000217959
3.73346e-07
0.00022341
4.11256e-07
0.000227841
4.80771e-07
0.00023144
5.21614e-07
0.000234279
5.30554e-07
0.000236493
5.95936e-07
0.000238105
0.000239303
6.44895e-07
2.40265e-07
0.000162353
3.7126e-07
0.000189543
4.05485e-07
0.000202761
4.23976e-07
0.000211338
4.5188e-07
0.000217932
5.21213e-07
0.000223341
5.73491e-07
0.000227789
6.28857e-07
0.000231385
7.10011e-07
0.000234198
7.85036e-07
0.000236418
8.21463e-07
0.000238068
0.000239274
8.49712e-07
2.8566e-07
0.000162068
4.19084e-07
0.00018941
4.99281e-07
0.000202681
5.37508e-07
0.0002113
6.08881e-07
0.00021786
6.67555e-07
0.000223282
7.61987e-07
0.000227695
8.30766e-07
0.000231316
8.95167e-07
0.000234134
9.50593e-07
0.000236363
1.01839e-06
0.000238
0.000239266
1.02652e-06
2.89903e-07
0.000161778
4.66515e-07
0.000189233
5.43574e-07
0.000202604
6.25106e-07
0.000211218
7.13375e-07
0.000217772
8.14267e-07
0.000223181
8.9573e-07
0.000227613
1.00674e-06
0.000231205
1.08648e-06
0.000234054
1.18867e-06
0.00023626
1.28673e-06
0.000237902
0.000239167
1.3857e-06
3.16434e-07
0.000161461
5.15125e-07
0.000189034
6.36833e-07
0.000202482
7.37778e-07
0.000211117
8.16475e-07
0.000217693
9.3301e-07
0.000223065
1.05707e-06
0.000227489
1.18286e-06
0.00023108
1.30461e-06
0.000233932
1.41989e-06
0.000236145
1.49623e-06
0.000237826
0.000239082
1.58124e-06
3.41026e-07
0.00016112
5.62007e-07
0.000188813
7.05836e-07
0.000202338
8.24564e-07
0.000210998
9.46599e-07
0.000217571
1.07905e-06
0.000222932
1.21797e-06
0.00022735
1.35711e-06
0.00023094
1.49312e-06
0.000233796
1.62057e-06
0.000236018
1.7419e-06
0.000237705
0.000238955
1.86908e-06
3.66755e-07
0.000160753
6.10351e-07
0.00018857
7.73768e-07
0.000202175
9.11553e-07
0.00021086
1.0766e-06
0.000217406
1.22378e-06
0.000222785
1.37719e-06
0.000227197
1.53047e-06
0.000230787
1.70576e-06
0.000233621
1.84441e-06
0.000235879
1.96988e-06
0.000237579
0.00023885
2.07465e-06
3.6995e-07
0.000160383
6.56812e-07
0.000188283
8.41856e-07
0.00020199
1.024e-06
0.000210678
1.17907e-06
0.000217251
1.34211e-06
0.000222622
1.53729e-06
0.000227002
1.73213e-06
0.000230592
1.86528e-06
0.000233488
2.04559e-06
0.000235699
2.19092e-06
0.000237434
0.000238665
2.37636e-06
4.1704e-07
0.000159966
7.03883e-07
0.000187996
9.34607e-07
0.000201759
1.11069e-06
0.000210502
1.28353e-06
0.000217078
1.51589e-06
0.00022239
1.69874e-06
0.000226819
1.87876e-06
0.000230412
2.08054e-06
0.000233286
2.24173e-06
0.000235538
2.4338e-06
0.000237242
0.000238591
2.50774e-06
4.21235e-07
0.000159545
7.53186e-07
0.000187664
1.00436e-06
0.000201508
1.22342e-06
0.000210283
1.43977e-06
0.000216862
1.6082e-06
0.000222221
1.83226e-06
0.000226595
2.05736e-06
0.000230187
2.27471e-06
0.000233069
2.48668e-06
0.000235326
2.67118e-06
0.000237057
0.000238367
2.89479e-06
4.46983e-07
0.000159098
7.7788e-07
0.000187333
1.04845e-06
0.000201237
1.28631e-06
0.000210045
1.51892e-06
0.000216629
1.78291e-06
0.000221957
2.02376e-06
0.000226354
2.26214e-06
0.000229949
2.49701e-06
0.000232834
2.71961e-06
0.000235103
2.92809e-06
0.000236849
0.000238176
3.11961e-06
4.59089e-07
0.000158639
8.51102e-07
0.000186941
1.14317e-06
0.000200945
1.40013e-06
0.000209788
1.65138e-06
0.000216378
1.90295e-06
0.000221706
2.15796e-06
0.000226099
2.41075e-06
0.000229696
2.68323e-06
0.000232561
2.91868e-06
0.000234868
3.14277e-06
0.000236625
0.00023795
3.3691e-06
5.01641e-07
0.000158137
8.99184e-07
0.000186543
1.21344e-06
0.000200631
1.51478e-06
0.000209487
1.78049e-06
0.000216112
2.04904e-06
0.000221437
2.34574e-06
0.000225802
2.61197e-06
0.00022943
2.84202e-06
0.000232331
3.11577e-06
0.000234594
3.34254e-06
0.000236398
0.000237723
3.56931e-06
5.07656e-07
0.00015763
9.47983e-07
0.000186103
1.28147e-06
0.000200297
1.57677e-06
0.000209192
1.88635e-06
0.000215803
2.19687e-06
0.000221127
2.47941e-06
0.00022552
2.78703e-06
0.000229122
3.08659e-06
0.000232032
3.31949e-06
0.000234361
3.60102e-06
0.000236117
0.000237463
3.86044e-06
5.34183e-07
0.000157096
9.72655e-07
0.000185665
1.37838e-06
0.000199892
1.69156e-06
0.000208878
2.01883e-06
0.000215475
2.31701e-06
0.000220829
2.64446e-06
0.000225192
2.93852e-06
0.000228828
3.24914e-06
0.000231721
3.54792e-06
0.000234062
3.82616e-06
0.000235838
0.000237248
4.04115e-06
5.43775e-07
0.000156552
1.04669e-06
0.000185162
1.42388e-06
0.000199514
1.7819e-06
0.00020852
2.1263e-06
0.000215131
2.46827e-06
0.000220487
2.80931e-06
0.000224851
3.14348e-06
0.000228494
3.44417e-06
0.00023142
3.78508e-06
0.000233721
4.06319e-06
0.00023556
0.000236919
4.39298e-06
5.72803e-07
0.000155979
1.07595e-06
0.000184658
1.49569e-06
0.000199095
1.90013e-06
0.000208116
2.23435e-06
0.000214797
2.62073e-06
0.0002201
2.94804e-06
0.000224524
3.29264e-06
0.000228149
3.67463e-06
0.000231038
3.96973e-06
0.000233426
4.2991e-06
0.000235231
0.000236682
4.53608e-06
6.08343e-07
0.000155371
1.12821e-06
0.000184139
1.58964e-06
0.000198633
1.97402e-06
0.000207732
2.373e-06
0.000214398
2.73959e-06
0.000219734
3.12533e-06
0.000224138
3.51781e-06
0.000227757
3.85189e-06
0.000230704
4.21376e-06
0.000233064
4.54605e-06
0.000234899
0.000236318
4.90996e-06
6.16309e-07
0.000154754
1.16642e-06
0.000183588
1.65025e-06
0.000198149
2.07023e-06
0.000207312
2.48648e-06
0.000213982
2.87503e-06
0.000219345
3.28717e-06
0.000223726
3.66486e-06
0.000227379
4.05929e-06
0.00023031
4.43992e-06
0.000232684
4.76973e-06
0.000234569
0.000236005
5.08223e-06
6.39567e-07
0.000154115
1.22666e-06
0.000183001
1.71524e-06
0.000197661
2.19633e-06
0.000206831
2.61385e-06
0.000213564
3.04129e-06
0.000218918
3.44664e-06
0.000223321
3.88922e-06
0.000226937
4.24325e-06
0.000229956
4.63995e-06
0.000232287
5.025e-06
0.000234184
0.000235613
5.41708e-06
6.61544e-07
0.000153453
1.27359e-06
0.000182389
1.80133e-06
0.000197133
2.25838e-06
0.000206374
2.7121e-06
0.00021311
3.18655e-06
0.000218443
3.60203e-06
0.000222905
4.0376e-06
0.000226501
4.46099e-06
0.000229532
4.87067e-06
0.000231877
5.25376e-06
0.000233801
0.000235289
5.57785e-06
7.00718e-07
0.000152752
1.31338e-06
0.000181777
1.88983e-06
0.000196557
2.38828e-06
0.000205875
2.83923e-06
0.000212659
3.30451e-06
0.000217978
3.78695e-06
0.000222423
4.23779e-06
0.00022605
4.67632e-06
0.000229094
5.10236e-06
0.000231451
5.51777e-06
0.000233385
0.000234866
5.94098e-06
6.81606e-07
0.000152071
1.37881e-06
0.000181079
1.95285e-06
0.000195983
2.47264e-06
0.000205355
2.99065e-06
0.000212141
3.44666e-06
0.000217522
3.94752e-06
0.000221922
4.41301e-06
0.000225585
4.89104e-06
0.000228616
5.30275e-06
0.00023104
5.74774e-06
0.00023294
0.00023448
6.13393e-06
7.52746e-07
0.000151318
1.39246e-06
0.00018044
1.99102e-06
0.000195384
2.55583e-06
0.00020479
3.09305e-06
0.000211604
3.61745e-06
0.000216998
4.10731e-06
0.000221432
4.58683e-06
0.000225105
5.08012e-06
0.000228123
5.55475e-06
0.000230565
5.98232e-06
0.000232513
0.000234077
6.38475e-06
7.41308e-07
0.000150577
1.5091e-06
0.000179672
2.13056e-06
0.000194763
2.71747e-06
0.000204204
3.24886e-06
0.000211073
3.79086e-06
0.000216456
4.29691e-06
0.000220926
4.81904e-06
0.000224583
5.3007e-06
0.000227641
5.79405e-06
0.000230072
6.24535e-06
0.000232061
0.000233578
6.74453e-06
7.64417e-07
0.000149812
1.50542e-06
0.000178931
2.16869e-06
0.000194099
2.75014e-06
0.000203622
3.35286e-06
0.00021047
3.8857e-06
0.000215923
4.46031e-06
0.000220351
4.97087e-06
0.000224073
5.49405e-06
0.000227118
5.97181e-06
0.000229594
6.45144e-06
0.000231582
0.000233146
6.88291e-06
8.23248e-07
0.000148989
1.57452e-06
0.00017818
2.26321e-06
0.000193411
2.89066e-06
0.000202995
3.45628e-06
0.000209904
4.0624e-06
0.000215317
4.60099e-06
0.000219813
5.15401e-06
0.00022352
5.72007e-06
0.000226552
6.24319e-06
0.000229071
6.78313e-06
0.000231042
0.000232663
7.2666e-06
8.22647e-07
0.000148166
1.61385e-06
0.000177388
2.32593e-06
0.000192699
3.00556e-06
0.000202315
3.61957e-06
0.00020929
4.21038e-06
0.000214726
4.82341e-06
0.0002192
5.39261e-06
0.00022295
5.91923e-06
0.000226025
6.45304e-06
0.000228537
6.95974e-06
0.000230535
0.000232181
7.44212e-06
8.17853e-07
0.000147349
1.66e-06
0.000176546
2.41828e-06
0.00019194
3.09109e-06
0.000201642
3.75021e-06
0.000208631
4.36961e-06
0.000214106
4.96351e-06
0.000218606
5.54888e-06
0.000222365
6.15052e-06
0.000225423
6.72881e-06
0.000227959
7.2647e-06
0.000229999
0.000231642
7.80323e-06
8.814e-07
0.000146467
1.72683e-06
0.000175701
2.48846e-06
0.000191179
3.20792e-06
0.000200923
3.8624e-06
0.000207977
4.52057e-06
0.000213448
5.1372e-06
0.000217989
5.79861e-06
0.000221704
6.35188e-06
0.00022487
6.94996e-06
0.000227361
7.51349e-06
0.000229436
0.000231164
7.99205e-06
8.93421e-07
0.000145574
1.7683e-06
0.000174826
2.5846e-06
0.000190362
3.29385e-06
0.000200214
4.00225e-06
0.000207268
4.67938e-06
0.000212771
5.31367e-06
0.000217355
5.96028e-06
0.000221057
6.62401e-06
0.000224206
7.2036e-06
0.000226781
7.77717e-06
0.000228862
0.000230535
8.4058e-06
9.11016e-07
0.000144663
1.84931e-06
0.000173888
2.64942e-06
0.000189562
3.42274e-06
0.00019944
4.14421e-06
0.000206547
4.84047e-06
0.000212075
5.51832e-06
0.000216677
6.15548e-06
0.00022042
6.82867e-06
0.000223533
7.46291e-06
0.000226147
8.06758e-06
0.000228257
0.000230004
8.59806e-06
9.425e-07
0.00014372
1.86718e-06
0.000172963
2.75661e-06
0.000188673
3.54488e-06
0.000198652
4.31236e-06
0.00020578
4.96724e-06
0.00021142
5.69842e-06
0.000215946
6.37733e-06
0.000219741
7.03705e-06
0.000222874
7.67335e-06
0.00022551
8.28015e-06
0.000227651
0.000229369
8.91564e-06
9.61887e-07
0.000142758
1.91562e-06
0.000172009
2.82093e-06
0.000187767
3.63265e-06
0.00019784
4.39725e-06
0.000205015
5.16772e-06
0.000210649
5.88207e-06
0.000215231
6.60401e-06
0.000219019
7.25333e-06
0.000222224
7.9328e-06
0.000224831
8.55842e-06
0.000227025
0.000228787
9.14004e-06
9.88316e-07
0.00014177
1.9872e-06
0.00017101
2.89723e-06
0.000186857
3.75698e-06
0.000196981
4.55676e-06
0.000204215
5.3371e-06
0.000209869
6.09639e-06
0.000214472
6.81147e-06
0.000218304
7.53356e-06
0.000221502
8.18259e-06
0.000224182
8.90627e-06
0.000226301
0.000228135
9.55892e-06
1.01727e-06
0.000140753
2.03975e-06
0.000169988
2.97565e-06
0.000185922
3.89725e-06
0.000196059
4.69412e-06
0.000203418
5.4708e-06
0.000209092
6.28814e-06
0.000213655
7.02128e-06
0.000217571
7.73371e-06
0.00022079
8.47527e-06
0.00022344
9.13177e-06
0.000225645
0.00022754
9.72621e-06
1.05028e-06
0.000139703
2.09917e-06
0.000168939
3.11528e-06
0.000184905
3.96521e-06
0.000195209
4.82169e-06
0.000202562
5.6831e-06
0.000208231
6.41731e-06
0.000212921
7.26016e-06
0.000216728
8.01673e-06
0.000220033
8.76413e-06
0.000222693
9.44127e-06
0.000224968
0.000226814
1.01678e-05
1.06937e-06
0.000138633
2.15539e-06
0.000167853
3.18201e-06
0.000183879
4.09491e-06
0.000194296
5.01511e-06
0.000201642
5.8201e-06
0.000207426
6.67858e-06
0.000212062
7.44935e-06
0.000215957
8.22177e-06
0.000219261
8.96844e-06
0.000221946
9.67574e-06
0.00022426
0.000226137
1.03527e-05
1.09439e-06
0.000137539
2.20779e-06
0.00016674
3.24132e-06
0.000182845
4.26612e-06
0.000193271
5.13221e-06
0.000200776
6.03961e-06
0.000206519
6.87919e-06
0.000211223
7.65396e-06
0.000215182
8.48724e-06
0.000218427
9.25516e-06
0.000221178
1.00388e-05
0.000223477
0.000225465
1.07108e-05
1.11875e-06
0.00013642
2.26506e-06
0.000165593
3.34693e-06
0.000181763
4.33783e-06
0.00019228
5.3088e-06
0.000199805
6.22332e-06
0.000205604
7.08435e-06
0.000210362
7.92018e-06
0.000214347
8.73347e-06
0.000217614
9.54859e-06
0.000220363
1.03092e-05
0.000222716
0.000224714
1.106e-05
1.14579e-06
0.000135274
2.35932e-06
0.00016438
3.46645e-06
0.000180656
4.49219e-06
0.000191255
5.47215e-06
0.000198825
6.38535e-06
0.000204691
7.29244e-06
0.000209455
8.19091e-06
0.000213448
9.04788e-06
0.000216757
9.85265e-06
0.000219558
1.06581e-05
0.000221911
0.000223938
1.14338e-05
1.1718e-06
0.000134102
2.38037e-06
0.000163171
3.52107e-06
0.000179516
4.5897e-06
0.000190186
5.57145e-06
0.000197843
6.57492e-06
0.000203688
7.47755e-06
0.000208552
8.37684e-06
0.000212549
9.24793e-06
0.000215886
1.00589e-05
0.000218748
1.08433e-05
0.000221126
0.000223245
1.15369e-05
1.1953e-06
0.000132907
2.43854e-06
0.000161928
3.65483e-06
0.000178299
4.75062e-06
0.00018909
5.78264e-06
0.000196811
6.74425e-06
0.000202726
7.69414e-06
0.000207602
8.64074e-06
0.000211602
9.55445e-06
0.000214972
1.04229e-05
0.000217879
1.12508e-05
0.000220298
0.00022236
1.21356e-05
1.25662e-06
0.000131651
2.53255e-06
0.000160652
3.74642e-06
0.000177085
4.87197e-06
0.000187965
5.9313e-06
0.000195752
6.94242e-06
0.000201715
7.9407e-06
0.000206604
8.9051e-06
0.000210638
9.77633e-06
0.000214101
1.07078e-05
0.000216948
1.15544e-05
0.000219452
0.000221533
1.23809e-05
1.23935e-06
0.000130411
2.59035e-06
0.000159301
3.83761e-06
0.000175838
5.00283e-06
0.0001868
6.15187e-06
0.000194603
7.14355e-06
0.000200723
8.16276e-06
0.000205585
9.15398e-06
0.000209647
1.00896e-05
0.000213165
1.09949e-05
0.000216042
1.18969e-05
0.00021855
0.000220655
1.27749e-05
1.30433e-06
0.000129107
2.64771e-06
0.000157958
3.9332e-06
0.000174553
5.17381e-06
0.000185559
6.23915e-06
0.000193537
7.37122e-06
0.000199591
8.41791e-06
0.000204538
9.38209e-06
0.000208682
1.03634e-05
0.000212184
1.13128e-05
0.000215093
1.22151e-05
0.000217647
0.000219825
1.30454e-05
1.31989e-06
0.000127787
2.70379e-06
0.000156574
4.02512e-06
0.000173231
5.2589e-06
0.000184325
6.46968e-06
0.000192327
7.55805e-06
0.000198503
8.62991e-06
0.000203466
9.66752e-06
0.000207645
1.06956e-05
0.000211156
1.16462e-05
0.000214142
1.26002e-05
0.000216693
0.000218861
1.3564e-05
1.37217e-06
0.000126415
2.79853e-06
0.000155147
4.16256e-06
0.000171867
5.43574e-06
0.000183052
6.6304e-06
0.000191132
7.77314e-06
0.00019736
8.89492e-06
0.000202344
9.95563e-06
0.000206584
1.09826e-05
0.000210129
1.19741e-05
0.000213151
1.29197e-05
0.000215748
0.000218027
1.37542e-05
1.36619e-06
0.000125049
2.85954e-06
0.000153654
4.25903e-06
0.000170468
5.56967e-06
0.000181741
6.84792e-06
0.000189854
8.0168e-06
0.000196191
9.09332e-06
0.000201268
1.02276e-05
0.00020545
1.1253e-05
0.000209104
1.22687e-05
0.000212135
1.32559e-05
0.000214761
0.000216989
1.42935e-05
1.4589e-06
0.00012359
2.91812e-06
0.000152195
4.35757e-06
0.000169028
5.75386e-06
0.000180345
6.97444e-06
0.000188633
8.22403e-06
0.000194942
9.37043e-06
0.000200121
1.04818e-05
0.000204338
1.15802e-05
0.000208005
1.26663e-05
0.000211049
1.36549e-05
0.000213772
0.000216118
1.45266e-05
1.44498e-06
0.000122145
3.01807e-06
0.000150622
4.50119e-06
0.000167545
5.89115e-06
0.000178955
7.24327e-06
0.000187281
8.43603e-06
0.000193749
9.67972e-06
0.000198878
1.08178e-05