/*--------------------------------*- C++ -*----------------------------------*\
| =========                 |                                                 |
| \\      /  F ield         | OpenFOAM: The Open Source CFD Toolbox           |
|  \\    /   O peration     | Version:  2.3.1                                 |
|   \\  /    A nd           | Web:      www.OpenFOAM.org                      |
|    \\/     M anipulation  |                                                 |
\*---------------------------------------------------------------------------*/
FoamFile
{
    version     2.0;
    format      ascii;
    class       volScalarField;
    location    "0.82";
    object      epsilon;
}
// * * * * * * * * * * * * * * * * * * * * * * * * * * * * * * * * * * * * * //

dimensions      [0 2 -3 0 0 0 0];

internalField   nonuniform List<scalar> 
9648
(
2408.01
2397.13
2393.65
2385.55
2372.92
2355.31
2333.21
2306.09
2273.83
2236.49
2194.27
2147.3
2096.42
2042.6
1986.66
1929.54
1872.37
1816.13
1761.55
1709.13
1659.43
1612.74
1569.23
1529.04
1492.2
1458.6
1428.13
1400.69
1376.17
1354.38
1335.2
1318.48
1304.08
1291.85
1281.7
1273.49
1267.1
1262.46
1259.52
1258.21
1258.41
1260.12
1263.3
1267.89
1273.93
1281.46
1290.46
1300.89
1312.86
1326.49
1341.8
1358.75
1377.58
1398.25
1420.72
1444.76
1470.14
1496.43
1522.87
1548.9
1574.11
604.438
594.143
582.962
571.393
561.404
555.224
551.966
550.98
552.019
555.164
560.151
566.299
573.167
580.358
587.521
594.275
600.436
605.964
610.85
615.031
618.608
621.648
624.203
626.395
628.351
630.133
631.796
633.418
635.08
636.832
638.697
640.733
642.981
645.438
648.138
651.109
654.344
657.841
661.616
665.699
670.079
674.744
679.705
684.97
690.522
696.392
702.572
709.032
715.753
722.724
729.908
737.267
744.749
752.381
760.022
767.647
775.102
782.494
789.685
796.604
803.21
242.439
244.712
248.481
254.121
261.7
271.088
282.379
295.262
309.666
325.214
341.693
358.648
375.731
392.597
408.948
424.541
439.201
452.833
465.379
476.821
487.186
496.509
504.868
512.348
519.043
525.041
530.425
535.285
539.694
543.724
547.439
550.898
554.15
557.238
560.201
563.067
565.866
568.616
571.334
574.04
576.745
579.468
582.206
584.968
587.756
590.562
593.383
596.197
599
601.77
604.503
607.193
609.799
612.375
614.805
617.188
619.429
621.662
623.729
625.674
627.489
136.9
146.738
157.772
170.201
184.093
199.44
216.202
234.199
253.213
272.908
292.973
313.037
332.781
351.904
370.16
387.343
403.321
418.014
431.385
443.443
454.214
463.75
472.132
479.449
485.806
491.306
496.045
500.119
503.608
506.597
509.16
511.364
513.272
514.932
516.388
517.681
518.846
519.904
520.881
521.797
522.67
523.519
524.355
525.185
526.015
526.845
527.675
528.499
529.319
530.127
530.903
531.672
532.407
533.122
533.766
534.399
535.015
535.607
536.153
536.662
537.171
100.128
113.27
127.847
143.868
161.304
180.084
200.054
220.986
242.592
264.51
286.394
307.882
328.675
348.506
367.17
384.482
400.351
414.729
427.605
439.02
449.018
457.659
465.042
471.262
476.446
480.709
484.161
486.904
489.02
490.602
491.732
492.479
492.917
493.099
493.065
492.864
492.533
492.094
491.577
491
490.381
489.743
489.102
488.472
487.853
487.251
486.671
486.11
485.561
485.029
484.497
483.966
483.445
482.923
482.396
481.866
481.356
480.842
480.309
479.767
479.223
85.582
100.777
117.723
136.3
156.328
177.639
199.972
223.018
246.422
269.776
292.722
314.885
336.008
355.843
374.256
391.056
406.184
419.65
431.453
441.691
450.425
457.706
463.675
468.411
472.081
474.819
476.735
477.956
478.544
478.602
478.227
477.477
476.446
475.189
473.732
472.135
470.449
468.677
466.858
465.009
463.138
461.279
459.449
457.665
455.92
454.222
452.574
450.986
449.446
447.939
446.466
445.013
443.584
442.175
440.777
439.42
438.094
436.774
435.445
434.116
432.774
80.4213
97.2608
116.126
136.783
158.893
182.211
206.363
230.969
255.646
279.878
303.363
325.658
346.6
365.94
383.694
399.566
413.559
425.763
436.147
444.908
452.129
457.804
462.174
465.239
467.249
468.357
468.653
468.322
467.361
465.9
464.061
461.859
459.438
456.84
454.055
451.173
448.276
445.313
442.356
439.41
436.463
433.572
430.751
428.022
425.349
422.757
420.248
417.819
415.473
413.187
410.95
408.75
406.601
404.457
402.341
400.276
398.258
396.284
394.3
392.287
390.29
79.7971
98.0863
118.616
141.041
164.846
189.722
215.256
241.004
266.545
291.229
314.862
336.829
357.184
375.6
392.435
407.102
419.691
430.447
439.149
446.224
451.793
455.673
458.391
459.648
459.908
459.329
457.96
456.103
453.587
450.623
447.391
443.782
440.053
436.196
432.155
428.078
424.048
419.932
415.917
411.96
408.009
404.148
400.44
396.856
393.338
389.961
386.664
383.499
380.424
377.442
374.525
371.664
368.854
366.029
363.251
360.566
357.904
355.349
352.746
350.097
347.534
81.3609
100.763
122.712
146.43
171.675
197.661
224.093
250.794
276.719
301.689
325.103
346.631
366.016
383.226
398.927
412.284
423.392
432.55
439.791
445.202
448.878
450.909
451.719
451.354
449.934
447.521
444.594
441.259
437.084
432.666
427.974
423.124
418.357
413.243
407.835
402.745
397.481
392.174
387.186
382.083
377.015
371.933
367.504
363.082
358.653
354.674
350.447
346.64
342.655
338.956
335.143
331.666
328.26
324.687
321.217
318.058
314.637
311.77
308.485
305.08
302.051
1598.63
1622.34
1644.94
1666.42
1686.97
1707.02
1726.68
1746.24
1765.49
1783.75
1800.72
1816.93
1832.64
1848.22
1863.88
1880.28
1898.01
1917.57
1939.35
1963.83
1990.75
2019.59
2049.92
2081.33
2113.47
2146.27
2179.92
2214.03
2248.61
2283.66
2319.37
2355.61
2392.39
2429.87
2468.05
2506.84
2546.35
2586.7
2627.97
2670
2712.82
2756.68
2801.54
2847.26
2894.15
2942.08
2990.93
3040.75
3091.73
3143.91
3197.23
3251.56
3307.45
3364.49
3423.06
3482.94
3544.87
3608.85
3674.89
3742.86
3812.9
809.484
815.834
822.005
827.922
833.609
839.186
844.8
850.303
855.881
861.214
866.504
871.691
876.89
882.116
887.365
892.686
898.097
903.643
909.317
915.094
920.933
926.774
932.592
938.366
944.083
949.721
955.209
960.518
965.645
970.613
975.44
980.098
984.608
988.991
993.242
997.362
1001.37
1005.27
1009.05
1012.72
1016.3
1019.79
1023.18
1026.47
1029.68
1032.79
1035.8
1038.68
1041.48
1044.18
1046.78
1049.26
1051.64
1054.06
1056.29
1058.61
1060.88
1063.37
1065.73
1068.14
1070.68
629.273
630.98
632.731
634.45
636.141
637.735
639.397
640.96
642.498
643.895
645.242
646.536
647.848
649.131
650.385
651.602
652.775
653.904
654.977
655.982
656.905
657.746
658.493
659.142
659.688
660.13
660.459
660.676
660.77
660.748
660.599
660.329
659.941
659.43
658.813
658.085
657.248
656.301
655.244
654.076
652.802
651.427
649.957
648.377
646.699
644.912
643.002
640.963
638.802
636.52
634.09
631.56
628.891
626.114
623.144
620.092
616.951
613.735
610.432
607.076
603.728
537.651
538.128
538.57
538.996
539.388
539.747
540.062
540.368
540.597
540.723
540.785
540.803
540.755
540.623
540.436
540.181
539.86
539.465
538.989
538.424
537.773
537.034
536.211
535.299
534.294
533.189
531.986
530.685
529.285
527.786
526.189
524.484
522.675
520.769
518.773
516.687
514.51
512.243
509.88
507.424
504.883
502.266
499.579
496.829
494.015
491.135
488.168
485.115
481.968
478.746
475.42
472
468.499
464.899
461.173
457.329
453.414
449.413
445.356
441.278
437.205
478.678
478.104
477.501
476.864
476.194
475.458
474.666
473.868
473.063
472.204
471.305
470.361
469.353
468.287
467.158
465.962
464.729
463.423
462.044
460.588
459.059
457.465
455.811
454.1
452.325
450.481
448.563
446.575
444.52
442.399
440.206
437.932
435.576
433.143
430.647
428.087
425.461
422.76
419.981
417.126
414.207
411.232
408.216
405.173
402.111
399.029
395.893
392.728
389.498
386.225
382.889
379.477
376.013
372.48
368.854
365.128
361.32
357.425
353.509
349.578
345.649
431.439
430.089
428.726
427.315
425.873
424.393
422.866
421.321
419.732
418.114
416.454
414.768
413.041
411.262
409.436
407.573
405.681
403.725
401.701
399.611
397.463
395.27
393.046
390.798
388.512
386.179
383.799
381.372
378.917
376.433
373.917
371.342
368.712
366.021
363.296
360.533
357.717
354.851
351.914
348.909
345.849
342.741
339.612
336.486
333.383
330.313
327.219
324.138
321.03
317.937
314.811
311.625
308.423
305.157
301.846
298.41
294.91
291.335
287.771
284.169
280.59
388.305
386.324
384.328
382.314
380.255
378.147
376.003
373.855
371.667
369.426
367.17
364.906
362.607
360.281
357.909
355.522
353.134
350.696
348.19
345.612
342.978
340.325
337.662
335.015
332.361
329.67
326.952
324.199
321.458
318.737
316.054
313.337
310.607
307.829
305.058
302.27
299.425
296.548
293.613
290.615
287.558
284.436
281.297
278.174
275.094
272.12
269.129
266.22
263.305
260.497
257.698
254.824
251.965
249.055
246.14
243.05
239.945
236.731
233.608
230.419
227.282
344.966
342.449
339.916
337.418
334.886
332.36
329.755
327.22
324.65
321.965
319.282
316.643
313.957
311.248
308.463
305.707
303.03
300.312
297.527
294.6
291.597
288.617
285.624
282.678
279.798
276.884
273.942
270.912
267.912
264.998
262.261
259.513
256.842
254.145
251.53
248.938
246.216
243.43
240.638
237.839
234.939
231.915
228.868
225.82
222.795
219.99
217.106
214.403
211.69
209.254
206.89
204.382
201.929
199.422
196.976
194.241
191.569
188.727
186.12
183.398
180.777
298.776
295.743
292.536
289.678
286.65
284.046
281.091
278.562
275.995
273.191
270.38
267.829
265.026
262.246
259.184
256.104
253.383
250.759
248.137
245.257
241.959
238.884
235.733
232.555
229.569
226.639
223.81
220.656
217.292
214.128
211.366
208.607
206.073
203.6
201.474
199.428
197.066
194.417
191.856
189.496
187.071
184.279
181.407
178.582
175.667
173.133
170.269
167.774
165.162
163.221
161.397
159.259
157.304
155.279
153.414
150.991
148.786
146.251
144.211
141.991
139.997
3886.08
3961.91
4039.76
4119.67
4202.08
4287.89
4376.56
4468.03
4562.01
4658.66
4758.37
4859.85
4963.57
5073.87
5212.82
5338.9
5464.72
5593.11
5724.02
5857.44
5993.67
6132.79
6274.39
6418.68
6565.43
6713.91
6863.85
7014.97
7167.09
7319.32
7471.58
7623.23
7773.41
7921.51
8067
8208.46
8344.72
8474.03
8587.43
8670.76
8727.19
8758.17
8763.5
8741.38
8690.2
8607.44
8489.04
8330.3
8126.89
7874.15
7565.79
7194.98
6756.48
6243.6
5598.84
4687.51
4285.16
4086.01
4007.82
3967.33
3879.55
1073.46
1076.33
1079.42
1082.57
1085.81
1089.29
1093.3
1097.73
1102.61
1107.79
1113.43
1116.78
1118.22
1121.25
1124.92
1130.04
1135.29
1140.46
1145.78
1151.34
1157.18
1163.32
1169.74
1176.42
1183.37
1190.55
1198
1205.74
1213.82
1222.3
1231.21
1240.62
1250.65
1261.43
1273.06
1285.78
1299.78
1315.42
1334.58
1364.49
1400.69
1439.59
1481.73
1527.25
1576.83
1630.8
1689.24
1752.41
1820.59
1893.31
1969.66
2048.01
2126.94
2204.99
2274.52
2340.27
2401.86
2490.09
2596.37
2702.35
2645.08
600.36
596.997
593.604
590.193
586.728
583.292
579.968
576.799
573.695
570.557
566.917
561.356
555.559
550.562
546.075
542.211
538.427
534.54
530.594
526.64
522.718
518.824
514.953
511.103
507.271
503.453
499.659
495.892
492.173
488.497
484.887
481.364
477.94
474.66
471.552
468.665
466.045
463.765
461.991
461.19
461.57
466.351
474.879
486.733
502.386
522.503
547.811
579.344
618.103
665.167
721.547
788.039
865.877
955.34
1056.1
1164.6
1272.87
1391.93
1538.69
1728.77
1913.09
433.139
429.087
425.038
420.976
416.87
412.768
408.719
404.77
400.801
396.734
391.847
385.961
380.291
375.15
370.396
365.995
361.698
357.417
353.132
348.869
344.631
340.4
336.182
331.982
327.797
323.635
319.499
315.389
311.307
307.254
303.233
299.25
295.317
291.443
287.641
283.928
280.325
276.849
273.528
270.424
267.618
265.427
264.568
265.397
267.822
272.189
278.969
288.821
302.6
321.339
346.46
379.295
421.507
474.183
537.889
610.545
688.246
772.767
872.796
1002.3
1162.77
341.742
337.9
334.081
330.244
326.343
322.445
318.566
314.771
310.949
307.016
302.3
297.106
292.204
287.701
283.447
279.431
275.513
271.686
267.912
264.201
260.529
256.844
253.18
249.543
245.922
242.33
238.767
235.233
231.72
228.229
224.761
221.323
217.919
214.56
211.253
208.011
204.843
201.76
198.773
195.897
193.161
190.627
188.431
186.933
186.221
186.331
187.488
189.997
194.294
200.925
210.693
224.612
243.887
269.774
303.254
344.405
391.858
445.248
507.014
582.924
679.072
277.011
273.556
270.132
266.711
263.154
259.604
256.047
252.607
249.142
245.613
241.389
236.985
232.856
229.07
225.424
221.943
218.523
215.253
212.069
208.984
205.945
202.866
199.824
196.827
193.841
190.896
187.97
185.078
182.19
179.319
176.458
173.625
170.819
168.057
165.341
162.682
160.088
157.567
155.122
152.763
150.504
148.366
146.39
144.663
143.427
142.581
142.247
142.545
143.684
145.942
149.692
155.46
163.924
175.854
192.12
213.272
239.437
270.705
307.752
352.313
407.528
224.061
221.036
218.056
215.128
211.945
208.795
205.583
202.57
199.539
196.537
192.865
189.208
185.77
182.694
179.637
176.723
173.797
171.094
168.48
165.985
163.54
160.996
158.535
156.164
153.783
151.455
149.121
146.83
144.513
142.209
139.895
137.622
135.373
133.179
131.023
128.929
126.89
124.922
123.02
121.2
119.463
117.832
116.315
114.947
113.792
112.989
112.453
112.248
112.478
113.276
114.829
117.39
121.28
126.931
134.813
145.418
159.16
176.368
197.523
223.435
255.411
177.903
175.309
172.8
170.444
167.656
164.942
162.07
159.543
156.995
154.598
151.455
148.463
145.616
143.216
140.683
138.335
135.855
133.705
131.618
129.636
127.716
125.603
123.655
121.905
120.078
118.298
116.46
114.709
112.863
111.039
109.169
107.393
105.631
103.961
102.304
100.725
99.1712
97.697
96.2808
94.9602
93.7126
92.5742
91.546
90.6235
89.8378
89.2901
88.9382
88.7739
88.8622
89.2738
90.1069
91.4829
93.571
96.567
100.719
106.312
113.642
123.045
134.895
149.7
168.133
137.432
135.203
133.187
131.485
129.087
126.836
124.257
122.303
120.27
118.514
115.841
113.425
111.023
109.276
107.15
105.379
103.247
101.66
100.034
98.4208
96.9396
95.1107
93.6223
92.5823
91.2102
89.8187
88.3247
87.0672
85.5314
84.0683
82.4781
81.1711
79.8089
78.6257
77.3641
76.2218
74.9972
73.9094
72.8906
72.0029
71.1916
70.4818
69.8931
69.3917
68.9286
68.5741
68.4022
68.3409
68.4995
68.8007
69.482
70.4607
71.9427
73.888
76.5084
79.8387
84.1669
89.5868
96.4891
105.145
115.908
3733
3572.46
3400.16
3219.61
3039.88
2866.36
2702.6
2553.11
2421.51
2309.71
2217.94
2144.99
2089.11
2047.99
2018.85
1999.09
1986.56
1979.73
1977.19
1977.77
1980.79
1985.75
1992.18
2000
2009.23
2019.61
2031.11
2043.72
2057.54
2072.42
2088.34
2105.26
2123.04
2141.47
2160.43
2179.63
2198.74
2217.48
2235.63
2252.85
2268.68
2282.87
2295.26
2305.62
2314.03
2320.74
2325.87
2329.64
2332.63
2335.63
2338.99
2342.92
2347.97
2354.29
2361.55
2369.44
2377.61
2386.04
2393.75
2399.84
2403.95
2452.22
2248.78
2049.19
1859.06
1691.27
1536.1
1392.55
1261.78
1143.99
1040.1
950.165
873.63
809.416
756.131
713.595
680.951
655.959
636.791
621.978
610.47
601.548
594.571
589.268
585.252
582.446
580.686
579.892
580.062
581.167
583.207
586.2
590.134
595.012
600.806
607.471
614.93
623.076
631.804
640.96
650.349
659.706
668.689
676.873
683.796
689.024
692.131
692.748
690.707
686.118
679.371
671.082
662.071
653.281
645.505
639.068
634.235
630.587
627.575
623.956
618.803
611.966
1995.29
1978.25
1872.56
1697.33
1517.73
1343.44
1173.66
1020.34
883.275
762.12
657.853
569.845
496.915
437.76
391.503
356.185
328.831
307.28
290.284
276.992
266.586
258.397
251.91
246.743
242.598
239.286
236.666
234.667
233.235
232.337
231.948
232.068
232.681
233.757
235.275
237.199
239.496
242.121
245.021
248.123
251.333
254.545
257.636
260.434
262.771
264.433
265.212
264.914
263.422
260.684
256.802
252.105
247.075
242.323
238.351
235.719
234.627
234.981
236.335
238.278
240.393
1328.91
1475.19
1570.04
1582.98
1511.08
1383.91
1213.6
1043.63
886.548
741.864
616.474
511.63
425.39
356.517
302.641
260.829
228.38
202.797
182.765
167.22
155.235
146.046
139.002
133.556
129.297
125.913
123.212
121.059
119.362
118.056
117.104
116.483
116.167
116.121
116.309
116.697
117.25
117.933
118.703
119.516
120.319
121.061
121.682
122.123
122.326
122.23
121.787
120.959
119.732
118.101
116.103
113.853
111.551
109.479
107.98
107.543
108.576
111.219
115.384
121.069
128.233
796.588
932.825
1076.35
1202.72
1282.38
1298.27
1246.02
1138.92
1001.64
846.454
700.221
574.607
466.763
379.037
309.534
254.605
211.668
178.147
152.008
131.835
116.462
104.916
96.3149
89.8808
85.0053
81.2454
78.3156
76.0187
74.2202
72.8158
71.7461
70.9769
70.4712
70.1862
70.0817
70.1208
70.2677
70.4866
70.7417
70.9933
71.199
71.3189
71.3138
71.1466
70.7841
70.2011
69.3883
68.3475
67.0855
65.6311
64.0351
62.3876
60.8444
59.6201
59.0244
59.3671
61.2018
64.9124
70.7827
78.7267
88.592
476.483
562.298
665.837
782.809
900.756
1001.7
1065.51
1077.14
1034.94
946.965
830.362
704.053
576.699
466.251
375.894
301.346
242.467
195.924
158.92
130.402
108.922
93.1107
81.6265
73.256
67.0691
62.4147
58.8773
56.1737
54.1045
52.5106
51.3012
50.4243
49.8296
49.4629
49.2771
49.2318
49.2881
49.4115
49.5671
49.7183
49.8269
49.8604
49.7844
49.5709
49.1906
48.6278
47.8777
46.9505
45.8537
44.615
43.2788
41.9246
40.6791
39.7301
39.3654
39.9799
42.0598
46.1019
52.4752
61.2739
72.4077
295.21
345.104
407.433
483.628
572.65
669.638
764.456
842.901
890.721
897.629
861.708
790.386
695.635
591.475
489.486
393.093
313.97
249.308
195.475
153.432
121.604
98.4786
82.0504
70.3257
61.8319
55.5556
50.8779
47.3829
44.7719
42.7924
41.3041
40.2245
39.4847
39.0115
38.7462
38.6396
38.6487
38.737
38.869
39.0092
39.1205
39.1765
39.1437
38.999
38.711
38.2715
37.674
36.9325
36.0477
35.0495
33.9734
32.8913
31.9134
31.1993
31.0105
31.7356
33.8586
37.9675
44.5709
53.9096
65.9614
191.171
220.048
256.344
301.682
357.37
423.588
498.525
577.107
651.344
710.517
744.23
746.264
716.854
660.474
585.851
501.143
416.31
336.35
261.274
200.844
153.107
118.554
94.4515
77.4421
65.1993
56.2127
49.5908
44.7484
41.224
38.5875
36.6235
35.1943
34.2056
33.5514
33.1546
32.9512
32.8895
32.9283
33.0295
33.1568
33.2719
33.3554
33.3727
33.3045
33.1132
32.7988
32.3486
31.7827
31.0937
30.3132
29.4703
28.6334
27.8997
27.41
27.4053
28.2505
30.4408
34.6348
41.4627
51.3003
64.1858
129.457
146.323
167.457
194.129
227.4
268.301
317.195
373.541
434.829
496.995
552.184
594.378
617.271
618.16
595.458
551.367
491.806
420.87
347.646
273.221
204.154
154.399
119.784
95.1354
76.9907
63.645
53.8311
46.7915
41.7768
38.0627
35.3323
33.3311
31.9386
30.9924
30.3844
30.0231
29.8439
29.7946
29.8352
29.9204
30.016
30.1068
30.1567
30.1469
30.0362
29.8267
29.5061
29.091
28.573
27.9793
27.3417
26.724
26.2222
25.9614
26.1624
27.181
29.5087
33.85
40.905
51.1893
64.7456
1.53126
214.766
192.02
2.27561
2.20023
0.203952
0.000719953
92.116
0.00079634
0.0146915
93.7733
7.13897
0.000720862
247.214
0.166929
134.64
0.000757408
93.6012
118.184
0.000716191
2.27839
235.929
203.045
0.000767065
0.00078108
0.210343
0.000717316
7.93769
0.000753172
0.00081997
6.31016
0.000742439
0.00878154
64.6878
4.0655
111.933
71.5357
16.0429
0.000723293
44.6787
65.1902
28.8993
0.00074331
102.226
175.721
0.722174
0.000868854
0.00861355
1.30224
7.37606
372.491
357.744
0.000698361
0.00103003
0.0633838
0.0354301
0.000817057
9.17123
58.643
285.194
140.271
0.000905832
1.53082
0.0249742
202.081
2.36311
38.6053
64.6632
0.00113232
0.000747671
9.80664
40.8326
56.1248
0.0380823
0.0515976
79.9109
231.353
55.658
0.000700113
5.60158
0.0023418
47.4434
0.0127419
109.252
0.00074993
8.74784
0.000791039
37.0078
0.0110277
0.00136728
0.23053
0.000698396
0.000933849
309.107
144.099
0.000867349
1.60278
1.80581
0.00184851
207.693
1.01229
31.9076
5.83519
0.000696765
0.000725968
0.000694074
1.40355
0.210314
0.000748077
174.446
223.327
0.00475451
238.513
26.8212
115.607
54.181
28.2992
0.000977676
0.110848
0.00110578
0.00164246
192.652
0.0030871
288.739
416.645
28.7952
0.000746014
7.22212
7.0936
0.000743927
0.0299849
0.0268465
92.1796
0.00187254
63.55
0.00074883
0.00072382
396.774
352.407
0.000748802
0.742128
149.903
0.230431
0.916951
26.7107
119.633
0.299607
27.6428
0.00525955
278.888
11.1574
0.0382555
48.836
106.883
189.559
0.000766307
0.000757261
0.515735
0.00069509
41.2251
0.114718
0.0014493
0.000740459
0.000747473
0.000758569
40.6712
71.2826
34.5114
0.000768503
287.951
308.344
405.488
165.78
0.00692897
160.626
44.0896
28.2689
0.000750062
0.00169644
193.761
67.7844
29.6699
72.4007
0.00074534
0.000842134
242.163
0.029557
2.52564
0.0007578
0.000866762
0.17342
0.000797916
334.571
3.99424
0.00069076
0.685174
91.3003
143.488
0.00119808
52.3525
0.000746604
0.000750187
107.279
32.4278
304.676
0.00121502
0.000800624
0.00285554
41.4277
76.1442
9.84514
124.243
14.3554
232.623
0.819777
85.5542
82.0229
27.2805
10.9648
39.4124
0.00144283
0.0294009
0.000747655
0.000725829
28.4
0.0100127
0.0117375
0.00197935
0.00628809
47.0007
198.338
0.0111425
172.52
7.61219
2.95197
0.000732469
0.533641
38.3284
7.33101
0.00106344
13.0155
36.2205
0.867785
2.4724
272.204
7.43984
5.06241
121.91
0.00095531
0.000724103
0.00102664
0.00428851
28.7561
0.000784863
0.00249633
0.000723684
1.74169
75.586
76.5408
49.0671
12.1096
11.6335
326.167
0.00114005
47.904
98.6628
0.000743901
83.2928
0.000749601
327.224
1.73857
52.1437
0.0015477
0.000748476
20.5466
7.73798
0.000759625
0.00075054
0.000755337
0.000751523
1.20091
35.8557
44.2829
0.0108301
0.000760435
0.000724443
0.00069587
103.527
1.14666
0.00119032
18.94
0.116712
0.0953096
0.000692064
0.788567
0.000760156
0.108282
47.8242
276.649
3.14042
0.000978466
0.00184715
56.2641
0.353686
130.83
323.552
0.000838106
0.000739914
0.00073399
155.513
0.000773554
136.49
0.000749824
24.4734
12.3247
0.0242886
141.63
238.584
0.0012718
49.8731
50.5555
89.832
90.7856
9.74708
350.264
38.7009
71.3585
141.164
94.2349
56.3241
0.339918
338.867
281.231
62.4649
33.6452
0.00100174
271.993
126.667
229.892
0.0188137
0.000867312
0.000745757
0.000811569
0.697334
1.58318
6.25732
0.125079
0.000726352
170.935
0.000746369
26.8344
23.3104
192.361
41.6671
18.7938
0.00193
0.00110641
0.457955
86.3594
0.00436172
8.05248
262.189
35.9294
83.3796
195.117
61.4482
0.000821482
284.074
143.147
97.2138
0.00075046
194.5
152.62
0.000781401
30.5838
0.00075159
399.192
171.958
28.1138
80.7396
114.87
149.281
0.000764762
148.348
0.00096474
68.5706
80.6116
28.2958
280.335
3.71558
0.49627
2.6198
0.00110029
439.639
1.4859
0.00290451
0.00182432
259.303
0.000953175
91.8936
0.000737623
0.000749995
0.00183822
31.2838
0.192652
21.5352
0.00197871
82.7373
0.309672
220.798
279.463
37.921
342.591
0.000793935
280.123
42.434
0.000742258
78.0792
25.4018
0.000696472
0.000727456
115.586
0.00206161
26.5771
0.455891
76.5635
0.0177066
3.42616
39.2865
119.82
32.5088
82.8227
68.999
0.00100153
0.0334465
28.7818
21.7167
331.94
344.12
142.601
0.0845376
123.753
122.689
3.34617
92.3661
45.6367
25.708
0.000822413
83.7028
385.137
0.00107586
90.6524
19.4656
46.2861
0.0153286
0.0892418
270.079
0.00193296
328.038
0.00124671
1.83757
0.000738045
7.85321
168.634
0.558444
0.00132113
0.000902459
76.1358
26.8681
0.364027
5.53532
296.869
542.933
0.00139244
11.8663
27.2948
72.3094
26.2535
448.605
28.8236
153.924
51.8555
3.50074
7.18974
303.232
54.2428
354.94
171.584
0.239588
176.071
60.3079
0.000792081
92.9636
29.2586
13.1183
0.00979883
96.7963
45.2617
4.12369
53.2036
0.00159292
0.00074716
0.154834
28.5676
107.429
72.692
0.000750192
0.000731335
0.000743855
28.2873
0.0279836
0.000745715
0.245968
94.1262
276.177
0.00440352
0.00453377
0.000721484
0.000738755
0.00194254
29.2528
101.361
21.3521
1.91368
299.014
387.375
0.00151065
62.1148
27.9154
28.484
75.0586
438.896
0.000821914
0.0044561
0.000750874
396.702
0.775272
0.000726919
10.7253
0.353553
303.029
0.000759331
326.077
8.761
0.0658221
202.088
0.000748077
0.000736468
0.001028
405.664
53.0227
130.018
323.126
10.8526
28.6267
0.000708765
0.00184572
0.459228
0.0151875
0.0163569
178.625
40.8765
0.000747825
25.6834
44.8726
185.053
408.091
0.00294638
411.338
0.00182597
0.0218208
149.659
0.00073926
145.225
0.000759566
0.000791539
0.0211929
34.4902
2.97718
324.5
61.9057
0.000886692
28.4996
498.875
0.208261
2.19836
7.44558
0.000774718
0.000759598
0.00230846
134.345
5.56766
0.000783496
271.307
280.617
216.648
0.110789
59.373
0.00108997
29.9567
0.543009
0.131225
121.375
29.7043
150.966
173.779
0.000761116
0.000711578
0.00493576
73.0832
103.575
6.01982
0.00658766
0.000772953
0.000749915
0.0034367
0.126307
0.00211435
71.9571
21.2987
0.00499015
26.4097
172.924
0.000760534
38.1755
0.000742619
3.2843
0.000762491
0.0132446
37.8289
0.0116533
0.000744589
4.12786
365.295
264.917
0.000731105
0.000748579
1.55015
0.13665
0.00074772
99.462
0.000905316
31.8759
378.308
30.0823
88.3413
296.91
131.758
336.82
0.000747577
0.00250434
0.011034
290.644
60.7701
201.267
5.47073
4.35148
99.3542
168.493
128.134
4.88226
46.8683
0.000750518
1.51609
40.2403
33.4505
307.853
26.9365
1.11903
40.7347
0.204191
0.00983159
40.53
0.00075098
175.1
0.000887833
2.74869
293.776
186.127
3.01037
0.00251088
7.04807
0.000768743
0.000736236
0.198573
0.0135011
51.4971
0.00872697
28.7137
0.000750503
0.0190529
0.000725493
94.7229
0.00181649
85.8264
302.479
0.0142907
168.46
376.455
0.00075697
99.1281
225.433
0.000785714
288.193
0.267768
0.000824943
0.000791649
283.719
0.000731622
0.0011189
0.122303
0.215542
433.945
271.169
0.000751491
0.000754857
9.14762
27.7131
0.00709974
2.34369
22.4771
0.000747649
0.000953818
0.000912613
168.424
271.815
3.38233
297.988
0.0171705
26.706
0.000772123
0.00718369
0.0160248
0.0435708
0.000749647
299.4
0.000741923
0.0160851
0.000772035
1.31671
0.0147858
0.0396037
2.50757
5.0387
35.0637
2.17144
9.30339
27.9303
189.651
0.000816291
166.052
327.255
12.538
74.7552
0.000761818
266.363
79.8691
0.00074561
413.264
65.6321
0.00620747
0.024579
160.726
159.507
0.218742
316.675
411.69
4.51244
433.371
265.291
126.821
50.2231
21.2097
28.6515
265.394
292.242
0.0142623
311.7
41.8418
402.406
0.000813437
1.5695
2.79784
225.093
165.613
0.0118437
443.449
195.001
7.03332
0.0546034
2.77937
28.1297
0.00154703
28.2731
442.306
0.0294065
221.314
14.0541
92.7878
189.845
0.000746036
0.00168005
7.43245
5.24799
0.0133271
0.000748281
0.83723
1.8428
0.00120854
0.000758694
268.287
7.05524
52.4956
10.5137
0.00314642
0.00107545
0.409638
87.1282
0.000823842
21.4635
30.026
1.8729
165.932
0.00100502
0.401241
0.000740593
1.77748
86.084
0.00164561
0.185886
40.7562
168.261
0.50558
94.3951
5.11385
0.909278
0.00098774
32.7086
334.128
0.000744051
0.000756092
147.783
0.0158098
0.000758244
72.4674
2.13039
164.743
29.6419
38.3587
0.312943
17.464
201.651
164.632
246.643
0.000763198
277.071
0.000969945
37.931
0.000796875
0.00146806
44.8431
0.00209617
253.3
0.0122118
0.0323601
45.5159
7.75499
0.564404
0.000897078
185.978
0.00088665
0.000719278
345.897
161.688
40.9637
28.7145
0.000813731
0.00068308
19.4078
148.604
0.000732628
220.958
37.369
0.00075286
168.358
0.000702568
3.41429
6.4986
10.914
1.51308
76.6855
21.1427
0.000700772
270.427
330.556
0.000744481
0.0133398
28.9274
0.00070898
238.763
161.094
401.868
0.000745512
0.000727866
203.383
0.0960622
0.00083686
30.951
80.8766
257.414
0.000720926
0.000794051
0.0157841
0.0116467
0.000746794
0.00203134
124.627
50.7247
0.000746636
13.1618
0.000747024
10.1942
0.00109106
0.000866883
27.0344
0.000748716
0.343884
0.000730527
49.3934
2.10817
20.0225
184.995
359.107
149.148
5.17865
14.7987
0.000758248
5.7492
278.676
528.662
0.156934
0.000826527
128.813
0.00074606
0.11497
0.000720636
443.354
15.2432
3.1914
197.633
52.032
5.04989
79.4694
7.80342
223.577
112.387
0.000773724
0.000756238
0.00308505
0.000736876
0.014059
100.133
0.000932229
252.136
0.00186655
0.29939
3.02898
153.783
0.00135967
41.2087
0.0135612
56.5666
30.2325
438.9
0.000795867
0.0009551
1.42075
84.1591
65.285
65.3322
1.93278
8.00531
19.9116
0.0628379
10.3754
1.79126
30.1463
0.000756912
390.08
1.45525
55.6328
0.000788114
52.7825
16.4282
0.00187024
89.0387
17.5353
0.0845001
0.000715206
0.00074599
204.8
47.6923
14.9055
0.000737915
0.0095433
50.1744
187.284
3.46635
0.00585476
0.000735854
148.37
130.183
35.7919
35.391
0.000743603
102.3
437.001
0.000746909
0.000749281
18.4223
0.0012681
0.00386901
0.22834
47.4148
0.00105186
36.3075
345.505
0.000731881
0.000821671
0.000727469
0.000769975
65.8115
513.734
336.919
0.0206083
33.467
46.9648
0.133486
44.0234
0.000824114
31.2948
0.536824
30.5458
5.17581
82.3811
102.329
0.145681
0.000759132
159.201
85.1538
282.804
5.78645
30.0236
0.525001
20.3524
0.00353466
0.00133409
153.595
143.234
0.0334278
1.21711
0.000753957
0.0996075
19.7431
0.0280824
13.7272
4.31948
386.569
37.0538
1.76675
276.3
138.485
56.3393
15.5934
202.113
186.864
3.16691
38.2597
0.00364159
47.05
45.4524
0.000743449
0.000711091
0.345515
0.000748424
0.00077548
57.3665
297.715
0.0007446
83.5523
0.000744915
0.000736795
0.000740884
0.000752913
0.0018146
29.651
45.3052
250.242
0.000718847
0.00106488
6.69867
0.000855011
0.0283946
0.000762783
0.000866297
167.845
0.000982953
0.00466436
183.218
0.00425805
0.00074943
188.56
0.000745355
0.000760496
1.4823
0.000870703
6.56626
0.00123872
0.0239898
0.000743837
0.000753564
304.652
422.565
44.0754
0.023845
110.151
15.8589
0.00130171
27.6731
307.119
234.668
474.428
0.000700409
27.1906
55.6085
0.262762
28.5755
100.984
0.353227
31.7083
1.03758
28.4807
0.286568
7.50969
0.000757618
222.737
0.000757138
28.7067
31.8286
0.000747855
0.927403
0.00245551
0.029017
0.000726542
3.97063
0.000893583
0.000741934
40.3717
0.0356219
0.165578
230.133
152.861
0.00081916
0.000968357
30.0633
261.94
0.000689998
0.000753935
0.197828
24.1081
145.344
0.00209779
15.8018
0.000745415
0.000818113
0.000718484
0.0278993
24.0706
0.00409322
275.125
29.8408
260.14
173.108
0.000842988
302.377
65.6421
0.000732732
0.000754063
0.000750338
0.00115984
0.000740203
124.791
0.000745384
0.000750358
353.985
1.20412
0.00267625
0.0346719
58.9653
7.46427
0.00779894
0.000823898
185.814
0.000762692
6.80292
0.000755037
0.000845454
163.588
166.412
0.00333851
0.000835157
3.88399
0.000744246
371.981
0.000753084
152.222
0.0269537
8.57456
0.117453
3.21305
1.96689
29.8498
0.000760948
0.00085984
0.00489344
60.5339
0.288279
304.35
0.000747026
0.00124227
0.00164034
258.013
61.0993
273.511
0.0022623
0.00350859
0.821258
0.000751295
19.6206
37.727
0.00876325
270.893
179.046
41.9979
0.0015464
1.45041
170.575
226.513
27.9482
0.0105877
121.789
0.531804
134.749
0.14422
2.30277
43.0412
0.000761953
28.5017
0.0012243
0.00509092
0.00627336
0.047854
0.000906849
11.0702
0.000745943
46.3243
0.132664
0.000867734
1.61493
0.000756578
0.769187
0.227214
40.2767
3.82257
92.8767
0.802309
0.000748376
0.000732322
4.67342
0.158913
42.4404
263.167
0.000751602
154.897
36.6518
0.0141633
52.014
10.5906
36.3666