/*--------------------------------*- C++ -*----------------------------------*\
| =========                 |                                                 |
| \\      /  F ield         | OpenFOAM: The Open Source CFD Toolbox           |
|  \\    /   O peration     | Version:  2.3.1                                 |
|   \\  /    A nd           | Web:      www.OpenFOAM.org                      |
|    \\/     M anipulation  |                                                 |
\*---------------------------------------------------------------------------*/
FoamFile
{
    version     2.0;
    format      ascii;
    class       volScalarField;
    location    "0.82";
    object      nut;
}
// * * * * * * * * * * * * * * * * * * * * * * * * * * * * * * * * * * * * * //

dimensions      [0 2 -1 0 0 0 0];

internalField   nonuniform List<scalar> 
9648
(
0.000272301
0.000271831
0.000271688
0.000271412
0.000270971
0.000270292
0.000269429
0.000268385
0.00026714
0.000265675
0.000263979
0.000262094
0.000260017
0.000257761
0.000255379
0.000252919
0.000250409
0.000247873
0.000245355
0.000242899
0.000240522
0.000238245
0.000236093
0.000234067
0.000232168
0.000230413
0.000228804
0.000227339
0.000226007
0.000224814
0.000223752
0.000222816
0.000222001
0.000221308
0.000220723
0.00022025
0.000219886
0.000219625
0.000219454
0.000219372
0.000219389
0.000219492
0.000219678
0.000219956
0.000220312
0.000220737
0.000221245
0.000221849
0.000222539
0.000223301
0.000224149
0.000225101
0.000226135
0.000227251
0.00022846
0.000229757
0.000231103
0.000232442
0.000233779
0.000235114
0.000236433
0.000462285
0.000464298
0.000466624
0.00046964
0.000473126
0.00047639
0.000481306
0.000488915
0.000499412
0.000512775
0.000529105
0.0005487
0.000571511
0.000597397
0.000626183
0.000657771
0.000691917
0.000728272
0.000766517
0.000806471
0.000847778
0.000890178
0.000933473
0.000977387
0.00102164
0.00106609
0.00111065
0.00115515
0.00119942
0.00124337
0.00128697
0.00133011
0.00137269
0.00141475
0.0014562
0.00149696
0.00153708
0.00157659
0.00161541
0.00165336
0.00169052
0.00172696
0.00176259
0.00179732
0.00183126
0.00186416
0.00189601
0.001927
0.00195719
0.00198647
0.00201477
0.00204214
0.0020688
0.00209426
0.0021192
0.0021434
0.00216749
0.00219049
0.00221302
0.00223534
0.00225762
0.000810687
0.000845863
0.000877025
0.000907136
0.000938821
0.00097365
0.00101126
0.00105287
0.00109817
0.00114799
0.00120173
0.00125992
0.0013224
0.00138903
0.00145952
0.00153351
0.00161066
0.00169037
0.00177218
0.00185564
0.00194025
0.00202568
0.00211145
0.00219724
0.00228273
0.00236772
0.00245206
0.00253548
0.00261791
0.00269925
0.00277937
0.00285827
0.00293596
0.00301232
0.00308733
0.00316108
0.00323348
0.00330464
0.0033745
0.00344306
0.00351033
0.00357624
0.00364097
0.00370447
0.00376668
0.00382759
0.00388717
0.00394562
0.00400274
0.00405871
0.00411348
0.00416715
0.0042203
0.00427147
0.0043229
0.00437233
0.00442158
0.00446798
0.00451459
0.00456043
0.00460566
0.00131511
0.00138442
0.00144823
0.00150955
0.0015712
0.00163524
0.00170263
0.00177435
0.00185068
0.0019324
0.00201915
0.00211122
0.00220815
0.00230984
0.0024157
0.0025252
0.00263779
0.0027528
0.00286967
0.00298778
0.00310669
0.00322581
0.00334477
0.00346322
0.00358088
0.0036975
0.00381294
0.00392701
0.00403963
0.00415066
0.00426017
0.00436811
0.00447443
0.00457925
0.00468245
0.00478415
0.0048843
0.00498302
0.00508028
0.00517612
0.00527056
0.00536366
0.00545536
0.00554582
0.00563494
0.00572275
0.00580929
0.0058946
0.00597852
0.00606111
0.0061428
0.00622256
0.00630115
0.006378
0.00645473
0.00652946
0.00660233
0.00667336
0.00674297
0.0068111
0.00687682
0.00190879
0.00200471
0.00209362
0.00217856
0.00226294
0.00235
0.0024418
0.00253935
0.00264344
0.00275438
0.00287186
0.00299558
0.00312512
0.00325999
0.00339936
0.00354237
0.00368825
0.00383634
0.00398589
0.00413637
0.00428713
0.00443768
0.00458752
0.00473634
0.00488392
0.00503009
0.00517462
0.00531741
0.00545836
0.00559742
0.00573456
0.00586983
0.00600332
0.00613497
0.00626479
0.0063929
0.00651932
0.006644
0.00676702
0.00688839
0.0070082
0.0071264
0.00724312
0.00735832
0.007472
0.00758414
0.00769465
0.0078036
0.00791119
0.00801678
0.00812098
0.00822343
0.00832359
0.00842168
0.00851814
0.00861312
0.0087054
0.00879558
0.00888367
0.00896913
0.00905189
0.00251993
0.00263465
0.00274364
0.00284935
0.00295531
0.00306512
0.00318144
0.00330576
0.00343843
0.00357947
0.00372829
0.00388406
0.00404624
0.00421391
0.00438632
0.00456237
0.00474078
0.0049211
0.00510231
0.00528389
0.0054653
0.00564583
0.00582514
0.00600273
0.00617855
0.00635246
0.00652436
0.00669414
0.00686156
0.00702664
0.00718946
0.00734993
0.00750829
0.00766455
0.00781862
0.00797062
0.00812067
0.00826871
0.00841474
0.00855877
0.0087007
0.00884072
0.00897886
0.00911516
0.00924953
0.00938206
0.00951296
0.00964117
0.0097676
0.009892
0.0100141
0.0101341
0.0102516
0.0103663
0.0104789
0.0105886
0.0106957
0.0108006
0.0109026
0.0110009
0.0110969
0.00311068
0.0032425
0.00337327
0.00350261
0.00363345
0.00376927
0.00391313
0.00406665
0.0042301
0.00440282
0.00458423
0.00477282
0.00496778
0.00516811
0.00537357
0.00558232
0.00579292
0.00600495
0.00621704
0.00642878
0.00663991
0.00684933
0.00705695
0.00726176
0.007464
0.00766389
0.00786117
0.00805611
0.00824798
0.00843687
0.00862304
0.00880605
0.00898648
0.00916456
0.00933985
0.00951252
0.00968307
0.00985101
0.0100166
0.0101797
0.01034
0.0104977
0.0106529
0.0108059
0.0109561
0.011104
0.0112497
0.0113926
0.0115333
0.0116711
0.0118064
0.0119389
0.0120682
0.0121946
0.0123176
0.012438
0.0125557
0.0126699
0.0127806
0.0128877
0.0129915
0.00367041
0.00382069
0.00397714
0.0041344
0.00429482
0.00445968
0.00463371
0.00481898
0.00501454
0.00522061
0.00543565
0.005658
0.00588578
0.00611786
0.00635528
0.00659641
0.00683908
0.00708289
0.00732557
0.00756614
0.00780595
0.00804326
0.00827872
0.00850968
0.00873608
0.00895967
0.00917997
0.00939795
0.00961215
0.00982252
0.0100298
0.0102323
0.010431
0.0106275
0.0108207
0.0110103
0.0111975
0.0113815
0.0115631
0.0117421
0.0119173
0.0120886
0.012256
0.0124209
0.0125822
0.0127404
0.0128955
0.0130469
0.013196
0.0133418
0.0134843
0.0136233
0.01376
0.0138931
0.0140218
0.0141471
0.0142691
0.0143889
0.0145044
0.014615
0.0147213
0.00420636
0.00437404
0.00455935
0.004744
0.00493874
0.00513251
0.00533592
0.00555545
0.00578008
0.00602064
0.00626758
0.00652721
0.00678726
0.00705015
0.00731403
0.0075861
0.00785992
0.00813546
0.00841292
0.00867913
0.00894488
0.00921035
0.00947369
0.009735
0.00998165
0.0102263
0.0104668
0.0107046
0.0109403
0.0111703
0.0113995
0.0116206
0.0118294
0.01204
0.0122504
0.0124523
0.0126504
0.0128478
0.0130407
0.0132346
0.0134253
0.0136122
0.0137866
0.0139593
0.0141307
0.0142932
0.0144547
0.014607
0.0147616
0.0149075
0.0150544
0.0151893
0.0153258
0.0154653
0.0155984
0.0157188
0.0158413
0.015957
0.0160766
0.01619
0.0162921
0.000237656
0.000238778
0.000239873
0.00024094
0.000241962
0.00024291
0.000243826
0.000244748
0.000245656
0.000246506
0.000247274
0.000248027
0.00024875
0.000249443
0.000250139
0.000250883
0.000251683
0.000252541
0.000253484
0.000254548
0.000255706
0.000256933
0.000258223
0.00025954
0.000260862
0.000262202
0.00026357
0.000264946
0.000266318
0.000267698
0.000269088
0.00027048
0.000271876
0.000273288
0.000274704
0.00027613
0.000277575
0.000279041
0.000280512
0.000281988
0.00028349
0.00028501
0.000286546
0.000288108
0.000289686
0.000291262
0.000292851
0.000294476
0.000296124
0.000297769
0.000299428
0.000301127
0.000302837
0.000304552
0.000306304
0.000308095
0.000309919
0.000311727
0.00031358
0.000315513
0.000317531
0.00227998
0.0023001
0.00231982
0.00233947
0.00235871
0.00237678
0.00239281
0.00240788
0.00242051
0.00243308
0.00244405
0.00245431
0.00246346
0.00247152
0.00247838
0.0024838
0.00248785
0.00249038
0.00249146
0.00249116
0.00248965
0.00248713
0.00248356
0.00247907
0.00247371
0.00246751
0.00246053
0.00245261
0.00244387
0.00243422
0.00242363
0.00241221
0.00239997
0.00238683
0.00237286
0.00235812
0.00234254
0.00232623
0.00230915
0.00229135
0.00227285
0.00225362
0.00223385
0.00221346
0.00219242
0.00217072
0.00214827
0.00212518
0.00210131
0.00207673
0.00205144
0.00202538
0.0019987
0.00197073
0.00194256
0.00191318
0.00188339
0.00185238
0.00182159
0.00179063
0.00175953
0.00464861
0.00469048
0.00472964
0.00476762
0.00480422
0.00484064
0.00487345
0.0049048
0.0049328
0.00495979
0.00498456
0.00500773
0.00502848
0.00504773
0.00506507
0.00508047
0.005094
0.00510563
0.00511544
0.00512349
0.00513001
0.00513495
0.00513841
0.00514042
0.005141
0.00514015
0.00513796
0.00513436
0.00512936
0.00512281
0.00511485
0.00510534
0.00509427
0.00508179
0.00506773
0.00505221
0.00503515
0.00501664
0.00499664
0.00497525
0.00495255
0.00492864
0.00490357
0.00487751
0.0048503
0.00482195
0.00479228
0.0047613
0.00472884
0.00469489
0.0046596
0.00462219
0.00458312
0.00454192
0.00449951
0.00445463
0.00440771
0.00435911
0.00430966
0.00425928
0.00420777
0.00694101
0.00700271
0.00706236
0.00711912
0.00717393
0.0072268
0.00727727
0.00732408
0.00736865
0.00741117
0.00745119
0.00748845
0.00752327
0.00755607
0.00758621
0.00761417
0.00763984
0.00766321
0.00768431
0.00770328
0.00772018
0.00773519
0.00774828
0.00775957
0.00776897
0.00777653
0.00778216
0.00778596
0.00778798
0.00778813
0.00778629
0.00778244
0.00777655
0.00776856
0.0077585
0.00774637
0.00773207
0.00771552
0.0076968
0.00767601
0.00765331
0.00762878
0.00760279
0.00757541
0.00754676
0.00751673
0.00748514
0.00745185
0.00741681
0.00737975
0.00734076
0.00729932
0.00725518
0.00720829
0.00715891
0.00710645
0.00705068
0.00699255
0.00693278
0.00687092
0.00680756
0.00913178
0.0092096
0.00928461
0.00935654
0.00942505
0.00949101
0.00955431
0.00961395
0.00967041
0.00972459
0.00977567
0.00982391
0.00986969
0.00991262
0.00995295
0.00999102
0.0100257
0.0100578
0.0100871
0.0101137
0.0101378
0.0101595
0.010179
0.0101964
0.0102115
0.0102242
0.0102348
0.0102433
0.0102499
0.0102545
0.010257
0.0102573
0.0102552
0.0102507
0.0102439
0.0102345
0.0102224
0.0102075
0.0101897
0.010169
0.0101457
0.01012
0.0100922
0.0100629
0.0100322
0.0100001
0.00996645
0.00993063
0.00989323
0.0098541
0.00981262
0.00976841
0.00972115
0.00967037
0.0096163
0.00955763
0.00949532
0.00942987
0.00936186
0.00929091
0.00921835
0.0111894
0.0112791
0.0113649
0.0114482
0.0115276
0.0116034
0.0116761
0.0117445
0.0118097
0.0118715
0.0119307
0.0119867
0.0120396
0.0120896
0.0121364
0.0121803
0.0122208
0.0122584
0.0122925
0.012323
0.0123504
0.0123749
0.0123967
0.0124161
0.0124328
0.0124467
0.0124578
0.0124665
0.0124731
0.012478
0.0124813
0.0124823
0.012481
0.0124774
0.0124715
0.0124628
0.0124509
0.0124357
0.0124171
0.012395
0.0123695
0.0123404
0.0123086
0.0122747
0.0122392
0.0122027
0.0121644
0.0121244
0.0120826
0.0120399
0.0119949
0.0119466
0.0118953
0.0118405
0.0117816
0.0117172
0.0116484
0.0115749
0.0114989
0.0114196
0.0113379
0.0130918
0.0131884
0.0132812
0.0133701
0.0134553
0.0135371
0.0136147
0.0136881
0.013758
0.0138243
0.013887
0.0139468
0.0140036
0.0140565
0.0141058
0.0141524
0.0141959
0.0142361
0.0142723
0.0143037
0.0143311
0.014355
0.0143757
0.0143934
0.0144082
0.0144195
0.0144272
0.0144313
0.0144328
0.0144328
0.014432
0.0144292
0.014425
0.0144187
0.0144113
0.0144014
0.0143876
0.0143701
0.014349
0.0143244
0.0142957
0.0142624
0.0142248
0.0141844
0.0141419
0.0140991
0.0140532
0.0140061
0.0139572
0.013909
0.013859
0.013805
0.0137488
0.0136891
0.0136257
0.013555
0.0134792
0.0133976
0.0133139
0.0132261
0.0131356
0.0148242
0.0149226
0.0150167
0.015106
0.0151913
0.0152719
0.0153489
0.0154221
0.0154924
0.0155588
0.015621
0.0156804
0.0157372
0.0157905
0.0158386
0.0158829
0.0159256
0.0159661
0.0160031
0.0160344
0.0160597
0.0160813
0.0160991
0.0161127
0.0161231
0.0161297
0.0161326
0.0161294
0.0161211
0.0161101
0.0160999
0.0160869
0.0160742
0.0160598
0.0160475
0.0160348
0.0160171
0.0159938
0.0159675
0.0159392
0.0159074
0.0158708
0.0158277
0.0157802
0.0157304
0.0156808
0.0156257
0.0155696
0.0155102
0.015454
0.0153978
0.0153358
0.0152725
0.0152071
0.0151396
0.0150625
0.0149802
0.0148898
0.0147984
0.0147024
0.0146043
0.0163968
0.0164928
0.0165871
0.0166677
0.0167476
0.0168149
0.0168857
0.0169437
0.0170048
0.0170699
0.0171284
0.0171734
0.0172259
0.0172784
0.0173245
0.0173617
0.017393
0.0174251
0.0174615
0.0174935
0.0175151
0.0175353
0.0175545
0.0175642
0.0175674
0.0175664
0.0175657
0.017561
0.017544
0.0175193
0.0174965
0.0174662
0.0174375
0.0174039
0.0173786
0.0173596
0.0173364
0.0173026
0.0172652
0.0172275
0.0171891
0.0171546
0.0171072
0.017053
0.0170003
0.0169459
0.0168858
0.0168206
0.0167508
0.0166829
0.0166183
0.016545
0.0164685
0.0163974
0.0163228
0.0162425
0.0161528
0.0160565
0.0159554
0.0158525
0.0157458
0.000319547
0.000321544
0.00032362
0.000325773
0.000327974
0.000330178
0.000332416
0.000334717
0.00033706
0.000339426
0.000341811
0.000344236
0.000346678
0.000349208
0.000352353
0.000355182
0.000357964
0.000360736
0.000363509
0.00036631
0.000369123
0.000371951
0.000374802
0.000377657
0.000380501
0.000383341
0.000386179
0.000389001
0.000391791
0.000394549
0.000397267
0.000399932
0.000402534
0.000405073
0.000407524
0.000409884
0.000412142
0.00041427
0.000416103
0.000417429
0.000418337
0.000418833
0.000418917
0.000418583
0.000417774
0.000416424
0.000414488
0.000411901
0.000408539
0.000404245
0.00039888
0.000392272
0.000384129
0.000374135
0.00036078
0.000340051
0.000330039
0.000324799
0.000322679
0.000321603
0.000319278
0.00172788
0.00169617
0.00166393
0.00163148
0.0015988
0.00156619
0.00153309
0.00150027
0.00146732
0.00143476
0.00140285
0.00137053
0.00133878
0.00130727
0.00127203
0.0012371
0.0012026
0.00116876
0.00113566
0.00110333
0.00107174
0.00104072
0.00101024
0.000980277
0.000950823
0.000921916
0.000893531
0.000865724
0.000838469
0.000811778
0.000785686
0.000760218
0.000735366
0.000711176
0.000687708
0.000664979
0.00064309
0.000622119
0.000601511
0.000578838
0.000555562
0.000533406
0.000512333
0.000492529
0.000474097
0.000457241
0.000442234
0.000429341
0.000418827
0.000411025
0.000406296
0.000405072
0.000407771
0.000414813
0.000425574
0.000448916
0.000484944
0.000542411
0.00063052
0.00075659
0.000873172
0.00415567
0.00410281
0.00404899
0.00399365
0.00393696
0.00387921
0.00382034
0.00376079
0.00370053
0.00364016
0.00357786
0.00351567
0.00345605
0.00339622
0.00333353
0.00326836
0.00320182
0.00313509
0.00306851
0.00300238
0.00293653
0.00287061
0.00280463
0.00273859
0.0026724
0.00260614
0.00253974
0.00247326
0.00240653
0.00233965
0.00227251
0.00220509
0.00213746
0.00206952
0.00200133
0.00193289
0.00186424
0.00179535
0.00172592
0.00165472
0.00158138
0.0014957
0.00140293
0.00130742
0.00121037
0.00111301
0.001017
0.000923895
0.000835676
0.000754338
0.000681832
0.000619967
0.00056991
0.000532894
0.000508919
0.000501929
0.000514602
0.000552247
0.000624762
0.000746372
0.00091072
0.00674304
0.00667812
0.00661151
0.00654259
0.00647083
0.00639735
0.00632221
0.00624617
0.0061696
0.0060923
0.00601113
0.00593155
0.00585449
0.00577699
0.00569613
0.00561174
0.00552469
0.0054368
0.00534867
0.00526065
0.00517246
0.00508331
0.00499346
0.00490296
0.0048116
0.00471941
0.00462629
0.00453224
0.00443702
0.00434056
0.0042428
0.00414377
0.00404339
0.00394172
0.00383879
0.00373458
0.00362904
0.00352219
0.00341376
0.00330321
0.0031897
0.00306972
0.00293464
0.00278274
0.00261926
0.00244449
0.00225927
0.00206496
0.0018641
0.0016609
0.00146007
0.00126892
0.00109383
0.000941413
0.000815495
0.00072085
0.000660119
0.000633357
0.000642971
0.000696964
0.000803375
0.00914372
0.00906844
0.00899116
0.00891147
0.0088273
0.00874066
0.00865202
0.00856307
0.0084733
0.00838267
0.00828714
0.00819346
0.00810171
0.00800961
0.00791398
0.00781425
0.00771099
0.00760686
0.00750226
0.00739764
0.00729233
0.00718515
0.00707684
0.00696755
0.00685674
0.00674462
0.00663082
0.00651536
0.0063978
0.00627814
0.00615629
0.00603248
0.00590675
0.00577926
0.00565002
0.00551914
0.00538664
0.00525247
0.00511646
0.00497833
0.00483754
0.00469272
0.00454049
0.00437129
0.00418429
0.00398137
0.00376103
0.00352187
0.00326278
0.00298472
0.00268935
0.00238173
0.00207101
0.00176984
0.00149254
0.00125331
0.00106348
0.000924866
0.000834917
0.000793259
0.000803659
0.011253
0.0111674
0.0110801
0.0109902
0.0108945
0.0107955
0.0106936
0.010592
0.0104899
0.0103873
0.0102789
0.0101721
0.0100666
0.00996143
0.00985209
0.00973858
0.00962106
0.00950338
0.00938513
0.00926682
0.00914719
0.00902436
0.00890044
0.00877568
0.0086487
0.0085199
0.00838862
0.00825503
0.00811829
0.00797876
0.00783635
0.00769179
0.00754522
0.00739706
0.00724714
0.0070958
0.00694299
0.00678883
0.00663319
0.00647595
0.00631667
0.0061548
0.00598884
0.00581494
0.00562238
0.00541477
0.0051893
0.00494444
0.00467705
0.00438429
0.00406418
0.00371546
0.00334028
0.00294687
0.00254828
0.00216586
0.001822
0.00153154
0.00130019
0.00112886
0.00101721
0.0130398
0.0129439
0.0128467
0.0127476
0.0126405
0.0125292
0.0124137
0.0122997
0.0121858
0.0120723
0.0119514
0.0118319
0.0117137
0.0115968
0.011475
0.0113493
0.011219
0.0110897
0.0109598
0.0108301
0.010698
0.0105609
0.0104236
0.0102862
0.0101452
0.0100017
0.00985449
0.00970467
0.00955021
0.00939249
0.00923145
0.00906907
0.008905
0.00874024
0.00857402
0.00840709
0.00823916
0.0080709
0.00790205
0.00773281
0.00756252
0.00739097
0.0072174
0.0070398
0.00685346
0.00664895
0.0064291
0.00619193
0.00593475
0.00565462
0.00534766
0.00500998
0.00463901
0.00423356
0.00379879
0.00334688
0.00289782
0.00247472
0.00209562
0.00177231
0.0015119
0.0144981
0.014391
0.0142841
0.0141764
0.0140587
0.0139355
0.0138071
0.0136801
0.0135549
0.0134312
0.0132987
0.0131676
0.0130382
0.0129115
0.0127788
0.0126424
0.0125013
0.0123619
0.0122223
0.0120833
0.0119399
0.0117895
0.011641
0.0114933
0.0113392
0.0111813
0.0110186
0.0108533
0.0106811
0.0105057
0.0103273
0.01015
0.00997139
0.00979388
0.0096149
0.00943654
0.00925769
0.00908097
0.00890513
0.00873113
0.00855691
0.00838308
0.00820843
0.00803179
0.00785022
0.00765582
0.00744599
0.00722098
0.00697947
0.00671945
0.0064383
0.00613193
0.00579537
0.00542452
0.00501704
0.00457484
0.00410692
0.00362795
0.00315708
0.00271275
0.00231208
0.0156341
0.0155131
0.015398
0.0152784
0.0151544
0.015018
0.0148807
0.0147374
0.0146031
0.0144676
0.0143278
0.0141848
0.0140489
0.0139122
0.0137737
0.0136255
0.01348
0.0133288
0.0131822
0.0130376
0.0128814
0.0127215
0.0125633
0.0124039
0.012237
0.0120619
0.0118858
0.0117029
0.0115131
0.0113199
0.0111275
0.0109389
0.0107485
0.0105614
0.0103729
0.0101866
0.0100016
0.00982498
0.00965016
0.0094808
0.0093083
0.00913908
0.00896859
0.00879635
0.00862142
0.00843958
0.00824087
0.00802739
0.00780195
0.00756832
0.00731713
0.00705016
0.00675537
0.0064351
0.00607894
0.00569004
0.00526132
0.00480406
0.00432155
0.00382865
0.00334563
0.000315206
0.000310558
0.000305469
0.000299996
0.000294348
0.000288627
0.000283006
0.000277693
0.00027285
0.00026859
0.000264972
0.000262047
0.000259762
0.000258035
0.000256799
0.000255969
0.000255445
0.000255147
0.000255027
0.000255052
0.000255181
0.00025539
0.000255675
0.000256013
0.000256399
0.000256837
0.000257328
0.000257867
0.000258446
0.00025907
0.000259731
0.000260429
0.000261155
0.000261908
0.00026267
0.00026344
0.00026421
0.000264964
0.00026568
0.00026635
0.000266973
0.000267529
0.00026801
0.000268423
0.000268753
0.000268998
0.000269183
0.000269335
0.000269461
0.000269565
0.00026968
0.000269843
0.000270031
0.000270258
0.00027053
0.000270844
0.000271161
0.00027144
0.0002717
0.00027194
0.000272149
0.000937845
0.000992633
0.00103507
0.00105995
0.00106983
0.00106845
0.00105341
0.00102587
0.000988365
0.000943148
0.000892555
0.000839998
0.00078814
0.000738789
0.000692535
0.000651029
0.000615908
0.000586886
0.000563566
0.00054532
0.000531354
0.000520837
0.000513115
0.000507438
0.000503554
0.000501025
0.000499675
0.000499313
0.000499799
0.000501009
0.000502826
0.000505137
0.000507811
0.000510706
0.000513691
0.000516632
0.000519376
0.000521788
0.000523714
0.000525006
0.000525518
0.000525098
0.00052361
0.000520927
0.000516957
0.000511664
0.000505086
0.000497384
0.000488828
0.000479852
0.000471009
0.000462921
0.000456177
0.000451214
0.000448316
0.000447449
0.00044835
0.000450513
0.000453407
0.000456479
0.000459499
0.00108213
0.00125384
0.00142212
0.00156842
0.00166613
0.00174179
0.00179228
0.00181289
0.00180806
0.00178085
0.00173239
0.00166729
0.00158957
0.00150278
0.00140885
0.00131329
0.00122349
0.00114168
0.00107024
0.00101098
0.000964043
0.000928499
0.000902474
0.000884421
0.000872255
0.000865055
0.000861681
0.000861437
0.00086368
0.000867875
0.000873593
0.000880344
0.000887627
0.000894951
0.000901808
0.00090775
0.000912324
0.000915107
0.000915677
0.000913675
0.000908805
0.000900889
0.000889822
0.000875637
0.000858408
0.000838387
0.000815898
0.000791406
0.000765481
0.000738987
0.000713115
0.000689376
0.000669666
0.000655833
0.000649612
0.000651985
0.00066309
0.00068225
0.00070819
0.000739246
0.000773894
0.00095893
0.00115733
0.00138669
0.00162328
0.00183774
0.00203059
0.00220713
0.00233104
0.00241591
0.00247063
0.00249178
0.00248271
0.00244787
0.00238894
0.00230769
0.00220795
0.00209385
0.00197746
0.00186451
0.00176088
0.00167129
0.00159887
0.0015439
0.0015049
0.00147931
0.00146498
0.00145997
0.00146268
0.00147162
0.00148551
0.00150331
0.00152393
0.00154617
0.00156881
0.00159067
0.00161063
0.00162756
0.00164037
0.001648
0.00164945
0.00164387
0.00163058
0.00160915
0.00157937
0.00154128
0.00149537
0.00144234
0.00138325
0.00131916
0.00125175
0.00118321
0.00111656
0.00105595
0.00100677
0.000975337
0.000966963
0.00098336
0.00102383
0.00108495
0.00115959
0.00123917
0.000870485
0.000997436
0.00118512
0.00142326
0.0016883
0.0019598
0.00222339
0.00245547
0.00265332
0.00282492
0.00294779
0.00302446
0.00306944
0.00308144
0.00306335
0.00302
0.0029526
0.00286446
0.00276725
0.00266774
0.00257209
0.00248744
0.00241871
0.002368
0.00233458
0.00231733
0.00231477
0.00232529
0.00234685
0.00237745
0.00241554
0.00245939
0.002507
0.00255627
0.0026052
0.00265181
0.00269413
0.00273025
0.00275817
0.00277602
0.00278205
0.00277489
0.00275327
0.00271636
0.00266343
0.00259471
0.00251053
0.00241191
0.00230011
0.00217704
0.00204541
0.00190956
0.00177553
0.00165267
0.00155475
0.00149866
0.00148848
0.00152553
0.00159959
0.00169747
0.00180393
0.000966984
0.000980615
0.0010617
0.00121185
0.00142548
0.0016896
0.00198481
0.00228411
0.00256725
0.00282401
0.00304099
0.00321612
0.00336024
0.00345532
0.0035094
0.00353917
0.00354448
0.00352965
0.0035009
0.00346264
0.0034213
0.00338115
0.00334715
0.00332395
0.00331312
0.00331605
0.00333365
0.00336601
0.00341181
0.00346905
0.00353625
0.0036114
0.00369204
0.0037754
0.00385882
0.00393953
0.00401488
0.00408209
0.00413832
0.00418086
0.00420708
0.00421495
0.00420235
0.00416773
0.0041093
0.00402689
0.00391992
0.00378893
0.00363441
0.00345806
0.00326212
0.00305109
0.00283162
0.00261456
0.00241801
0.00226524
0.00217295
0.00215188
0.00219596
0.00228614
0.00239936
0.00131891
0.00119583
0.00114465
0.00116734
0.00126456
0.00143443
0.00166963
0.00195387
0.00226467
0.00257795
0.00287082
0.00312917
0.00334897
0.00352463
0.00366123
0.00377489
0.00385038
0.00390157
0.00394446
0.00398188
0.0040239
0.00406875
0.00411594
0.00416565
0.00422027
0.00428111
0.00435091
0.0044314
0.00452259
0.00462313
0.00473226
0.00484824
0.00496884
0.00509126
0.00521272
0.00533023
0.00544065
0.00554065
0.00562668
0.00569541
0.00574362
0.00576871
0.0057681
0.0057397
0.00568076
0.00559039
0.00546717
0.00531101
0.00512179
0.0049004
0.00464837
0.00436959
0.00406977
0.00375877
0.00345402
0.00318274
0.00297375
0.00285238
0.00282622
0.00287946
0.00298244
0.00196842
0.00169226
0.00149018
0.00136628
0.00132206
0.00135758
0.00147126
0.00165795
0.00190718
0.00220124
0.00251636
0.00282853
0.00311982
0.00337616
0.00359346
0.00377533
0.00392338
0.00404575
0.00415928
0.0042505
0.00435843
0.0044765
0.00460496
0.00474271
0.00488993
0.0050432
0.00519977
0.00535899
0.00552303
0.00569032
0.00586047
0.00603156
0.00620186
0.00636975
0.00653294
0.0066891
0.00683528
0.00696788
0.00708275
0.00717613
0.00724524
0.00728637
0.00729716
0.00727539
0.00721763
0.00712159
0.0069861
0.00680907
0.00659103
0.00633153
0.00603204
0.00569487
0.00532423
0.00492876
0.00452474
0.00413862
0.00380605
0.00356863
0.00345265
0.00345313
0.00353698
0.00288689
0.00247454
0.00212343
0.00184306
0.00164304
0.00152659
0.00149458
0.00154443
0.00167215
0.00187027
0.00212518
0.00241978
0.0027348
0.00304922
0.0033455
0.00361742
0.00385132
0.00404821
0.00421161
0.00435077
0.00451912
0.00468031
0.00485457
0.00504904
0.00526941
0.0055097
0.00576432
0.0060251
0.00628489
0.00654234
0.00679573
0.0070408
0.00727346
0.00749703
0.00770788
0.00790675
0.00809141
0.00825834
0.00840239
0.00851896
0.00860937
0.00866435
0.00868617
0.00867034
0.00861574
0.00851523
0.00837225
0.00817595
0.00793492
0.00764233
0.00730481
0.00691911
0.00648844
0.00602436
0.00553713
0.00504966
0.00460709
0.00426342
0.0040595
0.00400579
0.00406661
0.00485669
0.0178154
0.0179959
0.00203824
0.00502666
0.00711114
0.00125012
0.00612025
0.00128982
0.00335293
0.0105952
0.0156334
0.0012499
0.0138202
0.00666891
0.0194299
0.00126352
0.00661721
0.00998641
0.00125351
0.0020529
0.0137505
0.0179201
0.0012775
0.00127962
0.0048361
0.00125328
0.00296748
0.00126001
0.0013141
0.00735253
0.00127876
0.00273453
0.00907241
0.0145388
0.00924724
0.00802479
0.0149165
0.0012467
0.0132555
0.0047771
0.0121287
0.0012468
0.0191431
0.00546554
0.0100295
0.00134951
0.00240042
0.0013179
0.0158595
0.0104551
0.0147234
0.00124488
0.00143566
0.00201259
0.00020847
0.0013117
0.00443956
0.00887476
0.0169679
0.00392861
0.00135677
0.00128916
0.00364828
0.0181813
0.00711649
0.00912977
0.00442663
0.00148608
0.00124254
0.0137484
0.0150576
0.00458359
0.000487622
0.00272785
0.0181703
0.0177936
0.0181209
0.00124231
0.0150688
0.00193817
0.012586
0.000815349
0.0193421
0.00124255
0.0126633
0.00128563
0.0118057
0.00182822
0.00158831
0.0055733
0.00124181
0.00137892
0.0163974
0.0180902
0.00134066
0.0111305
0.0045776
0.00178074
0.0183749
0.00362589
0.0173201
0.00873072
0.00124141
0.00124186
0.00124406
0.0060215
0.00670902
0.00126407
0.0186646
0.0181275
0.00166437
0.0081946
0.00762063
0.00527786
0.0123429
0.0101905
0.00140635
0.00596267
0.00142291
0.00103977
0.00577616
0.00153521
0.0165681
0.0124544
0.00325246
0.00124624
0.0139398
0.0143929
0.00124637
0.00351244
0.00373201
0.00279771
0.00154068
0.0131748
0.0012457
0.00124187
0.0129638
0.0151608
0.00125319
0.0032959
0.0183811
0.00433478
0.00920352
0.0082436
0.0173248
0.000461839
0.00891055
0.00250286
0.0161511
0.0124984
0.00020841
0.0150851
0.0192917
0.0182939
0.00128379
0.00126855
0.00832272
0.00125729
0.00827544
0.000736939
0.00162257
0.00124366
0.00124744
0.00124292
0.0187326
0.00409769
0.00622494
0.00129124
0.0145374
0.00663355
0.002212
0.0131573
0.00254901
0.00819174
0.00594379
0.0115146
0.00125958
0.00171206
0.00384948
0.0125184
0.0124141
0.0163594
0.00124782
0.00132587
0.00925032
0.00393961
0.0119221
0.00124469
0.00135
0.0057709
0.00129835
0.0158022
0.0108634
0.00125596
0.00875417
0.0031744
0.0178535
0.00151688
0.00632714
0.00124761
0.00125361
0.0206959
0.0159962
0.0155995
0.00152523
0.00129485
0.0018621
0.0157619
0.00566739
0.0113707
0.0175281
0.0154271
0.0180538
0.00384086
0.0198843
0.0178744
0.0121761
0.0164083
0.0121464
0.00148557
0.0042016
0.00125151
0.00127143
0.0105844
0.0029601
0.00310871
0.0014791
0.00247451
0.0152542
0.0104365
0.00289251
0.0179524
0.0146517
0.00453626
0.00124494
0.00425461
0.0188052
0.0139062
0.00145236
0.00985119
0.00343759
0.00327891
0.00264074
0.0170737
0.00737248
0.00405964
0.0193987
0.00138945
0.00124231
0.00142553
0.00231968
0.00966502
0.00129573
0.00151652
0.00124564
0.0079339
0.0195104
0.0183447
0.0137997
0.0123707
0.017103
0.0155689
0.00149041
0.00807414
0.0184428
0.0012461
0.00465967
0.00124266
0.00437394
0.0078611
0.004466
0.00165491
0.00124633
0.01677
0.00296653
0.00124292
0.00125557
0.00125874
0.00126157
0.0100023
0.00629171
0.018604
0.00183959
0.00124287
0.00124387
0.00124171
0.0197413
0.00396133
0.00150817
0.0125391
0.00598007
0.00163155
0.0012433
0.00820327
0.00124266
0.00215427
0.00388822
0.00727255
0.002731
0.00140923
0.00172979
0.0177616
0.0049477
0.00254331
0.0154992
0.00131674
0.00124338
0.00124546
0.019416
0.00127516
0.0155864
0.00124534
0.0123477
0.0109361
0.00273264
0.00587997
0.00575699
0.00154657
0.0134124
0.0126935
0.00262851
0.0213975
0.0107575
0.0152758
0.0139493
0.0193605
0.00824402
0.0191691
0.00451945
0.00669402
0.0154094
0.01679
0.0130318
0.0121004
0.00140381
0.016166
0.00578654
0.0181269
0.00363388
0.00133393
0.00124657
0.0012993
0.00389439
0.0104494
0.00749232
0.00615961
0.0012489
0.0185908
0.00124614
0.00711421
0.0143185
0.0187202
0.0152204
0.0169073
0.00165362
0.00147272
0.00160613
0.00867441
0.00219479
0.00587782
0.00957241
0.0105909
0.0191664
0.0179296
0.0157132
0.0013133
0.0166884
0.0180633
0.00272133
0.0012544
0.0181437
0.0184204
0.00127881
0.0114674
0.00125539
0.0102626
0.0174613
0.0112529
0.0197569
0.00540179
0.0187819
0.00127552
0.0189466
0.00139132
0.0171656
0.0185285
0.0116649
0.0168039
0.0133042
0.0083897
0.0109538
0.00146999
0.00371559
0.00126858
0.00205728
0.00127456
0.00710327
0.0013847
0.0191996
0.00124347
0.0012559
0.00176655
0.00928837
0.00512263
0.0140684
0.00148028
0.0196774
0.00785389
0.0178383
0.00604021
0.0164714
0.0102304
0.00129887
0.0168656
0.0188673
0.00125014
0.018476
0.0149343
0.0012441
0.00124175
0.00880222
0.00184052
0.0129213
0.00158887
0.00697457
0.0036595
0.00973292
0.0157446
0.0190647
0.0161085
0.017855
0.0172
0.00140317
0.0013075
0.00895588
0.0112422
0.0151524
0.0109929
0.0180143
0.00454777
0.0183734
0.0183383
0.00670668
0.00284614
0.0155109
0.0149303
0.00132341
0.0189824
0.0139103
0.0014486
0.0191769
0.0175903
0.0155347
0.00343216
0.00461405
0.0132388
0.00165503
0.0153044
0.00153842
0.00319549
0.00125176
0.011943
0.0027775
0.0086729
0.00156716
0.00136726
0.00909205
0.00869969
0.0016685
0.00283508
0.0107093
0.00274784
0.00130877
0.017024
0.00903261
0.0132479
0.00776998
0.00348044
0.0120076
0.0180723
0.0191401
0.00652087
0.0123641
0.0161217
0.00593943
0.0145075
0.0189673
0.000411419
0.00622184
0.0122952
0.001297
0.00309984
0.00788429
0.0125624
0.00278832
0.0213687
0.0040791
0.0109009
0.00607642
0.00168192
0.00124497
0.00102235
0.0168032