/*--------------------------------*- C++ -*----------------------------------*\
| =========                 |                                                 |
| \\      /  F ield         | OpenFOAM: The Open Source CFD Toolbox           |
|  \\    /   O peration     | Version:  2.3.1                                 |
|   \\  /    A nd           | Web:      www.OpenFOAM.org                      |
|    \\/     M anipulation  |                                                 |
\*---------------------------------------------------------------------------*/
FoamFile
{
    version     2.0;
    format      ascii;
    class       volScalarField;
    location    "0.25";
    object      k;
}
// * * * * * * * * * * * * * * * * * * * * * * * * * * * * * * * * * * * * * //

dimensions      [0 2 -2 0 0 0 0];

internalField   nonuniform List<scalar> 
9648
(
2.70356
2.70536
2.70224
2.69612
2.68614
2.67211
2.65431
2.63253
2.60668
2.57673
2.54286
2.50543
2.46497
2.42215
2.3777
2.33239
2.28696
2.24208
2.19831
2.15612
2.11586
2.07781
2.04214
2.00897
1.97835
1.95028
1.92472
1.9016
1.88083
1.86231
1.84594
1.83163
1.81929
1.80884
1.80021
1.79327
1.78799
1.78425
1.782
1.7812
1.7818
1.78379
1.78715
1.79186
1.7979
1.80524
1.81387
1.82385
1.83522
1.84803
1.86232
1.87817
1.89562
1.9146
1.93509
1.95682
1.9794
2.00223
2.02486
2.04697
2.06831
1.73236
1.73003
1.72648
1.72402
1.72477
1.73116
1.74501
1.76658
1.79578
1.83261
1.87653
1.92675
1.9823
2.04214
2.10526
2.17072
2.23767
2.30536
2.37318
2.44068
2.50748
2.5733
2.63799
2.70144
2.7636
2.82451
2.88421
2.94275
3.00014
3.05647
3.11184
3.16634
3.22006
3.27321
3.32579
3.37786
3.42946
3.48065
3.53148
3.58189
3.63206
3.68215
3.73207
3.78179
3.83135
3.88056
3.92942
3.97803
4.02644
4.07452
4.12204
4.16911
4.21577
4.26161
4.30687
4.35128
4.39504
4.43745
4.47878
4.51908
4.55844
1.45813
1.50511
1.55653
1.61484
1.68132
1.75615
1.83891
1.92934
2.02668
2.13022
2.23867
2.3511
2.46632
2.5832
2.70064
2.81761
2.9333
3.04694
3.15792
3.26583
3.37032
3.47122
3.56842
3.66192
3.75184
3.83831
3.92155
4.00165
4.07883
4.15326
4.22509
4.29461
4.36206
4.4276
4.49142
4.55362
4.61441
4.67377
4.73172
4.78851
4.84401
4.89859
4.9524
5.00531
5.05744
5.10849
5.15851
5.20758
5.25553
5.30244
5.34829
5.39309
5.43708
5.47956
5.52146
5.56176
5.60119
5.6387
5.67549
5.71115
5.74574
1.4124
1.50729
1.61
1.72089
1.84015
1.96762
2.10256
2.24394
2.39047
2.54091
2.69373
2.84766
3.00132
3.15363
3.30346
3.44983
3.59201
3.72937
3.86148
3.98805
4.10893
4.22399
4.33333
4.43713
4.53569
4.62931
4.71829
4.80297
4.88362
4.96056
5.03417
5.10465
5.17242
5.23765
5.3005
5.36153
5.42061
5.47832
5.53459
5.589
5.64231
5.69416
5.74487
5.79486
5.84361
5.89158
5.93867
5.9849
6.03025
6.07453
6.11786
6.1599
6.20092
6.24077
6.27994
6.31789
6.35466
6.39023
6.42468
6.45804
6.49012
1.47561
1.61157
1.75781
1.91333
2.07735
2.24915
2.42743
2.61056
2.79697
2.98485
3.17252
3.35836
3.54111
3.71966
3.89297
4.05999
4.22013
4.37301
4.51831
4.65601
4.78604
4.90843
5.02343
5.13134
5.23267
5.32793
5.41754
5.50194
5.58154
5.65674
5.72791
5.79559
5.85999
5.92144
5.9803
6.03659
6.09132
6.14413
6.195
6.2447
6.29239
6.33899
6.3846
6.42869
6.47193
6.51387
6.555
6.59554
6.6353
6.67404
6.71174
6.74826
6.78352
6.8176
6.8507
6.8829
6.9139
6.94379
6.97247
6.99982
7.02589
1.58805
1.7603
1.9452
2.1406
2.34445
2.5553
2.77131
2.99051
3.21079
3.42993
3.64611
3.85739
4.06275
4.26095
4.45146
4.63304
4.80507
4.96763
5.12036
5.26364
5.39761
5.52216
5.63792
5.74509
5.84456
5.93704
6.02304
6.10331
6.17794
6.24758
6.31286
6.3739
6.43174
6.48652
6.53815
6.58772
6.63459
6.67959
6.72309
6.7638
6.80413
6.84316
6.88098
6.91847
6.95353
6.9877
7.02109
7.05347
7.08569
7.117
7.14725
7.17636
7.20425
7.23084
7.25638
7.28088
7.3044
7.32686
7.34798
7.36754
7.38593
1.7294
1.93478
2.15505
2.38659
2.62602
2.87147
3.12046
3.37071
3.61998
3.86505
4.10455
4.33578
4.55823
4.77058
4.97346
5.1646
5.34365
5.51127
5.6667
5.81111
5.94491
6.06744
6.18017
6.28257
6.37634
6.46243
6.54138
6.61435
6.68102
6.74213
6.79837
6.85011
6.89832
6.94354
6.98608
7.02539
7.06346
7.09877
7.13066
7.1622
7.19113
7.21995
7.24941
7.27669
7.30312
7.32774
7.35099
7.37387
7.3962
7.41799
7.43894
7.45873
7.47737
7.49454
7.51042
7.52549
7.53973
7.55294
7.56459
7.57451
7.58323
1.88777
2.12328
2.37588
2.64011
2.91123
3.18659
3.46406
3.74112
4.01492
4.28147
4.53994
4.78618
5.02085
5.24192
5.45297
5.64956
5.83165
6.00094
6.15499
6.29639
6.42654
6.54317
6.65018
6.74424
6.82858
6.90494
6.97332
7.03643
7.09216
7.14187
7.18729
7.22649
7.26227
7.29552
7.32505
7.35299
7.37905
7.40119
7.42266
7.44013
7.45646
7.47268
7.48822
7.50518
7.51955
7.53291
7.54464
7.55503
7.56518
7.57498
7.58412
7.59231
7.59958
7.60496
7.60903
7.61256
7.61488
7.61719
7.61734
7.61518
7.61243
2.05372
2.31369
2.59554
2.88625
3.18679
3.48665
3.78699
4.08873
4.38088
4.6663
4.93881
5.19856
5.44055
5.66576
5.87962
6.07857
6.26076
6.42873
6.58233
6.71755
6.83938
6.94768
7.04502
7.13132
7.20327
7.26565
7.32135
7.37184
7.41347
7.44981
7.48196
7.50822
7.52962
7.5472
7.56091
7.57416
7.58386
7.59184
7.5985
7.60196
7.60294
7.60116
7.60287
7.60292
7.60171
7.60355
7.60103
7.59647
7.58968
7.58392
7.57658
7.5693
7.5624
7.55337
7.5432
7.53296
7.51943
7.51027
7.49627
7.47865
7.46244
2.08867
2.10797
2.12641
2.14397
2.16075
2.17691
2.19275
2.20865
2.22377
2.23804
2.25116
2.26379
2.27601
2.28813
2.3004
2.31345
2.32769
2.34343
2.36099
2.38073
2.40224
2.42507
2.44893
2.47343
2.49832
2.52364
2.54943
2.57549
2.60175
2.62827
2.65516
2.6823
2.70971
2.73754
2.76573
2.79425
2.82321
2.85268
2.88261
2.91294
2.94376
2.97518
3.00715
3.03966
3.07281
3.10642
3.14053
3.17526
3.21066
3.24659
3.28311
3.3203
3.35825
3.39675
3.43613
3.47631
3.5176
3.55973
3.60303
3.64763
3.69364
4.59692
4.63334
4.66885
4.70349
4.73702
4.76902
4.79906
4.82785
4.85451
4.88043
4.90467
4.92794
4.95014
4.97134
4.99136
5.01012
5.02776
5.04425
5.05962
5.07383
5.08695
5.09901
5.10988
5.11962
5.12825
5.13568
5.14177
5.14635
5.1495
5.1512
5.15145
5.15029
5.14778
5.14388
5.13864
5.13213
5.12431
5.11528
5.105
5.0935
5.08083
5.06704
5.0522
5.03627
5.01923
5.00101
4.98151
4.96078
4.93875
4.91545
4.89082
4.86481
4.83757
4.80862
4.7787
4.7472
4.71475
4.68088
4.64668
4.61201
4.57706
5.7787
5.8106
5.84101
5.87047
5.89888
5.92665
5.9524
5.97646
5.99859
6.01952
6.03891
6.05711
6.07396
6.08976
6.10425
6.11739
6.12921
6.1397
6.14885
6.15663
6.16314
6.16833
6.17221
6.17479
6.17606
6.17601
6.17466
6.17194
6.16783
6.16227
6.15531
6.14686
6.13696
6.12567
6.11296
6.09887
6.08338
6.06652
6.04829
6.02873
6.00791
5.98591
5.96279
5.93859
5.91326
5.88675
5.85891
5.82969
5.79903
5.76694
5.73338
5.69809
5.66119
5.62252
5.58227
5.54014
5.49636
5.45119
5.40512
5.35825
5.31076
6.52116
6.55084
6.57924
6.60613
6.63182
6.65632
6.67935
6.70039
6.7199
6.73788
6.75434
6.76922
6.78254
6.79439
6.80471
6.81361
6.82106
6.827
6.8314
6.8343
6.83572
6.83575
6.8344
6.8317
6.82759
6.82203
6.81504
6.80662
6.7968
6.78555
6.77282
6.75854
6.74272
6.72538
6.70659
6.68635
6.66461
6.64134
6.61654
6.59028
6.56269
6.53385
6.50396
6.4731
6.44131
6.40853
6.37455
6.33932
6.30276
6.2649
6.22557
6.18465
6.14211
6.09783
6.05176
6.00369
5.95381
5.90242
5.85003
5.79669
5.74287
7.05063
7.07414
7.09617
7.1166
7.13531
7.15245
7.1681
7.18229
7.19506
7.20641
7.21624
7.22458
7.23144
7.23673
7.24052
7.24292
7.24374
7.243
7.24063
7.23662
7.23111
7.22421
7.21602
7.20658
7.19581
7.18364
7.17012
7.15526
7.13917
7.12186
7.10325
7.08317
7.06162
7.03859
7.01422
6.98845
6.96118
6.93237
6.90192
6.86989
6.83645
6.80173
6.76602
6.72956
6.69248
6.6548
6.61614
6.57653
6.53585
6.49425
6.45136
6.40696
6.36116
6.31368
6.26441
6.21287
6.15952
6.10445
6.0484
5.99132
5.93384
7.40295
7.41861
7.43268
7.44526
7.4561
7.4652
7.47269
7.47858
7.48298
7.48582
7.48728
7.48735
7.48596
7.48301
7.47853
7.4727
7.46545
7.45659
7.44595
7.43348
7.41943
7.40402
7.38742
7.36979
7.35093
7.33073
7.30922
7.28647
7.2628
7.23831
7.21299
7.1864
7.15857
7.12941
7.0992
7.06776
7.03485
7.00048
6.9644
6.92664
6.88736
6.84661
6.80487
6.76258
6.72005
6.67756
6.63432
6.59071
6.54636
6.50186
6.45637
6.40941
6.36145
6.31195
6.26095
6.20728
6.15185
6.09442
6.03646
5.97726
5.91771
7.59071
7.59685
7.60143
7.6044
7.60563
7.60508
7.60272
7.59906
7.59383
7.58678
7.57838
7.56884
7.55791
7.54542
7.53129
7.51609
7.49986
7.48202
7.46222
7.4402
7.41638
7.39128
7.36507
7.33818
7.31031
7.28101
7.2504
7.21836
7.18572
7.15285
7.12019
7.08657
7.05237
7.01703
6.98135
6.94477
6.90649
6.86689
6.82568
6.78283
6.73826
6.69179
6.6441
6.59592
6.54773
6.50065
6.45266
6.40533
6.35749
6.31106
6.26426
6.2156
6.1666
6.11616
6.06494
6.01004
5.95395
5.89523
5.8372
5.77742
5.71768
7.60824
7.6031
7.59627
7.58825
7.5785
7.56729
7.55396
7.54039
7.52541
7.50781
7.4889
7.4695
7.44862
7.42631
7.40159
7.37611
7.35096
7.32454
7.29618
7.26448
7.23015
7.19508
7.15874
7.12187
7.08492
7.04649
7.00667
6.96417
6.92077
6.87782
6.83732
6.7961
6.75587
6.71482
6.67513
6.63546
6.59281
6.54813
6.50264
6.45655
6.40828
6.35721
6.30448
6.25087
6.19704
6.14622
6.09322
6.04254
5.99104
5.94406
5.89795
5.84856
5.79972
5.74959
5.7
5.64463
5.58938
5.53018
5.47426
5.41574
5.35828
7.44311
7.42439
7.40241
7.38141
7.35761
7.33604
7.31037
7.28734
7.26421
7.23836
7.21058
7.18312
7.15338
7.12352
7.08814
7.0504
7.01631
6.98345
6.95106
6.91372
6.86798
6.82478
6.77986
6.73247
6.68653
6.64033
6.59525
6.54416
6.48725
6.43159
6.38236
6.3322
6.28571
6.23926
6.19946
6.16174
6.11794
6.06774
6.01835
5.97202
5.92447
5.8713
5.81464
5.75767
5.69939
5.64671
5.58786
5.53421
5.47774
5.4329
5.39034
5.34071
5.29387
5.24639
5.201
5.14564
5.09273
5.03325
4.98162
4.92656
4.87466
3.74105
3.7895
3.83924
3.89025
3.94252
3.9962
4.05116
4.10751
4.16496
4.22351
4.28344
4.344
4.40649
4.47402
4.55771
4.62876
4.70147
4.77498
4.84931
4.92457
5.00079
5.07794
5.15593
5.23469
5.31399
5.39361
5.47342
5.55323
5.63286
5.71195
5.79041
5.86794
5.94411
6.01872
6.0914
6.16159
6.22887
6.29208
6.34661
6.38643
6.4133
6.4278
6.42982
6.41867
6.39331
6.35228
6.29369
6.21522
6.11414
5.98728
5.83084
5.64037
5.41085
5.13551
4.80065
4.24156
3.98449
3.85289
3.80122
3.7779
3.72867
4.54154
4.50577
4.46929
4.43216
4.39435
4.35651
4.31836
4.28067
4.24292
4.20572
4.16914
4.12441
4.08039
4.03823
3.99085
3.94688
3.90217
3.8573
3.81269
3.76854
3.72485
3.6814
3.6381
3.59493
3.55186
3.50893
3.46616
3.42366
3.38146
3.33965
3.29834
3.25766
3.21775
3.17882
3.14114
3.105
3.07085
3.03922
3.01094
2.9871
2.96543
2.94611
2.92957
2.91636
2.90739
2.90358
2.90594
2.9158
2.9346
2.96359
3.00401
3.05694
3.12359
3.20631
3.29413
3.42832
3.60282
3.87327
4.25693
4.75608
5.09345
5.26287
5.21459
5.16562
5.1156
5.06444
5.01261
4.96038
4.90816
4.85544
4.80285
4.74299
4.67728
4.6158
4.55677
4.49806
4.4402
4.38119
4.32123
4.26079
4.20027
4.13972
4.0789
4.0178
3.9564
3.89464
3.83256
3.77015
3.70743
3.64436
3.58096
3.5172
3.45311
3.38873
3.32408
3.25925
3.19433
3.12942
3.06464
3.00016
2.93615
2.87256
2.80905
2.74633
2.68506
2.62559
2.5685
2.51468
2.46536
2.4222
2.38736
2.36364
2.35461
2.36496
2.40022
2.46323
2.56547
2.71047
2.92888
3.26526
3.77113
4.39311
5.68875
5.63471
5.58014
5.52462
5.46766
5.41001
5.35194
5.294
5.23541
5.17611
5.10601
5.03362
4.96651
4.90221
4.83923
4.77696
4.71388
4.6502
4.58617
4.52216
4.45809
4.39356
4.32871
4.26362
4.19819
4.13248
4.06648
4.00018
3.93348
3.86636
3.79878
3.73078
3.66236
3.59357
3.52448
3.45515
3.38564
3.316
3.24624
3.17636
3.10634
3.0361
2.96487
2.89286
2.82058
2.74815
2.67582
2.60403
2.53347
2.46522
2.40074
2.3422
2.29252
2.25553
2.23496
2.23696
2.26967
2.35066
2.50929
2.78868
3.21762
5.876
5.81869
5.76112
5.70276
5.64249
5.58147
5.51993
5.45885
5.39692
5.33365
5.25943
5.18491
5.1156
5.04941
4.98451
4.9203
4.85549
4.79084
4.72625
4.66201
4.5978
4.53287
4.4677
4.40244
4.33684
4.27108
4.20506
4.13878
4.07204
4.00483
3.93711
3.869
3.80052
3.7318
3.66289
3.59391
3.52492
3.45599
3.38711
3.3183
3.24956
3.18091
3.11219
3.04277
2.97261
2.90178
2.83035
2.75838
2.68604
2.61367
2.54166
2.47063
2.40155
2.33568
2.27459
2.22126
2.18167
2.16655
2.19265
2.28509
2.47422
5.85742
5.79844
5.73953
5.68013
5.61787
5.55487
5.49096
5.42824
5.3648
5.30008
5.22521
5.15141
5.08222
5.01673
4.95187
4.88769
4.82285
4.75919
4.69605
4.63377
4.57161
4.50823
4.44494
4.38194
4.31855
4.25521
4.19151
4.12764
4.06308
3.99802
3.93236
3.86643
3.80026
3.7341
3.66794
3.60197
3.53625
3.47089
3.40585
3.34122
3.27699
3.21325
3.14996
3.08699
3.02382
2.96003
2.89565
2.83074
2.76535
2.69956
2.63347
2.56713
2.50052
2.43366
2.36641
2.29939
2.23502
2.17862
2.1391
2.12993
2.17
5.65582
5.59654
5.53774
5.47935
5.41611
5.35238
5.28693
5.22425
5.16116
5.09794
5.02423
4.95304
4.88565
4.82317
4.76003
4.6979
4.63438
4.57357
4.51352
4.45488
4.39642
4.33569
4.276
4.21748
4.15825
4.09931
4.03962
3.98
3.91914
3.85781
3.79564
3.73367
3.67162
3.61008
3.54868
3.4879
3.42753
3.36794
3.30896
3.25088
3.19354
3.13721
3.0818
3.02727
2.97343
2.91974
2.86555
2.81091
2.75594
2.7008
2.64553
2.59011
2.53436
2.47784
2.41994
2.36007
2.29832
2.23643
2.17818
2.13
2.10189
5.29558
5.23697
5.17984
5.12503
5.06205
4.99922
4.933
4.87229
4.81164
4.75296
4.68157
4.6141
4.54941
4.49201
4.4316
4.37343
4.31214
4.25586
4.20021
4.14614
4.09242
4.03458
3.97967
3.92814
3.87457
3.82122
3.76621
3.71218
3.65554
3.59869
3.54048
3.48385
3.42716
3.37203
3.31685
3.26291
3.20917
3.15689
3.10555
3.05592
3.00731
2.96037
2.91488
2.87054
2.82725
2.78512
2.74259
2.69961
2.65661
2.61382
2.57152
2.52967
2.4881
2.44631
2.40356
2.35893
2.31168
2.26163
2.20972
2.15826
2.11165
4.81217
4.75395
4.70047
4.65207
4.59091
4.53044
4.46394
4.40775
4.35208
4.30069
4.23258
4.16906
4.10679
4.05644
3.99884
3.94663
3.88791
3.83796
3.78752
3.7375
3.68867
3.63285
3.5838
3.54334
3.49591
3.44707
3.39601
3.34867
3.29513
3.24234
3.18696
3.13743
3.08661
3.03957
2.99096
2.94481
2.89697
2.85268
2.80991
2.77027
2.73172
2.69535
2.66102
2.62789
2.5948
2.56245
2.53054
2.49789
2.46675
2.43603
2.40814
2.38133
2.35626
2.33138
2.3065
2.28026
2.25203
2.22083
2.18667
2.14916
2.10986
3.6372
3.53528
3.42519
3.30838
3.19048
3.07467
2.96335
2.85966
2.76627
2.68486
2.61604
2.55968
2.51487
2.48027
2.45434
2.43553
2.42232
2.41355
2.40829
2.40577
2.40543
2.40686
2.40977
2.41399
2.41945
2.42604
2.43369
2.44236
2.45201
2.4626
2.47403
2.48624
2.49912
2.51248
2.52616
2.53996
2.55365
2.56698
2.57971
2.59161
2.60244
2.61199
2.62014
2.62688
2.6322
2.6363
2.63941
2.64182
2.6439
2.64611
2.64879
2.65218
2.65644
2.6617
2.66777
2.67443
2.68129
2.68809
2.69427
2.69924
2.70253
5.08459
5.00755
4.88157
4.70485
4.51077
4.30241
4.07838
3.84537
3.61135
3.38348
3.16698
2.96707
2.78629
2.62488
2.48263
2.36044
2.25778
2.17277
2.10296
2.04639
2.00113
1.96528
1.93716
1.91548
1.89922
1.88772
1.88038
1.87676
1.87645
1.87913
1.88454
1.89236
1.90227
1.91385
1.92673
1.94042
1.95439
1.96814
1.98104
1.99245
2.00165
2.00786
2.01018
2.00775
1.99991
1.98619
1.96642
1.94101
1.91096
1.87797
1.84417
1.81194
1.78362
1.76096
1.74472
1.73505
1.73093
1.73089
1.73262
1.73406
1.73401
4.90018
5.25924
5.4549
5.4621
5.32573
5.12876
4.87406
4.58529
4.27942
3.96754
3.66076
3.36942
3.09991
2.85621
2.64042
2.45321
2.29267
2.15491
2.03767
1.94056
1.86184
1.79918
1.75002
1.71188
1.68263
1.66071
1.64492
1.63428
1.62801
1.62545
1.62608
1.6294
1.63483
1.64176
1.64958
1.65767
1.66545
1.67226
1.67745
1.68031
1.68013
1.67628
1.66814
1.65518
1.63693
1.61307
1.58349
1.54839
1.50846
1.46498
1.42002
1.37654
1.33803
1.30791
1.28885
1.28265
1.28946
1.30829
1.33701
1.37324
1.41421
3.75444
4.34604
4.91196
5.34834
5.56946
5.6117
5.49204
5.2487
4.94259
4.5944
4.23083
3.87481
3.53773
3.2296
2.9545
2.71181
2.49818
2.31142
2.15036
2.01453
1.9025
1.81236
1.74144
1.68656
1.64465
1.61319
1.59027
1.57446
1.56454
1.55948
1.55854
1.56106
1.56628
1.57334
1.58145
1.58978
1.59755
1.60394
1.60812
1.60922
1.6064
1.59888
1.58596
1.56708
1.5418
1.50997
1.47167
1.42733
1.37765
1.32385
1.26779
1.21232
1.16132
1.11956
1.09212
1.08353
1.09565
1.12817
1.17919
1.24597
1.32482
2.77994
3.21192
3.75547
4.35215
4.90171
5.32494
5.57021
5.61236
5.48758
5.22579
4.87704
4.49963
4.11362
3.74436
3.40584
3.10014
2.8279
2.58626
2.3757
2.19638
2.04686
1.92546
1.82935
1.75453
1.69691
1.6531
1.62062
1.59757
1.58233
1.57342
1.5699
1.57099
1.57582
1.58333
1.59256
1.60254
1.61231
1.62094
1.62741
1.63072
1.62985
1.62389
1.61199
1.59346
1.5677
1.53451
1.4939
1.44627
1.39219
1.33277
1.26966
1.20549
1.14403
1.09041
1.05148
1.03473
1.04472
1.08374
1.1507
1.24162
1.35133
2.2812
2.48718
2.8071
3.2447
3.77206
4.33375
4.85344
5.24861
5.47003
5.50481
5.36741
5.10266
4.74556
4.35402
3.97023
3.60336
3.26917
2.96776
2.69711
2.46229
2.26493
2.10437
1.97726
1.87801
1.80098
1.74148
1.69643
1.66346
1.64062
1.62583
1.6179
1.61597
1.61906
1.62594
1.63548
1.64656
1.6581
1.669
1.67815
1.6844
1.68658
1.6837
1.67476
1.65897
1.63551
1.60413
1.56471
1.51758
1.46313
1.40234
1.33666
1.26852
1.20147
1.14047
1.09265
1.06709
1.07115
1.1106
1.18675
1.29585
1.43164
2.10765
2.16514
2.29503
2.51726
2.84348
3.26998
3.7691
4.28676
4.75442
5.10566
5.29413
5.30965
5.17121
4.91236
4.57876
4.19687
3.82042
3.4626
3.12153
2.81727
2.55741
2.34527
2.178
2.0474
1.94544
1.86535
1.8032
1.75651
1.7231
1.69987
1.68522
1.67816
1.67768
1.6823
1.69072
1.70165
1.71385
1.72612
1.73721
1.74584
1.7507
1.75079
1.74496
1.73237
1.71196
1.68345
1.64657
1.60169
1.54897
1.48937
1.42416
1.35568
1.28731
1.22367
1.17158
1.1405
1.13989
1.17859
1.26108
1.38521
1.54398
2.07695
2.06439
2.08779
2.16401
2.31082
2.54296
2.86671
3.27199
3.73015
4.19172
4.59659
4.89211
5.04935
5.05726
4.93146
4.69592
4.38765
4.03494
3.64347
3.27053
2.93465
2.65661
2.43835
2.26722
2.13235
2.02484
1.94001
1.87513
1.82733
1.79243
1.76834
1.75364
1.74744
1.74789
1.7535
1.76277
1.77431
1.78671
1.79866
1.80867
1.81543
1.81785
1.81476
1.80526
1.78802
1.76275
1.72908
1.68732
1.63751
1.58056
1.51769
1.45111
1.384
1.32082
1.26801
1.23489
1.23216
1.27113
1.35929
1.49673
1.67605
2.07153
2.03884
2.01963
2.02406
2.06533
2.15823
2.31706
2.55152
2.86159
3.23536
3.63847
4.03446
4.38006
4.63975
4.78328
4.80165
4.69635
4.47469
4.17382
3.79569
3.3902
3.04525
2.77216
2.55404
2.37563
2.2306
2.11355
2.02389
1.95762
1.9069
1.87
1.84435
1.82963
1.82365
1.82448
1.83031
1.83972
1.85084
1.86247
1.87254
1.88034
1.88414
1.88332
1.87647
1.86246
1.84042
1.81062
1.77227
1.72631
1.67274
1.61366
1.55046
1.4865
1.4263
1.37548
1.34301
1.34039
1.38111
1.4741
1.62307
1.8185
0.255894
6.46841
6.14736
0.236763
0.306166
0.122308
0.00319083
2.45754
0.00335737
0.0231319
3.53274
1.05566
0.00318912
6.20995
0.106996
5.39042
0.00325535
2.56732
3.82755
0.00322151
0.242478
6.05785
6.25983
0.00331322
0.00331512
0.105093
0.00321632
0.519645
0.00324232
0.00344245
0.591926
0.00366296
0.0162405
2.75339
0.770657
3.6173
2.78454
1.55575
0.00317596
2.8811
1.89355
1.90343
0.00320536
4.66208
3.38996
0.275146
0.0036091
0.0148106
0.178696
1.08031
6.7149
7.74154
0.00317252
0.00407777
0.0386702
0.0505638
0.00343229
0.690211
2.65869
7.39148
2.58866
0.00365475
0.189281
0.0315295
6.43185
0.534967
2.22589
1.78125
0.00435721
0.00321177
0.992158
2.53374
1.72231
0.0191138
0.0400275
4.32675
6.7654
3.22565
0.00315075
0.917624
0.006981
2.9131
0.0121939
4.76433
0.00321673
1.06155
0.00334276
2.40537
0.0153402
0.00485649
0.115987
0.00314488
0.00374687
7.57071
5.42806
0.00356599
0.430009
0.246854
0.00603168
6.57865
0.250666
2.25019
0.742022
0.00313927
0.00317112
0.00316524
0.304658
0.123448
0.00325197
6.08017
6.77457
0.00966618
4.80371
1.63794
2.64626
2.9683
1.99835
0.00393716
0.0833833
0.00417307
0.00392422
3.64572
0.00681467
7.37334
7.70269
1.0157
0.00321027
0.997467
1.00356
0.00320625
0.0340763
0.0331095
1.74847
0.0055227
3.31083
0.00321472
0.00316794
7.66647
7.7842
0.00322171
0.132475
5.5911
0.104897
0.29898
1.69787
4.73244
0.050681
1.80201
0.0118363
7.05737
1.26617
0.0577304
2.78407
4.70217
6.27624
0.00329364
0.00325435
0.212193
0.00347875
2.20297
0.037279
0.00509165
0.0032115
0.00321389
0.00323612
2.78464
1.82185
1.57412
0.00341757
6.84523
4.93944
3.19789
4.94676
0.0140043
3.97863
1.86536
2.10011
0.00323027
0.00554482
3.00771
3.26638
1.94712
3.63505
0.00320817
0.00350265
5.12708
0.0356506
0.557878
0.00323312
0.00359541
0.10355
0.00341088
7.71866
0.661946
0.00344646
0.249422
1.86592
5.22953
0.0045155
2.17975
0.00321052
0.00322538
4.74312
2.35584
7.27784
0.00456019
0.00337252
0.00777539
2.67618
2.44711
1.08
4.86388
1.33019
6.89727
0.191016
4.27524
4.04712
1.82351
1.33587
2.51832
0.00482219
0.0362735
0.0032178
0.00361969
2.03518
0.0178962
0.0197991
0.00548105
0.0131434
2.74005
4.93351
0.018824
5.81314
1.04954
0.278895
0.00318368
0.145813
2.72325
1.00621
0.00417561
0.954476
1.17291
0.182409
0.383587
7.26042
0.785177
0.490955
5.11644
0.00384238
0.00317618
0.00397529
0.0105345
1.9401
0.00334756
0.00615923
0.0031728
0.382927
3.76031
4.22965
2.94042
1.30626
1.40542
7.60561
0.00437832
2.334
4.55536
0.0032057
2.19518
0.00321609
4.13197
0.38126
1.73763
0.00521613
0.00321476
1.86107
0.512193
0.00323848
0.00322753
0.00324125
0.00324509
0.353792
1.61311
2.93506
0.0152279
0.00324023
0.0031698
0.00314191
4.69347
0.191715
0.00438941
1.59445
0.0863652
0.0432055
0.00315632
0.261799
0.00323952
0.0426289
1.4674
4.8831
0.363359
0.00394977
0.0059316
3.21435
0.132589
1.97887
7.56335
0.00348082
0.00319568
0.00318725
5.78209
0.00329586
4.72256
0.00321717
1.80678
1.2566
0.0272549
3.16851
4.09557
0.00459639
2.92355
2.99452
1.65523
4.53824
0.742053
7.78459
2.65785
3.64269
3.82289
4.45825
1.71332
0.154112
7.70253
7.33098
3.19898
2.32126
0.00410256
6.96898
2.98518
6.84158
0.0270337
0.00355124
0.0032099
0.00339977
0.176806
0.413623
0.589698
0.0900922
0.00318591
6.00479
0.00321093
1.58347
1.88449
6.36665
2.3303
1.7883
0.0058782
0.0042137
0.0947336
3.0757
0.0102339
0.740758
5.41456
2.28458
4.10545
6.12664
3.46873
0.00344334
7.34024
5.40442
1.74732
0.0032269
6.30683
5.64898
0.00331548
2.1535
0.00323017
6.89141
5.69341
2.04857
4.13156
2.74867
5.63309
0.0033042
5.63343
0.00381143
3.86145
3.96413
2.11085
7.31502
0.698942
0.210161
0.543407
0.00420704
4.36216
0.187858
0.00800868
0.00548173
4.67654
0.00378138
4.32396
0.00320546
0.00322861
0.00601121
1.81159
0.101274
1.79164
0.00548745
4.19379
0.159062
6.60937
4.51857
2.59408
6.375
0.00341691
7.32156
2.85843
0.00320496
3.89182
2.00798
0.00316569
0.00317307
3.59339
0.00649232
1.71841
0.0938843
2.61974
0.0261668
0.584219
2.59563
4.78125
2.36269
3.74805
3.63675
0.00410663
0.0232325
1.90061
1.53868
7.57099
6.60773
5.22363
0.0638438
5.07034
5.04502
0.498082
1.76677
2.79278
2.02258
0.00357919
4.09205
7.80791
0.00410846
4.49726
1.84553
2.81776
0.0234444
0.065974
6.36405
0.00588957
7.56411
0.00456681
0.261927
0.00320495
0.981305
2.35573
0.226714
0.00475042
0.00375859
2.97347
1.75135
0.0323811
0.419661
6.06752
4.12539
0.00479105
1.41439
1.8018
3.52802
1.63197
4.25654
2.15617
5.48821
3.1963
0.814409
0.769965
7.4576
1.92503
7.66102
6.05202
0.0606963
3.6198
3.11656
0.00340784
1.85971
1.74432
1.35779
0.0174706
4.72939
1.46163
0.674942
1.92805
0.00543923
0.00321177
0.0456198
2.04983
4.39466
2.83846
0.00321817
0.00319868
0.00320909
1.88242
0.0281957
0.00321053
0.120684
4.30055
5.17492
0.0104216
0.0106046
0.00317094
0.00320523
0.00591689
1.75493
1.74944
1.51319
0.452894
7.50811
5.98031
0.00526782
3.11411
2.04041
2.135
3.97299
7.44384
0.00347325
0.0104025
0.0032292
3.92109
0.235655
0.00317271
1.33785
0.15864
7.47188
0.00323785
7.67536
1.11214
0.0439944
6.51189
0.00322321
0.00318748
0.00406368
7.74893
3.20836
5.25144
5.16885
0.815911
1.98003
0.00314961
0.00594987
0.0951476
0.0102819
0.0245792
1.98016
2.38527
0.00321825
1.28414
2.08456
6.19877
7.743
0.00797317
7.70893
0.00588679
0.0293473
3.85628
0.00319408
5.58137
0.00323759
0.00334752
0.0227731
2.32017
0.615215
2.57869
1.89331
0.00365896
1.95467
4.68918
0.0226445
0.239754
0.997536
0.00329922
0.00325572
0.00687167
5.35884
0.539633
0.00340297
7.26538
6.15183
6.69211
0.0270586
2.28491
0.0042535
2.34407
0.146945
0.0891412
2.86464
1.89115
1.92146
6.09153
0.00328588
0.00315254
0.0101474
4.26591
4.48617
0.945548
0.0136228
0.0033317
0.00322937
0.00876263
0.0831572
0.00648489
2.42477
1.84907
0.0116127
1.69852
6.00973
0.00326512
2.58588
0.00321712
0.499779
0.00324472
0.0217461
2.20689
0.0196706
0.00320512
0.743476
7.82709
7.0894
0.00320114
0.00325877
0.379632
0.105865
0.00321274
4.19118
0.00366498
1.9073
7.81541
2.33411
1.73332
2.46935
3.8847
7.58622
0.00322072
0.00740698
0.01534
4.35985
1.45573
6.4064
0.412546
0.368824
4.40779
3.88471
4.96697
0.333458
2.56629
0.0032182
0.345724
1.84514
2.48072
4.05572
1.80326
0.188449
2.50135
0.102415
0.0106625
1.91787
0.00323031
5.77568
0.00366627
0.38124
7.40372
2.82187
0.546665
0.00727072
0.76225
0.0032845
0.00319039
0.103099
0.0220549
1.99726
0.0149618
1.92367
0.00321857
0.0271614
0.00317107
4.47184
0.00546546
4.26232
2.5357
0.0215376
1.93541
7.58672
0.00324728
1.72431
4.66479
0.00338493
7.37047
0.0670819
0.00357424
0.00339792
7.23432
0.00317948
0.00426386
0.0849052
0.100968
7.19352
7.248
0.00322024
0.00325676
0.719469
2.25215
0.0143733
0.404251
1.98328
0.0032134
0.00378652
0.00373521
6.01066
7.26146
0.4942
7.1949
0.0256315
1.73602
0.00337244
0.014322
0.0244056
0.0366969
0.00322319
6.94428
0.00319953
0.0243435
0.0033091
0.122471
0.0220845
0.0147496
0.412432
0.678988
2.48491
0.370884
1.05883
2.02929
5.08753
0.00342159
5.11506
7.65055
1.13076
3.9614
0.00328042
4.49215
3.81567
0.00320953
7.48434
2.57216
0.00656283
0.0165881
5.84606
5.65554
0.0285992
7.56236
7.41892
0.782453
7.37213
7.19743
4.8993
2.18342
1.51623
1.04508
7.21859
7.44595
0.0215501
7.40682
2.46643
4.4435
0.00342763
0.337281
0.267576
6.78128
5.85822
0.0196189
4.3371
6.39526
0.480003
0.0351048
0.384766
2.02536
0.00525083
2.06048
7.00776
0.0336794
6.73507
1.2988
4.40538
6.33123
0.0032168
0.00564182
1.02771
0.701136
0.0185512
0.00321424
0.192587
0.262753
0.00445062
0.00323626
4.37498
0.96749
3.00699
1.01327
0.00836895
0.00413501
0.0403456
3.56713
0.0034336
1.81616
1.82416
0.467883
2.3634
0.00392262
0.118965
0.0031994
0.672448
4.27639
0.0039017
0.116202
2.34841
5.67123
0.22033
3.96264
0.596723
0.103225
0.00390371
2.33191
7.70878
0.00320731
0.00327423
5.62598
0.0237389
0.00323526
3.76656
0.449835
1.93764
2.20823
1.47795
0.141433
1.69892
3.65768
5.69669
4.60283
0.00326478
5.79956
0.00390868
2.21163
0.00347594
0.00431252
2.36302
0.00656792
4.01227
0.0205744
0.0387965
1.85257
0.727446
0.0832064
0.00363184
6.22095
0.00360463
0.00316617
7.76354
5.83714
2.77691
2.10772
0.00340978
0.00316559
1.83368
5.61737
0.00318701
6.54282
1.6907
0.0032341
5.95371
0.00317075
0.360273
0.901958
1.33114
0.345495
1.59694
1.94081
0.00317192
7.24563
7.45244
0.00320894
0.017255
2.13399
0.00316853
6.94998
5.55141
4.48474
0.00321107
0.00317347
3.70616
0.0434303
0.00349681
1.83695
1.72163
4.35034
0.00316479
0.00339328
0.0236757
0.0193753
0.00321154
0.00643194
5.14996
3.07789
0.00321684
1.28693
0.0032115
0.715855
0.00424715
0.00355142
2.20959
0.00326392
0.109513
0.00317749
2.86247
0.2479
1.65608
6.23276
4.47957
3.94965
0.796797
1.34127
0.00323534
0.906516
7.30826
4.11972
0.104415
0.00344084
5.22709
0.00321036
0.0373426
0.00316684
7.22225
0.786829
0.372026
6.36099
2.22228
0.489002
4.10691
0.720887
6.75783
4.49453
0.00329446
0.00331385
0.00812356
0.00344769
0.022551
4.2779
0.00380433
7.04196
0.00598422
0.0456986
0.566612
4.96391
0.00492032
2.67856
0.0174007
2.94394
2.36954
7.02283
0.00347814
0.00387703
0.101619
3.6402
1.72269
3.62766
0.406677
0.906163
1.55744
0.0506233
0.915398
0.689166
1.91135
0.00327215
4.42116
0.403781
3.09244
0.00334737
3.00389
0.990384
0.0041042
1.64792
1.75822
0.0635544
0.00318292
0.00321176
5.1323
2.77793
1.4325
0.00320053
0.0172861
2.25214
6.27678
0.832213
0.012416
0.00321157
5.45976
5.22606
2.30783
2.58823
0.00320689
3.79959
7.46877
0.00321013
0.00321582
1.24683
0.0038851
0.00957916
0.0674988
1.94858
0.0041563
2.42438
7.64382
0.00326256
0.00348412
0.00317689
0.00329008
3.68732
4.70552
7.72959
0.0282507
2.3218
2.44854
0.0863798
2.85932
0.00357595
1.92101
0.218402
2.27133
0.686477
1.65588
3.3873
0.126651
0.00323711
5.85461
4.6242
4.83917
0.883404
1.92618
0.174319
1.40815
0.00911665
0.00475174
3.69235
5.50243
0.0232594
0.187703
0.00323722
0.0763024
1.85429
0.028206
1.03988
0.385439
3.87363
2.334
0.431481
6.87447
5.40986
3.14016
1.60086
4.45905
3.71214
0.559612
2.61741
0.00510274
2.76706
2.89787
0.00320266
0.00316834
0.109453
0.00321989
0.00336378
3.20315
4.51495
0.00321623
3.43874
0.00320871
0.00319089
0.00320913
0.00329388
0.00585761
2.10947
2.59326
7.06957
0.00319187
0.00379838
0.935677
0.00352188
0.0328963
0.00324547
0.00363081
4.65688
0.00386274
0.0108995
2.91203
0.0102689
0.00321638
4.19371
0.00321
0.00325676
0.635103
0.0035764
0.731454
0.00463635
0.0294097
0.00320332
0.00325652
7.4837
7.64577
2.64058
0.0269687
3.22869
1.52663
0.00478841
1.93569
4.28347
6.89689
4.64833
0.00334436
1.7381
2.54474
0.142603
1.93806
4.56057
0.170698
2.23592
0.417755
1.92336
0.0499214
1.00403
0.0032341
6.69093
0.00348045
2.01332
2.42428
0.00321287
0.307629
0.00710905
0.0137586
0.0031899
0.749857
0.00362365
0.00322964
2.73177
0.0265451
0.107178
6.84181
1.92039
0.00349682
0.00390885
2.35045
7.16451
0.00323088
0.00323832
0.073873
1.36897
5.51346
0.0065776
1.60757
0.00321272
0.0034179
0.0031619
0.0343101
1.00202
0.0101165
6.62918
1.96309
7.15613
6.01782
0.00348803
7.3262
3.67864
0.00318194
0.00322596
0.00321831
0.00441526
0.00319963
4.07697
0.00320678
0.00322989
6.85535
0.315396
0.0075437
0.0155257
2.19622
0.912253
0.0094964
0.00343597
6.27388
0.00324523
0.988773
0.00327197
0.00349323
5.87861
5.73639
0.00860397
0.0035895
0.403312
0.00320466
6.90204
0.00326303
5.52499
0.0220667
0.733147
0.0197175
0.374304
0.704993
1.51655
0.00324134
0.00353196
0.0112428
3.15368
0.111309
7.46611
0.00321356
0.00464716
0.00551077
7.13433
2.79332
3.1453
0.00691204
0.00899875
0.211809
0.00322023
1.59898
2.45236
0.0166551
6.1067
6.12938
2.3972
0.00525486
0.378979
2.96654
6.79462
2.00074
0.0186913
3.37969
0.0793111
5.18121
0.0892153
0.508347
2.5202
0.00324354
1.94672
0.00456333
0.0114572
0.00642688
0.0482082
0.00365926
1.26439
0.00322304
3.23908
0.0938882
0.00362808
0.693298
0.00323218
0.274199
0.113656
2.52341
0.467078
4.85731
0.233371
0.00321421
0.00318376
0.349924
0.0880579
2.8
7.1743
0.00322056
3.86854
2.63716
0.0224661
2.02468
0.747246
2.55308
2.3524
0.0359139
0.00580101
7.21042
1.54568
5.82522
0.00320887
1.79026
0.00321118