/*--------------------------------*- C++ -*----------------------------------*\
| =========                 |                                                 |
| \\      /  F ield         | OpenFOAM: The Open Source CFD Toolbox           |
|  \\    /   O peration     | Version:  2.3.1                                 |
|   \\  /    A nd           | Web:      www.OpenFOAM.org                      |
|    \\/     M anipulation  |                                                 |
\*---------------------------------------------------------------------------*/
FoamFile
{
    version     2.0;
    format      ascii;
    class       surfaceScalarField;
    location    "0.25";
    object      phi;
}
// * * * * * * * * * * * * * * * * * * * * * * * * * * * * * * * * * * * * * //

dimensions      [0 3 -1 0 0 0 0];

internalField   nonuniform List<scalar> 
15416
(
-0.000699437
-3.31196e-06
0.000703785
-0.000696647
-2.7891e-06
-0.000694644
-2.00112e-06
-0.00069386
-7.83109e-07
-0.000694535
6.76249e-07
-0.000697057
2.52342e-06
-0.000702236
5.18053e-06
-0.000709986
7.75152e-06
-0.000720782
1.07975e-05
-0.000734884
1.41039e-05
-0.000752657
1.77741e-05
-0.000774265
2.1609e-05
-0.000799787
2.55228e-05
-0.000829246
2.94596e-05
-0.000862682
3.34357e-05
-0.000899967
3.72846e-05
-0.000940872
4.09032e-05
-0.000985156
4.42821e-05
-0.00103266
4.74963e-05
-0.00108303
5.03665e-05
-0.00113599
5.29641e-05
-0.0011913
5.53047e-05
-0.00124859
5.72852e-05
-0.0013075
5.88992e-05
-0.00136779
6.02738e-05
-0.00142922
6.14148e-05
-0.00149149
6.22712e-05
-0.00155431
6.28291e-05
-0.00161748
6.31972e-05
-0.00168085
6.34158e-05
-0.00174412
6.33669e-05
-0.0018071
6.31121e-05
-0.00186966
6.27371e-05
-0.00193155
6.20703e-05
-0.00199259
6.11246e-05
-0.00205275
6.00906e-05
-0.002112
5.89254e-05
-0.00217017
5.77048e-05
-0.00222712
5.64163e-05
-0.00228286
5.52623e-05
-0.00233732
5.41761e-05
-0.00239027
5.28541e-05
-0.00244153
5.13092e-05
-0.0024911
4.97395e-05
-0.00253875
4.78407e-05
-0.00258452
4.58954e-05
-0.00262853
4.40674e-05
-0.00267081
4.22406e-05
-0.00271123
4.03287e-05
-0.00274951
3.81681e-05
-0.00278584
3.62378e-05
-0.00282032
3.4442e-05
-0.00285246
3.21184e-05
-0.00288269
3.02412e-05
-0.00291082
2.81418e-05
-0.00293722
2.64068e-05
-0.00296093
2.37154e-05
-0.00298239
2.14579e-05
-0.00300195
1.95614e-05
-0.00301979
1.78318e-05
1.61219e-05
-0.00303592
-0.000402775
-2.37002e-06
0.000401834
-0.000405781
2.17934e-07
-0.000411318
3.53774e-06
-0.000420756
8.65574e-06
-0.000434508
1.44299e-05
-0.000452044
2.00601e-05
-0.000473495
2.66327e-05
-0.000498976
3.32349e-05
-0.000528859
4.06818e-05
-0.000562687
4.79334e-05
-0.000600629
5.57173e-05
-0.000642512
6.34935e-05
-0.000688206
7.12165e-05
-0.00073756
7.88134e-05
-0.000790253
8.61289e-05
-0.000846137
9.31678e-05
-0.000904937
9.97021e-05
-0.000966435
0.000105777
-0.00103027
0.000111326
-0.00109624
0.000116329
-0.00116412
0.000120843
-0.00123348
0.00012466
-0.00130414
0.000127932
-0.00137587
0.000130631
-0.00144838
0.000132791
-0.00152142
0.000134484
-0.00159464
0.000135559
-0.00166801
0.000136269
-0.00174123
0.000136456
-0.00181399
0.000136162
-0.00188635
0.000135661
-0.00195819
0.000134881
-0.00202912
0.000133718
-0.00209911
0.000132303
-0.00216809
0.000130565
-0.0022356
0.000128101
-0.00230163
0.000125289
-0.00236605
0.000122086
-0.00242902
0.000118827
-0.00249045
0.000115732
-0.00255016
0.000112682
-0.00260847
0.000110002
-0.00266503
0.000107094
-0.00271945
0.000103881
-0.00277181
0.000100386
-0.0028219
9.63858e-05
-0.00286983
9.23591e-05
-0.00291524
8.78431e-05
-0.0029585
8.36184e-05
-0.00299974
7.93615e-05
-0.00303883
7.5237e-05
-0.0030761
7.16382e-05
-0.0031099
6.58789e-05
-0.00314303
6.33532e-05
-0.00317234
5.7442e-05
-0.00320011
5.41798e-05
-0.00322351
4.71226e-05
-0.00324677
4.47172e-05
-0.00326774
4.05394e-05
-0.00328656
3.66488e-05
3.05833e-05
-0.00330103
-0.000264303
6.53801e-06
0.000255397
-0.000277218
1.31339e-05
-0.000294543
2.08636e-05
-0.000315681
2.97948e-05
-0.00034072
3.94709e-05
-0.000370353
4.9694e-05
-0.000404082
6.03627e-05
-0.000442198
7.13531e-05
-0.000484582
8.30674e-05
-0.000531298
9.46511e-05
-0.000582043
0.000106463
-0.0006364
0.000117852
-0.000694492
0.000129308
-0.000755916
0.000140236
-0.00082046
0.000150673
-0.000887834
0.000160542
-0.000957816
0.000169683
-0.00103013
0.000178086
-0.00110445
0.000185642
-0.00118062
0.000192495
-0.00125818
0.000198395
-0.00133705
0.00020353
-0.00141695
0.000207822
-0.00149761
0.000211293
-0.00157874
0.000213942
-0.00166009
0.000215895
-0.0017415
0.000217052
-0.00182269
0.000217545
-0.00190339
0.000217186
-0.00198372
0.000216454
-0.00206323
0.000215064
-0.00214177
0.000213279
-0.00221956
0.000211451
-0.00229616
0.000208981
-0.00237148
0.000206107
-0.00244542
0.000202423
-0.00251777
0.000198012
-0.00258827
0.000192929
-0.00265685
0.000187618
-0.0027235
0.000182207
-0.00278829
0.000177002
-0.00285078
0.000171652
-0.00291141
0.000166722
-0.0029699
0.000161597
-0.00302636
0.000156317
-0.00308071
0.000150628
-0.00313262
0.000144416
-0.00318212
0.000137587
-0.0032289
0.000130633
-0.00327386
0.000124443
-0.00331508
0.000116493
-0.00335372
0.000110257
-0.00339076
0.000102883
-0.00342552
9.80744e-05
-0.00345814
9.00408e-05
-0.00348647
8.24973e-05
-0.00351468
7.53237e-05
-0.00353855
6.85913e-05
-0.00356021
6.21995e-05
-0.0035776
5.4043e-05
4.78987e-05
-0.00359492
-0.000200256
2.40222e-05
0.000182773
-0.000221824
3.47033e-05
-0.000247689
4.67304e-05
-0.000277762
5.98686e-05
-0.000312225
7.39354e-05
-0.000351212
8.86821e-05
-0.000394587
0.000103739
-0.000442694
0.000119462
-0.000495047
0.000135422
-0.00055173
0.000151336
-0.000612267
0.000166999
-0.000676843
0.000182428
-0.000745004
0.000197469
-0.000816308
0.000211541
-0.000890697
0.000225063
-0.000967809
0.000237655
-0.00104736
0.000249231
-0.00112904
0.000259767
-0.00121264
0.00026924
-0.00129774
0.000277592
-0.00138432
0.000284982
-0.0014719
0.000291104
-0.00156037
0.000296301
-0.00164942
0.000300353
-0.00173887
0.000303401
-0.00182827
0.00030531
-0.00191755
0.000306331
-0.00200653
0.0003065
-0.00209508
0.000305761
-0.00218273
0.000304201
-0.00226954
0.000302037
-0.0023553
0.000299242
-0.00243953
0.000295626
-0.00252248
0.00029153
-0.00260414
0.000287038
-0.00268458
0.000281947
-0.00276335
0.000276529
-0.00284058
0.000270788
-0.00291573
0.000264237
-0.0029884
0.000256934
-0.0030583
0.000248242
-0.00312578
0.000239526
-0.00319046
0.000230851
-0.00325319
0.000223061
-0.00331377
0.000215791
-0.00337231
0.000208308
-0.00342848
0.000200197
-0.00348226
0.000191409
-0.00353249
0.000181063
-0.00358
0.000172219
-0.00362604
0.000162725
-0.00366798
0.000152279
-0.00370772
0.00014264
-0.00374335
0.00013368
-0.00377865
0.000125312
-0.00380981
0.000113633
-0.00383872
0.000104221
-0.0038654
9.5265e-05
-0.00388789
8.46841e-05
-0.00390814
7.42928e-05
6.39714e-05
-0.00392421
-0.000172679
4.81159e-05
0.000148587
-0.00020105
6.30755e-05
-0.000234124
7.98056e-05
-0.000271933
9.76792e-05
-0.000314455
0.000116459
-0.000361872
0.0001361
-0.000414332
0.000156201
-0.000471234
0.000176366
-0.000532814
0.000197003
-0.000598653
0.000217176
-0.000668783
0.00023713
-0.000742876
0.000256522
-0.00082037
0.000274963
-0.000901313
0.000292486
-0.00098549
0.000309243
-0.00107186
0.000324023
-0.00116075
0.000338125
-0.00125172
0.000350737
-0.00134439
0.000361914
-0.00143862
0.000371822
-0.00153404
0.000380414
-0.00163057
0.000387638
-0.00172778
0.000393523
-0.00182542
0.000397997
-0.0019231
0.000401066
-0.00202092
0.000403073
-0.00211838
0.000403683
-0.00221534
0.000403383
-0.00231166
0.000402082
-0.00240721
0.000399935
-0.00250159
0.000396829
-0.00259456
0.000392544
-0.00268602
0.000387182
-0.00277584
0.000380894
-0.002864
0.000373925
-0.00295051
0.000367148
-0.00303592
0.000360819
-0.00311952
0.000354389
-0.00320101
0.000347226
-0.00328004
0.000337965
-0.00335622
0.000326915
-0.00342899
0.000314159
-0.00349872
0.000301415
-0.00356553
0.000290039
-0.00363027
0.000279633
-0.0036937
0.000270568
-0.00375288
0.000258274
-0.00381008
0.000247924
-0.00386535
0.00023624
-0.00391639
0.00022346
-0.00396501
0.000211613
-0.0040114
0.000198871
-0.00405382
0.000185158
-0.00409401
0.000173893
-0.0041282
0.000159491
-0.00416197
0.000147379
-0.00419352
0.000135751
-0.00422089
0.000122619
-0.0042441
0.000107891
-0.00426707
9.72651e-05
8.27866e-05
-0.00428589
-0.000163819
7.86846e-05
0.000133252
-0.000199227
9.84846e-05
-0.000239508
0.000120088
-0.000285213
0.000143386
-0.000336184
0.000167432
-0.000392177
0.000192095
-0.000453181
0.000217207
-0.000519356
0.000242543
-0.000590118
0.000267766
-0.000665722
0.000292781
-0.000745604
0.000317013
-0.000829291
0.000340209
-0.000916806
0.00036248
-0.00100733
0.00038301
-0.00110065
0.000402572
-0.00119684
0.000420209
-0.00129536
0.000436653
-0.00139606
0.000451438
-0.00149825
0.000464098
-0.00160178
0.00047537
-0.00170661
0.000485263
-0.00181215
0.00049319
-0.00191842
0.000499807
-0.00202505
0.000504598
-0.00213177
0.000507744
-0.00223819
0.000509399
-0.00234421
0.000509658
-0.00244951
0.0005086
-0.00255394
0.000506516
-0.00265743
0.000503429
-0.0027598
0.000499159
-0.00286065
0.000493525
-0.00296004
0.000486632
-0.00305752
0.000478419
-0.00315256
0.000469072
-0.00324563
0.000459515
-0.00333631
0.000450725
-0.00342541
0.000442271
-0.00351337
0.000433577
-0.00359922
0.000423828
-0.00368249
0.000410735
-0.00376204
0.000395802
-0.00383703
0.000379687
-0.00390824
0.000363574
-0.00397685
0.00034979
-0.00404397
0.000337162
-0.00410999
0.00032274
-0.00417213
0.000308834
-0.00423017
0.000293519
-0.00428558
0.000278772
-0.00433679
0.000262999
-0.00438389
0.000246151
-0.00443056
0.000231963
-0.00447143
0.000214829
-0.00451191
0.0002
-0.00454827
0.000183744
-0.00457848
0.000165953
-0.00460642
0.000150545
-0.00463417
0.000135633
-0.00465587
0.000118954
0.000102296
-0.00467538
-0.000168489
0.000115815
0.000131361
-0.000211178
0.000141175
-0.000259425
0.000168337
-0.000313523
0.000197485
-0.000372967
0.000226879
-0.000438168
0.000257298
-0.000508691
0.000287732
-0.000584251
0.000318106
-0.000665099
0.000348615
-0.000750277
0.00037796
-0.000840212
0.000406949
-0.000934282
0.000434281
-0.00103172
0.000459921
-0.0011323
0.000483599
-0.00123634
0.000506612
-0.00134291
0.000526772
-0.00145143
0.000545174
-0.0015621
0.000562105
-0.00167421
0.000576224
-0.0017878
0.000588979
-0.0019024
0.000599888
-0.00201772
0.000608527
-0.00213373
0.000615809
-0.0022499
0.000620737
-0.00236595
0.000623707
-0.00248169
0.000625098
-0.00259656
0.000624482
-0.00271071
0.000622883
-0.00282378
0.000619607
-0.00293544
0.000614814
-0.003046
0.000609287
-0.00315543
0.000602118
-0.00326298
0.000593846
-0.00336862
0.0005847
-0.00347188
0.000573429
-0.00357122
0.000560887
-0.0036679
0.000547861
-0.00376237
0.000534872
-0.00385505
0.000523369
-0.00394779
0.000511477
-0.00403848
0.000498753
-0.0041247
0.000482703
-0.00420688
0.000465559
-0.00428337
0.000446601
-0.00435723
0.000427751
-0.00442795
0.000409242
-0.00449582
0.00038986
-0.00456216
0.000373269
-0.00462602
0.000356164
-0.00468375
0.000335968
-0.00473897
0.000318158
-0.00479184
0.000299135
-0.00483897
0.00027918
-0.00488401
0.000259968
-0.00492504
0.000241079
-0.00496184
0.00022058
-0.00499817
0.000202295
-0.00502839
0.000180771
-0.00505465
0.000161888
-0.00507695
0.000141241
0.000122387
-0.00509705
-0.000184269
0.000159773
0.000140313
-0.00023467
0.000191578
-0.000291157
0.000224826
-0.000354521
0.000260851
-0.000423591
0.00029595
-0.000498364
0.000332072
-0.000578957
0.000368328
-0.000664337
0.000403487
-0.00075563
0.00043991
-0.000851381
0.000473712
-0.000952548
0.000508118
-0.00105714
0.000538877
-0.00116623
0.000569013
-0.00127742
0.000594795
-0.00139184
0.000621023
-0.00150965
0.000644585
-0.00162919
0.000664711
-0.0017506
0.000683526
-0.00187396
0.00069959
-0.00199742
0.000712454
-0.00212275
0.000725222
-0.00224813
0.000733908
-0.00237479
0.000742463
-0.00250141
0.000747313
-0.00262729
0.000749543
-0.00275316
0.000750825
-0.00287734
0.00074869
-0.00300087
0.000746523
-0.00312328
0.00074226
-0.00324328
0.000734957
-0.00336272
0.000728119
-0.00348051
0.000718896
-0.0035961
0.000708211
-0.0037106
0.000698447
-0.00382257
0.000686896
-0.00393025
0.000671136
-0.00403378
0.000654785
-0.00413332
0.000636481
-0.00423139
0.00061836
-0.00432883
0.000604192
-0.00442671
0.000590397
-0.00452189
0.000574616
-0.00460848
0.000555633
-0.00469296
0.000536543
-0.00477057
0.000511401
-0.00484394
0.000485196
-0.00491864
0.000463844
-0.00498808
0.000441361
-0.00505438
0.000421256
-0.00511729
0.000398392
-0.00517459
0.000375318
-0.00522917
0.000353621
-0.00527982
0.000329841
-0.00532881
0.000308986
-0.00537218
0.000284495
-0.00541281
0.000261253
-0.00544745
0.000236963
-0.00547743
0.000210755
-0.00550573
0.000190181
-0.00553051
0.000166014
0.000142761
-0.0055509
-0.000208881
0.000158864
0.000209793
-0.000268322
0.00025102
-0.000332348
0.000288852
-0.000406559
0.000335062
-0.000485146
0.000374538
-0.000570586
0.000417512
-0.000662135
0.000459877
-0.000756807
0.000498158
-0.000861103
0.000544206
-0.000966325
0.000578933
-0.00108118
0.000622969
-0.00119581
0.000653506
-0.00131992
0.000693132
-0.00143976
0.000714635
-0.00156694
0.000748195
-0.00169748
0.000775121
-0.00182666
0.000793897
-0.00196153
0.000818402
-0.00209616
0.000834226
-0.0022298
0.000846075
-0.00236986
0.000865235
-0.00250382
0.000867822
-0.00264293
0.000881542
-0.00278101
0.000885416
-0.00291696
0.000885508
-0.0030552
0.000889057
-0.00318769
0.000880935
-0.00332182
0.000880529
-0.00345556
0.000876389
-0.00358365
0.000863761
-0.00371322
0.000858359
-0.00383926
0.000844911
-0.00396189
0.000829543
-0.00408411
0.000818246
-0.00420718
0.00080762
-0.00432212
0.000786489
-0.00443668
0.000774633
-0.00454468
0.000751519
-0.00464582
0.000725152
-0.00474958
0.000706247
-0.00484878
0.000681665
-0.00494905
0.000666258
-0.00504393
0.000645461
-0.0051343
0.000629416
-0.00522182
0.000604262
-0.00529934
0.000567043
-0.00537593
0.000541818
-0.0054477
0.000513421
-0.00551892
0.00049169
-0.00558356
0.000462362
-0.00564722
0.000438715
-0.00570356
0.000409851
-0.00575698
0.000383231
-0.00580667
0.000358645
-0.00585395
0.000331781
-0.00589339
0.000300699
-0.00593124
0.000274829
-0.00596268
0.000242228
-0.00599151
0.000219019
-0.00601681
0.000191324
-0.00603656
0.000162504
-0.00304844
1.25111e-05
-0.00305922
1.07829e-05
-0.00306832
9.10087e-06
-0.00307556
7.2343e-06
-0.00308056
4.99632e-06
-0.00308295
2.38904e-06
-0.00308359
6.44809e-07
-0.00308214
-1.45637e-06
-0.00307871
-3.42918e-06
-0.00307288
-5.82645e-06
-0.00306518
-7.69991e-06
-0.00305544
-9.73585e-06
-0.00304372
-1.17232e-05
-0.00302993
-1.37852e-05
-0.00301439
-1.55391e-05
-0.00299702
-1.73705e-05
-0.00297764
-1.93799e-05
-0.00295623
-2.14102e-05
-0.00293313
-2.30967e-05
-0.00290817
-2.4959e-05
-0.00288144
-2.67342e-05
-0.0028531
-2.834e-05
-0.00282303
-3.00674e-05
-0.00279114
-3.18818e-05
-0.00275768
-3.34594e-05
-0.00272276
-3.49185e-05
-0.00268622
-3.65451e-05
-0.00264803
-3.81809e-05
-0.00260833
-3.97025e-05
-0.00256726
-4.10683e-05
-0.00252471
-4.25433e-05
-0.00248074
-4.39741e-05
-0.00243553
-4.52074e-05
-0.00238902
-4.65069e-05
-0.0023412
-4.78206e-05
-0.00229223
-4.89669e-05
-0.00224218
-5.00465e-05
-0.00219102
-5.11586e-05
-0.00213867
-5.23431e-05
-0.00208531
-5.33641e-05
-0.00203106
-5.42454e-05
-0.00197589
-5.51654e-05
-0.00191982
-5.60714e-05
-0.00186301
-5.68103e-05
-0.00180531
-5.76931e-05
-0.00174682
-5.84893e-05
-0.00168771
-5.91075e-05
-0.00162807
-5.96413e-05
-0.00156777
-6.02938e-05
-0.00150692
-6.08462e-05
-0.00144564
-6.128e-05
-0.00138404
-6.16005e-05
-0.00132193
-6.21015e-05
-0.00125962
-6.23096e-05
-0.00119709
-6.25311e-05
-0.00113454
-6.25432e-05
-0.00107173
-6.2814e-05
-0.00100888
-6.28499e-05
-0.000946165
-6.27089e-05
-0.00088367
-6.24937e-05
-6.22422e-05
-0.000821426
-0.00331529
2.6765e-05
-0.00332515
2.06462e-05
-0.00333297
1.69107e-05
-0.00333857
1.28347e-05
-0.00334408
1.05057e-05
-0.00334541
3.72009e-06
-0.00334521
4.43058e-07
-0.00334117
-5.49474e-06
-0.0033365
-8.10334e-06
-0.00332828
-1.40445e-05
-0.00331825
-1.77285e-05
-0.00330588
-2.21013e-05
-0.00329163
-2.59784e-05
-0.00327545
-2.99598e-05
-0.00325682
-3.41737e-05
-0.00323615
-3.80341e-05
-0.00321337
-4.21587e-05
-0.00318866
-4.61227e-05
-0.00316173
-5.00209e-05
-0.00313289
-5.38011e-05
-0.00310229
-5.73289e-05
-0.00306951
-6.11234e-05
-0.00303482
-6.47533e-05
-0.0029984
-6.82995e-05
-0.00296013
-7.17256e-05
-0.0029201
-7.49521e-05
-0.00287825
-7.83905e-05
-0.00283491
-8.15181e-05
-0.00278991
-8.46989e-05
-0.0027431
-8.7878e-05
-0.00269487
-9.077e-05
-0.00264527
-9.35759e-05
-0.00259401
-9.64683e-05
-0.00254133
-9.91838e-05
-0.00248743
-0.000101712
-0.00243206
-0.000104334
-0.00237542
-0.000106687
-0.00231754
-0.000109039
-0.00225857
-0.000111312
-0.00219844
-0.000113491
-0.00213703
-0.00011565
-0.00207473
-0.000117465
-0.00201148
-0.00011932
-0.00194717
-0.000121114
-0.00188205
-0.000122811
-0.00181607
-0.00012447
-0.00174934
-0.000125833
-0.00168171
-0.000127274
-0.00161351
-0.000128489
-0.00154473
-0.000129623
-0.00147539
-0.000130614
-0.00140571
-0.000131278
-0.00133508
-0.000132731
-0.0012647
-0.000132686
-0.00119342
-0.000133815
-0.00112216
-0.000133797
-0.00105013
-0.000134846
-0.000978717
-0.00013426
-0.000907273
-0.000134151
-0.000835863
-0.000133902
-0.000134051
-0.000764054
-0.00360799
3.98295e-05
-0.003621
3.36622e-05
-0.00362965
2.55532e-05
-0.00363605
1.9234e-05
-0.00363824
1.26914e-05
-0.00364052
5.99955e-06
-0.00363846
-1.61108e-06
-0.00363424
-9.72124e-06
-0.00362775
-1.45866e-05
-0.00361968
-2.21198e-05
-0.00360914
-2.82703e-05
-0.00359492
-3.63161e-05
-0.00357887
-4.20329e-05
-0.00356028
-4.8548e-05
-0.00353941
-5.50404e-05
-0.00351615
-6.12905e-05
-0.00349074
-6.75665e-05
-0.00346314
-7.37206e-05
-0.0034333
-7.98625e-05
-0.00340151
-8.55889e-05
-0.00336724
-9.16e-05
-0.00333108
-9.72859e-05
-0.00329289
-0.000102935
-0.00325273
-0.000108466
-0.00321051
-0.000113941
-0.00316631
-0.000119146
-0.00312031
-0.000124389
-0.00307242
-0.000129405
-0.00302259
-0.000134527
-0.00297134
-0.000139126
-0.00291823
-0.000143881
-0.00286334
-0.000148468
-0.00280716
-0.000152642
-0.0027493
-0.000157039
-0.00268991
-0.000161105
-0.00262912
-0.000165122
-0.00256689
-0.000168915
-0.00250325
-0.000172673
-0.00243835
-0.000176213
-0.00237222
-0.000179613
-0.00230504
-0.000182831
-0.00223648
-0.000186028
-0.00216698
-0.000188813
-0.00209642
-0.00019167
-0.00202493
-0.000194305
-0.00195257
-0.000196831
-0.00187929
-0.000199107
-0.00180523
-0.000201334
-0.00173036
-0.000203358
-0.00165514
-0.000204836
-0.00157867
-0.000207087
-0.00150163
-0.000208318
-0.00142446
-0.000209893
-0.00134695
-0.000210199
-0.00126917
-0.000211593
-0.00119051
-0.000212459
-0.00111244
-0.000212911
-0.00103371
-0.000212989
-0.000955032
-0.000212828
-0.000875974
-0.000212959
-0.000212451
-0.000797572
-0.00394006
5.56904e-05
-0.00395178
4.53763e-05
-0.00396123
3.50066e-05
-0.00396645
2.44476e-05
-0.00396946
1.57009e-05
-0.00396996
6.49996e-06
-0.00396639
-5.17807e-06
-0.00396286
-1.32535e-05
-0.00395527
-2.21776e-05
-0.00394559
-3.18022e-05
-0.00393169
-4.21715e-05
-0.00391664
-5.13669e-05
-0.00389905
-5.96196e-05
-0.00387807
-6.95237e-05
-0.00385493
-7.81809e-05
-0.00382927
-8.69529e-05
-0.00380112
-9.57101e-05
-0.00377047
-0.000104376
-0.0037376
-0.000112726
-0.00370208
-0.000121111
-0.00366464
-0.000129045
-0.00362469
-0.000137231
-0.00358268
-0.000144947
-0.00353846
-0.000152683
-0.00349223
-0.000160167
-0.00344364
-0.000167728
-0.00339305
-0.000174976
-0.00334054
-0.000181915
-0.00328624
-0.000188823
-0.00322972
-0.00019565
-0.00317152
-0.000202076
-0.00311169
-0.000208295
-0.00304985
-0.000214481
-0.00298651
-0.000220383
-0.00292158
-0.00022603
-0.00285511
-0.000231594
-0.00278691
-0.000237114
-0.00271734
-0.000242234
-0.00264637
-0.000247182
-0.00257416
-0.000251824
-0.00250048
-0.000256509
-0.00242584
-0.000260667
-0.00234982
-0.000264826
-0.00227282
-0.00026867
-0.00219472
-0.000272404
-0.0021156
-0.000275953
-0.00203553
-0.000279169
-0.00195477
-0.000282097
-0.00187285
-0.000285274
-0.00179023
-0.000287454
-0.00170757
-0.000289746
-0.00162363
-0.00029226
-0.00153934
-0.000294178
-0.00145402
-0.000295519
-0.00136918
-0.000296426
-0.00128357
-0.000298074
-0.00119787
-0.000298603
-0.00111224
-0.000298621
-0.00102613
-0.000298935
-0.000940234
-0.000298856
-0.000298599
-0.000854086
-0.0043005
7.03036e-05
-0.00431094
5.58149e-05
-0.00432116
4.52274e-05
-0.00432721
3.04991e-05
-0.00432904
1.75342e-05
-0.00432874
6.19922e-06
-0.00432824
-5.67764e-06
-0.00432154
-1.9952e-05
-0.00431274
-3.09811e-05
-0.0043
-4.45468e-05
-0.00428519
-5.69796e-05
-0.00426822
-6.83366e-05
-0.00424724
-8.06005e-05
-0.00422481
-9.19506e-05
-0.00420055
-0.000102441
-0.0041713
-0.000116203
-0.00414014
-0.000126862
-0.00410634
-0.000138179
-0.00406987
-0.000149198
-0.00403106
-0.000159917
-0.00398963
-0.00017048
-0.00394611
-0.00018075
-0.00390002
-0.000191038
-0.00385151
-0.000201186
-0.00380046
-0.000211219
-0.00374745
-0.000220737
-0.00369216
-0.000230256
-0.00363458
-0.000239493
-0.00357494
-0.000248464
-0.00351339
-0.000257205
-0.00344971
-0.000265752
-0.00338403
-0.00027397
-0.00331663
-0.000281881
-0.00324748
-0.000289528
-0.00317647
-0.000297041
-0.00310367
-0.000304395
-0.00302949
-0.000311294
-0.00295349
-0.000318232
-0.00287596
-0.000324709
-0.00279686
-0.00033092
-0.00271662
-0.000336749
-0.00263497
-0.000342315
-0.0025522
-0.000347591
-0.0024682
-0.000352675
-0.00238307
-0.000357527
-0.00229723
-0.000361793
-0.00220922
-0.000367181
-0.00212075
-0.000370561
-0.00203208
-0.000373945
-0.00194203
-0.000377501
-0.00185152
-0.000380256
-0.00176067
-0.000383104
-0.00166876
-0.000386092
-0.00157656
-0.00038772
-0.00148276
-0.000390221
-0.00138958
-0.000391256
-0.00129637
-0.000391808
-0.00120272
-0.000392274
-0.00110868
-0.000392968
-0.00101544
-0.000392094
-0.000392089
-0.00092195
-0.00469073
8.56514e-05
-0.0047039
6.8989e-05
-0.00471092
5.22468e-05
-0.00471776
3.7335e-05
-0.00472241
2.21941e-05
-0.00472097
4.7549e-06
-0.00471546
-1.11875e-05
-0.0047097
-2.57166e-05
-0.00469801
-4.26625e-05
-0.00468616
-5.63968e-05
-0.00467029
-7.28512e-05
-0.00465044
-8.81938e-05
-0.00462848
-0.000102551
-0.00460262
-0.000117813
-0.00457277
-0.000132291
-0.00454104
-0.000147935
-0.00450674
-0.000161163
-0.00446997
-0.000174948
-0.00442988
-0.000189281
-0.00438706
-0.00020274
-0.00434178
-0.000215762
-0.0042936
-0.000228925
-0.00424294
-0.000241698
-0.0041898
-0.000254326
-0.00413422
-0.000266802
-0.00407595
-0.000279007
-0.00401549
-0.000290713
-0.00395257
-0.000302412
-0.00388736
-0.000313666
-0.00382012
-0.000324447
-0.00375054
-0.000335327
-0.00367884
-0.000345669
-0.00360525
-0.000355476
-0.00352983
-0.000364943
-0.0034523
-0.000374571
-0.00337311
-0.000383582
-0.0032919
-0.000392505
-0.00320897
-0.000401159
-0.00312449
-0.000409183
-0.00303851
-0.000416896
-0.00295081
-0.000424452
-0.00286189
-0.000431238
-0.00277161
-0.000437868
-0.00267981
-0.000444469
-0.00258712
-0.000450218
-0.0024933
-0.000455611
-0.002399
-0.00046148
-0.00230304
-0.000466521
-0.00220583
-0.000471148
-0.00210814
-0.000475189
-0.00200926
-0.000479136
-0.00190937
-0.000482993
-0.00180985
-0.00048561
-0.00170878
-0.000488793
-0.00160805
-0.000490952
-0.0015067
-0.000492598
-0.0014041
-0.000494412
-0.00130187
-0.000494497
-0.00120032
-0.000494519
-0.00109819
-0.000494227
-0.000493935
-0.000996342
-0.00511303
0.000101622
-0.00512682
8.27792e-05
-0.00513653
6.19571e-05
-0.00514212
4.29254e-05
-0.00514167
2.17406e-05
-0.00514112
4.20902e-06
-0.00513646
-1.58467e-05
-0.0051277
-3.44698e-05
-0.0051169
-5.34628e-05
-0.00510033
-7.29696e-05
-0.00508175
-9.14379e-05
-0.00506097
-0.000108965
-0.00503434
-0.000129187
-0.00500571
-0.000146441
-0.00497513
-0.000162871
-0.0049406
-0.000182466
-0.00490206
-0.0001997
-0.00486071
-0.000216298
-0.0048162
-0.000233788
-0.00476983
-0.000249109
-0.00471979
-0.000265798
-0.00466726
-0.000281457
-0.00461186
-0.000297099
-0.00455356
-0.000312619
-0.0044925
-0.000327861
-0.00442881
-0.000342695
-0.00436244
-0.000357084
-0.00429382
-0.000371033
-0.00422286
-0.000384631
-0.00414933
-0.000397968
-0.00407338
-0.000411278
-0.00399531
-0.000423736
-0.00391488
-0.000435899
-0.00383266
-0.000447161
-0.00374846
-0.000458777
-0.00366213
-0.000469902
-0.00357383
-0.000480812
-0.00348347
-0.000491511
-0.00339133
-0.000501327
-0.00329743
-0.000510797
-0.00320202
-0.00051986
-0.00310466
-0.000528593
-0.00300652
-0.000536005
-0.00290711
-0.000543885
-0.0028067
-0.000550622
-0.00270433
-0.000557982
-0.00260062
-0.000565188
-0.00249628
-0.000570862
-0.00239171
-0.000575715
-0.00228496
-0.00058194
-0.00217777
-0.000586315
-0.00207044
-0.000590331
-0.00196128
-0.000594767
-0.00185204
-0.000598031
-0.00174171
-0.000601284
-0.00163093
-0.000603369
-0.00152064
-0.000604703
-0.00140973
-0.00060541
-0.00129843
-0.000605813
-0.00118731
-0.000605347
-0.000604797
-0.00107645
-0.00556737
0.000118081
-0.00557952
9.49173e-05
-0.00558787
7.03082e-05
-0.0055939
4.89579e-05
-0.00559616
2.40018e-05
-0.0055926
6.54159e-07
-0.00558708
-2.13645e-05
-0.0055752
-4.63502e-05
-0.00556134
-6.73283e-05
-0.0055441
-9.02036e-05
-0.00552478
-0.00011076
-0.00549955
-0.000134191
-0.00547199
-0.000156753
-0.00544074
-0.000177684
-0.00540419
-0.000199425
-0.00536702
-0.000219638
-0.00532598
-0.000240744
-0.00527897
-0.000263304
-0.00523152
-0.000281236
-0.00517916
-0.000301466
-0.00512361
-0.000321347
-0.00506611
-0.000338959
-0.00500584
-0.000357361
-0.0049419
-0.000376558
-0.00487507
-0.00039469
-0.0048053
-0.000412468
-0.0047328
-0.000429584
-0.00465769
-0.000446144
-0.00458006
-0.000462263
-0.00449995
-0.000478071
-0.00441699
-0.000494241
-0.00433203
-0.000508686
-0.00424445
-0.000523477
-0.00415552
-0.000536096
-0.00406392
-0.000550373
-0.00397013
-0.000563688
-0.00387426
-0.000576686
-0.00377585
-0.000589915
-0.00367523
-0.000601945
-0.00357316
-0.000612864
-0.0034695
-0.000623525
-0.00336404
-0.000634048
-0.00325644
-0.00064361
-0.00314899
-0.000651329
-0.00303938
-0.000660233
-0.00292759
-0.000669767
-0.00281653
-0.000676246
-0.00270271
-0.000684676
-0.00258868
-0.00068975
-0.00247373
-0.000696887
-0.00235677
-0.000703277
-0.00224004
-0.000707056
-0.00212203
-0.000712781
-0.00200415
-0.000715907
-0.00188389
-0.00072154
-0.00176427
-0.000722994
-0.00164304
-0.00072593
-0.00152255
-0.000725895
-0.00140186
-0.000726507
-0.00128173
-0.000725477
-0.000725591
-0.00116093
-0.00605346
0.000134959
-0.00606523
0.000106674
-0.00607388
7.89516e-05
-0.00607586
5.0934e-05
-0.00607656
2.4704e-05
-0.00607364
-2.26742e-06
-0.00606618
-2.88195e-05
-0.00605397
-5.85548e-05
-0.00603662
-8.46842e-05
-0.00601866
-0.000108163
-0.00599463
-0.000134784
-0.00596712
-0.000161701
-0.0059372
-0.000186666
-0.00590047
-0.000214412
-0.00586455
-0.000235345
-0.00582139
-0.000262806
-0.00577392
-0.000288216
-0.00572516
-0.000312066
-0.00566976
-0.000336632
-0.00561346
-0.000357761
-0.00555455
-0.000380253
-0.00548992
-0.000403591
-0.00542533
-0.000421939
-0.00535502
-0.000446866
-0.00528118
-0.000468532
-0.00520581
-0.000487839
-0.0051256
-0.000509791
-0.00504446
-0.000527282
-0.00495785
-0.000548877
-0.00487267
-0.000563248
-0.0047801
-0.000586804
-0.00468919
-0.000599596
-0.00459216
-0.000620511
-0.00449744
-0.000630812
-0.00439834
-0.000649466
-0.00429621
-0.000665821
-0.00419343
-0.00067947
-0.00408565
-0.000697689
-0.00397583
-0.000711761
-0.00386658
-0.000722119
-0.00375196
-0.000738143
-0.00363596
-0.000750042
-0.00352126
-0.000758307
-0.00340173
-0.000770852
-0.0032863
-0.000775671
-0.00316305
-0.000793012
-0.0030436
-0.000795688
-0.0029182
-0.000810083
-0.002797
-0.000810941
-0.00267248
-0.000821408
-0.00254511
-0.000830646
-0.00242092
-0.000831246
-0.00229142
-0.000842284
-0.00216531
-0.000842008
-0.00203226
-0.000854594
-0.00190429
-0.000850964
-0.0017699
-0.00086031
-0.00164325
-0.000852551
-0.00150955
-0.000860204
-0.00138169
-0.000853335
-0.00124728
-0.000860005
-0.000759012
-6.24132e-05
-0.000696964
-6.20468e-05
-0.000635302
-6.16605e-05
-0.000574072
-6.12287e-05
-0.000513346
-6.0725e-05
-0.000453171
-6.01743e-05
-0.000393822
-5.93485e-05
-0.000335366
-5.84562e-05
-0.000278041
-5.7325e-05
-0.000222035
-5.60056e-05
-0.000166598
-5.54365e-05
-0.000109638
-5.6961e-05
-5.10751e-05
-5.85627e-05
8.16504e-06
-5.92405e-05
6.58021e-05
-5.76378e-05
0.000120637
-5.48359e-05
0.000173427
-5.27907e-05
0.000224594
-5.11685e-05
0.000274234
-4.96408e-05
0.000322318
-4.80849e-05
0.000368849
-4.65327e-05
0.000413774
-4.49262e-05
0.000457002
-4.32304e-05
0.000498402
-4.1401e-05
0.000537917
-3.95168e-05
0.000575484
-3.75697e-05
0.000610986
-3.55039e-05
0.000644289
-3.33049e-05
0.000675278
-3.09915e-05
0.000703864
-2.85879e-05
0.000729847
-2.59852e-05
0.000753069
-2.32243e-05
0.000773408
-2.03417e-05
0.000790618
-1.72125e-05
0.000804481
-1.38653e-05
0.000814801
-1.03228e-05
0.0008213
-6.50194e-06
0.000823864
-2.56639e-06
0.000822993
8.68599e-07
0.000818606
4.38368e-06
0.000810712
7.89156e-06
0.000798693
1.20158e-05
0.000782032
1.66585e-05
0.0007603
2.17286e-05
0.000732864
2.74332e-05
0.000699097
3.37639e-05
0.000658379
4.07147e-05
0.000609972
4.84045e-05
0.000553017
5.69519e-05
0.000486749
6.62647e-05
0.000410445
7.63002e-05
0.000323545
8.68962e-05
0.000225504
9.80376e-05
0.000115593
0.000109908
-1.24345e-05
0.000128025
-0.000153488
0.000141051
-0.000284017
0.000130526
-0.000392265
0.000108244
-0.000474157
8.18892e-05
-0.000535067
6.09078e-05
5.06931e-05
-0.000585763
-0.000692867
-0.000133599
-0.000621401
-0.000133512
-0.000550162
-0.000132898
-0.000479187
-0.000132202
-0.000408825
-0.000131087
-0.000338618
-0.00013038
-0.000268965
-0.000129001
-0.000199745
-0.000127675
-0.000131278
-0.000125792
-6.33457e-05
-0.000123938
5.35618e-06
-0.000124138
7.41551e-05
-0.00012576
0.000141405
-0.000125812
0.000207599
-0.000125436
0.000273206
-0.000123245
0.000338212
-0.000119842
0.000402047
-0.000116627
0.000464554
-0.000113676
0.000525673
-0.000110761
0.00058542
-0.000107833
0.000643793
-0.000104907
0.000700634
-0.000101769
0.000755924
-9.85222e-05
0.000809654
-9.51325e-05
0.000861716
-9.15796e-05
0.000912046
-8.7902e-05
0.000960512
-8.39716e-05
0.00100713
-7.99289e-05
0.00105176
-7.56224e-05
0.00109422