/*--------------------------------*- C++ -*----------------------------------*\
| =========                 |                                                 |
| \\      /  F ield         | OpenFOAM: The Open Source CFD Toolbox           |
|  \\    /   O peration     | Version:  2.3.1                                 |
|   \\  /    A nd           | Web:      www.OpenFOAM.org                      |
|    \\/     M anipulation  |                                                 |
\*---------------------------------------------------------------------------*/
FoamFile
{
    version     2.0;
    format      ascii;
    class       volScalarField;
    location    "1080";
    object      sigmaEq;
}
// * * * * * * * * * * * * * * * * * * * * * * * * * * * * * * * * * * * * * //

dimensions      [1 -1 -2 0 0 0 0];

internalField   nonuniform List<scalar> 
11800
(
112048
97296.4
274363
239564
92911.1
182059
110032
111198
117841
120642
109743
331729
51793.9
245742
223333
1.00103e+06
94153.4
88410.9
152358
89055.3
197113
303678
469261
418750
814134
539009
494505
248024
550121
607948
175266
103754
526272
105891
107152
173495
106647
558205
100761
98458.5
512926
570120
261275
629778
184155
936702
440521
506655
108742
132581
343641
250054
105972
163787
1.06592e+06
944563
53311.1
239917
185094
186423
927692
111460
193664
162644
798403
127956
352044
256958
54749.1
496474
110345
93131.3
89371
947778
917607
172372
821139
119239
111348
117389
1.08719e+06
85887.7
93441.3
96743.7
89652.2
584532
184958
527652
476394
253968
102434
625002
105863
52799.2
107847
88327.8
11385
87795.8
104995
292927
68407
319507
593895
226326
110348
188263
107862
103579
889664
522182
579788
471082
186995
259310
118775
805331
121221
105364
757735
126656
127719
111453
112133
94243.2
103163
104970
105834
103821
85863.6
31326.2
1.0824e+06
686310
196249
583851
266068
524172
473250
177220
500414
234984
449325
406263
277337
118485
129958
167113
558871
579920
331389
213260
127108
121875
105168
144244
127841
116396
231375
307324
648481
107514
1.0211e+06
132852
835000
239152
262223
290154
146591
125563
1.12148e+06
649944
217693
288550
106120
187596
189348
930016
940679
462212
416841
513972
229578
168787
137303
125686
217679
120543
197471
104286
103372
110568
142936
130360
124458
143364
420501
543353
962532
99885.5
121449
1.12256e+06
95287.1
145132
163050
108658
110831
397060
337538
304098
253188
1.07491e+06
320891
466141
1.47612e+06
1.13763e+06
1.25203e+06
205671
97317.6
418789
376138
340568
142654
184976
93630.8
86870.4
152782
91391.9
716208
157328
92067.3
231146
127642
109847
99843.3
305094
311233
1.46484e+06
711112
126526
133549
535745
435738
169910
229256
521915
473362
426982
109183
582128
195916
256666
242579
99573.7
102397
224604
182282
119477
1.24299e+06
148704
166801
134430
149507
331114
367461
407242
185956
143878
108486
917060
105090
81364.6
105818
203718
82461.4
258739
1.10244e+06
191798
189875
275990
205156
233343
174826
602193
506392
162715
195166
138982
159529
287653
372662
174118
621302
667618
811242
108771
191940
191041
894635
903771
484952
477399
501396
497153
102109
74527.9
152117
1.22625e+06
96866.9
102007
154394
139414
137600
431713
434070
812251
1.25725e+06
381843
114301
413431
338242
246514
200887
116540
114254
148060
243762
135864
222232
94640.1
108555
111349
109435
670033
110419
99697.3
1.01602e+06
155949
359541
360721
352437
440852
425564
86816.8
86245.8
345158
441774
316279
816271
84259
413220
328258
208525
163070
160962
127142
167582
149083
189838
212631
234590
96714.1
104692
353577
376477
114487
120532
254184
203678
230508
113732
109542
131895
132144
461146
205062
164186
240383
493389
583577
232023
121551
119368
134838
128692
219497
256377
204969
240925
184606
217461
167766
155936
358867
168414
366085
621809
292919
221032
1.14886e+06
102286
654704
301799
226376
1.03265e+06
101165
677106
172178
601093
553535
530400
116050
48762.8
98912.9
1.32542e+06
1.14108e+06
459109
164680
205767
114868
120688
142004
95338.8
147340
860818
35393.1
269079
201788
964061
82603.7
113763
100574
114238
98870.2
105061
970359
305409
135770
318107
287382
261990
80524.9
650913
202851
270130
109982
463362
111035
893649
99797.6
122682
233787
211871
193542
467015
124790
251814
245630
127234
322385
355229
394191
184249
146252
49072.2
102997
109157
1.19876e+06
340057
268589
206507
171657
108577
109833
83582.5
88623.4
133237
75040.8
83350.2
100718
107954
208221
103180
145706
319248
339658
166714
877187
119334
209453
102345
102229
830565
1.02299e+06
280264
311620
141453
126865
94508.5
731382
976403
876338
1.29747e+06
354963
250130
339280
89465.7
110870
106552
116244
326791
109212
107281
86124.1
105358
726310
154163
660384
481820
101364
124687
659834
722828
325823
362441
401907
186356
148584
297281
106219
105654
103971
114046
96482.1
125760
79184.4
116323
74970.6
110853
68615.4
109732
100702
108542
80391.2
836417
154346
129333
285598
471977
77363.6
106793
94877.3
88876.2
80526.1
151764
199024
106534
104615
306094
85105.1
126230
904777
60742
117046
251567
229353
244002
266901
276106
295927
135110
116431
998107
1.29853e+06
228443
72764.1
168641
209807
177100
136084
379197
345247
311368
111908
63948.4
349899
344742
157538
169581
103663
281061
312019
133056
484243
483847
490105
491523
928526
908415
266391
1.17773e+06
366558
99903.3
842139
622223
691050
339485
146755
162369
120477
790480
238845
306788
1.24169e+06
123589
132257
273220
235565
643200
308939
982190
102419
97699.4
144825
184991
415163
375393
338963
974967
103598
189275
410463
700343
100015
1.1353e+06
1.06463e+06
1.06434e+06
125945
169122
73855.2
1.08823e+06
273189
130482
198812
971040
101634
133667
145747
102778
270935
146841
1.31655e+06
1.06907e+06
124375
306478
389163
146546
164104
137695
129569
378841
142580
268403
206873
539324
496887
108011
667973
107702
192689
228992
950758
167636
231080
135125
126330
106162
120127
218751
497035
549947
94024.1
95528.8
91101.6
125601
190204
678677
85347.5
212348
367724
282487
122246
485855
546383
343372
607931
674091
266867
185713
104920
106546
184503
199763
168051
180824
121315
163658
197703
126969
101754
1.27466e+06
514991
191565
243606
250091
126844
200669
278004
633245
570332
514365
167420
194151
140982
127257
777955
628782
656334
106942
129391
149722
302607
739126
223916
52626.9
110009
1.2156e+06
1.14713e+06
130935
1.05323e+06
88773.2
104636
97454.9
364936
87606.4
145885
169769
618218
687255
762450
845466
345433
301081
253719
208421
121606
99683.7
201523
1.04169e+06
108665
109096
100098
103533
99418.6
104399
113251
812465
419092
387194
223694
427713
476847
168987
582200
143266
131792
109435
1.19794e+06
100989
110950
103438
102951
99324.5
1.09428e+06
143924
148502
628665
174458
372831
147327
1.11887e+06
441611
207711
169145
733229
233167
114869
104478
91215.2
97419.6
137719
159739
146762
103681
295103
125983
100021
389033
439117
98315.9
284024
396443
342377
452935
906804
817544
734397
660753
282208
339280
918091
827122
392804
744340
451114
667035
852968
112162
101204
110751
129807
276355
649492
110507
223977
290934
244802
320809
120506
141615
208210
290963
663886
598089
539547
255974
198228
503076
118862
140103
113273
184654
167980
150043
274556
221425
226169
173303
105368
396975
118684
169041
213864
545389
275759
320614
293837
111069
133620
114061
102885
105444
116319
286243
250383
101687
124278
121562
224433
722833
225784
302368
286476
111503
126132
117107
105630
136623
115720
317134
284872
257302
118135
907960
335692
155358
544602
357882
710608
1.05925e+06
132520
147481
121726
105709
97716.1
354915
303404
1.09105e+06
92352.3
118697
182001
249908
125297
110575
356792
351414
58174
99073.1
188369
152174
85999.3
921909
1.05273e+06
152450
99119.4
154690
194270
405386
326997
363580
1.21258e+06
105038
284310
317539
111949
295664
359385
415809
473583
950657
855817
768685
691796
294974
356164
960282
865138
410875
778779
470871
698322
987091
861623
653247
235669
269628
855549
662110
176712
98765.9
94779.2
657514
1.10544e+06
92151.6
207763
962884
649982
1.06059e+06
1.07429e+06
554481
561655
261577
214335
274243
173460
111446
159315
105816
114911
130665
120244
202734
1.06986e+06
275013
119045
82701.7
187069
201575
956031
193331
175027
206851
220375
598497
253607
192995
841300
208473
262388
112602
109052
203043
169843
187150
478708
276222
265055
663960
636754
263150
272688
515666
555230
206567
210182
101819
110143
114679
270552
209716
48723.1
109700
120716
342694
332889
167517
309288
243574
109415
79204.8
81457.4
309395
695528
88815.5
1.05324e+06
150572
367567
332386
120398
145506
231319
105344
101957
838219
195672
510980
461863
417501
165247
222354
106632
817730
972537
112348
105219
529987
186113
241564
416471
462104
520279
171705
227253
50015.9
423487
193993
960652
209052
564540
418093
465766
109191
102111
96639.8
115731
102700
97834
818848
230141
101747
121855
129466
145954
162727
181658
374633
367250
339022
330127
300125
307892
657311
111141
101210
104740
115256
145216
109575
107217
763685
147727
270619
204596
534619
264204
105993
112825
222089
177007
296163
245902
635959
541348
488293
440028
249095
742153
333170
806392
139655
122498
151269
156614
113175
116868
110758
784649
1.10613e+06
170766
86266.5
130129
279474
212736
78268.4
105156
158000
144832
130021
129706
152603
146028
122389
239552
266408
260795
291175
214466
239934
310332
103480
564007
434837
243718
646578
610638
353566
1.09926e+06
193140
183277
210062
231463
107930
105124
115012
214560
104173
854231
140281
109216
373532
48290.2
93836.7
915389
109885
203549
651139
283319
587341
529809
827503
554423
91196.5
291374
235470
135415
708416
299523
151320
535951
481755
594733
107838
109361
91851.7
1.32758e+06
159608
213452
255138
135605
102092
96871.7
217708
238254
115695
921597
206516
820368
133065
452449
100575
300328
362408
516343
199977
258205
311108
147186
1.20929e+06
107618
84651.6
96685.2
1.0598e+06
724739
165624
227784
534323
485754
438232
1.09119e+06
289628
238920
1.15801e+06
1.29413e+06
862214
87708.4
303518
688092
495224
258445
200800
458588
408721
201452
692680
169681
166305
246906
212090
175998
888288
1.30982e+06
91668.9
105058
125095
1.28794e+06
102188
110149
339006
251515
1.15919e+06
1.21268e+06
109136
334886
136134
125000
277374
126986
84072.7
300960
96034.6
110330
1.30726e+06
518524
277968
216744
195056
151596
388396
352969
317337
145793
1.22332e+06
247467
217531
210456
1.03226e+06
397027
556653
91021.7
142872
105715
459708
234436
310533
95041.4
142849
186807
415767
149235
120986
109715
202166
1.14037e+06
150322
193036
409799
744990
1.04889e+06
650897
457715
312722
369205
57610.5
134842
165084
342677
309485
278876
1.04251e+06
95098.7
108344
116462
115141
114256
121426
146559
105554
101447
359886
901768
224950
509573
459068
414464
166512
1.02674e+06
287122
321063
378476
325490
603490
995170
317726
104643
442960
94589.3
409964
244013
452897
504571
185986
613649
156996
1.42424e+06
475509
103069
913852
1.4237e+06
1.22653e+06
280013
106945
517331
109016
97550.8
98105
172135
104911
100038
95914.6
89548.4
822353
862683
100268
622915
115510
106276
101782
137789
508927
518258
136384
518387
525064
788727
266410
111182
120107
154337
305815
337702
132991
34639.8
108103
434808
173364
393519
442446
491315
544967
273028
200805
175940
103385
96008.2
1.0661e+06
569138
105341
127099
475038
378880
198970
218232
127711
101631
188351
166277
92638.6
120324
101129
882288
289315
724864
91225.9
100522
1.42785e+06
107508
1.09687e+06
1.06483e+06
95536.3
466567
220662
878366
105953
414297
545375
1.19511e+06
128819
97987.6
94648.9
271956
130457
160030
304146
274131
246634
92494.7
103604
98144.9
92672.7
501575
554998
383740
669592
603652
728595
1.12842e+06
137678
361471
1.0751e+06
363221
1.06304e+06
423502
469717
523649
228649
167506
214347
265405
1.00297e+06
112286
113012
150349
141452
128839
118563
190100
171804
160995
429712
369041
1.28777e+06
129685
89156.8
129015
1.05823e+06
310447
152514
145255
1.03963e+06
434452
301305
83993.1
122489
93696.8
423375
545088
161023
683927
107234
105568
1.35655e+06
904597
1.10881e+06
189738
236377
439991
173054
323032
1.08368e+06
1.22247e+06
107869
122390
194311
167757
473267
525794
351329
395552
1.18483e+06
1.15841e+06
149004
116192
85579.3
790677
94344.3
1.03706e+06
242531
152390
551222
168132
96504.3
1.00753e+06
129517
142075
91291.4
102650
768735
222744
102786
390139
179161
114714
98427.7
104913
313900
105116
991151
954007
157906
386497
226363
98619.2
106328
808598
109795
522713
138539
277791
509344
590717
937960
110968
184854
1.0767e+06
138235
106211
87800.3
108976
104626
1.13864e+06
830141
176772
226680
427809
390344
566427
191260
248650
193153
266667
578673
521467
469501
804620
340307
250858
871949
254748
947462
333749
321795
1.00816e+06
1.43426e+06
1.18811e+06
202450
265275
586395
252768
195068
97048
204938
1.00738e+06
103137
110713
1.215e+06
899337
1.09929e+06
409749
508072
517278
443492
93568.9
84628.4
131342
87949.8
338132
372300
413625
183021
140621
319431
1.11024e+06
100264
136682
116097
102132
464212
421037
129845
974253
1.13325e+06
544193
437325
894392
1.02916e+06
103237
500663
326537
642978
99195.7
134388
143747
815010
812342
411565
180348
95364.4
106909
125136
254391
884467
123040
652514
94740.8
179521
141834
166617
293737
156610
255760
24664
7156.51
253878
1.33384e+06
112160
103684
114906
98639.5
98691.6
117849
126226
99151.2
109472
253341
96547
103092
119327
451209
561692
396050
959274
1.17517e+06
102246
129506
192233
104406
764520
147111
1.21231e+06
127917
155256
300251
210093
132549
128804
294167
102005
114195
126165
96803
116966
90935.1
1.00225e+06
86236.1
98465.5
145723
100953
80878
1.05835e+06
112333
903368
925132
346450
251135
168525
228315
523163
479263
432283
102668
611293
353954
104390
1.1243e+06
107051
108484
183493
604973
401380
452048
695089
110661
97272.5
200696
285995
645132
330391
717848
245979
580176
523245
198525
723175
237653
647713
278287
584240
526842
319404
841157
114524
290049
218554
97212.3
114748
888302
457636
628337
581538
508422
638271
459933
185559
204605
297943
737174
105951
1.27418e+06
119918
102476
975280
109215
155957
331336
347282
976791
93341.4
573563
519053
468270
179926
248056
1.18133e+06
183713
150326
343700
113039
357451
164887
211974
93100.4
127085
137232
112572
257491
100901
330841
182509
143412
411122
550653
559464
410669
216676
1.08315e+06
107624
107510
985850
918636
545473
1.41145e+06
518554
442061
534635
1.26196e+06
515320
401399
1.11314e+06
251064
248117
310585
963022
92572.6
869376
105239
157295
197117
324975
358605
397473
190071
148501
281640
63693
66086
102756
100005
135902
108476
102422
141966
567799
1.1357e+06
130024
118133
1.05156e+06
661354
255503
336751
100012
105224
894652
610212
154939
454256
422804
605788
92069.6
98753.7
118605
104644
659212
1.12442e+06
1.13093e+06
751867
1.24122e+06
152228
94563
174863
510190
460140
566621
252548
180655
1.19635e+06
243518
293810
383975
140860
136233
519544
198675
101535
375393
145264
172270
1.16246e+06
181333
163901
559788
508789
458129
233218
773706
719621
930991
294738
311201
342468
769207
327860
242568
681570
135111
1.41661e+06
111501
1.08724e+06
276705
319852
82172.4
333733
617317
101098
113519
106822
1.25723e+06
315976
281864
345498
167479
131469
187426
293513
833313
296919
588524
723616
653526
207445
638945
473354
505524
598079
634156
473071
511857
607814
357817
340261
28011.8
173911
114253
212396
301274
257934
346767
747505
672911
605003
545483
208630
607986
274906
112131
81189
88419
142237
80796
246798
551698
575324
218153
1.04555e+06
114396
97997.8
837074
1.04979e+06
83671.2
622540
243728
318692
440568
318712
167641
101931
240800
410679
60932.9
106325
1.06707e+06
144720
123217
246694
222312
270703
194536
107888
109657
203447
681041
1.09681e+06
1.27065e+06
174010
191440
817680
737338
984272
100072
592254
950090
1.27383e+06
1.32126e+06
1.24925e+06
280475
503770
214245
1.12754e+06
792070
315011
734875
101317
103099
873464
875673
101317
252616
1.16006e+06
937507
878419
908349
1.32549e+06
886864
1.05717e+06
953969
105240
154040
670691
395540
571548
127043
92325.6
115401
107982
114242
131453
114729
218019
1.05112e+06
637432
209648
279057
691277
113433
327186
245869
1.36645e+06
170798
159229
331168
170751
300801
130694
118248
1.11032e+06
9062.87
89145.8
88469.9
18318
225891
303899
112426
123164
134711
103601
348400
297795
99766.5
1.13464e+06
986036
291345
679943
217249
108076
795334
177475
1.13663e+06
272037
331317
382968
438328
888009
801452
719291
648074
271778
327067
897881
809447
378163
728091
434607
653546
154600
129862
309240
305371
262541
135363
124181
113949
101591
98800.6
98103
96090.9
93776.2
152115
509039
548628
425491
242120
465068
513060
880855
345117
275842
1.03069e+06
349103
121966
73325.3
106815
104116
166449
146585
151996
110557
241187
185589
196150
383369
109611
124320
556927
108482
96106.9
109961
93054.2
733010
117382
154142
317685
254300
168075
327097
149948
89444.8
82391
1.24085e+06
1.22451e+06
630608
509582
492797
636569
1.16226e+06
582507
106461
375419
195968
159621
220331
119151
1.18733e+06
126327
608843
551745
497789
259093
185359
330031
183244
148647
1.20213e+06
135905
106298
395598
392694
164605
119998
133511
211202
462593
862007
317000
247327
597431
681170
174204
238343
549180
495318
447471
249630
271549
485612
350930
500037
269855
558413
621406
186742
689172
1.36039e+06
982335
98794.8
389025
430601
476858
165969
128791
809995
137302
177306
241449
252282
110410
137417
126991
105950
671013
500881
529554
635392
189402
993978
1.2315e+06
451894
95289.7
383520
422773
468708
478959
590902
159261
920865
407172
333024
298467
366400
144152
185023
121310
118683
231622
283866
255401
287141
317035
352554
208323
204835
282179
284770
598700
594028
485079
538352
481439
534247
300892
333081
138780
104811
110514
113819
704168
368125
107080
583336
480024
453878
598271
124347
223073
802844
321733
723065
650687
81410.8
139766
583883
307837
228697
758199
295461
63395.3
540527
487733
601671
263051
187346
845231
279245
229043
1.07111e+06
279219
384846
106285
106592
184497
169685
152473
896841
208717
174516
244286
220125
265967
135800
116975
617886
709895
125636
376416
96880.7
556689
1.0944e+06
709081
283627
221684
541626
261673
239452
197312
140417
104867
223029
115239
243582
113650
203066
101207
99536
1.16962e+06
206650
890790
460271
508435
272100
213343
522412
1.06168e+06
87030.3
105966
113738
101786
213158
20478
6803.91
211590
424232
93196.2
418771
182125
166450
100428
262324
358825
807307
98285.4
90758.2
106995
112074
234604
147566
509195
448794
139187
97723.5
95484.2
1.16661e+06
426293
97261.3
182941
96756.2
1.36569e+06
1.0232e+06
184415
125709
393627
201314
271607
553040
448100
497708
1.18258e+06
929219
105956
910845
1.2845e+06
950140
1.03422e+06
484114
120068
686243
147375
107673
120317
225886
222668
175215
167787
399256
139867
109270
95386.3
602374
640957
713029
791832
870884
353904
308277
258705
211240
136943
95823.9
295597
13862.7
147628
146534
7576.08
295614
150304
120639
82006.7
177600
205744
110170
220835
680260
396987
276638
203418
232617
1.10554e+06
872216
108826
369058
107620
109892
274239
324680
386092
793466
197172
220084
109873
998769
109742
168216
201982
186803
638077
708861
355618
469864
466441
270199
356031
732026
695284
677468
218078
291282
80764.2
99832.7
84429.5
145449
86288.6
340552
592699
529299
649740
468765
660864
467482
326892
266727
571451
417454
578283
418722
162952
699354
530101
462246
602426
534940
660253
477324
666504
475848
674189
1.3595e+06
247065
341023
779307
310913
91324.4
108514
137158
13475.9
136134
11980.8
100966
216697
650974
586990
724658
310661
219850
1.15755e+06
61761.6
101251
181701
566940
154498
423023
202806
1.20629e+06
1.21724e+06
770743
94620.7
193655
764310
363739
293866
248103
372838
334882
411113
155031
201189
1.27562e+06
300694
1.11733e+06
97663
101950
109784
99763.8
81152.5
1.09636e+06
99535.6
768713
81215.1
554607
785196
92691.3
111894
124868
322713
133569
254013
229422
175059
191547
212062
109663
177129
236419
287756
202513
692185
625981
564284
818711
1.10548e+06
1.22594e+06
92053.4
95563.9
102212
100491
148278
94014.9
153997
1.20921e+06
1.24893e+06
1.15324e+06
975640
38104.8
713317
1.0895e+06
636019
491517
508917
629369
356888
357771
624001
368733
803700
84517.4
149162
168089
328055
135760
131399
153542
116511
134596
100530
115703
217447
225759
247988
240247
266237
273924
321068
326098
103598
106332
269011
191558
93792
116649
521811
809606
105215
436367
948961
271136
885146
369364
131457
911848
400596
337594
530673
1.00193e+06
1.31139e+06
525228
185330
1.11873e+06
154636
122126
109772
275093
75995.4
482896
799729
186841
301296
131894
109859
132668
1.19551e+06
186109
208345
202136
163538
467625
147306
124937
498177
109723
1.01314e+06
104870
594915
203022
218193
924087
714815
418347
793588
882734
360070
976023
307362
247243
706476
783072
968358
871676
248079
364336
421514
308658
1.11207e+06
123428
874307
104527
101024
99012.2
4995.87
37971.9
454252
59166.2
841758
154966
131586
281814
307921
254472
272305
150374
654124
149182
155618
630861
87431.5
226355
205986
203843
626755
565284
697404
293985
315034
126855
203150
350204
835758
68320.1
190153
125319
93721.5
280650
920722
471443
421047
948295
138489
490831
1.08263e+06
530276
966267
111537
1.06479e+06
141684
728290
234660
289298
104363
8767.76
88551.8
87858.7
15079.7
140513
800440
109049
869097
429758
143625
615588
590550
683598
655776
759889
729275
333365
322232
236476
229623
258590
184372
611154
554281
499384
168797
205645
185833
111129
542786
465147
85328.8
115423
94875
109349
111164
1.1001e+06
869182
207986
671024
605070
744908
104246
440816
731018
728256
113141
107519
907612
315871
119422
145119
172925
159358
111040
281905
254690
232431
919854
1.35654e+06
952975
626062
288992
213894
112503
121944
161623
125159
108793
105475
121978
320072
250011
98078.5
847496
952574
325575
330486
113472
119008
108244
105463
272201
901548
575917
432196
448984
534871
104548
97573.5
149472
97679.3
92620.4
154746
1.41095e+06
1.11157e+06
92257.5
118432
386647
335231
241012
754148
835829
611071
677173
488954
226080
188192
207922
119558
129437
1.01078e+06
234025
621455
69960.8
958988
97964.5
311784
354828
1.40046e+06
98499.1
316666
108868
297138
107708
194942
628990
258182
660909
417163
734842
817334
365620
907534
311820
260186
316819
260515
131542
366890
417022
536133
94394.1
148007
758615
347218
1.2574e+06
1.05061e+06
1.17623e+06
226377
876539
445336
304621
147745
118445
1.17328e+06
646771
92105.1
1.31546e+06
1.04975e+06
39842.8
327497
272856
52853.8
566410
398406
94728.1
101835
917974
1.26142e+06
105491
372609
382977
841130
814022
278029
285347
280510
291093
99953
102396
102831
98676.3
71502.6
1.35595e+06
984719
937842
1.17804e+06
419620
207521
867402
446346
494758
548419
71955.2
977964
159304
712408
1.07445e+06
308146
201556
1.32332e+06
297244
312485
225571
239597
638187
619038
142279
143381
83816
100821
207761
744283
670802
603032
298301
1.34572e+06
106080
144986
86748.6
593922
659157
366933
731889
316396
818537
271729
745252
603897
669470
826647
222694
382922
331892
278673
100382
124244
124576
141352
245102
200411
222426
1.03428e+06
416631
508560
1.00143e+06
131724
166682
100728
269940
359724
134068
173348
1.05296e+06
117914
99072.7
107995
109424
99913
78308.4
157341
109282
118454
838212
1.00875e+06
105114
90665.1
105267
183171
370674
1.13082e+06
1.04509e+06
506137
111839
109319
852154
106731
109815
1.36983e+06
491022
992207
243633
658228
370118
394494
128708
529520
662497
298666
219810
108142
231238
99776.3
62755.9
90207.6
1.11935e+06
538206
544092
1.00357e+06
168417
181923
109229
327173
102291
104522
119015
188556
176235
17814
174944
12258.5
105992
667892
183129
253740
548191
494097
444641
110036
1.20742e+06
435337
211417
982863
525407
555852
113200
11036.3
112343
11678.5
902218
269761
333673
410496
373700
98839.3
1.05828e+06
204334
156876
457043
349042
99654.9
23898.3
744206
147333
765146
171836
218180
420405
437090
363676
99574.1
355062
151558
180285
109136
117397
344186
357029
123598
199198
94237
95506.6
546724
261119
198232
108214
331826
8552.61
31908
329390
338689
275316
399301
475148
83861.6
1.24234e+06
1.31158e+06
151933
104971
108034
136864
153277
15735.4
152163
13628.5
591894
195532
264512
1.22227e+06
1.23766e+06
983724
961517
469653
415010
395574
354131
1.04405e+06
143150
272902
114350
88561.6
99681.1
185036
249973
352119
1.10976e+06
1.1309e+06
143951
74819.6
344531
380769
143291
588525
230674
197301
977470
109194
110739
135852
525607
521267
564572
358038
187503
254070
84981.9
79939.6
699782
88167.7
591114
77613.1
269022
432762
379759
701489
819604
107443
122267
216238
962439
5183.66
64727.1
19182.4
64636.4
159228
156019
81261.4
1.16657e+06
20927.4
1.1133e+06
290084
27892.9
9026.41
287959
166727
94196.8
10772.7
93547.9
211303
932859
208941
1.15551e+06
1.27171e+06
38599.4
314315
386487
351560
477621
219019
164818
535845
386867
70103.7
136692
189801
146290
325399
441483
136436
136813
1.22967e+06
374900
432111
411546
472861
789639
102393
84267.8
661207
823718
307716
139104
157125
99667.7
189431
234949
109427
137855
183043
106019
74103
716916
849684
149025
306300
242728
251414
817670
340521
158028
138838
326772
309137
88920.5
184457
829168
1.0092e+06
236339
173588
406325
501050
451996
79887.8
97307.5
178635
140679
771841
282002
83669.1
41300.6
47716
234185
174434
392594
483521
436822
104044
1.12997e+06
1.27556e+06
113227
99300.3
91951.6
87665
1.09932e+06
195781
160410
442204
1.36699e+06
1.12087e+06
269684
122480
266712
241071
159858
146078
173355
106054
107054
104658
213180
1.10574e+06
96527
497417
538834
942703
670142
653585
240797
236565
312172
317481
185838
172062
157830
92355.2
100556
368534
131496
1.00389e+06
659984
160644
98491.3
462677
1.31177e+06
94867.5
571782
474261
442654
590708
461015
190410
246916
598600
123592
438928
186945
203470
120536
284506
135414
170271
467984
224121
118599
105261
130359
546690
449692
127431
120437
122314
132299
102805
301306
230091
103354
221489
108890
134310
204591
1.19322e+06
1.05192e+06
735698
183739
148097
407776
367725
331283
174924
186328
83779.7
653505
106133
296546
399819
140783
163668
1.08147e+06
75581.6
186618
172718
102336
1.11335e+06
71877.7
111151
263783
313740
120646
112173
129468
96797.7
103307
724154
96443.2
89032.7
10999.5
88392.5
718924
650069
1.22106e+06
810661
975802
112519
1.01979e+06
655106
9953.03
72208.5
155030
132527
255386
279874
308708
418679
216952
930279
491571
546252
108604
88435.7
83688.1
98368.3
109748
103713
138108
587572
72705.9
1.21334e+06
313122
115628
597909
361595
192142
259862
136361
117274
161984
257263
158586
340490
324131
127563
108471
377598
628852
78772.2
80354.7
136564
83674.3
96788.1
981920
214399
171505
499604
919454
258503
163385
377917
335150
368257
302018
184138
143759
102039
5856.05
46310.4
366975
304616
422811
937836
761115
845661
303917
362432
949842
854567
420166
769906
135238
209375
173914
194916
100256
135309
115910
330318
154234
134344
141073
242467
703884
322108
103680
128847
93466.9
105326
140047
204516
104848
96356.2
83924.2
530943
186702
238243
172518
215769
453502
384072
434085
349412
661487
191239
122481
187753
379910
284430
149433
192508
267660
103487
187489
116205
114439
307865
306326
127997
404073
134144
135295
768705
644326
95839.1
113846
1.07371e+06
90935.5
134367
86210.8
131531
158515
488450
439422
393709
259078
257844
504629
128816
102803
102988
718446
136901
126169
144470
133960
116179
126077
82226.9
112251
841943
825846
233993
187416
110208
545702
469550
189218
253320
355769
106643
73620.8
103253
1.0884e+06
356780
425535
60947.8
307476
131895
56116.2
123425
137107
131345
300796
103806
192349
154428
108891
1.31902e+06
202522
593317
166649
1.01168e+06
383193
450870
237074
180873
579904
84904.9
106172
112164
211592
262924
196997
128730
75511.4
61988.5
460204
188666
152377
89759.1
92816.9
96805.8
95979.3
210073
171343
190942
55166.4
99691.4
952178
96310.2
1.33514e+06
263681
141699
510608
114141
91760.2
380197
133801
126952
593554
100252
354615
743373
669825
821164
91426.4
148709
240789
763276
722809
192430
99983.6
205791
208463
290865
337403
646016
290380
329440
722382
638283
702673
523854
581236
517435
574076
922105
221359
151795
1.10517e+06
97541.9
116882
384233
934877
275110
153923
125813
95579.3
86685.6
109732
119814
91856.9
726299
173608
218610
406642
107041
496461
123947
194094
201525
309042
115297
105987
132846
102995
100218
136864
126233
117308
1.10933e+06
121568
99323.2
206789
264208
77984.9
145689
146879
815760
156584
119826
111240
116934
108641
1.0907e+06
177325
166805
401649
173672
146027
1.04881e+06
790755
835006
255246
111789
927169
273597
309462
134515
528260
424711
563691
456351
682144
357795
893902
589076
776432
584236
375487
299746
88936.3
103932
944577
90429
101112
99494.7
103069
99174.6
87490.2
518263
540685
125941
269750
26051.8
3590.29
267764
124804
80443.6
925217
295276
411707
163833
141290
156443
118686
129303
227415
259151
101312
129674
330076
233371
174017
318749
558297
470807
84186
489794
411292
1.29062e+06
737168
437934
818658
911074
378376
1.00749e+06
323176
262215
729648
808594
900440
1.00041e+06
381116
261284
439877
325060
101852
466857
76990.8
600620
596233
1.29711e+06
114314
239250
688551
109660
410877
74637.5
84333.7
679600
102466
152151
380849
493031
1.0966e+06
191698
214228
237408
109969
179009
228487
505447
211635
124696
106238
107232
113339
1.06032e+06
481207
468434
912050
887611
181372
164524
234645
210523
463171
426653
799987
927648
550322
610225
679443
759479
211712
345797
257312
300628
764856
686445
619758
558977
208059
248422
292503
334523
124739
158022
694083
994919
181976
156341
187899
403144
458402
415484
372790
322211
167962
223878
1.38312e+06
85939.7
149653
563971
853931
731787
268099
335031
117207
39829.1
142108
763469
276236
1.20327e+06
125881
155248
710302
893719
94276.9
551975
612786
496810
1.14364e+06
369414
163360
202797
290194
145306
168151
374993
562017
250184
565664
467255
152520
387780
478843
430882
171502
238538
1.31376e+06
1.05783e+06
155939
124433
1.00802e+06
125213
182159
190959
242023
251540
512868
525271
169290
133262
360533
327691
295494
412920
96104.5
711039
964588
425163
99152.8
110775
933940
435569
417175
519053
501290
942368
183330
249050
169093
130244
117441
226128
566042
120613
104518
119704
1.23887e+06
959539
304513
153645