/*--------------------------------*- C++ -*----------------------------------*\
| =========                 |                                                 |
| \\      /  F ield         | OpenFOAM: The Open Source CFD Toolbox           |
|  \\    /   O peration     | Version:  2.3.1                                 |
|   \\  /    A nd           | Web:      www.OpenFOAM.org                      |
|    \\/     M anipulation  |                                                 |
\*---------------------------------------------------------------------------*/
FoamFile
{
    version     2.0;
    format      ascii;
    class       volScalarField;
    location    "0.54";
    object      epsilon;
}
// * * * * * * * * * * * * * * * * * * * * * * * * * * * * * * * * * * * * * //

dimensions      [0 2 -3 0 0 0 0];

internalField   nonuniform List<scalar> 
1000
(
0.00103911
0.00107466
0.00107521
0.00107515
0.00107512
0.00107512
0.0010751
0.0010751
0.00107504
0.00107204
0.00107535
0.0010793
0.0010795
0.00107948
0.00107947
0.00107946
0.00107945
0.00107944
0.00107918
0.00107275
0.00107679
0.0010805
0.00108075
0.00108074
0.00108073
0.00108072
0.0010807
0.00108069
0.0010804
0.00107361
0.00107779
0.00108182
0.00108212
0.00108213
0.00108213
0.00108212
0.0010821
0.00108208
0.00108177
0.00107478
0.00107931
0.00108388
0.00108425
0.00108432
0.00108433
0.00108431
0.00108431
0.00108424
0.00108392
0.00107643
0.00107447
0.00107848
0.00107886
0.00107893
0.00107896
0.00107897
0.00107897
0.00107897
0.00107874
0.00107281
0.00107904
0.000671475
0.000654386
0.000653763
0.0006537
0.000653672
0.000653653
0.00065397
0.000669966
0.00107738
0.00108013
0.000652549
0.000634552
0.000633989
0.000633974
0.000633971
0.000633971
0.000634336
0.000651432
0.00107845
0.00108118
0.000651937
0.000633953
0.000633399
0.000633389
0.000633387
0.00063339
0.000633759
0.000650961
0.00107953
0.00108264
0.000652336
0.000634289
0.000633747
0.00063374
0.00063374
0.000633742
0.000634106
0.000651431
0.00108104
0.00107603
0.00107938
0.00107972
0.00107979
0.00107983
0.00107985
0.00107985
0.00107985
0.00107961
0.00107346
0.00107973
0.000654291
0.000636348
0.000635743
0.000635702
0.000635683
0.000635671
0.00063602
0.000653009
0.00107823
0.0010807
0.000634884
0.000615725
0.000615115
0.000615101
0.0006151
0.000615103
0.000615499
0.000633676
0.00107922
0.00108167
0.000634334
0.000615139
0.000614532
0.000614521
0.00061452
0.000614523
0.000614922
0.000633189
0.00108017
0.00108294
0.000634653
0.000615414
0.000614813
0.000614804
0.000614802
0.000614805
0.000615201
0.000633548
0.00108146
0.00107665
0.00107991
0.00108021
0.00108027
0.0010803
0.00108032
0.00108032
0.00108032
0.00108008
0.00107392
0.00108018
0.000652957
0.000635109
0.000634537
0.00063451
0.000634499
0.000634493
0.000634848
0.000651907
0.00107865
0.00108103
0.00063422
0.000615086
0.00061448
0.000614467
0.000614466
0.00061447
0.000614867
0.000633082
0.00107955
0.00108189
0.000633731
0.000614548
0.000613942
0.00061393
0.00061393
0.000613934
0.000614332
0.000632614
0.00108039
0.00108301
0.000633951
0.000614747
0.000614145
0.000614134
0.000614133
0.000614135
0.000614531
0.000632852
0.0010815
0.00107698
0.00108021
0.00108048
0.00108052
0.00108054
0.00108056
0.00108056
0.00108056
0.00108032
0.00107415
0.00108044
0.000652158
0.000634354
0.000633797
0.000633777
0.00063377
0.000633769
0.000634129
0.000651223
0.00107887
0.00108121
0.000634096
0.000615009
0.000614407
0.000614394
0.000614394
0.000614399
0.000614795
0.000633007
0.00107972
0.00108202
0.000633659
0.000614526
0.000613924
0.000613912
0.000613911
0.000613915
0.000614311
0.000632572
0.0010805
0.00108304
0.000633825
0.000614692
0.000614093
0.000614081
0.000614081
0.000614082
0.000614475
0.000632745
0.00108151
0.00107705
0.00108032
0.00108059
0.00108062
0.00108064
0.00108065
0.00108066
0.00108065
0.00108041
0.00107417
0.00108052
0.000651691
0.000633915
0.000633373
0.000633362
0.000633363
0.000633369
0.000633733
0.000650847
0.00107891
0.0010813
0.000634052
0.000615
0.000614403
0.000614392
0.000614393
0.000614398
0.000614793
0.000633002
0.00107978
0.00108212
0.00063366
0.000614568
0.000613971
0.00061396
0.00061396
0.000613965
0.000614358
0.000632605
0.00108059
0.00108317
0.000633823
0.000614742
0.000614148
0.000614138
0.000614138
0.000614139
0.000614529
0.000632769
0.00108162
0.00107689
0.0010803
0.00108056
0.00108059
0.00108061
0.00108061
0.00108062
0.00108061
0.00108036
0.00107397
0.00108043
0.000651667
0.000633911
0.00063337
0.00063336
0.000633361
0.000633366
0.00063373
0.000650843
0.00107879
0.00108132
0.000634109
0.000615081
0.000614486
0.000614475
0.000614476
0.000614481
0.000614874
0.000633075
0.00107977
0.00108226
0.000633769
0.000614698
0.000614104
0.000614094
0.000614095
0.000614098
0.000614487
0.000632721
0.0010807
0.00108344
0.000633991
0.000614935
0.000614345
0.000614336
0.000614336
0.000614335
0.000614719
0.000632935
0.00108185
0.00107649
0.00108003
0.0010803
0.00108032
0.00108033
0.00108034
0.00108034
0.00108033
0.00108008
0.00107355
0.00108014
0.000652149
0.00063444
0.000633902
0.000633892
0.000633893
0.000633898
0.000634261
0.000651343
0.00107848
0.00108118
0.000634747
0.000615775
0.000615186
0.000615176
0.000615177
0.000615181
0.000615571
0.000633728
0.00107961
0.00108231
0.000634548
0.000615547
0.000614961
0.000614954
0.000614955
0.000614956
0.000615338
0.000633515
0.00108071
0.00108374
0.000635048
0.000616091
0.000615515
0.00061551
0.000615512
0.000615504
0.000615874
0.000634004
0.00108211
0.00107583
0.00107927
0.00107952
0.00107955
0.00107956
0.00107956
0.00107956
0.00107955
0.0010793
0.00107286
0.00107945
0.000670598
0.000653995
0.000653509
0.000653508
0.000653513
0.000653517
0.000653852
0.000670006
0.00107771
0.00108065
0.00065497
0.000637269
0.000636748
0.000636751
0.000636757
0.000636755
0.000637106
0.000654196
0.00107898
0.00108198
0.000656078
0.00063844
0.000637942
0.000637954
0.000637962
0.000637948
0.000638271
0.000655294
0.00108028
0.00108372
0.000659097
0.000641707
0.00064126
0.000641289
0.000641294
0.000641259
0.000641531
0.000658317
0.00108198
0.00107214
0.00107223
0.00107224
0.00107225
0.00107225
0.00107226
0.00107226
0.00107225
0.00107219
0.00106901
0.00107306
0.00107723
0.00107756
0.00107758
0.00107759
0.00107759
0.00107759
0.00107758
0.00107729
0.00107001
0.00107421
0.00107868
0.00107906
0.0010791
0.00107911
0.00107912
0.0010791
0.00107907
0.00107874
0.00107115
0.0010757
0.0010802
0.00108061
0.00108066
0.00108068
0.00108069
0.00108066
0.00108061
0.00108022
0.00107263
0.00107795
0.00108246
0.00108292
0.00108299
0.00108302
0.00108302
0.00108298
0.00108289
0.00108245
0.00107489
0.00108409
0.00108772
0.00108818
0.00108827
0.00108829
0.00108829
0.00108825
0.00108815
0.00108761
0.00108111
0.00109088
0.00109785
0.00109844
0.00109846
0.00109841
0.00109841
0.00109847
0.00109838
0.00109795
0.00108818
0.00114198
0.00122333
0.00122467
0.0012219
0.0012209
0.0012209
0.00122171
0.00122445
0.00122544
0.00114154
0.00174714
0.00288039
0.00291456
0.00288198
0.00287013
0.00286929
0.00287928
0.00291029
0.00290617
0.0017764
0.00671304
0.0157823
0.0166362
0.0166583
0.0166531
0.0166468
0.0166372
0.0166018
0.0159398
0.00688437
0.00108542
0.000665992
0.00064929
0.000648954
0.00064901
0.000649012
0.000648952
0.000649117
0.000665286
0.00108368
0.00108828
0.000682793
0.000667559
0.000667487
0.000667579
0.000667582
0.00066749
0.000667425
0.000682338
0.00108666
0.00109757
0.000762085
0.000752832
0.000754067
0.000754474
0.000754484
0.000754086
0.000752868
0.000762734
0.00109631
0.00125908
0.00153522
0.00155969
0.0015589
0.00155811
0.00155786
0.0015583
0.00155949
0.00155442
0.00126699
0.0102968
0.045087
0.0474568
0.047286
0.0471856
0.0471691
0.0472335
0.0473997
0.0457206
0.0106819
0.0010844
0.000635749
0.000616862
0.000616305
0.000616305
0.000616304
0.000616291
0.000616637
0.00063471
0.00108281
0.001086
0.000637272
0.000618548
0.000618021
0.000618022
0.000618023
0.000618009
0.00061833
0.00063629
0.0010845
0.00108865
0.000655666
0.000638902
0.000638917
0.000639072
0.000639077
0.000638922
0.000638768
0.000655108
0.0010873
0.00119858
0.00142595
0.00145578
0.00145824
0.00145856
0.00145846
0.00145804
0.00145652
0.00144094
0.00120416
0.0108927
0.0464756
0.0484196
0.0483606
0.0483055
0.048297
0.048337
0.0484288
0.0471438
0.0113064
0.00108357
0.000633703
0.000614601
0.000614008
0.000613998
0.000613996
0.000613993
0.000614374
0.000632632
0.00108201
0.00108467
0.000633684
0.000614571
0.000613972
0.000613957
0.000613956
0.000613957
0.000614346
0.000632628
0.00108316
0.00108614
0.000641269
0.000622813
0.00062232
0.000622338
0.000622339
0.000622314
0.000622623
0.000640439
0.00108473
0.00118901
0.00139606
0.00142175
0.00142358
0.00142378
0.00142374
0.00142354
0.00142283
0.00141108
0.00119418
0.0113291
0.0490476
0.0510668
0.0510947
0.0510713
0.0510676
0.0510867
0.0511137
0.0497924
0.0117763
0.00108308
0.000633388
0.000614243
0.000613642
0.00061363
0.000613629
0.000613629
0.00061402
0.00063232
0.00108153
0.00108403
0.000633298
0.000614131
0.000613523
0.000613508
0.000613506
0.000613509
0.00061391
0.000632236
0.00108252
0.00108537
0.000639366
0.000620701
0.000620146
0.000620145
0.000620146
0.000620139
0.000620507
0.000638492
0.00108393
0.00118725
0.00139452
0.001419
0.00142069
0.0014209
0.0014209
0.00142075
0.00142025
0.00140972
0.00119235
0.0115255
0.0501776
0.0522557
0.0523308
0.052326
0.0523254
0.0523322
0.0523224
0.0509593
0.0119887
0.00108295
0.000633422
0.0006142
0.000613596
0.000613584
0.000613582
0.000613582
0.000613979
0.000632334
0.00108142
0.001084
0.000633434
0.000614135
0.000613523
0.000613508
0.000613506
0.000613511
0.000613916
0.00063236
0.00108249
0.00108559
0.000640092
0.000621415
0.000620903
0.00062092
0.000620921
0.000620899
0.000621229
0.000639222
0.00108412
0.00121839
0.00161417
0.00166615
0.00168023
0.00168541
0.00168555
0.00168096
0.00166907
0.00163523
0.00122528
0.0115784
0.0503011
0.0523782
0.0524643
0.0524654
0.0524654
0.0524696
0.0524533
0.0510947
0.0120503
0.0010831
0.000633733
0.00061439
0.000613786
0.000613777
0.000613775
0.000613776
0.000614173
0.000632641
0.00108161
0.00108447
0.000633987
0.000614418
0.000613805
0.000613792
0.000613794
0.000613796
0.000614211
0.000632912
0.00108294
0.00108676
0.00064463
0.000626198
0.000625909
0.000626009
0.000626011
0.000625919
0.000626032
0.000643852
0.0010853
0.00129398
0.00202253
0.00212811
0.00216817
0.0021834
0.00218382
0.00217012
0.00213418
0.00205289
0.00130494
0.0115734
0.049748
0.0517624
0.0518426
0.0518442
0.0518441
0.0518516
0.051845
0.0505438
0.0120577
0.00108343
0.000634675
0.000615199
0.000614606
0.0006146
0.000614602
0.000614598
0.000614994
0.000633593
0.00108195
0.00108515
0.000635872
0.000615944
0.000615354
0.000615352
0.000615352
0.000615354
0.000615738
0.00063481
0.0010836
0.00108973
0.000658856
0.000641256
0.000641612
0.000641949
0.000641961
0.000641634
0.000641155
0.000658237
0.00108826
0.00141839
0.00215317
0.00230771
0.0023951
0.00242844
0.00242929
0.00239907
0.00231684
0.00217745
0.00143435
0.0114735
0.0476897
0.0495382
0.0496152
0.0496213
0.0496223
0.0496291
0.0496315
0.0484523
0.0119726
0.0010837
0.000652209
0.000633667
0.000633123
0.000633121
0.000633121
0.000633123
0.000633489
0.000651327
0.00108216
0.00108574
0.00065802
0.000639122
0.000638728
0.000638786
0.000638792
0.00063873
0.000638957
0.000657201
0.00108406
0.00109572
0.000704813
0.000688245
0.000689082
0.000689607
0.000689616
0.000689114
0.000688184
0.000704462
0.00109434
0.00131681
0.00141825
0.00144981
0.00146084
0.00146477
0.00146479
0.00146126
0.0014515
0.00143148
0.00132264
0.010481
0.0382681
0.0396792
0.0398584
0.0399177
0.0399207
0.0398798
0.0397664
0.0387856
0.0108968
0.00107871
0.00108566
0.00108638
0.00108649
0.00108653
0.00108655
0.00108648
0.00108643
0.0010858
0.00107571
0.00108052
0.00108967
0.00109056
0.00109067
0.00109071
0.00109069
0.00109067
0.00109058
0.00108972
0.00107747
0.00109926
0.00111535
0.00111727
0.00111771
0.00111782
0.00111779
0.00111776
0.00111723
0.00111562
0.00109655
0.00116294
0.00125589
0.00126928
0.00127187
0.00127266
0.00127274
0.00127198
0.00126987
0.00125871
0.00116271
0.00521709
0.00910346
0.00932127
0.00937058
0.00938739
0.00938797
0.00937486
0.00933412
0.00916502
0.00530748
)
;

boundaryField
{
    walls
    {
        type            epsilonWallFunction;
        value           nonuniform List<scalar> 
500
(
0.00103911
0.00103911
0.00103911
0.00107466
0.00107466
0.00107521
0.00107521
0.00107515
0.00107515
0.00107512
0.00107512
0.00107512
0.00107512
0.0010751
0.0010751
0.0010751
0.0010751
0.00107504
0.00107504
0.00107204
0.00107204
0.00107204
0.00107535
0.00107535
0.0010793
0.0010795
0.00107948
0.00107947
0.00107946
0.00107945
0.00107944
0.00107918
0.00107275
0.00107275
0.00107679
0.00107679
0.0010805
0.00108075
0.00108074
0.00108073
0.00108072
0.0010807
0.00108069
0.0010804
0.00107361
0.00107361
0.00107779
0.00107779
0.00108182
0.00108212
0.00108213
0.00108213
0.00108212
0.0010821
0.00108208
0.00108177
0.00107478
0.00107478
0.00107931
0.00107931
0.00108388
0.00108425
0.00108432
0.00108433
0.00108431
0.00108431
0.00108424
0.00108392
0.00107643
0.00107643
0.00107447
0.00107447
0.00107848
0.00107886
0.00107893
0.00107896
0.00107897
0.00107897
0.00107897
0.00107874
0.00107281
0.00107281
0.00107904
0.00107738
0.00108013
0.00107845
0.00108118
0.00107953
0.00108264
0.00108104
0.00107603
0.00107603
0.00107938
0.00107972
0.00107979
0.00107983
0.00107985
0.00107985
0.00107985
0.00107961
0.00107346
0.00107346
0.00107973
0.00107823
0.0010807
0.00107922
0.00108167
0.00108017
0.00108294
0.00108146
0.00107665
0.00107665
0.00107991
0.00108021
0.00108027
0.0010803
0.00108032
0.00108032
0.00108032
0.00108008
0.00107392
0.00107392
0.00108018
0.00107865
0.00108103
0.00107955
0.00108189
0.00108039
0.00108301
0.0010815
0.00107698
0.00107698
0.00108021
0.00108048
0.00108052
0.00108054
0.00108056
0.00108056
0.00108056
0.00108032
0.00107415
0.00107415
0.00108044
0.00107887
0.00108121
0.00107972
0.00108202
0.0010805
0.00108304
0.00108151
0.00107705
0.00107705
0.00108032
0.00108059
0.00108062
0.00108064
0.00108065
0.00108066
0.00108065
0.00108041
0.00107417
0.00107417
0.00108052
0.00107891
0.0010813
0.00107978
0.00108212
0.00108059
0.00108317
0.00108162
0.00107689
0.00107689
0.0010803
0.00108056
0.00108059
0.00108061
0.00108061
0.00108062
0.00108061
0.00108036
0.00107397
0.00107397
0.00108043
0.00107879
0.00108132
0.00107977
0.00108226
0.0010807
0.00108344
0.00108185
0.00107649
0.00107649
0.00108003
0.0010803
0.00108032
0.00108033
0.00108034
0.00108034
0.00108033
0.00108008
0.00107355
0.00107355
0.00108014
0.00107848
0.00108118
0.00107961
0.00108231
0.00108071
0.00108374
0.00108211
0.00107583
0.00107583
0.00107927
0.00107952
0.00107955
0.00107956
0.00107956
0.00107956
0.00107955
0.0010793
0.00107286
0.00107286
0.00107945
0.00107771
0.00108065
0.00107898
0.00108198
0.00108028
0.00108372
0.00108198
0.00107214
0.00107214
0.00107214
0.00107223
0.00107223
0.00107224
0.00107224
0.00107225
0.00107225
0.00107225
0.00107225
0.00107226
0.00107226
0.00107226
0.00107226
0.00107225
0.00107225
0.00107219
0.00107219
0.00106901
0.00106901
0.00106901
0.00107306
0.00107306
0.00107723
0.00107756
0.00107758
0.00107759
0.00107759
0.00107759
0.00107758
0.00107729
0.00107001
0.00107001
0.00107421
0.00107421
0.00107868
0.00107906
0.0010791
0.00107911
0.00107912
0.0010791
0.00107907
0.00107874
0.00107115
0.00107115
0.0010757
0.0010757
0.0010802
0.00108061
0.00108066
0.00108068
0.00108069
0.00108066
0.00108061
0.00108022
0.00107263
0.00107263
0.00107795
0.00107795
0.00108246
0.00108292
0.00108299
0.00108302
0.00108302
0.00108298
0.00108289
0.00108245
0.00107489
0.00107489
0.00108409
0.00108409
0.00108772
0.00108818
0.00108827
0.00108829
0.00108829
0.00108825
0.00108815
0.00108761
0.00108111
0.00108111
0.00109088
0.00109088
0.00109785
0.00109844
0.00109846
0.00109841
0.00109841
0.00109847
0.00109838
0.00109795
0.00108818
0.00108818
0.00114198
0.00114198
0.00122333
0.00122467
0.0012219
0.0012209
0.0012209
0.00122171
0.00122445
0.00122544
0.00114154
0.00114154
0.00174714
0.00174714
0.00288039
0.00291456
0.00288198
0.00287013
0.00286929
0.00287928
0.00291029
0.00290617
0.0017764
0.0017764
0.00671304
0.00671304
0.0157823
0.0166362
0.0166583
0.0166531
0.0166468
0.0166372
0.0166018
0.0159398
0.00688437
0.00688437
0.00108542
0.00108368
0.00108828
0.00108666
0.00109757
0.00109631
0.00125908
0.00126699
0.0102968
0.0106819
0.0010844
0.00108281
0.001086
0.0010845
0.00108865
0.0010873
0.00119858
0.00120416
0.0108927
0.0113064
0.00108357
0.00108201
0.00108467
0.00108316
0.00108614
0.00108473
0.00118901
0.00119418
0.0113291
0.0117763
0.00108308
0.00108153
0.00108403
0.00108252
0.00108537
0.00108393
0.00118725
0.00119235
0.0115255
0.0119887
0.00108295
0.00108142
0.001084
0.00108249
0.00108559
0.00108412
0.00121839
0.00122528
0.0115784
0.0120503
0.0010831
0.00108161
0.00108447
0.00108294
0.00108676
0.0010853
0.00129398
0.00130494
0.0115734
0.0120577
0.00108343
0.00108195
0.00108515
0.0010836
0.00108973
0.00108826
0.00141839
0.00143435
0.0114735
0.0119726
0.0010837
0.00108216
0.00108574
0.00108406
0.00109572
0.00109434
0.00131681
0.00132264
0.010481
0.0108968
0.00107871
0.00107871
0.00108566
0.00108638
0.00108649
0.00108653
0.00108655
0.00108648
0.00108643
0.0010858
0.00107571
0.00107571
0.00108052
0.00108052
0.00108967
0.00109056
0.00109067
0.00109071
0.00109069
0.00109067
0.00109058
0.00108972
0.00107747
0.00107747
0.00109926
0.00109926
0.00111535
0.00111727
0.00111771
0.00111782
0.00111779
0.00111776
0.00111723
0.00111562
0.00109655
0.00109655
0.00116294
0.00116294
0.00125589
0.00126928
0.00127187
0.00127266
0.00127274
0.00127198
0.00126987
0.00125871
0.00116271
0.00116271
0.00521709
0.00521709
0.00910346
0.00932127
0.00937058
0.00938739
0.00938797
0.00937486
0.00933412
0.00916502
0.00530748
0.00530748
)
;
        Cmu             0.09;
        kappa           0.41;
        E               9.8;
    }
    lid
    {
        type            epsilonWallFunction;
        value           nonuniform List<scalar> 
100
(
0.00671304
0.0157823
0.0166362
0.0166583
0.0166531
0.0166468
0.0166372
0.0166018
0.0159398
0.00688437
0.0102968
0.045087
0.0474568
0.047286
0.0471856
0.0471691
0.0472335
0.0473997
0.0457206
0.0106819
0.0108927
0.0464756
0.0484196
0.0483606
0.0483055
0.048297
0.048337
0.0484288
0.0471438
0.0113064
0.0113291
0.0490476
0.0510668
0.0510947
0.0510713
0.0510676
0.0510867
0.0511137
0.0497924
0.0117763
0.0115255
0.0501776
0.0522557
0.0523308
0.052326
0.0523254
0.0523322
0.0523224
0.0509593
0.0119887
0.0115784
0.0503011
0.0523782
0.0524643
0.0524654
0.0524654
0.0524696
0.0524533
0.0510947
0.0120503
0.0115734
0.049748
0.0517624
0.0518426
0.0518442
0.0518441
0.0518516
0.051845
0.0505438
0.0120577
0.0114735
0.0476897
0.0495382
0.0496152
0.0496213
0.0496223
0.0496291
0.0496315
0.0484523
0.0119726
0.010481
0.0382681
0.0396792
0.0398584
0.0399177
0.0399207
0.0398798
0.0397664
0.0387856
0.0108968
0.00521709
0.00910346
0.00932127
0.00937058
0.00938739
0.00938797
0.00937486
0.00933412
0.00916502
0.00530748
)
;
        Cmu             0.09;
        kappa           0.41;
        E               9.8;
    }
}


// ************************************************************************* //
