/*--------------------------------*- C++ -*----------------------------------*\
| =========                 |                                                 |
| \\      /  F ield         | OpenFOAM: The Open Source CFD Toolbox           |
|  \\    /   O peration     | Version:  2.3.1                                 |
|   \\  /    A nd           | Web:      www.OpenFOAM.org                      |
|    \\/     M anipulation  |                                                 |
\*---------------------------------------------------------------------------*/
FoamFile
{
    version     2.0;
    format      ascii;
    class       volScalarField;
    location    "0.54";
    object      p;
}
// * * * * * * * * * * * * * * * * * * * * * * * * * * * * * * * * * * * * * //

dimensions      [0 2 -2 0 0 0 0];

internalField   nonuniform List<scalar> 
1000
(
-0.00402124
-0.00315794
-0.00275531
-0.00258453
-0.00248391
-0.00243001
-0.0024088
-0.00241169
-0.0024311
-0.00245873
-0.00381578
-0.0035338
-0.0033097
-0.00317858
-0.00309689
-0.00305022
-0.00303219
-0.00303683
-0.0030568
-0.0030879
-0.00477207
-0.00468022
-0.0045737
-0.00449282
-0.00443711
-0.00440205
-0.00438722
-0.0043892
-0.00440451
-0.00443047
-0.00677069
-0.00674894
-0.00671373
-0.0066827
-0.00665563
-0.00663197
-0.00661423
-0.006603
-0.00660129
-0.00660985
-0.00990881
-0.0099665
-0.0100024
-0.0100263
-0.0100312
-0.010016
-0.00998439
-0.00994249
-0.00990316
-0.00985358
-0.00261523
-0.00236694
-0.00215036
-0.00202094
-0.00193756
-0.0018888
-0.00186863
-0.00186998
-0.00188645
-0.00190743
-0.00295149
-0.0028151
-0.00267076
-0.00256573
-0.00249545
-0.00245283
-0.00243559
-0.00243849
-0.0024552
-0.00247802
-0.00396348
-0.00390461
-0.00382545
-0.00375785
-0.00370836
-0.00367574
-0.00366128
-0.00366169
-0.00367314
-0.00368937
-0.00577736
-0.00577396
-0.00574952
-0.00572283
-0.00569805
-0.00567576
-0.00565858
-0.00564652
-0.00564271
-0.00563582
-0.00853027
-0.00860246
-0.00863672
-0.00865985
-0.00866367
-0.00864829
-0.00861938
-0.00857927
-0.0085397
-0.00847454
-0.00121453
-0.00113245
-0.00101882
-0.000930762
-0.00086751
-0.000826886
-0.000808531
-0.000807855
-0.00082071
-0.000837035
-0.00159893
-0.00153797
-0.00145196
-0.00137687
-0.00132149
-0.00128527
-0.00126933
-0.00127015
-0.00128305
-0.00130051
-0.00247934
-0.0024481
-0.00239486
-0.00234302
-0.00230196
-0.00227329
-0.00225978
-0.00225877
-0.00226781
-0.00227893
-0.00395975
-0.00396196
-0.00394445
-0.00392179
-0.00389944
-0.00387881
-0.00386338
-0.00385342
-0.00384864
-0.0038414
-0.00615275
-0.00621173
-0.00623818
-0.00625323
-0.00625315
-0.00623885
-0.00621476
-0.00618136
-0.00614927
-0.00609277
0.000397785
0.000438634
0.000503698
0.000564886
0.00061274
0.000645822
0.000661527
0.000665617
0.000655873
0.00064281
0.000113513
0.000148143
0.000202474
0.000256226
0.000299279
0.000329342
0.000343829
0.000345278
0.000335743
0.000321248
-0.000510457
-0.000488419
-0.000450755
-0.00041055
-0.000376711
-0.00035232
-0.000338806
-0.000337417
-0.000344263
-0.000355112
-0.00153471
-0.00153275
-0.00151655
-0.00149504
-0.00147379
-0.00145477
-0.00144164
-0.0014333
-0.0014318
-0.00142915
-0.00303315
-0.00306397
-0.00307774
-0.00308234
-0.0030776
-0.00306357
-0.00304354
-0.00302068
-0.00299576
-0.00296449
0.00222421
0.00224804
0.00228919
0.00233262
0.00236943
0.00239652
0.00241115
0.00241545
0.00240982
0.0024001
0.00208492
0.00210708
0.00214404
0.0021839
0.00221804
0.0022432
0.00225643
0.00225952
0.00225361
0.00224321
0.00178308
0.00179986
0.00182947
0.00186253
0.00189164
0.00191341
0.00192466
0.00192788
0.00192248
0.00191412
0.00128741
0.00129619
0.00131458
0.00133769
0.00135957
0.0013774
0.00138864
0.00139364
0.00139371
0.00139161
0.000571232
0.000560079
0.00056178
0.000569182
0.000581419
0.00059603
0.000609426
0.000624612
0.000635829
0.000652591
0.00413792
0.00415606
0.00418611
0.00421939
0.00424915
0.00427184
0.00428512
0.00429028
0.0042876
0.00428059
0.00416609
0.00418297
0.00421209
0.00424432
0.00427307
0.00429467
0.00430678
0.00431079
0.00430731
0.00430083
0.00421934
0.004236
0.00426353
0.00429453
0.00432164
0.00434136
0.00435153
0.00435367
0.0043489
0.00434207
0.00428993
0.00430634
0.00433266
0.00436135
0.00438654
0.00440432
0.0044122
0.00441309
0.00440716
0.0044002
0.00436993
0.00438705
0.004409
0.00443498
0.00445755
0.00447298
0.00448061
0.00448002
0.00447744
0.00447043
0.00598703
0.00600446
0.00603049
0.006059
0.00608539
0.00610505
0.00611701
0.00612243
0.00612114
0.00611532
0.00618927
0.00620615
0.0062336
0.00626339
0.00628998
0.00630933
0.00632009
0.00632367
0.00632054
0.00631562
0.00660972
0.006631
0.0066631
0.00669646
0.00672464
0.00674341
0.00675133
0.00675061
0.00674251
0.00673377
0.00725603
0.00728884
0.00732962
0.00736964
0.00740105
0.00741904
0.00742278
0.00741455
0.0073981
0.00737882
0.00813298
0.00818429
0.00823634
0.0082862
0.00832228
0.00833985
0.0083375
0.00831889
0.00829152
0.00825401
0.00760393
0.00762331
0.00764951
0.00767738
0.00770219
0.00772028
0.00773107
0.00773564
0.00773415
0.00772764
0.00797542
0.00799661
0.0080272
0.00805868
0.00808551
0.00810366
0.00811265
0.00811398
0.00810857
0.00810123
0.00875629
0.00878991
0.00883269
0.00887361
0.00890556
0.00892392
0.00892851
0.00892136
0.00890512
0.008887
0.00997894
0.0100418
0.0101076
0.0101662
0.0102073
0.0102261
0.0102226
0.0101993
0.0101623
0.0101165
0.0116578
0.0117762
0.0118762
0.0119616
0.0120164
0.0120356
0.0120197
0.0119704
0.0119018
0.0118015
0.00881977
0.00884019
0.00886814
0.00889721
0.00892209
0.00893957
0.00894917
0.00895234
0.00894949
0.00894303
0.00933901
0.00936342
0.00939911
0.0094344
0.00946291
0.00948065
0.00948777
0.00948564
0.00947635
0.00946726
0.0104477
0.0104945
0.0105518
0.0106034
0.0106407
0.0106593
0.0106595
0.0106432
0.0106152
0.0105858
0.0122273
0.0123305
0.0124314
0.0125146
0.012568
0.0125877
0.0125747
0.01253
0.0124622
0.0123788
0.0147565
0.0149872
0.0151635
0.0152996
0.0153782
0.0153992
0.0153636
0.015269
0.0151304
0.014922
0.00947021
0.00948781
0.00951703
0.00954731
0.00957293
0.00959018
0.00959929
0.00960073
0.00959661
0.00959308
0.0100865
0.0101098
0.0101496
0.0101882
0.0102184
0.0102364
0.010242
0.0102366
0.0102235
0.0102157
0.0114302
0.0114851
0.0115552
0.011616
0.0116578
0.0116769
0.0116735
0.011649
0.0116088
0.0115721
0.0136844
0.0138299
0.0139662
0.0140719
0.0141354
0.014156
0.0141347
0.0140691
0.0139683
0.013844
0.0171813
0.0175776
0.0178469
0.0180335
0.0181325
0.0181552
0.0181008
0.0179596
0.0177341
0.0173633
0.0225985
0.0237229
0.0242532
0.0245807
0.0247338
0.0247568
0.0246511
0.0243737
0.0239034
0.0228123
0.0325298
0.0347465
0.0358492
0.0365631
0.0368657
0.03689
0.0366404
0.0359822
0.0349704
0.0327951
0.0298987
0.0380487
0.0390196
0.0394207
0.0394187
0.0394285
0.0394508
0.0390896
0.0383017
0.0301844
0.0756186
0.0920043
0.0968706
0.0984027
0.0988509
0.0988604
0.098452
0.0969847
0.0924437
0.0761606
-0.00696406
-0.0196472
-0.0207551
-0.0214776
-0.0215881
-0.0215787
-0.0214622
-0.0207443
-0.0199044
-0.00725801
0.01801
0.0185193
0.018799
0.01901
0.0191229
0.0191446
0.0190757
0.0189072
0.0186702
0.0181861
0.0251174
0.026449
0.0272927
0.0278912
0.028173
0.0281978
0.0279675
0.0274205
0.0266398
0.0253446
0.0152886
0.0159399
0.0158596
0.0159279
0.0159276
0.0159407
0.0159629
0.0159121
0.0160266
0.0153792
0.0336263
0.0382687
0.0398966
0.041315
0.0418917
0.0419158
0.0413998
0.0400298
0.0384468
0.0338112
0.00220898
-0.00670306
-0.00783134
-0.00853488
-0.00867334
-0.00866867
-0.00853296
-0.00784744
-0.00688454
0.00201969
0.0137399
0.0139477
0.0140792
0.0141962
0.0142674
0.0142872
0.0142539
0.0141733
0.0140728
0.0138843
0.0183405
0.0190045
0.0194949
0.0198653
0.0200569
0.020079
0.0199302
0.0196008
0.0191578
0.0185204
0.0116959
0.0117365
0.0115249
0.0114591
0.0114222
0.0114323
0.0114889
0.0115695
0.0117965
0.011763
0.0266479
0.0273906
0.027818
0.0284351
0.0287581
0.0287802
0.0285014
0.0279161
0.0275038
0.026781
0.00908734
0.00548541
0.00504716
0.00481715
0.00480315
0.00480789
0.00482645
0.00504823
0.0054204
0.00902264
0.00922468
0.00930617
0.00936339
0.00942291
0.00946494
0.00948173
0.00947223
0.00944115
0.00941072
0.00934349
0.0115254
0.0118279
0.0120607
0.0122435
0.0123475
0.0123645
0.0122941
0.0121457
0.0119402
0.0116566
0.00818765
0.00804011
0.00780539
0.00770056
0.00767093
0.00768181
0.00773024
0.00784721
0.00809542
0.00825169
0.0164589
0.017452
0.0180165
0.0184862
0.0187082
0.0187251
0.0185376
0.0181008
0.017565
0.0165898
0.00837706
0.00748457
0.00745015
0.0074491
0.00748364
0.00749013
0.00746448
0.00746898
0.00748849
0.00838707
0.0044728
0.00448022
0.00449449
0.00451394
0.00453379
0.00454844
0.0045537
0.00455853
0.00456099
0.00456353
0.00483909
0.00488764
0.0049318
0.0049768
0.0050076
0.00502004
0.00501357
0.00498983
0.00496704
0.0049299
0.00399759
0.00391329
0.00383115
0.00380075
0.00379668
0.00380559
0.00382845
0.00387385
0.00397005
0.00406542
0.00642309
0.00658493
0.00671431
0.00685728
0.00694071
0.0069552
0.00689515
0.00677746
0.00666442
0.00651792
0.00467887
0.00453349
0.00456374
0.00460723
0.0046448
0.00465015
0.00462806
0.00459652
0.00457122
0.00473093
-0.000383736
-0.00042939
-0.000458107
-0.00047389
-0.00047599
-0.000464288
-0.000440966
-0.000409895
-0.000365884
-0.000315769
-0.00192707
-0.00212145
-0.00227047
-0.00237714
-0.0024211
-0.00241248
-0.00235778
-0.00224068
-0.00207381
-0.00187802
-0.000570571
-0.000697859
-0.000748292
-0.000757588
-0.000752396
-0.000742512
-0.000729462
-0.000697283
-0.000645757
-0.000507701
-0.00396085
-0.00487883
-0.00520943
-0.00535314
-0.00539425
-0.0053885
-0.00532409
-0.00516752
-0.0048458
-0.00389752
0.000140797
0.000371087
0.000414079
0.000476958
0.000507979
0.000517963
0.000503028
0.000459126
0.000437972
0.000223026
-0.00507526
-0.00516934
-0.00522465
-0.00526687
-0.00528328
-0.00527347
-0.00523941
-0.00518347
-0.00512218
-0.00502661
-0.0093011
-0.00979985
-0.0101801
-0.0104461
-0.0105773
-0.0105753
-0.0104371
-0.0101653
-0.0097955
-0.00930217
-0.00525871
-0.00557273
-0.00564079
-0.00567265
-0.00566481
-0.00565632
-0.0056437
-0.00559719
-0.00552079
-0.00519276
-0.016876
-0.0201118
-0.0211101
-0.0216239
-0.0218142
-0.0218045
-0.0216158
-0.0211026
-0.0201593
-0.0169004
-0.00396957
-0.00323797
-0.00319876
-0.0030828
-0.00304442
-0.00303594
-0.00304129
-0.00313335
-0.00314175
-0.00385136
-0.00915608
-0.00929421
-0.00934616
-0.00939804
-0.00942032
-0.00940878
-0.00937158
-0.00930988
-0.00925449
-0.00912547
-0.0173037
-0.0182397
-0.0188659
-0.0193055
-0.0195096
-0.0195078
-0.0193083
-0.0188777
-0.0182683
-0.0173521
-0.00921101
-0.00958316
-0.00960751
-0.00966471
-0.00967073
-0.00966105
-0.00964273
-0.00956555
-0.00952878
-0.00915007
-0.0368617
-0.0440076
-0.045872
-0.0469105
-0.0473003
-0.0473134
-0.0469165
-0.0459007
-0.0441961
-0.0370622
-0.0054076
-0.00274224
-0.00241452
-0.00214993
-0.00209427
-0.00206986
-0.00210307
-0.00233044
-0.00253826
-0.00519679
-0.0121008
-0.0121966
-0.0122087
-0.0122409
-0.0122594
-0.0122497
-0.012211
-0.0121702
-0.0121617
-0.0120759
-0.0250479
-0.026232
-0.0270427
-0.0276236
-0.0279006
-0.0279008
-0.0276344
-0.0270681
-0.0262881
-0.0251413
-0.0111486
-0.0111995
-0.0110317
-0.0110695
-0.0110464
-0.0110465
-0.011049
-0.0109826
-0.011138
-0.011069
-0.0608826
-0.0687393
-0.0710171
-0.0726752
-0.0733405
-0.0733487
-0.0727159
-0.0711039
-0.0689308
-0.0611979
-0.00101676
0.00380318
0.0048137
0.0054442
0.00558984
0.00561064
0.00550171
0.00494139
0.00409504
-0.000645006
-0.0136357
-0.0136048
-0.0135457
-0.0135519
-0.0135611
-0.0135495
-0.0135212
-0.0135043
-0.0135635
-0.0136107
-0.0307069
-0.0319559
-0.032828
-0.0334581
-0.033761
-0.0337625
-0.0334727
-0.032859
-0.0320209
-0.0308094
-0.0113862
-0.0108833
-0.010508
-0.0105022
-0.0104459
-0.0104439
-0.0104907
-0.010463
-0.0107894
-0.0112749
-0.0793654
-0.0867741
-0.0888673
-0.090534
-0.0912402
-0.0912542
-0.0905814
-0.0889361
-0.0869168
-0.0795822
0.00131118
0.0102288
0.0115796
0.0122206
0.0123245
0.012344
0.0122895
0.0117116
0.0105685
0.00174311
)
;

boundaryField
{
    walls
    {
        type            zeroGradient;
    }
    lid
    {
        type            zeroGradient;
    }
}


// ************************************************************************* //
