/*--------------------------------*- C++ -*----------------------------------*\
| =========                 |                                                 |
| \\      /  F ield         | OpenFOAM: The Open Source CFD Toolbox           |
|  \\    /   O peration     | Version:  2.3.1                                 |
|   \\  /    A nd           | Web:      www.OpenFOAM.org                      |
|    \\/     M anipulation  |                                                 |
\*---------------------------------------------------------------------------*/
FoamFile
{
    version     2.0;
    format      ascii;
    class       volVectorField;
    location    "0.54";
    object      U;
}
// * * * * * * * * * * * * * * * * * * * * * * * * * * * * * * * * * * * * * //

dimensions      [0 1 -1 0 0 0 0];

internalField   nonuniform List<vector> 
1000
(
(-0.000207823 0.00187021 0.000865146)
(-0.000926027 0.00124051 0.000900758)
(-0.00102227 0.00117486 0.000242995)
(-0.00107691 0.00113476 0.000179575)
(-0.00109628 0.00112241 9.49923e-05)
(-0.00110381 0.00111598 4.25666e-05)
(-0.0011063 0.00110936 5.66834e-06)
(-0.00110668 0.00110188 -1.49806e-05)
(-0.00110674 0.00109367 -1.77063e-05)
(-0.0011065 0.00108845 -7.9545e-06)
(-0.00101324 0.00416097 0.000226306)
(-0.00117908 0.0035043 0.00027642)
(-0.0012159 0.00346522 0.000164206)
(-0.00124039 0.00342403 0.000131215)
(-0.00125233 0.00341165 7.87088e-05)
(-0.00125756 0.00340038 3.09385e-05)
(-0.00125893 0.00338183 -7.44007e-06)
(-0.00125844 0.0033567 -2.98742e-05)
(-0.00125633 0.00332845 -2.57138e-05)
(-0.00123306 0.00330454 -9.90157e-06)
(-0.0014278 0.00617557 0.000113301)
(-0.00150191 0.00609269 0.000190113)
(-0.00152302 0.00612031 0.000161333)
(-0.00153709 0.00613933 0.000126392)
(-0.00154532 0.00614926 7.2021e-05)
(-0.00154874 0.00614007 1.33423e-05)
(-0.00154834 0.00610752 -3.75716e-05)
(-0.00154581 0.00605568 -6.81938e-05)
(-0.00154138 0.00599358 -6.03937e-05)
(-0.00151097 0.0059258 -2.54474e-05)
(-0.00198243 0.00933572 0.000103754)
(-0.0020384 0.00942316 0.000207841)
(-0.00205556 0.00952498 0.000210844)
(-0.00206818 0.00960333 0.000159932)
(-0.00207604 0.00964231 7.93232e-05)
(-0.0020784 0.00963608 -1.08015e-05)
(-0.00207534 0.0095837 -9.17881e-05)
(-0.00206915 0.00948819 -0.000144081)
(-0.00206008 0.00936487 -0.000140823)
(-0.00201775 0.00921296 -6.6306e-05)
(-0.00291388 0.0135435 0.000184854)
(-0.00298446 0.0138204 0.000357784)
(-0.00300766 0.0140121 0.000341821)
(-0.00302522 0.0141575 0.000243457)
(-0.00303576 0.0142297 0.000104628)
(-0.00303751 0.014226 -4.52701e-05)
(-0.0030306 0.0141481 -0.000185379)
(-0.00301691 0.0139949 -0.000287487)
(-0.00299846 0.013797 -0.000314844)
(-0.00293258 0.0135001 -0.000165999)
(-0.00225251 0.00108565 0.00015917)
(-0.00294963 0.00103919 0.000190131)
(-0.00302421 0.00103681 0.000122124)
(-0.00309666 0.00102706 0.00011089)
(-0.00312775 0.00102222 7.10043e-05)
(-0.00314138 0.00101809 3.38967e-05)
(-0.00314556 0.00101248 3.39611e-06)
(-0.00314468 0.00100559 -1.52743e-05)
(-0.00314221 0.0009966 -2.25847e-05)
(-0.00312801 0.000968879 -1.13634e-05)
(-0.00323039 0.0030739 8.8768e-05)
(-0.00341289 0.00303934 0.000133493)
(-0.00345111 0.003056 0.00011791)
(-0.00348849 0.00305397 0.00010055)
(-0.00351011 0.00305193 6.45721e-05)
(-0.00352014 0.0030444 2.58737e-05)
(-0.00352186 0.0030284 -7.68235e-06)
(-0.00351862 0.00300569 -2.85368e-05)
(-0.00351192 0.00297823 -3.0597e-05)
(-0.00347222 0.00293056 -1.36174e-05)
(-0.00408142 0.00528828 7.44109e-05)
(-0.00419018 0.00531615 0.000138669)
(-0.00422625 0.00535751 0.000134436)
(-0.00425469 0.00538623 0.000108144)
(-0.00427254 0.00539928 6.27804e-05)
(-0.00427958 0.00539243 1.15668e-05)
(-0.00427702 0.00536381 -3.42314e-05)
(-0.00426805 0.00531712 -6.31464e-05)
(-0.00425462 0.00526047 -6.43873e-05)
(-0.00420339 0.00519239 -2.92223e-05)
(-0.00541821 0.00794322 9.17681e-05)
(-0.00551653 0.00806004 0.000188593)
(-0.00555745 0.00815985 0.000187923)
(-0.00558972 0.00823426 0.000142655)
(-0.00560964 0.00827067 7.10062e-05)
(-0.00561484 0.00826567 -9.35717e-06)
(-0.00560532 0.00821911 -8.27621e-05)
(-0.0055855 0.00813373 -0.000132036)
(-0.00555807 0.00802242 -0.000140626)
(-0.00547993 0.00787989 -6.7519e-05)
(-0.0075861 0.0111343 0.000170096)
(-0.00773206 0.0114256 0.000337146)
(-0.00779766 0.0116167 0.000309267)
(-0.00784787 0.0117533 0.000218845)
(-0.00787689 0.0118195 9.41201e-05)
(-0.00788107 0.0118166 -3.99466e-05)
(-0.00786059 0.0117459 -0.000166138)
(-0.00781931 0.011605 -0.000261078)
(-0.00776312 0.0114116 -0.000302072)
(-0.00762512 0.0111117 -0.000155822)
(-0.00467647 0.00082424 0.000101717)
(-0.00479719 0.000801908 0.000149806)
(-0.00482296 0.000796271 9.67464e-05)
(-0.00486055 0.000793106 7.72482e-05)
(-0.00488483 0.000791376 5.1279e-05)
(-0.004897 0.000788938 2.53821e-05)
(-0.00489968 0.000784861 2.64839e-06)
(-0.00489573 0.000779601 -1.20604e-05)
(-0.00488894 0.000772723 -1.98053e-05)
(-0.00485654 0.000750558 -1.05859e-05)
(-0.00523981 0.00236832 5.95745e-05)
(-0.00531564 0.00234629 0.000102417)
(-0.00534593 0.00234913 9.07273e-05)
(-0.00537691 0.00235211 7.49626e-05)
(-0.0053982 0.00235312 4.89899e-05)
(-0.00540825 0.00234844 2.02796e-05)
(-0.00540822 0.00233647 -5.49902e-06)
(-0.00540089 0.00231906 -2.20537e-05)
(-0.00538993 0.00229788 -2.57785e-05)
(-0.00535438 0.00225794 -1.21689e-05)
(-0.00629765 0.00401345 5.04385e-05)
(-0.00636762 0.00404205 0.000101597)
(-0.00640499 0.0040719 0.000102551)
(-0.0064379 0.00409576 8.30313e-05)
(-0.00645959 0.00410701 4.8967e-05)
(-0.00646745 0.0041023 9.82876e-06)
(-0.00646186 0.00408065 -2.57666e-05)
(-0.00644613 0.00404494 -4.85332e-05)
(-0.0064255 0.0040015 -5.15049e-05)
(-0.00638042 0.00394546 -2.3776e-05)
(-0.00802374 0.00587447 6.7383e-05)
(-0.00810947 0.00597337 0.000142932)
(-0.00816313 0.0060493 0.000144162)
(-0.00820818 0.00610584 0.000110295)
(-0.00823579 0.00613351 5.57203e-05)
(-0.00824221 0.00612982 -5.87705e-06)
(-0.00822707 0.00609479 -6.26573e-05)
(-0.0081952 0.00603071 -0.000100984)
(-0.008154 0.0059466 -0.000109022)
(-0.0080802 0.00583405 -5.19194e-05)
(-0.0106443 0.00790439 0.000124741)
(-0.0107884 0.00813537 0.000253904)
(-0.0108812 0.00828514 0.000234998)
(-0.0109546 0.00838805 0.00016717)
(-0.0109963 0.00843718 7.29111e-05)
(-0.0110018 0.00843485 -2.8841e-05)
(-0.0109714 0.0083822 -0.000124819)
(-0.0109093 0.0082768 -0.000197068)
(-0.0108272 0.00812603 -0.000227736)
(-0.0106891 0.00789067 -0.000114753)
(-0.00592625 0.000503152 4.14484e-05)
(-0.00604183 0.000504015 7.10286e-05)
(-0.00607937 0.000501811 5.95295e-05)
(-0.00611018 0.00050092 4.90872e-05)
(-0.00613075 0.00050021 3.46012e-05)
(-0.00614068 0.000498757 1.90762e-05)
(-0.00614115 0.000496212 4.68102e-06)
(-0.0061342 0.000492998 -5.22487e-06)
(-0.00612415 0.000489012 -1.16684e-05)
(-0.00608105 0.000476289 -6.74658e-06)
(-0.00656891 0.00147367 2.98958e-05)
(-0.00664414 0.00147811 5.76912e-05)
(-0.00667799 0.00148047 5.76709e-05)
(-0.00670774 0.0014834 4.90268e-05)
(-0.00672812 0.00148434 3.36707e-05)
(-0.00673696 0.00148143 1.60706e-05)
(-0.00673474 0.00147394 -2.35152e-07)
(-0.00672398 0.00146322 -1.10408e-05)
(-0.00670952 0.00145039 -1.40277e-05)
(-0.00666541 0.00142738 -6.61974e-06)
(-0.00777211 0.00250508 2.74752e-05)
(-0.00784107 0.00252609 5.97496e-05)
(-0.00788103 0.00254399 6.48664e-05)
(-0.00791637 0.00255854 5.40712e-05)
(-0.00793956 0.00256524 3.357e-05)
(-0.00794709 0.002562 9.46752e-06)
(-0.00793878 0.00254848 -1.2838e-05)
(-0.00791843 0.00252632 -2.73726e-05)
(-0.00789302 0.00249974 -2.88977e-05)
(-0.00783947 0.00246711 -1.2695e-05)
(-0.00965169 0.00359693 3.81128e-05)
(-0.0097429 0.00365505 8.51033e-05)
(-0.00980236 0.0037005 8.99307e-05)
(-0.0098533 0.00373433 7.04022e-05)
(-0.00988453 0.00375067 3.72625e-05)
(-0.00989108 0.00374791 -5.45458e-07)
(-0.0098726 0.00372606 -3.5772e-05)
(-0.00983407 0.00368693 -5.95772e-05)
(-0.00978604 0.00363596 -6.28614e-05)
(-0.00970275 0.00357136 -2.86775e-05)
(-0.0123185 0.00466431 6.99135e-05)
(-0.0124679 0.00479149 0.000149032)
(-0.0125692 0.00488121 0.000144036)
(-0.0126508 0.00494259 0.000104206)
(-0.0126976 0.00497149 4.71456e-05)
(-0.0127037 0.00496962 -1.51061e-05)
(-0.0126689 0.0049374 -7.3772e-05)
(-0.0125991 0.00487374 -0.000117551)
(-0.0125082 0.00478269 -0.000131406)
(-0.0123635 0.00465342 -6.33148e-05)
(-0.00664617 0.00018603 1.59959e-05)
(-0.0067201 0.000186738 3.03127e-05)
(-0.00675092 0.000185067 2.92425e-05)
(-0.00677656 0.000183955 2.58812e-05)
(-0.00679413 0.000183084 2.07955e-05)
(-0.00680186 0.000182177 1.49923e-05)
(-0.00680023 0.000181135 9.13282e-06)
(-0.00679121 0.000180025 4.13179e-06)
(-0.0067791 0.000178795 -1.21243e-06)
(-0.00673093 0.000174623 -1.80885e-06)
(-0.00728858 0.000547504 1.23515e-05)
(-0.00735123 0.000548618 2.52336e-05)
(-0.00738227 0.000547155 2.72117e-05)
(-0.00741 0.000546215 2.48305e-05)
(-0.00742894 0.00054505 1.98151e-05)
(-0.00743617 0.000543083 1.36931e-05)
(-0.00743186 0.000540171 7.5018e-06)
(-0.00741877 0.000536451 2.41763e-06)
(-0.00740236 0.000532266 -1.43013e-06)
(-0.00735487 0.000524982 -1.3949e-06)
(-0.00853731 0.000930766 1.06572e-05)
(-0.00860186 0.000936496 2.37246e-05)
(-0.00864143 0.000940305 2.7158e-05)
(-0.00867726 0.000943037 2.44873e-05)
(-0.0087006 0.000943502 1.82912e-05)
(-0.00870714 0.000941116 1.06388e-05)
(-0.0086967 0.000935781 2.93364e-06)
(-0.00867333 0.000927924 -3.14946e-06)
(-0.00864519 0.00091861 -6.03763e-06)
(-0.00858955 0.00090817 -3.06746e-06)
(-0.0104512 0.00132773 1.33841e-05)
(-0.0105404 0.00134685 3.05731e-05)
(-0.0106015 0.0013615 3.36817e-05)
(-0.010655 0.00137172 2.81066e-05)
(-0.0106877 0.00137584 1.79808e-05)
(-0.0106937 0.00137353 6.06588e-06)
(-0.0106729 0.00136495 -5.59646e-06)
(-0.0106306 0.00135032 -1.46605e-05)
(-0.0105792 0.00133169 -1.76743e-05)
(-0.0104955 0.0013096 -8.25245e-06)
(-0.0130437 0.00168995 2.40684e-05)
(-0.0131849 0.00173395 5.23672e-05)
(-0.0132869 0.00176678 5.19068e-05)
(-0.0133713 0.00178818 3.87814e-05)
(-0.01342 0.00179747 2.01019e-05)
(-0.0134259 0.00179555 -2.06554e-07)
(-0.013389 0.00178284 -2.02186e-05)
(-0.0133159 0.00175856 -3.64015e-05)
(-0.0132233 0.00172366 -4.23759e-05)
(-0.0130862 0.00167854 -2.04271e-05)
(-0.00671706 -0.00013131 2.01426e-06)
(-0.00677709 -0.000136764 3.14258e-06)
(-0.00680273 -0.000139834 3.9727e-06)
(-0.00682511 -0.000142378 5.89137e-06)
(-0.00684035 -0.000144089 9.30813e-06)
(-0.00684618 -0.000144725 1.29813e-05)
(-0.00684277 -0.000144306 1.53281e-05)
(-0.00683243 -0.000143116 1.50242e-05)
(-0.00681875 -0.000141556 1.09044e-05)
(-0.00676957 -0.000137192 3.93051e-06)
(-0.00735632 -0.000390021 4.59941e-07)
(-0.00741296 -0.00040069 -6.9988e-07)
(-0.00744166 -0.000408895 -7.1744e-07)
(-0.00746781 -0.000415907 2.30394e-06)
(-0.0074854 -0.000420475 7.50642e-06)
(-0.00749105 -0.000421964 1.3156e-05)
(-0.00748489 -0.0004204 1.71766e-05)
(-0.00746995 -0.00041649 1.76697e-05)
(-0.00745151 -0.000411543 1.2732e-05)
(-0.00740248 -0.000403184 4.46947e-06)
(-0.00861342 -0.000657465 -3.70855e-06)
(-0.00867715 -0.000670828 -1.00012e-05)
(-0.00871736 -0.000683574 -1.04858e-05)
(-0.00875385 -0.000694759 -5.17215e-06)
(-0.00877717 -0.000701831 3.68229e-06)
(-0.00878256 -0.000703857 1.33791e-05)
(-0.00877003 -0.000700802 2.1013e-05)
(-0.00874373 -0.000693662 2.37354e-05)
(-0.00871217 -0.000684548 1.87183e-05)
(-0.00865374 -0.000673418 7.04228e-06)
(-0.0105397 -0.000909446 -1.01225e-05)
(-0.0106323 -0.000928819 -2.39433e-05)
(-0.0106977 -0.00094592 -2.46471e-05)
(-0.0107546 -0.00096063 -1.58966e-05)
(-0.0107888 -0.000969647 -1.52689e-06)
(-0.0107941 -0.000971839 1.42416e-05)
(-0.0107705 -0.000967196 2.74256e-05)
(-0.0107235 -0.000956619 3.39327e-05)
(-0.0106659 -0.000942996 2.9645e-05)
(-0.0105774 -0.000925261 1.21031e-05)
(-0.0131249 -0.00111386 -1.93003e-05)
(-0.0132735 -0.00114068 -4.28421e-05)
(-0.0133836 -0.00116098 -4.25068e-05)
(-0.0134742 -0.00117793 -2.89709e-05)
(-0.0135258 -0.00118802 -7.53404e-06)
(-0.0135313 -0.00119019 1.58679e-05)
(-0.0134908 -0.0011842 3.6321e-05)
(-0.0134106 -0.00117105 4.80646e-05)
(-0.013309 -0.00115391 4.59157e-05)
(-0.013164 -0.00112805 2.03188e-05)
(-0.00615262 -0.000443908 -7.97034e-06)
(-0.00620414 -0.000457838 -1.81379e-05)
(-0.00622598 -0.000463672 -1.78606e-05)
(-0.00624538 -0.000468441 -1.17381e-05)
(-0.00625856 -0.000471481 -2.70623e-07)
(-0.00626284 -0.000471998 1.25794e-05)
(-0.00625837 -0.000470047 2.28823e-05)
(-0.00624734 -0.000466247 2.72731e-05)
(-0.00623302 -0.000461463 2.37846e-05)
(-0.00618686 -0.000447831 9.73024e-06)
(-0.00676678 -0.00132132 -9.74419e-06)
(-0.0068199 -0.00134821 -2.41889e-05)
(-0.00684714 -0.00136607 -2.70643e-05)
(-0.00687161 -0.00138107 -1.8938e-05)
(-0.00688769 -0.00139018 -3.41542e-06)
(-0.006892 -0.00139154 1.4207e-05)
(-0.00688458 -0.00138513 2.86147e-05)
(-0.00686829 -0.00137263 3.50143e-05)
(-0.00684801 -0.00135717 2.87986e-05)
(-0.00679916 -0.00133115 1.11322e-05)
(-0.00799834 -0.00225267 -1.88375e-05)
(-0.008064 -0.00229055 -4.52788e-05)
(-0.0081064 -0.00232416 -4.93975e-05)
(-0.00814366 -0.00235215 -3.53883e-05)
(-0.0081667 -0.00236835 -1.04149e-05)
(-0.00817102 -0.00237038 1.7792e-05)
(-0.0081566 -0.00235814 4.18038e-05)
(-0.00812736 -0.00233389 5.43411e-05)
(-0.0080914 -0.00230346 4.77277e-05)
(-0.00802911 -0.00226678 1.93615e-05)
(-0.00993523 -0.00318385 -3.77375e-05)
(-0.0100393 -0.00325035 -8.59886e-05)
(-0.0101138 -0.00330576 -8.86461e-05)
(-0.0101758 -0.00334962 -6.30866e-05)
(-0.0102118 -0.00337381 -2.15842e-05)
(-0.0102163 -0.00337622 2.44435e-05)
(-0.0101893 -0.00335681 6.51268e-05)
(-0.0101357 -0.00331758 8.96642e-05)
(-0.0100679 -0.00326611 8.58452e-05)
(-0.00996673 -0.00320076 3.73347e-05)
(-0.0126339 -0.00399834 -7.22964e-05)
(-0.0128165 -0.00411136 -0.000155105)
(-0.0129497 -0.00419298 -0.000149127)
(-0.0130535 -0.00425356 -0.000103568)
(-0.0131102 -0.00428522 -3.7028e-05)
(-0.0131151 -0.00428774 3.48349e-05)
(-0.0130683 -0.00426132 0.000100581)
(-0.0129742 -0.00420591 0.000145404)
(-0.0128494 -0.00412949 0.000152011)
(-0.0126698 -0.00401772 7.11069e-05)
(-0.00497619 -0.00073767 -1.5787e-05)
(-0.00501599 -0.000762303 -3.56776e-05)
(-0.00503334 -0.000772062 -3.63995e-05)
(-0.00504883 -0.000779748 -2.66801e-05)
(-0.00505939 -0.000784319 -8.15257e-06)
(-0.00506239 -0.000784841 1.31699e-05)
(-0.00505788 -0.000781255 3.08254e-05)
(-0.00504784 -0.0007745 3.95327e-05)
(-0.00503523 -0.000765691 3.63686e-05)
(-0.00499805 -0.000741079 1.53668e-05)
(-0.00552002 -0.00221048 -2.03411e-05)
(-0.00556561 -0.00225807 -4.74509e-05)
(-0.00558974 -0.00228856 -5.18015e-05)
(-0.00561095 -0.0023135 -3.82608e-05)
(-0.00562458 -0.00232789 -1.28782e-05)
(-0.00562769 -0.00232929 1.62766e-05)
(-0.0056202 -0.00231762 4.08938e-05)
(-0.00560459 -0.00229525 5.34904e-05)
(-0.00558508 -0.002267 4.73358e-05)
(-0.00554177 -0.00221986 1.96897e-05)
(-0.00664787 -0.00382624 -3.75417e-05)
(-0.00671086 -0.00389674 -8.53179e-05)
(-0.00675321 -0.00395736 -8.99598e-05)
(-0.00678878 -0.0040061 -6.55224e-05)
(-0.00680993 -0.0040331 -2.36746e-05)
(-0.00681314 -0.00403528 2.34892e-05)
(-0.00679839 -0.00401264 6.47043e-05)
(-0.00676877 -0.00396812 8.85989e-05)
(-0.00673117 -0.00391098 8.32865e-05)
(-0.0066701 -0.00384135 3.62205e-05)
(-0.00851946 -0.00554615 -7.53738e-05)
(-0.00863333 -0.00568123 -0.00016342)
(-0.00871612 -0.00578894 -0.000161309)
(-0.00878077 -0.00587013 -0.000113979)
(-0.00881648 -0.00591285 -4.2005e-05)
(-0.00881995 -0.00591557 3.67571e-05)
(-0.0087914 -0.00587861 0.000108071)
(-0.00873359 -0.00580324 0.000155246)
(-0.00865662 -0.00570094 0.00015861)
(-0.00854469 -0.00556706 7.32836e-05)
(-0.0113589 -0.00722073 -0.000152424)
(-0.0115952 -0.00747847 -0.000309805)
(-0.0117603 -0.00765091 -0.000280005)
(-0.0118785 -0.00777114 -0.000189667)
(-0.0119392 -0.00783027 -6.91517e-05)
(-0.0119431 -0.00783328 5.77904e-05)
(-0.011891 -0.007781 0.000177264)
(-0.0117818 -0.00766817 0.000267252)
(-0.0116256 -0.00750455 0.000300687)
(-0.0113919 -0.00724926 0.000149371)
(-0.00324156 -0.000982938 -2.0036e-05)
(-0.003262 -0.00101528 -4.66455e-05)
(-0.00327224 -0.00102881 -4.9916e-05)
(-0.00328217 -0.00103945 -3.77626e-05)
(-0.00328894 -0.00104555 -1.38204e-05)
(-0.0032907 -0.0010461 1.41004e-05)
(-0.0032874 -0.00104099 3.7419e-05)
(-0.0032806 -0.00103136 4.91755e-05)
(-0.0032729 -0.00101875 4.4611e-05)
(-0.00325364 -0.000986415 1.8521e-05)
(-0.00363616 -0.00297226 -2.71065e-05)
(-0.00368616 -0.00303447 -6.3834e-05)
(-0.00370401 -0.00307811 -7.15113e-05)
(-0.00371881 -0.00311321 -5.36639e-05)
(-0.0037282 -0.00313286 -2.00763e-05)
(-0.00373007 -0.00313436 1.86111e-05)
(-0.00372438 -0.00311761 5.16835e-05)
(-0.00371298 -0.00308538 6.92661e-05)
(-0.00369785 -0.00304415 6.09517e-05)
(-0.00364854 -0.00298227 2.52903e-05)
(-0.00449433 -0.00525222 -5.36274e-05)
(-0.00456794 -0.00535392 -0.000120332)
(-0.00460323 -0.00544574 -0.000126686)
(-0.00463052 -0.00551707 -9.19778e-05)
(-0.00464622 -0.0055553 -3.46927e-05)
(-0.00464823 -0.00555768 2.93508e-05)
(-0.00463652 -0.00552441 8.61341e-05)
(-0.00461299 -0.00545804 0.000120944)
(-0.00458087 -0.00537057 0.000115472)
(-0.00450775 -0.00526984 5.12637e-05)
(-0.00604427 -0.00789711 -0.00011655)
(-0.00618314 -0.0081178 -0.000245118)
(-0.00626068 -0.00829421 -0.000235557)
(-0.00631529 -0.00842046 -0.000163266)
(-0.00634387 -0.00848403 -6.06492e-05)
(-0.00634612 -0.00848719 4.95177e-05)
(-0.00632218 -0.00843054 0.000151398)
(-0.00627241 -0.00831193 0.000223894)
(-0.00619967 -0.00814363 0.000236549)
(-0.00606145 -0.00792481 0.000113223)
(-0.00876701 -0.0109056 -0.000262231)
(-0.00908671 -0.01141 -0.00050787)
(-0.00926299 -0.0117283 -0.000432349)
(-0.00937348 -0.011933 -0.000282219)
(-0.00942576 -0.0120269 -0.000101472)
(-0.00942846 -0.0120304 8.29252e-05)
(-0.00938215 -0.0119455 0.000261762)
(-0.0092792 -0.0117518 0.000410551)
(-0.00911179 -0.0114494 0.000492506)
(-0.00879448 -0.0109502 0.000257563)
(-0.00115419 -0.00112615 -1.90726e-05)
(-0.00115696 -0.00113781 -4.67206e-05)
(-0.00115986 -0.00115182 -5.56022e-05)
(-0.00116325 -0.00116396 -4.30603e-05)
(-0.00116562 -0.00117091 -1.65793e-05)
(-0.00116625 -0.00117144 1.45868e-05)
(-0.00116512 -0.00116549 4.06182e-05)
(-0.00116282 -0.00115434 5.31263e-05)
(-0.00116079 -0.00114113 4.35342e-05)
(-0.00115845 -0.0011296 1.70881e-05)
(-0.00130473 -0.00343355 -2.75817e-05)
(-0.0013328 -0.00348054 -6.69691e-05)
(-0.00133961 -0.00353156 -8.12091e-05)
(-0.00134501 -0.00357313 -6.17454e-05)
(-0.00134849 -0.00359606 -2.38185e-05)
(-0.00134917 -0.00359758 2.00628e-05)
(-0.00134708 -0.00357766 5.75847e-05)
(-0.00134294 -0.00353904 7.71689e-05)
(-0.0013372 -0.00349053 6.28605e-05)
(-0.0013091 -0.00344401 2.53127e-05)
(-0.0016483 -0.00620585 -6.06381e-05)
(-0.00169027 -0.00633605 -0.000135987)
(-0.00170489 -0.00645383 -0.000148539)
(-0.00171555 -0.0065417 -0.000107628)
(-0.00172161 -0.00658754 -4.09912e-05)
(-0.00172235 -0.00659007 3.31216e-05)
(-0.0017178 -0.00654945 9.93859e-05)
(-0.00170853 -0.00646718 0.000140689)
(-0.00169525 -0.0063548 0.000129691)
(-0.0016532 -0.00622562 5.78746e-05)
(-0.00231602 -0.00977775 -0.000148699)
(-0.00239267 -0.0101078 -0.00030174)
(-0.00242762 -0.0103528 -0.000287904)
(-0.00245046 -0.0105161 -0.000195748)
(-0.00246201 -0.0105949 -7.22656e-05)
(-0.00246288 -0.0105983 5.82332e-05)
(-0.00245302 -0.0105272 0.000180742)
(-0.00243217 -0.0103735 0.000272739)
(-0.00239946 -0.0101393 0.000290881)
(-0.00232271 -0.00981257 0.00014501)
(-0.00364043 -0.0148466 -0.000383889)
(-0.00382124 -0.0157385 -0.000695665)
(-0.00390899 -0.0162343 -0.000559463)
(-0.00395881 -0.016519 -0.000350359)
(-0.00398104 -0.0166403 -0.000123328)
(-0.00398206 -0.0166442 0.000100971)
(-0.00396216 -0.0165335 0.000324792)
(-0.00391578 -0.0162639 0.000530842)
(-0.00383233 -0.0157952 0.000674653)
(-0.00365282 -0.0149136 0.000377453)
(-0.00651106 -0.0225925 -0.00104839)
(-0.00702753 -0.0248352 -0.00168629)
(-0.00725197 -0.0257645 -0.00107531)
(-0.00735965 -0.0262244 -0.000603033)
(-0.00740012 -0.0263884 -0.000197552)
(-0.00740135 -0.0263929 0.000165142)
(-0.00736424 -0.0262397 0.00056208)
(-0.00726312 -0.0258039 0.00101708)
(-0.00705259 -0.024937 0.00163737)
(-0.0065412 -0.0227195 0.00103438)
(-0.0122204 -0.0253492 -0.00282162)
(-0.0136041 -0.0331595 -0.00396356)
(-0.0140084 -0.0339492 -0.00195247)
(-0.014157 -0.0340132 -0.00096738)
(-0.0141955 -0.0339053 -0.00028876)
(-0.0141962 -0.0338971 0.000246916)
(-0.0141595 -0.0339986 0.000907307)
(-0.0140194 -0.0339376 0.00183432)
(-0.0136533 -0.0333302 0.00385264)
(-0.0122804 -0.0255592 0.00279168)
(-0.0241633 -0.0838739 -0.00840157)
(-0.029643 -0.101615 -0.00981994)
(-0.0307585 -0.105779 -0.00192285)
(-0.031044 -0.10678 -0.000570294)
(-0.0310631 -0.107015 -8.89259e-05)
(-0.0310604 -0.107018 7.8406e-05)
(-0.0310419 -0.106793 0.000532294)
(-0.0307756 -0.105848 0.00169224)
(-0.0297849 -0.102089 0.00956443)
(-0.0243541 -0.0845305 0.00835269)
(-0.034391 -0.00238635 -0.018516)
(-0.0225712 -0.0468162 -0.017141)
(-0.0252202 -0.0405518 -0.00548236)
(-0.0263605 -0.0352899 -0.00173912)
(-0.0266743 -0.0335934 -0.000406717)
(-0.026678 -0.033554 0.000361263)
(-0.0263871 -0.0351134 0.00164446)
(-0.0252893 -0.0402113 0.00511444)
(-0.0224931 -0.0472069 0.016656)
(-0.034288 -0.00290142 0.0183287)
(0.139989 -0.309254 0.0211283)
(0.162188 -0.446625 0.024483)
(0.165518 -0.45056 0.00721973)
(0.166144 -0.446047 0.00268862)
(0.166309 -0.444393 0.000646214)
(0.166306 -0.444335 -0.000595186)
(0.16613 -0.445816 -0.00256557)
(0.165534 -0.450268 -0.0066608)
(0.162676 -0.448426 -0.0238871)
(0.140766 -0.312359 -0.0209604)
(-0.0137002 -0.0146426 -0.000612933)
(-0.0145531 -0.015878 -0.00107608)
(-0.0149555 -0.0165318 -0.000766136)
(-0.015175 -0.0169008 -0.000462668)
(-0.0152658 -0.017049 -0.000158189)
(-0.0152689 -0.0170537 0.000131036)
(-0.0151865 -0.016917 0.000430728)
(-0.0149796 -0.0165674 0.000726886)
(-0.0146005 -0.0159473 0.00104559)
(-0.0137559 -0.0147281 0.000604264)
(-0.0223689 -0.00780255 -0.00157167)
(-0.0244761 -0.00927153 -0.00245005)
(-0.0252381 -0.00924886 -0.0014728)
(-0.0256004 -0.00919733 -0.00080145)
(-0.0257254 -0.00913544 -0.000254679)
(-0.0257289 -0.00913246 0.000215144)
(-0.0256125 -0.00919139 0.000749881)
(-0.0252695 -0.00923743 0.00139659)
(-0.0245623 -0.00929472 0.00238396)
(-0.022474 -0.0078249 0.00155168)
(-0.0323254 -0.0320205 -0.00164571)
(-0.0400549 -0.0420026 -0.002274)
(-0.0411844 -0.0447788 -0.000615208)
(-0.0415326 -0.0459962 -0.000313833)
(-0.0415665 -0.046364 -8.43146e-05)
(-0.0415637 -0.0463738 6.75422e-05)
(-0.041533 -0.0460374 0.000292534)
(-0.041205 -0.0448784 0.000551589)
(-0.0402493 -0.0423076 0.00221182)
(-0.0325603 -0.0324291 0.00163493)
(-0.0916538 0.036409 -0.0134217)
(-0.104215 0.0429583 -0.0160121)
(-0.1089 0.0468332 -0.00549304)
(-0.110243 0.0489069 -0.00231641)
(-0.110572 0.0495868 -0.000610417)
(-0.110572 0.0496013 0.000522327)
(-0.110254 0.0489705 0.00217875)
(-0.108969 0.0469791 0.0051513)
(-0.104606 0.0432714 0.0156507)
(-0.0922498 0.0368381 0.0133192)
(0.141774 0.0113711 0.013048)
(0.188379 -0.0558465 0.0161786)
(0.19222 -0.0546496 0.00495966)
(0.192567 -0.0511258 0.0018972)
(0.192598 -0.0498269 0.000459795)
(0.192589 -0.0498018 -0.000416391)
(0.192543 -0.051043 -0.00180053)
(0.192243 -0.0546186 -0.00462067)
(0.18917 -0.0567144 -0.0158522)
(0.142972 0.0102288 -0.0129836)
(-0.0154211 -0.0089028 -0.000307047)
(-0.0159642 -0.00947138 -0.000574944)
(-0.0162867 -0.00981347 -0.000456877)
(-0.0164955 -0.0100248 -0.000293858)
(-0.0165934 -0.0101179 -0.000104225)
(-0.0165979 -0.0101217 8.61132e-05)
(-0.0165108 -0.0100372 0.00027362)
(-0.0163147 -0.00983827 0.000434318)
(-0.016009 -0.00951311 0.000558251)
(-0.0154718 -0.00895212 0.000302255)
(-0.0214198 -0.00383005 -0.000727324)
(-0.0227356 -0.00401822 -0.00121124)
(-0.0234149 -0.00381452 -0.000842919)
(-0.0238064 -0.00369374 -0.000496738)
(-0.0239696 -0.00363048 -0.000166785)
(-0.0239757 -0.00362868 0.000139103)
(-0.0238266 -0.0036896 0.000463115)
(-0.0234566 -0.00380484 0.000800222)
(-0.022813 -0.0040115 0.00117697)
(-0.0215123 -0.00382151 0.000717048)
(-0.020714 -0.0148632 -0.000315498)
(-0.0225843 -0.017324 -0.000419559)
(-0.0229318 -0.0181379 -0.000114749)
(-0.0231334 -0.0185938 -0.000103797)
(-0.0231948 -0.0187582 -3.76126e-05)
(-0.0231961 -0.0187661 2.58605e-05)
(-0.0231422 -0.0186224 9.20431e-05)
(-0.0229481 -0.0181957 9.6237e-05)
(-0.0226477 -0.0174492 0.000400935)
(-0.0207803 -0.0150229 0.000309842)
(-0.044723 0.016431 -0.00378191)
(-0.053382 0.0219548 -0.00500657)
(-0.0565849 0.0239105 -0.00222045)
(-0.0580471 0.0248195 -0.00113558)
(-0.0585131 0.0251236 -0.000341652)
(-0.0585237 0.0251316 0.000277092)
(-0.0580914 0.0248529 0.00105089)
(-0.0566923 0.0239911 0.00207395)
(-0.0536822 0.0221658 0.00486822)
(-0.0451143 0.0166851 0.00374098)
(0.12377 0.0199419 0.00510949)
(0.158287 0.0172183 0.00597424)
(0.161632 0.0196299 0.002025)
(0.162464 0.0207141 0.000789338)
(0.162683 0.0211212 0.000193006)
(0.162683 0.0211198 -0.000170842)
(0.162471 0.020708 -0.00074197)
(0.161705 0.0195871 -0.00189121)
(0.158894 0.0171831 -0.00585595)
(0.124766 0.0199013 -0.00509344)
(-0.0160411 -0.00462911 -0.000134188)
(-0.0163799 -0.00486253 -0.000266759)
(-0.0166071 -0.00501446 -0.000231914)
(-0.0167724 -0.00511439 -0.000155605)
(-0.0168574 -0.00516161 -5.58223e-05)
(-0.0168627 -0.00516429 4.84117e-05)
(-0.0167894 -0.00512304 0.000147217)
(-0.0166361 -0.00503029 0.00022244)
(-0.0164214 -0.00488653 0.000259674)
(-0.0160871 -0.0046565 0.000132234)
(-0.0202947 -0.00211131 -0.000299785)
(-0.0210061 -0.0020951 -0.000526963)
(-0.0214527 -0.00196521 -0.000403911)
(-0.021745 -0.00188899 -0.000251656)
(-0.0218825 -0.0018541 -8.71894e-05)
(-0.0218893 -0.00185408 7.361e-05)
(-0.0217668 -0.00188865 0.000235427)
(-0.0214932 -0.00196316 0.000384666)
(-0.0210689 -0.00209227 0.000511834)
(-0.0203671 -0.00210838 0.00029528)
(-0.0190445 -0.00669086 -5.16527e-05)
(-0.0194846 -0.00776691 -6.97377e-05)
(-0.0195384 -0.00816168 -2.18168e-05)
(-0.019601 -0.00837682 -4.37758e-05)
(-0.0196301 -0.00845799 -2.07615e-05)
(-0.0196323 -0.00846359 1.37901e-05)
(-0.0196103 -0.00839538 3.75587e-05)
(-0.0195522 -0.00819759 1.52067e-05)
(-0.0195122 -0.00783402 6.28309e-05)
(-0.019074 -0.00677479 4.85974e-05)
(-0.0296263 0.00528835 -0.00146419)
(-0.0300188 0.00692805 -0.00204639)
(-0.0310466 0.00756699 -0.00101931)
(-0.0317193 0.00787558 -0.000546319)
(-0.0319868 0.00798579 -0.000173339)
(-0.0319977 0.00798998 0.000135573)
(-0.031758 0.00789137 0.00049974)
(-0.0311204 0.00760284 0.000951116)
(-0.0301373 0.0070051 0.00198398)
(-0.0297688 0.00537628 0.00144347)
(0.109989 0.0074833 0.00154612)
(0.139518 0.00579083 0.00184775)
(0.142019 0.00659729 0.000713007)
(0.142575 0.00696961 0.000280564)
(0.142731 0.00711705 6.85346e-05)
(0.142732 0.00711446 -5.76175e-05)
(0.142585 0.00696273 -0.000259345)
(0.142089 0.00657455 -0.00066675)
(0.140019 0.00576391 -0.00181149)
(0.110852 0.00745347 -0.00154382)
(-0.0162287 -0.00126251 -3.21968e-05)
(-0.0164784 -0.00131201 -6.68163e-05)
(-0.0166583 -0.00134524 -6.22813e-05)
(-0.0167971 -0.00137035 -4.30831e-05)
(-0.0168723 -0.00138359 -1.38239e-05)
(-0.0168782 -0.00138551 1.81057e-05)
(-0.0168154 -0.0013758 4.67056e-05)
(-0.0166887 -0.00135444 6.45388e-05)
(-0.0165198 -0.00132444 6.79269e-05)
(-0.0162744 -0.00127604 3.2797e-05)
(-0.0196853 -0.000699198 -6.64963e-05)
(-0.0201729 -0.000669298 -0.000120977)
(-0.0205081 -0.000620232 -0.000101522)
(-0.0207417 -0.000596898 -6.755e-05)
(-0.0208584 -0.000588122 -2.27557e-05)
(-0.0208655 -0.000589368 2.37098e-05)
(-0.0207645 -0.00060031 6.75945e-05)
(-0.020548 -0.000625221 0.00010003)
(-0.0202304 -0.000674217 0.000119264)
(-0.0197506 -0.000705327 6.62089e-05)
(-0.0191031 -0.00205824 1.3596e-05)
(-0.0192951 -0.00229263 2.39615e-05)
(-0.0193345 -0.0023947 1.09144e-05)
(-0.0193814 -0.0024679 -1.08427e-05)
(-0.0194093 -0.00250268 -6.26343e-06)
(-0.0194127 -0.00250668 5.90475e-06)
(-0.0193925 -0.00247999 1.07492e-05)
(-0.0193517 -0.00241626 -1.01362e-05)
(-0.0193216 -0.00232292 -2.44388e-05)
(-0.0191323 -0.0020974 -1.48079e-05)
(-0.0246179 0.000778221 -0.000320809)
(-0.0240748 0.00109776 -0.000465543)
(-0.0248041 0.00122146 -0.000276698)
(-0.0252748 0.00127597 -0.00017454)
(-0.0254695 0.00129288 -6.12114e-05)
(-0.0254793 0.00129402 4.61304e-05)
(-0.0253072 0.00128094 0.000157062)
(-0.024864 0.00123249 0.000256978)
(-0.0241583 0.00111756 0.000446587)
(-0.0247103 0.000800719 0.000311706)
(0.105462 0.000720428 0.000253134)
(0.133009 3.00009e-05 0.000279691)
(0.135071 0.000119455 8.18098e-05)
(0.135487 0.000136879 1.05576e-05)
(0.135613 0.000143572 -2.25713e-06)
(0.135615 0.000141611 6.85896e-06)
(0.135497 0.000128641 -3.06861e-06)
(0.135133 0.000100456 -7.05487e-05)
(0.133459 2.05875e-06 -0.000272113)
(0.106265 0.000680986 -0.000252144)
(-0.0162299 0.00192609 5.05003e-05)
(-0.0164731 0.0020328 0.000101445)
(-0.0166442 0.00210511 8.78697e-05)
(-0.016776 0.00214767 5.87355e-05)
(-0.0168477 0.00216536 2.53274e-05)
(-0.0168541 0.00216427 -8.53276e-06)
(-0.016795 0.00214526 -4.25194e-05)
(-0.0166759 0.00210224 -7.38788e-05)
(-0.0165162 0.00203065 -9.23801e-05)
(-0.0162775 0.00192463 -4.71598e-05)
(-0.0200177 0.000838123 0.000126612)
(-0.0205476 0.000897987 0.00022477)
(-0.0209006 0.000897555 0.000166896)
(-0.0211405 0.000883163 9.89743e-05)
(-0.0212596 0.000870963 3.66816e-05)
(-0.0212675 0.000868533 -2.02743e-05)
(-0.0211652 0.000876382 -8.21829e-05)
(-0.0209436 0.000886777 -0.000151223)
(-0.0206113 0.000887452 -0.000213973)
(-0.0200892 0.000825243 -0.000122859)
(-0.0194069 0.00178759 9.42912e-05)
(-0.0196947 0.00232181 0.000148621)
(-0.019765 0.00248701 7.25117e-05)
(-0.0198182 0.00252532 3.20968e-05)
(-0.0198449 0.00252608 1.06966e-05)
(-0.0198485 0.00252326 -3.09601e-06)
(-0.0198292 0.00251681 -2.42332e-05)
(-0.0197837 0.00247556 -6.24424e-05)
(-0.0197251 0.00232241 -0.000142016)
(-0.01944 0.00178167 -9.37958e-05)
(-0.0258883 -0.00223142 0.000644867)
(-0.0260317 -0.00259397 0.000884157)
(-0.0268756 -0.00278871 0.000354241)
(-0.0273493 -0.00291382 0.000129987)
(-0.0275387 -0.00296772 3.23544e-05)
(-0.0275476 -0.00296917 -2.74959e-05)
(-0.0273803 -0.00291808 -0.000122266)
(-0.0269352 -0.0027963 -0.00033056)
(-0.0261356 -0.0026104 -0.000868224)
(-0.025996 -0.00224839 -0.000647375)