/*--------------------------------*- C++ -*----------------------------------*\
| =========                 |                                                 |
| \\      /  F ield         | OpenFOAM: The Open Source CFD Toolbox           |
|  \\    /   O peration     | Version:  2.3.1                                 |
|   \\  /    A nd           | Web:      www.OpenFOAM.org                      |
|    \\/     M anipulation  |                                                 |
\*---------------------------------------------------------------------------*/
FoamFile
{
    version     2.0;
    format      ascii;
    class       volSymmTensorField;
    location    "1840";
    object      sigma;
}
// * * * * * * * * * * * * * * * * * * * * * * * * * * * * * * * * * * * * * //

dimensions      [1 -1 -2 0 0 0 0];

internalField   nonuniform List<symmTensor> 
11800
(
(100317 62006.8 4.8709e-14 -2313.23 2.58352e-14 24316.7)
(-51948.9 58303.3 7.47727e-14 -2253.98 2.37532e-14 -13448.8)
(440578 72345.9 -1.1792e-15 1020.31 -5.46998e-14 109570)
(-386206 42416.9 0 590.548 0 -95679.1)
(-53424.8 56057.3 1.39515e-14 -6635 -3.94714e-14 -14902.1)
(-242563 76140.4 5.44213e-14 2745.2 2.85795e-14 -59503.6)
(-44691.2 74697.5 1.024e-13 -606.124 -2.66584e-14 -11239.2)
(-62551.1 75136.8 -1.52746e-14 1212.82 6.15496e-14 -15219.3)
(138418 47759.1 2.09505e-14 403.633 -1.43547e-14 34444.5)
(91442.6 78611.5 -5.29571e-14 847.424 -4.46652e-14 22899)
(116122 53410.5 -4.06354e-14 403.602 3.48284e-14 28912.5)
(-559813 32709.3 -4.89906e-14 -4569.93 -2.22645e-14 -140035)
(17123 -24898.8 9.29001e-17 -46194 7.21881e-17 -7213.1)
(408666 42602.5 4.45053e-14 2820.31 -1.22102e-14 102098)
(-329407 71065.2 -3.69382e-14 6115.25 2.87564e-14 -80215.2)
(1.59131e+06 -809.838 0 -4966.1 0 393603)
(-29385.9 61415.3 3.46517e-14 2322.53 3.06102e-15 -6714.96)
(-44956.5 55800.2 -1.95852e-14 5222.65 1.12675e-13 -9858.76)
(94659.2 93241.1 -2.05537e-14 -12587.4 1.46545e-14 20363.7)
(69250.5 51548.6 -7.04878e-14 -7261.99 -2.28225e-14 15380.6)
(-304596 47598.2 2.18908e-14 238.146 2.29632e-14 -75517.4)
(-489111 66953 3.50629e-14 2243.47 -2.04092e-14 -120802)
(-685082 90708.2 -1.83347e-14 9085.4 1.18651e-14 -167728)
(-628813 57425.6 1.8826e-16 694.641 3.20851e-15 -155849)
(1.29202e+06 64478.6 2.16355e-15 -6280.17 2.64028e-14 319018)
(-810831 89354.4 -1.79613e-14 6249.34 -5.29409e-16 -199633)
(-816416 46693 0 7191.28 0 -200785)
(401094 37441.9 -5.77802e-14 -5190.45 -3.49323e-14 98231.7)
(-896788 48166.1 -1.02923e-14 8412.82 -4.89539e-14 -220424)
(-979519 49465.4 1.35565e-14 9357.25 -2.11938e-14 -240717)
(267461 40746.6 -7.15229e-14 -1383.45 -1.28354e-13 66019.3)
(52864.5 56763.9 -1.20074e-14 1990.12 -1.00139e-14 13610.6)
(818174 85272.1 -2.89206e-15 9183.96 -1.28526e-14 205284)
(-21691.2 67737.6 9.35811e-15 -748.58 -7.01376e-14 -5567.76)
(14145 70326.3 -2.47317e-14 3621.87 -1.0633e-13 4408.32)
(-263036 32293.5 -6.49461e-14 2467.59 -4.72212e-14 -64652.2)
(14940.7 70595.9 8.7854e-14 2441.72 -1.04639e-13 4312.94)
(877266 54483.8 -1.06159e-14 4595.54 -4.61545e-14 218808)
(-31087.5 66911.3 0 -2997.87 0 -8457.27)
(66353.9 61729.3 -3.05541e-14 3750.6 5.69689e-14 17394.4)
(-858092 37466.5 -5.47387e-14 -4093.9 -2.54904e-14 -213926)
(-942353 37815.3 3.9292e-14 -4217.93 -2.25825e-14 -234863)
(421006 48147.9 -2.22487e-14 -2364.47 -7.42758e-14 103873)
(-1.02916e+06 38906.5 -7.64251e-15 -3849.1 -4.02297e-14 -256309)
(280823 49098.3 1.90151e-13 1856.63 -5.94009e-14 70138.5)
(1.48623e+06 41853.4 0 -5482.18 0 367403)
(649523 97885.3 -1.16011e-14 -2769.96 6.1151e-15 160473)
(775520 43202.1 -2.04152e-14 -8326.77 -1.4269e-14 190356)
(-70990.3 68670.7 -7.53967e-14 -1015.98 -4.65168e-14 -17866.2)
(162439 64464.2 0 1652.29 0 40714.5)
(-577908 38469.5 -3.61613e-15 2449.61 3.88029e-14 -142783)
(-406876 37651 1.26492e-13 4409.98 1.48451e-14 -99860)
(-8422.47 69563.2 7.08451e-14 -305.486 4.41809e-14 -2165.58)
(29054.8 108361 -1.62432e-15 5983.07 1.41745e-14 8693.6)
(-1.70838e+06 5416.21 -2.54073e-15 -9020.51 -3.84752e-15 -426121)
(1.383e+06 -52552.1 3.30953e-15 -63506.9 5.99702e-15 327393)
(-46722.1 23109.8 6.10317e-14 1758.24 2.26859e-14 -11156.4)
(-366283 74746.4 4.56948e-15 -3845.85 -3.82404e-14 -91836.4)
(291430 51188.4 -3.8732e-14 6089.21 5.67558e-14 73820.6)
(-261378 77074.7 3.19126e-14 -5684.07 -5.76184e-15 -66263.4)
(1.41856e+06 24272.4 -2.91606e-14 -10428 -1.011e-14 349385)
(-35736.6 72486.5 2.9982e-14 456.897 -4.88697e-14 -8753.61)
(-289210 63093.7 -1.74814e-14 -2454.62 3.0122e-14 -72367.9)
(228598 63403.8 5.28371e-14 1421.65 -3.01754e-14 57072.6)
(1.27759e+06 16703.9 3.2254e-15 -119.562 -1.90544e-14 316968)
(-183236 33362.9 -8.58264e-14 2454.83 -1.03835e-13 -44855.4)
(-597003 20353.7 6.05542e-14 2766.48 2.02216e-14 -147442)
(-424922 22927.9 1.69828e-15 4037.67 -1.06168e-13 -104430)
(-48066.7 24831.6 0 -2595.81 0 -12570.4)
(-756179 54192.2 -1.34625e-15 7873.76 4.71967e-14 -185670)
(-18053.3 71460.8 -1.719e-14 405.769 3.55386e-14 -4378.72)
(-37460.1 57550.2 -6.62276e-14 -3114.49 7.41925e-14 -10067.4)
(-33221.3 55916.9 4.64498e-14 -3296.54 -2.84637e-14 -9060.83)
(-1.17459e+06 267397 -4.2048e-15 151973 3.86589e-15 -253733)
(1.40466e+06 58882.3 -1.06104e-15 -5005.42 -1.16894e-14 347282)
(-247549 45097.6 -6.38034e-14 5685.09 -4.64457e-14 -60011.4)
(1.32977e+06 15950.4 -2.41892e-14 3327.86 2.15242e-14 330768)
(-178539 23410.6 5.64257e-14 696.199 -1.85334e-13 -44126.5)
(-132666 42082.2 1.0608e-14 2676.38 -1.01374e-14 -32253.1)
(-127036 51687.2 1.08285e-13 3252.04 1.08734e-13 -30713.4)
(-1.72492e+06 -30218.5 9.11434e-15 6625.72 4.18416e-14 -426345)
(71277.1 48425.8 0 6362.74 0 19264)
(40370.3 58250.4 -1.12596e-13 725.285 -4.44249e-14 10196.7)
(27700.1 62049.9 3.90359e-14 2229.75 -3.10418e-16 7426.21)
(-57246.5 54260.3 2.6903e-14 -6034.84 7.62174e-14 -15701.4)
(-951947 59677.7 -1.50484e-14 -4727.69 7.70346e-14 -237370)
(287065 46219.1 9.09013e-14 2842.77 -2.83118e-14 71932.1)
(-869787 56639.7 0 -4562.12 0 -216944)
(-791885 55232.7 -3.18304e-14 -4039.69 -3.25825e-14 -197485)
(421340 43016.9 4.17001e-14 3813.42 2.54138e-15 105489)
(-9509.53 68141.1 -1.46773e-13 -2237.75 -9.42612e-14 -2914.74)
(969055 79278.7 0 -3449.15 0 239587)
(-78520.6 61010 -3.11379e-14 1798.97 -5.16939e-14 -19036.2)
(53398.3 20243.1 -1.79706e-14 3798.55 -2.60994e-14 14191.7)
(115243 57771.5 1.3838e-13 588.016 2.47164e-15 28739.9)
(39629.4 -29901.2 -5.91386e-16 -84215.3 -4.38399e-16 -11062.7)
(-2100.08 8202.44 1.53717e-17 4923.19 -9.13744e-17 700.47)
(-39916 -29644.9 -3.73436e-16 83806.5 2.48818e-16 10890.1)
(-9486.03 69572.9 -4.56325e-14 -975.845 -6.66668e-16 -2595.8)
(-487034 44754.2 -1.12316e-14 -2169.77 4.50309e-14 -121381)
(37257.4 37375.6 2.50856e-14 -328.051 -7.02704e-14 9162.93)
(528097 50219.8 -5.447e-14 -5238.95 -7.5539e-14 129732)
(-918308 87672 3.78065e-15 166.135 7.68457e-15 -227810)
(-305468 66062.8 -2.32539e-15 4889.87 7.38072e-15 -74579.5)
(319.945 73712.3 -7.04446e-15 -489.918 -3.50874e-14 -42.1738)
(233255 82590.5 -1.49408e-14 1740.47 -2.59429e-14 58307.2)
(-107991 59318.4 -4.32184e-14 243.986 9.54306e-14 -26734.3)
(-75904.7 63177.1 -1.4619e-13 -557.294 -7.05879e-14 -18971.8)
(1.38696e+06 22238.1 8.49542e-15 4116.36 1.79303e-14 345155)
(870666 50092.7 1.36263e-14 2817.54 2.76405e-15 216729)
(954149 52124.7 2.61348e-14 3523.27 3.65762e-14 237618)
(793515 48531 9.50962e-14 3058.97 5.6414e-14 197646)
(-291629 47082.6 4.26137e-14 -3988.88 6.66013e-14 -73348.8)
(-428008 44930.6 -1.12783e-13 -3710.7 4.05688e-14 -107118)
(152107 54102.7 4.84987e-14 -120.101 -2.54542e-14 37711)
(1.24957e+06 35124.9 1.28841e-14 458.873 7.62984e-15 310157)
(172803 29454.3 -3.51033e-14 -3267.29 -1.38079e-13 42065.1)
(-53247 65482.5 -1.21639e-13 1381.21 1.13894e-13 -12869)
(1.16996e+06 63507.9 -1.48938e-14 753.494 1.8573e-14 290477)
(-95454 81275.9 -3.97687e-14 274.099 -1.07157e-14 -23616.1)
(-155923 43502.1 -2.78631e-14 2705.71 -1.17702e-14 -38016.2)
(46124.3 74858.8 8.71328e-14 -2985.6 -1.24871e-13 10703.6)
(64824.5 76542.2 -6.08491e-14 -1248.3 4.18885e-14 15774.5)
(-45569 62316 -1.76812e-14 840.108 -2.61085e-14 -11098.1)
(-82277.2 58101.3 -1.10761e-13 281.935 -8.6534e-14 -20344.7)
(-2579.29 69062.2 -1.06451e-13 -2552.05 -8.02169e-14 -1273.19)
(-26736 68816.9 -6.38257e-14 -3641.4 7.02133e-14 -7537.24)
(-4909.34 69233.5 -4.17288e-14 -1500.42 -3.98201e-14 -1590.39)
(7143.53 51589 1.98925e-15 32115.6 8.9075e-14 9740.98)
(-30284.9 11142.2 -3.22329e-16 -6954.99 4.24082e-14 -9239.96)
(-1.50881e+06 -240206 1.35736e-14 62455.2 -6.90698e-15 -358870)
(-1.0625e+06 62070.5 9.66844e-15 -7662.13 -1.47071e-15 -265530)
(314391 41829.7 4.81114e-14 4011.23 -4.69633e-14 79002.1)
(-947060 60769.4 -3.78447e-14 1291.78 2.38058e-14 -234664)
(449792 37856.5 -2.17503e-14 4643.47 6.57939e-14 112755)
(-862351 56926.6 1.44303e-14 1575.95 1.44904e-14 -213576)
(-784378 54852.4 -8.25678e-14 2043.49 6.31889e-14 -194113)
(261496 55866.4 4.70719e-14 -1955.54 1.31401e-13 64397.4)
(-811112 30487.4 5.16219e-14 5592 -7.12619e-14 -199866)
(377039 56333.5 5.85755e-14 -2199.17 -4.66754e-14 93005.3)
(-739336 29402.7 4.25468e-14 4904.57 -7.35744e-14 -182227)
(-672880 30087.2 -4.41451e-14 5167.9 -3.97558e-14 -165673)
(-390699 76491.6 3.37728e-15 12244 3.3786e-14 -93902.4)
(113821 64064.1 -2.34908e-14 -5225.55 -1.56806e-13 26944.7)
(161542 60157.7 -3.76219e-14 -5490.96 -1.08909e-13 38719.5)
(-238308 58690.4 -1.13653e-14 7531.01 6.57572e-14 -57260.3)
(957564 36802.8 -7.21555e-14 1065.09 -2.43172e-14 237855)
(-994664 -7597.15 6.94849e-14 -8426.89 2.15365e-14 -248887)
(555634 39292.2 4.88295e-14 -2451.44 -4.54968e-14 137256)
(-302683 44569.6 1.12169e-15 5590.2 6.67785e-15 -73714.7)
(-135102 61923.4 -6.09417e-14 2907.35 -5.04149e-14 -32800.1)
(-141363 53795.6 5.21561e-14 -870.246 -4.72475e-14 -35290.9)
(14126.7 69411.7 3.96485e-14 2021.87 7.25235e-14 4006.78)
(-199772 46567.5 -8.91788e-14 1197.11 9.25841e-14 -49270.4)
(165763 53499.7 -4.68157e-14 -4274.23 -4.95325e-14 40068.7)
(111621 63058.6 -4.28559e-14 1405.21 3.3077e-14 28044)
(-363076 49933.9 7.25817e-14 6193.48 -4.89114e-14 -88549.7)
(-505166 53669.8 2.65022e-14 2169.17 5.79398e-14 -124804)
(1.05531e+06 23429.7 1.67331e-14 1323.73 -2.42764e-16 262172)
(-4413.77 71894.9 2.08128e-14 245.383 -1.01377e-13 -1034.26)
(1.57642e+06 64354.4 -1.97673e-14 -10476.7 -1.0794e-14 388543)
(-164632 55754.7 -7.703e-14 1585.24 5.31395e-14 -40455.2)
(1.33618e+06 42224.2 0 -13858.1 0 328095)
(-374578 55629.1 2.30453e-14 -2790.9 9.60322e-14 -93632.8)
(-411286 56589.3 -2.36197e-14 -3584.08 2.80915e-14 -102938)
(-450197 59139 -3.74422e-15 -4243.87 1.0212e-13 -112756)
(201845 60383.8 -5.72115e-14 467.75 1.4093e-14 50197.9)
(137093 64041.1 -6.09336e-14 -221.849 1.50668e-14 33960.6)
(-1.73292e+06 -8725.67 1.57304e-14 -7521.39 -8.99394e-15 -431839)
(-1.04293e+06 59704.7 -1.58334e-14 -5735.65 3.00512e-14 -260194)
(353915 45422.5 -6.08477e-14 4114.8 -3.565e-14 88834.4)
(487486 41305.6 1.71445e-13 3593 -9.22422e-14 121847)
(56992.8 67165 3.3455e-14 -6323.22 -8.66023e-14 12572.2)
(-294501 33227.3 0 1747.93 0 -72638)
(-300133 21776.4 9.14687e-14 102.912 -4.65432e-14 -74443.5)
(1.47711e+06 45331.1 2.54135e-14 -11344.6 1.6987e-14 363686)
(1.51415e+06 -3972.98 2.1034e-14 9903.39 1.86615e-14 378150)
(771298 26033.8 1.16438e-15 -371.658 4.40311e-14 191283)
(703463 26594.1 8.72161e-15 244.884 1.06412e-13 174604)
(844795 25274 2.29066e-14 -1140.38 -3.30761e-14 209328)
(-361064 57365.9 -5.52298e-14 3278.38 4.97524e-14 -88773.8)
(-242311 56862.6 -5.35301e-14 1854.22 5.87854e-14 -59662.2)
(156252 74515.3 0 1416.19 0 39120.6)
(105179 75918.8 -2.24615e-15 932.227 8.52075e-14 26328.3)
(341274 58602.8 -6.61127e-14 -527.925 5.41038e-14 84546.1)
(-145671 55966.9 -5.2848e-14 1267.1 1.25535e-13 -35829.4)
(-237477 84138.4 -1.06929e-14 2951.47 4.74851e-14 -58190.5)
(70276.9 63073.7 -1.95008e-13 -814.191 -5.18129e-14 17235.1)
(99113.3 58116.9 -1.35162e-13 -465.625 5.66198e-14 24476.5)
(-64731.5 69907.8 -2.62819e-14 1814.45 -3.67029e-16 -15611)
(-178793 51467.4 -2.22054e-14 3290.47 -1.38982e-14 -43545.8)
(-162631 50638.5 1.46015e-14 2645.23 -2.49835e-14 -39695.7)
(-165844 41214.4 0 -764.118 0 -41338.8)
(-83130.3 88122.7 3.15686e-16 -3393.14 -2.97332e-14 -21468.2)
(-729072 8159.06 6.41686e-14 -5671.22 -2.81026e-14 -182305)
(919236 42674.9 -8.39444e-14 -4234.37 -8.38778e-15 227030)
(1.22661e+06 140029 5.19178e-15 -219905 2.64201e-15 249785)
(-29389.8 63081.2 1.74115e-14 -2290 -3.95179e-14 -7860.39)
(180826 25228.4 6.35271e-14 1212.47 -1.45193e-13 45167.4)
(-1.54518e+06 -184773 1.30104e-14 127608 -8.54577e-15 -351728)
(83723.7 51235 2.72018e-15 3529.21 7.38107e-14 21649.2)
(224838 35567 5.13101e-14 2224.95 -5.89499e-14 56338.9)
(247802 38236.7 7.16384e-14 -3981.88 -3.02524e-14 60496.8)
(-3300.71 71900.6 5.3938e-14 -35.3 -8.01128e-15 -827.733)
(-3909.19 73826.5 5.68981e-14 -581.865 4.81868e-15 -1114.32)
(666121 30619.4 1.82822e-14 -4173.23 6.12454e-14 164243)
(551772 70705.7 2.33905e-14 3906.35 -5.65492e-15 137875)
(-499852 59636.4 0 4055.02 0 -123017)
(-428012 37052.9 -5.91315e-14 -7168.04 -3.70278e-14 -107977)
(1.50053e+06 -242447 -5.44825e-15 -63884.1 -3.73319e-15 356462)
(-445405 95526.3 -4.82563e-15 12322.9 5.70631e-14 -107456)
(-718745 40777.9 3.36926e-14 -1714.12 -1.99592e-14 -178761)
(-1.56872e+06 -631160 -1.47095e-14 331340 5.76782e-15 -307018)
(1.8142e+06 2931.75 0 25039.7 0 456352)
(-1.37426e+06 -585034 -4.78892e-15 156024 1.48306e-15 -302269)
(230380 97015.4 -3.21426e-14 -180.16 1.14051e-14 57117.3)
(-52097.1 59853.4 -5.50347e-15 -2488.03 7.70327e-14 -13543.7)
(-666972 70475.9 2.80098e-14 -5353.51 -3.09122e-14 -166818)
(-604497 68648.9 4.16145e-14 -4407.03 -5.1835e-15 -151081)
(-550583 66401.8 -4.72748e-14 -3986.59 1.81755e-15 -137600)
(196349 53079.3 4.08435e-14 3050.87 -1.14052e-13 49475.2)
(290840 49141.3 -1.02661e-13 3415.67 9.98874e-14 73010.8)
(29204 61311.5 -1.61143e-14 -6150.03 7.5713e-14 5720.15)
(40807.1 56212.8 3.82192e-14 -7624.6 4.90132e-14 8233.26)
(-100356 90494.5 -4.48084e-14 16042.7 1.21602e-14 -20919.9)
(-60554.8 53728.7 3.27139e-14 10339.4 -4.18971e-14 -12459.5)
(-861654 -347058 -3.7142e-15 -22037.9 7.73613e-16 -219262)
(148730 90866.1 -2.53275e-14 11335.8 -9.02214e-14 39715.6)
(-73241.5 55293.5 -8.54156e-14 -6315.04 -3.90939e-14 -19739.6)
(-343683 80556.8 0 -66.8406 0 -85291.2)
(148555 56024.9 6.73387e-14 537.435 -2.7578e-14 36993)
(-72465.1 71421.8 0 -332.285 0 -18062.5)
(-55981.7 61712.7 -4.142e-14 -67.4861 -6.56902e-14 -13906.9)
(508443 58929.5 5.85404e-14 3042.3 -6.12186e-14 126910)
(522868 40820.1 8.9427e-14 -443.449 4.27467e-14 129624)
(1.56257e+06 -629013 -5.4884e-15 -329427 -1.81556e-15 305969)
(858219 -346099 6.42126e-15 22120.1 1.7563e-15 218430)
(-166049 46467.5 1.26278e-14 1003.55 1.79907e-14 -40951)
(-177814 48099.3 -3.83563e-14 -2265.57 -7.85377e-14 -44681.4)
(-913872 6982.49 -4.26834e-14 -4295.3 -9.81943e-15 -227816)
(736041 42086.2 9.61989e-14 -3307.14 -2.51949e-14 181806)
(242079 58271.2 3.12836e-15 -1576.43 1.74056e-13 59673.6)
(359630 59625.9 5.91067e-14 -2627.22 6.43612e-14 88579.7)
(-851282 25896.4 -1.50546e-15 -793.983 3.76431e-14 -211417)
(-779993 27340 -3.79915e-14 -496.513 1.25661e-14 -193655)
(-710483 28527.2 -2.42372e-15 -534.666 5.88801e-14 -176418)
(-10245.3 72935.4 -8.97941e-14 -1089.67 2.60059e-14 -2812.43)
(-934321 27107.3 2.5008e-14 -1932.84 2.69184e-14 -232304)
(300622 56805 -6.05751e-14 -1732.57 2.97499e-14 74160.5)
(417575 57581 0 -2808.75 0 102912)
(395461 47106.5 2.3176e-14 -2839.1 5.54992e-14 97417.5)
(77256.3 60311.2 -7.58709e-14 2120.99 -2.00841e-13 19695.1)
(5734.98 65712.2 -6.65031e-14 -7290.96 -2.44975e-14 -386.07)
(342490 42122.2 -8.78821e-14 10695.7 1.58802e-14 87632.5)
(-280245 47816.5 -7.34132e-15 -1126.76 -5.92288e-14 -69814)
(43469.9 69587.3 1.01631e-15 -11268.5 1.29683e-14 7989.82)
(1.36849e+06 -583549 -4.97031e-15 -155214 -1.24756e-15 301038)
(195539 63871 6.12474e-15 -2683.2 -1.12376e-13 47851.5)
(236275 62761.9 5.22495e-14 -701.885 1.77873e-14 58450.4)
(-157620 63035.9 0 905.619 0 -38884)
(-186962 69375.6 1.93906e-14 -4176.52 -5.40679e-14 -47425.4)
(546734 65803 0 5604.14 0 137046)
(600366 68614.3 3.47244e-14 5406.88 3.3035e-14 150304)
(656564 72576.9 -7.8225e-14 5543.91 -7.5172e-15 164282)
(-293321 46563.1 1.08362e-13 -4341.13 1.10163e-13 -73856)
(-200520 51272.1 5.67882e-15 -3169.36 -6.5842e-14 -50539.6)
(-12237.1 71049.8 6.39562e-14 1247.87 3.40965e-14 -2726.65)
(1.38905e+06 19035.8 -1.03189e-14 -21196.6 -1.91856e-14 339391)
(-9490.92 75381.7 -6.9228e-14 -4567.48 2.15893e-14 -3488.17)
(14470.7 46571.1 -6.76339e-14 7830.57 -4.22091e-14 5533.4)
(29062.5 68065.2 4.97029e-14 579.987 -1.15507e-13 7354.89)
(309035 63361.1 5.33027e-14 -531.723 5.6417e-14 76545.8)
(-127774 10057.1 -8.80247e-14 -2870.4 4.32713e-15 -32415.6)
(406389 70697.8 0 -2698.18 0 100164)
(1.47608e+06 -52682.2 2.40226e-16 -211778 9.64979e-17 313700)
(314302 21432.5 5.07884e-14 4230.21 1.15613e-13 79034.2)
(300795 30364.2 2.30238e-14 -4901.47 1.25552e-14 73417.3)
(-444791 59049.4 7.60104e-15 4586.69 1.60373e-14 -109224)
(-317043 57243.9 -5.89995e-14 2983.42 1.89085e-14 -77924.5)
(-379637 41059.2 -1.20905e-13 -457.682 -2.11894e-14 -94309.2)
(-272341 45219.4 6.0876e-15 -1737.74 -6.40981e-15 -68004.6)
(973065 24333.5 -4.38237e-15 -2116.25 1.43235e-14 240912)
(803693 77073.6 1.87076e-15 -725.856 -2.96056e-14 199232)
(223121 68640.2 1.07081e-14 -2188.74 6.33977e-15 54817.9)
(300842 58947.5 2.00856e-14 399.081 3.42369e-14 74743.9)
(164206 68812.5 5.57782e-14 -3736.42 3.97886e-14 39815.8)
(222110 59280.8 5.00321e-14 -2912.2 -7.92881e-15 54387.5)
(-442240 47523.9 -9.42518e-15 4180.95 2.37602e-14 -108691)
(-579654 67437.2 -2.61992e-14 1562.58 4.70796e-15 -143436)
(-137450 102690 2.93531e-14 -344.075 2.10329e-14 -34189.6)
(974238 50325.3 3.2881e-14 4084.91 2.36957e-14 242742)
(1.05735e+06 50921.3 -7.15271e-15 17627.2 3.57289e-15 266724)
(1.26007e+06 50900.1 5.79888e-15 -1250.66 3.66841e-15 312338)
(83967.3 66628.8 -1.08436e-13 2048.15 1.31816e-13 21342.2)
(-310391 22669.4 -6.72173e-14 -2622.06 -3.45814e-14 -77664.8)
(-298757 32424 -8.52781e-14 5181.31 5.7089e-14 -72842)
(1.44608e+06 -529.499 0 10186.3 0 361330)
(1.44815e+06 50413.6 0 248.811 0 359376)
(825864 40728.7 1.31271e-14 -1856.15 6.32222e-14 204453)
(821130 12862.4 4.25985e-14 3829.73 -1.19144e-13 204689)
(-858067 13696.9 0 -7000.31 0 -214641)
(-835639 40041.1 0 5979 0 -205856)
(24977.6 66937.8 -1.49408e-14 3113.64 4.28504e-14 6970.02)
(-64207.7 35331.4 1.59967e-13 -4615.42 -6.77899e-14 -17076.4)
(-234531 31516.2 -4.21706e-14 -3291.42 -1.55731e-14 -59008.6)
(1.93633e+06 2994.88 0 39386.6 0 490215)
(-34590.4 60817.9 -1.0546e-13 -4197.9 -2.64741e-15 -9624.16)
(-39600.6 63584.3 -1.51898e-14 -5488.32 -8.46021e-14 -11187.5)
(198041 72753.2 -5.45868e-14 -4158.32 -3.74463e-14 48106.1)
(-158568 72581.8 -1.13913e-13 -4091.38 4.77536e-14 -40359)
(189951 48223.8 3.32854e-14 -6271.2 -3.44567e-14 45574.8)
(-732394 39364 2.34326e-14 -6402.48 -4.78942e-14 -183310)
(733227 42218.6 -9.65095e-15 -7417.25 -5.85954e-14 180088)
(-1.29501e+06 62771.9 1.02493e-14 -7686.44 -4.4557e-14 -323225)
(-1.60019e+06 -138165 5.61722e-15 305773 -4.10902e-15 -321170)
(545527 87100.5 -8.88021e-15 -11495.8 1.1101e-14 132504)
(56401.4 78318.7 -5.68935e-15 -3555 3.20147e-14 13112.3)
(-691035 65152.7 -2.85964e-14 -3961.95 -7.98308e-14 -172443)
(577723 28258.8 -3.69758e-14 6424.28 5.33038e-14 144939)
(-405803 43014.9 4.09637e-14 -7470.96 5.25489e-14 -102542)
(312235 63610.3 6.11006e-14 3747.19 1.05707e-15 78401.5)
(56632 74767.7 1.6957e-14 2323.56 7.9456e-16 14628.1)
(101830 60803 -7.17209e-14 -1201.55 9.01945e-14 24968)
(-205113 52879 5.01701e-14 -12964.7 -5.34152e-14 -54109.6)
(-330536 93306 8.72919e-16 4952.17 6.72652e-14 -80783.9)
(-186632 52233 7.68629e-15 -12161.8 -5.37847e-14 -49324.7)
(-301093 89171 4.87517e-14 4029.18 -1.78309e-14 -73707.6)
(73280 47355.5 -3.1021e-14 -2032.02 9.67354e-15 17678.1)
(-34196.5 76273.8 -8.05325e-16 2169.69 -5.94495e-14 -7946.49)
(-22406.7 77145.9 7.34989e-14 1736.16 5.90191e-14 -5128.78)
(-15568.8 72481.2 3.78024e-14 120.691 -8.24251e-14 -3832.99)
(1.04416e+06 38652.1 2.26771e-14 3042.63 3.49998e-15 259833)
(-10874.7 77373.7 -8.35373e-14 -4540.28 -3.71721e-14 -3824.78)
(-41418.4 62540.9 4.10464e-14 -6464.58 -1.37626e-13 -11880.7)
(1.48121e+06 -34326.2 -1.1319e-14 -77046.3 -8.36144e-15 348401)
(227901 49602.8 4.3834e-14 -4533.5 -5.62688e-14 55422)
(-544482 81922.5 2.99741e-14 9857.75 8.12258e-15 -132651)
(-604986 50736.6 -4.80678e-14 1926.99 -2.10562e-14 -149631)
(-601996 27745.2 0 -6559.9 0 -150995)
(757799 19113.8 -4.34283e-14 4901.01 -2.06601e-14 189241)
(724296 57796.9 2.54024e-15 7013.06 5.18227e-14 181453)
(-25748 53266.9 -4.85638e-14 1977.3 3.96375e-14 -5898)
(-19580.6 53557.8 3.52414e-14 1863.94 -1.97237e-13 -4395.85)
(-499075 89030.5 -1.99978e-14 5869.18 -5.00632e-16 -122374)
(-671410 66468.7 0 8500.56 0 -164481)
(478545 47839.1 1.09945e-14 5467.13 2.73802e-14 120093)
(-1.24746e+06 79204.5 4.79481e-15 -5308.36 -1.53833e-14 -310838)
(39325.8 55519.8 0 9478.83 0 12109.4)
(662972 40680.3 -2.39412e-15 -1839.27 1.6393e-14 164040)
(501055 85658.9 -1.2745e-15 3945.02 6.29082e-17 125301)
(-308262 68035.6 9.05641e-14 4748.64 -1.16483e-14 -75307.9)
(-240080 49686.6 -8.82568e-15 250.18 6.38824e-14 -59506.6)
(-219419 65882.5 1.39635e-14 2930.17 -5.31881e-14 -53715.3)
(-170844 52468.8 -7.89359e-16 -928.254 3.12503e-15 -42620.2)
(-252500 35972.1 3.26619e-14 1714.23 4.82785e-14 -62225.1)
(-211634 40543.3 -5.71322e-14 5307.08 1.15154e-14 -51194)
(-255344 80597.7 0 1158.95 0 -63068.4)
(-289567 83688.2 -2.92519e-14 -551.839 2.54587e-14 -71984.4)
(-318225 87793.7 -2.40146e-15 -736.895 -2.74207e-15 -79140.9)
(84138.1 56629.8 -1.40605e-13 1534.48 -7.03598e-14 21257.1)
(-17306.4 69130.6 -3.12039e-14 -2404.47 6.21956e-14 -4890.68)
(604930 34890.3 -1.78121e-14 3904.49 5.05704e-14 151064)
(632763 45706.8 2.46306e-14 -4894.93 -4.77703e-14 155787)
(106242 61566.3 5.06502e-15 -966.584 -3.51148e-14 26121)
(153008 54703.3 0 1676.8 0 38380.5)
(-349881 86468.3 3.70788e-14 -1655.28 -4.08887e-14 -87223.2)
(302349 56500.8 -7.08176e-14 3001.88 -8.69572e-16 75763.7)
(329997 78084.7 -3.09949e-14 3252.85 -1.91093e-15 82686.1)
(-117457 63821.3 -5.78242e-14 -2105.76 8.29787e-14 -29666)
(-99369 65978.5 3.375e-14 -2252.1 1.98673e-15 -25214.3)
(-146084 68629.8 5.48113e-14 373.317 1.95163e-14 -36153.8)
(-162441 60619.6 0 -1139.7 0 -40587.6)
(-729864 40977.6 1.64831e-14 -471.873 -2.52675e-14 -181211)
(321152 61152.2 -2.64601e-14 34.8143 -1.05018e-13 79692.9)
(231158 61486.1 -1.21271e-14 -608.492 -1.73402e-15 57203.9)
(-85072.2 161330 -7.69952e-15 17136.6 -5.57813e-15 -16856.2)
(837070 30287.8 -5.58025e-14 -6551.38 -3.34603e-14 206068)
(-985703 13235.9 4.85955e-14 1868.87 2.91042e-14 -244109)
(-124873 150501 0 -3936.83 0 -31960.3)
(-119697 63861.5 2.02039e-14 2494.88 6.10598e-14 -29080.3)
(-101896 66907.4 -1.51969e-13 4032.32 -3.85863e-14 -24282.1)
(-172475 59680.8 6.56472e-14 1330.41 7.37535e-16 -42464.6)
(-148763 64520.2 0 2834.94 0 -36207.7)
(335850 53373.9 3.42853e-14 -2750.75 -5.52118e-14 82648.6)
(386041 70764 1.2484e-14 -2541.86 5.29941e-15 95154)
(310331 55581.3 -2.53569e-14 -5876.63 2.43035e-14 75541.2)
(362661 71753.8 2.6943e-14 -4212.67 7.48109e-14 88938.3)
(282200 54011.6 2.10907e-14 -4456.92 3.54867e-14 68913.6)
(329724 68801.6 -4.5921e-14 -3392.26 2.62772e-14 80969.5)
(265182 34234.8 2.06037e-14 907.375 7.79158e-14 66022.2)
(255911 23281 6.06008e-14 4125.06 1.29898e-13 64520.1)
(-529279 72753.2 -1.20227e-14 1049.02 1.58838e-14 -131065)
(234491 65429.8 -6.28606e-14 -3365.59 -1.5224e-15 57346.9)
(-574906 54162.9 0 4823.78 0 -141449)
(992700 71812.3 3.48999e-14 -9068.53 -2.19921e-14 244059)
(-488445 34569.3 6.33819e-14 1852.97 -1.04375e-13 -120733)
(-358517 38235.1 7.64473e-14 217.274 -5.1425e-14 -88901.6)
(-1.18467e+06 -560010 -4.56306e-15 188993 1.01848e-15 -247048)
(35209.3 65452.3 8.53151e-14 564.467 -2.24323e-14 8876.21)
(1.05619e+06 44028.3 -1.16441e-14 -2346.34 -5.78289e-16 261481)
(-498490 48770.1 -1.78095e-14 1762.99 -5.15577e-14 -123248)
(-361157 48238.4 1.10807e-13 981.404 5.45917e-14 -89367)
(1.61473e+06 -6906.26 1.91596e-14 -2884.17 8.53137e-15 399932)
(-71019.5 59048.2 -1.22372e-14 -373.005 4.91477e-14 -17713.9)
(1.09381e+06 17514.1 2.91057e-14 3506 -1.8127e-14 272266)
(-252976 50208.2 3.82916e-14 1715.15 -6.75818e-14 -62343)
(-919394 73801 2.36821e-14 9793.83 -3.07752e-15 -225690)
(-864464 50094.4 -1.44694e-14 -5144.04 -1.11577e-15 -215767)
(831255 51527.7 -2.7439e-14 1184.67 1.80042e-14 206545)
(-102843 64996.4 -1.6803e-13 4322.64 -7.65747e-14 -24445)
(-2612.6 -30083.8 1.85571e-16 -47161.2 6.59801e-17 -12349.9)
(-14409.8 63436 0 3005.62 0 -2829.61)
(-1.57117e+06 -500902 7.48758e-15 200119 -2.06484e-15 -340186)
(1.17933e+06 -558552 8.84671e-15 -189335 2.78383e-15 245637)
(-722502 75371.5 3.03077e-14 -5807.78 -2.94923e-14 -180708)
(243878 50067.5 1.27879e-14 1636.96 4.94629e-14 60917.1)
(333801 44820 -4.13278e-14 2129.96 9.4033e-14 83351.3)
(101121 63232.4 8.23952e-14 -1595.45 2.45692e-14 24694.4)
(-186402 18481.1 4.77627e-14 615.738 -7.35113e-14 -46097.3)
(160908 76437.2 -3.9963e-14 -961.395 3.65988e-14 39686.1)
(-82956 51659.1 1.18046e-14 1069.04 1.81195e-14 -20317.8)
(-82141.9 89603 8.70189e-15 3417.27 2.53675e-14 -19533.2)
(-1.27863e+06 10615.9 -4.06524e-15 33567.2 9.8113e-15 -308926)
(10532 -17899.5 4.86793e-17 -31255.8 3.02134e-17 -5142)
(-413614 75271.6 -1.75221e-16 5138.1 3.36159e-15 -101351)
(322300 45955.3 2.98576e-14 -1781.66 9.27896e-14 79527.1)
(1.33522e+06 -258421 7.77505e-16 -35269.5 1.02969e-15 322545)
(-37197.3 51077.6 -7.70328e-15 -5958.37 -5.9944e-14 -10707.8)
(-42311.1 78558.9 6.11301e-15 -2581.26 5.85304e-14 -11138.7)
(-24621.9 69244.4 -1.04667e-15 513.126 -8.98556e-14 -5981.88)
(-65905.4 65046.3 -1.69197e-14 2776.98 2.31238e-14 -15663.5)
(27520.1 68355.2 2.66563e-14 -838.06 6.89609e-14 6620.36)
(18585.3 71810.5 -6.25118e-14 -719.687 -2.04334e-14 4432.83)
(-1.34161e+06 -257213 3.36391e-15 34237.7 -1.03566e-15 -324385)
(451575 76785.6 -2.51812e-14 1471.61 1.36793e-14 112410)
(-156971 62127.1 -1.67255e-13 1061.56 -4.74993e-14 -38684.2)
(514856 64683.1 8.90944e-14 3878.19 -1.5069e-13 128708)
(469313 62420.3 -1.00717e-15 3963.48 -5.7503e-14 117430)
(427511 59578.5 -1.63663e-13 1984.78 2.47952e-14 106567)
(76013.5 40776.6 -8.17263e-14 4250.22 -3.06061e-14 19915.1)
(-1.04414e+06 30689.4 4.50149e-14 -2995.42 -4.38441e-14 -259816)
(318725 49273.3 8.86837e-14 -1709.93 9.56438e-15 78657.9)
(447438 49524.9 -4.01871e-14 -1730.59 -5.75847e-14 110589)
(-89680.7 62670.3 -1.41625e-13 -484.091 -2.39086e-14 -22371.7)
(682113 84148.3 9.64009e-15 -9459.25 1.40665e-14 166899)
(126261 50122.9 -5.7312e-14 -1145.85 3.88624e-14 31043.6)
(-1.37445e+06 25335.5 -1.55218e-14 -2104.85 -5.79297e-15 -341552)
(38287.7 64276.6 -7.38984e-14 1955.01 -6.22481e-14 9985.04)
(-113246 66623.5 -1.4699e-13 2364.47 6.95011e-14 -27511.9)
(369098 53715.4 1.12898e-13 790.079 -1.63327e-14 91776.8)
(336247 52483.8 1.05024e-13 887.344 2.55575e-14 83650)
(306151 50384.5 -7.59108e-14 -815.74 2.09603e-14 75760)
(712168 45131 1.15736e-14 263.174 2.46244e-14 176769)
(145534 64787.1 -4.96294e-14 2178.39 -1.06526e-13 36650.4)
(-382008 57959.6 3.45995e-14 -5704.95 7.84341e-16 -96199.4)
(-305744 98438.5 2.13108e-14 2973.94 2.38485e-14 -75123.4)
(-166736 45740 0 1063.8 0 -41106.5)
(-517674 70808.4 -4.60843e-14 -5267.6 1.40347e-14 -129753)
(-568471 73408.4 -6.9618e-14 -5860.35 -4.63676e-15 -142503)
(-623673 77773.1 -6.97308e-14 -7075.36 3.36497e-14 -156501)
(289411 51100.9 1.40042e-15 4456 1.75056e-14 72914.5)
(199419 56620.6 2.21034e-14 2818.32 -2.77006e-14 50179.3)
(58880.2 12536.8 -6.42762e-14 2716.72 2.3202e-14 15283.4)
(104873 52936.1 0 -1865.96 0 25558.1)
(135973 44233.6 -7.52204e-14 169.561 4.49367e-14 33779.7)
(1.61118e+06 -70063.2 -4.19238e-15 -218562 -2.03267e-15 345537)
(568720 37281.3 7.49369e-14 355.925 -7.6914e-14 141199)
(-434404 64071.5 0 539.157 0 -107651)
(-308727 59796.9 -3.70682e-14 5691.14 -1.63931e-15 -75189.4)
(244277 63314.6 1.96993e-14 -2981.23 -2.43782e-14 59870.3)
(-78496 71101 3.28694e-14 -1605.9 2.69878e-14 -19874.9)
(-12288.4 73936 9.65079e-14 -1272.84 -7.61459e-14 -3364.82)
(23445.5 53744.4 7.80552e-14 6503.9 -1.23737e-14 7431.05)
(25941.7 55058.4 -4.09849e-14 6894.58 -3.82454e-14 8147.34)
(-5652.16 91135.8 -2.06157e-15 -2707.51 -1.69572e-14 -2074.21)
(-6456.25 49355.3 -1.80711e-14 -549.352 6.08417e-14 -1738.23)
(-1196.44 56417.6 -6.75137e-14 -2122.39 5.03544e-14 -823.469)
(8664.24 63738.2 6.44027e-14 -11710.6 -2.92942e-14 -755.853)
(111009 48710.2 -5.13582e-15 1876.82 -2.43716e-14 28009.3)
(-218441 96836.2 -1.21919e-15 1372.86 -1.19236e-14 -53859)
(64955.5 61984.3 1.61687e-13 184.506 -3.18568e-14 16162.6)
(6818.21 94211.9 7.01143e-15 -12630.3 1.00913e-14 -1442.09)
(-451117 92960.5 -1.7425e-14 -1726.17 -1.05095e-14 -112360)
(551869 47302.6 5.67808e-14 3092.08 5.08104e-14 137697)
(-234977 64895.1 -6.22555e-14 -6.3239 2.03774e-14 -58304.2)
(-1.07054e+06 206217 -3.05904e-15 195422 1.85303e-15 -217135)
(-150844 45000.7 4.42656e-14 -2288.18 4.81361e-14 -37995.1)
(-248820 92620.2 0 2823.1 0 -61036.8)
(70930.4 60974.2 8.62629e-14 -1513.53 -1.19289e-13 17223.7)
(108192 54190.6 4.56855e-15 -247.266 1.48594e-14 26783.2)
(1.17811e+06 -260765 -9.50493e-16 38582.9 1.6782e-16 301885)
(-1.58694e+06 13144 -1.28787e-14 9057.11 5.92544e-15 -391506)
(466744 50426.1 2.76058e-14 4370.18 2.32424e-14 116893)
(512542 51681.4 -2.82434e-14 3761.54 6.14031e-14 128105)
(-159293 66300.6 -2.04583e-13 3115.65 -7.31144e-14 -38750.7)
(106542 79159.8 3.63321e-14 6268.15 7.17412e-14 27990.4)
(-25580.5 60358.8 5.75494e-14 -4211.03 8.76962e-14 -7391.89)
(-669272 -434927 -8.12479e-16 49504.1 3.41817e-16 -153777)
(-1.53288e+06 57152 4.23586e-15 1885.53 5.4562e-15 -379871)
(1.36837e+06 33250.2 2.30428e-14 2515.02 -1.14093e-14 340145)
(-2.00277e+06 -31965.2 -6.02285e-15 -6278.4 -2.60906e-15 -498485)
(596786 44237.1 -2.50504e-14 -4233.07 -3.90529e-14 147024)
(414318 41516.5 -4.15266e-14 -2941.08 1.52802e-13 102071)
(-538713 69994 0 10865 0 -130970)
(68261.1 43747.2 -7.50213e-14 -6501.25 3.56853e-14 15323.9)
(-49883.5 77630.9 -6.12871e-14 3467.83 3.24834e-14 -11516.7)