/*--------------------------------*- C++ -*----------------------------------*\
| =========                 |                                                 |
| \\      /  F ield         | OpenFOAM: The Open Source CFD Toolbox           |
|  \\    /   O peration     | Version:  2.3.1                                 |
|   \\  /    A nd           | Web:      www.OpenFOAM.org                      |
|    \\/     M anipulation  |                                                 |
\*---------------------------------------------------------------------------*/
FoamFile
{
    version     2.0;
    format      ascii;
    class       volScalarField;
    location    "0.09";
    object      epsilon;
}
// * * * * * * * * * * * * * * * * * * * * * * * * * * * * * * * * * * * * * //

dimensions      [0 2 -3 0 0 0 0];

internalField   nonuniform List<scalar> 
9648
(
1871.66
1765.08
1737.28
1701.49
1662.12
1620.56
1577.35
1533
1488.19
1443.58
1399.77
1357.07
1316.01
1276.99
1240.16
1205.65
1173.61
1144.14
1117.18
1092.62
1070.44
1050.52
1032.73
1016.99
1003.22
991.244
980.956
972.266
965.099
959.338
954.921
951.774
949.831
949.019
949.311
950.637
952.942
956.202
960.423
965.575
971.599
978.518
986.326
994.984
1004.54
1015.03
1026.41
1038.67
1051.86
1066.06
1081.23
1097.32
1114.43
1132.45
1151.27
1170.68
1190.56
1210.77
1230.98
1251.01
1270.76
393.956
385.032
388.866
391.113
392.981
395.073
397.598
400.298
403.163
406.097
409.164
412.203
415.233
418.28
421.352
424.4
427.439
430.524
433.679
436.862
440.118
443.449
446.845
450.334
453.947
457.673
461.501
465.444
469.521
473.729
478.06
482.532
487.154
491.906
496.805
501.858
507.053
512.383
517.859
523.499
529.294
535.238
541.337
547.586
553.947
560.458
567.108
573.869
580.721
587.686
594.738
601.844
608.975
616.176
623.348
630.512
637.576
644.692
651.783
658.849
665.842
199.554
207.09
215.042
222.878
231.103
239.599
248.419
257.365
266.421
275.414
284.366
293.167
301.785
310.184
318.331
326.21
333.804
341.119
348.152
354.907
361.391
367.609
373.579
379.318
384.845
390.172
395.312
400.286
405.102
409.775
414.32
418.749
423.073
427.302
431.449
435.518
439.52
443.455
447.327
451.142
454.902
458.614
462.266
465.863
469.413
472.923
476.396
479.822
483.211
486.552
489.842
493.078
496.235
499.375
502.403
505.418
508.341
511.307
514.185
517.046
519.872
156.085
164.517
173.194
182.299
191.85
201.71
211.776
221.936
232.107
242.18
252.102
261.797
271.226
280.34
289.107
297.496
305.494
313.095
320.296
327.104
333.524
339.566
345.249
350.592
355.619
360.35
364.807
369.01
372.973
376.718
380.264
383.629
386.831
389.882
392.796
395.587
398.266
400.838
403.313
405.698
408.002
410.236
412.406
414.516
416.574
418.583
420.543
422.455
424.322
426.142
427.903
429.632
431.311
432.956
434.53
436.088
437.628
439.14
440.605
442.025
443.421
145.682
154.481
163.685
173.376
183.469
193.825
204.319
214.844
225.307
235.611
245.684
255.46
264.892
273.94
282.571
290.75
298.464
305.709
312.483
318.801
324.669
330.096
335.105
339.718
343.964
347.872
351.465
354.767
357.79
360.56
363.101
365.434
367.583
369.56
371.379
373.059
374.613
376.047
377.372
378.597
379.731
380.789
381.78
382.712
383.589
384.418
385.201
385.938
386.627
387.277
387.876
388.43
388.948
389.426
389.863
390.26
390.64
390.981
391.271
391.52
391.73
144.65
153.854
163.476
173.517
183.865
194.404
205.009
215.575
226.005
236.199
246.088
255.598
264.697
273.341
281.519
289.174
296.299
302.899
308.976
314.557
319.651
324.259
328.417
332.138
335.474
338.453
341.103
343.449
345.5
347.282
348.828
350.157
351.305
352.281
353.093
353.77
354.33
354.769
355.104
355.341
355.491
355.57
355.592
355.563
355.484
355.364
355.203
355.016
354.788
354.518
354.211
353.86
353.47
353.043
352.577
352.101
351.604
351.067
350.485
349.872
349.218
147.359
156.816
166.657
176.837
187.224
197.736
208.23
218.61
228.796
238.652
248.14
257.162
265.711
273.748
281.292
288.24
294.595
300.391
305.609
310.326
314.537
318.223
321.448
324.202
326.569
328.585
330.266
331.662
332.743
333.554
334.134
334.495
334.696
334.734
334.595
334.34
333.993
333.529
332.973
332.33
331.6
330.817
329.992
329.129
328.215
327.275
326.307
325.318
324.301
323.254
322.173
321.062
319.924
318.729
317.513
316.296
315.072
313.838
312.556
311.226
309.885
151.418
160.966
170.841
180.982
191.215
201.511
211.719
221.747
231.526
240.854
249.764
258.087
265.922
273.175
279.976
286.068
291.514
296.375
300.583
304.322
307.576
310.248
312.5
314.198
315.55
316.549
317.227
317.658
317.745
317.583
317.211
316.608
315.89
315
313.921
312.762
311.522
310.153
308.738
307.236
305.658
304.029
302.417
300.759
299.052
297.37
295.647
293.948
292.213
290.469
288.704
286.93
285.128
283.252
281.379
279.551
277.71
275.905
274.029
272.101
270.232
155.59
165.029
174.818
184.71
194.709
204.622
214.397
224.055
233.259
241.966
250.125
257.647
264.573
270.9
276.898
282.047
286.545
290.338
293.526
296.257
298.372
299.994
301.082
301.735
302.081
301.927
301.632
301.012
299.96
298.84
297.397
295.871
294.368
292.488
290.35
288.382
286.113
283.767
281.5
278.972
276.381
273.636
271.331
268.823
266.296
264.015
261.436
259.132
256.562
254.145
251.569
249.212
246.817
244.28
241.821
239.545
237.053
235.015
232.587
230.093
227.89
1290.52
1310.35
1330.19
1350.25
1370.93
1391.9
1412.24
1432.78
1453.48
1474.84
1496.8
1519.87
1544.28
1570.14
1597.28
1625.78
1655.53
1686.34
1718.01
1750.64
1784.12
1818.45
1853.67
1889.86
1926.68
1964.25
2002.67
2041.98
2082.11
2123.07
2165.03
2207.91
2251.72
2296.61
2342.58
2389.58
2437.68
2487
2537.62
2589.43
2642.44
2696.85
2752.66
2809.73
2868.33
2928.38
2989.76
3052.45
3116.66
3182.44
3249.71
3318.3
3388.74
3460.71
3534.47
3609.89
3687.71
3768.23
3851.52
3937.57
4026.66
672.709
679.762
686.755
693.687
700.651
707.607
714.648
721.656
728.766
735.874
743.104
750.343
757.618
764.922
772.233
779.555
786.863
794.17
801.465
808.746
816.022
823.283
830.531
837.722
844.817
851.83
858.749
865.591
872.342
879.018
885.635
892.166
898.627
905.035
911.383
917.67
923.912
930.1
936.231
942.305
948.331
954.327
960.26
966.129
971.953
977.71
983.386
988.959
994.464
999.886
1005.2
1010.4
1015.51
1020.65
1025.61
1030.66
1035.71
1041.04
1046.37
1051.94
1057.9
522.72
525.546
528.39
531.18
533.923
536.577
539.165
541.725
544.279
546.774
549.257
551.685
554.095
556.436
558.723
560.954
563.126
565.24
567.292
569.28
571.198
573.057
574.849
576.581
578.247
579.841
581.356
582.791
584.146
585.426
586.621
587.734
588.766
589.711
590.582
591.369
592.073
592.687
593.212
593.64
593.975
594.217
594.37
594.417
594.366
594.202
593.909
593.477
592.91
592.208
591.341
590.35
589.199
587.913
586.418
584.816
583.114
581.341
579.52
577.726
576.065
444.777
446.114
447.396
448.648
449.874
451.009
452.061
453.081
454.032
454.907
455.721
456.489
457.204
457.85
458.451
458.992
459.476
459.899
460.259
460.552
460.781
460.945
461.05
461.093
461.078
461
460.857
460.646
460.367
460.022
459.609
459.122
458.561
457.932
457.239
456.479
455.648
454.743
453.755
452.687
451.541
450.326
449.042
447.692
446.275
444.786
443.202
441.52
439.734
437.858
435.862
433.753
431.543
429.215
426.741
424.126
421.416
418.604
415.745
412.903
410.14
391.9
392.004
392.054
392.074
392.099
392.101
392.062
391.974
391.85
391.668
391.453
391.202
390.901
390.56
390.173
389.737
389.28
388.771
388.212
387.602
386.943
386.242
385.502
384.73
383.92
383.071
382.177
381.239
380.259
379.239
378.174
377.055
375.883
374.662
373.402
372.099
370.748
369.339
367.863
366.324
364.73
363.084
361.396
359.679
357.934
356.16
354.32
352.439
350.481
348.468
346.374
344.187
341.93
339.584
337.129
334.547
331.859
329.054
326.217
323.371
320.568
348.541
347.829
347.092
346.299
345.487
344.648
343.802
342.937
342.032
341.101
340.134
339.152
338.143
337.097
336.022
334.927
333.822
332.675
331.485
330.255
328.991
327.701
326.396
325.085
323.758
322.407
321.036
319.639
318.232
316.816
315.388
313.924
312.431
310.903
309.366
307.81
306.22
304.595
302.916
301.182
299.407
297.591
295.753
293.914
292.086
290.278
288.429
286.58
284.689
282.802
280.861
278.84
276.785
274.648
272.451
270.104
267.671
265.12
262.558
259.944
257.367
308.532
307.16
305.763
304.335
302.89
301.441
299.981
298.527
297.045
295.528
294.009
292.49
290.95
289.396
287.811
286.225
284.651
283.049
281.409
279.722
278.005
276.284
274.56
272.862
271.165
269.458
267.747
266.016
264.308
262.627
260.994
259.34
257.694
256.024
254.385
252.743
251.063
249.37
247.635
245.856
244.038
242.168
240.287
238.421
236.582
234.832
233.038
231.309
229.556
227.901
226.224
224.448
222.674
220.824
218.956
216.888
214.79
212.541
210.353
208.072
205.838
268.343
266.477
264.585
262.716
260.834
258.974
257.103
255.288
253.464
251.563
249.682
247.837
245.977
244.096
242.151
240.245
238.404
236.545
234.663
232.662
230.624
228.622
226.605
224.63
222.703
220.768
218.845
216.84
214.877
212.985
211.262
209.517
207.865
206.193
204.634
203.094
201.444
199.759
198.085
196.418
194.681
192.848
191.012
189.184
187.37
185.745
184.009
182.429
180.807
179.458
178.132
176.635
175.191
173.659
172.171
170.365
168.622
166.671
164.929
163.031
161.237
225.49
223.281
220.959
218.917
216.75
214.892
212.811
210.984
209.14
207.197
205.283
203.523
201.658
199.786
197.634
195.503
193.612
191.812
190.116
188.136
185.867
183.834
181.711
179.58
177.52
175.518
173.714
171.583
169.313
167.174
165.436
163.599
162.025
160.44
159.27
158.13
156.69
155.028
153.477
152.113
150.712
148.996
147.259
145.595
143.848
142.456
140.683
139.271
137.639
136.711
135.81
134.571
133.528
132.376
131.353
129.733
128.339
126.598
125.355
123.859
122.613
4120.05
4217.6
4318.16
4421.25
4526.66
4634.95
4745.97
4858.54
4972.58
5093.27
5246.34
5383.05
5521.12
5662.73
5807.41
5955.06
6106.09
6260.67
6418.29
6578.59
6741.5
6906.79
7074.01
7243.23
7414.07
7585.72
7757.81
7930.07
8102.21
8273.18
8442.87
8610.56
8775.2
8936.14
9092.89
9244.29
9387.04
9516.79
9616.52
9689.36
9735.86
9756.45
9750.26
9715.16
9649.53
9551
9415.66
9239.13
9017.46
8746.55
8420.48
8032.85
7578.77
7051.97
6446
5647.1
4666.67
4273.25
4117.67
4092.39
4096.67
1064.44
1071.53
1079.23
1087.3
1095.53
1103.97
1112.75
1119.48
1124.06
1130.26
1137.33
1146.06
1154.99
1164.01
1173.35
1182.99
1192.91
1203.04
1213.32
1223.74
1234.25
1244.89
1255.66
1266.58
1277.63
1288.81
1300.18
1311.75
1323.61
1335.81
1348.4
1361.47
1375.16
1389.59
1404.91
1421.45
1439.29
1458.7
1489.69
1527.54
1568.23
1611.67
1658.17
1707.77
1761.12
1818.49
1879.9
1945.65
2016.12
2090.97
2169.51
2250.36
2332.08
2412.23
2489.14
2550.2
2605
2664.49
2756.77
2875.67
2968.99
574.565
573.303
572.25
571.342
570.358
569.237
567.613
564.028
560.04
556.941
554.452
552.794
551.321
549.829
548.327
546.808
545.251
543.639
541.965
540.216
538.396
536.497
534.516
532.458
530.334
528.149
525.923
523.669
521.417
519.171
516.964
514.822
512.762
510.838
509.079
507.542
506.271
505.35
505.296
506.309
510.981
519.22
530.43
544.924
563.161
585.779
613.454
647.185
687.942
736.818
794.896
863.076
942.698
1033.83
1138.12
1252.45
1373.51
1493.8
1629.37
1801.2
2032.22
407.496
405.034
402.749
400.564
398.258
395.739
392.422
387.994
383.734
380.077
376.891
374.197
371.708
369.282
366.846
364.369
361.819
359.207
356.533
353.81
351.032
348.189
345.282
342.319
339.306
336.257
333.183
330.091
326.993
323.896
320.807
317.735
314.695
311.697
308.755
305.888
303.113
300.448
297.955
295.699
293.938
293.232
294.052
296.235
300.018
305.751
313.89
325.076
340.127
360.032
386.198
419.949
463.042
516.778
582.75
660.406
747.039
838.497
938.464
1058.77
1217.82
317.85
315.324
312.96
310.676
308.237
305.588
302.199
298.258
294.609
291.407
288.513
285.955
283.594
281.35
279.107
276.839
274.479
272.065
269.6
267.102
264.564
261.958
259.303
256.612
253.888
251.148
248.401
245.654
242.907
240.166
237.433
234.713
232.012
229.339
226.702
224.112
221.577
219.109
216.724
214.446
212.323
210.465
209.172
208.569
208.643
209.558
211.536
214.879
220.015
227.468
238.022
252.676
272.652
299.327
334.132
378.017
430.334
489.363
555.102
630.964
724.786
254.806
252.457
250.254
248.15
245.835
243.379
240.352
237.124
234.185
231.611
229.163
226.958
224.921
223.047
221.183
219.302
217.301
215.264
213.183
211.088
208.961
206.75
204.511
202.262
199.991
197.731
195.474
193.235
190.997
188.766
186.54
184.328
182.129
179.953
177.807
175.7
173.638
171.63
169.682
167.806
166.022
164.362
162.9
161.854
161.132
160.808
161.01
161.859
163.564
166.401
170.737
177.099
186.172
198.777
215.959
238.622
267.291
301.954
342.568
389.773
446.202
203.494
201.396
199.426
197.609
195.5
193.359
190.794
188.294
186.044
184.131
182.125
180.304
178.603
177.136
175.65
174.169
172.507
170.859
169.161
167.465
165.751
163.913
162.096
160.317
158.521
156.769
155.017
153.304
151.575
149.858
148.129
146.421
144.719
143.05
141.403
139.799
138.233
136.717
135.248
133.843
132.508
131.268
130.141
129.198
128.549
128.106
127.941
128.121
128.75
129.963
131.948
134.963
139.337
145.532
154.091
165.647
180.797
199.959
223.497
251.891
286.075
159.13
157.322
155.63
154.165
152.296
150.507
148.382
146.571
144.965
143.709
142.07
140.595
139.166
138.102
136.943
135.827
134.415
133.12
131.749
130.385
129.032
127.491
126.059
124.776
123.444
122.182
120.886
119.679
118.397
117.137
115.821
114.561
113.299
112.101
110.911
109.779
108.662
107.595
106.567
105.61
104.715
103.912
103.213
102.624
102.252
102.025
101.969
102.109
102.51
103.242
104.407
106.132
108.598
112.016
116.674
122.915
131.122
141.709
155.07
171.661
192.03
120.744
119.226
117.88
116.796
115.189
113.705
111.929
110.768
109.745
109.116
107.711
106.507
105.217
104.585
103.652
102.861
101.568
100.621
99.4777
98.3088
97.2616
95.8871
94.8274
94.1574
93.2236
92.3561
91.3843
90.6596
89.6789
88.7663
87.6692
86.7936
85.8812
85.1074
84.2913
83.5609
82.7458
82.001
81.3262
80.7341
80.2432
79.8174
79.5274
79.3159
79.143
79.1928
79.3428
79.5853
80.0299
80.5993
81.5614
82.8229
84.6136
86.8926
89.9036
93.702
98.6243
104.803
112.692
122.558
134.754
4018.39
3893.2
3754.97
3608.37
3464.43
3330.52
3208.62
3100.61
3008.63
2933.82
2876.36
2835.32
2808.84
2793.65
2786.6
2784.9
2787.04
2792.32
2800.2
2810.21
2822.06
2835.27
2849.23
2863.52
2877.67
2891.1
2903.36
2914.05
2922.83
2929.14
2932.52
2932.44
2928.29
2919.36
2904.91
2884.12
2856.23
2820.6
2776.81
2724.57
2663.98
2595.89
2521.85
2443.95
2365.27
2289.25
2219.04
2157.33
2105.75
2064.67
2032.79
2008.04
1988.47
1972.13
1957.47
1943.49
1929.84
1916.67
1903.89
1891.63
1880.3
2799.04
2536.67
2274.27
2021.85
1813.41
1633.67
1479.55
1348.24
1236.85
1143.9
1067.47
1007.62
963.616
931.738
909.392
893.696
882.622
875.06
870.282
867.799
867.262
868.325
870.637
873.862
877.717
881.937
886.29
890.613
894.729
898.562
902.035
905.083
907.894
910.052
911.108
910.888
909.126
905.448
899.306
889.942
876.904
859.574
837.554
810.454
778.25
741.472
701.155
659.087
617.47
578.467
544.252
515.867
493.305
476.028
462.763
452.392
443.663
435.871
427.212
414.629
399.226
2194.03
2226.14
2133.22
1915.41
1680.52
1463.19
1265.07
1097.05
956.76
839.607
744.414
668.884
611.871
570.039
539.046
516.201
499.14
486.279
476.672
469.753
465.084
462.28
460.981
460.83
461.497
462.706
464.249
465.966
467.728
469.444
471.053
472.522
473.837
474.945
475.41
475.037
473.715
471.181
467.065
461.005
452.645
441.654
427.697
410.61
390.438
367.515
342.534
316.48
290.663
266.449
245.146
227.597
214.065
204.553
198.233
194.58
192.694
192.255
192.455
192.977
194.6
1401.37
1580.53
1719.49
1775.31
1715.06
1572.46
1372.58
1174.99
1001.43
848.393
723.177
623.469
545.928
487.622
444.079
411.504
386.907
367.952
353.301
342.18
333.987
328.203
324.346
321.937
320.561
319.888
319.689
319.789
320.053
320.362
320.623
320.788
320.8
320.582
319.967
318.754
316.819
313.969
310.005
304.704
297.879
289.331
278.941
266.654
252.583
237.006
220.37
203.31
186.593
171.04
157.403
146.308
138.062
132.72
129.969
129.444
130.685
133.334
137.125
142.046
148.348
841.548
981.94
1139.77
1295.81
1413.42
1463.96
1430.98
1322.68
1170.78
994.794
837.374
705.194
595.676
511.677
447.565
399.129
362.686
334.542
312.676
295.893
283.264
273.999
267.378
262.707
259.413
257.062
255.361
254.104
253.133
252.296
251.491
250.651
249.724
248.618
247.247
245.476
243.179
240.234
236.496
231.847
226.158
219.351
211.356
202.204
191.992
180.922
169.321
157.58
146.175
135.621
126.413
118.983
113.638
110.514
109.561
110.586
113.319
117.498
122.94
129.554
137.239
515.229
600.812
705.991
830.704
966.009
1095.23
1194.32
1238.35
1215.52
1129.95
1003.33
861.746
719.955
606.4
514.857
442.947
387.824
345.153
312.162
286.927
267.964
253.986
243.834
236.43
230.927
226.72
223.422
220.775
218.582
216.651
214.855
213.134
211.421
209.649
207.718
205.545
203.03
200.07
196.587
192.473
187.678
182.138
175.853
168.834
161.174
153.017
144.578
136.148
128.023
120.553
114.082
108.943
105.402
103.646
103.748
105.647
109.185
114.153
120.37
127.666
135.856
327.554
378.544
441.792
520.06
614.522
723.23
838.441
945.425
1024.97
1058.73
1037.62
967.168
863.248
747.018
633.25
533.88
455.195
391.615
341.661
303.447
275.044
254.322
239.354
228.357
220.043
213.544
208.329
204.077
200.53
197.415
194.584
191.949
189.479
187.06
184.631
182.098
179.383
176.418
173.118
169.432
165.304
160.724
155.669
150.167
144.272
138.084
131.791
125.566
119.641
114.245
109.64
106.084
103.814
103.023
103.845
106.304
110.318
115.715
122.324
129.936
138.364
217.008
247.7
285.687
332.879
391.343
462.611
546.815
640.672
736.785
822.282
881.94
903.54
884.196
827.799
746.078
651.871
557.986
470.551
399.435
343.28
301.35
271.122
249.511
233.591
221.46
211.925
204.209
197.946
192.766
188.262
184.235
180.558
177.23
174.115
171.137
168.194
165.253
162.193
159.022
155.621
152.009
148.119
143.986
139.57
134.935
130.163
125.383
120.719
116.351
112.43
109.162
106.752
105.41
105.316
106.633
109.447
113.727
119.34
126.134
133.87
142.373
149.92
168.519
191.505
220.186
255.87
300.053
353.984
418.287
491.626
570.589
646.248
710.327
753.534
770.263
756.278
713.066
646.279
563.665
482.329
405.857
346.39
304.084
273.808
251.346
233.829
220.162
208.963
200.063
192.802
186.541
181.058
176.009
171.692
167.7
164.083
160.598
157.35
154.079
150.935
147.684
144.471
141.043
137.667
134.019
130.326
126.543
122.899
119.334
116.149
113.282
111.025
109.459
108.774
109.151
110.727
113.711
118.047
123.717
130.513
138.244
146.628
0.358003
100.663
89.986
2.19387
0.529435
0.106239
0.000745765
256.397
0.000756007
0.0143336
209.746
4.56909
0.000745458
150.564
0.0842471
88.3805
0.000753206
243.097
233.004
0.000751741
1.95002
147.759
90.156
0.000781419
0.000750553
0.26621
0.000751265
17.1498
0.000750704
0.000756728
4.63097
0.000763433
0.00977234
143.788
2.5347
239.729
219.73
13.9063
0.000741495
42.9893
78.7444
9.14123
0.000740521
62.4581
195.854
0.473198
0.000744479
0.00273973
2.29582
4.90082
236.752
235.477
0.000739323
0.000789491
0.125304
0.00100818
0.000756147
14.87
199.782
169.493
357.046
0.000810291
0.836301
0.00928319
113.968
0.0306234
176.854
205.614
0.00126067
0.000746735
10.5733
38.5374
69.2843
0.000824855
0.10033
157.809
118.891
43.7993
0.00073729
3.62802
0.00140704
41.0452
0.0111183
78.6326
0.000748925
8.25318
0.000754689
132.558
0.0191836
0.000967311
0.0834759
0.000736949
0.000796089
188.326
80.8627
0.000773787
1.148
1.57824
0.00190393
140.208
0.0129062
60.6654
7.27113
0.000736499
0.000737841
0.000738321
1.87947
0.176326
0.000764365
110.473
153.931
0.00737755
205.145
117.761
362.69
140.576
148.405
0.00105156
0.0528872
0.000771576
0.000739113
201.356
0.00228548
208.35
265.507
81.9783
0.000741512
3.51669
3.61333
0.000740715
0.0370223
0.00989198
165.467
0.000886835
143.204
0.000745204
0.000737324
271.791
220.078
0.000739885
0.823325
88.8043
0.33028
0.854397
113.869
194.879
0.64763
117.726
0.00380302
139.866
18.5286
0.00149426
45.5622
76.9195
117.183
0.000743487
0.000741034
0.239227
0.00073949
186.599
0.085003
0.00145032
0.000746705
0.000741729
0.000757989
27.9301
255.979
43.5015
0.000817906
159.092
241.222
502.426
232.227
0.0103226
177.871
139.141
138.008
0.000739124
0.00126065
378.082
175.289
9.37956
35.1261
0.000741397
0.000764408
198.42
0.0114019
2.01093
0.000756476
0.000742785
0.179095
0.000810448
191.988
1.71654
0.000738222
0.303773
223.029
60.6245
0.00125059
208.023
0.000742461
0.000741243
130.839
16.7056
158.469
0.00127535
0.000755625
0.00473554
20.7105
234.971
10.2678
55.2162
23.7411
162.984
1.52298
54.7145
45.8217
8.3094
7.40094
134.249
0.000808314
0.0230011
0.000739992
0.000753682
146.471
0.0041107
0.00475152
0.00102541
0.00958858
43.3945
171.717
0.0144739
78.9088
3.90269
17.8564
0.000740086
0.127497
22.0723
3.6227
0.00116414
37.7328
116.776
1.71103
3.79518
196.322
9.96163
8.96252
78.6555
0.00093982
0.000739247
0.000855086
0.00516279
135.549
0.000747179
0.00152228
0.000740382
2.05501
107.485
160.233
151.695
20.8117
7.23493
221.674
0.00127863
195.789
180.045
0.000740279
158.227
0.000748482
464.747
2.06006
141.396
0.0011744
0.000744047
15.9626
16.1783
0.000759207
0.000739935
0.000743951
0.000754177
0.995329
45.1461
25.0407
0.0196862
0.000760089
0.00073878
0.000736853
70.699
0.364556
0.000926343
7.80383
0.091235
0.154529
0.0007376
0.841489
0.000759973
0.138957
63.685
225.095
5.88645
0.000765247
0.0010293
44.6271
0.103853
198.372
226.419
0.000800266
0.000740363
0.000740427
107.556
0.000746632
212.994
0.000746147
9.38881
22.5104
0.042492
181.751
385.462
0.00096487
155.245
42.9198
120.114
129.266
26.8353
215.449
138.456
104.71
273.975
57.566
69.554
0.141052
218.506
198.733
166.67
130.333
0.00111478
137.23
176.611
167.427
0.0139498
0.000792511
0.000741007
0.000763568
1.25203
1.23042
5.97479
0.0595478
0.000743292
105.949
0.000741797
117.627
10.8143
132.865
31.6763
9.62869
0.000971765
0.000859495
0.524961
149.7
0.00177226
11.5664
202.257
161.71
60.2892
86.3854
64.7092
0.000758234
204.514
80.0359
119.08
0.000741633
110.98
90.4782
0.000751357
126.447
0.000742519
252.164
106.604
124.285
51.4187
172.036
92.3664
0.00077718
93.9243
0.000827506
157.694
61.2799
136.045
201.498
1.83911
0.428775
2.43331
0.00085302
605.417
0.954946
0.00248497
0.00189992
220.217
0.000826852
67.0472
0.00074474
0.000744602
0.00202931
37.9309
0.0642555
10.1252
0.000951056
51.5957
0.160602
111.874
453.722
19.4519
225.571
0.0008288
202.923
29.3518
0.000738496
59.2503
12.3183
0.000738475
0.000738284
246.368
0.00263919
12.9261
0.58136
153.776
0.0133435
1.3703
19.4731
69.6062
16.7168
37.4593
37.3222
0.00110551
0.0396052
154.747
6.29149
237.998
217.925
59.8523
0.0303487
73.5952
72.9367
4.55476
169.393
22.5204
12.5035
0.000894984
61.2317
246.127
0.000941222
175.14
13.576
22.8484
0.00721632
0.0308455
164.972
0.000962294
234.491
0.000925929
3.40843
0.000745621
7.85067
267.64
0.431727
0.000939887
0.0010157
146.36
115.24
0.122349
9.65197
202.664
675.848
0.00144047
6.95934
117.072
144.542
112.687
606.572
134.956
119.965
35.9803
1.00757
4.04573
219.047
65.7566
246.093
114.436
0.328205
194.312
141.675
0.000821881
216.57
123.564
23.6783
0.0153886
137.398
59.5887
1.78374
64.528
0.00160915
0.000743678
0.00196381
57.4995
39.9116
218.575
0.000746695
0.000747512
0.000738654
123.135
0.0561903
0.000740365
0.0886138
113.621
218.625
0.00198987
0.0021455
0.000738348
0.000744897
0.000954525
35.6034
126.021
6.19208
1.84978
172.32
266.445
0.00159507
23.9505
138.639
131.341
46.3984
287.383
0.000825292
0.00177046
0.000739802
545.688
0.296311
0.000738757
6.62867
0.148101
210.833
0.000758808
188.75
4.27264
0.0156805
136.618
0.000738808
0.00073983
0.000792465
261.606
37.5548
80.1307
245.268
34.4388
152.443
0.000736561
0.00114292
0.471424
0.0197492
0.0109332
213.557
170.934
0.000740666
34.1015
197.583
111.252
262.306
0.0016926
268.033
0.00103598
0.0118817
173.522
0.000741116
99.845
0.000758595
0.00075211
0.0429514
130.491
2.2586
383.945
74.7096
0.000767402
133.632
661.368
0.0419625
1.69536
10.1262
0.000746758
0.000742448
0.00218698
94.1579
9.09327
0.000835026
163.039
185.937
143.98
0.00250754
216.96
0.00127473
16.6567
0.128316
0.0531792
277.942
162.379
195.979
116.156
0.000769621
0.000736579
0.00164927
123.154
51.5139
3.13304
0.0029501
0.000743265
0.000739145
0.00143111
0.000788299
0.00130237
231.083
36.8682
0.00614559
114.053
105.901
0.000755266
142.341
0.000747509
1.0274
0.000762391
0.0101869
12.2173
0.00790525
0.000744535
2.07179
218.995
132.902
0.000748149
0.000739327
0.662965
0.000890427
0.000743967
36.5871
0.000791674
171.432
239.01
21.8489
164.823
355.102
254.381
241.315
0.000738843
0.00265562
0.0183992
446.268
109.059
112.374
18.1137
7.51708
176.796
185.848
57.3483
1.86165
14.8858
0.000747339
0.565957
136.009
24.5928
445.556
8.21094
0.466136
38.2195
0.268816
0.0097227
135.655
0.000739601
95.5609
0.000766306
4.4357
212.482
354.038
1.25357
0.00196052
9.46081
0.000744232
0.000739754
0.0655085
0.00592717
143.403
0.00270742
129.249
0.000747463
0.00877326
0.00073862
57.9668
0.00188531
169.138
363.796
0.00499012
202.057
215.858
0.000741718
124.087
200.604
0.000811187
208.791
0.241627
0.000902937
0.00074307
142.134
0.000738923
0.000857949
0.0495071
0.301345
274.782
189.833
0.000750628
0.000741138
15.917
15.1055
0.00313943
3.31248
15.957
0.000742679
0.000824786
0.000748999
112.905
196.57
4.75032
155.254
0.00710234
117.189
0.000818498
0.00367645
0.00666979
0.0786028
0.000741693
165.139
0.000741803
0.00998899
0.000744676
0.154017
0.00510129
0.000996462
0.734784
6.30351
133.841
0.615096
9.52496
140.496
259.449
0.000788903
136.377
211.795
15.4442
45.5588
0.0007642
422.91
36.8051
0.000740998
251.083
220.142
0.00138039
0.000756005
113.418
121.465
0.524285
215.411
250.47
3.47119
272.529
148.314
102.754
205.017
6.26556
69.4246
171.633
169.737
0.00509662
162.332
15.1828
547.352
0.000800938
1.99856
16.8777
163.524
97.1576
0.00687729
604.413
139.595
14.1556
0.0972695
4.49646
144.165
0.00108514
142.15
286.845
0.0345967
160.438
5.28616
55.7527
126.538
0.000742098
0.00170447
3.68791
6.58044
0.0273065
0.000744231
1.53843
3.50992
0.00103648
0.000758514
467.865
3.37316
24.3775
13.2363
0.00171258
0.000845469
0.674057
193.688
0.000770323
10.3851
124.572
1.32763
267.998
0.000888878
0.828145
0.000740034
0.00259637
55.3064
0.000737926
0.148975
173.609
69.246
0.343322
83.5839
7.3669
6.23028
0.000933114
16.1441
190.774
0.000740305
0.000740971
93.5706
0.0087898
0.000757872
40.5356
2.3996
192.075
135.807
50.3174
0.116416
13.5058
351.93
78.2814
214.492
0.000749162
198.288
0.000776598
73.1477
0.000863627
0.000798438
185.429
0.00272844
403.831
0.0118698
0.0161429
55.6757
11.0861
1.00054
0.000795009
111.985
0.000792191
0.000738453
214.857
100.034
29.8499
125.515
0.000758552
0.000736621
13.1487
93.3743
0.000736886
102.96
46.4502
0.000742462
120.901
0.000739664
6.30387
6.14617
7.19371
0.56676
99.8405
39.8902
0.000739524
179.727
179.723
0.000739195
0.0263786
140.19
0.000739807
173.637
113.903
558.958
0.000739615
0.000738466
205.856
0.142942
0.000823905
37.0965
98.9824
224.353
0.000736889
0.000801866
0.0093094
0.0152594
0.000742179
0.00257062
86.8633
150.606
0.000741878
5.23175
0.000743238
17.2883
0.00117954
0.000787538
14.6995
0.000739149
0.080006
0.00073874
21.5847
2.45724
8.2709
132.252
518.904
170.062
2.42053
25.3104
0.000758191
2.96972
196.985
663.021
0.0743439
0.000775274
79.3422
0.000741466
0.0654495
0.000738463
286.536
28.1802
5.7024
113.38
62.0918
8.85364
49.3504
11.2313
163.58
95.1119
0.000747971
0.000792461
0.00129155
0.000773417
0.0056344
41.459
0.00098163
137.715
0.00102606
2.17983
1.32583
136.665
0.00170511
20.5407
0.0260262
19.1816
16.4938
283.673
0.000862192
0.00103336
0.348347
78.7078
230.229
46.2295
0.731987
6.09251
7.01199
0.086266
2.69456
0.275437
164.399
0.000741137
533.231
0.744641
46.7596
0.000749093
44.9002
24.1759
0.000741815
119.528
11.6774
0.0294528
0.000743338
0.000739974
167.533
44.2103
28.0957
0.000736847
0.00397975
204.22
133.542
1.58551
0.00256666
0.000737829
76.5879
77.2963
158.513
19.2942
0.000739353
144.943
284.675
0.000746505
0.000746851
24.0578
0.000745529
0.0025099
0.274861
57.7788
0.00122444
149.181
239.5
0.000769095
0.000836661
0.000738999
0.000744241
40.268
676.907
203.75
0.0119568
15.8107
184.879
0.144644
23.7139
0.000900006
169.026
0.48446
131.637
6.50604
104.155
152.793
0.00112233
0.00075835
106.302
164.082
229.52
2.88697
124.755
0.690927
15.6508
0.00280405
0.000975734
180.878
88.7341
0.036504
2.05406
0.000744458
0.0417377
10.8244
0.0561536
18.4279
0.561339
534.28
132.634
1.6575
143.606
99.0856
157.983
8.04657
191.575
336.532
3.57836
29.7083
0.000775443
42.5954
35.033
0.000742991
0.000739899
0.0811034
0.000740485
0.000810283
156.884
477.813
0.000744314
196.165
0.000740053
0.000739625
0.000737153
0.000784449
0.00156018
125.238
15.7777
177.564
0.000745769
0.000747652
3.19018
0.000775042
0.0331832
0.000762598
0.0007501
156.839
0.000863219
0.00207598
364.075
0.00310097
0.000745854
190.611
0.000740884
0.000747808
0.00980529
0.00077342
2.56063
0.00157149
0.00770326
0.000744172
0.000758843
209.102
272.664
18.5815
0.0415131
162.409
7.5798
0.0016803
122.396
459.303
171.418
634.132
0.000744554
10.3672
61.8555
0.134906
141.534
179.768
0.301506
127.951
0.00104429
147.623
0.650333
6.37243
0.000756811
123.228
0.000795651
150.691
17.246
0.000745007
0.660498
0.0014758
0.0599964
0.000744726
2.53493
0.000798682
0.000757345
139.288
0.000746161
0.0876913
168.271
178.359
0.000860858
0.00103133
16.4995
179.099
0.000739347
0.000745196
0.445708
31.0913
105.704
0.00217204
8.11129
0.000740932
0.000765775
0.000737484
0.0111449
41.1579
0.00578517
156.664
124.352
179.227
106.126
0.000771097
155.706
40.275
0.000740131
0.000753982
0.000751153
0.000834627
0.000740141
147.819
0.000744598
0.000739365
217.745
0.485263
0.0015662
0.130481
148.052
8.00815
0.00927639
0.000782603
124.641
0.000762502
7.17289
0.000767827
0.000780285
102.075
78.6399
0.00150843
0.000922268
6.77937
0.000742921
230.132
0.000765075
77.8807
0.0123575
12.6457
0.00581592
5.83172
0.00663152
37.8296
0.000760372
0.000781306
0.00248002
23.7032
0.0734438
213.306
0.000740988
0.00158331
0.00105361
177.973
64.9439
417.555
0.00235255
0.00557552
1.19453
0.000748272
18.6818
34.5208
0.00382171
179.666
129.286
22.9019
0.00127766
0.658681
387.861
141.523
137.993
0.0102489
167.033
1.12137
69.7696
0.0535248
1.10624
15.6428
0.000761855
130.517
0.000846093
0.00308545
0.000891073
0.0245041
0.000798625
9.17365
0.00074691
66.9717
0.106035
0.000752465
0.14978
0.000756855