/*--------------------------------*- C++ -*----------------------------------*\
| =========                 |                                                 |
| \\      /  F ield         | OpenFOAM: The Open Source CFD Toolbox           |
|  \\    /   O peration     | Version:  2.3.1                                 |
|   \\  /    A nd           | Web:      www.OpenFOAM.org                      |
|    \\/     M anipulation  |                                                 |
\*---------------------------------------------------------------------------*/
FoamFile
{
    version     2.0;
    format      ascii;
    class       volScalarField;
    location    "0.09";
    object      nut;
}
// * * * * * * * * * * * * * * * * * * * * * * * * * * * * * * * * * * * * * //

dimensions      [0 2 -1 0 0 0 0];

internalField   nonuniform List<scalar> 
9648
(
0.000251105
0.000245803
0.000244541
0.000242881
0.000241027
0.000238992
0.000236833
0.000234593
0.000232295
0.000229955
0.000227596
0.000225271
0.000222991
0.000220761
0.000218619
0.000216588
0.000214671
0.000212861
0.000211176
0.000209628
0.000208205
0.000206909
0.000205746
0.000204702
0.000203771
0.000202957
0.000202257
0.000201664
0.000201168
0.000200771
0.000200462
0.000200239
0.000200097
0.000200038
0.00020005
0.000200136
0.000200296
0.000200526
0.000200814
0.000201161
0.000201577
0.000202052
0.000202583
0.00020318
0.00020383
0.000204525
0.000205276
0.000206095
0.000206972
0.000207892
0.000208866
0.00020991
0.000210995
0.000212119
0.000213287
0.000214494
0.000215708
0.000216889
0.000218062
0.000219243
0.000220429
0.000429078
0.000427135
0.00042482
0.00043041
0.000441396
0.000455627
0.000472346
0.000491538
0.000512992
0.000536653
0.000562255
0.000589842
0.000619226
0.000650194
0.000682556
0.000716235
0.000751053
0.000786753
0.00082315
0.000860199
0.000897674
0.000935462
0.000973505
0.00101165
0.00104972
0.0010877
0.00112557
0.00116325
0.00120062
0.00123764
0.00127434
0.0013106
0.00134636
0.00138169
0.0014165
0.00145072
0.00148441
0.00151759
0.00155019
0.00158206
0.00161327
0.00164393
0.00167395
0.00170329
0.00173217
0.00176012
0.00178721
0.00181365
0.00183951
0.00186454
0.00188878
0.00191236
0.00193543
0.00195745
0.00197904
0.00199991
0.00202061
0.00204006
0.00205886
0.00207708
0.00209495
0.000953306
0.000953249
0.000963054
0.000987452
0.00102023
0.00105902
0.00110174
0.00114868
0.00119891
0.00125293
0.00130961
0.00136914
0.0014311
0.00149517
0.00156103
0.00162834
0.00169689
0.0017663
0.00183634
0.00190678
0.00197739
0.00204808
0.0021186
0.00218881
0.0022586
0.00232788
0.00239664
0.0024647
0.00253207
0.00259867
0.00266441
0.00272932
0.00279341
0.00285655
0.00291873
0.00298003
0.00304034
0.00309975
0.00315818
0.00321563
0.00327209
0.00332747
0.00338192
0.00343538
0.00348782
0.00353919
0.00358944
0.00363877
0.00368698
0.00373416
0.00378027
0.00382538
0.00386997
0.00391262
0.00395542
0.00399615
0.00403654
0.00407395
0.00411136
0.00414763
0.00418323
0.00158944
0.00160496
0.00163128
0.00167067
0.00171987
0.00177651
0.00183904
0.00190674
0.00197888
0.00205555
0.00213578
0.00221942
0.00230573
0.0023946
0.00248548
0.002578
0.00267185
0.00276666
0.00286216
0.00295804
0.00305415
0.00315017
0.00324598
0.00334143
0.00343641
0.00353079
0.0036245
0.00371745
0.0038096
0.0039008
0.00399114
0.00408054
0.00416894
0.00425641
0.00434281
0.0044282
0.00451252
0.00459581
0.00467802
0.00475917
0.00483923
0.00491822
0.00499606
0.00507285
0.00514849
0.00522297
0.00529626
0.00536841
0.00543923
0.00550874
0.00557732
0.00564403
0.00570956
0.00577336
0.00583689
0.00589847
0.00595824
0.00601621
0.00607277
0.00612782
0.00618064
0.00226125
0.00228731
0.00232623
0.00237842
0.00244146
0.0025136
0.00259334
0.00267927
0.00277095
0.0028678
0.00296902
0.00307402
0.00318235
0.00329368
0.00340731
0.00352282
0.00363978
0.00375789
0.0038768
0.00399624
0.00411589
0.00423556
0.00435497
0.00447402
0.00459257
0.00471054
0.00482776
0.00494414
0.0050596
0.00517407
0.0052875
0.00539991
0.00551127
0.00562149
0.00573052
0.00583842
0.00594512
0.00605054
0.00615469
0.00625755
0.00635917
0.00645945
0.00655846
0.00665612
0.0067524
0.00684725
0.00694058
0.00703242
0.00712291
0.00721149
0.00729873
0.00738429
0.0074677
0.00754919
0.00762917
0.0077078
0.00778397
0.00785825
0.0079307
0.00800083
0.0080686
0.00293006
0.00296316
0.00301206
0.00307591
0.00315221
0.003239
0.00333479
0.00343832
0.00354841
0.00366442
0.00378541
0.00391063
0.00403975
0.00417205
0.00430709
0.00444432
0.00458293
0.00472289
0.0048637
0.00500509
0.00514679
0.00528839
0.00542978
0.00557069
0.00571111
0.00585083
0.0059898
0.00612781
0.00626468
0.00640034
0.00653484
0.00666808
0.00680015
0.00693089
0.00706022
0.00718815
0.00731469
0.00743971
0.00756317
0.007685
0.0078052
0.00792381
0.00804086
0.00815627
0.00826998
0.00838201
0.00849253
0.00860058
0.00870694
0.00881142
0.00891382
0.00901428
0.00911256
0.00920822
0.00930213
0.00939345
0.00948253
0.0095696
0.00965421
0.00973558
0.00981501
0.00359486
0.00363165
0.00368834
0.00376223
0.00385056
0.00395133
0.00406241
0.00418233
0.00431001
0.00444399
0.00458373
0.00472813
0.00487671
0.00502893
0.00518441
0.00534201
0.00550088
0.0056612
0.0058222
0.00598392
0.00614596
0.00630774
0.00646914
0.00662976
0.00678983
0.00694929
0.0071078
0.0072654
0.00742138
0.0075758
0.00772873
0.00788006
0.00803003
0.00817857
0.00832522
0.00847019
0.0086136
0.00875505
0.00889452
0.00903198
0.00916721
0.00930039
0.00943168
0.00956103
0.00968804
0.00981305
0.00993613
0.0100568
0.0101752
0.0102912
0.0104049
0.0105161
0.0106245
0.0107304
0.0108332
0.0109339
0.0110321
0.0111272
0.0112191
0.0113079
0.0113939
0.00425873
0.00429496
0.00435629
0.00443817
0.00453687
0.00464956
0.00477458
0.00490964
0.00505351
0.00520429
0.00536155
0.00552344
0.00569007
0.00586021
0.00603494
0.0062119
0.00639004
0.00656932
0.00674856
0.00692826
0.00710888
0.00728858
0.00746801
0.00764543
0.00782215
0.00799848
0.00817398
0.0083489
0.00852179
0.00869231
0.00886076
0.00902648
0.00919085
0.00935398
0.00951475
0.00967341
0.00983057
0.00998529
0.0101376
0.0102874
0.0104343
0.010578
0.0107188
0.0108578
0.0109939
0.0111275
0.0112585
0.0113864
0.0115118
0.0116344
0.011754
0.0118708
0.0119856
0.012097
0.0122045
0.0123089
0.0124106
0.01251
0.0126054
0.0126962
0.0127834
0.00492488
0.00495352
0.00501441
0.00509994
0.0052067
0.00532733
0.00546401
0.00561207
0.00576941
0.00593445
0.00610801
0.00628637
0.00646894
0.00665241
0.00684424
0.00704053
0.00723696
0.00743638
0.00763361
0.00782713
0.00802502
0.00822129
0.00841802
0.00860985
0.00879689
0.0089865
0.00917443
0.00936488
0.00955564
0.00974122
0.00992471
0.0101004
0.0102708
0.0104458
0.0106196
0.0107862
0.0109542
0.0111219
0.0112843
0.011446
0.0116045
0.011759
0.0119026
0.0120468
0.0121918
0.012328
0.0124651
0.0125929
0.0127233
0.0128442
0.0129671
0.0130781
0.0131922
0.0133104
0.0134222
0.0135205
0.013621
0.0137158
0.0138141
0.0139058
0.0139867
0.000221557
0.000222632
0.00022373
0.000224861
0.000226024
0.000227149
0.000228222
0.000229311
0.000230405
0.000231515
0.000232629
0.000233811
0.000235048
0.000236327
0.000237659
0.000239063
0.000240514
0.000241984
0.00024347
0.000244996
0.000246539
0.000248101
0.000249694
0.000251306
0.000252914
0.000254537
0.000256183
0.000257848
0.000259519
0.000261208
0.000262913
0.00026463
0.000266357
0.000268109
0.000269871
0.000271652
0.000273458
0.00027529
0.000277133
0.00027899
0.000280875
0.000282785
0.000284714
0.000286674
0.000288652
0.000290633
0.000292628
0.000294659
0.000296716
0.000298774
0.000300844
0.000302953
0.000305071
0.000307198
0.000309356
0.000311553
0.00031378
0.000316
0.000318273
0.000320638
0.000323099
0.00211255
0.00212762
0.00214197
0.00215561
0.00216798
0.00217948
0.00218916
0.00219834
0.00220601
0.00221342
0.00221934
0.00222452
0.00222871
0.00223194
0.00223425
0.00223557
0.00223609
0.00223574
0.0022346
0.00223267
0.00223004
0.00222681
0.00222286
0.00221823
0.0022129
0.00220687
0.00220016
0.00219269
0.00218456
0.0021757
0.00216608
0.00215578
0.00214482
0.00213313
0.00212076
0.00210776
0.00209406
0.00207974
0.00206479
0.00204921
0.00203304
0.00201625
0.00199898
0.00198117
0.00196278
0.00194378
0.00192408
0.00190379
0.00188278
0.0018611
0.00183872
0.00181559
0.00179182
0.00176681
0.00174147
0.00171492
0.00168785
0.00165965
0.00163168
0.00160373
0.00157597
0.00421678
0.00424927
0.00427955
0.00430844
0.00433543
0.0043611
0.00438502
0.00440722
0.00442752
0.0044473
0.00446546
0.00448248
0.00449767
0.00451182
0.00452461
0.00453605
0.00454625
0.00455519
0.00456287
0.00456932
0.0045747
0.0045789
0.00458202
0.00458412
0.00458517
0.00458513
0.00458403
0.00458179
0.00457848
0.00457393
0.00456832
0.00456148
0.00455345
0.00454433
0.00453399
0.0045225
0.00450981
0.00449595
0.0044809
0.00446474
0.00444751
0.00442929
0.0044101
0.00439007
0.00436904
0.00434696
0.00432366
0.00429913
0.00427321
0.00424586
0.00421713
0.00418635
0.00415388
0.00411924
0.00408315
0.00404438
0.00400333
0.00396034
0.00391642
0.00387171
0.00382644
0.00623214
0.00628155
0.00632952
0.00637512
0.00641821
0.00645986
0.00649976
0.0065372
0.00657322
0.0066078
0.0066405
0.00667111
0.00669997
0.00672745
0.00675295
0.00677686
0.00679908
0.00681959
0.00683839
0.00685557
0.00687116
0.00688531
0.00689796
0.00690926
0.00691915
0.00692764
0.00693466
0.00694026
0.00694451
0.00694733
0.00694863
0.0069484
0.00694664
0.0069433
0.00693844
0.00693203
0.00692398
0.00691423
0.00690285
0.00688991
0.00687556
0.00685981
0.00684298
0.00682509
0.00680619
0.00678612
0.00676467
0.00674169
0.0067171
0.00669064
0.00666227
0.0066315
0.00659811
0.00656193
0.00652312
0.00648091
0.00643507
0.00638641
0.00633585
0.0062833
0.00622981
0.0081339
0.00819748
0.00825874
0.00831737
0.00837312
0.00842693
0.00847909
0.00852935
0.0085771
0.00862307
0.00866661
0.00870796
0.00874744
0.00878475
0.00882007
0.00885369
0.00888462
0.00891358
0.00894033
0.00896492
0.00898754
0.00900832
0.0090274
0.00904481
0.0090605
0.00907446
0.00908676
0.00909748
0.00910671
0.00911451
0.00912079
0.00912531
0.00912808
0.00912907
0.00912835
0.00912576
0.00912112
0.00911452
0.00910576
0.00909501
0.00908239
0.00906809
0.00905244
0.00903575
0.00901811
0.00899954
0.00897962
0.00895787
0.00893472
0.00891003
0.00888307
0.00885346
0.00882094
0.00878502
0.00874578
0.0087018
0.00865382
0.0086021
0.00854748
0.00848996
0.00843126
0.00989143
0.00996537
0.0100361
0.0101046
0.0101698
0.010233
0.0102937
0.0103521
0.0104082
0.0104616
0.0105129
0.0105616
0.0106079
0.0106518
0.0106931
0.0107322
0.0107686
0.0108026
0.0108338
0.0108621
0.0108879
0.0109114
0.0109328
0.0109522
0.0109696
0.0109848
0.0109981
0.0110094
0.0110193
0.0110279
0.0110355
0.0110412
0.0110453
0.0110476
0.0110483
0.0110467
0.0110428
0.0110365
0.0110278
0.0110167
0.0110033
0.0109876
0.0109703
0.0109517
0.0109324
0.0109126
0.0108915
0.0108691
0.0108453
0.0108208
0.0107941
0.0107643
0.0107317
0.0106958
0.0106561
0.0106109
0.0105612
0.0105062
0.0104483
0.0103869
0.0103235
0.0114767
0.0115564
0.0116327
0.0117056
0.0117756
0.0118429
0.0119082
0.0119712
0.0120317
0.0120892
0.0121439
0.0121963
0.0122461
0.0122927
0.0123362
0.0123777
0.0124167
0.0124529
0.012486
0.012515
0.0125407
0.0125637
0.012584
0.0126019
0.0126175
0.0126305
0.0126408
0.0126483
0.0126539
0.0126587
0.0126632
0.0126662
0.0126682
0.0126686
0.0126682
0.0126657
0.0126597
0.0126509
0.0126397
0.0126262
0.01261
0.0125908
0.012569
0.0125459
0.0125221
0.0124989
0.0124734
0.0124475
0.0124202
0.0123943
0.0123664
0.0123347
0.0123011
0.0122643
0.0122244
0.0121776
0.0121261
0.0120683
0.0120078
0.0119429
0.0118754
0.0128672
0.012947
0.013023
0.0130942
0.0131631
0.0132295
0.0132941
0.0133569
0.0134177
0.0134754
0.0135298
0.013582
0.0136323
0.0136793
0.0137215
0.0137608
0.0137991
0.0138358
0.0138698
0.0138985
0.013922
0.0139431
0.0139608
0.013975
0.0139866
0.0139953
0.0140015
0.0140023
0.0139993
0.0139949
0.0139922
0.0139874
0.0139834
0.0139779
0.0139747
0.0139703
0.0139604
0.0139456
0.0139288
0.0139109
0.0138909
0.0138675
0.0138399
0.0138103
0.0137805
0.0137525
0.0137204
0.0136889
0.0136551
0.0136254
0.0135954
0.0135593
0.0135226
0.0134841
0.0134444
0.0133959
0.0133434
0.0132828
0.0132203
0.0131526
0.0130825
0.0140703
0.0141438
0.0142158
0.0142745
0.0143345
0.0143877
0.0144472
0.0144976
0.0145505
0.014607
0.0146581
0.0146982
0.0147451
0.0147925
0.0148323
0.0148642
0.0148931
0.0149236
0.0149585
0.0149889
0.0150082
0.0150286
0.0150478
0.0150583
0.0150645
0.0150673
0.0150711
0.0150705
0.0150587
0.0150424
0.0150299
0.0150124
0.0149976
0.0149794
0.0149695
0.0149632
0.0149498
0.014925
0.0148978
0.0148708
0.0148435
0.0148199
0.0147854
0.0147476
0.0147136
0.0146805
0.0146441
0.0146051
0.0145651
0.0145289
0.0144947
0.0144511
0.0144056
0.0143654
0.0143224
0.0142754
0.0142212
0.0141619
0.0140956
0.0140277
0.0139533
0.000325575
0.000328054
0.000330624
0.000333266
0.000335938
0.000338581
0.000341239
0.000343917
0.000346597
0.000349378
0.000352788
0.000355865
0.000358895
0.00036192
0.000364964
0.000368045
0.000371147
0.000374243
0.00037734
0.000380455
0.000383567
0.000386672
0.000389781
0.00039287
0.000395924
0.000398951
0.000401953
0.000404917
0.000407826
0.00041068
0.000413471
0.000416187
0.000418816
0.000421361
0.000423797
0.000426128
0.000428313
0.000430281
0.000431764
0.000432827
0.000433512
0.000433809
0.000433704
0.000433189
0.000432204
0.000430689
0.000428604
0.000425896
0.000422448
0.000418121
0.000412793
0.00040632
0.000398435
0.00038887
0.000377285
0.000360342
0.000338783
0.000329332
0.000325494
0.000324935
0.000325057
0.00154823
0.00152106
0.00149407
0.00146735
0.00144043
0.00141335
0.00138658
0.00135908
0.00133142
0.00130407
0.00127293
0.00124322
0.00121458
0.0011869
0.00115988
0.00113332
0.00110693
0.00108066
0.00105448
0.00102846
0.00100263
0.000976935
0.000951427
0.000926147
0.000901131
0.000876448
0.000852105
0.000828178
0.000804671
0.000781609
0.000759042
0.000736997
0.000715469
0.000694499
0.000674142
0.000654418
0.000635471
0.000617299
0.000596829
0.000575471
0.000554813
0.000535032
0.000516201
0.000498496
0.000481995
0.000466867
0.00045334
0.000441628
0.000431938
0.000424549
0.000419766
0.000417957
0.000419469
0.000424827
0.000434172
0.000447623
0.000474665
0.000516305
0.000582874
0.000688236
0.000849168
0.00378139
0.00373697
0.00369298
0.00364867
0.00360316
0.00355638
0.00350778
0.0034578
0.00340982
0.00336196
0.00331189
0.00326069
0.00320975
0.00315945
0.00310917
0.00305851
0.00300693
0.00295447
0.00290111
0.00284706
0.0027923
0.00273673
0.00268042
0.00262348
0.00256595
0.00250797
0.00244959
0.00239091
0.00233184
0.00227251
0.00221282
0.00215276
0.00209237
0.00203151
0.00197023
0.00190847
0.00184631
0.00178365
0.00171914
0.00165237
0.0015754
0.0014908
0.001403
0.00131297
0.00122173
0.00113033
0.00104012
0.000952347
0.000868604
0.000790511
0.00071971
0.000657834
0.000606001
0.000565736
0.00053739
0.000521675
0.00052269
0.00054387
0.000592129
0.000680829
0.000833219
0.00617624
0.0061241
0.00607259
0.00602083
0.00596706
0.00591175
0.00585324
0.00579495
0.00573865
0.00568221
0.00562317
0.00556234
0.00550115
0.00544008
0.00537828
0.00531513
0.00524987
0.00518269
0.00511372
0.00504321
0.0049712
0.00489732
0.00482187
0.00474502
0.00466685
0.00458751
0.00450708
0.00442564
0.00434305
0.00425925
0.00417416
0.00408771
0.00399974
0.00391022
0.0038191
0.0037263
0.00363171
0.00353527
0.00343644
0.00333459
0.00322693
0.00310704
0.00297107
0.00282424
0.00266681
0.00249907
0.00232179
0.00213607
0.00194395
0.00174883
0.00155429
0.0013665
0.0011909
0.00103394
0.000899452
0.000791191
0.000712846
0.000666715
0.000653836
0.000678927
0.000755277
0.00837153
0.00831334
0.00825625
0.00819982
0.00814072
0.00808021
0.00801677
0.00795426
0.00789283
0.00783108
0.00776582
0.00769874
0.00763084
0.00756286
0.00749358
0.00742174
0.00734646
0.0072686
0.0071883
0.00710604
0.00702172
0.00693477
0.0068458
0.00675521
0.00666296
0.00656941
0.00647443
0.00637808
0.00628
0.00618008
0.00607809
0.005974
0.00586767
0.0057591
0.00564819
0.00553495
0.00541932
0.00530114
0.00518016
0.00505597
0.00492754
0.00479238
0.00464289
0.00447682
0.00429652
0.00410079
0.00388833
0.0036579
0.00340844
0.0031407
0.00285559
0.00255677
0.00225136
0.00194976
0.0016641
0.00140689
0.0011913
0.00102484
0.00090754
0.000837574
0.000817185
0.0102577
0.0101934
0.0101309
0.0100701
0.0100063
0.00994153
0.00987386
0.00980774
0.00974237
0.00967676
0.00960628
0.00953369
0.00945986
0.00938617
0.00931007
0.00923052
0.00914607
0.00905897
0.00896907
0.00887723
0.00878311
0.00868562
0.00858645
0.00848626
0.00838453
0.00828174
0.00817743
0.00807159
0.00796341
0.00785283
0.00773947
0.00762352
0.00750492
0.00738384
0.00726011
0.00713391
0.0070051
0.00687364
0.00673934
0.006602
0.00646106
0.00631559
0.00616266
0.00599304
0.00580955
0.00561083
0.00539416
0.00515826
0.00490017
0.00461723
0.00430743
0.00396902
0.0036029
0.00321491
0.00281438
0.00241858
0.00204893
0.00172525
0.00145909
0.00125385
0.0011083
0.0118033
0.0117329
0.0116648
0.0115997
0.011531
0.0114617
0.0113898
0.0113205
0.0112522
0.0111837
0.0111078
0.0110294
0.0109494
0.0108703
0.0107875
0.0107004
0.0106066
0.0105107
0.0104122
0.0103124
0.0102103
0.0101041
0.00999782
0.00989209
0.009785
0.00967729
0.00956769
0.00945661
0.00934206
0.00922446
0.00910321
0.00897948
0.00885293
0.0087243
0.0085931
0.00845978
0.00832392
0.00818582
0.00804525
0.00790237
0.00775672
0.00760789
0.00745467
0.00729287
0.00711441
0.00692237
0.00671417
0.00648795
0.00624108
0.00597077
0.00567326
0.00534469
0.00498222
0.00458349
0.00415112
0.00369326
0.00322654
0.0027748
0.00236032
0.00199912
0.00170017
0.0130046
0.0129271
0.0128533
0.0127841
0.0127103
0.0126365
0.0125608
0.0124883
0.0124178
0.012347
0.0122654
0.0121803
0.0120937
0.0120092
0.0119188
0.0118233
0.0117196
0.0116152
0.011509
0.0114031
0.011295
0.011182
0.0110721
0.0109656
0.0108571
0.0107477
0.0106357
0.0105223
0.0104032
0.0102802
0.0101527
0.0100242
0.00989295
0.009761
0.00962665
0.00949105
0.00935284
0.0092138
0.00907333
0.00893238
0.00878986
0.00864572
0.00849892
0.00834718
0.00818242
0.00800391
0.00781004
0.00759968
0.00737139
0.0071229
0.00685178
0.00655401
0.00622483
0.00585963
0.005455
0.00501049
0.0045322
0.00403305
0.00353306
0.00305337
0.00261361
0.0138746
0.0137864
0.0137078
0.0136324
0.0135563
0.0134769
0.0134001
0.0133221
0.0132509
0.0131751
0.0130903
0.0129956
0.0129047
0.0128111
0.0127131
0.0126052
0.0124943
0.0123797
0.0122688
0.0121611
0.0120479
0.0119328
0.0118232
0.0117184
0.0116128
0.0115017
0.0113904
0.0112735
0.0111506
0.0110208
0.0108888
0.0107584
0.010625
0.0104929
0.0103594
0.0102253
0.0100885
0.00995581
0.00982317
0.00969416
0.00956311
0.00943265
0.00930025
0.00916419
0.00902127
0.00886024
0.00868247
0.0084879
0.00828015
0.00806109
0.00782259
0.00756584
0.00728051
0.00696638
0.00661359
0.00622441
0.00578967
0.00531833
0.0048128
0.00429025
0.003771
0.000322817
0.000319321
0.000315454
0.000311304
0.000307144
0.000303124
0.000299368
0.000295985
0.000293059
0.000290634
0.000288733
0.000287389
0.000286523
0.000286009
0.000285776
0.000285742
0.000285843
0.000286029
0.000286298
0.000286651
0.000287062
0.000287515
0.000288002
0.000288492
0.00028896
0.000289406
0.000289818
0.00029018
0.000290465
0.000290666
0.000290767
0.000290745
0.000290587
0.000290268
0.000289762
0.000289043
0.000288086
0.000286866
0.000285343
0.000283515
0.000281382
0.000278965
0.000276284
0.000273441
0.000270515
0.000267623
0.000264917
0.00026252
0.000260501
0.000258857
0.000257569
0.000256578
0.000255776
0.000255089
0.000254475
0.000253902
0.000253332
0.000252733
0.00025216
0.00025167
0.000251301
0.000954747
0.00102783
0.00108867
0.0011317
0.00115427
0.00116652
0.00116823
0.00116029
0.00114568
0.00112629
0.00110382
0.00107848
0.00105367
0.00103466
0.00101994
0.00100763
0.000996872
0.000987584
0.000980251
0.000975377
0.000973209
0.000973677
0.000976346
0.000980699
0.000986243
0.000992607
0.000999492
0.0010066
0.00101366
0.00102032
0.00102627
0.00103107
0.00103391
0.00103515
0.00103471
0.00103216
0.00102723
0.00101973
0.00100924
0.000995361
0.000977253
0.000954335
0.000925832
0.000891041
0.000849573
0.000801366
0.000747449
0.000690111
0.000632743
0.000579278
0.000532723
0.000495173
0.000466913
0.000446607
0.000432814
0.000423901
0.00041886
0.00041655
0.000416818
0.000420643
0.000427789
0.00101822
0.00121306
0.00141086
0.00161659
0.00175518
0.00187284
0.00197324
0.00204886
0.00210348
0.00214192
0.00216434
0.00217391
0.00217009
0.00216212
0.0021585
0.0021559
0.00215352
0.00215137
0.00215077
0.00215348
0.00216078
0.00217313
0.00219007
0.00221054
0.00223334
0.00225753
0.00228239
0.00230728
0.0023315
0.00235426
0.00237501
0.00239278
0.00240647
0.00241466
0.00241832
0.0024164
0.00240775
0.00239216
0.00236917
0.00233816
0.00229826
0.00224852
0.00218798
0.00211556
0.00203001
0.00193023
0.00181576
0.00168763
0.0015489
0.0014059
0.00126766
0.00114443
0.00104466
0.000970602
0.000921928
0.000893143
0.000880509
0.000879159
0.000888577
0.000908146
0.000934433
0.00088813
0.00107555
0.00131111
0.00158295
0.00184345
0.00209159
0.00233981
0.00254288
0.00271078
0.00286021
0.00298366
0.00308643
0.0031718
0.00323976
0.00329646
0.00335204
0.00340436
0.00345311
0.00349975
0.00354688
0.00359677
0.00365104
0.00370971
0.00377173
0.00383549
0.00389973
0.00396341
0.00402579
0.00408587
0.0041426
0.00419507
0.00424234
0.00428288
0.00431511
0.00433813
0.00435188
0.00435456
0.00434537
0.00432369
0.00428848
0.0042387
0.00417272
0.00408899
0.00398532
0.00385922
0.00370765
0.00352743
0.00331656
0.0030755
0.00281036
0.00253453
0.00226734
0.002031
0.00184149
0.00170519
0.00161647
0.00156554
0.00154221
0.0015391
0.00155049
0.00156957
0.000852093
0.000948496
0.00111237
0.00134523
0.00162762
0.00193915
0.00226358
0.00257251
0.0028609
0.00314512
0.00338101
0.00358824
0.00378345
0.00395828
0.0041219
0.00427649
0.00442794
0.00457571
0.00471904
0.00485916
0.00499759
0.00513615
0.00527546
0.00541485
0.00555268
0.00568777
0.00581905
0.00594594
0.00606734
0.00618206
0.00628943
0.00638826
0.00647739
0.00655463
0.00661828
0.00666758
0.00670096
0.00671724
0.00671479
0.00669224
0.00664723
0.00657731
0.00647893
0.00634851
0.00618133
0.00597167
0.00571354
0.00540157
0.0050347
0.00461784
0.00416792
0.00371305
0.00328928
0.00293015
0.00265483
0.00246316
0.00234136
0.00227181
0.00223907
0.00223154
0.00224036
0.00102349
0.00100185
0.00104824
0.00116912
0.00136593
0.00163372
0.0019593
0.0023158
0.0026783
0.00303416
0.00336384
0.00367381
0.00398578
0.00425527
0.00452271
0.004795
0.00506661
0.00534221
0.00561843
0.00589335
0.00616442
0.0064308
0.00669259
0.00694914
0.00719881
0.0074404
0.007673
0.00789619
0.00810893
0.00831016
0.00849911
0.00867496
0.00883609
0.00898092
0.00910665
0.00921165
0.00929467
0.0093533
0.00938605
0.00938911
0.00935958
0.00929215
0.00918244
0.00902312
0.00880761
0.00852772
0.00817478
0.00774186
0.00722692
0.00663633
0.00599015
0.0053242
0.00468698
0.00412825
0.00368259
0.003359
0.00314373
0.0030124
0.00294094
0.00291055
0.00290855
0.00146828
0.00130595
0.00121549
0.00120033
0.00126433
0.0014109
0.00164048
0.00194439
0.00230393
0.00269373
0.00308513
0.00346317
0.00382875
0.00417823
0.00453936
0.00491545
0.00529431
0.00570027
0.00612012
0.00655033
0.00698261
0.00740926
0.00782843
0.00823827
0.00863613
0.00902021
0.00938906
0.00974224
0.0100786
0.0103968
0.0106967
0.0109762
0.0112346
0.0114688
0.0116773
0.0118575
0.0120073
0.012124
0.012204
0.0122435
0.0122361
0.012176
0.0120556
0.0118653
0.0115949
0.0112338
0.0107749
0.0102089
0.00953649
0.00876413
0.00791682
0.00703529
0.00617774
0.00540741
0.004774
0.00429924
0.00397311
0.00376708
0.0036486
0.00359094
0.0035753
0.00222858
0.00190954
0.00166358
0.00149587
0.00140989
0.00140868
0.00149506
0.00167006
0.00193017
0.00226305
0.00264607
0.00305345
0.00346699
0.00387458
0.00428479
0.00471154
0.00516899
0.00569064
0.00623176
0.00680846
0.00740582
0.00800514
0.00860239
0.00919031
0.00976493
0.0103226
0.01086
0.0113755
0.0118667
0.0123322
0.0127715
0.0131816
0.0135616
0.0139095
0.0142223
0.0144968
0.0147313
0.0149178
0.015059
0.0151428
0.0151662
0.015117
0.0149895
0.0147679
0.014441
0.0139967
0.0134309
0.0127317
0.0119054
0.0109571
0.00991766
0.00882878
0.00775549
0.00677224
0.00594099
0.00529955
0.00484487
0.00454967
0.00437309
0.00428063
0.00424561
0.00327176
0.00281587
0.00241806
0.00208899
0.00183969
0.0016765
0.00160345
0.00162212
0.00173321
0.00193508
0.00221925
0.00257207
0.0029775
0.00341585
0.00387636
0.00436246
0.00486777
0.00541988
0.00602685
0.00672453
0.0074616
0.0082087
0.00897569
0.00974671
0.0105123
0.011265
0.0119964
0.0127021
0.0133758
0.0140158
0.0146258
0.0151935
0.0157216
0.0162071
0.016646
0.0170343
0.0173717
0.0176397
0.0178551
0.0179941
0.018061
0.0180252
0.0179052
0.0176559
0.0172797
0.0167538
0.016096
0.0152695
0.01431
0.0131986
0.0119901
0.01071
0.00943156
0.00824211
0.00720467
0.00638426
0.00577917
0.00537851
0.00512707
0.0049895
0.00492496
0.00312834
0.013112
0.0131558
0.00194317
0.00295579
0.00577071
0.0012479
0.013939
0.00125449
0.00322671
0.027569
0.0129077
0.00124769
0.0116962
0.00536085
0.0158864
0.00125256
0.0141296
0.0260042
0.00125174
0.00191541
0.011819
0.0128074
0.00127062
0.00125096
0.00438051
0.00125143
0.00329075
0.00125089
0.00125496
0.00514636
0.00125812
0.00274869
0.012562
0.0119425
0.0237897
0.0196197
0.0129826
0.00124512
0.0151615
0.00546536
0.00837182
0.00124267
0.0154629
0.00574701
0.00851503
0.00124677
0.00179515
0.00753145
0.0132343
0.00911109
0.0122073
0.00124368
0.00127483
0.00227999
0.000972384
0.00125459
0.00521248
0.021857
0.0135855
0.00883957
0.00128843
0.0013028
0.00270164
0.0141739
0.000385645
0.0211342
0.00964731
0.00151852
0.00124175
0.0376399
0.0133205
0.00530731
0.00113567
0.00292185
0.0337248
0.0136521
0.0153917
0.00124236
0.0126085
0.00158799
0.0119887
0.000835078
0.0161632
0.00124183
0.0112958
0.0012536
0.0209776
0.00213901
0.00137727
0.00419049
0.00124212
0.00127961
0.0132052
0.0142938
0.00126577
0.00944772
0.00275041
0.00175829
0.01521
0.000300945
0.0614855
0.00798613
0.00124176
0.00124226
0.00124301
0.00549305
0.00586166
0.00125985
0.0152344
0.01509
0.00190667
0.00796662
0.0108697
0.014723
0.0208251
0.0223553
0.00142104
0.00483239
0.00126115
0.00124261
0.00595334
0.000701612
0.0141024
0.0105405
0.00498578
0.00124211
0.0110432
0.011472
0.00124238
0.0035843
0.00276299
0.00356686
0.0012887
0.0222141
0.00124269
0.00124209
0.011106
0.0123798
0.00124329
0.00175655
0.0147585
0.00402323
0.0082479
0.0137671
0.0274959
0.00225645
0.0162898
0.00221784
0.0123791
0.0502103
0.000721268
0.0134801
0.0161219
0.0147786
0.00124638
0.00124484
0.0067631
0.00124368
0.0188174
0.000737811
0.001588
0.00124428
0.00124244
0.00124257
0.01563
0.0107404
0.00706714
0.00129214
0.0116587
0.00647039
0.00239623
0.0297737
0.00272323
0.00864714
0.00780311
0.025402
0.00124345
0.00152046
0.00699913
0.0314248
0.00844147
0.0126328
0.00124282
0.00125986
0.00883168
0.00293584
0.0105447
0.00124394
0.00124573
0.00528546
0.00128861
0.012625
0.00847498
0.00124289
0.00717472
0.00564673
0.0123319
0.00151644
0.0135142
0.00124296
0.00124406
0.0390185
0.0125859
0.0122035
0.00152737
0.00125426
0.00206994
0.0124152
0.0117085
0.0102649
0.0125515
0.0590486
0.0151291
0.0039411
0.0160233
0.0143321
0.00790783
0.0136954
0.021798
0.00127407
0.00378846
0.00124308
0.00125243
0.0233972
0.00223284
0.00235307
0.00108374
0.00265664
0.0135939
0.0102319
0.00298053
0.013007
0.011691
0.0322351
0.00124378
0.00293731
0.0147766
0.0110591
0.00147617
0.0330287
0.00627445
0.00354411
0.013871
0.0144963
0.00731329
0.00466836
0.015776
0.00136298
0.00124258
0.00131531
0.00238972
0.0201516
0.00124876
0.000872925
0.00124436
0.00686407
0.0424827
0.0347064
0.0326002
0.0502014
0.0139467
0.0130017
0.00152656
0.0187073
0.0301058
0.00124199
0.00549636
0.00124182
0.00646054
0.00682146
0.00561291
0.00148116
0.00124263
0.0142294
0.00327747
0.00124267
0.00124355
0.00124623
0.00125331
0.0089849
0.00711385
0.0146964
0.00212688
0.00124267
0.00124326
0.00124203
0.0161927
0.00183799
0.00135594
0.00957484
0.00524919
0.00196873
0.00124252
0.00724477
0.00124255
0.000721155
0.00449345
0.00706743
0.0157054
0.00125976
0.0014014
0.0151712
0.00358125
0.00306594
0.0130622
0.00128227
0.00124198
0.00124394
0.0161145
0.00124838
0.0234792
0.00124256
0.00920367
0.0456805
0.00292188
0.00634491
0.0115281
0.00137688
0.0323177
0.0109848
0.00302953
0.0420789
0.0608975
0.0123695
0.0302589
0.0444054
0.0205379
0.015418
0.00524061
0.00519669
0.0126925
0.0141363
0.0322033
0.0227878
0.00143653
0.0123714
0.00638309
0.0153295
0.00324147
0.00127757
0.00124211
0.00125933
0.00393347
0.00940079
0.00639157
0.00495888
0.00124627
0.0151178
0.00124208
0.00978816
0.0111599
0.0155313
0.0146433
0.0133319
0.00135807
0.00131784
0.001837
0.0111045
0.00167307
0.00648315
0.00891109
0.0251365
0.0161132
0.0126749
0.0149355
0.00125593
0.0141543
0.0142294
0.00317951
0.00124446
0.0141706
0.0147755
0.00125142
0.0212334
0.00124509
0.00895456
0.0170511
0.0221162
0.0158745
0.00605939
0.0152801
0.00126794
0.01546
0.00129885
0.0342391
0.0156727
0.0255543
0.0142539
0.0107759
0.00749126
0.00975584
0.00131391
0.00470013
0.00148002
0.00191706
0.00118709
0.00699671
0.00129854
0.0161811
0.00124389
0.00124676
0.00179342
0.0095865
0.00375591
0.0109561
0.00112914
0.0157995
0.00637893
0.0135871
0.0130955
0.0129966
0.00904177
0.00129962
0.0143708
0.0157316
0.00124232
0.0156319
0.011671
0.00124312
0.00124238
0.0224662
0.00196621
0.00853499
0.00182183
0.00879689
0.00329893
0.00746947
0.0123746
0.0175417
0.012655
0.012632
0.0136904
0.00143212
0.00174921
0.0193802
0.00692184
0.0129389
0.00967018
0.0123028
0.00337604
0.0148012
0.0147544
0.00625387
0.00373223
0.0121133
0.0116883
0.00133472
0.0160106
0.0115337
0.00136363
0.0304394
0.0146653
0.0121348
0.00263902
0.00338264
0.011193
0.00135363
0.0130064
0.00135567
0.00366342
0.00124777
0.0106494
0.00357969
0.0074996
0.00136171
0.00140049
0.0120825
0.0149045
0.00114084
0.00291752
0.00962415
0.0030332
0.00133309
0.013497
0.0161888
0.0216001
0.012183
0.00425974
0.0264452
0.022406
0.0159588
0.00576141
0.0183101
0.0137504
0.00668437
0.0122793
0.0156328
0.00180578
0.00649319
0.0199929
0.00129548
0.00516028
0.0111522
0.0517288
0.00295117
0.0407778
0.00473466
0.00851883
0.00681628
0.00165109
0.00124209
0.000592331
0.0641921
0.0112107
0.0203496