/*--------------------------------*- C++ -*----------------------------------*\
| =========                 |                                                 |
| \\      /  F ield         | OpenFOAM: The Open Source CFD Toolbox           |
|  \\    /   O peration     | Version:  2.3.1                                 |
|   \\  /    A nd           | Web:      www.OpenFOAM.org                      |
|    \\/     M anipulation  |                                                 |
\*---------------------------------------------------------------------------*/
FoamFile
{
    version     2.0;
    format      ascii;
    class       volScalarField;
    location    "0.65";
    object      k;
}
// * * * * * * * * * * * * * * * * * * * * * * * * * * * * * * * * * * * * * //

dimensions      [0 2 -2 0 0 0 0];

internalField   nonuniform List<scalar> 
15166
(
1.07914
1.32444
1.7074
2.10977
2.42105
2.73161
2.95352
3.08644
3.13277
3.11036
3.02679
2.91529
1.07952
1.2958
1.71125
2.102
2.41267
2.70206
2.90348
3.01963
3.05552
3.0282
2.94588
2.82557
1.0876
1.2642
1.69587
2.07996
2.38993
2.66268
2.84851
2.95203
2.98073
2.95002
2.86781
2.74425
1.09814
1.23885
1.67427
2.05154
2.35866
2.6173
2.79075
2.88473
2.90833
2.87523
2.79229
2.66388
1.10953
1.21977
1.65116
2.02091
2.32315
2.56916
2.73221
2.81867
2.83849
2.80374
2.72031
2.5912
1.12183
1.20526
1.62767
1.98944
2.28548
2.51999
2.67403
2.7544
2.77131
2.73535
2.65146
2.52112
1.13509
1.19424
1.60443
1.95775
2.24667
2.47069
2.61682
2.69214
2.70674
2.66983
2.58521
2.45188
1.14909
1.18604
1.58195
1.92628
2.20748
2.42187
2.56097
2.632
2.64472
2.60712
2.52222
2.38958
1.16362
1.18018
1.56059
1.8955
2.16853
2.37396
2.50671
2.57404
2.58519
2.54713
2.46227
2.33043
1.17849
1.1762
1.54046
1.86557
2.13021
2.32727
2.4542
2.51825
2.52808
2.48977
2.40548
2.27621
1.19358
1.17376
1.52161
1.83661
2.09273
2.28193
2.40351
2.46461
2.47332
2.43499
2.35177
2.22603
1.20876
1.17253
1.50397
1.80869
2.05626
2.23803
2.35463
2.41305
2.42081
2.38274
2.30135
2.18147
1.22396
1.17229
1.48752
1.78178
2.02087
2.19562
2.30755
2.3635
2.37046
2.33287
2.25378
2.13981
1.23908
1.17288
1.47217
1.7559
1.98661
2.15467
2.26222
2.31589
2.32216
2.28518
2.20788
2.09435
1.25406
1.17407
1.45785
1.73106
1.9535
2.11519
2.2186
2.27013
2.27584
2.23959
2.16446
2.0557
1.26885
1.17575
1.44445
1.70719
1.92152
2.07713
2.17661
2.22614
2.23136
2.19594
2.12307
2.01819
1.28339
1.17779
1.43189
1.68427
1.89068
2.04045
2.1362
2.18385
2.18866
2.15413
2.08345
1.98173
1.29766
1.18012
1.42013
1.66229
1.86094
2.00511
2.0973
2.14317
2.14763
2.11401
2.04545
1.94655
1.31161
1.18265
1.40906
1.64117
1.83226
1.97105
2.05984
2.10401
2.10819
2.07551
2.00908
1.9136
1.32521
1.1853
1.39864
1.6209
1.80463
1.93822
2.02375
2.0663
2.07023
2.03852
1.97421
1.88199
1.33845
1.18803
1.38878
1.60142
1.77797
1.90657
1.98896
2.02997
2.03368
2.00291
1.94055
1.85044
1.35131
1.19079
1.37944
1.58271
1.75228
1.87603
1.95541
1.99495
1.99846
1.9686
1.908
1.81972
1.36376
1.19355
1.37058
1.56471
1.7275
1.84658
1.92305
1.96117
1.96449
1.93549
1.87644
1.7894
1.3758
1.19629
1.36214
1.54739
1.70359
1.81816
1.89183
1.92858
1.93172
1.90352
1.84586
1.76015
1.38741
1.19897
1.35408
1.53073
1.68054
1.79073
1.86169
1.89711
1.90007
1.8726
1.81625
1.73199
1.39857
1.20158
1.34635
1.51469
1.65828
1.76423
1.83257
1.8667
1.86948
1.8427
1.78759
1.70496
1.40932
1.2041
1.33893
1.49921
1.6368
1.73864
1.80444
1.83732
1.8399
1.81376
1.75992
1.67928
1.41962
1.20655
1.33181
1.48429
1.61605
1.71391
1.77724
1.8089
1.81128
1.78577
1.73324
1.65508
1.42946
1.2089
1.32494
1.4699
1.59599
1.68999
1.75093
1.7814
1.78358
1.75867
1.70748
1.63156
1.43887
1.21114
1.31831
1.45599
1.57661
1.66686
1.72548
1.75478
1.75675
1.73244
1.68253
1.60843
1.44782
1.21329
1.31186
1.44254
1.55787
1.64448
1.70083
1.729
1.73076
1.70702
1.65838
1.58618
1.45631
1.21533
1.30563
1.42952
1.53973
1.62282
1.67697
1.70402
1.70557
1.68238
1.63495
1.56443
1.46435
1.21727
1.29956
1.41693
1.52218
1.60184
1.65386
1.67981
1.68114
1.65849
1.61225
1.54354
1.47199
1.21912
1.29367
1.40473
1.50519
1.58152
1.63145
1.65634
1.65745
1.63531
1.59023
1.52315
1.47912
1.22086
1.28794
1.39292
1.48873
1.56183
1.60973
1.63358
1.63447
1.61282
1.56886
1.50349
1.48585
1.22254
1.28236
1.38144
1.47277
1.54275
1.58867
1.61149
1.61215
1.59098
1.54812
1.4843
1.49213
1.2241
1.27691
1.37031
1.4573
1.52424
1.56823
1.59004
1.59048
1.56977
1.528
1.46604
1.49798
1.22559
1.27159
1.3595
1.44229
1.50628
1.54839
1.56921
1.56942
1.54916
1.50848
1.44844
1.50341
1.22701
1.26641
1.34899
1.42773
1.48885
1.52913
1.54898
1.54896
1.52914
1.48953
1.431
1.50841
1.22835
1.26134
1.33877
1.41359
1.47193
1.51043
1.52932
1.52908
1.5097
1.47117
1.41465
1.51295
1.22962
1.25638
1.32884
1.39987
1.4555
1.49226
1.51022
1.50975
1.49076
1.45313
1.39694
1.51705
1.2308
1.25152
1.31918
1.38654
1.43955
1.4746
1.49165
1.49094
1.47232
1.43545
1.37961
1.52071
1.23188
1.24678
1.30978
1.37359
1.42405
1.45744
1.47359
1.47264
1.45435
1.41824
1.36367
1.52395
1.23286
1.24213
1.30063
1.361
1.40898
1.44076
1.45602
1.45483
1.43685
1.40147
1.34791
1.52677
1.2337
1.23759
1.29174
1.34876
1.39432
1.42453
1.43892
1.43748
1.41979
1.38515
1.33294
1.52918
1.23441
1.23316
1.28309
1.33684
1.38007
1.40875
1.42228
1.42058
1.40317
1.36922
1.31787
1.53118
1.23501
1.22883
1.27466
1.32524
1.36621
1.39339
1.40608
1.40413
1.38696
1.35373
1.30389
1.53279
1.23548
1.22459
1.26645
1.31395
1.35272
1.37844
1.3903
1.38808
1.37116
1.33863
1.28987
1.53402
1.23583
1.22042
1.25845
1.30296
1.3396
1.36388
1.37492
1.37243
1.35573
1.32392
1.27658
1.53486
1.23609
1.21633
1.25065
1.29226
1.32682
1.34969
1.35993
1.35716
1.34068
1.30954
1.26311
1.53532
1.23626
1.21231
1.24304
1.28185
1.31437
1.33587
1.34531
1.34226
1.32598
1.2955
1.2503
1.53541
1.23636
1.20837
1.23561
1.27172
1.30224
1.3224
1.33106
1.32773
1.31164
1.28182
1.23784
1.53514
1.23637
1.20449
1.22836
1.26184
1.29044
1.30928
1.31716
1.31355
1.29764
1.26843
1.22517
1.5345
1.23633
1.20068
1.22128
1.25222
1.27893
1.29649
1.30361
1.29972
1.28397
1.25538
1.21337
1.53351
1.23621
1.19693
1.21437
1.24284
1.26772
1.28402
1.29039
1.28621
1.27062
1.24267
1.202
1.53218
1.23601
1.19325
1.20762
1.23369
1.25679
1.27187
1.2775
1.27303
1.2576
1.23029
1.19101
1.53051
1.23572
1.18964
1.20102
1.22477
1.24614
1.26002
1.26492
1.26016
1.24488
1.2182
1.17995
1.52849
1.2354
1.18609
1.19458
1.21608
1.23575
1.24847
1.25266
1.24761
1.23248
1.20639
1.16919
1.52614
1.23498
1.18262
1.18829
1.20759
1.22563
1.2372
1.24069
1.23536
1.22036
1.19479
1.15791
1.52346
1.23452
1.17921
1.18214
1.19932
1.21575
1.22621
1.22901
1.22339
1.20851
1.18345
1.14743
1.52045
1.234
1.17587
1.17614
1.19124
1.20612
1.21549
1.21762
1.21171
1.19694
1.17239
1.13758
1.51712
1.23342
1.17259
1.17028
1.18336
1.19672
1.20503
1.20649
1.2003
1.18564
1.16163
1.12801
1.51348
1.23277
1.16938
1.16455
1.17567
1.18756
1.19483
1.19564
1.18917
1.1746
1.1511
1.11836
1.50951
1.23209
1.16624
1.15897
1.16817
1.17862
1.18488
1.18505
1.1783
1.16383
1.14082
1.10894
1.50523
1.23136
1.16318
1.15352
1.16086
1.1699
1.17517
1.17471
1.16769
1.1533
1.13074
1.09947
1.50063
1.23059
1.16018
1.14821
1.15372
1.1614
1.1657
1.16463
1.15733
1.14302
1.12088
1.09035
1.49574
1.22976
1.15726
1.14303
1.14676
1.15311
1.15647
1.15479
1.14722
1.13297
1.11123
1.08122
1.49053
1.22889
1.15441
1.13798
1.13998
1.14502
1.14746
1.1452
1.13735
1.12315
1.10178
1.07253
1.48502
1.22801
1.15165
1.13307
1.13337
1.13714
1.13867
1.13583
1.12771
1.11356
1.09255
1.06397
1.47921
1.22705
1.14896
1.12829
1.12693
1.12945
1.1301
1.12669
1.1183
1.10419
1.08354
1.05572
1.47311
1.22607
1.14634
1.12365
1.12065
1.12195
1.12174
1.11778
1.10912
1.09504
1.07471
1.04741
1.46671
1.22502
1.1438
1.11913
1.11454
1.11465
1.11359
1.10908
1.10016
1.08609
1.06607
1.03942
1.46001
1.22396
1.14134
1.11475
1.1086
1.10754
1.10565
1.1006
1.09141
1.07736
1.05765
1.03162
1.45301
1.22288
1.13899
1.11051
1.10282
1.10061
1.09791
1.09233
1.08288
1.06884
1.04941
1.02392
1.44573
1.22175
1.13669
1.1064
1.0972
1.09387
1.09037
1.08427
1.07456
1.06051
1.04135
1.01643
1.43818
1.22057
1.13448
1.10242
1.09175
1.08731
1.08303
1.07642
1.06644
1.05238
1.03347
1.00888
1.43033
1.21933
1.13235
1.09858
1.08646
1.08092
1.07588
1.06876
1.05852
1.04445
1.02574
1.00152
1.42219
1.21807
1.13031
1.09487
1.08133
1.07472
1.06892
1.06131
1.05081
1.03671
1.01819
0.994249
1.41376
1.21681
1.12837
1.09131
1.07636
1.0687
1.06215
1.05405
1.04329
1.02915
1.0108
0.987214
1.40506
1.21548
1.12652
1.08789
1.07156
1.06286
1.05557
1.04699
1.03597
1.02179
1.00358
0.980202
1.39607
1.21414
1.12476
1.08461
1.06692
1.05719
1.04918
1.04011
1.02883
1.0146
0.996528
0.97352
1.3868
1.21274
1.12308
1.08148
1.06245
1.0517
1.04297
1.03343
1.02188
1.00758
0.989632
0.967033
1.37726
1.2113
1.12149
1.07849
1.05814
1.04639
1.03695
1.02694
1.01513
1.00075
0.982925
0.960619
1.36743
1.20983
1.12002
1.07565
1.05401
1.04126
1.03111
1.02064
1.00856
0.994111
0.976386
0.954255
1.35733
1.20834
1.11864
1.07296
1.05004
1.03631
1.02546
1.01452
1.00218
0.987642
0.970003
0.948166
1.34696
1.20679
1.11736
1.07043
1.04624
1.03153
1.01999
1.00859
0.995987
0.981357
0.963787
0.942081
1.33632
1.20518
1.11616
1.06805
1.04263
1.02694
1.01471
1.00285
0.989973
0.975238
0.957721
0.93634
1.3254
1.20353
1.11507
1.06583
1.03919
1.02254
1.00962
0.997297
0.984146
0.969312
0.951852
0.930629
1.31419
1.20186
1.11409
1.06377
1.03593
1.01832
1.00471
0.991933
0.978506
0.963566
0.94615
0.925116
1.30271
1.20016
1.11321
1.06189
1.03286
1.01429
0.999997
0.986755
0.97305
0.957989
0.94058
0.919439
1.29096
1.1984
1.11243
1.06017
1.02997
1.01045
0.99547
0.981762
0.967774
0.952586
0.935199
0.914564
1.27893
1.1966
1.11176
1.05863
1.02729
1.00681
0.991141
0.976967
0.962702
0.947402
0.930066
0.909688
1.26665
1.19472
1.1112
1.05727
1.02479
1.00337
0.98701
0.972369
0.957818
0.942386
0.925072
0.904926
1.25408
1.19282
1.11074
1.05608
1.0225
1.00014
0.983081
0.967967
0.953126
0.937557
0.920258
0.900211
1.24125
1.19083
1.11039
1.05508
1.02042
0.997112
0.979355
0.963768
0.948628
0.932914
0.915606
0.895635
1.22815
1.18877
1.11015
1.05426
1.01855
0.994299
0.97584
0.959771
0.944333
0.928473
0.911143
0.891127
1.21477
1.18665
1.11003
1.05365
1.0169
0.991708
0.972539
0.955984
0.940234
0.924207
0.906822
0.886859
1.2011
1.18452
1.11001
1.05323
1.01547
0.989346
0.96946
0.952406
0.936341
0.920144
0.902706
0.882712
1.18718
1.18223
1.11012
1.05302
1.01429
0.987214
0.966606
0.949046
0.932656
0.916276
0.898761
0.878768
1.17298
1.17992
1.11033
1.05302
1.01334
0.985331
0.963988
0.945914
0.92919
0.912621
0.895033
0.874953
1.1585
1.17751
1.11066
1.05324
1.01264
0.983692
0.961607
0.943007
0.925933
0.909158
0.891473
0.871458
1.14373
1.17507
1.11111
1.05368
1.01221
0.982315
0.959476
0.940335
0.922904
0.905917
0.888134
0.86814
1.12868
1.17255
1.11167
1.05435
1.01204
0.981209
0.95761
0.937918
0.920122
0.902921
0.885041
0.864954
1.11337
1.16992
1.11234
1.05524
1.01214
0.980386
0.956012
0.935754
0.917581
0.900151
0.882168
0.862063
1.09779
1.16715
1.11314
1.05639
1.01254
0.979857
0.954691
0.933853
0.915285
0.897612
0.879517
0.859478
1.08192
1.16432
1.11405
1.05778
1.01323
0.979631
0.953662
0.932226
0.91325
0.895338
0.877136
0.857019
1.06578
1.16135
1.11508
1.05943
1.01424
0.979721
0.952941
0.930889
0.911481
0.893295
0.874938
0.854828
1.04935
1.15829
1.11623
1.06134
1.01557
0.98015
0.952541
0.929857
0.910004
0.891538
0.873023
0.852806
1.03263
1.15522
1.11749
1.06354
1.01725
0.980935
0.952485
0.929145
0.908826
0.890065
0.871376
0.851039
1.01563
1.15192
1.1189
1.06603
1.01928
0.98209
0.952789
0.928765
0.907959
0.88887
0.869961
0.849448
0.998341
1.14856
1.12043
1.06881
1.0217
0.983643
0.953473
0.928747
0.90743
0.887996
0.868872
0.848195
0.98076
1.14511
1.12207
1.0719
1.02451
0.985607
0.95456
0.92911
0.907257
0.887465
0.868127
0.847357
0.96291
1.14139
1.12384
1.0753
1.02774
0.988018
0.956074
0.929878
0.907474
0.887325
0.867794
0.846811
0.944763
1.13762
1.12574
1.07903
1.03139
0.990882
0.958039
0.931058
0.908067
0.887505
0.867676
0.846152
0.926325
1.13374
1.12773
1.0831
1.0355
0.994232
0.960469
0.932674
0.909051
0.888031
0.86787
0.846002
0.907611
1.12962
1.12988
1.08752
1.04008
0.998093
0.963403
0.934764
0.910478
0.888988
0.868519
0.846373
0.888587
1.12543
1.13214
1.09232
1.04516
1.00252
0.966887
0.937373
0.912381
0.890375
0.869518
0.847046
0.869273
1.12094
1.13457
1.0975
1.05079
1.00754
0.970969
0.940546
0.914819
0.892273
0.871055
0.848371
0.849663
1.11631
1.13708
1.10308
1.057
1.0132
0.975691
0.944326
0.917825
0.894716
0.873129
0.850273
0.829784
1.1116
1.13973
1.10908
1.06381
1.01954
0.981102
0.94877
0.921442
0.897736
0.87576
0.852515
0.809606
1.10663
1.14252
1.11554
1.07127
1.02661
0.987242
0.953902
0.925688
0.90128
0.878737
0.854689
0.789116
1.10142
1.14546
1.12246
1.07942
1.03448
0.994186
0.959788
0.930631
0.905469
0.882352
0.85788
0.768341
1.09594
1.14854
1.12987
1.08831
1.04321
1.00201
0.96653
0.936379
0.910433
0.886784
0.862019
0.74729
1.09043
1.15175
1.13783
1.09801
1.05287
1.01082
0.974198
0.942969
0.916138
0.89178
0.866441
0.725921
1.08453
1.15515
1.14636
1.10858
1.06358
1.02068
0.98289
0.950509
0.922706
0.897599
0.871583
0.704253
1.07836
1.15874
1.15555
1.12012
1.07543
1.03173
0.992723
0.959099
0.930202
0.904197
0.877487
0.682305
1.07216
1.16255
1.16543
1.13276
1.08857
1.04413
1.00386
0.968899
0.938805
0.911845
0.884422
0.660019
1.06554
1.16667
1.17615
1.14663
1.10317
1.05804
1.01646
0.980046
0.948634
0.920578
0.892099
0.637418
1.05875
1.17116
1.18785
1.16194
1.11944
1.07367
1.0307
0.992668
0.959764
0.930482
0.901059
0.614441
1.05171
1.17618
1.20081
1.17894
1.13765
1.09127
1.04676
1.00693
0.972306
0.941566
0.91098
0.591092
1.04468
1.18212
1.21536
1.19806
1.15813
1.11111
1.06492
1.02306
0.98649
0.954173
0.922417
0.567254
1.03781
1.18955
1.23222
1.21981
1.18131
1.13353
1.08543
1.04124
1.00241
0.968212
0.93501
0.542862
1.03237
1.19968
1.2523
1.24483
1.20759
1.15876
1.10843
1.0616
1.02015
0.983708
0.948592
0.51779
1.03186
1.21573
1.27801
1.2744
1.23782
1.18754
1.13469
1.08473
1.04017
1.00095
0.963595
0.488279
1.03317
1.23062
1.30432
1.30262
1.26674
1.2153
1.16111
1.10811
1.06114
1.01908
0.98003
1.0407
0.00468008
0.347419
0.321803
0.32074
0.288909
0.279332
0.646844
0.830968
0.777928
0.567789
0.00777926
0.0326161
3.01862
0.277069
0.00354998
2.83098
0.110619
0.107654
0.00348339
0.140585
0.176122
0.144821
0.0269067
1.05617
0.346507
0.160017
0.375053
0.604659
0.812987
0.53808
1.16682
0.00420061
0.558277
0.0311395
0.165941
0.387304
0.470852
0.393049
0.00818294
0.0704801
0.0033773
0.0716735
0.531592
0.268448
0.173096
0.0608483
0.0248531
0.271386
0.140032
0.164096
0.634587
0.262997
0.00321463
1.98787
0.00444691
0.0106635
0.00337424
0.47155
0.266436
0.15574
1.19157
0.0032091
0.0168826
0.1836
0.00453281
0.888893
0.252362
1.53223
0.689195
1.884
0.0535756
0.383405
0.72913
0.0273707
0.00323014
0.79759
0.00309478
0.0702103
0.241062
0.103478
0.00310386
0.405744
0.295303
0.0163656
1.11908
0.88454
0.00319468
0.390996
0.23779
0.353799
0.653804
0.00319826
0.00392207
0.456862
0.00326193
0.362493
0.0128421
0.00317208
0.899045
1.10872
0.203697
0.00335325
0.00434061
0.00312134
0.514837
0.512248
0.689487
0.533175
0.00886247
0.0944762
0.00312705
0.202572
0.00372681
0.00318215
0.219924
0.019524
0.219993
1.09333
0.176127
1.0245
0.0293422
1.69984
0.1997
0.125668
1.29235
0.00405452
1.96535
0.0323847
0.00320012
0.231678
0.00323636
0.233188
0.00434539
0.162788
0.00514924
0.233314
0.59596
0.208028
0.0058572
0.0170208
0.145385
0.269573
0.0254538
0.174606
1.89733
0.298921
0.00454291
0.983108
0.374164
0.0640837
0.214047
0.00309227
0.114722
0.156549
0.00314728
0.248543
0.003202
1.27998
0.00708528
0.0270421
0.00356927
0.128084
0.0132883
0.149779
0.0844461
0.984658
0.291704
0.335188
0.00307307
1.88824
0.75852
1.99266
0.0179158
0.00305944
0.574584
0.00311686
0.305935
0.138027
0.719701
1.00917
0.438051
0.0629264
0.37121
0.0033904
0.262746
0.00317802
0.00315336
0.17535
0.00318555
0.487621
0.00310671
0.936802
0.0047575
0.284102
0.296508
0.27177
0.165146
0.00312702
3.17554
1.01996
0.318216
0.413987
0.217262
0.324906
0.105015
0.0915474
0.228934
0.703502
0.21698
0.288258
0.900081
0.500565
0.396575
0.00315442
0.283577
0.0129681
0.427439
3.25236
0.210309
0.294667
1.02111
0.338902
0.00315697
0.0031882
1.30873
1.11839
0.00327022
4.20619
0.0324075
0.31249
0.121387
0.00311783
0.947473
0.414203
0.253646
0.246316
1.07899
0.657003
0.322201
0.154774
0.161399
1.25518
1.68695
0.375293
0.281822
0.227989
0.00350597
1.39595
0.289875
0.650696
0.726845
0.37896
3.95177
0.236705
0.240418
0.210439
0.310505
0.578066
0.341717
0.216422
0.258168
0.0157559
0.089967
0.683918
0.261858
0.922068
0.506964
0.36139
1.49128
0.288103
0.0502879
1.63946
0.209098
0.208349
1.69585
0.242286
0.260472
0.301822
0.203602
0.866182
0.238757
0.37266
0.331606
0.614217
0.273145
0.4745
0.207983
1.12081
0.128591
0.201678
1.66873
0.226326
0.224879
0.283013
0.91984
0.119714
0.206075
0.0677739
0.480366
0.183644
0.10614
1.36667
2.05756
0.154299
0.954112
0.323524
0.00318779
0.201467
0.166119
0.211164
0.28892
0.00315766
1.18634
0.320043
0.0673975
0.225815
0.762337
0.00315194
0.638771
0.0388433
0.579577
0.422673
4.92985
0.503347
0.758448
0.5391
0.00313881
0.00316296
0.285047
0.447196
0.00307749
0.517296
0.00311578
0.0031623
0.00322465
0.00311707
0.140398
0.0031637
0.00580785
1.03856
0.5123
0.003229
0.334973
0.00987164
0.19585
0.295647
1.28833
4.14643
0.481126
0.00301095
0.00323876
0.0819584
0.134224
0.208969
0.0030643
0.0988734
0.315841
0.87857
0.377781
0.177648
0.273299
1.02609
4.08658
0.157121
0.325535
0.0036491
0.00318514
0.159085
0.258137
0.116373
0.173463
0.505848
2.744
1.69548
0.143827
0.343371
1.01421
0.00319835
0.419837
0.753646
0.00527049
0.00316291
0.520382
3.82728
0.73498
0.0030802
0.0489279
0.154767
0.025673
0.00319885
0.833392
0.382691
0.277378
0.282031
0.00374825
3.81432
0.00314286
0.235829
0.544826
0.0064907
0.0111336
0.962717
0.00879742
1.40936
0.767077
1.15119
0.653583
0.172243
0.681603
0.00313953
0.00309426
0.00317226
1.03845
0.0754681
1.2625
2.7626
0.164714
0.592064
0.00317912
0.0109258
0.274334
0.00308087
0.00317183
0.703335
0.00306836
0.22793
0.91645
0.371906
0.00302994
0.00749525
0.110588
0.116053
0.237031
0.144973
0.00310504
3.34348
0.836837
0.109497
0.0123935
0.327388
0.199604
0.00711826
0.279664
0.00690466
0.846248
0.00352821
0.250307
0.133135
0.00311625
1.30277
0.238424
0.322182
0.00930167
0.471295
0.144122
0.00516827
0.217478
0.490096
0.352346
1.10893
0.0240649
0.0509003
0.0115464
1.31217
0.676436
0.0630456
0.137582
0.163219
0.334921
0.182166
0.511035
1.1034
0.00304567
2.04945
0.91498
0.22664
0.00309809
0.267646
0.963216
0.0255403
0.436742
0.34887
0.256774
0.126718
0.177136
0.25943
0.00358645
0.0189259
0.875663
0.0391545
0.00438481
0.923019
4.08773
0.0395621
0.19989
0.788982
0.0904693
0.491436
0.259216
0.843753
0.321202
0.29098
0.00323008
0.0851845
0.447598
0.382344
1.33291
0.214166
1.42373
0.937611
3.75207
0.888724
0.310539
0.00316689
1.26405
0.204165
0.80171
0.416482
0.163776
0.0844169
0.426549
0.00321466
0.297438
0.00317781
0.340866
0.421636
0.213241
0.175069
1.2723
0.241275
1.04348
0.642774
1.97777
0.00321794
0.123862
0.933261
2.44931
0.196093
0.717552
0.0036172
0.0282469
0.35028
1.85834
0.592228
0.00310244
0.0582264
0.00312257
0.0586923
0.351311
0.037585
0.846822
0.142975
0.589652
0.15584
0.125202
1.23016
0.709046
0.00319514
0.00319639
0.257769
1.21775
0.275639
0.598506
0.441262
0.667503
0.266633
0.00302342
0.187563
0.253729
0.00485937
1.04937
0.265186
0.176373
0.274332
0.0127532
0.00302464
0.0237202
0.00313934
0.6472
0.817789
0.709548
0.638189
0.00319306
1.47826
0.0898872
0.742951
0.135473
1.73235
0.00867525
0.154665
0.00307428
0.497145
0.716711
0.315651
0.409609
0.0030069
1.30177
0.805994
0.510931
0.00311652
0.0709175
0.813966
0.617966
0.00610456
2.17326
0.00373911
0.805247
0.614642
0.0036302
0.131745
0.0877325
0.202518
0.00310546
0.00319887
1.15776
0.431724
0.322117
0.526604
0.00488084
0.128051
0.0982817
0.76897
0.208424
0.00395863
0.209068
1.20891
0.00307799
0.00821257
0.286309
0.635128
1.11622
0.0031581
0.729483
0.221374
1.30866
0.0298752
0.151752
0.816499
0.00319986
0.199384
0.137925
0.376256
0.383363
0.726077
0.276569
1.21709
1.17702
0.282367
2.70765
0.00323658
0.00315036
1.49711
0.783651
0.00475882
0.00315674
0.473411
0.00320625
0.823774
0.540441
0.248055
0.00311694
0.808213
0.0530309
0.29141
1.21613
0.235411
0.148536
0.145234
1.34687
0.0031921
0.28556
0.981623
0.234541
0.557312
0.00673606
0.533445
0.263317
2.03174
0.00313014
0.148922
0.683754
0.305788
0.00332103
0.0952978
0.342184
0.439232
1.26976
0.0592643
1.87647
0.40635
0.0928397
0.404965
0.00313422
0.00737527
0.363054
0.00306756
0.1753
0.00316529
0.244709
0.0107785
0.83963
0.00321719
0.110645
0.49397
1.61078
0.356928
0.669933
0.163595
2.44858
0.0156034
0.0934941
0.57185
0.00309936
0.00320601
0.380335
0.156047
0.248862
0.390768
0.00328419
0.216262
0.218749
0.20101
0.492364
1.14826
0.200076
0.00319667
1.88295
2.42482
0.506895
0.00323832
0.0108347
2.09391
0.260425
0.00311983
1.29445
0.00310059
0.0804683
2.74576
0.00354817
0.291541
0.00314941
0.0566212
0.75143
0.00324368
0.00401705
0.00318308
0.00379997
0.02168
3.81125
0.805141
0.0939085
0.242143
0.00316397
0.765558
0.00317339
0.248064
0.232752
0.0247987
0.159763
0.0139108
1.15107
0.00318443
4.32699
0.218277
0.629214
0.35157
0.163029
0.00309676
0.1934
1.09776
0.129338
0.752521
0.886094
1.6938
0.349813
0.0419617
0.627895
0.0840761
0.00406576
0.1067
2.4709
1.14891
0.120014
0.00846467
0.2975
0.00375591
0.443723
0.872052
1.08654
0.842953
0.896338
0.0372002
0.00583191
0.325982
0.22451
0.0483648
0.269498
0.00316116
0.261376
1.9658
0.00330254
1.69703
0.7833
0.114534
0.101939
1.45074
0.0236548
0.101415
0.457686
0.310687
0.294134
0.00322322
0.673996
0.0763061
0.27138
0.383127
0.199044
0.223026
0.00685735
0.688996
0.00317337
0.00316055
0.228472
0.104964
0.160167
1.9187
0.00303327
1.14083
0.0646101
0.0578785
0.00338881
1.72242
0.363861
0.0899667
0.784611
0.0598017
1.16009
0.154624
0.00314252
1.19384
2.08943
0.00546387
0.00876339
0.203565
1.03763
0.0993748
1.32474
0.0352598
0.233511
0.104148
0.156977
0.681004
0.203264
0.00318776
1.17583
0.328875
0.0151642
0.197114
4.25597
0.276462
0.00317662
0.00307079
0.764158
0.184078
1.01366
0.00306549
0.715156
0.29596
0.408496
0.00376694
0.314003
0.777358
0.00538488
0.258583
0.00321639
1.12341
0.211099
0.345391
0.262362
0.00314612
0.00314548
0.345557
1.40591
0.38597
0.732504
0.00302799
0.0454082
0.0032083
0.00626191
1.15986
0.0742171
0.0971205
0.124892
0.325376
0.305709
0.356476
1.21029
0.00317283
0.304339
0.732071
0.245566
0.00319247
0.94318
0.00320555
0.00316624
0.0885914
0.211994
0.0251615
1.36394
0.203235
2.80229
0.00328522
0.00476029
0.0397766
0.903272
0.306059
0.96274
0.00316826
0.00314853
0.00629163
0.00835915
1.10576
0.805846
0.640757
0.123542
0.0448948
0.315546
0.164209
0.578071
0.275874
0.879555
0.312613
0.00308098
0.33298
0.00536886
0.194636
0.889085
0.184411
0.231718
0.1333
0.00380966
1.34384
0.51635
0.489082
0.314534
0.00315936
0.588638
0.762557
0.334203
0.00825246
0.913112
0.479541
0.838575
0.328769
0.336684
0.59011
0.120062
0.861579
0.258608
0.0979667
0.236259
0.00317894
1.21453
0.862555
0.00311821
0.684684
0.00477401
0.53805
0.204622
0.237268
0.266692
0.73072
0.953181
0.262309
0.131369
0.174755
0.219549
0.0125464
0.00310407
1.02787
0.0615859
0.938021
0.549806
0.224623
0.834627
0.54498
0.00314509
0.278252
1.53429
1.06108
0.226809
0.239314
0.57071
1.89725
0.190821
0.234676
0.0249312
0.0837577
0.546908
1.19626
0.111639
0.842165
0.821306
0.785947
0.23983
0.231322
0.425505
0.6927
0.00319155
1.9417
0.669913
0.205009
0.00319069
0.592506
0.474473
0.294876
0.00317438
0.591408
0.00317258
0.243212
0.0912317
0.00319457
0.823324
0.347652
0.00310567
0.531878
0.373563
0.608891
0.258808
0.519385
0.279644
0.705974
0.169206
0.157383
0.00312932
0.00470827
0.343426
0.173405
0.0243279
0.00322964
0.354899
0.00604328
0.119783
0.118556
0.445745
0.207248
0.0574969
0.0943232
0.549422
1.63707
0.329532
4.11883
0.870182
0.00311845
0.54108
0.589063
1.67752
0.00312663
0.173385
0.00318786
0.00359159
0.277283
0.289792
0.0391309
0.00340826
0.806082
3.7262
0.00739238
0.00317653
0.12932
0.263041
0.0240204
0.07405
3.85303
0.140586
0.00339061
0.00317761
0.969207
0.262621
0.135715
0.0592918
0.651858
1.13166
0.392039
0.247356
0.679533
0.00317322
0.502306
0.00315978
0.231097
0.27422
5.38265
0.178326
0.0898067
0.00382908
1.18567
0.0031945
0.00313404
0.00585736
0.272527
0.287288
0.977128
0.00314931
0.5077
0.00317251
0.692933
0.97726
0.00320493
0.725391
0.225063
0.00317312
0.00330209
0.0319692
1.10732
0.383684
0.0264351
0.0031745
0.0031327
0.848849
0.685867
0.327467
0.75396
0.117758
0.438707
0.00314897
0.0103098
0.382897
0.810796
0.75951
0.00887597
0.00317631
0.397865
0.00319772
0.203649
0.805843
0.353953
0.043141
0.20087
0.506432
0.157239
0.00316975
0.513344
1.33287
0.648223
0.00644092
0.030607
0.690383
3.69256
0.0548483
0.373709
0.00311028
0.00308662
0.00321468
0.0187779
0.401774
1.07556
0.0106792
0.220963
0.633968
1.23462
0.206222
0.0197128
0.00796649
0.00758001
0.158535
0.171373
0.236789
0.00322348
1.34464
0.00314333
0.0136506
0.844372
0.853028
0.0364524
0.372726
0.468144
0.00409995
0.130324
0.255676
0.0031548
0.00378137
1.12395
0.00365649
0.0032248
0.707212
0.235373
2.09315
0.209264
2.41317
0.00356025
0.00311458
3.2458
0.296052
0.225236
0.498432
0.060403
0.232638
0.1965
1.0213
0.814684
0.588458
0.582171
0.233364
0.111225
0.321593
0.728511
0.0146491
0.351355
0.00392247
0.439656
0.366683
0.107069
0.384333
0.188558
0.413343
0.207942
0.262182
1.11065
0.459678
0.215612
0.317318
0.710838
0.3262
0.00421339
0.00315953
0.110999
2.22847
0.00316167
1.78894
0.00312465
0.00989772
0.340469
0.221509
0.820589
0.680628
0.90295
1.14002
0.522645
0.386285
0.00316724
0.290831
1.05825
0.00323919
1.24783
0.00714264
1.70952
0.940771
1.13402
0.274175
0.206241
0.283963
0.0918503
0.284533
1.23621
0.360737
0.780232
0.169826
0.203107
0.0853784
0.231787
0.954723
0.00955247
0.666491
0.00319427
0.00393389
0.300202
1.51842
0.338435
0.273871
0.164438
0.110683
0.121762
0.0034692
0.341079
0.00346722
0.706369
0.00341834
0.0580691
0.943397
0.171792
0.306301
0.33416
0.318439
0.00623957
0.00321491
0.0992457
0.266845
0.114829
0.517126
0.0424976
0.366001
0.240406
0.374547
0.791935
0.00359435
0.00314781
1.68917
0.226572
0.172015
0.811091
0.688265
0.81771
0.00987913
1.68539
0.335798
0.213181
0.00347802
0.196949
0.403711
0.205465
0.20774
0.266035
0.0032306
0.472962
0.00313414
0.628393
0.010674
0.439935
0.118067
0.409636
0.00324326
6.5457
0.00319251
1.51064
0.0256328
0.00317523
0.0145933
0.274994
0.0031708
0.00318046
0.396913
0.0328103
0.327492
0.0569864
0.00332665
0.21898
0.186483
0.445027
0.00334123
0.224019
0.189937
1.35632
0.707292
0.394664
0.415611
0.215745
0.306643
0.77872
0.83223
0.211252
0.00322413
0.145044
0.362393
0.306285
0.0047178
0.00856096
0.234323
1.57404
0.00318406
0.206295
1.2355
0.00305008
0.849725
0.935899
0.357313
0.594761
0.796964
0.259128
0.130051
2.59089
0.411583
0.885362
0.821869
0.222435
0.10751
0.0031663
0.42048
0.00587451
0.00321786
0.00313426
0.300483
0.00316628
0.00373378
0.537769
4.0584
0.406948
0.212647
0.833912
0.239593
0.00318233
0.165935
1.14395
0.0252624
0.164364
1.01908
0.313006
0.125607
0.0312131
0.00314371
0.00316818
0.027299
0.0449182
0.302828
0.299996
1.23638
0.267413
0.268777
0.00395548
0.503371
0.213622
0.0032118
0.342804
3.37884
0.00320851
0.362732
1.0168
0.739477
0.656234
0.189876
1.10329
0.00356307
0.210226
0.00331898
0.0063366
0.00320971
0.835221
0.568569
0.0741377
0.00319328
0.00307303
1.11331
0.386833
0.289223
0.235307
0.354568
0.435311
0.306092
0.349968
0.350039
0.0031772
0.151181
0.123618
0.136323
0.385294
1.05928
0.767817
0.590836
0.363232
1.11615
0.826559
0.96314
0.416027
0.88147
0.0647116
0.825363
0.39318
0.0281191
1.01267
0.855891
0.447203
0.00311412
0.00320084
0.00361082
0.00444257
0.472238
0.00304521
0.494351
0.165092
0.996386
0.766838
0.00317142
0.474269
0.283351
0.186884
0.276007
0.390346
0.552737
0.00326543
0.00319927
0.00911221
0.100528
0.00313252
0.637535
0.267334
0.253039
0.760428
0.514619
0.441397
0.532106
0.00316787
0.319243
0.669131
0.00381457
0.078944
0.409227
0.315016
0.53762
0.193285
0.00325607
0.375571
0.358449
0.0038528
0.0204918
0.0031579
0.178789
0.00440684
0.143966
1.28757
0.111601
0.0735151
1.00144
1.81235
0.00326947
0.628957
0.00305227
0.224976
0.346936
0.2478
0.484202
0.691017
0.676933
0.802331
1.22352
0.746828
0.00317862
0.00314518
0.0531817
0.101386
0.606601
0.172313
0.00319371
1.58822
0.253979
0.00825333
0.788517
0.0587043
0.00816872
0.0403912
0.997794
0.00646965
0.003195
0.258381
0.205953
0.640868
0.118253
0.226225
0.202942
0.00321397
0.291333
0.0902773
0.0600329
0.00337582
0.202592
0.534391
0.173663
1.44932
1.33534
0.316586
0.413412
0.00316339
0.35972
0.00319511
2.73031
0.0103364
0.430729
0.094238
0.840421
0.0163767
0.00933717
0.248379
0.307772
1.30282
0.00356466
0.212142
0.482242
0.609097
0.185545
0.999392
0.120686
0.00343511
0.00320506
0.479168
0.63562
1.06302
0.289456
0.0848846
0.530375
0.328532
0.819077
0.0460116
0.00316921
0.00318277
0.122287
0.707433
0.689922
0.9931
0.00353341
0.0109607
0.167984
0.452395
0.268483
0.759184
0.349925
0.879209
0.00319888
0.00320958
1.13664
0.275257
0.885353
2.87798
0.359999
0.024636
1.41153
0.00318408
1.02331
0.0277214
0.0308296
0.00317113
0.041801
0.0845683
0.837371
0.794284
0.00322673
0.758407
0.00316013
0.601095
1.56608
0.00314505
0.157375
0.00322657
0.259038
0.127541
0.174708
0.00308787
0.262057
0.211772
0.257336
1.02367
0.170227
1.22477
0.217517
0.833556
0.237363
1.11763
0.638024
0.00384252
0.00320865
0.37546
0.195129
0.823721
0.00317726
2.11179
0.00315893
0.00478216
0.038935
0.00316026
1.14235
0.974586
0.00324379
0.665469
0.256683
0.102527
0.709357
0.00608349
0.0031292
0.422968
0.385982
0.00977418
0.776458
6.66906
1.35832
0.155341
1.19733
0.104347
0.00318524
0.00368816
0.0351783
0.13707
0.844321
1.0901
1.31562
0.795697
0.53163
0.509197
0.257834
0.65205
1.9438
0.591098
0.0430505
0.0783232
0.278804
1.50665
0.00338242
0.194294
0.655474
0.333471
0.00317286
0.42395
0.00305911
0.0138654
0.843746
0.0033876
0.298125
1.8499
0.00318984
0.35264
0.00351441
0.337265
0.0141159
0.0040673
0.767094
0.255193
0.915559
0.39976
1.12068
1.64652
0.489664
0.175872
0.752187
0.388507
0.0031157
0.577479