/*--------------------------------*- C++ -*----------------------------------*\
| =========                 |                                                 |
| \\      /  F ield         | OpenFOAM: The Open Source CFD Toolbox           |
|  \\    /   O peration     | Version:  2.3.1                                 |
|   \\  /    A nd           | Web:      www.OpenFOAM.org                      |
|    \\/     M anipulation  |                                                 |
\*---------------------------------------------------------------------------*/
FoamFile
{
    version     2.0;
    format      ascii;
    class       volVectorField;
    location    "5200";
    object      D;
}
// * * * * * * * * * * * * * * * * * * * * * * * * * * * * * * * * * * * * * //

dimensions      [0 1 0 0 0 0 0];

internalField   nonuniform List<vector> 
11800
(
(1.07922e-05 0.000305253 0)
(-1.36026e-05 0.000340273 0)
(7.55498e-06 0.000101928 0)
(-8.61151e-06 0.000139002 0)
(-1.24261e-05 0.000339694 0)
(-5.57603e-06 0.000139276 0)
(-2.05023e-06 0.000228709 0)
(-1.94866e-06 0.000175958 0)
(8.99123e-07 2.66074e-05 0)
(1.6553e-06 0.000105753 0)
(1.19813e-05 0.000304527 0)
(-1.07245e-05 0.000118332 0)
(-1.0286e-08 -8.18991e-09 0)
(6.71582e-06 0.000101307 0)
(-7.63723e-06 0.000139592 0)
(7.27443e-06 1.62803e-05 0)
(-1.14247e-06 0.000228037 0)
(-1.10524e-06 0.000175322 0)
(5.10337e-07 2.69039e-05 0)
(1.02703e-06 0.000105225 0)
(-6.56387e-06 0.000138759 0)
(-9.82639e-06 0.000118806 0)
(-1.58848e-06 5.71996e-06 0)
(-1.69578e-06 5.95777e-06 0)
(6.49654e-06 1.86089e-05 0)
(-2.54573e-06 9.50916e-06 0)
(-1.04716e-05 7.03302e-05 0)
(1.53467e-05 0.000204832 0)
(-9.30994e-06 5.32427e-05 0)
(-8.04028e-06 3.81996e-05 0)
(1.62643e-05 0.000259363 0)
(6.86275e-08 4.44808e-06 0)
(3.32705e-06 1.22416e-05 0)
(-8.26587e-06 0.00034922 0)
(6.7295e-06 0.000347641 0)
(-1.8502e-05 0.00027709 0)
(6.26985e-06 0.000348845 0)
(3.27499e-06 1.25875e-05 0)
(-2.0046e-06 0.000241648 0)
(1.66077e-06 0.00011622 0)
(-1.02969e-05 7.11241e-05 0)
(-9.1641e-06 5.39488e-05 0)
(1.49925e-05 0.000203652 0)
(-7.92388e-06 3.88168e-05 0)
(1.59037e-05 0.000258122 0)
(6.93988e-06 1.64102e-05 0)
(1.83386e-06 6.77914e-06 0)
(2.04393e-06 6.67075e-06 0)
(-3.15484e-06 0.000241856 0)
(2.58005e-06 0.000116385 0)
(-1.75605e-05 0.000178311 0)
(-1.87768e-05 0.000231079 0)
(-1.71631e-06 0.000301979 0)
(9.50251e-08 4.22014e-06 0)
(-8.91449e-06 1.94079e-05 0)
(1.20365e-06 9.91674e-07 0)
(-2.30908e-05 0.000354027 0)
(-5.76981e-06 9.81002e-05 0)
(6.63351e-06 0.000143413 0)
(-4.1893e-06 9.42131e-05 0)
(2.40766e-06 3.16984e-06 0)
(-2.96343e-06 0.000302206 0)
(-5.01577e-06 9.7877e-05 0)
(5.78578e-06 0.000143681 0)
(6.08509e-06 1.83226e-05 0)
(-2.20463e-05 0.000312809 0)
(-1.82175e-05 0.000177527 0)
(-1.95462e-05 0.000230217 0)
(-2.19316e-05 0.000353453 0)
(-2.67185e-06 9.81948e-06 0)
(-7.36728e-06 0.000350204 0)
(-1.30148e-05 0.000348302 0)
(-1.33934e-05 0.000347059 0)
(-1.13291e-07 1.2559e-07 0)
(2.57105e-06 3.30662e-06 0)
(-1.74275e-05 0.000277871 0)
(7.98749e-06 2.5756e-05 0)
(-2.24041e-05 0.000313983 0)
(-1.78388e-05 0.000316647 0)
(-1.66654e-05 0.00031771 0)
(-8.49761e-06 1.91406e-05 0)
(1.32698e-06 0.000120712 0)
(1.22963e-05 0.000345564 0)
(1.09771e-05 0.000345779 0)
(-1.57026e-06 0.000124084 0)
(-7.73284e-06 4.30467e-05 0)
(1.47033e-05 0.000249898 0)
(-8.85053e-06 5.87867e-05 0)
(-9.87917e-06 7.65392e-05 0)
(1.38211e-05 0.000195868 0)
(-3.8723e-07 0.000295421 0)
(3.53539e-06 1.16342e-05 0)
(-1.1076e-05 0.000318697 0)
(2.29371e-05 0.000356746 0)
(3.63928e-06 0.000153256 0)
(-2.74031e-09 -2.08462e-09 0)
(7.08786e-11 -4.43186e-10 0)
(2.74312e-09 -2.08711e-09 0)
(-2.25553e-07 0.000305707 0)
(-1.01826e-05 0.000120967 0)
(1.97448e-05 0.000355467 0)
(1.19098e-05 0.000132994 0)
(-4.28637e-06 1.70297e-05 0)
(-9.63356e-07 1.3128e-05 0)
(-6.29994e-07 0.000338165 0)
(1.18773e-06 2.78394e-05 0)
(-2.50437e-06 0.000173367 0)
(-2.60623e-06 0.000225836 0)
(3.74418e-06 6.33541e-06 0)
(8.93795e-06 5.87612e-05 0)
(7.80946e-06 4.3024e-05 0)
(9.97706e-06 7.65105e-05 0)
(-1.4884e-05 0.000249928 0)
(-1.39925e-05 0.000195911 0)
(2.13435e-06 0.000103585 0)
(2.96308e-06 5.7741e-06 0)
(2.18797e-05 0.000314092 0)
(-8.93265e-06 0.000322443 0)
(3.01686e-06 5.5627e-06 0)
(-1.47917e-06 0.000107078 0)
(-8.8023e-07 2.59014e-05 0)
(2.00938e-06 0.000230399 0)
(1.90644e-06 0.000177471 0)
(-2.74874e-06 0.000220897 0)
(-1.11484e-05 0.000319903 0)
(-9.64531e-07 0.000304749 0)
(-7.15764e-06 0.0003383 0)
(-1.65553e-06 0.000337377 0)
(-2.47796e-05 0.00036579 0)
(-2.5665e-05 0.000364902 0)
(-7.03832e-07 3.15913e-07 0)
(-3.20623e-06 7.49279e-06 0)
(1.50827e-05 0.000242435 0)
(-8.30568e-06 4.70892e-05 0)
(1.41241e-05 0.000188865 0)
(-9.4347e-06 6.33874e-05 0)
(-1.04725e-05 8.16536e-05 0)
(1.39175e-05 0.000242656 0)
(-7.65349e-06 4.69478e-05 0)
(1.30344e-05 0.000189069 0)
(-8.69596e-06 6.32304e-05 0)
(-9.65428e-06 8.14823e-05 0)
(-2.00922e-06 2.39813e-05 0)
(4.89392e-06 0.000234835 0)
(4.56365e-06 0.000181743 0)
(-3.84489e-06 0.000110595 0)
(1.87178e-05 0.000121475 0)
(-1.858e-05 0.000118808 0)
(1.1716e-05 0.000133965 0)
(-1.35118e-06 1.39348e-05 0)
(-1.2331e-05 0.000294052 0)
(-1.22242e-05 0.000295616 0)
(6.03549e-06 0.000344972 0)
(-1.37917e-05 0.000277478 0)
(5.53971e-06 0.000195769 0)
(6.01304e-06 0.000249766 0)
(-1.53582e-05 0.000219937 0)
(-1.4234e-05 0.000167886 0)
(7.15578e-06 3.06989e-05 0)
(-1.11895e-06 0.000296533 0)
(4.0701e-06 6.44869e-06 0)
(-1.26033e-05 0.000277753 0)
(8.36102e-06 2.61305e-05 0)
(-5.59538e-06 7.96827e-05 0)
(-5.0303e-06 6.15997e-05 0)
(-4.416e-06 4.55013e-05 0)
(7.69493e-06 0.000191331 0)
(8.20668e-06 0.000245079 0)
(-3.58561e-06 4.42291e-06 0)
(-6.55219e-06 2.95263e-05 0)
(1.4352e-05 0.000222385 0)
(1.3293e-05 0.000170182 0)
(3.21129e-06 0.000225586 0)
(-2.10784e-05 0.000275795 0)
(-2.12911e-05 0.000277456 0)
(7.47927e-06 1.86424e-05 0)
(7.49011e-06 1.91584e-05 0)
(8.27041e-06 5.70523e-05 0)
(9.25263e-06 7.46052e-05 0)
(7.20454e-06 4.15242e-05 0)
(-1.31602e-05 0.000198565 0)
(-1.39814e-05 0.000252771 0)
(5.63498e-06 0.000194537 0)
(6.04611e-06 0.000248496 0)
(6.11317e-06 0.000118326 0)
(-2.90845e-06 0.000110343 0)
(-1.52756e-06 2.41054e-05 0)
(3.70551e-06 0.00023452 0)
(3.45439e-06 0.000181448 0)
(-4.80127e-06 0.000290017 0)
(-1.60986e-06 5.045e-05 0)
(-1.81855e-06 6.72101e-05 0)
(-1.81395e-05 0.000310394 0)
(-4.89352e-07 1.14265e-05 0)
(-1.74809e-05 0.00014575 0)
(1.50697e-05 9.64089e-05 0)
(1.72449e-07 1.63866e-07 0)
(-1.08535e-05 0.000349778 0)
(2.17272e-05 0.000315361 0)
(-6.14214e-07 3.65652e-07 0)
(1.43153e-05 0.000330589 0)
(1.78789e-05 0.000282369 0)
(1.91747e-05 0.000282601 0)
(-5.52019e-07 0.000339884 0)
(-1.44628e-06 0.000340977 0)
(1.00786e-05 9.40631e-05 0)
(8.90378e-06 9.44815e-05 0)
(-1.19238e-05 0.000148242 0)
(-1.05045e-05 0.000147718 0)
(6.94149e-07 3.11636e-07 0)
(-1.9584e-06 1.67304e-05 0)
(-2.20353e-06 9.30532e-06 0)
(-5.13642e-08 1.93112e-08 0)
(6.71688e-06 1.10365e-05 0)
(-1.59775e-07 5.07366e-08 0)
(8.74082e-07 9.13878e-06 0)
(-1.23115e-05 0.000338092 0)
(-5.90957e-06 4.2009e-05 0)
(-6.75983e-06 5.76231e-05 0)
(-7.55678e-06 7.52484e-05 0)
(1.13379e-05 0.000251759 0)
(1.06976e-05 0.000197635 0)
(7.39331e-07 0.000234083 0)
(6.87671e-07 0.000181036 0)
(-3.10682e-07 2.42785e-05 0)
(-5.92875e-07 0.000110013 0)
(-2.34357e-07 3.89526e-08 0)
(9.23248e-07 3.03826e-05 0)
(-1.84838e-06 0.000168203 0)
(-5.55474e-06 0.000106241 0)
(1.2865e-06 2.99348e-05 0)
(-2.60421e-06 0.000169098 0)
(-8.41207e-06 0.00031986 0)
(1.04096e-05 0.000119197 0)
(9.69822e-06 0.000118278 0)
(5.11707e-08 1.92452e-08 0)
(2.34102e-07 3.89083e-08 0)
(-1.63197e-05 0.000297632 0)
(-1.56996e-05 0.000298899 0)
(-1.53653e-05 0.000100863 0)
(1.73392e-05 0.000140531 0)
(1.39069e-05 0.000252663 0)
(1.30877e-05 0.00019847 0)
(-7.18631e-06 4.1585e-05 0)
(-8.25113e-06 5.71174e-05 0)
(-9.23014e-06 7.4678e-05 0)
(-4.92892e-07 0.000303525 0)
(-6.05353e-06 2.82431e-05 0)
(1.3569e-05 0.000225179 0)
(1.25876e-05 0.00017277 0)
(8.31605e-06 0.000120448 0)
(7.0363e-06 0.000286171 0)
(1.10446e-05 0.000357177 0)
(1.11793e-06 9.00599e-06 0)
(-4.06869e-06 9.51851e-05 0)
(-9.50722e-09 3.31995e-06 0)
(1.59407e-07 5.0639e-08 0)
(3.93461e-06 0.000100461 0)
(3.38674e-06 9.94073e-05 0)
(-4.26022e-06 0.000140787 0)
(-3.64903e-06 0.000141832 0)
(7.56306e-06 7.52262e-05 0)
(6.76518e-06 5.76032e-05 0)
(5.89933e-06 4.19989e-05 0)
(-1.0708e-05 0.000197636 0)
(-1.13823e-05 0.000251791 0)
(-6.0249e-06 0.000349883 0)
(2.02702e-06 2.4512e-06 0)
(9.44364e-09 0.000200725 0)
(-1.42869e-08 4.0208e-05 0)
(8.03299e-06 0.000337564 0)
(6.53349e-06 0.000117465 0)
(-2.5414e-05 0.00033355 0)
(7.50891e-06 0.000121322 0)
(2.88578e-07 2.10103e-07 0)
(2.09252e-05 0.000272373 0)
(2.10458e-05 0.000270836 0)
(-1.27708e-05 0.000172991 0)
(-1.37659e-05 0.000225409 0)
(-1.14081e-05 0.000172553 0)
(-1.23005e-05 0.000224941 0)
(6.11352e-06 2.81395e-05 0)
(5.48193e-06 2.8326e-05 0)
(6.22551e-06 0.000158836 0)
(7.40369e-06 0.000158651 0)
(6.76003e-06 0.000210125 0)
(8.04249e-06 0.000209921 0)
(-3.40293e-06 3.5344e-05 0)
(-4.05414e-06 3.54596e-05 0)
(-7.09438e-07 1.58532e-05 0)
(3.59415e-06 1.00989e-05 0)
(3.3646e-06 9.7485e-06 0)
(3.43096e-06 7.37275e-06 0)
(6.01796e-06 0.000287407 0)
(-2.07392e-05 0.000272876 0)
(-2.085e-05 0.00027128 0)
(7.72957e-06 2.0829e-05 0)
(7.57656e-06 2.02333e-05 0)
(1.64247e-05 0.0001215 0)
(1.6647e-05 0.00012287 0)
(-1.62887e-05 0.000118712 0)
(-1.63736e-05 0.000117365 0)
(7.44346e-06 0.00034474 0)
(-2.03517e-05 0.000349252 0)
(-1.95637e-05 0.0002938 0)
(4.53073e-06 5.0874e-06 0)
(-1.19502e-05 0.000344854 0)
(-1.067e-05 0.000343667 0)
(5.06687e-06 0.000160662 0)
(-3.12489e-06 0.000144303 0)
(2.78993e-06 9.73456e-05 0)
(-1.39713e-05 0.000121955 0)
(1.37007e-05 0.000118139 0)
(-6.5658e-06 2.04655e-05 0)
(-1.91306e-07 1.2086e-07 0)
(1.03454e-06 4.18019e-06 0)
(1.25987e-06 0.000103915 0)
(-1.17526e-05 0.000104658 0)
(1.26848e-05 0.000135997 0)
(-6.76085e-06 9.52242e-05 0)
(8.07467e-06 0.000146844 0)
(4.1013e-06 0.000256618 0)
(5.65571e-06 0.000256063 0)
(-2.38799e-06 5.46949e-05 0)
(-3.29908e-06 5.50265e-05 0)
(-2.68026e-06 7.19827e-05 0)
(-3.70118e-06 7.23529e-05 0)
(6.40813e-07 2.76482e-05 0)
(-1.36415e-06 0.000173758 0)
(-1.38298e-06 0.00022628 0)
(-2.2432e-06 0.000331929 0)
(3.13811e-06 7.32534e-06 0)
(-6.24072e-07 0.000140579 0)
(-9.65725e-06 0.000340289 0)
(1.29698e-06 1.02898e-06 0)
(8.64902e-06 0.000201692 0)
(-4.63863e-06 3.97647e-05 0)
(-1.45733e-05 0.000142079 0)
(-1.36864e-05 0.000141366 0)
(1.27345e-05 9.94329e-05 0)
(1.20051e-05 0.00010004 0)
(-1.44689e-05 0.000354918 0)
(-1.46285e-05 0.000353389 0)
(-2.353e-06 1.59531e-05 0)
(-2.7907e-06 1.58926e-05 0)
(1.13263e-06 4.38189e-06 0)
(-2.67648e-06 4.54858e-06 0)
(6.90151e-07 0.00014756 0)
(4.14982e-06 2.86531e-05 0)
(3.49033e-06 2.88361e-05 0)
(-8.58087e-06 0.000171793 0)
(-7.19282e-06 0.000171385 0)
(-9.255e-06 0.000224134 0)
(-7.75975e-06 0.000223696 0)
(-1.87713e-05 0.000284284 0)
(-1.73698e-05 0.000284398 0)
(-4.08914e-06 8.514e-05 0)
(-3.77494e-06 6.65023e-05 0)
(-3.33859e-06 4.98249e-05 0)
(5.9507e-06 0.000265169 0)
(-1.00557e-06 0.000300564 0)
(1.23277e-05 0.000118024 0)
(1.16735e-05 0.000119056 0)
(5.48796e-06 0.000229202 0)
(5.24407e-06 0.000176431 0)
(-2.43469e-06 2.64022e-05 0)
(2.30009e-06 2.95788e-05 0)
(1.89347e-06 3.01576e-05 0)
(-4.24619e-06 0.000220854 0)
(-5.05377e-06 0.000221999 0)
(-4.6764e-06 0.000169835 0)
(-3.80936e-06 0.000168666 0)
(-4.84709e-06 2.71039e-05 0)
(1.03084e-05 0.000175066 0)
(1.10967e-05 0.000227657 0)
(-1.29899e-07 1.23275e-06 0)
(1.83378e-05 0.0001348 0)
(-1.68079e-05 0.000106071 0)
(-7.26843e-08 1.14659e-06 0)
(-5.53025e-06 0.000252611 0)
(-6.48726e-06 0.000254008 0)
(-5.0696e-06 0.000198519 0)
(-5.9384e-06 0.000199842 0)
(3.21325e-06 4.07399e-05 0)
(2.76887e-06 4.14593e-05 0)
(3.80503e-06 5.62399e-05 0)
(3.26682e-06 5.70625e-05 0)
(4.26173e-06 7.37104e-05 0)
(3.65477e-06 7.4631e-05 0)
(2.07221e-05 0.000284839 0)
(2.1108e-05 0.000286295 0)
(-1.91276e-06 9.38164e-06 0)
(7.77854e-06 0.000202703 0)
(-4.14092e-06 3.92124e-05 0)
(6.7313e-06 3.09642e-05 0)
(-1.33237e-05 0.000167326 0)
(-1.44104e-05 0.0002193 0)
(-1.86263e-07 5.65192e-08 0)
(2.70338e-06 0.000296925 0)
(6.64516e-06 2.95329e-05 0)
(-1.35105e-05 0.000170175 0)
(-1.46006e-05 0.000222331 0)
(5.02079e-06 8.56796e-06 0)
(-1.02127e-05 0.000321977 0)
(6.36978e-06 2.35434e-05 0)
(-1.61326e-05 0.000264018 0)
(-3.3925e-06 1.2617e-05 0)
(-3.6199e-06 1.30824e-05 0)
(3.55786e-06 1.29457e-05 0)
(-1.73086e-06 0.00014036 0)
(-1.31365e-08 -9.66835e-09 0)
(-1.08454e-05 0.000352965 0)
(-1.67024e-07 6.62915e-08 0)
(1.85748e-07 5.63826e-08 0)
(-4.97716e-06 2.86016e-05 0)
(1.10741e-05 0.0002243 0)
(1.02678e-05 0.00017195 0)
(8.53831e-06 0.000297395 0)
(-2.44696e-05 0.000319204 0)
(3.14178e-06 0.00013131 0)
(-2.00386e-06 0.00012785 0)
(-5.42344e-07 1.32047e-05 0)
(-1.52508e-06 1.58373e-06 0)
(-9.48371e-09 -8.5404e-09 0)
(-6.06389e-06 9.61204e-05 0)
(7.2397e-06 0.000145807 0)
(5.17911e-07 1.81261e-07 0)
(-8.00116e-07 0.000125952 0)
(-7.54254e-07 0.000124725 0)
(-1.00628e-08 0.000105585 0)
(-1.38624e-07 2.67407e-05 0)
(2.83734e-07 0.000175666 0)
(2.56008e-07 0.000228493 0)
(-5.1997e-07 1.81962e-07 0)
(2.15555e-06 1.42894e-05 0)
(-8.43761e-06 0.000259689 0)
(4.80206e-06 5.29506e-05 0)
(5.40369e-06 7.00197e-05 0)
(5.95241e-06 8.89963e-05 0)
(1.77734e-05 0.000338729 0)
(-6.44846e-06 2.55718e-05 0)
(1.52385e-05 0.000231359 0)
(1.41854e-05 0.00017852 0)
(-1.00557e-05 0.000312315 0)
(1.44373e-06 3.65299e-06 0)
(1.35897e-05 0.000306481 0)
(-2.85766e-06 4.4799e-06 0)
(9.52645e-06 0.000340083 0)
(-7.27182e-06 0.000259718 0)
(4.1353e-06 5.29274e-05 0)
(4.65359e-06 6.99951e-05 0)
(5.12957e-06 8.89645e-05 0)
(1.26125e-06 3.46111e-06 0)
(6.27836e-06 0.000207879 0)
(-3.21598e-06 3.64841e-05 0)
(-1.08375e-06 1.42291e-05 0)
(-1.78084e-05 0.000307578 0)
(-6.57864e-06 7.99803e-05 0)
(-5.91608e-06 6.18695e-05 0)
(-5.19567e-06 4.57406e-05 0)
(8.97957e-06 0.000191016 0)
(9.5781e-06 0.000244741 0)
(2.44877e-05 0.000359101 0)
(1.42641e-05 0.000314923 0)
(1.58129e-05 0.000314378 0)
(1.94966e-07 1.35589e-07 0)
(8.82738e-06 9.55798e-05 0)
(-1.03373e-05 0.000146408 0)
(-4.47829e-06 9.69545e-05 0)
(5.27241e-06 0.00014487 0)
(-1.50523e-06 0.000156139 0)
(-1.14202e-06 0.000254271 0)
(7.40216e-07 7.35178e-05 0)
(6.60674e-07 5.60648e-05 0)
(4.49699e-08 3.93742e-05 0)
(-2.3899e-07 0.000151696 0)
(-9.98637e-08 0.000202327 0)
(1.12177e-05 0.000358614 0)
(6.30482e-07 1.46579e-05 0)
(-2.68631e-07 3.36902e-06 0)
(2.15966e-06 0.000214892 0)
(1.08001e-07 3.48472e-06 0)
(-1.62684e-06 1.09343e-05 0)
(4.1132e-06 3.92786e-05 0)
(-7.80616e-06 0.00020257 0)
(-1.51969e-07 1.65976e-07 0)
(-1.64935e-05 0.000307433 0)
(-1.35315e-06 2.62271e-05 0)
(2.94447e-06 0.000229721 0)
(2.91774e-06 0.000176776 0)
(3.64211e-07 8.73631e-08 0)
(-4.80862e-06 8.70872e-06 0)
(5.38163e-06 7.17666e-05 0)
(4.79337e-06 5.45065e-05 0)
(-8.2977e-06 0.000256991 0)
(1.61196e-06 9.99642e-05 0)
(-1.11537e-05 0.0003484 0)
(-1.82817e-07 2.56258e-08 0)
(-6.3048e-06 1.36485e-05 0)
(4.08357e-06 7.49778e-06 0)
(-4.102e-06 4.47889e-06 0)
(1.24126e-05 0.000120203 0)
(9.45201e-06 0.000146437 0)
(-8.07291e-06 9.55463e-05 0)
(5.83651e-07 3.89699e-05 0)
(-1.33668e-06 0.000152276 0)
(-1.11762e-06 0.000203086 0)
(1.18894e-05 0.00030298 0)
(1.1038e-05 0.000131747 0)
(5.77022e-06 0.000351105 0)
(5.55935e-06 0.000352422 0)
(1.61743e-06 0.000145748 0)
(2.19649e-06 9.92098e-05 0)
(1.82606e-07 2.55947e-08 0)
(-1.594e-05 0.000274567 0)
(5.72353e-06 1.95184e-05 0)
(1.99171e-08 2.65218e-07 0)
(3.0663e-06 0.000195672 0)
(4.003e-06 0.000196355 0)
(5.34506e-09 2.30179e-08 0)
(-2.99157e-06 7.25193e-06 0)
(7.53169e-06 7.29773e-05 0)
(6.71867e-06 5.55922e-05 0)
(5.84016e-06 4.01815e-05 0)
(-1.08457e-05 0.000200739 0)
(-1.15109e-05 0.00025519 0)
(1.00335e-05 0.000125343 0)
(1.48483e-06 0.000297245 0)
(-6.48503e-06 0.000335403 0)
(-6.13917e-06 0.000337181 0)
(-6.14413e-07 0.000258415 0)
(-5.24862e-07 0.000259844 0)
(4.48367e-07 5.28067e-05 0)
(4.09757e-07 5.35928e-05 0)
(5.04657e-07 6.98642e-05 0)
(4.60652e-07 7.07474e-05 0)
(3.36931e-07 8.88232e-05 0)
(4.0098e-07 8.97692e-05 0)
(8.03086e-07 0.000146238 0)
(1.46347e-06 0.000148603 0)
(2.53847e-06 0.000227032 0)
(-6.27437e-07 0.000155753 0)
(-3.64703e-07 8.74838e-08 0)
(-4.07278e-07 3.21242e-06 0)
(5.53152e-06 0.000206768 0)
(-2.85816e-06 3.70528e-05 0)
(1.43726e-06 4.46592e-06 0)
(2.15698e-05 0.000340402 0)
(-1.62928e-06 0.000260984 0)
(1.01919e-06 5.22089e-05 0)
(1.14811e-06 6.91918e-05 0)
(1.13492e-06 8.80414e-05 0)
(-1.64589e-05 0.000285762 0)
(5.66746e-06 0.000101595 0)
(8.42228e-06 0.000361413 0)
(9.52253e-06 0.000360605 0)
(-1.61705e-06 1.1276e-05 0)
(-1.03312e-06 0.000199665 0)
(5.51744e-07 4.0785e-05 0)
(2.39641e-07 2.42157e-07 0)
(2.11652e-05 0.000350049 0)
(-2.82043e-07 5.68756e-06 0)
(-3.94059e-06 5.92975e-05 0)
(-4.39573e-06 7.71234e-05 0)
(-5.26214e-06 7.79389e-05 0)
(-4.7217e-06 6.00311e-05 0)
(-3.40674e-06 4.3461e-05 0)
(-4.12281e-06 4.41222e-05 0)
(7.00533e-06 0.000193736 0)
(7.46576e-06 0.000247652 0)
(2.98851e-06 4.05279e-06 0)
(-1.9143e-07 1.15818e-07 0)
(-1.82319e-05 0.000236265 0)
(-1.89979e-05 0.000349332 0)
(6.20627e-06 0.000148485 0)
(-5.21192e-07 5.8205e-06 0)
(-9.85303e-06 0.000193382 0)
(-1.04952e-05 0.000247262 0)
(5.59415e-06 4.43928e-05 0)
(6.38558e-06 6.03337e-05 0)
(7.11395e-06 7.82714e-05 0)
(9.17392e-06 0.000298388 0)
(2.08123e-05 0.000351298 0)
(-1.1152e-05 0.00012129 0)
(4.58046e-06 3.97543e-05 0)
(-8.65762e-06 0.000201684 0)
(5.93926e-06 0.000149648 0)
(-2.23347e-06 0.000106416 0)
(5.95946e-06 7.23823e-05 0)
(5.31222e-06 5.50571e-05 0)
(-9.14766e-06 0.00025606 0)
(-1.65859e-05 0.000122694 0)
(1.6199e-05 0.000117608 0)
(1.61997e-05 0.000118929 0)
(-1.63669e-05 0.000121291 0)
(-7.58557e-06 2.0221e-05 0)
(-7.80871e-06 2.0853e-05 0)
(-7.68626e-06 0.000118908 0)
(-3.86642e-06 4.58615e-06 0)
(-1.24431e-05 0.000119828 0)
(-1.81033e-06 0.000287428 0)
(-1.5798e-06 1.88069e-06 0)
(1.24848e-05 6.96539e-05 0)
(1.10902e-05 5.26499e-05 0)
(-1.76669e-05 0.000179875 0)
(2.85239e-06 7.24266e-05 0)
(2.54279e-06 5.50915e-05 0)
(-4.38445e-06 0.000255944 0)
(5.80695e-06 1.74303e-05 0)
(9.77579e-06 0.000145243 0)
(-8.4089e-06 9.65796e-05 0)
(-4.56292e-06 5.10987e-06 0)
(5.03782e-06 0.000227946 0)
(4.81062e-06 0.00017531 0)
(-2.25869e-06 2.69257e-05 0)
(1.45793e-05 0.000215176 0)
(-7.05338e-06 3.29437e-05 0)
(1.34467e-05 0.000163517 0)
(-8.02388e-06 1.99517e-05 0)
(1.02843e-05 0.00033608 0)
(1.17929e-05 0.000335587 0)
(1.13597e-05 0.000255198 0)
(1.07608e-05 0.000200761 0)
(-5.80984e-06 4.02963e-05 0)
(-6.6501e-06 5.55853e-05 0)
(-7.45471e-06 7.29699e-05 0)
(-1.66369e-06 1.63018e-06 0)
(-8.99731e-06 0.000311995 0)
(9.84984e-06 0.00019852 0)
(-5.40061e-06 4.15111e-05 0)
(-1.01094e-06 1.25088e-06 0)
(8.42673e-06 0.000339861 0)
(2.01089e-06 1.64262e-06 0)
(1.66749e-06 1.24525e-06 0)
(4.23558e-06 5.99798e-06 0)
(1.0184e-05 0.000272902 0)
(-1.72008e-05 0.000280452 0)
(2.29357e-05 0.000340838 0)
(4.29024e-06 6.3059e-06 0)
(1.00522e-05 0.000131706 0)
(1.38162e-05 0.000289443 0)
(-2.21531e-05 0.00027361 0)
(8.04267e-06 1.99968e-05 0)
(-5.0734e-06 0.00029127 0)
(2.06959e-06 7.26529e-05 0)
(1.84547e-06 5.52928e-05 0)
(-3.18054e-06 0.000255592 0)
(-7.51784e-07 3.60004e-06 0)
(5.88542e-06 0.000156722 0)
(1.65567e-07 6.57542e-08 0)
(-6.66516e-06 1.35166e-05 0)
(-1.18071e-06 0.00012865 0)
(-2.9871e-06 2.4591e-05 0)
(-3.4775e-06 2.47541e-05 0)
(6.69692e-06 0.000180419 0)
(7.77218e-06 0.000180081 0)
(8.342e-06 0.000233049 0)
(7.18666e-06 0.000233413 0)
(1.95997e-07 7.21756e-07 0)
(-4.69698e-08 9.09761e-06 0)
(-1.19892e-05 0.000161987 0)
(-1.3012e-05 0.000213521 0)
(6.36224e-06 3.37263e-05 0)
(-3.72547e-06 2.0032e-05 0)
(-2.23859e-06 0.000219579 0)
(-3.36679e-06 8.55414e-06 0)
(7.051e-06 0.00033662 0)
(-5.63571e-06 0.000109455 0)
(-6.53185e-06 0.000109178 0)
(1.91101e-07 1.91648e-07 0)
(-3.73036e-06 0.000113229 0)
(-1.87582e-06 2.26148e-05 0)
(4.39832e-06 0.000184869 0)
(4.70803e-06 0.000238183 0)
(-5.25211e-06 0.000219615 0)
(-4.61652e-06 0.000167532 0)
(2.31968e-06 3.07354e-05 0)
(3.06859e-06 1.14922e-05 0)
(2.84995e-06 1.10731e-05 0)
(1.51657e-06 0.000109133 0)
(-1.94775e-06 0.000232963 0)
(-1.82313e-06 0.000179969 0)
(8.0825e-07 2.47594e-05 0)
(-1.77609e-06 4.27687e-05 0)
(-3.17062e-06 8.79371e-06 0)
(1.31211e-05 0.000344565 0)
(-1.27632e-05 0.000205504 0)
(9.81879e-06 9.6196e-05 0)
(-1.14502e-05 0.000145714 0)
(1.39849e-05 0.000290756 0)
(-1.27578e-05 8.83692e-05 0)
(-1.15987e-05 6.94448e-05 0)
(1.56806e-05 0.000155175 0)
(-1.03001e-05 5.24601e-05 0)
(-8.89432e-06 3.75458e-05 0)
(1.71419e-05 0.000206151 0)
(1.813e-05 0.000260825 0)
(-4.68939e-06 0.000249523 0)
(-4.40842e-06 0.0001955 0)
(2.8132e-06 5.89124e-05 0)
(2.4592e-06 4.31389e-05 0)
(3.13967e-06 7.66959e-05 0)
(2.69112e-06 5.9765e-05 0)
(-4.45329e-06 0.000248116 0)
(3.00014e-06 7.76461e-05 0)
(2.35595e-06 4.38855e-05 0)
(-4.18368e-06 0.000194178 0)
(-2.46678e-06 0.000316922 0)
(-4.93615e-06 6.43567e-06 0)
(-5.38758e-06 3.04437e-05 0)
(1.16028e-05 0.00022031 0)
(1.07336e-05 0.000168254 0)
(-3.3878e-06 4.10654e-05 0)
(6.25326e-06 0.000199286 0)
(1.72097e-05 0.000247232 0)
(1.61558e-05 0.000193369 0)
(-9.20396e-06 4.45116e-05 0)
(-1.05043e-05 6.04499e-05 0)
(-1.17006e-05 7.8385e-05 0)
(1.81343e-05 0.000269973 0)
(1.97909e-05 0.000269628 0)
(4.39267e-07 7.75842e-06 0)
(-1.80825e-06 0.00012653 0)
(-4.7927e-06 1.31736e-05 0)
(2.44487e-07 4.49451e-07 0)
(-4.72217e-06 1.67498e-05 0)
(-7.51049e-07 0.000288005 0)
(1.9957e-07 7.42347e-06 0)
(-3.9533e-06 0.000135659 0)
(1.6422e-05 0.000179983 0)
(-7.3577e-06 2.49652e-05 0)
(1.76259e-05 0.000232922 0)
(-1.60983e-08 -1.11574e-08 0)
(1.11228e-06 0.000215099 0)
(3.06444e-07 1.28604e-07 0)
(2.0922e-07 1.53059e-07 0)
(2.92525e-06 0.000154189 0)
(-3.49615e-07 2.8027e-07 0)
(1.34089e-05 0.000347154 0)
(1.01447e-06 0.000196299 0)
(-5.20477e-07 4.2638e-05 0)
(2.88543e-06 1.70509e-05 0)
(1.85745e-06 0.000195684 0)
(-1.01832e-06 4.29516e-05 0)
(-1.70445e-07 3.74984e-06 0)
(-1.24559e-05 6.96176e-05 0)
(-1.10638e-05 5.26178e-05 0)
(-9.55522e-06 3.76931e-05 0)
(-7.92718e-06 2.50265e-05 0)
(1.76761e-05 0.000179914 0)
(1.83831e-05 0.000205923 0)
(1.89725e-05 0.000232844 0)
(1.94499e-05 0.000260587 0)
(-8.58815e-06 0.000281286 0)
(-7.62899e-06 0.000334748 0)
(-2.46906e-05 0.000276118 0)
(8.76937e-06 1.91473e-05 0)
(5.65742e-06 0.000354986 0)
(6.57799e-06 0.000353449 0)
(1.76797e-06 0.000191319 0)
(1.91762e-06 0.000245098 0)
(-1.33355e-06 7.97762e-05 0)
(-1.19902e-06 6.16792e-05 0)
(-1.05279e-06 4.55657e-05 0)
(-6.96462e-06 2.00037e-05 0)
(2.5396e-06 1.43181e-05 0)
(-9.50865e-06 8.36073e-05 0)
(1.26632e-05 0.000186176 0)
(-8.58354e-06 6.51477e-05 0)
(-7.57649e-06 4.8639e-05 0)
(1.35435e-05 0.000239567 0)
(-5.29391e-06 2.21794e-05 0)
(1.37168e-05 0.000267532 0)
(2.31177e-06 0.00012115 0)
(-1.42016e-06 0.000299042 0)
(1.3799e-06 6.86477e-07 0)
(-1.03671e-06 0.000262373 0)
(6.78801e-07 5.14258e-05 0)
(7.65525e-07 6.83104e-05 0)
(7.14594e-07 8.70679e-05 0)
(4.30547e-06 0.000309873 0)
(-5.71767e-07 3.59793e-07 0)
(2.17553e-05 0.000304883 0)
(-3.24262e-06 0.000128464 0)
(-9.62421e-08 2.04264e-07 0)
(7.78335e-06 0.000183256 0)
(-3.372e-06 2.33437e-05 0)
(8.33861e-06 0.000236452 0)
(1.66911e-07 1.29032e-07 0)
(-4.53299e-06 2.81954e-05 0)
(9.4254e-06 0.000172759 0)
(1.01605e-05 0.000225174 0)
(1.56282e-06 2.02928e-06 0)
(-6.57913e-06 0.000111892 0)
(1.40841e-06 0.000119703 0)
(-1.50368e-05 0.000325966 0)
(1.40084e-06 0.000192369 0)
(1.49364e-06 0.000246191 0)
(-1.12445e-06 7.9002e-05 0)
(-8.84139e-07 4.49565e-05 0)
(-1.01014e-06 6.09824e-05 0)
(2.23962e-06 0.000122053 0)
(-3.06043e-07 1.15462e-06 0)
(-2.70092e-07 3.94721e-06 0)
(6.77658e-07 0.000287533 0)
(1.479e-05 0.000131316 0)
(-1.38349e-05 0.000109189 0)
(-1.05484e-05 0.000364963 0)
(-2.39603e-05 0.00023791 0)
(-2.23874e-05 0.000184657 0)
(-2.32447e-05 0.000210831 0)
(-2.13846e-05 0.000159544 0)
(1.16344e-05 3.53014e-05 0)
(1.35538e-05 4.98182e-05 0)
(1.53257e-05 6.64428e-05 0)
(1.69521e-05 8.5008e-05 0)
(2.39466e-05 0.000237906 0)
(2.32305e-05 0.000210831 0)
(-1.16426e-05 3.53018e-05 0)
(-1.35624e-05 4.98193e-05 0)
(2.23718e-05 0.000184656 0)
(-1.53357e-05 6.64437e-05 0)
(2.13713e-05 0.000159543 0)
(-1.69633e-05 8.50089e-05 0)
(-6.7024e-06 1.94416e-05 0)
(-3.70108e-06 0.000298402 0)
(-2.63443e-06 0.000298116 0)
(-3.28277e-06 0.000338188 0)
(5.48393e-06 0.0002042 0)
(-2.88946e-06 3.83981e-05 0)
(-1.02761e-06 1.50224e-06 0)
(-4.25237e-06 0.000357522 0)
(-4.64167e-06 7.60974e-05 0)
(-5.68853e-06 7.5809e-05 0)
(-4.15623e-06 5.83776e-05 0)
(-5.0919e-06 5.8121e-05 0)
(6.94799e-06 0.000250861 0)
(8.34257e-06 0.000250978 0)
(1.83169e-05 0.000246586 0)
(1.71895e-05 0.000192765 0)
(-9.83635e-06 4.48808e-05 0)
(-1.12183e-05 6.08666e-05 0)
(-1.24894e-05 7.88453e-05 0)
(-1.10487e-05 0.000162562 0)
(-1.19867e-05 0.000214148 0)
(5.83094e-06 3.3402e-05 0)
(-3.46214e-06 0.000145464 0)
(2.95256e-06 9.63566e-05 0)
(3.62634e-06 0.000258008 0)
(-2.08642e-06 5.38021e-05 0)
(-2.34483e-06 7.09815e-05 0)
(-2.54392e-06 8.98671e-05 0)
(6.81763e-06 9.52002e-05 0)
(5.77881e-06 9.54453e-05 0)
(-8.00593e-06 0.000146808 0)
(-6.77688e-06 0.000146504 0)
(-8.07647e-06 0.000354832 0)
(5.34101e-07 1.44205e-06 0)
(1.34743e-05 0.000305218 0)
(4.83997e-06 0.000105831 0)
(1.32001e-05 0.000210607 0)
(-6.61752e-06 3.51815e-05 0)
(1.21408e-05 0.000159302 0)
(-1.12543e-05 0.000127079 0)
(2.71233e-06 2.65895e-05 0)
(-6.29328e-06 0.000228712 0)
(-5.85097e-06 0.000176042 0)
(7.9397e-07 0.000110149 0)
(-9.62649e-07 0.000181179 0)
(-1.02573e-06 0.000234256 0)
(4.17863e-07 2.42146e-05 0)
(7.5912e-06 9.96803e-05 0)
(-8.65541e-06 0.000141617 0)
(-4.14435e-06 0.000316917 0)
(-1.92482e-05 0.00031387 0)
(3.4464e-06 0.000135043 0)
(8.63528e-06 0.000135472 0)
(-6.90549e-06 2.5838e-05 0)
(1.62351e-05 0.000230782 0)
(1.51084e-05 0.000177986 0)
(-7.59082e-07 3.19928e-06 0)
(-2.59204e-06 0.000264208 0)
(1.44416e-06 5.03865e-05 0)
(1.63141e-06 6.71386e-05 0)
(1.79051e-06 8.57865e-05 0)
(-3.95865e-06 0.000127831 0)
(-1.78407e-05 0.000313977 0)
(-5.08395e-06 5.04483e-05 0)
(-5.74276e-06 6.72015e-05 0)
(-6.32573e-06 8.58901e-05 0)
(9.11493e-06 0.000264115 0)
(1.6155e-08 2.07847e-08 0)
(1.11695e-05 0.000126053 0)
(1.44144e-07 9.70108e-06 0)
(-5.18755e-07 8.94816e-07 0)
(-1.07969e-06 4.14451e-06 0)
(-5.20343e-06 1.78691e-05 0)
(-5.29093e-07 1.94199e-07 0)
(2.19448e-06 5.70023e-05 0)
(1.92069e-06 4.14403e-05 0)
(2.45524e-06 7.45652e-05 0)
(-3.72154e-06 0.000252697 0)
(-3.52111e-06 0.000198538 0)
(-1.0817e-05 0.00010443 0)
(1.17684e-05 0.000136293 0)
(-1.04945e-06 6.13797e-07 0)
(1.43251e-05 0.000336196 0)
(1.03367e-05 0.000300598 0)
(-2.19716e-05 0.000282841 0)
(8.13281e-06 0.000134417 0)
(2.94195e-06 0.000146085 0)
(-5.52023e-06 0.00035736 0)
(-1.53589e-05 0.000153107 0)
(-1.46084e-05 0.000152426 0)
(2.17221e-05 0.000357253 0)
(-1.7234e-06 0.000318505 0)
(-4.83919e-06 9.59649e-05 0)
(5.85577e-06 0.000146056 0)
(1.78112e-07 1.0043e-05 0)
(2.6357e-06 3.53433e-06 0)
(5.26113e-07 1.93117e-07 0)
(5.18e-06 0.000155691 0)
(1.91462e-05 0.000364619 0)
(-1.0471e-05 0.000252741 0)
(-9.84733e-06 0.000198532 0)
(5.38719e-06 4.14917e-05 0)
(6.92638e-06 7.45839e-05 0)
(6.19085e-06 5.70266e-05 0)
(-1.92763e-07 1.33819e-07 0)
(-7.72479e-07 0.000331586 0)
(9.7904e-06 0.000135874 0)
(-8.87268e-06 0.000104964 0)
(-1.56954e-05 0.000323505 0)
(-2.34363e-05 0.000239136 0)
(-2.27413e-05 0.000212015 0)
(-2.19125e-05 0.000185799 0)
(-2.09383e-05 0.000160636 0)
(1.12789e-05 3.46924e-05 0)
(1.3161e-05 4.91126e-05 0)
(1.48986e-05 6.56475e-05 0)
(1.64941e-05 8.41304e-05 0)
(2.34205e-05 0.000239127 0)
(2.27273e-05 0.000212015 0)
(-1.12865e-05 3.46951e-05 0)
(-1.31683e-05 4.91156e-05 0)
(2.18942e-05 0.000185795 0)
(-1.4907e-05 6.56505e-05 0)
(2.09231e-05 0.000160631 0)
(-1.65035e-05 8.41337e-05 0)
(-3.35322e-06 4.47147e-06 0)
(1.31816e-06 1.22735e-06 0)
(-1.76421e-06 3.20363e-06 0)
(8.71693e-06 0.0001333 0)
(-9.54709e-06 0.000137286 0)
(1.68311e-06 2.00758e-06 0)
(-2.59968e-07 4.34141e-08 0)
(-2.11278e-05 0.000283527 0)
(1.21163e-05 0.000360926 0)
(1.35959e-05 0.00036161 0)
(2.5976e-07 4.33802e-08 0)
(3.79544e-06 5.0205e-06 0)
(1.89682e-05 0.000328417 0)
(-7.17825e-06 0.000151882 0)
(-4.61256e-07 3.99975e-07 0)
(-1.04553e-06 1.60835e-06 0)
(-1.62992e-07 4.16319e-08 0)
(3.05992e-07 2.35541e-07 0)
(1.95351e-05 0.00012086 0)
(-1.94694e-05 0.000119452 0)
(5.98581e-06 9.09604e-05 0)
(-7.35702e-06 0.000149084 0)
(6.21601e-06 9.33125e-05 0)
(-3.14389e-07 5.35258e-06 0)
(-4.53587e-06 0.000239085 0)
(3.59631e-06 0.000113982 0)
(-2.52653e-06 0.000236474 0)
(-2.4146e-06 0.000183137 0)
(1.03732e-06 2.33555e-05 0)
(1.98076e-06 0.000111901 0)
(-8.00697e-06 0.000151102 0)
(4.04527e-06 5.32041e-06 0)
(6.70416e-06 9.1652e-05 0)
(2.50469e-06 0.000135251 0)
(1.90624e-05 0.000339211 0)
(-5.77651e-06 0.000136374 0)
(-6.64341e-06 0.000137307 0)
(-5.31885e-06 1.13006e-05 0)
(-6.4433e-06 0.000141698 0)
(-5.50863e-06 0.00014071 0)
(5.74125e-06 9.9515e-05 0)
(5.04472e-06 0.000100503 0)
(-5.98726e-06 2.76013e-05 0)
(1.26122e-05 0.000174106 0)
(1.35844e-05 0.000226618 0)
(-1.64031e-06 1.81113e-06 0)
(-8.02151e-06 0.000149882 0)
(6.75136e-06 9.26815e-05 0)
(-5.11534e-06 0.000193174 0)
(-5.44912e-06 0.000247047 0)
(2.90447e-06 4.44641e-05 0)
(3.69218e-06 7.83778e-05 0)
(3.31463e-06 6.04231e-05 0)
(-2.6249e-06 1.22078e-05 0)
(-1.67934e-05 0.000203787 0)
(-1.59131e-05 0.000203139 0)
(8.81603e-06 3.877e-05 0)
(8.38696e-06 3.9108e-05 0)
(1.10744e-05 0.000161511 0)
(1.21742e-05 0.00016071 0)
(-5.91659e-06 3.3963e-05 0)
(-6.55216e-06 3.44152e-05 0)
(1.20231e-05 0.000213008 0)
(1.3224e-05 0.000212136 0)
(-4.82306e-06 0.000315749 0)
(9.66401e-06 0.000288195 0)
(9.80293e-06 0.000286843 0)
(-7.10066e-06 9.33211e-05 0)
(8.38104e-06 0.000149047 0)
(-2.53069e-05 0.00035198 0)
(-7.2779e-06 0.000280479 0)
(-6.9889e-06 0.000279157 0)
(2.40383e-06 1.77681e-05 0)
(2.47013e-06 1.73137e-05 0)
(2.1869e-05 0.000283615 0)
(-9.62733e-06 0.000119935 0)
(-8.26382e-06 0.000119977 0)
(2.1637e-05 0.000320422 0)
(-2.18573e-05 0.000337869 0)
(-2.1829e-05 0.000339486 0)
(-6.53897e-07 3.31062e-06 0)