/*--------------------------------*- C++ -*----------------------------------*\
| =========                 |                                                 |
| \\      /  F ield         | OpenFOAM: The Open Source CFD Toolbox           |
|  \\    /   O peration     | Version:  2.3.1                                 |
|   \\  /    A nd           | Web:      www.OpenFOAM.org                      |
|    \\/     M anipulation  |                                                 |
\*---------------------------------------------------------------------------*/
FoamFile
{
    version     2.0;
    format      ascii;
    class       volScalarField;
    location    "0.1";
    object      epsilon;
}
// * * * * * * * * * * * * * * * * * * * * * * * * * * * * * * * * * * * * * //

dimensions      [0 2 -3 0 0 0 0];

internalField   nonuniform List<scalar> 
9648
(
2096.61
1958.85
1926.74
1887.1
1843.5
1797.33
1749.17
1699.66
1649.61
1599.82
1550.96
1503.4
1457.72
1414.35
1373.43
1335.06
1299.4
1266.53
1236.37
1208.8
1183.77
1161.16
1140.81
1122.67
1106.61
1092.48
1080.15
1069.53
1060.54
1053.07
1047.04
1042.38
1039.03
1036.9
1035.99
1036.21
1037.51
1039.88
1043.34
1047.86
1053.39
1059.98
1067.63
1076.35
1086.19
1097.16
1109.3
1122.6
1137.16
1153.06
1170.28
1188.71
1208.39
1229.06
1250.42
1272.04
1293.67
1315.13
1336.08
1356.38
1375.99
423.402
417.175
425.131
430.056
434.694
439.447
444.472
449.439
454.288
458.898
463.333
467.431
471.231
474.785
478.131
481.244
484.168
486.99
489.76
492.456
495.144
497.845
500.564
503.344
506.232
509.226
512.325
515.549
518.924
522.454
526.133
529.983
534.019
538.221
542.609
547.193
551.963
556.911
562.049
567.398
572.951
578.693
584.625
590.748
597.065
603.567
610.229
617.03
623.939
630.965
638.068
645.194
652.293
659.399
666.389
673.277
679.961
686.618
693.166
699.607
705.928
209.506
220.255
231.677
243.039
254.773
266.662
278.695
290.609
302.345
313.698
324.678
335.173
345.161
354.625
363.557
371.967
379.866
387.294
394.275
400.839
407.019
412.84
418.34
423.557
428.523
433.267
437.81
442.185
446.406
450.495
454.471
458.352
462.15
465.878
469.549
473.168
476.748
480.286
483.787
487.254
490.688
494.094
497.459
500.79
504.091
507.344
510.551
513.708
516.819
519.868
522.847
525.749
528.545
531.299
533.909
536.484
538.938
541.424
543.797
546.128
548.422
162.032
173.933
186.305
199.147
212.347
225.698
239.044
252.22
265.104
277.558
289.517
300.905
311.692
321.849
331.369
340.249
348.507
356.167
363.258
369.815
375.868
381.449
386.601
391.36
395.768
399.859
403.665
407.218
410.537
413.65
416.58
419.349
421.979
424.48
426.869
429.158
431.358
433.473
435.511
437.477
439.379
441.225
443.02
444.767
446.468
448.124
449.735
451.299
452.817
454.286
455.691
457.059
458.371
459.645
460.841
462.02
463.179
464.311
465.394
466.434
467.455
150.925
163.451
176.507
190.013
203.781
217.618
231.347
244.82
257.909
270.493
282.491
293.838
304.502
314.464
323.72
332.264
340.113
347.298
353.848
359.807
365.207
370.081
374.472
378.421
381.976
385.178
388.062
390.66
392.99
395.084
396.968
398.668
400.207
401.602
402.863
404.01
405.054
406.001
406.859
407.636
408.339
408.983
409.574
410.119
410.62
411.082
411.506
411.892
412.235
412.545
412.806
413.026
413.215
413.366
413.479
413.557
413.622
413.651
413.634
413.58
413.491
150.314
163.405
176.965
190.856
204.874
218.847
232.609
246.015
258.948
271.28
282.942
293.862
304.03
313.426
322.074
329.942
337.059
343.464
349.19
354.295
358.818
362.775
366.23
369.208
371.782
373.993
375.879
377.475
378.792
379.861
380.718
381.385
381.9
382.272
382.508
382.635
382.674
382.616
382.476
382.259
381.975
381.638
381.264
380.855
380.41
379.937
379.436
378.919
378.373
377.792
377.182
376.534
375.854
375.141
374.395
373.644
372.877
372.073
371.227
370.353
369.438
153.732
167.174
180.988
195.02
209.033
222.909
236.451
249.544
262.088
273.924
285.018
295.273
304.718
313.336
321.199
328.213
334.416
339.891
344.635
348.772
352.32
355.271
357.72
359.666
361.215
362.417
363.292
363.908
364.228
364.306
364.181
363.866
363.425
362.855
362.136
361.331
360.467
359.51
358.488
357.402
356.248
355.065
353.86
352.639
351.38
350.113
348.829
347.539
346.231
344.905
343.553
342.177
340.781
339.332
337.865
336.404
334.939
333.469
331.951
330.384
328.807
158.471
172.058
185.906
199.87
213.651
227.209
240.34
252.931
264.934
276.067
286.423
295.786
304.345
312.005
318.997
325.025
330.194
334.626
338.25
341.316
343.839
345.701
347.133
347.97
348.467
348.622
348.47
348.108
347.424
346.519
345.444
344.166
342.814
341.325
339.675
337.979
336.235
334.385
332.521
330.593
328.606
326.594
324.625
322.63
320.601
318.614
316.597
314.617
312.613
310.612
308.599
306.583
304.544
302.431
300.327
298.274
296.209
294.188
292.09
289.938
287.847
163.008
176.492
190.261
203.916
217.389
230.45
242.995
255.092
266.386
276.749
286.206
294.588
302.055
308.616
314.718
319.716
323.837
327.126
329.657
331.65
332.979
333.741
333.966
333.733
333.213
332.204
331.082
329.689
327.859
325.998
323.855
321.667
319.569
317.118
314.414
311.935
309.186
306.378
303.692
300.758
297.772
294.643
292.002
289.18
286.341
283.784
280.918
278.354
275.518
272.855
270.025
267.435
264.822
262.054
259.365
256.877
254.159
251.923
249.278
246.552
244.131
1395.24
1414.23
1432.89
1451.36
1470.15
1488.97
1506.71
1524.16
1541.29
1558.57
1575.93
1594.01
1613.21
1633.91
1656.28
1680.75
1707.26
1735.48
1764.95
1795.62
1827.2
1859.62
1893.07
1927.35
1962.22
1997.75
2034.06
2071.15
2108.95
2147.48
2186.9
2227.11
2268.13
2310.09
2353.02
2396.84
2441.62
2487.5
2534.55
2582.65
2631.8
2682.24
2733.96
2786.81
2841.08
2896.69
2953.51
3011.58
3071.08
3132.1
3194.55
3258.3
3323.88
3390.98
3459.91
3530.53
3603.59
3679.31
3757.78
3838.95
3923.05
712.065
718.367
724.553
730.634
736.666
742.689
748.751
754.745
760.815
766.877
773.073
779.302
785.611
792.009
798.488
805.051
811.661
818.307
824.961
831.611
838.269
844.923
851.543
858.069
864.489
870.809
877.014
883.12
889.111
895.004
900.812
906.511
912.117
917.646
923.094
928.456
933.754
938.977
944.124
949.195
954.202
959.164
964.051
968.865
973.623
978.311
982.916
987.423
991.864
996.232
1000.51
1004.69
1008.79
1012.96
1016.96
1021.09
1025.24
1029.68
1034.13
1038.8
1043.8
550.741
553.041
555.369
557.645
559.872
562.012
564.077
566.106
568.131
570.111
572.097
574.043
575.984
577.869
579.711
581.505
583.244
584.925
586.54
588.085
589.555
590.957
592.286
593.547
594.73
595.829
596.837
597.755
598.581
599.32
599.962
600.51
600.967
601.325
601.599
601.78
601.869
601.861
601.756
601.548
601.243
600.841
600.347
599.747
599.049
598.24
597.308
596.244
595.055
593.74
592.274
590.701
588.986
587.157
585.14
583.04
580.861
578.631
576.363
574.121
571.995
468.437
469.406
470.325
471.211
472.085
472.879
473.583
474.25
474.851
475.378
475.845
476.268
476.638
476.939
477.195
477.388
477.522
477.59
477.591
477.517
477.373
477.156
476.872
476.524
476.109
475.623
475.063
474.428
473.717
472.93
472.068
471.122
470.094
468.99
467.814
466.564
465.237
463.829
462.333
460.752
459.089
457.354
455.548
453.677
451.738
449.729
447.627
445.434
443.143
440.77
438.287
435.702
433.031
430.256
427.353
424.328
421.227
418.043
414.825
411.629
408.509
413.366
413.174
412.921
412.63
412.352
412.061
411.73
411.353
410.939
410.464
409.954
409.405
408.806
408.163
407.471
406.726
405.957
405.132
404.251
403.313
402.322
401.282
400.2
399.082
397.921
396.714
395.457
394.148
392.793
391.391
389.938
388.424
386.849
385.219
383.542
381.817
380.037
378.193
376.278
374.295
372.252
370.153
368.012
365.839
363.639
361.41
359.117
356.786
354.383
351.93
349.403
346.792
344.121
341.373
338.53
335.577
332.533
329.392
326.233
323.076
319.965
368.503
367.531
366.535
365.485
364.412
363.308
362.196
361.067
359.897
358.697
357.459
356.203
354.918
353.593
352.236
350.857
349.464
348.026
346.539
345.008
343.437
341.838
340.222
338.599
336.954
335.283
333.586
331.858
330.118
328.363
326.592
324.78
322.933
321.046
319.142
317.215
315.247
313.24
311.172
309.045
306.87
304.65
302.406
300.16
297.923
295.706
293.449
291.193
288.898
286.61
284.272
281.862
279.426
276.917
274.359
271.665
268.899
266.034
263.174
260.275
257.419
327.218
325.611
323.978
322.314
320.628
318.934
317.226
315.524
313.793
312.022
310.246
308.469
306.668
304.851
303
301.147
299.305
297.432
295.517
293.548
291.546
289.537
287.527
285.541
283.558
281.559
279.553
277.524
275.516
273.534
271.598
269.637
267.681
265.696
263.736
261.771
259.761
257.733
255.658
253.531
251.358
249.129
246.884
244.652
242.446
240.327
238.167
236.069
233.948
231.926
229.889
227.757
225.631
223.438
221.235
218.844
216.435
213.892
211.426
208.882
206.394
285.734
283.649
281.537
279.434
277.323
275.235
273.13
271.085
269.025
266.882
264.757
262.668
260.561
258.432
256.232
254.072
251.983
249.874
247.735
245.472
243.164
240.893
238.607
236.367
234.18
231.981
229.789
227.514
225.276
223.114
221.122
219.109
217.186
215.243
213.409
211.595
209.666
207.694
205.726
203.76
201.717
199.569
197.41
195.255
193.113
191.163
189.101
187.193
185.24
183.56
181.912
180.096
178.331
176.489
174.694
172.596
170.566
168.345
166.344
164.208
162.18
241.498
239.067
236.506
234.241
231.845
229.775
227.46
225.42
223.363
221.189
219.039
217.058
214.956
212.855
210.458
208.072
205.95
203.926
201.997
199.785
197.255
194.967
192.593
190.204
187.91
185.674
183.626
181.252
178.722
176.336
174.352
172.28
170.468
168.657
167.255
165.896
164.232
162.332
160.535
158.925
157.271
155.292
153.275
151.323
149.286
147.609
145.556
143.859
141.937
140.708
139.533
138.019
136.692
135.267
133.972
132.096
130.446
128.463
126.979
125.274
123.818
4011.23
4103.27
4198.08
4295.33
4394.9
4497.25
4601.6
4708.51
4816.7
4926.93
5044.04
5193.12
5326.58
5462.18
5600.77
5741.93
5886.21
6033.89
6184.59
6337.87
6493.8
6652.2
6812.6
6975.06
7139.21
7304.25
7469.83
7635.68
7801.5
7966.26
8129.85
8291.53
8450.28
8605.42
8756.4
8901.92
9038.15
9156.81
9245.93
9308.36
9344.59
9354.79
9337.85
9291.39
9213.53
9101.58
8951.32
8758.02
8517.42
8225.03
7874.77
7460.14
6976.37
6416.24
5734.85
4738.78
4322.61
4137.07
4086.13
4077.3
4011.4
1049.31
1055.24
1061.66
1068.37
1075.23
1082.31
1089.69
1097.28
1102.49
1105.92
1111.14
1117.06
1124.82
1132.86
1141.05
1149.47
1158.16
1167.06
1176.14
1185.37
1194.71
1204.21
1213.87
1223.69
1233.69
1243.84
1254.21
1264.83
1275.77
1287.1
1298.88
1311.22
1324.25
1338.12
1352.98
1369.17
1386.83
1408.53
1440.89
1479.07
1519.82
1563.51
1610.52
1660.9
1715.31
1774.02
1837.02
1904.51
1976.65
2052.83
2131.94
2212.15
2291.69
2369.45
2435.55
2496.96
2555.86
2647.01
2758.06
2864.72
2769.42
569.994
568.175
566.502
564.938
563.339
561.644
559.826
557.428
552.994
548.413
544.694
541.626
539.415
537.432
535.439
533.392
531.288
529.125
526.909
524.631
522.302
519.91
517.454
514.938
512.372
509.762
507.128
504.484
501.861
499.263
496.723
494.27
491.924
489.74
487.751
486.018
484.592
483.666
483.681
484.864
490.53
499.579
511.762
527.473
547.255
571.836
601.977
638.738
683.113
736.16
798.851
871.944
956.667
1053.39
1161.34
1277.15
1392.1
1518.86
1675.06
1879.03
2060.74
405.493
402.628
399.905
397.267
394.576
391.737
388.685
384.792
379.82
375.153
371.026
367.425
364.342
361.504
358.697
355.842
352.904
349.906
346.855
343.767
340.638
337.458
334.229
330.958
327.651
324.321
320.979
317.633
314.291
310.962
307.654
304.376
301.141
297.963
294.854
291.835
288.926
286.154
283.58
281.276
279.566
279.193
280.331
282.95
287.338
293.908
303.198
315.951
333.104
355.767
385.44
423.477
471.553
530.722
601.425
681.389
766.288
858.201
966.415
1106.21
1275.49
316.938
314.085
311.373
308.736
306.013
303.149
300.05
296.25
291.925
287.966
284.341
281.11
278.247
275.624
273.041
270.438
267.748
265.016
262.245
259.456
256.642
253.77
250.865
247.937
244.987
242.032
239.08
236.139
233.205
230.286
227.384
224.504
221.653
218.839
216.072
213.361
210.718
208.154
205.686
203.34
201.176
199.331
198.178
197.702
197.981
199.202
201.629
205.616
211.667
220.401
232.717
249.729
272.73
303.026
341.57
388.307
441.574
500.878
568.778
651.494
754.905
254.591
251.968
249.479
247.084
244.534
241.883
239.032
235.748
232.229
229.06
226.035
223.307
220.845
218.622
216.431
214.234
211.93
209.614
207.271
204.932
202.576
200.147
197.702
195.258
192.802
190.366
187.939
185.537
183.142
180.761
178.39
176.042
173.714
171.42
169.163
166.955
164.801
162.711
160.69
158.752
156.919
155.229
153.768
152.769
152.126
151.924
152.311
153.432
155.533
158.936
164.073
171.545
182.115
196.634
216.04
240.876
271.169
306.878
348.583
398.04
458.446
203.815
201.484
199.28
197.22
194.898
192.548
190.031
187.377
184.643
182.257
179.793
177.562
175.502
173.717
171.918
170.136
168.197
166.303
164.381
162.482
160.576
158.555
156.565
154.623
152.67
150.764
148.862
147.004
145.133
143.279
141.418
139.586
137.769
135.993
134.247
132.552
130.903
129.314
127.781
126.32
124.94
123.665
122.521
121.606
120.977
120.58
120.495
120.799
121.611
123.085
125.44
128.97
134.045
141.163
150.859
163.677
180.047
200.268
224.764
254.295
290.142
159.865
157.851
155.97
154.318
152.255
150.241
148.06
146.042
144.04
142.413
140.426
138.627
136.892
135.54
134.082
132.689
131.037
129.536
127.983
126.454
124.946
123.252
121.674
120.251
118.78
117.378
115.942
114.597
113.18
111.787
110.347
108.971
107.602
106.306
105.024
103.808
102.613
101.478
100.39
99.3817
98.4425
97.6042
96.8789
96.2809
95.9238
95.7194
95.7053
95.9117
96.4082
97.2742
98.6239
100.599
103.398
107.254
112.459
119.348
128.257
139.553
153.613
170.94
192.186
121.764
120.048
118.534
117.346
115.573
113.875
111.963
110.57
109.236
108.322
106.691
105.221
103.653
102.761
101.543
100.52
99.0423
97.9348
96.6631
95.3698
94.1985
92.7008
91.5083
90.7135
89.6529
88.6454
87.5416
86.6836
85.5673
84.5246
83.3151
82.3395
81.329
80.4658
79.5593
78.7486
77.8592
77.0539
76.3211
75.6808
75.142
74.678
74.3526
74.1172
73.9464
74.0061
74.1848
74.4742
74.9782
75.6332
76.6976
78.0935
80.0487
82.5381
85.8069
89.9181
95.1971
101.766
110.067
120.382
133.08
3883.99
3743.99
3596.37
3447.68
3306.83
3177.93
3062.23
2962.16
2879.13
2813.47
2764.57
2730.85
2710
2699.06
2695.3
2696.56
2701.68
2710.03
2720.98
2733.91
2748.43
2763.99
2779.91
2795.79
2811.12
2825.25
2837.63
2847.75
2855.16
2859.24
2859.5
2855.43
2846.5
2832.28
2812.54
2786.89
2755.07
2717.02
2673.03
2623.58
2569.48
2512.28
2453.93
2396.64
2342.99
2295.29
2254.94
2222.48
2197.5
2178.64
2163.88
2152.74
2144.33
2137.58
2131.09
2123.48
2113.8
2102.9
2093.62
2091.85
2095.77
2534.16
2288.55
2051.12
1838.61
1657.62
1500.24
1363.51
1246.98
1147.99
1066.01
999.358
948.152
910.738
884.159
865.865
853.389
845.09
840.063
837.688
837.491
839.092
842.134
846.313
851.337
856.935
862.862
868.895
874.871
880.577
885.824
890.42
894.153
896.91
898.753
900.142
900.355
898.602
894.304
887.121
876.631
862.328
843.503
819.8
791.147
758.098
721.761
683.736
646.051
610.878
580.496
556.249
536.121
518.924
503.865
489.786
475.717
461.799
450.69
444.838
438.732
428.026
2123.04
2068.65
1907.71
1687.42
1478.32
1287.4
1113.47
969.084
847.213
745.824
664.321
600.412
552.919
518.054
492.306
473.392
459.452
449.216
441.909
437.021
434.121
432.826
432.785
433.668
435.188
437.102
439.229
441.423
443.556
445.496
447.128
448.362
449.126
449.362
449.053
448.003
446.098
443.06
438.237
431.112
421.477
408.98
393.408
374.762
353.408
329.995
305.481
280.96
257.959
237.709
221.141
208.475
199.561
193.658
190.103
188.734
188.889
190.903
194.308
198.202
202.4
1445.93
1587.52
1663.89
1643.03
1534.68
1374.89
1180.24
1009.19
858.457
726.806
621.589
538.342
474.351
426.378
390.465
363.448
343.018
327.373
315.481
306.696
300.456
296.256
293.639
292.171
291.492
291.315
291.444
291.723
292.029
292.244
292.273
292.052
291.518
290.599
289.198
287.185
284.434
280.768
275.965
269.865
262.186
252.703
241.359
228.263
213.677
198.039
181.929
166.061
151.247
138.26
127.746
120.148
115.57
113.846
114.573
117.395
121.9
127.785
134.714
142.503
151.441
879.597
1021.55
1166.87
1287.62
1354.48
1350.76
1275.35
1148.77
999.583
839.355
705.85
594.558
504.174
435.182
382.558
342.648
312.374
288.952
270.863
257.175
247.06
239.789
234.704
231.197
228.769
227.051
225.795
224.823
223.998
223.188
222.299
221.268
220.041
218.54
216.681
214.361
211.476
207.911
203.539
198.258
191.95
184.563
176.13
166.635
156.271
145.339
134.222
123.362
113.257
104.433
97.3746
92.498
90.0569
90.096
92.454
96.8378
102.906
110.33
118.862
128.435
139.163
532.903
624.387
733.265
854.262
974.294
1074.11
1132.28
1133.47
1077.54
975.677
850.891
722.527
602.477
507.888
432.344
372.948
327.221
291.735
264.317
243.536
228.092
216.851
208.796
202.991
198.721
195.471
192.917
190.839
189.068
187.437
185.838
184.211
182.497
180.625
178.513
176.078
173.241
169.918
166.042
161.537
156.359
150.473
143.907
136.712
128.994
120.953
112.846
104.981
97.6951
91.3646
86.3818
83.1252
81.9003
82.8746
86.039
91.2038
98.0848
106.37
115.831
126.354
137.933
334.064
388.349
455.331
536.37
630.466
732.568
831.871
912.765
959.113
959.565
913.529
831.593
730.124
625.878
528.7
445.124
379.218
326.237
284.716
253.199
229.915
213.081
201.041
192.281
185.725
180.647
176.597
173.302
170.533
168.061
165.755
163.54
161.366
159.144
156.805
154.269
151.473
148.361
144.878
140.987
136.646
131.845
126.594
120.942
114.975
108.825
102.686
96.772
91.3374
86.6696
83.0903
80.9501
80.5652
82.1691
85.849
91.5062
98.9035
107.744
117.802
128.908
140.983
218.318
250.567
290.542
339.912
400.153
471.621
552.624
637.699
717.89
780.541
813.704
810.715
773.958
710.207
630.679
545.246
463.46
389.626
329.795
283.441
248.911
224.183
206.613
193.788
184.137
176.634
170.634
165.812
161.835
158.36
155.228
152.314
149.605
146.968
144.345
141.637
138.822
135.81
132.614
129.151
125.433
121.405
117.119
112.56
107.818
102.974
98.1988
93.6319
89.4988
86.0013
83.431
82.0909
82.3171
84.3609
88.3836
94.355
102.092
111.292
121.75
133.21
145.565
148.848
168.22
192.189
222.041
258.955
304.087
358.024
420.333
488.338
557.394
618.151
663.642
687.243
686.393
659.681
609.761
543.363
467.981
397.439
334.132
284.494
249.562
224.759
206.475
192.367
181.453
172.678
165.797
160.231
155.453
151.283
147.414
144.044
140.841
137.839
134.832
131.909
128.859
125.829
122.63
119.376
115.883
112.359
108.587
104.752
100.816
97.045
93.4207
90.2619
87.599
85.7841
85.0164
85.6367
87.9429
92.0822
98.1803
106.034
115.435
126.072
137.722
150.098
0.373882
111.487
99.6754
6.67414
0.51697
0.121979
0.000744409
275.961
0.000756426
0.0143766
177.482
5.08038
0.00074404
164.077
0.0975266
97.7565
0.00075276
257.377
197.597
0.000751516
5.8347
159.813
98.7206
0.000783945
0.000750215
0.246117
0.000750845
25.8214
0.000749812
0.00075805
2.18634
0.000770598
0.00968721
133.371
2.83965
203.06
182.979
14.0101
0.000739692
47.7945
76.5201
9.93824
0.000739474
70.4407
218.174
0.524406
0.000744469
0.00329674
2.23842
5.3927
267.421
257.16
0.000737124
0.000796709
0.207769
0.0020261
0.000757352
15.1338
167.068
187.115
317.316
0.000817658
0.998518
0.0118069
126.658
0.140432
147.447
269.974
0.00129535
0.000746605
15.3924
37.8537
67.6345
0.00132408
0.109306
118.409
132.261
45.6084
0.000734541
4.01841
0.00152727
52.6211
0.00991599
84.6149
0.000748911
8.02429
0.000754992
108.632
0.0262874
0.00101061
0.106472
0.000734209
0.000805103
207.339
90.499
0.000778109
1.24999
0.658525
0.00195264
153.798
0.0619048
56.7969
6.60065
0.000733815
0.000736045
0.00073603
1.72097
0.18928
0.000764989
122.683
168.043
0.0100804
229.471
96.2588
331.073
117.342
124.212
0.00107308
0.0633813
0.000778888
0.000740725
225.472
0.00230394
225.3
292.721
165.959
0.000740983
4.23992
4.28547
0.000739863
0.0351207
0.0126531
163.729
0.000916659
118.614
0.000744961
0.000735343
295.725
241.874
0.000738672
0.315962
99.3324
0.307368
0.853832
88.7877
143.011
0.475788
92.2763
0.00408325
155.059
21.8689
0.00383505
44.9468
82.7718
129.955
0.000742058
0.000739153
0.294801
0.000738346
154.786
0.064999
0.0014768
0.000745947
0.000741268
0.000758141
30.3975
274.099
41.6863
0.000830109
176.203
275.435
481.321
181.322
0.0100301
192.083
132.095
114.855
0.000737201
0.00131714
332.259
147.501
10.1726
40.0174
0.000740539
0.000767163
220.964
0.0144545
2.09605
0.000756579
0.000742415
0.1706
0.000817312
212.714
2.12199
0.000736585
0.375594
218.194
66.3028
0.00128062
171.231
0.000741761
0.000740068
89.084
19.7061
176.4
0.00130641
0.000756189
0.00565167
24.2382
192.487
9.68328
61.1092
27.8465
177.382
1.53084
60.9729
52.377
8.88366
8.10957
110.19
0.000826342
0.0241406
0.000738857
0.000757722
122.585
0.00497791
0.00582335
0.00115534
0.00936988
42.8846
186.493
0.0138687
87.3374
4.62773
14.8366
0.000738391
0.145287
25.3413
4.36095
0.00119531
25.9968
191.435
1.87846
4.47505
212.276
9.09685
9.35342
87.3922
0.000952999
0.000737379
0.000869795
0.00516213
111.023
0.000746493
0.00163709
0.00073847
1.88393
80.9142
120.71
126.615
23.142
8.11892
241.351
0.00131506
162.208
131.921
0.00073943
165.461
0.000748465
382.982
1.88582
140.497
0.00122554
0.000743772
16.6164
24.8672
0.000759333
0.000738616
0.000742765
0.000753915
1.0163
43.184
28.9135
0.026621
0.000760196
0.00073678
0.000734149
77.2669
0.281349
0.000951834
9.20778
0.0969379
0.294285
0.000735186
0.799743
0.000760029
0.0557897
62.9412
255.322
5.39715
0.000768992
0.00109129
46.3023
0.128204
200.007
245.579
0.000804296
0.000739356
0.000738867
117.244
0.000745937
158.84
0.000746101
10.7398
22.665
0.041696
198.095
322.417
0.000995637
130.037
61.2337
120.438
104.522
29.8918
237.104
114.24
83.3221
231.968
64.9118
67.9285
0.177095
239.243
215.698
140.052
106.092
0.00119404
151.67
190.779
180.412
0.0149796
0.000797477
0.000740389
0.000765097
1.23834
1.26987
2.54059
0.0715701
0.000741713
117.892
0.000741353
97.3759
12.8754
145.019
16.6751
11.4532
0.00101288
0.000880996
1.28564
146.404
0.00204429
10.9757
226.465
135.676
64.734
94.1686
87.0158
0.000759885
221.209
89.5231
118.917
0.000740446
123.223
101.171
0.000751159
102.095
0.000741211
284.519
92.5117
100.012
57.3528
184.612
103.149
0.000779469
104.644
0.000838725
123.452
64.8091
112.927
218.012
2.19513
0.437293
2.4035
0.000874042
527.716
0.873152
0.00257918
0.00193561
249.134
0.000837359
71.8118
0.000743798
0.000743157
0.00206636
34.8974
0.0819965
12.0612
0.00108218
57.9682
0.188798
124.331
386.14
22.9061
254.676
0.000837423
219.26
31.8964
0.000736955
62.7086
14.6554
0.000736138
0.000736611
208.711
0.00268919
8.59912
1.44215
154.769
0.0140827
1.69033
22.8583
50.0952
19.736
29.2733
42.9182
0.0011801
0.073499
129.631
6.65301
257.39
245.652
65.2259
0.0387979
82.7328
81.976
4.14272
168.434
26.172
14.8629
0.000920881
65.4966
270.158
0.000959241
129.632
14.7164
26.5267
0.0084189
0.0396084
182.267
0.00100052
253.634
0.000960116
3.87593
0.000744391
7.52394
256.304
0.462664
0.000978758
0.00104888
139.407
90.0815
0.371124
24.9392
227.368
618.864
0.00153868
7.94474
91.7508
120.747
88.2995
534.399
111.995
87.9275
39.0715
2.27566
7.47206
236.81
63.1214
267.122
125.997
0.393199
215.299
119.534
0.000829635
207.381
103.964
25.0923
0.0148966
106.548
58.7671
2.20373
61.8767
0.00164237
0.000743478
0.00789457
54.4321
40.8653
182.662
0.000746808
0.000746562
0.00073726
97.9683
0.0619839
0.000739563
0.113321
72.5893
246.744
0.00228889
0.00246804
0.000736325
0.000743613
0.000991113
32.7273
125.852
6.54692
1.8203
190.701
302.967
0.00161887
20.8173
115.2
108.18
52.2215
317.104
0.000832718
0.00204516
0.000738369
491.985
0.372892
0.000736894
7.44418
0.186096
229.098
0.00075896
208.758
5.19057
0.0189043
149.857
0.000737062
0.00073817
0.000800366
287.273
40.5147
89.7821
280.113
24.413
127.671
0.000733713
0.00122381
1.14466
0.0394557
0.0119887
215.309
143.4
0.000739513
33.0098
163.182
123.644
288.35
0.00184599
294.141
0.00110066
0.0135131
185.978
0.000739644
108.983
0.000758713
0.000752155
0.0545453
106.448
2.41013
380.346
72.5749
0.00077069
109.234
561.786
0.141177
4.72264
12.9326
0.000746012
0.000741155
0.00223993
102.177
9.21105
0.000846163
179.767
207.028
158.243
0.00993067
178.167
0.00132476
19.2957
0.14681
0.0668643
227.203
136.082
197.293
127.857
0.000770898
0.000733787
0.00185172
115.227
58.1491
3.67882
0.00346733
0.00074188
0.000737292
0.00160339
0.00111214
0.00140183
189.343
31.5198
0.00608136
89.4004
117.774
0.000755154
118.818
0.000746387
1.2117
0.000762433
0.0107674
11.6268
0.00863252
0.000744133
2.46915
241.853
147.562
0.000747254
0.000737215
0.830439
0.00173766
0.000743761
38.1368
0.000798919
143.277
262.544
23.3403
165.836
352.079
215.617
260.945
0.000737188
0.00273932
0.0254719
371.744
110.874
124.787
21.1289
14.9564
136.394
203.133
63.6847
4.23715
15.6258
0.000747303
0.703371
126.624
26.188
366.837
8.78943
0.29301
37.5288
0.248032
0.0076617
124.742
0.000738061
88.1681
0.000769295
4.32114
229.674
314.011
1.55234
0.00205422
8.63087
0.000743053
0.000738136
0.0837956
0.00711524
139.381
0.00325761
104.46
0.00074758
0.0103336
0.000736664
65.3528
0.00194833
129.51
361
0.00621986
203.951
241.227
0.000740382
124.519
223.62
0.000817636
225.619
0.586623
0.000930412
0.000741937
158.072
0.000737314
0.00088053
0.0620848
0.279093
307.725
206.31
0.000750656
0.000739256
21.0108
17.6539
0.00371432
4.18264
17.1676
0.000742392
0.000835052
0.000750243
124.209
212.442
4.33441
172.518
0.00869363
93.3066
0.000828256
0.00416042
0.00811917
0.0794711
0.000740612
183.683
0.000741128
0.0109973
0.000743472
0.521366
0.00638958
0.00225835
0.856784
5.71614
109.812
0.710681
9.02709
116.995
200.277
0.000791652
133.408
231.734
14.0592
51.5114
0.000765272
357.818
41.5922
0.000740126
280.758
181.654
0.0029289
0.000879279
122.902
128.751
0.981731
234.497
280.461
3.65957
304.002
164.422
106.773
168.841
6.53131
162.979
188.333
187.632
0.00635337
180.809
16.8759
454.02
0.000804902
1.82038
14.9634
176.305
108.313
0.00770788
527.656
150.859
38.3967
0.167399
4.35438
120.459
0.00113636
118.716
320.886
0.0330811
173.002
6.20341
63.0985
139.265
0.000740692
0.00174514
4.41267
5.9758
0.0311522
0.000744031
1.55933
3.91003
0.00106436
0.000758547
394.927
4.11703
28.0705
12.0283
0.00189191
0.000864602
1.38771
163.224
0.000772548
12.4103
104.057
1.42826
257.271
0.000902865
0.930703
0.000738694
0.0127359
61.5824
0.000737553
0.156115
145.284
75.1378
0.377275
83.8643
6.84891
6.60438
0.0009453
19.0524
211.427
0.00073911
0.000739147
104.261
0.00991743
0.000757955
46.4353
3.43375
193.238
112.893
48.9409
0.148584
14.0511
288.458
86.9049
241.963
0.00074839
221.89
0.000781428
58.0356
0.000883487
0.000908395
154.544
0.00277901
332.307
0.011967
0.0188874
53.0794
10.4857
0.596184
0.00080068
124.518
0.000797889
0.000736179
236.073
111.378
31.8505
101.423
0.000759661
0.000734136
14.3717
104.057
0.000734211
114.004
44.2237
0.000741253
130.374
0.000737397
7.29354
5.98973
7.93424
0.703842
100.141
39.0452
0.000737297
196.603
200.327
0.000737946
0.0342674
117.065
0.00073744
187.333
90.7272
472.325
0.000738475
0.000736619
231.471
0.273317
0.000829228
34.14
98.3503
254.958
0.000734691
0.000807491
0.0104814
0.0145736
0.000741585
0.00261886
94.4045
124.724
0.000740496
6.24771
0.00074301
17.8026
0.00120848
0.00079224
17.187
0.000737038
0.0919177
0.000737072
24.7088
1.2941
9.74641
142.901
433.316
181.317
2.96554
20.6167
0.000758182
3.49587
213.774
606.661
0.0898411
0.000777861
88.9121
0.000740893
0.0701264
0.000736269
318.968
31.5729
6.17177
125.945
57.8944
9.32053
55.5059
10.6958
175.941
97.0329
0.000747328
0.000798321
0.00142
0.00078
0.00702599
45.9383
0.000996672
152.804
0.00108749
2.34114
1.6416
128.7
0.00176814
24.0941
0.034284
20.5249
19.2827
317.605
0.000882199
0.00105459
1.01858
77.6907
264.288
49.9429
0.909073
10.0123
7.9678
0.0807922
2.77914
0.757207
137.645
0.00073931
441.79
0.879546
47.5012
0.000748823
45.4174
23.7466
0.000750388
120.183
12.835
0.0376326
0.000741605
0.000738977
181.87
43.7201
26.1282
0.000734395
0.0047906
168.105
144.421
3.12435
0.00300609
0.00073538
85.5746
86.9064
133.22
22.5808
0.000738071
135.205
314.341
0.000746281
0.000746899
22.387
0.000758276
0.00270012
0.363594
54.7757
0.00127661
125.475
259.939
0.000771835
0.000845974
0.000737404
0.000742971
45.4445
577.929
224.518
0.0135217
18.5816
154.535
0.137204
27.7111
0.000926753
141.317
0.48462
108.462
5.89627
104.066
153.167
0.00295394
0.000758508
117.069
124.202
260.944
3.45027
102.149
0.6346
7.89624
0.00294253
0.00101303
196.315
99.0727
0.0668294
2.20144
0.000743358
0.0519735
12.5573
0.0625633
17.2268
1.6629
483.786
109.567
1.64564
158.794
106.875
131.829
9.57189
211.604
278.78
3.31155
30.941
0.000899881
42.3519
36.6963
0.000742506
0.000737558
0.0907168
0.000739343
0.00081749
130.535
405.37
0.000742806
165.724
0.000739055
0.000738069
0.000734773
0.000788424
0.00161461
100.823
17.5052
192.656
0.00074439
0.000760987
3.89164
0.000778878
0.0318091
0.000762674
0.00075076
165.282
0.000874989
0.00241209
321.897
0.00332374
0.000745865
209.969
0.000740022
0.000746927
0.0473646
0.000777728
5.30531
0.00167809
0.00981931
0.000743683
0.000759048
227.593
300.338
21.2266
0.0406023
168.827
9.1392
0.00178494
97.625
378.703
184.67
537.968
0.000744661
8.22848
57.9252
0.15874
117.207
132.546
0.309086
103.659
0.00305653
123.161
0.523951
6.41525
0.000757007
136.69
0.000805966
126.263
20.2008
0.000744944
0.727315
0.00159843
0.109332
0.000743337
2.81922
0.000804814
0.00075726
114.729
0.000797684
0.101783
181.127
179.286
0.000872716
0.00105087
19.2812
195.349
0.000737707
0.000743949
0.688372
29.4359
113.495
0.00223705
9.65115
0.000739511
0.000767608
0.000735118
0.013959
43.6732
0.00573084
172.749
101.056
195.419
118.056
0.000774162
173.295
45.4432
0.000738829
0.000753931
0.000750896
0.000851988
0.000738597
146.251
0.000744296
0.000737606
245.008
0.610283
0.00170693
0.186295
145.616
7.48203
0.00678775
0.000785179
137.009
0.000762578
10.1006
0.000769115
0.000783776
113.591
87.2523
0.00169645
0.000950899
4.75421
0.000742498
259.544
0.000765842
86.8628
0.00795814
12.2636
0.0234454
6.22263
0.0336374
35.9376
0.000760509
0.00078537
0.0028048
26.5469
0.089294
231.556
0.000740254
0.00169708
0.00111904
194.004
61.5347
386.883
0.00242121
0.00565965
1.10888
0.000748384
13.754
34.2076
0.00454553
199.467
139.279
48.2971
0.00132157
0.816391
339.13
156.22
114.218
0.0103816
175.954
0.737975
78.0081
0.068495
1.34803
17.4526
0.000761884
106.018
0.000865381
0.00335452
0.00138266
0.0279459
0.000805475
9.34113
0.00074565
64.9845
0.11157
0.000753342
0.463494