/*--------------------------------*- C++ -*----------------------------------*\
| =========                 |                                                 |
| \\      /  F ield         | OpenFOAM: The Open Source CFD Toolbox           |
|  \\    /   O peration     | Version:  2.3.1                                 |
|   \\  /    A nd           | Web:      www.OpenFOAM.org                      |
|    \\/     M anipulation  |                                                 |
\*---------------------------------------------------------------------------*/
FoamFile
{
    version     2.0;
    format      ascii;
    class       volScalarField;
    location    "0.1";
    object      k;
}
// * * * * * * * * * * * * * * * * * * * * * * * * * * * * * * * * * * * * * //

dimensions      [0 2 -2 0 0 0 0];

internalField   nonuniform List<scalar> 
9648
(
2.45313
2.354
2.32803
2.29608
2.2607
2.22272
2.18277
2.14138
2.09919
2.05674
2.0146
1.97322
1.93308
1.89448
1.85772
1.82298
1.7904
1.76003
1.73194
1.70608
1.68243
1.66091
1.64146
1.624
1.60844
1.59469
1.58267
1.57228
1.56345
1.5561
1.55014
1.54552
1.54218
1.54007
1.53912
1.53931
1.5406
1.54296
1.54636
1.55079
1.55625
1.56273
1.57025
1.57878
1.58834
1.59896
1.61069
1.62357
1.6376
1.6528
1.66916
1.68668
1.70523
1.7246
1.74452
1.76464
1.78463
1.80418
1.8232
1.84167
1.85956
1.37704
1.38038
1.4019
1.42952
1.46389
1.50332
1.54692
1.59396
1.64378
1.69584
1.7496
1.80463
1.86052
1.91692
1.97353
2.03012
2.0865
2.1425
2.19802
2.253
2.30736
2.36106
2.41414
2.46657
2.51834
2.56952
2.62014
2.67025
2.71984
2.76893
2.81761
2.86586
2.91371
2.96123
3.00842
3.05528
3.10188
3.14826
3.19439
3.24022
3.28583
3.33129
3.37655
3.42156
3.4664
3.51094
3.55517
3.59904
3.64262
3.68573
3.72833
3.77043
3.81205
3.85282
3.89298
3.93233
3.9711
4.00873
4.04557
4.08169
4.11719
1.4278
1.4851
1.54938
1.62208
1.70139
1.78555
1.87307
1.96331
2.05524
2.14844
2.2419
2.33529
2.42806
2.51983
2.61024
2.69901
2.78597
2.87098
2.95394
3.03482
3.11357
3.19026
3.26487
3.33749
3.4082
3.47709
3.54426
3.60976
3.67369
3.73613
3.7971
3.85675
3.91516
3.97234
4.02835
4.0833
4.13719
4.1901
4.24203
4.29299
4.34303
4.39211
4.44032
4.48765
4.5341
4.57958
4.62412
4.66784
4.71061
4.75248
4.79337
4.83334
4.87254
4.91039
4.94774
4.98369
5.01894
5.05251
5.0856
5.11787
5.14949
1.63244
1.72051
1.81493
1.91663
2.02406
2.13548
2.2495
2.36506
2.48117
2.59722
2.7123
2.82592
2.93747
3.04671
3.15325
3.25683
3.35734
3.45469
3.54886
3.63985
3.72773
3.81251
3.89434
3.97333
4.04967
4.12347
4.19491
4.26409
4.33114
4.39613
4.45928
4.52067
4.58042
4.63863
4.69536
4.75073
4.80478
4.85759
4.90919
4.95963
5.00897
5.05728
5.10457
5.15093
5.19631
5.24076
5.28427
5.32686
5.36846
5.40907
5.4488
5.48734
5.52494
5.56143
5.59729
5.63206
5.66581
5.6985
5.73018
5.76087
5.79033
1.88881
1.9991
2.11649
2.24047
2.36923
2.50124
2.63503
2.76927
2.90312
3.03566
3.16608
3.29372
3.41819
3.53922
3.65643
3.76957
3.87853
3.98336
4.08404
4.18072
4.27344
4.3623
4.44745
4.52909
4.60745
4.68278
4.75521
4.82493
4.89202
4.95666
5.01902
5.07929
5.13764
5.19414
5.24885
5.30196
5.35353
5.40358
5.45218
5.4994
5.54531
5.59001
5.63357
5.67603
5.7174
5.7577
5.79692
5.8351
5.87226
5.90824
5.94318
5.977
6.00959
6.041
6.07141
6.10089
6.12919
6.15638
6.1824
6.20714
6.23061
2.15085
2.28021
2.4166
2.55883
2.70487
2.85316
3.00228
3.151
3.29823
3.44296
3.58441
3.72182
3.85502
3.98358
4.10749
4.22628
4.33979
4.44827
4.55172
4.65042
4.74451
4.83393
4.91906
4.99996
5.07714
5.15082
5.22125
5.28859
5.35285
5.41424
5.47308
5.52946
5.58375
5.63596
5.68613
5.73449
5.7812
5.82618
5.86954
5.91131
5.95156
5.99047
6.02816
6.06465
6.09993
6.13408
6.16718
6.199
6.22973
6.25926
6.28757
6.31466
6.3405
6.36494
6.38829
6.41052
6.43167
6.45164
6.47025
6.48738
6.50336
2.41
2.55507
2.70685
2.86372
3.02328
3.18445
3.34531
3.50479
3.66194
3.8152
3.9642
4.10786
4.24624
4.37904
4.50664
4.62792
4.74275
4.85183
4.95481
5.0526
5.14522
5.23234
5.31464
5.39194
5.46513
5.5346
5.60037
5.66304
5.72201
5.77776
5.83063
5.88071
5.92861
5.97432
6.01752
6.05886
6.09859
6.13634
6.17234
6.20662
6.23906
6.27009
6.29985
6.32841
6.35544
6.38136
6.40613
6.42971
6.4521
6.47319
6.493
6.51154
6.52869
6.54426
6.55846
6.57181
6.58412
6.59524
6.6047
6.61254
6.61922
2.65909
2.81657
2.98042
3.14874
3.31853
3.48902
3.65851
3.82559
3.98979
4.14831
4.30191
4.44816
4.58865
4.7222
4.85113
4.9722
5.08576
5.19275
5.29212
5.38594
5.47464
5.55655
5.6338
5.70435
5.77073
5.8331
5.89161
5.94722
5.99848
6.04611
6.09072
6.13174
6.17084
6.2075
6.2412
6.27306
6.3033
6.33111
6.35744
6.38176
6.40402
6.42445
6.4439
6.46196
6.4783
6.49379
6.50776
6.52074
6.53237
6.5428
6.55185
6.55969
6.56635
6.57089
6.57411
6.5767
6.5781
6.5791
6.57788
6.57453
6.57067
2.88937
3.05503
3.22837
3.40426
3.58236
3.75872
3.93373
4.10695
4.27489
4.43623
4.59163
4.73844
4.87752
5.00796
5.13599
5.25527
5.36583
5.46915
5.56397
5.65115
5.73268
5.80747
5.87639
5.93864
5.99515
6.04672
6.09547
6.14144
6.18217
6.21993
6.25345
6.28318
6.31105
6.33567
6.35649
6.3767
6.39336
6.40839
6.42253
6.43319
6.44156
6.44653
6.45315
6.45727
6.46043
6.46394
6.46335
6.46337
6.46024
6.45638
6.45034
6.44379
6.43724
6.42912
6.41989
6.4096
6.39657
6.38783
6.37426
6.35774
6.34238
1.87687
1.89364
1.91019
1.92668
1.94332
1.9598
1.97524
1.99046
2.00537
2.0203
2.0352
2.05073
2.06714
2.08468
2.1036
2.12427
2.14659
2.17015
2.19458
2.21989
2.24578
2.27224
2.29953
2.32723
2.35518
2.38351
2.41232
2.44159
2.4712
2.50122
2.53173
2.56265
2.59398
2.62587
2.65825
2.6911
2.72452
2.75856
2.7932
2.82836
2.86413
2.9006
2.93774
2.97552
3.01404
3.05315
3.09286
3.13329
3.17448
3.21631
3.25883
3.30209
3.3462
3.391
3.43675
3.48344
3.53137
3.5804
3.63092
3.68308
3.73704
4.15203
4.18495
4.21692
4.24798
4.27804
4.30702
4.33439
4.36114
4.38663
4.41179
4.4358
4.45908
4.48147
4.50296
4.52352
4.5431
4.56179
4.5795
4.59627
4.61211
4.62714
4.64144
4.65478
4.667
4.67807
4.688
4.6968
4.70438
4.7108
4.71603
4.72005
4.72289
4.72459
4.7251
4.72446
4.72272
4.7198
4.7158
4.71067
4.70441
4.69708
4.68867
4.67928
4.66882
4.65727
4.64457
4.6306
4.6154
4.59889
4.5811
4.56195
4.54138
4.51951
4.49591
4.47124
4.44496
4.41773
4.38924
4.36065
4.33207
4.30391
5.18
5.20982
5.23846
5.26609
5.29235
5.31733
5.3409
5.36321
5.38431
5.40487
5.42442
5.44304
5.46048
5.47696
5.49236
5.50668
5.51996
5.53217
5.5433
5.55335
5.56239
5.57039
5.5774
5.58346
5.58849
5.59247
5.59535
5.59712
5.59777
5.59725
5.5956
5.59273
5.58866
5.58344
5.57702
5.56943
5.56061
5.55058
5.53931
5.52682
5.51316
5.49839
5.48254
5.46562
5.44758
5.42835
5.40776
5.38577
5.36231
5.33737
5.31088
5.28262
5.25267
5.22085
5.18733
5.15181
5.11456
5.07592
5.03656
4.99682
4.95719
5.81889
5.84637
5.87285
5.89802
5.92185
5.94451
5.96579
5.98565
6.00439
6.02198
6.0383
6.05336
6.06726
6.08007
6.09168
6.10217
6.11151
6.11966
6.12661
6.13236
6.13695
6.14042
6.14281
6.14418
6.14449
6.14372
6.14182
6.1388
6.13467
6.12941
6.12298
6.11531
6.1064
6.09628
6.08499
6.07249
6.05872
6.04365
6.02722
6.00951
5.9906
5.97055
5.94952
5.92754
5.90464
5.88074
5.8556
5.82919
5.80141
5.77229
5.74164
5.70931
5.67531
5.63949
5.60178
5.56191
5.52009
5.47666
5.43232
5.38736
5.34256
6.25277
6.27367
6.29315
6.31126
6.32825
6.34436
6.3595
6.3735
6.38622
6.39773
6.40803
6.41717
6.42519
6.43202
6.43772
6.44234
6.44578
6.44802
6.44901
6.44873
6.4473
6.44481
6.44135
6.43699
6.43165
6.4253
6.41794
6.40957
6.40028
6.39007
6.37888
6.36654
6.35306
6.33844
6.32281
6.30607
6.28811
6.26887
6.24823
6.22625
6.20305
6.17872
6.1535
6.12758
6.10103
6.07385
6.04561
6.01638
5.98603
5.95471
5.92199
5.88766
5.85186
5.8143
5.77487
5.733
5.68913
5.64331
5.59648
5.54881
5.50121
6.51802
6.53142
6.54342
6.55413
6.5634
6.57159
6.57881
6.58505
6.59009
6.5939
6.59661
6.59828
6.59883
6.59819
6.5964
6.59364
6.58986
6.58487
6.57854
6.57082
6.56191
6.55199
6.54122
6.52976
6.51744
6.50418
6.49002
6.47496
6.45927
6.44304
6.42627
6.40854
6.38992
6.37031
6.35003
6.32881
6.30643
6.28289
6.25794
6.23162
6.20406
6.17526
6.14563
6.11553
6.08519
6.05483
6.02358
5.99188
5.95935
5.92661
5.89272
5.85718
5.82059
5.78233
5.74252
5.69984
5.65522
5.60823
5.56057
5.51167
5.46272
6.6247
6.6289
6.63172
6.63306
6.63315
6.63218
6.63036
6.62781
6.6241
6.619
6.61297
6.60611
6.59824
6.58916
6.5788
6.56775
6.55605
6.5432
6.52894
6.51292
6.4956
6.47738
6.45836
6.43895
6.41888
6.39788
6.37605
6.35313
6.32992
6.30668
6.28387
6.26029
6.23647
6.21184
6.18726
6.16202
6.13538
6.10774
6.07882
6.04861
6.0171
5.98402
5.95
5.91565
5.88131
5.84802
5.81356
5.77962
5.74499
5.71176
5.67784
5.64182
5.60538
5.56734
5.52844
5.4856
5.44148
5.39427
5.34749
5.29878
5.25026
6.56545
6.55927
6.55156
6.54266
6.53268
6.52211
6.51065
6.49929
6.48703
6.47283
6.45784
6.44259
6.42647
6.40915
6.38968
6.36985
6.35051
6.3304
6.30912
6.28493
6.25884
6.23249
6.20507
6.17735
6.14962
6.12096
6.09169
6.06006
6.02795
5.9964
5.96738
5.9375
5.90893
5.87969
5.85234
5.82503
5.79496
5.7632
5.73094
5.69839
5.66416
5.62765
5.58992
5.55166
5.51333
5.47794
5.43996
5.40411
5.36701
5.33453
5.30239
5.26659
5.23133
5.19452
5.1581
5.11546
5.073
5.02615
4.98225
4.9354
4.88974
6.32446
6.30675
6.28658
6.26712
6.24587
6.22714
6.20613
6.18678
6.16752
6.14711
6.12565
6.10407
6.08194
6.05974
6.03165
6.00189
5.9751
5.94981
5.92657
5.89816
5.86273
5.83078
5.79712
5.76139
5.72608
5.69081
5.65841
5.62004
5.577
5.53511
5.49994
5.46234
5.42913
5.39525
5.36929
5.34473
5.3141
5.27761
5.24226
5.2099
5.17667
5.13859
5.09786
5.05737
5.01589
4.98038
4.93777
4.90052
4.85901
4.8298
4.80183
4.76645
4.73389
4.70044
4.66876
4.62614
4.58621
4.53946
4.50049
4.45731
4.41769
3.79282
3.85021
3.90919
3.96953
4.03091
4.09316
4.1561
4.22023
4.28473
4.34986
4.4184
4.50496
4.582
4.65933
4.73774
4.81711
4.89758
4.9791
5.06154
5.14483
5.22885
5.31352
5.39868
5.48421
5.56984
5.65532
5.74052
5.82526
5.90929
5.99225
6.07402
6.15427
6.23253
6.30859
6.38207
6.4525
6.51826
6.57523
6.61775
6.64739
6.66464
6.66946
6.66136
6.63936
6.60225
6.54845
6.47598
6.38244
6.26505
6.12061
5.94532
5.73472
5.48379
5.18581
4.81029
4.23723
3.98634
3.87172
3.83989
3.83432
3.79291
4.27618
4.24935
4.22296
4.1967
4.16976
4.14204
4.11314
4.0854
4.05098
4.01312
3.97806
3.93843
3.90351
3.8699
3.83687
3.8042
3.77143
3.73833
3.70479
3.67085
3.63652
3.60169
3.56644
3.53083
3.49491
3.4588
3.42258
3.38642
3.35044
3.31476
3.27956
3.24502
3.21131
3.17869
3.14745
3.11804
3.09093
3.06695
3.0474
3.02982
3.01441
3.00144
2.99145
2.98505
2.9832
2.98681
2.99689
3.01472
3.04164
3.0788
3.12725
3.18791
3.26189
3.35102
3.44361
3.58421
3.77184
4.06378
4.48156
5.03037
5.30846
4.91817
4.88012
4.84273
4.80533
4.76686
4.72678
4.68479
4.63917
4.58469
4.53117
4.48077
4.43198
4.3862
4.34148
4.29655
4.25094
4.20426
4.15658
4.10792
4.0584
4.00803
3.95665
3.9043
3.85104
3.79691
3.74204
3.68649
3.63036
3.57368
3.51652
3.4589
3.40087
3.34246
3.28372
3.22473
3.16557
3.10634
3.0472
2.98834
2.92968
2.8709
2.81269
2.75565
2.70005
2.64636
2.59532
2.54795
2.50565
2.47022
2.44402
2.43001
2.43194
2.45472
2.50383
2.58161
2.69992
2.8636
3.1064
3.4772
4.0389
4.67861
5.29843
5.25581
5.21422
5.17291
5.13032
5.08593
5.03906
4.98562
4.92574
4.86873
4.81462
4.76342
4.71521
4.66853
4.6216
4.57369
4.52431
4.47376
4.42216
4.36972
4.31642
4.262
4.2066
4.15035
4.09327
4.03552
3.97717
3.91831
3.85891
3.79898
3.73851
3.67753
3.61603
3.55404
3.49159
3.42874
3.3655
3.30189
3.23793
3.17359
3.10877
3.04273
2.97573
2.90823
2.84031
2.77217
2.70414
2.63677
2.5709
2.50775
2.44898
2.397
2.35505
2.32722
2.31744
2.33217
2.38004
2.47999
2.66371
2.97978
3.4465
5.45402
5.40877
5.36494
5.32178
5.2769
5.23018
5.18067
5.12451
5.0641
5.00725
4.95248
4.90083
4.85214
4.80545
4.75857
4.71064
4.66086
4.60998
4.5581
4.50554
4.45216
4.3975
4.34194
4.28571
4.22877
4.17139
4.11359
4.05542
3.99678
3.93766
3.87802
3.8179
3.75731
3.69632
3.63495
3.57329
3.51138
3.44925
3.38688
3.32431
3.26151
3.19837
3.13428
3.06924
3.00333
2.93656
2.86903
2.80081
2.73211
2.66331
2.59487
2.52753
2.46241
2.40099
2.34515
2.29834
2.26715
2.26308
2.30401
2.41738
2.63341
5.41345
5.36672
5.32175
5.27796
5.2316
5.18369
5.13298
5.07744
5.01948
4.96551
4.91207
4.86156
4.81371
4.76846
4.72282
4.67619
4.62721
4.57753
4.52696
4.47603
4.42438
4.37107
4.31721
4.26312
4.20849
4.15381
4.09883
4.04374
3.98812
3.93207
3.87545
3.81846
3.76107
3.70347
3.64566
3.58778
3.52986
3.47198
3.41411
3.35634
3.29866
3.24113
3.1836
3.12561
3.06678
3.00716
2.94676
2.88565
2.82385
2.76141
2.69841
2.63486
2.57077
2.5062
2.44119
2.3767
2.3157
2.26415
2.23173
2.23303
2.28798
5.19956
5.15237
5.10721
5.06429
5.01696
4.96892
4.91818
4.86581
4.81253
4.76397
4.71298
4.66476
4.61854
4.57609
4.53254
4.48833
4.44071
4.39341
4.34525
4.29718
4.24855
4.19749
4.1468
4.09686
4.04643
3.99647
3.94612
3.89605
3.84508
3.79372
3.74155
3.68934
3.63682
3.58449
3.53209
3.48
3.42806
3.37649
3.3252
3.27441
3.22409
3.17442
3.12535
3.07677
3.02801
2.97858
2.92855
2.87794
2.82682
2.77525
2.72321
2.6706
2.61717
2.56247
2.50589
2.447
2.38624
2.32579
2.26998
2.226
2.20467
4.8383
4.79147
4.74728
4.70717
4.65966
4.6126
4.56254
4.51526
4.46857
4.42784
4.37976
4.33427
4.28964
4.25126
4.21006
4.16908
4.1227
4.0787
4.03359
3.98891
3.94406
3.89534
3.84893
3.80554
3.7609
3.71715
3.67238
3.6288
3.58308
3.53714
3.48973
3.44331
3.3966
3.35101
3.3053
3.26048
3.21564
3.1717
3.12833
3.08619
3.04488
3.00487
2.9661
2.92826
2.89136
2.85401
2.8162
2.77786
2.73928
2.70057
2.66196
2.6233
2.5844
2.54464
2.5033
2.4595
2.41263
2.36276
2.31114
2.2606
2.21615
4.36661
4.32019
4.27888
4.24355
4.19729
4.15162
4.10214
4.06178
4.0236
3.99269
3.94728
3.90391
3.85936
3.82677
3.78737
3.7503
3.70441
3.6649
3.62284
3.58076
3.53994
3.49259
3.45169
3.41894
3.38083
3.34287
3.30312
3.26719
3.22547
3.1843
3.13979
3.1001
3.05935
3.02168
2.98297
2.94609
2.90746
2.87118
2.83632
2.80382
2.77285
2.74347
2.71633
2.69025
2.66413
2.63925
2.61363
2.58688
2.56108
2.53516
2.51163
2.48862
2.46692
2.44469
2.42178
2.39693
2.36942
2.3383
2.30375
2.2659
2.22646
3.71206
3.62187
3.5259
3.42818
3.33437
3.24708
3.16768
3.09831
3.04021
2.99384
2.95898
2.93493
2.92002
2.91208
2.90932
2.91029
2.91403
2.92001
2.9278
2.93708
2.94745
2.95856
2.96997
2.9813
2.99215
3.00218
3.01098
3.01822
3.02346
3.02635
3.02655
3.02368
3.01736
3.00733
2.9933
2.97508
2.95243
2.92526
2.8936
2.8578
2.81848
2.77664
2.73361
2.69116
2.65106
2.6151
2.58451
2.55987
2.54084
2.5263
2.51494
2.50656
2.5002
2.4951
2.49018
2.48449
2.47725
2.46902
2.4625
2.46106
2.46077
5.26936
5.15348
4.97994
4.76871
4.55079
4.333
4.11448
3.90458
3.70874
3.53146
3.37483
3.24128
3.13555
3.05711
2.9997
2.95681
2.92491
2.90253
2.88926
2.88464
2.88784
2.89768
2.91262
2.93114
2.95181
2.97347
2.99513
3.01594
3.03497
3.05138
3.06427
3.07271
3.0756
3.07195
3.06106
3.04349
3.01871
2.98577
2.94319
2.88958
2.82337
2.74296
2.6468
2.53474
2.40876
2.27276
2.13285
1.99695
1.87312
1.7673
1.68161
1.6151
1.56458
1.52569
1.4939
1.46497
1.43628
1.40837
1.38399
1.36598
1.36263
5.18349
5.51512
5.65407
5.58193
5.39765
5.16961
4.90329
4.63164
4.36495
4.11239
3.8834
3.68409
3.51859
3.38991
3.29239
3.21812
3.16164
3.11957
3.09077
3.07474
3.07053
3.07656
3.0907
3.11053
3.13378
3.15858
3.18345
3.20715
3.22853
3.24648
3.26014
3.26855
3.27077
3.26576
3.25276
3.23088
3.19901
3.15631
3.10197
3.03473
2.95319
2.85605
2.74211
2.6109
2.4632
2.30127
2.12945
1.95416
1.78432
1.6301
1.50079
1.40206
1.33475
1.29516
1.27732
1.27477
1.2816
1.29381
1.30977
1.33263
1.37163
4.01887
4.63462
5.20251
5.59551
5.76442
5.75593
5.59324
5.34144
5.05586
4.75312
4.46645
4.20842
3.98762
3.80607
3.66194
3.55128
3.46667
3.40222
3.35575
3.32656
3.31338
3.3143
3.32659
3.34702
3.37245
3.40031
3.42864
3.45587
3.48056
3.50139
3.5173
3.52744
3.53082
3.52642
3.51309
3.48974
3.45539
3.4091
3.34987
3.27616
3.18695
3.08131
2.95897
2.81959
2.66355
2.49255
2.30976
2.12038
1.93167
1.75307
1.5954
1.46873
1.37945
1.3283
1.31067
1.31902
1.34542
1.38323
1.42863
1.48272
1.55073
2.97178
3.43993
4.01772
4.63219
5.18305
5.59042
5.80741
5.81756
5.67772
5.41877
5.11883
4.81726
4.53543
4.294
4.09402
3.93385
3.81037
3.71475
3.64341
3.59535
3.56875
3.56118
3.56922
3.58857
3.61503
3.64523
3.67667
3.70748
3.73591
3.76029
3.77943
3.79241
3.79832
3.79598
3.78422
3.76186
3.72779
3.68109
3.62064
3.54549
3.45447
3.34679
3.22176
3.07987
2.92144
2.7477
2.56126
2.36617
2.16854
1.97662
1.80091
1.65297
1.54287
1.47599
1.45099
1.46098
1.49689
1.55052
1.61674
1.69466
1.78601
2.41937
2.65138
3.00276
3.47378
4.03411
4.62399
5.1619
5.56018
5.77419
5.79846
5.66053
5.42071
5.12739
4.84639
4.59506
4.3809
4.20558
4.06575
3.95807
3.88188
3.83478
3.81354
3.81381
3.82959
3.85531
3.88652
3.92015
3.95395
3.98587
4.01373
4.03619
4.05227
4.06108
4.06141
4.05194
4.03147
3.999
3.95343
3.89409
3.81971
3.72955
3.62239
3.49791
3.35576
3.19703
3.02257
2.83458
2.63646
2.4334
2.23258
2.04383
1.87897
1.75025
1.66674
1.63091
1.63775
1.67808
1.74247
1.8243
1.9204
2.0302
2.22077
2.29308
2.44316
2.69128
3.04949
3.5138
4.05448
4.6119
5.11085
5.47971
5.67292
5.69278
5.57474
5.36786
5.12281
4.87576
4.65711
4.46894
4.31423
4.19794
4.12059
4.07847
4.06618
4.07503
4.09745
4.12774
4.16193
4.19771
4.23245
4.26331
4.28874
4.30758
4.31924
4.32212
4.31511
4.29686
4.26644
4.22294
4.16557
4.09347
4.00535
3.90036
3.77786
3.63758
3.47999
3.30599
3.1179
2.91835
2.712
2.505
2.30636
2.12773
1.98238
1.88231
1.83358
1.83405
1.87509
1.94633
2.03963
2.14987
2.27453
2.18558
2.17999
2.21418
2.30597
2.4744
2.73548
3.09665
3.54704
4.05499
4.56391
5.00667
5.32854
5.50881
5.54678
5.47192
5.31521
5.11555
4.90325
4.7083
4.54889
4.43462
4.36584
4.3364
4.33401
4.34959
4.37609
4.40839
4.44449
4.48106
4.514
4.54181
4.5625
4.57652
4.58161
4.5769
4.56062
4.5327
4.49107
4.43676
4.36715
4.28246
4.18033
4.06153
3.9242
3.76902
3.59629
3.40912
3.20888
3.0006
2.78867
2.58201
2.3911
2.23021
2.11333
2.04986
2.04087
2.07914
2.15365
2.25496
2.37571
2.51197
2.18881
2.15839
2.1437
2.15582
2.2091
2.31974
2.50372
2.7722
3.12559
3.55062
4.00777
4.45696
4.85479
5.16697
5.36628
5.44524
5.40641
5.27369
5.1073
4.92585
4.77532
4.67938
4.63283
4.61848
4.62239
4.64144
4.66742
4.7016
4.73838
4.77188
4.80167
4.8218
4.83788
4.84404
4.84151
4.82632
4.80134
4.76069
4.71002
4.64293
4.56307
4.46376
4.35124
4.21751
4.0659
3.89399
3.70921
3.50783
3.29912
3.08239
2.86933
2.66684
2.48998
2.35576
2.27431
2.25241
2.28304
2.35733
2.4621
2.58995
2.73332
0.121174
4.26204
4.0349
0.393624
0.140657
0.0903199
0.00321402
8.05673
0.00324976
0.0228227
7.08206
0.870958
0.00321291
4.69137
0.0779117
4.29929
0.00323857
8.01142
7.27097
0.00323529
0.36384
4.61488
3.94343
0.0033315
0.00323116
0.109098
0.00323329
0.992165
0.00322964
0.00325478
0.30836
0.00328953
0.0172475
3.64683
0.62742
7.04466
6.08526
1.43435
0.0031998
2.52002
2.05249
0.99935
0.00319549
3.62076
3.75981
0.22674
0.00321369
0.00833162
0.382558
0.906849
5.46633
6.21117
0.00319215
0.00336781
0.0666028
0.00360596
0.0032527
0.908317
6.1209
5.61277
5.68894
0.00342994
0.113239
0.0196202
4.71546
0.0409706
5.6601
6.89037
0.00470378
0.00320955
2.82995
2.37856
1.89966
0.00338091
0.0577587
5.72457
4.74199
2.83385
0.00318433
0.763826
0.00527608
2.55739
0.0113513
3.98433
0.00321463
1.00654
0.00324543
4.21043
0.0245452
0.00396871
0.0738105
0.00318336
0.00339342
5.82403
3.98746
0.00331428
0.368907
0.128969
0.00621025
5.30196
0.0203193
5.64749
0.757861
0.00318209
0.00318783
0.00318885
0.319735
0.112757
0.00327542
4.76175
5.51066
0.0145522
4.58791
2.7876
8.14324
4.25883
5.26154
0.00413572
0.0599253
0.00330948
0.00319442
3.90955
0.00428752
6.1528
6.17804
4.43034
0.00319808
0.746588
0.761313
0.00319599
0.0373425
0.0205624
2.6044
0.0036351
4.39744
0.00320738
0.00318607
6.32776
6.09
0.00319495
0.0731062
4.23508
0.116214
0.28258
3.11675
7.15207
0.086305
3.55168
0.0101612
4.85976
3.48102
0.00414711
2.60422
3.935
4.84536
0.00320694
0.00319823
0.153819
0.00319565
5.49586
0.026807
0.00512612
0.00321165
0.0031992
0.00323541
2.34064
6.64717
1.74039
0.00346461
4.97836
4.61917
3.67068
7.84603
0.0173991
4.21225
2.98513
5.30381
0.00319198
0.00475973
5.08287
6.84704
1.01495
2.49379
0.00319812
0.00328187
4.72716
0.022645
0.501524
0.00323387
0.00320764
0.100334
0.00342915
5.78868
0.467992
0.00319041
0.178947
3.87859
3.17079
0.0046705
4.93166
0.00320093
0.0031989
5.24644
1.73791
5.15852
0.00473476
0.00324919
0.0116062
1.92043
4.87899
1.04846
3.07425
4.28578
5.65585
0.252325
3.39807
3.02353
0.917387
1.13045
4.33326
0.00342774
0.0322453
0.00319499
0.00325262
5.33666
0.0115038
0.0127991
0.00361159
0.0166204
2.5562
4.55023
0.0213748
3.75199
0.798882
1.97043
0.00319488
0.0725687
2.10686
0.757748
0.00445394
2.5422
4.97034
0.265505
0.812893
6.04692
0.84086
0.678021
4.05454
0.00381232
0.00319095
0.00357994
0.011744
4.5883
0.00322023
0.00394171
0.00319609
0.379062
5.3873
6.02877
6.3341
3.47278
1.14663
6.18255
0.00475294
5.61116
6.93365
0.00319451
3.05768
0.00321369
5.18948
0.377754
2.74952
0.0045302
0.0032048
1.64388
0.972243
0.00323807
0.00319528
0.00320779
0.00324228
0.321761
1.77765
2.25173
0.0245869
0.00323989
0.00319084
0.00318319
3.82822
0.0880219
0.00380998
1.04326
0.0762974
0.0745517
0.00318631
0.255486
0.00323935
0.0223932
1.68726
4.61189
0.833139
0.00328627
0.00417053
2.83173
0.0750893
2.64537
6.23019
0.00339097
0.00319417
0.00319616
4.71577
0.00321836
7.39178
0.0032097
1.10048
3.10898
0.0362994
3.69461
6.25106
0.00393001
6.43067
2.87595
1.94319
6.47194
4.39828
6.03574
5.6141
5.68608
7.00363
3.46555
1.8916
0.105118
6.11326
6.0498
6.72329
4.44288
0.00441612
4.79233
3.61243
5.70139
0.0235365
0.00337115
0.00319679
0.00327558
0.227036
0.367774
0.341827
0.0645836
0.00320586
4.65642
0.00319886
2.67045
1.32791
5.17711
1.33765
1.35015
0.00393994
0.00361192
0.155702
3.7626
0.00632024
0.861199
4.83819
5.87351
3.47016
3.82447
4.16336
0.00326023
6.11203
3.9577
1.94376
0.00320033
4.6477
4.27755
0.0032339
4.19922
0.00320274
5.60793
3.70779
4.37431
3.28032
3.44426
4.37147
0.00331828
4.41915
0.00349093
6.17355
3.41669
5.25249
6.08636
0.527099
0.193104
0.513981
0.00359198
5.31653
0.106402
0.00747067
0.00532786
4.51882
0.00348709
3.66227
0.00320653
0.0032092
0.00644209
1.88483
0.0613481
1.27284
0.00355281
3.29938
0.118785
4.58525
7.31529
1.90469
5.28306
0.00348729
6.1168
2.40602
0.00318983
3.35582
1.44653
0.00318919
0.00318921
6.9372
0.00769459
0.838862
0.163772
3.55018
0.0229579
0.393919
1.86164
2.69694
1.74345
1.89195
2.67948
0.00438301
0.0351089
5.02901
0.74526
6.3262
5.36751
3.13814
0.0399289
3.86281
3.84015
0.528574
2.71208
1.97378
1.45795
0.00371785
3.47641
6.20746
0.00382914
6.87779
1.57586
1.98899
0.0161415
0.0404192
4.88636
0.00390793
6.3012
0.00383256
0.390182
0.00321367
0.945421
3.25443
0.199578
0.00388104
0.00406792
3.73173
3.28909
0.10725
0.984669
5.09305
4.6556
0.00491425
1.11991
3.5072
4.34001
2.88172
5.09873
5.30661
3.78165
2.68356
0.535074
1.5609
6.23587
2.07811
6.31219
4.85289
0.087555
3.95543
4.17989
0.00346479
3.56917
2.93105
3.5841
0.0220015
6.39727
1.67302
0.478364
2.07962
0.00551429
0.00320344
0.00540461
5.68229
2.3373
6.1821
0.00321084
0.00322043
0.00319072
3.97558
0.0421713
0.00319531
0.076764
4.46182
4.77057
0.00685132
0.00718784
0.00318827
0.00321124
0.00388355
1.82413
1.95835
0.73678
0.434363
5.61263
5.18945
0.00548146
1.52352
5.14138
5.07569
3.12104
6.10383
0.00347371
0.00632761
0.00319483
4.8309
0.155622
0.00319089
1.09231
0.108784
6.12959
0.00323746
5.76114
0.833035
0.0219662
5.25097
0.00319122
0.00319276
0.00337847
6.22668
2.71425
4.07435
4.74559
2.45928
5.26213
0.00318168
0.00452577
0.147338
0.0161842
0.02034
2.2166
5.98286
0.00319673
1.47086
4.96684
4.71581
6.21843
0.00597683
6.23912
0.00419462
0.0220043
4.14939
0.00319643
4.5401
0.00323839
0.00323713
0.0369256
4.26486
0.545833
2.89175
2.05154
0.00329198
4.58652
5.44288
0.0439735
0.322227
2.27495
0.00321863
0.00320379
0.00676088
4.40438
0.707398
0.00351212
5.52887
5.02276
5.35626
0.00603136
4.97844
0.00477079
1.79775
0.0725681
0.05907
4.88324
5.0587
2.2579
4.88963
0.00329299
0.00318182
0.00573697
6.42072
3.09832
0.721716
0.00904242
0.0032064
0.00319217
0.00537243
0.0033106
0.00496543
4.95098
3.14485
0.0130314
3.06886
4.62221
0.00324584
5.95338
0.00321969
0.288731
0.00324468
0.0192563
1.04017
0.0163496
0.00320432
0.564296
6.02443
4.89044
0.00322252
0.00319238
0.267402
0.00349817
0.00320414
2.2449
0.00337549
5.04964
6.17236
2.0119
2.73717
2.78476
7.2433
6.33856
0.00319139
0.00782681
0.0243291
6.28121
2.06942
4.66567
3.38863
0.705032
6.89456
4.16348
3.16737
0.964109
1.28232
0.0032125
0.226468
2.97071
2.14457
5.18765
0.912524
0.0867367
2.34558
0.108756
0.00935202
3.0431
0.00319413
3.60749
0.0032879
0.470115
6.18826
4.5703
0.3795
0.00643827
0.814896
0.00320981
0.00319335
0.0621581
0.0147082
3.08208
0.00828014
4.3107
0.00321246
0.018545
0.0031904
3.4789
0.00544704
6.62978
2.87908
0.0128803
2.17442
5.75628
0.00320128
1.95127
4.51912
0.00343004
6.16245
0.0970201
0.00374366
0.00320649
5.0127
0.00319095
0.00361034
0.0561465
0.11065
5.86065
5.94957
0.00321853
0.00319855
3.61685
1.72243
0.00948445
0.794032
1.70143
0.00320132
0.0034806
0.00323056
4.83378
6.05663
0.535919
5.08525
0.0166788
3.09255
0.0034603
0.0102088
0.0159081
0.0498476
0.00320001
5.08538
0.00319775
0.0192708
0.0032112
0.142002
0.0131407
0.00367564
0.228447
0.692912
5.20273
0.200899
1.02347
5.17082
8.11881
0.00335404
4.1905
6.06673
1.16071
3.09276
0.00327622
6.9184
2.52021
0.00319709
5.90584
5.66951
0.00409419
0.00323505
4.808
4.82464
0.255332
6.13958
5.87249
0.698167
5.95408
5.28654
4.30252
5.03372
0.731973
4.60798
5.69653
5.58195
0.0130556
5.27047
1.41323
5.32609
0.0033929
0.344785
2.08146
5.64056
4.40325
0.0151107
5.24108
5.28865
1.34465
0.0596767
0.472418
5.25639
0.00430521
5.30979
5.80382
0.036039
5.59794
0.807943
3.4016
5.07298
0.00320146
0.00575093
0.774199
0.716962
0.0291879
0.00320511
0.25493
0.391379
0.00411454
0.00323604
7.31449
0.71792
2.03275
1.04837
0.00608228
0.00356488
0.352218
7.10422
0.00329775
1.31443
3.0676
0.401989
3.33578
0.0036733
0.173567
0.00319388
0.00646948
3.40252
0.00318966
0.104541
5.89332
3.37956
0.183558
3.61924
0.674393
1.18711
0.00379063
1.67952
5.7604
0.0031946
0.00319819
4.41513
0.0179281
0.00323477
2.82085
0.698084
2.10826
5.43334
1.67443
0.0919483
1.50252
5.57481
3.77029
4.47798
0.00322512
4.98938
0.0033232
4.70422
0.00361503
0.00331349
5.79732
0.00787298
5.76365
0.0202633
0.0279797
2.0052
0.840175
0.0934511
0.00338063
4.74243
0.00337245
0.00318925
6.04311
4.52181
2.38472
4.51527
0.00325957
0.00318308
1.54901
4.38868
0.00318327
4.29805
1.84664
0.00320311
4.93169
0.00319297
0.54777
0.858098
1.1153
0.226375
1.84363
4.57459
0.00319269
5.80136
5.42121
0.00319218
0.028143
5.44554
0.00319309
5.7903
3.74014
5.58793
0.00319349
0.00318986
3.93445
0.0725015
0.00346352
1.89374
1.90833
4.29742
0.0031842
0.00340051
0.0183946
0.0220811
0.0032001
0.00755558
4.22433
6.25982
0.00320028
0.841939
0.00320224
0.960003
0.00448905
0.00335588
1.68768
0.00319185
0.0534157
0.00319057
1.86202
0.156843
1.08156
5.15003
5.8837
4.17805
0.585918
2.22207
0.00323528
0.689444
6.0322
4.68193
0.0749343
0.00331335
4.05602
0.00319809
0.0287117
0.00318948
5.92956
1.15915
0.528468
4.71046
2.32738
0.676377
3.22885
0.842528
5.64185
4.02269
0.00322245
0.00337352
0.00494901
0.00331846
0.0145442
2.60483
0.00393086
5.10705
0.00416149
0.473197
0.403992
4.14585
0.0057734
1.92372
0.0283827
1.54697
1.81083
5.79625
0.00361167
0.00408588
0.265644
3.40504
6.46614
3.0539
0.269478
1.98488
0.904581
0.0571234
0.422755
0.19486
5.11599
0.00319869
5.34784
0.30507
2.78677
0.00322729
2.71904
1.20695
0.00320452
1.94629
1.4741
0.0390395
0.0032056
0.00319451
4.58509
2.59523
3.2361
0.00318357
0.0111976
5.26666
5.18054
0.70118
0.00815711
0.00318687
3.81756
3.97577
5.91437
1.97114
0.00319245
4.02391
6.09955
0.00320897
0.00321047
1.36379
0.00321547
0.00772028
0.0850185
2.09379
0.00465003
6.02424
6.28454
0.00329552
0.0035117
0.00319092
0.00320969
2.89018
5.43108
5.93938
0.0217834
1.62319
5.94163
0.0859913
2.1415
0.00373388
5.11026
0.203466
5.23339
0.702663
1.87465
3.91575
0.00385457
0.00323718
4.69974
6.79883
4.59096
0.666929
3.34336
0.181371
0.793095
0.00814466
0.00397713
4.07364
4.27158
0.0339681
0.402163
0.00320927
0.0510343
1.42357
0.0425342
1.15433
0.411124
4.80234
3.96721
0.409498
4.83038
4.48821
6.54018
1.21542
4.42666
6.02522
0.550021
2.30082
0.00328734
2.56682
2.53471
0.00320064
0.00319344
0.0524036
0.00319642
0.0034294
6.50946
7.01526
0.00320834
7.02457
0.00319454
0.00319272
0.00318479
0.00334452
0.00546456
4.19091
1.44976
5.83672
0.00321398
0.00321997
0.693496
0.00331654
0.0351287
0.00324542
0.00323266
4.36353
0.00359388
0.0071064
5.018
0.00883992
0.00320878
4.30752
0.00319665
0.00322055
0.0161892
0.00331313
1.15974
0.00556115
0.017155
0.00320329
0.00325772
6.10733
6.18153
1.68273
0.0357083
3.85077
1.11068
0.00579996
4.08847
5.78973
5.75605
5.46225
0.00321454
0.812521
2.55655
0.105685
4.80472
6.88199
0.156622
4.39757
0.00382343
4.95341
0.0994258
0.923613
0.00323308
4.86737
0.00339368
5.33642
1.84552
0.0032062
0.263606
0.00542999
0.0375566
0.00321078
0.619803
0.00339281
0.00325245
5.57951
0.00321272
0.0806486
5.71218
2.08413
0.00358785
0.00407594
1.79995
5.81031
0.00319382
0.00321148
0.131446
1.51585
4.6058
0.00681528
1.21643
0.00319705
0.00328311
0.00318526
0.0222002
1.37277
0.0123507
4.89801
3.47981
5.82797
4.63403
0.00330262
5.16088
2.88559
0.00319415
0.00322584
0.00321964
0.00352769
0.00319436
4.11222
0.00320447
0.00319301
5.4549
0.215017
0.00568246
0.0566895
3.26995
0.887576
0.00784364
0.00333504
5.03955
0.00324513
1.89838
0.00328771
0.00333098
4.57324
3.77791
0.00558732
0.00380334
0.605974
0.00320066
5.53748
0.00327799
3.8354
0.0106521
0.885967
0.0101107
0.530563
0.0121966
1.67049
0.00324154
0.00333565
0.00793238
1.88763
0.0579119
6.15414
0.00319732
0.00560677
0.00425445
5.81195
2.74808
4.23109
0.00719273
0.0120247
0.233692
0.00321465
1.00415
2.28468
0.010929
4.94993
5.08884
1.97852
0.00477087
0.276539
5.9846
5.26451
4.97042
0.0184192
3.92794
0.121936
3.62802
0.0570429
0.377248
1.45009
0.00324346
4.44689
0.00356451
0.00894031
0.00349661
0.0352369
0.00339476
1.1521
0.00321728
4.1789
0.0845283
0.00324036
0.123983
0.00323258
0.1997
0.0707348
6.17247
0.570999
6.52325
0.14909
0.00320714
0.00318395
0.655464
0.0510711
2.09396
5.82862
0.00321578
8.63728
2.01347
0.0159262
2.16509
0.675929
5.42847
3.82104
0.055397
0.00445921
5.94399
1.82198
4.84383
0.00320367
3.18337
0.00319785
4.11576