/*--------------------------------*- C++ -*----------------------------------*\
| =========                 |                                                 |
| \\      /  F ield         | OpenFOAM: The Open Source CFD Toolbox           |
|  \\    /   O peration     | Version:  2.3.1                                 |
|   \\  /    A nd           | Web:      www.OpenFOAM.org                      |
|    \\/     M anipulation  |                                                 |
\*---------------------------------------------------------------------------*/
FoamFile
{
    version     2.0;
    format      ascii;
    class       volScalarField;
    location    "0.1";
    object      nut;
}
// * * * * * * * * * * * * * * * * * * * * * * * * * * * * * * * * * * * * * //

dimensions      [0 2 -1 0 0 0 0];

internalField   nonuniform List<scalar> 
9648
(
0.000258326
0.000254597
0.00025316
0.000251432
0.000249509
0.000247391
0.000245147
0.000242812
0.000240417
0.000237974
0.000235515
0.000233089
0.000230711
0.000228385
0.000226151
0.000224029
0.000222023
0.000220125
0.000218352
0.000216715
0.000215204
0.000213817
0.000212564
0.000211428
0.000210406
0.000209499
0.000208707
0.000208023
0.000207436
0.000206948
0.000206549
0.000206238
0.000206009
0.000205865
0.000205794
0.000205802
0.000205888
0.000206048
0.00020627
0.000206559
0.000206924
0.000207356
0.000207853
0.000208418
0.000209037
0.000209723
0.000210484
0.000211328
0.000212244
0.00021322
0.000214264
0.000215393
0.000216573
0.000217794
0.000219048
0.00022032
0.000221571
0.00022276
0.000223914
0.000225053
0.000226177
0.000403071
0.000411074
0.000416058
0.000427657
0.000443685
0.000462848
0.000484545
0.000508777
0.000535304
0.00056402
0.000594602
0.000627046
0.000661117
0.000696553
0.000733134
0.000770763
0.000809251
0.000848329
0.000887815
0.000927677
0.000967698
0.00100777
0.00104787
0.00108783
0.00112752
0.0011669
0.001206
0.00124473
0.00128299
0.00132075
0.00135802
0.00139473
0.0014308
0.00146631
0.00150118
0.00153534
0.00156885
0.00160176
0.00163397
0.00166535
0.00169596
0.00172591
0.00175514
0.00178356
0.00181125
0.00183807
0.0018641
0.00188934
0.00191394
0.00193769
0.00196067
0.00198306
0.00200502
0.00202605
0.00204682
0.00206704
0.00208728
0.0021064
0.00212503
0.00214323
0.00216115
0.000875747
0.000901213
0.000932562
0.000974347
0.00102258
0.00107603
0.00113298
0.00119375
0.00125737
0.00132427
0.00139323
0.00146438
0.00153723
0.00161145
0.00168667
0.00176257
0.00183894
0.00191541
0.0019918
0.00206794
0.00214361
0.00221877
0.00229322
0.00236686
0.0024396
0.00251141
0.00258231
0.00265213
0.00272094
0.00278866
0.00285523
0.0029207
0.00298511
0.00304834
0.0031104
0.00317138
0.0032312
0.00328996
0.00334761
0.00340414
0.00345957
0.00351382
0.00356708
0.0036193
0.00367041
0.00372042
0.00376931
0.00381731
0.00386419
0.00391012
0.00395504
0.00399906
0.0040427
0.00408447
0.00412657
0.00416666
0.00420657
0.00424345
0.00428046
0.00431644
0.00435167
0.00148019
0.0015317
0.00159125
0.00166014
0.00173637
0.00181846
0.00190518
0.00199594
0.00208996
0.00218728
0.00228687
0.00238854
0.00249152
0.00259569
0.00270052
0.00280566
0.00291086
0.00301583
0.00312036
0.00322423
0.00332734
0.00342948
0.00353058
0.00363058
0.00372942
0.00382703
0.00392342
0.00401854
0.00411239
0.00420485
0.00429608
0.00438604
0.00447468
0.00456211
0.00464822
0.00473311
0.00481673
0.00489916
0.00498038
0.0050604
0.00513925
0.00521694
0.00529343
0.00536884
0.00544306
0.0055161
0.00558799
0.00565875
0.00572822
0.0057964
0.00586372
0.00592918
0.0059935
0.0060561
0.00611852
0.00617898
0.0062376
0.0062944
0.00634978
0.00640365
0.0064552
0.00212744
0.00220052
0.0022841
0.0023776
0.0024791
0.00258736
0.00270115
0.00281921
0.00294108
0.00306615
0.00319361
0.00332283
0.00345338
0.00358498
0.00371696
0.00384896
0.00398065
0.00411187
0.00424234
0.00437195
0.00450047
0.00462783
0.00475384
0.00487852
0.00500182
0.00512376
0.00524422
0.00536322
0.00548071
0.0055967
0.00571118
0.00582423
0.00593588
0.00604608
0.00615479
0.00626215
0.0063681
0.00647258
0.00657565
0.00667729
0.00677757
0.00687642
0.00697394
0.00707004
0.00716471
0.00725792
0.00734957
0.00743971
0.00752849
0.00761531
0.00770076
0.00778451
0.00786604
0.00794558
0.00802357
0.00810016
0.00817421
0.0082463
0.00831649
0.00838428
0.00844962
0.0027699
0.0028637
0.00297006
0.00308759
0.00321403
0.00334775
0.00348754
0.00363227
0.00378088
0.00393268
0.00408677
0.00424237
0.00439926
0.00455675
0.00471455
0.00487217
0.00502892
0.00518494
0.00533989
0.00549365
0.00564613
0.00579702
0.00594638
0.00609403
0.00624013
0.00638458
0.00652744
0.00666857
0.00680788
0.00694535
0.00708113
0.00721515
0.0073476
0.00747836
0.0076074
0.00773475
0.00786049
0.0079845
0.00810675
0.00822719
0.00834584
0.00846277
0.00857802
0.0086915
0.0088032
0.00891313
0.00902149
0.00912725
0.00923127
0.00933331
0.00943318
0.009531
0.00962655
0.00971934
0.0098103
0.00989854
0.00998445
0.0100683
0.0101495
0.0102274
0.0103033
0.00340027
0.00351463
0.00364352
0.00378463
0.00393537
0.00409434
0.00425964
0.00443016
0.00460487
0.00478242
0.00496228
0.0051434
0.00532541
0.00550794
0.00569082
0.00587298
0.00605363
0.00623325
0.00641116
0.00658766
0.00676258
0.00693546
0.00710636
0.00727501
0.00744179
0.00760687
0.00776999
0.0079314
0.00809032
0.00824698
0.00840149
0.00855381
0.00870427
0.00885291
0.00899926
0.00914363
0.00928616
0.0094265
0.00956462
0.00970053
0.00983395
0.00996511
0.0100942
0.0102212
0.0103456
0.0104679
0.0105882
0.0107059
0.0108213
0.010934
0.0110444
0.0111522
0.0112569
0.011359
0.0114579
0.0115545
0.0116486
0.0117395
0.011827
0.0119113
0.0119926
0.00401569
0.00414962
0.00430033
0.00446445
0.00463905
0.00482197
0.00501215
0.00520759
0.00540761
0.0056101
0.00581509
0.0060204
0.00622654
0.00643236
0.00663958
0.00684578
0.00704993
0.00725235
0.00745184
0.00764907
0.0078451
0.00803806
0.00822903
0.00841613
0.00860087
0.00878388
0.0089649
0.00914445
0.00932105
0.0094944
0.009665
0.00983203
0.00999705
0.0101603
0.0103208
0.0104788
0.0106349
0.0107883
0.0109393
0.0110874
0.0112324
0.0113738
0.0115122
0.0116484
0.0117815
0.0119117
0.0120393
0.0121634
0.0122851
0.0124037
0.0125192
0.0126317
0.0127421
0.0128489
0.0129516
0.013051
0.0131476
0.0132419
0.013332
0.0134174
0.013499
0.00460935
0.00475937
0.00493013
0.0051149
0.00531304
0.00551752
0.00573132
0.00595094
0.00617421
0.00640009
0.00662975
0.0068596
0.00708851
0.00731384
0.00754344
0.00777443
0.00800183
0.00822938
0.00845182
0.00866636
0.00888262
0.00909507
0.00930597
0.00951079
0.0097078
0.00990551
0.0101
0.0102963
0.0104915
0.0106807
0.0108675
0.0110457
0.0112171
0.0113922
0.0115658
0.011732
0.0118982
0.0120638
0.0122242
0.0123845
0.0125412
0.012694
0.0128351
0.0129769
0.0131184
0.013251
0.0133838
0.0135071
0.013633
0.0137495
0.0138676
0.0139736
0.0140828
0.0141956
0.0143016
0.0143939
0.0144888
0.0145774
0.0146696
0.014755
0.0148294
0.000227226
0.000228203
0.000229184
0.00023019
0.000231189
0.000232156
0.000233053
0.000233947
0.000234828
0.000235695
0.000236548
0.000237448
0.000238393
0.000239384
0.000240454
0.000241635
0.000242908
0.000244232
0.000245592
0.000246996
0.000248422
0.000249878
0.000251394
0.000252908
0.000254415
0.000255938
0.000257483
0.000259045
0.00026061
0.00026219
0.000263783
0.000265386
0.000266999
0.000268632
0.000270276
0.000271935
0.000273618
0.000275325
0.000277042
0.00027877
0.000280527
0.000282306
0.000284104
0.000285932
0.000287778
0.000289626
0.000291491
0.000293393
0.000295322
0.000297251
0.000299196
0.000301183
0.000303181
0.000305191
0.000307238
0.000309328
0.000311454
0.000313574
0.00031575
0.000318019
0.000320387
0.00217893
0.0021942
0.00220884
0.00222283
0.00223594
0.00224796
0.00225819
0.00226799
0.00227628
0.00228426
0.00229069
0.00229629
0.00230078
0.00230413
0.00230636
0.0023074
0.00230748
0.00230655
0.00230474
0.00230209
0.00229871
0.00229472
0.00228999
0.00228452
0.00227833
0.00227141
0.00226381
0.00225542
0.00224635
0.00223651
0.00222588
0.00221455
0.00220252
0.00218973
0.00217621
0.00216204
0.00214713
0.00213157
0.00211533
0.00209845
0.00208093
0.00206276
0.00204409
0.00202485
0.002005
0.00198453
0.00196336
0.0019416
0.0019191
0.00189593
0.00187208
0.00184751
0.00182232
0.00179592
0.00176927
0.00174146
0.00171322
0.00168391
0.00165489
0.00162593
0.00159717
0.00438485
0.00441702
0.00444701
0.00447571
0.00450246
0.00452776
0.00455128
0.00457293
0.00459256
0.00461161
0.00462892
0.00464496
0.00465901
0.00467188
0.00468327
0.0046932
0.00470179
0.00470905
0.004715
0.00471968
0.00472325
0.00472562
0.00472688
0.00472709
0.0047262
0.00472419
0.00472108
0.00471681
0.00471141
0.00470472
0.0046969
0.0046878
0.00467744
0.00466591
0.00465308
0.00463902
0.00462366
0.00460705
0.00458916
0.00457006
0.00454982
0.00452849
0.00450612
0.00448284
0.00445849
0.00443305
0.00440635
0.00437838
0.004349
0.00431818
0.00428601
0.00425181
0.00421597
0.00417802
0.00413877
0.00409699
0.0040531
0.00400747
0.00396108
0.00391406
0.00386654
0.00650536
0.0065534
0.00659997
0.00664415
0.00668555
0.00672551
0.00676368
0.0067992
0.00683319
0.00686566
0.00689615
0.00692443
0.00695086
0.00697585
0.00699876
0.00702004
0.00703957
0.00705735
0.00707339
0.00708776
0.00710051
0.00711179
0.00712155
0.00712993
0.00713687
0.00714238
0.00714637
0.00714889
0.00715
0.00714963
0.00714766
0.00714407
0.00713886
0.00713196
0.00712342
0.00711319
0.00710119
0.00708733
0.00707168
0.0070543
0.00703536
0.00701486
0.00699313
0.0069702
0.00694613
0.0069208
0.00689397
0.00686554
0.00683544
0.00680342
0.0067695
0.00673318
0.00669428
0.00665267
0.00660858
0.00656128
0.00651057
0.00645733
0.00640247
0.00634583
0.0062884
0.0085124
0.0085734
0.008632
0.00868787
0.00874062
0.00879139
0.00884047
0.00888758
0.00893208
0.0089747
0.00901481
0.00905266
0.0090886
0.00912229
0.00915397
0.00918393
0.00921114
0.00923633
0.00925928
0.00928002
0.00929877
0.00931565
0.00933081
0.00934429
0.00935602
0.00936596
0.00937422
0.00938082
0.00938591
0.0093895
0.00939151
0.00939168
0.00939001
0.00938643
0.00938102
0.00937358
0.00936392
0.00935207
0.00933786
0.0093214
0.00930284
0.00928235
0.00926029
0.00923697
0.0092125
0.00918691
0.00915981
0.00913073
0.00910014
0.00906792
0.0090334
0.00899621
0.00895612
0.00891268
0.00886605
0.00881485
0.0087599
0.00870155
0.00864061
0.00857703
0.00851247
0.0103761
0.0104463
0.0105132
0.010578
0.0106392
0.0106981
0.0107546
0.0108087
0.0108604
0.0109094
0.0109561
0.0110003
0.011042
0.0110812
0.0111179
0.0111523
0.0111839
0.0112131
0.0112396
0.011263
0.0112838
0.0113023
0.0113187
0.0113332
0.0113456
0.0113558
0.0113639
0.0113701
0.0113747
0.0113781
0.0113803
0.0113807
0.0113794
0.0113762
0.0113713
0.0113641
0.0113542
0.0113419
0.0113267
0.011309
0.0112886
0.0112655
0.0112405
0.011214
0.0111863
0.011158
0.011128
0.0110966
0.0110636
0.0110297
0.0109936
0.0109542
0.0109121
0.0108667
0.0108176
0.010763
0.0107041
0.0106404
0.010574
0.0105045
0.0104333
0.0120708
0.0121458
0.0122174
0.0122855
0.0123504
0.0124124
0.0124723
0.01253
0.012585
0.0126369
0.0126861
0.0127328
0.012777
0.0128178
0.0128556
0.0128913
0.0129245
0.0129549
0.0129821
0.0130051
0.0130249
0.0130418
0.013056
0.0130678
0.0130773
0.0130841
0.0130882
0.0130893
0.0130885
0.0130868
0.0130849
0.0130813
0.0130768
0.0130707
0.0130638
0.0130547
0.0130422
0.0130266
0.0130083
0.0129874
0.0129635
0.0129361
0.0129057
0.0128736
0.0128403
0.0128073
0.0127716
0.0127351
0.012697
0.0126599
0.0126209
0.0125779
0.012533
0.0124848
0.0124335
0.0123753
0.0123125
0.0122437
0.0121726
0.0120975
0.0120201
0.0135772
0.0136512
0.0137213
0.013787
0.0138497
0.0139096
0.0139676
0.0140239
0.014078
0.014129
0.0141765
0.0142218
0.0142652
0.0143053
0.0143406
0.0143729
0.0144042
0.0144339
0.0144608
0.0144825
0.0144988
0.0145125
0.0145229
0.0145298
0.0145341
0.0145355
0.0145341
0.0145274
0.0145166
0.0145043
0.0144936
0.0144807
0.0144686
0.0144552
0.0144441
0.0144322
0.014415
0.0143928
0.0143683
0.0143426
0.0143144
0.0142825
0.0142458
0.0142065
0.0141664
0.0141277
0.0140844
0.0140411
0.013995
0.0139527
0.0139099
0.0138611
0.0138115
0.0137599
0.013707
0.0136453
0.0135794
0.0135056
0.0134303
0.0133503
0.0132683
0.0149065
0.0149739
0.0150393
0.0150909
0.0151436
0.0151886
0.0152398
0.0152819
0.0153269
0.0153752
0.0154179
0.0154492
0.0154874
0.0155262
0.0155578
0.0155813
0.0156017
0.0156234
0.0156496
0.0156716
0.0156824
0.015694
0.0157046
0.0157064
0.0157039
0.0156978
0.0156926
0.0156834
0.0156626
0.015637
0.0156147
0.015587
0.0155618
0.0155332
0.015513
0.0154974
0.0154754
0.0154424
0.0154067
0.0153712
0.0153354
0.0153032
0.0152597
0.015212
0.0151677
0.0151236
0.0150756
0.0150241
0.0149708
0.0149204
0.0148723
0.0148148
0.0147549
0.0147004
0.014643
0.0145811
0.0145117
0.0144368
0.0143558
0.0142734
0.0141856
0.000322767
0.000325148
0.000327617
0.00033016
0.000332735
0.000335285
0.000337836
0.000340434
0.000343036
0.000345634
0.000348332
0.00035172
0.000354735
0.000357703
0.000360692
0.000363712
0.000366749
0.000369783
0.000372819
0.000375873
0.000378928
0.00038198
0.000385039
0.000388082
0.000391092
0.000394078
0.000397041
0.000399968
0.000402843
0.000405665
0.000408425
0.000411113
0.000413714
0.000416231
0.00041864
0.000420936
0.000423083
0.000424932
0.000426297
0.00042724
0.000427795
0.000427947
0.000427683
0.000426986
0.000425794
0.000424036
0.000421664
0.00041861
0.000414747
0.000409916
0.000403976
0.000396753
0.000387949
0.000377221
0.000363131
0.000340988
0.00033086
0.000326105
0.000324764
0.000324524
0.00032277
0.00156838
0.00154006
0.00151178
0.00148367
0.00145534
0.00142666
0.00139729
0.00136897
0.00133964
0.00131064
0.00128179
0.00124972
0.00121919
0.00118978
0.00116116
0.00113311
0.00110532
0.00107771
0.00105029
0.00102311
0.000996209
0.00096951
0.00094306
0.000916901
0.000891067
0.000865625
0.00084058
0.000816007
0.000791907
0.000768306
0.000745253
0.000722776
0.000700872
0.000679586
0.000658976
0.00063907
0.000620006
0.000601023
0.000580057
0.000558585
0.000538093
0.00051856
0.00050008
0.000482839
0.000466943
0.000452586
0.00044002
0.00042949
0.000421241
0.00041558
0.000412849
0.000413465
0.000417854
0.000426528
0.000438201
0.000463039
0.00050097
0.000561495
0.000655387
0.000794988
0.000915779
0.00381925
0.00377243
0.00372582
0.00367865
0.00363026
0.00358025
0.00352833
0.00347484
0.00342091
0.00336943
0.00331738
0.00326392
0.00320993
0.00315643
0.00310293
0.00304905
0.00299427
0.0029387
0.00288237
0.00282552
0.0027681
0.00271
0.00265129
0.00259205
0.00253232
0.00247225
0.00241185
0.00235122
0.00229029
0.00222916
0.00216773
0.002106
0.00204398
0.00198157
0.00191881
0.00185564
0.00179211
0.00172782
0.00166166
0.00159317
0.00151221
0.00142522
0.00133544
0.0012439
0.00115173
0.00106012
0.000970612
0.000884627
0.000803937
0.000730262
0.00066526
0.000610465
0.000566873
0.000535625
0.000516491
0.000513693
0.000530149
0.000571793
0.00064964
0.00078133
0.000955987
0.00623093
0.00617471
0.00611877
0.00606219
0.00600345
0.00594278
0.00587955
0.00581373
0.00574922
0.00568678
0.00562292
0.0055579
0.00549208
0.00542612
0.0053592
0.00529078
0.00522026
0.00514798
0.00507415
0.00499903
0.00492262
0.00484452
0.00476499
0.00468423
0.00460226
0.00451924
0.00443521
0.00435025
0.00426422
0.00417704
0.00408863
0.00399894
0.00390784
0.00381527
0.0037212
0.00362555
0.00352821
0.00342901
0.00332738
0.00322265
0.00311125
0.00298445
0.00284288
0.00269023
0.00252686
0.00235326
0.00217058
0.00198047
0.00178579
0.0015909
0.00140041
0.00122109
0.00105855
0.000918442
0.000803669
0.0007184
0.000665303
0.000644993
0.000660773
0.000722392
0.000838154
0.008447
0.00838288
0.00831941
0.00825599
0.00818955
0.00812118
0.00805045
0.0079779
0.00790633
0.00783609
0.00776336
0.00768963
0.00761515
0.00754039
0.00746394
0.00738473
0.0073021
0.00721722
0.00713022
0.0070416
0.00695116
0.00685824
0.00676347
0.00666724
0.00656943
0.00647041
0.00637001
0.00626828
0.00616488
0.0060597
0.00595255
0.00584342
0.00573222
0.00561895
0.00550353
0.00538597
0.00526621
0.00514406
0.00501924
0.00489127
0.00475886
0.00461875
0.00446131
0.00428838
0.00410038
0.00389607
0.00367418
0.00343364
0.00317385
0.00289649
0.00260404
0.00230233
0.00200092
0.00171216
0.00144912
0.00122432
0.00104761
0.000920263
0.000839983
0.000807275
0.000826772
0.0103597
0.0102876
0.0102168
0.0101468
0.0100733
0.00999802
0.00992031
0.00984199
0.00976434
0.00968771
0.00960722
0.00952558
0.0094431
0.00936063
0.00927528
0.00918629
0.00909259
0.00899673
0.00889851
0.00879868
0.00869677
0.00859152
0.00848472
0.00837697
0.00826767
0.00815729
0.00804536
0.0079319
0.00781612
0.00769804
0.0075773
0.00745422
0.00732875
0.00720111
0.00707113
0.00693898
0.00680454
0.00666778
0.00652846
0.00638637
0.00624082
0.00609062
0.00593217
0.0057554
0.00556425
0.00535709
0.00513099
0.0048844
0.00461425
0.00431797
0.00399411
0.00364234
0.00326606
0.00287486
0.00248263
0.00211056
0.00177977
0.00150345
0.00128594
0.00112747
0.00102768
0.0119382
0.0118581
0.01178
0.0117038
0.011623
0.0115406
0.0114558
0.011372
0.011289
0.0112072
0.0111189
0.0110294
0.0109388
0.010849
0.0107549
0.0106565
0.0105519
0.0104459
0.0103376
0.0102283
0.0101168
0.010001
0.00988494
0.00976946
0.00965236
0.00953446
0.00941453
0.00929311
0.00916822
0.00904042
0.00890926
0.00877603
0.00864041
0.00850318
0.00836379
0.00822271
0.00807955
0.00793464
0.00778775
0.00763898
0.00748783
0.00733373
0.00717512
0.0070061
0.0068211
0.00662192
0.00640587
0.00617081
0.00591381
0.00563174
0.00532071
0.00497704
0.00459892
0.00418636
0.00374623
0.00329248
0.00284632
0.00243092
0.00206329
0.00175369
0.00150772
0.0131788
0.0130898
0.0130044
0.0129225
0.0128346
0.0127452
0.0126537
0.0125641
0.0124766
0.0123901
0.0122941
0.0121963
0.0120978
0.0120007
0.0118973
0.0117893
0.0116738
0.0115583
0.0114413
0.0113244
0.0112049
0.01108
0.0109579
0.0108389
0.0107172
0.0105944
0.0104688
0.0103418
0.0102091
0.0100729
0.00993269
0.00979225
0.00964961
0.00950687
0.00936214
0.00921674
0.00906934
0.00892186
0.00877357
0.00862544
0.00847616
0.0083258
0.00817308
0.00801532
0.00784371
0.00765867
0.00745818
0.00724087
0.00700491
0.00674772
0.00646642
0.00615666
0.00581364
0.00543354
0.00501504
0.00456166
0.00408455
0.00360033
0.00312944
0.0026906
0.00229996
0.0140933
0.0139925
0.0139014
0.0138113
0.0137191
0.0136222
0.0135267
0.0134289
0.0133385
0.0132451
0.0131435
0.0130358
0.0129328
0.0128256
0.0127135
0.0125927
0.0124698
0.0123433
0.0122202
0.0120999
0.0119727
0.0118428
0.0117178
0.0115972
0.0114742
0.0113456
0.011217
0.0110829
0.0109426
0.0107966
0.0106493
0.0105047
0.0103575
0.0102124
0.0100658
0.00991954
0.00977144
0.0096287
0.00948656
0.00934883
0.00920899
0.00907087
0.00893123
0.00878838
0.00863843
0.00847103
0.00828734
0.00808706
0.00787325
0.0076479
0.00740238
0.00713748
0.00684223
0.00651679
0.00615164
0.00575052
0.00530765
0.0048355
0.00433964
0.00383851
0.00335244
0.000319297
0.000315337
0.000311112
0.000306791
0.000302593
0.000298596
0.000294908
0.000291664
0.000288927
0.000286719
0.000285035
0.000283884
0.000283168
0.000282772
0.00028263
0.000282686
0.000282877
0.000283162
0.00028353
0.00028398
0.00028448
0.000285014
0.000285571
0.000286121
0.000286636
0.000287116
0.000287544
0.0002879
0.000288151
0.000288291
0.000288301
0.000288166
0.000287864
0.000287387
0.000286712
0.000285839
0.000284754
0.000283451
0.000281914
0.000280163
0.000278244
0.000276194
0.000274066
0.000271968
0.000269967
0.000268153
0.000266601
0.000265363
0.000264403
0.000263649
0.000263066
0.000262668
0.000262362
0.000262118
0.00026188
0.000261619
0.000261288
0.000260901
0.000260673
0.00026059
0.00026004
0.000986106
0.00104444
0.00108818
0.00111315
0.00112443
0.00112631
0.00111742
0.00110035
0.00107835
0.00105291
0.00102571
0.000997233
0.000971574
0.000951336
0.000935291
0.000922025
0.000911095
0.000902579
0.000896881
0.00089422
0.000894498
0.000897349
0.000902152
0.000908267
0.000915103
0.000922204
0.000929196
0.000935715
0.000941423
0.000945989
0.000949081
0.00095033
0.000949194
0.000944995
0.000936863
0.000925918
0.00091268
0.000897161
0.000878815
0.000857227
0.000831968
0.000802776
0.000769087
0.000730891
0.000688816
0.000644107
0.000598787
0.000555531
0.000516914
0.000484243
0.000457533
0.000437904
0.000424555
0.000415777
0.000410092
0.000406024
0.000402037
0.000396093
0.00038753
0.000382762
0.000390415
0.00113901
0.00132332
0.00150818
0.00166184
0.00177371
0.00186829
0.00194329
0.00199228
0.00202399
0.00204078
0.0020431
0.00203447
0.00201519
0.00199638
0.00198167
0.00196891
0.00195806
0.00194974
0.00194555
0.00194696
0.0019546
0.00196816
0.00198647
0.00200796
0.00203097
0.0020542
0.00207657
0.00209713
0.00211497
0.00212924
0.00213936
0.00214449
0.00214375
0.00213607
0.00212055
0.00209703
0.00206464
0.00202367
0.0019761
0.00192262
0.0018623
0.00179502
0.00172017
0.00163707
0.00154513
0.00144434
0.00133596
0.00122326
0.00111081
0.00100606
0.00091667
0.000848637
0.000803468
0.000779568
0.000772417
0.000774918
0.000782599
0.000789171
0.000794591
0.00080641
0.000836573
0.00100531
0.00121773
0.001464
0.00171505
0.00194866
0.00216873
0.00238561
0.00254441
0.00267988
0.00279757
0.00288844
0.00296089
0.00301697
0.00305774
0.00309089
0.00312299
0.0031532
0.00318218
0.00321254
0.00324733
0.00328855
0.00333701
0.00339178
0.00345082
0.00351161
0.00357203
0.0036302
0.00368456
0.0037335
0.00377553
0.00380954
0.00383443
0.00384884
0.00385138
0.00384083
0.00381652
0.00377794
0.00372541
0.00365968
0.00357953
0.00348646
0.00338145
0.00326484
0.00313458
0.00298818
0.00282343
0.00263921
0.0024367
0.00222034
0.00200052
0.00179324
0.00161588
0.00148187
0.00139483
0.00134941
0.00133383
0.00133645
0.00134758
0.00136355
0.00138847
0.00142913
0.000903633
0.00104251
0.00124502
0.00149978
0.00178501
0.00208236
0.00238001
0.00265149
0.0029025
0.00314846
0.00334096
0.00351277
0.00367197
0.00381325
0.00394317
0.00406471
0.00418313
0.00429811
0.0044107
0.00452372
0.00463951
0.00475995
0.00488505
0.00501308
0.00514124
0.00526706
0.00538814
0.0055025
0.00560778
0.00570182
0.00578308
0.00584998
0.00590097
0.00593414
0.00594804
0.00594156
0.00591404
0.00586569
0.00579652
0.00570643
0.00559522
0.00546203
0.0053039
0.0051232
0.00491539
0.00467521
0.00439873
0.00408462
0.00373689
0.00336707
0.00299766
0.00265852
0.00237894
0.00217623
0.00204948
0.00198375
0.00195965
0.00196113
0.00197916
0.00201243
0.00206293
0.000988554
0.00101329
0.00110668
0.00127132
0.00150331
0.00179154
0.00211791
0.00245477
0.00278478
0.00310143
0.00338908
0.00366017
0.0039273
0.0041621
0.00439537
0.00463149
0.00486465
0.00509959
0.00533439
0.00556882
0.00580248
0.00603586
0.00626958
0.00650234
0.00673158
0.00695477
0.00716932
0.00737289
0.00756259
0.00773545
0.00788954
0.0080228
0.00813338
0.00821899
0.00827752
0.00830739
0.00830794
0.00827847
0.00821931
0.00812891
0.00800632
0.00784824
0.00765205
0.00741341
0.00713124
0.00679798
0.00640817
0.00595903
0.00545501
0.00490997
0.00435221
0.00382252
0.00336633
0.00301688
0.00278232
0.00264681
0.00258385
0.00256894
0.00258589
0.00262686
0.00268938
0.00132868
0.00121859
0.00117983
0.00121533
0.00132751
0.00151688
0.00177851
0.00209722
0.00245109
0.00281633
0.00317054
0.00350736
0.00383085
0.00414338
0.00446735
0.00480669
0.00514739
0.00550958
0.00588352
0.00626401
0.00664652
0.00702574
0.00740169
0.00777264
0.00813577
0.00848859
0.00882774
0.00915087
0.00945404
0.00973353
0.009987
0.0102114
0.0104051
0.0105644
0.0106873
0.0107713
0.0108153
0.0108181
0.0107792
0.0106966
0.0105664
0.0103845
0.0101466
0.00984664
0.00947969
0.00903897
0.00852028
0.00792075
0.00724727
0.00651615
0.00576164
0.00503338
0.00439004
0.00388078
0.00352458
0.00330838
0.00319944
0.00316435
0.00317831
0.00322692
0.00330262
0.00196918
0.00170698
0.00151865
0.00140793
0.00137707
0.00142796
0.0015617
0.00177566
0.00206141
0.00240171
0.00277251
0.00315203
0.00352891
0.00389888
0.0042728
0.00466327
0.00508176
0.00555345
0.0060496
0.00657038
0.00711068
0.00765202
0.00819111
0.00872361
0.00924696
0.00975757
0.0102503
0.0107218
0.0111669
0.0115803
0.01196
0.0123001
0.0125999
0.0128545
0.0130612
0.0132164
0.0133199
0.0133663
0.0133594
0.0132906
0.0131589
0.0129547
0.0126763
0.0123129
0.0118579
0.0113037
0.0106517
0.0098975
0.00905401
0.00813826
0.00719171
0.0062682
0.00543805
0.00476472
0.00427877
0.00397292
0.00381081
0.00375083
0.00375882
0.00381323
0.00390135
0.00289678
0.00249244
0.00215201
0.00188379
0.00169609
0.00159266
0.00157581
0.0016455
0.00180047
0.00203558
0.00233859
0.00269393
0.00308654
0.00350059
0.00392876
0.0043764
0.00484138
0.00534863
0.00590683
0.00653561
0.00721397
0.00789661
0.00859446
0.00929767
0.00999644
0.0106852
0.0113543
0.0119993
0.0126112
0.0131833
0.0137163
0.0141946
0.0146237
0.0149944
0.015305
0.0155482
0.0157287
0.0158294
0.0158675
0.0158209
0.0156978
0.0154748
0.0151656
0.0147428
0.0142034
0.0135364
0.0127595
0.0118543
0.0108526
0.00976152
0.00863767
0.00752892
0.0065159
0.00567941
0.00505554
0.00465065
0.00442409
0.00433258
0.00432748
0.0043835
0.00447969
0.00353448
0.014664
0.0147001
0.00208935
0.00344431
0.00601898
0.0012489
0.0211696
0.00125655
0.00326079
0.0254335
0.0134382
0.00124866
0.0120724
0.00560176
0.0170173
0.00125398
0.0224436
0.0240795
0.00125352
0.00204195
0.0119936
0.014177
0.0012742
0.00125249
0.00435249
0.00125309
0.00343107
0.00125198
0.00125773
0.00391419
0.00126381
0.00276373
0.00897454
0.0124765
0.0219957
0.0182137
0.0132163
0.00124577
0.0119584
0.00495483
0.00904415
0.00124278
0.0167502
0.0058314
0.00882332
0.00124854
0.00189503
0.00588431
0.0137248
0.0100563
0.0135016
0.00124414
0.00128126
0.00192153
0.000577596
0.00125728
0.00490648
0.0201827
0.0151526
0.00917939
0.00129492
0.0011558
0.00293437
0.0158
0.00107577
0.0195549
0.0158273
0.00153726
0.00124177
0.0468266
0.0134513
0.00480206
0.000776951
0.00274683
0.0249082
0.0153014
0.0158471
0.0012424
0.013067
0.0016404
0.011186
0.0011695
0.0168852
0.00124187
0.0113631
0.00125558
0.0146872
0.00206266
0.00140268
0.00460514
0.00124221
0.00128726
0.0147234
0.0158122
0.00127052
0.00979876
0.00227321
0.00177762
0.01645
0.000600254
0.0505392
0.00783131
0.00124188
0.00124259
0.00124341
0.00534624
0.00604544
0.00126218
0.0166338
0.0162641
0.0018907
0.00825554
0.00726545
0.0180266
0.0139114
0.0200588
0.00143454
0.0050992
0.00126557
0.00123985
0.00610103
0.000718099
0.0151226
0.0117352
0.0106443
0.00124226
0.0118317
0.0121723
0.00124251
0.00357344
0.00300741
0.00372849
0.00129738
0.0146726
0.00124282
0.00124241
0.0121858
0.0138003
0.00124371
0.00152235
0.0162508
0.00395456
0.00841694
0.00984675
0.0321913
0.00140897
0.0123033
0.00227575
0.0137081
0.0498689
0.000403612
0.01358
0.0168364
0.0162593
0.00124734
0.00124545
0.0072233
0.0012448
0.0175623
0.000995021
0.00160139
0.00124449
0.00124266
0.00124266
0.0162208
0.014508
0.00653947
0.00130142
0.0126591
0.00697189
0.00251942
0.0305557
0.00271638
0.00831345
0.00607133
0.0220429
0.00124388
0.00154801
0.00699816
0.0286058
0.00911373
0.0139866
0.00124304
0.00126356
0.0091017
0.00319291
0.0108
0.00124404
0.00124729
0.00531078
0.00129488
0.0141776
0.00928913
0.00124369
0.00767311
0.00620507
0.0136472
0.00153302
0.0127834
0.00124317
0.00124444
0.0278082
0.0137942
0.0135767
0.00154439
0.0012565
0.00214507
0.0136942
0.0111302
0.010217
0.0139192
0.0593651
0.0162304
0.00374311
0.0170439
0.0157084
0.00852621
0.0141822
0.0153366
0.00127967
0.00387638
0.00124343
0.0012566
0.0209095
0.00239263
0.00253181
0.00101608
0.00265334
0.013713
0.00999188
0.00296492
0.0145066
0.0124119
0.0235521
0.00124413
0.00326223
0.0157647
0.0118498
0.00149365
0.0223739
0.0116143
0.00337742
0.0132896
0.0155028
0.00699519
0.00442342
0.0169298
0.00137255
0.00124277
0.00132611
0.00240463
0.0170661
0.00125023
0.000854159
0.00124493
0.00686433
0.0322819
0.0270992
0.0285186
0.0469025
0.0145745
0.0142537
0.00154605
0.0174693
0.0327983
0.00124209
0.00508546
0.00124188
0.00632865
0.00681021
0.00484274
0.00150713
0.00124281
0.0146369
0.00342109
0.00124275
0.00124406
0.00124682
0.00125494
0.00916828
0.00658583
0.0157824
0.00204373
0.00124273
0.0012437
0.00124218
0.0170703
0.00247844
0.00137255
0.0106382
0.00540466
0.00169977
0.00124285
0.00734559
0.00124259
0.000808951
0.00407073
0.00749743
0.0115748
0.00126394
0.00143444
0.0155863
0.00395819
0.003149
0.014225
0.00128669
0.00124195
0.00124432
0.017071
0.00124971
0.0309587
0.00124273
0.0101487
0.0383814
0.00284411
0.00620165
0.0109077
0.00139614
0.0286214
0.0121567
0.0028217
0.0360666
0.0582446
0.0138281
0.0248303
0.0349227
0.019031
0.0166519
0.00474078
0.0056155
0.0140588
0.0152714
0.0290481
0.0167452
0.00146996
0.0136281
0.00615619
0.0162158
0.00332834
0.00128257
0.00124225
0.00126213
0.0037462
0.0095862
0.00413925
0.00524512
0.00124708
0.0165524
0.00124225
0.00659112
0.0123259
0.0166338
0.00965732
0.0143245
0.00137932
0.00133274
0.00169712
0.00870297
0.0017586
0.00608161
0.00930267
0.0228841
0.016742
0.0139791
0.017928
0.0012589
0.0151989
0.0157469
0.00285945
0.00124492
0.015777
0.0162771
0.00125303
0.0155444
0.0012455
0.00994802
0.0133744
0.0172192
0.0168857
0.00578327
0.0166738
0.00127136
0.0167959
0.00130769
0.0277852
0.0162113
0.0219876
0.0152924
0.0113911
0.00767455
0.00989218
0.00132855
0.00482057
0.00116694
0.00194751
0.00131987
0.00737664
0.00130694
0.0168092
0.00124411
0.00124725
0.00180755
0.00916206
0.00413095
0.0120893
0.00104975
0.0169012
0.00672613
0.0152191
0.0124727
0.0142541
0.00986341
0.00130699
0.0153579
0.0163342
0.00124261
0.0161627
0.0128498
0.00124349
0.00124272
0.0207522
0.00198149
0.00736494
0.00167384
0.00732926
0.00336837
0.00826202
0.0136455
0.0130674
0.0138613
0.011005
0.0150558
0.00146511
0.00150937
0.0175589
0.00751345
0.0139939
0.0105553
0.0135884
0.00369836
0.016232
0.0161902
0.00606971
0.00393024
0.0133968
0.0128714
0.0013509
0.0166068
0.0128366
0.00137568
0.0328419
0.0151872
0.0134223
0.00278532
0.00371219
0.0117897
0.00137376
0.014089
0.00137688
0.00353509
0.00124866
0.0106917
0.0037191
0.00774823
0.00138504
0.00141991
0.00899041
0.0108083
0.00278944
0.00349897
0.0102676
0.0031521
0.00141257
0.0142078
0.0120657
0.0140393
0.00846421
0.00437826
0.0226296
0.0146379
0.0165884
0.011323
0.029346
0.0147787
0.00615749
0.0134243
0.0168221
0.00175465
0.00654017
0.0131546
0.00130229
0.00552853
0.00743714
0.0460748
0.00292454
0.0345688
0.00428659
0.0093455
0.00629048
0.00166629
0.00124224
0.000332999
0.0533867
0.0120314
0.0188307