/*--------------------------------*- C++ -*----------------------------------*\
| =========                 |                                                 |
| \\      /  F ield         | OpenFOAM: The Open Source CFD Toolbox           |
|  \\    /   O peration     | Version:  2.3.1                                 |
|   \\  /    A nd           | Web:      www.OpenFOAM.org                      |
|    \\/     M anipulation  |                                                 |
\*---------------------------------------------------------------------------*/
FoamFile
{
    version     2.0;
    format      ascii;
    class       volScalarField;
    location    "0.9";
    object      p;
}
// * * * * * * * * * * * * * * * * * * * * * * * * * * * * * * * * * * * * * //

dimensions      [0 2 -2 0 0 0 0];

internalField   nonuniform List<scalar> 
768
(
-0.0364032
-0.0362014
-0.0360834
-0.036214
-0.036567
-0.0369758
-0.0372631
-0.0373318
-0.0372166
-0.037008
-0.0367625
-0.0365348
-0.0336827
-0.033909
-0.0344689
-0.0352535
-0.0360702
-0.0367184
-0.0370529
-0.0370304
-0.0366801
-0.0360562
-0.0353482
-0.0346774
-0.0320799
-0.0326811
-0.0338814
-0.0352578
-0.0364627
-0.0372814
-0.0375979
-0.0373841
-0.0366964
-0.0357388
-0.0346616
-0.0334776
-0.029847
-0.0309963
-0.0326866
-0.0343784
-0.035732
-0.0365384
-0.0367268
-0.036345
-0.0355177
-0.0343963
-0.033038
-0.0314383
-0.0273686
-0.0287701
-0.0305631
-0.0323059
-0.0336506
-0.0343658
-0.0344035
-0.033889
-0.0329624
-0.031699
-0.0300314
-0.0281064
-0.024645
-0.025876
-0.0274493
-0.029023
-0.0302381
-0.0308066
-0.0306767
-0.0300078
-0.0289383
-0.0274368
-0.0254474
-0.0234335
-0.0219292
-0.022654
-0.0237465
-0.024905
-0.0257766
-0.0260684
-0.0257358
-0.0248816
-0.0235167
-0.0216932
-0.0194855
-0.0177228
-0.0195078
-0.0196104
-0.0201687
-0.0208464
-0.0211947
-0.0208971
-0.0200014
-0.0187254
-0.017079
-0.0149945
-0.0127951
-0.0115604
-0.0174836
-0.0170902
-0.0173087
-0.0176544
-0.0174795
-0.0163483
-0.014396
-0.0121899
-0.0101682
-0.00814637
-0.00636129
-0.00570915
-0.0155209
-0.0147584
-0.0148328
-0.0149744
-0.0144051
-0.0126612
-0.00983153
-0.00662296
-0.00389731
-0.00211239
-0.00108114
-0.00103734
-0.0129398
-0.0118627
-0.0121618
-0.0123529
-0.011647
-0.00956355
-0.00638866
-0.00280658
0.000342664
0.00228182
0.00276839
0.00208879
-0.0104091
-0.00934554
-0.00980394
-0.0103094
-0.00934866
-0.00709714
-0.00402178
-0.000676599
0.002292
0.00428403
0.00484376
0.0039768
-0.0364194
-0.0364781
-0.0366723
-0.0370313
-0.0376238
-0.0385206
-0.0397839
-0.0413754
-0.0428906
-0.0437466
-0.0437679
-0.0432882
-0.0340562
-0.0335072
-0.0331671
-0.0332002
-0.0337826
-0.0350675
-0.0371543
-0.0397342
-0.042126
-0.0434275
-0.0432735
-0.0421636
-0.0322126
-0.0310925
-0.0305107
-0.0305877
-0.0312861
-0.0326082
-0.0346294
-0.0372907
-0.0400533
-0.0418548
-0.0419943
-0.0410084
-0.0298036
-0.0286367
-0.0281594
-0.0282824
-0.0289443
-0.0301383
-0.0318435
-0.0340567
-0.0365799
-0.0387694
-0.0396765
-0.0392953
-0.0264924
-0.0256851
-0.0255948
-0.0260085
-0.0267933
-0.0278985
-0.0293335
-0.0310771
-0.0329841
-0.0348831
-0.0365074
-0.037118
-0.0222288
-0.0219899
-0.022377
-0.0231521
-0.0241865
-0.0254161
-0.0268368
-0.0283943
-0.0298502
-0.0309732
-0.0324774
-0.0345261
-0.0172423
-0.0177419
-0.0186733
-0.0198347
-0.0211749
-0.0226604
-0.0242322
-0.0257941
-0.0271292
-0.0278595
-0.0287944
-0.0316522
-0.0119808
-0.0133266
-0.0148579
-0.0164301
-0.0180806
-0.0198037
-0.0215143
-0.0230807
-0.0243583
-0.0251268
-0.0259463
-0.028471
-0.00693355
-0.00907223
-0.011198
-0.0131831
-0.0151274
-0.0170418
-0.0188231
-0.0202847
-0.0213161
-0.0218451
-0.022532
-0.0244479
-0.00260602
-0.00521196
-0.00783819
-0.0102166
-0.0124313
-0.0144942
-0.0162891
-0.0175856
-0.0181802
-0.0179326
-0.0175927
-0.0182227
0.000405901
-0.00210557
-0.00489946
-0.00758081
-0.0100543
-0.0122634
-0.0140622
-0.0151848
-0.0152948
-0.0140617
-0.0117009
-0.00884368
0.00214856
-0.0001168
-0.00263547
-0.00530743
-0.00794501
-0.0103216
-0.0121909
-0.01325
-0.0131347
-0.0112708
-0.0072093
0.000345471
-0.0364014
-0.0361986
-0.0360791
-0.0362085
-0.0365608
-0.0369693
-0.0372565
-0.0373254
-0.0372106
-0.0370024
-0.0367572
-0.0365305
-0.0336851
-0.0339107
-0.0344706
-0.0352552
-0.0360717
-0.0367191
-0.0370523
-0.0370283
-0.0366754
-0.03605
-0.0353421
-0.0346721
-0.0320909
-0.0326923
-0.0338943
-0.0352718
-0.0364763
-0.037293
-0.037606
-0.0373873
-0.0366951
-0.0357347
-0.034656
-0.0334707
-0.0298674
-0.0310189
-0.0327119
-0.034404
-0.0357552
-0.0365578
-0.036741
-0.0363524
-0.0355194
-0.0343942
-0.0330334
-0.0314325
-0.0273994
-0.0288047
-0.0306001
-0.0323412
-0.0336813
-0.0343903
-0.034421
-0.0338985
-0.0329659
-0.0316988
-0.0300286
-0.0281042
-0.024685
-0.0259206
-0.0274968
-0.0290687
-0.0302774
-0.0308367
-0.0306973
-0.0300203
-0.0289438
-0.0274397
-0.0254495
-0.0234408
-0.0219754
-0.0227046
-0.0238008
-0.0249582
-0.0258229
-0.0261035
-0.0257588
-0.0248949
-0.0235254
-0.021701
-0.019497
-0.0177456
-0.0195548
-0.0196612
-0.0202223
-0.0208986
-0.0212387
-0.0209284
-0.0200211
-0.0187384
-0.0170888
-0.0150082
-0.0128192
-0.011601
-0.0175299
-0.0171407
-0.0173639
-0.0177083
-0.0175224
-0.0163702
-0.0144007
-0.0121916
-0.0101794
-0.00817063
-0.00639731
-0.00576367
-0.0155664
-0.0148121
-0.0149004
-0.0150408
-0.0144543
-0.0126783
-0.00981778
-0.0066
-0.00389233
-0.00213359
-0.0011237
-0.00109462
-0.0129937
-0.011922
-0.0122495
-0.0124191
-0.0116934
-0.00957377
-0.00636123
-0.00276215
0.000374691
0.00228188
0.00274131
0.0020362
-0.010472
-0.00940844
-0.00984545
-0.0103631
-0.0093825
-0.00709806
-0.00398966
-0.000626768
0.00233701
0.00430512
0.00483241
0.00393655
-0.0364171
-0.0364782
-0.0366743
-0.0370352
-0.0376295
-0.0385287
-0.039796
-0.0413924
-0.0429124
-0.0437718
-0.0437948
-0.0433156
-0.0340515
-0.0335031
-0.0331651
-0.0332019
-0.0337885
-0.0350783
-0.03717
-0.0397549
-0.0421506
-0.0434546
-0.0433021
-0.0421928
-0.0322048
-0.0310873
-0.0305127
-0.0305972
-0.0313012
-0.0326273
-0.0346519
-0.0373161
-0.0400812
-0.0418848
-0.0420257
-0.0410409
-0.029799
-0.02864
-0.0281724
-0.0283039
-0.0289724
-0.0301705
-0.0318778
-0.0340916
-0.0366149
-0.0388047
-0.0397128
-0.0393326
-0.0264974
-0.0257011
-0.0256202
-0.0260416
-0.0268325
-0.0279421
-0.0293796
-0.0311238
-0.0330295
-0.0349266
-0.0365499
-0.0371605
-0.0222479
-0.0220192
-0.0224134
-0.0231941
-0.0242333
-0.0254672
-0.0268913
-0.0284504
-0.0299061
-0.0310273
-0.0325282
-0.0345742
-0.0172788
-0.0177857
-0.0187205
-0.0198845
-0.0212274
-0.0227158
-0.0242907
-0.0258554
-0.0271919
-0.0279228
-0.0288562
-0.0317091
-0.0120354
-0.013385
-0.0149159
-0.0164878
-0.0181385
-0.0198624
-0.0215746
-0.0231434
-0.0244234
-0.0251948
-0.0260173
-0.0285377
-0.00700294
-0.00914396
-0.011267
-0.0132495
-0.0151918
-0.0171046
-0.0188854
-0.0203481
-0.0213824
-0.0219148
-0.0226058
-0.0245201
-0.0026819
-0.00529404
-0.00791826
-0.0102929
-0.0125039
-0.0145638
-0.0163567
-0.0176527
-0.0182485
-0.018003
-0.0176657
-0.0182915
0.000334388
-0.00219145
-0.00499033
-0.0076694
-0.0101385
-0.0123438
-0.014139
-0.0152587
-0.0153676
-0.0141339
-0.0117706
-0.00890326
0.00208774
-0.000198054
-0.00273311
-0.0054095
-0.00804469
-0.0104172
-0.0122805
-0.0133332
-0.0132131
-0.0113458
-0.00727768
0.000294056
-0.00535556
-0.00766375
-0.00903982
-0.00905614
-0.00767881
-0.00535983
-0.00252197
0.00040632
0.00292888
0.00463364
0.00526301
0.00468078
-0.00694697
-0.00827429
-0.00872448
-0.00797759
-0.00628768
-0.00398721
-0.00140686
0.00110119
0.00317141
0.00452735
0.00506318
0.0046673
-0.00733203
-0.00770463
-0.00773334
-0.0069202
-0.00522358
-0.00298401
-0.000633986
0.00148685
0.00314207
0.00417282
0.00461392
0.00428837
-0.0071811
-0.00686374
-0.00671344
-0.00599295
-0.00439299
-0.00243163
-0.00048544
0.00124473
0.00262443
0.00346606
0.00391013
0.00353794
0.0031259
0.00103403
-0.00118899
-0.00352563
-0.00601181
-0.00842761
-0.0104036
-0.0115615
-0.0115844
-0.0103104
-0.00781618
-0.00558751
0.00345149
0.00169234
-0.000288311
-0.00232535
-0.00443662
-0.00657502
-0.00847656
-0.00975894
-0.0101167
-0.0094603
-0.00810042
-0.00662043
0.00338604
0.00197787
0.000278778
-0.00153419
-0.00338431
-0.00520509
-0.00686578
-0.00812541
-0.00874423
-0.00863552
-0.00802357
-0.00746118
0.0029238
0.00190947
0.000558228
-0.000978588
-0.00259118
-0.00418114
-0.00566781
-0.00690027
-0.00770582
-0.00798796
-0.00785844
-0.00798655
-0.00543903
-0.00777305
-0.00914077
-0.00913084
-0.00771634
-0.00536258
-0.00249633
0.000447546
0.00296861
0.00465793
0.00526354
0.00465846
-0.00705602
-0.00840782
-0.00884742
-0.00806351
-0.00633149
-0.00399654
-0.00139163
0.00112942
0.00319933
0.0045441
0.0050593
0.00464783
-0.00741091
-0.00780084
-0.0078316
-0.00699712
-0.00526847
-0.0030005
-0.000631377
0.00149828
0.00315248
0.00417552
0.0045932
0.00426207
-0.00722277
-0.00691682
-0.00677468
-0.00604808
-0.00443263
-0.0024546
-0.000496889
0.00123787
0.00261531
0.0034551
0.00385158
0.00348709
0.00308261
0.000964096
-0.00128842
-0.00364171
-0.00613154
-0.00854222
-0.0105068
-0.0116536
-0.0116688
-0.0103902
-0.00788956
-0.00565068
0.00341824
0.00163704
-0.000381262
-0.00245258
-0.00458124
-0.0067155
-0.00859585
-0.00985762
-0.010203
-0.00953937
-0.00817084
-0.0066746
0.00335356
0.00192919
0.000176454
-0.00170301
-0.00357244
-0.00537473
-0.00700223
-0.0082309
-0.00883049
-0.0087106
-0.00808822
-0.00751207
0.00287884
0.00188709
0.000514927
-0.00112861
-0.00280565
-0.00437552
-0.00581281
-0.00700737
-0.00778978
-0.00805841
-0.0079182
-0.00803343
)
;

boundaryField
{
    rotor
    {
        type            zeroGradient;
    }
    stator
    {
        type            zeroGradient;
    }
    AMI1
    {
        type            cyclicAMI;
        value           nonuniform List<scalar> 
48
(
-0.00709794
-0.00658663
-0.00613929
-0.00530011
-0.00380413
-0.00205704
-0.000366929
0.00114509
0.00237508
0.00319293
0.00358223
0.00328814
0.00269955
0.00177699
0.000546264
-0.000887312
-0.00242217
-0.00394893
-0.00536299
-0.00655116
-0.00737618
-0.00774822
-0.00775546
-0.00772036
-0.00712745
-0.00662743
-0.00618912
-0.00534791
-0.00384219
-0.00208313
-0.000384373
0.00113106
0.0023594
0.00317215
0.00351933
0.00323263
0.00265692
0.00173965
0.000491839
-0.00101398
-0.00260166
-0.00412057
-0.00550013
-0.00665706
-0.00746076
-0.00781973
-0.00781757
-0.00777627
)
;
    }
    AMI2
    {
        type            cyclicAMI;
        value           nonuniform 0();
    }
    front
    {
        type            empty;
    }
    back
    {
        type            empty;
    }
    procBoundary3to2
    {
        type            processor;
        value           nonuniform List<scalar> 8(-0.00531282 -0.00691552 -0.00729155 -0.00713354 -0.00566261 -0.00673128 -0.00756109 -0.00806209);
    }
}


// ************************************************************************* //
