/*--------------------------------*- C++ -*----------------------------------*\
| =========                 |                                                 |
| \\      /  F ield         | OpenFOAM: The Open Source CFD Toolbox           |
|  \\    /   O peration     | Version:  2.3.1                                 |
|   \\  /    A nd           | Web:      www.OpenFOAM.org                      |
|    \\/     M anipulation  |                                                 |
\*---------------------------------------------------------------------------*/
FoamFile
{
    version     2.0;
    format      ascii;
    class       surfaceVectorField;
    location    "0.9";
    object      Uf;
}
// * * * * * * * * * * * * * * * * * * * * * * * * * * * * * * * * * * * * * //

dimensions      [0 1 -1 0 0 0 0];

internalField   nonuniform List<vector> 
1460
(
(0.091785 0.0968721 1.72564e-20)
(0.0856596 0.111055 -9.30856e-20)
(0.0882041 0.0883747 5.57312e-21)
(0.0784502 0.109629 3.00937e-19)
(0.0807467 0.0768152 2.41957e-19)
(0.0705149 0.101531 -3.6991e-20)
(0.0737788 0.0636516 2.51857e-19)
(0.0654143 0.088148 2.6655e-19)
(0.0689998 0.0507436 -4.89096e-20)
(0.0630263 0.0727543 -4.25157e-19)
(0.0671499 0.0392655 2.92372e-19)
(0.0630833 0.0575468 4.73708e-20)
(0.06853 0.0297618 -7.78206e-22)
(0.0655081 0.0436306 3.33081e-19)
(0.0725354 0.0223112 -2.43746e-19)
(0.0697719 0.0322702 -7.74153e-20)
(0.0781539 0.0169441 9.72317e-20)
(0.075793 0.0237616 -1.66695e-19)
(0.0840375 0.0132934 9.72317e-20)
(0.0828491 0.0182812 9.7805e-20)
(0.0889807 0.0108698 0)
(0.0901023 0.0150316 8.35312e-20)
(0.0982805 0.0116835 0)
(0.0931024 0.00890555 -3.66353e-20)
(0.0779934 0.122754 1.83593e-19)
(0.0890561 0.127668 2.31208e-19)
(0.0656581 0.118992 2.63011e-19)
(0.0723241 0.129913 1.14652e-19)
(0.0581948 0.108511 6.0896e-21)
(0.0626646 0.123051 8.66991e-20)
(0.0561107 0.0936522 -4.17847e-19)
(0.0614057 0.109511 -8.31455e-20)
(0.0579182 0.0769607 -3.42353e-19)
(0.0649762 0.0924788 -1.96208e-19)
(0.0621755 0.0603105 8.38705e-20)
(0.0707274 0.074142 -2.37988e-19)
(0.0677026 0.0449965 2.60727e-19)
(0.0773022 0.0561315 1.36372e-20)
(0.0743763 0.0321603 4.24666e-21)
(0.0845587 0.0393285 9.65629e-20)
(0.0820764 0.0225987 -1.66227e-19)
(0.0925672 0.0250216 -3.28757e-19)
(0.0903773 0.0164405 8.72191e-20)
(0.101249 0.0148512 1.93236e-19)
(0.100803 0.0114339 8.51139e-20)
(0.111806 0.00651509 9.99228e-21)
(0.127927 -0.0054646 0)
(0.117121 0.0019471 4.31115e-20)
(0.0797893 0.137714 1.58204e-19)
(0.0911705 0.147323 4.72857e-20)
(0.0640586 0.136731 -7.64001e-20)
(0.0707046 0.152173 4.55535e-20)
(0.061127 0.127287 0)
(0.0676856 0.145842 1.27632e-19)
(0.0661662 0.112086 1.59216e-19)
(0.0744476 0.132818 0)
(0.0745079 0.0937255 -7.90091e-20)
(0.084521 0.115569 2.33239e-19)
(0.0838062 0.0738355 -3.21451e-19)
(0.094836 0.0956782 -1.82897e-20)
(0.0933003 0.0538704 -1.63603e-19)
(0.104428 0.0742594 -2.35533e-19)
(0.102534 0.035922 -2.40534e-19)
(0.113327 0.052466 -6.34304e-21)
(0.111319 0.0214063 4.01308e-20)
(0.121921 0.0327537 -1.61129e-19)
(0.121864 0.00916432 1.20599e-19)
(0.131421 0.0154547 2.0286e-19)
(0.13871 -0.00595955 -7.78467e-20)
(0.145336 -0.0035296 -1.10882e-19)
(0.168607 -0.0291291 0)
(0.1645 -0.0275907 -1.84297e-20)
(0.0799275 0.159104 -6.88137e-20)
(0.0970617 0.167294 -2.8375e-20)
(0.0714596 0.16028 2.54615e-19)
(0.080798 0.172783 -2.01055e-19)
(0.0788329 0.151522 1.29601e-19)
(0.0886026 0.16833 -1.00897e-19)
(0.0913774 0.136886 7.44423e-20)
(0.102447 0.157387 -1.19094e-19)
(0.104219 0.118347 3.04162e-19)
(0.116165 0.141207 7.54786e-20)
(0.115782 0.0971335 7.36939e-20)
(0.127655 0.120541 1.03028e-19)
(0.125646 0.0742213 -7.58813e-20)
(0.136797 0.0968753 -1.57012e-19)
(0.133898 0.0508924 7.89753e-20)
(0.144586 0.0717054 1.44892e-19)
(0.142107 0.0282621 4.14731e-21)
(0.151805 0.0461897 -1.28579e-19)
(0.154858 0.00433655 -2.81963e-20)
(0.160954 0.0187501 1.88125e-19)
(0.176528 -0.0250118 -3.23436e-20)
(0.177258 -0.0140423 5.39254e-20)
(0.202534 -0.050914 0)
(0.203634 -0.0555623 -1.45331e-20)
(0.0921974 0.175914 -1.43772e-19)
(0.108834 0.183223 1.74124e-19)
(0.0952799 0.179528 -5.73973e-19)
(0.103674 0.189388 -1.51149e-19)
(0.110456 0.173469 -3.58771e-19)
(0.120758 0.188808 -1.34732e-19)
(0.126112 0.161367 -1.20775e-19)
(0.138385 0.18212 -1.05387e-19)
(0.139511 0.143718 -1.31723e-19)
(0.152904 0.168877 0)
(0.14995 0.121356 -1.31723e-19)
(0.162757 0.148765 -1.53424e-20)
(0.157637 0.0958875 6.57327e-20)
(0.168764 0.1232 -1.02326e-19)
(0.163493 0.0683768 -6.46619e-20)
(0.173674 0.0948175 -2.09187e-19)
(0.170562 0.0376379 5.69986e-20)
(0.178433 0.063443 -1.88822e-20)
(0.184458 0.00126517 2.77857e-19)
(0.186374 0.0246935 1.35406e-19)
(0.205776 -0.0394392 8.82541e-20)
(0.202505 -0.0207664 8.93878e-20)
(0.223115 -0.063749 0)
(0.226068 -0.0734333 1.0421e-20)
(0.11508 0.188924 1.88321e-19)
(0.127652 0.192224 -4.23776e-21)
(0.128769 0.195881 2.9188e-19)
(0.13584 0.200858 1.02197e-19)
(0.148385 0.194763 1.16563e-19)
(0.158639 0.205211 1.04794e-19)
(0.165123 0.187479 1.30045e-20)
(0.178282 0.204774 2.56093e-20)
(0.177157 0.172889 1.16103e-19)
(0.192258 0.197411 1.58994e-19)
(0.184241 0.150846 1.24449e-20)
(0.199498 0.181174 1.90251e-19)
(0.187514 0.122739 -3.82358e-19)
(0.201345 0.15587 -9.33025e-20)
(0.189729 0.0898171 -1.63281e-19)
(0.201128 0.123439 -1.88335e-19)
(0.195225 0.0501008 6.00918e-20)
(0.201196 0.0843774 1.16028e-19)
(0.207424 0.00258295 -5.45686e-20)
(0.205873 0.0348452 -9.09714e-20)
(0.222901 -0.0453864 0)
(0.218029 -0.020225 3.30513e-20)
(0.229751 -0.0660334 0)
(0.23278 -0.079724 0)
(0.144864 0.196588 -8.77697e-20)
(0.151472 0.194363 -1.38215e-19)
(0.166573 0.2068 -8.34808e-20)
(0.171172 0.205378 -1.47888e-19)
(0.189324 0.211599 5.28015e-21)
(0.196551 0.213637 6.14244e-20)
(0.206434 0.211439 1.62722e-19)
(0.215994 0.219452 5.3389e-21)
(0.216397 0.203544 2.35413e-19)
(0.227746 0.219921 2.231e-19)
(0.219466 0.185526 7.91215e-20)
(0.232209 0.211767 -7.15235e-22)
(0.2174 0.156457 9.98687e-20)
(0.231156 0.192119 -5.02412e-20)
(0.213891 0.117157 9.23839e-20)
(0.226583 0.159191 -4.57235e-21)
(0.214957 0.0679532 -3.61836e-20)
(0.220664 0.111763 5.89423e-21)
(0.22127 0.011008 2.2954e-21)
(0.217973 0.0517357 3.95604e-20)
(0.227478 -0.0420204 3.34502e-20)
(0.222588 -0.011061 1.28663e-20)
(0.224474 -0.0597238 -1.22146e-20)
(0.227419 -0.0767288 1.11775e-20)
(0.175656 0.198586 -1.98396e-19)
(0.175649 0.191936 -1.35603e-19)
(0.201418 0.209311 -6.8628e-21)
(0.201734 0.202346 -1.37563e-20)
(0.223827 0.218112 6.21156e-20)
(0.224341 0.210397 1.21301e-20)
(0.238526 0.224606 6.10769e-20)
(0.237932 0.218339 9.59134e-20)
(0.245653 0.225432 -7.23156e-21)
(0.243253 0.2239 1.68552e-20)
(0.246461 0.216383 -1.27986e-19)
(0.243741 0.224284 -1.08798e-19)
(0.242311 0.193245 -1.57547e-19)
(0.242344 0.215326 -5.90696e-20)
(0.23515 0.152733 -9.08362e-20)
(0.239603 0.191594 -4.96023e-20)
(0.228459 0.0944808 9.23057e-20)
(0.23404 0.146655 3.22232e-20)
(0.225325 0.0279856 4.98358e-20)
(0.224106 0.0782587 4.51742e-20)
(0.221208 -0.0305815 -3.3544e-20)
(0.218006 0.00686255 -3.18608e-20)
(0.210398 -0.0473831 -7.50213e-21)
(0.213421 -0.0680732 -2.25447e-20)
(0.200741 0.195571 5.16443e-20)
(0.194634 0.189681 -4.38203e-20)
(0.222729 0.201867 6.51691e-21)
(0.219998 0.195904 5.21512e-20)
(0.236571 0.208765 4.57573e-20)
(0.230814 0.197625 -1.3002e-19)
(0.24186 0.216134 5.15927e-20)
(0.229988 0.20057 -4.01644e-20)
(0.242327 0.22156 -8.52801e-20)
(0.223264 0.204413 4.21514e-20)
(0.241794 0.221363 -3.99484e-20)
(0.217684 0.207613 1.14709e-21)
(0.241704 0.210638 4.25248e-20)
(0.217289 0.206697 0)
(0.240502 0.182714 6.90014e-20)
(0.22188 0.196503 4.29422e-20)
(0.234701 0.129259 -1.4567e-20)
(0.227602 0.169239 2.67365e-20)
(0.223044 0.0561183 -4.95117e-20)
(0.224115 0.111319 -1.51342e-20)
(0.208186 -0.0119277 -7.44206e-21)
(0.210638 0.035175 -1.06616e-20)
(0.193347 -0.0289327 3.78668e-21)
(0.193559 -0.056556 8.11068e-21)
(0.213631 0.195367 -4.42547e-20)
(0.20483 0.189626 -4.46649e-20)
(0.2233 0.191158 -7.91279e-20)
(0.218581 0.190074 0)
(0.219589 0.187487 -2.22236e-19)
(0.209026 0.182395 6.41328e-20)
(0.208896 0.187662 -5.96225e-20)
(0.19049 0.175366 -1.44434e-19)
(0.198997 0.19061 1.30326e-19)
(0.172531 0.172477 1.16381e-19)
(0.195402 0.192673 4.08294e-20)
(0.161881 0.172611 1.61751e-20)
(0.199958 0.190187 0)
(0.161833 0.172266 0)
(0.210643 0.17872 0)
(0.172153 0.167813 4.04946e-21)
(0.220514 0.148999 1.42542e-20)
(0.189503 0.155599 3.08689e-21)
(0.216375 0.0903994 1.42542e-20)
(0.204379 0.125363 1.608e-20)
(0.196737 0.0174484 6.46537e-22)
(0.201911 0.0668144 3.16525e-21)
(0.182024 -0.00126238 -5.72075e-22)
(0.173858 -0.0399942 6.46537e-22)
(0.219791 0.188305 0)
(0.197286 0.190677 -4.04408e-20)
(0.203283 0.174395 1.34208e-19)
(0.183643 0.176567 0)
(0.177053 0.164549 1.34208e-19)
(0.157358 0.160594 7.98997e-20)
(0.152689 0.157738 2.62983e-20)
(0.130857 0.148497 -2.17179e-20)
(0.136116 0.154573 -1.5416e-21)
(0.111871 0.142067 4.7402e-20)
(0.130201 0.153027 -2.52669e-20)
(0.102578 0.139123 -2.54887e-20)
(0.135858 0.150044 4.08734e-21)
(0.104053 0.135996 -1.3462e-20)
(0.151846 0.14316 7.20311e-21)
(0.115917 0.129974 4.02462e-21)
(0.174348 0.129816 5.0447e-21)
(0.136022 0.119686 1.0073e-20)
(0.191747 0.101078 4.6816e-21)
(0.16051 0.10433 -1.93568e-20)
(0.187705 0.0486826 2.56758e-21)
(0.178063 0.075423 8.35987e-21)
(0.173701 0.0264037 2.9004e-21)
(0.164363 -0.0122844 -6.27276e-22)
(0.165985 0.189992 -4.0799e-20)
(0.122197 0.164559 -2.44863e-20)
(0.134348 0.157437 -5.1776e-20)
(0.107979 0.145297 -1.72262e-20)
(0.108281 0.140486 -7.36862e-20)
(0.0910397 0.129018 -1.72725e-20)
(0.0896872 0.131358 -6.72091e-22)
(0.0742537 0.120491 -6.47513e-21)
(0.0789954 0.126497 2.10577e-20)
(0.0635046 0.116814 2.12333e-20)
(0.0773323 0.122897 -1.35813e-20)
(0.0601406 0.114331 -7.45256e-21)
(0.0847319 0.117568 -1.66489e-20)
(0.0647849 0.110195 2.0213e-21)
(0.100051 0.108506 3.92363e-21)
(0.0770801 0.102518 5.69064e-21)
(0.121501 0.0955533 -1.09664e-20)
(0.095124 0.0903295 3.7971e-21)
(0.146173 0.0790833 -1.38496e-20)
(0.116515 0.0746442 -1.03677e-20)
(0.163338 0.0535239 8.74694e-21)
(0.138806 0.057012 1.5879e-20)
(0.158951 0.0130558 -7.50838e-22)
(0.152483 0.0320794 -2.17224e-21)
(0.0986822 0.00431409 -1.81363e-20)
(0.110386 0.00470721 7.76657e-21)
(0.107323 -0.00700643 4.38635e-20)
(0.126855 -0.00687213 -4.44022e-21)
(0.116649 -0.0219956 -1.61306e-21)
(0.142997 -0.0184567 1.57654e-20)
(0.12301 -0.0318914 -4.09886e-20)
(0.155039 -0.0252187 -7.62578e-21)
(0.12433 -0.0337352 -7.0168e-20)
(0.160289 -0.026588 -1.43261e-20)
(0.120066 -0.0319426 -1.17772e-19)
(0.159166 -0.0257357 -7.38304e-20)
(0.109069 -0.0311953 4.88448e-20)
(0.153636 -0.0232397 -7.17827e-20)
(0.0958475 -0.034925 -1.84831e-19)
(0.140997 -0.0283749 3.16093e-19)
(0.0853428 -0.0451147 -6.53046e-20)
(0.123012 -0.0415654 -6.20619e-19)
(0.0815819 -0.0624222 4.83118e-19)
(0.102604 -0.0611017 2.43804e-19)
(0.0866838 -0.0820285 -2.33606e-20)
(0.0883118 -0.0824641 2.48298e-19)
(0.090067 -0.0947143 -2.5397e-19)
(0.140503 -0.0140155 2.13065e-20)
(0.152449 -0.0240036 2.71626e-20)
(0.164564 -0.0279959 -3.19091e-20)
(0.17877 -0.0408643 -2.21696e-20)
(0.182606 -0.0322472 1.0075e-20)
(0.199361 -0.0475703 -1.04332e-20)
(0.193174 -0.0290534 2.01741e-20)
(0.213432 -0.0455239 2.7862e-20)
(0.196576 -0.0244688 -1.88434e-20)
(0.221919 -0.0388782 -1.52098e-20)
(0.192624 -0.0219307 -2.19821e-20)
(0.225285 -0.0315219 1.26264e-20)
(0.182406 -0.0241797 2.00865e-19)
(0.223167 -0.0267464 -6.93891e-20)
(0.163576 -0.0344283 -1.04969e-19)
(0.212709 -0.0288928 5.59894e-20)
(0.138003 -0.0546317 -3.22464e-19)
(0.190393 -0.043077 -6.10707e-21)
(0.113122 -0.0816991 0)
(0.154737 -0.0695131 0)
(0.100896 -0.103505 0)
(0.114813 -0.0987598 -9.71072e-20)
(0.0964079 -0.111605 2.82802e-19)
(0.192658 -0.0483324 -1.84297e-20)
(0.197262 -0.0554643 -3.3022e-20)
(0.215019 -0.0584155 0)
(0.220084 -0.0699222 2.65162e-20)
(0.231314 -0.0582077 7.47553e-21)
(0.235863 -0.0713938 0)
(0.243674 -0.0523069 -7.99294e-21)
(0.248333 -0.0653396 -1.10305e-20)
(0.252656 -0.0433548 1.90184e-20)
(0.259637 -0.0553305 -2.07255e-21)
(0.256612 -0.0342872 -3.41785e-20)
(0.269519 -0.0436383 3.50109e-20)
(0.252471 -0.0300963 -2.22666e-19)
(0.27579 -0.0335768 -9.76746e-20)
(0.235775 -0.0362023 1.63735e-19)
(0.27423 -0.0293803 -1.00397e-19)
(0.203246 -0.0563551 3.25783e-19)
(0.257447 -0.0371791 7.19789e-20)
(0.159536 -0.0877289 -9.87587e-20)
(0.218441 -0.0616095 1.38015e-19)
(0.124798 -0.113677 1.88853e-19)
(0.160023 -0.0968585 -1.43167e-20)
(0.11327 -0.11666 2.06001e-19)
(0.225988 -0.0757165 1.25826e-20)
(0.22531 -0.0782343 -4.35313e-21)
(0.241153 -0.0814292 2.69253e-20)
(0.23855 -0.0884928 9.98135e-21)
(0.253032 -0.0773889 -1.91035e-20)
(0.246939 -0.087213 5.4182e-21)
(0.264657 -0.067948 -5.16723e-21)
(0.255192 -0.080312 -8.24839e-21)
(0.276983 -0.0558132 1.39363e-20)
(0.265585 -0.0701229 1.41303e-20)
(0.288981 -0.0435377 -2.89759e-20)
(0.279031 -0.0579233 2.36487e-20)
(0.29682 -0.0338725 2.73092e-20)
(0.294104 -0.045243 2.18841e-20)
(0.293374 -0.0315703 -2.01524e-19)
(0.305992 -0.0346667 9.37363e-21)
(0.268908 -0.0432036 -1.24797e-19)
(0.305562 -0.0317699 -1.0232e-19)
(0.218587 -0.0718521 2.26227e-19)
(0.279716 -0.04516 8.72913e-20)
(0.159168 -0.10651 -1.46538e-21)
(0.219181 -0.0797082 7.93109e-20)
(0.142939 -0.116783 -8.49077e-20)
(0.237954 -0.090705 -6.90011e-21)
(0.235073 -0.0888017 1.05549e-20)
(0.243883 -0.0935637 -1.2143e-20)
(0.238229 -0.0955703 -3.21208e-20)
(0.248835 -0.089011 1.72828e-20)
(0.239489 -0.0932609 9.07333e-21)
(0.256093 -0.0811054 1.17881e-20)
(0.242735 -0.0876513 1.19396e-20)
(0.267736 -0.0710872 2.39825e-20)
(0.249985 -0.0805149 4.22029e-20)
(0.284217 -0.0589723 7.59696e-20)
(0.262662 -0.0715857 -4.17626e-20)
(0.302986 -0.0457293 3.59837e-21)
(0.281209 -0.0600281 4.90938e-20)
(0.31741 -0.0349946 1.11609e-19)
(0.302985 -0.046524 -5.34196e-21)
(0.314743 -0.0341229 1.05973e-19)
(0.320629 -0.0344339 1.20083e-19)
(0.278324 -0.0527921 -6.36601e-20)
(0.319566 -0.0325641 -1.05509e-19)
(0.206342 -0.0922735 -8.02561e-21)
(0.279796 -0.0562555 -1.19241e-19)
(0.191803 -0.109425 1.32041e-19)
(0.234636 -0.094259 -1.4361e-20)
(0.231197 -0.0891878 1.10442e-20)
(0.233145 -0.0958335 -1.08822e-20)
(0.227077 -0.0944438 -1.45322e-20)
(0.232806 -0.0924684 3.5537e-21)
(0.223818 -0.0928312 4.64172e-21)
(0.236144 -0.087594 4.27521e-20)
(0.223876 -0.0897621 0)
(0.244625 -0.081432 -2.4093e-20)
(0.228475 -0.086244 4.32619e-20)
(0.259209 -0.0727702 -7.0428e-20)
(0.238281 -0.0810887 -6.76174e-20)
(0.280329 -0.060552 4.01807e-20)
(0.254246 -0.0726879 -4.53582e-21)
(0.305628 -0.0457401 1.71973e-21)
(0.276963 -0.0602185 4.43736e-20)
(0.325872 -0.0338204 -9.09953e-20)
(0.303487 -0.0443306 -1.45002e-21)
(0.319441 -0.0372921 -1.5266e-19)
(0.3244 -0.0299731 -1.28093e-19)
(0.259432 -0.0714926 2.23356e-20)
(0.319755 -0.035539 -2.83794e-20)
(0.250344 -0.0905342 3.21584e-20)
(0.222453 -0.0904018 1.11775e-20)
(0.218321 -0.0835736 6.973e-22)
(0.217147 -0.0924491 1.01822e-21)
(0.210637 -0.0896583 0)
(0.214407 -0.0912594 1.01822e-21)
(0.205934 -0.0898549 1.02956e-21)
(0.215649 -0.0895859 0)
(0.20479 -0.0896143 0)
(0.221564 -0.0868145 0)
(0.207621 -0.0892135 0)
(0.232622 -0.0813286 -9.3903e-22)
(0.214872 -0.0867353 0)
(0.249609 -0.0718932 -6.24872e-22)
(0.227237 -0.0804187 3.51494e-20)
(0.273795 -0.0578873 4.28059e-20)
(0.2459 -0.0697936 7.33029e-20)
(0.304156 -0.0406904 -3.67891e-20)
(0.270953 -0.0548706 -2.41323e-20)
(0.326793 -0.0292047 6.67003e-21)
(0.299668 -0.0353929 -1.52253e-19)
(0.300131 -0.0482999 -1.90502e-20)
(0.326261 -0.0240587 7.12036e-21)
(0.298209 -0.0644165 -2.41214e-20)
(0.205044 -0.0837329 -1.01927e-20)
(0.199228 -0.075545 -2.30543e-21)
(0.199097 -0.0877389 0)
(0.190645 -0.0846586 0)
(0.19617 -0.0888919 0)
(0.186896 -0.0868502 3.89368e-21)
(0.19635 -0.0899052 0)
(0.186201 -0.0885409 -3.96824e-21)
(0.200133 -0.0896741 0)
(0.187887 -0.0901816 -1.83548e-20)
(0.208441 -0.0861257 3.6505e-20)
(0.19274 -0.0896257 0)
(0.222124 -0.0781054 1.12549e-19)
(0.202063 -0.0847641 9.02903e-21)
(0.241779 -0.0659123 8.04966e-21)
(0.217176 -0.0750012 3.848e-20)
(0.269288 -0.0492394 -1.46709e-19)
(0.238999 -0.06151 6.34147e-20)
(0.304029 -0.0296986 -1.44704e-19)
(0.265303 -0.0426413 -1.33879e-19)
(0.314874 -0.0313874 -2.18542e-20)
(0.30572 -0.0243386 -1.36375e-19)
(0.32072 -0.0425833 1.36505e-19)
(0.183156 -0.0772663 8.07779e-21)
(0.176583 -0.0661159 8.15708e-21)
(0.178279 -0.0841575 3.93472e-21)
(0.166594 -0.0810638 0)
(0.176999 -0.0868446 -1.63001e-22)
(0.164334 -0.0854926 3.97334e-21)
(0.177457 -0.0891719 -2.25584e-20)
(0.165729 -0.0876335 1.21043e-21)
(0.179626 -0.090446 -1.85483e-20)
(0.167989 -0.0895911 -1.87152e-21)
(0.185004 -0.0885357 -2.81504e-20)
(0.171413 -0.0898354 -1.65492e-20)
(0.195729 -0.0819733 -6.53636e-20)
(0.177909 -0.0863555 -2.84267e-20)
(0.213331 -0.0709967 9.71862e-20)
(0.189641 -0.0781932 -3.26986e-20)
(0.237872 -0.0562194 6.29349e-20)
(0.209253 -0.065864 8.60391e-20)
(0.270968 -0.0370965 -1.25347e-19)
(0.234216 -0.0487365 -1.51902e-19)
(0.304903 -0.0269619 -2.07861e-20)
(0.27629 -0.0333073 -6.41785e-20)
(0.315671 -0.0352126 6.08112e-20)
(0.158154 -0.0709823 0)
(0.157829 -0.0511848 0)
(0.152317 -0.0828192 0)
(0.141388 -0.0767364 -5.98602e-22)
(0.153099 -0.0864364 5.312e-21)
(0.136397 -0.0859502 -2.49629e-22)
(0.156038 -0.088211 2.21118e-20)
(0.138821 -0.0883229 5.37244e-21)
(0.159032 -0.0892329 8.65575e-23)
(0.143412 -0.0888848 1.21411e-20)
(0.162959 -0.0880118 -1.67132e-20)
(0.148031 -0.0881955 -1.46191e-20)
(0.170422 -0.0830937 4.00358e-21)
(0.153671 -0.0850034 4.71653e-20)
(0.184444 -0.0742367 -4.39266e-20)
(0.162711 -0.0784078 -7.02419e-21)
(0.207755 -0.0619867 -1.39265e-19)
(0.17878 -0.0688362 -4.97037e-20)
(0.240579 -0.0479098 -8.57685e-20)
(0.202758 -0.055456 -1.29732e-20)
(0.281763 -0.0373002 -1.07897e-20)
(0.245852 -0.0461458 -3.14445e-20)
(0.28893 -0.0441019 -7.88512e-22)
(0.1394 -0.0575407 -6.04203e-22)
(0.150655 -0.0265716 -3.32722e-21)
(0.124794 -0.0804368 -8.56167e-22)
(0.125424 -0.0644142 -9.3737e-23)
(0.12187 -0.0879586 -3.02325e-22)
(0.110022 -0.0833792 6.54795e-25)
(0.125899 -0.0887998 -4.85642e-21)
(0.106206 -0.0893184 -3.29152e-21)
(0.131849 -0.0875948 -2.49851e-21)
(0.10967 -0.0889369 -1.62556e-21)
(0.137692 -0.0850467 4.99675e-20)
(0.115855 -0.0858971 -5.7403e-21)
(0.144555 -0.0804262 3.63552e-20)
(0.122924 -0.0811064 -1.71254e-21)
(0.155422 -0.0736279 -1.24102e-20)
(0.131619 -0.0746267 4.575e-20)
(0.17435 -0.065654 7.16581e-20)
(0.144895 -0.0674031 -2.94483e-20)
(0.206126 -0.0593695 3.93441e-20)
(0.164971 -0.0602258 5.12816e-20)
(0.250017 -0.0618118 -3.13597e-20)
(0.204839 -0.05985 -1.04822e-20)
(0.240561 -0.0641291 0)
(0.135738 -0.0327188 -2.77895e-21)
(0.146124 -0.00418296 -1.08392e-20)
(0.110015 -0.067394 8.1277e-22)
(0.123539 -0.0425939 5.82564e-22)
(0.0938308 -0.0849703 -3.0344e-21)
(0.0984266 -0.0706747 2.36984e-22)
(0.0894409 -0.089307 -1.64561e-22)
(0.0813167 -0.0843537 -3.2967e-21)
(0.0931004 -0.0866532 -4.30921e-21)
(0.074777 -0.0867048 3.33309e-21)
(0.100323 -0.0811378 -5.89075e-20)
(0.0762391 -0.0824936 1.82982e-20)
(0.108918 -0.0744804 8.14864e-21)
(0.0823224 -0.0751955 -2.21624e-20)
(0.11946 -0.0676877 3.28484e-20)
(0.0911966 -0.066987 5.99372e-20)
(0.134451 -0.0627737 -5.09009e-20)
(0.103246 -0.0599663 -8.12401e-21)
(0.158956 -0.0648875 -8.07717e-21)
(0.118979 -0.0573323 -4.38681e-20)
(0.199622 -0.0895397 2.13402e-20)
(0.141914 -0.0666763 2.15182e-20)
(0.152034 -0.0918405 -1.15084e-20)
(-0.0968747 0.0918099 5.40212e-20)
(-0.111039 0.0856863 0)
(-0.0883932 0.0882303 -9.93616e-20)
(-0.109632 0.0784836 5.50257e-20)
(-0.0768384 0.0807707 -1.53383e-19)
(-0.101552 0.070541 -5.8202e-20)
(-0.0636726 0.0738051 1.9763e-19)
(-0.0881695 0.0654397 0)
(-0.0507605 0.0690339 2.99072e-19)
(-0.0727711 0.0630596 1.17658e-19)
(-0.0392785 0.0671976 -9.39657e-20)
(-0.0575566 0.0631289 -1.57176e-19)
(-0.0297754 0.0685952 -4.37476e-19)
(-0.0436334 0.0655698 -2.83838e-20)
(-0.0223323 0.0726126 -9.55468e-20)
(-0.0322785 0.0698478 -3.3497e-20)
(-0.0169762 0.0782333 2.44405e-19)
(-0.0237854 0.0758805 1.49886e-19)
(-0.0133329 0.0841062 -7.45826e-20)
(-0.0183255 0.0829369 -1.09649e-19)
(-0.0109138 0.0890283 -1.95898e-19)
(-0.0150896 0.0901834 -1.28881e-19)
(-0.0117327 0.0983596 -4.19042e-20)
(-0.00895274 0.0931319 -7.41078e-20)
(-0.122741 0.0780393 0)
(-0.127637 0.0891031 7.88785e-20)
(-0.119 0.0656898 8.73975e-20)
(-0.129909 0.0723663 0)
(-0.108531 0.0582189 8.73975e-20)
(-0.123065 0.0626909 8.8859e-20)
(-0.093673 0.0561394 -8.52321e-20)
(-0.109524 0.0614297 0)
(-0.0769744 0.0579591 -3.43293e-19)
(-0.0924848 0.0650093 6.12881e-20)
(-0.060316 0.0622317 -8.59321e-20)
(-0.0741366 0.0707734 -4.19486e-19)
(-0.0449971 0.0677732 3.89374e-19)
(-0.056116 0.0773627 1.75351e-19)
(-0.0321702 0.0744666 2.13821e-19)
(-0.0393029 0.0846422 4.62604e-19)
(-0.0226306 0.0821752 -2.16662e-19)
(-0.0250226 0.092666 -3.59282e-19)
(-0.0164997 0.0904789 -1.6996e-19)
(-0.0148845 0.101359 5.02927e-20)
(-0.0114963 0.100916 2.31451e-20)
(-0.00656514 0.111931 -3.28373e-20)
(0.00545664 0.1281 8.66457e-20)
(-0.00195165 0.117282 -1.98602e-20)
(-0.137692 0.0798392 8.022e-20)
(-0.147283 0.0912314 1.50512e-19)
(-0.136732 0.0640861 0)
(-0.152162 0.0707437 0)
(-0.127298 0.0611435 0)
(-0.145841 0.0676971 0)
(-0.112094 0.0661863 1.59247e-19)
(-0.132814 0.0744535 -6.72828e-20)
(-0.0937221 0.0745385 9.06266e-22)
(-0.115558 0.0845347 2.333e-19)
(-0.0738127 0.0838539 -1.59782e-19)
(-0.0956544 0.0948638 -1.6221e-19)
(-0.0538379 0.0933752 2.46186e-19)
(-0.0742055 0.104476 0)
(-0.035901 0.102626 -1.16349e-19)
(-0.0524033 0.113398 3.24804e-19)
(-0.021416 0.111425 -8.43324e-20)
(-0.0327153 0.122015 -2.9679e-19)
(-0.00919423 0.121992 1.97403e-19)
(-0.0154487 0.131536 1.37157e-19)
(0.00596248 0.138896 3.47427e-20)
(0.00354467 0.145494 -7.90469e-20)
(0.0292094 0.168854 1.43834e-19)
(0.0276554 0.164769 3.76046e-20)
(-0.159072 0.0799685 6.80226e-20)
(-0.167259 0.0971218 1.73189e-19)
(-0.160264 0.07147 0)
(-0.172764 0.0808144 -1.06297e-19)
(-0.151508 0.0788303 -6.83209e-20)
(-0.168307 0.0885788 1.12441e-19)
(-0.136866 0.0913782 6.15159e-21)
(-0.157355 0.102417 -5.24782e-21)
(-0.118316 0.10423 7.44725e-20)
(-0.141165 0.11614 -5.03197e-20)
(-0.0970846 0.115807 0)
(-0.120488 0.127645 2.67108e-19)
(-0.0741499 0.125699 7.49545e-20)
(-0.0967835 0.136811 -1.3819e-19)
(-0.0508151 0.133974 1.43954e-19)
(-0.0715999 0.144627 7.5998e-20)
(-0.0282073 0.142206 -7.23166e-20)
(-0.0461001 0.151876 2.01053e-19)
(-0.00428481 0.155003 -1.44156e-19)
(-0.0186747 0.161057 -2.13472e-19)
(0.0251064 0.176757 2.99725e-20)
(0.0141504 0.177433 0)
(0.0510456 0.20279 -1.93135e-20)
(0.0556526 0.203903 2.99725e-20)
(-0.17588 0.092214 -2.10631e-21)
(-0.183207 0.10888 8.89401e-21)
(-0.179496 0.0952527 6.23071e-21)
(-0.189368 0.103646 8.02414e-20)
(-0.173428 0.110412 1.79753e-19)
(-0.188772 0.120689 9.02493e-21)
(-0.161309 0.126068 -6.18798e-20)
(-0.182061 0.138305 6.65697e-20)
(-0.143645 0.139475 1.43273e-19)
(-0.168793 0.152821 1.88856e-19)
(-0.121271 0.14993 1.27314e-19)
(-0.148659 0.162681 1.56836e-19)
(-0.0957849 0.157631 -1.40141e-19)
(-0.123064 0.168708 -1.51044e-19)
(-0.0682711 0.163536 1.30342e-19)
(-0.0946353 0.17367 0)
(-0.037521 0.170634 6.25109e-20)
(-0.0632996 0.178446 1.89838e-19)
(-0.00112504 0.184598 -6.82596e-20)
(-0.0245331 0.186443 -2.26487e-19)
(0.0395909 0.205987 -5.03975e-20)
(0.0209612 0.202664 -3.8817e-20)
(0.0638862 0.223315 -2.92477e-20)
(0.0734989 0.22626 -5.03975e-20)
(-0.188905 0.115049 9.00553e-20)
(-0.192237 0.127668 -2.51106e-19)
(-0.195856 0.128685 8.49039e-20)
(-0.200854 0.135767 1.02382e-19)
(-0.194717 0.148279 -1.03726e-19)
(-0.205194 0.158539 -1.04963e-19)
(-0.187402 0.165006 3.18415e-19)
(-0.204728 0.178168 0)
(-0.172776 0.17704 2.03577e-19)
(-0.19732 0.192126 3.08631e-19)
(-0.150701 0.18414 -1.29143e-19)
(-0.181025 0.199347 -2.70382e-19)
(-0.122574 0.187444 -9.22098e-21)
(-0.155657 0.201191 -1.03131e-19)
(-0.0896334 0.18968 5.85742e-20)
(-0.12319 0.201007 8.05365e-20)
(-0.0499018 0.195238 -1.02127e-19)
(-0.0841382 0.201133 -5.78717e-20)
(-0.00236232 0.207521 -1.97743e-19)
(-0.0345826 0.205893 -8.18675e-20)
(0.0455682 0.223045 -1.77129e-20)
(0.0204935 0.218143 -1.24534e-21)
(0.0661708 0.229879 4.43126e-20)
(0.0797556 0.232885 2.16092e-20)
(-0.196592 0.144803 -2.36812e-19)
(-0.194399 0.151459 -1.49647e-19)
(-0.206804 0.166469 -8.36297e-20)
(-0.205407 0.171089 -1.43331e-19)
(-0.21159 0.189207 0)
(-0.213679 0.196483 -5.80812e-20)
(-0.211396 0.206299 -6.63713e-21)
(-0.219501 0.215933 0)
(-0.20344 0.216229 -1.61119e-19)
(-0.219946 0.227656 5.37876e-20)
(-0.185335 0.219268 -2.46044e-19)
(-0.21171 0.232064 -9.0213e-20)
(-0.156185 0.217206 -9.2196e-21)
(-0.191925 0.230959 -9.17377e-20)
(-0.116854 0.213745 -4.0492e-20)
(-0.158861 0.226368 8.24155e-20)
(-0.0676509 0.2149 -3.41729e-20)
(-0.111387 0.220492 -7.88842e-20)
(-0.0107053 0.221302 1.15926e-19)
(-0.051362 0.217935 1.03327e-19)
(0.0422387 0.227552 5.92534e-20)
(0.011407 0.222655 1.45967e-21)
(0.059891 0.224558 5.08417e-22)
(0.0767547 0.227479 3.39307e-20)
(-0.198599 0.175604 -5.53486e-20)
(-0.191993 0.175627 -1.01402e-19)
(-0.209359 0.20138 -1.18167e-19)
(-0.202389 0.20171 4.4759e-20)
(-0.218196 0.223829 -5.87348e-20)
(-0.210501 0.22441 -4.6399e-21)
(-0.224712 0.238531 6.11794e-20)
(-0.21853 0.238058 0)
(-0.225505 0.245605 1.21495e-19)
(-0.224142 0.243351 6.18175e-20)
(-0.216339 0.246325 6.01056e-20)
(-0.224497 0.243763 5.58848e-21)
(-0.193018 0.242095 0)
(-0.215389 0.242282 0)
(-0.15234 0.234904 4.37529e-20)
(-0.191408 0.239464 0)
(-0.0940453 0.228313 6.70673e-20)
(-0.146189 0.233847 -1.09477e-21)
(-0.0275819 0.225294 -1.85084e-20)
(-0.0777328 0.223975 1.24242e-20)
(0.0308657 0.221249 -5.68369e-20)
(-0.0064063 0.218026 -9.0302e-21)
(0.0476213 0.210478 -2.57102e-20)
(0.0681371 0.213493 -3.78252e-20)
(-0.195607 0.200743 3.65511e-21)
(-0.189723 0.194638 -1.5165e-19)
(-0.201941 0.222825 1.6329e-19)
(-0.195906 0.220051 1.0841e-19)
(-0.208949 0.236787 5.59338e-20)
(-0.197713 0.231078 -2.22518e-20)
(-0.216448 0.242113 0)
(-0.200824 0.230345 0)
(-0.22194 0.242537 -5.1325e-20)
(-0.204803 0.223565 0)
(-0.221676 0.241914 -5.1325e-20)
(-0.208076 0.217901 -5.18287e-20)
(-0.210738 0.241718 0)
(-0.207102 0.21746 0)
(-0.182496 0.240406 -3.95777e-20)
(-0.196693 0.222019 -1.2565e-20)
(-0.128741 0.234516 -5.08284e-20)
(-0.169066 0.227651 -3.18747e-20)
(-0.0555453 0.222937 1.93081e-20)
(-0.110755 0.224033 -1.96107e-20)
(0.0123243 0.208207 2.001e-20)
(-0.0345473 0.210602 2.26695e-20)
(0.0293029 0.193419 2.68652e-21)
(0.0566963 0.193673 1.51326e-21)
(-0.195341 0.213683 -4.43998e-20)
(-0.189579 0.20478 -4.48113e-20)
(-0.19116 0.223508 -7.9515e-20)
(-0.19 0.218714 5.79189e-20)
(-0.187658 0.219978 -7.9515e-20)
(-0.182372 0.209478 4.4086e-21)
(-0.188048 0.20931 0)
(-0.175516 0.190935 5.93596e-20)
(-0.191136 0.199345 0)
(-0.17282 0.172814 2.61349e-20)
(-0.193228 0.195708 0)
(-0.173093 0.162095 -2.51051e-20)
(-0.190639 0.200258 -1.26895e-20)
(-0.172781 0.1621 0)
(-0.178925 0.210912 -4.51782e-21)
(-0.168248 0.172526 -6.21076e-23)
(-0.148787 0.220657 -2.60636e-21)
(-0.155836 0.189929 1.13748e-20)
(-0.089806 0.216356 -1.05202e-20)
(-0.125177 0.204681 -1.46732e-20)
(-0.0168589 0.196725 3.98102e-21)
(-0.0662146 0.201999 1.18132e-20)
(0.00179999 0.182077 7.38433e-21)
(0.0402846 0.173977 6.25753e-21)
(-0.188207 0.21982 5.84608e-20)
(-0.190567 0.19713 2.5451e-20)
(-0.174245 0.203598 1.32925e-19)
(-0.176492 0.183942 -2.40233e-20)
(-0.164523 0.177541 1.34379e-19)
(-0.160358 0.157835 7.51181e-20)
(-0.157867 0.153025 8.62943e-20)
(-0.148466 0.131081 4.82765e-20)
(-0.154904 0.13633 -1.66675e-21)
(-0.142214 0.111935 2.6611e-20)
(-0.153474 0.130429 -2.534e-20)
(-0.139422 0.102632 -1.40772e-20)
(-0.150499 0.136211 1.09753e-20)
(-0.13636 0.104245 -1.1385e-20)
(-0.143544 0.152353 1.41318e-20)
(-0.130321 0.116312 1.28393e-20)
(-0.130022 0.174929 -3.04938e-21)
(-0.119984 0.136599 6.97058e-21)
(-0.100896 0.192169 8.19913e-21)
(-0.1045 0.161169 -6.37877e-21)
(-0.0481518 0.187851 1.53142e-20)
(-0.0752311 0.178542 6.10126e-21)
(-0.0259256 0.17392 -9.34639e-21)
(0.0127488 0.164463 5.59227e-22)
(-0.189867 0.166151 -7.54135e-20)
(-0.16471 0.122257 -1.22108e-20)
(-0.157261 0.13473 -7.68615e-20)
(-0.145335 0.108488 -7.75025e-20)
(-0.140267 0.108446 -7.34971e-21)
(-0.12881 0.0913323 3.61391e-20)
(-0.131285 0.0896947 -7.34971e-21)
(-0.120337 0.0743074 -5.65427e-20)
(-0.126597 0.0789596 1.1587e-20)
(-0.116801 0.0634516 -3.60421e-21)
(-0.123119 0.0773921 -2.48099e-21)
(-0.114442 0.0601229 -6.82892e-22)
(-0.117826 0.0849718 -9.70247e-21)
(-0.110364 0.0649131 -4.21348e-21)
(-0.108743 0.100494 8.21624e-21)
(-0.102675 0.0773946 1.79824e-21)
(-0.0957637 0.122134 3.81983e-21)
(-0.0904491 0.0956075 1.77686e-21)
(-0.0791979 0.1469 -8.58963e-21)
(-0.074758 0.117146 -7.64361e-21)
(-0.0533631 0.163901 -1.85879e-20)
(-0.0570599 0.139493 -8.66127e-21)
(-0.0126794 0.159262 -1.2826e-20)
(-0.0318919 0.153001 -9.49284e-21)
(-0.00434337 0.0987193 -1.20776e-20)
(-0.00471555 0.110496 -5.08851e-20)
(0.00703109 0.107382 5.02115e-20)
(0.00689647 0.126997 3.86507e-20)
(0.0220564 0.116722 1.22208e-20)
(0.0184868 0.143146 1.44707e-20)
(0.0319375 0.123085 -2.67392e-20)
(0.0252347 0.155176 0)
(0.0337516 0.124401 -8.2874e-20)
(0.0265922 0.160407 -8.49218e-20)
(0.0319394 0.120114 -5.61348e-20)
(0.0257117 0.15927 4.90751e-20)
(0.0311851 0.109094 -2.93279e-19)
(0.023217 0.153714 0)
(0.0349129 0.0958533 2.27575e-19)
(0.0283546 0.141042 -4.56986e-20)
(0.0451046 0.0853373 2.98272e-19)
(0.0415529 0.123027 3.30826e-19)
(0.0624174 0.0815737 -3.00812e-19)
(0.0610981 0.102598 -2.43948e-19)
(0.0820293 0.0866759 2.29138e-21)
(0.0824637 0.0883001 -6.24571e-20)
(0.094719 0.0900551 2.84733e-19)
(0.0140764 0.140724 0)
(0.0240613 0.152695 -7.17791e-20)
(0.0280449 0.164798 1.91409e-21)
(0.0409068 0.179027 -2.38198e-22)
(0.0322485 0.182816 1.91409e-21)
(0.047563 0.199587 8.7509e-21)
(0.0290363 0.193355 -6.23866e-20)
(0.0454955 0.213625 0)
(0.0244502 0.196728 4.49487e-20)
(0.0388415 0.222085 -6.34299e-20)
(0.0219048 0.192758 1.06409e-19)
(0.0314756 0.225435 1.75524e-19)
(0.0241476 0.182506 2.54561e-19)
(0.026684 0.223303 -3.31599e-20)