/*--------------------------------*- C++ -*----------------------------------*\
| =========                 |                                                 |
| \\      /  F ield         | OpenFOAM: The Open Source CFD Toolbox           |
|  \\    /   O peration     | Version:  2.3.1                                 |
|   \\  /    A nd           | Web:      www.OpenFOAM.org                      |
|    \\/     M anipulation  |                                                 |
\*---------------------------------------------------------------------------*/
FoamFile
{
    version     2.0;
    format      ascii;
    class       surfaceScalarField;
    location    "300";
    object      phi;
}
// * * * * * * * * * * * * * * * * * * * * * * * * * * * * * * * * * * * * * //

dimensions      [0 3 -1 0 0 0 0];

internalField   nonuniform List<scalar> 
21254
(
-0.270025
0.288932
-0.0189064
0.31039
-0.0214588
0.328196
-0.0178053
0.343754
-0.0155582
0.358305
-0.0145509
0.369386
-0.0110814
0.377664
-0.00827767
0.384028
-0.00636361
0.387519
-0.00349142
0.389304
-0.00178483
0.389491
-0.000187278
0.387713
0.00177847
0.384602
0.00311103
0.38039
0.00421135
0.375046
0.00534459
0.368918
0.00612747
0.361804
0.00711384
0.353795
0.00800971
0.344699
0.00909559
0.334708
0.00999111
0.323439
0.0112688
0.31144
0.0119993
0.29895
0.0124896
0.287283
0.0116678
0.277652
0.00963094
0.269347
0.00830442
0.261211
0.00813627
0.252923
0.00828824
0.244149
0.00877357
0.234803
0.00934589
0.224857
0.00994622
0.214293
0.0105639
0.203028
0.0112647
0.190797
0.0122314
0.177025
0.0137722
0.16059
0.016435
0.13909
0.0214994
0.107605
0.0314848
0.0904142
0.0171919
-0.247106
-0.0229192
-0.223546
-0.0235602
-0.194046
-0.0294997
-0.161331
-0.0327154
-0.126584
-0.0347466
-0.0902931
-0.036291
-0.053985
-0.0363081
-0.0196264
-0.0343586
0.0115224
-0.0311487
0.0392129
-0.0276905
0.0631416
-0.0239287
0.0836083
-0.0204667
0.10105
-0.0174417
0.115767
-0.0147169
0.128404
-0.0126375
0.139318
-0.0109138
0.149
-0.00968135
0.157707
-0.00870708
0.16576
-0.00805344
0.173303
-0.00754243
0.180517
-0.00721441
0.187412
-0.00689531
0.193935
-0.00652283
0.199489
-0.00555367
0.203889
-0.00440064
0.207405
-0.00351542
0.210034
-0.00262917
0.211889
-0.00185466
0.213002
-0.00111341
0.213401
-0.00039907
0.212964
0.000437312
0.211701
0.00126287
0.20973
0.00197131
0.207145
0.00258443
0.203851
0.00329447
0.199471
0.00438
0.19292
0.00655046
0.179104
0.0138166
0.158523
0.020581
-0.247097
0.268716
-0.0405257
0.290734
-0.0434765
0.31357
-0.0406411
0.334743
-0.0367312
0.355298
-0.0351063
0.374167
-0.0299502
0.390994
-0.0251046
0.406058
-0.0214275
0.418949
-0.0163826
0.429735
-0.0125705
0.438671
-0.00912353
0.446032
-0.00558301
0.451803
-0.00265921
0.455841
0.000172948
0.458018
0.00316725
0.45804
0.00610576
0.455901
0.00925283
0.45179
0.012121
0.445257
0.0156285
0.436678
0.01857
0.425708
0.0222384
0.412716
0.0249913
0.397752
0.0274538
0.381521
0.0278989
0.365334
0.0258178
0.349624
0.0240143
0.334445
0.0233155
0.319972
0.0227616
0.305979
0.0227663
0.292285
0.0230396
0.278656
0.0235751
0.264912
0.0243079
0.250784
0.0253931
0.236028
0.0269874
0.220202
0.0295988
0.202207
0.0344292
0.180646
0.0430604
0.146496
0.0656348
0.104263
0.0594257
-0.22491
-0.0451059
-0.201146
-0.0473247
-0.173271
-0.0573743
-0.143654
-0.0623323
-0.112041
-0.0663598
-0.0788798
-0.0694522
-0.0457191
-0.0694688
-0.0139761
-0.0661017
0.0156724
-0.0607973
0.042487
-0.0545051
0.0659942
-0.0474359
0.0864805
-0.0409531
0.104387
-0.0353481
0.119992
-0.0303222
0.13372
-0.0263652
0.145868
-0.0230621
0.156731
-0.0205442
0.166617
-0.0185925
0.175783
-0.0172199
0.184354
-0.0161139
0.192496
-0.0153562
0.200287
-0.0146861
0.207666
-0.0139012
0.214195
-0.0120831
0.219608
-0.00981361
0.2241
-0.00800737
0.227667
-0.00619667
0.230364
-0.00455085
0.232217
-0.00296702
0.233303
-0.00148527
0.233762
-2.09078e-05
0.233656
0.00136819
0.232867
0.0027609
0.231324
0.00412729
0.228953
0.00566493
0.225512
0.00782181
0.221035
0.0110269
0.21107
0.0237815
0.191919
0.0397323
-0.239555
0.261144
-0.0621149
0.282778
-0.0651102
0.306046
-0.0639093
0.327207
-0.0578922
0.34717
-0.0550694
0.366162
-0.0489424
0.382886
-0.0418281
0.397771
-0.0363133
0.41037
-0.0289813
0.421021
-0.0232216
0.429699
-0.0178016
0.436639
-0.0125227
0.441734
-0.00775439
0.44552
-0.00361316
0.447854
0.000833302
0.449403
0.00455736
0.449764
0.00889145
0.449236
0.0126487
0.447429
0.0174358
0.444234
0.0217648
0.439499
0.0269741
0.433022
0.031468
0.424771
0.0357048
0.414865
0.0378049
0.40388
0.0368029
0.391931
0.035963
0.378959
0.0362872
0.365158
0.0365627
0.350732
0.0371922
0.335791
0.0379804
0.320476
0.0388901
0.304796
0.039988
0.288661
0.0415283
0.271854
0.0437944
0.253931
0.0475216
0.233801
0.0545597
0.210192
0.066669
0.175183
0.100644
0.126086
0.108523
-0.217757
-0.0669041
-0.19369
-0.0713916
-0.164781
-0.0862831
-0.134565
-0.0925486
-0.102852
-0.0980724
-0.0697647
-0.102539
-0.0369357
-0.102298
-0.0061473
-0.09689
0.0224055
-0.08935
0.0484359
-0.0805356
0.0716113
-0.0706113
0.0920966
-0.0614384
0.110178
-0.0534292
0.126123
-0.0462671
0.140248
-0.0404902
0.152871
-0.0356852
0.164253
-0.0319269
0.17466
-0.0289995
0.184304
-0.0268637
0.193353
-0.025163
0.201996
-0.0239985
0.210256
-0.0229463
0.218056
-0.0217015
0.225109
-0.0191357
0.231135
-0.0158405
0.236233
-0.013105
0.24046
-0.0104233
0.243848
-0.00793918
0.246463
-0.00558234
0.248297
-0.00331847
0.249412
-0.00113651
0.249815
0.000965277
0.249541
0.00303525
0.248531
0.0051369
0.246699
0.007497
0.243683
0.0108381
0.239098
0.0156114
0.229389
0.0334912
0.210946
0.0581749
-0.230874
0.253601
-0.0848415
0.276289
-0.0877985
0.301153
-0.0887735
0.323775
-0.080514
0.345584
-0.0768782
0.366365
-0.0697239
0.385352
-0.0608147
0.402315
-0.0532758
0.417501
-0.0441677
0.430698
-0.0364187
0.442015
-0.0291185
0.451478
-0.0219853
0.459138
-0.0154147
0.465036
-0.0095113
0.469431
-0.00356176
0.471925
0.00206398
0.472716
0.00809975
0.471596
0.0137687
0.468944
0.0200878
0.464653
0.0260557
0.458882
0.0327452
0.451871
0.0384797
0.443714
0.0438615
0.434877
0.0466421
0.425738
0.045942
0.416313
0.0453876
0.406202
0.046398
0.395246
0.0475192
0.383273
0.0491653
0.370135
0.0511181
0.35587
0.0531549
0.340506
0.0553524
0.324064
0.0579695
0.306416
0.0614432
0.287266
0.0666714
0.265578
0.076248
0.24002
0.0922267
0.203522
0.137142
0.152705
0.159341
-0.208425
-0.0893529
-0.184257
-0.0955599
-0.154874
-0.115666
-0.124598
-0.122825
-0.0929088
-0.129761
-0.0598236
-0.135625
-0.0272407
-0.134881
0.00309397
-0.127225
0.0309793
-0.117235
0.0564239
-0.10598
0.0791189
-0.0933063
0.0992797
-0.0815992
0.117265
-0.0714143
0.133295
-0.0622971
0.147685
-0.0548801
0.160664
-0.0486646
0.172498
-0.0437615
0.18337
-0.0398711
0.193506
-0.0369992
0.203048
-0.0347059
0.212113
-0.0330628
0.22077
-0.0316038
0.228971
-0.0299023
0.236411
-0.0265759
0.242853
-0.0222821
0.248352
-0.0186048
0.252954
-0.0150251
0.256707
-0.0116919
0.259644
-0.00851915
0.261822
-0.0054962
0.263271
-0.00258564
0.264018
0.000217989
0.264073
0.00298016
0.263427
0.00578291
0.261976
0.00894805
0.259369
0.0134451
0.255065
0.0199157
0.245889
0.0426667
0.227684
0.0763803
-0.226221
0.249733
-0.108353
0.27328
-0.111346
0.299564
-0.115058
0.322942
-0.103892
0.345797
-0.0997329
0.367712
-0.0916384
0.387627
-0.0807303
0.405613
-0.0712614
0.422003
-0.0605584
0.436121
-0.0505363
0.448371
-0.0413682
0.458697
-0.0323112
0.467406
-0.0241245
0.47415
-0.0162546
0.479091
-0.00850316
0.482302
-0.00114649
0.483947
0.00645402
0.484052
0.0136644
0.482356
0.0217836
0.479139
0.0292722
0.474262
0.0376229
0.467879
0.0448619
0.460245
0.0514956
0.451761
0.0551263
0.44299
0.0547127
0.434117
0.0542616
0.424962
0.055553
0.415421
0.0570602
0.405302
0.0592838
0.394391
0.0620293
0.382403
0.0651432
0.369095
0.0686594
0.354265
0.0727999
0.337645
0.0780637
0.318834
0.0854822
0.296912
0.0981699
0.270389
0.118749
0.232812
0.17472
0.181379
0.210773
-0.202718
-0.112856
-0.177838
-0.12044
-0.147193
-0.146311
-0.116099
-0.153919
-0.0837222
-0.162138
-0.0500689
-0.169278
-0.0170931
-0.167856
0.0132283
-0.157546
0.0408051
-0.144812
0.0658865
-0.131062
0.0881745
-0.115594
0.107977
-0.101402
0.125774
-0.0892105
0.141759
-0.0782824
0.156238
-0.069359
0.169468
-0.0618951
0.18162
-0.0559126
0.192867
-0.0511185
0.203398
-0.0475299
0.213349
-0.0446571
0.222817
-0.0425308
0.231844
-0.0406313
0.240404
-0.0384615
0.248231
-0.0344029
0.25507
-0.0291212
0.260948
-0.0244831
0.265898
-0.0199749
0.269971
-0.0157654
0.273197
-0.0117452
0.27561
-0.00790838
0.277251
-0.00422745
0.278175
-0.00070609
0.278387
0.00276872
0.277854
0.00631606
0.276536
0.0102654
0.274071
0.0159109
0.269896
0.0240907
0.261252
0.0513107
0.243647
0.0939848
-0.222386
0.246923
-0.13289
0.271852
-0.136276
0.299541
-0.142746
0.324183
-0.128534
0.348099
-0.123649
0.371465
-0.115004
0.392413
-0.101679
0.411779
-0.0906272
0.429237
-0.0780164
0.444691
-0.0659904
0.458364
-0.0550417
0.470064
-0.0440109
0.480036
-0.0340963
0.488255
-0.0244737
0.494573
-0.0148211
0.499321
-0.00589488
0.502096
0.00367964
0.502991
0.0127696
0.502142
0.0226322
0.499384
0.0320306
0.494785
0.0422219
0.488588
0.0510585
0.48096
0.0591238
0.472336
0.0637496
0.46324
0.0638096
0.453932
0.0635694
0.444363
0.0651214
0.434538
0.0668855
0.424437
0.0693852
0.413949
0.0725169
0.402948
0.0761443
0.391129
0.0804786
0.378143
0.0857855
0.363491
0.0927164
0.346499
0.102474
0.325926
0.118743
0.300089
0.144586
0.262656
0.212153
0.211271
0.262158
-0.197914
-0.137328
-0.172231
-0.146123
-0.140296
-0.178247
-0.108074
-0.186141
-0.0747268
-0.195485
-0.0401964
-0.203808
-0.00654397
-0.201509
0.0240634
-0.188154
0.0516457
-0.172394
0.0765693
-0.155985
0.0985788
-0.137604
0.118062
-0.120885
0.135609
-0.106758
0.151462
-0.0941354
0.165926
-0.0838228
0.179255
-0.0752242
0.191603
-0.0682608
0.203147
-0.0626629
0.214014
-0.058396
0.224323
-0.0549667
0.234166
-0.0523736
0.243567
-0.050032
0.252477
-0.047372
0.260716
-0.0426422
0.267963
-0.0363673
0.274202
-0.0307226
0.279517
-0.0252897
0.283904
-0.0201523
0.287411
-0.0152518
0.290067
-0.0105651
0.291915
-0.00607537
0.292981
-0.00177217
0.29328
0.00246963
0.292835
0.00676156
0.291508
0.0115918
0.289033
0.0183866
0.284758
0.0283657
0.276382
0.0596866
0.259427
0.11094
-0.220062
0.245944
-0.158772
0.271896
-0.162227
0.301168
-0.172018
0.327109
-0.154476
0.352312
-0.148851
0.37677
-0.139463
0.398937
-0.123845
0.419182
-0.110872
0.437743
-0.0965777
0.454187
-0.0824342
0.468736
-0.0695912
0.481546
-0.0568202
0.492476
-0.0450265
0.501591
-0.0335892
0.508961
-0.0221908
0.514386
-0.0113201
0.518056
9.57771e-06
0.51988
0.0109456
0.519882
0.0226302
0.518001
0.0339114
0.514287
0.0459367
0.508806
0.0565394
0.501896
0.0660333
0.493747
0.0718989
0.484877
0.0726793
0.475528
0.0729189
0.465711
0.0749378
0.455469
0.0771274
0.444891
0.0799633
0.43394
0.0834681
0.422608
0.0874765
0.410816
0.0922702
0.39837
0.0982323
0.384829
0.106257
0.36954
0.117763
0.351108
0.137175
0.327458
0.168237
0.292031
0.247579
0.241799
0.312391
-0.194374
-0.163016
-0.167578
-0.172919
-0.134203
-0.211622
-0.100681
-0.219662
-0.0661534
-0.230013
-0.0303982
-0.239563
0.00418874
-0.236096
0.0354063
-0.219371
0.0632913
-0.200279
0.0883152
-0.181009
0.110173
-0.159461
0.12942
-0.140132
0.146734
-0.124071
0.162399
-0.109801
0.176757
-0.0981801
0.190095
-0.0885624
0.202566
-0.0807315
0.214307
-0.0744048
0.225446
-0.0695345
0.236069
-0.0655898
0.246242
-0.0625462
0.255979
-0.0597698
0.26526
-0.0566523
0.273844
-0.0512269
0.2815
-0.0440234
0.28815
-0.0373718
0.293811
-0.0309512
0.298534
-0.0248749
0.30232
-0.0190384
0.305232
-0.013477
0.307272
-0.0081157
0.3085
-0.0030001
0.308929
0.00204102
0.308516
0.0071749
0.307217
0.0128899
0.304678
0.0209257
0.30025
0.0327943
0.291958
0.0679785
0.275591
0.127306
-0.21855
0.245772
-0.185995
0.273178
-0.189633
0.304148
-0.202988
0.331296
-0.181624
0.35781
-0.175365
0.383544
-0.165197
0.406754
-0.147055
0.428266
-0.132383
0.447671
-0.115983
0.465102
-0.0998646
0.480766
-0.085256
0.494492
-0.0705458
0.50636
-0.0568949
0.516491
-0.0437202
0.524814
-0.0305138
0.531285
-0.0177911
0.535932
-0.00463708
0.538706
0.00817168
0.539496
0.0218398
0.538328
0.0350796
0.535303
0.0489618
0.53043
0.0614125
0.523962
0.0725012
0.516261
0.0795996
0.507652
0.0812885
0.498391
0.0821804
0.488536
0.0847925
0.478096
0.0875671
0.467123
0.0909366
0.455687
0.0949044
0.443743
0.0994201
0.431342
0.104671
0.418377
0.111197
0.404709
0.119925
0.389848
0.132624
0.372753
0.15427
0.351509
0.189481
0.31956
0.279527
0.271994
0.359957
-0.191635
-0.189931
-0.163688
-0.200866
-0.128593
-0.246716
-0.0935531
-0.254702
-0.0576085
-0.265957
-0.0204984
-0.276674
0.0152759
-0.27187
0.0473248
-0.25142
0.0757191
-0.228674
0.100985
-0.206275
0.122869
-0.181345
0.141969
-0.159232
0.159082
-0.141184
0.174548
-0.125268
0.188762
-0.112394
0.202057
-0.101858
0.214553
-0.0932271
0.226419
-0.0862711
0.237749
-0.0808646
0.248628
-0.0764682
0.259081
-0.0729996
0.269148
-0.0698367
0.278768
-0.0662724
0.287735
-0.0601934
0.295778
-0.052067
0.302813
-0.0444065
0.308849
-0.0369872
0.313914
-0.02994
0.318003
-0.0231268
0.321157
-0.0166319
0.323426
-0.0103842
0.324815
-0.00438921
0.325358
0.00149782
0.325022
0.00751072
0.323707
0.0142057
0.321107
0.0235249
0.316542
0.0373595
0.308267
0.0762536
0.292491
0.143082
-0.218003
0.246588
-0.214579
0.275447
-0.218492
0.308117
-0.235658
0.336665
-0.210173
0.364671
-0.203371
0.391781
-0.192307
0.416237
-0.171511
0.438643
-0.154789
0.459204
-0.136545
0.4775
-0.11816
0.493902
-0.101658
0.508485
-0.0851289
0.521263
-0.0696733
0.532236
-0.0546931
0.541408
-0.0396852
0.548803
-0.0251861
0.554276
-0.0101104
0.55781
0.00463754
0.559382
0.0202675
0.558961
0.0355012
0.556636
0.051286
0.552458
0.0655906
0.546604
0.0783556
0.539397
0.0868064
0.531166
0.0895191
0.522115
0.0912316
0.512297
0.0946108
0.501788
0.0980765
0.49065
0.102074
0.478877
0.106677
0.466486
0.111812
0.453485
0.117673
0.439828
0.124854
0.425404
0.134348
0.40998
0.148048
0.392851
0.1714
0.372881
0.209451
0.344585
0.307823
0.30065
0.403892
-0.189583
-0.218351
-0.160279
-0.23017
-0.123412
-0.283583
-0.0868295
-0.291285
-0.0492359
-0.303551
-0.0105502
-0.315359
0.0266897
-0.30911
0.0597505
-0.284481
0.088846
-0.257769
0.114553
-0.231981
0.136589
-0.203381
0.155665
-0.178308
0.172647
-0.158167
0.187938
-0.140559
0.201986
-0.126442
0.215159
-0.11503
0.227631
-0.105699
0.239548
-0.0981879
0.251003
-0.0923195
0.262079
-0.0875445
0.272804
-0.0837248
0.283144
-0.0801767
0.293078
-0.0762062
0.30241
-0.0695255
0.310859
-0.0605155
0.318264
-0.0518124
0.324677
-0.0433993
0.330066
-0.0353293
0.334478
-0.027539
0.337911
-0.0200647
0.340395
-0.012868
0.34197
-0.00596486
0.342627
0.000840889
0.342365
0.00777297
0.341079
0.0154915
0.338438
0.0261663
0.33372
0.0420776
0.325487
0.0844868
0.310301
0.158268
-0.217961
0.248171
-0.24479
0.278584
-0.248905
0.313158
-0.270231
0.343164
-0.240179
0.372452
-0.232659
0.401051
-0.220906
0.426691
-0.197152
0.45026
-0.178357
0.471828
-0.158113
0.49103
-0.137362
0.508321
-0.118949
0.523823
-0.100631
0.537341
-0.0831912
0.549067
-0.0664194
0.559146
-0.0497646
0.56728
-0.0333202
0.573575
-0.0164053
0.577884
0.000328633
0.580288
0.0178641
0.580675
0.0351139
0.578972
0.0529891
0.575451
0.0691114
0.570179
0.083628
0.563475
0.0935105
0.555593
0.097401
0.546702
0.100122
0.53698
0.104333
0.526473
0.108583
0.515176
0.113371
0.503196
0.118657
0.490484
0.124525
0.477015
0.131141
0.462757
0.139112
0.447598
0.149506
0.431337
0.164309
0.413373
0.189364
0.393235
0.229588
0.367424
0.333634
0.327109
0.444208
-0.188184
-0.248128
-0.157411
-0.260942
-0.11858
-0.322415
-0.0801297
-0.329735
-0.0408727
-0.342808
-0.00034189
-0.35589
0.0384157
-0.347868
0.0727049
-0.31877
0.102674
-0.287739
0.129003
-0.25831
0.151331
-0.225709
0.17046
-0.197438
0.187389
-0.175095
0.202543
-0.155713
0.216427
-0.140326
0.229465
-0.128068
0.241859
-0.118094
0.253757
-0.110087
0.265302
-0.103864
0.276521
-0.0987629
0.287419
-0.0946229
0.298029
-0.0907869
0.308272
-0.0864496
0.317945
-0.0791987
0.326756
-0.0693257
0.334561
-0.0596175
0.341324
-0.050163
0.347078
-0.0410828
0.351797
-0.0322582
0.355507
-0.0237749
0.358243
-0.0156039
0.359991
-0.00771262
0.360796
3.55521e-05
0.360621
0.00794784
0.359349
0.0167642
0.356653
0.028862
0.351848
0.046882
0.343682
0.0926537
0.329064
0.172886
-0.218627
0.250401
-0.276564
0.282388
-0.280891
0.318891
-0.306734
0.350593
-0.271881
0.381508
-0.263574
0.411583
-0.250982
0.438365
-0.223934
0.463181
-0.203173
0.485802
-0.180734
0.505967
-0.157527
0.524069
-0.137051
0.540223
-0.116785
0.554573
-0.0975416
0.567183
-0.0790287
0.577875
-0.0604569
0.586819
-0.042264
0.593863
-0.0234492
0.598986
-0.00479458
0.602072
0.0147781
0.603149
0.034037
0.602184
0.0539544
0.599251
0.0720438
0.594566
0.0883129
0.588376
0.0997008
0.580893
0.104884
0.5723
0.108715
0.562685
0.113948
0.552133
0.119135
0.540772
0.124733
0.528556
0.130872
0.51555
0.137531
0.501721
0.14497
0.486985
0.153848
0.471208
0.165284
0.454149
0.181368
0.43526
0.208253
0.414103
0.250744
0.389302
0.358436
0.351673
0.481836
-0.187162
-0.279593
-0.154888
-0.293216
-0.113978
-0.363325
-0.073597
-0.370116
-0.0323628
-0.384042
0.0100192
-0.398272
0.0505326
-0.388381
0.0862116
-0.354449
0.117245
-0.318773
0.144264
-0.285329
0.167036
-0.248481
0.186352
-0.216753
0.203314
-0.192057
0.218363
-0.170763
0.232102
-0.154065
0.244997
-0.140962
0.257276
-0.130373
0.269139
-0.121949
0.280677
-0.115402
0.291981
-0.110066
0.303062
-0.105704
0.313887
-0.101612
0.32439
-0.0969531
0.334399
-0.0892072
0.343572
-0.0784989
0.351744
-0.067789
0.358892
-0.0573109
0.364988
-0.0471789
0.370044
-0.0373148
0.374041
-0.0277714
0.377003
-0.0185666
0.378973
-0.00968257
0.379916
-0.000907162
0.379837
0.00802672
0.378588
0.0180133
0.375877
0.0315733
0.370972
0.0517873
0.362887
0.100738
0.348901
0.186872
-0.219658
0.253242
-0.310148
0.286992
-0.314641
0.325533
-0.345274
0.358828
-0.305177
0.391356
-0.296102
0.423019
-0.282645
0.451326
-0.252241
0.477278
-0.229125
0.50098
-0.204436
0.52206
-0.178607
0.541083
-0.156073
0.558127
-0.133829
0.57311
-0.112525
0.586362
-0.0922805
0.59786
-0.0719544
0.607517
-0.0519216
0.615246
-0.0311776
0.621027
-0.0105757
0.624818
0.0109868
0.626605
0.0322501
0.626332
0.054227
0.624076
0.0743002
0.619981
0.0924079
0.614291
0.105391
0.607194
0.111981
0.598869
0.11704
0.589394
0.123423
0.578899
0.12963
0.567424
0.136208
0.555041
0.143254
0.541753
0.15082
0.527545
0.159178
0.512383
0.16901
0.496059
0.181609
0.47833
0.199097
0.458639
0.227944
0.436305
0.273078
0.411361
0.38338
0.375392
0.517806
-0.186561
-0.31269
-0.152549
-0.327228
-0.109511
-0.406363
-0.067032
-0.412595
-0.0237542
-0.42732
0.0206714
-0.442698
0.0631291
-0.430839
0.100303
-0.391623
0.132502
-0.350971
0.160418
-0.313245
0.183755
-0.271819
0.203361
-0.236359
0.220388
-0.209084
0.235416
-0.185791
0.249042
-0.167691
0.261796
-0.153717
0.27394
-0.142517
0.285708
-0.133718
0.297237
-0.126931
0.308574
-0.121403
0.319754
-0.116885
0.33075
-0.112608
0.341523
-0.107726
0.351837
-0.0995214
0.361357
-0.0880191
0.369894
-0.0763255
0.377396
-0.0648131
0.383857
-0.0536401
0.38922
-0.042677
0.393523
-0.0320745
0.396747
-0.0217913
0.398914
-0.011849
0.400032
-0.00202482
0.400036
0.00802206
0.398837
0.0192129
0.3961
0.0343102
0.391123
0.0567644
0.383188
0.108672
0.369853
0.200207
-0.221259
0.256538
-0.345427
0.29215
-0.350254
0.332849
-0.385973
0.368005
-0.340333
0.402287
-0.330383
0.435587
-0.315946
0.465314
-0.281968
0.492608
-0.256419
0.517371
-0.229199
0.539447
-0.200683
0.559313
-0.175939
0.577106
-0.151622
0.592935
-0.128353
0.606914
-0.106259
0.619047
-0.0840871
0.62932
-0.062195
0.637744
-0.0396022
0.644241
-0.017072
0.648711
0.0065167
0.651085
0.0298764
0.651458
0.0538533
0.649796
0.0759621
0.646275
0.095929
0.641141
0.110525
0.63454
0.118581
0.626507
0.125073
0.617227
0.132703
0.60677
0.140088
0.59523
0.147748
0.582688
0.155796
0.569148
0.16436
0.554586
0.17374
0.538954
0.184641
0.522094
0.198469
0.503742
0.217448
0.483356
0.24833
0.460055
0.296379
0.434455
0.40898
0.399395
0.552866
-0.186226
-0.347723
-0.150568
-0.362886
-0.105154
-0.451777
-0.0604898
-0.457259
-0.0149518
-0.472858
0.0317508
-0.4894
0.0761605
-0.475248
0.115044
-0.430506
0.148541
-0.384468
0.177459
-0.342164
0.201454
-0.295813
0.221441
-0.256346
0.238681
-0.226324
0.253733
-0.200843
0.267286
-0.181243
0.279918
-0.166349
0.291925
-0.154523
0.303573
-0.145366
0.315025
-0.138383
0.326368
-0.132746
0.337611
-0.128128
0.34876
-0.123757
0.359734
-0.1187
0.370341
-0.110129
0.380184
-0.0978622
0.389069
-0.0852104
0.396928
-0.0726719
0.403716
-0.0604279
0.409422
-0.0483834
0.414026
-0.0366784
0.417522
-0.0252871
0.419921
-0.0142487
0.4212
-0.00330367
0.421327
0.00789529
0.420167
0.0203735
0.417445
0.0370318
0.412426
0.0617837
0.404605
0.116493
0.391974
0.212838
-0.223138
0.260363
-0.382652
0.297943
-0.387834
0.340941
-0.42897
0.377985
-0.377377
0.414043
-0.366441
0.449099
-0.351002
0.480375
-0.313244
0.508978
-0.285022
0.534979
-0.255201
0.558053
-0.223757
0.578897
-0.196783
0.597485
-0.17021
0.614037
-0.144905
0.628706
-0.120928
0.641395
-0.0967757
0.652374
-0.0731741
0.66144
-0.0486688
0.668553
-0.0241849
0.673688
0.00138174
0.676749
0.0268152
0.677721
0.0528814
0.676685
0.076998
0.67375
0.0988641
0.669129
0.115146
0.662951
0.12476
0.655244
0.13278
0.646191
0.141755
0.635843
0.150436
0.624275
0.159316
0.611585
0.168486
0.597783
0.178162
0.582881
0.188642
0.566785
0.200737
0.549409
0.215846
0.530436
0.236421
0.50939
0.269376
0.485242
0.320527
0.458949
0.435273
0.424453
0.587362
-0.186339
-0.384522
-0.148615
-0.40061
-0.100829
-0.499563
-0.0537792
-0.504308
-0.00593191
-0.520705
0.0431063
-0.538438
0.0897931
-0.521935
0.13046
-0.471174
0.165438
-0.419445
0.19546
-0.372186
0.220237
-0.32059
0.240689
-0.276798
0.258187
-0.243822
0.273325
-0.215981
0.28683
-0.194749
0.299369
-0.178888
0.311255
-0.166408
0.322763
-0.156875
0.334123
-0.149742
0.345431
-0.144054
0.356706
-0.139402
0.367946
-0.134997
0.379115
-0.12987
0.389974
-0.120987
0.400116
-0.108004
0.40933
-0.0944237
0.417532
-0.080874
0.424675
-0.0675716
0.430713
-0.0544206
0.435622
-0.0415879
0.439386
-0.0290507
0.442005
-0.0168674
0.443471
-0.00477061
0.443721
0.00764573
0.442625
0.0214692
0.439914
0.0397432
0.434886
0.0668119
0.427267
0.124112
0.415326
0.224778
-0.225375
0.264715
-0.421992
0.304313
-0.427432
0.349723
-0.47438
0.388715
-0.416369
0.4267
-0.404426
0.463715
-0.388016
0.496506
-0.346035
0.526554
-0.31507
0.553918
-0.282565
0.578097
-0.247935
0.599827
-0.218513
0.619271
-0.189655
0.636455
-0.162089
0.651814
-0.136287
0.665277
-0.110239
0.676836
-0.0847333
0.686523
-0.0583561
0.694227
-0.0318888
0.69986
-0.00425065
0.703509
0.0231658
0.705113
0.051277
0.704612
0.0774996
0.702245
0.101231
0.698158
0.119234
0.692455
0.130462
0.685155
0.14008
0.676307
0.150603
0.666086
0.160657
0.65456
0.170843
0.641756
0.18129
0.62774
0.192178
0.612489
0.203892
0.595992
0.217234
0.578072
0.233766
0.558451
0.256042
0.536736
0.291091
0.511899
0.345365
0.48493
0.462242
0.450953
0.621339
-0.186572
-0.423325
-0.146985
-0.440197
-0.096525
-0.550024
-0.0469905
-0.553843
0.00335583
-0.571052
0.0549742
-0.590057
0.103952
-0.570913
0.146617
-0.513838
0.183114
-0.455942
0.214407
-0.403479
0.240036
-0.346219
0.261088
-0.29785
0.278934
-0.261668
0.294223
-0.231271
0.307761
-0.208286
0.320213
-0.19134
0.33197
-0.178166
0.343368
-0.168273
0.354612
-0.160986
0.365841
-0.155284
0.377106
-0.150666
0.388428
-0.146319
0.399747
-0.141189
0.410829
-0.132069
0.421264
-0.11844
0.430784
-0.103944
0.439314
-0.0894039
0.446779
-0.0750374
0.453145
-0.0607863
0.45835
-0.046793
0.462399
-0.0330997
0.465272
-0.0197407
0.466914
-0.00641186
0.467313
0.00724648
0.4663
0.0224816
0.463618
0.0424259
0.458611
0.0718189
0.451164
0.131558
0.43997
0.235972
-0.22803
0.269529
-0.463492
0.311252
-0.469154
0.359169
-0.522298
0.400221
-0.457421
0.440328
-0.444533
0.479288
-0.426976
0.513781
-0.380528
0.545382
-0.34667
0.574034
-0.311217
0.599304
-0.273205
0.622027
-0.241236
0.64235
-0.209978
0.660421
-0.180159
0.676412
-0.152279
0.690472
-0.124298
0.702625
-0.0968872
0.712876
-0.0686067
0.721151
-0.0401633
0.727454
-0.0105543
0.731637
0.0189835
0.733748
0.0491651
0.733849
0.0773994
0.731992
0.103087
0.728413
0.122813
0.723156
0.135719
0.716231
0.147006
0.707687
0.159147
0.697625
0.170719
0.686124
0.182344
0.673242
0.194172
0.659043
0.206378
0.643504
0.219431
0.626566
0.234172
0.608121
0.252211
0.587895
0.276267
0.565526
0.31346
0.539997
0.370894
0.512448
0.489791
0.479004
0.654783
-0.187055
-0.4643
-0.145317
-0.481936
-0.0921564
-0.603184
-0.0399844
-0.606015
0.0130106
-0.624047
0.0673239
-0.64437
0.118814
-0.622403
0.163558
-0.558583
0.201769
-0.494153
0.234394
-0.436105
0.261021
-0.372845
0.282715
-0.319545
0.300961
-0.279914
0.316484
-0.246794
0.330074
-0.221876
0.342508
-0.203773
0.354155
-0.189814
0.365423
-0.17954
0.376544
-0.172107
0.387689
-0.166428
0.398914
-0.161892
0.410259
-0.157664
0.421702
-0.152632
0.433002
-0.143369
0.443683
-0.12912
0.453483
-0.113744
0.462322
-0.0982421
0.470109
-0.0828249
0.476796
-0.0674732
0.48232
-0.0523169
0.486649
-0.0374288
0.489747
-0.0228389
0.491613
-0.00827732
0.49215
0.0067088
0.491237
0.0233952
0.488607
0.0450553
0.483639
0.0767869
0.476428
0.138769
0.466012
0.246388
-0.230928
0.274641
-0.507204
0.318695
-0.513208
0.369294
-0.572897
0.412575
-0.500702
0.454839
-0.486796
0.49582
-0.467957
0.532166
-0.416875
0.565372
-0.379877
0.595393
-0.341238
0.621891
-0.299703
0.645752
-0.265097
0.666926
-0.231152
0.68576
-0.198993
0.702486
-0.169006
0.717147
-0.138959
0.72991
-0.10965
0.740709
-0.079405
0.74956
-0.0490145
0.756342
-0.0173367
0.7611
0.014226
0.763728
0.0465366
0.76431
0.0768176
0.762999
0.104398
0.759909
0.125904
0.755143
0.140485
0.74859
0.153558
0.740335
0.167402
0.730462
0.180591
0.719021
0.193785
0.706114
0.207079
0.691748
0.220744
0.675936
0.235243
0.658616
0.251492
0.639668
0.271158
0.61886
0.297076
0.595789
0.336531
0.569634
0.397049
0.541569
0.517856
0.508641
0.687711
-0.187732
-0.507497
-0.143784
-0.525883
-0.087752
-0.659216
-0.0327353
-0.661031
0.0230368
-0.679819
0.0801651
-0.701498
0.134381
-0.676619
0.181317
-0.605519
0.221378
-0.534213
0.255449
-0.470176
0.283129
-0.400526
0.30556
-0.341976
0.324327
-0.298681
0.340119
-0.262585
0.353835
-0.235592
0.366277
-0.216215
0.377862
-0.201399
0.389011
-0.19069
0.400008
-0.183104
0.411036
-0.177456
0.422207
-0.173062
0.433557
-0.169014
0.445091
-0.164167
0.456554
-0.154832
0.467453
-0.140019
0.477529
-0.12382
0.486653
-0.107366
0.494759
-0.0909302
0.501745
-0.0744599
0.507574
-0.0581454
0.512184
-0.0420389
0.515552
-0.0262072
0.517615
-0.0103399
0.518306
0.00601792
0.517513
0.0241881
0.514948
0.0476203
0.510082
0.0816528
0.503099
0.145753
0.49344
0.256046
-0.234196
0.28031
-0.553318
0.326806
-0.559704
0.380075
-0.626165
0.425827
-0.546455
0.470238
-0.531207
0.513489
-0.511208
0.551669
-0.455055
0.586582
-0.414789
0.618138
-0.372794
0.645939
-0.327505
0.670766
-0.289924
0.692976
-0.253362
0.712567
-0.218583
0.730009
-0.186448
0.74541
-0.154359
0.758713
-0.122953
0.770098
-0.0907903
0.77946
-0.058376
0.786808
-0.0246854
0.792027
0.00900756
0.79514
0.043424
0.796259
0.0756984
0.795376
0.105281
0.792761
0.128519
0.788417
0.144829
0.782254
0.159721
0.774323
0.175333
0.764668
0.190246
0.753372
0.205081
0.740439
0.220012
0.725943
0.23524
0.709874
0.251312
0.692187
0.269179
0.67278
0.290565
0.651358
0.318499
0.627673
0.360216
0.600884
0.423838
0.572292
0.546448
0.539912
0.720091
-0.188659
-0.553034
-0.142326
-0.572216
-0.0832038
-0.718338
-0.0252768
-0.718959
0.0335018
-0.738597
0.0936506
-0.761647
0.150614
-0.733583
0.200002
-0.654907
0.241978
-0.57619
0.277654
-0.505852
0.306504
-0.429375
0.32977
-0.365241
0.349092
-0.318004
0.36523
-0.278723
0.379121
-0.249483
0.391595
-0.228689
0.403154
-0.212959
0.414191
-0.201727
0.425061
-0.193974
0.435975
-0.18837
0.447065
-0.184152
0.458395
-0.180343
0.469998
-0.17577
0.481606
-0.166441
0.49271
-0.151123
0.503012
-0.134122
0.512397
-0.116751
0.520776
-0.09931
0.528075
-0.0817581
0.534189
-0.06426
0.539093
-0.0469428
0.5427
-0.0298136
0.544996
-0.0126362
0.54588
0.00513417
0.545187
0.0248812
0.542751
0.0500562
0.53798
0.0864233
0.531301
0.152432
0.522417
0.26493
-0.237729
0.286371
-0.60196
0.335328
-0.608661
0.39167
-0.682507
0.439712
-0.594497
0.486648
-0.578143
0.532148
-0.556708
0.572434
-0.495341
0.609057
-0.451412
0.642185
-0.405922
0.671304
-0.356624
0.697407
-0.316027
0.720532
-0.276487
0.741063
-0.239115
0.759254
-0.20464
0.77528
-0.170385
0.789206
-0.136879
0.80111
-0.102694
0.810958
-0.0682242
0.818747
-0.0324744
0.824453
0.00330117
0.828075
0.039803
0.829576
0.0741972
0.829154
0.105702
0.827006
0.130667
0.823091
0.148744
0.817357
0.165455
0.809746
0.182944
0.800311
0.199681
0.789121
0.216272
0.776233
0.2329
0.761643
0.249829
0.745355
0.2676
0.727335
0.287199
0.707473
0.310427
0.685527
0.340446
0.661218
0.384524
0.633835
0.451221
0.604761
0.575522
0.572886
0.751966
-0.189725
-0.601038
-0.140886
-0.621055
-0.0785417
-0.780683
-0.0175453
-0.779955
0.0443853
-0.800528
0.107735
-0.824997
0.167722
-0.79357
0.219597
-0.706781
0.263662
-0.620254
0.301006
-0.543195
0.331134
-0.459504
0.35532
-0.389427
0.375274
-0.337958
0.391834
-0.295283
0.405955
-0.263604
0.418527
-0.241262
0.430064
-0.224496
0.441031
-0.212694
0.451784
-0.204727
0.462599
-0.199186
0.473582
-0.195135
0.484888
-0.191649
0.496523
-0.187404
0.508246
-0.178164
0.519526
-0.162402
0.530022
-0.144618
0.539665
-0.126394
0.54831
-0.107955
0.555868
-0.0893165
0.562296
-0.0706876
0.567466
-0.0521133
0.57134
-0.033687
0.57384
-0.0151361
0.574907
0.00406711
0.574386
0.0254018
0.572055
0.0523877
0.567459
0.091019
0.561059
0.158832
0.552967
0.273022
-0.241592
0.292845
-0.653213
0.344471
-0.660287
0.403855
-0.741891
0.45462
-0.645262
0.503981
-0.627504
0.552005
-0.604732
0.594285
-0.537621
0.632854
-0.489981
0.667663
-0.440732
0.698258
-0.387219
0.72552
-0.343289
0.749791
-0.300758
0.77119
-0.260514
0.79017
-0.223619
0.80683
-0.187046
0.821394
-0.151443
0.833805
-0.115105
0.844142
-0.0785611
0.852446
-0.040778
0.858564
-0.00281704
0.862578
0.035789
0.864519
0.0722559
0.864509
0.105711
0.862773
0.132404
0.859286
0.152231
0.853912
0.170829
0.846624
0.190232
0.83748