/*--------------------------------*- C++ -*----------------------------------*\
| =========                 |                                                 |
| \\      /  F ield         | OpenFOAM: The Open Source CFD Toolbox           |
|  \\    /   O peration     | Version:  2.3.1                                 |
|   \\  /    A nd           | Web:      www.OpenFOAM.org                      |
|    \\/     M anipulation  |                                                 |
\*---------------------------------------------------------------------------*/
FoamFile
{
    version     2.0;
    format      ascii;
    class       volScalarField;
    location    "0.02";
    object      epsilon;
}
// * * * * * * * * * * * * * * * * * * * * * * * * * * * * * * * * * * * * * //

dimensions      [0 2 -3 0 0 0 0];

internalField   nonuniform List<scalar> 
9648
(
6565.16
6411.37
6270.61
6109.99
5929.22
5730.29
5515.54
5285.64
5042.94
4788.28
4524.4
4252.62
3977.7
3703.82
3437.41
3184.24
2951.37
2744.04
2566.64
2420.32
2304.27
2215.59
2150.77
2105.66
2076.68
2060.24
2053.84
2055.39
2063.58
2077.06
2094.93
2116.76
2142.04
2170.52
2201.95
2236.27
2273.18
2312.74
2354.84
2399.5
2446.46
2495.85
2547.55
2601.5
2657.74
2716.38
2777.21
2840.16
2905.23
2972.64
3042.18
3113.7
3187.44
3263.34
3341.27
3421.17
3503.18
3587.52
3673.81
3761.93
3851.84
2538.04
2500.09
2448.23
2385.65
2313.93
2234.32
2147.97
2055.08
1956.33
1852.29
1744.19
1632.93
1520.41
1408.92
1301.11
1199.61
1107.1
1025.94
957.748
902.963
861.394
832.035
813.434
803.943
801.984
806.024
814.794
827.335
842.905
860.817
880.602
901.921
924.531
948.162
972.703
998.044
1024.07
1050.67
1077.79
1105.45
1133.56
1162.06
1190.96
1220.24
1249.86
1279.87
1310.26
1340.96
1371.96
1403.33
1435.03
1466.93
1499.08
1531.64
1564.42
1597.52
1630.74
1664.45
1698.46
1732.73
1767.18
1730.12
1703.76
1669.63
1628.41
1580.75
1527.22
1468.69
1405.47
1338.2
1267.31
1193.83
1118.7
1043.25
969.053
897.83
831.335
771.196
718.822
675.116
640.472
614.75
597.432
587.672
584.473
586.754
593.503
603.802
616.933
632.249
649.242
667.502
686.722
706.64
727.065
747.855
768.891
790.088
811.36
832.658
853.942
875.186
896.385
917.51
938.563
959.551
980.473
1001.34
1022.14
1042.9
1063.59
1084.22
1104.8
1125.29
1145.85
1166.27
1186.8
1207.26
1227.98
1248.62
1269.27
1289.91
1410.85
1390.59
1364.11
1331.86
1294.25
1251.76
1205
1154.38
1100.5
1043.84
985.28
925.67
866.151
807.936
752.32
700.558
653.836
613.12
579.046
551.909
531.674
518.028
510.448
508.241
510.631
516.82
526.085
537.78
551.334
566.279
582.24
598.905
616.032
633.42
650.934
668.467
685.933
703.263
720.411
737.347
754.056
770.54
786.805
802.851
818.694
834.346
849.824
865.137
880.31
895.344
910.218
925.009
939.697
954.328
968.816
983.3
997.792
1012.3
1026.77
1041.23
1055.75
1241.69
1225.3
1203.43
1176.47
1144.75
1108.75
1068.89
1025.71
979.712
931.431
881.606
831.031
780.704
731.612
684.82
641.282
601.909
567.433
538.325
514.858
497.015
484.606
477.313
474.638
476.013
480.81
488.416
498.255
509.789
522.582
536.255
550.503
565.08
579.792
594.49
609.079
623.479
637.621
651.475
665.011
678.223
691.129
703.741
716.079
728.157
740
751.639
763.093
774.37
785.501
796.474
807.316
818.069
828.743
839.336
849.877
860.428
870.969
881.491
892.023
902.583
1135.63
1122.06
1103.51
1080.3
1052.72
1021.23
986.29
948.297
907.862
865.393
821.587
777.151
732.953
689.877
648.829
610.505
575.687
544.937
518.658
497.076
480.228
467.941
460.071
456.241
456.076
459.051
464.661
472.39
481.737
492.263
503.625
515.48
527.619
539.818
551.932
563.86
575.551
586.913
597.938
608.592
618.879
628.827
638.463
647.814
656.891
665.726
674.351
682.816
691.129
699.298
707.346
715.271
723.113
730.886
738.598
746.305
754.028
761.754
769.482
777.235
785
1060.89
1049.61
1033.67
1013.51
989.146
961.248
930.114
896.234
860.077
822.129
782.914
743.037
703.371
664.603
627.598
592.861
561.025
532.665
507.989
487.376
470.725
457.978
449.075
443.762
441.75
442.657
446.053
451.54
458.532
466.729
475.724
485.206
494.95
504.748
514.387
523.853
533.055
541.9
550.398
558.519
566.232
573.623
580.721
587.563
594.135
600.491
606.658
612.677
618.577
624.386
630.102
635.737
641.331
646.863
652.374
657.897
663.438
669.06
674.699
680.336
686.022
1003.28
993.902
980.209
962.567
941.01
916.062
888.145
857.663
825.18
790.956
755.536
719.338
683.178
647.682
613.72
581.486
551.717
524.84
501.112
480.836
463.962
450.299
440.132
433.089
429.086
427.744
428.795
431.887
436.45
442.186
448.808
455.88
463.304
470.753
478.059
485.186
492.099
498.623
504.835
510.654
516.051
521.142
526.03
530.691
535.122
539.401
543.508
547.498
551.395
555.224
559.033
562.802
566.581
570.315
574.101
577.954
581.806
585.811
589.823
593.805
597.904
955.556
947.741
936.089
920.591
901.632
879.291
853.946
826.68
797.235
766.419
734.167
701.097
667.842
635.072
603.42
572.983
544.632
518.651
495.418
475.263
457.734
442.983
431.171
422.321
416.246
412.485
411.174
411.879
413.816
417.119
421.216
425.856
431.146
436.405
441.33
446.3
451.075
455.522
459.781
463.48
466.741
469.488
472.445
475.206
477.719
480.388
482.699
485.139
487.266
489.443
491.409
493.569
495.937
498.183
500.509
503.206
505.591
508.592
511.369
513.927
516.895
3944.47
4039.77
4137.46
4237.58
4340.71
4448.05
4560.2
4677.21
4795.88
4916.98
5039.5
5164.08
5290.76
5419.46
5549.64
5681.61
5815.56
5951.28
6088.48
6227.5
6368.72
6511.28
6655.62
6801.62
6948.85
7097.33
7247.23
7398.47
7550.72
7703.77
7857.99
8012.9
8168.38
8324.58
8481.43
8638.51
8795.82
8953.74
9112.42
9271.42
9430.51
9590.39
9751.18
9912.31
10074.7
10237.9
10400.8
10563.5
10726.2
10889.3
11052.1
11214.6
11378.7
11542.4
11706.7
11869.1
12030.8
12189.8
12345.5
12495.9
12641.6
1801.71
1837.29
1873.31
1909.74
1946.6
1984.19
2022.94
2062.41
2102.29
2142.14
2182.37
2222.62
2262.94
2303.29
2343.64
2384.03
2424.44
2464.91
2505.43
2545.99
2586.49
2626.82
2667.03
2707.08
2746.95
2786.62
2826.04
2865.22
2904.06
2942.58
2980.77
3018.53
3055.84
3092.74
3129.16
3165.08
3200.53
3235.49
3269.95
3303.91
3337.39
3370.46
3403.06
3435.21
3466.96
3498.22
3528.89
3558.93
3588.42
3617.33
3645.64
3673.35
3700.73
3727.77
3754.02
3779.74
3804.71
3828.83
3851.24
3872.35
3892.68
1310.75
1331.67
1352.85
1374.24
1395.82
1417.39
1439.36
1461.45
1483.58
1505.57
1527.59
1549.54
1571.49
1593.31
1615.04
1636.68
1658.21
1679.63
1700.93
1722.08
1743.07
1763.91
1784.56
1805.04
1825.32
1845.39
1865.23
1884.81
1904.12
1923.15
1941.85
1960.22
1978.22
1995.84
2013.09
2029.94
2046.38
2062.4
2078.01
2093.19
2107.96
2122.32
2136.29
2149.84
2163.03
2175.82
2188.17
2200.06
2211.5
2222.48
2232.98
2243.12
2252.86
2262.18
2270.94
2279.29
2287.11
2294.23
2300.5
2306.03
2310.89
1070.28
1084.9
1099.58
1114.37
1129.19
1144.03
1158.9
1173.84
1188.71
1203.49
1218.22
1232.92
1247.57
1262.1
1276.58
1290.96
1305.25
1319.43
1333.49
1347.38
1361.13
1374.73
1388.2
1401.53
1414.72
1427.75
1440.62
1453.29
1465.75
1478
1490.03
1501.8
1513.3
1524.51
1535.42
1546.02
1556.3
1566.24
1575.83
1585.08
1593.99
1602.56
1610.77
1618.68
1626.28
1633.62
1640.64
1647.34
1653.71
1659.75
1665.4
1670.72
1675.78
1680.53
1684.89
1688.86
1692.43
1695.43
1697.86
1699.72
1700.94
913.2
923.837
934.519
945.243
956.016
966.771
977.509
988.281
999.069
1009.81
1020.54
1031.26
1041.92
1052.54
1063.1
1073.59
1084.07
1094.47
1104.75
1114.9
1124.92
1134.82
1144.63
1154.36
1164.01
1173.55
1182.97
1192.24
1201.37
1210.37
1219.23
1227.92
1236.41
1244.67
1252.72
1260.53
1268.06
1275.29
1282.23
1288.89
1295.27
1301.32
1307.07
1312.54
1317.77
1322.82
1327.64
1332.26
1336.6
1340.69
1344.47
1347.93
1351.2
1354.24
1357.05
1359.51
1361.61
1363.2
1364.38
1365
1364.99
792.833
800.721
808.69
816.682
824.731
832.816
840.902
849.057
857.212
865.385
873.546
881.725
889.892
898.033
906.147
914.261
922.39
930.458
938.44
946.304
954.044
961.681
969.255
976.804
984.306
991.732
999.07
1006.29
1013.41
1020.46
1027.45
1034.35
1041.13
1047.75
1054.22
1060.51
1066.54
1072.31
1077.79
1083.04
1088.07
1092.79
1097.2
1101.36
1105.31
1109.16
1112.8
1116.32
1119.62
1122.79
1125.68
1128.26
1130.7
1132.95
1135.07
1136.83
1138.3
1139.32
1140.01
1140.13
1139.71
691.772
697.613
703.545
709.585
715.704
721.897
728.148
734.498
740.881
747.262
753.689
760.156
766.618
773.089
779.522
785.971
792.499
799.021
805.481
811.812
817.995
824.089
830.131
836.183
842.23
848.214
854.118
859.878
865.551
871.186
876.887
882.542
888.189
893.739
899.247
904.621
909.72
914.556
919.086
923.443
927.65
931.542
935.118
938.433
941.535
944.636
947.489
950.331
952.974
955.658
958.092
960.151
962.132
963.924
965.708
967.04
968.199
968.859
969.355
969.29
968.848
602.023
606.262
610.578
615.07
619.673
624.495
629.371
634.48
639.673
644.813
650.002
655.304
660.587
665.889
671.062
676.241
681.601
687.057
692.502
697.753
702.788
707.772
712.697
717.603
722.59
727.549
732.404
737.022
741.463
745.88
750.507
755.134
759.891
764.649
769.536
774.389
778.884
783.007
786.803
790.534
794.159
797.488
800.475
803.149
805.616
808.207
810.424
812.747
814.894
817.342
819.561
821.244
822.931
824.398
825.99
826.971
827.927
828.288
828.754
828.626
828.348
519.65
522.658
525.488
528.757
531.866
535.678
539.313
543.542
548.042
552.373
556.628
561.32
565.744
570.364
574.646
578.578
582.943
587.695
592.493
597.211
601.228
605.391
609.616
613.512
617.622
621.869
626.039
629.899
633.113
636.353
639.886
643.515
647.336
651.406
655.949
660.645
664.829
668.316
671.434
674.689
677.889
680.851
683.325
685.454
687.532
689.698
691.309
693.094
694.758
697.259
699.446
700.78
702.26
703.528
704.965
705.603
706.382
706.397
706.955
706.838
706.796
12787.4
12943.3
13106.6
13270.8
13435.1
13569.8
13710.1
13851.4
13993.1
14134.7
14277
14418.6
14560.1
14702.5
14844
14983.1
15119.3
15253.8
15386
15514.8
15640.8
15763.6
15882
15996.5
16107.4
16213.9
16315.6
16412.6
16505.3
16593.1
16676.1
16754.2
16827.2
16894.6
16956.8
17012.9
17062.5
17105.4
17142.3
17172.5
17194.6
17209
17215.5
17212.9
17202.1
17183.2
17154.5
17113
17057.8
16990
16908.7
16811.6
16700.8
16575.2
16433.8
16275.5
16101.3
15912.2
15705.6
15478.9
15232.1
3912.94
3933.21
3951.47
3968.99
3983.73
3997.83
4011.46
4024.83
4037.59
4050.07
4062.27
4073.88
4085.06
4095.8
4106.05
4115.5
4124.05
4131.64
4138.28
4143.89
4148.44
4151.98
4154.4
4155.66
4155.77
4154.63
4152.35
4148.86
4144.26
4138.61
4131.88
4124.05
4115.26
4105.49
4094.7
4083.01
4070.32
4056.72
4042.26
4027.01
4011.1
3994.5
3977.27
3959.48
3941.17
3922.46
3903.28
3886.9
3875.96
3867.46
3859.25
3850.6
3843.07
3834.44
3825.14
3814.79
3805.33
3795.48
3784.11
3771.09
3756.8
2315.2
2318.05
2319.13
2320.2
2320.91
2321.63
2321.95
2321.94
2321.38
2320.42
2319.1
2317.53
2315.64
2313.39
2310.73
2307.56
2303.81
2299.48
2294.6
2289.12
2283.07
2276.41
2269.11
2261.18
2252.62
2243.42
2233.61
2223.21
2212.27
2200.76
2188.73
2176.2
2163.16
2149.68
2135.75
2121.41
2106.67
2091.56
2076.1
2060.33
2044.28
2028
2011.49
1994.81
1977.96
1960.96
1943.85
1926.89
1910.48
1895.48
1882.73
1870.63
1859.81
1848.76
1838.75
1828.82
1820.26
1811.38
1802.92
1794.91
1787.93
1701.33
1700.3
1698.32
1696.41
1694.49
1692.57
1690.45
1688.05
1685.25
1682.16
1678.82
1675.27
1671.46
1667.4
1663
1658.19
1652.94
1647.32
1641.34
1635
1628.26
1621.09
1613.5
1605.49
1597.05
1588.23
1579.04
1569.5
1559.61
1549.39
1538.84
1527.99
1516.85
1505.44
1493.78
1481.9
1469.82
1457.55
1445.1
1432.5
1419.78
1406.94
1394.01
1380.99
1367.91
1354.77
1341.59
1328.39
1315.31
1302.43
1290.29
1279.01
1268.3
1257.79
1247.8
1238.22
1229.08
1220.2
1211.62
1203.52
1195.79
1364.1
1362.21
1359.75
1357.3
1354.83
1352.32
1349.62
1346.77
1343.68
1340.41
1336.9
1333.21
1329.31
1325.21
1320.75
1315.96
1310.8
1305.4
1299.75
1293.86
1287.66
1281.08
1274.19
1267
1259.49
1251.71
1243.68
1235.42
1226.9
1218.16
1209.18
1200
1190.63
1181.09
1171.4
1161.59
1151.67
1141.65
1131.56
1121.41
1111.2
1100.96
1090.7
1080.43
1070.15
1059.83
1049.58
1039.29
1029.01
1018.83
1008.83
999.352
990.258
981.384
972.763
964.496
956.465
948.652
941.147
933.925
926.979
1138.43
1136.5
1134.2
1131.9
1129.4
1126.86
1124.15
1121.39
1118.48
1115.48
1112.17
1108.74
1105.12
1101.36
1097.24
1092.82
1088.06
1083.16
1078.1
1072.87
1067.37
1061.48
1055.38
1049.05
1042.46
1035.69
1028.72
1021.6
1014.26
1006.74
999.034
991.192
983.208
975.132
966.968
958.748
950.478
942.175
933.838
925.493
917.152
908.842
900.565
892.323
884.083
875.824
867.595
859.373
851.178
843.028
834.983
827.153
819.68
812.361
805.255
798.337
791.61
785.108
778.836
772.741
766.883
967.493
965.779
963.796
961.881
959.547
957.19
954.602
952.123
949.524
946.954
943.938
940.834
937.54
934.214
930.479
926.512
922.179
917.874
913.427
908.873
904.05
898.768
893.399
887.917
882.162
876.309
870.285
864.169
857.807
851.296
844.609
837.854
831.003
824.134
817.211
810.285
803.334
796.39
789.442
782.54
775.676
768.911
762.209
755.552
748.883
742.188
735.495
728.772
722.073
715.441
708.89
702.473
696.332
690.352
684.527
678.855
673.384
668.069
662.939
658.005
653.243
827.052
825.65
824.026
822.57
820.432
818.326
815.831
813.727
811.508
809.5
806.729
803.916
800.859
797.961
794.582
791.098
787.171
783.492
779.641
775.689
771.481
766.669
761.981
757.362
752.412
747.424
742.236
737.012
731.471
725.802
719.937
714.105
708.229
702.431
696.6
690.789
684.94
679.111
673.342
667.671
662.08
656.638
651.324
645.97
640.565
635.094
629.488
623.836
618.261
612.706
607.306
602.002
596.941
592.083
587.386
582.787
578.401
574.163
570.096
566.24
562.452
705.68
704.527
703.329
702.314
700.384
698.461
695.903
694.26
692.506
691.246
688.625
685.968
682.95
680.447
677.406
674.465
671.007
667.92
664.58
661.1
657.37
652.881
648.87
645.28
641.16
636.87
632.406
627.952
623.161
618.132
612.875
607.828
602.917
598.108
593.385
588.508
583.541
578.558
573.933
569.352
565.058
560.781
556.755
552.546
548.114
543.521
538.465
533.412
528.766
523.83
519.442
514.931
510.986
506.94
503.356
499.487
496.242
492.883
489.796
486.999
483.934
14969
14689.5
14388.6
14066.8
13725
13366
12987.5
12589.6
12172.7
11738.7
11288.5
10822.8
10343.8
9855.49
9359.5
8860.34
8362.85
7874.41
7401.09
6951.2
6528.22
6115.1
5786.07
5535.59
5346.86
5208.49
5109.06
5039.55
4991.85
4960.78
4944.15
4942.28
4955.42
4965.84
4973.25
4989.91
5019.58
5065.29
5127.12
5206.11
5299.23
5405.85
5521.57
5643.94
5770.11
5901.71
6035.55
6171.26
6305.1
6435.99
6560.04
6673.93
6772.02
6851.09
6906.04
6933.57
6930.24
6895.74
6831.46
6747.57
6659.43
3744.54
3730.25
3714.61
3697.9
3680.39
3662.7
3643.45
3623.35
3602.09
3580.13
3556.92
3532.48
3506.89
3480.11
3451.98
3422.67
3392.57
3362.13
3332.13
3304.01
3277.87
3257.13
3236.4
3216.14
3194.25
3166.39
3128.39
3077.55
3012.88
2935.2
2845.77
2748.5
2648.2
2537.92
2426.65
2329.97
2251.19
2191.1
2149.06
2123.55
2112.14
2112.13
2120.46
2135.37
2159.92
2196.27
2240.67
2290.98
2344.75
2399.78
2454.24
2506
2552.78
2592.29
2622.86
2642.97
2651.26
2647.75
2633.31
2609.87
2577.58
1781.44
1776.08
1771.18
1767.02
1763.3
1761.69
1760.91
1762.04
1764.05
1768.18
1773.78
1781.19
1790.5
1801.61
1814.48
1828.81
1844.51
1861.21
1878.7
1896.62
1914.17
1930.36
1943.57
1952.85
1957.13
1954.57
1943.08
1920.69
1886.28
1839.58
1781.73
1714.94
1642.96
1568.12
1496.23
1428.9
1368.45
1317.75
1279.36
1253.41
1238.92
1235.58
1243.95
1263.51
1291.76
1327.37
1368.99
1415.09
1464.19
1514.62
1565.52
1614.51
1659.12
1698.04
1729.93
1753.99
1769.33
1775.91
1774.03
1764.74
1749.47
1188.57
1181.76
1175.57
1169.89
1164.78
1160.48
1157.08
1154.74
1153.16
1152.85
1153.78
1156.24
1160.07
1165.46
1172.43
1180.87
1190.67
1201.61
1213.4
1225.56
1237.42
1248.03
1256.44
1261.88
1263.64
1260.9
1252.8
1238.47
1217.35
1189.21
1154.41
1113.97
1069.77
1024.32
980.734
940.709
906.738
880.326
862.365
853.711
855.024
865.649
884.834
911.429
943.999
981.549
1023.21
1068.15
1115.38
1163.78
1212.24
1259.44
1303.66
1343.36
1376.57
1402.83
1421.61
1432.68
1436.29
1433.11
1424.16
920.274
913.908
907.879
902.205
896.866
891.925
887.484
883.49
879.998
877.122
874.934
873.45
872.678
872.734
873.553
875.146
877.443
880.324
883.573
886.917
889.917
892.066
892.799
891.631
888.108
881.792
872.283
859.262
842.623
822.448
799.033
773.055
745.696
718.543
693.337
671.751
655.362
645.454
642.77
647.583
659.658
678.493
703.321
733.325
767.554
805.378
846.205
889.592
934.777
980.941
1027.07
1072.19
1114.94
1153.92
1187.9
1215.55
1236.34
1250.04
1256.88
1257.18
1251.74
761.234
755.828
750.613
745.656
740.931
736.422
732.181
728.227
724.533
721.141
718.056
715.262
712.807
710.662
708.822
707.307
705.995
704.808
703.639
702.302
700.594
698.208
694.885
690.337
684.329
676.594
666.98
655.35
641.793
626.504
609.785
592.087
574.247
557.367
542.633
531.281
524.437
522.971
527.476
538.006
554.277
575.834
602.135
632.522
666.309
702.959
742.141
783.48
826.4
870.185
913.912
956.83
997.807
1035.48
1068.88
1097.08
1119.16
1134.62
1143.61
1146.33
1143.32
648.669
644.284
640.05
636
632.135
628.476
624.978
621.643
618.474
615.442
612.547
609.781
607.132
604.613
602.16
599.796
597.386
594.922
592.284
589.41
586.15
582.357
577.879
572.583
566.355
559.068
550.631
541.013
530.325
518.872
506.851
494.566
482.591
471.849
463.111
457.444
455.505
458.029
465.388
477.802
494.821
516.416
542.017
571.305
603.463
638.334
675.348
714.507
755.031
796.4
837.645
878.322
917.355
953.435
985.748
1013.51
1036.14
1052.71
1063.29
1067.79
1066.73
558.905
555.512
552.198
549.1
546.193
543.461
540.843
538.345
535.956
533.629
531.336
529.088
526.926
524.816
522.708
520.599
518.387
516.013
513.429
510.571
507.465
503.91
499.841
495.15
489.898
483.934
477.332
469.931
461.933
453.655
445.303
436.94
429.034
422.45
417.624
415.463
416.464
421.038
429.618
442.431
459.075
479.696
504
531.723
562.055
594.813
629.642
666.522
704.732
743.742
782.513
820.855
857.918
892.165
923.067
949.958
972.337
989.433
1001.09
1007.06
1007.56
481.468
479.1
476.404
474.434
472.404
470.742
468.902
467.363
465.691
464.198
462.461
461.034
459.444
458.188
456.798
455.542
454.302
452.623
450.843
448.629
446.312
443.816
440.735
437.282
433.427
429.232
424.526
419.321
413.517
408.071
402.8
397.284
392.708
389.462
387.702
388.036
391.185
397.303
406.434
419.325
435.474
455.002
478.163
504.441
532.986
563.733
596.627
631.286
667.361
704.016
740.356
776.315
811.337
843.673
872.933
898.686
920.271
937.339
949.598
956.89
958.608
2.09613
253.935
229.314
1.50621
2.44389
0.18783
0.000760324
55.0937
0.000766114
0.0213602
218.762
84.8151
0.000760429
452.357
0.0927134
297.225
0.000765277
56.8467
201.862
0.000760325
1.20498
447.651
256.914
0.000776261
0.000763523
13.2343
0.000760397
19.6635
0.000764404
0.000762796
0.948993
0.000758763
0.0125553
609.486
53.7509
209.152
265.962
252.563
0.00075975
1.22144
352.026
46.8093
0.000759068
204.738
872.758
6.43921
0.000758395
0.0010243
0.0007676
98.0967
592.257
347.811
0.000758462
0.000762062
0.0889067
0.000758269
0.000762794
42.9401
267.494
269.66
90.3007
0.000792999
0.00456755
0.00284673
202.338
0.000758282
313.265
46.103
0.00102117
0.000758318
0.000761495
424.903
274.877
0.000758204
0.249169
233.208
248.308
418.979
0.000758331
83.1502
0.00106608
2.35911
0.000830314
432.798
0.000758312
200.925
0.00076542
546.685
0.00203621
0.000842457
0.169181
0.000758271
0.000778184
289.27
155.761
0.000770421
28.6374
0.0389755
0.00163132
313.891
0.000758311
0.00184713
168.091
0.0007582
0.000758381
0.000758393
60.3999
0.695148
0.000767718
239.637
345.469
0.00120978
728.43
773.871
70.8931
485.402
366.173
0.000907032
0.0291976
0.000759219
0.000758227
851.881
0.000762368
436.27
382.293
27.2001
0.000758631
43.275
48.2585
0.000758656
0.401042
0.00289504
106.667
0.000761164
440.446
0.000758278
0.000758424
401.484
326.249
0.000759222
0.00611394
181.441
11.2826
35.5837
712.068
77.755
0.000772652
643.264
0.00292842
371.118
0.000766601
0.000758341
455.63
430.047
224.074
0.000759317
0.000759699
0.992147
0.000758268
324.794
0.000900345
0.00133359
0.000758565
0.000758475
0.000759601
288.77
55.6292
252.207
0.00076577
440.433
748.938
350.429
139.778
0.00894476
704.495
813.917
394.356
0.000759195
0.00108789
125.422
249.937
51.8071
88.0893
0.000758277
0.000766451
677.429
0.00348657
65.8935
0.000760758
0.000758328
11.1919
0.000788882
329.961
17.6383
0.000758224
1.91967
78.2677
178.343
0.0010777
384.533
0.000758305
0.000759983
53.8556
80.7191
399.966
0.00109412
0.00076571
0.00120979
76.694
392.507
219.072
152.342
0.000766826
379.221
13.1616
280.845
135.612
45.8702
139.969
523.989
0.000759615
0.0245219
0.000759193
0.000758585
364.69
0.00180602
0.0019473
0.000759526
0.00728105
447.583
586.262
0.0303976
205.858
50.2238
0.000802966
0.000759576
0.718913
167.66
41.7567
0.00095991
0.0255567
34.9523
7.87579
0.000764012
434.101
159.421
26.5889
273.366
0.000875352
0.00075823
0.000815437
0.00504475
462.873
0.000759594
0.00076094
0.000759547
85.0879
17.3336
212.581
303.339
0.00076904
115.301
361.407
0.00101577
310.499
79.7109
0.000758655
919.322
0.000758307
403.881
83.5176
919.43
0.00100912
0.000758345
251.432
18.4805
0.000760358
0.000759129
0.000761436
0.000765277
38.801
268.087
155.904
0.00235995
0.000760743
0.000759563
0.000758241
356.768
0.239084
0.000850116
34.5985
0.227876
0.0911485
0.000758289
46.2643
0.000760774
0.00088766
185.416
756.361
0.000772543
0.000759442
0.000803544
416.598
0.634022
158.046
388.074
0.000789809
0.000758559
0.0007592
390.288
0.000761867
69.9909
0.000758279
39.6077
0.000777572
0.0889587
849.296
245.024
0.000872957
294.157
3.99372
204.434
26.1614
0.000770912
325.698
388.72
11.2758
205.18
212.287
270.367
0.560364
328.682
390.035
260.323
534.681
0.000788492
372.907
852.2
473.99
0.0109996
0.000783933
0.000758542
0.00076896
12.5346
45.4309
0.503409
0.031032
0.000760164
225.092
0.000758496
797.898
55.3976
349.703
23.1765
87.3006
0.000774007
0.000799067
0.413818
619.019
0.000953722
98.5818
662.747
308.327
416.12
242.223
7.41139
0.000763879
421.94
152.148
282.315
0.000759775
192.493
180.714
0.000764153
574.15
0.000760603
565.277
234.499
549.136
272.148
875.126
219.534
0.000774452
236.196
0.000800704
242.1
454.955
405.437
424.585
28.7228
16.1149
90.8823
0.000794028
292.332
0.00230417
0.00211412
0.000776938
772.153
0.00080077
441.113
0.00075834
0.000761801
0.00161015
368.259
0.123558
53.0146
0.000759236
241.753
0.428135
237.24
150.048
90.2066
622.426
0.00079462
445.25
290.806
0.00075836
449.045
64.6559
0.000758434
0.000758374
210.529
0.00169974
18.8168
0.460282
731.55
0.012499
10.6277
79.1262
111.382
84.1699
74.7072
112.826
0.000784163
0.00310921
375.047
36.0844
429.656
596.145
182.806
0.0113983
170.513
165.932
100.863
104.685
75.5537
63.1815
0.000770738
434.002
353.771
0.000871645
74.9552
211.98
74.4829
0.00353589
0.0102673
489.422
0.000771169
417.187
0.000828936
9.73125
0.000762189
192.138
161.336
5.67911
0.000825568
0.000826904
598.177
687.168
0.000758747
11.8403
614.512
407.311
0.000785251
105.333
653.033
426.979
750.204
311.338
409.365
195.397
319.594
0.00075917
0.00075971
436.27
361.502
395.327
306.279
0.00076228
832.392
477.098
0.00079309
79.3817
752.979
0.000772852
0.0143682
36.6268
182.559
17.4052
361.832
0.00145345
0.000758383
0.000758264
0.00109726
125.534
260.821
0.000758298
0.000761849
0.00075844
574.641
0.0404546
0.000758637
0.205256
45.7595
721.918
0.00111995
0.00124558
0.00075819
0.000761515
0.000769337
354.547
279.21
35.0171
68.0031
287.016
625.545
0.0013364
61.4478
401.578
445.219
241.204
403.997
0.000798221
0.000936575
0.000759152
270.411
2.0803
0.000759182
112.879
0.576886
374.312
0.000760388
315.053
45.8214
0.00370388
316.046
0.00075897
0.000758214
0.000762823
370.074
341.981
205.341
728.997
0.0083103
360.651
0.000758303
0.000900446
0.26805
0.000759336
0.0077557
326.612
294.217
0.000759514
161.994
380.056
203.271
373.081
0.00121996
377.111
0.000811139
0.00779764
691.016
0.000758257
370.162
0.000761945
0.000763826
0.0112952
549.93
68.4799
372.442
344.505
0.000761734
470.745
400.541
0.000758564
0.66674
0.000763671
0.000762088
0.000760504
0.00197608
409.491
36.0084
0.000785803
258.624
567.733
294.489
0.000758302
379.933
0.000945944
138.704
0.520366
0.0359603
396.512
369.096
250.025
305.811
0.000772422
0.000758321
0.000830633
23.9158
113.998
49.2083
0.00153181
0.000758906
0.000759165
0.000854947
0.000758209
0.00100702
384.038
0.000976402
0.0062157
720.619
207.993
0.000766181
350.411
0.000763169
9.3281
0.000762536
0.00960764
40.6242
0.005411
0.000758359
30.9738
344.76
315.972
0.000761838
0.000758381
6.21094
0.000758232
0.000758479
117.981
0.000778718
370.404
345.681
286.301
94.1111
351.94
198.139
427.653
0.000758918
0.00213838
0.00174717
241.283
100.376
201.174
0.000767617
8.76575
176.414
755.932
158.734
0.000759028
63.5865
0.000758329
4.60354
793.138
305.322
396.06
43.6552
0.0991684
423.283
11.195
0.000804113
765.122
0.0007591
220.977
0.000761295
37.8413
436.84
123.414
12.1477
0.00162733
154.319
0.000760999
0.000759222
0.133118
0.0027068
810.866
0.000992116
515.295
0.000758273
0.00411882
0.000759422
208.516
0.000782134
182.373
351.325
0.0016842
305.024
460.829
0.000760154
259.37
728.725
0.000788315
443.794
0.0602298
0.000777068
0.000758557
341.909
0.000758653
0.000793449
0.0340408
10.036
475.29
370.394
0.000758396
0.000759011
0.000763081
122.316
0.00156894
0.000762614
236.713
0.0007584
0.00079884
0.000758526
317.502
447.304
91.8677
401.402
0.00286166
723.602
0.000778954
0.00213455
0.00278539
0.286039
0.000759932
453.509
0.00075844
0.00708454
0.000759491
0.000758499
0.00163713
0.00075824
8.11053
155.825
442.918
6.70696
217.287
392.812
118.27
0.000785758
388.28
321.375
242.642
220.443
0.000769011
196.916
91.4687
0.000758321
473.845
301.172
0.000758508
0.000758187
423.319
560.657
0.000759885
353.387
487.539
104.916
449.778
259.79
598.698
373.052
29.8585
27.9941
288.053
276.675
0.00175909
389.915
61.8119
406.228
0.00079121
74.1095
0.000789571
456.261
181.905
0.00454453
309.278
447.155
17.8443
0.0397578
40.5173
374.49
0.000941179
377.563
469.152
0.426874
459.12
26.6724
186.886
290.696
0.000760793
0.00149035
47.0008
156.222
0.00553577
0.000758516
12.4984
10.2748
0.000929449
0.000760307
134.815
36.7688
71.4128
216.284
0.00118528
0.00079294
0.000759586
225.955
0.000773706
60.6106
726.385
39.5662
154.673
0.000840068
4.12795
0.000759065
0.000758213
271.212
0.000758209
2.01046
296.572
212.026
2.55205
599.509
94.4365
0.00076777
0.000884772
70.6416
336.579
0.000759562
0.00075861
240.499
0.00589406
0.00075965
124.128
0.000761433
373.929
399.407
205.697
0.3466
236.377
315.24
187.83
769.677
0.000763148
625.198
0.000761154
0.674783
0.000777286
0.000758538
296.622
0.00171047
292.662
0.0161631
0.00823781
339.359
101.063
0.000790693
0.000784542
209.879
0.000782447
0.000758943
318.942
215.462
327.829
534.241
0.000765537
0.000758204
198.067
227.768
0.000758324
268.546
294.595
0.000760501
447.852
0.000758519
13.0747
166.722
130.147
4.35637
200.731
0.000804474
0.000758474
311.997
417.977
0.000758438
0.00470244
376.793
0.00075882
465.997
220.42
296.098
0.000758511
0.000758876
853.054
0.059249
0.00080619
371.683
273.384
803.719
0.00075837
0.000784549
0.00559597
0.0303137
0.000758319
0.00170765
387.531
305.09
0.000760427
27.4369
0.000758433
43.3314
0.00098788
0.000782443
113.88
0.000758359
0.146302
0.000758692
65.1913
0.00090664
36.0552
437.946
273.878
661.202
27.3493
0.00084482
0.000760458
42.1413
390.434
395.261
0.0516467
0.000776845
207.925
0.000758512
0.0009549
0.000758956
441.204
36.8297
16.3144
196.252
459.04
25.2551
242.198
87.908
487.696
610.505
0.000762382
0.000773056
0.000818085
0.000759555
0.00210435
128.473
0.000884483
249.909
0.000798922
0.000765908
13.799
378.82
0.00114042
80.3276
0.00369406
78.9613
123.583
477.38
0.000774932
0.000888563
0.000758723
589.046
49.6083
360.907
6.29035
0.000760352
33.7282
2.1443
15.9897
0.000758868
365.127
0.000758678
394.158
9.41949
452.313
0.000761219
446.625
90.422
0.000758247
197.848
170.678
0.0098187
0.000759577
0.000758608
560.113
444.435
0.000793845
0.000758423
0.00180438
345.182
433.295
0.00075957
0.0013618
0.000758308
152.927
175.276
310.126
126.411
0.000758308
479.183
404.607
0.000758311
0.000758305
227.185
0.000758303
0.00191276
0.00076131
372.157
0.000914437
325.286
387.215
0.000762827
0.000802407
0.000758234
0.000760641
227.909
409.514
314.097
0.00732527
64.3492
288.374
8.03299
104.868
0.000774528
365.274
26.8978
440.598
154.799
236.121
602.262
0.00075826
0.000760996
316.016
64.3483
762.613
36.6619
682.346
29.034
8.13135
0.00233725
0.000863965
755.526
213.068
0.00214588
0.000765194
0.000761315
0.0203566
120.17
0.0300488
176.725
0.000758624
255.259
579.483
62.4699
405.059
442.448
282.016
80.0624
718.238
267.283
126.44
345.28
0.000758316
440.446
371.383
0.000758373
0.000758894
0.0656831
0.000759308
0.000782785
281.411
163.366
0.000761856
226.572
0.000758371
0.000759163
0.000758564
0.000772096
0.00135934
576.624
70.0285
404.411
0.000760121
0.000758333
35.8244
0.000773527
0.389224
0.000762586
0.00075871
534.316
0.000826696
0.00112178
117.395
0.00233125
0.000758329
741.089
0.000759167
0.000762471
0.000758295
0.000769737
0.00075923
0.000986798
0.00211879
0.000758332
0.000768756
363.651
387.087
58.2513
0.0968289
702.366
50.6687
0.00103777
575.442
294.958
474.091
357.294
0.000758461
24.0075
504.015
0.253505
420.113
127.054
8.29999
546.465
0.000758187
390.385
0.000769066
161.229
0.000759294
219.442
0.000760623
357.953
117.181
0.000758341
14.1386
0.00109415
0.000759751
0.00076061
60.8885
0.00078866
0.000765958
387.028
0.000758186
0.072238
483.157
372.939
0.000806631
0.000904082
116.352
333.48
0.000758309
0.000762104
1.37663
225.163
469.33
0.00178042
76.7175
0.000760005
0.000770284
0.000758279
0.0037936
56.1531
0.00460413
456.115
663.201
345.227
213.481
0.000772432
380.119
219.393
0.000758305
0.000759139
0.000758986
0.000770431
0.000759413
502.186
0.000758365
0.000759106
568.998
4.09586
0.00113248
0.000761037
782.516
191.327
0.000782692
0.000781294
303.191
0.000762472
0.00076206
0.000769755
0.000778366
222.639
196.404
0.000927517
0.000787101
0.000797992
0.000758443
569.187
0.000769507
158.726
0.000867666
75.3263
0.000758364
17.398
0.000758246
254.709
0.000762095
0.000777437
0.00152654
80.5792
0.21061
385.699
0.000758563
0.000974049
0.00085672
346.009
528.122
196.996
0.00189545
0.00261541
28.1045
0.000758317
0.0146362
401.968
0.00182238
547.366
460.489
3.92564
0.00111907
6.68569
105.103
246.572
418.202