/*--------------------------------*- C++ -*----------------------------------*\
| =========                 |                                                 |
| \\      /  F ield         | OpenFOAM: The Open Source CFD Toolbox           |
|  \\    /   O peration     | Version:  2.3.1                                 |
|   \\  /    A nd           | Web:      www.OpenFOAM.org                      |
|    \\/     M anipulation  |                                                 |
\*---------------------------------------------------------------------------*/
FoamFile
{
    version     2.0;
    format      ascii;
    class       volScalarField;
    location    "0.02";
    object      k;
}
// * * * * * * * * * * * * * * * * * * * * * * * * * * * * * * * * * * * * * //

dimensions      [0 2 -2 0 0 0 0];

internalField   nonuniform List<scalar> 
9648
(
5.29277
5.16805
5.09059
5.003
4.90359
4.79268
4.67118
4.53959
4.39843
4.24785
4.08869
3.92187
3.74952
3.57407
3.39962
3.23036
3.0713
2.92688
2.80115
2.69603
2.61162
2.54659
2.49893
2.4658
2.44467
2.433
2.42898
2.43104
2.4381
2.44918
2.46355
2.48084
2.5007
2.52293
2.54728
2.57368
2.60194
2.63202
2.66378
2.69718
2.73215
2.76864
2.80658
2.84593
2.88663
2.92863
2.9719
3.01642
3.06213
3.10897
3.15691
3.20597
3.25607
3.30716
3.35926
3.41237
3.46641
3.52125
3.57696
3.63367
3.69137
8.12244
8.05801
7.97376
7.87261
7.75076
7.60678
7.44092
7.2548
7.04854
6.82259
6.57662
6.31173
6.02938
5.73229
5.42513
5.11464
4.80941
4.5193
4.25481
4.02479
3.83544
3.68953
3.5866
3.52309
3.494
3.49369
3.51695
3.55929
3.61703
3.68696
3.7668
3.85469
3.94925
4.04936
4.15421
4.26305
4.37538
4.49075
4.60871
4.72885
4.85093
4.97481
5.1002
5.22686
5.35474
5.48351
5.61303
5.7433
5.8743
6.00576
6.1376
6.26985
6.40232
6.53454
6.66695
6.79921
6.93163
7.06332
7.19471
7.32585
7.45677
10.2058
10.149
10.0618
9.9477
9.80603
9.63718
9.4409
9.2189
8.97133
8.69963
8.4032
8.08361
7.74253
7.38347
7.01129
6.63307
6.25798
5.89685
5.5612
5.26208
5.00835
4.80618
4.65748
4.56049
4.51033
4.50065
4.52465
4.57608
4.64941
4.74003
4.84416
4.95906
5.08246
5.21253
5.34793
5.4877
5.6309
5.77689
5.92507
6.07498
6.2263
6.37868
6.53199
6.68598
6.84044
6.99523
7.15019
7.30533
7.46039
7.61532
7.76993
7.92425
8.07853
8.23195
8.38562
8.53826
8.6908
8.84179
8.99278
9.14323
9.29328
11.8977
11.8402
11.7476
11.622
11.4642
11.2751
11.0554
10.8061
10.5285
10.2234
9.89123
9.53345
9.15236
8.75168
8.33626
7.91309
7.4912
7.08108
6.69412
6.3417
6.03435
5.78023
5.58417
5.44671
5.36467
5.33208
5.34186
5.38665
5.45956
5.55458
5.66695
5.7927
5.92873
6.07264
6.22259
6.37722
6.53535
6.69612
6.8588
7.02285
7.18786
7.35358
7.51973
7.68617
7.8527
8.0192
8.18562
8.3519
8.51786
8.68342
8.84866
9.01316
9.17719
9.34051
9.50382
9.66636
9.82819
9.98928
10.1497
10.3095
10.4684
13.3928
13.3344
13.2369
13.1025
12.9317
12.7266
12.4884
12.2183
11.9177
11.5876
11.2288
10.843
10.4331
10.0025
9.55624
9.1008
8.64459
8.19759
7.77019
7.37375
7.01898
6.71556
6.47072
6.28758
6.16535
6.09977
6.0843
6.11131
6.1729
6.26207
6.37274
6.4999
6.63957
6.78859
6.94454
7.1057
7.27062
7.43807
7.60726
7.77747
7.94828
8.11938
8.29061
8.46175
8.63266
8.80326
8.9735
9.14338
9.31292
9.48181
9.65021
9.81795
9.98487
10.1511
10.3167
10.482
10.6465
10.8105
10.9738
11.1362
11.2978
14.7683
14.7099
14.609
14.4675
14.2869
14.0687
13.8155
13.5287
13.2106
12.8616
12.483
12.0764
11.6446
11.1912
10.7215
10.2408
9.75735
9.28013
8.81872
8.3834
7.98508
7.63352
7.33837
7.10483
6.9352
6.82714
6.77591
6.77429
6.81414
6.88743
6.9873
7.10723
7.24266
7.3894
7.54441
7.70538
7.87074
8.03875
8.20854
8.37915
8.55001
8.72089
8.89162
9.06205
9.23199
9.40144
9.57053
9.7389
9.90691
10.0743
10.2411
10.4072
10.5726
10.7371
10.9011
11.0644
11.2273
11.3899
11.5517
11.7125
11.8726
16.0599
16.0029
15.8999
15.7541
15.5651
15.3368
15.0711
14.7716
14.4393
14.0765
13.6831
13.2608
12.813
12.3421
11.8537
11.3526
10.8459
10.3433
9.85154
9.38188
8.94237
8.54405
8.1977
7.91104
7.68785
7.52897
7.43188
7.39152
7.39857
7.44623
7.52586
7.63021
7.75345
7.89096
8.03816
8.19306
8.35315
8.51635
8.68168
8.84802
9.01415
9.18014
9.34586
9.51133
9.67598
9.84004
10.0036
10.1665
10.329
10.491
10.6525
10.8131
10.9732
11.1327
11.2913
11.4496
11.6074
11.7652
11.9223
12.0782
12.2334
17.2862
17.2301
17.1273
16.9775
16.7845
16.5467
16.2706
15.9609
15.6185
15.2462
14.8425
14.4099
13.95
13.4659
12.9627
12.4431
11.9168
11.3908
10.8732
10.372
9.89401
9.44875
9.0513
8.70972
8.4294
8.21223
8.06036
7.97049
7.93441
7.94528
7.99558
8.07507
8.17821
8.29875
8.4321
8.57455
8.72413
8.87743
9.03374
9.19141
9.34884
9.50605
9.66275
9.81921
9.97512
10.1302
10.2849
10.4384
10.592
10.7449
10.8977
11.0493
11.201
11.3522
11.5032
11.6534
11.8029
11.9532
12.1031
12.2515
12.3991
18.4566
18.3975
18.2991
18.1435
17.9536
17.7067
17.4169
17.1048
16.7508
16.3764
15.9635
15.5257
15.0582
14.5683
14.051
13.5147
12.9691
12.4212
11.8825
11.3547
10.838
10.3472
9.89395
9.50055
9.1612
8.87909
8.66478
8.5173
8.42595
8.38984
8.40081
8.44739
8.52152
8.61739
8.7293
8.85318
8.98629
9.12551
9.26832
9.41332
9.55872
9.70316
9.84711
9.99056
10.1354
10.2789
10.4219
10.5631
10.7048
10.8445
10.9852
11.123
11.2623
11.4034
11.545
11.6847
11.8224
11.9628
12.1037
12.2422
12.3797
3.74998
3.80941
3.87015
3.93221
3.99569
4.06091
4.12844
4.19852
4.26904
4.34034
4.41173
4.48396
4.55681
4.63005
4.70358
4.7777
4.85237
4.92729
5.00239
5.07804
5.15429
5.2307
5.30761
5.38481
5.462
5.53935
5.61695
5.69473
5.77243
5.85008
5.92779
6.00531
6.08259
6.15979
6.23673
6.31336
6.38972
6.46599
6.54204
6.61773
6.6932
6.76861
6.844
6.91931
6.99474
7.06987
7.14452
7.21892
7.29304
7.36662
7.43972
7.51266
7.58574
7.65817
7.73065
7.80231
7.87328
7.94203
8.00919
8.07443
8.13805
7.58753
7.71635
7.84474
7.97302
8.10117
8.22843
8.3541
8.47889
8.6018
8.72447
8.84538
8.96544
9.08418
9.20149
9.31725
9.43132
9.54386
9.6547
9.76393
9.87149
9.9774
10.0815
10.1837
10.2838
10.382
10.4779
10.5718
10.6632
10.7522
10.8389
10.9229
11.0043
11.0829
11.1587
11.2315
11.3014
11.3682
11.432
11.4928
11.5506
11.6054
11.6573
11.7066
11.7533
11.7975
11.839
11.8774
11.9128
11.945
11.974
11.9998
12.0229
12.0436
12.0612
12.077
12.0891
12.0977
12.1012
12.1011
12.0968
12.0885
9.44211
9.59033
9.73718
9.88329
10.0288
10.1744
10.318
10.46
10.6001
10.7396
10.8777
11.0146
11.1497
11.2834
11.4154
11.5455
11.6738
11.8001
11.9243
12.0465
12.1666
12.2848
12.401
12.515
12.6269
12.7364
12.8434
12.9478
13.0495
13.1486
13.2449
13.3383
13.4286
13.5156
13.5993
13.6794
13.756
13.8289
13.8982
13.9639
14.0261
14.0846
14.1398
14.1919
14.241
14.287
14.3296
14.3687
14.4038
14.4351
14.4625
14.486
14.5064
14.5238
14.5386
14.5491
14.5551
14.5559
14.5521
14.5427
14.528
10.6267
10.7842
10.941
11.0965
11.2513
11.4052
11.558
11.7089
11.8585
12.007
12.1541
12.2995
12.4435
12.586
12.7267
12.8657
13.0028
13.1378
13.2705
13.4009
13.5289
13.6548
13.7787
13.9005
14.02
14.1371
14.2515
14.3631
14.4721
14.5783
14.6819
14.7825
14.88
14.9741
15.0647
15.1517
15.2346
15.3136
15.3885
15.4596
15.5269
15.5901
15.6495
15.7055
15.7583
15.808
15.8543
15.8969
15.9353
15.9697
15.9998
16.0255
16.0478
16.0669
16.0832
16.0952
16.1025
16.1044
16.1011
16.0916
16.0759
11.4586
11.6188
11.7782
11.9367
12.094
12.2502
12.4055
12.5595
12.7123
12.864
13.0143
13.1633
13.3109
13.457
13.6016
13.7447
13.8859
14.0252
14.1621
14.2964
14.4282
14.5577
14.6853
14.811
14.9345
15.0554
15.1737
15.289
15.4016
15.5117
15.6194
15.7243
15.8263
15.925
16.0203
16.1119
16.1993
16.2823
16.361
16.4357
16.5065
16.5729
16.635
16.6935
16.7486
16.801
16.8497
16.8948
16.9358
16.9727
17.005
17.0325
17.0563
17.0769
17.0946
17.108
17.1168
17.12
17.1177
17.1087
17.0933
12.0319
12.1906
12.3485
12.5057
12.662
12.8172
12.9714
13.1246
13.2768
13.4279
13.578
13.7269
13.8746
14.0209
14.1657
14.3092
14.4514
14.5917
14.7298
14.8649
14.9973
15.1272
15.2552
15.3817
15.5062
15.6281
15.7473
15.8631
15.976
16.0866
16.1955
16.3019
16.406
16.5069
16.6049
16.6993
16.7891
16.8744
16.9547
17.0312
17.104
17.1719
17.2352
17.2944
17.3501
17.4038
17.4537
17.5003
17.5426
17.5814
17.6151
17.6431
17.6677
17.6888
17.7077
17.7218
17.7317
17.7353
17.7338
17.7255
17.7108
12.3879
12.5418
12.6949
12.8474
12.9993
13.1503
13.3005
13.4501
13.599
13.7467
13.8936
14.0395
14.1844
14.3279
14.4698
14.6107
14.751
14.8899
15.0266
15.1601
15.2903
15.4178
15.5434
15.6679
15.7909
15.9114
16.0288
16.1421
16.2521
16.3595
16.4664
16.5714
16.675
16.7758
16.8746
16.9704
17.0609
17.1464
17.2261
17.3023
17.3755
17.4435
17.5061
17.5643
17.619
17.6727
17.722
17.7689
17.8113
17.8515
17.8862
17.9136
17.9378
17.9583
17.9776
17.9914
18.0018
18.0049
18.0041
17.9959
17.9827
12.5458
12.6919
12.8373
12.9822
13.1264
13.2703
13.4132
13.5567
13.7001
13.8422
13.9834
14.1241
14.2635
14.4019
14.538
14.6728
14.8084
14.9436
15.0773
15.2071
15.3324
15.4549
15.5754
15.6949
15.8143
15.9316
16.0453
16.1536
16.2568
16.3566
16.4576
16.5578
16.658
16.7562
16.8543
16.9508
17.0406
17.1238
17.2004
17.2741
17.3459
17.4127
17.4729
17.5279
17.5802
17.6322
17.6794
17.7252
17.7665
17.8077
17.8438
17.8693
17.892
17.9105
17.9289
17.9413
17.9514
17.9531
17.9523
17.9444
17.9331
12.5162
12.6522
12.7869
12.9211
13.0537
13.1873
13.3194
13.4532
13.5889
13.7245
13.8589
13.9923
14.1234
14.2551
14.383
14.5069
14.6338
14.7631
14.8924
15.0186
15.1356
15.2509
15.3645
15.4748
15.5883
15.7012
15.8107
15.9142
16.0066
16.0936
16.1824
16.2743
16.3665
16.4597
16.5555
16.654
16.7422
16.8201
16.8911
16.9592
17.0274
17.0933
17.1479
17.1968
17.2482
17.2951
17.3398
17.3813
17.421
17.4636
17.503
17.5244
17.5437
17.5605
17.5741
17.5858
17.5935
17.5943
17.5912
17.5849
17.5741
8.20065
8.26646
8.33588
8.406
8.47613
8.53273
8.59139
8.6506
8.70991
8.76883
8.82763
8.8863
8.94476
9.00302
9.06077
9.11775
9.17341
9.22789
9.2812
9.33323
9.38394
9.43324
9.48087
9.52678
9.57093
9.61336
9.65393
9.69262
9.72942
9.76431
9.79722
9.82809
9.8569
9.88353
9.90793
9.93
9.94964
9.96676
9.9813
9.99311
10.002
10.0079
10.0107
10.0101
10.0063
9.99891
9.98776
9.97196
9.95085
9.92442
9.89261
9.85505
9.81172
9.76227
9.70666
9.64448
9.57568
9.49984
9.41682
9.32606
9.22743
12.0776
12.0647
12.0452
12.0234
11.9941
11.9635
11.9302
11.8945
11.8575
11.8182
11.7771
11.7344
11.69
11.6438
11.5951
11.5434
11.4884
11.4302
11.3688
11.3045
11.2374
11.1669
11.0931
11.0162
10.9361
10.853
10.767
10.6784
10.5872
10.4936
10.3977
10.2996
10.1994
10.0971
9.99297
9.88702
9.77952
9.67052
9.56016
9.44856
9.33591
9.22262
9.10877
8.99434
8.87941
8.76405
8.64847
8.53226
8.41459
8.29537
8.17551
8.05532
7.93485
7.81415
7.69304
7.57173
7.45017
7.32842
7.20655
7.08497
6.96398
14.509
14.483
14.4498
14.415
14.3773
14.3375
14.2941
14.2472
14.1978
14.146
14.0913
14.0343
13.9749
13.9132
13.8481
13.7793
13.7064
13.6298
13.5498
13.4664
13.3794
13.2885
13.1937
13.0952
12.993
12.8873
12.7782
12.6662
12.5511
12.4332
12.3125
12.1891
12.0632
11.9349
11.8043
11.6716
11.5369
11.4005
11.2624
11.1227
10.9816
10.8392
10.6957
10.5511
10.4055
10.2587
10.111
9.96223
9.81212
9.65984
9.50467
9.34875
9.19147
9.0338
8.87472
8.71485
8.55333
8.39143
8.22879
8.0655
7.90125
16.0539
16.0236
15.9873
15.9491
15.9084
15.8656
15.8192
15.7695
15.7168
15.6612
15.6023
15.5406
15.4764
15.4093
15.3384
15.2633
15.1838
15.1006
15.0141
14.9241
14.8303
14.7322
14.6301
14.5241
14.4143
14.3009
14.1841
14.0643
13.9413
13.8153
13.6863
13.5547
13.4203
13.2835
13.1443
13.0031
12.8599
12.7151
12.5686
12.4206
12.2712
12.1205
11.9686
11.8156
11.6613
11.5059
11.3492
11.1913
11.0319
10.8709
10.7076
10.542
10.375
10.2073
10.0381
9.86738
9.69522
9.52181
9.34711
9.17073
8.99305
17.0698
17.0383
17.0016
16.9629
16.9209
16.8768
16.8292
16.7787
16.7248
16.6681
16.6072
16.5434
16.4768
16.4073
16.3336
16.2551
16.172
16.0856
15.996
15.9031
15.8062
15.7046
15.5989
15.4895
15.3761
15.2593
15.1391
15.016
14.8896
14.7601
14.6275
14.4922
14.3542
14.2139
14.0714
13.927
13.781
13.6334
13.4844
13.3341
13.1826
13.03
12.8764
12.7217
12.5659
12.4089
12.2504
12.0906
11.9295
11.7671
11.6033
11.4373
11.2697
11.101
10.9311
10.7595
10.5867
10.4126
10.2369
10.0596
9.88069
17.6868
17.656
17.6204
17.5829
17.541
17.4967
17.4486
17.3982
17.3446
17.2882
17.2267
17.1621
17.0944
17.0241
16.949
16.869
16.7841
16.6967
16.6064
16.5131
16.4155
16.3124
16.2058
16.0958
15.9817
15.8645
15.7441
15.6208
15.4939
15.3638
15.2307
15.0949
14.9566
14.8163
14.674
14.5302
14.385
14.2386
14.0909
13.9423
13.7926
13.6422
13.4911
13.339
13.1857
13.031
12.8748
12.7172
12.5584
12.3985
12.2375
12.0752
11.9111
11.746
11.5795
11.4118
11.2429
11.0727
10.9009
10.7279
10.5532
17.959
17.9304
17.8968
17.8618
17.8205
17.777
17.7289
17.6797
17.6274
17.573
17.5113
17.4466
17.3783
17.3085
17.2332
17.1535
17.0681
16.982
16.8928
16.8012
16.7049
16.6019
16.4968
16.389
16.2768
16.1622
16.0441
15.9235
15.7986
15.6707
15.5394
15.4061
15.2704
15.1333
14.9944
14.8546
14.7136
14.5718
14.4288
14.2854
14.1412
13.9967
13.8517
13.7057
13.5582
13.4088
13.2578
13.1052
12.9515
12.7971
12.6419
12.4859
12.3288
12.1704
12.011
11.8503
11.6885
11.5254
11.3611
11.1955
11.0282
17.9111
17.8857
17.8548
17.8228
17.7828
17.7407
17.6928
17.6456
17.5962
17.5455
17.4838
17.4186
17.3499
17.2814
17.2073
17.1293
17.0454
16.9623
16.8762
16.7878
16.6943
16.5925
16.4914
16.389
16.2818
16.1728
16.0597
15.9442
15.8237
15.7001
15.5731
15.4449
15.3147
15.184
15.0522
14.9198
14.7862
14.652
14.5173
14.3827
14.2476
14.1127
13.9777
13.841
13.702
13.5604
13.4164
13.2708
13.1251
12.9786
12.832
12.6849
12.5377
12.3893
12.2398
12.0889
11.9372
11.7842
11.6299
11.4746
11.3172
17.5581
17.5347
17.5086
17.4774
17.4414
17.3995
17.3526
17.3068
17.2639
17.2186
17.1582
17.0894
17.02
16.9519
16.883
16.8071
16.7291
16.6492
16.5672
16.4828
16.3919
16.2933
16.1995
16.106
16.0089
15.9068
15.8007
15.6918
15.5795
15.4612
15.3408
15.2197
15.0986
14.9775
14.8581
14.7355
14.6121
14.4878
14.3654
14.243
14.1226
13.9999
13.8784
13.7546
13.6261
13.4934
13.3569
13.2195
13.0855
12.949
12.8141
12.6785
12.545
12.4093
12.2729
12.1341
11.9953
11.8552
11.714
11.5716
11.4261
9.12067
9.0056
8.88169
8.74887
8.60672
8.4553
8.29409
8.12318
7.94219
7.75142
7.55065
7.34044
7.1209
6.89319
6.65796
6.41716
6.17252
5.92734
5.68479
5.44971
5.22208
4.99723
4.81811
4.67993
4.57499
4.49795
4.44263
4.40405
4.37741
4.3601
4.35104
4.35042
4.35808
4.36264
4.36589
4.37507
4.39212
4.41871
4.45468
4.50048
4.55436
4.61564
4.68166
4.75113
4.82185
4.89491
4.9684
5.0424
5.11485
5.18503
5.25111
5.31143
5.36295
5.40402
5.43251
5.44658
5.44462
5.42571
5.39177
5.34916
5.30983
6.8439
6.72443
6.60621
6.48966
6.3752
6.26302
6.15356
6.04736
5.94505
5.84704
5.75401
5.66666
5.5858
5.51219
5.44678
5.39068
5.34505
5.31128
5.291
5.28575
5.29436
5.32607
5.37776
5.44669
5.52743
5.61099
5.6872
5.74762
5.78597
5.80052
5.79274
5.76632
5.69921
5.59164
5.48054
5.38842
5.32428
5.29544
5.30562
5.35603
5.44411
5.56503
5.71363
5.88276
6.05633
6.23423
6.42069
6.61577
6.81629
7.0184
7.21854
7.41089
7.58906
7.74926
7.88741
7.99936
8.08162
8.13139
8.14951
8.14315
8.12792
7.73683
7.57187
7.40706
7.24271
7.07961
6.91722
6.75669
6.59802
6.44264
6.29067
6.14337
6.00156
5.8664
5.73899
5.62062
5.51265
5.41658
5.33387
5.26607
5.21432
5.17872
5.16032
5.16002
5.17744
5.21027
5.25361
5.30079
5.34444
5.37807
5.39717
5.4008
5.39004
5.3674
5.33447
5.296
5.26766
5.26479
5.30076
5.38552
5.52263
5.71139
5.94448
6.21133
6.50071
6.8044
7.11655
7.43498
7.75621
8.07682
8.39262
8.70217
8.99592
9.2666
9.5114
9.72489
9.90272
10.0417
10.1391
10.1962
10.2183
10.2176
8.81388
8.63362
8.45182
8.26892
8.0851
7.90047
7.71507
7.52916
7.34383
7.15897
6.97534
6.7933
6.61413
6.43865
6.26796
6.10338
5.94631
5.79825
5.66075
5.53519
5.42248
5.32371
5.24023
5.17301
5.12184
5.08517
5.06018
5.04322
5.03059
5.01943
5.00813
4.99719
4.98963
4.99132
5.01062
5.05601
5.13859
5.26893
5.45522
5.69985
5.99847
6.34254
6.72054
7.12016
7.53088
7.94587
8.36105
8.77317
9.17866
9.5738
9.95484
10.3166
10.6536
10.9606
11.2287
11.4546
11.635
11.7682
11.8549
11.8993
11.9093
9.70033
9.51818
9.33416
9.14833
8.96082
8.77166
8.58054
8.38797
8.19394
7.99854
7.80179
7.60429
7.4066
7.2091
7.0127
6.81826
6.62671
6.43939
6.2576
6.08278
5.91626
5.75955
5.61445
5.48252
5.36473
5.26128
5.17173
5.0952
5.03088
4.97835
4.9378
4.91095
4.9019
4.91735
4.96585
5.05758
5.20289
5.41045
5.68404
6.02138
6.41369
6.84926
7.31453
7.79732
8.28702
8.77716
9.26296
9.74186
10.2103
10.6643
11.0999
11.5126
11.897
12.2477
12.56
12.8254
13.0407
13.2041
13.3161
13.3796
13.4011
10.3768
10.1987
10.0189
9.83698
9.65337
9.46786
9.28029
9.09035
8.89847
8.70412
8.50764
8.309
8.10858
7.90659
7.70365
7.49983
7.29626
7.09369
6.89329
6.69615
6.50391
6.31796
6.14029
5.97267
5.81679
5.67367
5.54438
5.42948
5.33035
5.24845
5.18577
5.14528
5.13258
5.1555
5.22341
5.34675
5.53523
5.79499
6.12757
6.52672
6.98111
7.4769
8.0008
8.54001
9.08452
9.62732
10.1646
10.6929
11.2089
11.7081
12.1859
12.6383
13.06
13.4448
13.7885
14.0866
14.3323
14.5222
14.6571
14.7385
14.7711
10.8593
10.689
10.5168
10.3432
10.1678
9.99049
9.81101
9.62937
9.44523
9.2587
9.06929
8.87735
8.68299
8.48639
8.2877
8.08742
7.88553
7.68319
7.48073
7.27987
7.08164
6.88742
6.69895
6.51824
6.34717
6.18739
6.04047
5.90815
5.79285
5.69804
5.62653
5.5828
5.57325
5.60745
5.69442
5.84547
6.06734
6.36499
6.73707
7.17682
7.6692
8.20294
8.76337
9.33997
9.9205
10.501
11.0743
11.64
12.1919
12.7261
13.2365
13.7207
14.1717
14.5834
14.9522
15.274
15.545
15.7589
15.9148
16.0129
16.0568
11.1588
10.9992
10.838
10.6754
10.5116
10.346
10.1782
10.008
9.83583
9.66054
9.4828
9.30217
9.11945
8.9343
8.74726
8.55784
8.36595
8.17261
7.97828
7.7848
7.59345
7.40392
7.21873
7.03936
6.86899
6.70817
6.5604
6.42645
6.31056
6.21644
6.14916
6.11424
6.11804
6.17175
6.28368
6.46383
6.71842
7.04748
7.45164
7.92014
8.43899
8.99589
9.58112
10.1825
10.7891
11.3937
11.9946
12.5867
13.167
13.7281
14.2646
14.7731
15.2467
15.6795
16.0676
16.4089
16.6976
16.9321
17.1062
17.2222
17.2762
11.2811
11.1357
10.9884
10.8405
10.6914
10.5402
10.3867
10.2307
10.0732
9.91221
9.74932
9.58348
9.41613
9.24666
9.07632
8.90394
8.72705
8.54874
8.36876
8.19026
8.01299
7.8351
7.66106
7.49294
7.33419
7.18323
7.04571
6.92211
6.81682
6.73356
6.68006
6.66779
6.69621
6.77927
6.92496
7.13762
7.42775
7.78806
8.22336
8.71595
9.25747
9.82864
10.4345
11.0526
11.6786
12.2986
12.9245
13.5332
14.1378
14.7166
15.2761
15.8029
16.2896
16.7399
17.142
17.5
17.798
18.0523
18.2389
18.378
18.4376
0.9469
16.1316
15.3383
0.654008
1.06068
0.0750478
0.00324126
8.27346
0.00325839
0.02602
11.4979
5.80508
0.00324158
22.4883
0.0540232
11.547
0.00325591
8.62044
10.9641
0.00324127
0.556399
22.6784
18.1388
0.00328831
0.00325073
1.72027
0.00324148
3.86217
0.00325333
0.00324858
0.424648
0.00323664
0.0186504
22.7411
4.25484
10.1433
8.60101
11.2482
0.00323957
0.507838
10.8309
7.60193
0.00323755
9.60999
18.9051
0.87949
0.00323555
0.00397582
0.00326277
6.41099
18.606
9.06937
0.00323575
0.00324641
0.0644112
0.00323518
0.00324858
4.35676
9.01515
9.97083
7.34715
0.00333734
0.00623336
0.00791578
9.87414
0.00323522
8.44997
7.29439
0.0039739
0.00323531
0.00324473
14.5349
9.94882
0.00323498
0.129361
18.4003
13.4841
14.8357
0.00323536
5.74758
0.00409795
0.910957
0.00344497
14.6906
0.00323528
9.80145
0.00325634
20.1494
0.00605259
0.00348039
0.0819859
0.00323518
0.00329395
9.95373
7.98817
0.00327111
2.66689
0.0259341
0.00549028
10.568
0.0032353
0.00407538
8.71117
0.00323497
0.00323551
0.00323555
4.85454
0.157494
0.00326313
9.372
10.9638
0.00444655
21.2217
18.634
8.58127
21.4925
9.3094
0.00366334
0.0327112
0.00323799
0.00323505
19.0856
0.00324732
11.1698
10.3504
5.42912
0.00323625
3.928
4.08683
0.00323632
0.109971
0.00801776
6.75915
0.00324375
21.5708
0.0032352
0.00323564
8.74381
10.0569
0.003238
0.00708475
8.29118
1.58179
3.04182
16.1126
11.3515
0.00327764
14.9275
0.00813167
19.6914
0.00325982
0.00323539
15.0048
14.6669
8.8095
0.00323828
0.00323941
0.220215
0.00323517
7.91771
0.0036372
0.00476978
0.00323601
0.00323579
0.00323817
12.3674
7.54389
9.94883
0.00325738
21.2214
17.2504
9.50249
13.0826
0.0160971
22.6772
20.9398
11.8355
0.00323792
0.00415192
7.43614
13.5107
8.31825
6.55098
0.0032352
0.00325938
22.0021
0.00909336
4.81588
0.0032418
0.00323535
1.37937
0.00332538
12.9365
2.31338
0.00323504
0.372091
6.73335
15.3554
0.00412646
7.28329
0.00323528
0.00324025
9.83355
6.00747
19.351
0.00416991
0.0032572
0.00445722
5.82637
7.5064
10.1829
12.9009
0.00326049
11.4617
2.02335
11.8176
7.67245
8.15281
8.06075
20.3221
0.00323917
0.0310939
0.00323791
0.00323611
9.80498
0.00586687
0.0061843
0.0032389
0.0143541
14.9117
23.2122
0.0264929
14.7912
4.22875
0.00336053
0.00323905
0.381428
9.08666
3.83557
0.00381018
0.0160386
6.16939
1.66531
0.00325218
11.5887
8.39222
3.44893
11.1626
0.00357374
0.00323506
0.00340255
0.0114991
11.1344
0.0032391
0.00324309
0.00323897
5.78701
4.55215
17.563
15.4974
0.00326701
7.18041
9.25791
0.00395984
8.0589
11.6615
0.00323632
19.4067
0.00323526
8.4308
5.72904
19.3044
0.00394298
0.0032354
11.4075
3.79435
0.00323991
0.00323772
0.00324456
0.00325592
3.30319
10.1946
8.68293
0.00651161
0.00324075
0.00323901
0.00323509
13.3057
0.13172
0.0035024
4.08844
0.0787666
0.0609035
0.00323524
3.73676
0.00324081
0.00355752
8.42813
19.2076
0.00327732
0.00323865
0.00336803
14.782
0.344061
7.6566
9.61868
0.00332802
0.00323604
0.00323794
13.2028
0.00324584
10.5826
0.0032352
5.65823
0.00329202
0.0493603
20.4216
8.24551
0.00356718
14.7873
1.43658
8.54887
6.09641
0.0032725
10.7516
17.258
3.25147
9.35975
9.93131
9.86274
0.139879
9.15992
10.5314
14.1562
19.0788
0.00332421
20.2032
20.5656
13.3088
0.0193641
0.00331085
0.00323599
0.00326679
1.89725
3.71643
0.240029
0.0336353
0.00324079
9.06902
0.00323585
18.6275
4.90171
11.7619
5.69662
6.24189
0.00328166
0.00335516
0.236314
23.1223
0.0037917
6.47341
21.7983
9.88433
14.6586
18.0083
2.37795
0.00325179
11.0651
8.01918
9.67926
0.00323964
9.46933
8.26363
0.00325259
18.4912
0.00324209
16.9326
19.8578
15.9982
11.6537
20.1633
9.27015
0.00328298
9.76188
0.00335982
17.647
15.357
12.3236
11.2013
2.84617
1.70956
5.98499
0.00334044
8.72363
0.00479949
0.00651339
0.00329028
19.4343
0.00336002
15.0019
0.00323537
0.00324563
0.00543326
12.451
0.0815271
4.75344
0.00323804
10.8613
0.121068
13.5635
8.29277
6.38839
19.8256
0.00334214
11.5676
12.3999
0.00323545
15.2819
5.32221
0.00323567
0.00323549
9.73132
0.00564133
4.96285
0.25305
22.4696
0.0212093
1.85921
5.92292
14.599
6.14568
11.7278
7.00998
0.00331151
0.00648585
8.00848
7.30825
10.0217
20.0078
15.9354
0.016017
8.27782
8.16655
6.46539
6.78425
5.78427
5.26094
0.00327202
14.9598
9.76624
0.00356305
11.3807
10.3872
5.76939
0.00913162
0.0157095
22.211
0.0032733
9.95316
0.00344164
2.10073
0.00324678
9.51111
7.70164
0.793005
0.00343177
0.00343571
22.9662
16.0514
0.00323659
3.18952
21.4991
9.39584
0.00331469
6.76975
15.4401
21.774
16.6927
8.87341
13.0138
18.6938
12.9969
0.00323785
0.00323945
10.8016
11.2037
9.19907
11.1281
0.00324706
20.2021
21.8082
0.00333769
6.5295
19.7466
0.00327821
0.0208804
7.6519
8.40943
2.32105
11.2621
0.0050642
0.00323552
0.00323516
0.00363043
14.6554
8.77302
0.00323526
0.00324578
0.00323568
13.7208
0.0335159
0.00323627
0.104444
8.95529
20.3576
0.00423555
0.00454969
0.00323494
0.00324479
0.00326791
12.3214
9.57099
7.00989
4.88478
11.5526
15.4896
0.00478878
10.4715
11.1613
13.8724
10.9173
9.75635
0.00335262
0.00374485
0.0032378
8.71153
0.534662
0.00323788
7.09066
0.147202
9.78323
0.00324014
12.4769
4.1843
0.00661935
10.755
0.00323726
0.00323501
0.00324866
9.65739
13.458
9.20622
17.2681
0.00754836
8.75127
0.00323528
0.00364493
0.162446
0.00323834
0.0153574
9.77939
9.62749
0.00323887
8.11343
7.19018
8.52622
9.83591
0.00449153
9.38468
0.00339007
0.0154411
22.8761
0.00323514
13.0009
0.00324468
0.00325163
0.0147975
19.5713
4.97353
9.82662
10.8371
0.00324544
11.6152
8.87729
0.00323605
0.331278
0.00325117
0.00324649
0.0032418
0.00619281
13.9172
3.92304
0.00331632
9.69868
22.1239
9.93078
0.00323528
7.40795
0.00377107
8.14103
0.294894
0.0282788
7.79377
7.43633
9.04209
11.0823
0.003277
0.00323533
0.00344574
5.70249
7.69735
4.13005
0.00524035
0.00323706
0.00323783
0.00351553
0.003235
0.00393736
7.51095
0.00360127
0.0131151
16.7516
8.6539
0.00325859
15.2377
0.00324968
2.49253
0.00324476
0.0178097
8.06392
0.0120533
0.00323544
3.00444
11.8995
16.9615
0.00324575
0.00323551
1.114
0.00323507
0.0032358
14.0228
0.00329553
7.14048
10.0509
12.3088
6.58346
9.76816
10.2651
9.8887
0.0032371
0.00661751
0.00558677
8.23747
6.55877
10.3009
0.00326282
2.56364
15.5161
21.9548
12.7855
0.00323743
9.85519
0.00323534
1.0371
20.9731
12.7291
8.39362
7.69629
0.059376
14.4456
1.50983
0.00336948
21.2403
0.00323764
19.3656
0.00324414
3.82542
11.0457
7.25086
1.80066
0.00547141
8.24166
0.00324326
0.003238
0.0917353
0.00774111
21.2112
0.00389172
12.3949
0.00323518
0.0101539
0.00323859
9.82396
0.00330552
16.0509
9.69156
0.00556607
9.6468
17.2448
0.00324076
9.29372
21.535
0.00332371
11.319
0.0426677
0.00329066
0.00323603
17.6137
0.00323631
0.00333872
0.0272112
1.40715
13.3283
10.4107
0.00323546
0.00323738
0.00324943
7.61126
0.00533189
0.00324804
11.05
0.00323557
0.00335442
0.00323594
11.4446
11.8221
6.1491
19.8188
0.00801055
17.9721
0.00329621
0.00653761
0.0078503
0.114399
0.0032401
20.9782
0.00323569
0.0143989
0.0032388
0.00323586
0.00546926
0.00323509
2.41857
8.36691
17.7045
2.15448
10.1882
10.7001
12.1633
0.00331617
22.6485
9.13517
10.5296
10.3738
0.00326695
8.25795
7.6225
0.00323533
15.159
8.05735
0.00323589
0.00323494
13.7675
15.9515
0.00323997
9.30671
15.511
6.62275
12.8241
11.628
16.8472
7.33241
6.6644
5.72711
9.10458
11.1409
0.00572628
18.3379
8.18035
8.60404
0.00333213
5.38533
0.00332611
13.1492
8.28575
0.0107089
8.80891
13.5758
4.13408
0.0341571
3.96348
10.0607
0.00375787
10.6336
12.1321
0.112201
13.2777
4.07297
9.21006
10.3994
0.00324266
0.00515579
4.1062
8.3375
0.0110212
0.00323591
1.99798
2.06413
0.00372497
0.00323983
8.14773
3.63302
5.97958
9.90398
0.00440424
0.00333722
0.00323908
12.7289
0.00328078
5.10764
19.9484
3.39292
7.59566
0.00347346
1.07145
0.00323754
0.00323501
11.5685
0.003235
0.340844
9.21698
17.1688
0.431858
16.7765
6.30761
0.00326327
0.00359992
5.58266
13.5194
0.00323901
0.00323619
9.87896
0.0127937
0.00323829
7.38751
0.00324455
10.3419
13.372
8.92845
0.140345
11.0125
8.18313
13.1439
19.9884
0.00324962
21.8708
0.00324372
0.278294
0.0032913
0.00323597
8.60132
0.00567064
8.2785
0.0224121
0.0162213
11.1502
6.57273
0.00333022
0.0033126
8.59979
0.00330648
0.00323717
10.311
8.98524
13.2039
16.4179
0.00325669
0.00323499
9.96508
9.51328
0.00323534
16.9261
10.6526
0.00324179
14.1153
0.00323592
2.61602
8.76115
7.70221
1.03843
8.5404
0.00336003
0.00323578
9.36064
18.6066
0.00323568
0.00911268
11.6692
0.00323681
12.9499
19.5044
8.57471
0.00323589
0.00323698
18.5706
0.0436082
0.00337573
12.6613
9.66882
18.0252
0.00323548
0.00331267
0.0122203
0.0273591
0.00323533
0.00565722
13.6592
16.5991
0.00324157
3.56031
0.00323566
4.46463
0.00388762
0.00330645
7.27513
0.00323544
0.0921443
0.00323643
6.35827
0.00358772
4.29834
13.6366
8.41808
23.0939
2.9618
0.00345179
0.00324038
3.66217
10.6053
9.3432
0.0401129
0.00329001
9.29727
0.0032359
0.00377282
0.00323721
11.4796
4.53625
2.74103
9.22875
12.8666
3.41198
10.9067
6.0814
13.6994
17.0138
0.00324736
0.00327888
0.00340998
0.00323899
0.00654002
11.8932
0.00359973
11.891
0.00335464
0.00325778
1.92146
22.5159
0.0042846
5.97718
0.00818983
10.941
7.65718
12.6627
0.00328438
0.0036113
0.00323652
16.4585
7.24476
13.7602
1.28894
0.00324135
5.29149
0.447013
4.41171
0.00323695
7.45032
0.00323639
8.57511
1.20371
15.254
0.00324392
15.1554
6.16797
0.00323511
8.41594
9.13574
0.0151818
0.00323905
0.00323618
23.1877
14.9326
0.00333805
0.00323564
0.00585615
7.57251
13.5015
0.00323903
0.00483161
0.00323529
9.41648
8.31265
10.3265
7.74968
0.00323529
22.9973
10.1217
0.00323529
0.00323527
9.8421
0.00323528
0.00609105
0.00324418
11.624
0.00368355
12.5422
9.26217
0.00324867
0.00336479
0.00323507
0.0032422
10.6514
8.91992
10.9841
0.0146729
5.3227
8.96002
1.05088
6.91925
0.00328319
7.2849
2.55925
15.5031
8.31597
9.07947
23.2765
0.00323515
0.00324209
11.5752
10.6238
18.5915
3.41735
19.6847
3.00602
2.65178
0.00695173
0.00354187
22.1135
9.20722
0.0056005
0.00325567
0.00324419
0.0233711
7.42617
0.028499
8.73669
0.00323623
8.62275
20.537
4.57444
20.9098
14.4765
15.3643
5.90446
22.0904
8.2135
7.39304
13.5191
0.00323532
14.898
14.019
0.00323549
0.00323703
0.0456359
0.00323826
0.00330746
15.8089
8.08871
0.0032458
12.1298
0.00323548
0.00323783
0.00323605
0.00327603
0.00483605
17.9827
8.95987
11.551
0.00324066
0.00323537
3.54537
0.00328025
0.101904
0.00324494
0.00323649
23.3932
0.00343485
0.00424182
7.35935
0.00695983
0.00323535
21.9397
0.00323784
0.00324762
0.00323526
0.00326909
0.00323803
0.00388066
0.00644084
0.00323536
0.00326618
9.58813
9.96071
6.1937
0.050216
22.876
4.59165
0.00401799
14.8966
8.35735
13.1939
8.82576
0.00323575
5.82848
14.2397
0.0870536
9.95454
14.17
1.02505
18.5254
0.00323494
8.91146
0.00326709
8.61206
0.00323751
10.8103
0.00324215
9.13057
7.40605
0.00323539
1.57168
0.004168
0.00323957
0.00324211
4.6303
0.00332468
0.00325793
17.719
0.00323493
0.0488244
13.4659
10.4156
0.00337708
0.00365478
7.36003
9.89185
0.0032353
0.00324653
0.584632
9.65178
14.8515
0.00583541
5.73331
0.00324032
0.00327071
0.00323521
0.00955621
5.26661
0.0110483
21.8312
19.4037
10.1425
8.7625
0.00327703
18.7426
10.4231
0.00323528
0.0032373
0.00323705
0.00327113
0.00323857
23.3093
0.00323546
0.00323766
19.7354
0.883823
0.00426934
0.00324338
21.7392
9.4167
0.00330711
0.00330311
10.7979
0.0032446
0.00324641
0.00326915
0.00329449
9.13074
13.7679
0.00371889
0.00332012
0.00335075
0.00323569
18.7384
0.0032684
10.1931
0.00354439
5.62584
0.00323546
2.7532
0.00323511
10.1056
0.00324457
0.00329175
0.00523892
8.67357
0.142067
9.93353
0.00323605
0.00384683
0.00352116
10.2042
14.8973
8.1304
0.00609292
0.0074346
3.03848
0.0032353
0.0110304
14.228
0.00591579
22.3751
14.1275
1.43258
0.00423147
1.02531
7.64263
8.89324
11.0264
0.0198687
22.7596
0.0033023
8.87957
0.0271901
1.74121
8.04072
0.00324434
12.2523
0.00327073
0.00685428
0.00323549
0.0230773
0.00331683
9.97356
0.00324789
0.29383
0.155441
0.00323706
0.00323649
0.00324074
0.526524
0.0919199
12.2925
4.55151
13.8313
0.567936
0.00323568
0.00323532
0.0032368
0.0600797
6.97157
9.98495
0.00323541
10.0448
7.67301
0.010308
11.8058
0.514603
17.256
20.9771