/*--------------------------------*- C++ -*----------------------------------*\
| =========                 |                                                 |
| \\      /  F ield         | OpenFOAM: The Open Source CFD Toolbox           |
|  \\    /   O peration     | Version:  2.3.1                                 |
|   \\  /    A nd           | Web:      www.OpenFOAM.org                      |
|    \\/     M anipulation  |                                                 |
\*---------------------------------------------------------------------------*/
FoamFile
{
    version     2.0;
    format      ascii;
    class       volScalarField;
    location    "0.02";
    object      nut;
}
// * * * * * * * * * * * * * * * * * * * * * * * * * * * * * * * * * * * * * //

dimensions      [0 2 -1 0 0 0 0];

internalField   nonuniform List<scalar> 
9648
(
0.000384028
0.000374926
0.000371936
0.000368692
0.000364984
0.000360764
0.000356047
0.000350896
0.000345266
0.000339158
0.000332545
0.000325515
0.000318098
0.000310398
0.000302601
0.000294943
0.000287649
0.000280971
0.000275138
0.000270284
0.000266398
0.000263435
0.00026131
0.000259878
0.000259007
0.000258589
0.000258538
0.00025878
0.000259253
0.000259918
0.000260731
0.000261679
0.000262748
0.000263931
0.00026521
0.000266581
0.000268043
0.000269585
0.000271192
0.000272862
0.000274608
0.000276413
0.000278275
0.000280199
0.000282171
0.000284173
0.00028622
0.000288326
0.000290474
0.00029264
0.000294837
0.000297089
0.000299355
0.000301641
0.000303961
0.000306323
0.000308703
0.000311058
0.000313439
0.00031588
0.000318383
0.00233947
0.00233745
0.00233731
0.00233815
0.00233658
0.00233077
0.00231989
0.00230496
0.00228559
0.00226168
0.00223179
0.00219569
0.00215193
0.00209901
0.00203587
0.0019626
0.00188035
0.00179169
0.00170119
0.00161458
0.00153699
0.00147246
0.00142326
0.00138952
0.00137
0.0013629
0.00136624
0.00137812
0.00139691
0.00142124
0.00145014
0.0014827
0.00151827
0.00155644
0.00159676
0.00163883
0.00168247
0.00172749
0.00177364
0.0018206
0.00186831
0.00191675
0.00196571
0.00201501
0.00206471
0.00211444
0.00216412
0.00221385
0.00226367
0.00231323
0.00236254
0.00241184
0.0024609
0.00250909
0.00255708
0.00260443
0.00265174
0.00269768
0.00274292
0.00278759
0.00283181
0.00541826
0.00544105
0.00545721
0.00546921
0.00547476
0.00547318
0.00546184
0.00544225
0.00541297
0.0053748
0.00532342
0.00525702
0.00517155
0.0050631
0.00492769
0.00476317
0.00457032
0.00435374
0.00412289
0.00389097
0.00367226
0.00347981
0.00332207
0.00320259
0.00312034
0.00307164
0.00305153
0.00305486
0.00307716
0.00311456
0.00316393
0.003223
0.00328997
0.0033633
0.00344189
0.00352499
0.00361179
0.00370183
0.00379457
0.00388959
0.00398659
0.00408517
0.00418526
0.00428656
0.00438877
0.00449171
0.0045951
0.00469906
0.00480314
0.00490731
0.00501138
0.00511534
0.00521969
0.00532254
0.00542644
0.00552845
0.00563066
0.00572968
0.00582906
0.00592771
0.00602587
0.00902999
0.00907317
0.00910521
0.0091274
0.00913936
0.00914031
0.00912861
0.00910398
0.00906543
0.00901153
0.00893683
0.00883663
0.00870391
0.00853196
0.00831348
0.00804434
0.0077246
0.00736031
0.00696493
0.00655822
0.00616393
0.0058047
0.00549803
0.00525341
0.0050725
0.00495103
0.0048817
0.00485596
0.00486568
0.00490359
0.00496408
0.00504252
0.00513527
0.0052397
0.00535363
0.00547552
0.00560401
0.00573815
0.00587703
0.00602001
0.0061665
0.00631604
0.00646815
0.00662259
0.00677889
0.00693679
0.00709605
0.00725652
0.00741768
0.00757938
0.00774199
0.00790406
0.00806631
0.00822784
0.00839068
0.00855229
0.00871263
0.00887164
0.00902983
0.00918702
0.00934204
0.0130008
0.0130601
0.0131037
0.0131331
0.0131475
0.0131473
0.0131316
0.0130989
0.0130475
0.0129741
0.0128717
0.0127329
0.0125483
0.0123077
0.0120016
0.0116239
0.0111738
0.0106586
0.0100939
0.00950455
0.00892115
0.00837564
0.00789486
0.0074963
0.00718686
0.0069646
0.00682141
0.00674619
0.00672713
0.00675343
0.00681589
0.0069071
0.00702122
0.00715369
0.00730105
0.00746076
0.0076307
0.00780909
0.00799468
0.00818635
0.00838332
0.00858479
0.00879027
0.00899916
0.009211
0.00942536
0.00964178
0.00986003
0.0100801
0.010301
0.0105231
0.0107459
0.0109683
0.0111904
0.0114128
0.0116352
0.0118562
0.0120763
0.0122953
0.0125124
0.0127275
0.0172849
0.017356
0.0174062
0.0174376
0.0174503
0.0174431
0.0174169
0.0173705
0.0173008
0.0172035
0.0170696
0.0168892
0.01665
0.0163391
0.015945
0.0154604
0.014884
0.0142234
0.013495
0.0127251
0.0119496
0.0112073
0.0105346
0.00995764
0.00949125
0.00913816
0.00889286
0.0087432
0.0086747
0.0086728
0.00872476
0.00881924
0.00894784
0.00910359
0.00928127
0.00947674
0.00968701
0.00990937
0.0101419
0.0103828
0.0106309
0.0108851
0.0111447
0.0114089
0.0116772
0.0119491
0.0122244
0.0125014
0.0127809
0.0130621
0.0133447
0.0136282
0.0139123
0.0141961
0.0144803
0.0147634
0.0150456
0.0153273
0.0156077
0.0158851
0.0161609
0.0218804
0.021959
0.0220115
0.0220394
0.0220438
0.0220229
0.0219783
0.0219116
0.0218171
0.0216916
0.0215228
0.0212996
0.0210067
0.0206279
0.0201498
0.0195649
0.0188707
0.0180761
0.0171948
0.0162539
0.0152891
0.0143458
0.0134682
0.0126929
0.0120414
0.0115251
0.0111443
0.0108896
0.0107441
0.0106918
0.0107152
0.0107991
0.0109313
0.0111027
0.0113049
0.0115325
0.0117807
0.0120456
0.0123246
0.0126153
0.0129151
0.0132225
0.0135367
0.0138571
0.0141823
0.0145121
0.014846
0.0151828
0.0155227
0.0158645
0.016208
0.0165527
0.0168977
0.0172437
0.0175888
0.0179335
0.0182773
0.0186197
0.0189605
0.0192987
0.0196336
0.0268052
0.0268827
0.0269339
0.0269501
0.0269441
0.0268992
0.0268265
0.0267324
0.0266054
0.0264492
0.0262424
0.0259795
0.0256363
0.0251973
0.0246414
0.0239641
0.0231656
0.0222497
0.0212337
0.0201357
0.0189891
0.0178439
0.0167526
0.0157643
0.0149036
0.0141899
0.0136365
0.0132386
0.0129819
0.0128486
0.0128198
0.0128731
0.0129925
0.0131666
0.0133854
0.0136382
0.0139198
0.0142248
0.0145488
0.0148895
0.0152428
0.0156058
0.0159747
0.0163514
0.016735
0.0171226
0.017516
0.0179113
0.0183121
0.0187146
0.0191195
0.0195235
0.0199293
0.0203372
0.0207441
0.0211474
0.0215498
0.0219509
0.0223519
0.0227497
0.0231415
0.0320842
0.0321418
0.0321949
0.0321825
0.0321749
0.0320911
0.0319709
0.0318523
0.0316756
0.0314929
0.0312395
0.0309431
0.0305574
0.0300773
0.0294469
0.0286887
0.0277944
0.0267727
0.02565
0.0244153
0.0230955
0.0217522
0.0204331
0.0192352
0.0181467
0.0172017
0.0164336
0.0158518
0.0154409
0.0151876
0.0150793
0.0150808
0.0151584
0.0153146
0.0155395
0.0158057
0.0161122
0.0164531
0.0168149
0.0172067
0.0176184
0.0180486
0.0184718
0.0189034
0.019353
0.0197946
0.0202517
0.0206993
0.0211659
0.0216253
0.0221013
0.0225601
0.023018
0.0234922
0.0239672
0.0244193
0.0248802
0.0253245
0.0257837
0.026246
0.0266846
0.000320857
0.000323297
0.000325811
0.000328396
0.000331029
0.000333672
0.00033638
0.000339194
0.000342007
0.000344819
0.000347595
0.000350408
0.000353221
0.000356006
0.000358785
0.000361584
0.000364384
0.000367154
0.000369903
0.000372667
0.00037543
0.000378177
0.000380936
0.000383682
0.000386396
0.000389103
0.000391806
0.0003945
0.000397165
0.000399819
0.000402454
0.000405064
0.000407646
0.000410215
0.000412751
0.000415264
0.000417763
0.00042025
0.000422702
0.000425123
0.000427538
0.000429937
0.00043232
0.000434704
0.000437072
0.000439396
0.000441696
0.000443999
0.000446285
0.000448517
0.000450723
0.000452947
0.000455142
0.000457294
0.000459453
0.000461608
0.000463724
0.000465704
0.00046764
0.000469567
0.000471497
0.00287579
0.00291667
0.00295659
0.00299581
0.00303432
0.0030711
0.00310498
0.00313722
0.00316759
0.00319796
0.0032266
0.00325477
0.00328202
0.00330834
0.00333371
0.00335796
0.00338127
0.00340345
0.0034246
0.0034447
0.0034639
0.00348228
0.00349963
0.00351602
0.00353143
0.00354583
0.00355925
0.00357155
0.0035829
0.0035932
0.00360237
0.00361052
0.0036176
0.00362347
0.00362818
0.00363179
0.00363413
0.00363535
0.00363539
0.00363432
0.0036321
0.00362871
0.0036244
0.00361918
0.00361304
0.00360598
0.00359789
0.00358884
0.00357858
0.00356722
0.00355485
0.00354159
0.0035275
0.00351218
0.00349677
0.00347994
0.00346199
0.00344215
0.00342211
0.00340104
0.00337863
0.00612156
0.00621605
0.00630753
0.00639707
0.00648507
0.00657304
0.00665672
0.00673782
0.00681641
0.00689481
0.00697129
0.00704659
0.00711966
0.00719156
0.00726169
0.00733001
0.0073965
0.00746104
0.00752357
0.00758414
0.00764305
0.00770021
0.0077557
0.00780947
0.00786137
0.00791128
0.0079592
0.00800503
0.00804891
0.00809071
0.00813066
0.00816844
0.008204
0.00823734
0.00826818
0.00829654
0.00832225
0.00834537
0.00836586
0.00838391
0.00839946
0.00841244
0.00842308
0.00843176
0.00843838
0.00844313
0.00844562
0.00844579
0.00844321
0.00843808
0.00843032
0.00841955
0.00840679
0.00839223
0.00837687
0.00835827
0.0083366
0.00831165
0.00828459
0.00825405
0.00822004
0.009496
0.00964778
0.00979776
0.00994462
0.0100897
0.0102332
0.0103743
0.0105115
0.010647
0.0107813
0.0109134
0.0110429
0.0111703
0.011296
0.0114189
0.0115397
0.0116579
0.0117733
0.0118858
0.0119954
0.0121023
0.0122067
0.0123085
0.012408
0.0125046
0.0125983
0.0126887
0.0127759
0.0128601
0.0129415
0.0130201
0.0130957
0.0131681
0.0132371
0.0133026
0.0133643
0.0134219
0.0134753
0.0135246
0.0135702
0.0136121
0.0136498
0.0136839
0.0137147
0.0137424
0.0137672
0.0137887
0.0138065
0.0138199
0.0138292
0.0138342
0.0138345
0.013831
0.0138248
0.0138171
0.0138052
0.0137885
0.0137675
0.0137421
0.0137108
0.0136743
0.0129401
0.0131513
0.0133602
0.0135664
0.0137694
0.0139704
0.0141693
0.014365
0.0145578
0.0147488
0.0149366
0.0151218
0.0153047
0.0154847
0.0156621
0.0158371
0.0160079
0.0161755
0.0163393
0.016499
0.0166549
0.0168074
0.0169567
0.0171028
0.0172451
0.0173832
0.0175167
0.0176457
0.0177703
0.0178912
0.0180087
0.0181224
0.0182322
0.0183376
0.0184386
0.0185346
0.0186249
0.0187096
0.0187886
0.0188627
0.0189318
0.0189956
0.0190543
0.0191084
0.0191584
0.0192048
0.0192464
0.0192824
0.0193131
0.0193383
0.0193573
0.01937
0.0193773
0.0193804
0.0193806
0.0193756
0.0193658
0.0193504
0.0193284
0.0192994
0.0192649
0.0164335
0.0167037
0.0169702
0.0172348
0.0174957
0.0177532
0.0180081
0.018259
0.0185073
0.0187522
0.0189945
0.0192333
0.0194691
0.0197016
0.0199306
0.0201561
0.0203772
0.0205949
0.0208079
0.0210153
0.0212177
0.0214156
0.0216093
0.0217994
0.0219848
0.0221648
0.0223387
0.0225059
0.0226671
0.0228232
0.0229756
0.0231236
0.0232671
0.0234054
0.0235387
0.0236659
0.0237861
0.0238989
0.0240044
0.0241039
0.024198
0.0242853
0.0243662
0.0244412
0.0245111
0.0245773
0.0246378
0.0246914
0.0247378
0.0247772
0.0248083
0.0248304
0.0248458
0.024856
0.0248624
0.0248635
0.0248591
0.0248468
0.0248278
0.0248017
0.0247698
0.0199652
0.020293
0.0206163
0.0209349
0.0212493
0.0215596
0.0218654
0.0221667
0.022465
0.0227596
0.0230503
0.0233369
0.0236202
0.0238988
0.0241734
0.0244444
0.0247107
0.0249728
0.0252296
0.0254795
0.0257232
0.0259605
0.026193
0.0264218
0.0266457
0.0268629
0.0270724
0.0272726
0.0274642
0.0276485
0.0278288
0.0280044
0.0281752
0.0283398
0.0284992
0.0286523
0.0287965
0.0289318
0.0290578
0.029177
0.0292909
0.0293973
0.0294954
0.0295872
0.0296736
0.0297566
0.0298326
0.0299012
0.0299606
0.0300116
0.0300518
0.0300793
0.0300987
0.0301112
0.0301204
0.0301249
0.0301239
0.0301137
0.0300956
0.0300702
0.0300396
0.0235303
0.0239132
0.0242914
0.0246612
0.0250248
0.0253789
0.0257277
0.0260696
0.0264077
0.0267436
0.0270741
0.0273981
0.0277182
0.0280338
0.0283457
0.0286529
0.0289552
0.0292525
0.0295441
0.0298286
0.0301049
0.0303725
0.0306348
0.030894
0.0311494
0.0313977
0.0316365
0.0318642
0.0320792
0.0322821
0.0324802
0.0326755
0.0328651
0.033047
0.0332227
0.0333938
0.0335538
0.0337038
0.033842
0.0339714
0.0340978
0.0342177
0.0343262
0.0344277
0.0345272
0.0346206
0.034711
0.0347912
0.0348614
0.0349186
0.0349654
0.0349933
0.0350105
0.0350204
0.0350248
0.0350315
0.0350306
0.035022
0.034999
0.0349736
0.0349414
0.0271318
0.0275651
0.0280033
0.0284173
0.0288341
0.0292179
0.0296056
0.0299683
0.0303246
0.0306903
0.0310554
0.0313914
0.0317324
0.0320651
0.0323995
0.0327362
0.0330621
0.0333767
0.0336891
0.0339918
0.0342926
0.0345777
0.0348518
0.0351294
0.0354094
0.0356786
0.0359371
0.0361861
0.0364217
0.0366313
0.0368322
0.0370413
0.0372415
0.0374315
0.0376061
0.0377845
0.0379451
0.0380995
0.0382433
0.0383663
0.0384929
0.0386227
0.0387291
0.0388292
0.0389436
0.039033
0.0391436
0.0392295
0.0393146
0.0393653
0.0394198
0.0394412
0.0394443
0.039449
0.0394294
0.0394463
0.0394373
0.0394399
0.0393951
0.0393732
0.0393272
0.000473321
0.000475158
0.00047715
0.000479208
0.000481281
0.000482887
0.00048454
0.000486229
0.000487928
0.000489599
0.000491239
0.000492904
0.000494555
0.000496167
0.000497763
0.000499363
0.000500924
0.000502424
0.000503878
0.000505313
0.000506704
0.000508054
0.000509371
0.000510634
0.00051183
0.000512985
0.000514099
0.000515166
0.000516171
0.000517128
0.000518029
0.000518869
0.00051965
0.000520377
0.000521033
0.00052163
0.000522174
0.000522657
0.000523055
0.000523373
0.000523632
0.000523809
0.0005239
0.000523923
0.000523848
0.000523653
0.00052336
0.00052297
0.000522445
0.000521746
0.000520901
0.000519937
0.000518794
0.00051747
0.000515992
0.000514359
0.000512532
0.00051044
0.000508157
0.000505708
0.00050309
0.00335506
0.00333063
0.00330457
0.00327807
0.00325006
0.0032221
0.00319327
0.00316363
0.00313403
0.00310373
0.00307293
0.00304196
0.00301076
0.00297916
0.0029469
0.002914
0.00288031
0.00284593
0.00281096
0.00277549
0.0027396
0.00270304
0.0026659
0.00262825
0.0025901
0.00255159
0.00251269
0.00247357
0.00243421
0.00239461
0.00235487
0.00231505
0.00227505
0.00223496
0.00219487
0.00215473
0.0021147
0.00207476
0.00203493
0.00199522
0.00195565
0.00191642
0.00187749
0.00183883
0.00180047
0.00176236
0.00172461
0.00168565
0.0016441
0.00160136
0.00155872
0.00151663
0.00147449
0.00143319
0.00139249
0.00135258
0.00131275
0.00127349
0.00123519
0.00119798
0.00116182
0.00818331
0.00814393
0.00810296
0.00806022
0.00801563
0.00796887
0.00791956
0.00786778
0.00781522
0.00776141
0.00770598
0.00764884
0.00759051
0.00753088
0.00746916
0.00740527
0.00733905
0.00727097
0.0072011
0.00712975
0.00705663
0.00698145
0.00690434
0.0068255
0.00674487
0.00666278
0.00657927
0.00649461
0.00640866
0.00632169
0.00623363
0.00614452
0.00605456
0.0059636
0.00587184
0.00577933
0.00568627
0.00559268
0.00549863
0.00540415
0.00530926
0.00521397
0.0051185
0.00502271
0.00492661
0.00483016
0.00473338
0.00463552
0.00453551
0.00443062
0.00431845
0.00420497
0.00408832
0.00397285
0.00385505
0.00373759
0.00361725
0.00349869
0.00338015
0.00326184
0.00314257
0.0136337
0.0135905
0.0135448
0.0134953
0.0134417
0.0133847
0.0133233
0.0132585
0.0131918
0.0131228
0.0130502
0.0129746
0.0128968
0.0128165
0.0127324
0.0126446
0.0125529
0.0124582
0.0123606
0.0122603
0.0121569
0.0120496
0.011939
0.0118254
0.0117087
0.0115892
0.0114671
0.0113427
0.0112158
0.0110867
0.0109553
0.0108218
0.0106862
0.0105487
0.0104095
0.0102687
0.0101264
0.00998292
0.0098382
0.00969243
0.00954542
0.00939742
0.00924836
0.00909828
0.00894706
0.00879459
0.00864077
0.00848548
0.00832745
0.00816621
0.00799721
0.00782011
0.00763836
0.00745516
0.00726771
0.00707698
0.00688303
0.0066873
0.00648981
0.00628921
0.00608698
0.0192243
0.01918
0.019132
0.0190794
0.0190199
0.0189559
0.0188869
0.0188132
0.0187357
0.0186542
0.0185667
0.0184754
0.0183807
0.0182824
0.0181796
0.018071
0.017957
0.0178392
0.0177176
0.0175922
0.0174622
0.0173268
0.0171869
0.0170429
0.0168943
0.016742
0.0165858
0.0164262
0.0162629
0.0160959
0.0159254
0.0157518
0.015575
0.0153953
0.0152129
0.0150283
0.0148415
0.0146527
0.014462
0.0142695
0.0140751
0.013879
0.0136811
0.0134814
0.0132796
0.0130758
0.0128685
0.0126592
0.0124471
0.0122315
0.0120111
0.0117807
0.0115431
0.0113013
0.0110551
0.0108026
0.0105462
0.0102863
0.0100213
0.00975193
0.00947866
0.0247306
0.0246865
0.0246367
0.0245817
0.0245191
0.0244503
0.0243747
0.0242939
0.024207
0.0241146
0.0240144
0.0239086
0.023798
0.0236833
0.0235629
0.0234354
0.0233015
0.0231639
0.0230216
0.0228744
0.0227214
0.0225613
0.0223963
0.0222265
0.022051
0.0218709
0.021686
0.0214964
0.0213016
0.021102
0.0208978
0.0206894
0.0204769
0.0202609
0.0200414
0.019819
0.0195939
0.0193662
0.019136
0.0189033
0.0186678
0.01843
0.0181895
0.017946
0.0176992
0.0174494
0.0171952
0.0169374
0.0166759
0.0164111
0.0161417
0.0158652
0.0155778
0.0152853
0.0149861
0.0146814
0.0143711
0.0140546
0.0137316
0.0134041
0.0130701
0.0300027
0.0299603
0.0299095
0.029852
0.0297864
0.029714
0.0296334
0.0295461
0.0294518
0.0293498
0.0292371
0.0291171
0.0289913
0.0288614
0.0287255
0.0285822
0.0284314
0.0282771
0.0281172
0.0279523
0.0277804
0.0276
0.0274154
0.0272255
0.0270291
0.0268277
0.0266201
0.0264072
0.0261874
0.0259621
0.025731
0.0254954
0.0252545
0.0250098
0.024761
0.0245091
0.024254
0.0239961
0.0237347
0.0234705
0.0232024
0.0229307
0.0226556
0.022376
0.0220918
0.0218026
0.0215081
0.0212097
0.0209076
0.0206011
0.0202902
0.0199734
0.0196458
0.0193101
0.0189676
0.0186175
0.0182597
0.0178949
0.0175231
0.0171434
0.0167561
0.0349105
0.0348704
0.0348188
0.0347554
0.0346896
0.0346143
0.0345332
0.0344381
0.034339
0.034226
0.0341027
0.0339672
0.0338284
0.0336835
0.0335374
0.0333803
0.033219
0.0330506
0.0328775
0.0326997
0.0325127
0.0323188
0.0321229
0.0319187
0.0317096
0.0314954
0.0312733
0.0310437
0.0308079
0.0305655
0.0303178
0.0300644
0.0298046
0.0295402
0.0292725
0.0290017
0.0287278
0.0284511
0.0281696
0.0278842
0.0275942
0.0272985
0.0269971
0.0266911
0.0263782
0.0260585
0.0257352
0.0254078
0.0250769
0.0247428
0.0244018
0.0240559
0.0237
0.0233322
0.0229545
0.0225687
0.0221727
0.0217674
0.0213525
0.0209274
0.0204943
0.0393179
0.0392774
0.039227
0.0391438
0.0390903
0.0390096
0.0389425
0.0388288
0.0387345
0.0386015
0.0384772
0.038317
0.0381744
0.0380087
0.0378697
0.0376938
0.0375372
0.0373511
0.0371701
0.0369861
0.0367865
0.0365956
0.036399
0.0361801
0.035975
0.0357568
0.0355302
0.0352907
0.0350547
0.0348053
0.0345594
0.0342983
0.0340296
0.0337551
0.0334835
0.0332065
0.0329305
0.0326514
0.0323608
0.0320673
0.0317674
0.0314559
0.0311358
0.0308154
0.030487
0.0301488
0.0298192
0.0294857
0.0291448
0.0288089
0.0284498
0.0280948
0.0277189
0.0273387
0.0269315
0.0265299
0.0260959
0.0256637
0.0252138
0.0247459
0.0242803
0.000500153
0.00049689
0.000493417
0.000489723
0.000485741
0.000481393
0.000476709
0.000471717
0.000466377
0.000460665
0.000454545
0.000448072
0.000441197
0.000433915
0.000426257
0.000418291
0.000410028
0.000401554
0.000392984
0.00038453
0.000375955
0.000367534
0.000361088
0.000356087
0.000352309
0.000349591
0.000347683
0.000346382
0.000345474
0.000344894
0.000344616
0.000344649
0.000344946
0.000344943
0.000344944
0.000345238
0.000345878
0.00034692
0.00034834
0.000350144
0.000352277
0.000354686
0.000357256
0.00035996
0.000362648
0.000365388
0.000368094
0.000370804
0.000373436
0.000375949
0.000378302
0.000380437
0.000382237
0.000383633
0.000384605
0.000385064
0.000384972
0.000384216
0.000382994
0.000381651
0.000381037
0.00112577
0.00109097
0.00105739
0.00102502
0.000993886
0.000963847
0.000935368
0.000908373
0.000883076
0.000859442
0.00083774
0.000818121
0.00080074
0.000785776
0.000773489
0.000764125
0.000757908
0.000755138
0.000756129
0.000761051
0.000769623
0.000783828
0.000804235
0.00083018
0.000860833
0.000894865
0.000930506
0.000966082
0.00100003
0.00103166
0.00106123
0.00108879
0.00110388
0.00110878
0.00111399
0.00112154
0.00113331
0.00115182
0.00117887
0.00121581
0.00126291
0.00131964
0.0013856
0.00145859
0.00152835
0.00159265
0.00165588
0.00171942
0.00178337
0.00184734
0.00191084
0.00197243
0.00203051
0.00208487
0.0021347
0.00217902
0.00221711
0.00224747
0.00226988
0.0022867
0.00230669
0.00302411
0.00290527
0.00278786
0.0026718
0.00255821
0.00244442
0.00233331
0.00222359
0.00211768
0.00201423
0.00191494
0.00181995
0.00172986
0.00164533
0.00156696
0.00149553
0.00143157
0.00137573
0.00132849
0.0012902
0.00126097
0.00124153
0.00123295
0.00123539
0.00124837
0.00127089
0.00130146
0.00133841
0.00138003
0.00142514
0.00147339
0.00152468
0.00157813
0.00163322
0.0016871
0.00174774
0.00182295
0.00191905
0.00204034
0.00218999
0.00236964
0.00257394
0.00279131
0.00301013
0.00322582
0.00343391
0.00363415
0.00382612
0.00400982
0.00418537
0.0043535
0.00451121
0.00465806
0.00479493
0.0049202
0.00503182
0.00512916
0.0052098
0.00527418
0.00532496
0.00537079
0.00588236
0.00567674
0.00546883
0.00526013
0.00505091
0.00484072
0.00462977
0.00441827
0.00420919
0.00400102
0.00379533
0.00359218
0.00339393
0.00320136
0.00301585
0.00283911
0.00267268
0.0025181
0.00237676
0.00224994
0.00213855
0.00204383
0.00196698
0.00190858
0.00186841
0.00184575
0.00183947
0.00184829
0.00187097
0.00190674
0.0019554
0.00201753
0.00209455
0.00218897
0.00230396
0.0024457
0.00262089
0.00283821
0.00310582
0.00342499
0.00378743
0.00418241
0.00459397
0.00500609
0.00540708
0.00578913
0.00614894
0.00648522
0.00679796
0.00708827
0.00735736
0.00760572
0.00783559
0.00804859
0.00824331
0.00841774
0.0085703
0.00869992
0.00880633
0.00889206
0.0089631
0.00920234
0.00892171
0.00863704
0.00834874
0.00805769
0.00776385
0.00746639
0.00716728
0.00686668
0.00656454
0.00626117
0.00595828
0.00565752
0.00535948
0.00506668
0.00478089
0.00450421
0.00423926
0.00398856
0.0037546
0.00353987
0.00334675
0.00317763
0.00303401
0.00291657
0.00282527
0.00275967
0.00271919
0.00270332
0.00271209
0.00274628
0.00280778
0.00290008
0.00302867
0.003201
0.00342705
0.0037175
0.00408172
0.00452378
0.00503894
0.00561228
0.00622277
0.00684639
0.00746169
0.00805249
0.00860897
0.00912571
0.00960142
0.0100371
0.0104344
0.0107963
0.0111255
0.0114253
0.0116999
0.011952
0.0121791
0.0123796
0.0125526
0.0126971
0.0128153
0.0129124
0.0127308
0.0123853
0.0120355
0.0116796
0.0113194
0.0109552
0.0105864
0.0102126
0.00983591
0.00945523
0.00907198
0.00868709
0.00830158
0.00791696
0.00753526
0.0071571
0.00678643
0.00642562
0.00607779
0.00574605
0.00543406
0.0051453
0.00488324
0.0046507
0.00444983
0.00428195
0.00414796
0.00404842
0.00398436
0.00395713
0.00396911
0.00402415
0.00412872
0.00429183
0.00452527
0.00484282
0.005258
0.00577923
0.00640643
0.00712598
0.00791342
0.00873751
0.00956786
0.0103773
0.0111473
0.0118665
0.0125296
0.0131342
0.0136828
0.0141777
0.0146235
0.015024
0.0153844
0.0157111
0.0160084
0.0162784
0.0165189
0.0167286
0.0169066
0.0170546
0.0171753
0.0163616
0.0159602
0.0155525
0.0151389
0.0147193
0.0142931
0.0138613
0.0134245
0.0129822
0.0125359
0.0120851
0.0116315
0.0111763
0.0107204
0.0102659
0.00981429
0.00936805
0.00893029
0.00850356
0.00809231
0.0077002
0.00733106
0.00698907
0.00667828
0.00640198
0.00616301
0.0059638
0.00580682
0.0056949
0.00563162
0.00562139
0.00567183
0.00579269
0.00599749
0.00630167
0.00672269
0.00727354
0.00796059
0.00877748
0.00970196
0.0106978
0.0117269
0.0127518
0.0137425
0.0146777
0.0155472
0.0163435
0.0170663
0.0177182
0.0183022
0.0188249
0.0192904
0.0197037
0.0200757
0.0204119
0.0207167
0.0209898
0.0212316
0.0214386
0.0216122
0.0217524
0.0200512
0.0196007
0.0191445
0.0186792
0.0182068
0.0177262
0.0172391
0.0167448
0.0162456
0.0157401
0.0152316
0.0147191
0.0142046
0.0136885
0.0131743
0.012661
0.0121512
0.0116494
0.0111579
0.0106827
0.0102262
0.00979068
0.0093828
0.00900682
0.00866808
0.00836883
0.0081149
0.00790952
0.00775887
0.00766654
0.00764219
0.00770025
0.00785191
0.0081149
0.00850915
0.00905087
0.00975437
0.0106167
0.0116323
0.0127603
0.0139617
0.0151832
0.0163925
0.0175494
0.0186396
0.0196424
0.0205647
0.0213921
0.0221409
0.0228057
0.0234029
0.0239286
0.0243865
0.0248004
0.0251717
0.0255091
0.0258066
0.0260783
0.0263074
0.0265072
0.0266605
0.023789
0.0232946
0.0228107
0.0222927
0.021777
0.0212401
0.0207071
0.0201556
0.0196102
0.0190494
0.0184976
0.017929
0.0173682
0.0167946
0.0162308
0.0156631
0.015088
0.0145315
0.013981
0.0134571
0.0129477
0.0124488
0.0119851
0.0115554
0.0111694
0.0108191
0.0105242
0.0102843
0.0101137
0.0099999
0.00997042
0.0100717
0.0102762
0.0106205
0.0111321
0.0118162
0.0126933
0.0137398
0.0149745
0.016305
0.0177119
0.019108
0.020493
0.0217953
0.0230308
0.0241478
0.0251982
0.0261105
0.0269552
0.0276868
0.0283679
0.028952
0.0294349
0.0298935
0.0302959
0.0306698
0.030979
0.0312904
0.0315284
0.031767
0.031916
0.0384976
0.092231
0.0923352
0.0255578
0.0414317
0.00269869
0.00124358
0.111819
0.00124725
0.00285267
0.0543885
0.035759
0.00124364
0.100617
0.00283309
0.0403732
0.00124672
0.117651
0.0535966
0.00124358
0.0231226
0.103402
0.115258
0.00125366
0.00124561
0.0201249
0.00124362
0.0682723
0.00124617
0.00124515
0.0171016
0.00124258
0.00249338
0.0763662
0.0303126
0.0442726
0.0250335
0.045086
0.00124321
0.0190029
0.0299913
0.111111
0.00124278
0.0405967
0.0368558
0.0108112
0.00124235
0.00138889
0.00124819
0.0377084
0.0526062
0.021284
0.00124239
0.00124468
0.00419982
0.00124227
0.00124515
0.0397839
0.0273448
0.033181
0.0538008
0.00126407
0.000765604
0.001981
0.0433674
0.00124228
0.0205136
0.10387
0.00139181
0.00124229
0.00124432
0.0447482
0.0324076
0.00124223
0.00604441
0.130662
0.0659016
0.0472788
0.00124231
0.0357561
0.00141771
0.0316585
0.00128639
0.0448786
0.00124227
0.0430317
0.00124682
0.0668392
0.00161921
0.00129405
0.00357576
0.00124227
0.00125486
0.0308256
0.0368704
0.00124999
0.0223521
0.00155307
0.001663
0.032022
0.0012423
0.000809246
0.0406305
0.00124222
0.00124234
0.00124235
0.0351158
0.00321137
0.00124827
0.0329877
0.0313155
0.0014709
0.0556435
0.0403819
0.0934849
0.0856474
0.0213009
0.0013316
0.00329828
0.00124287
0.00124224
0.0384837
0.00124488
0.0257381
0.0252208
0.0975287
0.0012425
0.0320884
0.0311489
0.00124252
0.00271399
0.00199845
0.0385477
0.00124411
0.0950786
0.00124227
0.00124237
0.0171386
0.0279011
0.00124288
0.000738875
0.0340988
0.0199585
0.0234023
0.0328134
0.149148
0.00125136
0.0311767
0.00203221
0.0940338
0.00124756
0.00124231
0.0444726
0.0450199
0.0311713
0.00124294
0.00124318
0.00439906
0.00124227
0.0173713
0.00132242
0.00153539
0.00124242
0.0012424
0.00124238
0.0476705
0.0920726
0.0353207
0.00124704
0.0920261
0.0357596
0.0231909
0.110203
0.00260718
0.0656969
0.0484851
0.0319689
0.00124286
0.00142612
0.0396791
0.0657303
0.120204
0.0438462
0.00124227
0.00124747
0.0643144
0.00213448
0.0316775
0.00124328
0.00124231
0.0153003
0.00126157
0.045647
0.0273075
0.00124224
0.00649105
0.0521342
0.11899
0.00142201
0.0124155
0.00124229
0.00124336
0.161597
0.0402392
0.0842606
0.00143031
0.001247
0.00147795
0.0398361
0.0129199
0.042599
0.0983251
0.0012477
0.031178
0.0279949
0.0447542
0.0390672
0.130415
0.0417794
0.0709344
0.00124313
0.00354845
0.00124286
0.00124247
0.0237253
0.00171528
0.00176763
0.00124307
0.00254682
0.0447116
0.0827147
0.00207808
0.0956499
0.0320448
0.00126579
0.0012431
0.0182134
0.0443222
0.0317086
0.00136114
0.000905878
0.0980057
0.0316911
0.00124592
0.0278435
0.0397605
0.0402635
0.0410228
0.00131312
0.00124224
0.0012778
0.00235903
0.0241056
0.00124311
0.00124397
0.00124308
0.0354229
0.107594
0.130592
0.0712576
0.00124909
0.0402447
0.0213438
0.00138933
0.018825
0.153545
0.00124251
0.0368703
0.00124227
0.015839
0.0353694
0.0364785
0.00138659
0.00124232
0.0465802
0.0701138
0.00124248
0.00124282
0.00124428
0.00124672
0.0253086
0.0348907
0.0435229
0.00161702
0.00124249
0.00124309
0.00124225
0.0446615
0.0065312
0.00129866
0.043481
0.00245035
0.0036625
0.00124228
0.0271635
0.0012425
0.00128319
0.0344793
0.0438994
0.00125129
0.00124302
0.00127053
0.0472054
0.0168039
0.0333835
0.0214565
0.0012621
0.00124245
0.00124286
0.0401969
0.00124456
0.144008
0.00124227
0.0727484
0.00125437
0.00246496
0.0441939
0.024973
0.0013119
0.066902
0.0465077
0.0321741
0.127859
0.00125025
0.0319428
0.0689586
0.0843833
0.038427
0.041815
0.0323805
0.00314253
0.0229747
0.0255923
0.0692821
0.06127
0.00126131
0.0985107
0.0446665
0.0336317
0.00306805
0.00125847
0.00124244
0.00124905
0.0258452
0.0273617
0.0103003
0.00328113
0.00124348
0.0328854
0.00124241
0.0391384
0.0390343
0.035604
0.126017
0.0401659
0.00125223
0.00126791
0.0121454
0.077732
0.00135672
0.0382572
0.0645267
0.0285184
0.046474
0.120496
0.0686672
0.00124584
0.0261155
0.0380395
0.0298671
0.00124323
0.0419244
0.0340088
0.00124601
0.0535976
0.00124376
0.0456488
0.151344
0.0419472
0.0449123
0.0418114
0.0352301
0.00125252
0.0363109
0.00126883
0.115768
0.0466539
0.0337128
0.0265957
0.0253827
0.0163225
0.0354724
0.00126478
0.0234293
0.000899742
0.00180604
0.00125407
0.0440228
0.00126888
0.0459182
0.0012423
0.00124452
0.00165005
0.0378877
0.00484147
0.0383586
0.00124289
0.0439171
0.0030812
0.0697902
0.0412488
0.040718
0.0568341
0.00126513
0.0270474
0.0475854
0.00124233
0.0468065
0.0394292
0.00124237
0.00124234
0.0404832
0.00168509
0.117803
0.0125208
0.0621139
0.00323905
0.0292726
0.0399019
0.172216
0.0403855
0.165697
0.0391982
0.0012586
0.00121766
0.0153906
0.133214
0.0210379
0.0604353
0.125021
0.00202563
0.0361674
0.0361735
0.0372991
0.0395696
0.0398551
0.0394256
0.00125017
0.0464092
0.0242647
0.00131083
0.155518
0.0458084
0.0402203
0.00212246
0.00216326
0.0907183
0.00125044
0.0213715
0.00128603
0.0408144
0.00124476
0.0423732
0.0330886
0.00996585
0.00128389
0.00128476
0.079358
0.0337447
0.00124257
0.0773272
0.0676946
0.0195069
0.00125927
0.0391583
0.0328553
0.0999339
0.0334285
0.022761
0.0372343
0.16096
0.0475687
0.00124284
0.00124319
0.0240691
0.0312504
0.0192652
0.0363885
0.00124482
0.0441272
0.0897171
0.00126418
0.0483373
0.0466062
0.00125147
0.00273097
0.143874
0.0348636
0.027857
0.0315479
0.00158805
0.00124234
0.00124227
0.00108106
0.153985
0.0265582
0.00124228
0.00124455
0.00124238
0.0294854
0.00249906
0.0012425
0.00478314
0.157732
0.0516664
0.00144166
0.00149566
0.00124222
0.00124434
0.0012493
0.0385383
0.0295274
0.126294
0.0315793
0.0418499
0.0345195
0.00154439
0.160604
0.0279191
0.0389021
0.044472
0.0212051
0.00126733
0.00134762
0.00124283
0.0252585
0.0123673
0.00124285
0.040087
0.00338048
0.023013
0.00124261
0.0444706
0.034389
0.00106467
0.032939
0.00124272
0.00124223
0.00124517
0.0226816
0.0476651
0.0371476
0.0368133
0.000617065
0.0191116
0.00124229
0.00132789
0.00886026
0.00124295
0.00273688
0.0263532
0.0283531
0.00124306
0.0365724
0.0122426
0.032187
0.0233383
0.00148828
0.021019
0.00127516
0.00275192
0.068158
0.00124226
0.0410957
0.00124355
0.0012458
0.00174472
0.0626865
0.0325094
0.0233342
0.0306811
0.00124447
0.0257934
0.0177074
0.00124246
0.014814
0.00124571
0.0012447
0.00124369
0.00174669
0.0425701