/*--------------------------------*- C++ -*----------------------------------*\
| =========                 |                                                 |
| \\      /  F ield         | OpenFOAM: The Open Source CFD Toolbox           |
|  \\    /   O peration     | Version:  2.3.1                                 |
|   \\  /    A nd           | Web:      www.OpenFOAM.org                      |
|    \\/     M anipulation  |                                                 |
\*---------------------------------------------------------------------------*/
FoamFile
{
    version     2.0;
    format      ascii;
    class       volScalarField;
    location    "0.02";
    object      p;
}
// * * * * * * * * * * * * * * * * * * * * * * * * * * * * * * * * * * * * * //

dimensions      [0 2 -2 0 0 0 0];

internalField   nonuniform List<scalar> 
9648
(
1.297
2.57609
3.06795
3.21148
3.15417
2.95401
2.65216
2.25022
1.76348
1.18929
0.548304
-0.158043
-0.92085
-1.74167
-2.61343
-3.54456
-4.53878
-5.61924
-6.79637
-8.07476
-9.44329
-10.8903
-12.4238
-14.0498
-15.7794
-17.6185
-19.5735
-21.6529
-23.8474
-26.147
-28.5275
-30.9851
-33.5244
-36.1381
-38.8212
-41.5552
-44.3353
-47.1497
-49.9844
-52.8249
-55.6575
-58.4778
-61.2633
-64.0074
-66.7037
-69.3279
-71.8706
-74.3148
-76.6582
-78.888
-80.9855
-82.9325
-84.7302
-86.3572
-87.8107
-89.078
-90.148
-91.0214
-91.682
-92.1385
-92.3842
3.14265
3.63272
4.00841
4.16102
4.14098
3.99256
3.74471
3.40181
2.971
2.45647
1.87041
1.22132
0.516013
-0.24445
-1.05787
-1.92828
-2.86168
-3.87741
-4.99029
-6.19861
-7.49094
-8.86135
-10.3163
-11.8619
-13.5067
-15.2573
-17.12
-19.1005
-21.1932
-23.3803
-25.6425
-27.9763
-30.3857
-32.8658
-35.4084
-38.0004
-40.6346
-43.2998
-45.9836
-48.673
-51.3555
-54.0211
-56.6559
-59.2511
-61.7948
-64.2717
-66.6704
-68.9766
-71.1792
-73.2646
-75.2207
-77.0493
-78.7367
-80.2674
-81.6298
-82.8158
-83.8135
-84.6227
-85.2315
-85.6412
-85.8445
4.43869
4.55778
4.77908
4.88885
4.86857
4.73804
4.51477
4.19866
3.79263
3.29626
2.72383
2.08439
1.38546
0.629238
-0.185568
-1.06138
-2.00583
-3.03371
-4.15338
-5.3621
-6.6469
-8.00638
-9.44277
-10.9633
-12.5746
-14.2857
-16.1049
-18.0383
-20.0776
-22.2048
-24.4027
-26.6697
-29.0082
-31.4154
-33.8818
-36.3981
-38.9552
-41.5434
-44.151
-46.7649
-49.3728
-51.9631
-54.5248
-57.0481
-59.5216
-61.9319
-64.2669
-66.514
-68.6611
-70.6946
-72.6029
-74.381
-76.0223
-77.5084
-78.8365
-79.9901
-80.9688
-81.7528
-82.3466
-82.7481
-82.9582
5.61082
5.58551
5.68807
5.74726
5.71926
5.60645
5.41084
5.13157
4.75499
4.28441
3.72788
3.1035
2.4196
1.68048
0.882831
0.0240573
-0.904998
-1.91264
-3.00279
-4.16773
-5.40844
-6.72066
-8.11109
-9.58225
-11.1433
-12.8003
-14.5644
-16.4383
-18.4124
-20.4654
-22.5877
-24.7745
-27.0287
-29.3471
-31.7229
-34.146
-36.609
-39.1019
-41.614
-44.1325
-46.6443
-49.1385
-51.6045
-54.0325
-56.4114
-58.7297
-60.9753
-63.1354
-65.1984
-67.1516
-68.9862
-70.6943
-72.2691
-73.6972
-74.9705
-76.0772
-77.0096
-77.7577
-78.3205
-78.6961
-78.8813
6.76003
6.67475
6.7021
6.71416
6.68021
6.58238
6.42207
6.18011
5.8355
5.38263
4.8346
4.21613
3.53913
2.8139
2.03149
1.18604
0.274423
-0.713339
-1.76375
-2.88443
-4.07778
-5.34515
-6.69165
-8.11879
-9.63239
-11.2422
-12.9526
-14.7703
-16.6762
-18.6584
-20.7044
-22.8121
-24.9818
-27.215
-29.5013
-31.8327
-34.203
-36.6008
-39.017
-41.44
-43.8561
-46.2551
-48.6249
-50.9577
-53.2425
-55.4686
-57.6258
-59.6987
-61.6768
-63.548
-65.3057
-66.9424
-68.4511
-69.8222
-71.0438
-72.106
-72.9963
-73.7099
-74.2466
-74.6027
-74.7753
7.89382
7.7988
7.78557
7.76925
7.73464
7.66162
7.53507
7.33971
7.01902
6.57816
6.02481
5.3997
4.71949
4.0026
3.22937
2.39994
1.50555
0.550581
-0.458533
-1.52133
-2.66761
-3.88212
-5.18368
-6.55997
-8.02878
-9.58859
-11.2472
-13.0037
-14.8462
-16.7529
-18.7267
-20.754
-22.8425
-24.9927
-27.194
-29.4345
-31.7137
-34.0154
-36.3349
-38.6621
-40.9818
-43.2853
-45.5584
-47.7958
-49.9858
-52.1188
-54.186
-56.1689
-58.0597
-59.8452
-61.5244
-63.0856
-64.5264
-65.8366
-67.0069
-68.0207
-68.8693
-69.5452
-70.0526
-70.3877
-70.5476
9.02903
8.94287
8.91835
8.8868
8.86879
8.8182
8.72479
8.58109
8.30064
7.86097
7.28972
6.65604
5.95059
5.24124
4.47755
3.66254
2.80501
1.87343
0.927993
-0.0856626
-1.17006
-2.33009
-3.57639
-4.90714
-6.31937
-7.82839
-9.42377
-11.1282
-12.8986
-14.7383
-16.6401
-18.5912
-20.5975
-22.6704
-24.7903
-26.9442
-29.1328
-31.3387
-33.5603
-35.794
-38.0193
-40.2295
-42.4063
-44.5494
-46.6481
-48.686
-50.6641
-52.556
-54.3568
-56.0545
-57.6525
-59.1365
-60.5033
-61.7541
-62.8701
-63.8401
-64.6411
-65.2758
-65.7494
-66.0669
-66.2141
10.1604
10.0829
10.0764
10.0358
10.0489
10.0122
9.95012
9.8949
9.6182
9.20249
8.59306
7.93692
7.213
6.52515
5.76721
4.99261
4.16923
3.27547
2.36531
1.44276
0.381702
-0.685499
-1.89469
-3.15339
-4.5008
-5.9648
-7.48622
-9.12018
-10.8432
-12.6032
-14.45
-16.3241
-18.238
-20.2398
-22.3014
-24.348
-26.4539
-28.5693
-30.6881
-32.8398
-34.9626
-37.0946
-39.1688
-41.2249
-43.2448
-45.1784
-47.0762
-48.8638
-50.5821
-52.1757
-53.7001
-55.0908
-56.3814
-57.5739
-58.6495
-59.5576
-60.3255
-60.9035
-61.343
-61.6499
-61.7788
11.3925
11.2126
11.3303
11.174
11.2894
11.2217
11.1701
11.2874
10.8803
10.6324
9.86344
9.34515
8.44039
7.93666
7.10469
6.33364
5.65001
4.65792
3.90277
3.07301
1.93401
1.05327
-0.189648
-1.30019
-2.55835
-4.06788
-5.42218
-7.04858
-8.73377
-10.3731
-12.2294
-13.9772
-15.7738
-17.7751
-19.7922
-21.6099
-23.7325
-25.7428
-27.7353
-29.87
-31.8171
-33.912
-35.8374
-37.8802
-39.857
-41.5859
-43.4862
-45.0941
-46.7914
-48.1891
-49.6925
-50.9064
-52.1721
-53.3716
-54.3695
-55.1625
-55.9704
-56.4382
-56.9116
-57.1991
-57.2509
-92.4042
-92.2014
-91.7646
-91.1006
-90.2249
-89.1318
-87.819
-86.2796
-84.5069
-82.5216
-80.3149
-77.8963
-75.2818
-72.4731
-69.4701
-66.2854
-62.9249
-59.409
-55.7382
-51.9239
-47.9693
-43.8817
-39.6807
-35.3755
-30.9844
-26.5144
-21.9733
-17.3806
-12.7428
-8.08503
-3.41111
1.26251
5.92059
10.5574
15.1535
19.7033
24.1903
28.6034
32.9344
37.1704
41.3015
45.3116
49.1985
52.9484
56.5496
59.9968
63.2783
66.3875
69.3139
72.0493
74.5845
76.9119
79.0286
80.9325
82.615
84.0712
85.2979
86.2919
87.0518
87.5759
87.8666
-85.8387
-85.6059
-85.1518
-84.5003
-83.6438
-82.588
-81.3208
-79.833
-78.1273
-76.2214
-74.1173
-71.8119
-69.3123
-66.6236
-63.7508
-60.7017
-57.4855
-54.1122
-50.5859
-46.9178
-43.1385
-39.2393
-35.2318
-31.1262
-26.9337
-22.6635
-18.3264
-13.9371
-9.50711
-5.05275
-0.584272
3.88496
8.34247
12.7775
17.1767
21.5308
25.827
30.054
34.2016
38.2595
42.2167
46.0609
49.7855
53.3797
56.833
60.1387
63.2869
66.2705
69.08
71.7076
74.1441
76.3825
78.418
80.2472
81.8625
83.2602
84.4367
85.3904
86.1191
86.6218
86.8988
-82.9643
-82.7799
-82.3877
-81.7601
-80.9274
-79.909
-78.6641
-77.1895
-75.5202
-73.6399
-71.5446
-69.2561
-66.7839
-64.1344
-61.3117
-58.323
-55.1749
-51.8757
-48.4301
-44.8481
-41.1471
-37.3333
-33.4166
-29.4067
-25.3144
-21.1486
-16.9199
-12.6417
-8.3268
-3.98863
0.361692
4.71124
9.04877
13.362
17.6401
21.8724
26.0478
30.1559
34.1852
38.1261
41.9681
45.7
49.3141
52.8004
56.1492
59.3547
62.4066
65.2984
68.02
70.5648
72.923
75.0892
77.0589
78.8278
80.3901
81.7423
82.8824
83.8073
84.516
85.006
85.2756
-78.8701
-78.6662
-78.2647
-77.6541
-76.8341
-75.7965
-74.5914
-73.2158
-71.6249
-69.8319
-67.8383
-65.655
-63.2877
-60.7457
-58.0343
-55.1602
-52.131
-48.9532
-45.6343
-42.1852
-38.6174
-34.9419
-31.167
-27.3012
-23.3554
-19.3379
-15.259
-11.1325
-6.97031
-2.78571
1.41195
5.60854
9.79448
13.9557
18.0841
22.1678
26.1974
30.1628
34.051
37.8542
41.5624
45.1636
48.6511
52.0148
55.2456
58.3396
61.2846
64.076
66.7013
69.1569
71.4312
73.5192
75.4182
77.121
78.6268
79.9286
81.029
81.9199
82.6042
83.0751
83.3302
-74.76
-74.5562
-74.16
-73.5703
-72.7835
-71.7965
-70.6219
-69.2669
-67.7203
-65.9862
-64.0677
-61.9678
-59.6911
-57.2459
-54.6383
-51.8732
-48.9577
-45.8977
-42.7014
-39.3822
-35.9495
-32.4155
-28.7869
-25.0693
-21.275
-17.411
-13.4864
-9.5177
-5.51382
-1.49003
2.54945
6.58579
10.6141
14.6152
18.5864
22.5142
26.3903
30.2059
33.9449
37.6029
41.1707
44.6338
47.9881
51.224
54.3294
57.3085
60.1403
62.8287
65.3528
67.7165
69.9042
71.9101
73.7357
75.3686
76.8169
78.0657
79.1251
79.9783
80.6371
81.0843
81.3238
-70.5278
-70.3245
-69.9349
-69.358
-68.5938
-67.6445
-66.5088
-65.1929
-63.696
-62.0239
-60.1772
-58.1606
-55.9713
-53.6237
-51.12
-48.4649
-45.6639
-42.7222
-39.6478
-36.46
-33.1642
-29.7766
-26.2986
-22.7324
-19.0938
-15.3863
-11.6174
-7.8108
-3.9689
-0.110835
3.76866
7.6406
11.5089
15.3442
19.1543
22.9224
26.6405
30.3027
33.8858
37.3942
40.8187
44.1383
47.3567
50.4617
53.4367
56.3004
59.0151
61.6003
64.0185
66.2897
68.3879
70.3083
72.0602
73.6187
75.0115
76.2035
77.2242
78.0371
78.6728
79.0941
79.3239
-66.1874
-65.9827
-65.5974
-65.0322
-64.288
-63.3702
-62.2733
-60.9998
-59.5588
-57.9481
-56.1784
-54.2446
-52.1431
-49.8936
-47.5008
-44.9557
-42.2744
-39.4493
-36.4944
-33.4408
-30.2847
-27.05
-23.7301
-20.3169
-16.8386
-13.2902
-9.67607
-6.03591
-2.3575
1.32943
5.05104
8.75328
12.4634
16.1252
19.7731
23.3757
26.9318
30.4394
33.8592
37.2128
40.4954
43.6672
46.7482
49.7234
52.5617
55.3135
57.9068
60.39
62.698
64.8746
66.8806
68.7129
70.3925
71.8733
73.2129
74.3462
75.3324
76.1032
76.7185
77.1134
77.3395
-61.7483
-61.5316
-61.1562
-60.5961
-59.8746
-58.987
-57.923
-56.6888
-55.3029
-53.7726
-52.0759
-50.2279
-48.201
-46.061
-43.7843
-41.3461
-38.7887
-36.0825
-33.2439
-30.3307
-27.2997
-24.233
-21.0854
-17.8113
-14.5031
-11.1244
-7.6541
-4.18649
-0.658201
2.84334
6.42142
9.94163
13.5034
16.9748
20.4612
23.8853
27.2616
30.64
33.878
37.0659
40.2308
43.2402
46.1789
49.041
51.7164
54.3776
56.831
59.2285
61.4019
63.4957
65.4019
67.1349
68.7606
70.1464
71.4566
72.5159
73.4882
74.1951
74.8112
75.1664
75.4083
-57.2297
-56.9764
-56.6209
-56.06
-55.36
-54.4843
-53.4597
-52.1971
-50.9543
-49.6043
-47.9041
-46.1546
-44.1592
-42.1082
-40.0379
-37.607
-35.1867
-32.6875
-29.9371
-27.1938
-24.1669
-21.2763
-18.4037
-15.1321
-12.0268
-8.92422
-5.51599
-2.28373
1.24484
4.3994
8.00523
11.1714
14.7533
17.8772
21.2905
24.5098
27.6092
31.0385
34.0338
37.0109
40.1929
42.9416
45.715
48.5878
50.8629
53.6764
55.7773
58.2866
60.0953
62.2798
64.1094
65.5799
67.3379
68.425
69.9424
70.717
71.8799
72.276
73.1303
73.2695
73.7391
87.9307
87.7973
87.4758
86.9405
86.2241
85.3137
84.1517
82.7552
81.1377
79.3069
77.2678
75.0269
72.5908
69.9645
67.1534
64.1647
61.0061
57.687
54.2142
50.5977
46.8504
42.9783
38.9969
34.9161
30.7493
26.5079
22.2059
17.8597
13.4784
9.08042
4.67503
0.277325
-4.09793
-8.44222
-12.7364
-16.9725
-21.1342
-25.2105
-29.192
-33.0622
-36.8104
-40.4164
-43.8748
-47.1817
-50.3281
-53.3097
-56.1124
-58.7291
-61.151
-63.3757
-65.3942
-67.185
-68.7451
-70.0726
-71.175
-72.0539
-72.7067
-73.1278
-73.3217
-73.2819
-73.0134
86.947
86.8047
86.4957
85.984
85.2781
84.3749
83.2367
81.873
80.295
78.5096
76.5229
74.341
71.9693
69.4136
66.6791
63.7733
60.703
57.4783
54.108
50.6014
46.9687
43.2186
39.363
35.4128
31.3796
27.2758
23.1145
18.9097
14.6727
10.418
6.15678
1.90255
-2.33179
-6.53493
-10.6926
-14.7937
-18.8249
-22.7745
-26.6311
-30.3823
-34.0174
-37.5295
-40.9172
-44.1569
-47.2402
-50.1617
-52.9096
-55.4743
-57.8574
-60.0691
-62.0943
-63.9
-65.4892
-66.8699
-68.0327
-68.9687
-69.6864
-70.1799
-70.4512
-70.4992
-70.328
85.315
85.1849
84.8988
84.4036
83.7166
82.8382
81.7381
80.4228
78.8996
77.1749
75.2543
73.1447
70.8498
68.3763
65.7292
62.9165
59.9448
56.8242
53.5618
50.1665
46.6476
43.0137
39.2768
35.447
31.5349
27.5543
23.517
19.4363
15.3231
11.191
7.05117
2.91649
-1.20154
-5.29027
-9.3378
-13.3314
-17.2593
-21.1096
-24.8717
-28.534
-32.0864
-35.5196
-38.8252
-41.9887
-45.0036
-47.8646
-50.5645
-53.0988
-55.4539
-57.6047
-59.5452
-61.282
-62.831
-64.1796
-65.3153
-66.2362
-66.9477
-67.446
-67.7303
-67.8015
-67.6639
83.3644
83.2525
82.99
82.5203
81.8559
81.0034
79.9411
78.6757
77.2082
75.5477
73.696
71.6626
69.4487
67.0628
64.5073
61.793
58.9244
55.9142
52.766
49.4895
46.0935
42.5853
38.9788
35.2834
31.5076
27.6677
23.7734
19.8386
15.872
11.8876
7.89497
3.90756
-0.0650397
-4.00926
-7.91453
-11.7672
-15.5565
-19.2702
-22.8991
-26.4314
-29.8585
-33.1697
-36.3564
-39.4084
-42.3176
-45.0776
-47.6795
-50.1154
-52.374
-54.4423
-56.3266
-58.0431
-59.5619
-60.8787
-61.9922
-62.9018
-63.6098
-64.1137
-64.4125
-64.5088
-64.4064
81.3577
81.267
81.0223
80.5791
79.9372
79.113
78.0864
76.8704
75.457
73.8624
72.0794
70.1258
67.9949
65.7009
63.2391
60.6272
57.8636
54.9684
51.9378
48.7844
45.5164
42.1366
38.6664
35.1119
31.4778
27.7865
24.0425
20.2628
16.4499
12.6219
8.784
4.9522
1.13187
-2.66014
-6.41684
-10.121
-13.765
-17.3348
-20.8249
-24.2217
-27.5196
-30.7058
-33.7735
-36.7135
-39.5172
-42.178
-44.686
-47.0344
-49.215
-51.2204
-53.0513
-54.7061
-56.1733
-57.4495
-58.5336
-59.4246
-60.1223
-60.624
-60.931
-61.0451
-60.971
79.3573
79.2878
79.0535
78.637
78.0153
77.2248
76.2333
75.0688
73.7079
72.1826
70.4679
68.5993
66.5536
64.3583
61.9917
59.4874
56.8286
54.0547
51.1443
48.1175
44.9818
41.731
38.4004
34.9932
31.5026
27.9662
24.3764
20.7587
17.1029
13.4378
9.75816
6.08822
2.42272
-1.21247
-4.81762
-8.36832
-11.8634
-15.284
-18.6334
-21.8909
-25.0584
-28.1163
-31.0628
-33.8886
-36.5838
-39.1443
-41.5568
-43.8176
-45.9196
-47.8527
-49.6191
-51.2118
-52.6285
-53.8655
-54.9203
-55.7921
-56.4771
-56.9774
-57.2906
-57.4223
-57.3745
77.3692
77.3187
77.0884
76.7014
76.0975
75.347
74.3918
73.2825
71.9728
70.5216
68.8737
67.0962
65.1398
63.0494
60.7804
58.3861
55.8326
53.1844
50.3954
47.4974
44.502
41.3766
38.1911
34.9345
31.5877
28.2131
24.7798
21.3306
17.8347
14.3372
10.8194
7.31572
3.80504
0.331484
-3.12137
-6.51292
-9.85649
-13.1245
-16.3331
-19.4495
-22.4862
-25.4131
-28.2358
-30.9445
-33.529
-35.9869
-38.3022
-40.4705
-42.4921
-44.3491
-46.0508
-47.5822
-48.9526
-50.1484
-51.1765
-52.0236
-52.6997
-53.1946
-53.516
-53.6621
-53.6416
75.41
75.3906
75.1465
74.8084
74.2048
73.5108
72.5828
71.543
70.2724
68.9171
67.3178
65.6514
63.7775
61.8137
59.6295
57.3613
54.8891
52.3945
49.7082
46.9521
44.1128
41.0922
38.0701
34.9788
31.7487
28.5507
25.2641
22.0102
18.6585
15.3456
11.978
8.65497
5.28765
1.99097
-1.32013
-4.54097
-7.74093
-10.8441
-13.9245
-16.8873
-19.8077
-22.5972
-25.3008
-27.8809
-30.353
-32.7231
-34.9282
-36.9951
-38.9438
-40.7213
-42.3614
-43.8365
-45.1579
-46.3201
-47.3162
-48.1467
-48.7972
-49.2923
-49.6233
-49.7854
-49.7945
73.4709
73.6881
73.2178
73.1658
72.3482
71.9022
70.778
70.0239
68.5874
67.5513
65.77
64.432
62.4529
60.8455
58.5525
56.5946
53.9489
51.8541
49.148
46.5829
43.9941
40.8344
38.1651
35.3019
31.9598
29.1173
25.8096
22.9285
19.5531
16.5739
13.205
10.2001
6.84763
3.86093
0.561112
-2.37604
-5.54231
-8.37651
-11.4341
-14.1419
-17.0517
-19.6163
-22.273
-24.6692
-27.027
-29.3978
-31.423
-33.3967
-35.3096
-36.9706
-38.5946
-39.9841
-41.2808
-42.4051
-43.3911
-44.1921
-44.7795
-45.2041
-45.6094
-45.7696
-45.8475
-72.5256
-71.8175
-70.9006
-69.7839
-68.4715
-66.9803
-65.3194
-63.5069
-61.5588
-59.4931
-57.3314
-55.0963
-52.8134
-50.5128
-48.2227
-45.9712
-43.7845
-41.6876
-39.6995
-37.8289
-36.1064
-34.6046
-33.2407
-31.8721
-30.4597
-28.9781
-27.4086
-25.7417
-23.9714
-22.1111
-20.1813
-18.1959
-16.1248
-14.0378
-11.9918
-10.0055
-8.10552
-6.31495
-4.65483
-3.13112
-1.74413
-0.485181
0.651287
1.66608
2.5604
3.34532
4.02118
4.59651
5.0776
5.47284
5.77942
5.9987
6.12697
6.17459
6.13351
6.0104
5.7917
5.47864
5.03553
4.36706
3.23971
-69.9485
-69.3567
-68.5621
-67.5739
-66.3983
-65.0505
-63.5357
-61.8732
-60.0751
-58.1628
-56.1515
-54.0638
-51.924
-49.759
-47.5953
-45.4577
-43.3715
-41.3593
-39.4413
-37.6314
-35.955
-34.4461
-33.0431
-31.645
-30.2104
-28.7135
-27.1384
-25.472
-23.7102
-21.8624
-19.9396
-17.9365
-15.8957
-13.8539
-11.8511
-9.88415
-7.99225
-6.20372
-4.53819
-3.00715
-1.60454
-0.325865
0.835867
1.88356
2.82162
3.6359
4.33623
4.93655
5.44579
5.87008
6.20675
6.45114
6.60715
6.67929
6.66832
6.57345
6.39096
6.1142
5.71446
5.10538
4.19916
-67.3238
-66.7831
-66.0489
-65.1294
-64.0307
-62.7674
-61.3464
-59.7855
-58.0952
-56.2974
-54.4056
-52.4424
-50.4299
-48.3936
-46.358
-44.3459
-42.3802
-40.4819
-38.6699
-36.9593
-35.3649
-33.8966
-32.5117
-31.1388
-29.7338
-28.2709
-26.7315
-25.1014
-23.3745
-21.5587
-19.6679
-17.7167
-15.7268
-13.7064
-11.6778
-9.7157
-7.83074
-6.0414
-4.36832
-2.82946
-1.40631
-0.106413
1.08071
2.15681
3.11081
3.9436
4.66563
5.28832
5.82308
6.27467
6.6356
6.90015
7.07385
7.16378
7.16911
7.09402
6.93244
6.6797
6.31022
5.77601
5.0731
-64.1103
-63.6247
-62.9559
-62.1117
-61.0991
-59.9291
-58.6123
-57.1636
-55.5946
-53.923
-52.1649
-50.3395
-48.4685
-46.5739
-44.6786
-42.8022
-40.9651
-39.1857
-37.4819
-35.8649
-34.3439
-32.9159
-31.5524
-30.2035
-28.8303
-27.4038
-25.9041
-24.3122
-22.6234
-20.8433
-18.987
-17.0682
-15.103
-13.1097
-11.1205
-9.17582
-7.30106
-5.51974
-3.84977
-2.29704
-0.881421
0.419797
1.60759
2.68062
3.6306
4.46281
5.18773
5.82066
6.3699
6.83797
7.21462
7.49541
7.68406
7.78678
7.8042
7.74219
7.59677
7.36665
7.03186
6.57254
6.0462
-60.7136
-60.2767
-59.667
-58.8918
-57.9584
-56.8753
-55.6545
-54.3099
-52.853
-51.2998
-49.6654
-47.969
-46.2285
-44.4656
-42.6976
-40.9454
-39.2218
-37.5465
-35.9305
-34.3856
-32.9131
-31.5087
-30.152
-28.811
-27.4516
-26.0471
-24.5718
-23.0101
-21.3552
-19.6163
-17.8026
-15.9279
-14.0078
-12.0637
-10.1217
-8.21543
-6.37168
-4.61977
-2.97745
-1.4589
-0.0622798
1.21735
2.38755
3.43648
4.36795
5.1799
5.89698
6.52732
7.08528
7.55913
7.94334
8.2275
8.41763
8.53011
8.55746
8.50515
8.37195
8.16336
7.8614
7.48188
7.07891
-57.1559
-56.7673
-56.2163
-55.5081
-54.6523
-53.6526
-52.5257
-51.2811
-49.9337
-48.4911
-46.9751
-45.3965
-43.7798
-42.136
-40.4857
-38.8417
-37.2177
-35.6266
-34.0823
-32.5863
-31.1454
-29.7481
-28.3875
-27.0399
-25.6812
-24.2783
-22.8132
-21.2654
-19.6379
-17.936
-16.1683
-14.3427
-12.4777
-10.595
-8.71332
-6.86464
-5.07798
-3.38065
-1.79801
-0.335939
1.01217
2.24922
3.37577
4.38708
5.28039
6.06336
6.76001
7.385
7.94241
8.41638
8.80139
9.07788
9.26103
9.36617
9.39998
9.35788
9.23823
9.04781
8.78043
8.45828
8.1455
-53.4622
-53.1258
-52.6296
-51.9903
-51.2078
-50.2915
-49.255
-48.1107
-46.866
-45.5321
-44.1234
-42.6592
-41.1553
-39.6264
-38.0814
-36.5379
-34.9922
-33.4783
-31.9846
-30.5315
-29.1075
-27.7077
-26.337
-24.9794
-23.6099
-22.1997
-20.7288
-19.1878
-17.5819
-15.9202
-14.1916
-12.4129
-10.6045
-8.78848
-6.98027
-5.21253
-3.50234
-1.88636
-0.381934
1.00125
2.29271
3.46097
4.54259
5.49535
6.35195
7.08466
7.77419
8.37604
8.93837
9.40412
9.77916
10.0454
10.1999
10.3041
10.3179
10.2941
10.1747
10.021
9.76372
9.49294
9.23145
-49.6488
-49.3667
-48.9423
-48.3566
-47.657
-46.8077
-45.8695
-44.8151
-43.6831
-42.4357
-41.1415
-39.771
-38.3884
-36.9498
-35.5114
-34.0548
-32.5778
-31.1332
-29.6846
-28.258
-26.8528
-25.4299
-24.0587
-22.6892
-21.3227
-19.8863
-18.4189
-16.8661
-15.2925
-13.6876
-11.9927
-10.2386
-8.47194
-6.75129
-5.02202
-3.36317
-1.74485
-0.219836
1.19572
2.49303
3.72053
4.82548
5.85428
6.74163
7.54954
8.25275
8.92128
9.50799
10.0694
10.4988
10.882
11.1178
11.2348
11.3159
11.3247
11.2843
11.1844
11.0589
10.8208
10.5696
10.3308
-45.759
-45.4665
-45.1714
-44.6127
-44.0413
-43.2006
-42.4011
-41.4044
-40.4286
-39.2161
-38.0998
-36.758
-35.5503
-34.1213
-32.7558
-31.4614
-29.9944
-28.7227
-27.2863
-25.8638
-24.4849
-22.9628
-21.6275
-20.2076
-18.9106
-17.3977
-15.9901
-14.3526
-12.7755
-11.3282
-9.73797
-7.91837
-6.12205
-4.58828
-2.88449
-1.45116
0.110215
1.52633
2.90581
4.0367
5.30994
6.23936
7.34025
8.0576
8.94771
9.50895
10.2811
10.689
11.365
11.6368
12.1
12.3438
12.284
12.4251
12.3426
12.4495
12.2278
12.2212
11.8843
11.7808
11.4272
26.1098
21.6976
20.4398
26.898
26.4778
46.0283
27.1255
29.0241
29.765
24.8667
17.8058
52.7281
27.2025
26.7843
47.497
-35.5659
31.3578
30.0784
16.6084
26.9171
27.1942
26.7663
25.0825
27.3274
29.6312
5.28939
26.9728
23.793
31.2046
26.1325
27.4046
27.0695
24.9126
22.8966
52.9108
13.5576
3.78774
56.2356
27.6851
28.6499
-37.5128
24.7017
30.8146
-29.1067
12.6487
55.2787
26.8473
24.3641
27.178
53.3904
15.0256
-8.0159
27.1322
26.4529
23.7106
27.1494
26.2427
10.8688
5.84986
2.68109
17.3217
32.5111
27.4537
19.1129
8.65442
27.1418
1.94759
25.6744
24.0222
30.0645
27.1587
55.5134
-27.989
27.0562
20.2264
28.2702
14.9573
67.3903
27.1796
55.1746
24.3045
28.2763
26.9202
17.7876
30.1303
38.0671
30.0415
20.0226
25.3627
24.3859
16.1641
27.1826
25.8765
2.10636
2.63456
26.0531
60.0154
26.8394
26.0754
-38.4652
27.1288
27.6864
-6.97311
27.2085
27.7615
27.1483
-5.49047
54.6574
27.7021
-24.4544
-42.9746
25.3835
17.6962
13.9556
24.4578
24.3028
5.65007
24.8119
25.4854
26.7471
27.0451
12.6057
26.7074
-48.1536
1.42278
26.5958
30.466
-0.374902
10.2328
30.7329
14.2163
19.2034
9.82112
26.6631
25.4656
28.4622
27.6713
-13.2688
1.6273
29.1767
26.6318
-7.89002
5.91307
48.3573
13.4573
31.0059
27.1148
12.9951
43.8535
22.8772
27.3089
27.1402
53.4485
19.9743
-12.7708
26.6045
27.0519
10.3368
27.1461
-1.97848
27.0873
29.0739
27.4056
29.4807
30.1018
49.8832
24.3641
-27.9195
26.6761
23.347
12.2347
-27.9658
26.9926
17.4053
21.6042
17.7829
12.178
27.5712
38.1205
11.2641
21.8443
25.2641
6.79626
27.749
26.215
21.3961
17.923
57.679
27.7549
26.8956
10.4006
26.846
10.6873
1.23083
27.1582
7.82649
16.9504
26.8939
24.3971
-12.0045
27.862
30.6907
30.8862
-11.5036
22.8386
24.485
27.9487
25.4773
-3.07443
-14.9845
20.7528
21.8968
27.2849
-47.5458
11.4652
-15.7076
-16.2126
26.8816
58.7875
21.2575
26.7435
42.4619
29.3412
27.0811
7.17494
19.6371
18.7225
26.7867
18.2628
55.2495
23.0941
15.8844
21.1128
8.01555
27.1629
29.1052
24.9731
-3.00142
-0.359738
24.2971
27.5591
25.0582
17.3283
27.1524
-51.2052
-16.8584
14.1902
-33.4434
29.5874
27.2914
29.3749
21.6203
9.03774
26.476
26.7159
27.7842
0.862078
29.4294
29.0435
21.2324
27.2151
43.5229
-18.148
24.1012
-1.6429
30.2682
30.7323
13.211
30.2944
-23.3525
-1.20208
13.4546
37.7031
28.831
64.948
23.9782
29.9486
28.7486
31.1759
29.8844
50.5444
-29.0892
-15.5205
24.8937
30.0919
27.9443
27.1858
-1.65013
26.5274
29.3887
10.7697
54.4015
24.8904
27.168
19.6806
30.2044
26.4432
-14.2404
14.751
27.1515
26.7229
25.2322
68.0263
21.8893
-1.82607
-26.6301
33.301
30.0857
29.2591
-30.5027
28.537
30.0818
28.856
18.7425
27.3061
18.0467
14.6936
-2.48637
28.8367
19.9254
28.5766
-13.426
30.5257
27.1913
3.7332
20.4691
29.0445
12.3278
-29.8254
-26.5712
9.28945
-6.71752
-38.8416
22.5739
21.145
26.623
24.8684
14.4035
-47.0778
47.6696
32.1789
30.3438
30.1849
10.9819
48.4672
27.6122
23.8521
27.697
-19.7086
30.3512
14.7861
-2.72498
-44.0154
29.625
-10.4678
26.171
24.6993
26.0152
23.3306
24.1239
-7.95257
20.9131
8.60475
38.187
24.2565
29.3714
26.3051
-45.8285
4.83141
-26.9434
31.1811
9.04685
-5.94267
30.2514
17.1931
31.065
12.7313
29.1787
14.724
-13.1824
13.5299
-25.3064
27.6102
-30.8735
30.6465
25.7772
55.7499
13.3029
-47.9001
15.3728
46.6059
43.1186
24.7793
-16.7816
27.4472
34.2252
26.933
14.9364
31.1666
35.9408
27.3845
31.3253
23.1894
-21.5708
19.6423
-3.81342
26.8363
-21.6964
33.6368
16.815
12.491
-13.4896
16.3933
26.0982
-51.5122
47.015
27.5238
57.0843
-7.65335
27.1518
27.8861
14.0083
21.8033
29.272
25.6929
19.138
37.1602
9.57984
-6.99433
29.4288
-12.8956
30.039
-8.64093
26.7436
25.9318
1.74022
27.8746
-34.9105
17.9864
27.8953
17.7617
-13.8114
-12.1407
-9.76727
11.1945
0.139655
-5.67597
26.6515
45.0303
-0.258948
35.417
30.227
60.9079
1.25002
27.6837
18.4286
23.1594
26.2737
-33.0661
24.7777
19.6791
29.1922
32.3132
-0.195646
58.0062
24.406
25.5549
24.0665
13.6773
27.0098
26.6184
21.1725
-31.3775
26.6987
39.715
13.2612
26.3492
13.6268
-18.3289
11.5831
28.9984
45.3859
27.1446
27.1357
-44.3256
-37.3204
-20.7343
-40.4224
27.1067
14.3798
24.8479
26.1744
15.0339
17.2842
27.2675
16.3775
30.1471
-14.8396
2.39684
-37.1647
28.2233
29.8384
27.0728
27.5935
29.6307
5.64008
29.7726
27.8829
27.7221
12.1919
20.7634
29.9163
16.9058
30.8406
16.5988
21.5855
21.4791
27.2684
29.3639
26.3674
-18.9907
-25.1873
27.5531
42.5356
7.9519
9.68376
23.9194
29.4583
9.94532
13.3481
-18.9607
-0.584478
27.5028
24.4072
28.5446
-15.8033
12.2083
28.159
45.1784
8.94205
-28.3679
29.3963
10.7893
-6.7665
25.1565
-40.8715
27.7771
27.0218
26.3652
-1.25152
51.502
-25.5839
11.9488
27.3999
3.63566
27.2388
23.3765
26.2125
26.8933
46.9928
-28.4132
8.42949
30.5609
-14.4605
-10.5341
-4.59162
-0.760403
31.1769
-2.90092
25.0014
47.1452
21.9711
27.0474
-27.6981
27.8324
27.8881
23.4421
22.2272
59.5831
-32.4457
-36.5563
26.3316
9.62112
-26.0236
26.9933
26.9417
27.1911
28.3585
28.591
32.9665
-11.365
10.5935
26.1786
3.10025
22.5142
-30.0424
27.0529
-12.2846
24.2884
-1.90247
25.3845
12.5495
-17.7008
-0.829307
-19.2177
-39.864
28.2932
27.2703
25.5613
30.2398
9.15688
20.2993
20.6741
26.7008
27.7042
25.0534
27.1908
24.4189
-13.5324
27.453
20.3955
13.8621
-12.0632
31.3096
19.6285
29.7257
20.9204
30.2318
38.416
28.9864
45.0029
29.8151
13.4273
6.36946
20.9437
27.7469
26.7894
5.35658
27.1856
29.3899
29.0142
26.5221
-4.06218
0.68654
62.7359
10.3099
-30.2793
13.8993
-32.7232
27.9369
22.5789
25.4594
-2.39473
8.92386
9.36125
27.1772
25.9563
27.9183
19.8423
21.3996
27.1254
26.7801
28.5681
12.594
17.2704
62.6794
-21.8399
25.8002
26.4433
48.3952
6.69021
26.8702
17.1541
28.4121
29.2552
26.3799
5.01936
-47.0907
10.3709
3.84454
40.4102
-15.4512
27.5208
29.8114
20.4773
18.7502
18.2337
24.7507
10.5666
29.5167
26.5603
28.038
-28.8018
26.8755
28.6255
-29.8067
21.4733
-26.9225
14.8573
28.8138
-22.697
18.6227
26.3368
-49.8079
26.178
26.5453
26.7603
20.743
28.6559
24.9879
12.5695
6.75929
5.69827
-36.5296
30.2547
26.6577
27.1318
-9.57553
20.4719
27.1161
65.2655
29.4797
29.3369
26.8304
-42.5318
-52.2737
-8.6692
21.8102
17.4837
14.1062
26.3805
31.8098
17.9062
17.588
30.7667
23.0712
30.0087
41.4912
26.5477
27.0816
21.7054
27.0338
22.2945
-9.62107
20.9964
22.7895
22.7187
9.16123
27.2716
32.9312
28.8422
-6.61052
-10.7493
-22.7929
29.344
4.82408
15.1291
28.1027
11.3749
-2.70093
26.9505
27.0654
-23.8121
18.2293
26.9662
-18.3308
11.7101
61.0017
5.49959
10.0652
58.4197
-10.289
28.3407
27.8651
-11.4286
8.37823
20.8913
19.4596
22.9819
-24.6427
30.6679
-6.33149
27.0711
-45.8054
-3.09758
44.3275
-17.1979
-38.016
26.5393
24.5049
3.43361
7.91862
27.7277
7.91014
4.92687
12.6816
-45.3978
15.8983
-28.0147
-36.6512
31.1575
26.6963
3.25302
-3.67441
22.4687
29.2685
13.0305
18.3012
35.8126
29.9952
13.3886
-5.5457
7.45611
-8.95421
26.6676
24.9826
26.9749
18.4645
30.8578
-8.12684
15.9737
59.4131
2.31371
35.3271
17.6812
30.6128
27.2018
-15.2606
27.0932
45.4187
6.73377
26.044
55.1206
68.5978
-8.66591
27.0133
33.17
-6.39606
10.5841
30.9535
26.7271
-32.2666
45.6912
30.2171
-14.5911
27.1349
-35.6355
12.3098
-19.9901
14.8743
65.1977
-11.3264
19.8194
14.2331
31.882
20.9334
26.475
28.1025
26.3513
26.8938
3.554
21.3211
-10.6007
25.8675
29.6563
-34.6054
-10.3642
27.1497
28.5944
-6.21033
29.4229
27.5104
2.64216
-19.7826
60.6759
15.5954
27.3353
27.1995
60.1418
-28.0638
26.8552
22.5069
-32.0094
31.2721
-19.2755
27.1477
20.3488
39.1939
56.3063
13.6597
-13.2317
27.4387
27.1294
-18.3568
18.0835
28.1769
24.0528
10.6202
27.1719
-50.532
28.9011
-13.933
28.4634
28.2755
12.4132
25.2865
30.8906
-14.3533
-26.7037
12.9244
27.5095
27.5278
39.9997
15.8691
28.5095
21.727
-7.66011
23.3407
31.1801
10.5746
30.0239
12.0251
24.0995
30.4337
-9.301
26.8032
25.5808
28.5143
13.6047
27.1927
11.9276
-32.2347
-11.1413
22.2574
-3.23385
27.3472
29.4759
20.7929
-41.006
-29.726
21.0324
32.1689
-26.5937
29.8183
26.8987
27.6176
3.61743
18.4895
17.8908
7.12023
-32.347
15.5006
-22.5077
-6.23235
-42.8689
70.0042
29.6381
26.4164
25.5198
27.0454
18.6295
21.7376
25.4992
11.6015
25.3106
26.9516
2.04873
29.4807
23.4928
-5.24475
24.4381
26.9801
-12.9282
5.61047
26.4871
25.0243
27.0642
60.6934
26.6839
41.2866
10.7711
27.1586
18.6396
11.3348
27.362
27.1379
-1.40615
26.7342
-23.4791
24.7889
66.5126
26.4308
65.5609
-1.14926
27.0105
-11.7507
52.1227
18.4937
27.1529
28.813
23.2388
57.1296
27.435
27.0346
19.3669
-7.57832
-35.8665
27.1448
20.688
26.804
11.8463
-13.7795
10.1733
-18.7661
27.6681
26.9802
0.470208
29.9069
30.3622
-24.7088
26.939
39.8256
27.1504
-36.7824
24.66
14.1183
-20.7785
26.7892
26.7063
27.4959
27.0047
-13.52
-27.3476
6.12642
39.5458
-1.78096
5.41758
11.2764
-17.1417
26.6536
-2.80169
28.6262
17.9682
-8.04197
-18.7083
22.8027
27.1688
28.2403
-39.5418
30.2531
13.1824
6.2746
18.5844
0.0710479
28.5682
41.4125
25.8512
19.5675
-25.0113
26.1471
27.1721
31.2878
13.7636
12.1436
21.4158
-20.5031
27.1132
-12.977
22.441
45.0007
24.5402
-2.43097
21.4794
-7.89331
17.4261
-3.64275
8.85131
68.7408
26.9899
58.5108
68.1615
30
27.1746
25.9375
30.4556
26.2391
23.0039
9.28289
30.8331
19.0187
28.2225
29.895
27.1032
26.608
34.3353
16.6995
23.6307
-49.8401
27.1418
26.9146
-4.66902
27.7414
13.8651
29.8706
26.7552
25.4433
33.581
22.1128
11.5357
42.0399
29.5032
18.1504
30.8563
31.7295
27.1691
26.0151
27.126
24.5216
21.5032
29.7051
29.151
-25.0374
-0.446538
15.5093
17.7982
21.2404
-6.25576
24.0908
12.964
-12.1712
-48.6504
-22.7681
27.1141
28.5038
-4.10065
31.8912
7.19831
28.3646
47.38
18.5177
27.2222
4.80827
27.1433
49.7413
29.9314
11.3304
27.0149
5.317
-15.9367
30.3957
59.2325
27.946
26.9292
27.5519
55.8818
30.2852
27.9259
22.0278
27.1993
40.1731
-46.0908
-36.9237
25.8338
25.0595
-12.0212
-27.5198
27.1481
31.5775
22.3149
-25.1602
3.03107
24.9462
-8.28067
31.1786
29.9688
27.2877
17.1985
13.9567
19.0214
23.6964
18.7501
-31.3395
-14.4548
28.0695
21.9957
-15.4198
28.0934
29.4958
28.7707
25.9144
30.712
25.4241
30.0823
28.0132
19.2603
9.85743
27.0154
26.9076
18.3719
12.6723
26.9706
33.484
-39.685
30.2197
27.19
27.7943
30.8258
-21.7115
21.1131
23.7708
26.3055
27.351
30.4079
14.7451
28.1441
13.7997
26.1811
-1.30176
27.0406
16.286
27.1788
-28.0974
28.336
29.3024
25.0873
19.8537
24.8325
-30.8101
29.1555
24.6253
23.7519
-32.6062
13.6924
-5.11634
24.1989
21.6786
3.39812
29.0351
27.6414
60.118
19.8395
24.1455
-23.8311
28.137
37.1759
3.50817
16.5373
-8.23427
8.70066
27.8998
20.6849
27.1779
10.9884
16.3895
4.73055
21.0506
30.0341
10.4498
25.9614
41.2568
27.0215
43.4863
28.9398
56.0068
30.524
28.2504
46.1401
26.7122
27.1437
28.7939
48.3085
18.0046
14.0158
1.54457
29.6024
15.0666
29.9348
26.9271
27.128
21.8633
-17.4572
-29.44
28.7241
25.017
-17.3598
34.155
-37.899
27.9453
19.9017
22.6945
25.8819
23.4324
3.07237
-10.1247
-12.3749
30.4753
15.3024
30.0071