/*--------------------------------*- C++ -*----------------------------------*\
| =========                 |                                                 |
| \\      /  F ield         | OpenFOAM: The Open Source CFD Toolbox           |
|  \\    /   O peration     | Version:  2.3.1                                 |
|   \\  /    A nd           | Web:      www.OpenFOAM.org                      |
|    \\/     M anipulation  |                                                 |
\*---------------------------------------------------------------------------*/
FoamFile
{
    version     2.0;
    format      ascii;
    class       volScalarField;
    location    "0.91";
    object      k;
}
// * * * * * * * * * * * * * * * * * * * * * * * * * * * * * * * * * * * * * //

dimensions      [0 2 -2 0 0 0 0];

internalField   nonuniform List<scalar> 
1000
(
0.00219794
0.00224834
0.00225009
0.00225007
0.00225005
0.00225004
0.00225003
0.00225001
0.00224981
0.00224542
0.00225102
0.00226922
0.00227081
0.0022709
0.00227091
0.0022709
0.00227087
0.00227078
0.00226923
0.00224907
0.00225726
0.00227607
0.00227797
0.00227811
0.00227815
0.00227813
0.00227808
0.00227794
0.00227606
0.00225315
0.00226297
0.00228365
0.00228584
0.00228611
0.00228619
0.00228619
0.00228609
0.00228585
0.00228372
0.00225901
0.00226651
0.00229083
0.0022934
0.00229375
0.00229385
0.00229385
0.00229376
0.00229346
0.00229103
0.00226271
0.00224995
0.00226414
0.00226561
0.00226579
0.00226584
0.00226586
0.00226586
0.00226582
0.0022646
0.00224885
0.00226616
0.00260221
0.00262854
0.00263014
0.00263026
0.0026303
0.00263029
0.00262921
0.0026053
0.00226402
0.00227118
0.00263546
0.00266494
0.00266677
0.00266689
0.0026669
0.00266683
0.00266548
0.00263853
0.00226898
0.00227631
0.00263966
0.00266956
0.00267142
0.00267154
0.00267154
0.00267146
0.00267007
0.00264266
0.00227413
0.0022807
0.0026521
0.00268396
0.00268654
0.00268697
0.00268698
0.00268664
0.00268456
0.00265524
0.00227858
0.0022551
0.00226829
0.0022698
0.00226998
0.00227004
0.00227006
0.00227007
0.00227002
0.00226864
0.00225174
0.00226967
0.00262845
0.00265731
0.00265906
0.00265917
0.0026592
0.00265918
0.00265796
0.00263167
0.00226766
0.0022741
0.00266298
0.00269545
0.00269748
0.00269761
0.00269761
0.00269754
0.00269603
0.00266639
0.00227218
0.00227845
0.00266728
0.00270025
0.00270237
0.00270252
0.00270252
0.00270242
0.00270082
0.00267065
0.00227651
0.0022832
0.00267306
0.00270715
0.00270967
0.00270997
0.00270998
0.00270974
0.00270776
0.00267649
0.00228128
0.00225736
0.00227051
0.002272
0.00227215
0.0022722
0.00227223
0.00227224
0.00227218
0.00227078
0.0022538
0.00227159
0.00263143
0.00266037
0.0026621
0.0026622
0.00266222
0.00266219
0.00266095
0.00263444
0.00226957
0.00227554
0.00266434
0.00269683
0.00269885
0.00269897
0.00269897
0.00269891
0.0026974
0.00266768
0.00227363
0.0022793
0.00266843
0.00270142
0.00270354
0.00270368
0.00270368
0.00270358
0.00270198
0.00267178
0.00227737
0.00228399
0.00267083
0.00270428
0.00270654
0.00270674
0.00270674
0.00270659
0.00270485
0.00267417
0.00228206
0.0022586
0.00227174
0.0022732
0.00227333
0.00227338
0.0022734
0.00227341
0.00227334
0.00227193
0.00225488
0.00227272
0.00263327
0.00266223
0.00266394
0.00266404
0.00266405
0.00266402
0.00266275
0.00263615
0.00227062
0.00227637
0.00266444
0.00269682
0.00269883
0.00269894
0.00269894
0.00269888
0.00269738
0.00266772
0.00227443
0.00227983
0.00266824
0.00270103
0.00270312
0.00270327
0.00270327
0.00270317
0.00270158
0.00267153
0.00227787
0.00228437
0.00266963
0.00270255
0.00270469
0.00270484
0.00270484
0.00270473
0.00270309
0.0026729
0.0022824
0.00225879
0.00227243
0.00227393
0.00227406
0.00227411
0.00227413
0.00227412
0.00227404
0.00227259
0.00225499
0.00227299
0.00263469
0.00266371
0.00266542
0.00266551
0.00266552
0.00266547
0.00266419
0.00263749
0.00227085
0.00227666
0.0026648
0.00269713
0.00269914
0.00269925
0.00269926
0.00269919
0.00269768
0.00266803
0.00227469
0.00228019
0.00266844
0.00270113
0.00270322
0.00270337
0.00270338
0.00270327
0.00270168
0.00267169
0.00227821
0.00228478
0.00267
0.00270271
0.00270483
0.00270499
0.00270499
0.00270487
0.00270324
0.00267322
0.00228278
0.00225798
0.00227293
0.00227453
0.00227469
0.00227474
0.00227475
0.00227473
0.00227462
0.00227306
0.00225414
0.00227244
0.00263533
0.00266439
0.00266611
0.00266621
0.00266621
0.00266616
0.00266486
0.0026381
0.00227025
0.00227648
0.00266536
0.00269771
0.00269974
0.00269986
0.00269987
0.00269979
0.00269826
0.00266857
0.00227447
0.00228052
0.00266913
0.00270183
0.00270396
0.00270412
0.00270412
0.00270401
0.00270237
0.00267236
0.0022785
0.0022856
0.00267167
0.00270452
0.00270675
0.00270695
0.00270696
0.00270679
0.00270504
0.00267485
0.00228355
0.00225613
0.00227227
0.00227398
0.00227415
0.00227421
0.00227422
0.00227419
0.00227406
0.0022724
0.00225227
0.00227096
0.00263421
0.00266313
0.00266486
0.00266496
0.00266497
0.00266491
0.00266359
0.00263694
0.00226873
0.00227564
0.00266387
0.002696
0.00269803
0.00269817
0.00269818
0.00269809
0.00269653
0.00266702
0.00227357
0.0022805
0.00266758
0.00270002
0.00270216
0.00270234
0.00270234
0.00270221
0.00270055
0.00267073
0.00227842
0.00228651
0.00267174
0.00270457
0.002707
0.00270728
0.00270729
0.00270704
0.00270507
0.00267484
0.00228439
0.00225313
0.00226876
0.00227035
0.00227052
0.00227057
0.00227058
0.00227054
0.00227041
0.00226884
0.00224922
0.0022674
0.00260413
0.00263015
0.00263167
0.00263175
0.00263175
0.0026317
0.00263054
0.00260647
0.00226498
0.00227272
0.00262943
0.00265802
0.00265977
0.00265987
0.00265987
0.0026598
0.00265846
0.00263211
0.00227043
0.00227852
0.00263085
0.00265947
0.0026613
0.00266143
0.00266143
0.00266132
0.00265988
0.00263348
0.00227618
0.00228608
0.00263565
0.00266478
0.00266711
0.00266741
0.00266741
0.00266712
0.00266516
0.00263819
0.00228369
0.00224575
0.00224641
0.00224651
0.00224654
0.00224656
0.00224656
0.00224655
0.00224652
0.00224628
0.00224159
0.00224993
0.00226331
0.00226478
0.00226495
0.00226499
0.002265
0.00226495
0.00226482
0.00226339
0.0022459
0.00225509
0.00226986
0.00227165
0.00227192
0.00227201
0.00227202
0.00227193
0.00227169
0.00226995
0.00225107
0.00226207
0.00227733
0.00227941
0.00227983
0.00227999
0.00228
0.00227984
0.00227942
0.00227739
0.00225805
0.00227316
0.00229146
0.00229441
0.00229508
0.00229528
0.00229527
0.00229507
0.00229438
0.00229155
0.00226924
0.00230294
0.00237411
0.0023879
0.00238719
0.00238638
0.00238632
0.00238696
0.00238773
0.00237597
0.00229996
0.0024759
0.00329889
0.00344369
0.00340604
0.00338759
0.00338663
0.00340298
0.00344144
0.00332323
0.00248475
0.00388639
0.00962356
0.0105111
0.0102657
0.0101534
0.0101478
0.0102471
0.0104986
0.00976022
0.00397695
0.00987275
0.0302524
0.0333687
0.0330701
0.0328608
0.0328462
0.0330242
0.0333461
0.0306137
0.0101793
0.0240386
0.0759453
0.0842655
0.0847274
0.0846159
0.0845906
0.0846541
0.0842493
0.0766502
0.0246403
0.00229869
0.00264501
0.00267497
0.00267753
0.00267772
0.00267771
0.0026775
0.00267527
0.00264761
0.00229639
0.00232253
0.00281058
0.00286671
0.00287138
0.00287072
0.00287062
0.00287113
0.00286715
0.00281679
0.00232135
0.00250246
0.00393275
0.00413336
0.00412239
0.0041119
0.00411115
0.00412009
0.0041333
0.00395809
0.0025117
0.0044498
0.0132231
0.014213
0.0137133
0.0135097
0.0135034
0.013695
0.0142108
0.0133828
0.00454462
0.0334455
0.128818
0.139591
0.140101
0.139972
0.139948
0.140038
0.139638
0.129806
0.0343071
0.00229359
0.00267771
0.00271152
0.00271454
0.00271503
0.00271504
0.00271458
0.00271202
0.00268083
0.00229155
0.00230288
0.00268852
0.00272409
0.0027273
0.00272751
0.0027275
0.00272731
0.0027246
0.00269206
0.00230104
0.00233202
0.00295044
0.00302613
0.00303898
0.00304126
0.00304124
0.00303905
0.00302745
0.00295867
0.00233174
0.00348249
0.00867545
0.00919615
0.00918588
0.00917005
0.00916892
0.00918376
0.00920341
0.00875452
0.00353312
0.0346127
0.132367
0.140682
0.140823
0.140667
0.140657
0.140804
0.140805
0.133392
0.0354931
0.00228958
0.00267711
0.00271097
0.0027137
0.00271412
0.00271412
0.00271375
0.00271151
0.00268035
0.00228759
0.0022977
0.00267202
0.00270481
0.00270699
0.00270709
0.00270708
0.00270701
0.00270532
0.00267527
0.00229581
0.00231445
0.00279593
0.00284013
0.00284475
0.00284583
0.00284588
0.00284495
0.00284114
0.00280133
0.00231365
0.0033709
0.00837409
0.00882967
0.00886247
0.00886472
0.00886456
0.00886313
0.00884044
0.00844867
0.0034169
0.0369246
0.140693
0.148976
0.149447
0.149423
0.149421
0.149457
0.149157
0.141808
0.0378954
0.00228725
0.0026754
0.00270921
0.00271183
0.00271221
0.00271222
0.00271189
0.00270978
0.0026787
0.00228527
0.00229526
0.00266828
0.00270075
0.00270273
0.00270279
0.00270279
0.00270276
0.00270126
0.00267151
0.00229337
0.00230799
0.00276411
0.00280605
0.00281005
0.00281089
0.00281093
0.00281022
0.002807
0.00276915
0.00230704
0.0035065
0.00883929
0.00933456
0.0094243
0.00945164
0.00945212
0.00942826
0.0093515
0.00892213
0.00356193
0.0379779
0.14311
0.151334
0.151921
0.151945
0.151946
0.151944
0.15154
0.14425
0.0389877
0.0022868
0.00267695
0.00271138
0.00271413
0.00271456
0.00271457
0.0027142
0.00271199
0.00268035
0.00228485
0.00229546
0.00266746
0.00270113
0.00270324
0.00270331
0.00270331
0.00270328
0.00270168
0.00267078
0.0022936
0.00231094
0.00277724
0.0028235
0.00282932
0.00283064
0.00283067
0.00282951
0.00282454
0.00278252
0.00231008
0.00420567
0.00968577
0.0102886
0.0105441
0.0106396
0.0106416
0.010555
0.010315
0.00977056
0.00428751
0.0383411
0.14094
0.14878
0.149357
0.149394
0.149397
0.149389
0.148996
0.142048
0.0393619
0.00228789
0.00268211
0.00271756
0.00272058
0.0027211
0.00272111
0.00272067
0.00271823
0.00268563
0.002286
0.0022971
0.00267093
0.0027072
0.0027099
0.00271008
0.00271008
0.00270996
0.00270784
0.00267445
0.00229524
0.00232423
0.00283577
0.00288882
0.00289856
0.00290136
0.00290144
0.00289891
0.00289016
0.00284168
0.00232381
0.00490253
0.00901153
0.00960083
0.00983501
0.00993239
0.00993488
0.00984563
0.0096242
0.00908324
0.004994
0.0380755
0.132776
0.139605
0.140292
0.140416
0.140422
0.14034
0.13982
0.133742
0.0390449
0.00229066
0.00268694
0.00272308
0.00272622
0.00272677
0.00272679
0.00272633
0.0027238
0.00269056
0.00228881
0.00229833
0.00269303
0.00273555
0.00274031
0.00274107
0.00274108
0.00274044
0.00273637
0.00269707
0.00229645
0.00234288
0.00295627
0.00301952
0.00303249
0.00303647
0.00303658
0.00303294
0.00302117
0.00296296
0.00234241
0.00442423
0.00775553
0.00824509
0.008367
0.00841184
0.00841268
0.00837195
0.00825986
0.00781255
0.00446143
0.0353934
0.112483
0.117602
0.118292
0.118497
0.118506
0.118344
0.117782
0.113188
0.0361723
0.00229388
0.00266381
0.00269712
0.00269979
0.00270019
0.00270021
0.00269989
0.00269777
0.00266708
0.0022919
0.00229616
0.00274003
0.00279114
0.00279937
0.0028013
0.00280135
0.00279961
0.00279223
0.00274465
0.00229412
0.00235965
0.0030763
0.00314498
0.00315815
0.0031621
0.00316219
0.00315855
0.00314657
0.00308261
0.00235893
0.00344196
0.00621614
0.00661855
0.00666659
0.00667871
0.00667859
0.00666781
0.00662644
0.00625628
0.0034739
0.026983
0.0772696
0.080403
0.0809078
0.0810785
0.081085
0.0809434
0.0805153
0.0776809
0.0274234
0.00228299
0.00231269
0.00231651
0.00231734
0.00231767
0.00231769
0.00231738
0.00231667
0.00231309
0.0022792
0.00227233
0.00232118
0.00232727
0.00232819
0.00232846
0.00232848
0.00232828
0.0023275
0.00232174
0.0022685
0.00236254
0.00243792
0.00244813
0.00245079
0.00245165
0.00245166
0.00245091
0.00244837
0.00243896
0.00235949
0.0027184
0.00339368
0.00351167
0.0035302
0.00353522
0.0035352
0.0035306
0.00351414
0.00340588
0.00272626
0.011949
0.0211948
0.0219077
0.0220995
0.0221595
0.0221614
0.022109
0.021935
0.0212899
0.0120617
)
;

boundaryField
{
    walls
    {
        type            kqRWallFunction;
        value           nonuniform List<scalar> 
500
(
0.00219794
0.00219794
0.00219794
0.00224834
0.00224834
0.00225009
0.00225009
0.00225007
0.00225007
0.00225005
0.00225005
0.00225004
0.00225004
0.00225003
0.00225003
0.00225001
0.00225001
0.00224981
0.00224981
0.00224542
0.00224542
0.00224542
0.00225102
0.00225102
0.00226922
0.00227081
0.0022709
0.00227091
0.0022709
0.00227087
0.00227078
0.00226923
0.00224907
0.00224907
0.00225726
0.00225726
0.00227607
0.00227797
0.00227811
0.00227815
0.00227813
0.00227808
0.00227794
0.00227606
0.00225315
0.00225315
0.00226297
0.00226297
0.00228365
0.00228584
0.00228611
0.00228619
0.00228619
0.00228609
0.00228585
0.00228372
0.00225901
0.00225901
0.00226651
0.00226651
0.00229083
0.0022934
0.00229375
0.00229385
0.00229385
0.00229376
0.00229346
0.00229103
0.00226271
0.00226271
0.00224995
0.00224995
0.00226414
0.00226561
0.00226579
0.00226584
0.00226586
0.00226586
0.00226582
0.0022646
0.00224885
0.00224885
0.00226616
0.00226402
0.00227118
0.00226898
0.00227631
0.00227413
0.0022807
0.00227858
0.0022551
0.0022551
0.00226829
0.0022698
0.00226998
0.00227004
0.00227006
0.00227007
0.00227002
0.00226864
0.00225174
0.00225174
0.00226967
0.00226766
0.0022741
0.00227218
0.00227845
0.00227651
0.0022832
0.00228128
0.00225736
0.00225736
0.00227051
0.002272
0.00227215
0.0022722
0.00227223
0.00227224
0.00227218
0.00227078
0.0022538
0.0022538
0.00227159
0.00226957
0.00227554
0.00227363
0.0022793
0.00227737
0.00228399
0.00228206
0.0022586
0.0022586
0.00227174
0.0022732
0.00227333
0.00227338
0.0022734
0.00227341
0.00227334
0.00227193
0.00225488
0.00225488
0.00227272
0.00227062
0.00227637
0.00227443
0.00227983
0.00227787
0.00228437
0.0022824
0.00225879
0.00225879
0.00227243
0.00227393
0.00227406
0.00227411
0.00227413
0.00227412
0.00227404
0.00227259
0.00225499
0.00225499
0.00227299
0.00227085
0.00227666
0.00227469
0.00228019
0.00227821
0.00228478
0.00228278
0.00225798
0.00225798
0.00227293
0.00227453
0.00227469
0.00227474
0.00227475
0.00227473
0.00227462
0.00227306
0.00225414
0.00225414
0.00227244
0.00227025
0.00227648
0.00227447
0.00228052
0.0022785
0.0022856
0.00228355
0.00225613
0.00225613
0.00227227
0.00227398
0.00227415
0.00227421
0.00227422
0.00227419
0.00227406
0.0022724
0.00225227
0.00225227
0.00227096
0.00226873
0.00227564
0.00227357
0.0022805
0.00227842
0.00228651
0.00228439
0.00225313
0.00225313
0.00226876
0.00227035
0.00227052
0.00227057
0.00227058
0.00227054
0.00227041
0.00226884
0.00224922
0.00224922
0.0022674
0.00226498
0.00227272
0.00227043
0.00227852
0.00227618
0.00228608
0.00228369
0.00224575
0.00224575
0.00224575
0.00224641
0.00224641
0.00224651
0.00224651
0.00224654
0.00224654
0.00224656
0.00224656
0.00224656
0.00224656
0.00224655
0.00224655
0.00224652
0.00224652
0.00224628
0.00224628
0.00224159
0.00224159
0.00224159
0.00224993
0.00224993
0.00226331
0.00226478
0.00226495
0.00226499
0.002265
0.00226495
0.00226482
0.00226339
0.0022459
0.0022459
0.00225509
0.00225509
0.00226986
0.00227165
0.00227192
0.00227201
0.00227202
0.00227193
0.00227169
0.00226995
0.00225107
0.00225107
0.00226207
0.00226207
0.00227733
0.00227941
0.00227983
0.00227999
0.00228
0.00227984
0.00227942
0.00227739
0.00225805
0.00225805
0.00227316
0.00227316
0.00229146
0.00229441
0.00229508
0.00229528
0.00229527
0.00229507
0.00229438
0.00229155
0.00226924
0.00226924
0.00230294
0.00230294
0.00237411
0.0023879
0.00238719
0.00238638
0.00238632
0.00238696
0.00238773
0.00237597
0.00229996
0.00229996
0.0024759
0.0024759
0.00329889
0.00344369
0.00340604
0.00338759
0.00338663
0.00340298
0.00344144
0.00332323
0.00248475
0.00248475
0.00388639
0.00388639
0.00962356
0.0105111
0.0102657
0.0101534
0.0101478
0.0102471
0.0104986
0.00976022
0.00397695
0.00397695
0.00987275
0.00987275
0.0302524
0.0333687
0.0330701
0.0328608
0.0328462
0.0330242
0.0333461
0.0306137
0.0101793
0.0101793
0.0240386
0.0240386
0.0759453
0.0842655
0.0847274
0.0846159
0.0845906
0.0846541
0.0842493
0.0766502
0.0246403
0.0246403
0.00229869
0.00229639
0.00232253
0.00232135
0.00250246
0.0025117
0.0044498
0.00454462
0.0334455
0.0343071
0.00229359
0.00229155
0.00230288
0.00230104
0.00233202
0.00233174
0.00348249
0.00353312
0.0346127
0.0354931
0.00228958
0.00228759
0.0022977
0.00229581
0.00231445
0.00231365
0.0033709
0.0034169
0.0369246
0.0378954
0.00228725
0.00228527
0.00229526
0.00229337
0.00230799
0.00230704
0.0035065
0.00356193
0.0379779
0.0389877
0.0022868
0.00228485
0.00229546
0.0022936
0.00231094
0.00231008
0.00420567
0.00428751
0.0383411
0.0393619
0.00228789
0.002286
0.0022971
0.00229524
0.00232423
0.00232381
0.00490253
0.004994
0.0380755
0.0390449
0.00229066
0.00228881
0.00229833
0.00229645
0.00234288
0.00234241
0.00442423
0.00446143
0.0353934
0.0361723
0.00229388
0.0022919
0.00229616
0.00229412
0.00235965
0.00235893
0.00344196
0.0034739
0.026983
0.0274234
0.00228299
0.00228299
0.00231269
0.00231651
0.00231734
0.00231767
0.00231769
0.00231738
0.00231667
0.00231309
0.0022792
0.0022792
0.00227233
0.00227233
0.00232118
0.00232727
0.00232819
0.00232846
0.00232848
0.00232828
0.0023275
0.00232174
0.0022685
0.0022685
0.00236254
0.00236254
0.00243792
0.00244813
0.00245079
0.00245165
0.00245166
0.00245091
0.00244837
0.00243896
0.00235949
0.00235949
0.0027184
0.0027184
0.00339368
0.00351167
0.0035302
0.00353522
0.0035352
0.0035306
0.00351414
0.00340588
0.00272626
0.00272626
0.011949
0.011949
0.0211948
0.0219077
0.0220995
0.0221595
0.0221614
0.022109
0.021935
0.0212899
0.0120617
0.0120617
)
;
    }
    lid
    {
        type            kqRWallFunction;
        value           nonuniform List<scalar> 
100
(
0.0240386
0.0759453
0.0842655
0.0847274
0.0846159
0.0845906
0.0846541
0.0842493
0.0766502
0.0246403
0.0334455
0.128818
0.139591
0.140101
0.139972
0.139948
0.140038
0.139638
0.129806
0.0343071
0.0346127
0.132367
0.140682
0.140823
0.140667
0.140657
0.140804
0.140805
0.133392
0.0354931
0.0369246
0.140693
0.148976
0.149447
0.149423
0.149421
0.149457
0.149157
0.141808
0.0378954
0.0379779
0.14311
0.151334
0.151921
0.151945
0.151946
0.151944
0.15154
0.14425
0.0389877
0.0383411
0.14094
0.14878
0.149357
0.149394
0.149397
0.149389
0.148996
0.142048
0.0393619
0.0380755
0.132776
0.139605
0.140292
0.140416
0.140422
0.14034
0.13982
0.133742
0.0390449
0.0353934
0.112483
0.117602
0.118292
0.118497
0.118506
0.118344
0.117782
0.113188
0.0361723
0.026983
0.0772696
0.080403
0.0809078
0.0810785
0.081085
0.0809434
0.0805153
0.0776809
0.0274234
0.011949
0.0211948
0.0219077
0.0220995
0.0221595
0.0221614
0.022109
0.021935
0.0212899
0.0120617
)
;
    }
}


// ************************************************************************* //
