/*--------------------------------*- C++ -*----------------------------------*\
| =========                 |                                                 |
| \\      /  F ield         | OpenFOAM: The Open Source CFD Toolbox           |
|  \\    /   O peration     | Version:  2.3.1                                 |
|   \\  /    A nd           | Web:      www.OpenFOAM.org                      |
|    \\/     M anipulation  |                                                 |
\*---------------------------------------------------------------------------*/
FoamFile
{
    version     2.0;
    format      ascii;
    class       volScalarField;
    location    "0.91";
    object      nut;
}
// * * * * * * * * * * * * * * * * * * * * * * * * * * * * * * * * * * * * * //

dimensions      [0 2 -1 0 0 0 0];

internalField   nonuniform List<scalar> 
1000
(
0.00052348
0.000529414
0.000529628
0.000529626
0.000529624
0.000529622
0.000529621
0.000529619
0.000529594
0.000529073
0.00052975
0.000532034
0.000532238
0.000532249
0.000532251
0.00053225
0.000532247
0.000532235
0.000532037
0.000529537
0.000530533
0.000532903
0.000533146
0.000533165
0.000533169
0.000533168
0.000533162
0.000533143
0.000532904
0.000530054
0.000531266
0.000533868
0.000534149
0.000534183
0.000534194
0.000534194
0.000534181
0.000534151
0.000533878
0.000530804
0.000531679
0.00053475
0.000535079
0.000535122
0.000535136
0.000535136
0.000535125
0.000535087
0.000534775
0.000531236
0.000529628
0.00053138
0.000531564
0.000531586
0.000531592
0.000531595
0.000531595
0.000531589
0.000531434
0.000529508
0.000531633
0.00102637
0.00107681
0.00107956
0.00107973
0.00107979
0.00107982
0.0010779
0.00103041
0.000531384
0.000532265
0.00108912
0.00115029
0.00115358
0.00115373
0.00115374
0.00115367
0.0011511
0.00109313
0.000532009
0.000532917
0.00109414
0.00115653
0.0011599
0.00116004
0.00116004
0.00115996
0.00115727
0.00109792
0.000532664
0.000533449
0.00109705
0.0011612
0.00116486
0.00116508
0.00116509
0.00116493
0.00116196
0.0011008
0.000533203
0.000530268
0.000531904
0.000532094
0.000532116
0.000532123
0.000532126
0.000532127
0.000532119
0.000531945
0.000529875
0.000532077
0.0010777
0.00113687
0.00114007
0.00114023
0.00114028
0.00114028
0.00113791
0.00108194
0.000531842
0.000532635
0.00114777
0.00122041
0.00122443
0.00122459
0.0012246
0.00122451
0.00122134
0.00115246
0.000532412
0.000533185
0.0011527
0.00122676
0.00123089
0.00123106
0.00123106
0.00123095
0.00122766
0.00115728
0.00053296
0.000533775
0.0011534
0.00122873
0.00123305
0.00123326
0.00123326
0.00123311
0.00122963
0.00115794
0.000533552
0.000530553
0.000532184
0.000532372
0.000532391
0.000532397
0.0005324
0.000532401
0.000532393
0.000532217
0.000530136
0.00053232
0.00108449
0.00114444
0.00114763
0.00114777
0.0011478
0.00114778
0.00114532
0.0010883
0.000532084
0.000532818
0.0011516
0.00122476
0.0012288
0.00122896
0.00122897
0.00122888
0.00122567
0.00115614
0.000532597
0.000533292
0.001156
0.00123041
0.00123455
0.00123472
0.00123472
0.00123462
0.00123131
0.00116053
0.000533068
0.000533882
0.00115609
0.00123123
0.00123546
0.00123565
0.00123565
0.00123552
0.00123212
0.00116059
0.000533658
0.000530709
0.00053234
0.000532524
0.000532541
0.000532547
0.00053255
0.00053255
0.000532541
0.000532363
0.000530274
0.000532463
0.00108915
0.00114962
0.00115281
0.00115295
0.00115297
0.00115292
0.0011504
0.00109274
0.000532218
0.000532924
0.00115257
0.00122563
0.00122965
0.00122981
0.00122982
0.00122973
0.00122652
0.00115698
0.000532698
0.00053336
0.00115646
0.00123051
0.00123462
0.00123479
0.00123479
0.00123468
0.0012314
0.0011609
0.000533133
0.000533933
0.0011566
0.00123094
0.00123508
0.00123525
0.00123525
0.00123514
0.00123182
0.001161
0.000533706
0.000530733
0.000532428
0.000532618
0.000532636
0.000532641
0.000532644
0.000532643
0.000532632
0.000532447
0.000530289
0.000532498
0.00109229
0.00115311
0.00115632
0.00115644
0.00115645
0.00115637
0.0011538
0.00109569
0.000532249
0.000532961
0.00115317
0.00122616
0.00123017
0.00123033
0.00123033
0.00123024
0.00122702
0.00115747
0.000532732
0.000533406
0.00115675
0.00123054
0.00123462
0.00123479
0.00123479
0.00123469
0.00123141
0.0011611
0.000533177
0.000533987
0.00115713
0.00123094
0.00123502
0.00123519
0.00123519
0.00123508
0.0012318
0.00116145
0.000533756
0.00053063
0.000532497
0.000532702
0.000532721
0.000532728
0.000532729
0.000532727
0.000532712
0.000532514
0.000530182
0.000532428
0.00109279
0.00115364
0.00115685
0.00115698
0.00115698
0.0011569
0.00115432
0.00109614
0.000532173
0.000532939
0.00115312
0.001226
0.00123001
0.00123017
0.00123017
0.00123007
0.00122686
0.00115738
0.000532705
0.00053345
0.00115658
0.0012302
0.00123427
0.00123444
0.00123444
0.00123433
0.00123106
0.00116089
0.000533214
0.00053409
0.00115697
0.00123055
0.00123463
0.00123481
0.00123481
0.00123469
0.00123141
0.00116124
0.000533853
0.000530396
0.00053242
0.000532638
0.000532661
0.000532667
0.000532669
0.000532664
0.000532647
0.000532435
0.000529944
0.000532241
0.00108927
0.00114936
0.00115252
0.00115264
0.00115264
0.00115257
0.00115002
0.00109253
0.000531981
0.000532832
0.00114776
0.00121935
0.00122325
0.0012234
0.0012234
0.00122331
0.00122018
0.00115189
0.000532592
0.000533447
0.00114985
0.00122182
0.00122573
0.00122586
0.00122586
0.00122578
0.00122265
0.001154
0.000533205
0.000534206
0.00114802
0.00121931
0.00122314
0.00122326
0.00122326
0.00122319
0.00122011
0.00115207
0.00053396
0.000530016
0.000531977
0.000532181
0.000532202
0.000532209
0.00053221
0.000532205
0.000532187
0.000531988
0.000529559
0.00053179
0.00102628
0.00107563
0.00107807
0.00107811
0.00107811
0.00107808
0.0010761
0.00102876
0.000531507
0.000532462
0.00106966
0.00112662
0.00112943
0.00112944
0.00112943
0.00112944
0.00112719
0.00107271
0.000532195
0.000533197
0.00106277
0.00111829
0.00112083
0.00112074
0.00112073
0.00112083
0.00111882
0.00106573
0.000532925
0.000534155
0.00104599
0.00109788
0.00109991
0.00109971
0.00109969
0.0010999
0.00109834
0.00104867
0.000533877
0.000529115
0.000529201
0.000529214
0.000529219
0.00052922
0.000529221
0.000529219
0.000529215
0.000529185
0.000528627
0.000529647
0.000531299
0.000531484
0.000531505
0.000531511
0.000531511
0.000531506
0.000531488
0.000531307
0.000529175
0.000530306
0.000532129
0.000532355
0.000532391
0.000532402
0.000532404
0.000532392
0.00053236
0.00053214
0.000529836
0.000531197
0.000533085
0.000533349
0.000533405
0.000533425
0.000533426
0.000533406
0.000533351
0.000533093
0.000530728
0.000532622
0.000534984
0.000535381
0.000535469
0.000535493
0.000535493
0.000535466
0.000535377
0.000534999
0.000532168
0.000536644
0.000547483
0.000549665
0.000549512
0.00054937
0.000549359
0.000549477
0.000549641
0.000547786
0.000536337
0.000561582
0.000672329
0.000691131
0.000686502
0.000684193
0.000684074
0.000686125
0.000690885
0.000675363
0.000562992
0.000728036
0.00119441
0.00125486
0.00124022
0.00123314
0.00123278
0.00123907
0.00125422
0.00120325
0.000737658
0.00117419
0.00208662
0.00219803
0.00218965
0.00218288
0.00218241
0.0021882
0.0021975
0.00209899
0.00119281
0.00181231
0.00325192
0.00343177
0.00344238
0.00344023
0.00343974
0.00344099
0.0034317
0.00326676
0.00183515
0.000535784
0.00101034
0.00105469
0.00105573
0.00105532
0.0010553
0.0010557
0.00105503
0.00101249
0.000535519
0.000539141
0.000969427
0.0010046
0.00100674
0.00100684
0.00100684
0.00100677
0.00100494
0.000970905
0.000539047
0.000564131
0.00085261
0.00087136
0.000889447
0.00089518
0.000895292
0.000889902
0.000872012
0.000851685
0.000565483
0.000772812
0.000795026
0.000828124
0.000824737
0.000823154
0.000823009
0.000824407
0.000828224
0.000799832
0.000781586
0.00213508
0.0041887
0.00436564
0.00437482
0.00437301
0.00437266
0.00437394
0.00436659
0.00420432
0.00216221
0.000535118
0.00114232
0.00121202
0.00121567
0.00121575
0.00121575
0.00121571
0.00121278
0.00114623
0.000534883
0.000536322
0.00112635
0.00119116
0.00119422
0.00119413
0.00119413
0.00119425
0.00119185
0.00112989
0.000536113
0.000540321
0.00103574
0.00107757
0.0010853
0.00108727
0.00108734
0.00108554
0.00107823
0.00103678
0.000540332
0.00067535
0.000635912
0.000649967
0.000652951
0.000653774
0.000653763
0.000652982
0.000650223
0.000637731
0.000680662
0.00217034
0.00425024
0.00438647
0.00438947
0.00438714
0.00438701
0.00438925
0.00438853
0.00426622
0.00219756
0.000534606
0.00115776
0.00123162
0.00123581
0.00123603
0.00123603
0.00123587
0.00123248
0.00116205
0.000534376
0.000535648
0.00115203
0.00122418
0.00122804
0.00122812
0.00122812
0.00122809
0.001225
0.00115616
0.000535431
0.000537894
0.0010259
0.00107237
0.00107612
0.00107599
0.00107594
0.00107604
0.00107263
0.00102719
0.000537819
0.00066313
0.000594781
0.000605436
0.000607119
0.000607555
0.00060756
0.000607162
0.000605694
0.000596377
0.000668017
0.00224417
0.00438039
0.00451214
0.00452012
0.00451989
0.00451987
0.00452033
0.00451497
0.00439715
0.00227316
0.000534305
0.00115866
0.00123303
0.00123727
0.0012375
0.0012375
0.00123734
0.00123391
0.00116301
0.000534076
0.000535341
0.00115501
0.00122851
0.00123252
0.00123265
0.00123265
0.00123258
0.00122936
0.00115927
0.000535124
0.000537057
0.00103519
0.00108063
0.00108189
0.00108109
0.00108103
0.00108172
0.0010807
0.00103642
0.000536965
0.000680657
0.000577221
0.000587683
0.000588567
0.000588743
0.000588748
0.0005886
0.000587943
0.000578974
0.000686535
0.00227615
0.00441307
0.00454244
0.00455196
0.0045524
0.00455242
0.00455233
0.00454557
0.00442996
0.00230579
0.000534247
0.0011583
0.00123368
0.00123803
0.00123827
0.00123828
0.0012381
0.00123459
0.00116275
0.000534021
0.000535366
0.00115261
0.0012289
0.00123312
0.00123326
0.00123326
0.00123318
0.00122978
0.00115698
0.000535151
0.000537496
0.00102058
0.00106044
0.00105891
0.00105744
0.00105741
0.00105875
0.00106046
0.00102162
0.000537419
0.00075072
0.000598308
0.000614177
0.000618139
0.000619653
0.000619685
0.000618309
0.000614673
0.000600496
0.000758419
0.0022866
0.00437224
0.00449581
0.00450527
0.00450597
0.00450601
0.00450579
0.00449908
0.00438861
0.00231624
0.000534386
0.00115838
0.00123507
0.00123958
0.00123985
0.00123986
0.00123965
0.001236
0.00116293
0.000534167
0.000535561
0.00114966
0.00122997
0.00123458
0.00123474
0.00123473
0.00123464
0.0012309
0.00115419
0.000535347
0.000539235
0.00103199
0.00107427
0.00107075
0.00106817
0.0010681
0.00107048
0.00107423
0.00103353
0.000539215
0.000808821
0.000619081
0.000637144
0.000643852
0.000646617
0.000646682
0.000644126
0.000637776
0.000620821
0.00081632
0.00227383
0.00422452
0.00433397
0.00434577
0.00434819
0.00434829
0.00434656
0.00433728
0.00423889
0.00230159
0.000534739
0.00115641
0.00123374
0.00123834
0.00123862
0.00123863
0.00123841
0.00123469
0.001161
0.000534525
0.000535695
0.00114993
0.00123541
0.00124089
0.00124122
0.00124122
0.00124097
0.00123641
0.00115471
0.00053548
0.000541428
0.00109854
0.00115407
0.00115496
0.00115399
0.00115396
0.00115486
0.00115445
0.00110123
0.000541388
0.000752268
0.000614532
0.000631581
0.000636008
0.000637584
0.000637615
0.000636146
0.000631985
0.000615691
0.000755813
0.0021806
0.00386543
0.00395396
0.00396606
0.00396971
0.00396987
0.00396694
0.00395691
0.00387669
0.00220304
0.000535144
0.00110164
0.00116809
0.00117193
0.00117216
0.00117216
0.001172
0.00116888
0.00110545
0.000534915
0.000535398
0.00111372
0.00119364
0.00119964
0.00120029
0.0012003
0.00119974
0.00119461
0.0011181
0.000535164
0.000543354
0.00113091
0.00119481
0.00119956
0.00120012
0.00120013
0.00119963
0.00119553
0.00113411
0.000543284
0.000665178
0.000636514
0.000658629
0.000659295
0.000658899
0.000658879
0.000659245
0.000658792
0.000637355
0.000668319
0.0018876
0.00319061
0.00325639
0.00326683
0.00327032
0.00327045
0.00326753
0.0032586
0.00319862
0.00190207
0.000533828
0.000537523
0.000538001
0.000538105
0.000538146
0.000538149
0.00053811
0.00053802
0.000537572
0.00053339
0.000532446
0.000538593
0.000539371
0.000539491
0.000539525
0.000539528
0.000539502
0.000539401
0.000538664
0.000532003
0.000543507
0.000552759
0.000554008
0.000554328
0.000554432
0.000554433
0.000554343
0.000554038
0.000552884
0.000543165
0.000586335
0.000660372
0.000672736
0.000674623
0.00067512
0.000675116
0.000674659
0.000672979
0.000661599
0.000587252
0.00124569
0.00166827
0.00169744
0.0017052
0.0017076
0.00170767
0.00170557
0.0016985
0.00167198
0.00125145
)
;

boundaryField
{
    walls
    {
        type            nutkWallFunction;
        Cmu             0.09;
        kappa           0.41;
        E               9.8;
        value           nonuniform List<scalar> 
500
(
6.37527e-05
6.37527e-05
6.37527e-05
6.44753e-05
6.44753e-05
6.45002e-05
6.45002e-05
6.44999e-05
6.44999e-05
6.44996e-05
6.44996e-05
6.44994e-05
6.44994e-05
6.44992e-05
6.44992e-05
6.44991e-05
6.44991e-05
6.44962e-05
6.44962e-05
6.44336e-05
6.44336e-05
6.44336e-05
6.45134e-05
6.45134e-05
6.47719e-05
6.47945e-05
6.47957e-05
6.47958e-05
6.47958e-05
6.47954e-05
6.47941e-05
6.47721e-05
6.44856e-05
6.44856e-05
6.46022e-05
6.46022e-05
6.48689e-05
6.48958e-05
6.48978e-05
6.48983e-05
6.48981e-05
6.48974e-05
6.48954e-05
6.48688e-05
6.45438e-05
6.45438e-05
6.46833e-05
6.46833e-05
6.4976e-05
6.5007e-05
6.50107e-05
6.50119e-05
6.50119e-05
6.50105e-05
6.50071e-05
6.4977e-05
6.4627e-05
6.4627e-05
6.47335e-05
6.47335e-05
6.50774e-05
6.51136e-05
6.51185e-05
6.512e-05
6.51199e-05
6.51187e-05
6.51144e-05
6.50802e-05
6.46796e-05
6.46796e-05
6.44981e-05
6.44981e-05
6.46998e-05
6.47207e-05
6.47233e-05
6.4724e-05
6.47243e-05
6.47243e-05
6.47237e-05
6.47063e-05
6.44825e-05
6.44825e-05
6.47286e-05
6.46982e-05
6.47997e-05
6.47685e-05
6.48723e-05
6.48415e-05
6.49344e-05
6.49044e-05
6.45715e-05
6.45715e-05
6.47587e-05
6.47802e-05
6.47826e-05
6.47835e-05
6.47839e-05
6.4784e-05
6.47832e-05
6.47637e-05
6.45237e-05
6.45237e-05
6.47783e-05
6.47498e-05
6.48411e-05
6.48138e-05
6.49025e-05
6.48751e-05
6.49698e-05
6.49426e-05
6.46036e-05
6.46036e-05
6.47902e-05
6.48112e-05
6.48134e-05
6.48142e-05
6.48146e-05
6.48147e-05
6.48138e-05
6.4794e-05
6.45529e-05
6.45529e-05
6.48056e-05
6.47768e-05
6.48614e-05
6.48344e-05
6.49146e-05
6.48873e-05
6.49809e-05
6.49535e-05
6.46213e-05
6.46213e-05
6.48076e-05
6.48283e-05
6.48302e-05
6.48309e-05
6.48312e-05
6.48312e-05
6.48302e-05
6.48104e-05
6.45684e-05
6.45684e-05
6.48215e-05
6.47918e-05
6.48731e-05
6.48457e-05
6.49221e-05
6.48944e-05
6.49862e-05
6.49583e-05
6.46239e-05
6.46239e-05
6.48174e-05
6.48386e-05
6.48405e-05
6.48412e-05
6.48415e-05
6.48414e-05
6.48402e-05
6.48196e-05
6.457e-05
6.457e-05
6.48253e-05
6.4795e-05
6.48772e-05
6.48494e-05
6.49272e-05
6.48992e-05
6.4992e-05
6.49638e-05
6.46124e-05
6.46124e-05
6.48244e-05
6.48472e-05
6.48493e-05
6.485e-05
6.48502e-05
6.485e-05
6.48484e-05
6.48263e-05
6.45578e-05
6.45578e-05
6.48175e-05
6.47865e-05
6.48747e-05
6.48462e-05
6.49319e-05
6.49033e-05
6.50036e-05
6.49746e-05
6.45861e-05
6.45861e-05
6.48152e-05
6.48394e-05
6.48418e-05
6.48426e-05
6.48427e-05
6.48423e-05
6.48404e-05
6.48169e-05
6.45311e-05
6.45311e-05
6.47966e-05
6.4765e-05
6.48628e-05
6.48336e-05
6.49316e-05
6.49021e-05
6.50164e-05
6.49866e-05
6.45434e-05
6.45434e-05
6.47654e-05
6.4788e-05
6.47903e-05
6.47911e-05
6.47912e-05
6.47906e-05
6.47887e-05
6.47666e-05
6.44878e-05
6.44878e-05
6.47461e-05
6.47118e-05
6.48214e-05
6.47891e-05
6.49035e-05
6.48705e-05
6.50103e-05
6.49766e-05
6.44383e-05
6.44383e-05
6.44383e-05
6.44477e-05
6.44477e-05
6.44491e-05
6.44491e-05
6.44496e-05
6.44496e-05
6.44498e-05
6.44498e-05
6.44499e-05
6.44499e-05
6.44497e-05
6.44497e-05
6.44492e-05
6.44492e-05
6.44459e-05
6.44459e-05
6.4379e-05
6.4379e-05
6.4379e-05
6.44978e-05
6.44978e-05
6.46882e-05
6.4709e-05
6.47113e-05
6.4712e-05
6.47121e-05
6.47114e-05
6.47095e-05
6.46892e-05
6.44404e-05
6.44404e-05
6.45713e-05
6.45713e-05
6.47809e-05
6.48064e-05
6.48102e-05
6.48115e-05
6.48116e-05
6.48104e-05
6.48069e-05
6.47823e-05
6.45142e-05
6.45142e-05
6.46706e-05
6.46706e-05
6.48867e-05
6.49161e-05
6.49222e-05
6.49243e-05
6.49244e-05
6.49222e-05
6.49164e-05
6.48875e-05
6.46134e-05
6.46134e-05
6.48277e-05
6.48277e-05
6.50863e-05
6.51278e-05
6.51373e-05
6.514e-05
6.514e-05
6.51371e-05
6.51274e-05
6.50875e-05
6.47722e-05
6.47722e-05
6.52479e-05
6.52479e-05
6.62397e-05
6.64299e-05
6.64202e-05
6.6409e-05
6.64082e-05
6.6417e-05
6.64277e-05
6.62654e-05
6.52059e-05
6.52059e-05
6.76298e-05
6.76298e-05
7.78562e-05
7.95017e-05
7.90777e-05
7.88689e-05
7.8858e-05
7.90431e-05
7.94766e-05
7.81356e-05
6.77492e-05
6.77492e-05
8.43062e-05
8.43062e-05
0.000129858
0.000135351
0.000133858
0.000133169
0.000133135
0.000133745
0.000135275
0.000130721
8.52508e-05
8.52508e-05
0.000131427
0.000131427
0.000221161
0.000231375
0.00023042
0.000229747
0.0002297
0.000230272
0.000231303
0.000222374
0.000133328
0.000133328
0.0001989
0.0001989
0.000337336
0.000353745
0.00035463
0.000354416
0.000354368
0.00035449
0.000353714
0.000338763
0.000201186
0.000201186
6.51881e-05
6.51556e-05
6.55225e-05
6.5506e-05
6.79873e-05
6.81112e-05
8.99988e-05
9.09165e-05
0.00023162
0.000234347
6.51162e-05
6.50876e-05
6.52469e-05
6.52211e-05
6.56552e-05
6.56513e-05
7.99361e-05
8.04989e-05
0.000235304
0.000238039
6.50598e-05
6.50317e-05
6.51741e-05
6.51475e-05
6.54094e-05
6.53981e-05
7.86795e-05
7.92003e-05
0.000242406
0.000245315
6.50268e-05
6.49989e-05
6.51398e-05
6.51132e-05
6.53188e-05
6.53054e-05
8.02035e-05
8.08172e-05
0.000245561
0.00024854
6.50205e-05
6.49929e-05
6.51427e-05
6.51163e-05
6.53601e-05
6.5348e-05
8.75845e-05
8.84023e-05
0.000246637
0.000249633
6.50359e-05
6.50092e-05
6.51657e-05
6.51394e-05
6.55463e-05
6.55404e-05
9.4288e-05
9.51276e-05
0.000245851
0.000248707
6.5075e-05
6.50489e-05
6.5183e-05
6.51566e-05
6.58066e-05
6.58e-05
8.97494e-05
9.01119e-05
0.000237731
0.000240123
6.51203e-05
6.50924e-05
6.51525e-05
6.51238e-05
6.60395e-05
6.60295e-05
7.94823e-05
7.98402e-05
0.000209801
0.000211374
6.49667e-05
6.49667e-05
6.53848e-05
6.54382e-05
6.54499e-05
6.54545e-05
6.54548e-05
6.54504e-05
6.54404e-05
6.53904e-05
6.49132e-05
6.49132e-05
6.48159e-05
6.48159e-05
6.55036e-05
6.55887e-05
6.56017e-05
6.56054e-05
6.56057e-05
6.56029e-05
6.5592e-05
6.55115e-05
6.47617e-05
6.47617e-05
6.60795e-05
6.60795e-05
6.7115e-05
6.72539e-05
6.72899e-05
6.73016e-05
6.73017e-05
6.72916e-05
6.72571e-05
6.71291e-05
6.60373e-05
6.60373e-05
7.08181e-05
7.08181e-05
7.89379e-05
8.0261e-05
8.04666e-05
8.05221e-05
8.05219e-05
8.0471e-05
8.02885e-05
7.90758e-05
7.09188e-05
7.09188e-05
0.00014373
0.00014373
0.000187648
0.000190544
0.000191314
0.000191554
0.000191561
0.000191352
0.000190653
0.000188037
0.000144362
0.000144362
)
;
    }
    lid
    {
        type            nutkWallFunction;
        Cmu             0.09;
        kappa           0.41;
        E               9.8;
        value           nonuniform List<scalar> 
100
(
0.0001989
0.000337336
0.000353745
0.00035463
0.000354416
0.000354368
0.00035449
0.000353714
0.000338763
0.000201186
0.00023162
0.000429335
0.000445343
0.000446085
0.000445897
0.000445862
0.000445993
0.000445412
0.000430833
0.000234347
0.000235304
0.000434687
0.000446925
0.00044713
0.000446904
0.00044689
0.000447102
0.000447104
0.000436218
0.000238039
0.000242406
0.000446943
0.000458745
0.000459406
0.000459372
0.000459369
0.00045942
0.000459
0.000448553
0.000245315
0.000245561
0.000450424
0.000462039
0.000462856
0.00046289
0.000462891
0.000462888
0.000462326
0.000452056
0.00024854
0.000246637
0.0004473
0.000458471
0.000459279
0.000459332
0.000459335
0.000459324
0.000458774
0.000448898
0.000249633
0.000245851
0.000435298
0.000445364
0.000446362
0.000446541
0.00044655
0.000446431
0.000445675
0.000436739
0.000248707
0.000237731
0.000403593
0.000411868
0.000412968
0.000413295
0.000413309
0.00041305
0.000412155
0.000404745
0.000240123
0.000209801
0.000340012
0.000346244
0.000347235
0.00034757
0.000347583
0.000347305
0.000346465
0.000340837
0.000211374
0.00014373
0.000187648
0.000190544
0.000191314
0.000191554
0.000191561
0.000191352
0.000190653
0.000188037
0.000144362
)
;
    }
}


// ************************************************************************* //
