/*--------------------------------*- C++ -*----------------------------------*\
| =========                 |                                                 |
| \\      /  F ield         | OpenFOAM: The Open Source CFD Toolbox           |
|  \\    /   O peration     | Version:  2.3.1                                 |
|   \\  /    A nd           | Web:      www.OpenFOAM.org                      |
|    \\/     M anipulation  |                                                 |
\*---------------------------------------------------------------------------*/
FoamFile
{
    version     2.0;
    format      ascii;
    class       surfaceScalarField;
    location    "0.91";
    object      phi;
}
// * * * * * * * * * * * * * * * * * * * * * * * * * * * * * * * * * * * * * //

dimensions      [0 3 -1 0 0 0 0];

internalField   nonuniform List<scalar> 
2700
(
2.45464e-06
5.24657e-05
-4.99959e-05
2.22493e-06
5.16023e-05
-5.13674e-05
1.34433e-06
5.20066e-05
-5.11231e-05
8.58178e-07
5.20537e-05
-5.1559e-05
2.16768e-07
5.22663e-05
-5.16229e-05
-3.37961e-07
5.22415e-05
-5.16792e-05
-7.05558e-07
5.20338e-05
-5.16638e-05
-7.51526e-07
5.16918e-05
-5.16382e-05
-4.50423e-07
5.13339e-05
-5.16318e-05
5.10893e-05
-5.15385e-05
8.0291e-07
0.000108226
-5.65678e-05
1.35204e-06
0.000108448
-5.73973e-05
1.38236e-06
0.000109461
-5.7484e-05
9.03549e-07
0.000110198
-5.76671e-05
1.87741e-07
0.00011072
-5.77338e-05
-5.26635e-07
0.000110721
-5.77677e-05
-9.94782e-07
0.000110241
-5.77347e-05
-9.77844e-07
0.000109365
-5.76937e-05
-4.51731e-07
0.000108397
-5.75903e-05
0.000107282
-5.66505e-05
1.52621e-06
0.000173541
-6.6843e-05
2.29674e-06
0.00017599
-6.8317e-05
2.21897e-06
0.000178044
-6.8511e-05
1.3771e-06
0.000179741
-6.86967e-05
1.91249e-07
0.000180706
-6.88013e-05
-9.88891e-07
0.000180734
-6.8826e-05
-1.81681e-06
0.000179835
-6.87676e-05
-1.8831e-06
0.000178113
-6.86832e-05
-1.12235e-06
0.000176149
-6.85215e-05
0.000173495
-6.73395e-05
2.08305e-06
0.000254357
-8.2896e-05
3.19938e-06
0.000258712
-8.38279e-05
3.15046e-06
0.000261873
-8.37614e-05
1.93771e-06
0.000264763
-8.37898e-05
2.01866e-07
0.000266317
-8.38468e-05
-1.5435e-06
0.00026637
-8.38678e-05
-2.78289e-06
0.000264938
-8.38416e-05
-2.90053e-06
0.000262107
-8.3865e-05
-1.88831e-06
0.000259086
-8.39361e-05
0.000254679
-8.30619e-05
8.40233e-06
-0.000122123
0.00036813
1.00114e-05
-0.00012473
0.000381895
8.4962e-06
-0.00012553
0.00038899
4.80587e-06
-0.000126082
0.000394614
3.18417e-07
-0.00012642
0.000397303
-4.16847e-06
-0.00012645
0.000397386
-7.87668e-06
-0.000126173
0.000394891
-9.45893e-06
-0.000125683
0.000389446
-8.01947e-06
-0.000124935
0.00038265
-0.000122376
0.000369096
7.3107e-07
4.61315e-05
-9.68593e-05
9.81526e-07
4.73272e-05
-9.89426e-05
9.82274e-07
4.7932e-05
-9.90521e-05
6.52404e-07
4.81915e-05
-9.94184e-05
1.58086e-07
4.84063e-05
-9.95295e-05
-3.46409e-07
4.83997e-05
-9.9574e-05
-7.06005e-07
4.82023e-05
-9.95006e-05
-8.3309e-07
4.78562e-05
-9.93652e-05
-6.65597e-07
4.74106e-05
-9.92057e-05
4.62426e-05
-9.84493e-05
7.59828e-07
9.64454e-05
-0.000107641
1.2293e-06
9.83059e-05
-0.000108849
1.25821e-06
9.94723e-05
-0.000109058
8.15034e-07
0.000100317
-0.000109346
1.57028e-07
0.000100824
-0.000109497
-5.12483e-07
0.000100837
-0.000109531
-9.86644e-07
0.000100371
-0.000109432
-1.08404e-06
9.9512e-05
-0.000109251
-7.37345e-07
9.84812e-05
-0.000109013
9.67067e-05
-0.000107857
1.65327e-06
0.000154703
-0.000126763
2.23696e-06
0.000157613
-0.000128212
2.09692e-06
0.000159702
-0.000128599
1.28467e-06
0.00016142
-0.000128988
1.72536e-07
0.000162361
-0.000129217
-9.50914e-07
0.000162389
-0.000129254
-1.7765e-06
0.000161522
-0.000129085
-1.99553e-06
0.000159832
-0.000128791
-1.46825e-06
0.000157858
-0.000128429
0.000154989
-0.000127096
3.07509e-06
0.000224463
-0.000155722
3.65169e-06
0.000230634
-0.00015741
3.25023e-06
0.000234148
-0.000157788
1.93268e-06
0.000237172
-0.000158195
1.88519e-07
0.000238742
-0.000158462
-1.56189e-06
0.000238799
-0.000158496
-2.91322e-06
0.000237345
-0.000158297
-3.38916e-06
0.000234419
-0.000157956
-2.91472e-06
0.000231071
-0.00015761
0.000224972
-0.000155946
8.20162e-06
-0.000218475
0.000312662
9.56774e-06
-0.00022112
0.000325722
8.00996e-06
-0.000222577
0.000332828
4.50019e-06
-0.00022389
0.000338564
2.94663e-07
-0.000224646
0.000341256
-3.91302e-06
-0.000224705
0.000341336
-7.43873e-06
-0.000224061
0.000338837
-9.05934e-06
-0.000222857
0.000333291
-7.86493e-06
-0.00022149
0.000326499
-0.00021892
0.000313712
1.08824e-06
3.72972e-05
-0.000135243
1.08564e-06
3.80156e-05
-0.000136957
8.89982e-07
3.8429e-05
-0.000137287
5.41322e-07
3.8659e-05
-0.000137727
1.27071e-07
3.88234e-05
-0.00013794
-2.82302e-07
3.88227e-05
-0.000137985
-5.8599e-07
3.86538e-05
-0.000137851
-7.17909e-07
3.83575e-05
-0.000137587
-6.29475e-07
3.79605e-05
-0.000137256
3.68887e-05
-0.000135971
9.28813e-07
7.68919e-05
-0.000148171
1.17031e-06
7.84489e-05
-0.000149527
1.08851e-06
7.9411e-05
-0.000149958
6.79442e-07
8.01345e-05
-0.000150415
1.30869e-07
8.05551e-05
-0.000150676
-4.2322e-07
8.05635e-05
-0.000150721
-8.26613e-07
8.01677e-05
-0.000150537
-9.5472e-07
7.94247e-05
-0.000150194
-7.29262e-07
7.85056e-05
-0.000149786
7.68159e-05
-0.00014852
1.58311e-06
0.000121832
-0.000173285
1.98272e-06
0.000124653
-0.000174815
1.77781e-06
0.000126513
-0.000175497
1.07352e-06
0.000128013
-0.000176149
1.38455e-07
0.000128813
-0.000176537
-7.95609e-07
0.000128841
-0.000176582
-1.51176e-06
0.000128087
-0.000176287
-1.76111e-06
0.000126622
-0.000175733
-1.40531e-06
0.000124825
-0.000175108
0.000121973
-0.00017366
2.99284e-06
0.000174771
-0.000211649
3.39331e-06
0.000180662
-0.000213799
2.90059e-06
0.000184004
-0.000214752
1.68536e-06
0.000186714
-0.000215656
1.56713e-07
0.000188103
-0.000216183
-1.38105e-06
0.000188145
-0.000216237
-2.61236e-06
0.000186858
-0.000215803
-3.15957e-06
0.000184233
-0.000214999
-2.84485e-06
0.000181033
-0.000214109
0.000175195
-0.000211999
7.35788e-06
-0.000283275
0.000232272
8.26423e-06
-0.000286737
0.000245443
6.76572e-06
-0.000289112
0.00025211
3.75759e-06
-0.000291244
0.000257164
2.3609e-07
-0.000292436
0.000259493
-3.2813e-06
-0.000292515
0.000259559
-6.29949e-06
-0.000291485
0.000257383
-7.83891e-06
-0.000289505
0.000252501
-7.08672e-06
-0.000287266
0.000246124
-0.000283906
0.000233155
5.41001e-07
2.47237e-05
-0.000160514
5.69026e-07
2.53048e-05
-0.000162292
5.04795e-07
2.55829e-05
-0.000162809
3.14779e-07
2.57644e-05
-0.000163303
7.96789e-08
2.58789e-05
-0.000163586
-1.56227e-07
2.58782e-05
-0.000163631
-3.36599e-07
2.57651e-05
-0.000163435
-4.27707e-07
2.5562e-05
-0.000163061
-3.93435e-07
2.5298e-05
-0.00016259
2.46426e-05
-0.000161013
5.23935e-07
5.1223e-05
-0.000175194
6.99457e-07
5.2321e-05
-0.000176723
6.60725e-07
5.29956e-05
-0.000177336
4.17013e-07
5.35183e-05
-0.000177922
8.39846e-08
5.38088e-05
-0.000178274
-2.48927e-07
5.38174e-05
-0.000178321
-4.99828e-07
5.35383e-05
-0.00017806
-5.76861e-07
5.302e-05
-0.000177572
-4.27864e-07
5.23689e-05
-0.000177012
5.12468e-05
-0.000175554
9.87602e-07
8.08052e-05
-0.000203861
1.2806e-06
8.28261e-05
-0.000205607
1.15021e-06
8.41933e-05
-0.000206551
6.90741e-07
8.52722e-05
-0.000207435
9.24839e-08
8.58476e-05
-0.000207957
-5.12366e-07
8.58612e-05
-0.000208013
-9.77899e-07
8.53259e-05
-0.00020759
-1.14596e-06
8.42695e-05
-0.000206813
-8.9257e-07
8.29527e-05
-0.000205936
8.09368e-05
-0.000204242
2.06833e-06
0.000114802
-0.000247689
2.40007e-06
0.000119061
-0.000250335
2.02362e-06
0.000121678
-0.000251833
1.1659e-06
0.000123709
-0.000253186
1.01891e-07
0.000124731
-0.000253969
-9.59402e-07
0.000124764
-0.000254029
-1.83523e-06
0.000123801
-0.000253373
-2.24058e-06
0.000121845
-0.000252129
-1.97313e-06
0.000119326
-0.000250727
0.000115111
-0.000248126
5.17155e-06
-0.000319242
0.000145651
5.78976e-06
-0.000323794
0.000155569
4.67678e-06
-0.000326977
0.000160744
2.56784e-06
-0.000329741
0.000164401
1.55685e-07
-0.000331263
0.00016607
-2.25556e-06
-0.00033136
0.000166106
-4.36553e-06
-0.000330019
0.00016454
-5.50684e-06
-0.00032744
0.000161003
-4.9972e-06
-0.000324423
0.000156042
-0.000319972
0.000146229
1.29962e-07
1.06915e-05
-0.000171338
8.48518e-08
1.09022e-05
-0.000173159
5.81621e-08
1.10043e-05
-0.000173793
3.85586e-08
1.10677e-05
-0.000174358
3.37481e-08
1.11068e-05
-0.000174694
3.07993e-08
1.11057e-05
-0.000174738
1.68292e-08
1.10627e-05
-0.000174489
-1.70405e-08
1.0989e-05
-0.000174018
-5.59561e-08
1.08842e-05
-0.000173445
1.06391e-05
-0.000171714
1.10934e-07
2.24046e-05
-0.000187028
1.2217e-07
2.28476e-05
-0.000188681
1.09982e-07
2.31322e-05
-0.000189452
7.25147e-08
2.33439e-05
-0.000190161
3.66908e-08
2.34614e-05
-0.000190588
-2.51513e-09
2.34606e-05
-0.000190638
-3.68768e-08
2.3347e-05
-0.000190303
-6.5713e-08
2.31289e-05
-0.000189688
-6.22003e-08
2.28497e-05
-0.000188979
2.23916e-05
-0.000187374
3.04492e-07
3.59515e-05
-0.0002177
3.62919e-07
3.68673e-05
-0.000219679
3.05688e-07
3.75278e-05
-0.000220883
1.82626e-07
3.80323e-05
-0.00022198
3.60495e-08
3.82906e-05
-0.000222629
-1.06296e-07
3.82981e-05
-0.000222683
-2.37129e-07
3.80442e-05
-0.00022215
-3.05706e-07
3.75536e-05
-0.000221153
-2.63544e-07
3.69055e-05
-0.000220033
3.59911e-05
-0.000218098
8.21005e-07
5.18798e-05
-0.000264428
9.08735e-07
5.40117e-05
-0.000267538
7.22273e-07
5.54598e-05
-0.000269537
3.99108e-07
5.65129e-05
-0.000271305
4.27803e-08
5.70403e-05
-0.000272306
-3.21552e-07
5.7047e-05
-0.000272379
-6.44388e-07
5.65541e-05
-0.000271509
-8.47479e-07
5.5524e-05
-0.000269875
-7.81675e-07
5.41279e-05
-0.000267982
5.20173e-05
-0.000264921
2.40147e-06
-0.000334321
6.46122e-05
2.60027e-06
-0.000339715
6.98012e-05
1.9993e-06
-0.000343569
7.27272e-05
1.0637e-06
-0.000346834
7.46424e-05
5.8779e-08
-0.000348622
7.5488e-05
-9.37569e-07
-0.000348718
7.5504e-05
-1.87704e-06
-0.000347137
7.46853e-05
-2.48107e-06
-0.000344063
7.28343e-05
-2.33022e-06
-0.000340397
7.00131e-05
-0.000335101
6.48479e-05
-3.48556e-07
-4.35959e-06
-0.000166648
-5.06047e-07
-4.56514e-06
-0.000168444
-4.7425e-07
-4.68099e-06
-0.000169156
-2.87183e-07
-4.78282e-06
-0.000169771
-9.11369e-09
-4.84097e-06
-0.000170139
2.70438e-07
-4.84647e-06
-0.000170182
4.66286e-07
-4.79593e-06
-0.000169893
5.03704e-07
-4.7077e-06
-0.000169358
3.59254e-07
-4.60087e-06
-0.000168705
-4.40997e-06
-0.000166955
-3.93974e-07
-8.29757e-06
-0.000182695
-5.93013e-07
-8.61237e-06
-0.000184444
-5.63155e-07
-8.82055e-06
-0.000185348
-3.38919e-07
-9.01013e-06
-0.000186159
-1.19194e-08
-9.1191e-06
-0.000186643
3.19982e-07
-9.12532e-06
-0.000186688
5.47004e-07
-9.03595e-06
-0.000186299
5.83961e-07
-8.86053e-06
-0.000185571
3.95543e-07
-8.67063e-06
-0.000184734
-8.3675e-06
-0.000183023
-5.50173e-07
-1.11458e-05
-0.000214313
-7.91418e-07
-1.15061e-05
-0.000216541
-7.42591e-07
-1.17441e-05
-0.000218
-4.45431e-07
-1.19827e-05
-0.0002193
-1.78151e-08
-1.21126e-05
-0.000220047
4.07045e-07
-1.2126e-05
-0.000220106
7.12824e-07
-1.20091e-05
-0.000219465
7.62865e-07
-1.17977e-05
-0.000218275
5.38589e-07
-1.15741e-05
-0.000216898
-1.12207e-05
-0.00021471
-7.72911e-07
-1.16399e-05
-0.000263141
-1.04757e-06
-1.19063e-05
-0.000266847
-9.72703e-07
-1.19515e-05
-0.000269389
-5.75856e-07
-1.20746e-05
-0.000271572
-3.25496e-08
-1.21544e-05
-0.000272786
5.22772e-07
-1.216e-05
-0.000272854
9.15233e-07
-1.21053e-05
-0.000271793
1.00246e-06
-1.19923e-05
-0.000269742
7.50363e-07
-1.19631e-05
-0.000267333
-1.17017e-05
-0.000263683
-8.60322e-07
-0.000332407
-1.26724e-05
-1.1865e-06
-0.000338796
-1.24595e-05
-1.1422e-06
-0.00034336
-1.21414e-05
-6.92145e-07
-0.000347167
-1.21338e-05
-3.49889e-08
-0.000349198
-1.21536e-05
6.11617e-07
-0.000349301
-1.2169e-05
1.07248e-06
-0.00034747
-1.21657e-05
1.12486e-06
-0.000343873
-1.21882e-05
8.26339e-07
-0.000339512
-1.25139e-05
-0.000333221
-1.274e-05
-8.57253e-07
-1.98306e-05
-0.000145968
-1.16298e-06
-2.05463e-05
-0.000147611
-1.06397e-06
-2.09347e-05
-0.000148335
-6.46895e-07
-2.12491e-05
-0.000148953
-5.15696e-08
-2.14292e-05
-0.000149323
5.50675e-07
-2.14366e-05
-0.000149357
9.79228e-07
-2.12785e-05
-0.000149062
1.1007e-06
-2.09801e-05
-0.000148506
8.28198e-07
-2.06144e-05
-0.000147839
-1.99086e-05
-0.000146226
-1.01341e-06
-4.00937e-05
-0.000161444
-1.44326e-06
-4.13167e-05
-0.000163254
-1.34174e-06
-4.21441e-05
-0.000164252
-8.10971e-07
-4.2839e-05
-0.000165115
-5.71946e-08
-4.3218e-05
-0.000165615
6.97314e-07
-4.3239e-05
-0.00016566
1.24501e-06
-4.28913e-05
-0.000165236
1.36445e-06
-4.22391e-05
-0.000164454
9.72368e-07
-4.14473e-05
-0.000163518
-4.02381e-05
-0.000161735
-1.63238e-06
-6.00202e-05
-0.00019275
-2.20527e-06
-6.19536e-05
-0.000195349
-1.99421e-06
-6.32991e-05
-0.000197074
-1.17594e-06
-6.44289e-05
-0.000198534
-7.79609e-08
-6.50308e-05
-0.000199353
1.03163e-06
-6.50523e-05
-0.000199401
1.85477e-06
-6.45124e-05
-0.000198695
2.09482e-06
-6.34318e-05
-0.000197328
1.57111e-06
-6.21521e-05
-0.0001957
-6.02417e-05
-0.00019314
-2.86847e-06
-7.74578e-05
-0.000242865
-3.54915e-06
-8.05342e-05
-0.000247597
-3.07838e-06
-8.23714e-05
-0.00025079
-1.77176e-06
-8.39237e-05
-0.000253398
-9.99098e-08
-8.47006e-05
-0.000254778
1.56406e-06
-8.47366e-05
-0.000254852
2.88861e-06
-8.40161e-05
-0.000253605
3.37645e-06
-8.25421e-05
-0.000251152
2.77671e-06
-8.07864e-05
-0.000248099
-7.77397e-05
-0.000243427
-4.79592e-06
-0.000314664
-9.04042e-05
-5.67556e-06
-0.000323609
-9.48417e-05
-4.8088e-06
-0.000329407
-9.71913e-05
-2.6986e-06
-0.000333953
-9.92207e-05
-1.43172e-07
-0.000336259
-0.00010019
2.41923e-06
-0.000336346
-0.000100221
4.52354e-06
-0.000334253
-9.93456e-05
5.42261e-06
-0.000329909
-9.73848e-05
4.65112e-06
-0.00032437
-9.51618e-05
-0.000315532
-9.0788e-05
-1.38065e-06
-3.50276e-05
-0.000109589
-1.83706e-06
-3.64083e-05
-0.000110763
-1.66603e-06
-3.71522e-05
-0.000111372
-1.01075e-06
-3.77375e-05
-0.000111894
-8.59126e-08
-3.80588e-05
-0.000112203
8.40528e-07
-3.8076e-05
-0.000112233
1.52005e-06
-3.7779e-05
-0.000111972
1.72025e-06
-3.72285e-05
-0.000111504
1.31853e-06
-3.6515e-05
-0.000110935
-3.51423e-05
-0.00010978
-1.76783e-06
-7.18323e-05
-0.000122878
-2.40538e-06
-7.42499e-05
-0.000124802
-2.18516e-06
-7.58783e-05
-0.000125772
-1.30572e-06
-7.72004e-05
-0.000126551
-1.01494e-07
-7.7911e-05
-0.000127001
1.11491e-06
-7.7936e-05
-0.00012703
2.00786e-06
-7.72937e-05
-0.000126651
2.26686e-06
-7.60288e-05
-0.000125929
1.69074e-06
-7.44733e-05
-0.00012502
-7.20805e-05
-0.000123117
-3.08272e-06
-0.000110486
-0.000151061
-3.91815e-06
-0.000114618
-0.000154176
-3.42566e-06
-0.000117457
-0.000156018
-1.99167e-06
-0.000119754
-0.000157461
-1.26295e-07
-0.000120923
-0.00015823
1.73287e-06
-0.000120971
-0.000158277
3.19278e-06
-0.000119884
-0.000157584
3.71459e-06
-0.000117698
-0.00015624
2.97127e-06
-0.000114969
-0.000154484
-0.000110882
-0.000151398
-5.80288e-06
-0.000148249
-0.000199314
-6.75901e-06
-0.000155659
-0.000205652
-5.63778e-06
-0.000160021
-0.000209404
-3.15595e-06
-0.000163477
-0.000212191
-1.75905e-07
-0.000165148
-0.000213595
2.81407e-06
-0.000165194
-0.000213644
5.29e-06
-0.000163658
-0.00021238
6.45275e-06
-0.000160321
-0.000209718
5.63472e-06
-0.000156165
-0.000206147
-0.000148828
-0.000199869
-1.04576e-05
-0.000273506
-0.00017903
-1.14831e-05
-0.000287387
-0.000190904
-9.23299e-06
-0.00029479
-0.000196929
-5.01471e-06
-0.000299997
-0.000201712
-2.33359e-07
-0.000302395
-0.000203823
4.52245e-06
-0.000302477
-0.000203889
8.73966e-06
-0.000300242
-0.000201913
1.09886e-05
-0.000295256
-0.00019729
1.01854e-05
-0.000288197
-0.000191563
-0.00027441
-0.000179808
-1.74529e-06
-4.848e-05
-5.93755e-05
-2.38763e-06
-5.03274e-05
-5.98172e-05
-2.17888e-06
-5.14355e-05
-6.01704e-05
-1.31702e-06
-5.23044e-05
-6.04722e-05
-1.1578e-07
-5.27779e-05
-6.06572e-05
1.09846e-06
-5.2794e-05
-6.06693e-05
1.97854e-06
-5.23663e-05
-6.05173e-05
2.23309e-06
-5.15349e-05
-6.02401e-05
1.66013e-06
-5.04773e-05
-5.99139e-05
-4.86451e-05
-5.94863e-05
-2.36609e-06
-0.000101031
-6.80012e-05
-3.25328e-06
-0.000104573
-6.96973e-05
-2.946e-06
-0.000107122
-7.04229e-05
-1.75203e-06
-0.000109158
-7.09342e-05
-1.30275e-07
-0.000110211
-7.12155e-05
1.491e-06
-0.000110255
-7.12363e-05
2.71321e-06
-0.000109277
-7.09863e-05
3.05854e-06
-0.00010734
-7.05191e-05
2.25764e-06
-0.00010489
-6.98311e-05
-0.000101386
-6.81432e-05
-4.51076e-06
-0.000159975
-8.76227e-05
-5.64714e-06
-0.000166883
-9.07832e-05
-4.8515e-06
-0.000171668
-9.23294e-05
-2.76943e-06
-0.000175379
-9.33668e-05
-1.74095e-07
-0.000177214
-9.3894e-05
2.43483e-06
-0.000177264
-9.39119e-05
4.51933e-06
-0.000175577
-9.34475e-05
5.36771e-06
-0.000172004
-9.2461e-05
4.35356e-06
-0.000167426
-9.09989e-05
-0.000160597
-8.78574e-05
-9.30959e-06
-0.000225094
-0.000124981
-1.04408e-05
-0.00023936
-0.000132119
-8.41923e-06
-0.000247551
-0.000135617
-4.60261e-06
-0.00025368
-0.000137806
-2.27209e-07
-0.000256457
-0.000138786
4.11911e-06
-0.00025654
-0.000138827
7.94358e-06
-0.000253928
-0.000137906
9.97354e-06
-0.000248022
-0.000135835
9.05836e-06
-0.000240207
-0.000132499
-0.000226068
-0.000125398
-1.86396e-05
-0.000193095
-0.000286936
-1.898e-05
-0.000212911
-0.000313593
-1.44219e-05
-0.000220992
-0.000326015
-7.49919e-06
-0.000225449
-0.000335237
-3.20103e-07
-0.000227176
-0.000338981
6.84044e-06
-0.0002272
-0.000339058
1.36913e-05
-0.000225599
-0.00033555
1.8211e-05
-0.000221296
-0.000326568
1.82232e-05
-0.000213698
-0.000314814
-0.000193937
-0.000288365
-1.80355e-06
-5.75909e-05
-2.62728e-06
-5.901e-05
-2.44822e-06
-6.03661e-05
-1.48497e-06
-6.14576e-05
-1.2671e-07
-6.20306e-05
1.23538e-06
-6.20541e-05
2.22612e-06
-6.15225e-05
2.4479e-06
-6.04853e-05
1.70405e-06
-5.91848e-05
-5.77923e-05
-2.67993e-06
-0.000122924
-3.77709e-06
-0.000127636
-3.43529e-06
-0.000131162
-2.02384e-06
-0.000133828
-1.49033e-07
-0.000135156
1.73546e-06
-0.000135196
3.16199e-06
-0.000133974
3.55225e-06
-0.000131418
2.55198e-06
-0.000128047
-0.000123395
-5.87688e-06
-0.000204719
-7.10723e-06
-0.000217233
-5.94218e-06
-0.0002247
-3.3242e-06
-0.00022987
-1.90287e-07
-0.00023222
2.92947e-06
-0.000232291
5.55946e-06
-0.000230086
6.75265e-06
-0.00022513
5.68123e-06
-0.000218004
-0.000205598
-1.39702e-05
-0.000315766
-1.43794e-05
-0.000349012
-1.09014e-05
-0.000363872
-5.69702e-06
-0.000372938
-2.66614e-07
-0.000376526
5.152e-06
-0.000376588
1.02936e-05
-0.000373226
1.37357e-05
-0.000364451
1.3637e-05
-0.000350474
-0.00031738
-3.4736e-05
-0.000474222
-3.00202e-05
-0.000566723
-1.98977e-05
-0.000595067
-9.55533e-06
-0.000608843
-3.44579e-07
-0.000612984
8.77387e-06
-0.000613032
1.89452e-05
-0.000609055
2.88338e-05
-0.000595742
3.41348e-05
-0.00056952
-0.000477212
-8.98605e-05
-0.000717783
0.000333331
-6.56435e-05
-0.000979596
0.000388534
-3.48791e-05
-0.00103315
0.00040716
-1.49483e-05
-0.00104517
0.000416271
-4.27775e-07
-0.00104682
0.00041914
1.39693e-05
-0.00104672
0.000419182
3.33347e-05
-0.00104503
0.000416446
6.33158e-05
-0.00103352
0.000407699
8.86497e-05
-0.000985237
0.000390292
-0.000723904
0.000335308
-0.000191951
-0.00106587
0.000539843
-0.000128816
-0.00168226
0.000639453
-5.59401e-05
-0.00177875
0.000672633
-2.13059e-05
-0.00176809
0.000688168
-4.61424e-07
-0.00175976
0.000692009
2.00709e-05
-0.00175937
0.000692
5.34563e-05
-0.00176681
0.000688314
0.000124625
-0.00177805
0.000673278
0.000189791
-0.0016924
0.000642028
-0.00107713
0.000542934
-0.000408412
-0.00149898
0.000841589
-0.000220281
-0.00283526
0.000964791
-6.82918e-05
-0.00296261
0.00103188
-1.9111e-05
-0.00288696
0.00106968
-1.72806e-07
-0.00285752
0.0010788
1.82993e-05
-0.00285671
0.00107887
6.51227e-05
-0.00288387
0.0010702
0.000213707
-0.00296002
0.00103353
0.000403663
-0.00285053
0.00096807
-0.00152073
0.000847291
-0.000381074
-0.00212342
0.00100536
-0.000152867
-0.00377619
0.000712661
-4.16376e-05
-0.00387681
0.000802886
-8.42257e-06
-0.00379334
0.000873077
-7.96823e-08
-0.00376142
0.000895464
8.00024e-06
-0.00376062
0.000895723
4.00524e-05
-0.00379041
0.000874456
0.000148939
-0.00387427
0.000805245
0.00037644
-0.00378975
0.000711754
-0.00215002
0.00100567
0.000347307
-0.00247082
0.000180605
-0.00360963
5.58783e-05
-0.00375225
1.51855e-05
-0.00375282
9.64889e-08
-0.0037465
-1.45733e-05
-0.00374615
-5.33196e-05
-0.00375181
-0.000175073
-0.00375265
-0.000342719
-0.00362222
-0.00249279
-3.7677e-05
-0.000297489
0.000381465
-3.2981e-05
-0.00034482
0.000415009
-2.24224e-05
-0.000358565
0.000429099
-1.07946e-05
-0.000369117
0.000438451
-3.71104e-07
-0.000372579
0.000442257
9.97301e-06
-0.000372639
0.000442345
2.14251e-05
-0.000369396
0.000438794
3.18033e-05
-0.000359049
0.000429757
3.70337e-05
-0.000346252
0.000416459
-0.000299152
0.000383089
-6.55406e-05
-0.000241008
0.000548853
-5.81856e-05
-0.000320325
0.00060755
-3.85672e-05
-0.000336736
0.000631149
-1.82184e-05
-0.000348155
0.000646809
-5.81129e-07
-0.000351001
0.000652737
1.69335e-05
-0.00035104
0.000652851
3.69557e-05
-0.000348389
0.000647248
5.63241e-05
-0.000337182
0.000632034
6.43474e-05
-0.000321985
0.000609686
-0.000243265
0.000551372
-5.27472e-05
2.87514e-05
0.000624403
-5.49955e-05
-9.55685e-05
0.000742295
-3.00562e-05
-0.000101624
0.000771802
-1.29241e-05
-8.57675e-05
0.000790124
-3.19005e-07
-7.99811e-05
0.000795147
1.21598e-05
-7.9896e-05
0.000795205
2.88523e-05
-8.53375e-05
0.000790463
5.38136e-05
-0.000101286
0.000772624
5.14976e-05
-9.66628e-05
0.000745093
2.72683e-05
0.000628168
-6.78896e-05
0.000160812
0.000941138
-6.63801e-05
-0.000318565
0.000934128
-4.53595e-05
-0.000314288
0.000994516
-2.29316e-05
-0.000270773
0.00103565
-9.09826e-07
-0.000255678
0.00104911
2.10911e-05
-0.000255469
0.00104929
4.38347e-05
-0.000270059
0.00103641
6.59986e-05
-0.00031398
0.000995828
6.65901e-05
-0.000320994
0.000935446
0.000154657
0.000944797
0.000242147
-0.00255222
0.000135488
-0.00382159
4.5887e-05
-0.00397699
1.29295e-05
-0.0039907
1.01856e-07
-0.00398942
-1.23503e-05
-0.00398922
-4.38862e-05
-0.00399039
-0.000131693
-0.00397886
-0.000239401
-0.00383557
-0.00257758
-1.82857e-05
-0.000173227
0.000393926
-1.70584e-05
-0.000189688
0.000412577
-1.25883e-05
-0.000194183
0.000421891
-6.40187e-06
-0.000198236
0.000428821
-2.61394e-07
-0.000199713
0.000432017
5.85342e-06
-0.000199747
0.000432124
1.19789e-05
-0.000198403
0.000429167
1.64084e-05
-0.000194439
0.000422507
1.79326e-05
-0.000190271
0.00041366
-0.000173927
0.000395128
-3.24309e-05
-0.000141075
0.000549087
-3.02146e-05
-0.000162528
0.000578221
-2.23279e-05
-0.000165172
0.000594306
-1.13221e-05
-0.000168815
0.000606427
-4.48112e-07
-0.000169688
0.000611897
1.03721e-05
-0.00016973
0.000612057
2.12902e-05
-0.00016898
0.000606969
2.91177e-05
-0.000165449
0.000595272
3.17478e-05
-0.000163104
0.000579923
-0.000141922
0.000551094
-2.48073e-05
1.82931e-05
0.000489842
-1.90705e-05
3.48791e-05
0.000539163
-1.12189e-05
4.64735e-05
0.000552329
-5.22592e-06
5.34598e-05
0.000561886
-1.63818e-07
5.53921e-05
0.000565021
4.8692e-06
5.53887e-05
0.000565083
1.06804e-05
5.35054e-05
0.000562183
1.83574e-05
4.66701e-05
0.000552885
2.42123e-05
3.54323e-05
0.000540672
1.8821e-05
0.000491591
-6.67006e-05
0.000315179
0.000710841
-5.18885e-05
0.000294774
0.000659371
-3.43326e-05
0.00033666
0.000686717
-1.73048e-05
0.000359721
0.000712282
-7.82666e-07
0.000366117
0.00072179
1.5678e-05
0.000366106
0.000722039
3.26379e-05
0.000359752
0.000713159
5.03771e-05
0.000336609
0.000688086
6.52537e-05
0.000295497
0.000660419
0.000316265
0.000712528
8.41127e-05
-0.00232122
4.47693e-05
-0.00348751
1.37639e-05
-0.00360936
3.11852e-06
-0.00362037
2.27176e-08
-0.00362024
-2.93544e-06
-0.0036202
-1.30972e-05
-0.00362051
-4.36316e-05
-0.00361174
-8.31457e-05
-0.0035006
-0.0023445
-7.18876e-06
-8.33946e-05
0.000394133
-7.22592e-06
-8.80805e-05
0.000405912
-5.76454e-06
-8.89098e-05
0.000412238
-3.10147e-06
-9.02235e-05
0.000417241
-1.44749e-07
-9.077e-05
0.000419744
2.79494e-06
-9.08043e-05
0.000419846
5.4575e-06
-9.03157e-05
0.000417565
6.92218e-06
-8.90516e-05
0.000412789
7.02308e-06
-8.83127e-05
0.000406754
-8.36617e-05
0.000395055
-1.27993e-05
-6.93267e-05
0.000547852
-1.30628e-05
-7.7987e-05
0.00056849
-1.06361e-05
-7.90217e-05
0.000582095
-5.74945e-06
-8.11277e-05
0.000592566
-2.81596e-07
-8.18533e-05
0.000597617
5.17705e-06
-8.18849e-05
0.000597793
1.00615e-05
-8.12729e-05
0.000593145
1.2514e-05
-7.92275e-05
0.00058309
1.2446e-05
-7.83159e-05
0.000570097
-6.98573e-05
0.00054974
-5.43419e-06
-3.20475e-05
0.00045796
-4.40729e-06
-1.87071e-05
0.00047893
-3.49015e-06
-1.29564e-05
0.000485424
-1.94635e-06
-1.18062e-05
0.000491074
-8.75211e-08
-1.20418e-05
0.000493408
1.77245e-06
-1.20977e-05
0.000493488
3.29758e-06
-1.19074e-05
0.000491358
4.19144e-06
-1.30384e-05
0.000485888
5.23791e-06
-1.84826e-05
0.000479809
-3.19498e-05
0.000458889
-3.04985e-05
7.12427e-05
0.000637997
-2.74119e-05
4.93452e-05
0.000588191
-2.08141e-05
5.86535e-05
0.000608469
-1.09148e-05
6.23705e-05
0.000628151
-5.67971e-07
6.31052e-05
0.000636229
9.73436e-06
6.30922e-05
0.000636485
1.9648e-05
6.22771e-05
0.000629011
2.64416e-05
5.84473e-05
0.000609775
2.9383e-05
4.93198e-05
0.000589611
7.0573e-05
0.000639302
1.77457e-05
-0.00226784
7.2189e-06
-0.00342767
3.86541e-07
-0.00354391
-8.47373e-07
-0.00355682
5.22154e-09
-0.00355806
9.02409e-07
-0.00355808
-2.29985e-07
-0.00355715
-6.9894e-06
-0.00354655
-1.75274e-05
-0.00344079
-0.00229154
-6.06339e-07
-1.99407e-06
0.000384124
-8.28979e-07
1.7428e-07
0.000393612
-9.12406e-07
1.90366e-06
0.000398395
-5.8274e-07
2.68173e-06
0.000402241
-4.09451e-08
2.94826e-06
0.000404229
5.01553e-07
2.94535e-06
0.000404322
8.44441e-07
2.65055e-06
0.000402533
7.606e-07
1.91438e-06
0.000398878
5.72684e-07
2.11502e-07
0.000394328
-1.97205e-06
0.000384902
1.88819e-06
-1.45533e-05
0.000558574
8.85982e-07
-8.52537e-06
0.000578338
-5.50294e-07
-5.09688e-06
0.000590693
-6.89725e-07
-4.86919e-06
0.000600406
-9.81097e-08
-5.07603e-06
0.000605202
5.14879e-07
-5.12198e-06
0.000605406
4.19864e-07
-5.00367e-06
0.000601038
-9.18391e-07
-5.27061e-06
0.000591784
-1.97486e-06
-8.50535e-06
0.000579975
-1.47142e-05
0.000560542
4.99743e-06
-1.19854e-05
0.000450473
3.62251e-06
3.39352e-06
0.000468463
1.59537e-06
8.00442e-06
0.000474456
5.22713e-07
8.27508e-06
0.000479086
-3.86249e-10
7.98114e-06
0.000480957
-5.13388e-07
7.93896e-06
0.000481014
-1.53556e-06
8.16348e-06
0.000479317
-3.5703e-06
7.89423e-06
0.000474852
-4.98958e-06
3.54417e-06
0.000469207
-1.20745e-05
0.000451252
2.53576e-05
-5.3266e-05
0.000653734
1.08472e-05
-4.38646e-05
0.000649969
1.66108e-07
-4.555e-05
0.000672678
-2.1449e-06
-5.14419e-05
0.000690129
-2.90469e-07
-5.41178e-05
0.000696402
1.60619e-06
-5.41685e-05
0.000696641
-4.05115e-07
-5.17361e-05
0.000690866
-1.07789e-05
-4.59783e-05
0.000674001
-2.58456e-05
-4.40164e-05
0.000652195
-5.44119e-05
0.000655667
-4.81641e-06
-0.00231636
-5.99453e-06
-0.00347045
-4.22754e-06
-0.00359131
-2.17909e-06
-0.00361041
-8.51835e-09
-0.00361443
2.16048e-06
-0.00361452
4.20123e-06
-0.00361101
5.95031e-06
-0.00359432
4.89852e-06
-0.00348387
-0.00234117
4.24003e-06
8.39414e-05
0.000360634
3.94049e-06
9.51284e-05
0.000368712
2.77663e-06
0.000100488
0.000371946
1.38108e-06
0.0001037
0.000374725
5.57282e-08
0.000105008
0.000376189
-1.26457e-06
0.000105024
0.000376274
-2.64747e-06
0.000103779
0.000374977
-3.81157e-06
0.000100665
0.000372352
-4.17389e-06
9.55297e-05
0.00036929
8.43878e-05
0.000361263
1.68659e-05
5.04798e-05
0.000575312
1.37989e-05
8.2501e-05
0.000594175
8.83402e-06
9.06654e-05
0.000605653
4.09214e-06
9.39663e-05
0.000615054
1.14144e-07
9.46179e-05
0.000619751
-3.83468e-06
9.46049e-05
0.000619956
-8.49809e-06
9.39576e-05
0.000615703
-1.33603e-05
9.07306e-05
0.000606743
-1.66357e-05
8.3085e-05
0.000595822
5.09127e-05
0.000577465
1.5082e-05
5.03827e-05
0.000435442
1.09241e-05
0.000104022
0.000451221
5.98029e-06
0.000116572
0.00045358
2.5055e-06
0.000120182
0.000456434
7.31668e-08
0.000120542
0.000457543
-2.33415e-06
0.000120513
0.000457608
-5.72971e-06
0.000120099
0.000456645
-1.06085e-05
0.000116637
0.000453905
-1.49529e-05
0.000104923
0.000451741
5.10892e-05
0.000436141
0.000107115
-0.000172381
0.000769358
5.96317e-05
-4.68869e-05
0.000848292
2.2396e-05
-4.40055e-05
0.000870451
7.35331e-06
-6.24187e-05
0.000887692
4.65113e-08
-7.02968e-05
0.000894456
-7.15199e-06
-7.05004e-05
0.00089472
-2.15455e-05
-6.32021e-05
0.000888503
-5.81094e-05
-4.48746e-05
0.000872011
-0.000106577
-4.56887e-05
0.000851236
-0.000173383
0.000773354
-3.11959e-05
-0.00245767
-2.30197e-05
-0.00352563
-1.17173e-05
-0.00364678
-4.99549e-06
-0.00367971
-6.85912e-08
-0.00368977
4.82887e-06
-0.00369
1.1363e-05
-0.00368087
2.25094e-05
-0.00365043
3.10697e-05
-0.00353837
-0.00248351
7.84452e-06
0.000185607
0.000312941
7.3524e-06
0.000205639
0.000319264
5.46893e-06
0.000213985
0.000320728
2.84809e-06
0.000219622
0.000322277
1.41225e-07
0.000222007
0.000323115
-2.56178e-06
0.000222063
0.000323179
-5.17587e-06
0.00021983
0.000322469
-7.08202e-06
0.000214375
0.000321014
-7.68771e-06
0.000206418
0.000319655
0.000186559
0.000313353
3.19359e-05
0.000156863
0.000572238
2.67152e-05
0.000221809
0.000583385
1.81605e-05
0.000236631
0.000591725
8.81257e-06
0.000244814
0.000599392
3.19849e-07
0.000247142
0.000603296
-8.11277e-06
0.000247175
0.000603482
-1.7346e-05
0.000244959
0.000599967
-2.57811e-05
0.00023705
0.000592674
-3.13015e-05
0.000223113
0.00058476
0.000158674
0.000574206
2.25218e-05
0.000182925
0.000386934
1.59967e-05
0.000283432
0.000396161
9.04087e-06
0.000304162
0.000393086
3.95859e-06
0.000313342
0.00039305
1.51901e-07
0.000315441
0.000393125
-3.63283e-06
0.000315431
0.000393172
-8.60226e-06
0.000313454
0.000393198
-1.55194e-05
0.000304613
0.000393203
-2.21578e-05
0.000285416
0.000396246
0.000185552
0.000387016
0.000199031
-0.000236692
0.000989835
0.000119612
0.000121725
0.00108932
5.27896e-05
0.000136159
0.00110513
2.01267e-05
0.000116831
0.00111673
4.49468e-07
0.000107671
0.00112173
-1.89468e-05
0.000107449
0.00112196
-5.06341e-05
0.00011593
0.00111749
-0.000116108
0.000135694
0.00110643
-0.000196163
0.00012447
0.00109189
-0.000232927
0.000995621
-7.2509e-05
-0.00262198
-5.13043e-05
-0.00342525
-2.63054e-05
-0.00353577
-1.06198e-05
-0.00357873
-1.64784e-07
-0.00359271
1.01437e-05
-0.00359303
2.53515e-05
-0.00358019
4.98901e-05
-0.00353951
7.14216e-05
-0.00343551
-0.00264503
9.83038e-06
0.00030136
0.000234142
9.149e-06
0.000327391