/*--------------------------------*- C++ -*----------------------------------*\
| =========                 |                                                 |
| \\      /  F ield         | OpenFOAM: The Open Source CFD Toolbox           |
|  \\    /   O peration     | Version:  2.3.1                                 |
|   \\  /    A nd           | Web:      www.OpenFOAM.org                      |
|    \\/     M anipulation  |                                                 |
\*---------------------------------------------------------------------------*/
FoamFile
{
    version     2.0;
    format      ascii;
    class       volSymmTensorField;
    location    "4680";
    object      sigma;
}
// * * * * * * * * * * * * * * * * * * * * * * * * * * * * * * * * * * * * * //

dimensions      [1 -1 -2 0 0 0 0];

internalField   nonuniform List<symmTensor> 
11800
(
(157572 77094.9 7.58111e-14 -2848.22 4.01499e-14 38390)
(-77823.5 67522.7 1.16379e-13 -140.31 3.68975e-14 -19344.4)
(716048 99404 -1.94026e-15 1523.56 -8.39912e-14 178044)
(-621246 50101.1 0 -1896.43 0 -154614)
(-80706 65188.7 2.1713e-14 -4776.58 -6.13347e-14 -21210)
(-388548 102482 8.40999e-14 2142.06 4.41058e-14 -95875.2)
(-72187.8 98282.7 1.59255e-13 -639.374 -4.14055e-14 -18069.9)
(-101808 102440 -2.37053e-14 837.422 9.53509e-14 -25052.7)
(219576 50481 3.14669e-14 476.703 -2.14788e-14 54599.5)
(150769 107751 -8.15099e-14 668.562 -6.8644e-14 37574.7)
(181874 63191 -6.32418e-14 2033.39 5.4125e-14 45631.1)
(-901135 35919 -7.54678e-14 -6620.59 -3.42327e-14 -225233)
(24994.2 -36304.2 1.35515e-16 -67357.8 1.0531e-16 -10511.3)
(663203 50545.4 6.84015e-14 4008.24 -1.87112e-14 165549)
(-529677 96064.9 -5.712e-14 6478.28 4.43958e-14 -129816)
(2.43891e+06 -9647.25 0 -8171.21 0 603115)
(-47128.8 76474.3 5.3893e-14 4548.24 4.75114e-15 -10565.1)
(-72787.9 70537.9 -3.03976e-14 8906.96 1.74532e-13 -15850.2)
(152104 120531 -3.08713e-14 -19766.1 2.19341e-14 32835.6)
(114920 64084.4 -1.08476e-13 -12744.7 -3.5082e-14 25351.7)
(-487834 56946 3.38179e-14 -2020.91 3.54366e-14 -121543)
(-788363 90286.4 5.40865e-14 4073.81 -3.14437e-14 -194598)
(-1.02408e+06 114402 -2.71319e-14 12654.5 1.74338e-14 -250956)
(-939709 64975.9 2.72213e-16 263.693 4.71011e-15 -233095)
(1.99143e+06 85789.4 3.43051e-15 -8794.75 3.93217e-14 491932)
(-1.22345e+06 114263 -2.66513e-14 8717.75 -7.55842e-16 -301400)
(-1.30305e+06 60323.6 0 11519.1 0 -320454)
(643765 44818 -8.97948e-14 -5539.22 -5.42203e-14 158357)
(-1.4178e+06 61512.9 -1.54108e-14 12557.5 -7.41804e-14 -348669)
(-1.53251e+06 61895.9 2.05629e-14 14795.4 -3.19477e-14 -376577)
(421628 47040.1 -1.11308e-13 -2156.26 -1.99446e-13 104079)
(84425.9 60270.4 -1.77586e-14 2837.65 -1.46595e-14 21651.9)
(1.24991e+06 110348 -4.36255e-15 14430.9 -1.90352e-14 313709)
(-30524 80651.3 1.45562e-14 -2183.13 -1.08976e-13 -8115.3)
(21547.2 85578.1 -3.85007e-14 2012.07 -1.65221e-13 5845.54)
(-411230 34995.6 -1.01067e-13 -1687.06 -7.34117e-14 -102453)
(23817.7 86866.8 1.36737e-13 1531.19 -1.62579e-13 6289.57)
(1.33982e+06 62487 -1.60264e-14 7184.56 -6.8377e-14 334219)
(-48858.3 84483.8 0 -1358.51 0 -12459.8)
(109667 79711.8 -4.70677e-14 6433.71 8.76654e-14 28806.9)
(-1.36907e+06 44283.3 -8.34702e-14 -6979.02 -3.87838e-14 -341427)
(-1.48963e+06 43619 5.97765e-14 -7453.36 -3.4292e-14 -371457)
(676771 60471.4 -3.46414e-14 -568.875 -1.15257e-13 167780)
(-1.61009e+06 43807.4 -1.13423e-14 -5667.81 -6.05953e-14 -400901)
(443280 59373.2 2.95844e-13 956.839 -9.22645e-14 110224)
(2.28112e+06 54507.9 0 -8037.08 0 563999)
(982943 125451 -1.71465e-14 -3683.11 8.97017e-15 242974)
(1.17041e+06 43565.3 -3.02815e-14 -12811.4 -2.10137e-14 287224)
(-114532 87612.9 -1.17281e-13 768.066 -7.22411e-14 -28227.2)
(263560 84470.9 0 2551.2 0 66027.7)
(-936048 50620.4 -5.68456e-15 2580.38 6.01324e-14 -231612)
(-655201 47042.7 1.96611e-13 3054.26 2.30318e-14 -161811)
(-13409.3 84824.1 1.10284e-13 1286.91 6.86486e-14 -3007.82)
(48888.5 137357 -2.37909e-15 8980.67 2.07317e-14 14358.5)
(-2.62189e+06 5015.08 -3.63627e-15 -13535.6 -5.72197e-15 -653901)
(2.04286e+06 -94291.4 4.90391e-15 -93486.7 8.62446e-15 483678)
(-69791.8 20342.6 9.49297e-14 1909.69 3.52483e-14 -16842.9)
(-587402 100970 7.07789e-15 -6511.77 -5.86725e-14 -147362)
(471818 62923.1 -5.98359e-14 9891.42 8.76283e-14 119522)
(-415209 106571 4.9002e-14 -7773.18 -8.84665e-15 -104951)
(2.11586e+06 20571.3 -4.2898e-14 -16276.8 -1.48665e-14 520948)
(-57176.6 89321.6 4.66788e-14 987.945 -7.59445e-14 -13941.5)
(-462684 82176.6 -2.68963e-14 -2820.58 4.62215e-14 -115501)
(370730 82383 8.16862e-14 3785.87 -4.65872e-14 92925.1)
(1.96568e+06 11058.1 4.67929e-15 -1124.69 -2.8354e-14 487447)
(-286933 33748.5 -1.3354e-13 2022.55 -1.61349e-13 -70691.9)
(-965206 21083.8 9.38742e-14 5098.91 3.12909e-14 -238222)
(-682869 24329 2.74704e-15 3929.98 -1.64872e-13 -168459)
(-72400.9 21834.8 0 -3722.27 0 -18887.7)
(-1.14055e+06 61899.7 -2.13655e-15 11889.4 6.96848e-14 -280043)
(-23940.8 86116.1 -2.67535e-14 8.39614 5.52187e-14 -5938.11)
(-56879.4 67000.3 -1.03064e-13 -3282.47 1.1527e-13 -14927.4)
(-49847.6 65629.2 7.22832e-14 -1253.4 -4.42302e-14 -12679.2)
(-1.71652e+06 368530 -6.13549e-15 210381 5.52441e-15 -373703)
(2.0986e+06 73683.9 -1.67883e-15 -7317.17 -1.7034e-14 518890)
(-386326 54156.6 -9.9297e-14 2991.06 -7.22084e-14 -95113.2)
(2.06169e+06 12230.5 -3.61135e-14 4145.02 3.21379e-14 512576)
(-278604 19954.9 8.7789e-14 -395.157 -2.87978e-13 -69225.4)
(-206447 43826.1 1.65112e-14 -514.165 -1.57515e-14 -51351.2)
(-194710 58524 1.6858e-13 2147.33 1.68999e-13 -47778.8)
(-2.6412e+06 -51674.8 1.32409e-14 11797.9 6.22786e-14 -652409)
(116608 57633.2 0 9618.91 0 31319.4)
(61560.7 69623.7 -1.75249e-13 2087.4 -6.90303e-14 15792.4)
(42757.9 74331.9 6.07601e-14 959.541 -4.78213e-16 10847.2)
(-91410.4 66577.5 4.15012e-14 -9426.67 1.17415e-13 -25019.7)
(-1.49395e+06 75747 -2.31099e-14 -8162.6 1.16287e-13 -372704)
(458048 53753.3 1.414e-13 4796.09 -4.39666e-14 114841)
(-1.37863e+06 74112.9 0 -7944.49 0 -344037)
(-1.26468e+06 72685.9 -4.85435e-14 -7078.92 -4.97048e-14 -315548)
(680915 51005 6.4759e-14 5966.94 3.95969e-15 170429)
(-14237.1 84498.2 -2.2849e-13 -3142.75 -1.46499e-13 -4312.29)
(1.47858e+06 101658 0 -4706.95 0 365697)
(-122135 73706.5 -4.84772e-14 1891.51 -8.03506e-14 -29834.8)
(75663.2 15349.9 -2.7943e-14 5084.44 -4.05442e-14 20035.1)
(186544 75679.7 2.14225e-13 1625.59 3.8365e-15 46688.8)
(57822.3 -43601.7 -8.625e-16 -122798 -6.39342e-16 -16121.8)
(-3065.6 11999.2 2.24684e-17 7207.32 -1.33669e-16 1027.64)
(-58415.1 -43363 -5.46252e-16 122571 3.63908e-16 15918.3)
(-14277 85851.3 -7.10373e-14 407.652 -1.03245e-15 -3441.26)
(-785449 55902.4 -1.74065e-14 -2951.27 6.93532e-14 -195618)
(54148.6 38747.7 3.90393e-14 -36.1857 -1.09167e-13 13426.4)
(856778 63221.9 -8.43052e-14 -7793.93 -1.16562e-13 210650)
(-1.4024e+06 115925 5.61159e-15 -745.506 1.14244e-14 -348150)
(-458830 76642.8 -3.46898e-15 7212.66 1.09388e-14 -112055)
(-2231.6 91616.3 -1.0961e-14 -902.291 -5.45207e-14 -777.582)
(366655 104719 -2.25017e-14 2650.7 -3.88714e-14 91632.2)
(-175769 76682.9 -6.70599e-14 -938.205 1.47799e-13 -43844.5)
(-123070 79882 -2.27319e-13 -807.647 -1.09594e-13 -30736.5)
(2.08741e+06 20095.8 1.2681e-14 5354.58 2.63542e-14 519256)
(1.39159e+06 62658.4 2.07403e-14 5031.76 4.2196e-15 346530)
(1.50821e+06 63838.5 3.97332e-14 5806.17 5.52534e-14 375658)
(1.27687e+06 61973.2 1.45627e-13 4518.65 8.62643e-14 317938)
(-463390 55544.8 6.62478e-14 -4011.28 1.03435e-13 -115972)
(-688408 54757.3 -1.7518e-13 -4796.29 6.29671e-14 -171998)
(249991 68828.7 7.4577e-14 60.5302 -3.90806e-14 62042.8)
(1.87936e+06 35381.7 1.90743e-14 -167.763 1.12356e-14 466265)
(265528 31792.4 -5.45947e-14 -2994.68 -2.14613e-13 65139.8)
(-84377.4 79548 -1.89354e-13 797.872 1.7699e-13 -20737.8)
(1.76023e+06 79060.1 -2.18266e-14 1201.2 2.71855e-14 437048)
(-152113 111742 -6.1201e-14 -212.031 -1.64663e-14 -37795)
(-234951 43902 -4.18581e-14 3798.33 -1.76113e-14 -57353.7)
(74035.1 98278.4 1.35503e-13 -2617.15 -1.93928e-13 17720.2)
(105923 105339 -9.43726e-14 -2107.85 6.48932e-14 25758.5)
(-75843.5 80543.4 -2.7477e-14 4331.47 -4.05266e-14 -17743.6)
(-128826 69700.3 -1.7242e-13 -1420.5 -1.34504e-13 -32316.9)
(-3001.97 84358.7 -1.65721e-13 -2478.62 -1.24654e-13 -1359.84)
(-39440 83596.9 -9.93495e-14 -392.887 1.09114e-13 -9883.35)
(-9003.32 85873.3 -6.49476e-14 -2329.79 -6.18765e-14 -2811.98)
(9796.23 57576 3.08538e-15 41277.8 1.38206e-13 12672.5)
(-39323.1 5129.96 -4.47297e-16 -9087.5 6.5664e-14 -12011.7)
(-2.20225e+06 -355971 1.97799e-14 90634.1 -9.97297e-15 -523936)
(-1.59621e+06 76443.4 1.43087e-14 -12233.6 -2.18231e-15 -399087)
(500082 49220.6 7.48086e-14 3699.37 -7.29429e-14 124998)
(-1.49026e+06 78872.7 -5.74294e-14 674.244 3.60464e-14 -369596)
(726817 45252.5 -3.36643e-14 4245.61 1.01993e-13 181391)
(-1.37248e+06 76222.9 2.19171e-14 831.457 2.20212e-14 -340334)
(-1.25707e+06 74207.1 -1.26608e-13 1352.84 9.67034e-14 -311569)
(416288 69936.5 7.32865e-14 -5288.53 2.04144e-13 101977)
(-1.27416e+06 29682.8 7.8475e-14 8508.76 -1.07781e-13 -314034)
(609062 73739.1 9.08682e-14 -6498.58 -7.23368e-14 149508)
(-1.17421e+06 31124.9 6.50695e-14 7516.18 -1.11939e-13 -289480)
(-1.076e+06 33146.4 -6.74602e-14 7364.17 -6.07266e-14 -265150)
(-597734 95164.6 5.02606e-15 18448.5 5.05067e-14 -143733)
(184181 80370.9 -3.65931e-14 -6075.1 -2.43581e-13 44191.6)
(263690 78369.1 -5.84517e-14 -8215.26 -1.68798e-13 63388.4)
(-384564 76582.2 -1.75707e-14 12192.3 1.01128e-13 -92393)
(1.55485e+06 48671.3 -1.11302e-13 2072.6 -3.75509e-14 386305)
(-1.60245e+06 -22141 1.06988e-13 -12644.3 3.30583e-14 -400738)
(902212 45817.6 7.53209e-14 -2716.81 -7.01455e-14 223183)
(-455065 44639.4 1.66904e-15 8161.86 9.90298e-15 -110886)
(-209380 76448.8 -9.48787e-14 2095.9 -7.83744e-14 -51431.5)
(-219466 62875.6 8.11961e-14 -3029.55 -7.34357e-14 -55205.7)
(23403.4 85098.7 6.17238e-14 1391.46 1.12701e-13 6152.11)
(-311917 55013.4 -1.38805e-13 -1136.85 1.43902e-13 -77675.1)
(269505 66841 -7.2742e-14 -4650.42 -7.68347e-14 65715.7)
(182920 75654.4 -6.66874e-14 2872.91 5.13854e-14 46099.1)
(-582326 62567.2 1.12856e-13 8086.88 -7.59476e-14 -142481)
(-816096 69626.9 4.0972e-14 3468.8 8.96671e-14 -201629)
(1.64661e+06 19768 2.51706e-14 1901.28 -3.2984e-16 409029)
(-7653.03 89644.3 3.24025e-14 -784.932 -1.57552e-13 -2093.63)
(2.37609e+06 85072.6 -2.92434e-14 -14387.9 -1.5928e-14 585985)
(-256748 68620.1 -1.19896e-13 954.738 8.25911e-14 -63467.6)
(2.07558e+06 54403 0 -21082.1 0 509764)
(-595800 69698.5 3.51393e-14 -6114.77 1.46735e-13 -149347)
(-649837 69561.2 -3.6029e-14 -6906.91 4.27156e-14 -162951)
(-703411 70509.5 -5.85e-15 -7129.97 1.54303e-13 -176300)
(329187 77493.9 -8.88282e-14 1107.21 2.184e-14 81952.6)
(223752 78857.5 -9.4813e-14 673.023 2.34001e-14 55684.3)
(-2.58133e+06 -22142.5 2.31717e-14 -9672.76 -1.32087e-14 -642881)
(-1.61488e+06 75024.4 -2.39418e-14 -9466.76 4.50857e-14 -403034)
(570481 52947.4 -9.46291e-14 5214.56 -5.53662e-14 142842)
(793279 49989.6 2.65605e-13 6286.82 -1.42717e-13 198388)
(88427.9 86002.1 5.20296e-14 -8522.44 -1.34481e-13 19826.2)
(-463909 38689.6 0 1681.49 0 -114688)
(-469615 20701.1 1.42315e-13 -3224.97 -7.23315e-14 -117321)
(2.27557e+06 60203.7 3.80503e-14 -16025.3 2.53693e-14 560639)
(2.32875e+06 -15658.5 3.15491e-14 14367.6 2.78563e-14 581374)
(1.23024e+06 24170.5 1.9615e-15 -1273.87 6.68157e-14 304931)
(1.13011e+06 26664.9 1.37287e-14 -924.673 1.62378e-13 280174)
(1.33209e+06 21534.2 3.44815e-14 -2426.85 -4.98491e-14 329917)
(-581409 75746.3 -8.5819e-14 4869.14 7.71958e-14 -143051)
(-385450 70984.6 -8.32856e-14 3738.75 9.13208e-14 -94710.4)
(253520 101335 0 2104.45 0 63425.5)
(173202 97477.8 -3.45723e-15 773.358 1.32381e-13 43166.9)
(552642 75298.1 -1.01855e-13 -124.357 8.32645e-14 137091)
(-232961 71070.9 -8.14596e-14 3093.27 1.9306e-13 -57034.9)
(-361361 106679 -1.60718e-14 4544.35 7.09929e-14 -88533.4)
(112539 77859.2 -3.03408e-13 -864.057 -8.04888e-14 27708.9)
(160527 74456.7 -2.09742e-13 -1156.55 8.77332e-14 39542.9)
(-97814.4 89575.5 -4.09149e-14 2269.9 -5.72289e-16 -23706.5)
(-275148 57908.4 -3.37063e-14 6095.82 -2.10358e-14 -66757.2)
(-253322 59441.7 2.22919e-14 5375.69 -3.80452e-14 -61520.4)
(-255441 42907.6 0 -415.523 0 -63483.1)
(-121466 110211 4.59049e-16 -5535.85 -4.39903e-14 -31511.8)
(-1.18395e+06 2151.31 9.93117e-14 -7273.91 -4.34845e-14 -295567)
(1.48522e+06 58327.3 -1.28887e-13 -6694.99 -1.29949e-14 366851)
(1.80581e+06 183318 7.6109e-15 -308311 3.84333e-15 371561)
(-42997 74539.7 2.70948e-14 -3788.07 -6.13968e-14 -11608.3)
(277110 25418.8 9.8876e-14 2492.53 -2.25688e-13 69375.2)
(-2.26001e+06 -283433 1.90115e-14 183236 -1.22621e-14 -515291)
(129044 59155.5 4.23099e-15 3873.29 1.14691e-13 32979.5)
(354364 41788.5 7.9816e-14 869.56 -9.16115e-14 88140.7)
(391620 45934.7 1.11449e-13 -5652.21 -4.70134e-14 95766.5)
(-4963.83 88371.7 8.39547e-14 -106.615 -1.24474e-14 -1258.08)
(-5624.34 91492.7 8.85577e-14 -651.567 7.4865e-15 -1557.18)
(1.07509e+06 33905 2.82639e-14 -5355.75 9.39076e-14 265424)
(891271 97159.5 3.58899e-14 7976.87 -8.65096e-15 223122)
(-810990 80400.5 0 8044.94 0 -199227)
(-693141 42113.5 -9.14372e-14 -10688 -5.71817e-14 -174634)
(2.19732e+06 -359681 -7.9808e-15 -92907.6 -5.37802e-15 522146)
(-677290 123726 -7.2951e-15 18760.8 8.486e-14 -163394)
(-1.08195e+06 39895.2 5.00664e-14 -2467.97 -2.94874e-14 -269065)
(-2.29016e+06 -922347 -2.14628e-14 479911 8.38781e-15 -449160)
(2.75675e+06 1926.03 0 37637.8 0 693344)
(-2.00553e+06 -854156 -6.98392e-15 226287 2.15941e-15 -441466)
(353817 122814 -4.76974e-14 -90.4648 1.68005e-14 87766.7)
(-79201.8 71567.7 -8.56306e-15 -860.44 1.19707e-13 -19865.1)
(-1.04472e+06 90168.4 4.24564e-14 -8839.03 -4.66663e-14 -261410)
(-956808 90454.6 6.3306e-14 -7896.43 -7.90609e-15 -239363)
(-878117 88353.2 -7.227e-14 -7109.7 2.8109e-15 -219643)
(312158 62475.3 6.3514e-14 4127.14 -1.77172e-13 78476.7)
(469421 59728.7 -1.5937e-13 5268.21 1.54903e-13 117780)
(46287 77421.2 -2.50633e-14 -8126.96 1.17599e-13 9468.29)
(66149.6 72975.1 5.93082e-14 -11108.8 7.59579e-14 13656.7)
(-149553 116895 -6.72404e-14 24627.1 1.81849e-14 -30996.5)
(-95857.9 67891.4 5.03829e-14 16582.3 -6.44235e-14 -19669.9)
(-1.25546e+06 -505270 -5.40908e-15 -31162.3 1.13013e-15 -319237)
(236754 118033 -3.82331e-14 17997.5 -1.3537e-13 63209)
(-117702 69670.4 -1.32414e-13 -9314.23 -6.05155e-14 -31515.4)
(-552885 111655 0 135.226 0 -137148)
(236377 63915.1 1.01328e-13 1453.79 -4.13396e-14 59010.7)
(-116504 95609.4 0 -606.778 0 -29057.6)
(-86873.9 75593.5 -6.44785e-14 -976.774 -1.02101e-13 -21797.5)
(826497 79508.7 9.00904e-14 4703.47 -9.42143e-14 206238)
(849052 49208.8 1.37963e-13 45.8678 6.58792e-14 210678)
(2.28817e+06 -921585 -8.03284e-15 -480331 -2.65583e-15 448561)
(1.25406e+06 -505200 9.38273e-15 30984.5 2.57316e-15 318845)
(-256680 54728.3 1.96552e-14 2027.16 2.79632e-14 -63184.6)
(-273910 55573.7 -5.97141e-14 -2989.06 -1.22072e-13 -68704.2)
(-1.47051e+06 -690.773 -6.55567e-14 -5560.24 -1.5012e-14 -366243)
(1.19336e+06 53754.2 1.48594e-13 -4047.01 -3.88039e-14 295093)
(385601 71691.3 4.94063e-15 -3241.57 2.7039e-13 94871.1)
(580909 77427.7 9.18673e-14 -3963.65 9.98539e-14 143152)
(-1.33254e+06 21909.5 -2.42277e-15 -969.093 5.67729e-14 -330870)
(-1.23301e+06 26181.3 -5.78135e-14 -940.204 1.91154e-14 -306169)
(-1.13237e+06 28770.2 -3.88921e-15 -1016.55 8.98358e-14 -281216)
(-17396.3 90905.6 -1.39778e-13 -895.729 4.04174e-14 -4538.62)
(-1.44256e+06 24090.2 3.74778e-14 -2224.55 4.02954e-14 -358480)
(485036 72344.4 -9.41562e-14 -3286.07 4.61763e-14 119532)
(681179 76626.8 0 -3688.27 0 168099)
(642341 56881.8 3.58471e-14 -4788.35 8.54801e-14 158190)
(123674 75834.5 -1.1813e-13 636.919 -3.12185e-13 30844)
(10800.6 77727.3 -1.03513e-13 -9174.66 -3.80556e-14 403.422)
(522740 39987.1 -1.30445e-13 16271.5 2.33366e-14 133740)
(-445939 59311.8 -1.12184e-14 -1256.77 -9.08301e-14 -110958)
(70667.6 79319.6 1.52173e-15 -16677.4 1.89207e-14 13396.1)
(2.003e+06 -854095 -7.2682e-15 -227263 -1.82835e-15 440596)
(318063 83949.9 9.29846e-15 -2664.81 -1.72469e-13 78256.7)
(383208 81609.4 8.03145e-14 341.784 2.7309e-14 95166.6)
(-251065 80554.1 0 -642.552 0 -62453.7)
(-298260 90905.3 3.00088e-14 -7715.63 -8.34803e-14 -75918.9)
(881894 88103 0 8064.15 0 220817)
(960878 90357.8 5.29304e-14 8794.3 5.01931e-14 240595)
(1.0393e+06 94010.9 -1.18342e-13 9166.74 -1.14456e-14 260146)
(-469266 56701.6 1.68224e-13 -6042.51 1.70845e-13 -117934)
(-315489 61384.9 8.84555e-15 -4386.74 -1.02281e-13 -79367.7)
(-16757 86511.4 9.95665e-14 -560.956 5.29922e-14 -4296.93)
(2.06572e+06 11559.6 -1.5308e-14 -32664.4 -2.79073e-14 504443)
(-12874.4 102355 -1.07532e-13 -6315.8 3.34947e-14 -4761.47)
(27457.4 49515.1 -1.02306e-13 12557.6 -6.36383e-14 9928.55)
(46448 82043.7 7.73642e-14 1403.38 -1.79481e-13 11872.9)
(499514 83106.7 8.22434e-14 508.469 8.68663e-14 124066)
(-194623 3662.76 -1.36924e-13 -3209.45 6.70628e-15 -49086.2)
(660640 92756 0 -4065.58 0 162910)
(2.16919e+06 -94707.1 3.51956e-16 -301215 1.41397e-16 463483)
(496299 21752.3 7.90528e-14 7375.26 1.79712e-13 124972)
(477173 34971.4 3.5826e-14 -6930.01 1.95177e-14 116677)
(-718543 79415.6 1.17621e-14 6598.65 2.48361e-14 -176648)
(-510902 74127.9 -9.1736e-14 5616.88 2.93797e-14 -125372)
(-612169 48216.8 -1.87458e-13 -3020.14 -3.27787e-14 -152641)
(-438748 53206.1 9.46879e-15 -3173.46 -9.95282e-15 -109650)
(1.51397e+06 19562.6 -6.50989e-15 -4038.45 2.14492e-14 374645)
(1.25396e+06 100042 2.67441e-15 -492.058 -4.43615e-14 311010)
(362836 91603.2 1.65921e-14 -4431.13 9.81104e-15 88927.4)
(487922 75447.9 3.11527e-14 -295.04 5.29681e-14 120990)
(267477 90489 8.67045e-14 -4433.89 6.17577e-14 65266.4)
(358295 75793.5 7.77456e-14 -1480.42 -1.23015e-14 88533)
(-684636 52301 -1.42583e-14 7060.41 3.57411e-14 -168120)
(-901036 83971.1 -3.95322e-14 2564.82 7.1054e-15 -222929)
(-205125 133479 4.38209e-14 -755.891 3.12559e-14 -51083.3)
(1.48064e+06 58895.1 4.89146e-14 5829.43 3.50685e-14 368824)
(1.60534e+06 58500.7 -1.05901e-14 26058.3 5.25644e-15 404783)
(1.90271e+06 59982.3 8.60154e-15 -2145.54 5.41433e-15 471568)
(133402 84867.5 -1.68768e-13 -481.027 2.04867e-13 32980.5)
(-489740 22791.5 -1.04561e-13 -6887.78 -5.37481e-14 -123224)
(-473938 38012.4 -1.32683e-13 4075.63 8.8722e-14 -116582)
(2.22916e+06 -10233.9 0 14106.4 0 556601)
(2.23556e+06 67744.8 0 1686.08 0 555107)
(1.34222e+06 52549.5 2.048e-14 -1842.79 9.73678e-14 332576)
(1.3306e+06 7132.08 6.52508e-14 5411.88 -1.83433e-13 331491)
(-1.38169e+06 10171 0 -10279.6 0 -345375)
(-1.3475e+06 53030.9 0 9145.68 0 -332072)
(38498 82000 -2.32567e-14 2394.79 6.65901e-14 10146.3)
(-93480.3 33774.9 2.48872e-13 -5275.51 -1.05304e-13 -24503.3)
(-362842 35251.5 -6.56238e-14 -3596.21 -2.42064e-14 -90920.8)
(2.90574e+06 3514.79 0 58764.6 0 735554)
(-51197.6 71513.5 -1.64123e-13 -1100.46 -4.09161e-15 -12976.2)
(-60941.5 74313.3 -2.36392e-14 -4761.73 -1.31428e-13 -16302.3)
(322713 99043.5 -8.45905e-14 -7378.18 -5.79551e-14 78240.9)
(-254269 96944.1 -1.76196e-13 -7678.93 7.37613e-14 -64994.6)
(308782 58226.3 5.11055e-14 -8264.6 -5.2842e-14 74564.4)
(-1.18043e+06 49706.8 3.62662e-14 -10817.6 -7.37862e-14 -295572)
(1.1906e+06 54684.1 -1.50763e-14 -12187.1 -9.02169e-14 292387)
(-1.98869e+06 82944.9 1.55921e-14 -12345.4 -6.64642e-14 -496498)
(-2.34005e+06 -214345 8.197e-15 431729 -5.87686e-15 -473494)
(820665 106478 -1.30671e-14 -17173.4 1.62114e-14 199363)
(94380.2 107254 -8.73678e-15 -5052.23 4.91756e-14 22164.1)
(-1.11383e+06 87823.9 -4.37404e-14 -4915.3 -1.22599e-13 -277583)
(937412 27486.8 -5.70072e-14 12074.8 8.22138e-14 235587)
(-647986 52803.1 6.28298e-14 -11174.5 8.05658e-14 -163551)
(506873 86564.9 9.45056e-14 6245.32 1.65813e-15 127315)
(94979.5 93063 2.63923e-14 5729.88 1.23456e-15 24988)
(162008 71122.2 -1.11615e-13 -870.286 1.40122e-13 39981.5)
(-320848 60929.9 7.63154e-14 -20424.1 -8.10121e-14 -84676.6)
(-519590 125162 1.23707e-15 8901.92 1.02025e-13 -126712)
(-294877 62228.3 1.17809e-14 -18881.3 -8.20186e-14 -77849.7)
(-477250 121184 7.45077e-14 8140.14 -2.72212e-14 -116396)
(118542 49622.3 -4.66344e-14 -3474.61 1.44778e-14 28550.5)
(-56093.3 103812 -1.24033e-15 2747.41 -9.20782e-14 -13236.2)
(-36649.4 101463 1.14299e-13 2728.09 9.16464e-14 -8416.56)
(-24483.6 89632.3 5.88414e-14 923.41 -1.28073e-13 -5845.77)
(1.57641e+06 40844.9 3.35646e-14 4392.8 5.20623e-15 392230)
(-16300.1 103950 -1.29153e-13 -7510.59 -5.73891e-14 -5907.91)
(-62346.9 73944.8 6.38859e-14 -4433.61 -2.13844e-13 -16569.6)
(2.18858e+06 -66748.9 -1.66283e-14 -112815 -1.21057e-14 515039)
(369139 60484.9 6.80647e-14 -5427.49 -8.72966e-14 90244.3)
(-850739 107032 4.52767e-14 15427 1.22154e-14 -207258)
(-981491 68740.4 -7.42441e-14 2016.42 -3.24785e-14 -243027)
(-974325 29831.7 0 -11906.8 0 -244704)
(1.22586e+06 16665.2 -6.6806e-14 5838.96 -3.17615e-14 305609)
(1.17445e+06 77807.8 4.09708e-15 10003.1 7.95398e-14 293887)
(-37133.6 61162.2 -7.55668e-14 808.141 6.15753e-14 -9013.08)
(-28272 61639.8 5.48175e-14 1616.59 -3.06425e-13 -6613.75)
(-758757 114417 -2.98473e-14 8747 -7.29033e-16 -186093)
(-1.02212e+06 80255.1 0 12886 0 -250411)
(720516 48210.7 1.63244e-14 7948.68 4.00658e-14 180747)
(-1.86022e+06 101869 7.14205e-15 -8832.87 -2.25214e-14 -463749)
(66608.8 71421.7 0 16966.9 0 20736.8)
(1.03432e+06 41551.3 -3.53893e-15 -3037.29 2.45634e-14 255883)
(784815 111141 -1.91624e-15 6747.29 9.29611e-17 196403)
(-497130 91492.8 1.40428e-13 4666.13 -1.80562e-14 -122190)
(-385939 61227.6 -1.37246e-14 -3745.08 9.8918e-14 -96688.6)
(-354562 86968.9 2.17392e-14 3887.98 -8.25795e-14 -87009.5)
(-278030 65551.6 -1.22876e-15 -3188.39 4.85151e-15 -69776)
(-394092 40625.3 5.08253e-14 7.23509 7.50421e-14 -97780.3)
(-332582 46350 -8.89054e-14 2727.28 1.78853e-14 -81843.6)
(-406756 111476 0 1071.2 0 -100659)
(-456354 112465 -4.46442e-14 -1058.85 3.87699e-14 -113493)
(-495910 115813 -3.64083e-15 -1202.96 -4.14951e-15 -123344)
(135912 71403.8 -2.18834e-13 1301.03 -1.09373e-13 34045.4)
(-27050.6 85242.1 -4.85737e-14 -2364.89 9.66515e-14 -7298.57)
(982400 42461.3 -2.7307e-14 5991.94 7.78341e-14 245240)
(1.02862e+06 58480 3.78244e-14 -6679.75 -7.35277e-14 253563)
(169769 75049 7.87316e-15 1557.62 -5.45327e-14 42509.5)
(249332 68641.4 0 2950.29 0 62596.4)
(-535459 110616 5.57407e-14 -3215.84 -6.12185e-14 -133656)
(476123 65153.7 -1.06567e-13 4965.01 -1.35389e-15 119368)
(519923 98531.3 -4.665e-14 5756.52 -2.88916e-15 130432)
(-191320 82754.3 -8.99228e-14 -534.607 1.28831e-13 -47603)
(-163341 86701.6 5.24611e-14 -1790.04 3.07673e-15 -40972.4)
(-233993 91037.6 8.49707e-14 -1225.05 3.02148e-14 -58362.3)
(-259757 77716.4 0 -3099.63 0 -65220.1)
(-1.12365e+06 43312.4 2.48336e-14 -143.572 -3.78511e-14 -278836)
(524296 80021.1 -4.11779e-14 -1108.89 -1.6268e-13 129813)
(372396 77283.4 -1.88609e-14 -1241.31 -2.69546e-15 92091)
(-120316 214311 -1.13281e-14 23334.7 -8.07586e-15 -24063.1)
(1.35809e+06 34661.1 -8.62965e-14 -9804.37 -5.16812e-14 334536)
(-1.58418e+06 8866.18 7.46219e-14 2280.48 4.46441e-14 -392501)
(-179069 197959 0 -7610.95 0 -46319)
(-186837 80013.8 3.14366e-14 2081.41 9.48647e-14 -45841.7)
(-157654 84607.5 -2.36457e-13 3705.36 -5.99655e-14 -38197.9)
(-272819 79463.7 1.0195e-13 1734.15 1.13962e-15 -67261.6)
(-234917 87507.2 0 3202.58 0 -57493.1)
(533911 62990.8 5.1718e-14 -4697.54 -8.32327e-14 131309)
(612911 89725.5 1.88948e-14 -3708.85 8.00516e-15 151156)
(498645 67374.1 -3.85128e-14 -9604.58 3.68573e-14 121341)
(581326 92903.3 4.11516e-14 -6725.71 1.13578e-13 142570)
(457823 67727.2 3.23018e-14 -8761.1 5.4161e-14 111421)
(533604 91351.7 -7.01493e-14 -6219 4.00716e-14 130855)
(419423 39647.6 3.20823e-14 -257.964 1.21103e-13 104003)
(404692 22401.2 9.43323e-14 2026.88 2.01907e-13 100915)
(-796372 87898.1 -1.78737e-14 773.007 2.34461e-14 -197404)
(379071 85115 -9.76731e-14 -4733.95 -2.37612e-15 92880.6)
(-897205 62661.2 0 7588.07 0 -220732)
(1.55191e+06 94272 5.23769e-14 -13152.1 -3.29367e-14 381798)
(-788805 38439.6 9.83991e-14 2989.41 -1.61583e-13 -194977)
(-573970 44674.3 1.18866e-13 990.89 -7.98597e-14 -142168)
(-1.72801e+06 -816928 -6.64744e-15 274375 1.48717e-15 -360677)
(51347.5 79744.1 1.32812e-13 106.172 -3.48626e-14 12766.7)
(1.64587e+06 50689.4 -1.75093e-14 -3849.21 -8.91376e-16 407419)
(-805753 60833.7 -2.75196e-14 3016.77 -7.98058e-14 -199175)
(-578961 58622.2 1.72195e-13 2762.92 8.47086e-14 -142966)
(2.44072e+06 -20001 2.83965e-14 -5390.31 1.26398e-14 604255)
(-110475 70784.7 -1.90478e-14 -1831.01 7.63828e-14 -27865.4)
(1.69331e+06 11290.9 4.35013e-14 4909.67 -2.70169e-14 421364)
(-398975 61951.8 5.95937e-14 1545.04 -1.05021e-13 -98610.5)
(-1.39373e+06 92451.9 3.5249e-14 14262 -4.5946e-15 -342275)
(-1.30993e+06 57574.5 -2.15309e-14 -7754.16 -1.63377e-15 -326945)
(1.27068e+06 59169.4 -4.07495e-14 2092.17 2.66239e-14 315802)
(-163064 83859.1 -2.59774e-13 6485.42 -1.18198e-13 -38850.3)
(-3780.22 -43863.2 2.70553e-16 -68762.9 9.61566e-17 -17999.4)
(-19563.2 75547.3 0 3067.4 0 -4092.95)
(-2.29354e+06 -733281 1.09194e-14 287883 -3.01131e-15 -497645)
(1.72512e+06 -816840 1.29337e-14 -277025 4.07008e-15 359302)
(-1.11748e+06 96850.8 4.56551e-14 -9169.83 -4.42421e-14 -279546)
(390044 59210.3 1.99087e-14 3804.75 7.67979e-14 97722)
(542891 54544.8 -6.3963e-14 5089.77 1.45599e-13 135965)
(155556 78563.5 1.28222e-13 -1239.52 3.81708e-14 38289)
(-291224 14357.1 7.43081e-14 -25.5138 -1.14237e-13 -72265)
(263937 103941 -6.16807e-14 -1712.09 5.64293e-14 65063.3)
(-133542 61866.2 1.8222e-14 786.622 2.79294e-14 -32939.3)
(-119276 112237 1.29781e-14 4819.23 3.75995e-14 -28399.2)
(-1.88475e+06 -395.831 -6.00368e-15 50855.3 1.41955e-14 -455027)
(15374.1 -26104.3 7.10083e-17 -45580.1 4.40715e-17 -7494.72)
(-662288 103507 -2.74718e-16 8271.43 5.15648e-15 -162275)
(522031 56210 4.63007e-14 -3440.64 1.43344e-13 128673)
(1.95266e+06 -378306 1.15055e-15 -51324.1 1.4852e-15 471760)
(-59161.4 61430 -1.18862e-14 -10334.1 -9.23745e-14 -17243.3)
(-66250.3 106361 9.42988e-15 -4746.55 9.01816e-14 -17615.8)
(-37524.2 92528.8 -1.61345e-15 130.673 -1.3805e-13 -9278.1)
(-96559.3 76995.2 -2.54224e-14 3895.96 3.46197e-14 -22991.6)
(44284.5 91183.3 4.13496e-14 -1666.26 1.06822e-13 10574.5)
(29100.4 93003.6 -9.72199e-14 -163.282 -3.17285e-14 7179.88)
(-1.95626e+06 -375937 4.88785e-15 49519.7 -1.51201e-15 -473101)
(694465 95087 -3.7499e-14 2621.86 2.02695e-14 172961)
(-243979 77270.5 -2.60272e-13 -970.735 -7.38232e-14 -60777)
(824056 81201.7 1.34829e-13 5318.49 -2.28242e-13 205785)
(757606 80302.8 -1.70297e-15 4715.5 -8.76407e-14 189147)
(694081 77924.1 -2.5097e-13 2601.99 3.78351e-14 172861)
(119576 43524.6 -1.27193e-13 3948.59 -4.75721e-14 30649.1)
(-1.61016e+06 31223.2 6.77339e-14 -4069.56 -6.56698e-14 -400524)
(511960 61748.6 1.37905e-13 -2929.13 1.48788e-14 126301)
(727957 64305.9 -6.24266e-14 -2916.12 -8.92392e-14 179897)
(-138633 76715.6 -2.20441e-13 -318.747 -3.71541e-14 -34476.7)
(1.02351e+06 103906 1.42708e-14 -13525.6 2.05597e-14 250597)
(198167 58992.1 -8.91955e-14 506.333 6.04003e-14 49295)
(-2.04692e+06 22024.3 -2.2824e-14 -2673.89 -8.42623e-15 -508545)
(60035.7 78627.9 -1.15031e-13 1817.81 -9.67432e-14 15347.1)
(-174184 84462.6 -2.28718e-13 1293.41 1.07967e-13 -42897.6)
(592002 63490.3 1.71441e-13 902.479 -2.46485e-14 147112)
(544252 64155.6 1.60409e-13 598.362 3.90293e-14 135188)
(498089 62819.7 -1.16402e-13 -1363.31 3.20527e-14 123248)
(1.06646e+06 44712.3 1.71697e-14 36.7826 3.59549e-14 264620)
(237571 84814.3 -7.71841e-14 3399.91 -1.65339e-13 59789.8)
(-591808 68578.7 5.22287e-14 -9190.23 1.1647e-15 -149120)
(-460567 126497 3.17617e-14 4192.03 3.53795e-14 -113236)
(-259889 50649.3 0 1980.82 0 -63992.3)
(-826268 94515.2 -7.0569e-14 -9496.93 2.14791e-14 -207370)
(-901584 96896.3 -1.06031e-13 -10540.5 -6.99458e-15 -226317)
(-978589 100265 -1.0573e-13 -11882.8 5.09107e-14 -245756)
(468867 62746.7 2.19112e-15 7664.27 2.71457e-14 118237)
(320052 67781.7 3.43827e-14 5566.88 -4.30331e-14 80792.7)
(81451.7 5966.85 -9.9955e-14 4164.81 3.60501e-14 21243.2)
(164497 65594.6 0 -1772.28 0 40375.3)
(211043 52585.6 -1.17057e-13 2077.41 6.98493e-14 52879.5)
(2.36532e+06 -117713 -6.14366e-15 -308852 -2.95815e-15 510250)
(917476 43084.6 1.1487e-13 1632.06 -1.1787e-13 228049)
(-704958 86084.1 0 1475.9 0 -174548)
(-492531 77486 -5.69517e-14 9686.23 -2.49841e-15 -119804)
(396697 81736.1 3.04464e-14 -3962.76 -3.76458e-14 97445.2)
(-126317 97572.8 5.08856e-14 -2817.32 4.17367e-14 -32040.9)
(-15255.9 93575.9 1.50171e-13 -3310.02 -1.18288e-13 -4606.59)
(42242.4 66511.9 1.19303e-13 10258.3 -1.88688e-14 13026.5)
(46094.5 65605.3 -6.23535e-14 11246.4 -5.80334e-14 14227.4)
(-4169.86 119590 -3.12149e-15 -3002.99 -2.55552e-14 -1779.73)
(-11073.5 61801.4 -2.79763e-14 -1038.7 9.40555e-14 -3005.29)
(744.757 72089.9 -1.04878e-13 210.327 7.81327e-14 236.976)
(14270.8 74592.1 1.00238e-13 -14597.1 -4.55197e-14 -80.9683)
(175008 50841 -7.69371e-15 2525.13 -3.6175e-14 44049.5)
(-320036 119841 -1.80553e-15 2094.66 -1.74005e-14 -78887.7)
(104121 75050.9 2.51381e-13 1576.56 -4.94456e-14 26225.7)
(16124.7 116081 1.0361e-14 -19039.7 1.47366e-14 -723.269)
(-680310 118388 -2.58919e-14 -3047.42 -1.55293e-14 -169555)
(872259 53053.5 8.59842e-14 3795.14 7.66429e-14 217367)
(-375417 87761.9 -9.67227e-14 -447.336 3.16312e-14 -93259.6)
(-1.56546e+06 278555 -4.46822e-15 275058 2.6693e-15 -320174)
(-231485 48284.8 6.89116e-14 -1955.42 7.48058e-14 -57921.4)
(-379169 120074 0 3781.2 0 -93141.4)
(112964 75648.5 1.34154e-13 587.1 -1.85251e-13 28174.2)
(176006 69042.5 7.09263e-15 -432.473 2.30201e-14 43563.4)
(1.72082e+06 -380533 -1.38416e-15 55286.7 2.41515e-16 440688)
(-2.39032e+06 8480.42 -1.90914e-14 14219.8 8.77265e-15 -589558)
(754285 61663.9 4.22395e-14 4213.99 3.54728e-14 188199)
(820843 60964.1 -4.2726e-14 4538.89 9.30669e-14 204794)
(-248113 83654.2 -3.18331e-13 811.784 -1.13628e-13 -61360.6)
(175152 106837 5.58893e-14 11686 1.101e-13 46358.3)
(-37996.7 71694.3 8.95635e-14 -2802.9 1.36242e-13 -10123.2)
(-974905 -633301 -1.18417e-15 73385.9 4.98456e-16 -223685)
(-2.33163e+06 77450.6 6.24966e-15 1818.12 8.07736e-15 -578074)
(2.06614e+06 37200.1 3.39452e-14 3784.91 -1.67108e-14 513591)
(-2.98458e+06 -52288.1 -8.79241e-15 -7830.39 -3.78326e-15 -742478)