/*--------------------------------*- C++ -*----------------------------------*\
| =========                 |                                                 |
| \\      /  F ield         | OpenFOAM: The Open Source CFD Toolbox           |
|  \\    /   O peration     | Version:  2.3.1                                 |
|   \\  /    A nd           | Web:      www.OpenFOAM.org                      |
|    \\/     M anipulation  |                                                 |
\*---------------------------------------------------------------------------*/
FoamFile
{
    version     2.0;
    format      ascii;
    class       volScalarField;
    location    "4680";
    object      sigmaEq;
}
// * * * * * * * * * * * * * * * * * * * * * * * * * * * * * * * * * * * * * //

dimensions      [1 -1 -2 0 0 0 0];

internalField   nonuniform List<scalar> 
11800
(
196597
136344
667248
565563
132425
394283
182083
200077
216149
230615
195913
810103
102296
601507
510538
2.20596e+06
140224
142096
258551
158765
449403
731059
954089
855172
1.80891e+06
1.12759e+06
1.18861e+06
589971
1.2927e+06
1.39759e+06
390508
127958
1.13259e+06
142071
149306
374547
151825
1.20779e+06
152528
167062
1.23187e+06
1.33998e+06
619735
1.44983e+06
412109
2.06565e+06
915492
1.06805e+06
183902
277476
850727
598829
147502
240848
2.35443e+06
1.92113e+06
73414.1
553207
432009
412221
1.92105e+06
163318
438877
360896
1.77383e+06
266811
875177
620315
73044.4
1.04326e+06
150713
125902
121895
1.82649e+06
1.90261e+06
363039
1.85643e+06
253344
200713
204187
2.39279e+06
139859
132107
134191
137782
1.3476e+06
419925
1.244e+06
1.1422e+06
615957
146735
1.34867e+06
169565
69688.9
212308
174468
22631.4
174554
149283
712767
83017.5
786341
1.28012e+06
439839
158690
375400
206267
176997
1.8789e+06
1.25596e+06
1.36036e+06
1.15319e+06
425896
624480
255006
1.69625e+06
247958
157696
1.59256e+06
237142
227866
183592
206702
156867
166808
146121
149028
148877
104182
30220.5
2.14617e+06
1.43645e+06
456253
1.35152e+06
656987
1.2455e+06
1.14205e+06
398354
1.15681e+06
568800
1.06612e+06
977753
577252
220315
279312
380070
1.4033e+06
1.43617e+06
819635
423773
231950
223907
148754
296202
272441
208982
542315
748468
1.48404e+06
155397
2.15902e+06
260932
1.89042e+06
546219
593211
640742
325061
243257
2.32109e+06
1.4551e+06
518731
715943
172173
425002
422622
2.06721e+06
2.08957e+06
1.11132e+06
1.02101e+06
1.20385e+06
544144
371432
286983
229619
515306
245554
377669
169182
194548
179341
271986
254349
241774
218042
1.06229e+06
1.34842e+06
1.89611e+06
134016
251912
2.23422e+06
152872
327053
366265
153127
158536
975489
815340
750606
621334
2.14544e+06
660910
976389
2.91806e+06
2.45776e+06
2.47494e+06
383570
142743
948475
871157
801327
298694
431945
142461
143683
254435
153976
1.41248e+06
286013
156193
534937
239240
195877
152205
754524
770463
2.91612e+06
1.41152e+06
251589
263017
1.32204e+06
1.0834e+06
371609
543747
1.20169e+06
1.11228e+06
1.02174e+06
158167
1.30003e+06
457460
631283
591251
172007
135735
464341
414184
157422
2.47367e+06
323425
373167
265556
306665
803878
874068
944530
430012
300640
150560
1.88814e+06
177441
87311.6
147853
472586
173212
620110
2.19669e+06
443621
439846
667421
482469
556131
403951
1.36896e+06
1.14453e+06
366724
459270
290528
349843
629418
827489
295743
1.33488e+06
1.43168e+06
1.72085e+06
190189
438253
435562
1.99986e+06
2.01841e+06
1.21538e+06
1.19603e+06
1.23847e+06
1.22574e+06
145793
99378.2
330212
2.57615e+06
131903
138594
342721
279558
302141
1.05992e+06
1.08724e+06
1.79001e+06
2.47608e+06
775533
205990
1.01233e+06
837645
583162
476608
180554
191623
293628
522514
273848
484481
139259
187372
179222
156912
1.4202e+06
180308
138571
2.06374e+06
352977
800823
894710
871243
1.10155e+06
1.06025e+06
111292
110061
718859
942001
649195
1.68032e+06
132644
937947
728595
478903
361158
356171
273060
362339
312525
415288
454631
489354
173436
149367
884544
938294
199951
252390
517280
440354
494906
224007
209417
262696
268157
1.0161e+06
493573
362438
392251
1.23381e+06
1.43061e+06
376593
219408
206171
283091
262497
497239
576943
471730
553348
435695
511115
384658
365520
734790
375638
822178
1.41914e+06
716807
524167
2.26789e+06
145652
1.48995e+06
736590
534018
2.20569e+06
157112
1.52361e+06
376626
1.27797e+06
1.17977e+06
1.14903e+06
210268
96295.7
132377
2.62033e+06
2.26741e+06
1.01486e+06
363654
494872
196128
263814
299501
161659
223991
1.73877e+06
69919.7
629695
483354
1.9159e+06
115825
192601
163820
160928
163224
163231
1.91625e+06
645708
256921
752442
693792
638450
129145
1.45014e+06
476141
668123
182288
950624
205540
1.8445e+06
146054
215389
544467
502843
463230
964940
257665
540007
472461
251690
755944
822447
890668
430987
307710
71076.1
187942
209588
2.38186e+06
829602
654152
471137
387587
202629
162475
119221
118455
207146
107439
124864
131594
179072
356826
159666
203353
644739
789181
370838
1.69677e+06
223528
402718
165703
199008
1.64774e+06
2.16674e+06
685465
744403
267109
237693
128276
1.44186e+06
2.10858e+06
1.86171e+06
2.68739e+06
885109
618007
808723
132626
202338
184902
206837
804444
154176
152234
135043
198088
1.44118e+06
323010
1.47299e+06
859352
186789
239938
1.18123e+06
1.51343e+06
799319
869127
936675
424662
296912
727853
151827
153509
149712
172326
136197
203912
104162
197834
103836
195705
91116.6
190306
174511
181228
123451
1.64884e+06
251107
275389
613403
971628
132969
162783
141653
139065
123314
320622
467679
136079
135426
634914
130076
194217
1.7919e+06
86717.3
175780
568877
523934
548127
593792
609036
641560
301091
223864
2.08122e+06
2.5623e+06
539980
91250.8
383171
364171
411362
290973
876702
810929
745848
185311
90485.9
850501
792201
352445
392315
194797
679522
737293
252109
1.19897e+06
1.21593e+06
1.23e+06
1.21768e+06
2.05162e+06
2.00752e+06
634598
2.44433e+06
893656
147541
1.70346e+06
1.5159e+06
1.64836e+06
842988
340685
368187
199670
1.7499e+06
580951
732411
2.58785e+06
229451
286046
568215
556414
1.45477e+06
758983
2.16704e+06
145538
143354
295918
426174
944774
868922
799201
1.97193e+06
162738
434729
932859
1.40257e+06
142507
2.31417e+06
2.16421e+06
2.24767e+06
261246
354018
134492
2.29822e+06
666048
266138
455882
2.16408e+06
157746
268739
284879
151938
525570
326011
2.62101e+06
2.30815e+06
220824
653129
835401
321127
380648
281759
247031
693749
204572
654671
482626
1.23616e+06
1.07713e+06
184632
1.4066e+06
149962
445469
549041
1.87035e+06
357236
483827
269640
219627
204647
239979
458176
1.07159e+06
1.18027e+06
153292
146674
149013
197240
380857
1.426e+06
123122
494572
895853
698402
247767
1.18844e+06
1.31506e+06
854337
1.43001e+06
1.5483e+06
642333
419670
174008
210032
397970
423798
370368
409942
208529
378930
441264
257191
151396
2.67317e+06
1.15116e+06
433223
587565
536290
260046
466971
684344
1.4693e+06
1.35535e+06
1.2433e+06
381029
450609
215037
234537
1.66971e+06
1.22177e+06
1.42351e+06
163476
218790
314702
749033
1.64984e+06
529002
103899
164613
2.4204e+06
2.27429e+06
273925
2.0823e+06
120057
175437
127801
797753
138894
242682
268937
1.49075e+06
1.62125e+06
1.75401e+06
1.89022e+06
859047
729628
605954
476678
209746
144625
468625
2.31398e+06
153114
149047
167350
157881
166905
173571
179028
1.79085e+06
903388
928683
546900
1.01221e+06
1.09853e+06
385015
1.28181e+06
306667
252315
160802
2.39391e+06
151819
184521
177959
186181
151935
2.1776e+06
308712
304691
1.16776e+06
387426
815091
289594
2.21645e+06
979772
491048
364631
1.50204e+06
543619
205893
171713
153711
146472
259059
284636
273056
198875
535869
166331
148077
962754
1.07481e+06
126813
680847
981154
831145
1.12934e+06
2.10457e+06
1.94891e+06
1.79394e+06
1.63805e+06
680956
830868
2.10626e+06
1.95059e+06
981041
1.79557e+06
1.12956e+06
1.64024e+06
1.87713e+06
168916
144940
158188
273675
593873
1.29679e+06
150427
495413
679422
535805
738600
214726
278645
493387
722968
1.54159e+06
1.42184e+06
1.30387e+06
618873
457989
1.15496e+06
232812
296254
183433
381396
354799
323002
664587
518543
533048
395517
141747
791630
216753
407065
499643
1.23635e+06
673369
787589
633646
231099
301163
206806
181711
171024
198465
700684
590834
155305
239572
263945
544511
1.61656e+06
530185
745673
556615
173299
251119
236177
218132
297237
212039
717423
661739
604443
234190
1.72573e+06
819196
237394
1.06212e+06
717102
1.5477e+06
2.0929e+06
258902
288952
243861
162029
174868
869484
740302
2.18196e+06
144266
204221
404452
600685
259059
151436
878034
869057
63926.6
150005
419931
341848
96009.2
1.91446e+06
2.09331e+06
348091
130665
311973
442723
946366
802422
872986
2.38816e+06
146455
687630
774735
182678
707105
863965
1.02137e+06
1.17556e+06
2.20373e+06
2.04185e+06
1.87986e+06
1.71744e+06
706689
863492
2.20431e+06
2.04172e+06
1.02005e+06
1.87987e+06
1.17511e+06
1.71781e+06
2.04127e+06
1.75595e+06
1.32379e+06
564820
644292
1.75665e+06
1.30431e+06
388150
129438
124023
1.30358e+06
2.32204e+06
175064
484015
1.90765e+06
1.304e+06
2.09326e+06
2.13724e+06
1.39151e+06
1.39414e+06
638143
505721
661104
273554
204801
350232
174872
213801
262083
219645
482854
2.24925e+06
660018
221317
132836
422515
453151
2.04648e+06
427937
387024
491952
522181
1.33105e+06
632897
456163
1.70284e+06
487409
634638
227651
185997
437873
379169
408679
1.01186e+06
659874
640926
1.55132e+06
1.48365e+06
633400
669364
1.16767e+06
1.25413e+06
470570
494160
149806
208168
217958
643723
501280
86004
182851
210292
746920
710144
386000
752529
581747
229306
140105
140011
586796
1.41708e+06
138050
2.09238e+06
303176
853656
784931
241132
302065
507626
163810
138790
1.79227e+06
454630
1.16903e+06
1.08019e+06
992722
362474
528974
184698
1.61812e+06
2.14523e+06
194743
159755
1.17993e+06
432603
591446
1.02176e+06
1.1115e+06
1.21553e+06
365644
532674
67954.8
858046
449100
2.1389e+06
355490
1.23064e+06
1.02506e+06
1.15045e+06
152443
157454
161589
170167
172983
150857
1.77362e+06
552810
205753
239064
265266
298293
373481
414022
848204
820540
784112
756296
696338
720708
1.22601e+06
185368
152277
147072
203530
229764
163197
186342
1.46061e+06
302201
548587
469593
1.20805e+06
637178
223196
232734
524045
405654
723967
591851
1.45135e+06
1.27458e+06
1.1767e+06
1.08004e+06
600059
1.67146e+06
829572
1.65808e+06
293980
244434
316832
307081
213761
192975
212018
1.68813e+06
2.18463e+06
393473
126739
292233
659609
512607
142938
168806
282904
268370
281196
260166
345602
324809
243376
558611
619824
603420
669406
513029
569972
624578
142494
1.37943e+06
1.09559e+06
578374
1.3779e+06
1.29415e+06
756701
2.18518e+06
414993
394465
446792
478029
220677
179975
193355
415027
159673
1.83604e+06
236346
153762
920686
65326.3
127248
1.81743e+06
208369
473983
1.50944e+06
696601
1.393e+06
1.27813e+06
1.63866e+06
1.08851e+06
178612
699789
559572
230706
1.55851e+06
715325
230667
1.30838e+06
1.19336e+06
1.42231e+06
147929
150767
180397
2.64115e+06
316532
498152
609061
274783
154251
153608
477371
515766
200057
1.81817e+06
485285
1.85142e+06
282367
908829
151987
736804
880984
1.16402e+06
468402
631476
756199
303888
2.60093e+06
184847
130018
158156
2.21764e+06
1.45243e+06
367265
541689
1.22551e+06
1.13599e+06
1.04408e+06
2.28276e+06
702295
568524
2.27522e+06
2.57117e+06
1.77562e+06
87231
610193
1.515e+06
1.14044e+06
622298
462600
1.14974e+06
1.02566e+06
471751
1.55271e+06
374947
305165
584673
515744
391272
1.79126e+06
2.72472e+06
137409
150204
177585
2.59918e+06
178440
209211
809934
623493
2.29976e+06
2.40906e+06
147684
685065
236208
225121
567118
243898
146890
612215
140859
158964
2.74051e+06
1.1992e+06
667048
497340
447829
319764
911018
841442
772680
231879
2.43789e+06
478663
433812
497418
2.04114e+06
834396
1.22819e+06
168380
262878
198717
914841
565940
753990
137189
322271
439875
928817
328132
206720
176333
349595
2.27369e+06
331622
448569
920926
1.46846e+06
2.0753e+06
1.40719e+06
962352
763923
904027
92132.1
263427
368286
787743
727629
670232
2.07542e+06
163144
212985
228366
227893
228759
221351
330346
149797
152022
746974
1.88378e+06
537122
1.18769e+06
1.09681e+06
1.00806e+06
368246
2.12758e+06
685488
781818
936293
807349
1.30634e+06
2.08265e+06
624824
162498
800980
127814
986644
592773
1.07581e+06
1.168e+06
419599
1.35451e+06
334074
2.81102e+06
964766
153716
1.94326e+06
2.81929e+06
2.42723e+06
574533
146791
1.09066e+06
184689
174203
125378
303622
164545
169962
145566
154062
1.76364e+06
1.85138e+06
153106
1.20994e+06
194826
185447
150268
254151
1.2778e+06
1.28326e+06
290588
1.30059e+06
1.30303e+06
1.66361e+06
546938
204545
257856
352138
705520
765273
258368
68445.7
176134
828124
397727
973644
1.09595e+06
1.19675e+06
1.29981e+06
668846
471140
344777
192551
165787
2.10566e+06
1.16379e+06
139123
241628
1.04196e+06
809375
441210
477758
216141
194149
358166
317297
124690
244665
166127
1.76802e+06
695035
1.68718e+06
158116
144529
2.81979e+06
145000
2.189e+06
2.16227e+06
154580
1.0103e+06
510646
1.73139e+06
168465
958776
1.08632e+06
2.36455e+06
265548
166196
139315
536054
253970
347885
705149
646444
594871
173192
136177
198783
189206
1.24804e+06
1.37484e+06
938202
1.60299e+06
1.47389e+06
1.70103e+06
2.41629e+06
303605
770826
2.30127e+06
673725
2.15691e+06
1.0366e+06
1.12777e+06
1.2216e+06
541213
366644
453113
529897
1.99321e+06
179291
211975
314439
297938
278173
200694
414939
383433
358744
877144
914313
2.66688e+06
295645
135743
187302
2.10387e+06
602628
327822
316643
2.0527e+06
1.0797e+06
745226
116646
220060
139761
1.06476e+06
1.35732e+06
341253
1.52483e+06
207654
201349
2.74348e+06
1.79677e+06
2.19878e+06
430862
573163
1.00068e+06
310731
791012
2.29405e+06
2.41752e+06
204246
234964
396138
322698
1.15109e+06
1.28603e+06
880945
992364
2.55107e+06
2.34559e+06
301469
199051
115845
1.67783e+06
135540
2.21401e+06
437287
335332
1.19009e+06
381025
154939
2.05108e+06
232877
305534
114496
137192
1.52506e+06
530811
157398
832387
396603
218092
161136
139987
774271
141874
2.09892e+06
1.88223e+06
346713
943652
534572
156372
174366
1.61799e+06
195676
1.09166e+06
280453
603403
1.27292e+06
1.45236e+06
2.00565e+06
215831
341166
2.18232e+06
274009
171035
161187
187787
141845
2.23228e+06
1.74774e+06
404289
557716
962531
967203
1.25995e+06
444760
611854
440129
639966
1.36485e+06
1.25979e+06
1.15599e+06
1.80309e+06
852193
607871
1.72948e+06
611520
1.88152e+06
705981
788245
2.08114e+06
2.81402e+06
2.41392e+06
477483
456083
1.304e+06
624079
451916
148429
389814
1.99709e+06
167165
196180
2.55521e+06
1.91007e+06
2.19408e+06
1.0255e+06
1.27196e+06
1.28214e+06
1.10726e+06
136951
129268
193705
131907
790796
859848
933310
436645
305767
670022
2.2252e+06
167649
223355
187973
174771
1.1592e+06
1.0476e+06
207950
1.98144e+06
2.23854e+06
1.3378e+06
1.09326e+06
1.8028e+06
2.07683e+06
129962
994863
631455
1.38649e+06
184115
296492
317219
1.78105e+06
1.77406e+06
815584
413107
124120
149948
259641
545684
1.85995e+06
247684
1.43138e+06
170203
416673
281107
375435
642591
330213
504589
49062.7
14171.2
504201
2.6353e+06
230506
188768
188892
146907
134696
201689
207921
150017
150360
594122
148744
162518
201718
1.11585e+06
1.3755e+06
990717
1.84259e+06
2.34768e+06
161084
224965
432703
187010
1.68629e+06
233978
2.46379e+06
265436
346216
668566
496956
261817
271713
630616
141828
167366
213814
135124
206181
132926
2.19429e+06
118344
174697
320166
132904
100487
2.09055e+06
234459
1.81023e+06
1.92937e+06
698779
448824
366886
534685
1.20117e+06
1.12084e+06
1.03023e+06
144586
1.32231e+06
682831
140512
2.23548e+06
149443
157053
418759
1.22946e+06
993558
1.10162e+06
1.50546e+06
216402
162856
469388
696046
1.5192e+06
809370
1.63993e+06
581975
1.402e+06
1.28659e+06
463412
1.62569e+06
576292
1.50015e+06
684626
1.38484e+06
1.27079e+06
799186
1.62519e+06
205020
682626
533453
167776
213166
1.82632e+06
1.15123e+06
1.55902e+06
1.45052e+06
1.26558e+06
1.5662e+06
1.15661e+06
439495
481617
712191
1.71838e+06
162586
2.51976e+06
200944
162794
1.89981e+06
226534
359634
703640
695706
2.07597e+06
122095
1.32369e+06
1.22312e+06
1.123e+06
407891
600681
2.54929e+06
431317
329356
763155
196229
799170
369357
384752
136545
223584
232334
202495
610992
133345
749558
401540
304722
1.02616e+06
1.36744e+06
1.3728e+06
1.02577e+06
499840
2.41027e+06
147933
149148
2.15202e+06
1.94181e+06
1.18095e+06
2.80742e+06
1.2744e+06
1.09961e+06
1.12645e+06
2.49408e+06
1.25964e+06
1.00894e+06
2.21621e+06
475292
502788
752450
1.95428e+06
119372
1.65983e+06
198783
290360
457507
768041
836362
906607
445495
316980
503452
82595.6
88692.6
163277
174981
240036
199300
158061
213439
1.24938e+06
2.27053e+06
273472
200443
2.0908e+06
1.53081e+06
604890
821763
163776
171520
1.82192e+06
1.20338e+06
254934
962758
903093
1.20246e+06
144686
163610
167357
144495
1.42958e+06
2.30571e+06
2.24892e+06
1.52873e+06
2.43386e+06
310315
133892
403528
1.22977e+06
1.12918e+06
1.33223e+06
606580
411060
2.58066e+06
569249
719478
940969
304490
257584
1.07426e+06
379028
195971
816758
312273
406088
2.38595e+06
414168
366060
1.28521e+06
1.18753e+06
1.09203e+06
549121
1.63086e+06
1.53694e+06
2.0181e+06
629108
649789
837250
1.72308e+06
823993
590228
1.53199e+06
295966
2.81868e+06
185632
2.15061e+06
576190
658334
156142
701438
1.34747e+06
160464
188582
185194
2.48718e+06
739573
678948
799534
395969
285194
358746
720689
1.62497e+06
727809
1.4171e+06
1.66874e+06
1.54287e+06
484499
1.56956e+06
1.19442e+06
1.26406e+06
1.49664e+06
1.57307e+06
1.19573e+06
1.27478e+06
1.50524e+06
868460
721981
55355.2
345499
211385
496747
734281
609867
851632
1.7085e+06
1.58476e+06
1.4622e+06
1.34152e+06
492231
1.36304e+06
677939
183307
126701
132006
228020
121216
584238
1.39009e+06
1.4192e+06
502971
2.33452e+06
188686
170330
1.81578e+06
2.25055e+06
106522
1.44154e+06
569622
772715
1.07989e+06
591537
385099
167630
571454
805445
72614.2
152462
2.36177e+06
313087
233559
573218
528071
620592
396578
149430
156044
403166
1.41491e+06
2.18622e+06
2.53108e+06
392777
436794
1.83606e+06
1.65513e+06
2.15182e+06
126974
1.19263e+06
2.09697e+06
2.5469e+06
2.62634e+06
2.57244e+06
677655
1.17557e+06
506927
2.43066e+06
1.84485e+06
756311
1.58428e+06
174220
153280
1.88625e+06
1.88795e+06
154845
507166
2.33573e+06
1.9659e+06
1.87091e+06
1.9364e+06
2.63728e+06
1.79187e+06
2.33881e+06
2.01659e+06
174672
319270
1.4897e+06
698872
1.21771e+06
255994
168456
213025
196485
177113
237526
211851
508276
2.34628e+06
1.42621e+06
503047
696389
1.52453e+06
196874
706518
491139
2.69624e+06
380411
369579
674993
388519
626954
278469
215519
2.19494e+06
18029.3
175970
175794
36212.6
552029
583494
209141
229402
243833
168545
617088
613504
147228
2.35117e+06
2.00432e+06
729086
1.52242e+06
523394
140453
1.77613e+06
392681
2.3343e+06
650995
796149
942953
1.08744e+06
2.0558e+06
1.90616e+06
1.7553e+06
1.60637e+06
650019
795008
2.05406e+06
1.90371e+06
940727
1.75318e+06
1.08543e+06
1.60406e+06
360022
274640
666398
727394
643258
303481
246882
209575
167259
155877
179634
149667
158569
269068
1.0931e+06
1.17337e+06
1.06167e+06
594256
1.15618e+06
1.27409e+06
1.96033e+06
834017
672726
2.07431e+06
692310
237627
147985
203490
165045
327865
302369
306535
158468
439430
347334
455215
936241
157701
241783
1.09685e+06
172961
123939
155709
134230
1.65333e+06
191479
222751
783118
624702
299242
780488
244508
147650
134370
2.45911e+06
2.54108e+06
1.55627e+06
1.27538e+06
1.24432e+06
1.58344e+06
2.49616e+06
1.29387e+06
144408
835194
467135
356150
514403
244938
2.35502e+06
258740
1.40206e+06
1.29711e+06
1.19138e+06
627313
424248
733475
430448
327085
2.37909e+06
274399
144629
780211
779624
357763
221996
272437
461665
942692
1.78989e+06
756010
604515
1.09938e+06
1.46017e+06
399828
584869
1.26557e+06
1.16758e+06
1.07176e+06
604737
650772
1.04667e+06
870107
1.22213e+06
648028
1.34191e+06
1.45867e+06
421854
1.57885e+06
2.81102e+06
1.97895e+06
127348
963669
1.05094e+06
1.14148e+06
347757
233935
1.70846e+06
297409
390942
481858
530951
226738
288956
230975
182231
1.64516e+06
1.26585e+06
1.32743e+06
1.59009e+06
363733
1.97931e+06
2.4537e+06
906857
158544
945885
1.03077e+06
1.11991e+06
1.04598e+06
1.21e+06
340025
1.93886e+06
848660
793674
728242
859539
309447
432051
247945
229327
539736
634618
585595
673265
733742
795077
487158
483591
697244
700207
1.41592e+06
1.40912e+06
1.19601e+06
1.30466e+06
1.18972e+06
1.29816e+06
705250
766232
271124
167453
191975
230781
1.39533e+06
906033
153360
1.44111e+06
1.19616e+06
1.14741e+06
1.48462e+06
232382
514659
1.85062e+06
783443
1.71008e+06
1.57165e+06
123782
306343
1.2725e+06
758490
535008
1.69059e+06
587960
78156.9
1.30058e+06
1.19469e+06
1.40927e+06
631959
426366
1.72379e+06
673067
544270
2.29975e+06
675472
957039
227680
162136
386757
361797
331659
1.96177e+06
488998
323331
557680
513828
601282
302698
228888
1.29375e+06
1.44973e+06
231563
833733
174687
1.11116e+06
2.23011e+06
1.39618e+06
694175
518419
1.23484e+06
633423
563442
465386
304061
187588
465728
229303
571240
228496
384704
159969
181919
2.3303e+06
475124
2.00492e+06
1.15799e+06
1.24389e+06
672574
501045
1.19122e+06
2.12354e+06
135293
164282
166886
158805
420545
40735.3
13469.4
420218
887706
162271
944116
421197
285936
195135
631151
882681
1.83803e+06
144498
112311
192952
226697
488769
316061
1.24887e+06
1.1148e+06
265695
172152
134939
2.36658e+06
887456
146926
343063
168074
2.69629e+06
2.21057e+06
341766
258780
977106
469434
668299
1.31443e+06
1.10899e+06
1.21041e+06
2.55782e+06
2.03777e+06
163326
1.90256e+06
2.55483e+06
2.00556e+06
2.23399e+06
958617
193966
1.28286e+06
319056
196008
243093
476825
523035
381717
381763
862937
281057
189009
140703
1.25236e+06
1.54884e+06
1.68399e+06
1.82144e+06
1.94559e+06
876544
746430
615389
483028
304762
135606
596249
27587.9
291317
291076
14969.2
648059
324679
255436
96887.9
409105
462833
150708
410078
1.22838e+06
983697
678119
478608
546557
2.35076e+06
1.79355e+06
240751
770601
150721
163225
666952
785546
802998
1.58839e+06
469713
511409
157239
2.1242e+06
169074
373993
434792
405600
1.55701e+06
1.69259e+06
880271
926551
925867
667025
854576
1.58878e+06
1.51288e+06
1.51384e+06
525136
729202
129567
140599
133636
324533
151321
696469
1.48267e+06
1.31579e+06
1.61211e+06
1.17794e+06
1.62215e+06
1.17669e+06
799281
523929
1.42169e+06
1.04121e+06
1.42217e+06
1.04479e+06
338873
1.5568e+06
1.31679e+06
1.15433e+06
1.50339e+06
1.33053e+06
1.64066e+06
1.19345e+06
1.63913e+06
1.19286e+06
1.47303e+06
2.70252e+06
598864
841041
1.77163e+06
646481
159397
167229
270726
26814.1
270491
23693.9
153153
505249
1.57081e+06
1.44245e+06
1.7012e+06
756352
523371
2.4033e+06
78236.6
145708
297313
1.02734e+06
345926
953262
470253
2.43801e+06
2.45949e+06
1.4654e+06
175484
316334
1.67351e+06
896699
718504
479289
888213
815448
961704
334643
470866
2.49653e+06
586860
2.22527e+06
156424
151899
144122
154476
102235
2.19941e+06
178000
1.62485e+06
99347.8
1.18936e+06
1.49861e+06
180284
153604
228705
680069
239072
577372
531676
389449
421463
455185
191200
422228
569663
706006
473246
1.59589e+06
1.4757e+06
1.35517e+06
1.64752e+06
2.20022e+06
2.42671e+06
141980
138412
138815
152926
324809
190337
352934
2.44104e+06
2.48828e+06
2.51085e+06
1.90241e+06
75242.4
1.30525e+06
2.28445e+06
1.5773e+06
1.24594e+06
1.27044e+06
1.55609e+06
755964
663979
1.35806e+06
901519
1.59162e+06
114024
287050
370838
712104
293887
290196
329787
220911
253738
186011
216027
500982
502603
544780
544056
588559
587112
688957
677803
158804
155617
653727
418788
120158
244147
940008
1.59327e+06
159270
965527
2.0854e+06
648161
1.98679e+06
915754
249903
1.83392e+06
987537
830262
1.31621e+06
2.22418e+06
2.63172e+06
1.03134e+06
446719
2.213e+06
319567
232396
198143
487531
105319
929783
1.63233e+06
427563
643177
259238
150065
278278
2.38241e+06
432683
506537
489236
359121
1.02504e+06
322380
254208
1.01099e+06
223766
2.17882e+06
168528
1.28998e+06
481446
523365
2.02438e+06
1.73216e+06
1.05012e+06
1.88682e+06
2.04329e+06
899503
2.20063e+06
749506
598324
1.73394e+06
1.88843e+06
2.20516e+06
2.04543e+06
600332
902218
1.0536e+06
751758
2.20004e+06
217759
1.7272e+06
187708
124938
163646
9922
75531.8
949308
101475
1.66057e+06
346861
256572
653185
705170
601548
493961
327716
1.45954e+06
326312
351405
1.31258e+06
106688
517347
480090
476369
1.50923e+06
1.38631e+06
1.63398e+06
718311
599992
255307
438857
868211
1.65953e+06
78029.5
427929
252010
160807
547784
1.74803e+06
995436
851833
1.84683e+06
204822
1.01712e+06
2.16267e+06
1.09703e+06
2.02941e+06
179144
2.29091e+06
271077
1.52815e+06
551427
680534
155474
17446.8
174809
174593
29811.2
292279
1.55031e+06
222372
1.92022e+06
865630
316226
1.49659e+06
1.43705e+06
1.63247e+06
1.56781e+06
1.77003e+06
1.70036e+06
827139
799808
562737
545064
625901
421257
1.4099e+06
1.30466e+06
1.19819e+06
376471
438730
406091
198969
1.32933e+06
1.16253e+06
100378
224513
166236
188336
199889
2.20713e+06
1.85706e+06
488975
1.60868e+06
1.47875e+06
1.73909e+06
135279
809859
1.49699e+06
1.56618e+06
153671
143730
1.78447e+06
563327
190559
332136
386224
358778
205316
619523
573158
530506
2.08124e+06
2.69758e+06
1.99447e+06
1.42697e+06
701028
505135
211730
230795
349157
250233
153783
135587
263226
763987
610925
154312
1.62822e+06
1.89091e+06
796913
687172
198802
190012
167880
180283
528545
1.78347e+06
1.41099e+06
1.08985e+06
1.12179e+06
1.33778e+06
147389
168570
250489
149678
154120
347533
2.78672e+06
2.21343e+06
170782
211689
957929
826211
573016
1.77818e+06
1.9144e+06
1.50403e+06
1.64004e+06
956533
502294
431486
467003
214003
271000
2.04577e+06
553182
1.30758e+06
93552.6
1.89145e+06
172457
756278
879011
2.78547e+06
150823
780373
181493
730441
194481
459865
1.39578e+06
643773
1.61487e+06
1.05021e+06
1.76276e+06
1.9122e+06
907196
2.06284e+06
762690
619373
763159
619905
294419
906525
1.02381e+06
1.34038e+06
159031
258796
1.63237e+06
704844
2.56092e+06
2.07657e+06
2.32768e+06
418095
1.82971e+06
853445
667987
327508
249495
2.50988e+06
1.29452e+06
151288
2.71701e+06
2.3031e+06
78671.2
804921
657451
100166
1.0427e+06
848463
120423
215089
1.74621e+06
2.61106e+06
155232
932374
956603
1.90522e+06
1.84551e+06
675817
692567
675953
691626
162299
163001
162231
152547
124099
2.67887e+06
2.09679e+06
1.88459e+06
2.3784e+06
902278
484912
1.95652e+06
1.10266e+06
1.20356e+06
1.30718e+06
82531.5
1.9924e+06
349551
1.49696e+06
2.12891e+06
633762
447162
2.71573e+06
736173
772857
540025
569369
1.44949e+06
1.4004e+06
238507
233742
129669
153237
471480
1.71546e+06
1.5851e+06
1.45712e+06
719786
2.67686e+06
159579
326877
144356
1.43989e+06
1.57021e+06
920809
1.70197e+06
786529
1.85064e+06
664738
1.75842e+06
1.48739e+06
1.62192e+06
1.89404e+06
532663
945995
815521
665339
149941
212865
228041
298055
560456
475537
515896
2.22325e+06
1.04214e+06
1.27139e+06
2.04481e+06
238326
369447
153519
578818
810750
278324
389542
2.06235e+06
220842
146964
148786
151826
147733
93241.9
236764
184421
199165
1.78527e+06
2.10634e+06
182387
158623
203618
352180
770638
2.27035e+06
2.11649e+06
936266
155941
231040
1.815e+06
159472
159936
2.75575e+06
1.07259e+06
2.08725e+06
593203
1.41692e+06
903614
879096
241077
983073
1.50429e+06
728830
523609
204346
468039
155706
122813
140395
2.23446e+06
1.33737e+06
1.36436e+06
2.22294e+06
346731
371833
191291
704058
170204
152499
162459
446952
347874
35439
347619
24262.5
151018
1.38587e+06
420857
611522
1.29369e+06
1.19371e+06
1.09514e+06
217528
2.54637e+06
833544
488258
2.19919e+06
1.32079e+06
1.37193e+06
223429
21959.6
223206
23094.8
1.93944e+06
472054
816360
965041
890574
177852
2.06614e+06
491908
351570
1.13242e+06
870346
146227
47253.4
1.52221e+06
317373
1.5174e+06
390930
521007
956006
1.07184e+06
900425
192394
781971
321083
415552
196465
210965
741931
773717
256683
471004
161171
162384
1.24371e+06
625163
457835
170303
654702
16956.7
63473.1
654210
831116
671468
995225
1.18128e+06
133318
2.531e+06
2.63313e+06
333896
154869
173118
275477
302551
31299.2
302337
26969.6
1.34035e+06
459743
638984
2.45356e+06
2.49066e+06
2.12602e+06
1.91743e+06
1.16048e+06
1.02862e+06
984638
873314
2.07698e+06
301719
598022
213100
136951
152418
432755
608057
871301
2.42379e+06
2.44522e+06
307492
159928
806564
876146
292761
1.33012e+06
547637
447476
1.92515e+06
189272
171962
233250
1.30729e+06
1.31627e+06
1.38947e+06
881396
440282
616499
100022
102729
1.4966e+06
154208
1.33191e+06
171915
658375
1.0707e+06
938336
1.55412e+06
1.81797e+06
157077
210441
494782
2.16029e+06
10328.6
127767
37900.7
128432
347881
319090
100221
2.32202e+06
41383.5
2.19856e+06
572374
55480.5
17888
571945
379048
186003
21423.6
185947
482332
2.09621e+06
485957
2.28784e+06
2.64139e+06
76291.7
766974
905700
836138
1.07962e+06
519881
377791
1.15654e+06
722576
126136
284188
454861
324352
812361
1.07224e+06
298129
299404
2.53782e+06
925799
1.07486e+06
1.00049e+06
1.15506e+06
1.60707e+06
141918
160400
1.34489e+06
1.63285e+06
544024
313712
361520
183666
368896
549245
161935
287931
418934
159853
112014
1.47039e+06
1.71675e+06
334968
745844
581281
593259
1.83268e+06
839130
362437
277760
704715
577142
142396
424934
1.63336e+06
2.09694e+06
566376
393314
999331
1.18036e+06
1.08914e+06
94335.1
154374
410075
289648
1.55552e+06
564321
121606
59681.7
94269.2
551810
385454
967146
1.14221e+06
1.0541e+06
157754
2.25996e+06
2.58287e+06
173875
177935
169304
165163
2.26611e+06
455301
334622
968443
2.79864e+06
2.2462e+06
645731
221473
593808
548390
333450
311753
354701
196010
169554
170751
485594
2.19801e+06
124340
1.23659e+06
1.33941e+06
2.10018e+06
1.51603e+06
1.47961e+06
567739
559846
766020
778085
350061
398312
341669
153677
149419
901929
290435
2.04751e+06
1.42266e+06
361929
148716
870184
2.61295e+06
146882
1.41619e+06
1.17831e+06
1.12085e+06
1.46271e+06
994754
429384
600679
1.32332e+06
228863
965634
419122
469597
238449
479697
297240
387341
1.06243e+06
528088
220985
191258
256763
1.37043e+06
1.12516e+06
240726
229806
214867
247828
154670
721640
555554
136020
525744
157703
299767
486823
2.39109e+06
2.10514e+06
1.42851e+06
421591
296487
942858
874654
804940
378198
376653
181975
1.29373e+06
174745
742291
964568
278124
235875
2.13049e+06
119682
428670
399845
189351
2.2517e+06
117054
150088
642676
757303
225016
213652
236305
169718
159409
1.42834e+06
124000
175848
21870.2
175738
1.42733e+06
1.36357e+06
2.58238e+06
1.53218e+06
1.93586e+06
156441
1.99767e+06
1.3716e+06
19783.2
143594
341674
256456
583461
633660
683076
891799
503366
2.09554e+06
1.23848e+06
1.34237e+06
211239
138548
135242
156727
169158
179329
282824
1.19572e+06
143640
2.59688e+06
634554
258412
1.34957e+06
889556
450691
629359
287455
249642
355933
533767
345557
711075
643623
255607
159015