/*--------------------------------*- C++ -*----------------------------------*\
| =========                 |                                                 |
| \\      /  F ield         | OpenFOAM: The Open Source CFD Toolbox           |
|  \\    /   O peration     | Version:  2.3.1                                 |
|   \\  /    A nd           | Web:      www.OpenFOAM.org                      |
|    \\/     M anipulation  |                                                 |
\*---------------------------------------------------------------------------*/
FoamFile
{
    version     2.0;
    format      ascii;
    class       volScalarField;
    location    "3140";
    object      sigmaEq;
}
// * * * * * * * * * * * * * * * * * * * * * * * * * * * * * * * * * * * * * //

dimensions      [1 -1 -2 0 0 0 0];

internalField   nonuniform List<scalar> 
11800
(
175195
126239
570527
485015
122132
341363
164002
177662
189851
202803
173896
692629
89949.1
513857
439371
1.91142e+06
128498
128154
230705
140541
386760
625921
834897
747890
1.56555e+06
983285
1.01862e+06
505896
1.11089e+06
1.2044e+06
337239
119796
983864
133131
138871
324829
140654
1.04847e+06
139397
149099
1.05574e+06
1.15141e+06
531541
1.2493e+06
355716
1.78942e+06
798672
930282
164728
240955
726433
513142
137166
220545
2.03929e+06
1.68223e+06
67461.7
475722
370684
356314
1.67784e+06
150288
378011
311340
1.53524e+06
231937
747039
531133
67391.8
909137
140781
117561
113618
1.61067e+06
1.66135e+06
315840
1.60317e+06
219734
177647
181996
2.07358e+06
125173
122396
124805
124923
1.16073e+06
361680
1.06841e+06
978993
526841
135752
1.17138e+06
153340
64403.8
185744
153409
19881.4
153346
138283
609543
78985.8
671645
1.11177e+06
386481
146752
328065
181133
158215
1.63664e+06
1.07606e+06
1.16906e+06
986063
366739
534662
220571
1.47798e+06
216436
144408
1.38803e+06
209260
201870
165528
182933
140818
150539
135912
138218
137747
99668.8
29327.4
1.886e+06
1.25283e+06
392109
1.1632e+06
561047
1.06854e+06
978024
343563
995683
486691
914794
837545
503349
194473
241853
327170
1.19656e+06
1.22667e+06
699602
371234
205588
198002
137957
258331
236116
184984
465688
640074
1.27949e+06
143530
1.88054e+06
228875
1.63202e+06
470361
511506
554001
280410
213226
2.02773e+06
1.25795e+06
444363
610850
155522
366519
365179
1.78911e+06
1.80863e+06
952224
873044
1.03484e+06
466676
321079
249607
203167
441809
213930
332513
152555
171320
162222
238612
222522
211955
198981
905208
1.15141e+06
1.66743e+06
125529
219482
1.96212e+06
137902
282050
316085
142134
146747
833551
697701
640980
530770
1.88363e+06
577083
851204
2.56545e+06
2.13492e+06
2.17585e+06
338465
131152
818213
749445
688016
259448
370772
130131
129156
228456
137629
1.24229e+06
253096
139585
459770
210234
174125
138985
644173
657685
2.56121e+06
1.24037e+06
220250
230524
1.12956e+06
924659
321389
466177
1.03527e+06
955611
875880
145996
1.12423e+06
392798
539082
505298
153556
127512
404524
356722
146209
2.17269e+06
279518
321632
232254
267091
687776
749560
812503
369663
261432
140213
1.65041e+06
159400
84588.1
137332
406048
150409
530858
1.92849e+06
381721
378344
571267
414037
476524
347070
1.18116e+06
988136
315931
393873
252499
302412
545086
715719
265144
1.16002e+06
1.24438e+06
1.49792e+06
169569
377624
375347
1.72974e+06
1.74587e+06
1.03639e+06
1.02005e+06
1.05811e+06
1.04734e+06
134942
92172.7
286210
2.24594e+06
122974
129199
295788
244080
260613
905915
927307
1.55076e+06
2.17771e+06
678242
182652
865558
714883
500368
408477
164168
171456
256302
452969
238538
419062
125754
167509
162275
145117
1.23633e+06
162400
128624
1.80733e+06
303921
692134
763811
743931
939791
904746
105198
104133
626984
819264
566763
1.46864e+06
120005
809418
630215
412001
311703
307584
236311
314157
271825
359256
394272
425558
153896
138236
754443
800519
178037
218971
452121
381341
429240
196007
184044
229751
233776
879841
422202
312994
354113
1.05243e+06
1.22317e+06
340347
194762
184321
246238
229215
428398
497536
405611
476137
373508
438571
331157
313784
642345
324123
709984
1.22377e+06
612650
449522
1.99418e+06
134811
1.2853e+06
629747
458157
1.9187e+06
142824
1.31642e+06
326029
1.11212e+06
1.02639e+06
997181
185985
84675.4
124133
2.30367e+06
1.99193e+06
878537
314035
423381
175602
228183
259782
144154
204197
1.52364e+06
61477.8
540858
413759
1.68322e+06
106895
172503
147612
148045
146891
148688
1.68492e+06
561575
226518
645651
593828
545819
115981
1.25449e+06
408742
570338
163922
830838
181529
1.61184e+06
134454
192095
467678
430841
396580
842566
224234
468563
415970
220197
649369
707628
768525
369830
267099
64613.7
166501
184338
2.09196e+06
709258
559288
405613
333730
178937
149351
109478
109948
187988
98935
114356
123972
159394
319022
144984
187894
564504
678772
320376
1.49586e+06
196882
354404
149449
174296
1.44807e+06
1.88696e+06
585942
638135
235610
209347
119814
1.26817e+06
1.83161e+06
1.62034e+06
2.34747e+06
755097
527479
693396
119646
179211
165322
183875
687180
143105
141158
121552
173902
1.26645e+06
281119
1.27409e+06
765307
165055
211040
1.05097e+06
1.32001e+06
683138
744726
805521
365793
259766
621923
140513
141585
138282
157847
126309
183249
95351.5
176644
94677.6
174053
84478.9
169720
155906
162841
112454
1.45028e+06
225665
238664
532154
848783
118244
148896
128058
125086
111621
278635
401120
128806
127819
553966
118744
176446
1.57439e+06
79459.4
159304
490495
451129
472983
513095
526575
555888
259467
196180
1.81615e+06
2.25323e+06
463455
85779
329824
325226
353352
252181
754234
696241
638908
166755
83160
727566
682338
304141
336950
171132
581612
632819
222086
1.02399e+06
1.03668e+06
1.04886e+06
1.03988e+06
1.77704e+06
1.73888e+06
543715
2.13442e+06
764218
135728
1.49235e+06
1.29714e+06
1.41373e+06
719631
292140
316579
179923
1.51521e+06
496525
627778
2.25863e+06
202706
247518
495150
477242
1.25619e+06
648364
1.87748e+06
134594
131629
257872
366464
814929
747455
685935
1.72777e+06
147663
373912
804350
1.23042e+06
131895
2.02559e+06
1.89503e+06
1.95823e+06
227262
308185
118566
2.00233e+06
569467
232217
392681
1.87243e+06
143655
234540
249483
139573
462407
281217
2.302e+06
2.00512e+06
196265
567871
725807
277418
326659
245265
217228
615146
188223
559692
414496
1.06526e+06
934748
165055
1.22576e+06
139326
382914
470231
1.64474e+06
309846
421154
235811
195988
179512
209382
398354
930785
1.02569e+06
137788
133784
134285
178039
332696
1.24298e+06
113594
424949
766030
596187
216224
1.01635e+06
1.12691e+06
729085
1.22888e+06
1.33446e+06
550114
361860
156493
184102
344732
367690
319903
352796
186605
325188
380339
224731
139113
2.3311e+06
995280
373131
502680
465138
226499
401365
584642
1.2647e+06
1.16309e+06
1.06481e+06
328290
387464
195445
207320
1.45145e+06
1.0751e+06
1.23546e+06
149513
194966
273272
639456
1.42711e+06
453884
91365.1
150863
2.12562e+06
1.99811e+06
238050
1.8304e+06
112121
157776
118830
691100
125909
217736
243316
1.27708e+06
1.3926e+06
1.51133e+06
1.63456e+06
733207
624535
519472
410573
187578
133264
403016
2.00279e+06
142177
139199
150402
144272
149289
155400
161321
1.55156e+06
784289
795898
467429
868821
945971
331537
1.11045e+06
266056
221742
148069
2.10155e+06
139189
164157
157841
164516
138909
1.91241e+06
267628
265252
1.03461e+06
334439
706482
253773
1.94765e+06
847997
420881
315868
1.31366e+06
467041
182738
154563
137697
133982
228417
252757
241116
174030
476131
155249
136048
821930
919041
119733
583576
837955
711386
963742
1.8116e+06
1.67212e+06
1.53469e+06
1.39893e+06
583213
710436
1.81562e+06
1.67575e+06
836972
1.53839e+06
963468
1.40208e+06
1.62651e+06
154705
134022
146452
237484
515087
1.13802e+06
140628
428170
583823
463745
635823
190539
244004
423246
617073
1.32674e+06
1.22015e+06
1.11676e+06
529543
393848
995119
203696
256840
165366
331797
307792
279758
568543
445089
457362
340269
132806
694158
191913
348049
429006
1.06719e+06
575491
672905
549742
200898
259276
183172
161854
154582
176201
598655
506859
141948
210159
227890
465533
1.39812e+06
455214
636787
489681
157984
218123
205018
188937
256813
187287
618724
568926
519022
205100
1.52413e+06
700332
215903
934857
628484
1.34262e+06
1.84005e+06
226571
252885
212732
147841
155498
743249
632767
1.91507e+06
130871
182626
349701
514276
225017
141408
750140
742078
61872.1
137382
362537
294450
91680.4
1.67142e+06
1.83881e+06
299351
122865
272685
381324
813618
685790
747955
2.10054e+06
136195
588295
662369
164644
606251
740332
873062
1.00371e+06
1.89699e+06
1.75167e+06
1.60797e+06
1.46647e+06
605782
739220
1.89988e+06
1.75372e+06
870885
1.61033e+06
1.0027e+06
1.4683e+06
1.78318e+06
1.53701e+06
1.15933e+06
483692
551819
1.53614e+06
1.14735e+06
336039
121866
116832
1.14571e+06
2.02457e+06
153865
415859
1.67632e+06
1.14369e+06
1.84073e+06
1.87672e+06
1.18668e+06
1.19038e+06
545580
433832
565850
247718
181002
302335
157578
188926
228136
194292
413730
1.96084e+06
565186
195214
119347
364088
390768
1.77968e+06
369522
334112
421392
447599
1.15151e+06
539692
391133
1.49177e+06
418577
542919
198661
166463
378949
326746
353255
881148
565657
548626
1.33418e+06
1.27613e+06
542213
571791
1.00812e+06
1.0831e+06
405169
423982
137826
183401
191972
552098
429208
75876.6
164279
187802
647008
616699
332148
643621
498324
199383
123969
124507
517908
1.24023e+06
125246
1.83828e+06
264760
734130
673611
210697
262670
438978
149278
129532
1.55889e+06
390430
1.00769e+06
928523
851599
313220
453215
164999
1.42174e+06
1.85845e+06
173848
146091
1.02048e+06
371378
505215
873378
952197
1.04514e+06
317398
457453
62558.3
750979
386403
1.85072e+06
318153
1.06738e+06
876258
982782
141829
143613
145222
155508
155005
137672
1.53986e+06
473306
179660
209419
230864
259905
321077
356370
731505
708721
674661
651470
598853
619140
1.08569e+06
166273
139665
136570
180958
208046
148278
166265
1.28944e+06
263370
479666
403960
1.04342e+06
545364
193442
202110
449600
349099
618874
506777
1.25162e+06
1.09495e+06
1.008e+06
923291
513701
1.44378e+06
707825
1.44944e+06
255053
213438
275065
268730
188586
173740
186313
1.46697e+06
1.92085e+06
338006
116523
251677
566097
438588
125822
152857
250904
236976
243481
227250
297645
280379
212818
479725
532665
518833
576166
439263
488480
546877
132755
1.17967e+06
933776
496225
1.19884e+06
1.12672e+06
657425
1.91962e+06
359806
341750
387901
416460
192096
160481
173555
364911
145650
1.59571e+06
210901
142831
786307
59851.7
118799
1.59698e+06
183483
407327
1.29937e+06
595182
1.19565e+06
1.09484e+06
1.4397e+06
957381
156466
599144
479490
205262
1.3504e+06
612910
209901
1.11941e+06
1.01895e+06
1.21956e+06
137882
140347
157935
2.31948e+06
276622
427629
521768
239717
141381
138795
412766
446723
178183
1.59899e+06
416572
1.59912e+06
244369
796325
139075
629295
753755
1.00538e+06
402005
539566
646768
264755
2.26054e+06
165347
118107
142040
1.93443e+06
1.27407e+06
317028
464251
1.05631e+06
976477
895427
1.99116e+06
600615
487237
2.00171e+06
2.25849e+06
1.55204e+06
85880.2
534230
1.31271e+06
982210
532697
397880
980446
874584
404870
1.34197e+06
324108
269203
501178
440733
337678
1.56996e+06
2.37865e+06
125702
138836
163087
2.2785e+06
159272
184190
694392
531946
2.02065e+06
2.11664e+06
138224
598868
210426
199558
495405
213886
130168
535349
129531
146948
2.38991e+06
1.03237e+06
571245
428044
385306
277793
782737
721436
660866
209429
2.14084e+06
421152
380049
426311
1.79411e+06
727023
1.0634e+06
148283
232187
175092
802740
484353
644878
126554
277625
377323
803111
283135
185147
159386
312242
1.99614e+06
286610
385403
795676
1.2908e+06
1.82445e+06
1.22181e+06
838575
652871
772846
82738.2
231148
317910
678203
624818
574021
1.82301e+06
145623
186509
200058
199693
200160
195765
284562
138837
139335
651718
1.64346e+06
460189
1.02143e+06
940428
862572
318029
1.85816e+06
587230
668466
799438
688976
1.1341e+06
1.81647e+06
548930
148072
712222
119349
845231
506972
923027
1.00524e+06
361744
1.173e+06
290077
2.47185e+06
844753
140831
1.69097e+06
2.47746e+06
2.13319e+06
501641
136935
950157
165468
154345
117546
270262
149676
152403
132891
137513
1.53336e+06
1.60949e+06
139700
1.06489e+06
173859
164778
138226
223557
1.08957e+06
1.09603e+06
252158
1.10902e+06
1.11266e+06
1.44946e+06
477765
180669
223130
302905
606836
659713
226458
60180.4
158342
731105
341803
831406
935768
1.02409e+06
1.11479e+06
571697
404593
301987
169705
147868
1.85149e+06
1.01795e+06
130837
212863
902453
703524
380713
412978
193479
170395
315109
278858
116780
212938
149414
1.55122e+06
595468
1.45153e+06
140795
133576
2.47934e+06
135740
1.92174e+06
1.89366e+06
139077
876658
439065
1.52291e+06
152294
825268
953358
2.07841e+06
231165
148235
128008
470631
223047
301314
606324
554767
509170
152485
128132
173503
164856
1.0653e+06
1.17397e+06
802128
1.37436e+06
1.26093e+06
1.46308e+06
2.10137e+06
262500
670034
2.00139e+06
596403
1.88912e+06
886343
966327
1.05055e+06
464242
317166
393483
464052
1.7507e+06
162538
187321
272758
258336
240487
179906
358724
330551
309510
767137
780484
2.32944e+06
254657
123811
171748
1.84826e+06
529725
284484
274288
1.80436e+06
921614
636370
108266
195416
127944
907686
1.15868e+06
296474
1.31899e+06
182444
177277
2.40438e+06
1.57795e+06
1.9323e+06
371165
490249
863365
275526
675947
1.9981e+06
2.12515e+06
179775
206699
345193
283243
985070
1.09984e+06
750928
846068
2.21697e+06
2.0553e+06
262889
178085
107832
1.4608e+06
123685
1.92601e+06
388396
289906
1.03363e+06
328611
139785
1.79571e+06
206663
264450
108706
128578
1.33944e+06
454687
143808
723346
342249
192088
145229
129719
661108
130818
1.82783e+06
1.65529e+06
299985
806826
458931
141748
157216
1.41959e+06
173910
951970
244732
522855
1.08605e+06
1.24135e+06
1.74458e+06
189194
302019
1.91172e+06
239787
154168
142226
167660
132474
1.96462e+06
1.52313e+06
347864
476224
831360
825777
1.09001e+06
381902
522354
379139
548211
1.17224e+06
1.07884e+06
987833
1.55857e+06
726699
520095
1.51995e+06
523575
1.65319e+06
614165
673535
1.81865e+06
2.47625e+06
2.11399e+06
409745
408326
1.12813e+06
532716
388343
135703
343222
1.7549e+06
150787
174253
2.22731e+06
1.66268e+06
1.92645e+06
874738
1.08513e+06
1.09482e+06
944706
126049
117896
177273
120442
679485
740000
805365
373921
264357
583393
1.95243e+06
150202
200384
168513
156361
989170
894185
187316
1.73485e+06
1.96832e+06
1.14334e+06
932661
1.5804e+06
1.82014e+06
121950
873191
555725
1.20448e+06
162592
256033
274074
1.54448e+06
1.53869e+06
715773
355841
117039
139297
225769
473484
1.6212e+06
216322
1.24054e+06
150005
357721
245975
323590
556376
287078
443758
43097.5
12455.7
443009
2.31695e+06
200717
166850
169990
134562
125662
180379
187041
137118
140317
509838
135789
147785
180634
952961
1.17615e+06
845083
1.62549e+06
2.06093e+06
146508
200182
373164
166146
1.46066e+06
211510
2.15747e+06
231066
298668
578003
425908
229400
235732
547173
131869
153944
190957
124065
183180
121285
1.90292e+06
109912
155434
277076
125065
95648.6
1.83807e+06
203472
1.58821e+06
1.68358e+06
611580
399056
317440
459086
1.03509e+06
963425
883504
134174
1.14816e+06
601564
131652
1.96386e+06
138811
144770
360631
1.07623e+06
848162
942408
1.30691e+06
189407
146225
403118
595353
1.30528e+06
691761
1.41428e+06
499320
1.20075e+06
1.09973e+06
398040
1.40463e+06
492949
1.29159e+06
584835
1.18886e+06
1.08868e+06
681513
1.43282e+06
182022
585893
455830
149917
188437
1.5966e+06
981417
1.33136e+06
1.23787e+06
1.08018e+06
1.33901e+06
986024
376400
412903
610518
1.47823e+06
148384
2.21509e+06
180431
147323
1.67333e+06
196906
308751
611666
609488
1.80697e+06
114921
1.14015e+06
1.05063e+06
962589
351311
513874
2.2147e+06
369927
284725
660070
175060
690234
318486
341094
125723
198350
207017
179376
524243
125361
646621
347061
264357
875405
1.16757e+06
1.17362e+06
875047
430283
2.08577e+06
138038
138921
1.86683e+06
1.69142e+06
1.02476e+06
2.46587e+06
1.08931e+06
938346
981376
2.19229e+06
1.07726e+06
860044
1.94634e+06
418979
439239
643789
1.71154e+06
112680
1.46547e+06
175038
256368
393574
659222
719034
781440
382332
274798
447731
76707.8
82060.6
147978
155936
212621
175926
142199
194866
1.08223e+06
1.99299e+06
237396
179283
1.83665e+06
1.31795e+06
518947
702719
147542
154999
1.59488e+06
1.05844e+06
228593
838063
785293
1.05671e+06
131257
147101
154204
133052
1.24079e+06
2.01666e+06
1.97549e+06
1.33829e+06
2.14188e+06
270866
123844
347295
1.05353e+06
965432
1.14482e+06
519511
354016
2.24197e+06
488851
614908
804132
263673
226161
937917
333626
171886
707922
270204
348044
2.08659e+06
356293
315813
1.10789e+06
1.02115e+06
936636
471223
1.42083e+06
1.33683e+06
1.75221e+06
546462
566137
715795
1.4895e+06
702314
504681
1.32384e+06
255986
2.47558e+06
166688
1.88991e+06
502155
574930
136949
610886
1.16858e+06
145232
169340
164550
2.18624e+06
635169
581311
687824
339452
246709
315189
615626
1.43078e+06
622023
1.21415e+06
1.43725e+06
1.32505e+06
416080
1.34194e+06
1.01783e+06
1.07841e+06
1.27668e+06
1.34332e+06
1.01884e+06
1.08806e+06
1.28562e+06
743210
628107
48669.9
302101
186828
426685
627973
523313
727717
1.47322e+06
1.36147e+06
1.25222e+06
1.14662e+06
422100
1.17803e+06
578818
165267
115005
121020
205548
110350
501179
1.18491e+06
1.2127e+06
433006
2.01937e+06
169597
151224
1.5761e+06
1.95689e+06
100732
1.24113e+06
489304
661159
923113
523862
330965
150872
489844
707941
69206.5
141057
2.04522e+06
271188
205778
492559
452561
534149
346028
139015
144404
353417
1.23513e+06
1.91959e+06
2.22265e+06
338804
376324
1.5868e+06
1.43052e+06
1.86602e+06
120344
1.04544e+06
1.81649e+06
2.23584e+06
2.30686e+06
2.2487e+06
579922
1.01117e+06
434747
2.11196e+06
1.58735e+06
647992
1.37627e+06
155550
140506
1.6383e+06
1.64018e+06
141471
443774
2.04828e+06
1.71431e+06
1.62783e+06
1.68459e+06
2.31632e+06
1.57001e+06
2.02538e+06
1.75668e+06
156950
278218
1.28919e+06
622890
1.05933e+06
223756
148814
188344
173924
161391
209779
187357
437009
2.02955e+06
1.23295e+06
430662
593870
1.32056e+06
175614
612775
430151
2.37098e+06
328097
316979
590049
334339
546381
241231
190531
1.9295e+06
15836.7
154748
154451
31836.9
471609
513963
184127
201960
215325
152171
550321
535400
135423
2.05346e+06
1.7551e+06
621588
1.31636e+06
447969
130572
1.53618e+06
339477
2.04125e+06
558066
682181
805767
928529
1.77e+06
1.63578e+06
1.50177e+06
1.37191e+06
557209
680247
1.77115e+06
1.63589e+06
802930
1.50225e+06
926003
1.37145e+06
308920
238192
578165
623691
549645
261725
215825
185048
150790
141551
158327
136024
141854
238606
949971
1.02026e+06
905711
507458
986966
1.08772e+06
1.69643e+06
714031
574926
1.81889e+06
607228
208442
129033
179108
149354
286760
263295
267330
146702
389262
306288
391592
800567
145897
212233
964243
156607
117022
144474
123781
1.42815e+06
172562
204531
668795
533524
265562
669188
220009
132411
120690
2.16141e+06
2.21886e+06
1.32962e+06
1.088e+06
1.06032e+06
1.35191e+06
2.16991e+06
1.11962e+06
135095
722168
400068
307259
442135
213202
2.0695e+06
225549
1.20783e+06
1.11437e+06
1.0213e+06
536690
365026
634229
369241
282591
2.09121e+06
239789
135228
686195
685055
309494
196404
237706
399273
824667
1.56288e+06
648137
516317
974958
1.2696e+06
343992
499692
1.09003e+06
1.00273e+06
918685
517166
557344
909053
742805
1.04524e+06
555088
1.15011e+06
1.25378e+06
363807
1.3613e+06
2.45613e+06
1.735e+06
120344
822687
898989
978567
302547
207343
1.48825e+06
257142
337689
422223
462230
197205
250917
204621
162517
1.40671e+06
1.07859e+06
1.13206e+06
1.35651e+06
319449
1.73804e+06
2.15505e+06
794826
142541
807889
881834
960144
906507
1.05821e+06
295068
1.68963e+06
740310
680478
622702
738500
268162
370932
216246
201539
463702
547772
503962
578305
631153
686011
418588
415047
595460
598319
1.21559e+06
1.20934e+06
1.02178e+06
1.11689e+06
1.01617e+06
1.11114e+06
605614
659546
237672
151573
171102
201293
1.22648e+06
773975
141989
1.23106e+06
1.02087e+06
977670
1.26783e+06
205146
442836
1.59424e+06
670203
1.46854e+06
1.34622e+06
112625
264713
1.10375e+06
647788
459546
1.46268e+06
515567
73823.7
1.11432e+06
1.02158e+06
1.21147e+06
541250
367238
1.50853e+06
575937
466494
1.99936e+06
578284
816947
197435
148187
335602
313354
286643
1.70118e+06
419671
285711
480124
441168
518333
260952
200467
1.12796e+06
1.26841e+06
204968
721263
154811
974895
1.95202e+06
1.22827e+06
593266
445211
1.06509e+06
541727
483542
399067
262737
166590
405124
200411
490555
199134
339083
144777
160686
2.0464e+06
409039
1.73254e+06
987092
1.06374e+06
574180
430036
1.02744e+06
1.86378e+06
122651
148675
152202
144619
369852
35782.4
11839.3
369226
773937
144479
814916
361901
254932
171103
540511
754215
1.58584e+06
133068
107005
171057
197609
425327
273609
1.06775e+06
951467
233061
153408
125055
2.07294e+06
774040
134406
302494
149638
2.3708e+06
1.92003e+06
302064
225184
834194
403435
570985
1.12768e+06
946936
1.03584e+06
2.22151e+06
1.76664e+06
148913
1.65995e+06
2.24432e+06
1.74737e+06
1.94039e+06
841891
173825
1.13526e+06
275816
173658
212112
414209
448870
330488
328470
748995
245341
168729
129353
1.09264e+06
1.3266e+06
1.44638e+06
1.56949e+06
1.68277e+06
748433
639033
527811
416115
263362
125667
521571
24232
256191
255743
13161.1
561028
280911
221435
93178.8
351555
399023
140763
362692
1.09221e+06
839762
579524
410799
469037
2.04633e+06
1.5679e+06
208025
671888
139814
149852
570142
672183
700342
1.39369e+06
402221
439900
145551
1.84865e+06
154082
322442
376179
350651
1.3321e+06
1.45162e+06
751746
814942
813613
569392
732099
1.37877e+06
1.31258e+06
1.30898e+06
449429
621682
116676
129056
120890
280212
134279
608760
1.26501e+06
1.12317e+06
1.37656e+06
1.00437e+06
1.38681e+06
1.00311e+06
683211
460347
1.21359e+06
888460
1.21551e+06
891463
295184
1.34696e+06
1.12425e+06
984838
1.28299e+06
1.13563e+06
1.4007e+06
1.01813e+06
1.40103e+06
1.01733e+06
1.27739e+06
2.37384e+06
512438
718470
1.52876e+06
563597
141803
152601
238073
23552.9
237648
20829.5
140203
434137
1.34568e+06
1.23316e+06
1.4624e+06
646958
448815
2.09862e+06
73467.2
134422
267598
912950
298174
823093
404075
2.13675e+06
2.15583e+06
1.29381e+06
154941
285015
1.45087e+06
765889
614056
421568
761474
697347
826443
289927
404256
2.19757e+06
515866
1.95424e+06
141473
139350
134304
140181
96994.3
1.92973e+06
158090
1.41495e+06
94793.7
1.03369e+06
1.32311e+06
158128
143317
202428
592175
212295
497383
456884
336184
364121
394457
170571
361399
487427
603262
406311
1.37456e+06
1.26752e+06
1.16138e+06
1.4445e+06
1.93272e+06
2.13306e+06
128520
126529
128034
139856
281151
166068
303332
2.13982e+06
2.18493e+06
2.17883e+06
1.67533e+06
66163.2
1.15856e+06
1.99204e+06
1.34702e+06
1.06127e+06
1.08403e+06
1.32928e+06
658036
588164
1.17813e+06
770772
1.39907e+06
106080
252284
320214
617789
254412
250259
285749
194028
223591
164039
190697
430864
433939
471196
468858
508608
509230
598403
590965
145045
143376
559063
362802
113650
212431
836040
1.40173e+06
145553
835556
1.80759e+06
555625
1.7174e+06
781846
220060
1.60825e+06
843721
709060
1.12398e+06
1.92538e+06
2.30885e+06
906865
382025
1.94525e+06
277658
204561
175691
434266
97482.2
819867
1.42839e+06
368042
558513
226853
140197
242091
2.09209e+06
371646
432889
418186
310216
888241
278667
221657
884944
195062
1.89359e+06
152774
1.11978e+06
412492
447926
1.75523e+06
1.48328e+06
895404
1.61939e+06
1.75947e+06
767356
1.90108e+06
641141
512207
1.48257e+06
1.618e+06
1.90271e+06
1.75836e+06
513923
770450
898794
643158
1.93413e+06
192882
1.51807e+06
166701
117804
147298
8717.29
66350.4
827807
90148.4
1.46036e+06
299181
224974
561466
607015
515818
438413
283733
1.26239e+06
282366
303151
1.1457e+06
101966
445452
412444
409201
1.29307e+06
1.18531e+06
1.4049e+06
614226
529214
223101
379908
741082
1.45813e+06
75523.8
368705
220541
143380
481078
1.54446e+06
866807
745875
1.62615e+06
187353
887796
1.8983e+06
958059
1.76928e+06
159862
1.99103e+06
238423
1.33244e+06
473378
584266
142861
15324.6
153723
153392
26208.8
254567
1.36551e+06
194054
1.66306e+06
758463
273559
1.28107e+06
1.22992e+06
1.4003e+06
1.34461e+06
1.52297e+06
1.46276e+06
706118
682782
482574
467572
535491
362524
1.21464e+06
1.12097e+06
1.02711e+06
324742
380312
351073
176873
1.13662e+06
991735
96566.6
196811
148001
168416
177419
1.93622e+06
1.61565e+06
419772
1.37907e+06
1.26498e+06
1.49568e+06
127631
717568
1.30926e+06
1.3611e+06
143543
134591
1.57022e+06
501845
172838
285107
332499
308670
181231
535905
494339
456913
1.79692e+06
2.36939e+06
1.73947e+06
1.23085e+06
599795
433304
186499
203098
302141
218232
142657
128159
228026
654761
522067
139891
1.43593e+06
1.66159e+06
681131
599243
176946
171059
152900
161327
464513
1.56804e+06
1.20652e+06
928821
957045
1.14132e+06
136642
150189
224459
136567
138422
299877
2.4502e+06
1.94385e+06
150748
187505
817909
705871
491509
1.52744e+06
1.65037e+06
1.28539e+06
1.40427e+06
841335
433377
370869
402490
189985
235435
1.79246e+06
474456
1.13922e+06
87135.9
1.6635e+06
152865
646911
750426
2.44662e+06
137651
666404
163257
623903
172607
394504
1.20776e+06
549088
1.38142e+06
895305
1.51118e+06
1.64426e+06
774566
1.77984e+06
652209
531254
653802
531780
253834
774013
875042
1.14349e+06
142591
230112
1.41851e+06
616417
2.2419e+06
1.82563e+06
2.046e+06
369691
1.59621e+06
752341
578553
282561
216498
2.18299e+06
1.13555e+06
135824
2.37419e+06
1.9967e+06
69178.7
687595
562735
87731.3
924692
737757
114118
186913
1.54234e+06
2.28092e+06
142593
795311
816065
1.64468e+06
1.59284e+06
578221
592614
578957
593299
146649
147815
147092
138711
110366
2.35533e+06
1.82457e+06
1.65274e+06
2.08501e+06
783553
416585
1.69003e+06
941750
1.03003e+06
1.12121e+06
79687.5
1.74404e+06
302575
1.3045e+06
1.87125e+06
552994
386769
2.37525e+06
628348
659710
462512
488022
1.25102e+06
1.20906e+06
213431
210288
117943
140107
406434
1.47791e+06
1.36135e+06
1.24806e+06
616340
2.35129e+06
145901
281723
129164
1.23282e+06
1.3472e+06
785214
1.46453e+06
671323
1.59778e+06
568343
1.51035e+06
1.27104e+06
1.38863e+06
1.63266e+06
456492
808018
696976
570525
137628
190200
202080
259162
482373
407518
443314
1.93239e+06
889059
1.08457e+06
1.78937e+06
211413
319366
139795
502133
699524
242147
335836
1.81538e+06
193413
135136
138778
141420
135812
89343.2
216024
165364
178818
1.55345e+06
1.8377e+06
162868
141098
178571
309653
672104
1.99159e+06
1.85431e+06
830004
145118
200575
1.5795e+06
146073
147550
2.41685e+06
929737
1.81953e+06
507065
1.23123e+06
772669
760132
212840
871029
1.29795e+06
623251
448743
179708
408832
141187
107374
127480
1.96152e+06
1.1418e+06
1.16356e+06
1.92483e+06
301948
324156
170512
610716
153182
138978
150321
382994
305912
31129.8
305407
21327
139490
1.21003e+06
362173
523584
1.11097e+06
1.02218e+06
935736
190348
2.21893e+06
735328
420234
1.90182e+06
1.126e+06
1.17226e+06
196485
19288.5
196110
20303
1.68557e+06
421511
697949
829034
763577
157670
1.81927e+06
421004
303155
967170
742403
134635
41542.6
1.33144e+06
275260
1.33281e+06
336592
446199
824269
916220
768609
168995
676825
278534
357149
174326
187329
643601
670620
223312
403458
143804
144987
1.07286e+06
535469
393619
154581
575761
14901.5
55756.2
574798
710131
574032
849301
1.00825e+06
120286
2.2157e+06
2.31016e+06
288351
142370
156385
240739
266060
27493.5
265629
23707.1
1.15712e+06
394557
546972
2.15256e+06
2.18445e+06
1.84657e+06
1.68318e+06
991108
878142
840263
745874
1.82441e+06
262078
517401
188221
124325
138919
371579
520035
743798
2.10239e+06
2.12381e+06
266402
138300
692794
754185
255042
1.14876e+06
469292
385327
1.69299e+06
168885
156388
207798
1.11583e+06
1.12164e+06
1.18756e+06
752762
377897
527398
94937.9
96044.3
1.30163e+06
136961
1.15062e+06
148257
562591
914343
801268
1.34555e+06
1.57351e+06
144784
186608
426316
1.86754e+06
9070.29
112357
33323.9
112838
301293
278034
95244.9
2.0396e+06
36381.4
1.93314e+06
503363
48735.3
15720.9
502523
326728
163560
18819.2
163362
415700
1.81182e+06
417941
2.0108e+06
2.30638e+06
67075.6
655886
778319
717102
932344
445708
324982
1.00415e+06
639070
111526
247056
389444
280009
692779
917653
257866
258914
2.21764e+06
790537
917111
856022
987921
1.40688e+06
132089
140689
1.17724e+06
1.4352e+06
484568
270339
310978
162153
323644
472023
148868
250578
360951
146180
102143
1.28578e+06
1.50422e+06
289145
637756
497837
509233
1.58458e+06
716841
311582
242510
611413
510628
128293
365125
1.43684e+06
1.83061e+06
485178
338998
853924
1.01378e+06
932832
90728.6
139593
353122
252323
1.36352e+06
494407
111250
54143.8
82887.1
473574
333204
826316
980785
902723
144487
1.98375e+06
2.2632e+06
158821
156547
148607
144650
1.98048e+06
390935
290916
839282
2.44836e+06
1.97086e+06
553306
196212
512779
472271
289860
270178
308875
173400
153755
153847
418254
1.9309e+06
117341
1.05562e+06
1.14333e+06
1.81703e+06
1.30886e+06
1.27733e+06
487180
480212
654618
665003
308374
342025
295728
138257
137135
770921
250954
1.79214e+06
1.23594e+06
312335
135903
769611
2.29461e+06
133997
1.20952e+06
1.00588e+06
954896
1.24937e+06
863675
370017
513511
1.1455e+06
202358
836240
360996
403417
208667
430880
256908
333485
916999
453103
195170
169727
223758
1.16897e+06
959741
212128
202172
191304
218770
141827
617981
475310
128015
450520
145618
258727
416915
2.09809e+06
1.84733e+06
1.25772e+06
362747
259199
811518
750197
688680
328018
328604
157303
1.13662e+06
157126
632805
826077
243243
217193
1.87409e+06
108073
368552
343405
167320
1.97342e+06
105052
140425
549239
648300
198062
187429
208341
151403
145378
1.25619e+06
117213
154622
19211.9
154385
1.25418e+06
1.1885e+06
2.24935e+06
1.35424e+06
1.70123e+06
145536
1.75763e+06
1.19586e+06
17379.4
126142
295064
224924
502301
546243
590341
775439
432858
1.8107e+06
1.05563e+06
1.14752e+06
185132
124734
121222
140333
154396
160522
246274
1.04643e+06
126297
2.25861e+06
555167
223075
1.16568e+06
759866
386851
538516
249946
216295
307565
465309
299425
619548
564571
222969
146388
793299
1.11525e+06
100052
107875
195004
115697
120067
1.70282e+06
444686
327851
951640
1.6463e+06
449786
322252
799176
680694
738372
624163
361121
261169
148238
10222.7
80901.9
764427
629644
897034
1.87722e+06
1.58827e+06
1.73109e+06
629846
762673
1.88218e+06
1.73499e+06
895792
1.59192e+06
208194
420844
349970
348602
133422
234088
207274
614774
295938
229631
280391
493701
1.37194e+06
678628
147842
246031
137397
150215
263887
409314
132631
136827
142587
992549
367606
489063
329328
431241
894190
760847
921765
738279
1.25008e+06
377487
214898
306126
794541
600027
282875
386065
551510
147810
309844
186702
180079
641533
644250
227066
809105
243965
263524
1.43243e+06