/*--------------------------------*- C++ -*----------------------------------*\
| =========                 |                                                 |
| \\      /  F ield         | OpenFOAM: The Open Source CFD Toolbox           |
|  \\    /   O peration     | Version:  2.3.1                                 |
|   \\  /    A nd           | Web:      www.OpenFOAM.org                      |
|    \\/     M anipulation  |                                                 |
\*---------------------------------------------------------------------------*/
FoamFile
{
    version     2.0;
    format      ascii;
    class       volSymmTensorField;
    location    "3140";
    object      sigma;
}
// * * * * * * * * * * * * * * * * * * * * * * * * * * * * * * * * * * * * * //

dimensions      [1 -1 -2 0 0 0 0];

internalField   nonuniform List<symmTensor> 
11800
(
(135579 71283.5 6.54008e-14 -2637.58 3.46513e-14 32985.6)
(-67883.3 63968.2 1.00398e-13 -950.966 3.18485e-14 -17079.2)
(610225 88927.2 -1.64787e-15 1348.9 -7.27395e-14 151744)
(-531024 47010.9 0 -1057.45 0 -132020)
(-70219.8 61667.9 1.87317e-14 -5474.85 -5.29366e-14 -18781.4)
(-332482 92241.7 7.27001e-14 2358.35 3.81416e-14 -81910.5)
(-61612.1 89179.9 1.37416e-13 -598.726 -3.57409e-14 -15435.8)
(-86735.2 91884.4 -2.0467e-14 967.019 8.23669e-14 -21280.8)
(188407 49273.5 2.74277e-14 445.849 -1.87419e-14 46858.2)
(127921 96481.7 -7.05425e-14 616.524 -5.94334e-14 31892.8)
(156619 59414.4 -5.45583e-14 1419.99 4.67128e-14 39212.8)
(-770032 34583.3 -6.52978e-14 -5875.07 -2.96354e-14 -192518)
(21968.9 -31923 1.19146e-16 -59234.5 9.25915e-17 -9246.35)
(565417 47393 5.92229e-14 3548.36 -1.62139e-14 141172)
(-452801 86334.1 -4.9368e-14 6232.65 3.83879e-14 -110803)
(2.1133e+06 -6412.5 0 -7064.57 0 522600)
(-40304.8 70649.3 4.65021e-14 3708.44 4.10191e-15 -9080.3)
(-62087.3 64807.6 -2.62445e-14 7525.17 1.50771e-13 -13538)
(130103 109870 -2.69084e-14 -16852.9 1.91377e-14 28099.7)
(97316.3 59207.4 -9.38844e-14 -10756.6 -3.03732e-14 21477.2)
(-417483 53231.6 2.92366e-14 -1213.12 3.06451e-14 -103887)
(-673412 81214.1 4.67794e-14 3350.69 -2.72049e-14 -166256)
(-893796 105115 -2.37531e-14 11377.8 1.52942e-14 -218946)
(-820208 61915.1 2.40013e-16 534.153 4.13312e-15 -203378)
(1.72274e+06 77481.1 2.94379e-15 -7920.45 3.43587e-14 425480)
(-1.06487e+06 104542 -2.33137e-14 7933 -6.68379e-16 -262249)
(-1.11609e+06 54951.7 0 9908.3 0 -274465)
(550575 41945.1 -7.74976e-14 -5353.82 -4.68113e-14 135280)
(-1.21764e+06 56226.7 -1.34449e-14 11035.1 -6.44894e-14 -299383)
(-1.32002e+06 56999.3 1.78717e-14 12869.6 -2.78168e-14 -324330)
(362412 44594.4 -9.60259e-14 -1852.54 -1.72138e-13 89462)
(72297.1 58720 -1.55498e-14 2518.28 -1.28741e-14 18563.2)
(1.08407e+06 100575 -3.79774e-15 12389.6 -1.66599e-14 272053)
(-27132.1 75683.2 1.25596e-14 -1635.48 -9.40573e-14 -7137.81)
(18696.2 79712.7 -3.32118e-14 2617.68 -1.426e-13 5288.4)
(-354318 33933.5 -8.71922e-14 -126.27 -6.33515e-14 -87944.9)
(20401 80611 1.1796e-13 1868.22 -1.40323e-13 5525.44)
(1.16214e+06 59272.2 -1.39481e-14 6195.67 -5.98393e-14 289887)
(-42010.7 77685.1 0 -1942.79 0 -10905.7)
(93039 72693.4 -4.07247e-14 5379.62 7.58737e-14 24419.7)
(-1.17278e+06 41560.2 -7.24344e-14 -5867.89 -3.36773e-14 -292447)
(-1.2794e+06 41272 5.19084e-14 -6203.93 -2.97939e-14 -318985)
(578552 55692.1 -2.98812e-14 -1199.18 -9.95153e-14 143253)
(-1.38684e+06 41777.2 -9.92137e-15 -4728.87 -5.27714e-14 -345275)
(380878 55404.6 2.55246e-13 1302.48 -7.96409e-14 94826.7)
(1.97582e+06 49489.3 0 -7026.28 0 488499)
(854873 114757 -1.50166e-14 -3314.5 7.87329e-15 211289)
(1.01873e+06 43298.5 -2.6492e-14 -11083.9 -1.84223e-14 250017)
(-97789.1 80294.6 -1.01192e-13 110.815 -6.23597e-14 -24236)
(224718 76694.6 0 2165.5 0 56294.5)
(-798465 45909.8 -4.89002e-15 2525.49 5.19393e-14 -197489)
(-559811 43401.6 1.69677e-13 3551.55 1.98873e-14 -138019)
(-11490.5 78943.1 9.51348e-14 678.909 5.92501e-14 -2682.58)
(41258.7 126027 -2.08924e-15 7814.79 1.82117e-14 12176.1)
(-2.27102e+06 5044.32 -3.21553e-15 -11822.5 -5.00135e-15 -566420)
(1.78941e+06 -78382 4.29147e-15 -81958 7.61441e-15 423653)
(-60925.2 21399.4 8.1909e-14 1853.78 3.04229e-14 -14656.8)
(-502468 90771.4 6.11438e-15 -5515.48 -5.08236e-14 -126041)
(402531 58294.2 -5.17297e-14 8410.86 7.57689e-14 101963)
(-356113 95149.1 4.24379e-14 -6947.14 -7.66171e-15 -90082.5)
(1.84803e+06 21813.5 -3.76223e-14 -13970.7 -1.30385e-14 455068)
(-48943.7 82836.6 4.02653e-14 769.313 -6.55445e-14 -11953)
(-396034 74739.8 -2.32799e-14 -2675.43 4.00371e-14 -98928)
(316147 74981.9 7.0605e-14 2865.48 -4.02828e-14 79153.5)
(1.70134e+06 13094 4.12095e-15 -812.308 -2.47813e-14 421936)
(-247096 33576.1 -1.15212e-13 2190.29 -1.39257e-13 -60766)
(-823745 20753.1 8.10757e-14 4238.25 2.70389e-14 -203336)
(-583772 23748.7 2.34412e-15 3972.77 -1.42322e-13 -143860)
(-63048.5 22977.5 0 -3287.03 0 -16459.2)
(-992843 58776.9 -1.83266e-15 10441.3 6.10443e-14 -243754)
(-21678.7 80482.2 -2.308e-14 159.77 4.76592e-14 -5339.29)
(-49416.1 63360.9 -8.89145e-14 -3210.97 9.94916e-14 -13057.8)
(-43454.3 61888.7 6.23602e-14 -2024.62 -3.8174e-14 -11284.3)
(-1.50853e+06 329518 -5.39418e-15 187672 4.88607e-15 -327731)
(1.83206e+06 67819.4 -1.44135e-15 -6350.77 -1.49801e-14 452996)
(-333034 50653.8 -8.56634e-14 3988.59 -6.23125e-14 -81642.9)
(1.78059e+06 13528.1 -3.15336e-14 3856.97 2.80606e-14 442757)
(-240158 21258.6 7.57419e-14 34.1168 -2.4855e-13 -59579.6)
(-178106 43136.4 1.42437e-14 703.901 -1.3595e-14 -44017)
(-168718 55881.8 1.4542e-13 2562.66 1.4585e-13 -41226.4)
(-2.28927e+06 -43574.9 1.1656e-14 9831.55 5.44272e-14 -565574)
(99183 53993.4 0 8344.15 0 26679.7)
(53421.8 65249.4 -1.51183e-13 1568.92 -5.95789e-14 13644.3)
(36968.4 69608 5.24155e-14 1438.2 -4.13748e-16 9529.47)
(-78295.2 61755.9 3.58939e-14 -8148.37 1.0159e-13 -21448.4)
(-1.2857e+06 69278.7 -2.00135e-14 -6676.06 1.01206e-13 -320664)
(392367 50821.2 1.22003e-13 4046.41 -3.79533e-14 98358.1)
(-1.18318e+06 67222.4 0 -6665.82 0 -295224)
(-1.08307e+06 65804.9 -4.21241e-14 -5908.68 -4.31271e-14 -270197)
(581187 47861.8 5.59018e-14 5132.28 3.41488e-15 145478)
(-12417.8 78197.4 -1.97101e-13 -2788.41 -1.26434e-13 -3772.96)
(1.28283e+06 92922.9 0 -4286.48 0 317234)
(-105382 68818.9 -4.18169e-14 1856.33 -6.9343e-14 -25686.7)
(67108.1 17226.2 -2.41124e-14 4588.8 -3.49957e-14 17789.5)
(159192 68726.7 1.85092e-13 1303.47 3.31175e-15 39822.2)
(50831.1 -38338.1 -7.58363e-16 -107988 -5.62192e-16 -14181.7)
(-2694.76 10541.1 1.97429e-17 6330.18 -1.17426e-16 902.021)
(-51305.3 -38092.1 -4.79872e-16 107693 3.19732e-16 13991)
(-12436.3 79579.3 -6.12789e-14 -127.58 -8.91952e-16 -3117.36)
(-670812 51489.3 -1.50347e-14 -2666.82 6.001e-14 -167104)
(47656.9 38215.7 3.36795e-14 -151.849 -9.4226e-14 11787)
(730526 58147.9 -7.28452e-14 -6796.04 -1.00804e-13 179572)
(-1.2165e+06 104891 4.90836e-15 -460.321 9.98757e-15 -301953)
(-399960 72445.5 -3.02977e-15 6309.65 9.57183e-15 -97672.6)
(-1251.96 84726.4 -9.4566e-15 -749.494 -4.7056e-14 -496.6)
(315400 96047.7 -1.95976e-14 2243.28 -3.39046e-14 78813.7)
(-149745 69938.6 -5.79021e-14 -513.643 1.27683e-13 -37282.3)
(-104939 73422.3 -1.96156e-13 -685.04 -9.4611e-14 -26207.4)
(1.81842e+06 20794.6 1.10734e-14 5012.32 2.31176e-14 452430)
(1.1915e+06 57636.7 1.80079e-14 4210.58 3.66041e-15 296680)
(1.29539e+06 59178.1 3.45101e-14 4952.22 4.80782e-14 322642)
(1.0912e+06 56658.2 1.26218e-13 3936.79 7.47975e-14 271725)
(-397387 52243.8 5.71696e-14 -3957.77 8.92859e-14 -99581.8)
(-588366 50929.9 -1.51212e-13 -4366.04 5.43634e-14 -147069)
(212340 63098.5 6.45602e-14 -104.284 -3.38461e-14 52660)
(1.63748e+06 35182.5 1.66967e-14 182.559 9.85008e-15 406338)
(229914 30880.6 -4.71077e-14 -3094.8 -1.85215e-13 56278.5)
(-72422.2 74129.9 -1.63344e-13 1013.12 1.52754e-13 -17718.1)
(1.53352e+06 72943.4 -1.9164e-14 1091.62 2.38763e-14 380769)
(-130381 99962.3 -5.29687e-14 -86.7542 -1.42575e-14 -32371.6)
(-204541 43616.1 -3.64828e-14 3567.76 -1.53668e-14 -49865.4)
(63331.2 89246.1 1.16923e-13 -2716.91 -1.67402e-13 15039.6)
(90124 94221.5 -8.14959e-14 -1790.59 5.60565e-14 21917.3)
(-64183 73488.9 -2.37143e-14 3056.2 -3.49882e-14 -15166.8)
(-110948 65232.9 -1.48736e-13 -771.619 -1.16078e-13 -27719.9)
(-2839.98 78465.1 -1.42955e-13 -2512.71 -1.07585e-13 -1328.11)
(-34553.9 77906.1 -8.57042e-14 -1629.42 9.41715e-14 -8977.83)
(-7431.78 79470.3 -5.60289e-14 -2014.65 -5.34043e-14 -2343.85)
(8777.92 55276.7 2.66434e-15 37759.1 1.19334e-13 11546.8)
(-35849.9 7439.31 -3.99286e-16 -8267.74 5.67311e-14 -10946.5)
(-1.93607e+06 -311629 1.73968e-14 79528.6 -8.7933e-15 -460647)
(-1.39119e+06 70827.1 1.25266e-14 -10421.2 -1.90904e-15 -347768)
(428741 46352.1 6.45538e-14 3793.89 -6.29636e-14 107321)
(-1.28168e+06 71717.9 -4.99072e-14 780.827 3.13436e-14 -317816)
(620361 42355.7 -2.90881e-14 4314.56 8.80881e-14 154995)
(-1.17657e+06 68692.6 1.90415e-14 962.07 1.91285e-14 -291693)
(-1.07552e+06 66658.5 -1.09692e-13 1523.86 8.38288e-14 -266481)
(356818 64501.8 6.32171e-14 -4028.9 1.76202e-13 87534.2)
(-1.09637e+06 29801.4 6.81611e-14 7234.75 -9.37508e-14 -270237)
(519896 67000 7.84642e-14 -4922.27 -6.24794e-14 127775)
(-1.00719e+06 30335.6 5.64185e-14 6409.47 -9.72012e-14 -248315)
(-921170 31842.1 -5.8505e-14 6447.88 -5.26711e-14 -226961)
(-518121 87901.2 4.39284e-15 16299 4.40835e-14 -124512)
(157171 74090.8 -3.15603e-14 -5702.23 -2.10249e-13 37582.5)
(224452 71331 -5.04507e-14 -7159.76 -1.45793e-13 53914.7)
(-328397 69677 -1.51871e-14 10341.1 8.75415e-14 -78916.1)
(1.32542e+06 43974.2 -9.62656e-14 1675.04 -3.24674e-14 329278)
(-1.36897e+06 -16669.5 9.25828e-14 -10987.7 2.86323e-14 -342394)
(769117 43200 6.51454e-14 -2513.17 -6.06773e-14 190210)
(-396536 44468.5 1.4588e-15 7224.02 8.6639e-15 -96596.2)
(-180855 70855.4 -8.1843e-14 2390.24 -6.76347e-14 -44280.7)
(-189469 59371 7.00414e-14 -2212.3 -6.33763e-14 -47560.1)
(19835 79065.8 5.32443e-14 1626.05 9.72684e-14 5324.93)
(-268846 51752.8 -1.19743e-13 -254.619 1.2419e-13 -66769.2)
(229649 61678.3 -6.27833e-14 -4508 -6.63473e-14 55862.1)
(155533 70787.6 -5.75334e-14 2320.92 4.43528e-14 39166.8)
(-498117 57672.5 9.73858e-14 7325.96 -6.55623e-14 -121775)
(-696653 63403.3 3.5414e-14 2972.2 7.74796e-14 -172116)
(1.41948e+06 20987.4 2.19299e-14 1665.1 -2.96344e-16 352615)
(-6408.46 82806.4 2.79507e-14 -393.836 -1.35974e-13 -1687.79)
(2.06893e+06 76935.4 -2.56039e-14 -12891.1 -1.39554e-14 510146)
(-221364 63659.7 -1.0343e-13 1198.37 7.12782e-14 -54627.6)
(1.79164e+06 49595.8 0 -18169.9 0 440034)
(-510851 64171.4 3.04939e-14 -4870.5 1.27258e-13 -127961)
(-558217 64461.5 -3.12626e-14 -5645.32 3.70979e-14 -139906)
(-606203 65969.6 -5.04133e-15 -6120.97 1.34256e-13 -151930)
(280257 70870.7 -7.66838e-14 856.553 1.88642e-14 69749.9)
(190467 73138 -8.17994e-14 351.995 2.01992e-14 47346.1)
(-2.25552e+06 -17158.6 2.03139e-14 -8896.99 -1.15891e-14 -561849)
(-1.39523e+06 68940.2 -2.08275e-14 -8027.93 3.93096e-14 -348177)
(487278 50006.3 -8.16532e-14 4791.25 -4.77927e-14 122092)
(675814 46585.8 2.29437e-13 5297.29 -1.23329e-13 168998)
(76365.9 78726 4.48948e-14 -7650.51 -1.1609e-13 17049.7)
(-398834 36556.3 0 1700.7 0 -98537)
(-404517 21092.8 1.22784e-13 -1961.53 -6.24257e-14 -100856)
(1.96884e+06 54376 3.31967e-14 -14309.9 2.21494e-14 484959)
(2.01586e+06 -11321.4 2.75105e-14 12625.1 2.4324e-14 503308)
(1.05392e+06 24662.1 1.65522e-15 -947.606 5.80625e-14 261264)
(966194 26486.4 1.18053e-14 -548.341 1.40879e-13 239596)
(1.14492e+06 22798.1 3.00357e-14 -1938.5 -4.34054e-14 283596)
(-496767 68643 -7.40693e-14 4246.76 6.66541e-14 -122204)
(-330451 65510.4 -7.18561e-14 3048.04 7.88232e-14 -81235.2)
(216142 90991.6 0 1816.39 0 54079.9)
(147072 89165.6 -2.99205e-15 841.654 1.14261e-13 36700.3)
(471449 68820.6 -8.81259e-14 -289.333 7.20631e-14 116904)
(-199444 65212.7 -7.04696e-14 2359.42 1.67122e-13 -48900.8)
(-313740 97897.9 -1.40058e-14 4016.25 6.19621e-14 -76848.8)
(96310.6 72150.2 -2.6177e-13 -833.681 -6.94737e-14 23689.8)
(136922 68130.5 -1.81095e-13 -927.357 7.57816e-14 33743.1)
(-85107 82006 -3.52941e-14 2100.06 -4.93439e-16 -20595.7)
(-238179 55225.4 -2.92888e-14 4953.98 -1.82937e-14 -57867.9)
(-218478 55912.8 1.9338e-14 4313.63 -3.30275e-14 -53138.6)
(-221019 42237.6 0 -539.059 0 -54973.1)
(-106695 101641 4.03916e-16 -4619.42 -3.85134e-14 -27619.5)
(-1.00916e+06 4370.76 8.5813e-14 -6574.79 -3.75761e-14 -252025)
(1.2678e+06 52182.1 -1.11625e-13 -5798.2 -1.12254e-14 313129)
(1.58337e+06 166432 6.6819e-15 -274414 3.38269e-15 324779)
(-37768.7 70131.4 2.33753e-14 -3211.63 -5.29928e-14 -10168)
(240129 25333.9 8.52979e-14 2004.34 -1.94768e-13 60078.2)
(-1.98562e+06 -245667 1.6707e-14 161557 -1.08325e-14 -452586)
(111628 56098.1 3.65065e-15 3727.97 9.89884e-14 28622.2)
(304600 39376.1 6.88665e-14 1369.29 -7.90655e-14 75917.1)
(336374 42956 9.61571e-14 -5011.23 -4.05752e-14 82217.9)
(-4323.48 82031.2 7.24248e-14 -81.0435 -1.07434e-14 -1092.85)
(-4964.61 84692.6 7.63968e-14 -626.126 6.46175e-15 -1387.17)
(918059 32503.3 2.443e-14 -4777.13 8.13605e-14 226604)
(760951 86832.3 3.10889e-14 6593.7 -7.50025e-15 190443)
(-691434 72356.8 0 6553.75 0 -169933)
(-591251 40094 -7.90283e-14 -9284.19 -4.94399e-14 -149005)
(1.92986e+06 -314805 -7.0083e-15 -81438.9 -4.74511e-15 458630)
(-588192 112805 -6.34651e-15 16351.3 7.41818e-14 -141885)
(-942374 40082.2 4.37775e-14 -2061.52 -2.58271e-14 -234334)
(-2.01323e+06 -810611 -1.88695e-14 422549 7.37978e-15 -394679)
(2.39474e+06 2186.06 0 32819.9 0 602327)
(-1.76322e+06 -750875 -6.14099e-15 198975 1.89903e-15 -388122)
(306396 112728 -4.17232e-14 -168.553 1.47271e-14 75981.2)
(-68787.9 67057.3 -7.38782e-15 -1481.61 1.03315e-13 -17435.3)
(-899621 82369.2 3.69076e-14 -7497.13 -4.06137e-14 -225074)
(-821477 81929.6 5.49743e-14 -6592.92 -6.86009e-15 -205461)
(-752303 79775.3 -6.26693e-14 -5935.33 2.42923e-15 -188134)
(267671 58832.5 5.4806e-14 3708.95 -1.52926e-13 67334.8)
(400811 55612.4 -1.37587e-13 4546.82 1.3377e-13 100577)
(39735 71191.9 -2.16259e-14 -7347.57 1.0151e-13 8035.97)
(56412.9 66478 5.12077e-14 -9772.82 6.56078e-14 11572.3)
(-130592 106598 -5.86246e-14 21495.6 1.5871e-14 -27069)
(-82325.9 62372 4.35961e-14 14116 -5.57703e-14 -16924.2)
(-1.10428e+06 -444555 -4.75822e-15 -27813.7 9.92804e-16 -280896)
(202946 107485 -3.32762e-14 15425.8 -1.18026e-13 54182.4)
(-100622 64086.2 -1.14362e-13 -8159.4 -5.22869e-14 -26990.9)
(-472534 99596.8 0 -4.29391 0 -117246)
(202594 60776.6 8.82732e-14 973.897 -3.60523e-14 50509.3)
(-99608.8 86261.8 0 -547.949 0 -24850.9)
(-75011.9 70250.1 -5.56213e-14 -638.448 -8.81152e-14 -18770.4)
(704287 71506 7.7972e-14 4009.88 -8.15395e-14 175743)
(723748 45903.8 1.1932e-13 -138.501 5.69933e-14 179542)
(2.00975e+06 -809400 -7.05576e-15 -421833 -2.33218e-15 393995)
(1.10213e+06 -444173 8.24556e-15 27799.5 2.25835e-15 280360)
(-221868 51540.7 1.69558e-14 1629.8 2.41326e-14 -54645.6)
(-236999 52689.3 -5.15102e-14 -2714.07 -1.0535e-13 -59477.7)
(-1.25666e+06 2131.58 -5.67711e-14 -5048.87 -1.30173e-14 -313055)
(1.01772e+06 49163.6 1.28469e-13 -3726.63 -3.35764e-14 251592)
(330469 66500.5 4.24449e-15 -2606.5 2.33386e-13 81349.2)
(495902 70526.3 7.92836e-14 -3448.79 8.62202e-14 122188)
(-1.14762e+06 23183.5 -2.07037e-15 -738.187 4.94232e-14 -284930)
(-1.059e+06 26448.7 -5.01999e-14 -801.84 1.65993e-14 -262958)
(-970306 28506.3 -3.32623e-15 -843.608 7.7944e-14 -240962)
(-14648.1 83982.2 -1.20578e-13 -972.809 3.48816e-14 -3875.88)
(-1.24735e+06 25089.3 3.26883e-14 -2116.8 3.51562e-14 -310018)
(414191 66336.6 -8.12572e-14 -2695.32 3.98665e-14 102100)
(579921 69247.8 0 -3324.4 0 143065)
(547484 53043.2 3.098e-14 -4059.2 7.39635e-14 134835)
(105840 69858 -1.01897e-13 1200.1 -2.69415e-13 26558.7)
(8855 73109 -8.92969e-14 -8450.06 -3.28477e-14 100.474)
(453464 40606.7 -1.14098e-13 14028.4 2.04699e-14 115994)
(-382303 54807.9 -9.72918e-15 -1241.83 -7.8691e-14 -95165.2)
(60150.2 75367.7 1.32752e-15 -14729.2 1.66328e-14 11269.9)
(1.75955e+06 -750333 -6.38581e-15 -199048 -1.60422e-15 387192)
(271010 76106.4 8.07931e-15 -2695.54 -1.49385e-13 66574.4)
(326772 74228.7 6.95347e-14 -128.791 2.36515e-14 81046.8)
(-215188 73706.6 0 -79.5357 0 -53412.4)
(-255520 82522 2.59302e-14 -6369.7 -7.21819e-14 -64980.1)
(753122 79405.6 0 7058.4 0 188616)
(822381 81832 4.59375e-14 7469.13 4.36018e-14 205903)
(892289 85623 -1.02933e-13 7777.17 -9.9365e-15 223325)
(-401678 52762.7 1.4523e-13 -5384.07 1.47536e-13 -101000)
(-271313 57460.3 7.62915e-15 -3889.77 -8.82838e-14 -68283.5)
(-15022.9 80567.7 8.58881e-14 128.413 4.57341e-14 -3695.63)
(1.80585e+06 14296.5 -1.33918e-14 -28178.2 -2.45557e-14 441076)
(-11576.5 91947.7 -9.28187e-14 -5647.38 2.89215e-14 -4273.61)
(22462.8 48239.7 -8.89888e-14 10669.8 -5.54064e-14 8220.88)
(39769.9 76663.6 6.67391e-14 1089.04 -1.54908e-13 10137.9)
(426361 75447.9 7.11271e-14 125.395 7.51698e-14 105820)
(-168942 6107.13 -1.18141e-13 -3075.94 5.7924e-15 -42681.2)
(562945 84175.5 0 -3566.35 0 138793)
(1.9032e+06 -78757 3.09049e-16 -266433 1.24096e-16 406116)
(426387 21608.3 6.8196e-14 6164.27 1.55091e-13 107325)
(409417 33177.8 3.09085e-14 -6154.16 1.68433e-14 100058)
(-613372 71533.1 1.01638e-14 5853.14 2.14563e-14 -150738)
(-436419 67603 -7.91614e-14 4622.03 2.53575e-14 -107137)
(-522864 45390.2 -1.61894e-13 -2080.21 -2.83271e-14 -130249)
(-374824 50089.9 8.17003e-15 -2638.4 -8.59185e-15 -93656)
(1.30623e+06 21249.9 -5.69273e-15 -3260.27 1.87117e-14 323293)
(1.08096e+06 91045.4 2.36578e-15 -714.367 -3.86925e-14 268030)
(309157 82721.1 1.4332e-14 -3594.54 8.47764e-15 75816.3)
(416046 69047.6 2.69017e-14 -55.1112 4.5773e-14 103216)
(227807 82107.4 7.48253e-14 -4164.52 5.33188e-14 55490.1)
(306001 69393.8 6.71005e-14 -1988.44 -1.06219e-14 75431.7)
(-591520 50283.8 -1.2402e-14 6012.42 3.11384e-14 -145276)
(-777540 77433.3 -3.44112e-14 2322.33 6.18467e-15 -192347)
(-179106 121575 3.8264e-14 -549.242 2.73287e-14 -44576.1)
(1.28614e+06 55452.6 4.27566e-14 5199.83 3.06989e-14 320409)
(1.3949e+06 55415.5 -9.26992e-15 22928 4.60968e-15 351792)
(1.65595e+06 56361.3 7.52511e-15 -1599.61 4.74338e-15 410477)
(114409 77849 -1.45594e-13 479.246 1.76807e-13 28506)
(-420854 22715.3 -9.0217e-14 -5271.77 -4.63859e-14 -105730)
(-406651 35832.8 -1.14474e-13 4481.61 7.6571e-14 -99786.3)
(1.92833e+06 -6662.88 0 12468.7 0 481551)
(1.93306e+06 60947.3 0 1014.58 0 479884)
(1.14387e+06 47854.7 1.76557e-14 -1836.6 8.4251e-14 283362)
(1.13489e+06 9168.87 5.65502e-14 4784.75 -1.58737e-13 282776)
(-1.18052e+06 11400.2 0 -8945.1 0 -295131)
(-1.15086e+06 47911.7 0 7961.85 0 -283577)
(33298.3 76208.5 -2.00624e-14 2658.94 5.74712e-14 8921.71)
(-82233.1 34358.4 2.14722e-13 -5021 -9.08944e-14 -21649.5)
(-313552 33804 -5.66151e-14 -3472.94 -2.08902e-14 -78660.3)
(2.5333e+06 3071.15 0 51249.4 0 641279)
(-44810.5 67391.4 -1.4159e-13 -2272.73 -3.5368e-15 -11682.3)
(-52736.5 70175.3 -2.03936e-14 -5028.1 -1.13441e-13 -14332.6)
(274816 88882.8 -7.30658e-14 -6161.34 -5.00772e-14 66658.6)
(-217509 87462.4 -1.52273e-13 -6330.42 6.37705e-14 -55539.1)
(263169 54243.9 4.42607e-14 -7495.55 -4.57794e-14 63437.8)
(-1.00834e+06 45638.9 3.13367e-14 -9178.9 -6.38402e-14 -252468)
(1.01487e+06 49802.1 -1.29923e-14 -10444.9 -7.80702e-14 249218)
(-1.72222e+06 75085.3 1.35399e-14 -10518.2 -5.80485e-14 -429928)
(-2.056e+06 -185172 7.20631e-15 383120 -5.19715e-15 -415076)
(714963 98834.4 -1.14592e-14 -14989.6 1.42473e-14 173677)
(79761.4 96045.1 -7.56627e-15 -4528.33 4.25835e-14 18666.8)
(-951340 79018.1 -3.79237e-14 -4410.34 -1.0617e-13 -237141)
(799309 27691.1 -4.9313e-14 10050.1 7.11088e-14 200819)
(-554957 48955.5 5.44309e-14 -9738.15 6.98036e-14 -140112)
(432110 77653.5 8.16745e-14 5300.02 1.4272e-15 108530)
(80257.9 85996.1 2.2768e-14 4451.77 1.06553e-15 21018.2)
(138896 67119.9 -9.62909e-14 -986.87 1.20944e-13 34218.1)
(-276370 57622.2 6.6273e-14 -17526.7 -7.041e-14 -72921.7)
(-446977 112703 1.09724e-15 7356.1 8.86706e-14 -109079)
(-253264 58206.7 1.02081e-14 -16260.9 -7.11722e-14 -66874.5)
(-409586 108689 6.46149e-14 6533.19 -2.36137e-14 -100006)
(101191 48583 -4.06374e-14 -2857.68 1.26323e-14 24398.6)
(-47679.7 93164.4 -1.07324e-15 2533.65 -7.95446e-14 -11201.7)
(-31170.7 92081.8 9.86269e-14 2360.12 7.91135e-14 -7148.48)
(-21057 83026.2 5.076e-14 621.413 -1.10539e-13 -5070.49)
(1.37203e+06 39881.2 2.9383e-14 4006.53 4.55027e-15 341421)
(-14184.6 93631.7 -1.11632e-13 -6308.89 -4.96228e-14 -5084.86)
(-54299.7 69549.2 5.51129e-14 -5198.36 -1.84567e-13 -14762.7)
(1.91693e+06 -54419 -1.45893e-14 -98968.4 -1.06664e-14 451072)
(314894 56269.2 5.87574e-14 -5063.37 -7.53782e-14 76875.2)
(-733065 97216.3 3.93991e-14 13332.6 1.0643e-14 -178580)
(-836842 61756.1 -6.41897e-14 2005.9 -2.80909e-14 -207140)
(-831333 28968.5 0 -9940.48 0 -208737)
(1.04602e+06 17489.6 -5.78266e-14 5413.17 -2.74972e-14 260883)
(1.00146e+06 70006.7 3.49895e-15 8746.74 6.88926e-14 250654)
(-32760 58126 -6.51946e-14 1257.25 5.31487e-14 -7816.47)
(-24931.9 58529.3 4.7298e-14 1713.12 -2.64484e-13 -5761.05)
(-658949 104575 -2.60643e-14 7784.5 -6.40955e-16 -161567)
(-887361 74855 0 11298.2 0 -217369)
(627584 47911 1.42772e-14 7068.36 3.51908e-14 157470)
(-1.62495e+06 93009.9 6.24066e-15 -7596.33 -1.97785e-14 -405068)
(56174.2 65232.1 0 14199.8 0 17461.2)
(891586 41066.6 -3.09926e-15 -2830.72 2.14245e-14 220518)
(675679 101195 -1.66976e-15 5329.21 8.13764e-17 168972)
(-424618 82414.4 1.21274e-13 4607.62 -1.55944e-14 -104213)
(-329973 56716.9 -1.18429e-14 -2352.5 8.54597e-14 -82456.7)
(-302658 78823.6 1.87524e-14 3478.76 -7.12895e-14 -74232.5)
(-236867 60469.3 -1.05998e-15 -2368.33 4.18832e-15 -59359.2)
(-339713 38815.7 4.38485e-14 640.725 6.47617e-14 -84130.6)
(-286142 44091.1 -7.67008e-14 3674.08 1.54384e-14 -70086)
(-348607 99516.9 0 1040.83 0 -86238.2)
(-392333 101274 -3.8732e-14 -982.535 3.36562e-14 -97589.5)
(-427776 104845 -3.16478e-15 -1248.22 -3.60884e-15 -106450)
(116029 65710.8 -1.88785e-13 1396.15 -9.43874e-14 29135.6)
(-23303.5 79033.4 -4.19017e-14 -2374.69 8.34163e-14 -6371.27)
(837371 39473.7 -2.366e-14 5123.44 6.73614e-14 209040)
(876537 53488.5 3.27567e-14 -6012.09 -6.36335e-14 215995)
(145385 69835.4 6.79451e-15 639.386 -4.70739e-14 36231.7)
(212323 63218.5 0 2459.99 0 53292.1)
(-464111 101177 4.8573e-14 -2379.54 -5.3409e-14 -115746)
(409292 61689.6 -9.28361e-14 4051.27 -1.16879e-15 102559)
(446861 90531.1 -4.0637e-14 4546.29 -2.51402e-15 112003)
(-162918 75427.8 -7.75933e-14 -1076.79 1.11218e-13 -40690.3)
(-138749 78693.2 4.52739e-14 -1934.11 2.65799e-15 -34906.2)
(-200263 82355.7 7.33862e-14 -675.807 2.61053e-14 -49857.1)
(-222426 71068.2 0 -2453.18 0 -55797)
(-972469 42193.3 2.16263e-14 -366.885 -3.30163e-14 -241380)
(446226 72676.3 -3.55245e-14 -713.949 -1.4053e-13 110541)
(318131 71166.9 -1.62743e-14 -1015.29 -2.32616e-15 78682.8)
(-106637 193783 -9.93472e-15 21314.6 -7.11446e-15 -21170.2)
(1.15798e+06 32851.3 -7.45836e-14 -8527.3 -4.46817e-14 285202)
(-1.3543e+06 10380.2 6.46252e-14 2071 3.86746e-14 -335517)
(-158103 179574 0 -5828.36 0 -40674.7)
(-161040 73787.3 2.71219e-14 2255.78 8.18796e-14 -39397.6)
(-136237 77778.9 -2.04004e-13 3824.62 -5.17533e-14 -32854.3)
(-234280 71823 8.80057e-14 1579.76 9.85164e-16 -57737.5)
(-201836 78637.1 0 3041.34 0 -49324.9)
(457798 59177.7 4.50223e-14 -4016.93 -7.24683e-14 112592)
(525778 82326 1.64324e-14 -3227.84 6.96573e-15 129655)
(426242 62716.6 -3.34597e-14 -8330.3 3.20345e-14 103692)
(497315 84693.6 3.56941e-14 -5824.72 9.86862e-14 121949)
(390307 62364 2.79955e-14 -7236.06 4.69877e-14 95047.7)
(455275 82622.4 -6.08431e-14 -5178.05 3.47727e-14 111678)
(360164 37547.8 2.76732e-14 167.426 1.04514e-13 89405.6)
(347525 22716.5 8.13755e-14 2800.33 1.74247e-13 86922.8)
(-693700 81949.3 -1.56264e-14 1064.76 2.0541e-14 -171857)
(323535 77516.4 -8.43011e-14 -4204.42 -2.04817e-15 79232.5)
(-773364 59237.2 0 6592.54 0 -190252)
(1.33711e+06 85465.1 4.56643e-14 -11593.1 -2.87319e-14 328886)
(-673423 36859.3 8.49487e-14 2555.49 -1.39607e-13 -166456)
(-491211 42164.2 1.02573e-13 684.637 -6.89373e-14 -121709)
(-1.51948e+06 -718330 -5.84701e-15 241249 1.30643e-15 -317155)
(45146.9 74236 1.14568e-13 273.356 -3.00878e-14 11269.7)
(1.41942e+06 47905.9 -1.52566e-14 -3193.28 -7.71034e-16 351394)
(-687696 56093.9 -2.37899e-14 2581.06 -6.89547e-14 -169991)
(-495285 54581.6 1.48615e-13 2091.92 7.31399e-14 -122371)
(2.12349e+06 -15109.8 2.48488e-14 -4373.86 1.10613e-14 525795)
(-95321.9 66265.3 -1.64317e-14 -1276.79 6.59213e-14 -23968.1)
(1.46306e+06 13548 3.79721e-14 4390.6 -2.36017e-14 364105)
(-342884 57413.1 5.14112e-14 1630.37 -9.06398e-14 -84672)
(-1.21152e+06 85162.5 3.08064e-14 12595.2 -4.01197e-15 -297478)
(-1.1388e+06 54537.4 -1.88188e-14 -6653.64 -1.43453e-15 -284210)
(1.1019e+06 56075.9 -3.56373e-14 1804.91 2.33124e-14 273851)
(-139955 76495 -2.24535e-13 5605.86 -1.02209e-13 -33334.7)
(-3333.68 -38570.7 2.37911e-16 -60471.6 8.45789e-17 -15831.4)
(-17584 70890.4 0 3044.09 0 -3607.65)
(-2.01625e+06 -644130 9.60147e-15 253884 -2.64699e-15 -437278)
(1.51573e+06 -717769 1.13644e-14 -242828 3.57411e-15 315833)
(-965699 88401.3 3.97602e-14 -7738.44 -3.85757e-14 -241530)
(333909 55645.7 1.71735e-14 2996.55 6.62979e-14 83593.1)
(462599 50724.8 -5.52686e-14 4022.92 1.25791e-13 115778)
(134654 72649.1 1.10619e-13 -1361.43 3.29461e-14 33072.7)
(-250955 15921.6 6.41116e-14 224.979 -9.85937e-14 -62211.2)
(224364 93265.7 -5.33388e-14 -1432.5 4.88117e-14 55313.9)
(-114095 57872.8 1.5757e-14 911.586 2.41611e-14 -28083)
(-105014 103422 1.13356e-14 4314.97 3.29001e-14 -24985.4)
(-1.65204e+06 3622.66 -5.25919e-15 43987.2 1.25098e-14 -398991)
(13513.2 -22952.5 6.24316e-17 -40081.3 3.87506e-17 -6592.11)
(-566759 92529.1 -2.36499e-16 7081.73 4.46699e-15 -138867)
(445298 52140.1 3.99848e-14 -2839.8 1.23924e-13 109783)
(1.71561e+06 -332356 1.00728e-15 -44994.6 1.30996e-15 414513)
(-50739.3 57380.7 -1.02795e-14 -8712.57 -7.99171e-14 -14751.2)
(-57098.5 95582.1 8.15583e-15 -4027.73 7.80234e-14 -15166.7)
(-32608.5 83497.5 -1.39568e-15 194.376 -1.19537e-13 -8042.6)
(-84729.4 72219.8 -2.21566e-14 3608.25 3.02034e-14 -20127.8)
(37843.2 82342.7 3.57057e-14 -1341.99 9.22784e-14 9056.68)
(25070 84821.9 -8.38881e-14 -361.056 -2.73897e-14 6130.78)
(-1.72025e+06 -330394 4.30265e-15 43501.1 -1.32875e-15 -416036)
(601176 87950.4 -3.2768e-14 2218.41 1.77379e-14 149714)
(-210562 71423.9 -2.24543e-13 -204.12 -6.37118e-14 -52295.4)
(705151 74664.1 1.17263e-13 4492.65 -1.98447e-13 176077)
(646792 73305.2 -1.43559e-15 4278.92 -7.60635e-14 161544)
(591646 70780.3 -2.17435e-13 2285.85 3.28253e-14 147367)
(102838 42461 -1.09728e-13 4059.8 -4.10552e-14 26523.6)
(-1.39272e+06 30864.6 5.90077e-14 -3625.23 -5.72851e-14 -346462)
(437731 56922.3 1.18998e-13 -2466.39 1.28374e-14 107998)
(620185 58564.9 -5.38841e-14 -2484.9 -7.70799e-14 153264)
(-119825 71305.5 -1.90167e-13 -380.738 -3.20663e-14 -29825.5)
(892319 96120.2 1.24922e-14 -12051.6 1.80643e-14 218412)
(170548 55571.2 -7.69486e-14 -118.125 5.21272e-14 42287.2)
(-1.78869e+06 23153.6 -2.00196e-14 -2489.64 -7.41432e-15 -444427)
(51678.1 73109.3 -9.92314e-14 1864.1 -8.34931e-14 13284.9)
(-150782 77578.3 -1.97325e-13 1687.82 9.31915e-14 -36993.2)
(506256 59540 1.48955e-13 567.013 -2.14515e-14 125753)
(464299 59520.4 1.39136e-13 566.15 3.38551e-14 115342)
(424313 57943.2 -1.00849e-13 -1284.79 2.77912e-14 104962)
(930354 44697.1 1.50203e-14 124.369 3.16005e-14 230871)
(202214 77080.3 -6.66e-14 2924.78 -1.42748e-13 50899)
(-511208 64339.7 4.54575e-14 -7831.85 1.01852e-15 -128784)
(-401113 115601 2.77476e-14 3727.55 3.09495e-14 -98599.4)
(-224102 48747.7 0 1634.18 0 -55198.8)
(-707710 85278.4 -6.11643e-14 -7823.58 1.86195e-14 -177538)
(-773604 87754.1 -9.20449e-14 -8700.83 -6.08865e-15 -194106)
(-842266 91454.4 -9.19027e-14 -10039 4.42796e-14 -211474)
(399925 58226.4 1.88739e-15 6432.96 2.34427e-14 100826)
(273722 63467.4 2.9666e-14 4537.59 -3.71436e-14 69041.8)
(72778.6 8488.65 -8.62502e-14 3606.49 3.11149e-14 18952.7)
(141597 60719.8 0 -1799.56 0 34686.7)
(182214 49364.8 -1.00987e-13 1358 6.028e-14 45548)
(2.07586e+06 -99567.9 -5.39434e-15 -273762 -2.60168e-15 447137)
(783584 40691.3 9.95315e-14 1282.47 -1.02137e-13 194741)
(-600981 77543.5 0 1170.27 0 -148825)
(-421940 70585.1 -4.93143e-14 8115.43 -2.16847e-15 -102678)
(338129 74539.6 2.63183e-14 -3649.95 -3.25491e-14 82990.9)
(-107930 87336.9 4.39654e-14 -2325.91 3.60712e-14 -27356.7)
(-14114 85998.9 1.29558e-13 -2517.62 -1.02101e-13 -4126.63)
(35014.1 61504 1.0346e-13 8796.89 -1.63737e-14 10870.4)
(38330.2 61430.8 -5.41457e-14 9529.53 -5.0432e-14 11875)
(-4679.55 108525 -2.71442e-15 -2802.05 -2.22522e-14 -1856.34)
(-9287.59 56944.7 -2.41716e-14 -839.156 8.12971e-14 -2512.65)
(12.3744 66022.4 -9.05258e-14 -650.786 6.74625e-14 -158.403)
(12118.6 70420.8 8.64733e-14 -13485.6 -3.92873e-14 -339.183)
(150392 49883.7 -6.71121e-15 2233.02 -3.16403e-14 37869.4)
(-281040 110829 -1.58035e-15 1747.54 -1.52956e-14 -69298.2)
(89085.9 69983.4 2.16928e-13 1056.39 -4.26894e-14 22366.1)
(12515.7 107500 9.07453e-15 -16569.6 1.29513e-14 -1005.85)
(-592199 108512 -2.264e-14 -2384.45 -1.36004e-14 -147528)
(749119 50700.3 7.47672e-14 3379.46 6.67197e-14 186710)
(-321469 78949.3 -8.34834e-14 -274.856 2.73084e-14 -79831.1)
(-1.3754e+06 250650 -3.92699e-15 244469 2.35576e-15 -280607)
(-200502 47006.1 5.94447e-14 -2073.68 6.45615e-14 -50263.2)
(-329043 109374 0 3613.72 0 -80745.6)
(96844.5 69965.1 1.15758e-13 -152.99 -1.59914e-13 23991.1)
(149938 63274.9 6.12309e-15 -390.459 1.98853e-14 37105.9)
(1.51252e+06 -334648 -1.21762e-15 49083.4 2.13133e-16 387464)
(-2.08173e+06 10132.9 -1.67053e-14 12264 7.67885e-15 -513477)
(643710 57201 3.66186e-14 4029.47 3.07749e-14 160717)
(702238 57179.7 -3.71637e-14 3882.91 8.09016e-14 175203)
(-214008 76950.7 -2.74639e-13 1668.04 -9.80658e-14 -52685.9)
(148790 96075.7 4.83773e-14 9534.16 9.53645e-14 39283.3)
(-33221.1 67331.5 7.72664e-14 -3329.97 1.17595e-13 -9069.06)
(-857615 -557159 -1.04144e-15 63992.3 4.38196e-16 -196914)
(-2.02487e+06 69492.6 5.4762e-15 1831.04 7.0703e-15 -501957)
(1.7982e+06 35533.3 2.97579e-14 3471.77 -1.46744e-14 447031)
(-2.60753e+06 -44594 -7.72876e-15 -7301.29 -3.33215e-15 -648792)
(826272 51438.6 -3.3475e-14 -6033.32 -5.2052e-14 203518)
(573990 46784 -5.53465e-14 -4630.94 2.04058e-13 141270)