/*--------------------------------*- C++ -*----------------------------------*\
| =========                 |                                                 |
| \\      /  F ield         | OpenFOAM: The Open Source CFD Toolbox           |
|  \\    /   O peration     | Version:  2.3.1                                 |
|   \\  /    A nd           | Web:      www.OpenFOAM.org                      |
|    \\/     M anipulation  |                                                 |
\*---------------------------------------------------------------------------*/
FoamFile
{
    version     2.0;
    format      ascii;
    class       volScalarField;
    location    "0.11";
    object      k;
}
// * * * * * * * * * * * * * * * * * * * * * * * * * * * * * * * * * * * * * //

dimensions      [0 2 -2 0 0 0 0];

internalField   nonuniform List<scalar> 
9648
(
2.6046
2.49052
2.47227
2.44233
2.40762
2.36934
2.32818
2.28481
2.23991
2.19418
2.14828
2.10283
2.05839
2.0154
1.97423
1.93516
1.89836
1.86396
1.83199
1.80248
1.7754
1.75068
1.72827
1.70805
1.68995
1.67385
1.65967
1.64731
1.63666
1.62765
1.62019
1.6142
1.60963
1.6064
1.60447
1.60379
1.60433
1.60603
1.60889
1.61289
1.61802
1.6243
1.63173
1.64034
1.65016
1.66121
1.67354
1.68721
1.70226
1.71869
1.73651
1.75565
1.7759
1.79691
1.81831
1.83965
1.8606
1.88087
1.9004
1.91918
1.93722
1.51817
1.49631
1.50318
1.52531
1.55898
1.59945
1.64492
1.69429
1.74672
1.80153
1.85811
1.91593
1.97453
2.0335
2.09252
2.15133
2.20974
2.26756
2.32467
2.38104
2.43662
2.4914
2.5454
2.59864
2.65112
2.70292
2.7541
2.80471
2.85474
2.90426
2.95335
3.00202
3.05029
3.09824
3.14588
3.19321
3.24029
3.28718
3.33384
3.38021
3.42638
3.47241
3.51828
3.56395
3.60953
3.65486
3.69974
3.74431
3.78862
3.83244
3.87572
3.91847
3.96068
4.00195
4.04254
4.08224
4.12128
4.15908
4.19598
4.23208
4.26748
1.51163
1.56537
1.62812
1.70573
1.79321
1.88634
1.98277
2.08156
2.18159
2.2824
2.38292
2.4828
2.58149
2.67859
2.77378
2.86677
2.95744
3.04565
3.13134
3.21451
3.29521
3.3735
3.44944
3.52313
3.59471
3.66428
3.73201
3.79794
3.8622
3.9249
3.98612
4.04598
4.10459
4.16196
4.21818
4.27334
4.32746
4.38062
4.43281
4.48406
4.5344
4.58383
4.6324
4.68007
4.7268
4.7726
4.81746
4.86147
4.90453
4.94665
4.98775
5.02787
5.06719
5.10508
5.14242
5.17829
5.21341
5.24678
5.2796
5.3115
5.34265
1.69148
1.79239
1.89782
2.01322
2.13579
2.26218
2.39031
2.51891
2.6469
2.7737
2.89838
3.02051
3.13953
3.25527
3.36739
3.47573
3.58022
3.68083
3.77761
3.87066
3.96011
4.04604
4.12865
4.20812
4.28469
4.35853
4.42984
4.49878
4.56549
4.63011
4.69283
4.75379
4.81311
4.87092
4.92728
4.98232
5.03607
5.08862
5.13996
5.19018
5.23932
5.28744
5.33459
5.38082
5.42609
5.47042
5.51382
5.55628
5.59774
5.63818
5.67771
5.71602
5.75335
5.78952
5.82503
5.8594
5.89269
5.92486
5.95601
5.98615
6.015
1.94234
2.07567
2.21339
2.35815
2.50759
2.65921
2.81106
2.96162
3.11005
3.25545
3.39708
3.53436
3.66705
3.79498
3.91794
4.03573
4.14838
4.25603
4.35877
4.45687
4.55046
4.63971
4.72486
4.80615
4.88393
4.95848
5.03
5.09871
5.16474
5.22829
5.28955
5.34873
5.40602
5.46151
5.51529
5.56753
5.61832
5.66762
5.71555
5.76212
5.80741
5.85155
5.89459
5.93657
5.9775
6.01739
6.05624
6.09404
6.13082
6.16642
6.20098
6.2344
6.26656
6.29752
6.32746
6.35645
6.38423
6.41085
6.43629
6.46042
6.48324
2.20853
2.36929
2.5338
2.7029
2.87435
3.04609
3.21639
3.38398
3.54779
3.70686
3.86054
4.00818
4.14983
4.28527
4.41467
4.5377
4.65428
4.7649
4.86961
4.9689
5.06299
5.15191
5.23611
5.31576
5.39144
5.46347
5.53212
5.59767
5.6601
5.71969
5.77674
5.83139
5.88402
5.93466
5.98333
6.03031
6.07572
6.11955
6.16181
6.20257
6.24189
6.2799
6.3168
6.35254
6.38711
6.42063
6.45312
6.48439
6.5146
6.54362
6.57142
6.598
6.62331
6.64722
6.67001
6.69168
6.71225
6.73163
6.74961
6.76606
6.78133
2.47744
2.66109
2.8477
3.03679
3.2259
3.41375
3.59836
3.77869
3.95404
4.12263
4.28451
4.43855
4.58531
4.72453
4.8572
4.98204
5.09921
5.20956
5.3129
5.41028
5.50199
5.58758
5.66806
5.74308
5.81384
5.88072
5.94387
6.00391
6.06033
6.11352
6.16398
6.21168
6.25736
6.30098
6.34222
6.38164
6.4197
6.45579
6.49038
6.52333
6.55454
6.58448
6.61322
6.6408
6.66695
6.69198
6.71601
6.73887
6.76064
6.78113
6.80035
6.81827
6.83483
6.84978
6.86335
6.87603
6.8877
6.89816
6.90693
6.91402
6.91991
2.73921
2.94164
3.14625
3.35173
3.55472
3.7547
3.95003
4.13972
4.3234
4.49808
4.66493
4.82154
4.96998
5.10928
5.2426
5.36654
5.48152
5.58908
5.68778
5.78021
5.86697
5.94634
6.02084
6.08821
6.15114
6.21006
6.265
6.31731
6.36521
6.40966
6.45127
6.48935
6.52567
6.55982
6.59108
6.62069
6.64878
6.67463
6.69917
6.72192
6.74274
6.76186
6.78013
6.7971
6.81234
6.82685
6.83985
6.85199
6.86285
6.87259
6.88092
6.88805
6.89399
6.89781
6.90026
6.90207
6.90264
6.90287
6.90081
6.89655
6.89173
2.98185
3.19768
3.41773
3.63509
3.85058
4.05873
4.26123
4.45909
4.64755
4.82608
4.99498
5.15237
5.29888
5.43424
5.5657
5.68695
5.79803
5.90123
5.99508
6.07984
6.15831
6.22942
6.29475
6.35339
6.40564
6.45281
6.49721
6.53923
6.5759
6.60976
6.63991
6.66637
6.69102
6.71268
6.73072
6.74832
6.76252
6.7752
6.78728
6.79622
6.80302
6.80661
6.812
6.81504
6.81699
6.81937
6.81763
6.81658
6.81251
6.80774
6.80082
6.79331
6.78591
6.77684
6.76659
6.75531
6.74118
6.73136
6.71667
6.69886
6.68216
1.95449
1.97104
1.98715
2.00297
2.01872
2.03448
2.04893
2.0629
2.07625
2.08938
2.10209
2.11512
2.12868
2.14305
2.15856
2.17583
2.19507
2.21613
2.23863
2.26243
2.28707
2.31237
2.33833
2.3648
2.39163
2.41875
2.4463
2.47427
2.50254
2.53116
2.56022
2.58964
2.61942
2.64971
2.68044
2.7116
2.74328
2.77553
2.80834
2.84163
2.87548
2.91001
2.94518
2.98095
3.01744
3.0545
3.09214
3.13048
3.16958
3.20931
3.24972
3.2909
3.33293
3.37564
3.41934
3.46397
3.50985
3.55681
3.60521
3.6552
3.70689
4.30221
4.33495
4.36669
4.39746
4.42714
4.45553
4.48217
4.50806
4.53255
4.55665
4.57948
4.60154
4.62266
4.64283
4.66203
4.68023
4.69752
4.71385
4.72919
4.74353
4.75694
4.76948
4.78103
4.79159
4.80099
4.80914
4.81607
4.8217
4.82611
4.82924
4.83109
4.83169
4.83108
4.82923
4.82616
4.82193
4.81649
4.80991
4.80216
4.79325
4.78323
4.77212
4.76
4.74682
4.73255
4.71713
4.70046
4.68258
4.66342
4.64301
4.62131
4.59824
4.57395
4.548
4.52107
4.49263
4.4633
4.43276
4.40213
4.37144
4.34104
5.37264
5.40183
5.42977
5.45669
5.48229
5.50641
5.52909
5.55041
5.57045
5.58981
5.60807
5.62539
5.64147
5.65654
5.67048
5.68329
5.69498
5.70555
5.71497
5.72323
5.7304
5.73646
5.74143
5.74533
5.74817
5.74989
5.75045
5.7498
5.74796
5.74486
5.74053
5.73492
5.72802
5.71989
5.71049
5.69984
5.6879
5.67469
5.66017
5.64439
5.62739
5.60925
5.59
5.56968
5.54822
5.52558
5.50159
5.47622
5.44941
5.42116
5.39143
5.35998
5.32693
5.29211
5.25569
5.21739
5.17747
5.13626
5.09437
5.05209
5.00978
6.04285
6.06954
6.0952
6.11951
6.14247
6.16414
6.18438
6.2031
6.22066
6.23703
6.25205
6.2657
6.27813
6.2894
6.29939
6.30819
6.31574
6.32203
6.32701
6.33071
6.33317
6.33445
6.33458
6.33357
6.3314
6.32807
6.32353
6.31778
6.31084
6.30268
6.29326
6.28251
6.27043
6.25705
6.24241
6.22647
6.20919
6.19052
6.17042
6.14897
6.12624
6.10234
6.0774
6.05149
6.02464
5.99679
5.96769
5.93733
5.90563
5.87262
5.83813
5.80204
5.76434
5.7249
5.68368
5.64043
5.59537
5.54883
5.50145
5.45348
5.40558
6.50471
6.52493
6.54369
6.56101
6.57702
6.59205
6.60602
6.61879
6.63019
6.64033
6.64917
6.65676
6.66313
6.66824
6.67213
6.67486
6.67629
6.67643
6.67521
6.67262
6.66879
6.66382
6.6578
6.65078
6.64269
6.63348
6.62318
6.61178
6.59937
6.58596
6.57149
6.55578
6.53883
6.52065
6.50136
6.48087
6.45906
6.43588
6.4112
6.38509
6.35767
6.32906
6.29949
6.26917
6.23819
6.20657
6.17389
6.14022
6.10543
6.0697
6.03261
5.99398
5.95394
5.91223
5.86874
5.82294
5.77529
5.72587
5.67556
5.62448
5.57345
6.79524
6.80782
6.81894
6.82872
6.83695
6.84396
6.84991
6.85478
6.85836
6.86061
6.86169
6.86163
6.86036
6.85781
6.85402
6.84916
6.84318
6.83589
6.82713
6.81686
6.8053
6.79265
6.77907
6.76471
6.74939
6.73304
6.71567
6.69731
6.67825
6.65857
6.63829
6.61695
6.59464
6.57125
6.54708
6.5219
6.49544
6.46773
6.43849
6.40777
6.37569
6.34228
6.30794
6.27307
6.23791
6.20272
6.16662
6.13005
6.09265
6.05504
6.01634
5.97605
5.93475
5.89187
5.84752
5.80042
5.75153
5.70049
5.64895
5.59631
5.54367
6.92454
6.92786
6.92969
6.93003
6.92889
6.92659
6.92332
6.91924
6.9139
6.90703
6.89914
6.89034
6.88043
6.86922
6.85662
6.84326
6.82917
6.81381
6.79688
6.77808
6.75783
6.73661
6.7145
6.69194
6.66865
6.6443
6.61899
6.5925
6.56563
6.53868
6.51211
6.48472
6.45701
6.42839
6.39976
6.37041
6.33956
6.3076
6.27424
6.23947
6.20326
6.16534
6.12636
6.08695
6.04749
6.00905
5.96943
5.93029
5.89045
5.85199
5.81291
5.77177
5.73025
5.68719
5.64336
5.59571
5.54689
5.49522
5.4442
5.39147
5.33906
6.88549
6.87823
6.86938
6.85926
6.84784
6.83567
6.8225
6.8094
6.79528
6.77903
6.76188
6.7444
6.72594
6.70622
6.68423
6.66177
6.63981
6.61696
6.59277
6.56551
6.53617
6.50646
6.47565
6.44449
6.41329
6.38103
6.34797
6.31246
6.27634
6.24074
6.20767
6.17373
6.14103
6.10763
6.07605
6.04454
6.0102
5.97404
5.93728
5.90013
5.86116
5.81973
5.7769
5.73339
5.68972
5.64899
5.60564
5.56437
5.52183
5.48387
5.44634
5.4052
5.36457
5.32249
5.28086
5.23313
5.18564
5.13398
5.08552
5.03443
4.98471
6.66282
6.64367
6.62196
6.60078
6.57761
6.55685
6.53359
6.51212
6.49071
6.4679
6.44382
6.41958
6.39456
6.36954
6.33856
6.3057
6.27588
6.24753
6.22102
6.18933
6.15022
6.11445
6.07703
6.03742
5.99837
5.95925
5.9227
5.88015
5.83263
5.78627
5.74661
5.70465
5.66699
5.62874
5.59826
5.56945
5.5346
5.4937
5.4538
5.4169
5.37905
5.33621
5.29039
5.2446
5.19769
5.15674
5.10871
5.06595
5.01899
4.98411
4.95072
4.90996
4.87188
4.83305
4.79607
4.74824
4.70313
4.6513
4.60749
4.55993
4.51617
3.76031
3.81519
3.87156
3.92926
3.98809
4.04796
4.10858
4.17004
4.23261
4.29541
4.3601
4.42916
4.51643
4.59087
4.66735
4.74479
4.82316
4.90251
4.9828
5.06397
5.14588
5.22853
5.31178
5.39548
5.47937
5.56321
5.64688
5.73018
5.81288
5.89461
5.97527
6.05452
6.13188
6.20716
6.27994
6.34976
6.41506
6.47173
6.51367
6.54262
6.55911
6.56315
6.55418
6.53121
6.49294
6.43776
6.36356
6.26787
6.14779
6.00001
5.82059
5.60499
5.34792
5.04605
4.58875
4.14138
3.94553
3.86101
3.83719
3.82097
3.76008
4.3108
4.28112
4.25151
4.22177
4.19137
4.16045
4.12841
4.09617
4.06461
4.02425
3.9839
3.94625
3.90473
3.86838
3.8323
3.79633
3.7602
3.72382
3.68712
3.65018
3.61302
3.57551
3.5377
3.49968
3.46148
3.4232
3.38491
3.34681
3.30898
3.27155
3.23469
3.19858
3.1634
3.12941
3.09691
3.06634
3.03821
3.01324
2.99294
2.97475
2.95884
2.94552
2.93539
2.92913
2.92773
2.93216
2.94348
2.96301
2.99213
3.03198
3.08361
3.14801
3.22689
3.31713
3.42467
3.57914
3.7964
4.11821
4.56259
5.07137
5.22168
4.96785
4.92653
4.88545
4.84401
4.80153
4.75789
4.71244
4.66625
4.61329
4.55356
4.49751
4.44447
4.39342
4.34517
4.2969
4.24771
4.1973
4.14588
4.09358
4.04058
3.9869
3.93239
3.87706
3.82098
3.76418
3.70676
3.64878
3.59034
3.53144
3.47216
3.41249
3.35249
3.2922
3.23166
3.17095
3.11016
3.0494
2.98882
2.92861
2.86874
2.80891
2.7497
2.69183
2.63556
2.58144
2.53026
2.4831
2.44147
2.4073
2.3831
2.37205
2.37819
2.40678
2.4621
2.54973
2.67853
2.86074
3.13198
3.54198
4.13215
4.72234
5.35816
5.31188
5.26619
5.2204
5.17335
5.12507
5.07465
5.02295
4.96145
4.89678
4.83647
4.77937
4.72545
4.67425
4.62322
4.57117
4.51756
4.46284
4.40722
4.35094
4.29398
4.23606
4.17734
4.11792
4.05782
3.99718
3.93607
3.87453
3.81254
3.75011
3.68723
3.6239
3.56014
3.49598
3.43146
3.36663
3.30151
3.23613
3.1705
3.10461
3.03835
2.97104
2.9028
2.83417
2.76525
2.69624
2.62753
2.55972
2.49371
2.43086
2.37296
2.3226
2.28327
2.25888
2.25416
2.27597
2.33528
2.45337
2.66459
3.01498
3.49888
5.52273
5.47362
5.42548
5.37757
5.32798
5.27714
5.22391
5.16933
5.10548
5.04049
4.97907
4.92092
4.86607
4.81408
4.76232
4.70961
4.65511
4.59972
4.54355
4.48692
4.42968
4.37131
4.31222
4.25261
4.19244
4.13192
4.07107
4.00995
3.9484
3.88644
3.82403
3.76123
3.69804
3.63454
3.57078
3.50684
3.44276
3.37857
3.31427
3.24987
3.18538
3.12067
3.05518
2.98881
2.92166
2.85377
2.78523
2.71614
2.64673
2.5774
2.50869
2.44138
2.37667
2.31607
2.26187
2.21828
2.19301
2.19875
2.25489
2.38984
2.62918
5.49072
5.44009
5.3908
5.3422
5.291
5.23871
5.18384
5.12847
5.06601
5.00396
4.94356
4.88632
4.83204
4.78096
4.72979
4.67783
4.62375
4.56933
4.51432
4.45923
4.40363
4.3465
4.28899
4.2314
4.17336
4.11533
4.05705
3.9987
3.93985
3.88061
3.82087
3.76085
3.70053
3.64012
3.5796
3.51914
3.45876
3.39856
3.3385
3.27867
3.21907
3.15975
3.10058
3.04114
2.98099
2.92014
2.85862
2.79651
2.73384
2.67065
2.60703
2.54298
2.47851
2.41368
2.34867
2.28494
2.22615
2.17902
2.15398
2.1665
2.2363
5.28462
5.23361
5.18431
5.13674
5.08457
5.03185
4.97631
4.92238
4.86385
4.80743
4.74938
4.69444
4.64169
4.59313
4.54361
4.49371
4.4408
4.38872
4.33616
4.28398
4.23144
4.17653
4.12215
4.06866
4.01466
3.96113
3.9072
3.85355
3.79899
3.74408
3.68843
3.63285
3.57709
3.52165
3.46626
3.41131
3.35662
3.30248
3.24875
3.19569
3.14323
3.09157
3.04065
2.99038
2.9402
2.88946
2.83824
2.78656
2.73449
2.68209
2.62934
2.57611
2.52212
2.46686
2.40977
2.3506
2.29016
2.23109
2.17823
2.13929
2.12555
4.92951
4.87897
4.83098
4.78667
4.73448
4.68252
4.62703
4.57659
4.52401
4.4757
4.42075
4.36878
4.3176
4.27307
4.22571
4.17902
4.12747
4.07889
4.02962
3.98105
3.93245
3.87993
3.82984
3.78286
3.73449
3.68689
3.63821
3.59071
3.54102
3.49118
3.43996
3.38993
3.33974
3.29082
3.24184
3.19388
3.14603
3.09928
3.05326
3.00864
2.96497
2.92275
2.88191
2.84214
2.80354
2.76471
2.72555
2.686
2.64636
2.60673
2.56733
2.52797
2.48842
2.44803
2.40604
2.3616
2.31428
2.26438
2.21346
2.16468
2.12342
4.46128
4.41109
4.36627
4.3277
4.27709
4.22658
4.17141
4.12641
4.08176
4.04374
3.99208
3.94268
3.89152
3.85299
3.80751
3.76519
3.71459
3.67092
3.62522
3.57965
3.53529
3.48427
3.43965
3.40327
3.36118
3.319
3.27503
3.23487
3.18882
3.14347
3.09503
3.05171
3.00734
2.96623
2.92393
2.88368
2.84178
2.80262
2.76495
2.72986
2.69618
2.66436
2.63482
2.60646
2.57815
2.5514
2.5241
2.49591
2.46881
2.44185
2.41736
2.39353
2.37098
2.34797
2.32426
2.29858
2.27024
2.2385
2.20362
2.1659
2.12735
3.67336
3.57942
3.48053
3.38105
3.28599
3.19754
3.11714
3.04686
2.98778
2.94017
2.90362
2.87727
2.85986
2.84948
2.84441
2.84328
2.84515
2.84945
2.85578
2.8638
2.87318
2.8836
2.89472
2.90621
2.91773
2.92894
2.93951
2.94907
2.95727
2.96371
2.96803
2.96979
2.96865
2.96422
2.9562
2.94437
2.92862
2.90903
2.88582
2.85951
2.83073
2.8004
2.76957
2.73955
2.7116
2.68687
2.66607
2.64946
2.63675
2.62723
2.6206
2.61604
2.61282
2.61048
2.60849
2.60647
2.60413
2.60162
2.59873
2.59648
2.59562
5.16174
5.04022
4.8653
4.65846
4.44598
4.23241
4.01708
3.80966
3.61584
3.44026
3.28483
3.15093
3.04015
2.9553
2.89178
2.84412
2.80834
2.78281
2.76688
2.75995
2.76119
2.76937
2.78305
2.80073
2.82101
2.84272
2.86481
2.88641
2.90664
2.92467
2.93975
2.95113
2.95791
2.95908
2.95357
2.94019
2.91758
2.8844
2.83955
2.78346
2.71602
2.63658
2.54477
2.44105
2.32745
2.20759
2.0866
1.97063
1.86553
1.7762
1.70514
1.6508
1.61019
1.5802
1.55809
1.54233
1.53244
1.52761
1.52573
1.52182
1.51655
5.16768
5.44089
5.53325
5.43889
5.25212
5.02458
4.76025
4.49018
4.22468
3.97291
3.74352
3.54227
3.37291
3.23652
3.13155
3.04978
2.98628
2.93812
2.90403
2.88338
2.87509
2.87753
2.88858
2.90586
2.92707
2.95027
2.9739
2.99659
3.01706
3.03408
3.04667
3.05387
3.05476
3.04827
3.03336
3.00905
2.97438
2.92845
2.8705
2.8001
2.71665
2.61941
2.50784
2.38275
2.24565
2.09886
1.9459
1.79241
1.64545
1.51295
1.40248
1.31895
1.26292
1.23149
1.22036
1.22633
1.24705
1.28115
1.32673
1.38138
1.44487
4.06828
4.65468
5.16891
5.50055
5.62538
5.58977
5.41467
5.16005
4.87424
4.57334
4.28647
4.02738
3.80345
3.61792
3.46632
3.3467
3.25286
3.17986
3.12524
3.08837
3.06803
3.06243
3.06894
3.0844
3.1057
3.13021
3.15582
3.1808
3.2035
3.22234
3.23608
3.24373
3.24414
3.23617
3.21859
3.19042
3.1508
3.099
3.03451
2.95671
2.86513
2.75925
2.63914
2.50526
2.35887
2.20164
2.03606
1.86637
1.69929
1.54267
1.40539
1.2964
1.2221
1.18403
1.17901
1.2018
1.24733
1.31152
1.3909
1.48317
1.58598
2.98821
3.46703
4.03615
4.61714
5.11761
5.46977
5.63975
5.62096
5.46587
5.20466
4.90383
4.60381
4.32158
4.07726
3.87288
3.7049
3.57114
3.46547
3.38347
3.32447
3.2871
3.26931
3.26801
3.27915
3.29869
3.32319
3.35003
3.37708
3.40237
3.42388
3.44024
3.45024
3.45277
3.44634
3.42974
3.4019
3.36193
3.30921
3.24315
3.16337
3.06929
2.96071
2.83754
2.70039
2.55017
2.38838
2.21753
2.0411
1.86474
1.6954
1.54177
1.41428
1.32303
1.27439
1.26849
1.30021
1.36257
1.44922
1.55516
1.67639
1.80813
2.38523
2.63496
2.99929
3.4715
4.01579
4.57049
5.05897
5.40575
5.57661
5.57227
5.42146
5.1798
4.88661
4.60349
4.34976
4.12928
3.94742
3.79762
3.67737
3.58718
3.52554
3.48993
3.4767
3.48042
3.49583
3.51851
3.54517
3.5734
3.60074
3.62479
3.64383
3.65666
3.66187
3.65802
3.6436
3.61763
3.57925
3.52763
3.46242
3.38294
3.28893
3.17992
3.05625
2.91809
2.76636
2.60241
2.42855
2.24827
2.06637
1.88887
1.72407
1.5829
1.47748
1.41795
1.4082
1.44464
1.51934
1.62387
1.75116
1.89511
2.04989
2.15192
2.2368
2.40028
2.65955
3.02232
3.47955
3.99765
4.51764
4.96995
5.2923
5.4487
5.44484
5.31506
5.10319
4.85793
4.60398
4.37867
4.18217
4.01494
3.88389
3.78938
3.72912
3.69873
3.69093
3.69915
3.71742
3.74186
3.76972
3.79818
3.82391
3.84516
3.86029
3.86818
3.86673
3.85482
3.83115
3.79496
3.74535
3.68175
3.60377
3.51089
3.403
3.28023
3.14274
2.99098
2.82608
2.65081
2.46794
2.28227
2.09895
1.92612
1.77459
1.65771
1.58832
1.5738
1.61267
1.6968
1.81574
1.9606
2.12341
2.29783
2.0978
2.0991
2.14191
2.24318
2.42007
2.68564
3.04355
3.47954
3.96046
4.43189
4.83274
5.11548
5.2642
5.28012
5.19103
5.02545
4.81964
4.60247
4.39399
4.21837
4.08321
3.99223
3.94135
3.91893
3.91588
3.92628
3.94532
3.9707
3.99872
4.02493
4.04737
4.0638
4.07362
4.07432
4.06468
4.04312
4.00943
3.96159
3.90037
3.82409
3.73345
3.62729
3.50669
3.37062
3.21984
3.05507
2.87931
2.69469
2.5062
2.31815
2.13879
1.9785
1.85156
1.77299
1.75286
1.79219
1.88294
2.01333
2.17258
2.35113
2.54219
2.09154
2.06418
2.05394
2.07178
2.13156
2.24816
2.43558
2.7023
3.0462
3.45207
3.88108
4.29558
4.65586
4.93144
5.09836
5.15173
5.09686
4.95465
4.77818
4.58289
4.40786
4.28547
4.21272
4.17399
4.15602
4.15471
4.16334
4.18325
4.20876
4.23331
4.25616
4.27123
4.28261
4.2841
4.27673
4.2561
4.22525
4.17833
4.11987
4.04508
3.95818
3.85329
3.73695
3.60235
3.4536
3.28868
3.1139
2.92738
2.73704
2.54421
2.35947
2.19093
2.05383
1.96586
1.9378
1.97471
2.0678
2.20665
2.37587
2.5672
2.77016
0.131382
4.70667
4.45392
0.771874
0.148715
0.0974143
0.00321347
7.66147
0.00325517
0.0229563
6.23175
0.92153
0.00321223
5.22081
0.084349
4.62142
0.0032395
7.64603
6.41554
0.00323883
0.839414
5.13031
4.37137
0.00334157
0.00323403
0.105821
0.00323595
0.963496
0.00322933
0.00326487
0.283256
0.00331632
0.0171382
3.50635
0.665852
6.20492
5.34788
1.46421
0.00319798
3.7286
1.94676
1.11863
0.00319447
3.93384
4.0517
0.239167
0.0032175
0.00945092
0.2765
0.955167
6.02136
6.64615
0.00318823
0.00340256
0.0713535
0.00445008
0.00326223
0.835599
5.36103
6.07442
4.64243
0.00345512
0.217716
0.022586
5.14024
0.121966
4.95599
6.75558
0.00475231
0.00320964
3.24108
2.40431
1.7935
0.0040181
0.0550468
4.60138
5.1985
2.94076
0.00317845
0.805952
0.00557113
4.09772
0.014053
4.20626
0.00321489
1.01438
0.00325032
3.48377
0.0264392
0.00409987
0.0851143
0.00317758
0.003428
6.28752
4.36308
0.00333367
0.386726
0.120626
0.00625672
5.68139
0.0622274
4.84773
0.7383
0.00317665
0.00318529
0.00318465
0.307027
0.116507
0.00328
5.14748
5.88614
0.0162879
5.03894
2.31951
7.17956
3.63677
4.58141
0.00417257
0.0657015
0.0033335
0.00320066
4.23405
0.00430164
6.52126
6.64036
5.04451
0.00319818
0.820604
0.829434
0.00319537
0.0363756
0.0237582
2.31557
0.00371536
3.78226
0.00320775
0.0031832
6.73048
6.55716
0.00319419
0.0666648
4.61477
0.111003
0.286851
2.54885
5.83492
0.05126
2.93197
0.0105757
5.39326
3.34496
0.00572917
2.63484
4.15329
5.24702
0.00320673
0.00319624
0.170711
0.00319655
4.82712
0.0367689
0.00516863
0.00321074
0.00319951
0.00323583
2.46911
5.91916
1.64507
0.00351518
5.53534
5.03998
3.51675
6.98198
0.0167239
4.55891
2.86644
4.55629
0.00318976
0.00489898
4.30904
6.00009
1.1318
2.77709
0.00319734
0.00329654
5.20687
0.025956
0.517351
0.00323429
0.00321041
0.099577
0.00344965
6.2941
0.526616
0.00318955
0.198658
3.21457
3.51096
0.00472135
4.37787
0.00320045
0.00319822
3.32842
1.929
5.71027
0.00478715
0.00325537
0.012409
2.14229
4.36429
1.04372
3.40391
4.22705
6.02503
0.233351
3.65447
3.32453
1.0088
1.19036
3.59918
0.00347635
0.0332843
0.00319426
0.00327054
4.63746
0.0129101
0.0144386
0.0036868
0.0159788
2.58951
4.99671
0.0206954
4.14788
0.87047
1.34227
0.00319239
0.0821956
2.28629
0.832603
0.00450152
1.52907
5.10798
0.247423
0.712407
6.41087
0.803396
0.622787
4.36876
0.0038447
0.00318763
0.00362745
0.0116545
3.92564
0.00322305
0.00399619
0.0031939
0.373546
3.45588
4.87637
5.48904
3.17588
1.21912
6.59461
0.00480406
4.92974
5.43277
0.00319398
3.15902
0.003214
4.83163
0.371823
2.72693
0.00465562
0.00320526
1.70256
0.963018
0.00323838
0.00319447
0.00320722
0.00324414
0.329423
1.68136
2.45483
0.0261602
0.00324015
0.00318813
0.00317761
4.07734
0.0941549
0.00388701
1.18445
0.0790397
0.0884698
0.00318179
0.254925
0.00323949
0.0216
1.5786
5.0528
0.576484
0.0033029
0.00438412
2.93236
0.0871463
2.43493
6.62461
0.00340451
0.00319284
0.00319391
5.02519
0.00322039
6.23704
0.00321051
1.2485
2.56926
0.0341748
3.95271
5.6369
0.00402119
5.58338
4.57007
1.82133
4.55838
4.17876
6.5127
4.76308
3.84172
6.19527
3.76174
1.78535
0.118397
6.55678
6.43315
5.88245
3.67001
0.00469378
5.3228
3.84389
6.03464
0.0244661
0.0033892
0.00319676
0.00328407
0.210689
0.378355
0.288244
0.0709312
0.00320485
5.04462
0.00319911
2.24859
1.49037
5.52851
1.11914
1.48173
0.00409698
0.00368526
0.226989
3.82139
0.00700087
0.80403
5.34692
5.11447
3.65128
4.23856
5.23359
0.00327099
6.4826
4.33176
1.83732
0.00319967
5.06353
4.66102
0.00323714
3.44719
0.00320174
6.14301
3.94411
3.6253
3.52872
3.63673
4.74109
0.0033279
4.78045
0.00352836
5.17995
3.57003
4.49857
6.45579
0.574352
0.197421
0.520445
0.00366583
4.96674
0.185246
0.00763076
0.00585205
4.94599
0.00352165
3.85072
0.00320525
0.00320774
0.00644575
1.81375
0.0712847
1.42649
0.00363852
3.56434
0.129214
5.0321
6.40184
2.11512
5.83699
0.00351194
6.47992
2.53738
0.00318786
3.50615
1.61652
0.0031848
0.00318681
6.11825
0.00761299
0.823021
0.226182
3.62653
0.023679
0.448615
2.07688
2.69863
1.93413
1.94374
2.9598
0.00465161
0.0427764
4.40983
0.808485
6.70419
5.93338
3.47392
0.0460653
4.21352
4.19023
0.508081
2.39687
2.20364
1.62965
0.00381644
3.65117
6.666
0.00387867
5.3157
1.65644
2.22134
0.0176176
0.0469019
5.44262
0.00405506
6.68282
0.00393787
0.366974
0.00321286
0.94774
2.95402
0.207319
0.00400349
0.00415104
3.70506
2.69351
0.21844
1.49678
5.64704
4.45066
0.00537644
1.20214
2.88552
3.82737
2.3552
4.78677
4.53526
3.70397
2.83177
0.845466
2.13715
6.60702
1.97615
6.7114
5.20821
0.0747003
4.27757
3.6494
0.00348755
2.97389
2.49237
3.14857
0.0210008
4.33991
1.56647
0.538693
1.97869
0.00556065
0.00320397
0.0117284
4.89562
2.55669
5.42916
0.00321191
0.00322113
0.00318921
3.32227
0.0404738
0.00319501
0.0887597
2.80704
5.24997
0.00751247
0.00784893
0.00318458
0.00321017
0.00402407
1.75703
1.8504
0.80461
0.43861
6.09529
5.64903
0.005503
1.5929
4.42609
4.30084
3.37205
6.53917
0.00349551
0.00703019
0.00319384
4.52358
0.178057
0.00318833
1.16074
0.122613
6.5266
0.00323783
6.259
0.92108
0.025384
5.6258
0.00318936
0.00318992
0.00341614
6.67738
2.85684
4.4243
5.18407
1.50994
4.59648
0.00317572
0.00475438
0.216331
0.0215009
0.0213975
2.11781
5.21944
0.00319593
1.37779
4.39875
5.12052
6.67245
0.00631289
6.6801
0.00441206
0.0236334
4.47495
0.00319402
4.84229
0.0032387
0.00324166
0.0370552
3.52079
0.565752
2.78957
1.94684
0.00331098
3.91195
5.12488
0.0969947
0.726249
2.26998
0.00322055
0.00320359
0.00684783
4.67841
0.652124
0.00354697
5.98089
5.57616
5.74977
0.0130066
4.42506
0.00484371
1.95615
0.0820637
0.0668327
4.41756
4.45272
2.13551
5.24681
0.00329955
0.00317617
0.00629281
5.37671
3.42726
0.781567
0.00997775
0.00320606
0.00319014
0.00587573
0.00374203
0.00521599
4.41806
2.37675
0.0128627
2.5066
5.01419
0.00324779
5.11346
0.0032192
0.332364
0.00324476
0.0198814
1.09215
0.0171658
0.00320387
0.614566
6.51909
5.38626
0.00322349
0.00318921
0.301902
0.00446169
0.00320463
2.46123
0.00340295
4.45429
6.63816
2.10559
2.41062
2.67991
6.39614
6.71754
0.00318969
0.00787035
0.026508
5.68097
1.852
5.08913
3.26924
0.855302
5.88259
4.51321
3.50911
1.55172
1.40006
0.00321322
0.259042
2.8035
2.24264
4.81726
1.00981
0.0925143
2.36772
0.105213
0.0111731
2.84323
0.00319296
3.90211
0.00330576
0.435824
6.55713
3.92003
0.42857
0.00662331
0.779685
0.00321023
0.0031909
0.0723752
0.0163477
3.02792
0.00941429
3.64713
0.00321344
0.0203402
0.00318774
3.77667
0.00603668
5.54719
2.76975
0.0147338
2.07515
6.31596
0.00320083
1.84123
4.95906
0.00344983
6.5278
0.142257
0.00384381
0.00320665
5.53108
0.0031884
0.00369013
0.0634254
0.106156
6.34875
6.3363
0.00321885
0.00319652
3.87791
1.88036
0.0105084
0.737332
1.78416
0.00320185
0.00351502
0.00323817
5.18278
6.4173
0.512256
5.63511
0.0187487
2.52358
0.00349395
0.0109791
0.0178257
0.0469936
0.00319941
5.6501
0.00319697
0.020417
0.00321199
0.326237
0.0150823
0.00505614
0.26248
0.674526
4.37008
0.230093
1.02155
4.46408
7.24825
0.00336433
4.50911
6.50718
1.12496
3.35095
0.00328184
6.19199
2.80939
0.00319639
6.43483
4.99944
0.00522809
0.00341774
5.10679
5.05695
0.338142
6.55143
6.40538
0.722484
6.44185
5.7545
4.46219
4.45932
0.782908
5.61657
6.12169
6.05761
0.0149186
5.81667
1.58954
4.98686
0.00340667
0.335085
1.51518
5.97462
4.79645
0.0161073
4.90515
5.60899
1.97731
0.067014
0.437806
4.55926
0.00444758
4.59451
6.26019
0.0352535
5.92956
0.922975
3.70324
5.44812
0.00320002
0.00580025
0.847153
0.699417
0.0285384
0.00320567
0.236149
0.364629
0.00418692
0.00323616
6.2923
0.79634
2.27792
1.0149
0.00648251
0.0036321
0.509865
6.26017
0.00330833
1.46802
2.58716
0.419274
3.01464
0.00371369
0.162586
0.00319215
0.0175085
3.6591
0.00319183
0.107416
5.14481
3.75095
0.193084
3.69075
0.635474
0.979984
0.00382355
1.8749
6.26963
0.00319338
0.00319618
4.77526
0.0191902
0.00323503
3.10296
0.724146
2.01518
4.64402
1.57033
0.10577
1.5556
5.05234
4.15945
4.90468
0.00322558
5.52512
0.00334769
3.22347
0.00368619
0.00340425
5.07639
0.00777697
5.24051
0.0204368
0.0304488
1.90705
0.786421
0.0543002
0.00340273
5.14826
0.00339393
0.00318592
6.51308
4.90171
2.4987
3.74541
0.00326771
0.00317863
1.6328
4.75234
0.00317808
4.75285
1.75223
0.00320253
5.22446
0.00318883
0.514844
0.865067
1.17703
0.259246
1.7292
3.90344
0.00318867
6.21583
5.98111
0.00319091
0.0288283
4.69312
0.00318895
6.13183
3.84386
5.18102
0.00319249
0.00318718
4.25986
0.0870202
0.00348035
1.82969
1.80116
4.67984
0.0031807
0.00341801
0.0196559
0.0213233
0.00319995
0.00747892
4.49038
5.40576
0.0031988
0.958371
0.00320274
0.880423
0.00453496
0.00337415
1.8434
0.00318863
0.060708
0.00318799
2.09182
0.126047
1.22869
5.46271
5.39504
4.50396
0.651296
1.53228
0.00323529
0.747752
6.41449
4.46966
0.0824582
0.00332442
4.40391
0.0031981
0.0411193
0.00318641
6.38478
1.05999
0.490571
5.12883
2.23624
0.623136
3.48877
0.786321
5.96589
4.13481
0.00322428
0.00339547
0.00535586
0.00334341
0.016555
2.90022
0.00396009
5.57012
0.0043773
0.385326
0.453676
4.38623
0.00580547
2.14637
0.0293793
1.70445
1.97908
6.26246
0.00368598
0.00412236
0.530862
3.44021
5.9933
3.21946
0.307595
2.48019
1.02921
0.0545911
0.449811
0.359316
4.50292
0.00319674
4.99793
0.331223
2.86014
0.00323123
2.78664
1.11791
0.00322279
1.82283
1.55575
0.0451394
0.00320386
0.00319383
5.0462
2.62967
2.52203
0.0031793
0.0125133
4.65042
5.49795
0.97986
0.00899653
0.00318246
4.19773
4.33746
5.14421
2.15908
0.003191
4.03811
6.54287
0.00320882
0.00321118
1.29391
0.0032362
0.00807569
0.0788905
1.99617
0.00473833
5.20955
6.68514
0.0033091
0.00353766
0.00318847
0.00320984
3.12434
5.12068
6.419
0.0233367
1.82003
5.19548
0.0848946
2.36382
0.0038335
4.50252
0.206299
4.41955
0.682951
1.76509
4.0558
0.00565202
0.00323758
5.04139
5.01242
5.02041
0.728798
2.76252
0.175308
0.680463
0.00837785
0.00408659
4.39934
4.63345
0.0416544
0.31556
0.00320874
0.0574196
1.54361
0.040986
1.09054
0.828623
4.49294
3.29967
0.414872
5.37496
4.75113
5.69608
1.33218
4.84339
5.41266
0.5452
2.38521
0.00344346
2.60708
2.63561
0.00320018
0.00318953
0.0595776
0.00319571
0.00345211
5.66645
6.17491
0.00320656
6.17454
0.00319369
0.00319037
0.00318093
0.00335985
0.00557959
3.44042
1.62948
6.20419
0.00321336
0.0032382
0.768674
0.00333299
0.0344101
0.00324556
0.00323871
4.7382
0.00362989
0.00784338
4.24581
0.00919156
0.00320966
4.69558
0.00319613
0.00322066
0.0478446
0.00333296
1.74008
0.00569981
0.0199286
0.00320265
0.00326131
6.51073
6.63229
1.89472
0.0336242
4.06387
1.24113
0.00590587
3.39444
5.29912
6.09149
5.12887
0.00321911
0.827471
2.49629
0.11506
4.15289
5.58397
0.160188
3.62402
0.00639226
4.31642
0.0613439
0.941124
0.00323364
5.30663
0.00343177
4.65267
2.02077
0.00320681
0.277192
0.00571786
0.0469994
0.00321033
0.654696
0.00341558
0.00325507
4.73014
0.00328861
0.0872146
6.0421
1.98952
0.00361976
0.00411097
1.96742
6.20921
0.00319222
0.00321057
0.133894
1.43308
4.86345
0.00687146
1.33419
0.00319543
0.00329268
0.00318085
0.0252185
1.25255
0.0120173
5.45196
2.85932
6.22167
5.02554
0.00331659
5.70625
3.11979
0.00319205
0.00322581
0.00321917
0.00360205
0.00319223
4.31451
0.00320429
0.00319128
6.02662
0.244894
0.00600746
0.0570483
3.24583
0.881246
0.0087973
0.00334542
5.40628
0.00324527
2.04804
0.00329435
0.00334524
4.95319
4.16927
0.00608319
0.00389767
0.338283
0.00320046
6.10034
0.003283
4.2168
0.011767
0.82265
0.02388
0.489807
0.0372038
1.58133
0.00324182
0.00335232
0.00855588
2.12104
0.0671003
6.54624
0.00319715
0.00576622
0.00445058
6.20398
2.70949
3.86934
0.00724241
0.0116805
0.22183
0.00321565
1.11115
2.31856
0.0121363
5.49939
5.38778
4.21591
0.00487739
0.308146
4.95871
5.6863
4.27316
0.0186102
4.17821
0.0681079
3.99173
0.0657225
0.416083
1.63488
0.00324353
3.77215
0.00364623
0.00941058
0.00400071
0.0379065
0.00342025
1.18006
0.00321634
4.41795
0.0868514
0.00324743
0.254283
0.00323242
0.217156
0.0818881
5.35382
0.52931
4.775
0.171276
0.00320786
0.00317945
1.1754
0.0597022
2.31107
6.22541
0.00321663
7.80867
2.20487
0.0172935
2.06688
2.08098
4.58965
3.21529
0.0690795
0.00467061
6.39015
1.70309