/*--------------------------------*- C++ -*----------------------------------*\
| =========                 |                                                 |
| \\      /  F ield         | OpenFOAM: The Open Source CFD Toolbox           |
|  \\    /   O peration     | Version:  2.3.1                                 |
|   \\  /    A nd           | Web:      www.OpenFOAM.org                      |
|    \\/     M anipulation  |                                                 |
\*---------------------------------------------------------------------------*/
FoamFile
{
    version     2.0;
    format      ascii;
    class       volScalarField;
    location    "0.11";
    object      nut;
}
// * * * * * * * * * * * * * * * * * * * * * * * * * * * * * * * * * * * * * //

dimensions      [0 2 -1 0 0 0 0];

internalField   nonuniform List<scalar> 
9648
(
0.000267913
0.000261754
0.000260828
0.000259274
0.00025746
0.000255403
0.000253169
0.000250804
0.000248339
0.000245794
0.0002432
0.000240621
0.000238069
0.00023556
0.000233133
0.000230818
0.000228617
0.000226528
0.000224565
0.000222745
0.000221059
0.00021951
0.000218102
0.000216822
0.000215661
0.000214627
0.000213716
0.00021292
0.000212227
0.000211641
0.000211154
0.00021076
0.000210457
0.000210244
0.000210111
0.000210063
0.000210098
0.000210213
0.000210397
0.000210651
0.000210986
0.000211395
0.000211876
0.00021244
0.000213077
0.000213781
0.000214567
0.000215447
0.000216413
0.00021745
0.000218568
0.000219778
0.000221041
0.000222338
0.000223657
0.000224976
0.000226259
0.000227465
0.000228624
0.000229758
0.000230869
0.000432001
0.00043338
0.00043362
0.000442191
0.000457128
0.000475959
0.000497654
0.000522094
0.000548995
0.000578248
0.00060951
0.000642786
0.000677818
0.000714338
0.000752096
0.000790985
0.000830793
0.000871232
0.000912087
0.00095332
0.000994708
0.00103615
0.00107758
0.00111886
0.00115982
0.00120045
0.00124075
0.00128065
0.00132001
0.00135882
0.00139711
0.00143478
0.00147176
0.00150813
0.0015438
0.00157871
0.00161293
0.00164649
0.00167929
0.00171118
0.00174224
0.00177256
0.00180206
0.00183069
0.0018586
0.00188571
0.00191173
0.00193698
0.00196159
0.00198533
0.00200831
0.00203073
0.00205279
0.002074
0.00209503
0.00211561
0.0021363
0.00215596
0.00217518
0.00219407
0.00221271
0.000917191
0.000931163
0.0009534
0.000994049
0.00104445
0.00110098
0.00116114
0.00122506
0.0012918
0.00136179
0.00143388
0.00150818
0.00158423
0.00166166
0.00174013
0.00181927
0.00189886
0.0019785
0.00205797
0.0021371
0.00221568
0.00229366
0.00237082
0.00244706
0.00252231
0.00259651
0.00266969
0.00274169
0.00281255
0.00288223
0.00295067
0.00301791
0.003084
0.00314882
0.00321239
0.00327481
0.003336
0.00339607
0.00345496
0.00351267
0.00356923
0.00362455
0.00367882
0.003732
0.00378404
0.00383502
0.00388484
0.00393378
0.00398164
0.00402856
0.00407454
0.00411967
0.00416449
0.00420749
0.00425091
0.00429234
0.00433364
0.00437193
0.00441038
0.00444786
0.00448448
0.00151418
0.00156417
0.00162289
0.00169632
0.00177946
0.00186889
0.00196265
0.00206001
0.00216024
0.00226344
0.00236863
0.00247569
0.0025839
0.00269314
0.00280289
0.0029128
0.00302262
0.00313202
0.0032408
0.00334873
0.00345575
0.00356162
0.00366629
0.00376969
0.00387179
0.00397252
0.00407188
0.00416984
0.00426641
0.00436149
0.00445524
0.00454761
0.00463858
0.00472827
0.00481657
0.0049036
0.00498931
0.00507381
0.00515703
0.00523903
0.00531982
0.00539943
0.00547783
0.00555514
0.00563126
0.00570623
0.00578005
0.00585276
0.00592418
0.00599435
0.00606368
0.00613114
0.00619748
0.00626209
0.00632655
0.006389
0.00644957
0.00650825
0.00656549
0.0066212
0.00667443
0.00215155
0.00223653
0.00233013
0.00243531
0.00254909
0.0026692
0.00279401
0.00292219
0.00305337
0.00318705
0.00332253
0.00345927
0.00359692
0.00373524
0.00387364
0.00401174
0.00414922
0.00428593
0.00442161
0.00455617
0.00468943
0.00482128
0.00495159
0.00508036
0.00520759
0.00533331
0.00545741
0.00557992
0.00570081
0.0058201
0.00593781
0.006054
0.00616873
0.00628196
0.00639367
0.00650398
0.0066129
0.00672028
0.00682624
0.00693074
0.00703386
0.00713557
0.00723592
0.00733486
0.00743237
0.00752839
0.00762286
0.00771577
0.00780732
0.00789688
0.00798504
0.00807145
0.00815557
0.00823763
0.00831807
0.00839705
0.00847337
0.00854763
0.0086199
0.00868965
0.00875682
0.0027881
0.00290653
0.00303356
0.00317047
0.0033151
0.00346559
0.00362061
0.00377917
0.00394033
0.00410358
0.00426814
0.0044334
0.00459921
0.00476506
0.00493071
0.00509571
0.00525937
0.00542193
0.00558299
0.00574257
0.00590056
0.00605672
0.00621107
0.00636351
0.0065142
0.00666311
0.00681027
0.00695564
0.00709905
0.00724058
0.00738032
0.00751826
0.00765458
0.0077892
0.00792205
0.00805323
0.00818272
0.00831055
0.00843652
0.00856068
0.00868303
0.00880358
0.00892248
0.00903958
0.00915481
0.00926827
0.00938007
0.00948921
0.00959654
0.00970183
0.00980483
0.0099057
0.0100042
0.0100998
0.0101934
0.0102842
0.0103725
0.0104586
0.010542
0.0106219
0.0106997
0.0034167
0.00356714
0.0037268
0.00389526
0.00407063
0.00425162
0.00443674
0.00462505
0.00481587
0.00500785
0.00520084
0.00539377
0.00558664
0.00577907
0.00597131
0.00616216
0.00635098
0.0065382
0.00672326
0.00690641
0.00708775
0.00726664
0.00744338
0.0076175
0.0077896
0.00795979
0.00812795
0.00829427
0.00845811
0.00861955
0.00877885
0.00893583
0.00909096
0.00924423
0.00939524
0.00954415
0.00969135
0.00983617
0.00997891
0.0101193
0.0102572
0.0103928
0.0105261
0.0106573
0.0107859
0.0109121
0.0110363
0.0111577
0.0112768
0.0113931
0.0115069
0.0116179
0.0117258
0.0118308
0.0119324
0.0120317
0.0121282
0.0122214
0.0123111
0.0123974
0.0124805
0.00403237
0.00421314
0.00440452
0.00460438
0.00481062
0.00502135
0.00523622
0.005454
0.00567391
0.00589431
0.00611526
0.00633503
0.00655398
0.00677138
0.00698931
0.00720566
0.00741926
0.00763075
0.00783857
0.00804352
0.00824681
0.00844678
0.00864453
0.00883815
0.00902888
0.00921776
0.00940442
0.00958972
0.00977193
0.00995095
0.0101272
0.0102997
0.0104701
0.0106388
0.0108047
0.010968
0.0111293
0.011288
0.0114442
0.0115978
0.011748
0.0118946
0.0120379
0.0121789
0.0123164
0.0124511
0.0125828
0.012711
0.0128366
0.012959
0.0130781
0.0131939
0.0133074
0.0134172
0.0135227
0.0136246
0.0137236
0.0138201
0.0139123
0.0139995
0.0140826
0.00462504
0.00483186
0.00505396
0.00528281
0.00552139
0.00575972
0.00600333
0.00625102
0.0064981
0.00674629
0.0069949
0.007243
0.00748727
0.00772643
0.00796737
0.00820954
0.00844773
0.00868578
0.00891899
0.00914233
0.00936657
0.00958704
0.00980596
0.0100195
0.0102236
0.0104279
0.0106287
0.0108312
0.0110327
0.0112282
0.011422
0.0116072
0.0117843
0.0119652
0.0121453
0.0123174
0.0124891
0.0126602
0.0128264
0.0129928
0.0131559
0.0133152
0.0134621
0.0136095
0.0137561
0.0138932
0.0140304
0.0141578
0.0142879
0.0144084
0.0145304
0.0146396
0.0147517
0.0148675
0.0149761
0.0150706
0.0151676
0.0152579
0.0153518
0.0154389
0.0155144
0.000231895
0.000232838
0.000233779
0.000234725
0.00023567
0.00023658
0.000237407
0.000238214
0.00023899
0.000239743
0.000240459
0.000241207
0.00024198
0.000242782
0.000243647
0.000244621
0.000245702
0.000246868
0.000248106
0.000249418
0.000250768
0.000252146
0.000253562
0.000254993
0.000256428
0.000257873
0.000259338
0.00026082
0.000262303
0.000263798
0.000265306
0.000266822
0.000268346
0.00026989
0.000271442
0.000273008
0.000274597
0.000276209
0.00027783
0.000279461
0.00028112
0.000282801
0.0002845
0.00028623
0.000287977
0.000289727
0.000291494
0.0002933
0.000295132
0.000296965
0.000298816
0.000300711
0.000302619
0.000304539
0.000306498
0.000308503
0.000310544
0.000312579
0.00031467
0.000316851
0.00031913
0.00223134
0.00224748
0.00226308
0.00227817
0.0022924
0.00230525
0.00231631
0.00232696
0.00233608
0.00234501
0.00235228
0.00235874
0.00236402
0.00236806
0.00237084
0.00237225
0.00237249
0.00237154
0.00236955
0.0023666
0.00236283
0.00235838
0.00235312
0.00234715
0.00234044
0.00233297
0.00232479
0.00231577
0.00230604
0.00229552
0.00228417
0.00227208
0.00225927
0.00224565
0.00223129
0.00221625
0.00220042
0.00218393
0.00216674
0.00214887
0.00213036
0.00211117
0.00209147
0.00207119
0.00205029
0.00202876
0.00200653
0.00198371
0.00196015
0.00193593
0.00191104
0.00188544
0.00185926
0.00183188
0.00180429
0.00177557
0.00174648
0.00171631
0.00168647
0.00165668
0.00162704
0.00451904
0.00455257
0.00458379
0.00461373
0.00464204
0.00466839
0.00469296
0.00471555
0.00473602
0.00475582
0.0047737
0.00479021
0.00480456
0.00481759
0.00482894
0.00483865
0.00484686
0.00485358
0.00485887
0.00486278
0.00486551
0.00486695
0.00486721
0.00486633
0.0048643
0.0048611
0.00485674
0.00485115
0.00484436
0.00483621
0.00482686
0.00481616
0.00480412
0.00479084
0.00477617
0.00476021
0.00474287
0.00472421
0.0047042
0.00468291
0.00466042
0.0046368
0.00461208
0.00458642
0.00455965
0.00453177
0.00450261
0.00447218
0.00444032
0.00440703
0.00437242
0.0043358
0.00429758
0.00425732
0.00421584
0.00417193
0.00412602
0.00407848
0.00403027
0.00398146
0.0039321
0.00672621
0.00677569
0.00682351
0.00686888
0.00691183
0.00695276
0.00699176
0.00702795
0.0070625
0.00709539
0.00712612
0.00715444
0.00718074
0.00720544
0.00722789
0.00724855
0.0072673
0.00728416
0.00729913
0.00731232
0.00732379
0.00733371
0.00734201
0.00734883
0.00735409
0.00735784
0.00735996
0.00736053
0.0073596
0.00735709
0.00735288
0.00734695
0.00733928
0.00732982
0.00731859
0.00730556
0.00729063
0.00727371
0.00725488
0.0072342
0.00721183
0.0071878
0.00716244
0.00713581
0.00710797
0.0070788
0.00704809
0.00701575
0.0069817
0.00694571
0.00690784
0.00686761
0.00682482
0.0067794
0.00673159
0.00668073
0.00662662
0.00657016
0.00651224
0.00645263
0.00639223
0.0088213
0.00888389
0.00894392
0.00900122
0.00905503
0.00910658
0.00915627
0.00920382
0.00924858
0.00929132
0.00933135
0.00936893
0.00940443
0.00943752
0.00946842
0.00949745
0.00952354
0.00954745
0.00956895
0.0095881
0.0096051
0.00962013
0.00963332
0.00964469
0.00965418
0.00966175
0.0096675
0.0096715
0.00967387
0.00967463
0.00967371
0.00967085
0.00966601
0.00965914
0.0096503
0.00963927
0.00962587
0.00961011
0.00959181
0.00957108
0.00954806
0.00952294
0.00949609
0.00946785
0.00943835
0.00940761
0.0093753
0.0093409
0.00930494
0.00926733
0.0092274
0.00918481
0.00913935
0.00909059
0.00903873
0.00898245
0.00892262
0.00885964
0.0087943
0.00872648
0.00865776
0.0107742
0.0108459
0.0109141
0.0109801
0.0110422
0.0111018
0.0111586
0.0112129
0.0112647
0.0113134
0.0113598
0.0114035
0.0114444
0.0114827
0.0115183
0.0115514
0.0115815
0.0116091
0.0116337
0.011655
0.0116736
0.0116897
0.0117036
0.0117153
0.0117249
0.011732
0.011737
0.0117398
0.011741
0.0117408
0.0117394
0.011736
0.0117308
0.0117236
0.0117146
0.0117032
0.0116889
0.011672
0.011652
0.0116293
0.0116036
0.011575
0.0115442
0.0115117
0.0114779
0.0114433
0.0114069
0.0113689
0.0113293
0.0112886
0.0112457
0.0111996
0.0111506
0.0110984
0.0110425
0.0109814
0.0109161
0.0108462
0.010774
0.010699
0.0106222
0.0125603
0.0126367
0.0127094
0.0127785
0.012844
0.0129063
0.0129663
0.0130238
0.0130785
0.0131298
0.0131782
0.0132239
0.0132669
0.0133064
0.0133426
0.0133765
0.0134078
0.0134361
0.0134609
0.0134812
0.0134981
0.0135119
0.0135229
0.0135314
0.0135373
0.0135403
0.0135403
0.0135372
0.013532
0.0135258
0.0135193
0.013511
0.0135018
0.0134909
0.0134792
0.0134652
0.0134477
0.013427
0.0134033
0.0133769
0.0133471
0.0133136
0.0132767
0.0132378
0.0131975
0.0131572
0.0131141
0.0130699
0.013024
0.0129789
0.0129319
0.0128808
0.0128277
0.0127713
0.0127118
0.0126455
0.0125748
0.0124982
0.0124198
0.0123377
0.0122536
0.0141623
0.0142375
0.0143085
0.0143749
0.0144376
0.0144971
0.0145545
0.01461
0.0146631
0.0147129
0.0147589
0.0148024
0.0148438
0.0148818
0.0149148
0.0149445
0.0149732
0.015
0.0150237
0.0150419
0.0150545
0.0150643
0.0150705
0.0150732
0.0150731
0.0150697
0.0150632
0.0150513
0.0150349
0.0150168
0.0150002
0.0149815
0.0149634
0.0149439
0.0149269
0.0149093
0.0148864
0.0148586
0.0148282
0.0147965
0.0147621
0.0147238
0.0146802
0.0146337
0.0145861
0.0145395
0.0144881
0.0144362
0.0143814
0.01433
0.0142781
0.0142201
0.0141611
0.0141001
0.0140377
0.0139664
0.013891
0.0138078
0.0137236
0.0136352
0.0135453
0.0155927
0.015661
0.0157273
0.0157794
0.0158315
0.0158747
0.0159243
0.0159642
0.0160069
0.016053
0.016093
0.0161209
0.0161556
0.0161909
0.0162194
0.0162395
0.0162558
0.0162732
0.0162948
0.0163121
0.0163182
0.0163244
0.0163298
0.0163263
0.0163181
0.0163061
0.0162945
0.0162788
0.0162513
0.0162183
0.0161884
0.0161532
0.0161203
0.0160838
0.0160556
0.0160327
0.016004
0.0159644
0.0159222
0.0158802
0.0158379
0.0157994
0.0157492
0.0156943
0.0156424
0.0155903
0.015534
0.0154738
0.015411
0.0153508
0.0152928
0.0152253
0.015155
0.01509
0.0150221
0.0149495
0.0148691
0.0147831
0.0146917
0.0145992
0.0145024
0.000321418
0.000323702
0.000326072
0.000328516
0.000330998
0.000333463
0.000335933
0.000338437
0.000340976
0.000343499
0.000346057
0.000348781
0.000352225
0.0003551
0.000358035
0.000361003
0.000363984
0.000366958
0.000369937
0.000372938
0.000375939
0.000378942
0.000381956
0.000384958
0.000387931
0.000390884
0.000393817
0.00039672
0.000399572
0.000402376
0.000405121
0.000407798
0.000410391
0.000412902
0.000415308
0.000417605
0.000419752
0.000421611
0.000422972
0.0004239
0.000424438
0.000424572
0.000424282
0.000423552
0.000422317
0.000420504
0.000418061
0.000414915
0.000410934
0.000405953
0.000399823
0.00039236
0.00038325
0.000372262
0.000354951
0.000337288
0.000329253
0.000325685
0.000324651
0.000323963
0.000321408
0.00159727
0.00156786
0.00153834
0.0015089
0.00147925
0.00144938
0.00141867
0.0013881
0.00135861
0.00132788
0.0012977
0.00126786
0.00123509
0.00120419
0.00117402
0.00114446
0.00111521
0.00108623
0.0010575
0.00102909
0.00100106
0.000973298
0.00094585
0.000918755
0.000892042
0.000865775
0.000839956
0.000814656
0.000789874
0.000765631
0.000741974
0.000718931
0.000696501
0.000674727
0.000653669
0.000633358
0.000613931
0.000594729
0.000573496
0.000551764
0.000531085
0.000511417
0.000492858
0.000475606
0.00045978
0.000445585
0.000433286
0.000423142
0.000415413
0.000410421
0.000408526
0.000410173
0.000415791
0.000425121
0.000440925
0.000469325
0.000512989
0.000581338
0.000684215
0.00082392
0.000921315
0.00388287
0.00383387
0.0037848
0.00373491
0.00368381
0.00363127
0.00357665
0.00352098
0.00346309
0.00340745
0.00335281
0.00329811
0.00324238
0.00318627
0.00312984
0.0030729
0.00301506
0.00295651
0.00289733
0.00283779
0.00277786
0.00271737
0.0026564
0.00259503
0.00253327
0.00247126
0.00240902
0.00234661
0.00228396
0.00222116
0.00215812
0.00209481
0.00203128
0.0019674
0.00190322
0.0018387
0.00177387
0.00170839
0.00164108
0.00157165
0.00148988
0.00140163
0.00131066
0.00121806
0.00112503
0.00103284
0.000943134
0.00085744
0.000777611
0.000705421
0.00064253
0.000590416
0.000549964
0.000521927
0.000507514
0.000510307
0.000533543
0.000584236
0.000674238
0.000818105
0.000990751
0.00633168
0.0062721
0.00621235
0.00615154
0.00608842
0.00602346
0.00595582
0.00588672
0.00581488
0.00574666
0.00567854
0.00561009
0.00554106
0.00547121
0.00539982
0.00532667
0.00525137
0.00517448
0.00509626
0.00501701
0.00493671
0.00485488
0.00477181
0.00468766
0.00460244
0.00451626
0.00442916
0.00434119
0.00425218
0.00416207
0.00407078
0.00397825
0.00388437
0.00378909
0.00369239
0.0035942
0.00349441
0.00339286
0.00328899
0.00318212
0.0030687
0.00294028
0.0027962
0.00264087
0.0024747
0.00229828
0.00211292
0.00192056
0.00172442
0.00152929
0.0013402
0.00116415
0.00100669
0.000873101
0.000766638
0.000691003
0.000647609
0.000637316
0.000664553
0.000739648
0.000866483
0.00858806
0.00851942
0.00845086
0.00838174
0.00830923
0.00823467
0.00815754
0.00807958
0.00799915
0.00792145
0.00784259
0.00776347
0.00768389
0.00760364
0.00752118
0.00743567
0.00734672
0.00725579
0.00716307
0.00706906
0.00697347
0.00687558
0.00677602
0.00667515
0.0065728
0.00646928
0.00636441
0.00625822
0.00615035
0.0060407
0.00592911
0.0058156
0.0057001
0.00558264
0.00546316
0.00534166
0.00521812
0.00509235
0.00496406
0.00483279
0.00469723
0.00455416
0.0043943
0.00421784
0.00402609
0.00381775
0.00359153
0.00334646
0.00308216
0.00280072
0.00250534
0.0022028
0.00190361
0.00162085
0.00136816
0.00115733
0.000995503
0.000882259
0.000815326
0.00079623
0.000829455
0.0105433
0.0104657
0.0103886
0.0103116
0.0102304
0.0101471
0.0100609
0.00997503
0.00988729
0.00980144
0.00971298
0.00962411
0.0095347
0.00944516
0.00935232
0.00925565
0.00915441
0.00905142
0.00894644
0.0088402
0.00873207
0.00862068
0.00850788
0.00839424
0.00827899
0.0081626
0.00804457
0.00792493
0.00780289
0.00767851
0.00755151
0.00742226
0.00729077
0.00715726
0.0070216
0.00688395
0.00674424
0.00660242
0.0064583
0.00631165
0.00616178
0.00600747
0.0058452
0.00566474
0.00546962
0.00525819
0.00502747
0.00477587
0.0045003
0.0041983
0.00386876
0.00351202
0.00313269
0.00274202
0.00235578
0.00199596
0.00168173
0.00142332
0.00122317
0.00108117
0.000997314
0.0121652
0.0120785
0.0119932
0.011909
0.0118191
0.0117269
0.0116318
0.0115382
0.0114438
0.011351
0.011253
0.0111547
0.0110558
0.0109575
0.0108546
0.0107476
0.0106346
0.0105208
0.0104051
0.0102886
0.01017
0.0100468
0.00992362
0.00980089
0.00967624
0.00955055
0.00942259
0.009293
0.00915975
0.0090236
0.00888415
0.00874286
0.00859938
0.00845455
0.00830773
0.00815949
0.00800943
0.00785797
0.00770485
0.00755021
0.00739346
0.0072341
0.00707059
0.00689779
0.00670807
0.00650415
0.00628326
0.00604316
0.00578085
0.00549314
0.00517615
0.00482642
0.00444274
0.00402635
0.00358609
0.00313784
0.00270322
0.00230386
0.00195453
0.00166384
0.00143667
0.0134481
0.0133517
0.0132584
0.0131675
0.0130694
0.0129689
0.0128652
0.0127638
0.0126633
0.0125643
0.0124572
0.0123495
0.0122417
0.0121353
0.0120225
0.0119053
0.0117812
0.0116576
0.0115327
0.0114081
0.0112806
0.0111472
0.0110166
0.0108888
0.0107576
0.0106248
0.010489
0.0103516
0.0102082
0.0100615
0.009911
0.00976069
0.00960841
0.00945635
0.00930241
0.0091481
0.00899214
0.00883662
0.00868072
0.00852537
0.00836912
0.00821215
0.00805317
0.00788966
0.0077131
0.00752277
0.00731704
0.00709452
0.00685333
0.00659084
0.00630409
0.00598872
0.00564005
0.00525487
0.00483299
0.00437955
0.00390709
0.00343262
0.00297585
0.00255418
0.0021826
0.0144015
0.0142927
0.0141935
0.014093
0.0139899
0.013881
0.0137717
0.0136602
0.0135553
0.0134483
0.0133346
0.0132164
0.0131044
0.0129877
0.0128666
0.0127367
0.0126056
0.0124708
0.0123396
0.012211
0.0120745
0.011935
0.0118
0.0116685
0.0115335
0.0113924
0.0112513
0.0111046
0.0109513
0.010793
0.0106338
0.0104779
0.0103195
0.0101634
0.0100057
0.0098488
0.0096907
0.00953881
0.00938779
0.00924151
0.00909282
0.00894647
0.00879875
0.00864819
0.00849169
0.00831806
0.00812835
0.00792228
0.00770269
0.00747196
0.00722114
0.00695102
0.00665026
0.00631975
0.00595026
0.00554634
0.00510343
0.00463516
0.00414767
0.00365872
0.00318849
0.000317674
0.000313534
0.000309158
0.000304729
0.000300441
0.000296358
0.00029259
0.000289269
0.000286454
0.00028416
0.00028237
0.000281088
0.000280236
0.000279711
0.000279449
0.000279396
0.000279493
0.000279695
0.000279992
0.00028038
0.000280835
0.000281338
0.000281886
0.000282447
0.000283002
0.000283543
0.000284061
0.00028453
0.000284933
0.000285256
0.000285476
0.000285568
0.000285521
0.000285318
0.000284939
0.000284379
0.00028363
0.000282696
0.000281571
0.000280289
0.000278887
0.000277406
0.000275886
0.000274413
0.000273029
0.000271784
0.000270733
0.000269903
0.00026927
0.00026878
0.000268438
0.00026822
0.000268062
0.000267945
0.000267856
0.000267781
0.000267687
0.000267551
0.0002674
0.000267324
0.000267381
0.000984427
0.00103634
0.00107332
0.00109262
0.00109986
0.00109795
0.00108559
0.00106552
0.0010409
0.00101342
0.0009849
0.000956458
0.000927958
0.000904796
0.000885941
0.000870426
0.000857792
0.000848094
0.000841613
0.000838459
0.00083846
0.000841202
0.000846055
0.000852375
0.000859545
0.00086706
0.000874479
0.000881387
0.000887418
0.000892218
0.000895476
0.00089693
0.00089625
0.000893106
0.000887179
0.000878132
0.000865542
0.000848907
0.000827554
0.000802327
0.000773982
0.000742783
0.000708879
0.000672436
0.000634102
0.000594877
0.000556207
0.00051985
0.000487344
0.000459532
0.000438081
0.000422639
0.000412066
0.000405257
0.000401484
0.000400242
0.000401209
0.000404015
0.000407911
0.000414873
0.000425366
0.00116747
0.0013418
0.00151307
0.00165008
0.00175042
0.00183337
0.00189625
0.00193415
0.00195487
0.00196112
0.00195393
0.00193743
0.00191141
0.00188062
0.00185556
0.00183277
0.00181279
0.00179667
0.00178599
0.00178211
0.00178557
0.00179596
0.00181206
0.00183222
0.00185468
0.00187797
0.00190078
0.00192189
0.00194018
0.00195458
0.00196432
0.0019686
0.00196673
0.00195801
0.00194187
0.00191791
0.00188582
0.00184543
0.00179665
0.00174002
0.00167594
0.00160433
0.00152445
0.00143784
0.00134584
0.00124954
0.00114999
0.00105021
0.000953834
0.000866198
0.000793297
0.000738508
0.00070321
0.000685592
0.000681948
0.000688975
0.000706094
0.000731455
0.000766648
0.000814405
0.000872621
0.0010409
0.00125448
0.0014942
0.00173158
0.0019502
0.00215345
0.00235045
0.00249386
0.00261262
0.00271263
0.00278746
0.0028436
0.00288348
0.0029082
0.00292079
0.00293189
0.00294146
0.00295104
0.00296337
0.00298183
0.00300879
0.0030453
0.00309051
0.0031424
0.00319832
0.00325583
0.00331263
0.00336668
0.00341583
0.00345809
0.00349192
0.00351604
0.003529
0.00352953
0.00351646
0.00348913
0.00344716
0.00339051
0.00331956
0.00323468
0.00313626
0.00302413
0.00289829
0.00275938
0.00260783
0.00244352
0.0022662
0.002077
0.00188338
0.00169297
0.00151732
0.00136937
0.00126019
0.00119326
0.00116476
0.00116693
0.00119312
0.00123806
0.00129871
0.00137197
0.00144927
0.000919412
0.00106931
0.0012781
0.00153152
0.00180824
0.00209124
0.00237048
0.00262322
0.00285381
0.00307488
0.00325084
0.00340202
0.00353996
0.00365876
0.00376484
0.00385979
0.00394754
0.00403225
0.00411476
0.00419841
0.00428671
0.00438237
0.0044861
0.00459654
0.00471104
0.00482684
0.00494106
0.005051
0.00515358
0.00524579
0.00532551
0.00539059
0.00543904
0.00546853
0.00547743
0.00546458
0.00542926
0.00537153
0.00529138
0.00518929
0.00506498
0.00491839
0.00474887
0.00455649
0.00434037
0.00409932
0.00383226
0.00353924
0.00322549
0.00290009
0.0025794
0.00228656
0.00204749
0.00188002
0.00178589
0.00175375
0.00176812
0.00181576
0.00188674
0.00197263
0.00206415
0.000973551
0.00101284
0.00111907
0.00129295
0.00152856
0.00181309
0.00212815
0.00244838
0.0027583
0.00305232
0.00331837
0.00356388
0.0038079
0.00401944
0.00422332
0.00442975
0.00463083
0.00482886
0.00502539
0.00522006
0.00541433
0.00560987
0.00580881
0.00601074
0.00621395
0.00641602
0.00661387
0.00680466
0.00698442
0.00714943
0.00729676
0.0074237
0.0075272
0.00760442
0.00765269
0.0076705
0.00765696
0.00761112
0.00753312
0.00742209
0.00727778
0.00709889
0.0068851
0.0066344
0.00634501
0.00601474
0.00564154
0.00522547
0.0047709
0.00428766
0.0037964
0.00333001
0.00292978
0.00263069
0.00244467
0.00235895
0.00234884
0.00239089
0.00246731
0.00256507
0.0026745
0.0012759
0.00118321
0.0011606
0.00121031
0.00133369
0.00152971
0.00179159
0.00210323
0.00244307
0.00278899
0.00312153
0.0034347
0.00373406
0.00401981
0.00430754
0.0046194
0.0049231
0.00524051
0.00557117
0.00590623
0.00624361
0.00657706
0.00690604
0.00723168
0.00755453
0.00787188
0.00818074
0.00847809
0.00875952
0.00902005
0.00925675
0.00946527
0.0096428
0.00978452
0.00988818
0.00995115
0.00997212
0.0099492
0.00988138
0.00976751
0.00960615
0.00939592
0.00913553
0.00882186
0.00845116
0.00801997
0.00752784
0.00697406
0.0063654
0.00571257
0.00504215
0.00439526
0.0038265
0.0033869
0.0030998
0.00295349
0.00291502
0.00295012
0.00303273
0.00314507
0.00327562
0.00187179
0.00162963
0.00146071
0.00136798
0.00135291
0.00141657
0.00155892
0.00177603
0.00205828
0.00238808
0.0027425
0.0031014
0.00345501
0.00379903
0.00414224
0.00449909
0.00487616
0.00529145
0.00574453
0.00621045
0.00669877
0.00718603
0.00766989
0.00814753
0.00861569
0.00907453
0.00952005
0.00994931
0.0103562
0.010735
0.0110826
0.0113925
0.0116621
0.0118858
0.0120605
0.0121824
0.012251
0.0122601
0.0122118
0.0121
0.0119268
0.0116864
0.0113799
0.0110007
0.0105451
0.0100086
0.00939288
0.00869688
0.00793085
0.0071083
0.00626241
0.00544062
0.00470841
0.00413131
0.00374259
0.00353383
0.00346533
0.00349351
0.00358301
0.00371135
0.00386398
0.00275136
0.00236728
0.00204817
0.0018012
0.00163361
0.00154791
0.00154555
0.00162563
0.00178604
0.00202072
0.00231689
0.00265925
0.00303323
0.00342378
0.00382308
0.00423676
0.00466244
0.00512072
0.00562315
0.00617885
0.00680576
0.00742687
0.00805613
0.00868942
0.00931893
0.00994007
0.0105429
0.0111262
0.0116805
0.0121983
0.0126796
0.0131083
0.0134898
0.0138119
0.0140752
0.0142686
0.0144005
0.0144515
0.0144341
0.0143305
0.0141559
0.0138866
0.0135419
0.0130986
0.0125617
0.0119202
0.0111876
0.0103524
0.00943549
0.00845029
0.00744186
0.00645732
0.00557168
0.00486551
0.00437672
0.00410402
0.00400154
0.0040216
0.00411493
0.00425815
0.00442967
0.00392817
0.015989
0.0160332
0.00311297
0.00382088
0.00622346
0.00125014
0.0218886
0.00125894
0.00328745
0.0219279
0.0138008
0.00124987
0.0130857
0.00580234
0.0179331
0.0012553
0.0235638
0.0205894
0.00125567
0.00335363
0.0129798
0.0155471
0.00127775
0.0012543
0.00439115
0.00125504
0.00341228
0.00125297
0.00126129
0.00413951
0.00127006
0.00276807
0.00818345
0.0128487
0.0188731
0.0161681
0.0134663
0.00124668
0.0180956
0.00471547
0.00995758
0.00124297
0.0177485
0.00606752
0.00906294
0.0012506
0.00200599
0.00388667
0.0140639
0.010821
0.0143237
0.00124465
0.00128997
0.00172379
0.000357539
0.00126071
0.0046176
0.0178745
0.016217
0.00775273
0.00130154
0.00132485
0.00314532
0.0170128
0.00295363
0.0176475
0.0168307
0.00154792
0.00124182
0.0501663
0.0136869
0.00455504
0.000423223
0.00261633
0.0187373
0.0165481
0.0162872
0.00124246
0.013387
0.00169133
0.01919
0.00114352
0.0175247
0.00124194
0.0115197
0.00125782
0.0119477
0.00191626
0.00142957
0.00495406
0.00124229
0.00129599
0.0157351
0.0170154
0.00127609
0.0100637
0.00270433
0.00178757
0.0174052
0.00162591
0.0414069
0.00789851
0.00124204
0.00124301
0.00124386
0.00537926
0.00618432
0.00126454
0.017703
0.0171735
0.0018008
0.00877183
0.00607241
0.0166971
0.0111305
0.0181251
0.00144312
0.0053021
0.00127059
0.00122286
0.00638339
0.000819857
0.0158868
0.0124561
0.0130395
0.00124251
0.0123229
0.0126157
0.00124272
0.00356316
0.00323056
0.00349492
0.00131337
0.0116572
0.00124303
0.00124284
0.0128414
0.0147129
0.00124423
0.00197785
0.0174088
0.00396771
0.00856577
0.00838057
0.0290125
0.000829519
0.010603
0.00232332
0.0149536
0.0445617
0.000311742
0.0137977
0.017468
0.017368
0.00124868
0.00124631
0.00755443
0.00124633
0.0159725
0.000950169
0.00161104
0.00124471
0.00124296
0.00124275
0.0166898
0.0136774
0.00626272
0.00131324
0.0137918
0.00736988
0.00247734
0.0277495
0.00268336
0.00868367
0.00567516
0.0196023
0.00124454
0.00157375
0.0060991
0.0250791
0.0100211
0.0151811
0.00124328
0.00126812
0.00970482
0.00341516
0.0110057
0.00124413
0.00124913
0.00536426
0.00130063
0.0152203
0.00983155
0.00124485
0.00802284
0.0054127
0.0149708
0.00154394
0.0118248
0.0012434
0.00124492
0.0178481
0.0146794
0.0147587
0.00155556
0.00125914
0.00215849
0.0147141
0.0103365
0.0103343
0.0152294
0.0548699
0.0170948
0.00360922
0.0178579
0.0167933
0.00930777
0.0145438
0.0124618
0.00128738
0.00394879
0.00124385
0.00126143
0.0188383
0.0025344
0.00268914
0.00100215
0.00262007
0.0139409
0.0105987
0.00294534
0.0158417
0.0128662
0.015671
0.00124448
0.00363894
0.0164751
0.0123421
0.00150403
0.0139735
0.0128794
0.00320038
0.0106383
0.016283
0.00693369
0.00417462
0.0178545
0.00138053
0.00124298
0.00133729
0.00240474
0.0151672
0.00125224
0.000914573
0.00124574
0.00699629
0.0215135
0.0209822
0.0250284
0.0398495
0.0150008
0.0150779
0.00155716
0.0158199
0.0276938
0.00124229
0.00509746
0.00124196
0.00600629
0.00693629
0.00469284
0.00153091
0.00124307
0.0149885
0.00343682
0.00124281
0.00124469
0.00124751
0.00125654
0.00933363
0.00631511
0.0165563
0.00190392
0.00124278
0.00124429
0.00124231
0.0178107
0.00287146
0.00138936
0.0115561
0.005529
0.00152703
0.00124324
0.00747218
0.00124262
0.0012761
0.00386117
0.00794658
0.00731533
0.00126879
0.0014748
0.0159974
0.00434207
0.0030019
0.0150089
0.00129087
0.00124197
0.00124469
0.0178873
0.00125135
0.0297392
0.00124298
0.0111499
0.0293573
0.00276952
0.00640387
0.00985656
0.00141553
0.0251497
0.0215333
0.00269241
0.0265984
0.0522357
0.0147753
0.0213992
0.024361
0.016387
0.0176067
0.00449463
0.00593074
0.0149385
0.0160963
0.0255294
0.0139121
0.00151138
0.0148845
0.00632597
0.0169772
0.00339604
0.00128769
0.0012425
0.00126518
0.00363538
0.00975684
0.00414188
0.00546183
0.00124818
0.0176469
0.00124251
0.00556543
0.0132088
0.0175292
0.00876437
0.0149672
0.0014079
0.00134932
0.00167658
0.00843512
0.00185171
0.00585487
0.00996423
0.0204362
0.017294
0.0153447
0.026201
0.0012626
0.0159821
0.0169561
0.00270998
0.00124547
0.0169834
0.017442
0.00125486
0.0129622
0.00124601
0.0106627
0.0138516
0.0147717
0.0176881
0.00589823
0.0177554
0.00127481
0.0178394
0.00131686
0.0228181
0.0167172
0.0194985
0.0160766
0.0117875
0.00781693
0.0100559
0.00134525
0.00463382
0.00123727
0.00197219
0.00142996
0.00780778
0.00131551
0.0173697
0.00124432
0.00124779
0.0018102
0.00902913
0.00448007
0.0129349
0.0010092
0.0177582
0.00699405
0.0164816
0.0108001
0.0151892
0.0106223
0.00131364
0.0161199
0.0168125
0.00124296
0.0166625
0.0137222
0.0012439
0.00124308
0.0178224
0.00197125
0.00761617
0.00165615
0.0072035
0.0034248
0.00885303
0.0146388
0.0131115
0.0147368
0.0115291
0.0161434
0.00150683
0.00125766
0.0160103
0.00814586
0.0147147
0.0113619
0.0149192
0.0039751
0.0173587
0.017325
0.00608937
0.00365849
0.0144538
0.0137539
0.00137156
0.0171414
0.0136459
0.00138686
0.0274296
0.0156051
0.014493
0.00290924
0.00400816
0.0127732
0.00140097
0.014831
0.00139933
0.00333587
0.00124961
0.0108403
0.0035048
0.00793563
0.00141029
0.00143725
0.00848016
0.00921327
0.00528028
0.00483679
0.0110567
0.00309101
0.00144684
0.0147022
0.0103514
0.0113451
0.00716057
0.00422701
0.0199991
0.0137034
0.0170982
0.0167505
0.0377033
0.0155273
0.00590338
0.01416
0.01777
0.00138007
0.00682926
0.0106708
0.00130854
0.00486934
0.00623664
0.0376115
0.00288205
0.0244771
0.00406061
0.00990009
0.00603795
0.00167626
0.00124248
0.000426651
0.0438444
0.0131463
0.016627
0.0012427
0.00125175