/*--------------------------------*- C++ -*----------------------------------*\
| =========                 |                                                 |
| \\      /  F ield         | OpenFOAM: The Open Source CFD Toolbox           |
|  \\    /   O peration     | Version:  2.3.1                                 |
|   \\  /    A nd           | Web:      www.OpenFOAM.org                      |
|    \\/     M anipulation  |                                                 |
\*---------------------------------------------------------------------------*/
FoamFile
{
    version     2.0;
    format      ascii;
    class       volScalarField;
    location    "0.72";
    object      epsilon;
}
// * * * * * * * * * * * * * * * * * * * * * * * * * * * * * * * * * * * * * //

dimensions      [0 2 -3 0 0 0 0];

internalField   nonuniform List<scalar> 
9648
(
2391.6
2402.74
2401.56
2397.07
2388.31
2374.4
2355.16
2330.74
2301.08
2266.32
2226.67
2182.31
2134.08
2082.97
2029.75
1975.35
1920.85
1867.22
1815.13
1765.07
1717.57
1672.93
1631.29
1592.81
1557.53
1525.35
1496.16
1469.9
1446.46
1425.66
1407.4
1391.55
1377.96
1366.51
1357.1
1349.61
1343.9
1339.92
1337.63
1336.95
1337.75
1340.04
1343.78
1348.89
1355.42
1363.4
1372.78
1383.55
1395.78
1409.61
1425.03
1442.01
1460.79
1481.34
1503.67
1527.62
1553.05
1579.64
1606.66
1633.48
1659.61
583.12
577.111
569.571
560.997
553.293
548.76
547.801
549.136
552.234
557.285
564.034
571.807
580.182
588.78
597.265
605.267
612.609
619.259
625.21
630.4
634.932
638.873
642.275
645.26
647.962
650.442
652.758
654.991
657.228
659.52
661.894
664.41
667.114
670.002
673.112
676.474
680.08
683.929
688.039
692.441
697.125
702.077
707.308
712.83
718.624
724.722
731.12
737.787
744.706
751.884
759.262
766.821
774.51
782.369
790.254
798.151
805.901
813.62
821.155
828.425
835.376
228.419
230.79
234.731
241.185
250.056
260.823
273.633
288.029
303.875
320.792
338.56
356.723
374.938
392.867
410.218
426.754
442.304
456.778
470.12
482.316
493.392
503.384
512.371
520.439
527.686
534.199
540.064
545.375
550.204
554.627
558.712
562.517
566.094
569.487
572.739
575.876
578.933
581.924
584.872
587.796
590.709
593.631
596.559
599.507
602.477
605.462
608.462
611.456
614.443
617.398
620.315
623.193
625.991
628.767
631.398
633.99
636.44
638.891
641.171
643.324
645.34
128.43
137.006
147.312
159.539
173.633
189.451
206.902
225.722
245.633
266.256
287.255
308.237
328.875
348.861
367.946
385.924
402.662
418.08
432.144
444.859
456.252
466.374
475.306
483.138
489.976
495.923
501.079
505.539
509.386
512.708
515.578
518.067
520.24
522.145
523.829
525.332
526.693
527.932
529.079
530.152
531.173
532.159
533.127
534.083
535.034
535.981
536.925
537.861
538.792
539.708
540.591
541.467
542.309
543.131
543.878
544.615
545.336
546.032
546.682
547.292
547.902
95.4681
106.968
120.243
135.34
152.22
170.78
190.822
212.059
234.139
256.645
279.191
301.38
322.893
343.447
362.825
380.837
397.385
412.419
425.925
437.944
448.516
457.697
465.587
472.28
477.904
482.576
486.405
489.495
491.93
493.804
495.201
496.192
496.853
497.237
497.388
497.353
497.174
496.871
496.477
496.012
495.492
494.945
494.386
493.832
493.282
492.746
492.227
491.723
491.228
490.749
490.267
489.784
489.311
488.836
488.356
487.873
487.414
486.954
486.477
485.996
485.519
83.3513
96.8621
112.238
129.47
148.453
169.051
190.998
213.948
237.492
261.165
284.558
307.256
328.969
349.425
368.475
385.913
401.672
415.754
428.155
438.969
448.254
456.056
462.514
467.706
471.799
474.929
477.204
478.754
479.642
479.972
479.843
479.314
478.482
477.403
476.103
474.643
473.078
471.41
469.68
467.906
466.098
464.29
462.503
460.753
459.035
457.357
455.724
454.149
452.619
451.121
449.654
448.206
446.783
445.381
443.992
442.648
441.34
440.046
438.751
437.464
436.172
79.6929
94.969
112.198
131.293
152.05
174.306
197.723
221.914
246.453
270.779
294.533
317.227
338.657
358.542
376.877
393.347
407.939
420.738
431.702
441.029
448.795
454.984
459.839
463.355
465.784
467.28
467.93
467.923
467.254
466.055
464.452
462.459
460.223
457.788
455.142
452.378
449.58
446.695
443.801
440.902
437.987
435.116
432.304
429.576
426.897
424.29
421.762
419.312
416.943
414.635
412.377
410.157
407.99
405.832
403.707
401.639
399.627
397.67
395.716
393.742
391.796
79.9639
96.8818
115.833
136.62
158.898
182.473
207.004
232.079
257.246
281.829
305.572
327.82
348.572
367.469
384.835
400.072
413.24
424.576
433.852
441.487
447.605
452.004
455.211
456.921
457.603
457.416
456.404
454.876
452.655
449.952
446.955
443.552
440.003
436.303
432.395
428.426
424.488
420.439
416.472
412.546
408.607
404.744
401.024
397.421
393.877
390.467
387.132
383.925
380.81
377.792
374.844
371.954
369.122
366.283
363.5
360.818
358.166
355.637
353.077
350.479
347.98
82.0442
100.288
120.793
142.896
166.556
191.082
216.308
242.126
267.472
292.157
315.532
337.221
356.913
374.52
390.698
404.605
416.273
425.999
433.79
439.74
443.981
446.547
447.867
447.943
446.932
444.929
442.366
439.372
435.523
431.378
426.928
422.273
417.682
412.744
407.476
402.485
397.337
392.123
387.194
382.134
377.085
372.002
367.545
363.104
358.656
354.645
350.398
346.553
342.545
338.813
334.982
331.479
328.073
324.517
321.071
317.939
314.556
311.74
308.549
305.231
302.29
1685.13
1709.85
1733.45
1755.89
1777.35
1798.26
1818.73
1839.07
1859.33
1878.6
1896.53
1913.71
1930.4
1947
1963.73
1981.31
2000.33
2021.26
2044.44
2070.22
2098.23
2127.94
2158.98
2191.01
2223.7
2257.02
2291.14
2325.7
2360.69
2396.11
2432.17
2468.72
2505.78
2543.51
2581.92
2620.89
2660.54
2701.02
2742.37
2784.45
2827.28
2871.11
2915.92
2961.54
3008.29
3056.04
3104.66
3154.19
3204.85
3256.68
3309.58
3363.44
3418.83
3475.32
3533.28
3592.5
3653.71
3716.9
3782.07
3849.11
3918.17
841.975
848.648
855.143
861.377
867.373
873.261
879.193
885.005
890.937
896.612
902.247
907.774
913.315
918.889
924.489
930.162
935.922
941.808
947.804
953.88
959.991
966.081
972.132
978.124
984.048
989.882
995.554
1001.03
1006.32
1011.43
1016.39
1021.17
1025.79
1030.27
1034.6
1038.78
1042.85
1046.79
1050.6
1054.28
1057.85
1061.33
1064.69
1067.93
1071.07
1074.1
1077.01
1079.78
1082.45
1085.01
1087.45
1089.75
1091.94
1094.16
1096.17
1098.26
1100.28
1102.5
1104.58
1106.71
1108.94
647.322
649.216
651.158
653.068
654.947
656.724
658.586
660.353
662.113
663.726
665.289
666.799
668.329
669.83
671.304
672.74
674.131
675.475
676.757
677.968
679.091
680.128
681.067
681.904
682.635
683.255
683.758
684.142
684.396
684.527
684.524
684.392
684.135
683.747
683.244
682.621
681.882
681.022
680.044
678.944
677.728
676.401
674.968
673.415
671.753
669.969
668.052
665.992
663.798
661.47
658.981
656.381
653.63
650.76
647.685
644.519
641.254
637.903
634.452
630.938
627.425
548.486
549.071
549.627
550.17
550.682
551.165
551.621
552.055
552.435
552.718
552.941
553.126
553.253
553.299
553.295
553.226
553.095
552.892
552.611
552.243
551.79
551.25
550.627
549.917
549.112
548.205
547.199
546.091
544.879
543.565
542.147
540.617
538.978
537.234
535.395
533.457
531.422
529.289
527.05
524.71
522.274
519.755
517.155
514.481
511.734
508.911
505.99
502.971
499.846
496.634
493.306
489.87
486.342
482.704
478.929
475.027
471.045
466.966
462.819
458.642
454.462
485.047
484.553
484.04
483.501
482.94
482.321
481.648
480.981
480.311
479.595
478.85
478.067
477.229
476.338
475.391
474.383
473.345
472.239
471.063
469.815
468.498
467.118
465.681
464.189
462.634
461.009
459.308
457.534
455.69
453.775
451.786
449.71
447.547
445.302
442.985
440.599
438.137
435.594
432.962
430.245
427.454
424.596
421.688
418.743
415.77
412.767
409.699
406.593
403.409
400.171
396.857
393.455
389.987
386.439
382.788
379.027
375.176
371.229
367.25
363.247
359.236
434.898
433.621
432.343
431.027
429.693
428.332
426.935
425.523
424.08
422.618
421.124
419.613
418.071
416.483
414.856
413.199
411.521
409.783
407.982
406.118
404.2
402.239
400.25
398.239
396.189
394.091
391.943
389.745
387.513
385.248
382.946
380.581
378.154
375.66
373.123
370.541
367.897
365.192
362.407
359.543
356.614
353.625
350.603
347.576
344.56
341.569
338.544
335.523
332.465
329.411
326.311
323.14
319.939
316.661
313.327
309.86
306.322
302.7
299.081
295.414
291.762
389.875
387.973
386.074
384.171
382.239
380.273
378.283
376.297
374.282
372.225
370.162
368.099
366.01
363.901
361.751
359.592
357.44
355.242
352.979
350.645
348.256
345.848
343.429
341.026
338.615
336.164
333.68
331.155
328.635
326.127
323.651
321.134
318.598
316.007
313.413
310.793
308.106
305.377
302.578
299.704
296.759
293.737
290.687
287.642
284.629
281.714
278.772
275.906
273.026
270.245
267.463
264.593
261.725
258.792
255.844
252.711
249.558
246.29
243.108
239.851
236.639
345.488
343.064
340.642
338.273
335.889
333.533
331.112
328.77
326.404
323.933
321.473
319.064
316.614
314.147
311.602
309.088
306.657
304.192
301.663
298.991
296.238
293.504
290.753
288.043
285.394
282.706
279.984
277.166
274.365
271.639
269.08
266.499
263.99
261.447
258.979
256.522
253.925
251.252
248.56
245.851
243.028
240.069
237.074
234.068
231.073
228.292
225.423
222.732
220.026
217.596
215.228
212.706
210.228
207.679
205.181
202.385
199.649
196.738
194.065
191.267
188.565
299.126
296.205
293.132
290.402
287.524
285.08
282.315
279.973
277.616
275.041
272.456
270.136
267.581
265.062
262.254
259.405
256.903
254.508
252.125
249.493
246.434
243.589
240.669
237.702
234.907
232.163
229.515
226.54
223.337
220.321
217.691
215.044
212.618
210.246
208.222
206.266
203.981
201.395
198.886
196.569
194.178
191.405
188.539
185.712
182.779
180.228
177.333
174.814
172.172
170.22
168.377
166.2
164.207
162.119
160.186
157.682
155.401
152.779
150.669
148.37
146.291
3990.33
4065.06
4141.75
4220.43
4301.55
4386.01
4473.24
4563.21
4655.61
4750.69
4848.89
4949.24
5051.96
5161.03
5297.05
5421.18
5544.65
5670.74
5799.32
5930.32
6064.07
6200.62
6339.53
6481.03
6624.9
6770.44
6917.36
7065.4
7214.39
7363.45
7512.5
7660.94
7807.91
7952.81
8095.15
8233.51
8366.76
8493.81
8606.91
8690.19
8746.85
8778.52
8784.98
8764.43
8715.24
8634.9
8519.33
8363.81
8163.95
7915.04
7610.69
7243.92
6809.35
6299.04
5688.69
4730.89
4308.5
4096.9
4013.51
3974.24
3893.66
1111.41
1113.97
1116.73
1119.55
1122.45
1125.59
1129.25
1133.31
1137.84
1142.66
1147.98
1151.21
1152.44
1155.23
1158.6
1163.38
1168.32
1173.19
1178.2
1183.47
1189
1194.83
1200.93
1207.29
1213.9
1220.73
1227.83
1235.19
1242.88
1250.95
1259.42
1268.37
1277.91
1288.16
1299.23
1311.33
1324.66
1339.57
1356.99
1385.74
1420.57
1458.53
1499.64
1544.02
1592.38
1645.05
1702.12
1763.87
1830.56
1901.75
1976.57
2053.38
2130.57
2207.13
2275.72
2340.02
2397.41
2482.7
2586.29
2694.68
2653.19
623.883
620.34
616.759
613.155
609.493
605.852
602.317
598.931
595.607
592.24
588.427
582.718
576.688
571.467
566.751
562.653
558.646
554.539
550.373
546.201
542.062
537.953
533.868
529.805
525.761
521.73
517.723
513.741
509.804
505.909
502.077
498.329
494.677
491.167
487.824
484.699
481.839
479.315
477.249
476.17
476.263
480.484
488.535
499.876
514.963
534.449
559.055
589.812
627.729
673.898
729.343
794.853
871.595
959.886
1059.51
1167.14
1273.48
1389.55
1532
1717.06
1905.02
450.28
446.103
441.922
437.722
433.472
429.219
425.011
420.896
416.753
412.503
407.473
401.411
395.516
390.154
385.178
380.554
376.04
371.541
367.039
362.561
358.108
353.663
349.233
344.823
340.426
336.054
331.706
327.385
323.09
318.825
314.592
310.398
306.254
302.171
298.162
294.245
290.442
286.771
283.257
279.966
276.98
274.602
273.505
274.144
276.377
280.543
287.104
296.709
310.203
328.608
353.342
385.738
427.468
479.664
542.985
615.413
692.638
776.044
873.944
1000.12
1158.23
355.239
351.3
347.377
343.429
339.411
335.39
331.38
327.446
323.479
319.39
314.537
309.172
304.067
299.359
294.898
290.675
286.551
282.518
278.54
274.625
270.749
266.863
262.998
259.159
255.336
251.541
247.774
244.036
240.317
236.621
232.949
229.306
225.7
222.141
218.638
215.203
211.846
208.581
205.416
202.371
199.471
196.781
194.434
192.782
191.953
191.958
193.02
195.442
199.657
206.203
215.877
229.686
248.832
274.582
307.961
349.089
396.524
449.737
510.956
585.723
680.354
288.103
284.561
281.044
277.524
273.862
270.202
266.53
262.969
259.376
255.711
251.355
246.793
242.486
238.52
234.689
231.024
227.419
223.963
220.595
217.325
214.104
210.843
207.618
204.437
201.265
198.133
195.017
191.933
188.853
185.788
182.733
179.708
176.711
173.76
170.857
168.016
165.243
162.548
159.934
157.412
154.996
152.71
150.592
148.734
147.381
146.434
146.016
146.249
147.34
149.567
153.3
159.067
167.539
179.487
195.79
217.009
243.262
274.601
311.632
355.995
410.785
233.337
230.227
227.154
224.129
220.845
217.59
214.27
211.148
208.003
204.882
201.088
197.291
193.702
190.474
187.262
184.193
181.109
178.249
175.478
172.826
170.226
167.526
164.907
162.377
159.833
157.34
154.837
152.376
149.885
147.406
144.916
142.467
140.043
137.677
135.35
133.088
130.882
128.751
126.69
124.716
122.829
121.055
119.4
117.901
116.619
115.708
115.079
114.797
114.966
115.723
117.255
119.817
123.731
129.428
137.381
148.08
161.937
179.27
200.541
226.53
258.515
185.604
182.922
180.318
177.864
174.974
172.156
169.178
166.555
163.909
161.412
158.159
155.048
152.075
149.557
146.903
144.437
141.832
139.561
137.349
135.241
133.198
130.958
128.883
127.006
125.047
123.131
121.152
119.259
117.266
115.294
113.273
111.346
109.435
107.617
105.812
104.083
102.382
100.762
99.2031
97.7432
96.3582
95.0859
93.9271
92.8771
91.9677
91.2998
90.8416
90.5819
90.5882
90.9338
91.7201
93.07
95.1547
98.1716
102.37
108.035
115.46
124.978
136.956
151.894
170.453
143.634
141.316
139.203
137.407
134.907
132.551
129.862
127.831
125.725
123.895
121.127
118.607
116.101
114.273
112.064
110.216
107.994
106.325
104.608
102.895
101.323
99.3939
97.8112
96.6875
95.2166
93.7229
92.1181
90.7568
89.1042
87.524
85.8099
84.3878
82.908
81.6103
80.2267
78.9612
77.6117
76.4046
75.2681
74.2647
73.3328
72.5062
71.7999
71.1778
70.5947
70.1256
69.8383
69.6707
69.7324
69.9504
70.5652
71.4926
72.9376
74.8659
77.4915
80.8457
85.2228
90.7139
97.7144
106.483
117.375
3749.95
3592.1
3422.79
3244.74
3066.97
2894.8
2731.55
2581.59
2448.65
2334.81
2240.52
2164.81
2106.1
2062.22
2030.52
2008.45
1993.87
1985.19
1980.98
1980.02
1981.63
1985.25
1990.44
1997.12
2005.19
2014.4
2024.84
2036.33
2049
2062.73
2077.46
2093.14
2109.65
2126.75
2144.34
2162.13
2179.8
2197.06
2213.76
2229.56
2244.06
2257.04
2268.41
2277.98
2285.86
2292.34
2297.54
2301.68
2305.29
2309.06
2313.27
2318.07
2323.94
2331.04
2339.09
2347.86
2357.1
2366.85
2376.14
2383.99
2389.53
2462.56
2259.43
2060.79
1870.45
1703.62
1549.54
1407.14
1277.21
1159.97
1056.27
966.252
889.429
824.917
771.113
727.685
693.82
667.858
647.89
632.39
620.255
610.727
603.211
597.335
592.852
589.66
587.413
586.283
586.062
586.788
588.431
591.003
594.48
598.852
604.078
610.098
616.84
624.187
631.997
640.093
648.27
656.25
663.689
670.188
675.32
678.704
679.99
678.899
675.352
669.521
661.808
652.773
643.112
633.598
624.884
617.218
610.912
605.749
601.563
597.741
593.912
589.258
1991.6
1979.02
1878.37
1705.24
1526.73
1353.64
1185.28
1032.59
896.079
775.133
670.713
582.339
508.857
448.986
401.702
365.318
337.41
315.31
297.806
284.067
273.273
264.74
257.939
252.493
248.074
244.58
241.725
239.534
237.906
236.813
236.227
236.142
236.541
237.387
238.655
240.301
242.282
244.55
247.049
249.693
252.382
255.005
257.433
259.493
261.026
261.838
261.751
260.613
258.358
254.984
250.622
245.589
240.293
235.219
230.726
227.246
224.939
223.877
223.925
224.914
226.586
1322.9
1469.23
1566.05
1583.15
1514.79
1390.45
1223.23
1053.87
897.416
753.113
627.357
521.969
434.966
365.152
310.317
267.674
234.53
208.364
187.789
171.796
159.443
149.944
142.645
136.99
132.548
129.021
126.18
123.904
122.092
120.677
119.618
118.892
118.47
118.316
118.392
118.661
119.085
119.628
120.245
120.887
121.5
122.031
122.42
122.608
122.538
122.159
121.431
120.33
118.861
117.041
114.929
112.659
110.429
108.488
107.092
106.553
107.111
108.869
111.814
115.946
121.362
796.023
930.373
1072.57
1199.2
1280.49
1299.04
1249.82
1145.19
1009.54
855.9
709.308
583.307
474.912
386.281
315.952
260.267
216.582
182.395
155.696
135.075
119.317
107.45
98.5882
91.9473
86.9054
83.015
79.9765
77.5892
75.7133
74.24
73.107
72.2786
71.7165
71.3767
71.2177
71.2014
71.2911
71.4498
71.6411
71.8238
71.955
71.9936
71.9003
71.638
71.1752
70.4898
69.5766
68.4448
67.1105
65.6165
64.0332
62.4749
61.1213
60.1927
59.9576
60.6507
62.5727
65.9364
70.8335
77.3807
85.5715
479.014
563.773
666.024
781.853
899.172
1000.39
1065.45
1078.99
1038.74
952.442
836.805
710.892
583.866
472.571
381.543
306.338
246.693
199.523
162
133.006
111.11
94.9524
83.193
74.6112
68.2598
63.4779
59.8405
57.0588
54.9277
53.2832
52.0307
51.1164
50.4886
50.092
49.8783
49.8064
49.8365
49.934
50.063
50.1865
50.2658
50.2672
50.1562
49.9042
49.4827
48.8768
48.084
47.1175
45.9905
44.7395
43.4233
42.1421
41.0495
40.3571
40.3512
41.3598
43.7828
47.9005
53.8976
61.8289
71.6346
298.212
347.838
409.696
485.246
573.546
669.941
764.55
843.334
892.001
900.049
865.238
794.758
700.531
596.432
494.265
397.733
317.835
252.639
198.26
155.743
123.501
100.016
83.2982
71.3453
62.6751
56.2634
51.4837
47.9103
45.2404
43.2156
41.6915
40.5831
39.8199
39.3273
39.0455
38.9245
38.921
38.9979
39.1193
39.2491
39.3499
39.3942
39.348
39.1874
38.8809
38.4207
37.8008
37.0366
36.1323
35.123
34.0546
33.0146
32.1366
31.6087
31.7115
32.8347
35.3946
39.8157
46.4203
55.3113
66.42
193.593
222.526
258.803
304.025
359.485
425.393
500.011
578.385
652.63
712.076
746.279
748.893
719.999
663.948
589.457
504.718
419.654
339.549
263.947
203.095
154.979
120.023
95.5947
78.3311
65.8938
56.7587
50.0228
45.0939
41.5053
38.8219
36.8226
35.3668
34.3578
33.6879
33.2788
33.066
32.9972
33.0307
33.1281
33.2524
33.3653
33.446
33.4593
33.3849
33.1851
32.8593
32.3951
31.8131
31.1075
30.3136
29.468
28.6512
27.9804
27.6242
27.8508
29.054
31.6875
36.2858
43.3203
53.0005
65.2661
131.064
148.062
169.321
196.102
229.445
270.369
319.234
375.527
436.778
498.968
554.278
596.693
619.842
620.951
598.392
554.324
494.655
423.557
350.097
275.458
206.225
155.954
120.964
96.0263
77.6551
64.1339
54.1866
47.0485
41.9633
38.1954
35.4262
33.3986
31.9853
31.0242
30.4049
30.0362
29.8518
29.7999
29.8393
29.925
30.0221
30.1142
30.1647
30.1532
30.0389
29.8224
29.492
29.0639
28.531
27.9222
27.2757
26.6645
26.2019
26.038
26.4249
27.7482
30.4881
35.2483
42.6081
52.9231
66.094
1.52964
211.138
188.989
2.33234
2.20288
0.203449
0.00071981
89.2554
0.000796618
0.0146825
93.4483
6.96917
0.000720748
244.171
0.166562
137.914
0.000757539
90.8008
117.645
0.000715745
2.34224
233.419
199.639
0.000767192
0.000781306
0.211994
0.000716935
7.80894
0.000753286
0.000820371
6.36731
0.000740892
0.00877555
65.1801
3.93668
111.498
71.5125
16.0222
0.000723284
44.7395
65.5259
28.4677
0.000743339
105.146
171.39
0.714033
0.000867145
0.00864766
1.28122
7.16447
363.506
356.078
0.00069782
0.00102958
0.0638708
0.0346063
0.000817468
9.04081
58.5549
283.369
139.057
0.000906394
1.55805
0.0250884
201.102
2.39751
38.5465
62.3388
0.00113275
0.000747674
9.75641
42.3096
56.0973
0.0396944
0.0515152
80.581
228.461
57.5199
0.000699719
5.40905
0.00234746
47.6929
0.0125935
114.062
0.000749932
8.72606
0.000791284
37.0568
0.0111381
0.00136946
0.23283
0.000698024
0.000934638
307.053
144.143
0.000867943
1.57187
1.82126
0.00184942
208.256
1.03749
31.4493
6.08063
0.000696448
0.000725954
0.000693548
1.44528
0.209687
0.000748164
175.322
223.672
0.00478681
233.775
26.7964
112.327
54.65
28.2173
0.00097803
0.110884
0.00110555
0.00167329
187.633
0.00309805
288.817
412.659
27.9522
0.000746029
7.29322
7.08688
0.000743951
0.0299429
0.0269703
91.7596
0.00187543
64.1928
0.000748841
0.000723792
395.564
349.752
0.000748868
0.745416
150.487
0.232308
0.900437
26.6122
119.204
0.297593
27.5709
0.00526545
273.772
11.0112
0.0374968
50.8335
111.622
189.71
0.000766432
0.000757537
0.514918
0.000694952
41.2122
0.113726
0.00145027
0.000740394
0.00074749
0.000758569
41.8056
69.0035
34.4162
0.000767748
282.916
298.825
407.13
165.043
0.00692146
159.827
45.1017
28.1728
0.000750244
0.00169879
193.438
67.7461
29.2755
73.0075
0.000745392
0.000842642
238.305
0.0296973
2.46576
0.000757788
0.000865048
0.173194
0.000798106
330.51
4.13526
0.000690954
0.682961
90.3286
141.164
0.00119866
52.5751
0.000746644
0.000750244
108.383
34.1965
298.897
0.00121563
0.000800979
0.00286331
43.1612
76.6437
10.1158
122.44
14.2439
233.183
0.813877
89.4524
84.1487
26.8939
10.6932
39.5184
0.00144484
0.0293825
0.000747706
0.000724578
28.3096
0.0100542
0.0117878
0.00198922
0.00628239
48.7709
196.838
0.0111288
169.835
7.61969
2.88841
0.000732511
0.533617
40.0952
7.43191
0.00106382
12.8844
34.9723
0.856604
2.41574
272.408
7.68484
4.9867
125.289
0.000955761
0.000723923
0.00102764
0.00428723
28.7229
0.00078503
0.00250657
0.000723689
1.78227
76.059
77.0394
49.0214
11.9542
11.4856
325.521
0.00114053
47.9034
98.5268
0.000743923
84.2498
0.000749604
329.442
1.78242
53.8332
0.00154961
0.000748488
20.5512
7.62535
0.000759625
0.000750631
0.000755424
0.00075165
1.17483
35.8608
46.5977
0.0109345
0.000760435
0.000724453
0.000695499
107.998
1.15709
0.00119182
19.6856
0.116413
0.0970277
0.000691609
0.785829
0.000760156
0.107912
47.5989
268.662
3.10621
0.000977262
0.00184903
58.3067
0.356305
130.683
323.195
0.000838459
0.00073993
0.000734035
159.576
0.000773782
135.985
0.00074983
24.7032
12.1951
0.0242543
140.28
239.258
0.00127355
49.8411
50.9352
89.9038
91.0468
9.67402
347.175
38.6042
71.6348
140.772
97.485
56.3099
0.340908
337.294
281.074
62.4339
33.5981
0.00100119
267.164
126.208
232.138
0.0188219
0.00086776
0.000745775
0.00081188
0.693849
1.55112
6.30384
0.125179
0.000726358
171.682
0.000746383
26.8871
24.5779
193.732
41.9374
19.5014
0.00192922
0.00110766
0.469334
86.6977
0.00437472
8.06756
257.309
35.8312
87.1144
192.02
61.3575
0.000821931
283.986
143.103
97.5687
0.000750526
193.535
153.213
0.000781606
30.495
0.000751657
390.216
171.698
28.0123
84.5037
114.563
150.67
0.000764894
149.948
0.000965552
68.8296
84.2302
28.1989
280.316
3.64129
0.490762
2.55674
0.00110146
441.151
1.50478
0.00290763
0.0018148
252.078
0.000953916
95.9902
0.000737525
0.000750086
0.00183862
32.324
0.194262
22.7243
0.00199009
86.4546
0.308324
217.891
278.872
39.9415
334.185
0.000794032
280.43
43.7012
0.000742376
81.528
26.8282
0.000695949
0.000727448
115.228
0.00206211
26.6294
0.46676
77.4251
0.0177087
3.56679
41.092
120.055
34.3121
82.8932
70.946
0.00100065
0.0340705
28.7395
21.4389
331.887
336.057
140.332
0.0850221
124.988
123.862
3.46242
91.9309
47.1336
27.1349
0.000821587
87.4119
382.101
0.00107673
90.4918
19.3426
47.7479
0.0153702
0.089733
265.913
0.00193214
327.833
0.00124849
1.81657
0.000738125
7.89489
168.687
0.555101
0.00132308
0.000902687
76.6229
26.7686
0.373363
5.52617
290.91
545.378
0.00138894
11.7681
27.2089
73.0603
26.1566
450.311
28.7219
154.543
53.7307
3.47827
7.18502
303.286
54.4977
354.275
173.369
0.232737
173.011
60.8955
0.00079219
92.1327
29.3226
12.9637
0.00978297
97.3309
44.9798
4.27667
53.4372
0.00159387
0.000747167
0.161306
28.1356
106.388
72.6577
0.000750196
0.000731374
0.000743959
28.2385
0.0279549
0.000745738
0.248559
95.1066
269.318
0.00441773
0.00454916
0.000721276
0.000738835
0.00194185
30.2788
101.844
21.0493
1.87679
296.189
378.198
0.00151141
61.9226
27.8308
28.386
78.6172
435.227
0.000822174
0.00446913
0.00075098
398.033
0.792069
0.00072694
10.528
0.354916
302.789
0.000759331
322.343
8.97821
0.0661669
202.774
0.000748217
0.000736694
0.00102769
402.421
54.9308
131.738
313.483
10.696
28.5504
0.000708524
0.00184958
0.470167
0.0156284
0.0163693
179.812
40.7703
0.00074787
25.4911
45.0083
185.054
404.786
0.00295294
408.395
0.00182819
0.0218402
149.174
0.00073945
149.32
0.000759555
0.000791858
0.0213072
34.4811
2.90562
326.225
62.0615
0.000886669
28.4579
501.415
0.214014
2.26292
7.33039
0.000774958
0.00075976
0.00231019
139.166
5.4917
0.000783451
269.773
275.869
216.951
0.115008
59.657
0.00109048
31.2307
0.543711
0.131828
122.341
29.675
151.494
175.483
0.000761256
0.000711371
0.00494107
73.0509
103.687
5.92464
0.00661241
0.000772346
0.000750083
0.00344362
0.12258
0.00211913
72.3882
21.2294
0.00498767
26.3007
173.241
0.000760681
38.0842
0.000742715
3.34549
0.000762491
0.0132474
37.6933
0.011663
0.000744594
4.05569
361.228
260.368
0.000731134
0.000747561
1.57841
0.133257
0.000747727
98.354
0.000906037
31.8737
375.177
30.4486
87.744
298.383
131.14
336.814
0.000747698
0.00250459
0.0111424
291.49
60.6218
200.069
5.44673
4.37927
99.5267
167.208
126.44
4.92755
46.2503
0.000750522
1.5639
41.0305
33.9616
310.003
26.5216
1.13102
42.3488
0.20572
0.00972141
41.1587
0.000751103
174.444
0.000887714
2.73126
293.898
185.744
3.11321
0.0025138
7.28712
0.000769013
0.000736274
0.200167
0.0135553
52.5772
0.00876092
28.6795
0.000750506
0.0191066
0.000725509
97.9192
0.00180842
86.0175
304.208
0.0143488
169.397
369.06
0.000757105
99.5536
221.496
0.000785825
288.364
0.273961
0.00082443
0.000790281
278.582
0.000731646
0.0011201
0.122839
0.217241
427.014
270.939
0.000751493
0.000755026
9.1307
28.9074
0.00712702
2.28574
22.4866
0.000747661
0.000954583
0.000911052
170.614
272.225
3.48495
292.401
0.0172471
26.5954
0.000772035
0.00720104
0.0160949
0.0434885
0.00074969
293.892
0.000741932
0.0161042
0.000772238
1.34151
0.014847
0.0412332
2.53533
5.24787
34.9658
2.18487
9.47808
27.8458
188.459
0.000816598
165.425
325.802
13.1143
78.2401
0.000761973
266.478
79.7564
0.000745658
405.835
65.7473
0.00639883
0.0256158
165.08
165.529
0.224336
316.034
404.029
4.36785
426.858
262.883
132.508
50.3978
20.9909
27.8573
264.888
289.628
0.0143208
305.841
41.3534
404.784
0.000813727
1.61792
2.74051
227.124
165.729
0.0118575
445.218
198.331
6.93225
0.0553695
2.77123
28.0424
0.00154969
28.1798
436.146
0.0293621
223.588
14.4959
95.6723
190.649
0.000746107
0.00168102
7.46536
5.46296
0.0133563
0.000748289
0.830368
1.81732
0.0012097
0.000758694
267.487
7.24382
53.4804
10.9945
0.00315471
0.00107658
0.419082
86.929
0.000824195
22.7006
30.064
1.83487
165.934
0.00100575
0.397064
0.000740625
1.75872
89.9702
0.00167377
0.185048
40.6726
165.564
0.50247
98.6413
5.18822
0.905046
0.00098833
34.3733
329.858
0.000744082
0.000755611
149.549
0.0158283
0.000758244
74.5591
2.07688
165.95
29.5369
38.2594
0.316617
17.3071
202.791
162.425
240.255
0.000763319
271.943
0.000969417
37.6754
0.000796549
0.00148228
44.7887
0.00209675
254.543
0.0122055
0.0324217
45.6331
7.77769
0.564597
0.000897695
186.181
0.00088721
0.000719229
343.112
162.433
41.998
28.6092
0.000814152
0.000683049
19.3182
150.079
0.000732784
217.122
37.378
0.00075294
172.803
0.000702108
3.37355
6.43882
10.6764
1.56055
76.6528
20.9437
0.000700272
270.052
324.168
0.00074455
0.0134298
28.8258
0.000708696
240.578
161.31
403.489
0.000745566
0.000727888
197.333
0.0980443
0.000837185
32.1383
81.0111
249.096
0.000720855
0.000794244
0.0158039
0.011633
0.000746819
0.0020317
129.361
50.6957
0.000746694
13.7723
0.000747032
10.0542
0.00109149
0.000867381
28.2741
0.000747474
0.345058
0.000730551
49.9233
2.12067
20.8057
188.596
360.449
148.471
5.30216
14.7898
0.000758248
5.68109
278.539
531.103
0.156888
0.000826856
130.67
0.000746076
0.114259
0.000720604
437.874
14.999
3.14546
196.856
53.0053
4.9755
83.1611
7.78683
226.367
117.535
0.00077392
0.000756178
0.0030885
0.000735518
0.0141206
98.7488
0.000932542
249.675
0.00186815
0.299695
3.10961
153.592
0.00136022
43.0729
0.0136759
55.7557
31.6449
432.438
0.000795437
0.000955426
1.44443
88.0141
63.0784
68.0345
1.9979
7.97435
20.036
0.0629149
10.2921
1.77509
30.1133
0.000756611
392.401
1.42974
57.7127
0.000788482
54.6501
16.2358
0.0019113
89.112
17.4564
0.0849623
0.000714996
0.000746031
202.989
49.5056
14.8065
0.000738139
0.00958282
50.2681
190.705
3.43012
0.00587623
0.000734953
147.556
131.583
35.6864
37.2423
0.000743695
102.658
433.081
0.000746912
0.000749285
18.6733
0.00128213
0.00387583
0.221299
47.6788
0.00105238
36.2138
344.865
0.000731537
0.000821899
0.000727411
0.000770293
69.0212
516.376
333.869
0.0206349
34.9483
46.8994
0.133355
46.3002
0.000823493
31.2746
0.531484
30.4342
5.3936
82.5124
102.536
0.142612
0.000759126
161.769
85.3472
274.248
5.78233
29.9867
0.533984
20.4553
0.00353836
0.00133613
152.937
144.613
0.0339506
1.19089
0.000754032
0.1
20.1525
0.0280938
13.8677
4.36604
387.617
37.1503
1.72917
271.481
143.584
56.3266
16.0432
199.585
187.501
3.22494
39.1132
0.00375287
48.7371
46.6846
0.000743455
0.000710861
0.347463
0.000748471
0.00077552
57.3424
297.422
0.000744683
83.3127
0.000744966
0.000736829
0.000741108
0.000752896
0.00181688
29.5522
44.7878
250.63
0.00071867
0.0010694
6.85232
0.000855551
0.0283502
0.000762782
0.000864721
167.011
0.000983637
0.00467989
182.755
0.00426302
0.000749434
186.404
0.000745379
0.000760599
1.46731
0.000871294
6.57554
0.00123959
0.024091
0.000743842
0.000753698
304.437
418.935
44.4284
0.0238101
110.558
16.7817
0.00130247
27.5937
308.53
236.788
476.579
0.00069956
27.201
57.7668
0.262097
28.5348
101.027
0.350638
31.6298
1.01924
28.4339
0.283525
7.41047
0.000757618
221.039
0.000755706
28.6219
33.4798
0.000747861
0.913712
0.00246103
0.0298498
0.000726539
3.83949
0.000894168
0.000742014
40.2924
0.034293
0.165291
232.59
153.931
0.000819321
0.000968697
31.544
261.569
0.000689476
0.000754025
0.197409
24.1304
150.649
0.00209849
16.3197
0.000745463
0.000818453
0.000718322
0.0280335
23.7376
0.0040917
270.702
29.7796
259.964
173.563
0.000843476
296.754
68.8845
0.000732735
0.000754063
0.000750339
0.00116004
0.000740243
124.733
0.000745389
0.000750509
345.87
1.23198
0.00268266
0.0354037
60.0064
7.68845
0.00771416
0.000824218
186.84
0.000762691
6.70801
0.000755152
0.000845871
164.476
164.162
0.0033473
0.000834938
3.89374
0.000744253
363.306
0.000753199
151.102
0.0269636
8.50241
0.121487
3.16455
1.95182
29.859
0.000760942
0.000860324
0.00490804
60.064
0.288989
304.187
0.000747056
0.00124323
0.00164334
257.865
63.7702
273.828
0.00226288
0.00350935
0.833775
0.000751298
19.8057
38.833
0.00879711
266.68
183.328
43.1392
0.00154813
1.45634
169.639
226.23
27.8789
0.0105839
122.003
0.530295
134.088
0.145209
2.29174
42.6926
0.000761953
28.4602
0.00122437
0.0050999
0.00648108
0.0478735
0.000907498
10.9022
0.000746048
46.086
0.132263
0.000866464
1.60235
0.000756578
0.76296
0.229423
40.1757
3.81344
93.3515
0.821475
0.000748381
0.000732554
4.71903