/*--------------------------------*- C++ -*----------------------------------*\
| =========                 |                                                 |
| \\      /  F ield         | OpenFOAM: The Open Source CFD Toolbox           |
|  \\    /   O peration     | Version:  2.3.1                                 |
|   \\  /    A nd           | Web:      www.OpenFOAM.org                      |
|    \\/     M anipulation  |                                                 |
\*---------------------------------------------------------------------------*/
FoamFile
{
    version     2.0;
    format      ascii;
    class       volScalarField;
    location    "0.72";
    object      k;
}
// * * * * * * * * * * * * * * * * * * * * * * * * * * * * * * * * * * * * * //

dimensions      [0 2 -2 0 0 0 0];

internalField   nonuniform List<scalar> 
9648
(
2.68726
2.69544
2.6945
2.69129
2.68493
2.67446
2.65993
2.64154
2.61916
2.59275
2.56238
2.52831
2.49099
2.45102
2.40908
2.36592
2.32227
2.27884
2.23623
2.19495
2.1554
2.11789
2.08264
2.04978
2.01938
1.99146
1.966
1.94295
1.92223
1.90378
1.88749
1.87328
1.86105
1.85071
1.84217
1.83536
1.83019
1.82659
1.82448
1.82381
1.82455
1.82662
1.83001
1.83467
1.84059
1.84776
1.85618
1.86589
1.8769
1.88922
1.90293
1.91805
1.93463
1.95268
1.97223
1.99316
2.01525
2.03803
2.06108
2.08399
2.10636
1.69679
1.69738
1.6967
1.6957
1.69651
1.70177
1.71362
1.73346
1.76117
1.79668
1.83973
1.88967
1.94556
2.00638
2.07109
2.13867
2.20821
2.27888
2.35001
2.42105
2.49155
2.56118
2.62972
2.69699
2.76292
2.82749
2.89076
2.95274
3.01349
3.07309
3.13168
3.18932
3.24609
3.30212
3.35748
3.41221
3.46644
3.52025
3.57366
3.62661
3.67922
3.73157
3.78364
3.8354
3.88694
3.93813
3.98896
4.03956
4.08998
4.14007
4.18974
4.23889
4.28761
4.33551
4.38287
4.42942
4.47537
4.52001
4.56361
4.60618
4.64779
1.38946
1.43266
1.48099
1.53544
1.59819
1.67029
1.75124
1.8407
1.93785
2.04203
2.15195
2.26664
2.3849
2.50553
2.62736
2.74928
2.87038
2.98979
3.10681
3.22093
3.33173
3.43894
3.54239
3.64203
3.73792
3.83016
3.91893
4.00435
4.08664
4.16601
4.24264
4.31678
4.38865
4.45839
4.52616
4.59218
4.65654
4.71942
4.7809
4.84108
4.90006
4.95789
5.01471
5.07056
5.12544
5.17932
5.2322
5.28414
5.33501
5.38481
5.43352
5.48119
5.52802
5.57332
5.61803
5.66112
5.70335
5.74362
5.78316
5.82154
5.85882
1.31588
1.40087
1.4954
1.59971
1.714
1.83811
1.97138
2.11264
2.26046
2.41346
2.56996
2.7286
2.88789
3.04663
3.20355
3.35753
3.50773
3.6534
3.79399
3.92911
4.05851
4.18197
4.29953
4.41131
4.51756
4.61852
4.71452
4.80585
4.89284
4.97579
5.05511
5.13109
5.20403
5.27426
5.34196
5.4074
5.47078
5.5323
5.5921
5.65033
5.70714
5.76267
5.81701
5.87028
5.9225
5.9737
6.02393
6.0732
6.12144
6.16866
6.21498
6.26004
6.30409
6.34691
6.38903
6.4299
6.46955
6.50798
6.54524
6.58138
6.61619
1.3565
1.4772
1.6111
1.7572
1.91456
2.08236
2.25913
2.44296
2.63198
2.82413
3.0175
3.21026
3.40097
3.58833
3.77111
3.94811
4.11855
4.28193
4.4378
4.58602
4.72644
4.85897
4.98381
5.10118
5.21156
5.31543
5.41318
5.50529
5.59211
5.67411
5.75174
5.82541
5.8956
5.9626
6.02665
6.08814
6.14732
6.20433
6.2594
6.3127
6.3644
6.41466
6.46369
6.51158
6.55836
6.6041
6.64883
6.69257
6.7354
6.77709
6.81782
6.85745
6.89584
6.93304
6.96922
7.00446
7.03848
7.07137
7.10302
7.13331
7.1623
1.44855
1.60127
1.77014
1.95335
2.14889
2.35508
2.56973
2.79043
3.01462
3.23972
3.46354
3.68387
3.89941
4.10868
4.3109
4.50463
4.68907
4.86414
5.02933
5.18494
5.33096
5.4672
5.59424
5.71219
5.82191
5.92408
6.01923
6.10804
6.19072
6.26791
6.34024
6.40803
6.47203
6.5326
6.58988
6.64436
6.69649
6.74626
6.794
6.83986
6.88391
6.9265
6.96783
7.00809
7.04722
7.08537
7.12267
7.15887
7.19424
7.22861
7.26191
7.2941
7.32517
7.35494
7.38365
7.41128
7.43792
7.46349
7.48771
7.51034
7.53177
1.57038
1.75275
1.95394
2.17097
2.4007
2.64094
2.88877
3.14132
3.39574
3.64839
3.89738
4.13969
4.37442
4.59996
4.81664
5.02196
5.21537
5.39733
5.56698
5.72534
5.87272
6.00836
6.13367
6.24804
6.35312
6.44993
6.53885
6.6212
6.69656
6.76583
6.82998
6.88892
6.94396
6.99552
7.04334
7.08821
7.13099
7.17112
7.20932
7.24565
7.27991
7.31269
7.34429
7.37499
7.4044
7.43287
7.46058
7.48735
7.51344
7.53852
7.5626
7.58551
7.60734
7.62776
7.64685
7.66513
7.68256
7.69899
7.71386
7.72695
7.73882
1.70942
1.91919
2.15032
2.39825
2.65862
2.92844
3.20502
3.48513
3.76524
4.04086
4.31056
4.56977
4.81868
5.05491
5.28168
5.49435
5.69259
5.87791
6.04777
6.20461
6.34976
6.48082
6.60163
6.70871
6.80535
6.89333
6.9726
7.04578
7.11091
7.16943
7.22311
7.27035
7.31372
7.35377
7.3896
7.42237
7.45336
7.48106
7.5074
7.53212
7.55433
7.57488
7.5944
7.61325
7.63061
7.64734
7.663
7.67794
7.69227
7.70585
7.71836
7.72971
7.74026
7.749
7.75642
7.7632
7.76874
7.77436
7.77787
7.77897
7.7794
1.85672
2.08893
2.3473
2.62043
2.90919
3.20334
3.50308
3.80835
4.10789
4.40358
4.68889
4.96321
5.22114
5.46323
5.69453
5.91138
6.11141
6.29687
6.46768
6.61958
6.75775
6.88182
6.99424
7.09448
7.17944
7.2545
7.32187
7.38324
7.43523
7.48092
7.52196
7.55663
7.58616
7.61168
7.63247
7.65146
7.66651
7.67912
7.69144
7.7013
7.70888
7.71351
7.71948
7.72385
7.72671
7.73047
7.73044
7.73108
7.7296
7.72782
7.72426
7.72024
7.71677
7.71142
7.70486
7.69798
7.68773
7.68183
7.67145
7.6572
7.64415
2.12789
2.14842
2.1681
2.18687
2.2048
2.22202
2.23878
2.25544
2.27202
2.2877
2.30217
2.31609
2.32958
2.34285
2.35622
2.3703
2.38549
2.40208
2.42034
2.44065
2.46259
2.48576
2.50992
2.53469
2.5598
2.58529
2.6113
2.63752
2.6639
2.6905
2.71743
2.74457
2.77195
2.7997
2.82776
2.85611
2.88486
2.91408
2.94372
2.9737
3.00412
3.0351
3.06659
3.09856
3.13111
3.16408
3.19748
3.23145
3.26603
3.30108
3.33666
3.37285
3.40975
3.44713
3.48534
3.52427
3.56426
3.60498
3.64681
3.68986
3.73424
4.68848
4.72705
4.76466
4.80147
4.83721
4.87145
4.90369
4.93464
4.96329
4.99114
5.01723
5.04228
5.06621
5.08908
5.11079
5.13119
5.15042
5.16842
5.18523
5.20082
5.21524
5.22852
5.24055
5.25138
5.26105
5.2695
5.27661
5.28211
5.28613
5.28862
5.28959
5.28907
5.28713
5.28373
5.27891
5.27275
5.2652
5.25636
5.2462
5.23475
5.22206
5.20817
5.19318
5.17702
5.15968
5.14109
5.12114
5.0999
5.07728
5.05333
5.02799
5.0012
4.97312
4.94328
4.91242
4.87992
4.84641
4.81139
4.77596
4.73997
4.70359
5.89441
5.92885
5.96166
5.9935
6.02426
6.05437
6.08254
6.10936
6.13394
6.15717
6.17874
6.19903
6.21788
6.23564
6.25206
6.26709
6.28074
6.29299
6.30382
6.31323
6.32129
6.32797
6.33327
6.33721
6.33976
6.34091
6.34068
6.33903
6.33591
6.33126
6.32512
6.31741
6.30817
6.29743
6.28519
6.27148
6.25629
6.23963
6.2215
6.20196
6.18106
6.1589
6.13555
6.11103
6.0853
6.05831
6.02991
6.00004
5.96865
5.93574
5.90129
5.86503
5.8271
5.78732
5.74592
5.70258
5.65752
5.611
5.56348
5.51505
5.46587
6.64994
6.68236
6.71345
6.74293
6.77115
6.79811
6.82358
6.8474
6.86951
6.88994
6.90873
6.92591
6.94149
6.95556
6.96799
6.97894
6.98836
6.99621
7.00247
7.00714
7.01027
7.01195
7.01218
7.01099
7.00831
7.00412
6.99839
6.99116
6.98245
6.97222
6.96042
6.94699
6.93192
6.91522
6.89698
6.87718
6.85577
6.83273
6.80806
6.78181
6.75412
6.72508
6.6949
6.66365
6.63138
6.59804
6.56341
6.52742
6.49001
6.45119
6.41082
6.36876
6.325
6.27943
6.232
6.18251
6.13115
6.07821
6.02416
5.96906
5.91333
7.18994
7.21637
7.24131
7.26464
7.28624
7.30623
7.32459
7.34127
7.35655
7.37043
7.38273
7.39349
7.40272
7.41032
7.41635
7.4209
7.42381
7.42509
7.42465
7.4225
7.41876
7.41356
7.407
7.39912
7.38981
7.37903
7.36678
7.35312
7.33813
7.32184
7.30416
7.28492
7.26409
7.24168
7.21781
7.19243
7.16544
7.13679
7.10637
7.07426
7.0406
7.00554
6.96938
6.93237
6.89463
6.85622
6.81673
6.77619
6.73448
6.69174
6.6476
6.60186
6.55462
6.50561
6.45476
6.40157
6.34651
6.28967
6.23176
6.17272
6.11314
7.55182
7.57052
7.58761
7.60321
7.61704
7.62911
7.63954
7.64818
7.65516
7.66057
7.66457
7.66713
7.66816
7.66758
7.6654
7.66179
7.65668
7.64988
7.64119
7.63058
7.61828
7.60453
7.58952
7.57339
7.55594
7.53702
7.5167
7.49502
7.47232
7.44872
7.4242
7.39832
7.3711
7.34241
7.31256
7.28135
7.24855
7.21416
7.17793
7.13989
7.10017
7.05885
7.0164
6.97328
6.92982
6.88633
6.842
6.79721
6.75158
6.70567
6.6587
6.61013
6.56048
6.50918
6.45631
6.40074
6.34335
6.28391
6.22386
6.16248
6.10066
7.74943
7.75871
7.76642
7.77252
7.77687
7.77942
7.78016
7.77931
7.77677
7.77233
7.76648
7.75943
7.75092
7.74078
7.72891
7.71589
7.70176
7.68592
7.668
7.64772
7.6255
7.60188
7.57706
7.55146
7.52478
7.49653
7.46681
7.43553
7.40354
7.37122
7.33904
7.30583
7.27193
7.23677
7.20113
7.16446
7.12597
7.08601
7.04432
7.00085
6.95551
6.90808
6.85929
6.80987
6.76034
6.71185
6.6624
6.61354
6.56407
6.51592
6.4673
6.41674
6.36572
6.31316
6.25977
6.20268
6.14435
6.08337
6.02301
5.96082
5.89861
7.77836
7.77636
7.77266
7.76776
7.76112
7.75304
7.74281
7.73201
7.71969
7.70464
7.68817
7.67114
7.65251
7.63238
7.60975
7.5862
7.56294
7.5383
7.51157
7.48135
7.44829
7.41429
7.37894
7.34293
7.30677
7.26895
7.22949
7.1872
7.14383
7.1008
7.06017
7.01883
6.97838
6.93702
6.89684
6.85659
6.81323
6.76767
6.72117
6.67399
6.62446
6.57194
6.51757
6.46217
6.40644
6.35363
6.29866
6.24599
6.19248
6.14338
6.09511
6.04346
5.99225
5.93963
5.88751
5.8297
5.77195
5.71026
5.65177
5.59062
5.53045
7.62802
7.61232
7.5934
7.57523
7.55421
7.53531
7.5122
7.49152
7.47075
7.44717
7.42141
7.39592
7.3679
7.33977
7.3061
7.26975
7.23697
7.20541
7.17402
7.13775
7.09269
7.04982
7.00523
6.95793
6.91216
6.86597
6.8204
6.76874
6.71089
6.65414
6.60365
6.55263
6.50508
6.45774
6.41668
6.37773
6.33254
6.28075
6.22961
6.18159
6.13227
6.07709
6.01815
5.95873
5.89793
5.84242
5.78108
5.72479
5.66602
5.61868
5.57367
5.52142
5.4719
5.42153
5.37313
5.31524
5.25968
5.19765
5.14324
5.08543
5.0305
3.77995
3.82662
3.87452
3.92365
3.97405
4.02584
4.07893
4.13347
4.18918
4.24606
4.30428
4.36357
4.42382
4.48718
4.56561
4.63677
4.70704
4.77809
4.84995
4.92273
4.99646
5.07117
5.14673
5.22308
5.30003
5.37735
5.45492
5.53256
5.61006
5.68712
5.76363
5.83929
5.91369
5.98664
6.05777
6.12654
6.1925
6.25511
6.31047
6.351
6.3786
6.39401
6.39714
6.38731
6.36345
6.32414
6.26745
6.19105
6.09217
5.9676
5.81351
5.62535
5.39804
5.12476
4.78819
4.23446
3.97854
3.84689
3.79429
3.76959
3.71886
4.66652
4.62909
4.59085
4.55193
4.51233
4.47274
4.43288
4.39353
4.35417
4.31523
4.27744
4.23462
4.18832
4.1446
4.0956
4.04848
4.00127
3.95394
3.90696
3.86061
3.81487
3.76948
3.72434
3.6794
3.63459
3.58991
3.54538
3.5011
3.45707
3.41337
3.3701
3.32739
3.28537
3.24424
3.20427
3.16574
3.12906
3.09482
3.06354
3.037
3.01248
2.9902
2.97047
2.95389
2.94136
2.93379
2.93221
2.93795
2.95248
2.9771
3.01308
3.0616
3.12394
3.20233
3.28652
3.41687
3.58801
3.85479
4.23528
4.73191
5.06459
5.41615
5.36589
5.31482
5.26265
5.20934
5.15542
5.10116
5.04703
4.99263
4.93791
4.88012
4.81444
4.74923
4.68727
4.62547
4.56442
4.50263
4.44011
4.37722
4.31439
4.25166
4.18876
4.12567
4.06236
3.99874
3.93481
3.87054
3.80594
3.74096
3.67559
3.60982
3.54366
3.47717
3.41037
3.34335
3.2762
3.20905
3.14201
3.07523
3.00894
2.94308
2.87725
2.81195
2.74805
2.68585
2.6259
2.56904
2.5165
2.46986
2.43127
2.40346
2.38997
2.39545
2.42535
2.48253
2.57852
2.71733
2.92982
3.26062
3.76142
4.37614
5.85714
5.80085
5.74388
5.68586
5.62642
5.56634
5.50593
5.44584
5.38545
5.32418
5.25644
5.18282
5.11155
5.04371
4.97707
4.91129
4.84512
4.77868
4.71209
4.64565
4.57929
4.51255
4.44557
4.37839
4.31089
4.24312
4.17502
4.10659
4.0377
3.96833
3.89845
3.82809
3.75727
3.68606
3.61452
3.54273
3.47077
3.39869
3.3265
3.25423
3.18184
3.10926
3.03588
2.96155
2.88697
2.81223
2.73756
2.66339
2.59038
2.51957
2.45236
2.39086
2.33792
2.2972
2.27229
2.26932
2.29665
2.37216
2.52539
2.79955
3.22254
6.05306
5.99329
5.93307
5.87194
5.80892
5.74521
5.68111
5.61769
5.55388
5.48891
5.41604
5.33951
5.26606
5.19613
5.1274
5.05956
4.99156
4.92409
4.85693
4.79031
4.72382
4.65668
4.58938
4.522
4.45427
4.38636
4.31811
4.24954
4.18041
4.11075
4.04051
3.96982
3.89873
3.82737
3.75581
3.68419
3.61257
3.54102
3.46956
3.39819
3.32692
3.25579
3.18465
3.11297
3.04052
2.96745
2.89382
2.81969
2.74522
2.67074
2.59664
2.5235
2.4522
2.38391
2.32007
2.26351
2.22025
2.20115
2.22312
2.31139
2.4962
6.03798
5.97638
5.91461
5.85222
5.78702
5.72112
5.6545
5.58931
5.52384
5.45761
5.3828
5.30631
5.23315
5.16396
5.09542
5.02776
4.95983
4.8935
4.82797
4.76348
4.69922
4.63376
4.56846
4.50345
4.43799
4.3725
4.30654
4.24031
4.17328
4.10565
4.03734
3.96873
3.89983
3.83094
3.76203
3.69334
3.6249
3.55684
3.48913
3.42187
3.35504
3.28874
3.22294
3.15753
3.09205
3.026
2.95941
2.89235
2.82489
2.7571
2.68909
2.62091
2.55251
2.48385
2.4147
2.34557
2.27882
2.21977
2.17738
2.1652
2.20216
5.83425
5.77224
5.71044
5.64888
5.58255
5.51581
5.44756
5.3823
5.317
5.2522
5.17744
5.10308
5.03193
4.96602
4.8996
4.83439
4.76814
4.70502
4.64293
4.58242
4.52216
4.45962
4.39818
4.33791
4.27679
4.21583
4.15394
4.09201
4.0287
3.96483
3.90003
3.83542
3.77069
3.70649
3.64241
3.57896
3.51592
3.45368
3.39209
3.33143
3.27154
3.21269
3.15478
3.0978
3.04152
2.98556
2.92914
2.87232
2.81524
2.75808
2.7009
2.64368
2.58626
2.52815
2.4687
2.40723
2.34379
2.28008
2.21985
2.16957
2.13923
5.4652
5.40385
5.34363
5.28552
5.21942
5.15349
5.08441
5.02114
4.9581
4.89763
4.82431
4.75345
4.68532
4.62499
4.56199
4.50134
4.43791
4.37989
4.32273
4.26725
4.21214
4.15287
4.09664
4.04375
3.98859
3.93345
3.87643
3.82027
3.76138
3.70219
3.64159
3.58258
3.52349
3.46597
3.40837
3.352
3.29583
3.24115
3.18745
3.13548
3.08454
3.03527
2.98745
2.94075
2.89509
2.8505
2.80577
2.76058
2.71542
2.67056
2.62632
2.58265
2.53941
2.49605
2.45183
2.40578
2.35711
2.30563
2.25224
2.19924
2.15101
4.96549
4.90461
4.84811
4.79632
4.73217
4.66853
4.59908
4.54058
4.48255
4.42906
4.35839
4.2915
4.22632
4.17369
4.11462
4.0606
4.00051
3.9495
3.89825
3.84727
3.79748
3.74071
3.69087
3.64956
3.601
3.55064
3.49786
3.44871
3.39337
3.33866
3.28143
3.23003
3.17732
3.12838
3.07788
3.02976
2.97998
2.93378
2.88914
2.84765
2.80722
2.7689
2.73254
2.69728
2.66202
2.62741
2.59315
2.55822
2.52491
2.49215
2.46235
2.43373
2.40694
2.38045
2.35404
2.32635
2.29671
2.26418
2.2287
2.18988
2.14927
3.62679
3.52394
3.41225
3.29305
3.17187
3.05197
2.93604
2.82759
2.72972
2.64446
2.57271
2.51447
2.46884
2.43437
2.40931
2.39187
2.38033
2.37339
2.36998
2.36921
2.37048
2.37335
2.37753
2.38286
2.38924
2.39655
2.40483
2.41395
2.42395
2.43478
2.44637
2.45866
2.47155
2.48489
2.49853
2.51231
2.52599
2.53934
2.55217
2.56426
2.57537
2.58531
2.59398
2.60133
2.60736
2.61222
2.61613
2.61932
2.62212
2.62493
2.62808
2.63178
2.63622
2.64153
2.64761
2.65431
2.66133
2.66849
2.67533
2.68129
2.68573
5.06014
4.9892
4.86931
4.69827
4.50783
4.30008
4.07312
3.8338
3.59044
3.3509
3.12134
2.90815
2.71506
2.54333
2.39336
2.26644
2.16207
2.07785
2.01057
1.95754
1.91624
1.88434
1.85994
1.84162
1.82852
1.81925
1.81404
1.81193
1.81283
1.81642
1.8225
1.83081
1.84108
1.85296
1.86612
1.88017
1.89464
1.90903
1.92274
1.9352
1.94568
1.95339
1.9575
1.95721
1.95187
1.94102
1.92449
1.9026
1.87621
1.84677
1.81605
1.78609
1.7589
1.73606
1.71835
1.70622
1.69908
1.69615
1.69606
1.69741
1.69808
4.87924
5.23854
5.4382
5.45089
5.32045
5.1268
4.87151
4.57814
4.26374
3.94001
3.61881
3.31151
3.02553
2.76596
2.53594
2.337
2.16775
2.02446
1.90444
1.80694
1.72955
1.66928
1.62304
1.588
1.56168
1.54257
1.52891
1.52012
1.5153
1.51387
1.51537
1.51934
1.52531
1.53274
1.5411
1.54988
1.55853
1.56651
1.57326
1.57813
1.58049
1.57976
1.57537
1.56677
1.55353
1.53532
1.512
1.48374
1.4511
1.41515
1.37761
1.34086
1.3077
1.28083
1.26234
1.25382
1.25562
1.26747
1.28828
1.31665
1.35091
3.75345
4.34004
4.90285
5.33757
5.55981
5.60412
5.48495
5.23913
4.92696
4.56897
4.19227
3.82064
3.46629
3.14024
2.84771
2.58902
2.36163
2.16383
1.99474
1.85387
1.73925
1.64858
1.57864
1.52569
1.48613
1.45721
1.43667
1.42304
1.415
1.41153
1.41189
1.41545
1.4215
1.42928
1.43806
1.44714
1.4558
1.46334
1.46903
1.47209
1.47179
1.46744
1.45844
1.44427
1.42455
1.39915
1.36816
1.33194
1.29115
1.24687
1.20073
1.15524
1.11365
1.0798
1.05754
1.05008
1.05874
1.08337
1.12271
1.1754
1.2402
2.79749
3.22502
3.76415
4.35602
4.90091
5.32002
5.5617
5.60025
5.47106
5.20252
4.8438
4.45359
4.05192
3.6647
3.30726
2.98254
2.69224
2.43461
2.21118
2.0224
1.86615
1.74083
1.64317
1.56863
1.51251
1.47093
1.44097
1.4205
1.4077
1.40102
1.39948
1.40227
1.40851
1.41724
1.42756
1.43859
1.44949
1.45939
1.46743
1.4727
1.4743
1.47143
1.46334
1.44941
1.42911
1.40226
1.36889
1.32938
1.28427
1.23458
1.18185
1.1285
1.07792
1.03448
1.00368
0.991082
0.999846
1.0313
1.08486
1.15848
1.24958
2.31022
2.51306
2.82983
3.26385
3.78676
4.34269
4.85537
5.24287
5.45682
5.48435
5.33931
5.0654
4.69607
4.2885
3.88653
3.49956
3.14472
2.82363
2.53516
2.28521
2.07638
1.90798
1.77627
1.67514
1.59829
1.54035
1.49769
1.46763
1.44775
1.43587
1.43065
1.43116
1.43637
1.4451
1.45628
1.46886
1.48186
1.4943
1.50519
1.51349
1.51817
1.51835
1.51315
1.50185
1.48373
1.45854
1.42619
1.387
1.34133
1.2901
1.23467
1.17733
1.12132
1.07101
1.03235
1.01252
1.01676
1.04907
1.11078
1.20016
1.3137
2.14271
2.19791
2.32553
2.54542
2.86889
3.29161
3.78525
4.29537
4.75388
5.09533
5.27427
5.28059
5.13229
4.86184
4.51393
4.11387
3.71652
3.33704
2.97367
2.64898
2.37186
2.14657
1.97024
1.8341
1.72948
1.6492
1.58883
1.54513
1.51504
1.49527
1.48405
1.48021
1.4826
1.48977
1.50044
1.5134
1.5275
1.54163
1.55468
1.56549
1.5729
1.57604
1.57387
1.56566
1.55044
1.52796
1.49797
1.46083
1.41669
1.36644
1.31128
1.25343
1.19595
1.14295
1.10021
1.07535
1.07549
1.10719
1.17433
1.27652
1.40995
2.11463
2.10034
2.122
2.19647
2.34143
2.57133
2.89191
3.29247
3.74382
4.19659
4.59125
4.87608
5.02242
5.01917
4.88126
4.63171
4.30718
3.93549
3.51967
3.12219
2.76257
2.46447
2.23106
2.04953
1.90835
1.79799
1.71303
1.6499
1.60538
1.57432
1.55431
1.54363
1.5411
1.54489
1.55346
1.56539
1.57934
1.59404
1.60822
1.6206
1.62998
1.63545
1.63592
1.63066
1.61842
1.59897
1.57195
1.53769
1.49618
1.44832
1.39523
1.33901
1.28253
1.22973
1.1861
1.15916
1.15724
1.18897
1.2607
1.37415
1.52548
2.10962
2.07557
2.05498
2.05803
2.09787
2.1892
2.34611
2.57791
2.88407
3.25218
3.6477
4.03436
4.36904
4.6166
4.74711
4.75148
4.63185
4.3948
4.07611
3.67566
3.2419
2.87008
2.57489
2.33985
2.1495
1.9971
1.87699
1.78722
1.72282
1.67564
1.64324
1.62243
1.61219
1.61045
1.61505
1.62435
1.63677
1.65078
1.66498
1.67771
1.68822
1.69513
1.69771
1.69497
1.6857
1.66928
1.64578
1.61466
1.5766
1.53183
1.48212
1.42894
1.37524
1.32498
1.28291
1.25638
1.25439
1.28745
1.36311
1.4863
1.6517
0.293606
6.49992
6.21232
0.216387
0.354657
0.126176
0.00316239
2.38672
0.00337859
0.0233468
3.30529
1.05794
0.00316413
5.86414
0.110608
5.61655
0.00326108
2.48801
3.60355
0.00315818
0.217488
5.705
6.22721
0.00330013
0.00333272
0.106072
0.00316042
0.507553
0.0032474
0.00346097
0.686272
0.00324557
0.0163049
2.54727
0.77401
3.38219
2.53282
1.5589
0.00316543
2.62544
1.92624
2.0673
0.00320898
4.8841
3.09328
0.279545
0.00360894
0.0151807
0.13813
1.07949
6.45254
7.80895
0.00310729
0.00405437
0.0373646
0.00886293
0.00345164
0.690791
2.40677
7.48258
2.4987
0.00369615
0.153097
0.0319196
6.57557
0.437323
1.98178
1.7087
0.00432298
0.00321285
1.2003
2.58477
1.74839
0.0145589
0.0395447
4.11612
6.84009
3.30065
0.00310813
0.917829
0.00711029
2.64165
0.0108875
4.9422
0.00321771
1.06328
0.0033618
2.23016
0.0148912
0.00491667
0.11989
0.00310365
0.00378423
7.64596
5.63204
0.00359565
0.43404
0.293045
0.00604619
6.782
0.203681
2.49207
0.758531
0.00309948
0.00316502
0.00309656
0.313027
0.124557
0.00324175
6.29135
6.97372
0.00936079
4.43898
1.51892
2.55456
2.77252
1.78668
0.00390853
0.085383
0.00417954
0.00437038
3.33823
0.00725771
7.54321
7.68556
0.968372
0.00321408
1.01721
1.01909
0.00320976
0.0340719
0.0334739
1.72698
0.00566088
3.10333
0.00321941
0.00316034
7.72606
7.82447
0.00322905
0.160866
5.80206
0.105875
0.299157
1.5588
4.78046
0.039435
1.64556
0.0120914
6.90017
1.23121
0.00914948
2.84551
4.8761
6.46841
0.00330645
0.00326736
0.215752
0.00311364
1.95402
0.0315828
0.00511186
0.00319876
0.00321876
0.00323666
2.8423
1.76196
1.60469
0.00332156
6.57918
4.65957
3.19982
4.85314
0.0139618
3.62014
1.7194
1.89566
0.0032401
0.00568307
2.91807
3.05774
2.10787
3.85906
0.00321463
0.00352327
4.74749
0.0360852
0.558886
0.00323727
0.00360546
0.10449
0.00339331
7.72022
0.687443
0.00310217
0.253843
1.81584
5.30547
0.00449322
1.93579
0.00321707
0.00323259
5.01127
2.49945
7.11728
0.00453718
0.00339443
0.00767402
2.86268
2.21346
1.09354
5.00183
1.52566
7.0978
0.192427
4.46025
4.26981
1.97185
1.33542
2.33824
0.00487729
0.0369553
0.0032244
0.00319972
1.82349
0.0181925
0.0201894
0.00569817
0.013104
2.79836
4.54435
0.0188703
5.89576
1.06562
0.40301
0.00318317
0.162171
2.8247
1.02596
0.00414202
1.19975
1.12638
0.181528
0.270462
7.44449
0.810153
0.490223
5.33927
0.00384103
0.00316134
0.00403413
0.0104978
1.74948
0.00336188
0.00648275
0.00316493
0.387953
4.14089
4.03737
2.74291
1.27779
1.41215
7.71293
0.00434397
2.08112
4.52923
0.00320935
1.98367
0.00321715
4.02911
0.386685
1.58954
0.00533662
0.00321948
1.86966
0.499637
0.00323891
0.00323588
0.00325032
0.00324593
0.355422
1.64581
3.06661
0.0148016
0.00324057
0.00316431
0.00309784
4.88084
0.222946
0.00446853
1.73721
0.0876642
0.0409741
0.00309109
0.262574
0.00323971
0.0506248
1.48234
4.55875
0.308686
0.00391305
0.00596709
3.2899
0.141696
1.96765
7.68333
0.0035022
0.00319724
0.00318714
6.01027
0.00331085
4.78761
0.00322108
1.97251
1.21689
0.0270824
2.86941
3.93942
0.00467769
2.72257
2.73388
1.66685
4.82573
1.05187
7.81306
2.46219
4.04356
3.59766
4.67248
1.73881
0.157655
7.77794
7.49254
2.99726
2.14313
0.00395911
6.79267
2.69737
7.06155
0.0275243
0.00358596
0.00321395
0.0034233
0.178343
0.416468
0.687098
0.092203
0.00317496
6.21724
0.00321472
1.47105
2.02155
6.58403
2.52841
1.851
0.00596556
0.00425778
0.0875451
2.82063
0.0103309
0.759317
5.0399
2.05309
4.24154
6.09103
3.32776
0.00346313
7.51055
5.60624
1.76966
0.00323421
6.45824
5.85728
0.00333232
1.98191
0.00323792
6.67596
5.48613
1.87024
4.30836
2.4816
5.85771
0.00329261
5.85744
0.00386311
3.67363
4.08852
1.90868
7.48939
0.707808
0.212018
0.540976
0.00424207
4.30521
0.151616
0.0081472
0.0050999
4.34619
0.0038306
4.47197
0.00319236
0.0032352
0.00600328
1.86861
0.105397
1.91581
0.00569902
4.38422
0.162932
6.69004
4.36104
2.75935
6.06828
0.00338556
7.50249
2.91897
0.00321101
4.01154
2.14138
0.00310206
0.00316814
3.35834
0.00648367
1.86721
0.0870677
2.38368
0.0267872
0.618977
2.77641
4.79012
2.50546
3.86312
3.85232
0.00395775
0.0218399
1.69102
1.67121
7.70185
6.30517
5.28499
0.0655797
5.29315
5.26688
0.510688
1.74258
2.98905
2.15844
0.00347975
4.22692
7.82919
0.00416245
4.449
1.85486
3.01631
0.0241853
0.0678945
6.02203
0.00597216
7.6949
0.00462002
0.258809
0.00320408
0.983315
2.32698
0.22981
0.00480054
0.00370415
2.74139
1.60564
0.081547
0.401018
5.70947
4.1126
0.00451327
1.42689
1.64752
3.3092
1.50362
4.20985
1.9548
5.34806
3.27802
0.488849
0.974547
7.61588
1.96264
7.75834
6.27517
0.0329166
3.29911
2.91445
0.00337913
1.81329
1.61967
1.33797
0.0173573
4.95614
1.47749
0.701803
1.96638
0.00545577
0.0032149
0.0424033
2.30599
4.45754
2.58711
0.00322108
0.0031897
0.00321521
1.71123
0.0277545
0.00321525
0.124818
4.56268
4.82721
0.0105396
0.0107675
0.00315538
0.00320532
0.00599234
1.80943
1.77084
1.64992
0.450916
7.56144
5.76394
0.00526343
3.24667
1.83752
1.93904
4.15115
7.41804
0.00346309
0.0104839
0.0032379
3.87722
0.245187
0.00316922
1.34286
0.162061
7.60611
0.00323852
7.69278
1.14181
0.047446
6.71945
0.00323168
0.00319496
0.00404757
7.75798
3.29012
5.4772
4.89223
1.04908
1.76522
0.00312641
0.00603157
0.0876275
0.0133186
0.0251484
2.00271
2.14594
0.0032244
1.3035
1.84113
6.38518
7.74608
0.0082325
7.7201
0.00591883
0.0303116
3.50532
0.00320128
5.80431
0.00324068
0.00336695
0.0222642
2.14576
0.616464
2.59683
1.92629
0.00365996
1.7647
4.63086
0.0516374
0.214217
0.850729
0.00331488
0.00326708
0.00693488
5.57271
0.542147
0.0033588
7.37109
5.79011
6.88234
0.0319712
2.04075
0.00421247
2.42668
0.163495
0.0913133
2.66248
1.67407
1.93408
6.31347
0.00327953
0.00313271
0.0104829
4.1893
4.70746
0.957169
0.0138863
0.00333417
0.00323887
0.00883142
0.0266734
0.0066121
2.18659
1.73361
0.0115742
1.5623
6.21118
0.00327127
2.38512
0.00321771
0.552863
0.00324484
0.0221869
2.35793
0.0201123
0.00320606
0.7523
7.82445
7.06156
0.00319009
0.00326442
0.389503
0.0278388
0.00321634
4.2754
0.00370149
1.68096
7.83761
2.36344
1.70706
2.48635
3.66064
7.71264
0.00322901
0.00744239
0.0148737
4.22445
1.44658
6.5445
0.652768
0.354398
4.28961
3.53453
5.11376
0.720877
2.7207
0.00322232
0.364654
1.70722
2.51546
3.94698
1.95821
0.219489
2.55705
0.1031
0.0094378
1.77611
0.00323929
5.59289
0.00366434
0.387951
7.57025
2.74713
0.56887
0.00741805
0.785283
0.003299
0.00319169
0.107343
0.0225418
1.83131
0.0153244
1.74149
0.00322127
0.0279942
0.00316642
4.6859
0.0051016
4.12425
2.55206
0.0219624
1.95668
7.43195
0.00325796
1.74353
4.29773
0.00335951
7.5435
0.0612264
0.00348554
0.00339491
7.16782
0.00317851
0.00429242
0.0870824
0.101675
7.07273
7.41313
0.00322104
0.00327055
1.07353
2.33481
0.0146166
0.26214
1.99898
0.00321764
0.00383395
0.00372445
6.23592
7.44912
0.507159
7.02011
0.0261421
1.60145
0.00332531
0.0147903
0.0249346
0.0364018
0.00322981
6.68583
0.00320088
0.025043
0.00332234
0.238841
0.0224868
0.0148634
0.458284
0.694921
2.293
0.413142
1.06902
1.82478
5.01124
0.00343903
4.78841
7.73649
1.1642
4.14605
0.00327907
4.33019
4.02984
0.00321567
7.34846
2.31896
0.00810303
0.0108204
6.07245
5.86454
0.0564169
7.67855
7.26972
0.780556
7.27227
7.27683
5.06802
1.93676
1.6386
0.985658
7.35423
7.51162
0.0219379
7.28431
2.64884
4.36087
0.00343338
0.344745
0.389504
7.00005
6.05493
0.0202319
4.2837
6.62374
0.459709
0.0336146
0.392056
1.81686
0.00535238
1.85261
6.90389
0.0337794
6.9563
1.42735
4.62221
6.54122
0.00322217
0.00566092
1.04579
0.714198
0.0182557
0.00321827
0.193901
0.260319
0.00451269
0.00323647
4.21738
0.99334
3.22406
1.04095
0.0086277
0.00417423
0.0874845
3.35619
0.00345985
1.92886
1.69269
0.472289
2.33162
0.003972
0.118297
0.00320211
0.352042
4.4596
0.00436368
0.118065
2.1066
5.68038
0.223915
4.0765
0.613564
0.163922
0.00392783
2.49339
7.70032
0.00321141
0.00328271
5.85209
0.0245208
0.00323561
3.97658
0.247017
1.96581
2.00601
1.49925
0.146062
1.70326
3.49369
5.8181
4.26276
0.00327535
5.42832
0.00389176
2.62567
0.00340244
0.00452481
2.11369
0.00656161
3.87103
0.0207169
0.0397811
1.89086
0.746072
0.064733
0.00367415
6.41223
0.00364347
0.00315344
7.80469
6.05184
2.82891
1.92683
0.00343466
0.00307152
1.84508
5.84148
0.00319893
6.54644
1.72624
0.00324235
6.17858
0.00311688
0.354948
0.899892
1.33264
0.364575
1.61081
1.91961
0.00311279
7.39467
7.29739
0.0032153
0.0168506
1.9264
0.00313159
7.16517
5.37042
4.40588
0.00321754
0.0031708
3.40456
0.041074
0.00350264
1.89477
1.74438
4.05054
0.00315389
0.0033805
0.0243361
0.019438
0.00321694
0.00641791
5.35483
2.88456
0.00322231
1.40284
0.00321467
0.714825
0.00421656
0.00358605
2.29209
0.00326685
0.121474
0.00317621
3.07749
0.189187
1.80701
6.46012
4.37883
3.59527
0.816632
1.22855
0.00323548
0.918857
7.47438
4.10463
0.106722
0.00346663
5.45409
0.00321462
0.0316445
0.00315621
7.14386
0.778627
0.369763
6.51682
2.28009
0.487624
4.29328
0.737371
6.98181
4.63833
0.00330999
0.00327542
0.00820497
0.0032322
0.0228084
4.44099
0.00378116
7.12828
0.00601218
0.0742316
0.584148
4.65959
0.00488069
2.86611
0.0169802
3.09444
2.46332
6.90992
0.00340039
0.0038463
0.247351
3.74024
1.66439
3.73507
0.429154
1.03476
1.71194
0.0507118
1.0184
0.258205
1.69012
0.00328345
4.33599
0.410753
3.16351
0.00336529
3.06937
0.998992
0.00461217
1.65867
1.76778
0.0654614
0.00314942
0.00321787
4.74203
2.83421
1.38104
0.00320725
0.0176043
2.00111
6.50447
0.457113
0.0126257
0.0032245
5.64062
5.45142
2.07986
2.70627
0.00321307
3.53848
7.43726
0.00321102
0.0032177
1.28217
0.00410829
0.00987601
0.0320394
1.99123
0.00411097
2.20968
7.7472
0.00320543
0.0034641
0.00316816
0.00330615
3.84782
4.65061
7.76406
0.0290099
2.49577
2.19978
0.0869127
3.02652
0.00348377
1.69511
0.220014
2.07639
0.703305
1.6739
3.10087
0.0287029
0.00323889
6.08213
4.54154
4.52749
0.896894
1.78269
0.177196
1.56618
0.00928623
0.00483581
3.35104
5.72691
0.0218159
0.133215
0.00324505
0.0781432
1.89789
0.0277652
1.06931
0.68787
3.82872
2.16543
0.430012
6.64003
5.62097
2.94565
1.64728
4.08685
3.53154
0.564292
2.66053
0.00612917
2.82334
2.95465
0.00320395
0.00313651
0.121504
0.00322649
0.00333126
3.01152
4.36845
0.00322004
3.21806
0.00321458
0.0031923
0.00321578
0.00326338
0.00594797
1.93801
2.78096
7.26334
0.00316006
0.00390802
0.959345
0.00355468
0.0329864
0.00324572
0.00361043
4.28725
0.00390988
0.0109632
2.82482
0.0104859
0.00321961
3.83135
0.00321413
0.00326644
0.266754
0.00360606
0.929347
0.00458167
0.0300782
0.00320421
0.00325421
7.61512
7.63251
2.84692
0.0267868
2.92728
1.61284
0.0047379
1.76319
4.16462
7.11449
4.58691
0.00312516
1.88304
2.62303
0.146172
1.74069
4.48598
0.172667
2.0592
0.213694
1.72003
0.0384245
1.00281
0.00323487
6.81257
0.00329158
1.79813
2.52947
0.00321512
0.311052
0.00730973
0.019113
0.00317663
0.752134
0.00366326
0.00322179
2.53613
0.00951274
0.110172
7.06283
1.94921
0.00346075
0.00388158
2.44345
7.32843
0.0030924
0.00324635
0.0720208
1.40109
5.72513
0.00659281
1.65695
0.00321787
0.00344302
0.00314805
0.0349006
0.996529
0.0101328
6.32627
1.81449
7.32527
6.22109
0.00351913
7.19797
3.83853
0.00317939
0.00322625
0.00321814
0.00439921
0.00320253
3.76768
0.00320799
0.00323924
6.57748
0.327011
0.00775717
0.0214812
2.00727
0.925186
0.00830617
0.00345927
6.48823
0.00324544
0.807989
0.00326254
0.00352348
6.0937
5.84724
0.00870808
0.0035149
0.337874
0.0032064
6.6456
0.00325561
5.692
0.0249292
0.744987
0.0329766
0.3728
0.373394
1.55027
0.00324271
0.00356603
0.0115736
3.35689
0.120389
7.60946
0.00321928
0.00459245
0.00556177
7.30422
2.87913
3.09885
0.00694034
0.00898715
0.216371
0.00322344
1.29678
2.4933
0.0170054
5.74099
6.35651
2.0607
0.00534127
0.384999
2.86264
6.95454
1.80136
0.0188142
3.06206
0.0624933
5.37134
0.0916758
0.514976
2.71165
0.00324365
1.76094
0.00455329
0.0118617
0.00807691
0.0500359
0.00370189
1.26338
0.0032265
3.072
0.0954197
0.00361218
0.241809
0.00323205
0.282339
0.117996
2.30489
0.4763
4.73369
0.245225
0.00321693
0.00319038
0.715976
0.0919602
2.96264
7.33881
0.00322399
3.79204
2.75838
0.0232085
2.06891
0.596689
2.35885
2.18575
0.0335805
0.00588959
7.14118
1.55599
6.04659
0.00321075
1.65298