/*--------------------------------*- C++ -*----------------------------------*\
| =========                 |                                                 |
| \\      /  F ield         | OpenFOAM: The Open Source CFD Toolbox           |
|  \\    /   O peration     | Version:  2.3.1                                 |
|   \\  /    A nd           | Web:      www.OpenFOAM.org                      |
|    \\/     M anipulation  |                                                 |
\*---------------------------------------------------------------------------*/
FoamFile
{
    version     2.0;
    format      ascii;
    class       volScalarField;
    location    "0.72";
    object      nut;
}
// * * * * * * * * * * * * * * * * * * * * * * * * * * * * * * * * * * * * * //

dimensions      [0 2 -1 0 0 0 0];

internalField   nonuniform List<scalar> 
9648
(
0.000271752
0.000272141
0.000272085
0.000271946
0.000271655
0.00027112
0.000270372
0.000269441
0.000268308
0.000266958
0.000265383
0.000263625
0.000261683
0.00025957
0.000257338
0.000255034
0.000252683
0.000250309
0.000247952
0.000245656
0.000243434
0.000241307
0.000239298
0.000237407
0.000235637
0.000234001
0.000232504
0.000231141
0.000229906
0.000228801
0.000227821
0.000226959
0.000226214
0.000225583
0.000225056
0.000224635
0.000224319
0.000224101
0.000223967
0.000223919
0.000223963
0.00022409
0.000224295
0.000224586
0.00022495
0.000225377
0.000225881
0.000226474
0.000227146
0.000227883
0.000228698
0.000229611
0.000230597
0.00023166
0.000232812
0.000234052
0.000235349
0.000236649
0.000237963
0.000239287
0.000240604
0.000444367
0.000449307
0.000454886
0.000461296
0.000468164
0.000474965
0.000482448
0.000492484
0.000505499
0.000521323
0.000540067
0.000562036
0.000587177
0.000615344
0.000646356
0.000680115
0.000716373
0.00075477
0.000794981
0.000836826
0.000879945
0.000924078
0.000969034
0.00101454
0.0010603
0.00110621
0.00115216
0.001198
0.00124356
0.00128874
0.00133355
0.00137785
0.00142155
0.00146471
0.00150724
0.00154904
0.00159019
0.00163072
0.00167053
0.00170947
0.0017476
0.00178502
0.00182161
0.00185728
0.00189216
0.00192597
0.00195872
0.00199058
0.00202162
0.00205166
0.00208078
0.00210889
0.00213622
0.00216228
0.00218772
0.00221234
0.00223676
0.00225996
0.00228262
0.002305
0.00232731
0.000760684
0.000800408
0.000840965
0.000879747
0.000919307
0.000962674
0.00100871
0.00105869
0.00111221
0.00116989
0.00123104
0.00129622
0.00136529
0.00143813
0.00151449
0.00159406
0.00167649
0.00176124
0.00184783
0.00193586
0.00202483
0.00211443
0.0022042
0.00229383
0.00238302
0.00247157
0.00255936
0.00264613
0.00273182
0.00281632
0.00289952
0.00298144
0.00306208
0.00314133
0.00321918
0.00329572
0.00337086
0.00344472
0.00351723
0.0035884
0.00365823
0.00372666
0.00379385
0.00385976
0.00392432
0.00398751
0.00404928
0.00410985
0.004169
0.00422686
0.00428344
0.0043388
0.00439352
0.00444611
0.0044989
0.00454951
0.00459986
0.00464716
0.0046946
0.0047412
0.00478712
0.0012134
0.00128913
0.00136622
0.00144364
0.00152276
0.00160504
0.00169051
0.00177959
0.0018722
0.00196889
0.00206933
0.0021739
0.00228231
0.00239459
0.00251027
0.00262894
0.00275014
0.00287328
0.00299783
0.00312327
0.00324916
0.00337497
0.00350035
0.003625
0.00374866
0.00387109
0.00399218
0.00411177
0.00422978
0.00434608
0.00446076
0.00457378
0.0046851
0.00479485
0.00490291
0.0050094
0.00511428
0.00521766
0.00531951
0.00541988
0.00551879
0.00561628
0.0057123
0.005807
0.00590026
0.00599211
0.00608259
0.00617173
0.00625935
0.00634549
0.00643062
0.00651366
0.00659538
0.00667519
0.00675479
0.00683222
0.0069076
0.00698098
0.00705277
0.00712292
0.00719044
0.00173469
0.00183598
0.00194281
0.00205332
0.00216725
0.00228517
0.00240711
0.0025329
0.00266278
0.00279692
0.00293519
0.00307757
0.00322396
0.00337418
0.00352763
0.00368367
0.00384167
0.00400114
0.00416144
0.00432212
0.00448263
0.00464252
0.00480136
0.00495888
0.00511489
0.0052693
0.00542187
0.00557255
0.00572124
0.00586791
0.00601257
0.00615526
0.00629609
0.00643501
0.00657203
0.00670729
0.00684079
0.00697249
0.00710246
0.00723072
0.00735734
0.00748228
0.00760567
0.00772744
0.00784761
0.00796613
0.00808291
0.00819801
0.00831162
0.00842306
0.00853298
0.00864097
0.00874646
0.00884967
0.00895105
0.00905075
0.00914751
0.00924191
0.00933396
0.00942306
0.00950914
0.00226567
0.00238241
0.00251257
0.00265239
0.00279952
0.00295282
0.00311163
0.0032755
0.00344397
0.00361695
0.00379412
0.00397512
0.00415992
0.00434803
0.00453909
0.00473228
0.00492657
0.00512174
0.00531695
0.00551183
0.00570596
0.00589868
0.00608976
0.00627877
0.00646572
0.00665053
0.00683315
0.00701348
0.00719132
0.00736669
0.00753971
0.00771031
0.00787875
0.00804506
0.00820913
0.00837109
0.00853108
0.00868899
0.00884486
0.00899866
0.00915029
0.00929994
0.00944764
0.00959341
0.00973717
0.00987898
0.010019
0.0101562
0.0102915
0.0104246
0.0105552
0.0106834
0.0108089
0.0109312
0.0110512
0.0111679
0.0112816
0.0113927
0.0115006
0.0116043
0.0117052
0.00278506
0.00291141
0.00306252
0.0032308
0.00341137
0.0036012
0.0037985
0.00400205
0.00421093
0.00442414
0.00464147
0.00486193
0.00508539
0.00531142
0.00554029
0.0057705
0.00600092
0.00623145
0.00646096
0.00668927
0.00691629
0.00714099
0.00736339
0.00758256
0.00779887
0.00801264
0.00822365
0.00843221
0.0086376
0.0088399
0.00903943
0.00923575
0.0094295
0.00962096
0.00980965
0.00999572
0.0101797
0.0103611
0.0105401
0.0107166
0.0108901
0.0110609
0.0112293
0.0113953
0.0115584
0.011719
0.0118773
0.0120326
0.0121855
0.0123353
0.0124822
0.0126259
0.0127661
0.012903
0.0130359
0.0131657
0.0132923
0.0134149
0.0135333
0.0136473
0.0137573
0.00328886
0.00342164
0.00359266
0.00378893
0.00400346
0.00422979
0.00446605
0.00471026
0.00495997
0.00521442
0.00547263
0.00573319
0.00599522
0.0062582
0.00652395
0.00679106
0.00705764
0.00732374
0.00758737
0.0078479
0.00810705
0.00836297
0.00861652
0.00886501
0.00910867
0.00934952
0.00958699
0.0098222
0.0100537
0.0102812
0.0105057
0.0107253
0.0109412
0.0111551
0.0113659
0.0115732
0.0117783
0.0119802
0.0121797
0.0123767
0.0125698
0.0127589
0.0129437
0.013126
0.0133046
0.0134796
0.0136515
0.0138193
0.0139844
0.0141459
0.0143035
0.014457
0.0146078
0.0147543
0.0148957
0.0150327
0.0151656
0.0152955
0.0154204
0.0155391
0.0156524
0.00378169
0.00391597
0.00410522
0.00432479
0.00457326
0.00483314
0.00510587
0.00539108
0.00567808
0.00597361
0.00627103
0.00657435
0.00687403
0.00717244
0.00746994
0.00777302
0.00807509
0.00837691
0.0086788
0.00896825
0.00925724
0.00954513
0.00983048
0.0101126
0.0103797
0.0106455
0.010907
0.0111662
0.0114241
0.011676
0.0119275
0.0121704
0.0124005
0.0126335
0.0128668
0.0130913
0.0133131
0.0135345
0.0137508
0.0139687
0.0141836
0.0143947
0.0145918
0.014787
0.0149814
0.0151656
0.0153493
0.0155222
0.0156978
0.0158634
0.0160301
0.0161826
0.0163359
0.016492
0.0166407
0.0167746
0.0169099
0.0170364
0.0171662
0.0172884
0.0173971
0.000241829
0.000242954
0.000244055
0.000245128
0.000246155
0.000247107
0.000248025
0.000248947
0.000249868
0.00025073
0.000251511
0.000252278
0.000253017
0.000253727
0.000254443
0.000255209
0.000256034
0.000256917
0.000257882
0.000258961
0.00026012
0.000261338
0.000262611
0.000263906
0.000265203
0.000266517
0.000267857
0.000269204
0.000270546
0.000271895
0.000273253
0.000274612
0.000275974
0.000277351
0.000278731
0.000280121
0.000281528
0.000282955
0.000284387
0.000285823
0.000287283
0.000288761
0.000290254
0.000291772
0.000293305
0.000294835
0.000296377
0.000297954
0.000299554
0.000301148
0.000302757
0.000304406
0.000306063
0.000307726
0.000309424
0.000311161
0.000312929
0.000314679
0.000316474
0.000318347
0.000320305
0.00234967
0.00236971
0.00238928
0.00240878
0.00242788
0.00244576
0.00246153
0.00247632
0.00248848
0.00250057
0.00251099
0.00252068
0.00252923
0.00253664
0.00254282
0.00254754
0.00255087
0.00255268
0.00255306
0.00255207
0.0025499
0.00254675
0.00254256
0.00253744
0.00253146
0.00252463
0.00251703
0.00250847
0.00249909
0.0024888
0.00247756
0.00246549
0.00245259
0.00243879
0.00242415
0.00240875
0.00239249
0.0023755
0.00235775
0.00233927
0.00232009
0.00230019
0.00227975
0.00225871
0.00223702
0.00221466
0.00219157
0.00216785
0.00214336
0.00211818
0.0020923
0.00206568
0.00203846
0.00200998
0.00198132
0.00195147
0.00192123
0.00188975
0.00185851
0.00182709
0.00179553
0.00483062
0.00487298
0.00491236
0.00495046
0.00498705
0.00502339
0.00505592
0.00508696
0.00511433
0.00514063
0.00516455
0.00518676
0.0052064
0.00522444
0.00524046
0.00525444
0.00526646
0.00527651
0.00528466
0.00529099
0.00529574
0.00529884
0.00530041
0.00530049
0.00529907
0.00529618
0.0052919
0.00528618
0.00527902
0.00527026
0.00526006
0.00524827
0.00523488
0.00522004
0.0052036
0.00518565
0.00516615
0.00514516
0.00512267
0.00509878
0.00507357
0.00504714
0.00501956
0.00499101
0.00496132
0.0049305
0.00489839
0.00486499
0.00483013
0.00479383
0.00475623
0.00471658
0.00467536
0.00463209
0.00458773
0.00454099
0.00449226
0.0044419
0.00439072
0.00433866
0.00428548
0.00725625
0.00731937
0.00738017
0.00743778
0.00749318
0.00754635
0.00759673
0.00764385
0.00768798
0.00772983
0.00776891
0.00780497
0.00783835
0.00786948
0.0078977
0.00792352
0.00794682
0.00796761
0.00798592
0.0080019
0.00801564
0.00802733
0.00803693
0.00804459
0.00805024
0.00805389
0.00805551
0.00805519
0.008053
0.00804884
0.0080426
0.00803425
0.00802377
0.00801109
0.00799625
0.00797927
0.00796004
0.0079385
0.00791474
0.00788887
0.00786106
0.0078314
0.00780028
0.00776779
0.00773404
0.00769894
0.00766229
0.00762399
0.00758397
0.00754198
0.00749814
0.00745197
0.00740324
0.00735194
0.00729837
0.00724192
0.00718231
0.00712046
0.00705707
0.00699165
0.00692483
0.009592
0.00967249
0.0097498
0.00982365
0.00989366
0.00996077
0.0100249
0.0100846
0.0101407
0.0101942
0.0102442
0.0102909
0.0103347
0.0103753
0.0104129
0.0104478
0.010479
0.0105071
0.0105321
0.010554
0.010573
0.0105893
0.0106032
0.0106147
0.0106236
0.01063
0.0106339
0.0106356
0.0106352
0.0106327
0.010628
0.0106209
0.0106112
0.0105991
0.0105844
0.010567
0.0105467
0.0105237
0.0104976
0.0104686
0.0104369
0.0104028
0.0103667
0.010329
0.0102899
0.0102496
0.0102077
0.0101638
0.0101182
0.0100711
0.0100216
0.00996967
0.00991487
0.00985684
0.0097959
0.00973074
0.00966223
0.00959084
0.00951704
0.00944047
0.00936249
0.0118021
0.0118955
0.0119846
0.0120707
0.0121522
0.0122295
0.0123031
0.0123719
0.0124367
0.0124973
0.0125547
0.0126083
0.0126583
0.0127046
0.0127472
0.0127863
0.0128213
0.0128528
0.0128802
0.0129034
0.0129229
0.0129391
0.0129521
0.0129622
0.0129693
0.0129732
0.012974
0.012972
0.0129678
0.0129618
0.012954
0.0129438
0.0129312
0.0129159
0.0128982
0.0128775
0.0128534
0.012826
0.0127951
0.0127607
0.0127228
0.0126814
0.0126373
0.0125912
0.0125436
0.0124951
0.0124449
0.0123931
0.0123398
0.0122854
0.0122289
0.0121695
0.0121073
0.012042
0.0119733
0.0118997
0.0118223
0.0117406
0.0116566
0.0115697
0.0114807
0.013863
0.0139643
0.0140609
0.0141528
0.0142402
0.0143233
0.0144013
0.0144742
0.0145426
0.0146063
0.0146656
0.014721
0.0147726
0.0148193
0.0148617
0.0149006
0.0149355
0.0149662
0.0149919
0.015012
0.0150273
0.0150383
0.0150455
0.0150493
0.0150496
0.0150457
0.0150377
0.0150257
0.0150109
0.0149946
0.0149776
0.0149587
0.0149382
0.0149154
0.0148911
0.0148641
0.014833
0.0147982
0.0147599
0.0147181
0.0146722
0.0146217
0.0145672
0.01451
0.0144511
0.0143919
0.0143303
0.0142675
0.0142032
0.0141396
0.0140743
0.0140053
0.0139345
0.0138607
0.0137843
0.0137018
0.0136152
0.0135234
0.0134298
0.0133325
0.0132329
0.0157611
0.0158643
0.0159619
0.0160534
0.0161397
0.0162199
0.0162954
0.0163657
0.0164319
0.0164927
0.0165479
0.0165991
0.0166464
0.016689
0.0167256
0.0167575
0.0167869
0.0168129
0.0168338
0.0168478
0.0168545
0.0168565
0.0168541
0.016847
0.0168364
0.016821
0.0168006
0.0167735
0.0167408
0.0167057
0.0166722
0.0166371
0.0166022
0.0165655
0.0165302
0.0164943
0.0164529
0.0164063
0.0163569
0.0163058
0.0162513
0.0161917
0.0161261
0.0160567
0.0159855
0.0159146
0.0158395
0.0157639
0.0156855
0.0156101
0.0155348
0.0154538
0.0153721
0.0152886
0.0152044
0.0151132
0.0150183
0.0149165
0.0148137
0.0147069
0.0145983
0.017507
0.017607
0.0177032
0.0177842
0.0178627
0.0179258
0.0179905
0.0180412
0.0180937
0.018148
0.0181936
0.018224
0.0182589
0.0182919
0.0183186
0.0183359
0.0183479
0.0183594
0.0183718
0.0183784
0.0183723
0.0183629
0.0183513
0.0183303
0.0183052
0.0182749
0.0182411
0.0182018
0.0181486
0.0180871
0.0180289
0.0179699
0.0179121
0.0178515
0.0177966
0.0177479
0.0176933
0.0176285
0.0175614
0.0174955
0.0174295
0.0173653
0.0172889
0.0172072
0.0171284
0.0170454
0.0169617
0.0168727
0.0167817
0.0166917
0.0166051
0.0165087
0.0164108
0.0163174
0.0162208
0.0161252
0.0160217
0.0159145
0.0158012
0.0156875
0.0155685
0.00032226
0.000324194
0.000326207
0.000328296
0.000330433
0.000332572
0.000334744
0.000336978
0.000339254
0.000341554
0.000343875
0.000346248
0.000348641
0.000351118
0.000354166
0.000356928
0.000359636
0.000362336
0.000365039
0.00036777
0.000370513
0.000373271
0.000376052
0.000378836
0.00038161
0.000384381
0.000387149
0.000389904
0.000392626
0.000395318
0.00039797
0.000400572
0.000403112
0.00040559
0.000407984
0.000410288
0.000412494
0.000414582
0.000416408
0.000417732
0.000418641
0.000419149
0.000419251
0.000418942
0.000418166
0.000416858
0.000414973
0.000412445
0.000409153
0.000404938
0.000399664
0.000393159
0.000385131
0.000375245
0.00036272
0.000341112
0.000330647
0.000325093
0.000322835
0.000321793
0.000319672
0.00176341
0.00173125
0.00169855
0.00166568
0.00163259
0.0015996
0.00156611
0.00153292
0.0014996
0.00146668
0.00143442
0.00140191
0.00136995
0.00133826
0.001303
0.00126796
0.00123332
0.00119931
0.001166
0.00113344
0.00110159
0.00107028
0.0010395
0.00100922
0.000979423
0.000950147
0.000921366
0.000893132
0.000865421
0.00083824
0.000811627
0.000785605
0.000760166
0.000735357
0.000711238
0.000687827
0.000665222
0.0006435
0.000622462
0.000599032
0.000574948
0.000551728
0.000529551
0.000508603
0.000488982
0.000470891
0.000454613
0.000440419
0.000428582
0.000419446
0.000413384
0.000410839
0.000412242
0.000418165
0.000427166
0.000449034
0.000483289
0.000538667
0.000624208
0.000747841
0.000870087
0.00423176
0.00417731
0.00412197
0.00406519
0.00400719
0.00394824
0.00388826
0.00382769
0.00376653
0.00370536
0.0036426
0.00357994
0.00352004
0.00346012
0.00339752
0.00333252
0.00326617
0.00319961
0.00313316
0.00306711
0.0030013
0.00293541
0.00286944
0.00280339
0.00273716
0.00267082
0.00260429
0.0025376
0.00247061
0.00240339
0.00233584
0.00226794
0.00219974
0.00213116
0.00206225
0.00199302
0.00192351
0.00185369
0.00178341
0.00171122
0.00163681
0.00155067
0.00145668
0.00135966
0.00126075
0.00116116
0.00106251
0.000966321
0.000874613
0.000789432
0.000712829
0.000646756
0.000592518
0.000551534
0.000523512
0.000512699
0.000521837
0.000555966
0.000624573
0.000741582
0.000904742
0.00685696
0.00678878
0.00671904
0.00664717
0.00657273
0.00649685
0.00641955
0.00634158
0.00626336
0.00618472
0.00610278
0.00602262
0.00594544
0.00586823
0.00578801
0.0057045
0.00561847
0.00553161
0.00544449
0.00535742
0.00527017
0.00518198
0.00509309
0.00500353
0.00491308
0.00482175
0.00472941
0.00463603
0.00454137
0.00444535
0.00434789
0.00424901
0.00414864
0.00404682
0.00394359
0.00383893
0.00373279
0.00362519
0.0035159
0.00340434
0.00328966
0.00316851
0.00303282
0.0028794
0.0027141
0.00253713
0.00234926
0.0021517
0.00194681
0.00173867
0.00153185
0.00133371
0.0011508
0.000990154
0.00085582
0.000753127
0.000685373
0.000652596
0.000656775
0.00070529
0.000806943
0.00928263
0.00920226
0.0091201
0.00903586
0.00894761
0.00885736
0.00876561
0.00867398
0.00858201
0.0084897
0.00839333
0.00829938
0.00820815
0.00811727
0.00802353
0.00792614
0.00782551
0.00772408
0.00762216
0.00752021
0.00741759
0.0073132
0.00720772
0.00710129
0.00699332
0.006884
0.00677289
0.00665997
0.00654479
0.00642733
0.00630747
0.0061854
0.00606116
0.00593491
0.00580664
0.00567646
0.00554438
0.00541034
0.00527418
0.00513559
0.00499401
0.0048481
0.00469453
0.00452404
0.00433455
0.00412861
0.00390465
0.00366122
0.00339713
0.00311323
0.00281099
0.00249525
0.00217495
0.00186274
0.00157308
0.00132091
0.00111887
0.000969583
0.00087053
0.000820911
0.000824266
0.0113888
0.0112965
0.0112026
0.0111067
0.0110058
0.0109022
0.0107965
0.0106919
0.0105876
0.0104833
0.0103746
0.0102682
0.0101644
0.010062
0.00995655
0.00984768
0.00973531
0.00962289
0.00950989
0.00939683
0.00928259
0.00916538
0.00904725
0.00892837
0.00880736
0.00868452
0.00855908
0.00843116
0.0082999
0.00816561
0.00802815
0.00788821
0.00774588
0.00760158
0.00745513
0.00730685
0.00715667
0.00700469
0.00685073
0.00669468
0.00653607
0.00637433
0.00620792
0.00603291
0.00583841
0.0056278
0.00539824
0.00514817
0.00487443
0.00457416
0.00424532
0.00388658
0.00349996
0.00309357
0.00268027
0.00228172
0.00192127
0.00161493
0.0013692
0.00118521
0.0010625
0.0131289
0.0130249
0.01292
0.0128136
0.0127005
0.0125841
0.0124648
0.0123479
0.0122322
0.0121178
0.0119974
0.0118796
0.0117646
0.0116526
0.0115375
0.0114197
0.011298
0.0111773
0.0110562
0.0109351
0.0108121
0.0106846
0.0105572
0.0104299
0.0102994
0.0101664
0.0100297
0.0098901
0.00974576
0.0095979
0.00944634
0.00929296
0.00913738
0.0089806
0.00882191
0.00866199
0.00850044
0.00833788
0.00817401
0.00800906
0.00784233
0.00767358
0.00750198
0.00732543
0.00713931
0.00693311
0.00671006
0.00646809
0.00620445
0.00591613
0.00559923
0.00524979
0.00486528
0.00444447
0.00399257
0.00352192
0.00305306
0.00260995
0.00221149
0.00187009
0.0015932
0.0144833
0.0143676
0.014252
0.0141361
0.0140124
0.0138843
0.0137524
0.0136235
0.0134981
0.0133745
0.013244
0.0131158
0.0129916
0.0128723
0.0127503
0.0126255
0.0124976
0.012371
0.0122443
0.0121179
0.0119881
0.0118524
0.0117193
0.0115874
0.0114501
0.011309
0.0111629
0.0110138
0.0108583
0.0106993
0.0105366
0.0103743
0.0102101
0.0100464
0.00988101
0.00971561
0.00954884
0.00938308
0.00921728
0.00905238
0.00888657
0.00872008
0.0085517
0.00838014
0.0082022
0.00800969
0.00779942
0.00757185
0.00732563
0.00705865
0.00676818
0.00645006
0.00609925
0.00571166
0.00528504
0.0048216
0.00433084
0.00382814
0.00333341
0.00286579
0.00244301
0.0154493
0.0153201
0.0151963
0.0150678
0.0149393
0.0147985
0.014659
0.0145154
0.0143837
0.0142499
0.0141141
0.013975
0.0138462
0.0137195
0.0135968
0.0134642
0.0133374
0.0132036
0.0130743
0.0129465
0.0128092
0.0126704
0.0125346
0.0123981
0.0122568
0.0121062
0.0119537
0.0117944
0.0116307
0.011462
0.0112936
0.0111269
0.0109589
0.0107929
0.0106274
0.0104627
0.0102978
0.0101386
0.00998089
0.00982731
0.00967157
0.0095166
0.00935946
0.0091992
0.00903427
0.00885973
0.00866569
0.00845409
0.00822808
0.007991
0.00773309
0.00745637
0.00714864
0.00681202
0.00643601
0.00602469
0.00557057
0.00508616
0.00457497
0.00405324
0.00354201
0.000315691
0.000311136
0.000306157
0.000300787
0.000295233
0.000289592
0.000284026
0.000278733
0.000273875
0.000269566
0.000265874
0.000262855
0.000260465
0.000258631
0.000257289
0.000256364
0.000255753
0.000255375
0.000255182
0.000255141
0.000255208
0.00025536
0.000255591
0.00025588
0.000256216
0.000256607
0.000257051
0.000257544
0.000258077
0.000258655
0.000259271
0.00025992
0.000260598
0.0002613
0.000262011
0.000262728
0.000263445
0.000264146
0.000264809
0.000265428
0.000266005
0.000266519
0.000266965
0.000267353
0.000267667
0.000267908
0.0002681
0.00026827
0.000268424
0.000268562
0.000268715
0.000268915
0.00026914
0.000269404
0.000269713
0.000270068
0.000270434
0.000270772
0.000271098
0.000271411
0.000271677
0.000935795
0.000991527
0.00103548
0.00106212
0.00107351
0.00107397
0.00106111
0.00103571
0.00100021
0.000956733
0.000907477
0.000855783
0.000804247
0.000754971
0.000708461
0.00066632
0.000629937
0.000599746
0.0005753
0.000556025
0.000541122
0.000529773
0.00052122
0.000514867
0.000510318
0.00050709
0.000505158
0.000504178
0.000504055
0.00050464
0.000505812
0.000507448
0.000509409
0.000511543
0.000513713
0.000515779
0.000517583
0.00051898
0.000519807
0.000519921
0.000519177
0.000517433
0.000514576
0.000510513
0.000505199
0.000498656
0.000490985
0.000482398
0.000473197
0.000463804
0.000454712
0.00044644
0.000439452
0.000434081
0.000430556
0.000428876
0.000428918
0.000430419
0.000433122
0.000436612
0.000440408
0.00107583
0.001248
0.001417
0.00156816
0.0016687
0.00174756
0.00180197
0.0018268
0.00182591
0.00180244
0.00175727
0.0016948
0.00161902
0.00153356
0.00144084
0.00134552
0.00125344
0.00116983
0.00109608
0.00103445
0.00098517
0.000947286
0.000919148
0.000898864
0.000884804
0.000875607
0.000870333
0.000868229
0.000868634
0.000870995
0.000874881
0.000879791
0.000885221
0.000890675
0.000895642
0.000899668
0.000902297
0.000903112
0.000901696
0.000897681
0.000890773
0.000880794
0.00086765
0.000851393
0.000832146
0.000810229
0.000786065
0.000760254
0.00073352
0.000706859
0.000681512
0.000658873
0.000640499
0.000627701
0.000621583
0.000622607
0.000630806
0.00064582
0.000667049
0.000693693
0.000724877
0.000958463
0.00115382
0.00138145
0.00161959
0.00183659
0.00203284
0.0022135
0.00234408
0.00243448
0.00249471
0.00252131
0.00251693
0.00248609
0.00243049
0.00235195
0.00225376
0.00214026
0.00202241
0.00190697
0.00180048
0.00170751
0.0016313
0.00157236
0.00152927
0.00149961
0.00148126
0.00147221
0.00147094
0.00147594
0.00148593
0.00149985
0.00151663
0.00153507
0.00155394
0.00157209
0.00158839
0.00160173
0.00161103
0.00161523
0.00161336
0.00160456
0.00158816
0.00156375
0.00153117
0.00149048
0.00144227
0.00138735
0.00132691
0.0012623
0.00119549
0.00112903
0.00106615
0.00101078
0.000967276
0.00093989
0.000931376
0.000941866
0.000970271
0.00101458
0.0010724
0.00114062
0.000884819
0.00100612
0.00118891
0.00142407
0.00168818
0.00196085
0.00222747
0.00246478
0.00266846
0.00284608
0.002977
0.00306032
0.00311137
0.00312907
0.00311571
0.00307607
0.00301194
0.00292474
0.00282626
0.00272522
0.00262684
0.00253833
0.0024648
0.00240849
0.00236916
0.00234567
0.00233662
0.00234058
0.00235554
0.00237956
0.0024111
0.00244846
0.00248968
0.00253264
0.00257539
0.00261596
0.00265238
0.00268278
0.00270518
0.00271771
0.00271864
0.00270662
0.0026804
0.00263925
0.00258251
0.00251056
0.00242391
0.00232381
0.00221189
0.00209058
0.00196319
0.00183461
0.00171089
0.00160008
0.00151212
0.00145756
0.00143788
0.00145175
0.00149537
0.00156095
0.00164227
0.00100277
0.00100819
0.00108211
0.00122625
0.00143527
0.00169665
0.00199139
0.00229279
0.00257998
0.0028422
0.00306612
0.00324837
0.00339937
0.00350257
0.00356306
0.00359807
0.00360786
0.00359636
0.00357058
0.00353363
0.00349221
0.00345053
0.00341331
0.00338485
0.00336812
0.00336404
0.0033736
0.00339744
0.00343432
0.00348242
0.00354037
0.00360627
0.00367776
0.00375209
0.00382664
0.00389869
0.0039656
0.00402462
0.00407294
0.00410786
0.00412676
0.00412764
0.00410847
0.00406778
0.00400402
0.00391721
0.00380711
0.00367465
0.00352084
0.00334812
0.00315954
0.00296021
0.00275673
0.00255805
0.00237705
0.00223084
0.00212507
0.00206781
0.00206029
0.00209665
0.00216826
0.00138562
0.00124993
0.00118802
0.00120171
0.00129152
0.00145554
0.00168665
0.00196899
0.00228021
0.0025961
0.00289355
0.00315772
0.00338406
0.00356683
0.00371015
0.00382959
0.00391124
0.00396703
0.00401416
0.00405499
0.00409968
0.00414632
0.00419418
0.00424349
0.00429513
0.00435075
0.00441292
0.00448483
0.00456628
0.00465629
0.00475436
0.00485897
0.00496812
0.00507912
0.0051893
0.00529573
0.00539534
0.00548483
0.00556073
0.0056197
0.00565853
0.00567471
0.00566575
0.00562978
0.00556434
0.00546891
0.00534256
0.00518576
0.00499913
0.00478445
0.00454423
0.00428289
0.00400563
0.00371954
0.00343543
0.00316966
0.00294117
0.00277098
0.00267369
0.00265144
0.00269371
0.00207884
0.0017842
0.0015659
0.00142819
0.00137253
0.00139884
0.00150533
0.00168682
0.00193288
0.00222591
0.00254216
0.00285735
0.00315309
0.00341486
0.00363793
0.0038254
0.00397866
0.00410524
0.00422407
0.00431979
0.00443196
0.00455433
0.0046863
0.00482633
0.00497408
0.00512604
0.00527967
0.005433
0.00558848
0.00574584
0.00590477
0.00606364
0.00622128
0.00637623
0.00652646
0.00666972
0.00680325
0.00692346
0.00702645
0.00710837
0.00716657
0.00719734
0.00719859
0.00716836
0.00710367
0.00700273
0.006865
0.00668917
0.00647655
0.00622781
0.00594542
0.00563201
0.00529084
0.00492687
0.00454616
0.00416222
0.00380364
0.00350627
0.00330197
0.00320649
0.003209
0.0030561
0.00261862
0.00224465
0.00194385
0.00172631
0.00159535
0.00155177
0.00159271
0.00171392
0.00190774
0.00216049
0.00245494
0.00277161
0.00308908
0.00338934
0.00366554
0.00390346
0.00410402
0.00427117
0.00441427
0.00458669
0.00475371
0.00493292
0.00513133
0.00535488
0.00559697
0.00585161
0.00611015
0.00636579
0.00661598
0.0068599
0.00709325
0.00731348
0.00752375
0.00772099
0.00790596
0.00807694
0.00823017
0.00836127
0.00846533
0.00854393
0.0085877
0.00859942
0.00857496
0.00851371
0.00840929
0.00826572
0.00807325
0.00784094
0.00756337
0.00724822
0.0068919
0.00649631
0.0060681
0.0056056
0.00511979
0.00464494
0.0042322
0.00392474
0.00375672
0.00371487
0.00507203
0.0180091
0.0183786
0.00180681
0.00513886
0.00704271
0.00125042
0.00574395
0.00128963
0.00334115
0.0105218
0.0144538
0.00125016
0.0126753
0.00661062
0.0205861
0.00126346
0.00613562
0.00993413
0.00125417
0.00181754
0.0125492
0.0174818
0.00127762
0.00127944
0.00477663
0.00125387
0.00296902
0.00125995
0.0013141
0.00665701
0.00127959
0.00272649
0.00895938
0.0136964
0.00923359
0.00807361
0.0136506
0.00124681
0.0138661
0.00509625
0.0135113
0.00124678
0.0204184
0.00502451
0.00984983
0.00135179
0.00239842
0.00134028
0.0146383
0.0103084
0.0154129
0.00124527
0.0014369
0.00196726
0.000204288
0.00131167
0.00475039
0.00890325
0.0177825
0.00404088
0.00135651
0.00135391
0.00365497
0.0193506
0.00717939
0.00916999
0.00421516
0.00148482
0.00124255
0.0132902
0.0142118
0.00490428
0.000480584
0.00273202
0.0189228
0.0184312
0.017046
0.00124256
0.0140167
0.00193829
0.0131686
0.000847128
0.0192727
0.00124255
0.0116606
0.00128545
0.0120794
0.0017918
0.00158867
0.00555608
0.00124199
0.00137897
0.0171354
0.0198052
0.00134062
0.0107866
0.00424364
0.00177898
0.0198775
0.00359881
0.0177726
0.00851611
0.00124146
0.0012419
0.0012443
0.00610176
0.00665897
0.00126417
0.0203186
0.0195686
0.00164749
0.00758598
0.00774886
0.00522867
0.0126591
0.0101817
0.00140578
0.00591721
0.00142206
0.00102733
0.00534521
0.00153022
0.017731
0.0128826
0.00301933
0.00124623
0.0127685
0.013189
0.00124636
0.00348932
0.00373912
0.00292526
0.00153784
0.0135025
0.00124568
0.00124193
0.0135813
0.0157541
0.0012531
0.00312443
0.020133
0.00434278
0.00894514
0.00821758
0.0172541
0.000470308
0.00883929
0.00249898
0.0156521
0.01239
0.000200928
0.0143355
0.0191708
0.0198494
0.00128378
0.00126833
0.00813603
0.00125553
0.00833825
0.000789372
0.00162163
0.00124378
0.00124742
0.00124291
0.0173919
0.00404916
0.00673386
0.00129333
0.0137698
0.00653908
0.0022634
0.0128437
0.0025347
0.00737978
0.00589935
0.0114797
0.00125938
0.00171107
0.0039618
0.0124211
0.0136592
0.0183585
0.00124772
0.00132584
0.00851213
0.00394625
0.0114009
0.00124467
0.00135246
0.00567359
0.00129846
0.01623
0.0102852
0.0012535
0.00849138
0.00328528
0.0179459
0.00151587
0.00641477
0.00124753
0.00125355
0.0208533
0.0164419
0.0152528
0.0015241
0.00129466
0.00185106
0.0170882
0.0057532
0.0106392
0.0183898
0.0147073
0.0194443
0.00409463
0.0200156
0.019499
0.0130118
0.0150096
0.0124515
0.00148177
0.00418319
0.00125144
0.00127169
0.010571
0.00296265
0.00311212
0.00146903
0.00245995
0.0144507
0.00944228
0.00287973
0.0184202
0.0134126
0.00506076
0.00124494
0.00443569
0.01791
0.012747
0.00145144
0.0100544
0.00326503
0.00346218
0.00272524
0.0183102
0.00768673
0.00433726
0.0204783
0.00138928
0.00124249
0.00142528
0.00231344
0.00959024
0.00129575
0.00150898
0.00124572
0.00760026
0.0202898
0.0190426
0.0138128
0.0122924
0.0156262
0.0164476
0.00148905
0.00813713
0.0187386
0.00124609
0.00420353
0.00124266
0.00443487
0.00755002
0.00422409
0.00165407
0.00124632
0.0153084
0.0029464
0.00124291
0.00125545
0.00125865
0.00126155
0.00967735
0.00679802
0.0181634
0.00180326
0.00124286
0.00124391
0.00124183
0.0198525
0.00386614
0.00150786
0.0137974
0.00594136
0.00155728
0.00124338
0.00789618
0.00124266
0.00213746
0.00415469
0.00696191
0.00276086
0.00141014
0.0017331
0.0167067
0.00507148
0.00266637
0.016439
0.00131657
0.00124337
0.00124545
0.0203734
0.00127498
0.0151701
0.00124533
0.0141752
0.0109285
0.00272162
0.00528241
0.00583768
0.00154628
0.0133848
0.0132063
0.00278135
0.02302
0.0102933
0.0158248
0.0141335
0.0205422
0.00827498
0.0201558
0.00483236
0.00656174
0.0161422
0.0179755
0.01295
0.0123033
0.00140903
0.0155434
0.00518847
0.0193328
0.00362252
0.00133369
0.00124656
0.00129909
0.00412561
0.0100638
0.00674024
0.00611225
0.00124902
0.0202634
0.00124614
0.00724356
0.0149647
0.0201384
0.0137195
0.0158121
0.00166021
0.001473
0.00146968
0.00825897
0.00219566
0.006432
0.00888445
0.0105876
0.0185866
0.0173892
0.0162435
0.00131324
0.0178768
0.0197668
0.00288875
0.00125434
0.0193959
0.020153
0.00127864
0.0115927
0.00125532
0.0102793
0.0157764
0.011238
0.0197693
0.00483797
0.0204962
0.00127562
0.0205929
0.00139105
0.0176465
0.0178611
0.0116272
0.0180089
0.0123828
0.00824363
0.0103018
0.00147038
0.00378132
0.00137486
0.00205457
0.00128985
0.00674412
0.00138442
0.0187505
0.00124363
0.00125584
0.00176412
0.00972199
0.00514654
0.0145364
0.00146883
0.0200096
0.00774902
0.0184868
0.00613787
0.0171566
0.00991714
0.00129917
0.0180646
0.0175472
0.00124998
0.0177647
0.0153829
0.00124441
0.00124179
0.0088092
0.00183473
0.0117833
0.00146172
0.00660478
0.00364679
0.00966749
0.0168831
0.0172011
0.0164653
0.0162032
0.0188261
0.00140883
0.00125998
0.00895491
0.0117248
0.0160858
0.0106469
0.0179131
0.0045525
0.0201745
0.0201563
0.00677912
0.00297282
0.01706
0.0154524
0.00132644
0.0183958
0.0144377
0.00144822
0.019686
0.0160086
0.017149
0.00342505
0.00462337
0.0122741
0.00166138
0.0162553
0.00153866
0.00331855
0.00125175
0.0110225
0.00288899
0.00856266
0.00156761
0.00136799
0.00882725
0.00866785
0.00160297
0.00261906
0.010085
0.00279111
0.0013199
0.0155711
0.00897826
0.0134898
0.0077793
0.00354211
0.0119738
0.0166565
0.0179988
0.00618343
0.0118965
0.0172119
0.00636128
0.0152912
0.020442
0.000418992
0.00566191
0.0125537
0.00129724
0.00321189
0.00805177
0.0124282
0.00277165
0.0227133
0.0043679
0.010365
0.0065123
0.00168074