/*--------------------------------*- C++ -*----------------------------------*\
| =========                 |                                                 |
| \\      /  F ield         | OpenFOAM: The Open Source CFD Toolbox           |
|  \\    /   O peration     | Version:  2.3.1                                 |
|   \\  /    A nd           | Web:      www.OpenFOAM.org                      |
|    \\/     M anipulation  |                                                 |
\*---------------------------------------------------------------------------*/
FoamFile
{
    version     2.0;
    format      ascii;
    class       volVectorField;
    location    "0.72";
    object      U;
}
// * * * * * * * * * * * * * * * * * * * * * * * * * * * * * * * * * * * * * //

dimensions      [0 1 -1 0 0 0 0];

internalField   nonuniform List<vector> 
9648
(
(0.165246 -4.78194 -2.08383e-23)
(0.283659 -4.75559 -1.04317e-22)
(0.402448 -4.72252 0)
(0.522974 -4.69376 0)
(0.644402 -4.66943 1.03828e-20)
(0.766832 -4.65147 1.6159e-20)
(0.892716 -4.64303 -2.86198e-20)
(1.02458 -4.64696 -1.31609e-20)
(1.16397 -4.66434 1.31287e-20)
(1.31108 -4.69712 3.96388e-20)
(1.468 -4.74702 -3.94739e-20)
(1.63659 -4.81506 -5.6648e-20)
(1.81886 -4.90184 3.00985e-19)
(2.01684 -5.00727 7.76528e-20)
(2.23223 -5.1305 -7.28397e-19)
(2.46627 -5.27024 0)
(2.72011 -5.42473 0)
(2.99459 -5.59189 1.31872e-19)
(3.29039 -5.76907 4.24748e-19)
(3.60757 -5.95349 -1.22144e-18)
(3.94617 -6.14249 -2.10818e-20)
(4.30604 -6.333 3.36324e-19)
(4.68641 -6.52213 3.97028e-19)
(5.08662 -6.7071 -1.80312e-18)
(5.50571 -6.8852 0)
(5.94267 -7.05384 1.07832e-18)
(6.39619 -7.21052 -1.13045e-18)
(6.86489 -7.35319 0)
(7.34734 -7.47966 0)
(7.84192 -7.58829 -6.85355e-19)
(8.34714 -7.67739 -1.51543e-18)
(8.8612 -7.74553 2.37904e-18)
(9.38248 -7.79156 0)
(9.90925 -7.8143 0)
(10.4397 -7.81306 1.8214e-18)
(10.9721 -7.787 -1.95934e-18)
(11.5046 -7.73569 0)
(12.0358 -7.65887 4.20532e-18)
(12.5637 -7.55614 1.1339e-18)
(13.0866 -7.42738 -3.35709e-18)
(13.6027 -7.27263 6.29405e-20)
(14.1105 -7.09237 2.38787e-18)
(14.6084 -6.88649 -3.17113e-18)
(15.0945 -6.65552 6.37851e-19)
(15.5677 -6.40024 0)
(16.0266 -6.12077 0)
(16.4696 -5.81783 4.80994e-18)
(16.8955 -5.49221 7.03857e-19)
(17.3035 -5.14484 -2.17476e-18)
(17.6931 -4.77573 -7.32024e-19)
(18.0622 -4.38548 -7.61248e-19)
(18.4089 -3.97645 7.56522e-19)
(18.7331 -3.55038 3.90751e-19)
(19.0339 -3.10802 -3.88637e-19)
(19.3101 -2.65108 1.98352e-18)
(19.5613 -2.18064 -1.95318e-18)
(19.7866 -1.69814 -2.16042e-20)
(19.9856 -1.20481 0)
(20.1577 -0.702094 -3.96674e-19)
(20.3027 -0.191659 -5.1289e-20)
(20.4204 0.325288 -4.86381e-20)
(-0.0596343 -2.50037 1.19909e-22)
(0.00528266 -2.49955 0)
(0.073365 -2.51165 0)
(0.147198 -2.53687 5.9934e-21)
(0.225732 -2.58181 -6.26098e-21)
(0.313447 -2.65017 -3.81218e-20)
(0.412122 -2.74075 0)
(0.523414 -2.85124 0)
(0.649216 -2.98196 -4.50571e-20)
(0.789963 -3.13312 0)
(0.946901 -3.30351 -1.07514e-19)
(1.12084 -3.49153 8.45696e-20)
(1.31267 -3.69584 -4.56786e-20)
(1.52337 -3.91472 0)
(1.75367 -4.14619 2.83512e-19)
(2.0039 -4.38814 1.67667e-19)
(2.27437 -4.6383 -1.6494e-19)
(2.56522 -4.89442 2.13877e-19)
(2.87664 -5.15397 -6.51335e-19)
(3.2084 -5.41448 5.17738e-19)
(3.56016 -5.67361 -5.72793e-19)
(3.93168 -5.92884 -3.08411e-19)
(4.32214 -6.17782 -3.16289e-19)
(4.73078 -6.41823 1.08608e-18)
(5.1567 -6.64788 3.75944e-19)
(5.59897 -6.86462 4.46433e-19)
(6.05646 -7.06644 -3.96071e-19)
(6.52788 -7.2516 0)
(7.01202 -7.41832 0)
(7.50735 -7.56526 0)
(8.01255 -7.69095 0)
(8.52597 -7.79421 0)
(9.04613 -7.87405 0)
(9.57151 -7.92946 0)
(10.1003 -7.95989 -8.15674e-19)
(10.6311 -7.96455 7.41055e-19)
(11.1621 -7.94319 8.16971e-19)
(11.6917 -7.89549 -4.14959e-18)
(12.2185 -7.82113 -8.8051e-19)
(12.7405 -7.72006 2.70742e-18)
(13.2563 -7.59241 1.89934e-18)
(13.764 -7.4386 -1.9599e-18)
(14.2624 -7.25851 9.36123e-19)
(14.7497 -7.05284 9.87686e-19)
(15.2245 -6.82223 -1.04959e-18)
(15.6854 -6.56691 1.04025e-18)
(16.131 -6.28772 -2.22912e-18)
(16.5599 -5.98551 0)
(16.9707 -5.66123 -5.69353e-19)
(17.3629 -5.31501 1.14404e-18)
(17.7355 -4.94753 -5.7484e-19)
(18.0875 -4.56066 0)
(18.4175 -4.15579 1.18121e-18)
(18.7249 -3.73372 0)
(19.0086 -3.29591 0)
(19.2679 -2.84353 2.79892e-18)
(19.5019 -2.37788 -1.26135e-18)
(19.7101 -1.90058 -3.06827e-19)
(19.8922 -1.4125 3.23808e-19)
(20.0475 -0.915347 0)
(20.1757 -0.410375 8.14121e-20)
(0.0494786 -1.4489 -2.63678e-22)
(0.104564 -1.48929 0)
(0.166428 -1.54894 -4.97536e-22)
(0.236639 -1.63168 -2.98163e-22)
(0.314706 -1.73486 0)
(0.404264 -1.85661 3.27826e-20)
(0.506447 -1.99906 2.19754e-20)
(0.62255 -2.16106 0)
(0.754118 -2.34209 2.24532e-21)
(0.902952 -2.54063 4.61262e-20)
(1.07003 -2.7555 9.16848e-20)
(1.25598 -2.98476 -3.17637e-20)
(1.46137 -3.22657 0)
(1.68654 -3.47883 0)
(1.93177 -3.73942 2.15692e-19)
(2.19699 -4.00623 -1.36866e-19)
(2.48217 -4.27702 -1.46619e-19)
(2.78713 -4.54959 0)
(3.11164 -4.8217 5.63177e-19)
(3.45536 -5.09115 -5.84403e-19)
(3.81782 -5.35588 -4.36443e-19)
(4.19848 -5.61378 -4.80202e-19)
(4.59657 -5.86282 0)
(5.01121 -6.10104 -8.59419e-19)
(5.44148 -6.3265 -3.02019e-19)
(5.8864 -6.53738 3.58535e-19)
(6.34486 -6.73197 3.95722e-19)
(6.8157 -6.90875 0)
(7.29764 -7.06627 0)
(7.78933 -7.2033 0)
(8.28934 -7.31866 0)
(8.79622 -7.41133 0)
(9.30851 -7.48042 0)
(9.82472 -7.5252 0)
(10.3432 -7.54511 -1.78663e-18)
(10.8625 -7.53964 5.9345e-19)
(11.3811 -7.50852 -6.54338e-19)
(11.8973 -7.45152 3.29278e-18)
(12.4097 -7.36848 0)
(12.9166 -7.25947 1.40028e-18)
(13.4165 -7.12468 1.44791e-18)
(13.9078 -6.9644 7.17329e-19)
(14.3891 -6.77879 -8.21336e-19)
(14.8588 -6.5684 -1.58189e-18)
(15.3158 -6.33376 2.46417e-18)
(15.7585 -6.07539 -8.33425e-19)
(16.1857 -5.79408 -1.69985e-18)
(16.5962 -5.49062 0)
(16.9888 -5.16602 0)
(17.3624 -4.82126 -4.63729e-19)
(17.716 -4.45745 -4.53426e-19)
(18.0487 -4.07549 -9.27245e-19)
(18.36 -3.67647 -9.70386e-19)
(18.6485 -3.26179 0)
(18.9139 -2.83227 -9.59582e-19)
(19.155 -2.38962 -9.99818e-19)
(19.3717 -1.93458 0)
(19.5631 -1.46933 1.61834e-20)
(19.7285 -0.994178 0)
(19.8678 -0.510889 0)
(19.981 -0.0204736 -6.19039e-20)
(0.0166771 -0.948674 5.6425e-22)
(0.0756416 -1.02674 -7.24858e-22)
(0.146779 -1.12454 -7.64765e-23)
(0.22994 -1.24141 -2.03873e-21)
(0.325217 -1.37645 0)
(0.432306 -1.52938 -1.37082e-20)
(0.552561 -1.70036 -1.89795e-20)
(0.687229 -1.88879 0)
(0.837717 -2.09376 3.08269e-21)
(1.00496 -2.31402 -3.94292e-20)
(1.18983 -2.54808 8.83811e-20)
(1.39273 -2.7942 1.06473e-19)
(1.61401 -3.05036 0)
(1.85389 -3.31451 -8.32907e-20)
(2.11262 -3.58462 -1.76462e-19)
(2.38994 -3.85869 -9.38811e-20)
(2.68575 -4.13461 3.60546e-19)
(2.99981 -4.41031 -2.60243e-19)
(3.33176 -4.68376 2.91372e-19)
(3.68129 -4.95293 4.95606e-19)
(4.048 -5.21601 7.16579e-19)
(4.43119 -5.47118 4.03627e-19)
(4.83023 -5.7166 1.94204e-19)
(5.24417 -5.95056 7.04502e-19)
(5.67218 -6.17129 2.3138e-19)
(6.11331 -6.37713 2.62931e-19)
(6.56653 -6.56657 3.09879e-19)
(7.03086 -6.7382 -9.27251e-19)
(7.50507 -6.8908 6.65254e-19)
(7.98784 -7.0232 7.51031e-19)
(8.47798 -7.13436 -1.53486e-18)
(8.97402 -7.22336 7.83489e-19)
(9.47462 -7.28936 -8.38959e-19)
(9.97848 -7.33169 4.18114e-19)
(10.484 -7.34989 4.58018e-19)
(10.9899 -7.34349 5.07987e-19)
(11.4945 -7.3122 -5.0152e-19)
(11.9966 -7.25587 -5.46192e-19)
(12.4946 -7.17439 -1.63706e-18)
(12.987 -7.06784 -1.18049e-18)
(13.4724 -6.93645 -2.39283e-18)
(13.9492 -6.78042 -3.09899e-18)
(14.416 -6.60005 1.27028e-18)
(14.8715 -6.39573 2.85659e-20)
(15.3144 -6.16801 -7.10837e-19)
(15.7434 -5.91744 -6.97292e-19)
(16.1573 -5.64467 4.21511e-18)
(16.5549 -5.35051 -7.0642e-19)
(16.9351 -5.03574 0)
(17.297 -4.70127 0)
(17.6396 -4.34814 -7.09265e-19)
(17.9619 -3.97752 3.15203e-20)
(18.2634 -3.59041 7.6063e-19)
(18.5429 -3.18796 0)
(18.8 -2.77142 8.09658e-19)
(19.0336 -2.34213 0)
(19.2433 -1.90124 0)
(19.4286 -1.4497 6.16757e-19)
(19.5889 -0.989052 1.96164e-19)
(19.724 -0.520753 -1.99865e-19)
(19.8336 -0.0462709 1.02251e-19)
(0.104963 -0.701366 4.17852e-23)
(0.166126 -0.802395 6.34101e-22)
(0.241538 -0.920191 -8.18902e-22)
(0.331663 -1.05538 1.10532e-21)
(0.436047 -1.20795 -3.16432e-21)
(0.554991 -1.37757 5.56711e-21)
(0.688917 -1.56386 2.37437e-21)
(0.838442 -1.76589 -1.40921e-20)
(1.00459 -1.98268 4.11578e-20)
(1.18757 -2.21291 -5.93339e-20)
(1.38801 -2.45499 6.66048e-20)
(1.60573 -2.70717 -8.24012e-20)
(1.84102 -2.9674 -4.74322e-20)
(2.09373 -3.23369 0)
(2.36418 -3.50404 8.61964e-20)
(2.65182 -3.77673 8.28072e-20)
(2.95648 -4.04972 0)
(3.27793 -4.32107 2.04211e-19)
(3.61562 -4.58891 0)
(3.96941 -4.85129 -2.69565e-19)
(4.33891 -5.10668 2.94019e-19)
(4.72333 -5.3535 1.02238e-20)
(5.12214 -5.59004 -1.69519e-20)
(5.53428 -5.81488 2.89247e-20)
(5.95898 -6.02623 -8.23007e-19)
(6.39542 -6.22262 -4.71929e-19)
(6.84255 -6.40265 9.71039e-19)
(7.29961 -6.565 1.05284e-18)
(7.76537 -6.70869 -5.69527e-19)
(8.23862 -6.83259 0)
(8.71826 -6.93575 0)
(9.20283 -7.01737 0)
(9.69116 -7.07657 7.19453e-19)
(10.182 -7.11277 -2.97051e-18)
(10.674 -7.12566 1.55389e-18)
(11.1657 -7.11473 -7.90028e-19)
(11.6558 -7.07966 -1.70346e-18)
(12.1429 -7.02048 1.72758e-18)
(12.6257 -6.93701 3.95597e-20)
(13.1027 -6.82938 -9.74635e-19)
(13.5727 -6.69787 1.00657e-18)
(14.034 -6.54267 1.04054e-18)
(14.4853 -6.36406 0)
(14.9254 -6.16236 -1.0563e-18)
(15.353 -5.93812 0)
(15.7669 -5.6919 -1.68665e-18)
(16.166 -5.42433 5.21472e-19)
(16.5491 -5.13615 0)
(16.9152 -4.82805 -6.11259e-19)
(17.2634 -4.50104 -1.45711e-20)
(17.5928 -4.15594 1.30157e-18)
(17.9026 -3.79393 -6.18527e-19)
(18.192 -3.41608 -3.4382e-19)
(18.4602 -3.02351 6.29721e-19)
(18.7065 -2.61755 -4.78193e-21)
(18.9302 -2.19921 3.28255e-19)
(19.1303 -1.76976 1.58567e-19)
(19.3067 -1.33014 3.3456e-19)
(19.459 -0.88156 -8.40361e-19)
(19.5868 -0.425516 3.37478e-19)
(19.6899 0.0364421 -4.31741e-20)
(0.183724 -0.570269 -2.90666e-22)
(0.258336 -0.687614 0)
(0.348395 -0.820322 1.56173e-21)
(0.454268 -0.969169 0)
(0.574777 -1.13412 8.62912e-22)
(0.710571 -1.31463 7.81929e-21)
(0.861681 -1.51026 8.82436e-21)
(1.02847 -1.71982 2.72464e-20)
(1.21188 -1.94231 3.7763e-21)
(1.41145 -2.17649 5.80683e-21)
(1.6279 -2.42068 1.18363e-21)
(1.86039 -2.67334 -3.14219e-20)
(2.10934 -2.93236 4.59593e-20)
(2.37394 -3.19574 -1.39963e-19)
(2.65523 -3.46155 1.18685e-19)
(2.95219 -3.7286 -8.37994e-21)
(3.26442 -3.99465 -1.4673e-19)
(3.59204 -4.25797 -1.76346e-19)
(3.93408 -4.51689 0)
(4.29064 -4.76939 2.09455e-19)
(4.66165 -5.01426 8.33532e-21)
(5.04581 -5.25025 -5.41319e-19)
(5.44315 -5.47564 -2.30399e-20)
(5.85216 -5.68944 -2.93133e-19)
(6.27218 -5.8897 1.03283e-18)
(6.70255 -6.07508 3.50971e-20)
(7.14212 -6.24435 -3.836e-19)
(7.59059 -6.39609 -4.05907e-20)
(8.04661 -6.52979 0)
(8.50896 -6.64426 0)
(8.9769 -6.73853 0)
(9.44872 -6.81216 0)
(9.92336 -6.86401 0)
(10.4001 -6.89355 5.65656e-20)
(10.8773 -6.90075 -6.6568e-19)
(11.3534 -6.88509 -3.86165e-20)
(11.8277 -6.84601 2.87433e-20)
(12.2987 -6.78388 6.86693e-19)
(12.765 -6.69839 1.56838e-18)
(13.2256 -6.58967 -2.36527e-18)
(13.679 -6.45825 1.64586e-18)
(14.1238 -6.30416 -8.30534e-19)
(14.5584 -6.12777 0)
(14.9821 -5.9291 9.21955e-19)
(15.3935 -5.70886 0)
(15.7913 -5.46759 9.70124e-19)
(16.1748 -5.20574 -9.92497e-19)
(16.5424 -4.92434 4.66246e-19)
(16.8935 -4.62369 4.9786e-19)
(17.2272 -4.30481 -5.19381e-19)
(17.5428 -3.96856 3.70457e-20)
(17.8393 -3.61617 -1.05388e-20)
(18.1161 -3.24839 1.05603e-18)
(18.3726 -2.86664 -1.08661e-18)
(18.6079 -2.47211 -5.36088e-19)
(18.8211 -2.06613 -2.62462e-19)
(19.0115 -1.64946 -8.34655e-19)
(19.1788 -1.22294 0)
(19.3229 -0.78767 5.63647e-19)
(19.4435 -0.345477 -1.44672e-19)
(19.5402 0.102367 0)
(0.284704 -0.507365 0)
(0.373535 -0.636433 0)
(0.47916 -0.780494 -9.11983e-22)
(0.602649 -0.939962 2.12435e-22)
(0.740721 -1.1143 -2.28745e-21)
(0.894964 -1.30244 -1.23806e-20)
(1.06447 -1.50393 6.38162e-21)
(1.24894 -1.71729 -1.94866e-20)
(1.45048 -1.94179 -1.27838e-21)
(1.66648 -2.17623 4.96933e-20)
(1.89928 -2.41899 -9.07888e-20)
(2.14603 -2.66886 0)
(2.40843 -2.92345 0)
(2.68368 -3.18102 1.59372e-19)
(2.97541 -3.43911 1.01645e-19)
(3.28087 -3.69794 -2.23622e-19)
(3.59951 -3.95465 3.6222e-19)
(3.93262 -4.20767 1.51041e-19)
(4.27778 -4.45593 -3.02054e-19)
(4.63584 -4.69666 -1.82526e-19)
(5.00777 -4.9291 2.09638e-19)
(5.39036 -5.15287 -5.02885e-21)
(5.78567 -5.36544 0)
(6.19052 -5.56724 5.38953e-19)
(6.60473 -5.75543 -8.86895e-19)
(7.0283 -5.92873 2.95286e-19)
(7.45891 -6.08648 6.52438e-19)
(7.89796 -6.2265 -1.81351e-18)
(8.34342 -6.34938 3.69218e-19)
(8.79366 -6.45377 0)
(9.24922 -6.53826 0)
(9.70728 -6.60354 0)
(10.167 -6.64762 5.05273e-19)
(10.6287 -6.66972 1.56369e-18)
(11.0904 -6.67074 -1.05729e-18)
(11.5497 -6.65028 5.83169e-19)
(12.0074 -6.60647 6.38709e-19)
(12.4611 -6.5411 -1.26683e-18)
(12.9097 -6.45327 0)
(13.353 -6.34285 -1.30049e-18)
(13.7888 -6.21133 6.75191e-19)
(14.2162 -6.05811 3.47867e-20)
(14.633 -5.88408 -3.12511e-20)
(15.0392 -5.68821 7.43079e-19)
(15.4334 -5.47184 3.12166e-20)
(15.8142 -5.23579 -2.37157e-18)
(16.181 -4.97964 8.03395e-19)
(16.5322 -4.70523 -1.66829e-18)
(16.8674 -4.41194 0)
(17.1856 -4.10162 0)
(17.4864 -3.77417 1.76052e-18)
(17.7687 -3.43185 -4.20565e-19)
(18.0318 -3.07456 -9.11832e-19)
(18.2759 -2.70358 -4.38253e-19)
(18.4996 -2.32101 1.39898e-18)
(18.7018 -1.92786 7.05488e-19)
(18.8818 -1.52442 2.43776e-19)
(19.039 -1.11184 -4.57791e-21)
(19.1741 -0.690198 -2.43849e-19)
(19.2871 -0.261953 0)
(19.3771 0.171031 0)
(0.403062 -0.487474 3.40872e-22)
(0.509385 -0.625067 0)
(0.631672 -0.777412 0)
(0.775324 -0.945134 -4.41022e-22)
(0.93128 -1.12649 0)
(1.1049 -1.31964 4.84583e-21)
(1.29301 -1.52428 6.14906e-21)
(1.49417 -1.7385 -1.26599e-20)
(1.7151 -1.9623 0)
(1.94622 -2.19447 -2.97308e-20)
(2.19641 -2.43338 3.89323e-21)
(2.45587 -2.67855 0)
(2.73255 -2.92686 0)
(3.01555 -3.17709 -6.7094e-20)
(3.31808 -3.42436 7.32105e-20)
(3.63182 -3.67369 -9.14775e-20)
(3.95502 -3.91973 -1.05031e-19)
(4.29361 -4.16084 0)
(4.64052 -4.39812 1.35008e-19)
(4.99857 -4.62582 -2.84849e-19)
(5.37219 -4.84442 -3.18723e-19)
(5.75089 -5.0557 -3.72935e-19)
(6.14448 -5.25391 -3.30197e-20)
(6.54426 -5.44385 -4.72639e-19)
(6.95166 -5.61957 4.53474e-19)
(7.36858 -5.78001 5.05186e-19)
(7.78813 -5.92635 -5.74223e-19)
(8.21743 -6.05328 3.12089e-20)
(8.65201 -6.16501 4.20299e-20)
(9.08822 -6.25936 -6.61677e-19)
(9.53119 -6.33308 0)
(9.97455 -6.39046 -8.04094e-19)
(10.4182 -6.42641 1.5947e-18)
(10.8643 -6.4399 -4.43248e-20)
(11.3101 -6.435 9.34539e-19)
(11.7503 -6.41095 -9.29708e-19)
(12.1914 -6.36108 1.02412e-18)
(12.6269 -6.29257 1.06786e-18)
(13.0563 -6.20231 -2.11071e-18)
(13.4815 -6.0894 1.15397e-18)
(13.8983 -5.95825 1.13472e-18)
(14.3078 -5.8055 1.79158e-18)
(14.7052 -5.63422 -6.37383e-19)
(15.0929 -5.44002 0)
(15.4692 -5.22764 3.3971e-20)
(15.8312 -4.99781 6.91625e-19)
(16.1812 -4.74696 -6.72244e-19)
(16.5142 -4.48092 7.23503e-19)
(16.8327 -4.19494 0)
(17.1337 -3.89421 0)
(17.4191 -3.57545 -3.94548e-20)
(17.686 -3.24422 7.76253e-19)
(17.9344 -2.89673 0)
(18.1652 -2.53632 3.85413e-19)
(18.3769 -2.16684 3.88658e-19)
(18.5675 -1.78761 -7.915e-19)
(18.7366 -1.39798 -3.88184e-19)
(18.8825 -1.00041 -2.06157e-19)
(19.0074 -0.591924 0)
(19.1126 -0.178657 0)
(19.1951 0.238051 2.46745e-20)
(0.538861 -0.494632 -9.70009e-22)
(0.66899 -0.637231 1.88327e-21)
(0.807481 -0.793194 -1.52561e-23)
(0.97745 -0.967104 -1.33973e-21)
(1.1475 -1.15216 1.11737e-21)
(1.34013 -1.35 -6.57924e-22)
(1.5475 -1.55383 0)
(1.76153 -1.76493 1.44955e-21)
(2.00695 -1.98663 -1.48503e-20)
(2.24738 -2.21315 0)
(2.52071 -2.44714 6.03438e-20)
(2.7857 -2.68717 -3.75182e-20)
(3.08015 -2.92938 3.82011e-20)
(3.36352 -3.17255 4.85672e-20)
(3.6796 -3.40336 -6.33095e-20)
(4.00127 -3.6443 -7.71699e-20)
(4.3248 -3.87956 2.54384e-19)
(4.67323 -4.10534 -2.64719e-19)
(5.01536 -4.33429 0)
(5.36858 -4.55047 -9.18813e-21)
(5.75056 -4.75392 7.8402e-19)
(6.11729 -4.95539 -2.94211e-20)
(6.5168 -5.13392 -3.70655e-19)
(6.9054 -5.31508 7.10252e-19)
(7.30405 -5.48071 0)
(7.71754 -5.62831 -4.36084e-19)
(8.11963 -5.76491 -4.46736e-19)
(8.54098 -5.87719 9.89625e-19)
(8.96574 -5.97867 -6.57035e-21)
(9.38368 -6.06459 5.86546e-19)
(9.81676 -6.12471 -1.19836e-18)
(10.2414 -6.17669 1.90453e-18)
(10.6665 -6.20613 -1.36485e-18)
(11.098 -6.21089 -1.43068e-18)
(11.5305 -6.19928 0)
(11.9467 -6.17231 8.13954e-19)
(12.3768 -6.11363 0)
(12.7904 -6.04508 -3.00535e-21)
(13.1982 -5.95435 9.63004e-19)
(13.6078 -5.8357 -1.79129e-18)
(14.0033 -5.70407 -6.6252e-21)
(14.3962 -5.55184 -1.97934e-18)
(14.7681 -5.38604 0)
(15.1364 -5.19481 -5.66316e-19)
(15.4958 -4.98772 2.17248e-18)
(15.8344 -4.76524 -5.52392e-19)
(16.1713 -4.51908 5.84649e-19)
(16.4823 -4.26257 0)
(16.7858 -3.98293 6.01311e-19)
(17.0673 -3.69095 -1.81456e-18)
(17.3382 -3.37708 -2.52061e-20)
(17.5883 -3.05707 0)
(17.8189 -2.72226 6.23178e-19)
(18.037 -2.37295 -1.86782e-20)
(18.2379 -2.01406 0)
(18.4137 -1.64719 3.50828e-19)
(18.5739 -1.27903 -3.1845e-19)
(18.7057 -0.898609 3.33962e-19)
(18.8187 -0.504519 3.3112e-19)
(18.9189 -0.102541 -1.66214e-19)
(18.9909 0.29852 -6.29004e-20)
(20.5101 0.847826 1.51281e-19)
(20.5712 1.37424 -5.12848e-20)
(20.6043 1.90407 0)
(20.6094 2.43482 0)
(20.5867 2.96475 8.14895e-19)
(20.5367 3.49275 1.17271e-18)
(20.4592 4.01703 -1.20728e-18)
(20.3545 4.53616 -3.97864e-19)
(20.2227 5.04864 3.97804e-19)
(20.0644 5.55342 7.78532e-19)
(19.8799 6.04989 -7.78988e-19)
(19.6693 6.5362 -7.57395e-19)
(19.434 7.01129 3.76699e-18)
(19.1754 7.47395 7.32661e-19)
(18.8938 7.92275 -6.46563e-18)
(18.5898 8.35618 0)
(18.2643 8.77333 0)
(17.9185 9.17324 6.72516e-19)
(17.5533 9.55537 1.98644e-18)
(17.1692 9.91837 -5.10654e-18)
(16.7681 10.2616 -7.45027e-20)
(16.3505 10.5845 1.17065e-18)
(15.9175 10.886 1.20417e-18)
(15.4704 11.1657 -4.49354e-18)
(15.0105 11.4232 0)
(14.5388 11.6589 2.11059e-18)
(14.0555 11.8719 -1.95598e-18)
(13.5627 12.0604 0)
(13.062 12.2244 0)
(12.555 12.3632 -8.96214e-19)
(12.0429 12.4772 -1.63865e-18)
(11.527 12.5659 2.33566e-18)
(11.0088 12.6295 0)
(10.4894 12.668 0)
(9.97019 12.6813 1.1791e-18)
(9.45235 12.6697 -1.12085e-18)
(8.93724 12.6333 0)
(8.42613 12.5725 1.76726e-18)
(7.92006 12.4876 3.68301e-19)
(7.42029 12.379 -1.01908e-18)
(6.92802 12.247 3.53607e-20)
(6.44468 12.0924 4.296e-19)
(5.97105 11.9158 -4.25084e-19)
(5.50832 11.7176 7.44116e-20)
(5.05767 11.4986 0)
(4.61983 11.2598 0)
(4.19584 11.0016 -1.71356e-19)
(3.78663 10.7249 -3.69989e-20)
(3.3932 10.4307 2.20597e-19)
(3.01626 10.1203 9.17715e-20)
(2.65643 9.79431 1.43557e-19)
(2.31452 9.45369 -1.45429e-19)
(1.99131 9.0997 -9.7449e-20)
(1.68709 8.73352 9.87784e-20)
(1.40257 8.35607 -5.90008e-19)
(1.13816 7.96878 6.43709e-19)
(0.894285 7.57277 -1.29601e-21)
(0.671245 7.16955 0)
(0.469216 6.76017 1.63972e-19)
(0.288553 6.34572 2.22752e-20)
(0.129339 5.92745 2.3573e-20)
(20.2762 0.100821 -8.14869e-20)
(20.3483 0.616203 0)
(20.3925 1.13319 0)
(20.4097 1.65151 9.3564e-19)
(20.3993 2.16981 -6.25597e-19)
(20.3619 2.68689 -2.20427e-18)
(20.2975 3.20107 0)
(20.2063 3.71122 0)
(20.0884 4.21577 -1.20029e-18)
(19.944 4.71324 0)
(19.7733 5.20291 -1.75868e-18)
(19.5771 5.6825 1.16682e-18)
(19.3567 6.15022 -5.79234e-19)
(19.1132 6.60584 0)
(18.8467 7.0489 2.29061e-18)
(18.5576 7.47805 1.073e-18)
(18.2468 7.89213 -1.07514e-18)
(17.9153 8.28995 1.0227e-18)
(17.5639 8.67086 -3.02215e-18)
(17.1936 9.03367 2.03491e-18)
(16.8057 9.37724 -1.97629e-18)
(16.4011 9.70113 -1.00747e-18)
(15.9809 10.0041 -9.11447e-19)
(15.5463 10.2855 2.64433e-18)
(15.0985 10.5445 8.47593e-19)
(14.6383 10.781 7.75565e-19)
(14.1668 10.9952 -7.00988e-19)
(13.686 11.1861 0)
(13.1969 11.353 0)
(12.7009 11.4954 0)
(12.1992 11.6131 0)
(11.6932 11.706 0)
(11.1843 11.7739 0)
(10.6737 11.817 0)
(10.1628 11.835 -4.88839e-19)
(9.65281 11.8282 4.34098e-19)
(9.14511 11.7964 3.47721e-19)
(8.64088 11.7402 -1.68781e-18)
(8.14125 11.6599 -2.63492e-19)
(7.64754 11.5557 7.85978e-19)
(7.16098 11.428 4.32619e-19)
(6.68294 11.2773 -3.45053e-19)
(6.21427 11.1044 1.28214e-19)
(5.75634 10.9095 9.39433e-20)
(5.31023 10.6934 -7.64663e-21)
(4.87675 10.4569 7.73238e-21)
(4.45699 10.2006 9.26152e-20)
(4.0519 9.92537 0)
(3.66254 9.63209 8.02961e-20)
(3.2897 9.3218 -1.82178e-19)
(2.93404 8.99534 1.02171e-19)
(2.59648 8.65363 0)
(2.27785 8.29779 -3.04442e-19)
(1.97842 7.92897 0)
(1.6991 7.54811 0)
(1.44014 7.1566 -9.46321e-19)
(1.20217 6.75566 4.56529e-19)
(0.985408 6.34668 1.26173e-19)
(0.790407 5.93067 -1.3204e-19)
(0.617483 5.5089 0)
(0.466875 5.08262 -3.7248e-20)
(20.0677 0.47506 6.19437e-20)
(20.1282 0.974533 0)
(20.1621 1.47449 -2.47116e-19)
(20.1685 1.97482 -1.62393e-20)
(20.1481 2.47415 0)
(20.1017 2.9718 1.98237e-18)
(20.0293 3.46692 9.67833e-19)
(19.9306 3.95924 0)
(19.8058 4.44652 3.18612e-20)
(19.6551 4.92655 9.36899e-19)
(19.4796 5.39769 1.42304e-18)
(19.2804 5.85854 -4.67789e-19)
(19.058 6.30747 0)
(18.8125 6.74367 0)
(18.5446 7.16667 1.72312e-18)
(18.2551 7.57558 -8.50079e-19)
(17.945 7.96938 -7.96798e-19)
(17.6152 8.34711 0)
(17.2665 8.70798 2.40603e-18)
(16.8999 9.05102 -2.30889e-18)
(16.5167 9.37532 -1.47472e-18)
(16.1178 9.68016 -1.42701e-18)
(15.7043 9.96463 0)
(15.2772 10.228 -2.03877e-18)
(14.8378 10.4697 -6.65176e-19)
(14.3872 10.6891 6.07663e-19)
(13.9267 10.8856 5.98047e-19)
(13.4574 11.0592 0)
(12.9807 11.2094 0)
(12.4976 11.3359 0)
(12.0095 11.4386 0)
(11.5176 11.5172 0)
(11.0232 11.5718 0)
(10.5277 11.6024 0)
(10.0323 11.6088 -1.0445e-18)
(9.53811 11.5912 3.34432e-19)
(9.04653 11.5497 -2.66604e-19)
(8.55864 11.4846 1.27003e-18)
(8.07559 11.3961 0)
(7.5986 11.2847 3.56829e-19)
(7.12885 11.1508 2.90946e-19)
(6.66757 10.9949 1.24592e-19)
(6.21577 10.8175 -7.42163e-20)
(5.77461 10.6192 -9.32974e-20)
(5.34514 10.4005 2.86192e-20)
(4.92824 10.1621 -9.09097e-22)
(4.52477 9.9048 1.02443e-19)
(4.13573 9.62934 0)
(3.76201 9.33668 0)
(3.40446 9.02767 8.01757e-20)
(3.06383 8.70322 9.67457e-20)
(2.74078 8.36427 2.0853e-19)
(2.43609 8.01176 2.38954e-19)
(2.15019 7.64681 0)
(1.8838 7.27031 2.97222e-19)
(1.63715 6.88369 3.28045e-19)
(1.41075 6.48802 0)
(1.20497 6.08474 -1.88403e-21)
(1.02034 5.67479 0)
(0.857089 5.25945 0)
(0.715497 4.83985 2.84789e-20)
(19.9174 0.433335 -1.02295e-19)
(19.9756 0.916486 2.00099e-19)
(20.0079 1.40266 -3.94556e-19)
(20.014 1.88989 -2.12086e-19)
(19.994 2.37661 0)
(19.9475 2.86164 -8.21448e-19)
(19.8743 3.34433 -8.15515e-19)
(19.7757 3.82308 0)
(19.6527 4.29756 3.36771e-20)
(19.5056 4.76574 -7.88093e-19)
(19.3345 5.22551 1.48827e-18)
(19.1398 5.67586 1.46503e-18)
(18.9219 6.11568 0)
(18.6814 6.54376 -7.13846e-19)
(18.4191 6.95887 -1.41765e-18)
(18.1358 7.35982 -6.99128e-19)
(17.8324 7.74573 2.0475e-18)
(17.5097 8.11572 -1.3156e-18)
(17.1685 8.46905 1.28005e-18)
(16.8101 8.80486 1.85814e-18)
(16.4354 9.12234 2.41254e-18)
(16.0455 9.42069 1.19246e-18)
(15.6414 9.69908 5.49122e-19)
(15.2242 9.9568 1.65922e-18)
(14.7949 10.1934 5.08068e-19)
(14.3545 10.4082 5.08471e-19)
(13.9044 10.6009 4.60716e-19)
(13.4458 10.7711 -1.34174e-18)
(12.9799 10.9184 8.31986e-19)
(12.5079 11.0426 7.76303e-19)
(12.0309 11.1434 -1.50641e-18)
(11.5502 11.2208 7.3004e-19)
(11.0672 11.2746 -6.35407e-19)
(10.583 11.3051 2.98341e-19)
(10.099 11.3119 2.88067e-19)
(9.61633 11.2953 2.33967e-19)
(9.13619 11.2552 -2.35496e-19)
(8.65965 11.192 -2.21737e-19)
(8.18783 11.1061 -5.07277e-19)
(7.72195 10.9979 -2.93929e-19)
(7.26317 10.8676 -4.59118e-19)
(6.81261 10.7159 -4.26344e-19)
(6.37142 10.5433 1.22712e-19)
(5.94066 10.3503 7.012e-21)
(5.52134 10.1374 -1.17676e-21)
(5.11438 9.90527 3.09674e-20)
(4.72048 9.65462 -2.64877e-19)
(4.34065 9.38627 5.73229e-20)
(3.97572 9.10117 0)
(3.62663 8.8001 0)
(3.29397 8.48388 1.47597e-19)
(2.97857 8.15361 6.39759e-22)
(2.68106 7.81009 -1.93681e-19)
(2.4019 7.45435 0)
(2.1417 7.08723 -2.40757e-19)
(1.90066 6.71016 0)
(1.67933 6.32426 0)
(1.47793 5.93081 -2.31525e-19)
(1.29726 5.53094 -8.24088e-20)
(1.13728 5.1258 8.56461e-20)
(0.998583 4.71657 -4.54513e-20)
(19.7679 0.503169 1.84353e-21)
(19.8208 0.973424 -1.72673e-19)
(19.8484 1.44629 5.06041e-19)
(19.8506 1.92022 3.35697e-19)
(19.8275 2.39402 -4.94473e-19)
(19.7791 2.86644 3.31188e-19)
(19.706 3.33558 -2.39183e-21)
(19.6083 3.7992 -6.41209e-19)
(19.486 4.25725 9.76446e-19)
(19.3403 4.70884 -1.2719e-18)
(19.1715 5.15292 1.19713e-18)
(18.9798 5.588 -1.27235e-18)
(18.7658 6.013 -6.11314e-19)
(18.5301 6.42688 0)
(18.2735 6.82829 6.29128e-19)
(17.9966 7.21601 5.37242e-19)
(17.7001 7.58932 0)
(17.3848 7.94724 1.05798e-18)
(17.0518 8.28908 0)
(16.7019 8.61408 -1.04628e-18)
(16.3364 8.92137 9.24272e-19)
(15.9562 9.21015 -3.99643e-20)
(15.5625 9.47954 -4.4706e-20)
(15.1561 9.72879 1.62066e-21)
(14.738 9.9575 -1.73911e-18)
(14.3092 10.1652 -7.90969e-19)
(13.8709 10.3514 1.54569e-18)
(13.4244 10.5159 1.42928e-18)
(12.9708 10.6582 -7.12614e-19)
(12.5114 10.7781 0)
(12.0472 10.8753 0)
(11.5793 10.9498 0)
(11.1091 11.0016 5.43169e-19)
(10.6379 11.0307 -1.90272e-18)
(10.167 11.0369 8.83084e-19)
(9.69737 11.0203 -4.21034e-19)
(9.23021 10.981 -6.73758e-19)
(8.76655 10.9191 6.32586e-19)
(8.30738 10.8353 2.10036e-20)
(7.85399 10.7297 -1.99283e-19)
(7.40747 10.6029 2.18562e-19)
(6.9689 10.4554 1.42044e-19)
(6.5395 10.2876 0)
(6.12029 10.1001 -3.95775e-20)
(5.71224 9.89342 0)
(5.31631 9.66789 7.62957e-20)
(4.93296 9.42446 -3.96879e-20)
(4.56322 9.16385 0)
(4.20774 8.88706 9.33424e-20)
(3.86782 8.59476 1.93675e-20)
(3.54375 8.28769 -2.45093e-19)
(3.23636 7.96697 1.43974e-19)
(2.94644 7.63338 9.48909e-20)
(2.6742 7.28791 -1.73785e-19)
(2.42053 6.9313 8.02921e-21)
(2.18502 6.56485 -1.05493e-19)
(1.96869 6.18977 -5.68586e-20)
(1.77144 5.80737 -1.26474e-19)
(1.5944 5.41873 3.35379e-19)
(1.43718 5.02497 -1.42664e-19)
(1.30089 4.62722 1.88935e-20)
(19.6127 0.554667 3.62636e-20)
(19.6609 1.01026 0)
(19.6846 1.46804 -5.65242e-19)
(19.6838 1.92682 0)
(19.6586 2.38528 2.81185e-19)
(19.6091 2.84207 8.22594e-19)
(19.5355 3.29578 5.39554e-19)
(19.438 3.74573 1.09395e-18)
(19.317 4.19015 9.50937e-21)
(19.1732 4.62813 -6.67411e-21)
(19.0072 5.05826 -5.88398e-20)
(18.819 5.47953 -5.20023e-19)
(18.6093 5.8909 5.02091e-19)
(18.3787 6.29144 -1.47199e-18)
(18.128 6.67993 9.98503e-19)
(17.8578 7.0551 -4.76891e-20)
(17.5686 7.41618 -9.05542e-19)
(17.2612 7.76228 -9.2745e-19)
(16.9365 8.09288 0)
(16.5955 8.40737 8.30495e-19)
(16.2395 8.70478 -3.70806e-20)
(15.8696 8.98434 -1.63345e-18)
(15.4866 9.24508 -5.62503e-21)
(15.0916 9.48611 -6.78177e-19)
(14.685 9.70724 2.06349e-18)
(14.2682 9.908 -3.41558e-20)
(13.8422 10.088 -6.58814e-19)
(13.4082 10.2472 -6.91262e-20)
(12.9676 10.3849 0)
(12.5214 10.501 0)
(12.0705 10.5948 0)
(11.616 10.6669 0)
(11.1592 10.717 0)
(10.7014 10.7455 5.28506e-20)
(10.2442 10.7517 -3.42105e-19)
(9.78817 10.7357 3.8597e-20)
(9.33458 10.6976 5.21838e-20)
(8.88435 10.6375 2.19897e-19)
(8.43825 10.5561 4.17594e-19)
(7.99772 10.4538 -5.20202e-19)
(7.56388 10.3309 3.05659e-19)
(7.13759 10.1881 -9.46312e-20)
(6.72029 10.0258 0)
(6.31298 9.84455 3.4487e-20)
(5.91653 9.64486 0)
(5.53215 9.42667 -3.96623e-20)
(5.15954 9.19122 7.61885e-20)
(4.80033 8.93913 -5.28848e-20)
(4.45454 8.67158 -6.68673e-20)
(4.12411 8.38895 1.00465e-19)
(3.80887 8.0919 1.87966e-20)
(3.50969 7.78171 1.51716e-20)
(3.22758 7.45892 -2.76979e-19)
(2.96243 7.12463 3.15904e-19)
(2.71546 6.77922 1.73021e-19)
(2.48553 6.4243 9.04856e-20)
(2.2744 6.06086 3.01225e-19)
(2.08096 5.69041 0)
(1.90749 5.31385 -2.30569e-19)
(1.75282 4.93242 6.12614e-20)
(1.61882 4.54698 0)
(19.4436 0.608318 0)
(19.4866 1.04861 0)
(19.5061 1.49102 2.44862e-19)
(19.5021 1.93411 -4.69065e-19)
(19.4745 2.37693 -2.41996e-19)
(19.4238 2.8182 -1.17493e-18)
(19.35 3.25624 4.53672e-19)
(19.2529 3.69004 -9.37838e-19)
(19.1331 4.11919 1.51352e-20)
(18.9916 4.54241 1.32923e-18)
(18.8288 4.95777 -1.77415e-18)
(18.6446 5.36439 0)
(18.4396 5.76117 0)
(18.2143 6.14789 1.67983e-18)
(17.97 6.52308 8.11873e-19)
(17.7072 6.88478 -1.64751e-18)
(17.4258 7.23288 2.35907e-18)
(17.1266 7.56645 7.5039e-19)
(16.8105 7.88514 -1.47099e-18)
(16.4787 8.18869 -7.38156e-19)
(16.1328 8.47563 6.81145e-19)
(15.7734 8.74558 -6.94692e-20)
(15.4019 8.99741 0)
(15.019 9.22956 1.27571e-18)
(14.6246 9.44263 -1.79995e-18)
(14.2203 9.63611 5.79926e-19)
(13.8072 9.8095 1.04385e-18)
(13.3863 9.96316 -2.5344e-18)
(12.9594 10.0959 4.95987e-19)
(12.527 10.2081 0)
(12.0906 10.2983 0)
(11.6499 10.368 0)
(11.2075 10.4163 3.44214e-19)
(10.7637 10.4445 9.74144e-19)
(10.3213 10.4508 -5.74585e-19)
(9.87976 10.4357 2.50677e-19)
(9.44065 10.3991 2.40115e-19)
(9.00496 10.3408 -4.27405e-19)
(8.57262 10.262 0)
(8.1456 10.1633 -2.40018e-19)
(7.72526 10.0444 1.24867e-19)
(7.31164 9.90647 1.38954e-20)
(6.90684 9.74995 9.63883e-21)
(6.51203 9.57528 2.97738e-20)
(6.12755 9.38335 -1.0438e-20)
(5.75583 9.17279 1.48351e-19)
(5.39432 8.94603 -6.3653e-20)
(5.04649 8.70287 2.1798e-19)
(4.71042 8.44547 0)
(4.3905 8.17344 0)
(4.08461 7.88705 -3.93628e-19)
(3.79379 7.58827 1.07114e-19)
(3.52045 7.27715 2.45929e-19)
(3.26247 6.95494 1.45414e-19)
(3.02333 6.62135 -4.58405e-19)
(2.79886 6.27859 -2.56686e-19)
(2.59349 5.92732 -9.4503e-20)
(2.40349 5.56973 -2.0705e-21)
(2.23431 5.20615 1.01283e-19)
(2.08177 4.83783 0)
(1.95055 4.46546 0)
(19.2554 0.659353 -2.46991e-20)
(19.2926 1.08327 0)
(19.3075 1.50949 0)
(19.2996 1.93625 2.07663e-19)
(19.2694 2.36249 0)
(19.2175 2.78725 7.99876e-19)
(19.1441 3.20884 3.94547e-19)
(19.0476 3.62563 -7.74881e-19)
(18.9286 4.03942 0)
(18.7896 4.44811 -7.86514e-19)
(18.6312 4.84713 4.30932e-20)
(18.4515 5.23831 0)
(18.2519 5.61935 0)
(18.0321 5.9914 -7.33408e-19)
(17.7943 6.35343 6.77355e-19)
(17.5402 6.70046 -7.01503e-19)
(17.2672 7.03488 -6.8399e-19)
(16.9767 7.35559 0)
(16.6699 7.66127 6.46476e-19)
(16.3476 7.95336 -1.17923e-18)
(16.0124 8.22892 -1.13944e-18)
(15.6644 8.48889 -1.17004e-18)
(15.3046 8.73204 -9.28865e-21)
(14.9355 8.95409 -9.66553e-19)
(14.5536 9.15859 1.02511e-18)
(14.162 9.34469 9.24304e-19)
(13.7629 9.51046 -9.38122e-19)
(13.3551 9.65858 5.85591e-20)
(12.9429 9.78561 9.99747e-22)
(12.5244 9.89471 -7.84893e-19)
(12.104 9.97985 0)
(11.6769 10.048 -6.26387e-19)
(11.2504 10.0936 1.20696e-18)
(10.8204 10.1227 -4.5427e-20)
(10.3948 10.1296 5.16952e-19)
(9.96903 10.1153 -4.2125e-19)
(9.54547 10.0807 3.58341e-19)
(9.12636 10.0237 2.57352e-19)
(8.7085 9.9478 -5.65912e-19)
(8.29551 9.85276 2.3819e-19)
(7.89032 9.73806 1.52874e-19)
(7.4892 9.60508 1.62566e-19)