/*--------------------------------*- C++ -*----------------------------------*\
| =========                 |                                                 |
| \\      /  F ield         | OpenFOAM: The Open Source CFD Toolbox           |
|  \\    /   O peration     | Version:  2.3.1                                 |
|   \\  /    A nd           | Web:      www.OpenFOAM.org                      |
|    \\/     M anipulation  |                                                 |
\*---------------------------------------------------------------------------*/
FoamFile
{
    version     2.0;
    format      ascii;
    class       volScalarField;
    location    "0.36";
    object      k;
}
// * * * * * * * * * * * * * * * * * * * * * * * * * * * * * * * * * * * * * //

dimensions      [0 2 -2 0 0 0 0];

internalField   nonuniform List<scalar> 
15166
(
1.0789
1.3236
1.70612
2.10799
2.41885
2.72899
2.95055
3.08319
3.12933
3.10679
3.02315
2.91165
1.07928
1.29494
1.7099
2.10017
2.41043
2.69943
2.90053
3.01642
3.05213
3.0247
2.94231
2.82201
1.08733
1.26335
1.69448
2.07811
2.38768
2.66007
2.84559
2.94887
2.9774
2.94659
2.86432
2.74076
1.09787
1.238
1.67285
2.04967
2.35641
2.6147
2.78787
2.88162
2.90506
2.87187
2.78887
2.66047
1.10928
1.2189
1.64971
2.01904
2.32091
2.56659
2.72936
2.81562
2.83529
2.80044
2.71696
2.58786
1.1216
1.20437
1.62621
1.98756
2.28326
2.51745
2.67123
2.7514
2.76817
2.73211
2.64818
2.51784
1.13487
1.19331
1.60295
1.95587
2.24445
2.46818
2.61407
2.68919
2.70365
2.66665
2.58199
2.44867
1.14888
1.18509
1.58047
1.92441
2.20528
2.41939
2.55826
2.6291
2.64169
2.604
2.51907
2.38643
1.16341
1.1792
1.5591
1.89363
2.16635
2.37152
2.50404
2.57119
2.58222
2.54407
2.45918
2.32734
1.1783
1.1752
1.53898
1.86371
2.12805
2.32485
2.45157
2.51545
2.52517
2.48677
2.40244
2.27318
1.19339
1.17274
1.52012
1.83476
2.09059
2.27954
2.40092
2.46186
2.47045
2.43205
2.34879
2.22305
1.20858
1.17149
1.50248
1.80685
2.05413
2.23568
2.35208
2.41035
2.41799
2.37985
2.29843
2.17853
1.22377
1.17124
1.48603
1.77995
2.01877
2.19329
2.30504
2.36084
2.36769
2.33004
2.25091
2.13693
1.2389
1.17182
1.47069
1.75409
1.98453
2.15237
2.25975
2.31327
2.31944
2.28239
2.20505
2.09151
1.25388
1.173
1.45637
1.72925
1.95143
2.11292
2.21616
2.26755
2.27316
2.23685
2.16168
2.05291
1.26867
1.17468
1.44298
1.70539
1.91947
2.07488
2.1742
2.22361
2.22873
2.19325
2.12033
2.01543
1.28321
1.17672
1.43043
1.68249
1.88864
2.03822
2.13382
2.18135
2.18607
2.15147
2.08075
1.97901
1.29748
1.17905
1.41868
1.66052
1.85893
2.00291
2.09495
2.1407
2.14508
2.1114
2.04279
1.94387
1.31143
1.18158
1.40762
1.63942
1.83026
1.96886
2.05752
2.10158
2.10567
2.07293
2.00647
1.91096
1.32503
1.18424
1.39721
1.61916
1.80264
1.93605
2.02145
2.06391
2.06775
2.03598
1.97163
1.87939
1.33827
1.18699
1.38737
1.5997
1.776
1.90442
1.98668
2.02761
2.03124
2.00041
1.93801
1.84787
1.35113
1.18976
1.37805
1.581
1.75032
1.8739
1.95316
1.99261
1.99605
1.96613
1.90549
1.81719
1.36358
1.19254
1.3692
1.56301
1.72555
1.84446
1.92083
1.95886
1.96212
1.93306
1.87397
1.7869
1.37562
1.19529
1.36077
1.5457
1.70166
1.81606
1.88963
1.9263
1.92938
1.90112
1.84342
1.75769
1.38723
1.19799
1.35272
1.52906
1.67861
1.78864
1.8595
1.89485
1.89776
1.87023
1.81384
1.72956
1.39839
1.20062
1.34501
1.51303
1.65637
1.76216
1.83041
1.86447
1.8672
1.84037
1.78521
1.70255
1.40914
1.20316
1.33761
1.49757
1.6349
1.73658
1.80229
1.83511
1.83764
1.81146
1.75758
1.6769
1.41944
1.20562
1.3305
1.48266
1.61416
1.71186
1.77511
1.80671
1.80905
1.78349
1.73092
1.65273
1.42928
1.20799
1.32364
1.46827
1.59412
1.68796
1.74882
1.77923
1.78137
1.75642
1.70519
1.62924
1.43869
1.21025
1.31702
1.45437
1.57475
1.66484
1.72338
1.75264
1.75457
1.73022
1.68027
1.60613
1.44764
1.21242
1.31059
1.44093
1.55601
1.64248
1.69876
1.72688
1.7286
1.70482
1.65615
1.58391
1.45614
1.21449
1.30436
1.42792
1.53789
1.62083
1.67491
1.70192
1.70343
1.68021
1.63274
1.56218
1.46418
1.21645
1.29831
1.41534
1.52035
1.59987
1.65181
1.67773
1.67903
1.65634
1.61006
1.54132
1.47181
1.21832
1.29243
1.40315
1.50337
1.57956
1.62942
1.65428
1.65536
1.63318
1.58806
1.52095
1.47895
1.22007
1.2867
1.39135
1.48692
1.55988
1.60772
1.63153
1.6324
1.61071
1.56672
1.50131
1.48568
1.22176
1.28112
1.37988
1.47097
1.54081
1.58667
1.60946
1.6101
1.5889
1.546
1.48215
1.49197
1.22333
1.27568
1.36876
1.45551
1.52232
1.56625
1.58803
1.58845
1.5677
1.5259
1.46391
1.49782
1.22482
1.27037
1.35795
1.44051
1.50437
1.54643
1.56722
1.56741
1.54711
1.50641
1.44632
1.50326
1.22624
1.26518
1.34744
1.42596
1.48696
1.52718
1.54701
1.54697
1.52712
1.48747
1.4289
1.50827
1.22758
1.26012
1.33724
1.41184
1.47006
1.5085
1.52737
1.52711
1.50769
1.46913
1.41257
1.51282
1.22885
1.25516
1.32731
1.39813
1.45364
1.49034
1.50828
1.50779
1.48877
1.45111
1.39488
1.51693
1.23002
1.2503
1.31765
1.38481
1.4377
1.4727
1.48972
1.489
1.47035
1.43344
1.37756
1.52061
1.2311
1.24556
1.30826
1.37187
1.42221
1.45556
1.47168
1.47071
1.4524
1.41625
1.36164
1.52386
1.23207
1.24091
1.29911
1.35929
1.40715
1.43889
1.45412
1.45291
1.43491
1.3995
1.3459
1.52669
1.2329
1.23637
1.29023
1.34706
1.39251
1.42267
1.43704
1.43558
1.41787
1.38319
1.33095
1.52911
1.2336
1.23193
1.28158
1.33516
1.37827
1.4069
1.42041
1.4187
1.40126
1.36728
1.31589
1.53113
1.2342
1.22759
1.27316
1.32356
1.36442
1.39156
1.40423
1.40226
1.38507
1.35181
1.30193
1.53275
1.23466
1.22335
1.26495
1.31228
1.35095
1.37662
1.38846
1.38623
1.36928
1.33673
1.28792
1.53399
1.235
1.21918
1.25696
1.30129
1.33784
1.36207
1.37309
1.37059
1.35388
1.32203
1.27465
1.53484
1.23525
1.21509
1.24916
1.29061
1.32507
1.34789
1.35811
1.35534
1.33884
1.30766
1.2612
1.53531
1.23542
1.21107
1.24155
1.2802
1.31263
1.33408
1.34351
1.34045
1.32415
1.29364
1.24839
1.53541
1.23551
1.20712
1.23412
1.27008
1.30051
1.32063
1.32927
1.32593
1.30982
1.27997
1.23595
1.53514
1.23552
1.20324
1.22688
1.26021
1.28872
1.30752
1.31538
1.31176
1.29583
1.26658
1.22328
1.53451
1.23547
1.19942
1.2198
1.25059
1.27722
1.29474
1.30184
1.29793
1.28217
1.25354
1.2115
1.53353
1.23534
1.19567
1.21289
1.24122
1.26602
1.28229
1.28863
1.28444
1.26883
1.24084
1.20014
1.5322
1.23513
1.19199
1.20614
1.23208
1.2551
1.27014
1.27575
1.27126
1.25582
1.22848
1.18917
1.53053
1.23484
1.18838
1.19955
1.22317
1.24446
1.2583
1.26318
1.25841
1.24311
1.2164
1.17811
1.52852
1.23451
1.18483
1.19311
1.21448
1.23408
1.24675
1.25093
1.24587
1.23072
1.20461
1.16737
1.52618
1.23409
1.18135
1.18682
1.206
1.22396
1.2355
1.23897
1.23363
1.21862
1.19303
1.15611
1.5235
1.23363
1.17794
1.18068
1.19773
1.21409
1.22452
1.2273
1.22168
1.20678
1.1817
1.14564
1.52049
1.2331
1.1746
1.17468
1.18966
1.20447
1.21381
1.21592
1.21001
1.19522
1.17065
1.13578
1.51717
1.23251
1.17132
1.16881
1.18178
1.19508
1.20336
1.2048
1.19861
1.18393
1.15989
1.12623
1.51353
1.23186
1.16811
1.16309
1.1741
1.18593
1.19316
1.19396
1.18748
1.1729
1.14937
1.11658
1.50956
1.23117
1.16497
1.15751
1.16661
1.17699
1.18322
1.18337
1.17661
1.16212
1.13909
1.10717
1.50528
1.23043
1.1619
1.15207
1.1593
1.16828
1.17352
1.17304
1.16601
1.1516
1.12902
1.09771
1.50069
1.22967
1.15891
1.14676
1.15217
1.15979
1.16405
1.16297
1.15565
1.14133
1.11917
1.0886
1.4958
1.22884
1.15599
1.14158
1.14522
1.1515
1.15483
1.15314
1.14555
1.13128
1.10952
1.07949
1.49059
1.22797
1.15315
1.13654
1.13844
1.14342
1.14582
1.14354
1.13568
1.12148
1.10009
1.0708
1.48508
1.22709
1.15038
1.13164
1.13183
1.13554
1.13704
1.13418
1.12606
1.1119
1.09087
1.06225
1.47928
1.22614
1.1477
1.12686
1.12539
1.12785
1.12847
1.12505
1.11666
1.10254
1.08186
1.05401
1.47319
1.22516
1.14509
1.12222
1.11912
1.12036
1.12012
1.11615
1.10749
1.09339
1.07304
1.0457
1.46679
1.22412
1.14255
1.1177
1.11301
1.11306
1.11198
1.10746
1.09853
1.08445
1.06441
1.03772
1.4601
1.22307
1.14009
1.11332
1.10707
1.10595
1.10404
1.09898
1.08979
1.07573
1.05599
1.02992
1.4531
1.22199
1.13774
1.10908
1.1013
1.09904
1.09631
1.09072
1.08126
1.06721
1.04775
1.02223
1.44581
1.22087
1.13544
1.10497
1.09568
1.0923
1.08878
1.08267
1.07294
1.05888
1.0397
1.01475
1.43826
1.2197
1.13323
1.101
1.09023
1.08574
1.08144
1.07481
1.06483
1.05076
1.03182
1.0072
1.43041
1.21847
1.13111
1.09716
1.08495
1.07937
1.0743
1.06717
1.05692
1.04283
1.0241
0.999856
1.42227
1.21722
1.12907
1.09346
1.07982
1.07317
1.06734
1.05971
1.04921
1.0351
1.01656
0.992591
1.41385
1.21597
1.12714
1.08989
1.07485
1.06715
1.06058
1.05246
1.0417
1.02755
1.00918
0.985562
1.40515
1.21467
1.12531
1.08648
1.07005
1.0613
1.054
1.0454
1.03438
1.02019
1.00196
0.978554
1.39617
1.21334
1.12355
1.08321
1.06541
1.05564
1.04761
1.03853
1.02725
1.013
0.994913
0.971876
1.38692
1.21196
1.12189
1.08007
1.06095
1.05015
1.0414
1.03185
1.0203
1.00598
0.988021
0.965394
1.37738
1.21054
1.12031
1.07709
1.05664
1.04484
1.03538
1.02536
1.01355
0.999159
0.981316
0.958983
1.36756
1.20909
1.11884
1.07425
1.05251
1.03972
1.02955
1.01907
1.00699
0.992521
0.974778
0.952622
1.35746
1.20761
1.11747
1.07157
1.04855
1.03477
1.02391
1.01296
1.00061
0.986054
0.968397
0.946536
1.34709
1.20608
1.1162
1.06905
1.04476
1.03
1.01844
1.00703
0.994412
0.979769
0.962183
0.940453
1.33646
1.20448
1.11502
1.06668
1.04115
1.02541
1.01316
1.00129
0.988398
0.973651
0.956119
0.934715
1.32554
1.20285
1.11394
1.06447
1.03771
1.02101
1.00807
0.995733
0.982573
0.967727
0.950252
0.929006
1.31435
1.2012
1.11297
1.06242
1.03446
1.01679
1.00316
0.990368
0.976933
0.961983
0.944553
0.923496
1.30288
1.19952
1.11211
1.06055
1.03139
1.01277
0.998443
0.985189
0.971476
0.956408
0.938985
0.91782
1.29113
1.19778
1.11135
1.05884
1.02851
1.00892
0.993915
0.980194
0.9662
0.951004
0.933604
0.912947
1.27911
1.196
1.11069
1.0573
1.02583
1.00529
0.989584
0.975399
0.961127
0.94582
0.928471
0.908071
1.26684
1.19413
1.11015
1.05595
1.02334
1.00185
0.985454
0.970799
0.956241
0.940801
0.923476
0.903309
1.25427
1.19224
1.1097
1.05477
1.02105
0.998616
0.981525
0.966396
0.951546
0.93597
0.91866
0.898594
1.24144
1.19027
1.10937
1.05378
1.01897
0.995592
0.9778
0.962194
0.947046
0.931324
0.914005
0.894017
1.22835
1.18822
1.10913
1.05297
1.01711
0.992782
0.974284
0.958196
0.942747
0.926879
0.90954
0.889509
1.21498
1.18612
1.10903
1.05236
1.01546
0.990192
0.970983
0.954407
0.938646
0.922611
0.905217
0.88524
1.20131
1.184
1.10902
1.05196
1.01404
0.98783
0.967902
0.950826
0.93475
0.918545
0.901098
0.881092
1.1874
1.18173
1.10915
1.05175
1.01286
0.9857
0.965046
0.947464
0.931062
0.914675
0.897151
0.877147
1.1732
1.17943
1.10937
1.05177
1.01192
0.983815
0.962426
0.944327
0.927592
0.911016
0.89342
0.873329
1.15872
1.17704
1.10971
1.05199
1.01122
0.982176
0.960041
0.941417
0.924331
0.907549
0.889856
0.869831
1.14396
1.17462
1.11018
1.05244
1.01079
0.9808
0.957909
0.938741
0.921296
0.904303
0.886512
0.866509
1.12892
1.17211
1.11075
1.05312
1.01063
0.979695
0.956041
0.936321
0.918511
0.901302
0.883414
0.863319
1.11362
1.16949
1.11144
1.05403
1.01074
0.978874
0.954442
0.934154
0.915964
0.898527
0.880536
0.860423
1.09803
1.16674
1.11225
1.05518
1.01114
0.978346
0.95312
0.932248
0.913664
0.895982
0.877879
0.857834
1.08217
1.16392
1.11318
1.05659
1.01184
0.978122
0.952088
0.930618
0.911624
0.893701
0.875491
0.855368
1.06603
1.16096
1.11422
1.05825
1.01285
0.978212
0.951364
0.929275
0.909848
0.891651
0.873286
0.85317
1.0496
1.15792
1.11538
1.06017
1.01419
0.978641
0.950961
0.928238
0.908362
0.889885
0.871362
0.851141
1.03289
1.15486
1.11666
1.06238
1.01587
0.979426
0.950902
0.927518
0.907178
0.888403
0.869706
0.849366
1.01589
1.15158
1.11808
1.06488
1.01791
0.980582
0.951202
0.927134
0.906302
0.8872
0.868283
0.847768
0.998606
1.14823
1.11963
1.06767
1.02034
0.982135
0.951884
0.92711
0.905767
0.886318
0.867187
0.846507
0.981029
1.14479
1.12129
1.07077
1.02315
0.9841
0.952967
0.927467
0.905586
0.88578
0.866433
0.845661
0.963182
1.14109
1.12307
1.07418
1.02638
0.986512
0.954478
0.928229
0.905796
0.88563
0.866091
0.845106
0.945039
1.13733
1.12499
1.07792
1.03004
0.989375
0.956438
0.929403
0.90638
0.885801
0.865962
0.844436
0.926603
1.13346
1.12699
1.082
1.03415
0.992725
0.958864
0.931011
0.907355
0.886316
0.866145
0.844273
0.90789
1.12935
1.12915
1.08643
1.03874
0.996586
0.961792
0.933093
0.90877
0.88726
0.86678
0.844631
0.888867
1.12517
1.13143
1.09124
1.04383
1.00101
0.965272
0.935693
0.910662
0.888633
0.867764
0.84529
0.869554
1.1207
1.13387
1.09643
1.04946
1.00603
0.96935
0.938857
0.913089
0.890518
0.869287
0.8466
0.849944
1.11608
1.13639
1.10203
1.05568
1.01169
0.974066
0.942629
0.916083
0.892947
0.871345
0.848487
0.830065
1.11138
1.13906
1.10805
1.0625
1.01803
0.979472
0.947063
0.919687
0.895953
0.873961
0.850713
0.809886
1.10642
1.14187
1.11451
1.06996
1.02511
0.985608
0.952185
0.92392
0.899482
0.876923
0.852873
0.789396
1.10122
1.14483
1.12145
1.07812
1.03298
0.992545
0.958061
0.92885
0.903656
0.880521
0.856046
0.768619
1.09576
1.14792
1.12888
1.08701
1.04171
1.00037
0.964793
0.934584
0.908603
0.884934
0.860165
0.747564
1.09026
1.15115
1.13684
1.09672
1.05137
1.00916
0.972449
0.941159
0.91429
0.88991
0.864567
0.726189
1.08436
1.15457
1.1454
1.1073
1.06208
1.01902
0.981131
0.948684
0.920839
0.895709
0.869687
0.704516
1.07821
1.15817
1.1546
1.11886
1.07393
1.03007
0.990952
0.957257
0.928315
0.902285
0.875569
0.682559
1.07201
1.16199
1.1645
1.13151
1.08707
1.04247
1.00208
0.967041
0.936898
0.90991
0.88248
0.660265
1.0654
1.16613
1.17524
1.14539
1.10168
1.05637
1.01467
0.97817
0.946706
0.918619
0.890133
0.637653
1.05861
1.17064
1.18695
1.16072
1.11795
1.072
1.02889
0.990776
0.957814
0.928499
0.899067
0.614664
1.05158
1.17567
1.19993
1.17773
1.13617
1.08959
1.04495
1.00502
0.970334
0.939558
0.908961
0.591301
1.04456
1.18163
1.2145
1.19686
1.15666
1.10943
1.06309
1.02114
0.984495
0.952138
0.920369
0.567447
1.03769
1.18908
1.23138
1.21863
1.17985
1.13185
1.08359
1.03929
1.00039
0.96615
0.932932
0.543037
1.03225
1.19922
1.25149
1.24367
1.20615
1.15709
1.10659
1.05964
1.01811
0.981619
0.946485
0.517943
1.03175
1.2153
1.27722
1.27327
1.23639
1.18587
1.13284
1.08276
1.03811
0.998831
0.961457
0.488407
1.03306
1.23021
1.30356
1.30152
1.26533
1.21364
1.15926
1.10612
1.05906
1.01693
0.97786
1.03882
0.00467718
0.346489
0.321012
0.319955
0.2883
0.278759
0.646757
0.829353
0.77646
0.566776
0.00777132
0.032556
3.01479
0.27607
0.00354913
2.82725
0.110403
0.107445
0.00348265
0.140236
0.17582
0.144496
0.0268687
1.05422
0.345585
0.15964
0.373776
0.603432
0.811372
0.536929
1.16659
0.00419854
0.557278
0.0310829
0.165365
0.387423
0.469749
0.392994
0.00817457
0.0702668
0.00337664
0.0715114
0.529757
0.268723
0.172791
0.0607253
0.0248026
0.271662
0.139688
0.163534
0.634502
0.263268
0.00321463
1.98491
0.00444425
0.0106445
0.00337359
0.470449
0.265448
0.155341
1.19132
0.0032091
0.0168547
0.183079
0.00452999
0.886558
0.252633
1.53198
0.687875
1.88114
0.0534721
0.383344
0.727223
0.0273322
0.00322996
0.796014
0.00309474
0.0700691
0.240993
0.103281
0.00310378
0.405918
0.295559
0.0163373
1.11711
0.882233
0.00319468
0.390175
0.238045
0.353694
0.652422
0.00319825
0.00392031
0.457117
0.00326153
0.361237
0.0128013
0.00317205
0.896824
1.10637
0.203053
0.00335264
0.00433808
0.00312132
0.515073
0.511476
0.689541
0.531807
0.00878424
0.0943488
0.00312701
0.202379
0.00372566
0.00318215
0.219605
0.0194973
0.21944
1.09139
0.175771
1.02211
0.029293
1.69723
0.19909
0.125448
1.29029
0.00405116
1.96491
0.0322998
0.00320012
0.231705
0.00323636
0.2333
0.00434293
0.162404
0.00514532
0.233556
0.594796
0.207848
0.00585126
0.0169966
0.145214
0.269706
0.0253138
0.174772
1.89448
0.299018
0.00454045
0.981315
0.374122
0.0634494
0.213736
0.00309217
0.114511
0.156115
0.0031472
0.248403
0.00320171
1.27782
0.00707903
0.0269994
0.00356846
0.127847
0.0132727
0.149345
0.0842529
0.984439
0.291983
0.335179
0.00307323
1.88542
0.75675
1.98969
0.0178905
0.00306004
0.573331
0.00311685
0.306172
0.137638
0.718185
1.00894
0.437315
0.0628132
0.371285
0.00338977
0.262614
0.00317783
0.00315335
0.175521
0.00318555
0.486623
0.00310657
0.936664
0.00475507
0.283979
0.296305
0.271651
0.164956
0.00312699
3.17145
1.01812
0.318353
0.414237
0.217106
0.324935
0.104796
0.0913766
0.228452
0.701715
0.216502
0.288412
0.898384
0.500526
0.396823
0.00315442
0.283617
0.0129527
0.426314
3.24815
0.210554
0.294922
1.01926
0.339133
0.00315679
0.003188
1.30664
1.11642
0.0032698
4.2017
0.0323242
0.312435
0.121175
0.00311772
0.945203
0.413118
0.253664
0.246178
1.07707
0.654976
0.322111
0.154474
0.161001
1.25339
1.68443
0.3751
0.281972
0.228097
0.00350504
1.39395
0.289957
0.649432
0.724963
0.378134
3.94874
0.236984
0.239901
0.209543
0.310404
0.576894
0.341937
0.215946
0.258217
0.0157303
0.0898009
0.683797
0.261934
0.920362
0.506878
0.360333
1.49059
0.287011
0.0501884
1.63699
0.209141
0.208395
1.69332
0.24259
0.26048
0.302105
0.203824
0.866109
0.239053
0.372782
0.331627
0.612804
0.273023
0.473399
0.208016
1.1189
0.128368
0.201898
1.66617
0.226339
0.224894
0.283187
0.919712
0.119405
0.206125
0.0676254
0.480603
0.183404
0.105646
1.36563
2.05449
0.153879
0.952356
0.323808
0.00318779
0.200917
0.165797
0.210774
0.289156
0.00315755
1.18438
0.320181
0.0672431
0.225821
0.760752
0.00315194
0.63855
0.0387528
0.578404
0.421581
4.92554
0.503462
0.756868
0.537832
0.00313875
0.00316285
0.28528
0.445898
0.00308236
0.516229
0.00311566
0.00316218
0.00322435
0.00311705
0.140091
0.00316366
0.00580445
1.03595
0.512234
0.003229
0.334867
0.00985522
0.195897
0.295594
1.28615
4.14167
0.479865
0.00302506
0.00323841
0.081793
0.133851
0.208974
0.00306463
0.0987067
0.316114
0.876899
0.376966
0.177838
0.273579
1.02427
4.08182
0.156624
0.324744
0.00364812
0.00318514
0.158543
0.257075
0.116144
0.173645
0.505957
2.74361
1.69288
0.143511
0.343312
1.01239
0.00319813
0.418875
0.751532
0.00526739
0.00316273
0.520332
3.82437
0.734871
0.00308143
0.0488118
0.154462
0.0256212
0.00319863
0.831764
0.381818
0.277624
0.282204
0.00374697
3.80983
0.00314274
0.235329
0.54355
0.00648409
0.0111212
0.960419
0.0087872
1.40734
0.766852
1.14921
0.6522
0.172378
0.681658
0.00313949
0.00309568
0.00317223
1.03663
0.0753184
1.26227
2.76114
0.164524
0.591965
0.00317894
0.0107797
0.274366
0.00308093
0.00317168
0.703247
0.00307457
0.227433
0.914733
0.372086
0.00303556
0.00748776
0.110388
0.115831
0.236936
0.144683
0.00310503
3.33954
0.835208
0.10926
0.0123765
0.327673
0.199637
0.00710981
0.279593
0.00689616
0.84419
0.00352739
0.250168
0.132766
0.00311622
1.30059
0.238331
0.32211
0.00929255
0.47027
0.143955
0.00516524
0.217512
0.490292
0.351691
1.10876
0.0240246
0.0507813
0.0115292
1.31007
0.674944
0.0628573
0.137286
0.162825
0.334847
0.18181
0.511235
1.10323
0.00304874
2.0464
0.913273
0.226488
0.00309807
0.267917
0.961013
0.0249657
0.436895
0.348967
0.256193
0.126498
0.177318
0.259411
0.00358562
0.0188976
0.873998
0.039085
0.00438275
0.922895
4.08307
0.0394906
0.200117
0.787252
0.0900796
0.491379
0.259483
0.842118
0.321091
0.29126
0.0032299
0.0849899
0.447845
0.382218
1.33076
0.214411
1.42137
0.937437
3.74776
0.886584
0.309897
0.00316687
1.26206
0.204216
0.800104
0.415395
0.163261
0.0842332
0.425423
0.00321486
0.297534
0.0031778
0.341195
0.420545
0.213273
0.175251
1.27013
0.241289
1.04103
0.64124
1.97484
0.0032176
0.12355
0.931531
2.44731
0.19589
0.716151
0.00361614
0.0281993
0.349418
1.85561
0.590985
0.00310238
0.0581214
0.00312257
0.0585723
0.351299
0.0375163
0.844878
0.142652
0.58975
0.155528
0.124879
1.22994
0.708945
0.00319514
0.00319639
0.257607
1.21556
0.275891
0.597341
0.440532
0.666005
0.266903
0.00303147
0.187024
0.253745
0.00485639
1.04755
0.265202
0.176566
0.27459
0.0127289
0.00303501
0.0236798
0.00313925
0.645793
0.816344
0.709631
0.636843
0.00319282
1.47594
0.0896855
0.742938
0.135113
1.72978
0.00852489
0.154368
0.00307487
0.497053
0.716548
0.315802
0.408791
0.00302351
1.29961
0.804383
0.510937
0.00311658
0.0704309
0.812249
0.61647
0.00609828
2.17277
0.00373775
0.803032
0.612897
0.00362908
0.131475
0.0875721
0.202103
0.00310541
0.00319887
1.15574
0.431866
0.322143
0.526639
0.0048775
0.127826
0.0980888
0.767375
0.208233
0.00395542
0.208342
1.20866
0.00307808
0.008202
0.286592
0.635393
1.11435
0.00315798
0.729394
0.221641
1.30656
0.0297979
0.151605
0.816424
0.00319966
0.199434
0.137631
0.376133
0.382418
0.723997
0.275472
1.21503
1.17508
0.282242
2.70629
0.00323625
0.00315031
1.49476
0.782044
0.00475568
0.00315674
0.472411
0.00320625
0.822152
0.540341
0.247577
0.00311694
0.806626
0.0521124
0.291676
1.21405
0.235664
0.148205
0.144828
1.3447
0.0031921
0.28516
0.979833
0.234804
0.55607
0.00672812
0.532372
0.262701
2.03154
0.00313012
0.148496
0.682083
0.305669
0.00332063
0.0951369
0.342462
0.439489
1.2676
0.059128
1.87366
0.406467
0.092627
0.404902
0.00313417
0.00736628
0.361851
0.00306786
0.175491
0.00316526
0.244727
0.0107665
0.837987
0.0032173
0.110418
0.494162
1.60819
0.355912
0.668435
0.163197
2.44516
0.0155838
0.0933294
0.570599
0.00309929
0.00320601
0.380274
0.155663
0.248871
0.390672
0.00328385
0.216272
0.218774
0.201048
0.491403
1.14614
0.200128
0.00319667
1.88278
2.42372
0.5069
0.00323832
0.0108165
2.09092
0.260708
0.00311969
1.29227
0.00310056
0.0803149
2.74206
0.00354715
0.291419
0.0031494
0.0564896
0.751399
0.00324368
0.00401552
0.00318308
0.00379883
0.0216481
3.80687
0.803509
0.0936921
0.242068
0.00316397
0.7636
0.00317337
0.247462
0.232239
0.024735
0.159528
0.0138844
1.14906
0.00318415
4.32457
0.217384
0.627516
0.351354
0.16278
0.00309673
0.193609
1.09594
0.129129
0.750399
0.884431
1.69127
0.349706
0.0418917
0.626351
0.0839025
0.00406373
0.106441
2.4697
1.14659
0.11972
0.00830222
0.297752
0.00375461
0.442734
0.870384
1.08471
0.840874
0.894671
0.0371392
0.00582852
0.326273
0.224781
0.0482857
0.26981
0.00316098
0.261368
1.96288
0.00330208
1.69443
0.781656
0.114367
0.10171
1.44849
0.0236206
0.101173
0.456477
0.310027
0.293497
0.00322322
0.672597
0.0761801
0.27134
0.383028
0.199089
0.222026
0.00685223
0.686891
0.00317336
0.00316052
0.228322
0.104733
0.159621
1.91584
0.00303792
1.13884
0.0644853
0.0577436
0.00338856
1.71975
0.362805
0.0897716
0.783042
0.0596678
1.15986
0.154323
0.00314248
1.19368
2.08644
0.00545879
0.00875092
0.203611
1.03601
0.0991459
1.32452
0.0351965
0.232974
0.103899
0.156676
0.679506
0.203302
0.00318775
1.17388
0.329104
0.0151329
0.196667
4.25141
0.276666
0.00317661
0.00307162
0.76263
0.18429
1.01184
0.00306588
0.71365
0.295319
0.408609
0.00376594
0.313939
0.775747
0.00537986
0.258827
0.00321614
1.1215
0.211299
0.345663
0.262577
0.00314603
0.00314547
0.345378
1.4036
0.385138
0.730948
0.00304068
0.0453373
0.00320805
0.00625575
1.15801
0.0740497
0.0968946
0.124563
0.325603
0.30564
0.356386
1.20823
0.00317279
0.304622
0.730521
0.245836
0.00319247
0.941459
0.00320527
0.00316622
0.0883716
0.212236
0.0251204
1.36289
0.203463
2.79851
0.00328477
0.0047584
0.0396724
0.90314
0.305267
0.962616
0.00316817
0.00314838
0.00628673
0.0083497
1.10344
0.804241
0.640775
0.123326
0.0447967
0.314835
0.164051
0.577975
0.27575
0.877911
0.312497
0.00308104
0.332777
0.00536569
0.194058
0.887437
0.184616
0.231342
0.132934
0.0038083
1.34161
0.51536
0.487389
0.314818
0.00315929
0.588595
0.760978
0.334109
0.00823016
0.911421
0.479721
0.836937
0.328642
0.33662
0.589481
0.119844
0.86137
0.257537
0.0977588
0.236284
0.00317882
1.21248
0.86248
0.00311807
0.68302
0.00477116
0.538195
0.204661
0.236761
0.26696
0.730634
0.950739
0.262173
0.131007
0.174881
0.219393
0.0125264
0.00310394
1.02629
0.0614657
0.936576
0.549758
0.223725
0.833
0.545124
0.00314504
0.27845
1.534
1.06087
0.226657
0.239423
0.569471
1.89441
0.190866
0.23418
0.0248911
0.0835692
0.547098
1.1942
0.111426
0.840531
0.819487
0.784059
0.239758
0.230764
0.424424
0.6912
0.00319155
1.93888
0.669871
0.204309
0.00319069
0.590763
0.473077
0.295022
0.0031741
0.591358
0.00317253
0.243069
0.09106
0.00319438
0.821725
0.347771
0.00310566
0.531779
0.373737
0.607491
0.25886
0.519306
0.279562
0.70377
0.169313
0.156857
0.00312923
0.00470513
0.343716
0.173188
0.0237321
0.00322947
0.355028
0.00603708
0.119487
0.118331
0.444702
0.207071
0.0574058
0.0941963
0.549701
1.63459
0.329788
4.11443
0.868532
0.00311841
0.540981
0.587826
1.67501
0.0031266
0.173084
0.00318786
0.00359058
0.277528
0.289043
0.0390609
0.00340761
0.804061
3.72316
0.00738408
0.00317643
0.129168
0.262012
0.0239698
0.0738852
3.84987
0.140206
0.00339004
0.00317745
0.967464
0.262903
0.135366
0.0591736
0.651765
1.13152
0.392116
0.247368
0.677869
0.00317322
0.501005
0.00315973
0.23112
0.27441
5.37743
0.178083
0.0896428
0.00382744
1.18371
0.0031945
0.00313399
0.00585161
0.272402
0.287534
0.975343
0.00314927
0.506428
0.00317242
0.692695
0.975472
0.00320493
0.725452
0.224326
0.00317308
0.00330163
0.0318818
1.10499
0.382853
0.0263923
0.00317438
0.00313256
0.848709
0.685772
0.327355
0.752455
0.117456
0.43861
0.00314892
0.0102988
0.382023
0.810697
0.757589
0.00886453
0.00317629
0.398086
0.0031974
0.203702
0.805767
0.35298
0.0430616
0.200908
0.505161
0.15678
0.00316972
0.512359
1.33064
0.648236
0.00643217
0.0305629
0.688903
3.69128
0.0547208
0.37293
0.00311026
0.00308689
0.00321444
0.0187523
0.401943
1.07365
0.0105207
0.220977
0.632636
1.23436
0.206026
0.0196826
0.00795648
0.00757121
0.158024
0.171498
0.237053
0.00322348
1.34238
0.00314327
0.0136342
0.84243
0.851377
0.0363681
0.371918
0.46713
0.00409806
0.130151
0.254682
0.0031548
0.00378037
1.12166
0.00365543
0.0032248
0.707259
0.23563
2.09293
0.209088
2.41119
0.0035597
0.0031146
3.24347
0.296196
0.224769
0.497644
0.0602695
0.232902
0.196105
1.02114
0.813066
0.588393
0.582132
0.233377
0.111061
0.321879
0.728389
0.0146289
0.35149
0.00392155
0.439626
0.366357
0.106838
0.383389
0.188329
0.412592
0.207191
0.262404
1.10969
0.4599
0.215836
0.317537
0.709296
0.325251
0.00421109
0.00315953
0.110812
2.22525
0.00316167
1.78643
0.00312457
0.00988294
0.340298
0.221544
0.818975
0.68009
0.902758
1.13803
0.521205
0.38657
0.00316711
0.290706
1.05639
0.00323919
1.24567
0.00713437
1.70915
0.940635
1.13379
0.27428
0.206291
0.283106
0.0917117
0.284684
1.23412
0.360701
0.779005
0.169565
0.203163
0.0852382
0.231803
0.953875
0.00954049
0.664742
0.00319427
0.00393235
0.300161
1.51599
0.338382
0.273978
0.164127
0.110471
0.121459
0.00346908
0.340986
0.00346716
0.705834
0.00341619
0.0579569
0.943258
0.171525
0.305654
0.334056
0.318256
0.00623278
0.00321465
0.0990137
0.266943
0.114581
0.517197
0.0424218
0.366104
0.239471
0.374667
0.791628
0.00359328
0.00314781
1.68651
0.226194
0.17175
0.809378
0.686832
0.81613
0.0098648
1.68277
0.336002
0.213191
0.00347713
0.196506
0.403605
0.205518
0.207311
0.265942
0.00323022
0.47189
0.00313405
0.628177
0.010662
0.439842
0.117818
0.40855
0.00324326
6.54057
0.00319251
1.50826
0.0255635
0.00317509
0.0145634
0.275024
0.00317079
0.00318045
0.395698
0.0327225
0.327515
0.0568863
0.00332623
0.21923
0.1862
0.445197
0.00334065
0.224013
0.189802
1.35608
0.7057
0.394742
0.415964
0.215742
0.305845
0.778482
0.832034
0.21128
0.00322413
0.144647
0.362303
0.306418
0.00471558
0.00853782
0.234585
1.57375
0.00318406
0.205767
1.23349
0.00305227
0.848087
0.934217
0.357173
0.594852
0.795287
0.259122
0.129806
2.58751
0.410587
0.883154
0.82025
0.222555
0.10725
0.00316629
0.420603
0.00586976
0.00321787
0.00313419
0.300631
0.00316628
0.00373304
0.536503
4.05617
0.406255
0.211838
0.832285
0.239512
0.00318213
0.166047
1.14379
0.0252234
0.164049
1.01724
0.313223
0.125301
0.0311511
0.00314368
0.0031681
0.0272512
0.0448093
0.303116
0.300252
1.23427
0.267548
0.268772
0.003954
0.50318
0.213844
0.0032118
0.342712
3.37487
0.00320825
0.361821
1.01656
0.737757
0.656315
0.189492
1.10095
0.00356205
0.209799
0.00331845
0.00633232
0.00320971
0.833322
0.567331
0.0739986
0.00319328
0.00307312
1.11318
0.386735
0.2886
0.23557
0.353707
0.435281
0.305975
0.349005
0.350283
0.0031772
0.150888
0.123295
0.136053
0.385162
1.05743
0.765965
0.591024
0.363465
1.11428
0.826516
0.96073
0.416306
0.879855
0.0645694
0.823696
0.393273
0.0280562
1.01228
0.854248
0.44616
0.00311423
0.00320084
0.00360975
0.00444052
0.47248
0.00304687
0.494446
0.165197
0.996212
0.765355
0.00317131
0.473173
0.283501
0.186965
0.275884
0.390277
0.551596
0.00326503
0.00319927
0.00909926
0.100335
0.00313244
0.637606
0.267277
0.252159
0.758642
0.513455
0.441567
0.53218
0.00316787
0.319131
0.667643
0.0038131
0.0787846
0.409482
0.314972
0.536181
0.193144
0.00325571
0.375859
0.358738
0.00385118
0.0204604
0.00315787
0.178925
0.00440456
0.143578
1.2855
0.111469
0.0733811
0.99992
1.81219
0.00326906
0.627249
0.003056
0.224824
0.346957
0.248075
0.482643
0.690868
0.675436
0.802022
1.22135
0.745044
0.00317861
0.00314517
0.0530769
0.101207
0.605018
0.172156
0.00319347
1.5858
0.253309
0.00824548
0.786768
0.0585761
0.00815801
0.0402939
0.996053
0.0064626
0.00319482
0.258659
0.206003
0.639501
0.117483
0.226347
0.202762
0.00321365
0.29121
0.0901185
0.0599254
0.00337525
0.202818
0.532958
0.17346
1.44707
1.33311
0.316517
0.41272
0.00316337
0.359899
0.00319479
2.72687
0.0103196
0.430633
0.0940745
0.83879
0.0163399
0.00932796
0.24737
0.307076
1.30225
0.0035641
0.211565
0.482375
0.609274
0.185265
0.999168
0.120428
0.00343442
0.00320506
0.478414
0.634268
1.06211
0.288857
0.0846892
0.530404
0.328679
0.817259
0.0459106
0.00316912
0.00318277
0.122003
0.707256
0.688606
0.990667
0.00353283
0.0109483
0.167452
0.452655
0.268759
0.757553
0.350131
0.877567
0.00319888
0.00320929
1.13468
0.275244
0.88371
2.87566
0.360252
0.0245967
1.40932
0.00318379
1.02312
0.0276542
0.0307522
0.00317105
0.0416983
0.0843937
0.835742
0.792675
0.00322673
0.758325
0.00315992
0.601267
1.56362
0.00314504
0.156964
0.00322657
0.259281
0.127314
0.174415
0.00308779
0.262072
0.211794
0.257239
1.02184
0.169676
1.22271
0.216787
0.831521
0.237585
1.11571
0.636363
0.00384113
0.00320836
0.375572
0.194641
0.821531
0.00317725
2.10894
0.00315893
0.00477988
0.037887
0.00316009
1.14117
0.972371
0.00324379
0.664131
0.256085
0.102329
0.707865
0.00607935
0.00312905
0.423237
0.384898
0.00974784
0.774846
6.66288
1.35607
0.154829
1.19522
0.104139
0.00318524
0.00368696
0.0351171
0.136936
0.84268
1.08793
1.31451
0.794019
0.531641
0.508154
0.256887
0.649858
1.9409
0.590463
0.0429707
0.0781617
0.277823
1.50427
0.00338185
0.193901
0.654197
0.33333
0.00317274
0.424228
0.00305974
0.0138452
0.843611
0.00338738
0.298273
1.84854
0.00318984
0.352493
0.00351417
0.337086
0.0140863
0.00406618
0.765422
0.255432
0.913897
0.398797
1.11873
1.64619
0.48977
0.175632
0.750667
0.38785
0.00311568