/*--------------------------------*- C++ -*----------------------------------*\
| =========                 |                                                 |
| \\      /  F ield         | OpenFOAM: The Open Source CFD Toolbox           |
|  \\    /   O peration     | Version:  2.3.1                                 |
|   \\  /    A nd           | Web:      www.OpenFOAM.org                      |
|    \\/     M anipulation  |                                                 |
\*---------------------------------------------------------------------------*/
FoamFile
{
    version     2.0;
    format      ascii;
    class       volVectorField;
    location    "0.36";
    object      U;
}
// * * * * * * * * * * * * * * * * * * * * * * * * * * * * * * * * * * * * * //

dimensions      [0 1 -1 0 0 0 0];

internalField   nonuniform List<vector> 
15166
(
(5.9753 0.560007 3.1863e-19)
(7.18788 1.03453 1.59625e-18)
(8.26993 0.902253 -8.93021e-19)
(9.30174 0.956266 8.00848e-19)
(10.0965 1.0201 8.23184e-19)
(10.8729 1.07483 4.33896e-19)
(11.5266 1.17319 -8.58872e-19)
(12.0685 1.23889 8.32391e-19)
(12.4636 1.33316 -4.22263e-19)
(12.7704 1.39259 1.67043e-18)
(12.9961 1.44801 -1.22693e-18)
(13.1497 1.50626 1.22109e-18)
(6.6675 1.02648 4.88412e-19)
(7.60337 1.42517 5.24383e-20)
(8.55593 1.20949 2.74666e-20)
(9.47748 1.22951 4.55684e-19)
(10.2377 1.24935 -3.95612e-19)
(10.9652 1.27577 0)
(11.5822 1.33732 4.24711e-19)
(12.0876 1.38318 1.4457e-21)
(12.4659 1.44355 4.18037e-19)
(12.7593 1.48531 -8.42847e-19)
(12.9755 1.52531 1.65568e-18)
(13.1333 1.5642 -1.23356e-18)
(7.21012 1.25762 -4.6277e-19)
(8.0388 1.56849 -2.47551e-18)
(8.90034 1.37654 4.87693e-19)
(9.72269 1.41057 -9.24488e-19)
(10.4317 1.41721 -1.66e-20)
(11.1025 1.43282 8.83349e-19)
(11.6751 1.47235 -1.26868e-18)
(12.1416 1.50319 -4.35425e-19)
(12.4967 1.54134 8.31096e-19)
(12.7717 1.56867 5.99888e-21)
(12.9757 1.59487 -1.23719e-18)
(13.1291 1.61962 1.62196e-18)
(7.51632 1.37436 0)
(8.35162 1.62688 -1.08387e-18)
(9.18209 1.47828 2.54199e-18)
(9.94752 1.52648 -1.44397e-18)
(10.6203 1.53136 9.2457e-19)
(11.2456 1.54609 1.36484e-18)
(11.7793 1.57471 -4.23641e-19)
(12.2123 1.59668 4.3544e-19)
(12.5448 1.62096 -8.51042e-19)
(12.8015 1.63769 8.40763e-19)
(12.994 1.65258 4.17192e-19)
(13.1427 1.6657 8.27003e-19)
(7.72764 1.44791 -6.2513e-19)
(8.59325 1.6626 -5.79723e-19)
(9.40831 1.55344 -1.57404e-18)
(10.1396 1.60723 1.48489e-18)
(10.7883 1.61247 -4.70375e-19)
(11.3804 1.6286 -4.55715e-19)
(11.8831 1.65139 -4.445e-19)
(12.289 1.668 4.50863e-19)
(12.602 1.68359 -4.29545e-19)
(12.8427 1.69304 -4.23197e-19)
(13.0246 1.7004 -1.26243e-18)
(13.1664 1.70676 -4.66504e-21)
(7.91533 1.49935 1.23888e-18)
(8.81014 1.68514 1.17455e-18)
(9.60862 1.60974 -1.09849e-18)
(10.3132 1.66488 2.07453e-18)
(10.942 1.67171 -1.98309e-18)
(11.5072 1.6894 9.49601e-19)
(11.9844 1.70855 0)
(12.368 1.72158 9.04641e-19)
(12.6639 1.73145 -1.76183e-18)
(12.8908 1.73578 8.61281e-19)
(13.063 1.73771 0)
(13.1977 1.73882 1.25554e-18)
(8.08813 1.53372 -6.74113e-19)
(9.01131 1.69544 6.20471e-19)
(9.79345 1.6487 0)
(10.4757 1.70368 0)
(11.086 1.71333 5.18763e-19)
(11.6279 1.73264 4.9749e-19)
(12.0831 1.74956 -9.50603e-19)
(12.4476 1.76016 1.38354e-18)
(12.7286 1.76615 4.53973e-19)
(12.9436 1.76662 0)
(13.1074 1.7641 4.35439e-19)
(13.2369 1.76094 0)
(8.24272 1.55432 -1.36213e-18)
(9.19461 1.69602 1.25495e-18)
(9.96291 1.67327 5.74425e-19)
(10.6269 1.7272 5.61565e-19)
(11.2207 1.74019 -2.61761e-18)
(11.7424 1.76103 5.09374e-19)
(12.1787 1.77675 0)
(12.5266 1.78585 -4.65524e-19)
(12.7947 1.7893 4.64655e-19)
(12.9994 1.78714 2.76154e-21)
(13.1557 1.78166 -8.70608e-19)
(13.2789 1.77589 8.5873e-19)
(8.38029 1.56409 1.40163e-18)
(9.36053 1.68935 -1.29035e-18)
(10.1175 1.68665 5.89802e-19)
(10.7667 1.73888 -1.68969e-18)
(11.3459 1.75514 2.15524e-18)
(11.8503 1.77722 -2.06375e-18)
(12.2702 1.79237 9.93572e-19)
(12.604 1.80059 0)
(12.861 1.80246 4.72624e-19)
(13.0568 1.79859 0)
(13.2065 1.79106 9.00968e-19)
(13.3242 1.78283 -4.36854e-19)
(8.504 1.56536 1.44131e-18)
(9.5117 1.67715 0)
(10.2591 1.69125 6.22903e-19)
(10.8961 1.74137 5.87774e-19)
(11.4622 1.76055 5.58376e-19)
(11.9517 1.78353 5.34101e-19)
(12.3574 1.79841 0)
(12.6791 1.80616 0)
(12.9264 1.80706 -1.42673e-18)
(13.1146 1.8021 2.33006e-18)
(13.2585 1.79328 -9.02037e-19)
(13.3712 1.78489 -1.33918e-18)
(8.61658 1.55992 1.4707e-18)
(9.65065 1.6606 -2.01359e-18)
(10.3899 1.6887 1.89328e-18)
(11.0163 1.7365 -1.77264e-18)
(11.5706 1.75818 -5.564e-19)
(12.0469 1.78171 -5.32784e-19)
(12.4403 1.79649 1.03563e-18)
(12.7514 1.80398 -1.0037e-18)
(12.9904 1.80434 -1.4625e-18)
(13.1721 1.79873 -4.6731e-19)
(13.311 1.7888 1.8558e-18)
(13.4188 1.77903 -8.9352e-19)
(8.71974 1.54893 -1.50671e-18)
(9.77907 1.64035 -2.04906e-18)
(10.5115 1.68013 -3.17982e-19)
(11.1284 1.72551 1.21173e-18)
(11.6718 1.74928 8.5648e-19)
(12.1365 1.77309 -2.19925e-18)
(12.519 1.78785 2.1146e-18)
(12.8209 1.79523 -3.8565e-21)
(13.0527 1.79538 -1.49038e-18)
(13.2286 1.78965 9.65581e-19)
(13.3628 1.77956 -4.66155e-19)
(13.4659 1.76895 9.05093e-19)
(8.81459 1.53335 -1.14786e-18)
(9.89811 1.61699 -3.53434e-19)
(10.6247 1.66646 3.22439e-19)
(11.2332 1.70939 0)
(11.7667 1.73484 2.89538e-19)
(12.221 1.75872 -2.82652e-19)
(12.5937 1.77348 0)
(12.8875 1.78081 0)
(13.1128 1.78091 2.54084e-19)
(13.2833 1.77526 0)
(13.4124 1.76558 0)
(13.5097 1.75509 -9.15517e-19)
(8.90216 1.5139 -3.8671e-19)
(10.0089 1.59094 3.51786e-19)
(10.7307 1.64843 0)
(11.3313 1.68891 0)
(11.8557 1.71568 1.18711e-18)
(12.3006 1.73942 -8.6029e-19)
(12.6646 1.75413 1.0919e-18)
(12.9512 1.76137 -1.06032e-18)
(13.1709 1.76128 7.67619e-19)
(13.337 1.75517 -5.67675e-21)
(13.4626 1.74464 -1.93783e-18)
(13.5571 1.73695 1.17896e-18)
(8.98316 1.49115 -1.58926e-18)
(10.1122 1.56251 0)
(10.83 1.6266 1.34256e-18)
(11.4236 1.6647 -1.59581e-18)
(11.9394 1.69244 0)
(12.3758 1.7159 2.91769e-19)
(12.7321 1.73054 1.10899e-18)
(13.0123 1.73774 -2.41887e-18)
(13.227 1.73778 2.08131e-18)
(13.3892 1.73203 -1.01415e-18)
(13.5117 1.72153 9.80969e-19)
(13.6032 1.70825 -1.19439e-18)
(9.05827 1.46559 3.47941e-21)
(10.2088 1.532 7.35306e-19)
(10.9233 1.60148 0)
(11.5103 1.63725 3.19593e-19)
(12.0183 1.6657 0)
(12.4468 1.68877 8.79387e-19)
(12.7961 1.70332 -7.81815e-21)
(13.0707 1.7105 -8.23702e-19)
(13.2809 1.71067 0)
(13.4396 1.70524 -2.58231e-19)
(13.5586 1.69519 2.51192e-19)
(13.6473 1.68055 0)
(9.12808 1.43761 4.02195e-19)
(10.2992 1.49963 -1.11903e-18)
(11.0111 1.57348 1.03844e-18)
(11.592 1.60698 -4.57517e-21)
(12.0926 1.63587 3.09e-19)
(12.514 1.65847 -2.97721e-19)
(12.857 1.67289 0)
(13.1265 1.68003 0)
(13.3327 1.6803 1.06718e-18)
(13.4881 1.67508 -7.85731e-19)
(13.6041 1.66555 -5.05841e-19)
(13.6895 1.65193 -2.45482e-19)
(9.19296 1.40749 4.11263e-19)
(10.384 1.46553 3.72594e-19)
(11.094 1.54288 -3.47582e-19)
(11.6691 1.57421 6.59226e-19)
(12.1629 1.60334 -1.57282e-18)
(12.5777 1.62541 3.06189e-19)
(12.9149 1.63966 0)
(13.1797 1.64677 5.58203e-19)
(13.3824 1.64715 -5.44942e-19)
(13.535 1.64215 -7.90197e-19)
(13.6485 1.63306 2.5859e-19)
(13.7315 1.62064 7.43597e-19)
(9.25336 1.3755 0)
(10.4638 1.42987 0)
(11.1721 1.51 0)
(11.7419 1.53922 3.36951e-19)
(12.2292 1.5684 0)
(12.6379 1.58988 6.08443e-19)
(12.9698 1.60395 -8.85885e-19)
(13.2305 1.61102 0)
(13.4299 1.6116 -5.475e-19)
(13.58 1.60693 5.32615e-19)
(13.6913 1.59827 0)
(13.7724 1.58613 0)
(9.30964 1.34188 2.12167e-18)
(10.5386 1.39278 -1.53764e-18)
(11.246 1.47507 7.18337e-19)
(11.8108 1.50224 -1.01019e-18)
(12.2919 1.53132 1.28985e-18)
(12.695 1.55217 -9.25033e-19)
(13.022 1.56601 8.92663e-19)
(13.2788 1.57304 2.83051e-19)
(13.4753 1.57383 -1.11281e-18)
(13.6229 1.56957 8.11018e-19)
(13.7321 1.56153 0)
(13.8113 1.54906 0)
(9.36207 1.30678 -1.71662e-18)
(10.6091 1.35437 0)
(11.3159 1.43828 0)
(11.8758 1.46348 -6.81058e-19)
(12.3513 1.49231 6.54408e-19)
(12.7491 1.51247 -9.32614e-19)
(13.0716 1.52605 5.11712e-21)
(13.3248 1.533 8.72191e-19)
(13.5186 1.53394 5.60351e-19)
(13.664 1.52997 -5.4884e-19)
(13.7709 1.52244 -2.6703e-19)
(13.848 1.50967 0)
(9.41079 1.27041 -1.29937e-18)
(10.6754 1.31477 1.18123e-18)
(11.3819 1.39983 0)
(11.9375 1.42308 -6.87569e-19)
(12.4075 1.45154 9.91997e-19)
(12.8003 1.471 0)
(13.1187 1.48426 0)
(13.3687 1.49108 2.9519e-19)
(13.56 1.49206 5.66337e-19)
(13.7034 1.48819 -5.54841e-19)
(13.8088 1.48082 5.3697e-19)
(13.8847 1.46986 0)
(9.4563 1.23278 -4.25592e-21)
(10.7379 1.27391 -1.18756e-18)
(11.4445 1.35982 0)
(11.9957 1.3812 1.04397e-18)
(12.4606 1.4092 -9.97792e-19)
(12.8489 1.42792 3.20398e-19)
(13.1634 1.44084 3.08543e-19)
(13.4104 1.44753 -8.85575e-19)
(13.5996 1.44862 5.77358e-19)
(13.7413 1.44504 -2.80429e-19)
(13.8453 1.43807 2.68729e-21)
(13.9201 1.42829 0)
(9.4981 1.19397 -8.79493e-19)
(10.7965 1.23195 8.01411e-19)
(11.5036 1.31843 0)
(12.0509 1.33797 -3.4948e-19)
(12.511 1.36543 0)
(12.8949 1.38339 -3.20005e-19)
(13.2059 1.39597 3.0922e-21)
(13.4502 1.40252 3.00918e-19)
(13.6373 1.40373 -2.91584e-19)
(13.7774 1.40037 -2.69439e-21)
(13.8803 1.3936 -2.53361e-21)
(13.9542 1.38504 -1.07107e-18)
(9.53685 1.15445 -4.47867e-19)
(10.8516 1.18929 -8.01794e-19)
(11.5595 1.27586 7.51553e-19)
(12.1031 1.29354 3.55855e-19)
(12.5586 1.32039 0)
(12.9385 1.33759 3.25968e-19)
(13.2461 1.3498 -6.25247e-19)
(13.4879 1.3562 -5.98876e-19)
(13.6732 1.35749 8.80198e-19)
(13.8119 1.35439 -2.58262e-21)
(13.9137 1.34785 -2.47537e-21)
(13.9868 1.33974 2.68926e-19)
(9.57309 1.11403 4.42802e-19)
(10.9036 1.14561 -8.14281e-19)
(11.6124 1.23211 -3.79323e-19)
(12.1525 1.24801 -3.55214e-19)
(12.6037 1.27419 -3.42309e-19)
(12.9797 1.29061 3.25698e-19)
(13.2843 1.30244 -1.2642e-18)
(13.5238 1.30868 2.9221e-21)
(13.7073 1.31004 0)
(13.8448 1.30718 8.572e-19)
(13.9458 1.30087 -2.83073e-19)
(14.0184 1.29374 -2.71721e-19)
(9.60639 1.07274 -4.54831e-19)
(10.9523 1.10104 0)
(11.6624 1.1873 3.14601e-21)
(12.1992 1.20144 3.61042e-19)
(12.6463 1.22692 6.86626e-19)
(13.0187 1.24256 3.25323e-19)
(13.3203 1.25399 -1.27423e-18)
(13.5577 1.26007 3.11943e-19)
(13.7397 1.26154 8.98215e-19)
(13.8761 1.25901 0)
(13.9763 1.25309 0)
(14.0485 1.24583 0)
(9.6367 1.0306 1.82501e-18)
(10.9979 1.05562 -8.19605e-19)
(11.7096 1.14154 7.71177e-19)
(12.2433 1.15395 -3.60474e-19)
(12.6865 1.17867 6.9727e-19)
(13.0555 1.19352 9.92051e-19)
(13.3544 1.20455 -9.6224e-19)
(13.5898 1.21045 5.9395e-21)
(13.7703 1.21197 1.20413e-18)
(13.9057 1.2097 -8.79613e-19)
(14.005 1.20427 2.84926e-19)
(14.0764 1.19783 -5.44804e-19)
(9.6644 0.987982 -4.57633e-19)
(11.0406 1.00967 -4.15139e-19)
(11.754 1.09494 -3.83964e-19)
(12.2849 1.10558 -7.25578e-19)
(12.7244 1.12952 -3.40704e-19)
(13.0902 1.14358 3.36259e-19)
(13.3865 1.15418 3.18395e-19)
(13.6201 1.15988 -9.35335e-19)
(13.7993 1.16141 3.06859e-19)
(13.9338 1.15928 5.88215e-19)
(14.0325 1.15403 -2.85035e-19)
(14.1032 1.14918 -2.79657e-19)
(9.68957 0.944784 -9.20361e-19)
(11.0805 0.963111 1.66899e-18)
(11.7959 1.04759 0)
(12.3242 1.05642 0)
(12.7601 1.07956 0)
(13.1228 1.09282 6.73315e-19)
(13.4168 1.10297 6.49694e-19)
(13.6486 1.10848 -3.13228e-19)
(13.8267 1.11004 3.05989e-19)
(13.9604 1.10814 2.05603e-21)
(14.0586 1.10312 -5.73474e-19)
(14.1289 1.09858 5.60744e-19)
(9.71264 0.901246 9.30879e-19)
(11.1179 0.916024 -2.07141e-19)
(11.8353 0.999413 -1.9572e-19)
(12.3611 1.00652 0)
(12.7937 1.02885 0)
(13.1535 1.04129 -3.37615e-19)
(13.4453 1.05101 3.24961e-19)
(13.6755 1.05631 -6.36038e-19)
(13.8525 1.05791 3.0503e-19)
(13.9855 1.05623 -8.97112e-19)
(14.0833 1.05149 0)
(14.1533 1.0475 -2.81482e-19)
(9.73308 0.857197 -1.8683e-18)
(11.1526 0.868235 6.36549e-19)
(11.8724 0.950427 1.9551e-19)
(12.3958 0.955899 -5.52402e-19)
(12.8253 0.977419 7.11901e-19)
(13.1822 0.989069 0)
(13.4719 0.998341 6.54793e-19)
(13.7007 1.00345 -6.40101e-19)
(13.8768 1.00507 0)
(14.0091 1.00364 0)
(14.1063 0.999268 0)
(14.176 0.99471 5.60379e-19)
(9.75117 0.813151 0)
(11.1846 0.8203 0)
(11.9069 0.900856 -3.92639e-19)
(12.4283 0.904658 1.69488e-21)
(12.8548 0.925359 0)
(13.2091 0.936219 -6.82155e-19)
(13.4968 0.94505 1.48953e-18)
(13.7243 0.949931 -4.83324e-19)
(13.8995 0.951548 -6.18751e-19)
(14.0312 0.950252 1.57688e-19)
(14.1281 0.946148 6.0496e-21)
(14.1973 0.941884 5.77252e-19)
(9.7672 0.768709 4.71042e-19)
(11.2142 0.771722 -2.14285e-19)
(11.9391 0.850653 1.98707e-19)
(12.4586 0.852878 -1.8621e-19)
(12.8823 0.872738 8.95688e-19)
(13.2342 0.882804 -1.73379e-19)
(13.52 0.89119 -4.97032e-19)
(13.7462 0.895861 -3.19024e-19)
(13.9207 0.897488 3.14331e-19)
(14.052 0.896392 -3.04065e-19)
(14.1486 0.892673 1.48337e-19)
(14.2175 0.888429 -1.41523e-19)
(9.78119 0.723857 7.11906e-19)
(11.2413 0.722644 -6.42751e-19)
(11.9691 0.79992 -1.98565e-19)
(12.487 0.800558 1.88592e-19)
(12.9079 0.819595 -5.37591e-19)
(13.2574 0.82888 5.1976e-19)
(13.5415 0.836825 -3.22525e-21)
(13.7666 0.841302 -1.64014e-19)
(13.9403 0.842963 -3.12946e-19)
(14.0713 0.842059 4.59912e-19)
(14.1677 0.838674 1.47659e-19)
(14.2367 0.834962 -4.38233e-19)
(9.79264 0.678871 2.39625e-19)
(11.266 0.673334 0)
(11.997 0.748756 -2.00475e-19)
(12.5132 0.74777 9.29198e-22)
(12.9316 0.765965 0)
(13.2788 0.774471 1.74336e-19)
(13.5613 0.781987 0)
(13.7853 0.786289 0)
(13.9584 0.78802 0)
(14.089 0.787422 0)
(14.1852 0.78454 -2.97726e-19)
(14.2544 0.780643 5.80743e-19)
(9.80252 0.633683 -4.80209e-19)
(11.2884 0.623727 0)
(12.0226 0.697179 4.01643e-19)
(12.5375 0.694509 -1.89278e-19)
(12.9535 0.711887 -3.61286e-19)
(13.2985 0.719616 1.76718e-19)
(13.5794 0.726689 -3.35987e-19)
(13.8024 0.73078 3.28814e-19)
(13.9748 0.732517 -3.16152e-19)
(14.105 0.732131 3.16374e-21)
(14.2009 0.729858 1.53788e-19)
(14.2699 0.727152 2.9154e-19)
(9.81019 0.588005 0)
(11.3086 0.573558 -2.16898e-19)
(12.0462 0.645133 -2.01193e-19)
(12.5598 0.640782 0)
(12.9734 0.657372 -3.6273e-19)
(13.3165 0.664312 7.01529e-19)
(13.5959 0.670929 -3.40702e-19)
(13.8179 0.674775 0)
(13.9898 0.676441 0)
(14.1197 0.676048 -1.55527e-19)
(14.2153 0.673806 -1.5078e-19)
(14.2834 0.673791 0)
(9.81576 0.542354 4.81776e-19)
(11.3265 0.523402 -4.2196e-21)
(12.0677 0.592778 -2.9336e-21)
(12.5801 0.586636 -3.371e-21)
(12.9917 0.60247 -5.50515e-19)
(13.3327 0.608616 0)
(13.6107 0.614758 0)
(13.8319 0.618347 0)
(14.0034 0.619939 0)
(14.1333 0.619511 1.55605e-19)
(14.2293 0.616718 -1.49783e-19)
(14.2985 0.618562 2.94921e-21)
(9.81953 0.496251 -6.05347e-19)
(11.3422 0.472767 6.55864e-19)
(12.0871 0.540032 4.04338e-19)
(12.5986 0.53208 -3.85342e-19)
(13.0082 0.547222 9.12432e-20)
(13.3473 0.552585 0)
(13.624 0.558287 3.39991e-19)
(13.8444 0.561671 -3.31357e-21)
(14.0156 0.563359 -3.23512e-19)
(14.1453 0.563452 0)
(14.2414 0.561428 -2.28511e-19)
(14.3103 0.558032 0)
(9.82134 0.450042 2.0526e-21)
(11.3558 0.422016 4.39653e-19)
(12.1044 0.48696 1.02033e-19)
(12.6151 0.477185 2.8681e-19)
(13.0229 0.491693 -2.77829e-19)
(13.3602 0.496255 0)
(13.6358 0.501512 3.41168e-19)
(13.8555 0.50466 -3.33238e-21)
(14.0263 0.506287 -2.43826e-19)
(14.1559 0.50644 0)
(14.2518 0.50481 1.53028e-19)
(14.321 0.504939 0)
(9.82183 0.403862 1.21427e-21)
(11.3672 0.370981 3.30355e-19)
(12.1196 0.433418 -1.02021e-19)
(12.6298 0.422034 1.92935e-19)
(13.0359 0.435935 0)
(13.3716 0.439658 0)
(13.646 0.444464 -8.61073e-20)
(13.8651 0.44738 -8.35204e-20)
(14.0356 0.448972 -8.09248e-20)
(14.1652 0.449272 -7.89742e-20)
(14.2613 0.447889 -1.52558e-19)
(14.3308 0.448374 1.48902e-19)
(9.82045 0.357424 -1.22514e-19)
(11.3764 0.31943 -1.09835e-19)
(12.1331 0.379423 2.03978e-19)
(12.6427 0.366647 -4.83596e-19)
(13.0472 0.379962 1.85892e-19)
(13.3814 0.382824 0)
(13.6547 0.387191 8.61214e-20)
(13.8732 0.389874 8.35434e-20)
(14.0436 0.391458 -1.61777e-19)
(14.1732 0.391894 2.38097e-19)
(14.2695 0.390664 1.53517e-19)
(14.3391 0.391231 -1.51173e-19)
(9.81734 0.311257 0)
(11.3833 0.268022 0)
(12.1444 0.325092 1.02858e-19)
(12.6539 0.311008 0)
(13.0569 0.32385 -9.28905e-20)
(13.3896 0.32579 8.94824e-20)
(13.6619 0.329719 1.72099e-19)
(13.8799 0.332177 -2.52628e-19)
(14.0501 0.333754 0)
(14.1798 0.33438 -7.94744e-20)
(14.2762 0.333538 7.661e-20)
(14.3461 0.333381 -2.25076e-19)
(9.81268 0.264896 6.17337e-20)
(11.3881 0.216231 2.20435e-19)
(12.1536 0.270487 -3.09361e-19)
(12.6633 0.255276 0)
(13.0651 0.267573 4.6342e-20)
(13.3963 0.268539 8.88398e-20)
(13.6677 0.272069 -3.46768e-19)
(13.8852 0.274298 4.20504e-19)
(14.0552 0.275829 -1.64402e-19)
(14.1851 0.276542 1.19369e-19)
(14.2817 0.275909 0)
(14.3519 0.275567 7.57722e-20)
(9.80618 0.218645 -6.17538e-20)
(11.3912 0.164379 0)
(12.1607 0.215814 -5.10583e-20)
(12.671 0.199631 9.78542e-20)
(13.0716 0.211112 1.39298e-19)
(13.4013 0.211038 -9.02136e-20)
(13.6719 0.214269 -4.34802e-20)
(13.8889 0.216277 4.21995e-20)
(14.059 0.217801 8.15709e-20)
(14.1888 0.218717 -1.2012e-19)
(14.2857 0.218706 -3.89154e-20)
(14.3565 0.21739 -3.7593e-20)
(9.7981 0.172469 -9.22726e-20)
(11.3922 0.11233 1.39254e-19)
(12.1659 0.161158 -7.74824e-20)
(12.6769 0.144004 1.21553e-19)
(13.0762 0.154317 -2.10027e-19)
(13.4049 0.153371 1.7991e-19)
(13.6745 0.156386 -6.57714e-20)
(13.8912 0.158118 4.18672e-20)
(14.0612 0.159553 -1.64363e-19)
(14.1912 0.160454 6.04187e-20)
(14.2883 0.160607 3.89448e-20)
(14.3591 0.159409 3.81182e-20)
(9.78852 0.126621 -9.27579e-20)
(11.3914 0.0600855 2.80776e-20)
(12.1693 0.106487 2.58554e-20)
(12.6811 0.0882293 -2.44031e-20)
(13.0791 0.0972655 -2.31637e-20)
(13.4068 0.0958156 4.52471e-20)
(13.6757 0.0983646 2.17824e-20)
(13.892 0.0998148 0)
(14.062 0.101212 0)
(14.1922 0.102239 2.00268e-20)
(14.2897 0.102894 0)
(14.3611 0.101906 0)
(9.77748 0.0808463 -1.55404e-20)
(11.3888 0.00761333 1.38703e-20)
(12.171 0.0517811 7.13549e-22)
(12.6835 0.0323726 -1.2663e-20)
(13.0806 0.0400606 0)
(13.4072 0.0381926 0)
(13.6754 0.0402156 1.15374e-20)
(13.8914 0.041391 -2.118e-20)
(14.0613 0.0427242 1.03538e-20)
(14.1919 0.0437783 6.27192e-22)
(14.2897 0.044586 0)
(14.3613 0.0441488 0)
(9.76464 0.0352496 4.6693e-20)
(11.3842 -0.0449443 2.777e-20)
(12.1709 -0.00307884 -1.38488e-20)
(12.6841 -0.0235333 3.82211e-22)
(13.0805 -0.0171723 -1.17055e-20)
(13.4061 -0.0195476 1.12789e-20)
(13.6736 -0.0180499 -1.16023e-20)
(13.8893 -0.0171287 -3.16895e-20)
(14.0593 -0.0158524 -1.00991e-20)
(14.1901 -0.0146455 9.51398e-21)
(14.2883 -0.0133344 -9.78205e-21)
(14.3606 -0.0131653 0)
(9.75025 -0.0100664 4.64445e-20)
(11.3778 -0.0972854 -8.37447e-20)
(12.1691 -0.0579042 1.31291e-20)
(12.683 -0.0795119 -2.42755e-20)
(13.0788 -0.0744443 3.55489e-20)
(13.4035 -0.0773519 3.40597e-20)
(13.6704 -0.076409 1.09187e-20)
(13.8859 -0.0757585 1.06005e-20)
(14.056 -0.0745931 1.03116e-20)
(14.1871 -0.0734278 3.01282e-20)
(14.2856 -0.0721382 -9.78789e-21)
(14.3575 -0.071036 5.7277e-20)
(9.73449 -0.0553101 -6.17807e-20)
(11.3694 -0.149595 -8.28266e-20)
(12.1655 -0.112719 1.30167e-19)
(12.6803 -0.135534 -2.44964e-20)
(13.0756 -0.131729 -1.16685e-19)
(13.3994 -0.135212 1.80527e-19)
(13.6657 -0.134802 -4.41197e-20)
(13.8811 -0.134434 0)
(14.0515 -0.133373 4.12667e-20)
(14.183 -0.132217 -2.00901e-20)
(14.2823 -0.131157 1.95745e-20)
(14.3552 -0.128641 -1.91308e-20)
(9.71692 -0.100399 -1.25478e-19)
(11.3593 -0.20179 -5.52977e-22)
(12.1601 -0.1675 0)
(12.6759 -0.191581 -9.76187e-20)
(13.0708 -0.188969 9.41308e-20)
(13.3938 -0.193037 0)
(13.6597 -0.193157 -4.56237e-24)
(13.875 -0.193004 0)
(14.0456 -0.191941 -4.12692e-20)
(14.1777 -0.190477 0)
(14.2777 -0.189021 0)
(14.3519 -0.186157 -7.5039e-20)
(9.69785 -0.145052 6.24812e-20)
(11.3473 -0.253616 5.52204e-20)
(12.1529 -0.222202 -4.15573e-19)
(12.6698 -0.247589 3.92266e-19)
(13.0645 -0.24615 -1.88246e-19)
(13.3868 -0.250817 0)
(13.6523 -0.25142 -4.36941e-20)
(13.8675 -0.251485 0)
(14.0384 -0.250448 0)
(14.1709 -0.248824 0)
(14.2713 -0.247213 0)
(14.3459 -0.244514 -1.50748e-19)
(9.67744 -0.189455 1.24955e-19)
(11.3336 -0.305303 2.23462e-19)
(12.1439 -0.276852 0)
(12.6622 -0.303537 2.93279e-19)
(13.0565 -0.303242 -9.45385e-20)
(13.3784 -0.308509 0)
(13.6434 -0.309592 -8.65094e-20)
(13.8587 -0.309881 8.64967e-20)
(14.0298 -0.308897 1.65859e-19)
(14.1627 -0.307151 2.40229e-19)
(14.2637 -0.305147 -1.57431e-19)
(14.3388 -0.302902 7.54038e-20)
(9.65572 -0.233583 -5.00098e-19)
(11.318 -0.356774 -1.11777e-19)
(12.1332 -0.33141 1.03928e-19)
(12.6528 -0.359408 -8.15103e-23)
(13.0472 -0.360214 -9.36897e-20)
(13.3683 -0.366091 9.01428e-20)
(13.6331 -0.367642 8.64019e-20)
(13.8484 -0.36816 -2.55176e-19)
(14.0199 -0.367285 0)
(14.1533 -0.365566 -2.40158e-19)
(14.2547 -0.363501 3.1308e-19)
(14.3301 -0.361314 -3.0607e-19)
(9.63221 -0.277747 2.50062e-19)
(11.3007 -0.408284 2.2278e-19)
(12.1207 -0.385841 -2.08625e-19)
(12.6419 -0.415167 -9.80381e-20)
(13.0362 -0.417059 1.86324e-19)
(13.357 -0.423526 -9.18813e-20)
(13.6214 -0.425511 -8.81374e-20)
(13.8368 -0.426267 8.46611e-20)
(14.0086 -0.425481 0)
(14.1425 -0.423713 0)
(14.2446 -0.421307 0)
(14.3205 -0.418944 7.74594e-22)
(9.60722 -0.321295 -2.50004e-19)
(11.2814 -0.459241 0)
(12.1064 -0.440081 -1.42846e-22)
(12.6292 -0.470787 0)
(13.0237 -0.47373 9.34535e-20)
(13.3441 -0.48076 -3.58456e-19)
(13.6083 -0.48319 2.63113e-19)
(13.8237 -0.484177 -8.4685e-20)
(13.9959 -0.483536 0)
(14.1305 -0.4819 -3.19217e-19)
(14.2334 -0.479895 3.14328e-19)
(14.3102 -0.477725 -7.672e-20)
(9.58084 -0.364878 -3.74814e-19)
(11.2604 -0.510198 2.23007e-19)
(12.0903 -0.494125 -3.11362e-19)
(12.6149 -0.526204 1.95517e-19)
(13.0097 -0.530196 -2.80169e-19)
(13.3297 -0.53781 0)
(13.5937 -0.540642 0)
(13.8092 -0.541856 3.36479e-19)
(13.9817 -0.541229 -4.95107e-19)
(14.117 -0.539264 -1.58773e-19)
(14.2208 -0.536401 1.57982e-19)
(14.3 -0.534867 0)
(9.55268 -0.408057 0)
(11.2376 -0.560765 -1.30904e-21)
(12.0726 -0.547913 -2.08535e-19)
(12.5991 -0.581414 -1.65671e-21)
(12.9941 -0.586432 -1.88093e-19)
(13.3138 -0.594631 5.37047e-19)
(13.5776 -0.59792 -3.49436e-19)
(13.7931 -0.599398 1.67325e-19)
(13.966 -0.598917 -1.65824e-19)
(14.1018 -0.596997 1.58229e-19)
(14.2062 -0.593901 -1.57438e-19)
(14.2858 -0.5905 2.9949e-19)
(9.52339 -0.450869 7.48372e-19)
(11.2133 -0.610951 2.22996e-19)
(12.0531 -0.601425 0)
(12.5816 -0.636388 3.9049e-19)
(12.977 -0.642461 3.71025e-19)
(13.2964 -0.651291 -1.82944e-19)
(13.56 -0.655076 -3.4889e-19)
(13.7756 -0.656872 3.66482e-22)
(13.9489 -0.656579 0)
(14.0853 -0.654757 0)
(14.1904 -0.651572 0)
(14.2702 -0.6474 0)
(9.49276 -0.49344 -7.48189e-19)
(11.1871 -0.660937 -2.22216e-19)
(12.0319 -0.654748 0)
(12.5624 -0.691142 -1.95214e-19)
(12.9582 -0.698296 -1.85832e-19)
(13.2775 -0.707795 -1.77579e-19)
(13.5409 -0.712099 3.37998e-21)
(13.7568 -0.714249 8.4139e-19)
(13.9306 -0.714131 -3.29093e-19)
(14.0677 -0.712388 0)
(14.1738 -0.709435 3.0903e-19)
(14.2541 -0.705413 -3.04391e-19)
(9.46044 -0.535799 -2.49376e-19)
(11.1591 -0.710655 1.3052e-21)
(12.0089 -0.707762 2.08171e-19)
(12.5415 -0.745669 0)
(12.938 -0.753906 1.6957e-21)
(13.2571 -0.764096 3.58612e-19)
(13.5205 -0.768934 -3.4414e-19)
(13.7366 -0.771389 5.05085e-19)
(13.911 -0.771383 0)
(14.049 -0.76948 0)
(14.156 -0.766069 0)
(14.2374 -0.762205 4.47319e-19)
(9.4265 -0.577674 -9.94534e-19)
(11.1293 -0.759861 -6.64427e-19)
(11.9841 -0.760411 6.20392e-19)
(12.519 -0.7999 0)
(12.9161 -0.809277 -3.70721e-19)
(13.2353 -0.820171 -1.78566e-19)
(13.4987 -0.825504 0)
(13.7151 -0.828258 3.32756e-19)
(13.8902 -0.828363 -3.2758e-19)
(14.029 -0.826475 0)
(14.1368 -0.823158 0)
(14.2189 -0.81864 -1.50994e-19)
(9.39121 -0.619217 9.90588e-19)
(11.0979 -0.808712 -2.23848e-19)
(11.9575 -0.812732 -2.04394e-19)
(12.4948 -0.853846 1.95993e-19)
(12.8927 -0.864363 1.85255e-19)
(13.212 -0.875944 -5.31612e-19)
(13.4756 -0.88176 3.45849e-19)
(13.6924 -0.884752 -3.34049e-19)
(13.8681 -0.884918 -3.23352e-19)
(14.0077 -0.882877 3.18251e-19)
(14.1165 -0.879231 0)
(14.2 -0.874646 -1.48601e-19)
(9.35444 -0.660273 4.9237e-19)
(11.0647 -0.857072 -6.65339e-19)
(11.9292 -0.86471 -2.0579e-19)
(12.469 -0.907481 1.15761e-18)
(12.8678 -0.919141 -7.4123e-19)
(13.1873 -0.931389 1.7772e-19)
(13.4511 -0.937634 6.83014e-19)
(13.6683 -0.940859 -5.02751e-19)
(13.8447 -0.941091 1.61783e-19)
(13.9851 -0.939029 0)
(14.0948 -0.93544 0)
(14.1792 -0.931071 1.49798e-19)
(9.3166 -0.700913 -9.11233e-22)
(11.0297 -0.90498 0)
(11.8992 -0.916379 6.11604e-19)
(12.4414 -0.960807 -9.69016e-19)
(12.8413 -0.973564 -7.32663e-19)
(13.1612 -0.986452 7.10977e-19)
(13.4251 -0.993104 5.10231e-19)
(13.6428 -0.996516 -8.33503e-19)
(13.8198 -0.996841 -1.61868e-19)
(13.961 -0.994667 -7.83388e-19)
(14.0717 -0.99062 4.63745e-19)
(14.1576 -0.986867 0)
(9.27674 -0.741466 -2.4723e-19)
(10.9929 -0.952847 0)
(11.8673 -0.967741 1.019e-18)
(12.4123 -1.01379 -1.54007e-18)
(12.8133 -1.02763 3.70932e-19)
(13.1336 -1.04112 -3.52017e-19)
(13.3978 -1.04816 1.70897e-19)
(13.6159 -1.0518 4.94324e-19)
(13.7934 -1.05229 -6.47532e-19)
(13.9355 -1.05027 1.57188e-19)
(14.0471 -1.04634 4.5635e-19)
(14.1335 -1.04344 -5.97738e-19)
(9.23506 -0.78115 4.91147e-19)
(10.9542 -0.999854 4.37771e-19)
(11.8337 -1.01856 8.12011e-19)
(12.3815 -1.06632 -1.53597e-18)
(12.7838 -1.08128 1.10157e-18)
(13.1044 -1.09535 -3.47482e-19)
(13.3689 -1.1028 3.44e-19)
(13.5874 -1.1067 3.30643e-19)
(13.7657 -1.10731 0)
(13.9086 -1.1053 0)
(14.0214 -1.10084 -3.0106e-19)
(14.1092 -1.09814 6.32512e-21)
(9.19249 -0.820413 -2.26371e-21)
(10.914 -1.04634 -2.00875e-21)
(11.7982 -1.06893 0)
(12.349 -1.11843 -3.80262e-19)
(12.7526 -1.13448 1.09611e-18)
(13.0738 -1.14917 -3.49568e-19)
(13.3386 -1.15704 -6.72562e-19)
(13.5576 -1.16124 3.32809e-19)
(13.7365 -1.16202 3.17267e-19)
(13.8804 -1.16018 -9.37104e-19)
(13.9941 -1.15571 0)
(14.0826 -1.15385 -2.95347e-19)
(9.14841 -0.859266 -2.39836e-21)
(10.8718 -1.09238 4.32256e-19)
(11.7611 -1.11887 -4.08715e-19)
(12.3148 -1.17003 -1.14195e-18)
(12.7199 -1.18723 -3.57639e-19)
(13.0417 -1.20257 1.39945e-18)
(13.3069 -1.21089 1.63212e-21)
(13.5263 -1.2154 1.58755e-21)
(13.706 -1.21634 3.19311e-19)
(13.8508 -1.21449 3.11077e-19)
(13.9657 -1.20945 0)
(14.056 -1.2063 8.74408e-19)
(9.10286 -0.89774 -4.89074e-19)
(10.8282 -1.13796 -4.33335e-19)
(11.7221 -1.16821 -4.04892e-19)
(12.279 -1.22112 -3.77808e-19)
(12.6856 -1.23948 7.27139e-19)
(13.008 -1.25555 -1.04074e-18)
(13.2737 -1.26437 3.43448e-19)
(13.4936 -1.26922 6.57132e-19)
(13.674 -1.27036 0)
(13.8198 -1.26869 3.0655e-19)
(13.9357 -1.2639 -1.20395e-18)
(14.0261 -1.26089 5.91514e-19)
(9.05555 -0.935637 4.83431e-19)
(10.7824 -1.18299 -4.35794e-19)
(11.6815 -1.21709 -1.20213e-18)
(12.2415 -1.27172 3.46261e-21)
(12.6497 -1.29124 0)
(12.9728 -1.30804 -3.45385e-19)
(13.2389 -1.3174 -3.33762e-19)
(13.4595 -1.32262 3.2558e-19)
(13.6409 -1.32397 0)
(13.7877 -1.32238 3.0842e-19)
(13.9049 -1.31769 5.96424e-19)
(13.9969 -1.31424 -6.40635e-21)
(9.00648 -0.972713 4.85925e-19)
(10.7351 -1.22705 0)
(11.6388 -1.26516 8.00451e-19)
(12.2021 -1.32165 -3.79602e-19)
(12.6121 -1.34246 -3.58146e-19)
(12.936 -1.36003 1.03233e-18)
(13.2028 -1.36995 -9.98582e-19)
(13.4241 -1.37549 9.71971e-19)
(13.6063 -1.37699 0)
(13.7543 -1.37532 -3.03844e-19)
(13.8728 -1.37036 8.9708e-19)
(13.9662 -1.36661 2.88719e-19)
(8.95664 -1.0092 -9.64884e-19)
(10.6863 -1.27046 4.28161e-19)
(11.5945 -1.31264 -3.52094e-21)
(12.1611 -1.37108 -7.54252e-19)
(12.5729 -1.39318 7.1495e-19)
(12.8978 -1.41152 0)
(13.1652 -1.42197 -3.30514e-19)
(13.3872 -1.42785 -3.22518e-19)
(13.5704 -1.42951 0)
(13.7195 -1.42793 3.00454e-19)
(13.8392 -1.42319 -8.94134e-19)
(13.934 -1.41961 -2.90064e-19)
(8.90553 -1.04531 0)
(10.6354 -1.31345 2.70217e-21)
(11.5484 -1.35968 1.18985e-18)
(12.1184 -1.41998 -6.55707e-21)
(12.5321 -1.4434 -1.78029e-18)
(12.858 -1.46248 1.3661e-18)
(13.1262 -1.47343 -1.31749e-18)
(13.349 -1.47959 6.43074e-19)
(13.5332 -1.48137 0)
(13.6834 -1.47971 0)
(13.8044 -1.47458 -2.93241e-19)
(13.9013 -1.4708 5.72238e-19)
(8.85246 -1.08081 0)
(10.5827 -1.35577 2.8313e-21)
(11.5004 -1.40613 -1.1814e-18)
(12.0739 -1.46833 7.47639e-19)
(12.4896 -1.49302 0)
(12.8167 -1.51288 6.76398e-19)
(13.0856 -1.5243 -3.30209e-19)
(13.3093 -1.53074 0)
(13.4945 -1.53272 -6.15667e-19)
(13.6458 -1.53126 6.05707e-19)
(13.7681 -1.52651 -2.94569e-19)
(13.8659 -1.52315 0)
(8.79772 -1.11574 9.5288e-19)
(10.5285 -1.39755 4.2513e-19)
(11.4505 -1.45192 7.86991e-19)
(12.0276 -1.5161 0)
(12.4455 -1.54207 7.01249e-19)
(12.7738 -1.56265 -3.43212e-19)
(13.0437 -1.57454 -6.55815e-19)
(13.2682 -1.58128 0)
(13.4544 -1.58342 3.06514e-19)
(13.607 -1.58194 0)
(13.7308 -1.57689 0)
(13.8306 -1.57304 0)
(8.74124 -1.14982 4.71842e-19)
(10.472 -1.43852 -8.4716e-19)
(11.3987 -1.49707 -3.9293e-19)
(11.9796 -1.56323 0)
(12.3998 -1.59048 6.97498e-19)
(12.7294 -1.61177 -3.38018e-19)
(13.0002 -1.62412 -6.45556e-19)
(13.2257 -1.63117 9.45511e-19)
(13.4129 -1.63352 -9.15229e-19)
(13.5667 -1.63224 8.9521e-19)
(13.6919 -1.62757 -8.66378e-19)
(13.7927 -1.62426 6.34092e-21)
(8.68341 -1.18308 1.88314e-18)
(10.4138 -1.4785 -4.24763e-19)
(11.3451 -1.54145 0)
(11.9298 -1.60964 1.09415e-18)
(12.3525 -1.63821 -6.29616e-21)
(12.6835 -1.66022 -6.71378e-19)
(12.9553 -1.67303 -3.21137e-19)
(13.1817 -1.68041 -2.38774e-21)
(13.3699 -1.6829 6.04584e-19)
(13.525 -1.68156 -5.97006e-19)
(13.6517 -1.67643 1.14991e-18)
(13.7551 -1.67295 -1.11449e-18)
(8.62426 -1.21579 -9.38502e-19)
(10.3539 -1.51779 -4.18752e-19)
(11.2895 -1.58508 -3.85557e-19)
(11.8782 -1.65529 -2.9071e-21)
(12.3034 -1.68523 -3.44956e-19)
(12.636 -1.70797 -6.61012e-19)
(12.9088 -1.72131 6.46313e-19)
(13.1361 -1.72906 -2.47613e-21)
(13.3255 -1.73179 0)
(13.4817 -1.73063 -8.79719e-19)
(13.6097 -1.72546 5.73369e-19)
(13.7139 -1.72124 0)
(8.56352 -1.24782 4.72744e-19)
(10.2922 -1.55636 8.33026e-19)
(11.2322 -1.62792 1.15269e-18)
(11.8248 -1.70017 -1.09082e-18)
(12.2527 -1.73149 -3.39634e-19)
(12.5868 -1.75506 9.91297e-19)
(12.8608 -1.76898 3.19505e-19)
(13.0892 -1.77711 -3.09675e-19)
(13.2796 -1.78016 -1.1929e-18)
(13.4372 -1.77936 1.17312e-18)
(13.5666 -1.77474 -2.85396e-19)
(13.6717 -1.77053 -1.10806e-18)
(8.50111 -1.27908 -9.23911e-19)
(10.2286 -1.59411 1.64963e-18)
(11.173 -1.66994 -3.86477e-19)
(11.7696 -1.74425 3.5803e-19)
(12.2002 -1.777 3.4042e-19)
(12.5361 -1.80139 -2.82464e-21)
(12.8113 -1.81592 9.43484e-19)
(13.0408 -1.82443 -1.23106e-18)
(13.2326 -1.82774 0)
(13.3917 -1.82705 2.88414e-19)
(13.5229 -1.82266 0)
(13.6303 -1.81878 2.746e-19)
(8.437 -1.30949 -1.83647e-18)
(10.1631 -1.63088 1.64513e-18)
(11.1118 -1.71105 -3.8162e-19)
(11.7126 -1.78746 -3.5883e-19)
(12.146 -1.8217 -3.41183e-19)