/*--------------------------------*- C++ -*----------------------------------*\
| =========                 |                                                 |
| \\      /  F ield         | OpenFOAM: The Open Source CFD Toolbox           |
|  \\    /   O peration     | Version:  2.3.1                                 |
|   \\  /    A nd           | Web:      www.OpenFOAM.org                      |
|    \\/     M anipulation  |                                                 |
\*---------------------------------------------------------------------------*/
FoamFile
{
    version     2.0;
    format      ascii;
    class       volVectorField;
    location    "0.65";
    object      U;
}
// * * * * * * * * * * * * * * * * * * * * * * * * * * * * * * * * * * * * * //

dimensions      [0 1 -1 0 0 0 0];

internalField   nonuniform List<vector> 
9648
(
(0.159819 -4.8261 -1.95558e-22)
(0.283901 -4.79279 -4.94024e-23)
(0.407038 -4.76385 0)
(0.52952 -4.73756 0)
(0.652459 -4.71622 9.569e-21)
(0.77677 -4.70089 1.49412e-20)
(0.905013 -4.69564 -2.76632e-20)
(1.03925 -4.70222 -1.29006e-20)
(1.18076 -4.72194 1.28684e-20)
(1.33007 -4.75683 3.93309e-20)
(1.48928 -4.80855 -3.91657e-20)
(1.66023 -4.87814 -5.65855e-20)
(1.8449 -4.96621 3.00929e-19)
(2.0453 -5.07267 7.78628e-20)
(2.26312 -5.19669 -7.30586e-19)
(2.49958 -5.33698 0)
(2.75581 -5.49179 0)
(3.03265 -5.65906 1.3267e-19)
(3.33076 -5.83614 4.27427e-19)
(3.65019 -6.02025 -1.22924e-18)
(3.99096 -6.20875 -2.14023e-20)
(4.35292 -6.39857 3.38436e-19)
(4.73529 -6.58684 3.99739e-19)
(5.13739 -6.77077 -1.8152e-18)
(5.55827 -6.94768 0)
(5.9969 -7.11498 1.08547e-18)
(6.45197 -7.27018 -1.13762e-18)
(6.92209 -7.41125 0)
(7.40584 -7.53601 0)
(7.90158 -7.64283 -6.89579e-19)
(8.40783 -7.73003 -1.52432e-18)
(8.92277 -7.79617 2.39269e-18)
(9.44481 -7.84016 0)
(9.97219 -7.86079 0)
(10.5031 -7.85739 1.83067e-18)
(11.0359 -7.82914 -1.96917e-18)
(11.5686 -7.77562 0)
(12.0999 -7.69656 4.22487e-18)
(12.6278 -7.5916 1.13893e-18)
(13.1506 -7.4606 -3.37173e-18)
(13.6664 -7.30363 6.33921e-20)
(14.1738 -7.12116 2.39747e-18)
(14.6713 -6.91309 -3.18365e-18)
(15.1568 -6.67997 6.40353e-19)
(15.6294 -6.42257 0)
(16.0876 -6.14101 0)
(16.5299 -5.83602 4.82657e-18)
(16.955 -5.50837 7.06292e-19)
(17.3624 -5.15893 -2.18198e-18)
(17.7511 -4.78765 -7.34411e-19)
(18.1191 -4.39553 -7.63554e-19)
(18.4647 -3.98477 7.58842e-19)
(18.7878 -3.55705 3.91872e-19)
(19.0875 -3.1131 -3.89765e-19)
(19.3625 -2.65466 1.98901e-18)
(19.6125 -2.18278 -1.95841e-18)
(19.8366 -1.69891 -2.17037e-20)
(20.0344 -1.20427 0)
(20.2053 -0.700303 -3.97656e-19)
(20.349 -0.188676 -5.14139e-20)
(20.4655 0.329416 -4.87484e-20)
(-0.0660563 -2.53855 2.34541e-22)
(0.00521305 -2.54533 0)
(0.0782194 -2.56256 0)
(0.153903 -2.59361 4.61298e-21)
(0.234632 -2.64458 -5.40353e-21)
(0.324748 -2.71845 -3.54244e-20)
(0.425668 -2.81263 0)
(0.539213 -2.92604 0)
(0.66715 -3.05933 -4.39591e-20)
(0.810046 -3.21248 0)
(0.969195 -3.38447 -1.06553e-19)
(1.14539 -3.57375 8.4137e-20)
(1.33953 -3.77903 -4.55264e-20)
(1.55253 -3.99861 0)
(1.78515 -4.23053 2.8444e-19)
(2.03768 -4.47269 1.68417e-19)
(2.31042 -4.72284 -1.65698e-19)
(2.60351 -4.97874 2.15196e-19)
(2.91711 -5.23786 -6.55581e-19)
(3.25099 -5.49777 5.21535e-19)
(3.60481 -5.7561 -5.77155e-19)
(3.9783 -6.01036 -3.109e-19)
(4.37065 -6.2582 -3.18701e-19)
(4.78109 -6.49732 1.09474e-18)
(5.20871 -6.72554 3.78855e-19)
(5.65257 -6.94071 4.49825e-19)
(6.11154 -7.14084 -3.99052e-19)
(6.58434 -7.3242 0)
(7.06973 -7.48902 0)
(7.56621 -7.63396 0)
(8.07242 -7.75757 0)
(8.58675 -7.85869 0)
(9.10768 -7.93632 0)
(9.63372 -7.98947 0)
(10.1631 -8.0176 -8.20922e-19)
(10.6943 -8.01993 7.4582e-19)
(11.2255 -7.99622 8.21927e-19)
(11.7554 -7.94615 -4.17495e-18)
(12.2822 -7.86941 -8.85587e-19)
(12.8042 -7.76598 2.72316e-18)
(13.3198 -7.63597 1.91011e-18)
(13.8274 -7.47982 -1.97074e-18)
(14.3255 -7.29742 9.41321e-19)
(14.8124 -7.08948 9.92883e-19)
(15.2867 -6.85663 -1.05481e-18)
(15.7471 -6.59911 1.04547e-18)
(16.192 -6.31778 -2.24007e-18)
(16.6201 -6.01345 0)
(17.0302 -5.68701 -5.71946e-19)
(17.4216 -5.3386 1.14923e-18)
(17.7936 -4.96911 -5.77434e-19)
(18.1446 -4.5803 0)
(18.4738 -4.17355 1.18634e-18)
(18.7802 -3.74966 0)
(19.0629 -3.31009 0)
(19.3211 -2.856 2.81041e-18)
(19.5541 -2.38871 -1.26643e-18)
(19.7612 -1.90983 -3.08051e-19)
(19.9422 -1.42023 3.2508e-19)
(20.0964 -0.921618 0)
(20.2234 -0.415259 8.17219e-20)
(0.0523868 -1.4976 -3.84687e-22)
(0.111901 -1.54606 0)
(0.177322 -1.61277 -4.14425e-23)
(0.24937 -1.70031 -3.26228e-22)
(0.329577 -1.80709 0)
(0.421121 -1.93239 2.9833e-20)
(0.525198 -2.07769 2.06159e-20)
(0.643332 -2.24199 0)
(0.777147 -2.42485 2.31147e-21)
(0.928298 -2.6248 4.52971e-20)
(1.09772 -2.84076 9.09013e-20)
(1.28605 -3.07081 -3.1548e-20)
(1.49381 -3.31313 0)
(1.72133 -3.56564 0)
(1.96889 -3.82624 2.1645e-19)
(2.2364 -4.09282 -1.3771e-19)
(2.52383 -4.36316 -1.47622e-19)
(2.83099 -4.63509 0)
(3.15763 -4.90635 5.68005e-19)
(3.50339 -5.17477 -5.89656e-19)
(3.86781 -5.4383 -4.4055e-19)
(4.25034 -5.69483 -4.84853e-19)
(4.6502 -5.94234 0)
(5.06651 -6.17889 -8.67907e-19)
(5.49833 -6.40256 -3.05061e-19)
(5.94469 -6.61152 3.62093e-19)
(6.40448 -6.80408 3.99517e-19)
(6.87652 -6.97873 0)
(7.35954 -7.13405 0)
(7.85219 -7.2688 0)
(8.35303 -7.38182 0)
(8.86062 -7.47209 0)
(9.3735 -7.53874 0)
(9.89017 -7.58104 0)
(10.409 -7.59846 -1.80195e-18)
(10.9286 -7.59046 5.98561e-19)
(11.4472 -7.55681 -6.59718e-19)
(11.9634 -7.49729 3.31949e-18)
(12.4756 -7.41173 0)
(12.9824 -7.30021 1.41115e-18)
(13.4819 -7.16293 1.45891e-18)
(13.9728 -7.0002 7.22695e-19)
(14.4536 -6.81217 -8.27162e-19)
(14.9227 -6.59939 -1.59319e-18)
(15.379 -6.36241 2.4814e-18)
(15.821 -6.10176 -8.39262e-19)
(16.2474 -5.81822 -1.7113e-18)
(16.6571 -5.51259 0)
(17.0487 -5.1859 0)
(17.4213 -4.83917 -4.66686e-19)
(17.7739 -4.47342 -4.56216e-19)
(18.1056 -4.08957 -9.32971e-19)
(18.4157 -3.68872 -9.76282e-19)
(18.7031 -3.27229 0)
(18.9673 -2.84108 -9.65242e-19)
(19.2073 -2.39681 -1.00563e-18)
(19.4227 -1.94022 0)
(19.6129 -1.4735 1.62751e-20)
(19.7771 -0.996948 0)
(19.9151 -0.512318 0)
(20.027 -0.0206315 -6.22415e-20)
(0.0256491 -1.00165 7.83047e-22)
(0.0887627 -1.0874 -1.15807e-21)
(0.162906 -1.19103 7.52633e-22)
(0.247751 -1.31239 -1.66424e-21)
(0.343868 -1.45115 0)
(0.451871 -1.60728 -1.23943e-20)
(0.57331 -1.78092 -1.77955e-20)
(0.709495 -1.97153 0)
(0.861784 -2.17823 3.17456e-21)
(1.03102 -2.39985 -3.87355e-20)
(1.21801 -2.63494 8.71931e-20)
(1.42309 -2.88178 1.05707e-19)
(1.64658 -3.13838 0)
(1.88867 -3.40271 -8.35279e-20)
(2.14958 -3.67276 -1.77221e-19)
(2.42905 -3.94653 -9.43954e-20)
(2.72696 -4.22193 3.63467e-19)
(3.04306 -4.49691 -2.62556e-19)
(3.37697 -4.76945 2.94215e-19)
(3.72839 -5.03752 5.00813e-19)
(4.09689 -5.29935 7.24392e-19)
(4.48178 -5.5531 4.08194e-19)
(4.88241 -5.79697 1.96392e-19)
(5.29785 -6.02924 7.12658e-19)
(5.72724 -6.24815 2.34046e-19)
(6.16964 -6.45208 2.65976e-19)
(6.62403 -6.63951 3.13405e-19)
(7.08941 -6.80904 -9.37789e-19)
(7.56455 -6.95946 6.72705e-19)
(8.04815 -7.08964 7.59266e-19)
(8.53898 -7.19851 -1.55158e-18)
(9.03561 -7.28519 7.91971e-19)
(9.53668 -7.34882 -8.47782e-19)
(10.0409 -7.38876 4.22476e-19)
(10.5467 -7.40455 4.62714e-19)
(11.0527 -7.39574 5.12987e-19)
(11.5574 -7.36202 -5.06466e-19)
(12.0594 -7.30328 -5.51545e-19)
(12.5572 -7.21939 -1.65245e-18)
(13.0494 -7.11046 -1.19142e-18)
(13.5344 -6.9767 -2.41447e-18)
(14.0107 -6.81833 -3.1264e-18)
(14.477 -6.63566 1.28129e-18)
(14.932 -6.42909 2.88979e-20)
(15.3742 -6.19915 -7.16812e-19)
(15.8025 -5.94642 -7.0296e-19)
(16.2156 -5.67154 4.24919e-18)
(16.6124 -5.37532 -7.12073e-19)
(16.9918 -5.05854 0)
(17.3527 -4.72216 0)
(17.6944 -4.36716 -7.14559e-19)
(18.0157 -3.99474 3.18144e-20)
(18.3161 -3.60589 7.66205e-19)
(18.5946 -3.20176 0)
(18.8506 -2.78362 8.15495e-19)
(19.0831 -2.35279 0)
(19.2917 -1.91043 0)
(19.4758 -1.45748 6.2102e-19)
(19.635 -0.995506 1.97488e-19)
(19.769 -0.525946 -2.0121e-19)
(19.8774 -0.050273 1.02936e-19)
(0.117155 -0.754441 4.71836e-23)
(0.181736 -0.861669 1.01142e-21)
(0.259718 -0.984759 -1.94146e-21)
(0.351384 -1.1245 3.93498e-22)
(0.456715 -1.28103 -2.13166e-21)
(0.576513 -1.45403 4.96109e-21)
(0.711468 -1.64317 2.41516e-21)
(0.862307 -1.84753 -1.29866e-20)
(1.03004 -2.0662 3.99749e-20)
(1.21481 -2.29788 -5.79114e-20)
(1.41717 -2.54105 6.53496e-20)
(1.63689 -2.794 -8.16334e-20)
(1.8742 -3.0547 -4.72007e-20)
(2.12894 -3.32118 0)
(2.4014 -3.59144 8.67896e-20)
(2.69101 -3.8638 8.33225e-20)
(2.9976 -4.13623 0)
(3.32091 -4.40682 2.06081e-19)
(3.66041 -4.67369 0)
(4.01592 -4.93495 -2.72631e-19)
(4.38705 -5.18904 2.97437e-19)
(4.773 -5.4344 1.03373e-20)
(5.17325 -5.66935 -1.72275e-20)
(5.58673 -5.89245 2.93145e-20)
(6.01267 -6.10196 -8.33424e-19)
(6.45024 -6.29641 -4.77851e-19)
(6.89839 -6.47441 9.83221e-19)
(7.35636 -6.63465 1.06589e-18)
(7.82293 -6.77616 -5.76566e-19)
(8.29689 -6.89782 0)
(8.77712 -6.9987 0)
(9.26216 -7.07801 0)
(9.75086 -7.13485 7.27832e-19)
(10.242 -7.16869 -3.00432e-18)
(10.7342 -7.17919 1.57132e-18)
(11.2259 -7.16587 -7.98816e-19)
(11.7159 -7.12842 -1.72176e-18)
(12.2029 -7.06686 1.74598e-18)
(12.6854 -6.98103 4.00105e-20)
(13.1622 -6.87106 -9.845e-19)
(13.6317 -6.73722 1.0168e-18)
(14.0926 -6.57974 1.05081e-18)
(14.5433 -6.39887 0)
(14.9828 -6.19495 -1.0663e-18)
(15.4098 -5.96855 0)
(15.823 -5.72021 -1.70206e-18)
(16.2212 -5.45058 5.26181e-19)
(16.6035 -5.16039 0)
(16.9687 -4.85034 -6.16565e-19)
(17.316 -4.52145 -1.46153e-20)
(17.6445 -4.17453 1.31268e-18)
(17.9532 -3.81077 -6.23706e-19)
(18.2416 -3.43123 -3.46616e-19)
(18.5088 -3.03703 6.34888e-19)
(18.7541 -2.62951 -4.78679e-21)
(18.9766 -2.20967 3.30891e-19)
(19.1756 -1.77878 1.5982e-19)
(19.3509 -1.3378 3.37175e-19)
(19.502 -0.887916 -8.46869e-19)
(19.6287 -0.430643 3.40064e-19)
(19.7306 0.0324725 -4.35026e-20)
(0.201459 -0.621791 -3.80861e-22)
(0.278757 -0.744349 0)
(0.370517 -0.881842 2.92523e-21)
(0.477219 -1.03507 0)
(0.598125 -1.20401 2.3234e-22)
(0.734313 -1.38804 6.02779e-21)
(0.886062 -1.58671 7.71569e-21)
(1.05382 -1.79881 2.53208e-20)
(1.2385 -2.02336 3.8696e-21)
(1.43959 -2.25916 5.91572e-21)
(1.65771 -2.50458 1.12386e-21)
(1.89197 -2.75811 -3.09755e-20)
(2.14272 -3.01768 4.58359e-20)
(2.40912 -3.28131 -1.39743e-19)
(2.69219 -3.54707 1.19152e-19)
(2.99091 -3.81381 -8.59148e-21)
(3.30487 -4.07931 -1.4781e-19)
(3.63417 -4.34187 -1.78074e-19)
(3.97782 -4.59984 0)
(4.33591 -4.85121 2.11807e-19)
(4.70835 -5.09479 8.42787e-21)
(5.09386 -5.32933 -5.48241e-19)
(5.49247 -5.55314 -2.3396e-20)
(5.90265 -5.76521 -2.96858e-19)
(6.32373 -5.96365 1.04641e-18)
(6.75506 -6.14711 3.55285e-20)
(7.1955 -6.31437 -3.88696e-19)
(7.64474 -6.46403 -4.126e-20)
(8.10143 -6.59558 0)
(8.56435 -6.70786 0)
(9.03276 -6.79991 0)
(9.50492 -6.87128 0)
(9.97982 -6.92084 0)
(10.4567 -6.94808 5.73643e-20)
(10.9339 -6.95297 -6.73558e-19)
(11.41 -6.93499 -3.89269e-20)
(11.8842 -6.89362 2.9228e-20)
(12.355 -6.8292 6.94389e-19)
(12.821 -6.74143 1.58577e-18)
(13.2812 -6.63046 -2.39107e-18)
(13.7342 -6.49681 1.66362e-18)
(14.1784 -6.34053 -8.3926e-19)
(14.6125 -6.16197 0)
(15.0355 -5.96118 9.31371e-19)
(15.4463 -5.73887 0)
(15.8434 -5.49558 9.79711e-19)
(16.226 -5.23176 -1.00215e-18)
(16.5928 -4.94844 4.7071e-19)
(16.9431 -4.64593 5.02583e-19)
(17.2759 -4.32527 -5.24171e-19)
(17.5905 -3.9873 3.7501e-20)
(17.886 -3.63325 -1.05709e-20)
(18.1618 -3.26387 1.06549e-18)
(18.4173 -2.88058 -1.09622e-18)
(18.6516 -2.48458 -5.40764e-19)
(18.8637 -2.07719 -2.64735e-19)
(19.053 -1.65917 -8.41818e-19)
(19.2192 -1.23137 0)
(19.3622 -0.794891 5.68391e-19)
(19.4817 -0.35156 -1.45882e-19)
(19.5773 0.0973585 0)
(0.306701 -0.556512 0)
(0.398044 -0.690105 0)
(0.504984 -0.838468 -1.521e-21)
(0.628878 -1.00204 1.41224e-21)
(0.76689 -1.18024 -1.74687e-21)
(0.921069 -1.37191 -9.7088e-21)
(1.09079 -1.57654 5.34047e-21)
(1.27579 -1.7926 -1.76592e-20)
(1.47823 -2.01932 -1.27807e-21)
(1.6954 -2.25555 4.74793e-20)
(1.92955 -2.49968 -8.85407e-20)
(2.17778 -2.75055 0)
(2.44168 -3.0058 0)
(2.71848 -3.26371 1.58986e-19)
(3.0117 -3.52184 1.01951e-19)
(3.31868 -3.78041 -2.24857e-19)
(3.63881 -4.03661 3.64681e-19)
(3.97336 -4.2889 1.5247e-19)
(4.31994 -4.53624 -3.05019e-19)
(4.67932 -4.7759 -1.84658e-19)
(5.05246 -5.00709 2.12218e-19)
(5.43622 -5.22944 -5.22964e-21)
(5.83259 -5.44048 0)
(6.23844 -5.64059 5.46248e-19)
(6.65354 -5.82701 -8.98967e-19)
(7.07789 -5.99844 2.99303e-19)
(7.50921 -6.15422 6.61212e-19)
(7.94886 -6.29222 -1.83802e-18)
(8.39485 -6.41301 3.74208e-19)
(8.84554 -6.51526 0)
(9.30143 -6.59761 0)
(9.75972 -6.6607 0)
(10.2196 -6.70258 5.11701e-19)
(10.6813 -6.72246 1.58339e-18)
(11.143 -6.72125 -1.07037e-18)
(11.6021 -6.69857 5.90243e-19)
(12.0596 -6.65256 6.46395e-19)
(12.5131 -6.58498 -1.28187e-18)
(12.9613 -6.49498 0)
(13.4042 -6.38243 -1.3152e-18)
(13.8395 -6.24878 6.82842e-19)
(14.2663 -6.09347 3.52278e-20)
(14.6825 -5.91738 -3.15512e-20)
(15.088 -5.7195 7.51091e-19)
(15.4816 -5.50116 3.15064e-20)
(15.8615 -5.26319 -2.39614e-18)
(16.2276 -5.00517 8.11665e-19)
(16.578 -4.72894 -1.68509e-18)
(16.9123 -4.4339 0)
(17.2296 -4.12188 0)
(17.5295 -3.79282 1.77759e-18)
(17.8108 -3.44895 -4.24601e-19)
(18.073 -3.09016 -9.20505e-19)
(18.316 -2.71775 -4.42317e-19)
(18.5387 -2.33381 1.41197e-18)
(18.7399 -1.93935 7.11939e-19)
(18.9188 -1.53466 2.4598e-19)
(19.075 -1.12088 -4.63273e-21)
(19.209 -0.698115 -2.46038e-19)
(19.3209 -0.268828 0)
(19.4098 0.165137 0)
(0.429014 -0.53405 4.16085e-22)
(0.537689 -0.675574 0)
(0.661003 -0.831702 0)
(0.804783 -1.00313 -9.76011e-22)
(0.960295 -1.18811 0)
(1.13344 -1.38465 2.83756e-21)
(1.32134 -1.59241 5.22309e-21)
(1.52259 -1.8094 -1.08525e-20)
(1.74399 -2.03551 0)
(1.97587 -2.26959 -2.84344e-20)
(2.22703 -2.51 4.05958e-21)
(2.48764 -2.75629 0)
(2.76548 -3.00538 0)
(3.04969 -3.25606 -6.68415e-20)
(3.35338 -3.50349 7.30586e-20)
(3.66834 -3.75262 -9.18409e-20)
(3.99278 -3.99821 -1.05718e-19)
(4.33256 -4.23867 0)
(4.68069 -4.47508 1.36366e-19)
(5.03981 -4.70179 -2.87783e-19)
(5.41438 -4.91921 -3.22305e-19)
(5.79407 -5.12911 -3.77685e-19)
(6.18851 -5.32587 -3.36114e-20)
(6.58911 -5.51418 -4.78879e-19)
(6.99721 -5.68821 4.59586e-19)
(7.4147 -5.84687 5.11969e-19)
(7.83482 -5.99129 -5.82188e-19)
(8.26454 -6.11629 3.18257e-20)
(8.69949 -6.22596 4.26492e-20)
(9.13603 -6.31826 -6.70693e-19)
(9.5792 -6.38995 0)
(10.0227 -6.44523 -8.14717e-19)
(10.4663 -6.4791 1.61567e-18)
(10.9124 -6.49046 -4.5041e-20)
(11.358 -6.48342 9.46552e-19)
(11.798 -6.45725 -9.41385e-19)
(12.2388 -6.40532 1.03672e-18)
(12.6739 -6.33467 1.08064e-18)
(13.1029 -6.24235 -2.13613e-18)
(13.5275 -6.12744 1.16768e-18)
(13.9438 -5.99424 1.14789e-18)
(14.3527 -5.83953 1.8121e-18)
(14.7494 -5.6663 -6.44608e-19)
(15.1364 -5.4702 0)
(15.512 -5.25599 3.43908e-20)
(15.8732 -5.02434 6.99126e-19)
(16.2223 -4.77175 -6.79389e-19)
(16.5545 -4.50399 7.31138e-19)
(16.8721 -4.21638 0)
(17.1723 -3.91407 0)
(17.4567 -3.59384 -3.98832e-20)
(17.7227 -3.2612 7.84073e-19)
(17.9702 -2.91233 0)
(18.2 -2.5506 3.89235e-19)
(18.4107 -2.17987 3.92471e-19)
(18.6003 -1.79946 -7.99162e-19)
(18.7683 -1.40867 -3.91904e-19)
(18.9132 -1.01001 -2.08123e-19)
(19.0371 -0.600514 0)
(19.1412 -0.186336 0)
(19.2228 0.231232 2.49045e-20)
(0.568524 -0.538629 -1.17012e-21)
(0.700802 -0.684705 2.39413e-21)
(0.839967 -0.843932 -6.9929e-24)
(1.0099 -1.02112 -2.30953e-21)
(1.17916 -1.2094 3.0286e-21)
(1.37098 -1.41038 -1.62951e-21)
(1.5778 -1.61716 0)
(1.79143 -1.83098 1.51511e-21)
(2.03691 -2.05498 -1.32974e-20)
(2.27766 -2.28345 0)
(2.55152 -2.51902 5.82215e-20)
(2.81726 -2.76024 -3.66732e-20)
(3.11247 -3.00334 3.74145e-20)
(3.39671 -3.24701 4.80193e-20)
(3.71352 -3.47817 -6.31921e-20)
(4.03613 -3.71897 -7.73542e-20)
(4.3606 -3.95381 2.55529e-19)
(4.70989 -4.17912 -2.66255e-19)
(5.05298 -4.40732 0)
(5.40704 -4.62254 -9.23732e-21)
(5.78967 -4.82502 7.9281e-19)
(6.15723 -5.02502 -2.99176e-20)
(6.55731 -5.20238 -3.75749e-19)
(6.94649 -5.38203 7.19837e-19)
(7.34564 -5.54599 0)
(7.75955 -5.69198 -4.42302e-19)
(8.16206 -5.82671 -4.52943e-19)
(8.58361 -5.93716 1.00359e-18)
(9.00859 -6.03667 -6.55849e-21)
(9.42673 -6.12055 5.9481e-19)
(9.85986 -6.1789 -1.21538e-18)
(10.2845 -6.22893 1.93104e-18)
(10.7094 -6.25636 -1.38355e-18)
(11.1407 -6.25905 -1.45018e-18)
(11.573 -6.24547 0)
(11.989 -6.21647 8.24783e-19)
(12.4186 -6.15591 0)
(12.8317 -6.08531 -3.17242e-21)
(13.2389 -5.99253 9.75179e-19)
(13.648 -5.87206 -1.81419e-18)
(14.0428 -5.73845 -6.84008e-21)
(14.4349 -5.58444 -2.00404e-18)
(14.8062 -5.41681 0)
(15.1738 -5.22375 -5.72913e-19)
(15.5323 -5.01505 2.19823e-18)
(15.8702 -4.79087 -5.58789e-19)
(16.2061 -4.54315 5.91419e-19)
(16.5163 -4.28498 0)
(16.8189 -4.00382 6.08042e-19)
(17.0995 -3.71029 -1.83453e-18)
(17.3695 -3.39519 -2.54542e-20)
(17.6188 -3.0739 0)
(17.8484 -2.73781 6.29802e-19)
(18.0655 -2.38724 -1.88776e-20)
(18.2654 -2.02734 0)
(18.4404 -1.65945 3.54477e-19)
(18.5994 -1.29028 -3.21808e-19)
(18.7302 -0.908847 3.37402e-19)
(18.8424 -0.513811 3.34519e-19)
(18.9416 -0.111111 -1.6794e-19)
(19.0126 0.290707 -6.35368e-20)
(20.5538 0.85307 1.51633e-19)
(20.6137 1.38057 -5.14062e-20)
(20.6456 1.91135 0)
(20.6494 2.44299 0)
(20.6255 2.97375 8.16716e-19)
(20.5743 3.50252 1.17524e-18)
(20.4955 4.02747 -1.2099e-18)
(20.3896 4.54721 -3.98703e-19)
(20.2566 5.06028 3.9865e-19)
(20.0971 5.56561 7.80138e-19)
(19.9114 6.06258 -7.80609e-19)
(19.6996 6.54934 -7.58931e-19)
(19.4631 7.02484 3.77465e-18)
(19.2033 7.48785 7.34127e-19)
(18.9206 7.93696 -6.47849e-18)
(18.6155 8.37065 0)
(18.2889 8.78803 0)
(17.942 9.18812 6.73846e-19)
(17.5757 9.5704 1.99038e-18)
(17.1906 9.93351 -5.11658e-18)
(16.7884 10.2768 -7.47383e-20)
(16.3698 10.5998 1.1729e-18)
(15.9359 10.9013 1.20659e-18)
(15.4878 11.1809 -4.50252e-18)
(15.027 11.4384 0)
(14.5544 11.674 2.11492e-18)
(14.0703 11.8869 -1.95998e-18)
(13.5766 12.0753 0)
(13.0751 12.2391 0)
(12.5673 12.3778 -8.98147e-19)
(12.0544 12.4916 -1.64229e-18)
(11.5377 12.58 2.34094e-18)
(11.0188 12.6434 0)
(10.4986 12.6816 0)
(9.97876 12.6946 1.18203e-18)
(9.46027 12.6827 -1.1238e-18)
(8.94454 12.646 0)
(8.43284 12.5849 1.77246e-18)
(7.9262 12.4998 3.69531e-19)
(7.42589 12.3908 -1.0226e-18)
(6.93312 12.2585 3.54934e-20)
(6.4493 12.1035 4.31619e-19)
(5.97521 11.9266 -4.27591e-19)
(5.51205 11.7281 7.4904e-20)
(5.061 11.5088 0)
(4.62277 11.2696 0)
(4.19843 11.0111 -1.68787e-19)
(3.78888 10.7341 -3.66325e-20)
(3.39514 10.4396 2.19629e-19)
(3.0179 10.1288 9.14689e-20)
(2.65778 9.8025 1.43321e-19)
(2.31562 9.46154 -1.45191e-19)
(1.99216 9.10721 -9.73634e-20)
(1.6877 8.7407 9.86925e-20)
(1.40297 8.36293 -5.89707e-19)
(1.13836 7.97533 6.4351e-19)
(0.894306 7.57903 -1.31489e-21)
(0.671099 7.17553 0)
(0.468917 6.76589 1.63979e-19)
(0.288113 6.35121 2.22776e-20)
(0.128768 5.93271 2.35791e-20)
(20.3227 0.0971823 -8.17924e-20)
(20.3935 0.613646 0)
(20.4367 1.13175 0)
(20.4526 1.65117 9.38994e-19)
(20.4411 2.17055 -6.27806e-19)
(20.4025 2.68865 -2.2121e-18)
(20.337 3.20369 0)
(20.2446 3.71474 0)
(20.1255 4.22008 -1.20433e-18)
(19.9798 4.71835 0)
(19.808 5.20873 -1.76446e-18)
(19.6105 5.68897 1.17061e-18)
(19.3889 6.15727 -5.81111e-19)
(19.1443 6.61347 0)
(18.8767 7.05705 2.298e-18)
(18.5865 7.48668 1.07638e-18)
(18.2745 7.90119 -1.07853e-18)
(17.9419 8.29939 1.02589e-18)
(17.5894 8.68064 -3.03162e-18)
(17.218 9.04374 2.04133e-18)
(16.8291 9.38757 -1.98251e-18)
(16.4234 9.71168 -1.01068e-18)
(16.0022 10.0149 -9.14281e-19)
(15.5666 10.2964 2.65266e-18)
(15.1179 10.5555 8.50238e-19)
(14.6567 10.7921 7.78002e-19)
(14.1843 11.0063 -7.03143e-19)
(13.7025 11.1972 0)
(13.2125 11.3641 0)
(12.7156 11.5063 0)
(12.2131 11.624 0)
(11.7063 11.7168 0)
(11.1966 11.7846 0)
(10.6851 11.8275 0)
(10.1735 11.8454 -4.90626e-19)
(9.66283 11.8383 4.35655e-19)
(9.15444 11.8064 3.49068e-19)
(8.64955 11.75 -1.6945e-18)
(8.14928 11.6694 -2.64645e-19)
(7.65497 11.565 7.89519e-19)
(7.16784 11.437 4.34798e-19)
(6.68925 11.2861 -3.47038e-19)
(6.22006 11.1128 1.29036e-19)
(5.76164 10.9177 9.47276e-20)
(5.31507 10.7014 -8.24069e-21)
(4.88116 10.4646 8.33312e-21)
(4.46099 10.208 9.15748e-20)
(4.05551 9.93247 0)
(3.66579 9.63891 8.01773e-20)
(3.29262 9.32832 -1.81983e-19)
(2.93664 9.00157 1.02096e-19)
(2.59878 8.65954 0)
(2.27987 8.30338 -3.04537e-19)
(1.98018 7.93424 0)
(1.70062 7.55306 0)
(1.44143 7.16125 -9.47059e-19)
(1.20326 6.76001 4.56926e-19)
(0.986299 6.35075 1.26317e-19)
(0.791129 5.93448 -1.32176e-19)
(0.618053 5.51246 0)
(0.467309 5.08594 -3.72919e-20)
(20.1125 0.47603 6.22782e-20)
(20.1718 0.976441 0)
(20.2044 1.47731 -2.48418e-19)
(20.2094 1.97852 -1.63304e-20)
(20.1878 2.47867 0)
(20.1402 2.97717 1.99253e-18)
(20.0666 3.47323 9.7274e-19)
(19.9665 3.96634 0)
(19.8404 4.45435 3.20327e-20)
(19.6884 4.93498 9.41445e-19)
(19.5117 5.40668 1.42992e-18)
(19.3113 5.86802 -4.70052e-19)
(19.0876 6.31736 0)
(18.8409 6.75395 0)
(18.5718 7.1773 1.73116e-18)
(18.2812 7.58651 -8.54048e-19)
(17.97 7.98057 -8.00415e-19)
(17.639 8.35851 0)
(17.2892 8.71955 2.41706e-18)
(16.9216 9.06273 -2.3194e-18)
(16.5373 9.38712 -1.48137e-18)
(16.1374 9.69202 -1.43343e-18)
(15.7228 9.97652 0)
(15.2948 10.2399 -2.0479e-18)
(14.8545 10.4816 -6.6818e-19)
(14.4029 10.7009 6.10409e-19)
(13.9415 10.8973 6.00736e-19)
(13.4714 11.0707 0)
(12.9938 11.2208 0)
(12.5099 11.3471 0)
(12.021 11.4495 0)
(11.5284 11.528 0)
(11.0333 11.5823 0)
(10.537 11.6126 0)
(10.0409 11.6188 -1.04948e-18)
(9.54615 11.6009 3.36037e-19)
(9.05395 11.5591 -2.67953e-19)
(8.56549 11.4936 1.2765e-18)
(8.08189 11.4049 0)
(7.60438 11.2932 3.58822e-19)
(7.13414 11.159 2.92708e-19)
(6.6724 11.0028 1.25371e-19)
(6.22018 10.8251 -7.49149e-20)
(5.77863 10.6264 -9.43939e-20)
(5.34878 10.4074 2.9931e-20)
(4.93153 10.1688 -1.34151e-21)
(4.52775 9.91115 1.01972e-19)
(4.13841 9.6354 0)
(3.76442 9.34246 0)
(3.40662 9.03315 8.02134e-20)
(3.06576 8.70841 9.68608e-20)
(2.7425 8.36916 2.08774e-19)
(2.43761 8.01636 2.39242e-19)
(2.15153 7.65112 0)
(1.88496 7.27433 2.97731e-19)
(1.63814 6.88743 3.28599e-19)
(1.41158 6.4915 0)
(1.20566 6.08798 -1.86613e-21)
(1.02091 5.6778 0)
(0.857555 5.26227 0)
(0.715872 4.84247 2.85397e-20)
(19.9601 0.430475 -1.02975e-19)
(20.0171 0.914747 2.01408e-19)
(20.0482 1.40195 -3.97092e-19)
(20.0531 1.8901 -2.1347e-19)
(20.0318 2.37769 0)
(19.984 2.86357 -8.26693e-19)
(19.9096 3.3472 -8.20635e-19)
(19.8098 3.82672 0)
(19.6857 4.30198 3.39322e-20)
(19.5374 4.77082 -7.92889e-19)
(19.3651 5.23119 1.49716e-18)
(19.1692 5.6821 1.47371e-18)
(18.9501 6.12242 0)
(18.7085 6.55095 -7.18014e-19)
(18.445 6.96646 -1.42595e-18)
(18.1606 7.36776 -7.03174e-19)
(17.8561 7.75397 2.05932e-18)
(17.5323 8.12423 -1.32311e-18)
(17.1901 8.47777 1.28731e-18)
(16.8306 8.81376 1.86867e-18)
(16.4549 9.13137 2.42612e-18)
(16.064 9.42982 1.19919e-18)
(15.659 9.70827 5.52152e-19)
(15.2408 9.96602 1.66847e-18)
(14.8106 10.2026 5.10844e-19)
(14.3694 10.4174 5.11266e-19)
(13.9185 10.61 4.63245e-19)
(13.459 10.7801 -1.34905e-18)
(12.9923 10.9273 8.36508e-19)
(12.5195 11.0514 7.80553e-19)
(12.0418 11.152 -1.51465e-18)
(11.5604 11.2292 7.34024e-19)
(11.0766 11.2829 -6.38875e-19)
(10.5918 11.3131 2.99956e-19)
(10.1071 11.3197 2.89661e-19)
(9.62388 11.3028 2.353e-19)
(9.14317 11.2625 -2.3683e-19)
(8.66608 11.1991 -2.2306e-19)
(8.19374 11.1129 -5.10307e-19)
(7.72738 11.0044 -2.95828e-19)
(7.26815 10.8739 -4.62248e-19)
(6.81716 10.722 -4.29611e-19)
(6.37558 10.5491 1.23809e-19)
(5.94445 10.3558 7.09563e-21)
(5.52479 10.1427 -1.53337e-21)
(5.11751 9.91031 3.07919e-20)
(4.72332 9.65943 -2.64102e-19)
(4.34323 9.39085 5.72434e-20)
(3.97805 9.10553 0)
(3.62874 8.80423 0)
(3.29589 8.48779 1.47909e-19)
(2.98031 8.1573 6.84121e-22)
(2.68263 7.81356 -1.94107e-19)
(2.4033 7.4576 0)
(2.14294 7.09026 -2.41301e-19)
(1.90175 6.71298 0)
(1.68027 6.32689 0)
(1.47872 5.93328 -2.32104e-19)
(1.29793 5.53325 -8.26299e-20)
(1.13785 5.12798 8.58716e-20)
(0.999062 4.71863 -4.55696e-20)
(19.8075 0.500301 1.8585e-21)
(19.8592 0.97162 -1.73966e-19)
(19.8855 1.44549 5.09799e-19)
(19.8866 1.92035 3.38173e-19)
(19.8623 2.39503 -4.98092e-19)
(19.8126 2.86824 3.33591e-19)
(19.7384 3.338 -2.42533e-21)
(19.6396 3.80227 -6.45725e-19)
(19.516 4.2609 9.83252e-19)
(19.3692 4.71306 -1.28072e-18)
(19.1992 5.15764 1.20534e-18)
(19.0064 5.59318 -1.28108e-18)
(18.7913 6.01859 -6.15471e-19)
(18.5545 6.43283 0)
(18.2967 6.83455 6.33364e-19)
(18.0188 7.22254 5.40785e-19)
(17.7212 7.59608 0)
(17.405 7.95419 1.0649e-18)
(17.0709 8.29618 0)
(16.7201 8.62129 -1.05307e-18)
(16.3536 8.92865 9.30169e-19)
(15.9725 9.21748 -4.02416e-20)
(15.5779 9.48688 -4.50292e-20)
(15.1706 9.73612 1.64587e-21)
(14.7516 9.96478 -1.75005e-18)
(14.322 10.1724 -7.95907e-19)
(13.883 10.3585 1.55528e-18)
(13.4357 10.5229 1.43812e-18)
(12.9815 10.6651 -7.17024e-19)
(12.5213 10.7849 0)
(12.0565 10.8818 0)
(11.588 10.9562 0)
(11.1172 11.0077 5.4651e-19)
(10.6453 11.0366 -1.91437e-18)
(10.1739 11.0426 8.88504e-19)
(9.70374 11.0258 -4.23615e-19)
(9.23608 10.9862 -6.77979e-19)
(8.77195 10.9242 6.36564e-19)
(8.31234 10.84 2.11681e-20)
(7.85853 10.7343 -2.00672e-19)
(7.41163 10.6072 2.20096e-19)
(6.9727 10.4595 1.43179e-19)
(6.54298 10.2915 0)
(6.12346 10.1038 -4.0169e-20)
(5.71513 9.89693 0)
(5.31895 9.67121 7.5999e-20)
(4.93537 9.42761 -3.96988e-20)
(4.56542 9.16684 0)
(4.20975 8.88988 9.35146e-20)
(3.86968 8.59743 1.9449e-20)
(3.54546 8.29021 -2.45594e-19)
(3.23793 7.96935 1.44346e-19)
(2.9479 7.63563 9.51398e-20)
(2.67554 7.29001 -1.74246e-19)
(2.42175 6.93326 8.06137e-21)
(2.1861 6.56668 -1.05781e-19)
(1.96964 6.1915 -5.70197e-20)
(1.77227 5.809 -1.2683e-19)
(1.59511 5.42029 3.3632e-19)
(1.43779 5.02648 -1.43065e-19)
(1.30141 4.62869 1.89459e-20)
(19.6486 0.550672 3.65624e-20)
(19.6957 1.00723 0)
(19.7182 1.4659 -5.69825e-19)
(19.7163 1.92552 0)
(19.6899 2.38476 2.83445e-19)
(19.6393 2.84224 8.29134e-19)
(19.5646 3.29654 5.43754e-19)
(19.4659 3.74715 1.10236e-18)
(19.3437 4.19213 9.57679e-21)
(19.1989 4.63062 -6.74633e-21)
(19.0317 5.0612 -5.93353e-20)
(18.8425 5.48286 -5.2392e-19)
(18.6317 5.89459 5.0581e-19)
(18.4 6.29544 -1.48284e-18)
(18.1483 6.68419 1.00583e-18)
(17.8771 7.05958 -4.80617e-20)
(17.5869 7.42083 -9.12064e-19)
(17.2785 7.76707 -9.34106e-19)
(16.9528 8.09778 0)
(16.611 8.41234 8.36344e-19)
(16.2541 8.70978 -3.73617e-20)
(15.8833 8.98934 -1.64481e-18)
(15.4995 9.25006 -5.67586e-21)
(15.1036 9.49104 -6.8278e-19)
(14.6963 9.71211 2.07746e-18)
(14.2788 9.91279 -3.43838e-20)
(13.8521 10.0927 -6.63209e-19)
(13.4175 10.2518 -6.9619e-20)
(12.9763 10.3894 0)
(12.5294 10.5052 0)
(12.078 10.5989 0)
(11.6229 10.6708 0)
(11.1656 10.7207 0)
(10.7073 10.749 5.32133e-20)
(10.2496 10.7549 -3.44321e-19)
(9.79318 10.7387 3.88145e-20)
(9.33918 10.7004 5.25073e-20)
(8.88857 10.6402 2.21344e-19)
(8.4421 10.5586 4.20434e-19)
(8.00123 10.4562 -5.23829e-19)
(7.56708 10.3331 3.07872e-19)
(7.14051 10.1901 -9.54198e-20)
(6.72296 10.0276 0)
(6.31541 9.84623 3.5008e-20)
(5.91876 9.64642 0)
(5.53419 9.42811 -3.94804e-20)
(5.16141 9.19255 7.61636e-20)
(4.80205 8.94037 -5.29462e-20)
(4.45613 8.67274 -6.69785e-20)
(4.1256 8.39004 1.0071e-19)
(3.81028 8.09292 1.8894e-20)
(3.51101 7.78269 1.52332e-20)
(3.22884 7.45984 -2.77707e-19)
(2.96363 7.12551 3.1675e-19)
(2.71658 6.78005 1.73492e-19)
(2.48655 6.42509 9.07292e-20)
(2.2753 6.06162 3.02042e-19)
(2.08175 5.69116 0)
(1.90818 5.31462 -2.31189e-19)
(1.75342 4.93323 6.14243e-20)
(1.61934 4.54782 0)
(19.4753 0.603346 0)
(19.5172 1.0445 0)
(19.5356 1.48772 2.46984e-19)
(19.5304 1.93156 -4.7309e-19)
(19.5018 2.37507 -2.44055e-19)
(19.45 2.81698 -1.1849e-18)
(19.3751 3.25559 4.57425e-19)
(19.2769 3.68987 -9.45558e-19)
(19.156 4.11947 1.5274e-20)
(19.0134 4.54312 1.34e-18)
(18.8496 4.95885 -1.7884e-18)
(18.6644 5.36578 0)
(18.4583 5.76285 0)
(18.232 6.1498 1.69301e-18)
(17.9867 6.52518 8.18176e-19)
(17.723 6.88703 -1.66022e-18)
(17.4406 7.23525 2.37713e-18)
(17.1406 7.5689 7.56073e-19)
(16.8237 7.88764 -1.48205e-18)
(16.491 8.19121 -7.43657e-19)
(16.1443 8.47814 6.8616e-19)
(15.7842 8.74805 -6.99787e-20)
(15.4119 8.99981 0)
(15.0283 9.23188 1.28483e-18)
(14.6332 9.44487 -1.81267e-18)
(14.2283 9.63824 5.83979e-19)
(13.8146 9.81152 1.05109e-18)
(13.3931 9.96504 -2.55177e-18)
(12.9657 10.0977 4.99344e-19)
(12.5329 10.2097 0)
(12.096 10.2996 0)
(11.6549 10.3692 0)
(11.2121 10.4174 3.46478e-19)
(10.7678 10.4454 9.80532e-19)
(10.3251 10.4516 -5.78351e-19)
(9.88323 10.4362 2.52321e-19)
(9.4438 10.3995 2.41691e-19)
(9.00783 10.341 -4.30214e-19)
(8.57522 10.2621 0)
(8.14795 10.1632 -2.41779e-19)
(7.72738 10.0442 1.25758e-19)
(7.31356 9.9062 1.3961e-20)
(6.90858 9.7496 9.69175e-21)
(6.51361 9.57487 3.01956e-20)
(6.129 9.38289 -1.04941e-20)
(5.75717 9.17229 1.48099e-19)
(5.39556 8.9455 -6.36245e-20)
(5.04764 8.70233 2.18253e-19)
(4.7115 8.44494 0)
(4.39154 8.17292 0)
(4.08561 7.88656 -3.94462e-19)
(3.79478 7.58783 1.07329e-19)
(3.52142 7.27676 2.46477e-19)
(3.26343 6.9546 1.45743e-19)
(3.02427 6.62106 -4.59443e-19)
(2.79973 6.27835 -2.57263e-19)
(2.59427 5.92715 -9.47187e-20)
(2.40417 5.56964 -2.07202e-21)
(2.2349 5.20617 1.01503e-19)
(2.08228 4.83797 0)
(1.95098 4.46572 0)
(19.282 0.65333 -2.49277e-20)
(19.3182 1.07801 0)
(19.332 1.50492 0)
(19.323 1.93232 2.09552e-19)
(19.2919 2.35915 0)
(19.239 2.78444 8.07059e-19)
(19.1646 3.20649 3.97981e-19)
(19.0671 3.62367 -7.81601e-19)
(18.947 4.03783 0)
(18.807 4.44686 -7.93211e-19)
(18.6477 4.84616 4.34542e-20)
(18.467 5.23757 0)
(18.2665 5.61881 0)
(18.0458 5.99102 -7.39414e-19)
(17.8072 6.35317 6.82849e-19)
(17.5522 6.70029 -7.0713e-19)
(17.2783 7.03477 -6.8942e-19)
(16.987 7.3555 0)
(16.6795 7.66117 6.51497e-19)
(16.3564 7.95323 -1.18829e-18)
(16.0206 8.22874 -1.1481e-18)
(15.6718 8.48861 -1.17877e-18)
(15.3114 8.73167 -9.33439e-21)
(14.9417 8.95362 -9.73598e-19)
(14.5592 9.15802 1.03245e-18)
(14.1671 9.34401 9.30858e-19)
(13.7675 9.50965 -9.44635e-19)
(13.3593 9.65764 5.89077e-20)
(12.9467 9.78453 9.69381e-22)
(12.5279 9.89348 -7.90104e-19)
(12.1071 9.97847 0)
(11.6798 10.0465 -6.30464e-19)
(11.253 10.092 1.21475e-18)
(10.8227 10.121 -4.56324e-20)
(10.3969 10.1277 5.20206e-19)
(9.97089 10.1133 -4.23979e-19)
(9.54712 10.0786 3.60657e-19)
(9.12783 10.0215 2.59163e-19)
(8.7098 9.94553 -5.6968e-19)
(8.29666 9.85042 2.39794e-19)
(7.89132 9.73567 1.54127e-19)
(7.49008 9.60266 1.64104e-19)
(7.09773 9.45188 -3.56564e-20)
(6.71633 9.28409 0)