/*--------------------------------*- C++ -*----------------------------------*\
| =========                 |                                                 |
| \\      /  F ield         | OpenFOAM: The Open Source CFD Toolbox           |
|  \\    /   O peration     | Version:  2.3.1                                 |
|   \\  /    A nd           | Web:      www.OpenFOAM.org                      |
|    \\/     M anipulation  |                                                 |
\*---------------------------------------------------------------------------*/
FoamFile
{
    version     2.0;
    format      ascii;
    class       volScalarField;
    location    "0.15";
    object      epsilon;
}
// * * * * * * * * * * * * * * * * * * * * * * * * * * * * * * * * * * * * * //

dimensions      [0 2 -3 0 0 0 0];

internalField   nonuniform List<scalar> 
15166
(
1051.18
962.917
945.023
994.159
1026.12
1045.33
1011.47
928.065
830.73
720.004
610.466
519.124
1052.72
845.05
877.976
934.346
968.473
983.149
947.225
869.935
777.676
675.6
575.118
484.594
1065.59
752.9
813.993
876.239
913.031
924.879
889.086
817.292
730.551
636.005
542.668
455.181
1082.23
683.456
757.034
822.384
860.836
870.759
836.21
769.518
688.303
600.343
512.748
427.434
1100.34
631.046
707.432
773.685
812.667
821.055
788.172
726.155
650.197
568.065
485.448
403.577
1119.92
590.639
663.981
729.728
768.436
775.577
744.476
686.717
615.667
538.687
460.432
381.553
1141.04
558.946
625.635
689.897
727.784
733.909
704.602
650.75
584.207
511.807
437.306
360.494
1163.32
533.866
591.669
653.707
690.382
695.676
668.113
617.83
555.417
487.126
416.053
342.072
1186.55
513.945
561.516
620.766
655.945
660.54
634.627
587.598
528.97
464.397
396.486
325.232
1210.44
498.108
534.67
590.713
624.206
628.192
603.822
559.767
504.59
443.405
378.494
310.322
1234.73
485.55
510.699
563.221
594.909
598.356
575.409
534.067
482.053
423.98
361.904
296.632
1259.33
475.647
489.23
538.009
567.822
570.779
549.141
510.273
461.158
405.972
346.706
284.934
1284.07
467.925
469.954
514.827
542.732
545.234
524.794
488.187
441.74
389.249
332.735
274.474
1308.84
462.001
452.604
493.465
519.452
521.528
502.177
467.644
423.649
373.668
319.652
263.409
1333.47
457.573
436.953
473.739
497.815
499.481
481.126
448.486
406.766
359.148
307.562
254.182
1357.96
454.393
422.806
455.487
477.672
478.943
461.497
430.598
390.972
345.567
296.311
245.526
1382.14
452.262
409.991
438.569
458.889
459.774
443.154
413.851
376.174
332.856
285.794
237.268
1406.06
451.012
398.368
422.861
441.348
441.851
425.981
398.157
362.292
320.932
275.939
229.519
1429.6
450.5
387.805
408.253
424.942
425.066
409.884
383.413
349.24
309.726
266.704
222.394
1452.64
450.617
378.195
394.648
409.575
409.324
394.762
369.548
336.95
299.184
258.028
215.678
1475.14
451.255
369.438
381.961
395.163
394.535
380.54
356.487
325.365
289.238
249.831
209.129
1497.17
452.342
361.449
370.114
381.628
380.626
367.145
344.169
314.423
279.842
242.063
202.868
1518.71
453.791
354.151
359.038
368.903
367.524
354.51
332.532
304.078
270.949
234.665
196.647
1539.52
455.563
347.481
348.673
356.925
355.167
342.578
321.525
294.285
262.523
227.629
190.821
1559.77
457.609
341.379
338.963
345.639
343.5
331.297
311.107
285.002
254.518
220.922
185.21
1579.32
459.857
335.791
329.858
334.994
332.474
320.619
301.231
276.192
246.912
214.535
179.974
1598.2
462.287
330.67
321.312
324.942
322.04
310.5
291.859
267.82
239.671
208.451
174.975
1616.46
464.86
325.973
313.284
315.444
312.158
300.899
282.957
259.857
232.776
202.653
170.314
1633.99
467.565
321.668
305.736
306.46
302.788
291.786
274.49
252.276
226.203
197.141
165.964
1650.89
470.396
317.715
298.634
297.955
293.897
283.124
266.436
245.05
219.934
191.871
161.658
1667.1
473.274
314.084
291.947
289.898
285.451
274.884
258.76
238.159
213.946
186.848
157.656
1682.45
476.231
310.747
285.646
282.259
277.424
267.037
251.445
231.579
208.224
182.036
153.724
1696.95
479.242
307.688
279.704
275.01
269.788
259.563
244.463
225.293
202.752
177.441
150.088
1711.03
482.267
304.876
274.099
268.13
262.519
252.435
237.796
219.283
197.517
173.04
146.515
1724.13
485.309
302.299
268.807
261.593
255.594
245.633
231.426
213.536
192.504
168.83
143.185
1736.46
488.374
299.933
263.811
255.379
248.992
239.136
225.334
208.033
187.699
164.789
139.871
1748.26
491.44
297.768
259.087
249.468
242.694
232.93
219.506
202.758
183.09
160.908
136.729
1759.15
494.501
295.785
254.621
243.842
236.681
226.993
213.923
197.702
178.668
157.19
133.833
1769.4
497.558
293.972
250.396
238.486
230.941
221.312
208.573
192.851
174.426
153.621
130.981
1778.98
500.604
292.315
246.397
233.382
225.453
215.875
203.446
188.197
170.351
150.209
128.37
1787.56
503.673
290.803
242.614
228.52
220.208
210.667
198.526
183.726
166.433
146.908
125.586
1795.49
506.855
289.437
239.034
223.885
215.19
205.676
193.806
179.431
162.664
143.708
122.772
1802.51
510.052
288.197
235.643
219.464
210.389
200.89
189.272
175.3
159.035
140.629
120.291
1808.91
513.336
287.1
232.434
215.247
205.793
196.298
184.917
171.328
155.541
137.657
117.794
1814.59
516.547
286.173
229.402
211.221
201.39
191.892
180.731
167.505
152.173
134.796
115.527
1819.45
519.588
285.393
226.543
207.379
197.17
187.659
176.705
163.824
148.927
132.028
113.163
1823.55
522.697
284.738
223.863
203.71
193.125
183.595
172.832
160.279
145.796
129.366
111.089
1827.09
525.631
284.195
221.336
200.21
189.25
179.689
169.104
156.862
142.776
126.792
108.947
1829.87
528.485
283.725
218.961
196.873
185.535
175.934
165.515
153.567
139.861
124.315
107.006
1831.92
531.272
283.374
216.725
193.691
181.973
172.322
162.055
150.387
137.044
121.912
104.984
1833.24
533.904
283.103
214.622
190.656
178.555
168.846
158.719
147.316
134.322
119.596
103.181
1833.94
536.593
282.912
212.649
187.764
175.277
165.503
155.504
144.351
131.689
117.358
101.425
1833.99
539.095
282.79
210.789
185.006
172.132
162.285
152.403
141.488
129.144
115.184
99.5427
1833.3
541.566
282.737
209.049
182.378
169.114
159.187
149.412
138.721
126.682
113.08
97.8538
1832.09
543.966
282.746
207.417
179.873
166.22
156.205
146.525
136.047
124.299
111.046
96.2376
1830.32
546.296
282.816
205.887
177.484
163.443
153.333
143.739
133.461
121.994
109.086
94.7554
1827.77
548.439
282.937
204.456
175.21
160.778
150.568
141.05
130.963
119.763
107.187
93.228
1824.69
550.648
283.115
203.127
173.044
158.221
147.906
138.455
128.546
117.605
105.353
91.8308
1821.08
552.661
283.345
201.887
170.985
155.771
145.341
135.949
126.209
115.515
103.561
90.2037
1816.7
554.622
283.598
200.725
169.021
153.419
142.872
133.531
123.95
113.49
101.824
88.7831
1811.85
556.444
283.924
199.655
167.155
151.165
140.493
131.194
121.762
111.529
100.145
87.4914
1806.5
558.294
284.295
198.666
165.384
149.004
138.203
128.938
119.647
109.628
98.5247
86.2818
1800.55
559.967
284.706
197.754
163.698
146.933
135.998
126.759
117.6
107.789
96.9539
85.0218
1793.96
561.589
285.132
196.925
162.102
144.949
133.874
124.655
115.619
106.006
95.4346
83.8452
1786.86
563.063
285.627
196.16
160.589
143.049
131.831
122.624
113.703
104.28
93.9581
82.6156
1779.11
564.509
286.134
195.465
159.16
141.23
129.864
120.662
111.849
102.608
92.5259
81.477
1771.25
565.923
286.683
194.848
157.806
139.491
127.972
118.769
110.056
100.987
91.1321
80.2944
1762.14
567.171
287.259
194.29
156.528
137.828
126.152
116.941
108.32
99.4163
89.7814
79.2281
1753.05
568.367
287.88
193.799
155.328
136.241
124.402
115.178
106.642
97.8943
88.4704
78.1603
1743.62
569.455
288.536
193.374
154.195
134.723
122.72
113.475
105.018
96.4194
87.2018
77.1753
1733.29
570.545
289.211
193.018
153.136
133.275
121.104
111.834
103.448
94.9913
85.9692
76.1506
1722.55
571.333
289.929
192.717
152.145
131.899
119.551
110.25
101.929
93.6069
84.7737
75.217
1711.29
572.285
290.642
192.461
151.217
130.587
118.063
108.724
100.46
92.2667
83.6186
74.3076
1699.59
572.998
291.466
192.297
150.368
129.345
116.638
107.254
99.0417
90.969
82.497
73.389
1687.37
573.624
292.244
192.171
149.57
128.163
115.269
105.837
97.6695
89.7111
81.4075
72.5202
1675.14
574.33
293.078
192.112
148.843
127.043
113.96
104.473
96.3443
88.4939
80.3488
71.6058
1662
574.803
293.925
192.104
148.182
125.987
112.709
103.163
95.0663
87.3153
79.3199
70.7616
1648.08
575.07
294.787
192.157
147.579
124.992
111.514
101.901
93.8318
86.1756
78.3213
69.9048
1634.17
575.461
295.703
192.265
147.04
124.055
110.375
100.69
92.6425
85.0727
77.3534
69.1152
1620.05
575.687
296.636
192.435
146.558
123.178
109.29
99.5279
91.4957
84.0073
76.4118
68.2826
1605
575.805
297.618
192.658
146.142
122.361
108.258
98.414
90.3896
82.9762
75.5001
67.5292
1589.71
575.852
298.585
192.945
145.789
121.603
107.278
97.3472
89.3252
81.9787
74.6177
66.8327
1573.99
575.777
299.57
193.279
145.491
120.898
106.353
96.3277
88.3027
81.0169
73.7661
66.1295
1557.82
575.62
300.606
193.667
145.256
120.253
105.48
95.3558
87.3209
80.0908
72.9398
65.3934
1541.23
575.395
301.663
194.112
145.086
119.664
104.657
94.4292
86.3784
79.1967
72.141
64.7297
1524.64
575.095
302.75
194.637
144.968
119.13
103.886
93.5454
85.4754
78.3375
71.3681
64.0407
1507.23
574.644
303.855
195.208
144.916
118.658
103.166
92.7091
84.6105
77.5088
70.6209
63.4393
1489.47
574.094
304.978
195.824
144.933
118.241
102.499
91.9174
83.784
76.7144
69.9016
62.7989
1471.32
573.439
306.123
196.508
145.004
117.885
101.884
91.1712
82.9975
75.9524
69.207
62.1819
1452.77
572.701
307.333
197.268
145.146
117.587
101.319
90.4696
82.2503
75.2229
68.5324
61.5171
1433.85
571.841
308.512
198.065
145.345
117.342
100.806
89.8111
81.539
74.5228
67.8884
61.0472
1414.56
570.861
309.711
198.943
145.617
117.163
100.344
89.1984
80.8688
73.8599
67.2794
60.5267
1395.29
569.895
310.974
199.881
145.954
117.043
99.9354
88.6329
80.2372
73.2272
66.6968
60.0625
1374.92
568.64
312.24
200.878
146.359
116.99
99.5818
88.1131
79.6447
72.6284
66.1422
59.5876
1354.95
567.414
313.521
201.939
146.84
116.992
99.2839
87.6411
79.0909
72.0626
65.6162
59.1543
1334.27
565.99
314.803
203.057
147.38
117.064
99.0406
87.2152
78.5784
71.5326
65.1175
58.6901
1313.26
564.545
316.147
204.263
148.003
117.201
98.855
86.839
78.1068
71.0349
64.6447
58.2942
1291.89
562.856
317.491
205.531
148.7
117.411
98.7295
86.5099
77.6763
70.5714
64.2001
57.8824
1270.58
561.241
318.849
206.865
149.482
117.685
98.6626
86.2326
77.2872
70.1437
63.7853
57.5263
1248.59
559.325
320.247
208.289
150.343
118.041
98.658
86.01
76.9438
69.7532
63.3989
57.1366
1226.28
557.349
321.644
209.776
151.282
118.464
98.7189
85.839
76.6432
69.3982
63.0395
56.8199
1203.65
555.227
323.044
211.355
152.318
118.971
98.8449
85.7213
76.3876
69.0796
62.7148
56.5472
1180.72
552.942
324.488
213.003
153.438
119.557
99.043
85.6644
76.1821
68.8039
62.4248
56.2597
1157.52
550.57
325.925
214.721
154.658
120.234
99.3116
85.6663
76.0265
68.5689
62.1666
55.9953
1134.36
548.123
327.404
216.536
155.97
121.002
99.6543
85.7313
75.9209
68.3741
61.9423
55.8047
1110.61
545.468
328.872
218.449
157.393
121.861
100.078
85.8601
75.8681
68.2261
61.7582
55.6147
1086.9
542.731
330.378
220.437
158.913
122.813
100.587
86.0592
75.8719
68.1206
61.6081
55.4906
1062.64
539.753
331.862
222.503
160.55
123.875
101.183
86.3322
75.9364
68.0664
61.5027
55.3939
1037.75
536.583
333.373
224.7
162.3
125.049
101.874
86.6801
76.0627
68.0641
61.4382
55.3065
1013.2
533.426
334.921
226.958
164.178
126.335
102.665
87.1081
76.2555
68.114
61.4163
55.2678
988.181
530.045
336.451
229.353
166.194
127.749
103.56
87.628
76.5208
68.2229
61.4414
55.2373
962.878
526.46
338
231.838
168.335
129.289
104.57
88.2387
76.8606
68.3947
61.52
55.2885
937.666
522.802
339.532
234.438
170.627
130.981
105.698
88.9505
77.2841
68.6353
61.6612
55.3828
911.984
518.908
341.077
237.135
173.074
132.816
106.962
89.7669
77.7935
68.9438
61.8486
55.4439
886.055
514.803
342.671
239.986
175.688
134.811
108.359
90.7011
78.3946
69.324
62.0918
55.6069
859.951
510.584
344.194
242.933
178.457
136.969
109.906
91.7555
79.0938
69.786
62.4063
55.814
833.638
506.156
345.767
246.018
181.413
139.322
111.612
92.9455
79.9037
70.3377
62.7885
56.1012
807.421
501.616
347.318
249.218
184.564
141.865
113.502
94.2858
80.8386
70.9883
63.2557
56.4511
781.08
496.825
348.9
252.593
187.928
144.624
115.58
95.7846
81.9035
71.7503
63.8177
56.9103
754.118
491.753
350.426
256.091
191.512
147.618
117.875
97.4673
83.1129
72.6301
64.4804
57.4304
727.166
486.563
351.96
259.769
195.322
150.862
120.392
99.3425
84.4833
73.633
65.2291
57.954
700.359
481.186
353.497
263.592
199.402
154.383
123.163
101.428
86.0286
74.778
66.0947
58.6422
673.504
475.57
355.026
267.597
203.759
158.205
126.215
103.76
87.775
76.0904
67.1068
59.4439
646.127
469.699
356.537
271.813
208.408
162.357
129.585
106.356
89.7415
77.5804
68.2499
60.3659
618.982
463.655
358.06
276.219
213.401
166.88
133.295
109.259
91.9583
79.2705
69.5626
61.4032
591.867
457.37
359.588
280.862
218.751
171.813
137.398
112.497
94.4569
81.187
71.0503
62.6063
564.324
450.852
361.134
285.789
224.538
177.216
141.955
116.134
97.2835
83.3711
72.7608
63.9916
537.007
444.138
362.75
291.019
230.801
183.156
147.016
120.22
100.486
85.8641
74.7169
65.5485
509.571
437.242
364.475
296.656
237.635
189.719
152.679
124.824
104.117
88.7008
76.9471
67.3147
482.189
430.198
366.422
302.801
245.15
197.028
159.027
130.026
108.245
91.9291
79.4815
69.3478
454.64
423.142
368.756
309.664
253.543
205.213
166.201
135.931
112.949
95.6194
82.3929
71.6758
427.063
416.377
371.905
317.593
263.085
214.502
174.354
142.667
118.316
99.8342
85.7081
74.3389
399.185
410.734
376.631
327.163
274.13
225.121
183.635
150.341
124.454
104.645
89.4785
77.2907
370.981
409.339
385.173
339.744
287.409
237.529
194.383
159.221
131.54
110.192
93.784
80.6187
338.803
412.586
395.41
353.952
301.212
250.281
205.466
168.657
139.093
116.203
98.4761
84.3791
190.74
0.0012227
5.11165
3.80883
3.78056
11.5968
11.1135
83.4192
38.059
21.1579
5.99802
0.00245586
0.0191322
502.587
10.7291
0.000847432
417.962
0.170958
0.162582
0.00082684
2.4057
5.66317
0.21102
0.0158222
196.278
5.07965
3.9508
13.6034
13.4488
41.4151
11.614
368.418
0.00105473
5.85132
0.0179612
2.16349
88.8698
10.124
30.8573
0.00264603
0.212026
0.000785723
0.100577
18.9823
25.8526
5.44738
0.047927
0.0122253
26.1169
2.38133
2.12436
79.9313
20.3835
0.000749074
182.962
0.00113473
0.00360155
0.000785068
10.1514
9.91887
3.43388
382.96
0.0007466
0.00748809
0.604554
0.0011641
62.4112
19.9132
328.631
14.8736
156.536
0.0408715
29.4533
35.8547
0.0162463
0.000764647
34.577
0.00071628
0.0663444
11.789
0.167537
0.000717875
77.907
22.5958
0.00701046
58.4228
61.8046
0.000739843
4.00751
27.7502
20.5907
21.4474
0.0007415
0.000957798
57.435
0.000763567
12.7162
0.00661448
0.000728761
63.4648
126.932
0.986923
0.000782468
0.00109611
0.000717175
72.3739
63.3739
105.432
15.7529
0.0303441
0.515564
0.000718358
8.476
0.000901876
0.000734503
8.39104
0.00943426
1.43081
57.8461
0.499636
103.797
0.0170313
150.864
0.848092
0.254603
43.4295
0.0010232
1338.49
0.0178753
0.000742406
125.424
0.000758844
92.886
0.00110065
4.11202
0.00138196
30.4625
10.3918
8.96445
0.00161935
0.00757487
2.88476
15.5438
0.114337
32.8429
168.6
18.6276
0.00117088
52.1262
23.0173
0.429379
8.06257
0.000721366
0.214901
0.532375
0.000723194
12.9399
0.000760977
74.3047
0.00216829
0.0150712
0.000856997
0.256993
0.00542246
2.52188
0.165165
315.534
32.72
19.6797
0.000716598
175.458
39.7853
184.355
0.00819072
0.000718371
14.8818
0.00071688
22.5085
0.657072
29.1547
331.45
2.62174
0.0677666
28.0703
0.000798468
14.0626
0.000739722
0.000723343
31.7412
0.000735997
7.20323
0.000725539
203.231
0.00127347
16.7297
14.6839
11.4661
4.75678
0.000718307
352.77
53.6537
21.4135
58.3262
9.57493
21.3271
0.118404
0.143398
1.13674
32.6723
1.18115
149.747
44.4272
49.9395
37.2526
0.000723784
16.5436
0.00536444
8.89428
367.075
22.7434
22.353
53.8504
26.8774
0.000728165
0.000732537
45.2488
58.5009
0.000754518
1332.51
0.017626
165.484
0.237017
0.000719904
73.9941
8.13256
13.1012
12.3037
59.2624
27.7903
21.2252
0.394453
0.327893
27.176
78.9755
180.176
141.924
87.9576
0.000826878
37.2398
17.4782
13.6162
35.6666
4.27496
3726.26
23.782
1.40186
3.05048
19.8267
11.4523
26.8496
1.17646
13.71
0.00655367
0.138809
575.653
14.2806
49.8858
50.0836
6.23099
162.703
9.07116
0.036169
150.527
90.3951
88.3822
160.607
32.6774
107.517
31.7155
28.9742
182.793
32.1913
28.7675
22.2367
20.9506
11.5983
9.95362
84.4454
73.9719
2.00051
28.5664
146.319
101.142
100.567
17.7748
195.254
0.632391
88.0665
0.0575794
58.3395
6.66131
0.699399
331.714
180.886
0.490591
45.0646
35.7526
0.000736981
0.575629
0.416658
0.557731
43.1815
0.000725779
84.4599
21.6947
0.0778045
94.5099
36.7652
0.000722921
423.929
0.0233282
11.4639
8.51235
8346.77
53.231
36.4127
15.06
0.000720289
0.000741392
42.3435
10.7559
0.000732202
8.67376
0.000720104
0.000740154
0.000751932
0.000716809
0.191836
0.000726076
0.00170652
106.724
51.5923
0.000755452
20.151
0.00325992
78.195
144.739
75.5943
973.701
12.1507
0.000716785
0.000755959
0.0797184
0.646534
95.8559
0.000718294
0.144301
26.9295
43.6835
4.19846
29.2195
27.5128
60.9861
889.191
2.46791
3.82582
0.000892842
0.000735388
1.14184
3.60681
0.18932
29.6521
53.6897
4979.69
149.674
2.94156
23.7799
55.9141
0.000735275
7.01176
40.5197
0.00145145
0.000747686
53.7309
3506.13
84.5812
0.00072666
0.0402617
3.98537
0.0128774
0.000747891
45.7364
5.34366
19.4911
17.6414
0.000924956
811.569
0.000722731
1.27566
15.3884
0.0018864
0.00422125
77.1765
0.00290759
37.6914
307.306
72.8057
21.4467
42.6921
103.055
0.000720127
0.000731146
0.000729158
64.3134
0.0708042
321.928
5056.81
4.72985
62.2135
0.000740846
0.0454976
15.4947
0.00071713
0.000728056
100.241
0.000729125
1.31014
46.6724
29.9438
0.000717292
0.00233364
0.205106
0.188086
11.4712
0.314751
0.000716431
717.714
46.5965
0.799838
0.00474143
36.2105
91.0174
0.00211825
16.0004
0.00201652
53.8893
0.000839947
13.1255
0.972708
0.000717091
63.2668
11.6077
168.968
0.00326794
7.85023
2.82938
0.00142535
91.978
54.5845
1.96666
217.268
0.0126889
0.0373165
0.00419496
100.923
26.5904
0.179996
2.47371
4.08639
167.992
0.64342
87.3412
1128.21
0.000719443
178
47.987
10.7198
0.000717088
21.7418
79.0177
0.134527
87.0672
25.0591
1.84299
0.26018
31.5102
118.967
0.000863221
0.00886074
47.4393
0.026853
0.00190903
243.996
961.935
0.0269776
24.4942
44.1636
0.420252
47.875
29.2396
44.7277
20.2481
26.8312
0.000765463
0.163721
48.4913
19.4252
100.259
23.5575
81.0994
179.525
879.077
62.1567
1.97699
0.000727548
200.82
92.7731
39.506
8.21865
1.00365
0.115616
8.85956
0.000773993
18.4357
0.000732005
38.8607
8.47022
94.5215
30.8336
64.233
112.819
102.392
24.8543
188.295
0.000759152
0.291701
49.4001
1328.86
7.89602
19.1423
0.000863875
0.0161516
4.80559
98.2314
14.5698
0.000716968
0.0529555
0.000717374
0.0449738
21.1276
0.0238783
55.1108
2.83048
75.6736
0.344572
0.389884
304.962
652.157
0.000740019
0.000740588
5.55493
166.904
19.4975
10.4056
2.61516
25.9178
21.5182
0.000717046
0.634546
13.1368
0.00129428
66.6973
13.8101
28.4494
19.361
0.00464582
0.000718001
0.0122997
0.000721567
22.2747
16.1528
127.427
18.5529
0.000736481
119.633
0.10143
122.452
1.75905
167.488
0.0265237
0.395605
0.000722931
40.8952
566.269
21.2381
3.55406
0.000716615
88.7434
38.1464
52.7284
0.000731746
0.39422
48.1782
22.3825
0.00172024
1080.94
0.000902875
48.1884
23.6458
0.00086987
2.0826
0.112854
0.837418
0.000716974
0.000741752
62.9633
38.9786
20.9848
56.5498
0.00129001
1.97321
0.17189
38.2687
8.5279
0.000991642
1.36129
407.412
0.000716552
0.00258746
28.7231
138.102
76.3749
0.000726424
690.018
25.8993
99.8208
0.0155389
2.60934
148.485
0.00073482
104.008
2.49815
18.9361
6.13651
36.7346
6.42706
80.3954
83.593
16.52
4692.36
0.000747422
0.000722469
122.553
40.5306
0.00124618
0.000724473
7.3252
0.00074533
44.6686
54.5134
0.885138
0.00072958
33.1452
0.209281
23.6085
54.4793
27.6211
0.220952
2.29445
102.246
0.000738982
2.07453
52.014
23.4789
14.6771
0.00212002
8.37967
2.08726
2761.4
0.000718558
2.49503
29.9723
19.0241
0.000787069
0.134763
31.5028
59.4897
63.625
0.048925
175.031
34.0672
0.273012
32.7165
0.000719444
0.00222205
6.97843
0.000716851
28.0651
0.000726828
117.157
0.0040943
49.1009
0.000772919
0.912556
55.4312
105.544
5.88041
26.0754
0.32317
204.361
0.00687115
0.125374
14.8111
0.000717318
0.000745042
28.9886
0.320174
95.7503
27.27
0.000775745
91.8998
106.389
83.5927
5.60624
154.281
97.9175
0.000740802
2377.67
3998.57
51.8815
0.00075972
0.00372239
236.084
58.0327
0.000721955
75.8104
0.000717551
0.0885585
258.764
0.000839927
17.5215
0.000722384
0.052214
125.067
0.000762143
0.000999259
0.000735025
0.000935682
0.0118178
902.678
44.1151
0.277853
11.9588
0.000727087
40.6982
0.000729533
8.60513
1.38602
0.0118554
4.55838
0.00524082
61.6116
0.000743677
10033.3
3.2398
24.9354
193.174
4.88516
0.000716151
27.7764
166.668
2.04995
40.3735
50.2426
159.354
24.1525
0.0302477
23.8859
0.142671
0.00100472
0.254196
3900.74
135.637
0.999354
0.0221571
22.7263
0.000906764
7.36809
44.5184
161.274
53.1647
52.1573
0.0251329
0.0017197
35.3876
26.5243
0.0408856
46.1032
0.000728451
117.578
186.642
0.000770979
150.947
41.7324
1.16985
0.126401
120.802
0.0133856
0.281266
10.7446
2.30142
2.17777
0.000752844
22.2319
0.0914205
148.77
29.1151
82.4415
5.05798
0.00210658
31.4046
0.000730638
0.000725096
10.8877
0.123591
1.59948
180.777
0.000717424
60.6367
0.12872
0.0470423
0.000826606
140.828
6.3124
0.320157
34.2293
0.0473926
313.856
3.9813
0.000720573
244.446
233.549
0.00147641
0.00280099
80.1381
21.6272
0.381834
239.526
0.0226501
1.52812
0.211049
0.306587
26.9281
96.3079
0.000736597
82.9788
24.1839
0.00592703
0.971049
1343.22
17.6695
0.000731219
0.000722928
29.3207
25.1383
56.8923
0.000717803
28.8199
2.21433
34.4301
0.000929209
164.873
39.921
0.00144478
18.2208
0.000739492
74.7172
33.8896
31.0077
42.3727
0.000723389
0.000721146
9.90841
92.6934
4.38671
32.1677
0.000718795
0.0366633
0.000748428
0.0017973
32.3202
0.0723171
0.31374
0.870123
23.8553
148.713
25.6878
53.7229
0.000728637
32.0288
32.0898
22.655
0.000738922
36.0006
0.000740165
0.000727382
0.130617
22.5029
0.0135693
331.553
37.401
279.906
0.000760917
0.00132165
0.0275971
114.509
3.51156
151.33
0.000726813
0.000725412
0.00183916
0.00270965
120.782
38.0913
86.4075
0.245822
0.0292915
2.96188
3.97123
59.6897
15.8089
52.8694
19.7252
0.000716756
169.567
0.00149146
1.32181
53.6416
27.8023
1.12501
0.557816
0.000924839
89.8174
5.8301
15.786
31.1285
0.000724694
69.5871
36.7604
167.196
0.00333076
50.7553
50.8584
48.6982
183.467
22.932
55.8325
0.219727
790.344
3.77978
0.146186
121.587
0.000729173
80.1441
177.511
0.000722159
30.0631
0.00126344
105.691
103.506
1.3554
20.7909
109.336
82.0866
13.9654
0.889179
51.7257
9.75884
0.00474646
0.000725626
20.1017
0.0686635
15.865
60.1736
3.42629
46.389
108.585
0.00072126
17.6406
470.711
247.793
10.6926
105.806
14.6545
177.981
98.9146
1.26411
0.0134021
0.195724
72.2312
70.5633
0.174934
46.3298
50.3123
44.1574
11.6661
1.55538
8.42551
27.7544
0.000738446
206.084
91.7433
1.32129
0.000738445
21.7138
12.4453
18.7059
0.000745311
149.077
0.000728475
12.4416
0.142843
0.000734167
32.4916
82.501
0.000716358
52.4655
30.1658
20.6159
13.7429
42.1214
16.0419
32.463
54.119
1.59688
0.00072312
0.00122381
36.6479
5.78701
0.0587696
0.000766535
85.0171
0.00168818
0.94726
0.197157
8.60778
8.94213
0.0537965
0.512935
424.11
149.234
26.7049
1275.76
49.0259
0.000717685
53.6278
14.4403
157.303
0.00071862
5.48395
0.000737123
0.000855578
19.3436
3.03561
0.0266946
0.000804594
47.0592
2799.54
0.00225333
0.000728559
1.681
8.08254
0.012459
0.0712498
2935.99
0.486598
0.000803747
0.000729505
57.4759
22.863
0.250492
0.0561704
67.3176
200.123
31.3904
105.117
29.5923
0.000730785
13.464
0.000724743
132.493
17.1091
2669.39
6.24709
0.117139
0.000922123
83.9308
0.000739782
0.00072006
0.00162677
14.4095
20.4558
52.2377
0.000722098
13.5386
0.00072759
508.08
52.2957
0.000744571
130.718
5.82648
0.000728761
0.000771814
0.0195825
120.674
4.36002
0.0145934
0.000728464
0.000723478
138.408
94.09
21.6787
28.6189
0.424462
36.0102
0.00072226
0.00373969
5.36263
211.637
39.8553
0.00291295
0.000731262
36.0248
0.000753883
89.2678
144.144
5.61044
0.0309788
92.6224
13.4708
3.03996
0.000728088
5.8011
79.24
88.5296
0.00197026
0.0189931
26.6125
2983.25
0.0430203
3.52024
0.000716531
0.000724478
0.000738547
0.00892581
34.4524
58.8021
0.0439514
99.105
18.2644
423.979
8.36984
0.00934408
0.00248434
0.00590894
2.46346
49.525
22.0707
0.000753057
80.2381
0.000721038
0.00561846
54.7167
42.2546
0.0212789
4.10675
7.68554
0.0010232
0.692221
2.14348
0.000723862
0.000934656
127.528
0.000879377
0.00075359
115.593
27.2841
3139.17
9.10894
1283.42
0.000872506
0.00072984
3297.75
18.853
0.902236
3.01822
0.0465465
20.4073
0.789829
967.915
40.1156
68.7782
143.16
105.898
1.07863
29.7894
102.2
0.00603071
81.6394
0.000998386
38.53
5.97386
0.717539
6.1657
7.08878
2.74521
1.79641
41.3915
57.0328
48.4593
30.5039
52.5667
30.6066
4.81986
0.0010534
0.000725239
0.19095
214.064
0.000726232
66.9958
0.000726543
0.00331836
179.179
115.429
38.0839
75.4419
957.142
65.1801
15.5298
43.6272
0.000726685
17.336
63.6448
0.000760086
181.173
0.00231083
727.578
253.377
298.954
15.4531
87.0221
3.41613
0.485381
17.5454
80.0836
21.7756
10.2236
5.4558
80.3029
0.111112
126.038
330.928
0.00325132
28.6399
0.000739775
0.000965656
18.3504
112.856
163.507
15.9054
0.478353
0.171798
0.274804
0.000898281
23.6592
0.000900426
152.696
0.000831191
0.105342
261.519
5.60232
2.22072
181.851
146.232
0.00176518
0.000740087
0.163928
14.8565
0.137577
114.585
0.0303728
27.5911
3.95496
29.0616
56.9809
0.000858164
0.000721916
108.35
0.584662
5.6314
47.796
24.1419
32.0185
0.0033588
139.776
58.8362
91.6768
0.000815324
0.967706
26.0376
82.1608
0.76898
14.573
0.00076631
9.38948
0.000723587
214.531
0.00391438
36.3031
0.143375
8.01264
0.000761943
1821.8
0.000739058
122.13
0.0121427
0.000728907
0.00554986
15.5824
0.000729535
0.000733208
8.06943
0.0199216
21.6877
0.0516652
0.000788339
24.3275
6.484
42.527
0.000775225
112.164
4.79275
359.898
31.7734
31.8232
61.9906
93.6097
3.53395
293.408
247.815
100.36
0.000753317
2.35513
26.5497
19.783
0.00126513
0.0152995
22.564
492.19
0.000735553
1.22507
90.6743
0.000719525
49.7922
57.765
174.557
76.9601
44.7797
13.193
0.267782
173.097
7.30735
60.9047
44.4952
53.7935
0.45062
0.000727741
36.5209
0.00172151
0.000750501
0.000721158
189.492
0.000727996
0.000929898
14.9888
8892.89
2.27029
2.29197
45.3521
11.715
0.000731799
43.8702
230.728
0.01373
4.73031
46.0395
51.3408
0.237536
0.017327
0.000720788
0.000726746
0.0147938
0.0331386
27.7214
23.3466
74.0107
15.4895
14.7957
0.000977286
187.913
30.058
0.000747828
23.9299
732.735
0.000747434
5.41249
122.872
36.851
95.8605
0.551632
126.436
0.000847037
0.710062
0.000771823
0.00188751
0.000746799
52.9234
14.6067
0.0772203
0.00073925
0.000716653
194.855
29.6871
2.09332
21.8919
4.83497
37.7967
19.1274
22.7564
29.0307
0.000732387
0.374757
0.83673
0.274289
19.8593
66.2834
41.3426
88.746
30.3363
76.0209
165.696
79.703
50.2164
25.7962
0.114954
48.5667
31.5688
0.0156234
79.9972
46.3149
8.6481
0.000731996
0.000742642
0.000860315
0.00116177
53.6583
0.000717416
111.588
51.7536
233.663
23.3483
0.000727772
9.91517
17.3765
58.8618
15.8947
30.5514
10.8545
0.000759281
0.000742221
0.00299131
0.138529
0.000721391
88.3512
14.6285
1.45868
39.9634
12.0655
41.8266
120.077
0.00072862
20.0004
25.9976
0.000927704
0.0759319
56.3132
164.074
16.5906
4.97725
0.000750448
36.6174
42.8577
0.000935592
0.00988609
0.000724266
41.4089
0.00112314
0.450132
97.1776
0.748279
0.0802817
17.809
2849.72
0.000754997
24.889
0.000721914
10.5277
24.3482
24.3918
13.4591
63.0444
26.64
59.0921
169.681
37.9624
0.000732187
0.000721006
0.0398664
0.165198
47.0125
4.79328
0.000741334
141.67
2.1642
0.00278358
44.2073
0.0444902
0.00255946
0.0255172
64.177
0.00185983
0.00073351
23.4597
86.3384
20.6197
1.17941
55.3778
8.519
0.000744244
17.4337
0.117865
0.0555849
0.000797317
36.8983
16.4
5.70174
119.913
78.8211
17.3747
2.31369
0.000726352
28.0167
0.000754423
194.017
0.00349819
34.8697
0.12768
46.178
0.00647297
0.00325979
4.00623
2.87016
390.927
0.000874777
1.37942
49.2849
95.9761
6.44879
117.932
1.33457
0.000809375
0.000744786
55.5534
20.1617
307.597
1.72175
0.139601
57.3858
22.8638
49.9975
0.0558467
0.000727085
0.000734844
1.25442
753.676
14.7395
89.5657
0.000860157
0.00406592
0.994172
52.6789
25.0073
38.4198
60.6735
52.5133
0.000741866
0.000745676
164.314
132.233
53.182
398.207
51.1278
0.014023
114.64
0.000744298
230.171
0.0139107
0.0163309
0.000727219
0.0273191
0.141031
46.1846
41.5281
0.000754514
119.54
0.000730591
87.4413
126.563
0.000721208
0.398618
0.000754386
18.2532
0.257093
5.6248
0.000719602
14.1036
92.7281
13.6473
36.4808
1.11262
49.3433
1.41383
51.8181
35.3828
72.0231
25.5771
0.000937337
0.000741452
29.1519
0.390527
50.5037
0.000731809
105.102
0.000725318
0.0012895
0.140409
0.000727267
265.311
81.8187
0.000762184
17.5301
1.95164
0.137909
27.7537
0.00179048
0.000723187
46.4882
7.16936
0.0194222
39.858
2164.07
91.5331
1.52278
163.906
0.179187
0.000735737
0.000884646
0.0227669
1.57614
49.5868
122.062
304.298
44.6412
57.3667
8.32229
1.66481
29.9264
128.57
56.0419
0.0298922
0.0710114
11.6807
68.7715
0.000799837
0.772077
13.8759
183.763
0.000727688
52.8785
0.00071699
0.00555049
133.471
0.000828664
67.208
1090.1
0.000738022
163.507
0.000917963
8.97055
0.00529338
0.00104658
40.41
17.9519
55.8699
6.63778
67.5364
356.571
107.575
6.06066
30.678
19.8118
0.000716922
172.838
0.0455879
74.3471
3.82712
8.3447
0.0350752
0.00104346
170.869
98.8814
13.1554
41.3734
18.9304
0.00778456
0.000720719
0.000744912
1.55038
77.0022
14.0103
0.000731462
1084.95
21.2319
0.00797313
0.112935
16.3089
0.000718747
0.358328
0.000762212
0.000725102
23.2628
24.8847
0.0444807
0.00524163
0.000718579
24.1955
1.32732
21.4824
0.00222732
0.0252566
0.00622643
52.3067
107.281
1.18288
0.000730195
136.123
0.000775233
0.0286168
0.00353284
0.00132873
37.9074
55.455
0.000734971
42.8922
0.000748733
0.000719171
0.000885327
45.8052
16.6596
54.5962
43.9875
16.212
51.4952
0.0370742
0.00072918
0.00612629
0.00149081
3.00075
0.000727094
51.5885
9.28793
0.0274269
86.6405
0.318586
18.258
1.71587
0.0017368
129.867
48.4689
22.266
0.00618677
0.128402
182.486
0.000732884
7.00843
49.7347
0.00072641
0.58999
0.00251232
21.3234
0.000721548
82.6619
30.8428
1.63917
0.393853
98.3938
366.415
4.71787
108.539