/*--------------------------------*- C++ -*----------------------------------*\
| =========                 |                                                 |
| \\      /  F ield         | OpenFOAM: The Open Source CFD Toolbox           |
|  \\    /   O peration     | Version:  2.3.1                                 |
|   \\  /    A nd           | Web:      www.OpenFOAM.org                      |
|    \\/     M anipulation  |                                                 |
\*---------------------------------------------------------------------------*/
FoamFile
{
    version     2.0;
    format      ascii;
    class       volScalarField;
    location    "0.15";
    object      k;
}
// * * * * * * * * * * * * * * * * * * * * * * * * * * * * * * * * * * * * * //

dimensions      [0 2 -2 0 0 0 0];

internalField   nonuniform List<scalar> 
15166
(
1.0614
1.26995
1.6179
1.98495
2.26664
2.5473
2.74445
2.85719
2.89001
2.85824
2.76976
2.65807
1.06242
1.23905
1.61812
1.97482
2.25615
2.5175
2.69585
2.79369
2.81704
2.78117
2.69448
2.5742
1.07107
1.20583
1.60074
1.95164
2.23267
2.47892
2.6431
2.72974
2.74668
2.70807
2.62195
2.49865
1.0822
1.17885
1.57779
1.92271
2.2015
2.43501
2.58805
2.66628
2.67877
2.63831
2.55183
2.42386
1.09422
1.15808
1.55366
1.89193
2.16662
2.38875
2.53249
2.60416
2.61345
2.57177
2.48507
2.35651
1.10716
1.1419
1.52937
1.86055
2.12993
2.34171
2.47745
2.54384
2.55073
2.50822
2.42128
2.29152
1.12103
1.12924
1.50548
1.82914
2.09233
2.29471
2.42346
2.48551
2.49055
2.44742
2.35993
2.22722
1.1356
1.11946
1.48246
1.79809
2.05452
2.24827
2.37085
2.42925
2.43284
2.3893
2.30166
2.1696
1.15066
1.11207
1.46061
1.76781
2.01705
2.20278
2.3198
2.37509
2.3775
2.33374
2.24625
2.11489
1.16604
1.10662
1.44003
1.73844
1.98026
2.15851
2.27046
2.32301
2.32446
2.28066
2.19377
2.06483
1.1816
1.10279
1.42076
1.71008
1.94433
2.11557
2.22285
2.27296
2.27363
2.23
2.14418
2.01856
1.19724
1.10026
1.40272
1.68277
1.9094
2.07403
2.17699
2.22489
2.22492
2.1817
2.09768
1.97762
1.21286
1.09879
1.38589
1.65649
1.87555
2.03393
2.13283
2.17872
2.17823
2.13562
2.05385
1.9395
1.22839
1.09822
1.37019
1.63125
1.8428
1.99522
2.09033
2.13436
2.13346
2.09157
2.0116
1.89773
1.24377
1.09835
1.35554
1.60702
1.81116
1.95792
2.04944
2.09174
2.09053
2.04949
1.97166
1.86235
1.25895
1.09905
1.34184
1.58377
1.78062
1.92196
2.0101
2.05078
2.04932
2.00921
1.93362
1.82805
1.27387
1.10019
1.32901
1.56146
1.75117
1.88732
1.97223
2.01139
2.00976
1.97064
1.89722
1.79474
1.28851
1.10169
1.31699
1.54007
1.72278
1.85395
1.93578
1.97351
1.97175
1.93365
1.86233
1.76257
1.30282
1.10349
1.3057
1.51954
1.69541
1.82178
1.90067
1.93705
1.93521
1.89814
1.82896
1.7325
1.31679
1.10548
1.29509
1.49983
1.66903
1.79078
1.86685
1.90193
1.90005
1.86405
1.79698
1.70368
1.33037
1.10764
1.28508
1.4809
1.64359
1.76088
1.83424
1.8681
1.8662
1.83123
1.76612
1.67485
1.3436
1.10989
1.27561
1.46274
1.61907
1.73204
1.8028
1.83548
1.83357
1.79961
1.73628
1.6468
1.35641
1.11222
1.26665
1.44526
1.59541
1.70421
1.77246
1.80401
1.80212
1.76911
1.70735
1.61908
1.36881
1.11459
1.25815
1.42846
1.57259
1.67736
1.74318
1.77364
1.77176
1.73966
1.67932
1.59233
1.38078
1.11698
1.25005
1.41231
1.55058
1.65143
1.71491
1.74432
1.74244
1.71117
1.65217
1.56658
1.3923
1.11936
1.24232
1.39677
1.52934
1.62639
1.6876
1.71598
1.7141
1.68363
1.62589
1.54185
1.4034
1.12171
1.23494
1.38178
1.50883
1.60219
1.6612
1.68859
1.68668
1.65696
1.60051
1.51836
1.41407
1.12404
1.22787
1.36734
1.48901
1.5788
1.63567
1.66209
1.66016
1.63116
1.57603
1.49626
1.42427
1.12633
1.22108
1.35343
1.46987
1.55618
1.61097
1.63644
1.63448
1.60618
1.55241
1.47482
1.43405
1.12858
1.21456
1.33999
1.45137
1.53429
1.58706
1.6116
1.6096
1.582
1.52952
1.45369
1.44336
1.13077
1.20826
1.327
1.43347
1.51311
1.56391
1.58754
1.5855
1.55856
1.50737
1.4334
1.45222
1.13291
1.20219
1.31445
1.41615
1.4926
1.54149
1.56423
1.56213
1.53583
1.48588
1.41354
1.46062
1.13499
1.19631
1.30233
1.3994
1.47274
1.51976
1.54162
1.53946
1.51379
1.46505
1.39449
1.46863
1.13702
1.19064
1.29059
1.38318
1.4535
1.49869
1.51969
1.51747
1.4924
1.44484
1.37587
1.47612
1.13898
1.18514
1.27923
1.36747
1.43485
1.47826
1.49842
1.49612
1.47164
1.42524
1.35794
1.48323
1.14091
1.17982
1.26822
1.35224
1.41676
1.45844
1.47777
1.47539
1.45148
1.4062
1.3404
1.48988
1.14277
1.17465
1.25754
1.33748
1.39922
1.43919
1.45771
1.45525
1.43188
1.38772
1.32372
1.4961
1.14458
1.16963
1.24719
1.32316
1.38219
1.42051
1.43822
1.43568
1.41285
1.36981
1.3077
1.5019
1.14635
1.16476
1.23714
1.30927
1.36567
1.40237
1.41929
1.41665
1.39435
1.3524
1.29183
1.50727
1.14808
1.16003
1.22738
1.2958
1.34963
1.38474
1.40088
1.39815
1.37637
1.33555
1.27696
1.51217
1.14976
1.15542
1.21791
1.28272
1.33405
1.36761
1.38299
1.38016
1.35887
1.31899
1.26079
1.51662
1.1514
1.15093
1.20871
1.27001
1.31891
1.35096
1.36558
1.36265
1.34181
1.30275
1.24489
1.52062
1.15297
1.14658
1.19977
1.25768
1.3042
1.33477
1.34864
1.3456
1.32519
1.28694
1.23033
1.52419
1.15446
1.14234
1.19108
1.24569
1.2899
1.31902
1.33216
1.329
1.30899
1.27152
1.21588
1.52734
1.15586
1.13822
1.18264
1.23404
1.276
1.3037
1.31612
1.31282
1.2932
1.2565
1.2022
1.53007
1.15713
1.13422
1.17446
1.22271
1.26247
1.28879
1.30049
1.29706
1.2778
1.24184
1.18836
1.53239
1.15835
1.13033
1.16649
1.21168
1.24931
1.27428
1.28527
1.28171
1.26278
1.22758
1.17559
1.53431
1.15943
1.12656
1.15876
1.20094
1.23651
1.26015
1.27045
1.26673
1.24813
1.21367
1.16274
1.53584
1.16041
1.12288
1.15122
1.1905
1.22405
1.24639
1.25599
1.25212
1.23384
1.20014
1.15061
1.53699
1.16132
1.11929
1.14389
1.18034
1.21191
1.23297
1.24189
1.23786
1.21988
1.18689
1.13827
1.53775
1.16215
1.11578
1.13676
1.17046
1.2001
1.21989
1.22814
1.22394
1.20624
1.17397
1.12659
1.53814
1.16295
1.11235
1.12981
1.16084
1.18859
1.20715
1.21472
1.21034
1.19292
1.16136
1.11522
1.53816
1.16365
1.109
1.12304
1.15148
1.17737
1.19472
1.20163
1.19707
1.17991
1.149
1.10355
1.53782
1.16433
1.10573
1.11644
1.14237
1.16645
1.18261
1.18886
1.18411
1.16719
1.13695
1.09273
1.53712
1.16494
1.10254
1.11001
1.13349
1.15581
1.1708
1.17639
1.17145
1.15477
1.1252
1.0823
1.53608
1.16548
1.09942
1.10375
1.12485
1.14543
1.15927
1.16422
1.15908
1.14264
1.11376
1.07227
1.53469
1.16595
1.09637
1.09764
1.11642
1.13532
1.14804
1.15235
1.147
1.13078
1.10257
1.06215
1.53296
1.16641
1.09341
1.09169
1.10821
1.12546
1.13708
1.14075
1.13521
1.1192
1.09165
1.05236
1.5309
1.16677
1.09052
1.08589
1.10021
1.11585
1.12639
1.12944
1.12368
1.10788
1.0809
1.04192
1.5285
1.16712
1.0877
1.08024
1.09241
1.10648
1.11596
1.11839
1.11242
1.09681
1.07038
1.03228
1.52578
1.16739
1.08496
1.07473
1.08481
1.09734
1.10578
1.10759
1.10142
1.08598
1.06012
1.02325
1.52274
1.16764
1.0823
1.06937
1.0774
1.08843
1.09584
1.09705
1.09066
1.07539
1.05012
1.01451
1.51937
1.16782
1.07971
1.06414
1.07017
1.07974
1.08615
1.08676
1.08015
1.06505
1.04034
1.00565
1.51569
1.16798
1.07719
1.05905
1.06313
1.07126
1.07669
1.07671
1.06989
1.05494
1.03079
0.99704
1.51169
1.16808
1.07477
1.05411
1.05627
1.06299
1.06746
1.0669
1.05986
1.04506
1.02141
0.988322
1.50738
1.16818
1.07241
1.04929
1.04958
1.05494
1.05845
1.05732
1.05006
1.0354
1.01224
0.979952
1.50278
1.16821
1.07013
1.04462
1.04307
1.04707
1.04966
1.04797
1.04048
1.02594
1.00324
0.97153
1.49786
1.16821
1.06794
1.04007
1.03673
1.03941
1.04109
1.03883
1.03112
1.01669
0.994429
0.963521
1.49264
1.16821
1.06583
1.03566
1.03055
1.03194
1.03272
1.02992
1.02198
1.00765
0.985808
0.955607
1.48712
1.16813
1.06381
1.03139
1.02454
1.02466
1.02456
1.02121
1.01304
0.99881
0.977381
0.948011
1.48131
1.16805
1.06187
1.02725
1.01869
1.01756
1.0166
1.01271
1.00431
0.990164
0.969122
0.940321
1.47521
1.16789
1.06
1.02323
1.013
1.01064
1.00883
1.00441
0.995782
0.981704
0.961031
0.932953
1.46881
1.16774
1.05823
1.01935
1.00747
1.00391
1.00126
0.996305
0.987447
0.973436
0.95313
0.925743
1.46211
1.16756
1.05657
1.01562
1.00211
0.997353
0.993873
0.988403
0.97931
0.965354
0.945394
0.918605
1.45512
1.16735
1.05496
1.01201
0.996897
0.990968
0.986674
0.980689
0.971358
0.957447
0.937819
0.911679
1.44788
1.1671
1.05346
1.00854
0.991843
0.984757
0.979661
0.973166
0.963597
0.949721
0.930397
0.904649
1.44034
1.16678
1.05204
1.00521
0.98695
0.978719
0.972829
0.965831
0.956021
0.942167
0.923115
0.897819
1.4325
1.16645
1.05071
1.00201
0.982213
0.972852
0.966177
0.958676
0.948626
0.934789
0.915984
0.891041
1.42438
1.16612
1.0495
0.998955
0.977635
0.967154
0.959704
0.951707
0.941412
0.927576
0.909002
0.884493
1.41599
1.16572
1.04837
0.996043
0.973214
0.961625
0.953406
0.944915
0.934376
0.920533
0.902159
0.87791
1.40731
1.16531
1.04734
0.993277
0.968953
0.956265
0.947282
0.938298
0.927506
0.913645
0.895464
0.871648
1.39836
1.16485
1.0464
0.990652
0.964853
0.951073
0.941329
0.931855
0.920807
0.906911
0.888913
0.865592
1.38914
1.16436
1.04556
0.988169
0.960912
0.946049
0.935552
0.925591
0.914284
0.900348
0.882525
0.859589
1.37963
1.16383
1.04482
0.985837
0.957137
0.941197
0.92995
0.919502
0.907935
0.893951
0.876281
0.853581
1.36985
1.16328
1.0442
0.983659
0.953527
0.936513
0.924518
0.913585
0.90175
0.887706
0.870174
0.847842
1.3598
1.16267
1.04367
0.981642
0.950083
0.931998
0.919257
0.907835
0.895733
0.881624
0.86421
0.842067
1.34948
1.162
1.04324
0.979778
0.946809
0.927657
0.914169
0.902258
0.889881
0.87569
0.858378
0.836627
1.33888
1.16129
1.04292
0.978067
0.943712
0.923492
0.909257
0.896853
0.884196
0.869924
0.852708
0.831163
1.32801
1.16055
1.0427
0.976525
0.940787
0.919503
0.90452
0.891623
0.878681
0.864317
0.847181
0.825869
1.31685
1.15979
1.04261
0.975161
0.938047
0.915694
0.899957
0.886563
0.873331
0.85886
0.841763
0.820376
1.30542
1.15896
1.04261
0.973952
0.935483
0.912061
0.89557
0.881671
0.868141
0.853553
0.836512
0.815706
1.29372
1.15809
1.04272
0.972926
0.933114
0.908618
0.891366
0.87696
0.863134
0.848437
0.831471
0.810971
1.28176
1.15714
1.04295
0.972079
0.930933
0.905364
0.887346
0.872428
0.858295
0.84347
0.826561
0.806379
1.26951
1.15616
1.04328
0.971412
0.928949
0.902307
0.883513
0.868075
0.853629
0.838669
0.821807
0.801814
1.257
1.1551
1.04373
0.970928
0.92717
0.899443
0.879869
0.863906
0.849135
0.834031
0.817198
0.797379
1.24422
1.15396
1.04428
0.970629
0.92559
0.896784
0.876419
0.859921
0.844824
0.829572
0.812747
0.792954
1.23116
1.15276
1.04497
0.970542
0.924233
0.894334
0.873169
0.856128
0.840688
0.825268
0.808423
0.788765
1.2178
1.15153
1.04576
0.970654
0.923096
0.892103
0.870123
0.852524
0.836737
0.82114
0.80427
0.784647
1.20419
1.15016
1.04668
0.970969
0.922191
0.890089
0.867287
0.849119
0.832971
0.817186
0.800271
0.780732
1.19029
1.14875
1.04772
0.971506
0.921524
0.888314
0.864669
0.845922
0.829403
0.813419
0.79645
0.776866
1.17611
1.14724
1.04887
0.972257
0.921096
0.886769
0.862272
0.84293
0.826022
0.80982
0.792773
0.773297
1.16164
1.14569
1.05014
0.973241
0.920931
0.885475
0.860107
0.84015
0.822841
0.806412
0.789285
0.769899
1.14688
1.14405
1.05154
0.974454
0.921026
0.884439
0.858188
0.837602
0.81988
0.803218
0.786004
0.766589
1.13186
1.1423
1.05305
0.975897
0.921397
0.883674
0.856517
0.835284
0.817136
0.800221
0.782911
0.763508
1.11654
1.14041
1.0547
0.977597
0.922048
0.883192
0.855105
0.833205
0.814609
0.797426
0.780009
0.760726
1.10094
1.13845
1.05646
0.979556
0.923002
0.883
0.853965
0.831376
0.812315
0.794862
0.777338
0.758033
1.08505
1.13635
1.05835
0.981774
0.924262
0.883111
0.853114
0.829812
0.81026
0.792504
0.774833
0.755593
1.06887
1.13415
1.06035
0.984259
0.92585
0.88355
0.852563
0.828527
0.808464
0.790394
0.77257
0.753288
1.05237
1.13191
1.06249
0.987047
0.92778
0.884334
0.852335
0.827533
0.806937
0.788535
0.770539
0.751188
1.03558
1.12946
1.06477
0.990119
0.930071
0.885475
0.852446
0.826843
0.805688
0.786923
0.768714
0.749252
1.01849
1.12693
1.06718
0.99351
0.93275
0.887003
0.852913
0.826487
0.804743
0.785592
0.767163
0.747569
1.00108
1.1243
1.06972
0.997211
0.935816
0.88893
0.853761
0.826478
0.804115
0.784558
0.765899
0.746234
0.983388
1.12141
1.07238
1.00124
0.939301
0.891298
0.855012
0.826842
0.803836
0.783863
0.764988
0.745148
0.965376
1.11844
1.07519
1.00561
0.943222
0.89411
0.856696
0.827591
0.803902
0.783463
0.764278
0.743962
0.947046
1.11535
1.0781
1.01034
0.947614
0.897404
0.858827
0.82875
0.804329
0.783375
0.76384
0.74322
0.928413
1.11201
1.08117
1.01544
0.952483
0.901203
0.861444
0.830351
0.805157
0.783665
0.763789
0.742905
0.909439
1.1086
1.08437
1.02093
0.957874
0.905569
0.864588
0.832437
0.806421
0.784342
0.76405
0.742868
0.890145
1.10488
1.08774
1.02683
0.963821
0.91052
0.868313
0.835054
0.808172
0.78547
0.764769
0.743364
0.870516
1.10101
1.09122
1.03316
0.970367
0.916113
0.872655
0.83824
0.810442
0.787082
0.765954
0.744363
0.850574
1.09702
1.09483
1.03993
0.977538
0.922394
0.877674
0.842056
0.813273
0.789212
0.767636
0.745667
0.830289
1.09276
1.09861
1.04718
0.985377
0.929415
0.883408
0.846531
0.816696
0.791831
0.769648
0.746933
0.809646
1.08826
1.10256
1.05494
0.993942
0.937246
0.889936
0.85173
0.820771
0.795036
0.772215
0.749053
0.788662
1.08347
1.10665
1.06322
1.00329
0.945957
0.89734
0.857755
0.825598
0.798943
0.775501
0.75199
0.767338
1.07861
1.1109
1.07209
1.01348
0.955624
0.90572
0.864675
0.831223
0.803542
0.779314
0.755228
0.745634
1.07336
1.11536
1.08159
1.0246
0.966366
0.915159
0.872597
0.83775
0.808938
0.783876
0.759116
0.72356
1.06781
1.12002
1.09178
1.03675
0.97829
0.925798
0.881634
0.845279
0.815202
0.789153
0.763671
0.70112
1.06219
1.12492
1.10274
1.05006
0.991551
0.937798
0.891958
0.853967
0.822499
0.795383
0.769149
0.678259
1.05613
1.13017
1.11459
1.06468
1.00634
0.951332
0.90373
0.863955
0.830952
0.802614
0.775304
0.654983
1.04987
1.13581
1.1275
1.08082
1.02286
0.966627
0.917136
0.875387
0.84065
0.810938
0.782614
0.631225
1.04332
1.14203
1.14175
1.09876
1.04142
0.983936
0.932387
0.888443
0.851714
0.82038
0.790809
0.606975
1.03675
1.1492
1.15771
1.11895
1.06236
1.00358
0.949766
0.903353
0.864367
0.831252
0.800385
0.582102
1.0303
1.15792
1.17608
1.14192
1.08616
1.02592
0.969562
0.920321
0.878736
0.843513
0.811058
0.556509
1.02525
1.16944
1.19786
1.16838
1.11326
1.05124
0.991965
0.93954
0.894944
0.857235
0.822752
0.530039
1.0253
1.18712
1.22551
1.19966
1.14457
1.08031
1.01773
0.961582
0.913444
0.872672
0.835769
0.498872
1.02737
1.20395
1.25426
1.2302
1.17522
1.10895
1.04413
0.9842
0.933037
0.889087
0.850178
0.93369
0.0045388
0.295063
0.275391
0.274588
0.264564
0.256584
0.646214
0.730041
0.677537
0.496208
0.00728464
0.0290622
2.74529
0.2342
0.00352994
2.56542
0.0961356
0.0935811
0.00347026
0.122544
0.163103
0.125718
0.024444
0.946399
0.294466
0.142178
0.315619
0.523221
0.716951
0.463977
1.15391
0.00410779
0.487784
0.0277889
0.136093
0.400293
0.404045
0.394439
0.00765966
0.0602937
0.00334838
0.0615949
0.439689
0.292303
0.159768
0.0535336
0.0217297
0.295395
0.122184
0.134896
0.634106
0.286769
0.0032146
1.77957
0.00431636
0.00946275
0.00334637
0.404726
0.224434
0.136416
1.1776
0.00320907
0.015004
0.153616
0.0043937
0.756856
0.276033
1.52346
0.598867
1.68309
0.0475374
0.384315
0.62494
0.0248738
0.003288
0.699101
0.00314159
0.0621195
0.242932
0.0896628
0.00314642
0.423423
0.31848
0.0144649
0.986374
0.754045
0.00319434
0.336344
0.259666
0.351577
0.567537
0.003198
0.00384131
0.481401
0.00328473
0.304543
0.0110092
0.00317104
0.771233
0.969603
0.167183
0.00333968
0.0042153
0.00314319
0.538287
0.483083
0.699843
0.456635
0.00742576
0.0872832
0.00314684
0.195094
0.00368515
0.00318212
0.208476
0.0177679
0.189606
0.964004
0.152223
0.886249
0.0260104
1.52141
0.164832
0.112224
1.14547
0.00399001
1.93747
0.0270312
0.00319993
0.23465
0.00323635
0.242972
0.00422596
0.144736
0.00494269
0.254235
0.516601
0.200808
0.00551405
0.0154142
0.13682
0.285587
0.0197337
0.188742
1.69804
0.311757
0.00441139
0.86775
0.384096
0.0422856
0.202811
0.00315729
0.0999739
0.131637
0.0031616
0.244086
0.00327638
1.13224
0.00670856
0.0241905
0.00355729
0.112925
0.0122898
0.127799
0.0725577
0.972039
0.31608
0.345624
0.0031426
1.69176
0.658991
1.78406
0.0162434
0.00314825
0.49582
0.00314241
0.328126
0.115819
0.628427
0.995801
0.385527
0.0561243
0.382479
0.00338757
0.258378
0.00321321
0.0031574
0.189902
0.00318547
0.420923
0.00317005
0.93209
0.00466137
0.28048
0.294475
0.268013
0.156218
0.00314683
2.87943
0.899632
0.333805
0.437787
0.211155
0.332827
0.0922367
0.081473
0.19778
0.605879
0.189124
0.301832
0.792734
0.503355
0.420291
0.00315781
0.292541
0.0120115
0.363673
2.94818
0.231132
0.317844
0.900719
0.360964
0.0031778
0.00318922
1.15966
0.98587
0.00325521
3.88193
0.0271744
0.310013
0.108436
0.00315273
0.814981
0.352491
0.261811
0.241511
0.952556
0.551033
0.321032
0.135269
0.138093
1.12545
1.50569
0.360114
0.294883
0.237483
0.00346984
1.25135
0.30169
0.564579
0.623884
0.325398
3.73037
0.260978
0.208345
0.171329
0.308511
0.499828
0.363013
0.188702
0.268566
0.014229
0.0801035
0.677996
0.273963
0.815787
0.506283
0.304704
1.44901
0.240646
0.0443843
1.47185
0.213483
0.21294
1.52359
0.268423
0.263002
0.326683
0.222407
0.866265
0.264216
0.387364
0.33895
0.53171
0.269176
0.407331
0.211647
0.998759
0.116592
0.220342
1.49385
0.228797
0.227397
0.301049
0.915817
0.101874
0.210728
0.0587429
0.503797
0.173636
0.0846407
1.2995
1.8406
0.130043
0.838861
0.34873
0.00318767
0.169549
0.143643
0.183562
0.310245
0.00316929
1.06013
0.335721
0.0577978
0.227652
0.669928
0.00315601
0.621153
0.0332275
0.501166
0.360083
4.60464
0.517914
0.666454
0.464129
0.0031523
0.00321834
0.306091
0.377779
0.00318827
0.446462
0.00315337
0.00321456
0.00324987
0.00314236
0.122392
0.003165
0.00568243
0.893053
0.513049
0.00322894
0.332655
0.00884783
0.20033
0.293205
1.13973
3.80224
0.410284
0.00314312
0.00326193
0.0723296
0.112923
0.210565
0.003148
0.0882059
0.340381
0.77433
0.324575
0.193887
0.297572
0.91074
3.74184
0.131871
0.27871
0.00365749
0.00318461
0.132607
0.203672
0.100853
0.188934
0.519921
2.71787
1.51743
0.127764
0.34457
0.896593
0.00319694
0.360182
0.638764
0.00510597
0.00323681
0.522365
3.61353
0.734182
0.0031732
0.0416823
0.140079
0.0224692
0.00323783
0.736972
0.328301
0.299872
0.299998
0.00374519
3.48999
0.00316075
0.204272
0.469266
0.00612269
0.0103595
0.828275
0.0082218
1.26315
0.750391
1.02225
0.567344
0.183847
0.692084
0.00315128
0.00318667
0.00317161
0.923637
0.0667647
1.25157
2.65373
0.155731
0.591061
0.00321661
0.00914531
0.282807
0.00314428
0.00317548
0.702722
0.0031794
0.198257
0.808138
0.390676
0.00314475
0.00702904
0.0986391
0.101301
0.236942
0.125572
0.00314181
3.06189
0.740237
0.0957971
0.0112748
0.352787
0.202862
0.00662344
0.280351
0.006391
0.728414
0.00350823
0.245889
0.112429
0.00314359
1.15018
0.238445
0.318279
0.00882268
0.405208
0.13577
0.00504436
0.221506
0.510536
0.306321
1.10422
0.0213298
0.0434932
0.0104171
1.17459
0.589254
0.0541573
0.122109
0.144727
0.330953
0.160328
0.531537
1.09036
0.0031513
1.83323
0.808259
0.221881
0.00314413
0.291356
0.832729
0.0205396
0.452952
0.36172
0.22199
0.113105
0.192724
0.259657
0.0035753
0.0170406
0.774687
0.034407
0.00440645
0.918508
3.75026
0.0346477
0.219175
0.689821
0.0728464
0.492898
0.282291
0.745698
0.318483
0.315573
0.00329042
0.0732137
0.471645
0.378455
1.19111
0.234962
1.25967
0.930455
3.4417
0.764911
0.26727
0.00316754
1.14317
0.208983
0.706104
0.354487
0.135012
0.0717084
0.362861
0.00331514
0.310189
0.00317723
0.371688
0.359178
0.216849
0.190589
1.12248
0.243827
0.900501
0.5567
1.77255
0.00327149
0.105554
0.824453
2.3063
0.187899
0.623444
0.00357707
0.0249942
0.299392
1.66218
0.511843
0.00314376
0.0511726
0.00314344
0.0515585
0.362159
0.0335778
0.733867
0.126553
0.60308
0.134412
0.106314
1.22006
0.704265
0.00319478
0.00319605
0.2498
1.08412
0.298534
0.518886
0.389108
0.580696
0.290288
0.00314395
0.156564
0.261787
0.00472421
0.934518
0.274159
0.192808
0.297571
0.0111757
0.00314682
0.0209772
0.00315703
0.561802
0.71613
0.721854
0.552527
0.00320228
1.32217
0.0777337
0.748154
0.116229
1.55709
0.00611333
0.135389
0.003162
0.4966
0.707976
0.332153
0.353694
0.00314257
1.15743
0.708575
0.517231
0.00318898
0.0523777
0.713862
0.533844
0.00574573
2.14372
0.00368834
0.683039
0.522446
0.00359419
0.117305
0.0771262
0.176083
0.00314367
0.00319858
1.02154
0.448057
0.329819
0.535136
0.00471371
0.116003
0.087112
0.676322
0.202893
0.0039083
0.168739
1.19536
0.00314241
0.00759268
0.310924
0.670351
0.996926
0.00317154
0.725215
0.244343
1.17109
0.0250084
0.144496
0.81675
0.00319494
0.204156
0.122569
0.372552
0.327496
0.61418
0.227999
1.08189
1.05199
0.278689
2.60697
0.00323457
0.00315762
1.33935
0.690195
0.00460303
0.00315945
0.407641
0.00320623
0.727929
0.538882
0.214724
0.00318245
0.706855
0.031085
0.315167
1.07153
0.257048
0.129092
0.124312
1.20382
0.00319206
0.257951
0.866484
0.25694
0.480703
0.00635613
0.461033
0.227203
2.0181
0.00314722
0.127268
0.591744
0.302484
0.00335464
0.0849591
0.367273
0.463781
1.12029
0.0508218
1.68155
0.420743
0.0799196
0.40578
0.0031498
0.00684769
0.301855
0.00314334
0.191568
0.00316618
0.247619
0.010052
0.742291
0.00331201
0.097586
0.514173
1.42966
0.301607
0.582914
0.140285
2.20215
0.0143361
0.0827665
0.493496
0.00314482
0.00320583
0.381248
0.133588
0.25136
0.389401
0.00332106
0.218375
0.222098
0.205022
0.426348
1.02166
0.205133
0.00319642
1.87113
2.34218
0.513102
0.00323831
0.00970838
1.88634
0.285007
0.00315909
1.14508
0.00314557
0.0699659
2.4788
0.00350776
0.288062
0.00315486
0.0484169
0.755188
0.00324367
0.00395592
0.00318319
0.00378056
0.0197055
3.49569
0.709869
0.080772
0.243496
0.00316536
0.657187
0.00317242
0.222602
0.202228
0.020551
0.148448
0.0122611
1.01545
0.00322513
4.14592
0.178447
0.53834
0.334369
0.151289
0.0031411
0.211114
0.989469
0.118193
0.637363
0.78553
1.52136
0.347411
0.037285
0.542355
0.0724761
0.00396999
0.091214
2.38126
1.00885
0.103409
0.00542627
0.320525
0.00369907
0.381036
0.769399
0.977352
0.724437
0.795435
0.0331344
0.00571143
0.351762
0.247901
0.0433974
0.296739
0.00317855
0.262586
1.76206
0.00330641
1.51936
0.688506
0.105349
0.0882552
1.30058
0.0215012
0.0868516
0.389749
0.267092
0.252884
0.00322315
0.585529
0.0684017
0.269692
0.381264
0.203373
0.18204
0.00656721
0.57817
0.00317361
0.00316262
0.223785
0.0912452
0.131014
1.71925
0.00314512
1.00655
0.056768
0.0495136
0.0034687
1.53714
0.306973
0.0781406
0.687696
0.0515717
1.14764
0.140049
0.00315203
1.19038
1.88186
0.00517389
0.00801108
0.207873
0.921244
0.0856075
1.318
0.0309114
0.202474
0.0892116
0.135918
0.59332
0.206985
0.00318727
1.05067
0.353203
0.0131128
0.171968
3.92641
0.297165
0.00317576
0.00316195
0.6669
0.202151
0.896753
0.00314635
0.624512
0.254499
0.422611
0.00376229
0.310747
0.683998
0.00509167
0.280846
0.00320941
1.0015
0.228521
0.370167
0.281673
0.00316244
0.00315207
0.336589
1.24723
0.33163
0.641187
0.00314922
0.0408898
0.00323939
0.00592111
1.0274
0.0639663
0.0834761
0.106235
0.349463
0.30193
0.355201
1.06663
0.00317135
0.329269
0.640944
0.268716
0.00319222
0.826177
0.00321378
0.00316696
0.0768495
0.23292
0.0223964
1.29636
0.222627
2.52997
0.00327548
0.00474465
0.0327958
0.901869
0.261084
0.961234
0.00316947
0.00316926
0.00600507
0.00782927
0.966365
0.708541
0.648245
0.11039
0.0388886
0.271019
0.156746
0.577164
0.272339
0.780717
0.309527
0.00314315
0.316979
0.00520124
0.164886
0.789673
0.201909
0.205905
0.112267
0.00375012
1.19324
0.447782
0.404404
0.339682
0.00316356
0.591309
0.670324
0.328473
0.00731252
0.8091
0.498867
0.741555
0.319949
0.337546
0.574196
0.105997
0.84475
0.204185
0.0835468
0.23977
0.00317639
1.07971
0.86263
0.00315972
0.592905
0.00464502
0.554274
0.208776
0.205688
0.290319
0.730232
0.814476
0.257763
0.110974
0.185575
0.213467
0.0112267
0.00317028
0.91367
0.0545443
0.833632
0.552028
0.18407
0.738252
0.561092
0.00315447
0.297885
1.5198
1.05131
0.222102
0.248882
0.492629
1.7002
0.195118
0.203413
0.0222315
0.0721662
0.567141
1.05802
0.0974822
0.74498
0.715649
0.679511
0.241555
0.199879
0.362849
0.604297
0.00319123
1.74785
0.672909
0.166029
0.00319074
0.501195
0.4005
0.311008
0.00322993
0.590657
0.00317106
0.238417
0.0811631
0.00319328
0.719413
0.360397
0.00314143
0.530434
0.391943
0.527147
0.269445
0.531703
0.279454
0.590268
0.178524
0.129278
0.00316262
0.00455029
0.369409
0.163495
0.014226
0.00329357
0.368426
0.00565991
0.103015
0.103629
0.382271
0.200143
0.0516196
0.087162
0.576397
1.46928
0.353078
3.80131
0.771024
0.00314547
0.539794
0.509188
1.50708
0.00314801
0.160208
0.00318789
0.00355301
0.299771
0.247544
0.0343095
0.00340566
0.692497
3.50597
0.00692279
0.00317415
0.121346
0.219367
0.0205892
0.0639678
3.62368
0.118671
0.00340339
0.00317986
0.860922
0.287896
0.116506
0.0526477
0.652034
1.13045
0.403456
0.249961
0.587986
0.00317373
0.429061
0.00316306
0.23361
0.29397
5.00225
0.167749
0.0789912
0.00374044
1.05928
0.0031942
0.00315233
0.00553149
0.268591
0.309882
0.862872
0.00315621
0.43482
0.00317188
0.673973
0.863057
0.00320476
0.736014
0.190692
0.00317169
0.00330897
0.0262563
0.967163
0.329582
0.0235568
0.00317528
0.00316368
0.84464
0.684681
0.324663
0.658179
0.100088
0.437325
0.0031574
0.00971203
0.328535
0.807421
0.653214
0.00820457
0.00317571
0.419646
0.00325561
0.208741
0.806066
0.300017
0.0376667
0.204875
0.433674
0.134635
0.00316953
0.445168
1.17946
0.65538
0.00605765
0.0277376
0.601565
3.60455
0.0469316
0.321685
0.00314185
0.00316676
0.00320619
0.0170943
0.42
0.949628
0.00877617
0.223531
0.54904
1.21975
0.200272
0.0176896
0.0073803
0.00734379
0.132581
0.182154
0.259444
0.00322347
1.18978
0.00315417
0.0125974
0.731638
0.751552
0.0312061
0.320216
0.402582
0.00401954
0.120193
0.2017
0.00315839
0.00377774
0.985131
0.00362114
0.00322475
0.73218
0.257358
2.07864
0.202213
2.27183
0.0036016
0.00318319
3.07605
0.31214
0.193961
0.441631
0.0522815
0.255382
0.172223
1.00849
0.717508
0.589399
0.582356
0.235818
0.102144
0.346988
0.725395
0.0133206
0.365455
0.00395078
0.443059
0.345254
0.0936214
0.328372
0.179231
0.360412
0.167136
0.28209
1.04471
0.481921
0.23478
0.337654
0.621369
0.275318
0.00410146
0.0031616
0.0993429
1.99926
0.00316335
1.6077
0.00317324
0.00900866
0.327494
0.225035
0.721019
0.672263
0.887735
1.00756
0.444914
0.412318
0.00317105
0.287134
0.939127
0.00323917
1.11747
0.00673156
1.68775
0.935354
1.12177
0.288861
0.2109
0.239286
0.0838886
0.301097
1.09758
0.370538
0.692532
0.15798
0.208349
0.0765153
0.233892
0.903523
0.00877473
0.571984
0.00319407
0.00386384
0.303018
1.35207
0.336328
0.287512
0.145143
0.0964399
0.103924
0.00357438
0.339652
0.00357925
0.693852
0.00347463
0.0510799
0.937528
0.159899
0.263426
0.327415
0.304228
0.00582737
0.00321167
0.0852731
0.280674
0.10019
0.526901
0.0373033
0.379306
0.197789
0.389074
0.776102
0.00356048
0.00315361
1.5016
0.199755
0.160231
0.7113
0.598721
0.714808
0.00894459
1.50458
0.355066
0.215032
0.00343561
0.171875
0.401699
0.210644
0.179268
0.265222
0.00329261
0.406268
0.00316395
0.612249
0.00990827
0.4388
0.103496
0.34823
0.00324326
6.17256
0.00319238
1.34998
0.0212204
0.00317725
0.0127083
0.283316
0.00317129
0.00317988
0.333073
0.026982
0.335056
0.0502718
0.00335824
0.240196
0.175082
0.463429
0.00331691
0.224651
0.184131
1.34545
0.617162
0.40616
0.450555
0.216661
0.261498
0.761576
0.820376
0.214149
0.0032241
0.124608
0.361144
0.321622
0.00464916
0.00754458
0.256733
1.55959
0.00318424
0.177681
1.10484
0.00315154
0.752267
0.833003
0.347232
0.607704
0.699869
0.266581
0.114153
2.34712
0.352079
0.758959
0.726211
0.233863
0.0921096
0.00316729
0.435369
0.00564498
0.00321783
0.00315609
0.313379
0.0031673
0.00376322
0.462961
3.89131
0.357562
0.169721
0.737308
0.24057
0.0031877
0.175654
1.13908
0.0226593
0.149931
0.895243
0.333128
0.107584
0.0274432
0.00315223
0.00316844
0.0244674
0.0381057
0.328092
0.323196
1.09398
0.283244
0.274594
0.00389565
0.488241
0.232677
0.00321179
0.341403
3.0947
0.00323633
0.309566
1.00808
0.643159
0.668605
0.163645
0.965359
0.00352842
0.181081
0.0033079
0.00609938
0.00320962
0.724996
0.490825
0.0645781
0.00319298
0.0031429
1.1117
0.385006
0.248785
0.257862
0.303187
0.438622
0.30285
0.309599
0.372974
0.00317742
0.132088
0.105287
0.11819
0.381071
0.942372
0.664014
0.611153
0.38557
0.996707
0.829163
0.824604
0.441962
0.770082
0.0559419
0.727477
0.405836
0.0238509
0.991688
0.757168
0.383555
0.00318969
0.00320057
0.00356654
0.00437316
0.496009
0.00314517
0.506224
0.17427
0.988778
0.66741
0.00317323
0.4072
0.29983
0.194504
0.272492
0.39069
0.477489
0.00327149
0.00319925
0.00827121
0.0873867
0.00315696
0.649088
0.269314
0.203579
0.660079
0.442853
0.459811
0.542292
0.00316878
0.316399
0.582452
0.00375895
0.0696994
0.433344
0.313513
0.459152
0.187143
0.0032427
0.405084
0.384413
0.00377925
0.0183829
0.0031608
0.19055
0.0042858
0.121541
1.15191
0.104232
0.0645616
0.89181
1.80065
0.00325663
0.537718
0.00315873
0.220196
0.354175
0.271284
0.40421
0.687196
0.589607
0.786457
1.09051
0.647212
0.00317782
0.00315185
0.0470482
0.0905677
0.528865
0.16519
0.00321784
1.42501
0.217242
0.00780914
0.688431
0.0509227
0.00753268
0.0343269
0.889819
0.00606197
0.00319067
0.282254
0.210657
0.555917
0.0896204
0.237765
0.195567
0.00322641
0.287697
0.0798942
0.0528177
0.00338449
0.221838
0.456369
0.164421
1.29894
1.18175
0.322873
0.363995
0.0031646
0.37838
0.00325717
2.48282
0.00929648
0.429287
0.0836021
0.743427
0.014038
0.0087727
0.197274
0.264548
1.26652
0.00360819
0.181367
0.498072
0.628491
0.174201
0.991431
0.106319
0.0034194
0.00320502
0.45066
0.551393
1.00707
0.249178
0.0728919
0.538444
0.344792
0.713619
0.039729
0.00317062
0.00318283
0.106416
0.698683
0.599591
0.852727
0.00356712
0.0101723
0.138204
0.477246
0.292414
0.665829
0.369578
0.780443
0.00319871
0.00323091
1.01959
0.276124
0.786327
2.71414
0.383361
0.0224357
1.26471
0.00322699
1.01435
0.0234907
0.0259685
0.00316992
0.0353993
0.072796
0.74066
0.700215
0.00322672
0.75836
0.00318537
0.620245
1.39817
0.00315225
0.133464
0.00322653
0.281201
0.113237
0.161942
0.00315187
0.269565
0.214541
0.256386
0.897338
0.139636
1.07999
0.178921
0.717538
0.256845
0.994352
0.548185
0.00378458
0.00321775
0.389446
0.16701
0.701676
0.00317681
1.90712
0.00316125
0.004712
0.0242286
0.00317467
1.06973
0.843044
0.00324378
0.576953
0.22169
0.0888597
0.618717
0.00586594
0.00316283
0.448358
0.326506
0.00872233
0.683087
6.21335
1.20615
0.127866
1.06702
0.089938
0.00318507
0.00363617
0.0310251
0.130247
0.746891
0.957669
1.24276
0.698563
0.538308
0.439705
0.206151
0.540105
1.73648
0.574891
0.0384187
0.0687936
0.236756
1.33718