/*--------------------------------*- C++ -*----------------------------------*\
| =========                 |                                                 |
| \\      /  F ield         | OpenFOAM: The Open Source CFD Toolbox           |
|  \\    /   O peration     | Version:  2.3.1                                 |
|   \\  /    A nd           | Web:      www.OpenFOAM.org                      |
|    \\/     M anipulation  |                                                 |
\*---------------------------------------------------------------------------*/
FoamFile
{
    version     2.0;
    format      ascii;
    class       surfaceScalarField;
    location    "0.15";
    object      phi;
}
// * * * * * * * * * * * * * * * * * * * * * * * * * * * * * * * * * * * * * //

dimensions      [0 3 -1 0 0 0 0];

internalField   nonuniform List<scalar> 
23326
(
-1.26111e-05
0.000113145
-0.000100534
-2.16094e-05
0.000128339
-0.00011934
-2.72649e-05
0.000142384
-0.000136729
-3.09217e-05
0.000157614
-0.000153957
-3.40405e-05
0.000169891
-0.000166772
-3.62485e-05
0.000181842
-0.000179635
-3.77719e-05
0.000192086
-0.000190563
-3.85656e-05
0.000200413
-0.00019962
-3.89865e-05
0.000206666
-0.000206245
-3.90776e-05
0.000211457
-0.000211366
-3.9029e-05
0.000215015
-0.000215064
0.00021758
-3.89081e-05
-0.0002177
-7.00122e-06
0.000120146
-1.38177e-05
0.000135155
-1.9899e-05
0.000148465
-2.44193e-05
0.000162134
-2.81188e-05
0.000173591
-3.08554e-05
0.000184579
-3.27806e-05
0.000194011
-3.40652e-05
0.000201698
-3.48866e-05
0.000207487
-3.53789e-05
0.000211949
-3.56389e-05
0.000215275
0.000217709
-3.57685e-05
-5.6448e-06
0.000125791
-1.09792e-05
0.00014049
-1.60227e-05
0.000153509
-2.01638e-05
0.000166275
-2.37324e-05
0.000177159
-2.65278e-05
0.000187375
-2.86137e-05
0.000196097
-3.01085e-05
0.000203193
-3.12099e-05
0.000208588
-3.19795e-05
0.000212719
-3.24902e-05
0.000215786
0.000218116
-3.28976e-05
-4.75052e-06
0.000130542
-9.34884e-06
0.000145088
-1.36622e-05
0.000157822
-1.73073e-05
0.00016992
-2.05318e-05
0.000180384
-2.316e-05
0.000190003
-2.52551e-05
0.000198192
-2.68326e-05
0.00020477
-2.80398e-05
0.000209795
-2.89802e-05
0.000213659
-2.96914e-05
0.000216497
0.000218718
-3.0293e-05
-3.88399e-06
0.000134426
-7.94418e-06
0.000149148
-1.17743e-05
0.000161652
-1.50736e-05
0.00017322
-1.79937e-05
0.000183304
-2.04707e-05
0.00019248
-2.24607e-05
0.000200182
-2.40394e-05
0.000206349
-2.53316e-05
0.000211087
-2.6313e-05
0.000214641
-2.71646e-05
0.000217349
0.000219405
-2.78512e-05
-3.22867e-06
0.000137654
-6.80984e-06
0.000152729
-1.02257e-05
0.000165068
-1.32271e-05
0.000176221
-1.59434e-05
0.00018602
-1.82075e-05
0.000194744
-2.01039e-05
0.000202079
-2.16775e-05
0.000207923
-2.29329e-05
0.000212343
-2.3991e-05
0.000215699
-2.48811e-05
0.000218239
0.000220176
-2.56524e-05
-2.7742e-06
0.000140428
-5.95193e-06
0.000155907
-9.00748e-06
0.000168124
-1.17536e-05
0.000178967
-1.42008e-05
0.000188467
-1.63311e-05
0.000196874
-1.81241e-05
0.000203872
-1.96073e-05
0.000209406
-2.0876e-05
0.000213612
-2.19565e-05
0.000216779
-2.29036e-05
0.000219186
0.000221024
-2.37516e-05
-2.43513e-06
0.000142864
-5.28773e-06
0.00015876
-8.03517e-06
0.000170871
-1.05012e-05
0.000181433
-1.2763e-05
0.000190729
-1.47378e-05
0.000198849
-1.64295e-05
0.000205563
-1.78424e-05
0.000210819
-1.90898e-05
0.000214859
-2.01746e-05
0.000217864
-2.11172e-05
0.000220129
0.000221863
-2.19564e-05
-2.16556e-06
0.000145029
-4.75207e-06
0.000161346
-7.24281e-06
0.000173362
-9.51869e-06
0.000183709
-1.15788e-05
0.000192789
-1.33833e-05
0.000200653
-1.4969e-05
0.000207149
-1.63521e-05
0.000212202
-1.75339e-05
0.000216041
-1.85837e-05
0.000218914
-1.95244e-05
0.00022107
0.000222769
-2.043e-05
-1.93834e-06
0.000146967
-4.29166e-06
0.0001637
-6.56956e-06
0.00017564
-8.65305e-06
0.000185793
-1.05719e-05
0.000194708
-1.22511e-05
0.000202333
-1.37159e-05
0.000208614
-1.49996e-05
0.000213486
-1.61645e-05
0.000217206
-1.71926e-05
0.000219942
-1.81282e-05
0.000222005
0.000223619
-1.89782e-05
-1.74969e-06
0.000148717
-3.91169e-06
0.000165862
-5.99957e-06
0.000177728
-7.92268e-06
0.000187716
-9.68068e-06
0.000196466
-1.12404e-05
0.000203892
-1.26195e-05
0.000209993
-1.38383e-05
0.000214704
-1.49363e-05
0.000218304
-1.59326e-05
0.000220938
-1.68826e-05
0.000222955
0.000224444
-1.7708e-05
-1.58346e-06
0.000150301
-3.56913e-06
0.000167847
-5.4928e-06
0.000179651
-7.29957e-06
0.000189523
-8.90562e-06
0.000198072
-1.03649e-05
0.000205352
-1.16581e-05
0.000211286
-1.28142e-05
0.000215861
-1.38618e-05
0.000219351
-1.48255e-05
0.000221902
-1.56828e-05
0.000223812
0.000225274
-1.65127e-05
-1.44362e-06
0.000151744
-3.27366e-06
0.000169677
-5.06378e-06
0.000181442
-6.72533e-06
0.000191184
-8.24757e-06
0.000199594
-9.61018e-06
0.000206714
-1.0803e-05
0.000212479
-1.1903e-05
0.000216961
-1.28805e-05
0.000220329
-1.37969e-05
0.000222818
-1.46389e-05
0.000224654
0.000225991
-1.53555e-05
-1.3231e-06
0.000153067
-3.03861e-06
0.000171393
-4.68903e-06
0.000183092
-6.22223e-06
0.000192717
-7.64199e-06
0.000201014
-8.89603e-06
0.000207968
-1.00495e-05
0.000213632
-1.10672e-05
0.000217978
-1.20288e-05
0.00022129
-1.29343e-05
0.000223724
-1.37747e-05
0.000225495
0.000226852
-1.46355e-05
-1.21147e-06
0.000154279
-2.79226e-06
0.000172974
-4.35662e-06
0.000184656
-5.79238e-06
0.000194153
-7.10011e-06
0.000202322
-8.30379e-06
0.000209172
-9.36642e-06
0.000214695
-1.03637e-05
0.000218976
-1.12315e-05
0.000222158
-1.2064e-05
0.000224556
-1.28631e-05
0.000226294
0.000227558
-1.35689e-05
-1.11442e-06
0.000155393
-2.59331e-06
0.000174453
-4.04234e-06
0.000186105
-5.38328e-06
0.000195494
-6.61438e-06
0.000203553
-7.72405e-06
0.000210282
-8.73178e-06
0.000215703
-9.64772e-06
0.000219892
-1.05316e-05
0.000223042
-1.13601e-05
0.000225385
-1.21169e-05
0.000227051
0.000228256
-1.2815e-05
-1.02791e-06
0.000156421
-2.39494e-06
0.00017582
-3.75017e-06
0.000187461
-5.01786e-06
0.000196762
-6.17323e-06
0.000204708
-7.22028e-06
0.000211329
-8.17183e-06
0.000216654
-9.07673e-06
0.000220796
-9.89079e-06
0.000223856
-1.06391e-05
0.000226133
-1.13703e-05
0.000227782
0.00022895
-1.20644e-05
-9.37759e-07
0.000157359
-2.22894e-06
0.000177111
-3.51199e-06
0.000188744
-4.70478e-06
0.000197954
-5.79505e-06
0.000205799
-6.78864e-06
0.000212322
-7.6884e-06
0.000217554
-8.46951e-06
0.000221578
-9.25428e-06
0.000224641
-9.99503e-06
0.000226874
-1.0701e-05
0.000228488
0.000229624
-1.13757e-05
-8.69808e-07
0.000158229
-2.08313e-06
0.000178324
-3.2685e-06
0.000189929
-4.39468e-06
0.000199081
-5.39973e-06
0.000206804
-6.33649e-06
0.000213259
-7.17055e-06
0.000218388
-7.99121e-06
0.000222398
-8.71119e-06
0.000225361
-9.42028e-06
0.000227583
-1.0073e-05
0.00022914
0.000230275
-1.07238e-05
-8.07917e-07
0.000159037
-1.92778e-06
0.000179444
-3.0695e-06
0.000191071
-4.1113e-06
0.000200122
-5.08899e-06
0.000207781
-5.95189e-06
0.000214122
-6.76653e-06
0.000219203
-7.49699e-06
0.000223129
-8.21026e-06
0.000226074
-8.83356e-06
0.000228206
-9.47797e-06
0.000229785
0.000230859
-1.00616e-05
-7.51563e-07
0.000159788
-1.80473e-06
0.000180497
-2.86268e-06
0.000192129
-3.85129e-06
0.000201111
-4.74692e-06
0.000208677
-5.58996e-06
0.000214965
-6.33884e-06
0.000219952
-7.03745e-06
0.000223827
-7.69285e-06
0.00022673
-8.34277e-06
0.000228856
-8.93378e-06
0.000230376
0.000231446
-9.52079e-06
-6.74884e-07
0.000160463
-1.66843e-06
0.000181491
-2.67292e-06
0.000193133
-3.62812e-06
0.000202066
-4.48029e-06
0.000209529
-5.23349e-06
0.000215718
-5.94604e-06
0.000220664
-6.61023e-06
0.000224491
-7.26621e-06
0.000227386
-7.86893e-06
0.000229459
-8.45491e-06
0.000230962
0.000232
-9.00894e-06
-6.33373e-07
0.000161096
-1.56716e-06
0.000182424
-2.51613e-06
0.000194082
-3.37745e-06
0.000202928
-4.18816e-06
0.00021034
-4.92243e-06
0.000216452
-5.6041e-06
0.000221346
-6.23586e-06
0.000225123
-6.83808e-06
0.000227988
-7.41773e-06
0.000230039
-7.96945e-06
0.000231514
0.000232536
-8.5054e-06
-5.72534e-07
0.000161669
-1.45064e-06
0.000183302
-2.34932e-06
0.000194981
-3.16535e-06
0.000203744
-3.93237e-06
0.000211107
-4.63342e-06
0.000217153
-5.28019e-06
0.000221993
-5.88637e-06
0.000225729
-6.43829e-06
0.00022854
-6.96216e-06
0.000230562
-7.50359e-06
0.000232055
0.000233062
-8.02926e-06
-5.27918e-07
0.000162197
-1.33777e-06
0.000184112
-2.19089e-06
0.000195834
-2.98977e-06
0.000204542
-3.69381e-06
0.000211811
-4.36086e-06
0.000217821
-4.95071e-06
0.000222583
-5.50537e-06
0.000226284
-6.0548e-06
0.000229089
-6.58974e-06
0.000231097
-7.07597e-06
0.000232541
0.00023357
-7.58462e-06
-4.95956e-07
0.000162693
-1.25608e-06
0.000184872
-2.04268e-06
0.00019662
-2.80214e-06
0.000205302
-3.47049e-06
0.000212479
-4.07928e-06
0.000218429
-4.64032e-06
0.000223144
-5.19106e-06
0.000226835
-5.69529e-06
0.000229593
-6.17724e-06
0.000231579
-6.68246e-06
0.000233046
0.000234037
-7.14911e-06
-4.38945e-07
0.000163132
-1.15477e-06
0.000185588
-1.89982e-06
0.000197366
-2.59677e-06
0.000205999
-3.25637e-06
0.000213139
-3.83473e-06
0.000219008
-4.36864e-06
0.000223677
-4.87007e-06
0.000227336
-5.34831e-06
0.000230072
-5.83681e-06
0.000232068
-6.25437e-06
0.000233464
0.000234475
-6.69237e-06
-3.89034e-07
0.000163521
-1.08548e-06
0.000186285
-1.78969e-06
0.00019807
-2.42943e-06
0.000206639
-3.02905e-06
0.000213738
-3.5807e-06
0.000219559
-4.11293e-06
0.00022421
-4.56371e-06
0.000227787
-5.02065e-06
0.000230529
-5.46327e-06
0.00023251
-5.92234e-06
0.000233923
0.000234862
-6.30914e-06
-3.62616e-07
0.000163883
-9.91506e-07
0.000186914
-1.63911e-06
0.000198717
-2.29026e-06
0.00020729
-2.83907e-06
0.000214287
-3.35895e-06
0.000220079
-3.81552e-06
0.000224666
-4.30099e-06
0.000228273
-4.70835e-06
0.000230936
-5.13601e-06
0.000232938
-5.52561e-06
0.000234313
0.000235309
-5.9723e-06
-3.06217e-07
0.000164189
-8.83103e-07
0.00018749
-1.53938e-06
0.000199374
-2.11166e-06
0.000207862
-2.65499e-06
0.000214831
-3.12491e-06
0.000220549
-3.58496e-06
0.000225126
-3.99001e-06
0.000228678
-4.40977e-06
0.000231356
-4.78575e-06
0.000233314
-5.21095e-06
0.000234738
0.000235672
-5.57471e-06
-2.84381e-07
0.000164474
-8.43738e-07
0.00018805
-1.39754e-06
0.000199927
-1.96435e-06
0.000208429
-2.45249e-06
0.000215319
-2.92391e-06
0.000221021
-3.33652e-06
0.000225539
-3.75048e-06
0.000229092
-4.11916e-06
0.000231724
-4.50789e-06
0.000233703
-4.83684e-06
0.000235067
0.00023605
-5.21397e-06
-2.50611e-07
0.000164724
-7.44143e-07
0.000188543
-1.3109e-06
0.000200494
-1.79785e-06
0.000208916
-2.28717e-06
0.000215808
-2.70807e-06
0.000221441
-3.12173e-06
0.000225953
-3.46086e-06
0.000229431
-3.8428e-06
0.000232106
-4.1854e-06
0.000234045
-4.5451e-06
0.000235427
0.000236345
-4.84025e-06
-2.22068e-07
0.000164947
-6.65998e-07
0.000188987
-1.178e-06
0.000201006
-1.6872e-06
0.000209425
-2.12562e-06
0.000216246
-2.52363e-06
0.000221839
-2.86422e-06
0.000226293
-3.23932e-06
0.000229806
-3.5726e-06
0.00023244
-3.9009e-06
0.000234374
-4.22638e-06
0.000235752
0.000236668
-4.5499e-06
-1.62592e-07
0.000165109
-6.15679e-07
0.00018944
-1.0986e-06
0.000201489
-1.53107e-06
0.000209857
-1.9448e-06
0.00021666
-2.32027e-06
0.000222215
-2.66774e-06
0.000226641
-2.99508e-06
0.000230133
-3.31308e-06
0.000232757
-3.5968e-06
0.000234657
-3.90394e-06
0.000236059
0.000236999
-4.23424e-06
-1.71714e-07
0.000165281
-5.45168e-07
0.000189814
-9.73825e-07
0.000201918
-1.43015e-06
0.000210314
-1.79297e-06
0.000217023
-2.12026e-06
0.000222542
-2.44769e-06
0.000226968
-2.75963e-06
0.000230445
-3.0302e-06
0.000233028
-3.32551e-06
0.000234953
-3.62081e-06
0.000236355
0.000237267
-3.88962e-06
-1.08376e-07
0.000165389
-4.76834e-07
0.000190182
-9.00781e-07
0.000202342
-1.25586e-06
0.000210669
-1.62285e-06
0.00021739
-1.95557e-06
0.000222875
-2.2619e-06
0.000227274
-2.52579e-06
0.000230709
-2.77947e-06
0.000233282
-3.05421e-06
0.000235228
-3.29233e-06
0.000236593
0.000237538
-3.56336e-06
-9.17003e-08
0.000165481
-4.06558e-07
0.000190497
-7.81961e-07
0.000202717
-1.16217e-06
0.000211049
-1.4814e-06
0.000217709
-1.76709e-06
0.000223161
-2.02851e-06
0.000227536
-2.27281e-06
0.000230953
-2.5388e-06
0.000233548
-2.79657e-06
0.000235485
-3.02325e-06
0.000236819
0.000237749
-3.23352e-06
-6.22737e-08
0.000165543
-3.45029e-07
0.00019078
-6.9026e-07
0.000203062
-1.02225e-06
0.000211381
-1.31968e-06
0.000218007
-1.61115e-06
0.000223452
-1.85627e-06
0.000227781
-2.0861e-06
0.000231183
-2.30696e-06
0.000233769
-2.52628e-06
0.000235705
-2.74445e-06
0.000237038
0.000237964
-2.95974e-06
-2.46705e-08
0.000165568
-2.81073e-07
0.000191036
-6.02434e-07
0.000203384
-9.11264e-07
0.00021169
-1.18801e-06
0.000218283
-1.4082e-06
0.000223672
-1.66066e-06
0.000228033
-1.87504e-06
0.000231397
-2.0841e-06
0.000233978
-2.26613e-06
0.000235887
-2.49137e-06
0.000237263
0.000238222
-2.74924e-06
1.50273e-09
0.000165566
-2.23757e-07
0.000191261
-5.1847e-07
0.000203678
-8.03087e-07
0.000211974
-1.05951e-06
0.00021854
-1.2881e-06
0.000223901
-1.46976e-06
0.000228215
-1.63944e-06
0.000231567
-1.82968e-06
0.000234168
-2.0145e-06
0.000236071
-2.1809e-06
0.000237429
0.000238364
-2.32259e-06
1.1003e-08
0.000165555
-1.67236e-07
0.00019144
-4.34821e-07
0.000203946
-6.71999e-07
0.000212212
-9.07804e-07
0.000218776
-1.08969e-06
0.000224083
-1.28121e-06
0.000228407
-1.46243e-06
0.000231748
-1.61144e-06
0.000234317
-1.79033e-06
0.00023625
-1.95032e-06
0.000237589
0.000238562
-2.149e-06
4.26459e-08
0.000165513
-1.05095e-07
0.000191587
-3.24326e-07
0.000204165
-5.67542e-07
0.000212455
-7.57235e-07
0.000218965
-9.50199e-07
0.000224276
-1.09708e-06
0.000228554
-1.23435e-06
0.000231886
-1.39759e-06
0.00023448
-1.53012e-06
0.000236383
-1.69127e-06
0.00023775
0.000238696
-1.82455e-06
6.60664e-08
0.000165447
-7.3556e-08
0.000191727
-2.71076e-07
0.000204363
-4.65286e-07
0.000212649
-6.37109e-07
0.000219137
-7.84239e-07
0.000224423
-9.15873e-07
0.000228685
-1.06668e-06
0.000232036
-1.18559e-06
0.000234599
-1.30561e-06
0.000236503
-1.42991e-06
0.000237875
0.000238825
-1.55957e-06
9.92242e-08
0.000165347
6.57556e-09
0.00019182
-1.63758e-07
0.000204533
-3.37642e-07
0.000212823
-4.91556e-07
0.000219291
-6.21774e-07
0.000224553
-7.37361e-07
0.000228801
-8.45005e-07
0.000232144
-9.5012e-07
0.000234704
-1.05566e-06
0.000236608
-1.16011e-06
0.000237979
0.000238926
-1.26066e-06
1.22723e-07
0.000165225
5.89265e-08
0.000191884
-8.26051e-08
0.000204675
-2.38101e-07
0.000212978
-3.7515e-07
0.000219428
-4.63e-07
0.000224641
-5.62371e-07
0.0002289
-6.55168e-07
0.000232237
-7.46493e-07
0.000234796
-8.39743e-07
0.000236702
-9.40657e-07
0.00023808
0.000239044
-1.05915e-06
1.28086e-07
0.000165097
1.08173e-07
0.000191903
-1.16492e-08
0.000204794
-1.19294e-07
0.000213086
-2.3676e-07
0.000219546
-3.33449e-07
0.000224738
-4.17588e-07
0.000228984
-4.67586e-07
0.000232287
-5.43718e-07
0.000234872
-5.92899e-07
0.000236751
-6.66831e-07
0.000238154
0.000239079
-7.01104e-07
1.75232e-07
0.000164921
1.55477e-07
0.000191923
8.59594e-08
0.000204864
-3.16939e-08
0.000213204
-1.01023e-07
0.000219615
-1.79147e-07
0.000224816
-2.20091e-07
0.000229025
-2.83219e-07
0.00023235
-3.18122e-07
0.000234907
-3.84785e-07
0.000236818
-4.32722e-07
0.000238202
0.000239174
-5.27697e-07
1.83705e-07
0.000164738
2.08881e-07
0.000191898
1.33195e-07
0.00020494
6.29235e-08
0.000213274
1.35271e-08
0.000219664
-2.61535e-08
0.000224855
-8.02048e-08
0.000229079
-1.0106e-07
0.000232371
-1.22091e-07
0.000234928
-1.45467e-07
0.000236841
-1.98201e-07
0.000238255
0.00023919
-2.14601e-07
2.07597e-07
0.00016453
2.31578e-07
0.000191874
2.25964e-07
0.000204945
1.79508e-07
0.00021332
1.16495e-07
0.000219727
9.58499e-08
0.000224876
1.12836e-07
0.000229062
7.84222e-08
0.000232405
7.12195e-08
0.000234935
6.00844e-08
0.000236852
4.03961e-08
0.000238274
0.000239228
2.28994e-09
2.32121e-07
0.000164298
3.06429e-07
0.0001918
2.96418e-07
0.000204955
2.67512e-07
0.000213349
2.75395e-07
0.000219719
2.43464e-07
0.000224908
2.48098e-07
0.000229058
2.83682e-07
0.00023237
2.90582e-07
0.000234928
2.66206e-07
0.000236876
2.99021e-07
0.000238242
0.000239213
3.1468e-07
2.38476e-07
0.00016406
3.54853e-07
0.000191683
3.65134e-07
0.000204945
3.55228e-07
0.000213359
3.52787e-07
0.000219722
3.8996e-07
0.000224871
4.08685e-07
0.000229039
4.29845e-07
0.000232349
4.77074e-07
0.000234881
5.19044e-07
0.000236835
5.24013e-07
0.000238237
0.000239213
5.23707e-07
2.83387e-07
0.000163776
4.01911e-07
0.000191565
4.58026e-07
0.000204889
4.67835e-07
0.000213349
5.08669e-07
0.000219681
5.3484e-07
0.000224845
5.95675e-07
0.000228978
6.30045e-07
0.000232314
6.60223e-07
0.00023485
6.82332e-07
0.000236812
7.18037e-07
0.000238201
0.000239236
6.95501e-07
2.86305e-07
0.00016349
4.48662e-07
0.000191403
5.01252e-07
0.000204836
5.54234e-07
0.000213297
6.1169e-07
0.000219624
6.80049e-07
0.000224776
7.27508e-07
0.000228931
8.03979e-07
0.000232238
8.49169e-07
0.000234805
9.17615e-07
0.000236744
9.83021e-07
0.000238135
0.000239167
1.05126e-06
3.13917e-07
0.000163176
4.97016e-07
0.000191219
5.93861e-07
0.000204739
6.65941e-07
0.000213224
7.13267e-07
0.000219576
7.97025e-07
0.000224692
8.87019e-07
0.000228841
9.78079e-07
0.000232147
1.06524e-06
0.000234718
1.1469e-06
0.000236662
1.19128e-06
0.000238091
0.000239112
1.24645e-06
3.37366e-07
0.000162839
5.42985e-07
0.000191014
6.61914e-07
0.00020462
7.51429e-07
0.000213135
8.42019e-07
0.000219486
9.41413e-07
0.000224593
1.04602e-06
0.000228736
1.15017e-06
0.000232042
1.25139e-06
0.000234617
1.34482e-06
0.000236569
1.43313e-06
0.000238003
0.00023902
1.52576e-06
3.62486e-07
0.000162476
5.90489e-07
0.000190786
7.28747e-07
0.000204482
8.37019e-07
0.000213027
9.70534e-07
0.000219352
1.08436e-06
0.000224479
1.20318e-06
0.000228617
1.32123e-06
0.000231924
1.46149e-06
0.000234477
1.56578e-06
0.000236465
1.65815e-06
0.00023791
0.000238945
1.73245e-06
3.64976e-07
0.000162111
6.36115e-07
0.000190515
7.95726e-07
0.000204323
9.48247e-07
0.000212874
1.07119e-06
0.000219229
1.20062e-06
0.00022435
1.36111e-06
0.000228457
1.52058e-06
0.000231765
1.61824e-06
0.000234379
1.76401e-06
0.000236319
1.87563e-06
0.000237799
0.000238795
2.02578e-06
4.11601e-07
0.0001617
6.82308e-07
0.000190244
8.87565e-07
0.000204117
1.03341e-06
0.000212728
1.1738e-06
0.000219089
1.37265e-06
0.000224151
1.52035e-06
0.000228309
1.66462e-06
0.000231621
1.83097e-06
0.000234213
1.95755e-06
0.000236192
2.11709e-06
0.000237639
0.000238747
2.16545e-06
4.15061e-07
0.000161284
7.30774e-07
0.000189928
9.5615e-07
0.000203892
1.14483e-06
0.00021254
1.32857e-06
0.000218905
1.4625e-06
0.000224017
1.65124e-06
0.00022812
1.84039e-06
0.000231432
2.02176e-06
0.000234031
2.19843e-06
0.000236016
2.34854e-06
0.000237489
0.000238557
2.53865e-06
4.4019e-07
0.000160844
7.54264e-07
0.000189614
9.98775e-07
0.000203647
1.20588e-06
0.000212332
1.40552e-06
0.000218705
1.63528e-06
0.000223787
1.84045e-06
0.000227915
2.04243e-06
0.00023123
2.24094e-06
0.000233833
2.42775e-06
0.000235829
2.60174e-06
0.000237315
0.000238397
2.76115e-06
4.51626e-07
0.000160393
8.26951e-07
0.000189239
1.09259e-06
0.000203382
1.31836e-06
0.000212107
1.53626e-06
0.000218487
1.753e-06
0.000223571
1.97204e-06
0.000227696
2.18822e-06
0.000231013
2.42427e-06
0.000233597
2.62414e-06
0.000235629
2.81412e-06
0.000237125
0.000238206
3.00606e-06
4.93726e-07
0.000159899
8.74122e-07
0.000188858
1.16167e-06
0.000203094
1.43169e-06
0.000211837
1.66358e-06
0.000218256
1.89693e-06
0.000223337
2.15749e-06
0.000227435
2.38676e-06
0.000230784
2.5798e-06
0.000233404
2.81747e-06
0.000235391
3.00902e-06
0.000236934
0.000238013
3.20134e-06
4.99019e-07
0.0001594
9.22055e-07
0.000188435
1.22846e-06
0.000202788
1.49177e-06
0.000211573
1.76739e-06
0.00021798
2.04255e-06
0.000223062
2.28836e-06
0.00022719
2.55877e-06
0.000230514
2.82105e-06
0.000233141
3.01703e-06
0.000235195
3.26273e-06
0.000236688
0.000237789
3.48665e-06
5.2495e-07
0.000158875
9.45485e-07
0.000188015
1.32445e-06
0.000202409
1.6052e-06
0.000211293
1.89806e-06
0.000217687
2.16023e-06
0.0002228
2.45084e-06
0.000226899
2.70721e-06
0.000230257
2.98025e-06
0.000232868
3.2421e-06
0.000234933
3.4846e-06
0.000236445
0.000237607
3.66672e-06
5.33829e-07
0.000158341
1.01897e-06
0.00018753
1.36844e-06
0.000202059
1.69389e-06
0.000210967
2.00345e-06
0.000217378
2.30926e-06
0.000222494
2.61309e-06
0.000226595
2.90935e-06
0.000229961
3.17203e-06
0.000232606
3.47572e-06
0.00023463
3.71747e-06
0.000236204
0.000237313
4.01165e-06
5.62286e-07
0.000157779
1.04702e-06
0.000187045
1.43899e-06
0.000201668
1.81076e-06
0.000210595
2.1094e-06
0.000217079
2.45949e-06
0.000222144
2.749e-06
0.000226306
3.05532e-06
0.000229655
3.39949e-06
0.000232262
3.65688e-06
0.000234372
3.95018e-06
0.00023591
0.000237109
4.15476e-06
5.97324e-07
0.000157182
1.09838e-06
0.000186544
1.53192e-06
0.000201234
1.8828e-06
0.000210245
2.24623e-06
0.000216715
2.5757e-06
0.000221815
2.92371e-06
0.000225958
3.27779e-06
0.000229301
3.57288e-06
0.000231966
3.89704e-06
0.000234048
4.19232e-06
0.000235615
0.000236782
4.51929e-06
6.04541e-07
0.000156577
1.13547e-06
0.000186013
1.59115e-06
0.000200778
1.97724e-06
0.000209858
2.35759e-06
0.000216335
2.70868e-06
0.000221463
3.08266e-06
0.000225584
3.42136e-06
0.000228962
3.77696e-06
0.000231611
4.11941e-06
0.000233706
4.4125e-06
0.000235322
0.000236502
4.69177e-06
6.27132e-07
0.00015595
1.19493e-06
0.000185445
1.65471e-06
0.000200319
2.10213e-06
0.000209411
2.48285e-06
0.000215954
2.87271e-06
0.000221074
3.23907e-06
0.000225217
3.64275e-06
0.000228558
3.95715e-06
0.000231296
4.31514e-06
0.000233348
4.6625e-06
0.000234975
0.000236148
5.01662e-06
6.48476e-07
0.000155301
1.24076e-06
0.000184853
1.73966e-06
0.00019982
2.16188e-06
0.000208989
2.57875e-06
0.000215538
3.01531e-06
0.000220637
3.39146e-06
0.000224841
3.78735e-06
0.000228162
4.17095e-06
0.000230913
4.54132e-06
0.000232977
4.88668e-06
0.000234629
0.000235859
5.17573e-06
6.87154e-07
0.000154614
1.27941e-06
0.000184261
1.82699e-06
0.000199272
2.29059e-06
0.000208525
2.7037e-06
0.000215124
3.13031e-06
0.00022021
3.57358e-06
0.000224398
3.98426e-06
0.000227752
4.38244e-06
0.000230515
4.76852e-06
0.000232591
5.1445e-06
0.000234253
0.000235476
5.52751e-06
6.6699e-07
0.000153947
1.34414e-06
0.000183584
1.88858e-06
0.000198728
2.37298e-06
0.000208041
2.85331e-06
0.000214644
3.26989e-06
0.000219794
3.73101e-06
0.000223937
4.15598e-06
0.000227327
4.59388e-06
0.000230077
4.96536e-06
0.00023222
5.37232e-06
0.000233846
0.000235125
5.72419e-06
7.37994e-07
0.000153209
1.35616e-06
0.000182965
1.92487e-06
0.000198159
2.45415e-06
0.000207512
2.95332e-06
0.000214145
3.43835e-06
0.000219309
3.88778e-06
0.000223487
4.3264e-06
0.000226888
4.77895e-06
0.000229624
5.2137e-06
0.000231785
5.60194e-06
0.000233458
0.000234761
5.96529e-06
7.25556e-07
0.000152484
1.47283e-06
0.000182218
2.06402e-06
0.000197568
2.61493e-06
0.000206961
3.10728e-06
0.000213653
3.60933e-06
0.000218807
4.0744e-06
0.000223022
4.55525e-06
0.000226407
4.99536e-06
0.000229184
5.44788e-06
0.000231333
5.8595e-06
0.000233047
0.000234299
6.32183e-06
7.47981e-07
0.000151736
1.46724e-06
0.000181499
2.10011e-06
0.000196935
2.64472e-06
0.000206416
3.20861e-06
0.000213089
3.70066e-06
0.000218315
4.23422e-06
0.000222489
4.70275e-06
0.000225939
5.18401e-06
0.000228703
5.62021e-06
0.000230896
6.05964e-06
0.000232607
0.000233905
6.45374e-06
8.06602e-07
0.000150929
1.53562e-06
0.00018077
2.19361e-06
0.000196277
2.78406e-06
0.000205826
3.30933e-06
0.000212563
3.87481e-06
0.000217749
4.37126e-06
0.000221992
4.88188e-06
0.000225428
5.40553e-06
0.000228179
5.88643e-06
0.000230416
6.38542e-06
0.000232108
0.000233462
6.82796e-06
8.05091e-07
0.000150124
1.57371e-06
0.000180001
2.25466e-06
0.000195596
2.89734e-06
0.000205183
3.4709e-06
0.00021199
4.01977e-06
0.0002172
4.59086e-06
0.000221421
5.11713e-06
0.000224902
5.60056e-06
0.000227696
6.092e-06
0.000229924
6.55799e-06
0.000231642
0.000233016
7.00413e-06
7.99324e-07
0.000149325
1.61877e-06
0.000179182
2.34588e-06
0.000194869
2.98072e-06
0.000204548
3.59913e-06
0.000211371
4.17649e-06
0.000216623
4.72715e-06
0.000220871
5.26907e-06
0.00022436
5.82771e-06
0.000227137
6.36313e-06
0.000229389
6.8569e-06
0.000231149
0.00023252
7.353e-06
8.62713e-07
0.000148462
1.68478e-06
0.00017836
2.41457e-06
0.000194139
3.09595e-06
0.000203867
3.70884e-06
0.000210759
4.32446e-06
0.000216007
4.89755e-06
0.000220298
5.51582e-06
0.000223742
6.0246e-06
0.000226628
6.57978e-06
0.000228834
7.10163e-06
0.000230627
0.000232079
7.54254e-06
8.73984e-07
0.000147588
1.72497e-06
0.000177509
2.5096e-06
0.000193354
3.1797e-06
0.000203197
3.84653e-06
0.000210092
4.48054e-06
0.000215373
5.07075e-06
0.000219707
5.67317e-06
0.000223139
6.29322e-06
0.000226008
6.82854e-06
0.000228298
7.35939e-06
0.000230096
0.000231491
7.94792e-06
8.90837e-07
0.000146697
1.80547e-06
0.000176594
2.57273e-06
0.000192587
3.30726e-06
0.000202462
3.98636e-06
0.000209413
4.6389e-06
0.000214721
5.27239e-06
0.000219074
5.86464e-06
0.000222547
6.49343e-06
0.00022538
7.08411e-06
0.000227708
7.64626e-06
0.000229534
0.000231003
8.13433e-06
9.2179e-07
0.000145775
1.82167e-06
0.000175694
2.67902e-06
0.00019173
3.4278e-06
0.000201713
4.15268e-06
0.000208688
4.76228e-06
0.000214111
5.44918e-06
0.000218387
6.08293e-06
0.000221913
6.6976e-06
0.000224765
7.28953e-06
0.000227116
7.85317e-06
0.00022897
0.000230409
8.44718e-06
9.40478e-07
0.000144835
1.86894e-06
0.000174766
2.74156e-06
0.000190857
3.51328e-06
0.000200942
4.23434e-06
0.000207967
4.96052e-06
0.000213385
5.62937e-06
0.000217718
6.30579e-06
0.000221237
6.90918e-06
0.000224162
7.54372e-06
0.000226481
8.12535e-06
0.000228388
0.000229868
8.66573e-06
9.66289e-07
0.000143869
1.9397e-06
0.000173792
2.81631e-06
0.000189981
3.63592e-06
0.000200122
4.3919e-06
0.000207211
5.12697e-06
0.00021265
5.84038e-06
0.000217005
6.50902e-06
0.000220568
7.18497e-06
0.000223486
7.78806e-06
0.000225878
8.46821e-06
0.000227708
0.000229258
9.07904e-06
9.94646e-07
0.000142874
1.99109e-06
0.000172796
2.89314e-06
0.000189079
3.77485e-06
0.00019924
4.52661e-06
0.000206459
5.25701e-06
0.00021192
6.02853e-06
0.000216233
6.71469e-06
0.000219882
7.38033e-06
0.00022282
8.0762e-06
0.000225182
8.68836e-06
0.000227096
0.000228703
9.24275e-06
1.02711e-06
0.000141847
2.04946e-06
0.000171774
3.0323e-06
0.000188096
3.84002e-06
0.000198433
4.65146e-06
0.000205648
5.46703e-06
0.000211104
6.15303e-06
0.000215547
6.94947e-06
0.000219086
7.65873e-06
0.000222111
8.35984e-06
0.000224481
8.99054e-06
0.000226465
0.000228023
9.67059e-06
1.04549e-06
0.000140801
2.10457e-06
0.000170715
3.09712e-06
0.000187103
3.96799e-06
0.000197562
4.84331e-06
0.000204772
5.60026e-06
0.000210347
6.41164e-06
0.000214736
7.13416e-06
0.000218363
7.85878e-06
0.000221386
8.55848e-06
0.000223781
9.22078e-06
0.000225803
0.000227386
9.85754e-06
1.06985e-06
0.000139732
2.15575e-06
0.000169629
3.15443e-06
0.000186104
4.13828e-06
0.000196578
4.95729e-06
0.000203953
5.8175e-06
0.000209487
6.60853e-06
0.000213945
7.33387e-06
0.000217638
8.11944e-06
0.000220601
8.83964e-06
0.000223061
9.57781e-06
0.000225065
0.000226758
1.02065e-05
1.09354e-06
0.000138638
2.21187e-06
0.00016851
3.25883e-06
0.000185058
4.2071e-06
0.00019563
5.13197e-06
0.000203028
5.99816e-06
0.000208621
6.80992e-06
0.000213133
7.59635e-06
0.000216851
8.36051e-06
0.000219836
9.12747e-06
0.000222294
9.84151e-06
0.000224351
0.000226049
1.05504e-05
1.11996e-06
0.000137518
2.30573e-06
0.000167325
3.3775e-06
0.000183986
4.36024e-06
0.000194647
5.29302e-06
0.000202096
6.15682e-06
0.000207757
7.01426e-06
0.000212276
7.86351e-06
0.000216002
8.67105e-06
0.000219029
9.42713e-06
0.000221538
1.0186e-05
0.000223592
0.000225318
1.09174e-05
1.14534e-06
0.000136373
2.32491e-06
0.000166145
3.42983e-06
0.000182881
4.45522e-06
0.000193621
5.38877e-06
0.000201162
6.34338e-06
0.000206802
7.19534e-06
0.000211424
8.04429e-06
0.000215153
8.86546e-06
0.000218208
9.62728e-06
0.000220776
1.03645e-05
0.000222855
0.000224672
1.10105e-05
1.16816e-06
0.000135205
2.38194e-06
0.000164931
3.56299e-06
0.0001817
4.61502e-06
0.000192569
5.59856e-06
0.000200178
6.50931e-06
0.000205892
7.40804e-06
0.000210525
8.3037e-06
0.000214258
9.16696e-06
0.000217344
9.9849e-06
0.000219958
1.07628e-05
0.000222077
0.000223837
1.15972e-05
1.22947e-06
0.000133975
2.47554e-06
0.000163685
3.6531e-06
0.000180522
4.7344e-06
0.000191488
5.74461e-06
0.000199168
6.70449e-06
0.000204932
7.65118e-06
0.000209578
8.56424e-06
0.000213344
9.38309e-06
0.000216526
1.02648e-05
0.000219077
1.10623e-05
0.00022128
0.000223056
1.18435e-05
1.21084e-06
0.000132764
2.53225e-06
0.000162364
3.7428e-06
0.000179312
4.86345e-06
0.000190367
5.96403e-06
0.000198068
6.90275e-06
0.000203993
7.86991e-06
0.000208611
8.80882e-06
0.000212406
9.69216e-06
0.000215642
1.0546e-05
0.000218223
1.13973e-05
0.000220428
0.00022223
1.22232e-05
1.27591e-06
0.000131488
2.58848e-06
0.000161051
3.83699e-06
0.000178063
5.03362e-06
0.000189171
6.04749e-06
0.000197054
7.12826e-06
0.000202912
8.12188e-06
0.000207617
9.03237e-06
0.000211495
9.96102e-06
0.000214714
1.08586e-05
0.000217325
1.1711e-05
0.000219576
0.000221445
1.24962e-05
1.29074e-06
0.000130198
2.64346e-06
0.000159698
3.92749e-06
0.000176779
5.11594e-06
0.000187982
6.27714e-06
0.000195893
7.31204e-06
0.000201877
8.33004e-06
0.000206599
9.31373e-06
0.000210511
1.02889e-05
0.000213738
1.11864e-05
0.000216428
1.20883e-05
0.000218674
0.000220533
1.30007e-05
1.343e-06
0.000128855
2.73798e-06
0.000158303
4.0646e-06
0.000175453
5.2922e-06
0.000186755
6.43564e-06
0.000194749
7.5246e-06
0.000200788
8.59244e-06
0.000205531
9.59849e-06
0.000209505
1.05713e-05
0.000212766
1.15093e-05
0.00021549
1.24033e-05
0.00021778
0.000219745
1.31909e-05
1.33584e-06
0.000127519
2.79809e-06
0.000156841
4.15984e-06
0.000174091
5.42459e-06
0.00018549
6.65229e-06
0.000193521
7.76665e-06
0.000199674
8.78666e-06
0.000204511
9.86647e-06
0.000208425
1.08364e-05
0.000211796
1.17976e-05
0.000214529
1.27308e-05
0.000216847
0.000218761
1.37151e-05
1.42944e-06
0.000126089
2.85572e-06
0.000155415
4.25727e-06
0.000172689
5.60858e-06
0.000184139
6.77591e-06
0.000192354
7.97152e-06
0.000198478
9.06169e-06
0.000203421
1.01169e-05
0.00020737
1.11598e-05
0.000210753
1.21919e-05
0.000213496
1.31273e-05
0.000215911
0.000217938
1.39508e-05
1.41427e-06
0.000124675
2.95582e-06
0.000153873
4.40098e-06
0.000171244
5.74464e-06
0.000182795
7.04542e-06
0.000191053
8.18141e-06
0.000197342