/*--------------------------------*- C++ -*----------------------------------*\
| =========                 |                                                 |
| \\      /  F ield         | OpenFOAM: The Open Source CFD Toolbox           |
|  \\    /   O peration     | Version:  2.3.1                                 |
|   \\  /    A nd           | Web:      www.OpenFOAM.org                      |
|    \\/     M anipulation  |                                                 |
\*---------------------------------------------------------------------------*/
FoamFile
{
    version     2.0;
    format      ascii;
    class       volVectorField;
    location    "0.15";
    object      U;
}
// * * * * * * * * * * * * * * * * * * * * * * * * * * * * * * * * * * * * * //

dimensions      [0 1 -1 0 0 0 0];

internalField   nonuniform List<vector> 
15166
(
(6.06756 0.563794 2.66634e-19)
(7.26801 1.04475 1.42599e-18)
(8.33319 0.904191 -8.20153e-19)
(9.34605 0.953483 7.34652e-19)
(10.1209 1.01181 7.6422e-19)
(10.8766 1.06198 4.0728e-19)
(11.5094 1.15471 -8.11206e-19)
(12.0313 1.21561 7.87287e-19)
(12.4087 1.30404 -4.01568e-19)
(12.6997 1.35882 1.59364e-18)
(12.9123 1.40989 -1.1725e-18)
(13.0559 1.46383 1.17128e-18)
(6.76711 1.03726 4.43811e-19)
(7.68601 1.44297 5.43717e-20)
(8.61983 1.21571 2.86906e-20)
(9.52208 1.23065 4.24969e-19)
(10.2618 1.24434 -3.65916e-19)
(10.9688 1.26537 0)
(11.5653 1.32115 4.0119e-19)
(12.0513 1.36167 9.20432e-22)
(12.4122 1.41657 3.97798e-19)
(12.6902 1.4535 -8.04269e-19)
(12.8936 1.48913 1.58301e-18)
(13.0411 1.52409 -1.18219e-18)
(7.31594 1.27206 -4.1831e-19)
(8.12479 1.58881 -2.28687e-18)
(8.96663 1.38459 4.54676e-19)
(9.76899 1.41445 -8.64306e-19)
(10.4569 1.41474 -1.70727e-20)
(11.1072 1.42462 8.33424e-19)
(11.6594 1.45837 -1.1986e-18)
(12.1068 1.48364 -4.14619e-19)
(12.4446 1.51644 7.9146e-19)
(12.7044 1.53888 6.23429e-21)
(12.8958 1.56067 -1.18467e-18)
(13.0388 1.58161 1.55731e-18)
(7.62551 1.39074 0)
(8.43993 1.64784 -1.01309e-18)
(9.25078 1.48727 2.38342e-18)
(9.99586 1.53215 -1.3578e-18)
(10.6472 1.53061 8.71917e-19)
(11.252 1.53963 1.29311e-18)
(11.7653 1.56255 -4.00684e-19)
(12.1793 1.57892 4.1509e-19)
(12.4946 1.59795 -8.124e-19)
(12.7363 1.6098 8.04526e-19)
(12.9162 1.62034 4.00399e-19)
(13.0543 1.62972 7.95608e-19)
(7.83873 1.46556 -5.87501e-19)
(8.68305 1.68375 -5.46488e-19)
(9.47884 1.56321 -1.48245e-18)
(10.1897 1.61416 1.40167e-18)
(10.817 1.61293 -4.44727e-19)
(11.3885 1.62351 -4.3212e-19)
(11.8711 1.6407 -4.2267e-19)
(12.2581 1.6518 4.31461e-19)
(12.5538 1.66222 -4.10967e-19)
(12.7796 1.66686 -4.05363e-19)
(12.9488 1.6699 -1.21277e-18)
(13.0799 1.67253 -4.86819e-21)
(8.02778 1.51792 1.16432e-18)
(8.90117 1.70627 1.1098e-18)
(9.68067 1.62019 -1.04045e-18)
(10.3647 1.67274 1.96912e-18)
(10.9723 1.67311 -1.8866e-18)
(11.517 1.68543 9.04943e-19)
(11.9743 1.6991 0)
(12.339 1.70671 8.66316e-19)
(12.6178 1.71153 -1.68968e-18)
(12.8298 1.71113 8.27176e-19)
(12.9893 1.70882 0)
(13.1133 1.70626 1.2105e-18)
(8.20161 1.55294 -6.3913e-19)
(9.10351 1.71633 5.89885e-19)
(9.86694 1.65972 0)
(10.5286 1.71222 0)
(11.1179 1.71549 4.95972e-19)
(11.6394 1.72961 4.76458e-19)
(12.0749 1.74116 -9.10991e-19)
(12.4206 1.74648 1.32805e-18)
(12.6846 1.74752 4.36866e-19)
(12.8847 1.74338 0)
(13.0357 1.73672 4.20265e-19)
(13.1545 1.72998 0)
(8.35693 1.57399 -1.29349e-18)
(9.28792 1.71652 1.19521e-18)
(10.0378 1.68472 5.47319e-19)
(10.6813 1.73619 5.37785e-19)
(11.2543 1.74295 -2.50594e-18)
(11.7558 1.7588 4.89083e-19)
(12.1723 1.76926 0)
(12.5017 1.77322 -4.47314e-19)
(12.7528 1.77183 4.48291e-19)
(12.9426 1.76515 3.0134e-21)
(13.0862 1.75559 -8.40132e-19)
(13.1985 1.74625 8.31048e-19)
(8.49498 1.58406 1.33509e-18)
(9.45486 1.70937 -1.2328e-18)
(10.1936 1.69845 5.63658e-19)
(10.8225 1.74817 -1.61938e-18)
(11.3812 1.75839 2.06967e-18)
(11.8655 1.77566 -1.98457e-18)
(12.2658 1.78567 9.56659e-19)
(12.5811 1.7889 0)
(12.8212 1.78605 4.56724e-19)
(13.0021 1.77778 0)
(13.1391 1.76629 8.72894e-19)
(13.246 1.75467 -4.22758e-19)
(8.61896 1.58549 1.37684e-18)
(9.60697 1.69664 0)
(10.3365 1.70333 5.9849e-19)
(10.9533 1.75084 5.65692e-19)
(11.4992 1.7642 5.38102e-19)
(11.9686 1.78252 5.1536e-19)
(12.3549 1.79239 0)
(12.6582 1.79529 0)
(12.8887 1.7916 -1.37972e-18)
(13.062 1.78235 2.25689e-18)
(13.1931 1.76968 -8.73759e-19)
(13.2949 1.75801 -1.29938e-18)
(8.73164 1.58011 1.40788e-18)
(9.7468 1.67951 -1.93252e-18)
(10.4685 1.70099 1.82213e-18)
(11.0749 1.74606 -1.70752e-18)
(11.6091 1.76216 -5.36228e-19)
(12.0656 1.78118 -5.14108e-19)
(12.4397 1.79107 1.00146e-18)
(12.7325 1.79384 -9.71643e-19)
(12.9547 1.78972 -1.41772e-18)
(13.1216 1.77992 -4.53019e-19)
(13.2476 1.76619 1.80301e-18)
(13.3444 1.75324 -8.6903e-19)
(8.83477 1.56909 -1.44575e-18)
(9.87606 1.65866 -1.97041e-18)
(10.5912 1.6926 -3.06479e-19)
(11.1884 1.73511 1.17013e-18)
(11.712 1.75354 8.27639e-19)
(12.157 1.77296 -2.12848e-18)
(12.5202 1.78295 2.04868e-18)
(12.804 1.78575 -3.80176e-21)
(13.019 1.78152 -1.44719e-18)
(13.18 1.7717 9.38267e-19)
(13.3014 1.75787 -4.53078e-19)
(13.3936 1.74413 8.81736e-19)
(8.92948 1.55341 -1.10318e-18)
(9.99591 1.6347 -3.40959e-19)
(10.7056 1.67905 3.11161e-19)
(11.2945 1.71897 0)
(11.8085 1.73934 2.80168e-19)
(12.2432 1.75893 -2.74262e-19)
(12.5968 1.76905 0)
(12.8725 1.77192 0)
(13.081 1.76774 2.47229e-19)
(13.2368 1.7581 0)
(13.3531 1.74471 0)
(13.4395 1.73102 -8.93216e-19)
(9.01681 1.53379 -3.72093e-19)
(10.1075 1.60805 3.39385e-19)
(10.8126 1.66109 0)
(11.3941 1.69844 0)
(11.8991 1.72036 1.15151e-18)
(12.3245 1.73992 -8.35785e-19)
(12.6696 1.75011 1.06124e-18)
(12.9381 1.75302 -1.03164e-18)
(13.1411 1.74877 7.47589e-19)
(13.2925 1.73878 -5.62335e-21)
(13.4052 1.72472 -1.89042e-18)
(13.4888 1.71427 1.15159e-18)
(9.09751 1.51081 -1.53286e-18)
(10.2116 1.57903 0)
(10.9131 1.63931 1.30096e-18)
(11.4877 1.67414 -1.54925e-18)
(11.9844 1.69728 0)
(12.4014 1.71665 2.83964e-19)
(12.7389 1.7269 1.07941e-18)
(13.0011 1.72989 -2.35681e-18)
(13.1992 1.72588 2.02949e-18)
(13.3467 1.71635 -9.89826e-19)
(13.4563 1.70232 9.58195e-19)
(13.5369 1.68603 -1.16785e-18)
(9.17225 1.48497 3.58989e-21)
(10.3089 1.54792 7.12329e-19)
(11.0075 1.6142 0)
(11.5759 1.64658 3.10419e-19)
(12.0648 1.67065 0)
(12.4742 1.68973 8.56505e-19)
(12.8048 1.70001 -7.88718e-21)
(13.0614 1.70309 -8.03865e-19)
(13.2551 1.69931 0)
(13.3989 1.6902 -2.52495e-19)
(13.5052 1.67672 2.45828e-19)
(13.5831 1.65903 0)
(9.24165 1.45668 3.88525e-19)
(10.4 1.51497 -1.08562e-18)
(11.0964 1.58617 1.00938e-18)
(11.659 1.61617 -4.6726e-21)
(12.1408 1.64092 3.01057e-19)
(12.5432 1.65961 -2.90242e-19)
(12.8674 1.66989 0)
(13.119 1.67302 0)
(13.3088 1.66944 1.04314e-18)
(13.4494 1.66064 -7.68981e-19)
(13.5527 1.64779 -4.95324e-19)
(13.6272 1.63118 -2.40827e-19)
(9.30606 1.42618 3.98029e-19)
(10.4856 1.48029 3.61556e-19)
(11.1803 1.55552 -3.38045e-19)
(11.7375 1.58324 6.42307e-19)
(12.2126 1.60845 -1.53413e-18)
(12.6085 1.62668 2.99218e-19)
(12.9271 1.63692 0)
(13.1741 1.64013 5.45816e-19)
(13.3603 1.63678 -5.33388e-19)
(13.4982 1.62829 -7.74087e-19)
(13.5989 1.61599 2.53434e-19)
(13.6711 1.60071 7.29732e-19)
(9.36597 1.3938 0)
(10.566 1.44407 0)
(11.2596 1.52255 0)
(11.8117 1.54808 3.28917e-19)
(12.2805 1.57356 0)
(12.6705 1.59128 5.94655e-19)
(12.9838 1.60144 -8.66854e-19)
(13.2267 1.60472 0)
(13.4097 1.60165 -5.36357e-19)
(13.5451 1.59358 5.22025e-19)
(13.6436 1.58177 0)
(13.7138 1.56681 0)
(9.42174 1.35975 2.05924e-18)
(10.6416 1.40642 -1.49644e-18)
(11.3346 1.4875 7.0074e-19)
(11.8819 1.51091 -9.86378e-19)
(12.3448 1.53649 1.26109e-18)
(12.7293 1.55365 -9.05019e-19)
(13.0378 1.5637 8.74098e-19)
(13.2769 1.56704 2.77182e-19)
(13.457 1.56427 -1.0914e-18)
(13.5899 1.55668 7.95958e-19)
(13.6863 1.54553 0)
(13.7546 1.53023 0)
(9.47362 1.3242 -1.66784e-18)
(10.7128 1.36746 0)
(11.4055 1.45057 0)
(11.9484 1.47194 -6.65767e-19)
(12.4058 1.49746 6.4057e-19)
(12.7851 1.51402 -9.1326e-19)
(13.0892 1.52392 5.18541e-21)
(13.3247 1.52727 8.55532e-19)
(13.5021 1.52473 5.50036e-19)
(13.6328 1.51752 -5.3928e-19)
(13.727 1.507 -2.62685e-19)
(13.7931 1.49151 0)
(9.52179 1.28735 -1.26364e-18)
(10.7798 1.32732 1.15215e-18)
(11.4727 1.41195 0)
(12.0115 1.43132 -6.72786e-19)
(12.4636 1.45666 9.72053e-19)
(12.838 1.47258 0)
(13.138 1.48228 0)
(13.3704 1.48559 2.89973e-19)
(13.5454 1.48319 5.56422e-19)
(13.6741 1.47615 -5.45675e-19)
(13.7666 1.46585 5.28461e-19)
(13.8316 1.45225 0)
(9.56674 1.24923 -4.38482e-21)
(10.8429 1.28592 -1.15902e-18)
(11.5364 1.37175 0)
(12.0712 1.38921 1.02267e-18)
(12.5183 1.41427 -9.78332e-19)
(12.8883 1.42952 3.14551e-19)
(13.1845 1.43898 3.03135e-19)
(13.414 1.44225 -8.70095e-19)
(13.5868 1.44005 5.67888e-19)
(13.7138 1.43337 -2.76124e-19)
(13.805 1.42353 2.88206e-21)
(13.8687 1.41119 0)
(9.60797 1.2099 -8.56636e-19)
(10.9023 1.24343 7.83002e-19)
(11.5967 1.33014 0)
(12.1277 1.34573 -3.42486e-19)
(12.5703 1.37043 0)
(12.936 1.385 -3.14165e-19)
(13.2288 1.39422 3.29571e-21)
(13.4556 1.39745 2.96099e-19)
(13.6263 1.39545 -2.87123e-19)
(13.7518 1.38908 -2.8874e-21)
(13.8418 1.37954 -2.54346e-21)
(13.9045 1.36861 -1.05668e-18)
(9.64616 1.16987 -4.36883e-19)
(10.9581 1.20025 -7.83701e-19)
(11.6538 1.28734 7.36511e-19)
(12.1814 1.30105 3.49307e-19)
(12.6195 1.32529 0)
(12.9813 1.33917 3.20545e-19)
(13.2708 1.34814 -6.1504e-19)
(13.4951 1.3513 -5.89201e-19)
(13.6641 1.34947 8.67025e-19)
(13.7881 1.34344 -2.77075e-21)
(13.877 1.33417 -2.66067e-21)
(13.9387 1.32369 2.65727e-19)
(9.68183 1.12891 4.31713e-19)
(11.0107 1.15606 -7.96821e-19)
(11.7079 1.24333 -3.72121e-19)
(12.2323 1.25524 -3.48679e-19)
(12.6662 1.27898 -3.3661e-19)
(13.0243 1.29216 3.20433e-19)
(13.3107 1.30084 -1.24478e-18)
(13.5328 1.30392 2.9671e-21)
(13.7 1.30226 0)
(13.8228 1.29655 8.45529e-19)
(13.9108 1.28761 -2.79673e-19)
(13.972 1.27828 -2.68366e-19)
(9.71457 1.08707 -4.44356e-19)
(11.0601 1.11097 0)
(11.759 1.19825 3.23796e-21)
(12.2804 1.2084 3.54823e-19)
(12.7104 1.23158 6.75445e-19)
(13.065 1.24405 3.20059e-19)
(13.3486 1.25243 -1.25558e-18)
(13.5685 1.25544 3.07581e-19)
(13.7342 1.25397 8.86322e-19)
(13.8559 1.24866 0)
(13.943 1.24015 0)
(14.0037 1.23071 0)
(9.74432 1.04438 1.78365e-18)
(11.1065 1.06503 -8.02878e-19)
(11.8074 1.1522 7.57681e-19)
(12.3259 1.1606 -3.5452e-19)
(12.7522 1.18318 6.86756e-19)
(13.1035 1.19493 9.7714e-19)
(13.3845 1.203 -9.48766e-19)
(13.6024 1.20592 6.02586e-21)
(13.7667 1.20457 1.18899e-18)
(13.8873 1.19958 -8.69224e-19)
(13.9735 1.19158 2.81837e-19)
(14.0333 1.18298 -5.3935e-19)
(9.77144 1.00122 -4.47426e-19)
(11.1499 1.01859 -4.07113e-19)
(11.8531 1.10529 -3.77201e-19)
(12.369 1.11192 -7.13932e-19)
(12.7918 1.13386 -3.35301e-19)
(13.1399 1.1449 3.31501e-19)
(13.4184 1.15263 3.13915e-19)
(13.6345 1.15544 -9.23282e-19)
(13.7975 1.15418 3.03334e-19)
(13.9172 1.1494 5.81546e-19)
(14.0027 1.14167 -2.8194e-19)
(14.0618 1.1348 -2.77039e-19)
(9.79603 0.957519 -9.00512e-19)
(11.1905 0.971562 1.63743e-18)
(11.8962 1.0576 0)
(12.4097 1.06245 0)
(12.8291 1.08372 0)
(13.1743 1.09402 6.64234e-19)
(13.4504 1.10141 6.41376e-19)
(13.6649 1.1041 -3.09323e-19)
(13.8267 1.10296 3.0259e-19)
(13.9456 1.09849 2.23079e-21)
(14.0306 1.09103 -5.67766e-19)
(14.0892 1.08447 5.56079e-19)
(9.81858 0.913556 9.11612e-19)
(11.2287 0.924037 -2.03129e-19)
(11.9369 1.00904 -1.92641e-19)
(12.4482 1.01221 0)
(12.8644 1.03281 0)
(13.2067 1.04237 -3.33168e-19)
(13.4807 1.04942 3.21023e-19)
(13.6936 1.05199 -6.28807e-19)
(13.8544 1.05096 3.01762e-19)
(13.9725 1.04679 -8.8807e-19)
(14.057 1.03969 0)
(14.1153 1.03381 -2.79047e-19)
(9.83855 0.869042 -1.83058e-18)
(11.2641 0.875768 6.2545e-19)
(11.9751 0.959676 1.92428e-19)
(12.4843 0.961247 -5.44482e-19)
(12.8975 0.981157 7.02744e-19)
(13.2372 0.99 0)
(13.5091 0.9967 6.47134e-19)
(13.7206 0.999154 -6.33211e-19)
(13.8804 0.998229 0)
(13.9978 0.994372 0)
(14.0818 0.987665 0)
(14.1396 0.981166 5.56245e-19)
(9.85617 0.824495 0)
(11.2967 0.827332 0)
(12.0109 0.909719 -3.86708e-19)
(12.5183 0.909657 1.74877e-21)
(12.9287 0.928862 0)
(13.2658 0.936986 -6.74108e-19)
(13.5358 0.943335 1.47323e-18)
(13.746 0.945644 -4.78378e-19)
(13.9049 0.944785 -6.12724e-19)
(14.0218 0.941143 1.56469e-19)
(14.1053 0.934796 6.12233e-21)
(14.1626 0.928711 5.73113e-19)
(9.87175 0.779539 4.62032e-19)
(11.3271 0.778244 -2.10734e-19)
(12.0444 0.859115 1.95907e-19)
(12.5502 0.857513 -1.83805e-19)
(12.9578 0.875986 8.85112e-19)
(13.2926 0.883385 -1.71461e-19)
(13.5608 0.889377 -4.91763e-19)
(13.7698 0.891552 -3.15824e-19)
(13.9279 0.890777 3.1152e-19)
(14.0443 0.8874 -3.01535e-19)
(14.1275 0.881477 1.4727e-19)
(14.1845 0.87537 -1.4055e-19)
(9.8853 0.734163 6.98805e-19)
(11.3549 0.728649 -6.32349e-19)
(12.0757 0.807966 -1.95759e-19)
(12.58 0.80481 1.86302e-19)
(12.9851 0.822563 -5.314e-19)
(13.3175 0.829251 5.1433e-19)
(13.5841 0.834888 -3.28641e-21)
(13.7919 0.836946 -1.62589e-19)
(13.9494 0.83628 -3.10235e-19)
(14.0654 0.833171 4.56325e-19)
(14.1483 0.827686 1.46647e-19)
(14.2053 0.82226 -4.35456e-19)
(9.89633 0.68865 2.35422e-19)
(11.3804 0.67882 0)
(12.1048 0.756368 -1.97848e-19)
(12.6077 0.751618 1.01766e-21)
(13.0104 0.768631 0)
(13.3407 0.774607 1.72632e-19)
(13.6057 0.7799 0)
(13.8125 0.78186 0)
(13.9692 0.781337 0)
(14.0848 0.778599 0)
(14.1675 0.773674 -2.9578e-19)
(14.2245 0.768081 5.77646e-19)
(9.90582 0.642933 -4.71913e-19)
(11.4036 0.628688 0)
(12.1318 0.704338 3.96467e-19)
(12.6335 0.697933 -1.87068e-19)
(13.0339 0.714229 -3.57505e-19)
(13.3622 0.719496 1.75133e-19)
(13.6256 0.724432 -3.32961e-19)
(13.8314 0.726258 3.26154e-19)
(13.9875 0.725814 -3.13729e-19)
(14.1027 0.723344 3.21246e-21)
(14.1849 0.71906 1.52982e-19)
(14.2417 0.714707 2.90241e-19)
(9.91312 0.596723 0)
(11.4245 0.577985 -2.13741e-19)
(12.1566 0.651823 -1.98642e-19)
(12.6573 0.643767 0)
(13.0556 0.659374 -3.59109e-19)
(13.3819 0.66392 6.9519e-19)
(13.6439 0.668489 -3.37896e-19)
(13.8488 0.670152 0)
(14.0043 0.669718 0)
(14.1192 0.667319 -1.54592e-19)
(14.2011 0.663151 -1.49923e-19)
(14.257 0.661666 0)
(9.91835 0.550543 4.73836e-19)
(11.4432 0.527292 -4.39544e-21)
(12.1794 0.598987 -3.01339e-21)
(12.6792 0.589173 -3.46324e-21)
(13.0755 0.60412 -5.45465e-19)
(13.3999 0.607944 0)
(13.6607 0.612127 0)
(13.8647 0.613617 0)
(14.0198 0.61319 0)
(14.1346 0.610827 1.54666e-19)
(14.2169 0.606159 -1.4898e-19)
(14.2737 0.606667 2.9698e-21)
(9.92182 0.503905 -5.95717e-19)
(11.4597 0.476112 6.4678e-19)
(12.2002 0.545753 3.99593e-19)
(12.6993 0.534167 -3.81551e-19)
(13.0937 0.548517 9.03646e-20)
(13.4164 0.551625 0)
(13.6759 0.555458 3.37437e-19)
(13.8791 0.556819 -3.3724e-21)
(14.0339 0.556557 -3.21601e-19)
(14.1485 0.554768 0)
(14.2308 0.550815 -2.27494e-19)
(14.2873 0.545764 0)
(9.92339 0.457169 2.06488e-21)
(11.474 0.424817 4.33813e-19)
(12.2188 0.492192 1.00922e-19)
(12.7174 0.47882 2.83988e-19)
(13.1101 0.492628 -2.75561e-19)
(13.4311 0.495006 0)
(13.6895 0.498477 3.38779e-19)
(13.8921 0.49968 -3.3896e-21)
(14.0465 0.49942 -2.425e-19)
(14.1609 0.497765 0)
(14.2429 0.494359 1.5244e-19)
(14.2997 0.493071 0)
(9.92366 0.410464 1.24467e-21)
(11.4862 0.373242 3.26105e-19)
(12.2354 0.438156 -1.00905e-19)
(12.7337 0.423216 1.91166e-19)
(13.1248 0.436504 0)
(13.4443 0.438107 0)
(13.7016 0.441216 -8.55778e-20)
(13.9035 0.442253 -8.30636e-20)
(14.0577 0.442025 -8.04988e-20)
(14.172 0.440568 -7.866e-20)
(14.2541 0.43745 -1.51996e-19)
(14.3109 0.436564 1.48639e-19)
(9.92207 0.363507 -1.2072e-19)
(11.4962 0.32114 -1.08419e-19)
(12.2502 0.38366 2.01837e-19)
(12.7482 0.367369 -4.79353e-19)
(13.1379 0.380141 1.84514e-19)
(13.4559 0.380958 0)
(13.7121 0.383703 8.55899e-20)
(13.9135 0.384573 8.30846e-20)
(14.0674 0.384393 -1.61025e-19)
(14.1817 0.383126 2.372e-19)
(14.264 0.380223 1.53092e-19)
(14.3208 0.379552 -1.50884e-19)
(9.91881 0.316819 0)
(11.5038 0.269163 0)
(12.263 0.328826 1.0186e-19)
(12.7608 0.311246 0)
(13.1493 0.323607 -9.22487e-20)
(13.4659 0.323579 8.89426e-20)
(13.7212 0.325961 1.71131e-19)
(13.922 0.326665 -2.51445e-19)
(14.0758 0.326535 0)
(14.1901 0.325512 -7.92223e-20)
(14.2724 0.323013 7.64169e-20)
(14.3294 0.321561 -2.24852e-19)
(9.914 0.269943 6.09096e-20)
(11.5095 0.216831 2.17803e-19)
(12.2736 0.273624 -3.06404e-19)
(12.7719 0.254936 0)
(13.1592 0.266908 4.60009e-20)
(13.4743 0.265975 8.8317e-20)
(13.7287 0.268009 -3.44994e-19)
(13.9291 0.268538 4.18617e-19)
(14.0827 0.268431 -1.63803e-19)
(14.1971 0.267562 1.19003e-19)
(14.2796 0.265373 0)
(14.3369 0.263858 7.56528e-20)
(9.90739 0.223172 -6.09296e-20)
(11.5133 0.164429 0)
(12.2821 0.21835 -5.05615e-20)
(12.7811 0.198671 9.71315e-20)
(13.1674 0.209999 1.38389e-19)
(13.4812 0.2081 -8.97324e-20)
(13.7348 0.20986 -4.32821e-20)
(13.9348 0.210238 4.20344e-20)
(14.0883 0.210188 8.12813e-20)
(14.2027 0.2096 -1.19802e-19)
(14.2853 0.208093 -3.8853e-20)
(14.343 0.20557 -3.75871e-20)
(9.89921 0.176452 -9.10692e-20)
(11.515 0.111857 1.37733e-19)
(12.2887 0.162966 -7.67999e-20)
(12.7887 0.142435 1.20676e-19)
(13.1739 0.152877 -2.0878e-19)
(13.4865 0.149991 1.78994e-19)
(13.7394 0.151563 -6.55084e-20)
(13.939 0.151757 4.17065e-20)
(14.0924 0.151714 -1.63856e-19)
(14.207 0.151198 6.02834e-20)
(14.2898 0.149967 3.88815e-20)
(14.3475 0.147703 3.8085e-20)
(9.88958 0.13002 -9.15977e-20)
(11.5151 0.0591341 2.7792e-20)
(12.2935 0.107626 2.56337e-20)
(12.7946 0.0861713 -2.42332e-20)
(13.1786 0.0953224 -2.30381e-20)
(13.4903 0.0918013 4.50574e-20)
(13.7425 0.0931989 2.16976e-20)
(13.9418 0.0931573 0)
(14.0952 0.0931455 0)
(14.2099 0.0928343 1.99913e-20)
(14.293 0.0921794 0)
(14.3512 0.0900734 0)
(9.87855 0.0836612 -1.53555e-20)
(11.5133 0.00611083 1.37252e-20)
(12.2966 0.0523336 7.04512e-22)
(12.7987 0.0297282 -1.2585e-20)
(13.1817 0.0375463 0)
(13.4927 0.0336828 0)
(13.7442 0.0346629 1.15002e-20)
(13.9432 0.0344165 -2.11305e-20)
(14.0966 0.0344367 1.03391e-20)
(14.2116 0.0342406 6.26939e-22)
(14.2949 0.0338432 0)
(14.3532 0.0323107 0)
(9.86572 0.0375161 4.61592e-20)
(11.5096 -0.0470662 2.74895e-20)
(12.2979 -0.00314085 -1.37417e-20)
(12.8009 -0.0267675 3.79837e-22)
(13.1834 -0.0202615 -1.16545e-20)
(13.4935 -0.0245038 1.12414e-20)
(13.7444 -0.0239999 -1.15734e-20)
(13.9432 -0.0244149 -3.1629e-20)
(14.0967 -0.0243592 -1.00862e-20)
(14.2118 -0.0243456 9.51176e-21)
(14.2954 -0.0242012 -9.79327e-21)
(14.3542 -0.0251329 0)
(9.85139 -0.00832742 4.59207e-20)
(11.504 -0.100045 -8.29349e-20)
(12.2974 -0.0586086 1.30345e-20)
(12.8015 -0.0833335 -2.41276e-20)
(13.1835 -0.0781029 3.54144e-20)
(13.4928 -0.0827575 3.39617e-20)
(13.7431 -0.0827394 1.08916e-20)
(13.9418 -0.0833401 1.05825e-20)
(14.0953 -0.0833091 1.03026e-20)
(14.2107 -0.0832717 3.01403e-20)
(14.2945 -0.0830822 -9.80908e-21)
(14.3529 -0.0829173 5.74105e-20)
(9.83569 -0.0540927 -6.10844e-20)
(11.4964 -0.153014 -8.20299e-20)
(12.2953 -0.114077 1.29257e-19)
(12.8004 -0.139954 -2.43613e-20)
(13.1821 -0.13596 -1.16218e-19)
(13.4906 -0.141061 1.80031e-19)
(13.7405 -0.141511 -4.4039e-20)
(13.939 -0.142303 0)
(14.0927 -0.14232 4.12713e-20)
(14.2085 -0.142262 -2.01012e-20)
(14.293 -0.142303 1.96061e-20)
(14.3523 -0.140703 -1.91799e-20)
(9.81827 -0.099705 -1.24199e-19)
(11.4872 -0.205873 -5.67921e-22)
(12.2913 -0.169531 0)
(12.7978 -0.196605 -9.71213e-20)
(13.1791 -0.193774 9.38115e-20)
(13.487 -0.199342 0)
(13.7364 -0.200247 1.4657e-23)
(13.9349 -0.201189 0)
(14.0889 -0.201159 -4.12725e-20)
(14.205 -0.200774 0)
(14.2902 -0.200418 0)
(14.3506 -0.198363 -7.5337e-20)
(9.79935 -0.144941 6.1845e-20)
(11.476 -0.258404 5.47127e-20)
(12.2855 -0.224893 -4.12895e-19)
(12.7934 -0.253231 3.90449e-19)
(13.1746 -0.251546 -1.87669e-19)
(13.4818 -0.257596 0)
(13.7309 -0.25893 -4.36397e-20)
(13.9293 -0.260023 0)
(14.0835 -0.25998 0)
(14.2001 -0.259401 0)
(14.2856 -0.258836 0)
(14.3464 -0.256827 -1.51364e-19)
(9.77909 -0.189902 1.23771e-19)
(11.4632 -0.310775 2.21592e-19)
(12.278 -0.280228 0)
(12.7874 -0.309822 2.91999e-19)
(13.1686 -0.309245 -9.42716e-20)
(13.4752 -0.315807 0)
(13.724 -0.317568 -8.64182e-20)
(13.9224 -0.318836 8.656e-20)
(14.0768 -0.318814 1.6605e-19)
(14.1937 -0.318067 2.40692e-19)
(14.2797 -0.317096 -1.57916e-19)
(14.3409 -0.315614 7.57627e-20)
(9.75756 -0.234559 -4.95438e-19)
(11.4485 -0.362918 -1.10856e-19)
(12.2688 -0.335491 1.03343e-19)
(12.7798 -0.366353 -4.50091e-23)
(13.161 -0.366856 -9.34344e-20)
(13.4672 -0.373952 9.0036e-20)
(13.7156 -0.376148 8.6366e-20)
(13.9141 -0.377607 -2.55305e-19)
(14.0688 -0.377641 0)
(14.1862 -0.376853 -2.40655e-19)
(14.2726 -0.375713 3.14079e-19)
(14.3341 -0.374184 -3.07374e-19)
(9.73432 -0.27925 2.47816e-19)
(11.4321 -0.415103 2.21032e-19)
(12.2578 -0.390632 -2.07452e-19)
(12.7706 -0.422793 -9.76508e-20)
(13.1519 -0.424366 1.85883e-19)
(13.4577 -0.432003 -9.18124e-20)
(13.7059 -0.434617 -8.8137e-20)
(13.9044 -0.436259 8.47353e-20)
(14.0594 -0.43633 0)
(14.1774 -0.435397 0)
(14.2644 -0.433822 0)
(14.3264 -0.432125 7.97325e-22)
(9.70962 -0.323309 -2.4784e-19)
(11.4137 -0.466725 0)
(12.245 -0.445605 -1.03579e-22)
(12.7596 -0.479109 0)
(13.1412 -0.48174 9.3289e-20)
(13.4467 -0.489913 -3.5813e-19)
(13.6947 -0.492941 2.63221e-19)
(13.8933 -0.494768 -8.47567e-20)
(14.0488 -0.494883 0)
(14.1674 -0.493958 -3.20018e-19)
(14.2552 -0.492581 3.15505e-19)
(14.3181 -0.490749 -7.70433e-20)
(9.6836 -0.367408 -3.71721e-19)
(11.3937 -0.518363 2.21453e-19)
(12.2304 -0.500388 -3.09847e-19)
(12.7471 -0.535258 1.94934e-19)
(13.129 -0.538951 -2.79723e-19)
(13.4342 -0.547678 0)
(13.6821 -0.551088 0)
(13.8809 -0.553058 3.36842e-19)
(14.0368 -0.553097 -4.96179e-19)
(14.156 -0.551743 -1.59169e-19)
(14.2446 -0.549448 1.58601e-19)
(14.3094 -0.548346 0)
(9.65583 -0.411107 0)
(11.3718 -0.569614 -1.33174e-21)
(12.2142 -0.554949 -2.07639e-19)
(12.733 -0.591239 -1.69905e-21)
(13.1153 -0.595973 -1.87916e-19)
(13.4203 -0.605254 5.36901e-19)
(13.6681 -0.609063 -3.49742e-19)
(13.867 -0.611203 1.675e-19)
(14.0233 -0.611268 -1.6628e-19)
(14.143 -0.609839 1.5874e-19)
(14.232 -0.607195 -1.5817e-19)
(14.2971 -0.604018 3.01295e-19)
(9.62693 -0.454438 7.42724e-19)
(11.3484 -0.620506 2.21499e-19)
(12.1962 -0.60927 0)
(12.7172 -0.647023 3.89479e-19)
(13.1001 -0.652822 3.70556e-19)
(13.4049 -0.662677 -1.83047e-19)
(13.6526 -0.6669 -3.49295e-19)
(13.8517 -0.669242 3.04615e-22)
(14.0084 -0.66937 0)
(14.1286 -0.667939 0)
(14.2183 -0.665159 0)
(14.2835 -0.661196 0)
(9.59675 -0.497546 -7.42715e-19)
(11.3231 -0.671224 -2.2088e-19)
(12.1765 -0.663441 0)
(12.6998 -0.702629 -1.94729e-19)
(13.0833 -0.709488 -1.85712e-19)
(13.3881 -0.71993 -1.77551e-19)
(13.6358 -0.724571 3.48503e-21)
(13.8351 -0.72714 8.43205e-19)
(13.9923 -0.727354 -3.30141e-19)
(14.1131 -0.725945 0)
(14.2037 -0.723404 3.10611e-19)
(14.2694 -0.719667 -3.06336e-19)
(9.56484 -0.540449 -2.47611e-19)
(11.2961 -0.72171 1.33537e-21)
(12.1549 -0.717344 2.0739e-19)
(12.6808 -0.758023 0)
(13.065 -0.765927 1.75832e-21)
(13.3698 -0.776954 3.58971e-19)
(13.6175 -0.782015 -3.44675e-19)
(13.8172 -0.784797 5.06472e-19)
(13.9749 -0.785054 0)
(14.0964 -0.783477 0)
(14.1878 -0.78051 0)
(14.2546 -0.77701 4.50574e-19)
(9.53139 -0.582882 -9.88014e-19)
(11.2673 -0.771697 -6.60637e-19)
(12.1317 -0.770887 6.18241e-19)
(12.6601 -0.813126 0)
(13.0452 -0.822104 -3.7063e-19)
(13.3501 -0.833724 -1.78705e-19)
(13.5979 -0.839192 0)
(13.7979 -0.842192 3.33819e-19)
(13.9561 -0.842534 -3.28912e-19)
(14.0785 -0.840967 0)
(14.1706 -0.838053 0)
(14.2381 -0.833796 -1.52037e-19)
(9.49657 -0.624999 9.84343e-19)
(11.2368 -0.821347 -2.22696e-19)
(12.1067 -0.824111 -2.03627e-19)
(12.6378 -0.867926 1.95744e-19)
(13.0238 -0.87798 1.8523e-19)
(13.3289 -0.890193 -5.32317e-19)
(13.5769 -0.896071 3.4673e-19)
(13.7772 -0.899278 -3.35195e-19)
(13.9361 -0.899668 -3.2475e-19)
(14.0592 -0.897939 3.19995e-19)
(14.1523 -0.894683 0)
(14.221 -0.890319 -1.49818e-19)
(9.4603 -0.666625 4.89459e-19)
(11.2046 -0.870494 -6.62032e-19)
(12.08 -0.876975 -2.0515e-19)
(12.6139 -0.922408 1.15614e-18)
(13.0009 -0.933545 -7.41591e-19)
(13.3063 -0.946355 1.77979e-19)
(13.5544 -0.952639 6.84872e-19)
(13.7552 -0.956059 -5.04765e-19)
(13.9147 -0.956502 1.62578e-19)
(14.0386 -0.954718 0)
(14.1326 -0.95142 0)
(14.2021 -0.947111 1.50955e-19)
(9.42307 -0.707844 -8.28342e-22)
(11.1707 -0.919184 0)
(12.0515 -0.929518 6.09796e-19)
(12.5883 -0.976571 -9.68232e-19)
(12.9765 -0.988773 -7.33078e-19)
(13.2822 -1.0022 7.12488e-19)
(13.5306 -1.00888 5.11732e-19)
(13.7317 -1.01248 -8.37044e-19)
(13.8919 -1.01299 -1.62657e-19)
(14.0166 -1.01102 -7.87979e-19)
(14.1115 -1.0072 4.67014e-19)
(14.1823 -1.00351 0)
(9.3838 -0.748979 -2.45866e-19)
(11.1349 -0.967825 0)
(12.0213 -0.981734 1.01638e-18)
(12.561 -1.0304 -1.53917e-18)
(12.9505 -1.04369 3.713e-19)
(13.2566 -1.0577 -3.52907e-19)
(13.5053 -1.06479 1.71457e-19)
(13.7069 -1.06861 4.96332e-19)
(13.8677 -1.06921 -6.51047e-19)
(13.9933 -1.06729 1.58138e-19)
(14.089 -1.0634 4.59486e-19)
(14.1604 -1.06043 -6.02809e-19)
(9.34287 -0.78924 4.88731e-19)
(11.0973 -1.01558 4.35989e-19)
(11.9893 -1.0334 8.10155e-19)
(12.5321 -1.08378 -1.53552e-18)
(12.923 -1.0982 1.10301e-18)
(13.2296 -1.11283 -3.48379e-19)
(13.4786 -1.12033 3.45327e-19)
(13.6807 -1.12437 3.32142e-19)
(13.8422 -1.12502 0)
(13.9687 -1.12299 0)
(14.0655 -1.11846 -3.0329e-19)
(14.1381 -1.11572 6.4908e-21)
(9.30105 -0.829094 -2.08128e-21)
(11.0582 -1.06283 -1.84318e-21)
(11.9555 -1.08464 0)
(12.5015 -1.13677 -3.80117e-19)
(12.8939 -1.15233 1.098e-18)
(13.2011 -1.16758 -3.50652e-19)
(13.4505 -1.1755 -6.75287e-19)
(13.6531 -1.17978 3.34518e-19)
(13.8154 -1.18049 3.18981e-19)
(13.9427 -1.17851 -9.43584e-19)
(14.0404 -1.17384 0)
(14.1136 -1.17185 -2.98034e-19)
(9.25779 -0.868538 -2.20239e-21)
(11.0171 -1.10964 4.30708e-19)
(11.92 -1.13549 -4.08034e-19)
(12.4693 -1.18933 -1.14209e-18)
(12.8632 -1.20606 -3.58075e-19)
(13.1711 -1.22196 1.40402e-18)
(13.4209 -1.23027 1.53383e-21)
(13.6241 -1.23477 1.48948e-21)
(13.7871 -1.23554 3.21219e-19)
(13.9154 -1.23347 3.1323e-19)
(14.0142 -1.22819 0)
(14.089 -1.22497 8.82866e-19)
(9.2131 -0.907638 -4.86964e-19)
(10.9747 -1.15606 -4.31972e-19)
(11.8826 -1.18582 -4.04288e-19)
(12.4354 -1.24145 -3.77853e-19)
(12.831 -1.25935 7.28758e-19)
(13.1395 -1.27592 -1.04415e-18)
(13.3899 -1.28465 3.45159e-19)
(13.5937 -1.28939 6.60758e-19)
(13.7575 -1.29026 0)
(13.8866 -1.28829 3.0873e-19)
(13.9863 -1.28316 -1.21426e-18)
(14.0613 -1.27994 5.97192e-19)
(9.16658 -0.946171 4.81394e-19)
(10.9301 -1.20196 -4.34679e-19)
(11.8436 -1.23576 -1.20086e-18)
(12.3999 -1.29314 3.59551e-21)
(12.7972 -1.31219 0)
(13.1066 -1.32941 -3.46697e-19)
(13.3575 -1.33859 -3.35419e-19)
(13.5619 -1.3436 3.27421e-19)
(13.7266 -1.3446 0)
(13.8567 -1.34267 3.10772e-19)
(13.9576 -1.33762 6.0168e-19)
(14.0341 -1.334 -6.56826e-21)
(9.11836 -0.983908 4.84179e-19)
(10.8838 -1.24695 0)
(11.8025 -1.28495 7.99562e-19)
(12.3625 -1.34422 -3.80188e-19)
(12.7618 -1.36452 -3.5912e-19)
(13.0721 -1.3824 1.03619e-18)
(13.3237 -1.39203 -1.0037e-18)
(13.5288 -1.39729 9.78063e-19)
(13.6944 -1.3984 0)
(13.8256 -1.39637 -3.06213e-19)
(13.9277 -1.39102 9.05467e-19)
(14.0054 -1.38701 2.91821e-19)
(9.06933 -1.02108 -9.61964e-19)
(10.8361 -1.2913 4.26976e-19)
(11.7599 -1.33358 -3.90571e-21)
(12.3235 -1.39482 -7.55355e-19)
(12.7249 -1.41636 7.16961e-19)
(13.0362 -1.4349 0)
(13.2885 -1.44498 -3.32345e-19)
(13.4943 -1.45052 -3.24537e-19)
(13.6608 -1.45176 0)
(13.793 -1.4498 3.02994e-19)
(13.8963 -1.44463 -9.02674e-19)
(13.9753 -1.44068 -2.93101e-19)
(9.01907 -1.05788 0)
(10.7863 -1.33524 2.54518e-21)
(11.7154 -1.38175 1.18938e-18)
(12.2829 -1.44487 -6.82695e-21)
(12.6863 -1.46768 -1.78569e-18)
(12.9987 -1.48689 1.37216e-18)
(13.2518 -1.49741 -1.32508e-18)
(13.4584 -1.50319 6.47497e-19)
(13.6258 -1.50453 0)
(13.7592 -1.50247 0)
(13.8637 -1.49687 -2.96e-19)
(13.9446 -1.49272 5.78925e-19)
(8.9669 -1.09408 0)
(10.7348 -1.37852 2.68545e-21)
(11.6691 -1.42932 -1.1814e-18)
(12.2405 -1.49435 7.49124e-19)
(12.6461 -1.5184 0)
(12.9597 -1.53833 6.79521e-19)
(13.2136 -1.5493 -3.32329e-19)
(13.4211 -1.55534 0)
(13.5895 -1.55684 -6.20575e-19)
(13.724 -1.55491 6.11286e-19)
(13.8297 -1.54957 -2.975e-19)
(13.9115 -1.54565 0)
(8.91309 -1.12971 9.50829e-19)
(10.6818 -1.42122 4.24397e-19)
(11.621 -1.47618 7.87244e-19)
(12.1963 -1.5432 0)
(12.6043 -1.56854 7.03738e-19)
(12.9192 -1.58919 -3.45195e-19)
(13.174 -1.60061 -6.60035e-19)
(13.3824 -1.60693 0)
(13.5518 -1.60854 3.09142e-19)
(13.6875 -1.60651 0)
(13.7946 -1.60081 0)
(13.8783 -1.5964 0)
(8.85766 -1.1645 4.70745e-19)
(10.6265 -1.46309 -8.46147e-19)
(11.571 -1.52238 -3.93088e-19)
(12.1504 -1.59142 0)
(12.5609 -1.61807 7.00196e-19)
(12.8771 -1.63945 -3.40002e-19)
(13.1329 -1.65132 -6.49744e-19)
(13.3422 -1.6579 9.52952e-19)
(13.5127 -1.65965 -9.23053e-19)
(13.6496 -1.65772 9.04011e-19)
(13.7581 -1.65225 -8.75659e-19)
(13.8428 -1.6482 6.481e-21)
(8.80091 -1.19847 1.87992e-18)
(10.5696 -1.50397 -4.24338e-19)
(11.5191 -1.5678 0)
(12.1026 -1.63892 1.09706e-18)
(12.5158 -1.66696 -6.48986e-21)
(12.8335 -1.68906 -6.75297e-19)
(13.0903 -1.70139 -3.23422e-19)
(13.3006 -1.70825 -2.29341e-21)
(13.4722 -1.71006 6.09944e-19)
(13.6103 -1.70798 -6.02947e-19)
(13.7203 -1.70196 1.16256e-18)
(13.8072 -1.69768 -1.12865e-18)
(8.74292 -1.23191 -9.37218e-19)
(10.5111 -1.54417 -4.18338e-19)
(11.4653 -1.61251 -3.86054e-19)
(12.0532 -1.68572 -2.7798e-21)
(12.469 -1.71516 -3.46601e-19)
(12.7883 -1.73801 -6.6487e-19)
(13.0462 -1.75084 6.5096e-19)
(13.2575 -1.75801 -2.38555e-21)
(13.4302 -1.75998 0)
(13.5695 -1.75799 -8.88676e-19)
(13.6806 -1.75185 5.80076e-19)
(13.7683 -1.74672 0)
(8.68338 -1.26469 4.72256e-19)
(10.4507 -1.5837 8.32686e-19)
(11.4098 -1.65649 1.15409e-18)
(12.0019 -1.73182 -1.09435e-18)
(12.4206 -1.76268 -3.41243e-19)
(12.7416 -1.78632 9.97633e-19)
(13.0007 -1.79969 3.21843e-19)
(13.213 -1.80717 -3.12284e-19)
(13.3868 -1.80938 -1.20425e-18)
(13.5274 -1.80767 1.18578e-18)
(13.6399 -1.80203 -2.88691e-19)
(13.7285 -1.79684 -1.12183e-18)
(8.62214 -1.29674 -9.23124e-19)
(10.3885 -1.62244 1.64932e-18)
(11.3523 -1.69972 -3.87095e-19)
(11.9488 -1.77718 3.59332e-19)
(12.3704 -1.8095 3.42211e-19)
(12.6933 -1.83392 -2.73644e-21)
(12.9536 -1.84782 9.50557e-19)
(13.1672 -1.8556 -1.24218e-18)
(13.3422 -1.85801 0)
(13.4844 -1.85637 2.91647e-19)
(13.5986 -1.85091 0)
(13.6894 -1.84603 2.78235e-19)
(8.55924 -1.32796 -1.83553e-18)
(10.3243 -1.66026 1.64549e-18)
(11.2929 -1.7421 -3.82284e-19)
(11.894 -1.82173 -3.60099e-19)