/*--------------------------------*- C++ -*----------------------------------*\
| =========                 |                                                 |
| \\      /  F ield         | OpenFOAM: The Open Source CFD Toolbox           |
|  \\    /   O peration     | Version:  2.3.1                                 |
|   \\  /    A nd           | Web:      www.OpenFOAM.org                      |
|    \\/     M anipulation  |                                                 |
\*---------------------------------------------------------------------------*/
FoamFile
{
    version     2.0;
    format      ascii;
    class       volScalarField;
    location    "0.01";
    object      p;
}
// * * * * * * * * * * * * * * * * * * * * * * * * * * * * * * * * * * * * * //

dimensions      [0 2 -2 0 0 0 0];

internalField   nonuniform List<scalar> 
15166
(
8.99736
2.2446
-0.688807
-3.19832
-5.22189
-6.90232
-8.36582
-9.61698
-10.6908
-11.5423
-12.3075
-12.9355
2.21788
-0.704336
-2.00515
-3.94154
-5.62381
-7.12757
-8.47232
-9.66102
-10.6968
-11.5652
-12.3337
-12.9811
-4.00904
-4.86666
-5.04552
-6.16933
-7.21184
-8.28799
-9.33126
-10.2957
-11.173
-11.9428
-12.63
-13.2174
-7.44805
-7.82056
-7.76613
-8.45701
-9.05674
-9.77645
-10.5232
-11.2505
-11.9404
-12.5688
-13.1419
-13.6371
-9.71185
-9.93529
-9.88645
-10.381
-10.7536
-11.2563
-11.7896
-12.3281
-12.855
-13.3498
-13.8122
-14.2262
-11.7675
-11.8353
-11.7533
-12.0949
-12.3217
-12.6773
-13.0556
-13.4485
-13.8421
-14.2203
-14.5801
-14.9097
-13.7383
-13.6716
-13.5342
-13.7316
-13.8359
-14.067
-14.3166
-14.588
-14.8673
-15.1411
-15.4031
-15.6408
-15.5581
-15.3936
-15.2181
-15.2986
-15.3033
-15.4269
-15.5661
-15.7328
-15.9123
-16.0943
-16.2715
-16.427
-17.2195
-16.9779
-16.7823
-16.7746
-16.7046
-16.7406
-16.7889
-16.8673
-16.9616
-17.0644
-17.17
-17.2682
-18.7476
-18.4449
-18.2365
-18.1594
-18.033
-17.9986
-17.9732
-17.9785
-18.0007
-18.0351
-18.0749
-18.1086
-20.1676
-19.8172
-19.5993
-19.4648
-19.2937
-19.201
-19.115
-19.0588
-19.0193
-18.994
-18.9753
-18.9353
-21.4998
-21.1089
-20.8851
-20.7014
-20.4934
-20.3512
-20.2144
-20.1061
-20.0139
-19.9377
-19.8752
-19.8015
-22.7535
-22.3292
-22.1017
-21.8755
-21.6369
-21.4523
-21.2725
-21.1197
-20.9823
-20.8611
-20.7567
-20.6491
-23.9383
-23.4854
-23.2552
-22.9921
-22.7279
-22.5069
-22.2905
-22.0989
-21.9217
-21.7587
-21.6032
-21.4364
-25.0617
-24.5842
-24.3517
-24.0558
-23.7702
-23.5177
-23.27
-23.0448
-22.8337
-22.6398
-22.4654
-22.2648
-26.1293
-25.6307
-25.396
-25.0711
-24.7674
-24.4875
-24.2128
-23.9586
-23.7175
-23.4913
-23.2864
-23.0876
-27.1459
-26.6293
-26.3926
-26.042
-25.7227
-25.4186
-25.1203
-24.8407
-24.5738
-24.3203
-24.0853
-23.8678
-28.117
-27.584
-27.3449
-26.9713
-26.6386
-26.3129
-25.9941
-25.692
-25.4026
-25.1268
-24.8668
-24.6262
-29.0445
-28.4978
-28.2561
-27.8623
-27.5176
-27.1728
-26.8356
-26.5132
-26.2031
-25.9065
-25.6234
-25.353
-29.9324
-29.3734
-29.1291
-28.7172
-28.3618
-27.9996
-27.6459
-27.305
-26.9759
-26.6601
-26.3587
-26.0705
-30.783
-30.2131
-29.9661
-29.5381
-29.173
-28.7953
-28.4268
-28.0692
-27.7227
-27.3888
-27.0693
-26.7738
-31.5981
-31.0188
-30.7694
-30.327
-29.9531
-29.5615
-29.1796
-28.8069
-28.4447
-28.0934
-27.7505
-27.4226
-32.3834
-31.794
-31.541
-31.0858
-30.7039
-30.2998
-29.906
-29.52
-29.1442
-28.7802
-28.4261
-28.0823
-33.1363
-32.5379
-32.2825
-31.8159
-31.4266
-31.0115
-30.6071
-30.2095
-29.8218
-29.446
-29.0809
-28.7246
-33.8526
-33.2519
-32.9946
-32.5182
-32.1223
-31.6974
-31.2835
-30.8752
-30.4765
-30.0894
-29.7133
-29.3363
-34.5487
-33.9402
-33.6794
-33.1941
-32.7922
-32.3585
-31.936
-31.5178
-31.1088
-30.7103
-30.3235
-29.9396
-35.2172
-34.6019
-34.3389
-33.8453
-33.4376
-32.9958
-32.5653
-32.1382
-31.7198
-31.3117
-30.9164
-30.5195
-35.8604
-35.2384
-34.973
-34.4722
-34.0592
-33.6102
-33.1724
-32.7371
-32.3098
-31.8912
-31.4837
-31.0756
-36.4739
-35.8501
-35.5832
-35.0756
-34.658
-34.2025
-33.7582
-33.3157
-32.8808
-32.4542
-32.0382
-31.6211
-37.0662
-36.438
-36.1702
-35.6566
-35.2348
-34.7736
-34.3235
-33.8746
-33.4332
-33.0004
-32.5795
-32.1502
-37.6376
-37.0061
-36.7352
-36.2159
-35.7904
-35.324
-34.8685
-34.4138
-33.9662
-33.5268
-33.0995
-32.6687
-38.1926
-37.5522
-37.28
-36.7548
-36.3255
-35.8541
-35.3937
-34.9335
-34.48
-34.034
-33.6004
-33.1602
-38.7139
-38.0752
-37.8029
-37.2726
-36.8401
-36.3644
-35.8994
-35.4342
-34.9751
-34.5226
-34.0815
-33.6415
-39.2251
-38.5783
-38.3051
-37.7704
-37.3351
-36.8554
-36.3863
-35.9165
-35.4527
-34.9952
-34.5487
-34.1005
-39.7123
-39.0645
-38.7891
-38.2489
-37.811
-37.3276
-36.8548
-36.381
-35.9129
-35.4509
-34.9994
-34.552
-40.1792
-39.5263
-39.2531
-38.7086
-38.2686
-37.7816
-37.3052
-36.8275
-36.3553
-35.8895
-35.4346
-34.9822
-40.627
-39.9728
-39.6995
-39.1497
-38.7078
-38.2174
-37.7377
-37.2562
-36.7795
-36.308
-35.8446
-35.386
-41.0641
-40.4016
-40.1285
-39.5732
-39.1296
-38.6358
-38.1529
-37.6677
-37.1871
-36.7108
-36.2397
-35.7652
-41.4724
-40.8109
-40.5395
-39.9792
-39.5343
-39.0374
-38.5517
-38.0633
-37.5793
-37.1
-36.625
-36.1263
-41.871
-41.2071
-40.9339
-40.3682
-39.9223
-39.4225
-38.9344
-38.4435
-37.957
-37.4772
-37.0129
-36.5359
-42.2458
-41.5847
-41.311
-40.7406
-40.294
-39.7912
-39.3009
-38.8076
-38.3182
-37.8322
-37.3553
-36.8886
-42.6068
-41.9458
-41.6719
-41.0965
-40.6494
-40.1437
-39.6512
-39.1553
-38.6637
-38.176
-37.6962
-37.2124
-42.9591
-42.292
-42.0168
-41.4369
-40.989
-40.4803
-39.9856
-39.4873
-38.993
-38.5029
-38.0201
-37.531
-43.286
-42.6199
-42.348
-41.7613
-41.3132
-40.8013
-40.3045
-39.8037
-39.3068
-38.814
-38.33
-37.841
-43.6075
-42.9346
-42.6635
-42.0702
-41.622
-41.1069
-40.6081
-40.1049
-39.6056
-39.1098
-38.6222
-38.1346
-43.9064
-43.2331
-42.9637
-42.3635
-41.9159
-41.3973
-40.8966
-40.3911
-39.8897
-39.3921
-38.9041
-38.4222
-44.1927
-43.5175
-43.2496
-42.6418
-42.1949
-41.6727
-41.1703
-40.6624
-40.1586
-39.6577
-39.1628
-38.6744
-44.4621
-43.7873
-43.52
-42.9057
-42.4596
-41.9336
-41.4293
-40.9192
-40.4134
-39.911
-39.4155
-38.9306
-44.7218
-44.0456
-43.7765
-43.1547
-42.71
-42.18
-41.6742
-41.1619
-40.6541
-40.1495
-39.6497
-39.1577
-44.9651
-44.2907
-44.0193
-43.3903
-42.9464
-42.4122
-41.9049
-41.3905
-40.8809
-40.3752
-39.8759
-39.3875
-45.1915
-44.5225
-44.2441
-43.6114
-43.1686
-42.6302
-42.1216
-41.6051
-41.0935
-40.5852
-40.0807
-39.5833
-45.408
-44.7427
-44.4561
-43.8186
-43.3772
-42.8343
-42.3246
-41.8059
-41.2925
-40.7824
-40.2749
-39.763
-45.6114
-44.9452
-44.6538
-44.0135
-43.572
-43.0246
-42.5141
-41.9936
-41.4793
-40.9696
-40.468
-39.9671
-45.7959
-45.1344
-44.8392
-44.1927
-43.753
-43.2012
-42.69
-42.1676
-41.6522
-41.1408
-40.6374
-40.132
-45.9709
-45.3129
-45.0082
-44.3589
-43.9204
-43.3638
-42.852
-42.3274
-41.8102
-41.2964
-40.7911
-40.2866
-46.1303
-45.4763
-45.1644
-44.5119
-44.0745
-43.5129
-43.0005
-42.4735
-41.9546
-41.4384
-40.9295
-40.4246
-46.2805
-45.6227
-45.3095
-44.6505
-44.2158
-43.6487
-43.136
-42.6068
-42.0869
-41.57
-41.0613
-40.5612
-46.4046
-45.7555
-45.4398
-44.7763
-44.3441
-43.771
-43.2586
-42.7272
-42.2064
-41.6883
-41.176
-40.6676
-46.5257
-45.8724
-45.5536
-44.8914
-44.4599
-43.8798
-43.3679
-42.8344
-42.3131
-41.7959
-41.2899
-40.7984
-46.6252
-45.9754
-45.6542
-44.9926
-44.5604
-43.9751
-43.464
-42.9277
-42.4053
-41.8856
-41.3728
-40.8742
-46.7117
-46.067
-45.7395
-45.0784
-44.6492
-44.0564
-43.5464
-43.0068
-42.4829
-41.9616
-41.4465
-40.935
-46.7895
-46.1464
-45.8115
-45.1541
-44.7254
-44.1239
-43.6158
-43.0725
-42.5473
-42.0239
-41.507
-40.9861
-46.8535
-46.2098
-45.8726
-45.2168
-44.785
-44.1772
-43.6725
-43.1258
-42.6003
-42.0765
-41.5638
-41.0585
-46.8985
-46.2594
-45.9201
-45.2661
-44.831
-44.2163
-43.7165
-43.1661
-42.6414
-42.1164
-41.6003
-41.0892
-46.9337
-46.2974
-45.9541
-45.3012
-44.8611
-44.2416
-43.749
-43.1933
-42.6702
-42.1454
-41.6324
-41.1275
-46.9522
-46.3209
-45.9745
-45.3279
-44.8728
-44.2555
-43.7699
-43.2067
-42.6864
-42.1601
-41.6456
-41.1381
-46.9587
-46.3318
-45.9792
-45.3359
-44.872
-44.2655
-43.7784
-43.2049
-42.6908
-42.1615
-41.6478
-41.1515
-46.9598
-46.3278
-45.9722
-45.3305
-44.86
-44.2645
-43.7682
-43.1901
-42.684
-42.1482
-41.6335
-41.1339
-46.9309
-46.3086
-45.9498
-45.3126
-44.8359
-44.2493
-43.7339
-43.1743
-42.6574
-42.126
-41.6117
-41.1215
-46.8957
-46.2766
-45.9151
-45.2806
-44.8012
-44.2162
-43.6952
-43.1418
-42.6199
-42.0902
-41.5729
-41.0785
-46.8504
-46.2333
-45.8681
-45.2362
-44.7522
-44.1695
-43.6473
-43.0949
-42.5711
-42.0424
-41.5255
-41.0364
-46.7933
-46.1743
-45.809
-45.1774
-44.6921
-44.1105
-43.5867
-43.0347
-42.51
-41.9818
-41.4633
-40.9664
-46.7219
-46.106
-45.7379
-45.1058
-44.6199
-44.0386
-43.5137
-42.9622
-42.4367
-41.9086
-41.389
-40.8855
-46.6298
-46.0201
-45.6497
-45.0233
-44.5343
-43.9544
-43.4291
-42.8782
-42.3525
-41.8255
-41.3097
-40.8153
-46.5278
-45.9204
-45.5531
-44.9254
-44.4376
-43.858
-43.3329
-42.7828
-42.2573
-41.7307
-41.2131
-40.7086
-46.4236
-45.8163
-45.4442
-44.8173
-44.3282
-43.7497
-43.2249
-42.676
-42.1512
-41.6263
-41.1134
-40.6201
-46.3013
-45.6942
-45.3231
-44.6965
-44.2074
-43.6299
-43.1054
-42.5578
-42.0339
-41.51
-40.996
-40.4979
-46.1666
-45.5582
-45.1886
-44.5629
-44.0746
-43.498
-42.9741
-42.4281
-41.9054
-41.3836
-40.8734
-40.3841
-46.0163
-45.4141
-45.0418
-44.4171
-43.9292
-43.3539
-42.8311
-42.2866
-41.7652
-41.2454
-40.7353
-40.2416
-45.8498
-45.2531
-44.8817
-44.259
-43.7716
-43.1978
-42.676
-42.1334
-41.6138
-41.0966
-40.5926
-40.1142
-45.6782
-45.0818
-44.71
-44.0888
-43.6017
-43.0297
-42.509
-41.9681
-41.4495
-40.9332
-40.4264
-39.9396
-45.4956
-44.8995
-44.5287
-43.9075
-43.4207
-42.8502
-42.3302
-41.791
-41.2732
-40.7576
-40.2498
-39.753
-45.2992
-44.7048
-44.3339
-43.7136
-43.228
-42.659
-42.1402
-41.6033
-41.0875
-40.5751
-40.0736
-39.5846
-45.0886
-44.4978
-44.1266
-43.5078
-43.0233
-42.4563
-41.9392
-41.4052
-40.892
-40.3837
-39.8895
-39.4183
-44.8646
-44.2778
-43.9072
-43.2902
-42.8067
-42.2419
-41.7267
-41.1953
-40.6841
-40.1771
-39.6802
-39.2008
-44.6266
-44.0464
-43.6761
-43.0614
-42.5791
-42.0159
-41.5023
-40.9734
-40.4642
-39.9598
-39.4669
-38.9968
-44.389
-43.8052
-43.4345
-42.8209
-42.3392
-41.7783
-41.2665
-40.7401
-40.2332
-39.7312
-39.2382
-38.7599
-44.1305
-43.5504
-43.1808
-42.5683
-42.0877
-41.5293
-41.0193
-40.496
-39.9918
-39.4941
-39.0084
-38.5512
-43.8572
-43.2819
-42.9136
-42.3036
-41.8249
-41.2687
-40.7609
-40.2407
-39.7392
-39.245
-38.7612
-38.3071
-43.572
-43.0019
-42.6347
-42.0274
-41.5499
-40.9964
-40.4909
-39.9735
-39.4745
-38.983
-38.5013
-38.0538
-43.2765
-42.7096
-42.3447
-41.7389
-41.2634
-40.7125
-40.2091
-39.6946
-39.1979
-38.7079
-38.2218
-37.7437
-42.9696
-42.4064
-42.0425
-41.4396
-40.9655
-40.4173
-39.9164
-39.4053
-38.9123
-38.4284
-37.9574
-37.5233
-42.6517
-42.0943
-41.7292
-41.1287
-40.6563
-40.1109
-39.6126
-39.1052
-38.6159
-38.1357
-37.6632
-37.2105
-42.3246
-41.7659
-41.404
-40.8061
-40.3354
-39.7929
-39.2971
-38.7932
-38.3069
-37.8296
-37.3612
-36.913
-41.9735
-41.4261
-41.0663
-40.4711
-40.0025
-39.463
-38.9697
-38.4696
-37.9867
-37.513
-37.048
-36.5949
-41.6237
-41.0754
-40.7163
-40.1239
-39.6579
-39.1212
-38.631
-38.1348
-37.6558
-37.187
-36.731
-36.2968
-41.2581
-40.7128
-40.3541
-39.7647
-39.3007
-38.7675
-38.2804
-37.788
-37.3125
-36.8466
-36.389
-35.9381
-40.8635
-40.3299
-39.9771
-39.3921
-38.9312
-38.4015
-37.9177
-37.4296
-36.9582
-36.497
-36.0472
-35.6143
-40.4728
-39.942
-39.5886
-39.0069
-38.549
-38.0233
-37.5432
-37.0593
-36.5927
-36.1362
-35.6898
-35.2498
-40.0633
-39.5375
-39.1871
-38.6096
-38.1549
-37.6326
-37.1562
-36.6768
-36.215
-35.7645
-35.3287
-34.9147
-39.644
-39.121
-38.7727
-38.1989
-37.7474
-37.229
-36.7562
-36.2812
-35.8232
-35.3752
-34.9361
-34.5069
-39.2015
-38.6877
-38.3434
-37.7746
-37.3265
-36.8121
-36.3433
-35.8724
-35.418
-34.9737
-34.5369
-34.1017
-38.7479
-38.2413
-37.9003
-37.3366
-36.8924
-36.3824
-35.9178
-35.4516
-35.0022
-34.5643
-34.1387
-33.7225
-38.2891
-37.7841
-37.4448
-36.8855
-36.4452
-35.9396
-35.4796
-35.0183
-34.5739
-34.1406
-33.7192
-33.3108
-37.8079
-37.3119
-36.9751
-36.4206
-35.9845
-35.4834
-35.0279
-34.5714
-34.1314
-33.7011
-33.2777
-32.854
-37.3142
-36.822
-36.4893
-35.9408
-35.5092
-35.0133
-34.5625
-34.1117
-33.6774
-33.2541
-32.8432
-32.4473
-36.7996
-36.3174
-35.9878
-35.4455
-35.019
-34.5287
-34.0832
-33.6381
-33.2091
-32.7903
-32.3783
-31.9635
-36.2753
-35.7961
-35.4701
-34.9343
-34.5135
-34.0291
-33.5897
-33.1505
-32.727
-32.314
-31.9099
-31.505
-35.7313
-35.2563
-34.9357
-34.4073
-33.9923
-33.5145
-33.0813
-32.6489
-32.2318
-31.8254
-31.4302
-31.0456
-35.1613
-34.6995
-34.3834
-33.8625
-33.4543
-32.9841
-32.5576
-32.1319
-31.7208
-31.319
-30.9227
-30.5206
-34.5786
-34.1226
-33.8124
-33.3003
-32.8995
-32.4373
-32.0183
-31.5998
-31.1962
-30.8026
-30.4201
-30.051
-33.9721
-33.5255
-33.2222
-32.7195
-32.3268
-31.8733
-31.4622
-31.0518
-30.6554
-30.2673
-29.8847
-29.5026
-33.3537
-32.9127
-32.6132
-32.1198
-31.7355
-31.2913
-30.889
-30.4873
-30.0992
-29.7198
-29.3493
-28.996
-32.7091
-32.2751
-31.9811
-31.4988
-31.124
-30.6904
-30.2972
-29.9052
-29.5263
-29.1563
-28.7962
-28.4572
-32.0332
-31.6109
-31.3264
-30.8558
-30.4912
-30.0689
-29.6857
-29.3031
-28.9328
-28.5697
-28.2095
-27.8378
-31.3439
-30.9236
-30.6456
-30.1878
-29.8349
-29.4253
-29.0534
-28.6822
-28.3229
-27.9723
-27.632
-27.3051
-30.6088
-30.2031
-29.936
-29.4931
-29.1532
-28.758
-28.3989
-28.0401
-27.6921
-27.3519
-27.017
-26.6714
-29.8488
-29.4538
-29.1957
-28.7691
-28.4443
-28.0655
-27.7205
-27.3761
-27.0421
-26.7175
-26.4047
-26.1061
-29.0521
-28.6712
-28.4241
-28.0149
-27.7064
-27.3455
-27.0165
-26.6879
-26.3688
-26.0571
-25.7524
-25.4489
-28.23
-27.8514
-27.6162
-27.2262
-26.9365
-26.5957
-26.2848
-25.974
-25.6729
-25.3799
-25.0992
-24.846
-27.3555
-26.989
-26.7681
-26.3998
-26.1311
-25.8135
-25.5234
-25.2327
-24.951
-24.6779
-24.4165
-24.1761
-26.424
-26.0767
-25.873
-25.5305
-25.2865
-24.9958
-24.7295
-24.4617
-24.2015
-23.9488
-23.7013
-23.4409
-25.4513
-25.1164
-24.9292
-24.6151
-24.4
-24.1402
-23.9021
-23.6625
-23.4308
-23.209
-23.0027
-22.8194
-24.4236
-24.0973
-23.9309
-23.6492
-23.4673
-23.2434
-23.0384
-22.8311
-22.6303
-22.4371
-22.2509
-22.054
-23.3156
-23.0105
-22.8692
-22.6257
-22.483
-22.3021
-22.1367
-21.9681
-21.8059
-21.6526
-21.5131
-21.3921
-22.1389
-21.8517
-21.7377
-21.538
-21.4424
-21.3124
-21.1943
-21.0717
-20.9539
-20.843
-20.7394
-20.6325
-20.8817
-20.609
-20.5282
-20.3803
-20.3405
-20.2714
-20.2102
-20.1428
-20.0786
-20.0201
-19.968
-19.9162
-19.5173
-19.2702
-19.2297
-19.144
-19.1721
-19.1765
-19.1848
-19.1838
-19.1834
-19.1864
-19.1936
-19.1931
-18.0517
-17.8262
-17.833
-17.8226
-17.9336
-18.0272
-18.12
-18.1995
-18.2757
-18.3523
-18.433
-18.5187
-16.4529
-16.2601
-16.327
-16.4095
-16.6237
-16.8263
-17.0218
-17.1968
-17.3609
-17.5162
-17.6601
-17.7772
-14.7198
-14.5579
-14.7022
-14.9033
-15.2479
-15.5849
-15.9046
-16.1945
-16.4632
-16.7144
-16.948
-17.1624
-12.8144
-12.701
-12.9539
-13.314
-13.8259
-14.3272
-14.7949
-15.2171
-15.6037
-15.9583
-16.2781
-16.5538
-10.7042
-10.6692
-11.0936
-11.678
-12.4051
-13.101
-13.7367
-14.3054
-14.8196
-15.2854
-15.7002
-16.0555
-8.33596
-8.47175
-9.18728
-10.0905
-11.0819
-11.9909
-12.8007
-13.5163
-14.1587
-14.7372
-15.2516
-15.7014
-5.63837
-6.33566
-7.56869
-8.87961
-10.1042
-11.1784
-12.1301
-12.9663
-13.7089
-14.379
-14.9587
-15.4577
-4.68695
7.90006
-12.6542
-18.8902
-19.3729
-5.65805
-3.63963
27.9023
-36.8593
-23.9245
-15.4877
-9.49127
17.0386
-15.499
-1.29898
-4.98879
-15.6056
-19.0868
-18.4471
-4.79407
31.0008
31.5395
20.504
-13.3453
-2.46033
-13.0811
29.4498
-3.1375
-29.9161
-34.3057
-32.8356
14.7663
7.81425
-15.5971
17.0493
21.9717
28.5816
-27.6669
33.8697
-9.61487
1.59804
-0.563962
18.0698
-6.13083
38.1034
31.1113
19.8506
16.7272
37.9521
30.9273
22.7477
27.7477
37.4166
1.50734
-15.3129
7.5648
8.44869
-0.866459
-28.2723
-0.5457
28.9903
14.6099
1.54005
1.29163
21.0234
7.81983
-22.3587
37.666
0.212323
-23.4996
-15.3911
15.2017
33.764
-18.1326
-12.9618
2.25919
-36.4954
-1.20873
11.3969
34.1314
8.10584
-1.43146
30.1741
37.5235
4.80297
-29.096
-21.6634
1.09914
-26.9153
38.2911
18.235
-34.3209
0.186601
6.30783
34.1739
-3.30839
-2.74368
-1.9119
-0.0452427
-17.127
-30.3561
18.082
4.83699
7.07682
-1.17112
32.0256
-2.6258
28.0055
-16.5962
0.268856
4.35141
-1.45051
33.5693
-5.46039
1.66267
21.3621
-14.3395
-8.35365
-31.2086
-21.3032
-24.186
-12.3359
-23.9031
19.1352
-16.6707
-16.1165
-1.74361
-5.28075
10.8309
1.18171
38.981
1.4447
34.7334
7.13242
27.9654
8.53987
38.2596
-24.2284
33.3026
7.69385
-12.0588
22.9585
36.2441
0.326066
38.9029
-16.0966
36.1659
-6.77309
-36.7229
10.4042
0.17304
22.8006
-1.29984
9.33176
25.44
2.88118
33.8439
-1.13983
-24.65
-10.0868
-14.3009
-4.90133
-23.5404
-11.9993
28.3374
21.621
14.6424
37.9335
18.8368
1.29844
-17.9782
-19.8175
-15.4868
-12.4062
-0.836926
-33.9657
1.76035
37.172
28.0416
-32.857
14.3372
-12.0764
-7.78786
35.9222
5.47413
29.7496
3.01593
-1.07373
38.5532
1.6102
-27.5482
-1.40851
19.675
-5.11421
32.4378
13.9907
16.89
28.6496
2.13836
-24.2219
-35.0074
36.4862
33.9421
30.4624
35.9831
16.2659
-8.54996
-27.173
-17.7182
-15.8998
16.648
-37.5253
32.1598
36.6998
1.80648
35.7619
-9.63058
-15.3487
-24.6356
38.3821
37.4115
-35.3743
37.3261
-2.38377
-2.07987
-15.9986
-29.627
-0.765858
-23.7022
12.3077
27.9828
-15.8193
-1.71038
-16.8405
-15.3063
34.6397
29.3841
-33.9218
-7.27192
34.2622
-24.5819
22.6273
-10.9617
-18.1388
14.6686
14.6656
33.1016
5.05903
-14.118
36.0575
-24.8711
-18.0996
-30.4867
-32.8276
41.3679
-26.5922
-0.945506
33.9243
-29.1116
37.0772
-15.3998
34.882
15.5312
-8.94798
-23.452
35.4517
-38.4457
30.1445
-7.34921
-26.48
-0.901842
19.2715
-28.432
39.0327
39.0131
-27.1181
34.9604
33.0878
37.8934
38.3817
21.7785
36.6543
36.2565
35.9946
-24.6881
17.7735
-29.2019
38.974
-38.881
27.4866
38.4218
-24.503
37.3242
37.5691
36.5379
20.3565
29.2464
41.3809
21.9608
33.9506
32.8527
-1.0947
-10.1296
-14.6871
25.5878
-33.8416
37.5464
1.56923
17.5787
13.5455
-11.3242
36.8295
3.05749
-39.0798
36.5414
18.0151
36.9759
-30.0389
1.86695
12.7834
16.8029
-28.5669
-16.6999
56.2358
34.01
-29.4711
-24.7857
-1.59639
2.17114
36.9049
-8.16494
0.489267
-29.3509
-1.69562
2.24173
3.72983
-1.18192
17.6502
2.08216
6.13439
-4.89251
30.9763
0.456844
22.1247
8.61242
44.6799
27.9937
-25.0959
-26.0431
-15.6337
-0.105234
-3.1719
15.6864
28.717
37.9544
-0.908578
-20.7975
37.6179
-38.0257
-29.6713
41.4602
38.0491
-38.8407
-26.2023
25.6846
-20.6775
-2.71804
0.659501
-2.09852
1.38003
-17.5632
39.5861
33.5693
-69.0502
-23.5392
31.3981
34.9011
-36.8774
3.21419
-30.4126
-19.5901
-8.3644
-1.16934
31.2271
-30.113
15.7307
-0.691426
13.2628
31.9392
16.7756
3.03553
-34.1953
-29.9795
37.1523
36.4223
-2.65131
-23.3194
-2.0032
-27.2608
-25.389
10.5366
-11.4409
-16.8413
12.5358
-13.8254
14.2034
-35.9042
-34.4363
38.7324
28.2199
-1.50146
-0.659734
1.61983
-39.5307
14.3151
13.7971
-27.3121
28.8625
22.4264
2.93235
0.186678
35.5937
1.47856
-1.93904
26.3916
0.457948
-20.0712
-37.9146
36.8246
0.479578
-8.83907
-11.3466
-21.0851
34.1696
-20.918
1.74983
-15.2386
-34.4416
26.3388
-1.09505
37.5461
48.0896
9.68289
35.0424
6.60759
-16.691
-4.94004
33.7984
29.6512
1.90446
-17.9028
34.4317
26.0833
10.4242
-32.2696
22.361
8.93129
38.646
34.2157
-14.9555
14.8403
-2.38893
16.8883
0.639231
-36.5189
-27.0009
1.74919
31.3685
27.5128
25.0432
-22.4003
29.1693
5.16974
0.665344
-14.8633
-38.2876
33.9564
1.76187
37.6858
-15.6569
0.119905
28.3723
36.2407
-21.3002
-18.3454
40.8514
31.2815
-4.87948
-11.5277
-37.2123
-12.1579
0.682769
17.4506
-24.443
-6.64482
38.5443
-24.9031
-1.41345
31.7028
38.1259
-35.9717
27.3488
37.8998
2.11769
21.858
35.433
9.90659
-34.016
38.3586
-17.9325
20.7217
-19.827
-16.3885
-23.7812
1.94901
-27.3572
38.767
-34.061
-15.7093
25.347
10.6292
-14.951
1.0509
36.1398
-0.133277
14.4858
-16.2581
39.0654
41.1678
-20.5781
36.418
-28.1638
-19.1899
-16.3801
-1.81295
27.7834
-38.245
-10.3032
33.3105
-28.5513
-5.12253
-8.16129
-20.6725
-19.1829
-33.2021
-1.33211
-17.3458
1.77139
20.3178
16.8721
14.9481
-19.1098
31.2333
31.1087
-16.3748
27.9908
14.2175
-22.286
0.388022
0.297123
1.1949
-17.8635
37.2659
-23.6664
-10.9968
-25.4559
37.6526
0.366928
20.4554
34.6925
9.3434
-39.9432
33.0178
41.6182
37.3534
7.97666
0.325249
-1.48543
-1.89906
-31.7697
-16.5047
25.7771
-34.9891
3.74932
-29.8329
24.4204
26.2999
30.4075
-26.4505
0.0852051
-24.1464
1.10392
18.1779
-20.7283
36.5596
-21.4677
-0.0383343
-30.8984
-35.7173
32.3821
1.53705
-0.712066
-27.3772
-19.0611
8.925
-5.04422
6.91882
-21.226
-12.0573
6.4022
30.3945
-20.6647
-26.5379
-1.34728
1.01737
-28.8758
35.7348
35.8218
32.4706
8.68836
27.4771
-7.62368
-29.5355
31.7995
-1.63191
14.6175
14.3358
1.37424
11.2562
37.9589
-54.082
-40.1347
3.0243
-19.7988
42.9103
-36.0775
11.3529
15.0312
23.1865
-1.00526
39.0452
31.3109
10.8359
-21.2888
-17.6691
-0.74996
-34.4387
-39.2768
32.7811
-26.2834
3.90748
2.5142
-29.7881
-29.8528
8.41288
1.83646
-30.2981
-0.579188
-33.6317
26.3385
-15.0564
1.7464
-36.0272
-0.131285
37.7114
-18.6543
38.4295
19.7943
29.1893
-34.0333
-0.595907
2.34753
-37.0333
38.0702
-31.7767
-3.65239
-26.2024
-17.8082
-18.7147
2.13147
28.2966
-17.6275
32.1441
3.54649
-20.6082
37.6021
33.7594
-20.1179
18.4198
-18.6492
35.8625
23.6575
33.2379
-1.50541
10.1699
-5.42218
1.27958
39.5635
2.05561
36.0539
-9.16962
-33.5443
1.1963
25.7496
33.9216
-16.2824
-8.67124
-25.9954
21.9995
-21.295
-13.2776
-21.794
-33.6836
-1.36958
1.03464
34.0057
23.611
33.0462
22.1733
3.33613
37.197
37.4042
38.8191
-21.5193
-33.7496
38.9193
-0.0531801
-14.3868
-23.7015
32.5871
1.33842
10.5923
-18.2642
18.6208
-1.78919
-24.3157
1.81007
-13.9879
-23.2338
5.33295
32.465
-1.04439
15.5713
25.7312
1.45792
-6.39682
-0.711664
6.53493
-8.70159
-21.4346
-31.0127
24.1073
34.3377
1.81667
-17.488
-0.0673475
2.05657
-19.8923
7.86762
31.9493
11.536
-27.9304
-2.30349
-57.3299
-1.35981
-16.5324
14.7715
32.2651
-1.18771
38.4418
-39.9888
26.1103
-19.3768
-37.372
-26.5548
28.0296
-17.0454
-17.7038
5.19299
6.47133
27.1654
-24.5952
-17.9596
29.7821
0.0438931
37.4322
-5.17368
-31.8411
-37.8575
-37.9935
-16.5304
-37.8639
-16.5924
5.62638
37.4515
43.166
-11.4955
19.0776
-2.44215
30.4536
-16.7512
-3.91659
-24.2853
-28.3364
17.5483
24.7932
-33.2382
-10.0358
26.2356
-14.9639
-27.381
-29.0585
0.532346
-34.9534
-14.3226
31.0961
31.4667
41.3962
-0.317799
-8.65696
-8.20663
1.73687
2.24109
34.0758
24.4205
24.4229
-17.5088
0.556588
-28.2316
0.481051
18.1465
1.58008
-19.0062
-7.59413
20.5779
-35.9472
20.0247
15.1169
31.6442
-1.40749
11.9802
-17.9219
7.60738
10.3589
45.4128
-15.5787
24.9503
-0.368411
-5.35774
-14.6028
26.5898
-11.1133
-27.6633
39.5086
0.743625
-38.8791
25.8106
8.00733
-10.4631
-24.7961
37.4236
0.10946
1.00643
-35.9514
39.7074
-37.6381
1.182
-32.3732
-28.8932
35.6979
5.80324
27.0737
-29.1925
5.54228
37.6631
-0.964699
-39.167
38.3997
37.3952
37.2715
2.8582
1.86569
-1.07946
-23.6448
-29.9572
-30.1813
0.224373
-12.7695
3.39063
10.1366
-15.9342
22.2039
24.8427
29.7411
27.537
26.1651
32.8248
-18.2241
0.500448
37.8313
-30.2629
37.8947
1.28531
-26.0141
-3.07519
1.93001
3.73695
41.3425
-12.1429
-9.83552
40.2862
-22.3601
-3.01481
3.30923
6.63439
8.91182
-13.5231
14.3815
2.44667
-2.27473
-9.53806
12.1561
-17.1597
-35.6294
29.1456
-15.5456
19.2954
-29.2615
21.648
22.4925
33.8567
-36.6856
30.5684
1.45421
15.6881
-8.10321
-3.92193
-37.1221
40.9361
8.53637
28.2823
-5.41492
-27.7899
-18.9935
-5.91752
37.7242
2.54064
30.0647
-29.979
23.8161
-1.94715
-38.2657
34.6006
-33.5767
22.4038
34.713
-14.3133
-22.8794
9.77984
1.02571
11.688
36.2667
-0.547125
-34.6205
21.5436
-1.76405
-17.8918
9.09504
26.2138
38.9694
-26.2317
37.5865
26.0937
-22.4987
30.0803
29.5308
38.8391
30.499
4.15371
-1.31092
-15.0845
-6.43199
-14.1321
30.541
-1.21071
-34.1423
25.9722
-1.53625
36.8169
10.7736
16.85
34.3147
31.5061
-33.7208
-18.1063
39.1662
-26.8064
-12.733
20.3877
31.884
-30.4082
-20.2583
-35.1145
-23.0865
-17.9006
33.8976
-11.3818
-18.9319
-29.2031
0.0284453
-21.5201
28.1553
15.9568
1.66177
-8.44749
-7.6094
36.6183
-1.73912
18.6246
0.351434
33.5372
-8.01505
3.02926
-34.971
29.4958
1.68809
25.8966
36.6274
-24.4924
35.0803
-15.0405
35.0799
-7.09618
40.5033
25.4354
2.56043
8.32802
37.3876
32.4171
-0.195819
1.98655
30.2899
3.56509
29.4464
-21.3358
-28.094
32.9715
-16.2573
5.79615
-116.431
-28.0105
37.4549
-22.1571
-36.8173
2.05882
24.5894
-33.2137
-27.3063
2.21208
30.8829
-0.649647
-4.75963
37.0783
-12.3561
-7.07197
5.53026
-16.8066
-27.0556
11.4159
-0.369778
15.3677
-0.734585
8.08339
22.0337
-28.6475
27.4055
4.83123
-2.0201
-39.5065
39.6017
4.45144
8.56258
15.9434
10.2997
35.7402
35.1957
-17.7887
-0.807793
-16.4188
2.45988
58.7019
36.6903
-40.8902
32.8472
-21.3796
1.9474
-38.8263
0.123179
2.45593
8.73201
26.9548
37.3119
-37.2951
2.41889
-18.1705
-1.02753
12.4449
-37.5435
1.11149
25.3534
4.74218
1.3277
4.99119
5.11774
-17.7223
-30.3235
-13.4881
2.74575
-1.98699
21.4729
26.4333
31.3825
-35.6331
28.6421
26.4006
2.6167
11.1654
-29.8209
17.3736
-17.411
11.2154
1.42066
36.5383
-1.70858
38.7618
23.4452
-10.4186
-2.05735
38.8694
-17.7802
26.5804
1.72736
-19.4663
-23.1428
28.779
-2.60454
-14.5415
-31.8351
-71.0191
17.4851
-26.1156
1.74549
1.28598
0.891062
-13.9433
36.2141
-33.5056
0.146569
36.795
-34.6595
14.1725
31.5482
-10.7877
10.8865
1.32343
24.729
38.7876
37.8805
-0.507874
-22.6389
-1.60975
-12.7583
-18.808
-37.5216
16.3392
-29.917
-31.7862
7.39497
-2.60872
4.15764
-1.05085
5.63982
-16.5118
-5.20876
1.11559
-47.262
38.2791
-21.5046
33.0232
-9.23924
3.07941
1.62361
-27.287
36.4699
-23.0743
-2.17757
21.4259
38.0194
-23.3254
6.4716
-35.5458
29.7328
19.2035
35.9921
17.6618
37.5329
24.4005
-11.0631
30.3558
3.18956
33.3425
-5.83687
25.5941
-21.7591
33.1051
-15.0049
15.3998
37.1959
-5.08647
35.2055
38.3686
35.5214
-27.2006
-7.17677
6.82276
1.96799
-17.9519
-15.2356
1.80635
-12.6895
2.24243
11.7429
17.4146
39.5507
-36.6386
-23.0912
9.1449
-31.8845
-12.1233
36.4752
-1.82909
32.5224
-38.2704
0.967135
-26.8236
-3.89692
7.12734
17.0229
15.6587
35.1485
44.3321
-5.01247
9.50415
36.3369
-32.1132
12.4369
21.2122
32.543
39.1988
-16.6659
38.9223
-32.0076
-2.06989
-18.087
1.33891
-5.94756
35.4024
-23.7672
24.6678
35.8231
-22.6975
-19.0025
27.4634
1.1642
33.629
0.98398
1.20278
-0.69423
1.89954
16.2263
32.1998
-26.7807
21.9334
15.9584
5.45219
3.20565
25.6838
35.5157
21.8699
23.686
-11.8424
36.1794
-1.12404
36.3618
-14.8985
6.14935
1.80477
-15.4124
-2.55633
32.3608
-26.9535
-34.8971
-34.5464
3.91997
-21.4114
34.2346
38.9
0.795837
-10.8525
17.8709
39.0656
-23.8931
34.9236
-1.47439
-31.4049
2.70064
14.4714
-11.8952
25.9527
15.9455
-14.7507
-0.188463
54.8341
-0.387352
-28.6735
9.68629
2.97945
10.6411
35.5626
-0.781701
-0.053415
-6.33263
6.67938
35.9298
-17.5256
-2.8982
38.2295
30.3695
35.3842
2.1225
38.7592
15.7212
13.229
-22.6943
35.646
-9.20422
38.0872
-13.0494
14.0741
15.3113
49.3768
-0.25662
29.597
32.5612
36.4893
6.98423
0.547365
37.9635
9.36132
1.68011
-6.82556
-38.1559
0.748847
-34.663
-39.1999
19.2094
30.8104
-27.5441
33.1506
-23.6286
-14.1844
-24.0439
-17.3827
-33.4781
37.2869
27.6825
-0.868398
35.5786
-5.03669
-0.318646
2.61108
11.7885
1.78117
3.65798
-24.5848
-50.8979
-11.999
11.347
-34.5505
33.9894
-2.50041
38.7516
14.1292
-13.9963
31.2918
-28.2426
35.6486
26.6038
18.6135
-1.32658
2.20539
16.5964
12.9667
37.801
37.5541
-28.1647
35.7485
35.5184
-6.47012
14.5338
38.4074
-0.603064
33.3985
-15.7368
3.55625
-18.7578
-2.29155
-20.0419
28.4405
-18.2368
-31.8505
5.89904
-19.0043
4.6078
-8.38663
1.29892
-20.4561
-33.3161
-13.3753
-0.136297
-1.06807
11.5043
31.2704
-28.4942
37.9708
-22.7655
33.4133
31.8925
-5.37859
37.1046
-0.703218
-24.1864
29.5976
-20.2046
11.402
-39.3086
-18.1114
29.883
37.0807
-39.9131
22.394
-23.8299
35.553
-21.6464
13.3969
-30.9845
36.1351
8.75632
-20.2435
-36.4254
-28.4718
1.42843
0.283308
-4.40802
-4.70522
34.6327
-0.687794
24.4816
40.6012
18.2809
-29.1196
2.69764
-29.6928
36.2556
38.6491
33.5488
33.0869
-30.5994
-3.70364
1.60548
4.52801
-16.9187
2.58477
29.6618
35.0501
7.53979
-19.3379
-31.0919
35.384
23.2657
1.78596
27.7929
-26.2623
7.26999
13.1889
33.9803
26.753
-14.1039
16.6139
-0.343418
12.0821
36.8706
5.94629
-11.4065
2.28381
38.6789
-6.17949
26.7509
-36.8095
1.30915
-18.997
-14.7176
-11.5213
3.21816
-16.3912
0.647644
34.0532
35.9916
38.1285
-5.93823
8.82574
-26.9816
-13.2653
-17.1754
-18.7289
0.190919
1.94967
15.9429
-11.6832
-5.80134
23.0791
3.54667
-29.6179
-8.40443
-6.62992
-23.9392
21.3331
10.3919
14.3847
-40.351
9.35497
-0.868175
37.9695
42.5327
-33.8676
-0.386791
37.2616
32.7263
-3.20151
32.1561
-21.2906
-17.8059
5.00021
40.3425
-13.6
31.3438
-32.8815
-22.1765
19.2223
-10.866
-0.870822
36.7255
-1.51706
9.13769
10.1656
26.5357
-21.4017
-34.9459
9.9836
-10.8784
1.21814
-27.6862
-7.36916
2.79829
-5.65774
34.3506
29.2358
30.3791
-3.57798
28.7974
-4.50891
1.5582
-3.19565
-33.8395
-26.616
-23.3997
22.6082
32.4625
36.6083
-22.7296
4.78914
2.5825
-0.680105
29.9492
-66.9265
-22.7589
-26.9339
3.53986
-11.9199
24.3005
34.7595
38.0532
-25.9177
33.7921
-36.6917
-0.193467
3.7051
-36.2478
30.2042
-36.79
-0.220978
35.4244
8.17549
-34.1215
-2.19659
18.2359
13.3888
12.8275
-0.731974
14.294
7.16661
-34.444
-31.3312
-0.477595
25.109
-2.43705
29.9755
-25.5465
-1.10002
24.3446
0.0526929
37.4961
-21.7198
31.3109
-1.26157
34.9836
38.9885
34.8116
-20.3804
23.702
-16.5244
1.5511
-16.9116
38.0815
-38.3927
-17.7145
-5.78991
-3.09078
36.2491
8.06402
-20.0292
1.46046
6.50321
1.79198
7.01616
-0.115582
-2.27464
-30.9017
-15.7844
1.28851
-31.1488
-17.1443
-12.187
-33.2644
-7.30472
-1.91006
35.6561
-9.59387
0.640537
-28.9902
30.3519
-27.5322
25.8359
-14.9748
10.916
-0.39884
-4.74588
-13.0605
7.6573
-34.0179
-14.5849
-9.10931
-27.3192
32.3398
-28.4893
3.38255
-5.36741
-17.1201
-9.63865
13.2523
19.9498
-1.53351
-16.1683
4.97497
-25.2147
-25.481
20.8084
-1.40215
34.9465
1.08637
-6.35619
21.3707
1.4638
33.9218
-5.09848
1.6538
17.0355
1.24182
-3.98191
9.1323
3.44474
-24.4926
38.0887
-38.3473
-25.2423
-35.3682
-6.34782
24.7298
32.7382
-35.475
-17.5487
1.84399
-62.5818
19.7166
-27.5796
-7.6603
-18.8189
0.147763
-0.329554
20.3939
-25.14
34.8127
-28.2814
28.6728
-2.51406
1.69977
3.7932
26.4362
-6.65628
-22.6248
-1.50429
-6.11334
31.494
13.948
-3.81044
-15.0176
0.149892
24.4324
1.03109
1.76942
38.2226
-34.7378