/*--------------------------------*- C++ -*----------------------------------*\
| =========                 |                                                 |
| \\      /  F ield         | OpenFOAM: The Open Source CFD Toolbox           |
|  \\    /   O peration     | Version:  2.3.1                                 |
|   \\  /    A nd           | Web:      www.OpenFOAM.org                      |
|    \\/     M anipulation  |                                                 |
\*---------------------------------------------------------------------------*/
FoamFile
{
    version     2.0;
    format      ascii;
    class       volScalarField;
    location    "0.99";
    object      nut;
}
// * * * * * * * * * * * * * * * * * * * * * * * * * * * * * * * * * * * * * //

dimensions      [0 2 -1 0 0 0 0];

internalField   nonuniform List<scalar> 
14568
(
9.5145e-05
0.000199784
0.000339232
0.00048314
0.000611387
0.00075675
0.000907116
0.00106881
0.00122466
0.0013889
0.00154712
0.00168688
9.5052e-05
0.000223141
0.000370752
0.000513795
0.000646223
0.000789619
0.000937419
0.00109283
0.00124553
0.00140325
0.00155566
0.00169631
9.531e-05
0.00024359
0.000396989
0.000540524
0.000675946
0.000817749
0.000963057
0.00111354
0.00126303
0.00141533
0.0015631
0.00170355
9.56849e-05
0.000262565
0.000420422
0.000564736
0.000701956
0.000842226
0.000985072
0.00113149
0.00127779
0.0014255
0.00156946
0.00170948
9.61107e-05
0.000280144
0.000441951
0.000587076
0.000725199
0.000863922
0.0010043
0.0011472
0.00129034
0.00143406
0.00157478
0.00171374
9.66106e-05
0.000296359
0.000461976
0.000607857
0.000746222
0.000883327
0.0010213
0.001161
0.0013011
0.00144125
0.00157902
0.00171651
9.71931e-05
0.000311331
0.000480788
0.00062729
0.000765424
0.000900874
0.00103645
0.00117321
0.00131037
0.00144727
0.00158238
0.00171889
9.78364e-05
0.00032513
0.000498606
0.000645573
0.000783133
0.000916871
0.00105011
0.00118409
0.0013184
0.00145235
0.00158515
0.00172123
9.85174e-05
0.000337835
0.000515576
0.000662902
0.000799613
0.000931587
0.00106252
0.00119385
0.00132543
0.00145663
0.00158721
0.00172181
9.92274e-05
0.000349473
0.000531732
0.000679367
0.000815058
0.000945262
0.00107391
0.00120269
0.00133164
0.00146026
0.00158875
0.00172152
9.99536e-05
0.000360078
0.000547136
0.000695074
0.000829632
0.000958024
0.00108445
0.00121075
0.00133717
0.00146337
0.00159008
0.00172271
0.000100686
0.000369753
0.000561787
0.000710103
0.000843458
0.000970028
0.00109425
0.00121814
0.00134212
0.00146605
0.00159102
0.00172184
0.000101422
0.00037849
0.000575675
0.000724474
0.00085662
0.000981384
0.00110344
0.00122499
0.00134659
0.00146832
0.00159143
0.00171973
0.000102141
0.000386376
0.00058883
0.00073823
0.000869204
0.000992167
0.0011121
0.00123134
0.00135064
0.00147023
0.00159135
0.00171767
0.000102849
0.000393422
0.000601239
0.000751428
0.000881261
0.00100246
0.00112029
0.0012373
0.00135437
0.00147184
0.00159101
0.00171502
0.000103539
0.000399717
0.000612883
0.000764061
0.000892851
0.00101232
0.00112811
0.00124292
0.00135779
0.00147318
0.00159033
0.00171172
0.000104199
0.000405294
0.0006238
0.000776155
0.000904006
0.00102178
0.00113556
0.00124823
0.00136095
0.00147428
0.00158944
0.00170894
0.000104837
0.000410198
0.000633965
0.000787718
0.000914745
0.0010309
0.00114272
0.00125328
0.00136389
0.00147519
0.00158836
0.00170559
0.000105446
0.00041448
0.000643419
0.000798757
0.000925101
0.0010397
0.00114962
0.00125812
0.00136664
0.00147593
0.00158713
0.00170211
0.00010602
0.000418186
0.000652142
0.000809263
0.000935077
0.00104822
0.00115626
0.00126274
0.00136921
0.00147652
0.00158577
0.00169885
0.000106565
0.00042138
0.00066017
0.000819253
0.000944693
0.00105644
0.00116268
0.00126718
0.00137164
0.00147697
0.00158423
0.00169506
0.000107076
0.000424072
0.000667527
0.000828728
0.00095395
0.00106441
0.00116891
0.00127146
0.00137393
0.0014773
0.00158259
0.00169133
0.000107551
0.000426318
0.000674231
0.000837685
0.000962862
0.00107214
0.00117494
0.0012756
0.00137611
0.00147755
0.001581
0.00168906
0.000107988
0.000428173
0.000680294
0.000846136
0.000971425
0.00107963
0.00118081
0.00127961
0.0013782
0.00147774
0.00157939
0.00168586
0.000108395
0.000429639
0.000685776
0.000854078
0.000979649
0.00108688
0.00118652
0.00128352
0.00138022
0.00147789
0.00157786
0.00168356
0.000108779
0.00043077
0.000690673
0.000861533
0.000987529
0.00109392
0.00119209
0.00128732
0.00138218
0.00147802
0.00157633
0.00168046
0.000109124
0.000431623
0.000695033
0.000868505
0.000995068
0.00110074
0.00119751
0.00129104
0.00138409
0.00147818
0.00157495
0.00167836
0.000109435
0.000432175
0.00069888
0.000874993
0.00100227
0.00110733
0.0012028
0.00129469
0.00138597
0.00147833
0.00157364
0.00167625
0.000109718
0.000432476
0.000702226
0.000881019
0.00100915
0.00111371
0.00120795
0.00129825
0.00138781
0.00147849
0.00157228
0.00167303
0.000109966
0.000432554
0.000705134
0.000886593
0.00101567
0.00111987
0.00121297
0.00130175
0.00138964
0.00147867
0.00157099
0.00167083
0.000110188
0.000432456
0.0007076
0.000891718
0.00102188
0.00112582
0.00121787
0.00130519
0.00139146
0.00147887
0.0015697
0.00166781
0.000110387
0.000432154
0.00070967
0.000896419
0.00102774
0.00113154
0.00122264
0.00130858
0.00139327
0.00147911
0.0015685
0.00166576
0.000110552
0.000431692
0.000711366
0.000900711
0.00103329
0.00113707
0.00122731
0.00131191
0.00139507
0.00147937
0.00156729
0.00166273
0.000110695
0.00043109
0.000712714
0.000904597
0.00103852
0.00114237
0.00123184
0.00131519
0.00139689
0.0014797
0.00156614
0.0016602
0.000110816
0.000430382
0.000713723
0.000908089
0.00104343
0.00114746
0.00123627
0.00131845
0.00139876
0.00148004
0.00156492
0.00165684
0.000110909
0.000429543
0.00071443
0.000911228
0.00104803
0.00115236
0.00124059
0.0013217
0.00140062
0.00148042
0.00156381
0.00165477
0.000110987
0.000428609
0.000714852
0.000914007
0.00105234
0.00115706
0.00124483
0.0013249
0.00140247
0.00148082
0.00156274
0.00165197
0.000111036
0.000427592
0.000715013
0.000916453
0.00105639
0.00116159
0.00124895
0.00132803
0.00140432
0.00148125
0.00156179
0.00165038
0.000111068
0.000426428
0.000714937
0.000918632
0.00106015
0.0011659
0.00125293
0.00133111
0.00140616
0.0014817
0.00156082
0.00164754
0.000111079
0.000425111
0.000714603
0.00092048
0.0010636
0.00116998
0.00125678
0.00133413
0.001408
0.00148219
0.00155992
0.00164546
0.00011107
0.000423707
0.000714053
0.00092203
0.00106677
0.00117384
0.00126049
0.00133708
0.00140983
0.00148271
0.00155902
0.0016428
0.000111048
0.000422235
0.000713236
0.000923241
0.00106964
0.00117748
0.00126405
0.00133997
0.00141165
0.00148326
0.00155825
0.00164121
0.000111009
0.000420737
0.000712214
0.00092415
0.00107223
0.0011809
0.00126748
0.00134279
0.00141346
0.00148384
0.00155746
0.00163866
0.000110957
0.000419168
0.000711037
0.000924778
0.00107454
0.00118409
0.00127077
0.00134556
0.00141527
0.00148444
0.00155674
0.00163638
0.000110884
0.000417521
0.000709631
0.000925131
0.00107657
0.00118707
0.00127391
0.00134824
0.00141707
0.00148508
0.001556
0.0016337
0.000110791
0.000415817
0.000708097
0.000925224
0.00107833
0.00118983
0.00127692
0.00135086
0.00141886
0.00148574
0.00155528
0.00163099
0.000110687
0.000414119
0.000706398
0.000925068
0.00107983
0.00119238
0.00127977
0.0013534
0.00142062
0.00148641
0.00155464
0.0016293
0.000110564
0.000412363
0.00070455
0.000924674
0.00108108
0.00119469
0.00128247
0.00135585
0.00142235
0.00148708
0.00155399
0.00162685
0.000110426
0.000410561
0.000702562
0.00092405
0.00108206
0.00119681
0.00128501
0.00135821
0.00142405
0.00148777
0.00155341
0.00162513
0.000110277
0.00040878
0.000700448
0.000923186
0.0010828
0.00119869
0.0012874
0.00136048
0.00142571
0.00148845
0.00155284
0.0016229
0.000110118
0.000407012
0.000698253
0.000922146
0.0010833
0.00120038
0.00128963
0.00136266
0.00142735
0.00148917
0.00155236
0.00162143
0.000109934
0.00040513
0.000695942
0.000920912
0.0010836
0.00120185
0.00129171
0.00136475
0.00142894
0.00148989
0.00155191
0.00161939
0.000109735
0.00040329
0.000693529
0.00091949
0.00108364
0.00120312
0.00129364
0.00136675
0.00143051
0.00149063
0.00155155
0.00161802
0.000109526
0.00040146
0.000691028
0.000917892
0.00108349
0.00120418
0.00129541
0.00136865
0.00143204
0.00149138
0.00155119
0.00161606
0.000109305
0.000399605
0.000688483
0.000916156
0.00108313
0.00120506
0.00129702
0.00137044
0.00143352
0.00149213
0.0015509
0.00161484
0.000109069
0.000397782
0.000685858
0.000914236
0.00108258
0.00120574
0.00129847
0.00137214
0.00143496
0.00149289
0.00155061
0.00161289
0.000108822
0.000395933
0.000683193
0.000912199
0.00108183
0.00120622
0.00129977
0.00137375
0.00143637
0.00149367
0.00155036
0.00161095
0.000108555
0.000394105
0.000680465
0.000910021
0.0010809
0.00120652
0.00130092
0.00137525
0.00143772
0.00149443
0.00155017
0.00160991
0.000108283
0.000392312
0.000677674
0.000907709
0.0010798
0.00120664
0.00130192
0.00137662
0.00143899
0.00149514
0.00154989
0.00160804
0.000107995
0.000390491
0.000674868
0.000905296
0.00107852
0.00120659
0.00130276
0.0013779
0.00144022
0.00149586
0.00154965
0.00160625
0.000107695
0.000388701
0.000672013
0.000902747
0.0010771
0.00120636
0.00130345
0.00137908
0.0014414
0.00149659
0.00154959
0.0016059
0.000107379
0.000386937
0.000669148
0.000900141
0.00107551
0.00120598
0.00130401
0.00138015
0.00144252
0.00149732
0.00154958
0.001605
0.00010705
0.00038514
0.000666273
0.000897428
0.00107379
0.00120543
0.00130442
0.00138113
0.0014436
0.00149805
0.00154954
0.00160334
0.00010671
0.000383438
0.000663363
0.000894617
0.00107192
0.00120472
0.0013047
0.00138201
0.00144465
0.0014988
0.00154954
0.00160183
0.00010636
0.000381699
0.00066044
0.000891718
0.00106994
0.00120387
0.00130484
0.00138278
0.00144562
0.00149953
0.00154958
0.00160107
0.000105985
0.00037998
0.000657519
0.000888784
0.00106781
0.00120286
0.00130484
0.00138345
0.00144654
0.00150023
0.00154965
0.00160002
0.000105606
0.000378302
0.000654605
0.000885764
0.00106556
0.00120171
0.00130469
0.00138399
0.00144736
0.00150091
0.00154976
0.00159962
0.000105226
0.000376706
0.000651668
0.000882667
0.0010632
0.00120041
0.00130439
0.00138442
0.00144811
0.00150154
0.00154987
0.00159914
0.000104824
0.000375064
0.000648735
0.000879549
0.00106073
0.00119898
0.00130397
0.00138476
0.00144882
0.00150224
0.00155025
0.00159914
0.000104405
0.000373451
0.000645817
0.000876362
0.00105816
0.00119743
0.00130344
0.001385
0.0014495
0.00150296
0.0015506
0.00159838
0.000103979
0.000371913
0.000642949
0.000873119
0.00105549
0.00119575
0.00130279
0.00138515
0.00145013
0.00150366
0.00155095
0.00159798
0.000103545
0.000370399
0.000640062
0.000869872
0.00105274
0.00119396
0.00130201
0.00138521
0.00145067
0.00150429
0.00155118
0.00159706
0.000103093
0.000368892
0.000637197
0.000866595
0.00104993
0.00119206
0.00130111
0.00138516
0.00145115
0.00150489
0.00155138
0.00159602
0.000102627
0.000367405
0.000634379
0.000863273
0.00104703
0.00119004
0.00130011
0.00138502
0.00145158
0.00150548
0.0015517
0.00159589
0.000102153
0.000365991
0.000631551
0.000859959
0.00104405
0.00118794
0.00129901
0.00138479
0.00145195
0.00150605
0.00155203
0.0015954
0.000101664
0.000364582
0.000628779
0.000856608
0.00104103
0.00118574
0.00129779
0.00138447
0.00145225
0.00150661
0.00155244
0.00159549
0.000101162
0.00036322
0.000626034
0.000853268
0.00103794
0.00118345
0.00129648
0.00138405
0.00145248
0.00150712
0.0015528
0.00159503
0.000100653
0.000361904
0.000623346
0.000849919
0.0010348
0.00118107
0.00129507
0.00138356
0.00145266
0.00150763
0.00155321
0.00159496
0.000100129
0.000360624
0.000620688
0.000846575
0.00103163
0.0011786
0.00129355
0.00138296
0.00145276
0.0015081
0.00155357
0.00159449
9.9593e-05
0.000359385
0.00061807
0.000843248
0.0010284
0.00117607
0.00129195
0.00138228
0.00145281
0.00150853
0.00155402
0.00159476
9.90477e-05
0.00035819
0.000615496
0.000839926
0.00102515
0.00117346
0.00129026
0.00138152
0.00145277
0.00150892
0.0015544
0.00159456
9.84882e-05
0.000357035
0.000612987
0.000836617
0.00102187
0.0011708
0.0012885
0.00138067
0.00145268
0.00150926
0.00155471
0.00159397
9.79173e-05
0.000355923
0.00061052
0.000833336
0.00101856
0.00116808
0.00128665
0.00137974
0.00145254
0.00150959
0.00155506
0.00159374
9.73344e-05
0.000354854
0.000608107
0.000830087
0.00101526
0.0011653
0.00128473
0.00137875
0.00145233
0.00150989
0.0015555
0.00159433
9.67362e-05
0.00035382
0.000605765
0.000826874
0.00101193
0.00116247
0.00128274
0.00137768
0.00145206
0.00151017
0.001556
0.00159454
9.61321e-05
0.000352852
0.000603483
0.000823695
0.00100861
0.0011596
0.00128068
0.00137654
0.00145175
0.00151045
0.00155654
0.0015951
9.55148e-05
0.000351928
0.000601263
0.000820565
0.00100528
0.00115671
0.00127857
0.00137533
0.00145138
0.00151069
0.00155701
0.00159508
9.48828e-05
0.000351043
0.000599115
0.000817482
0.00100197
0.00115377
0.0012764
0.00137408
0.00145099
0.00151098
0.00155769
0.00159593
9.4241e-05
0.00035021
0.00059703
0.000814449
0.000998676
0.00115083
0.00127419
0.00137277
0.00145056
0.00151126
0.00155841
0.00159685
9.35883e-05
0.000349441
0.000595026
0.000811478
0.000995398
0.00114785
0.00127193
0.00137141
0.0014501
0.00151154
0.00155921
0.00159833
9.29247e-05
0.00034871
0.000593103
0.000808574
0.000992151
0.00114488
0.00126964
0.00137001
0.00144961
0.00151182
0.00155993
0.00159835
9.22465e-05
0.000348036
0.000591264
0.000805736
0.000988941
0.0011419
0.00126733
0.00136859
0.00144913
0.00151215
0.0015608
0.00159943
9.15571e-05
0.000347416
0.000589502
0.000802977
0.000985775
0.00113893
0.00126499
0.00136712
0.00144857
0.00151236
0.00156141
0.00159961
9.08592e-05
0.000346858
0.00058783
0.000800296
0.000982652
0.00113596
0.00126263
0.00136562
0.00144798
0.00151254
0.00156204
0.00160022
9.0151e-05
0.000346367
0.000586249
0.000797697
0.000979586
0.00113301
0.00126025
0.00136408
0.00144734
0.00151267
0.00156261
0.0016005
8.9429e-05
0.000345923
0.000584769
0.000795193
0.000976582
0.00113009
0.00125787
0.00136251
0.00144666
0.0015128
0.00156328
0.00160149
8.86985e-05
0.000345553
0.00058339
0.000792796
0.000973655
0.0011272
0.00125549
0.00136091
0.00144595
0.00151288
0.00156387
0.00160194
8.79557e-05
0.000345247
0.000582122
0.000790503
0.000970809
0.00112436
0.00125311
0.00135929
0.00144522
0.00151298
0.00156458
0.00160309
8.72027e-05
0.000345011
0.00058096
0.000788331
0.000968054
0.00112157
0.00125074
0.00135767
0.00144445
0.00151302
0.00156517
0.00160353
8.64398e-05
0.000344838
0.000579913
0.000786281
0.000965398
0.00111884
0.0012484
0.00135604
0.00144368
0.00151311
0.00156602
0.00160534
8.56675e-05
0.000344749
0.000578996
0.000784361
0.000962854
0.00111619
0.00124611
0.00135443
0.00144293
0.00151324
0.00156693
0.00160676
8.48868e-05
0.000344736
0.000578207
0.000782585
0.000960438
0.00111364
0.00124388
0.00135287
0.00144224
0.00151345
0.00156785
0.00160767
8.41003e-05
0.000344807
0.000577553
0.000780962
0.000958159
0.00111118
0.00124172
0.00135136
0.00144158
0.00151369
0.00156886
0.00160932
8.33006e-05
0.00034495
0.00057704
0.000779495
0.000956023
0.00110884
0.00123963
0.00134988
0.00144094
0.00151394
0.00156997
0.00161149
8.24954e-05
0.000345184
0.000576664
0.000778197
0.000954045
0.00110663
0.00123764
0.00134847
0.00144034
0.00151424
0.00157112
0.00161304
8.16841e-05
0.000345505
0.000576443
0.000777067
0.000952227
0.00110455
0.00123573
0.00134711
0.00143978
0.00151457
0.00157228
0.00161483
8.08663e-05
0.000345918
0.000576385
0.00077614
0.000950606
0.00110263
0.00123396
0.00134584
0.00143923
0.00151484
0.00157325
0.00161603
8.0023e-05
0.000346394
0.000576479
0.000775364
0.000949154
0.00110086
0.00123228
0.00134463
0.00143874
0.00151515
0.00157429
0.00161734
7.91991e-05
0.000347005
0.000576766
0.000774857
0.000947926
0.00109929
0.00123077
0.00134351
0.00143828
0.00151547
0.00157535
0.0016193
7.83774e-05
0.000347718
0.000577167
0.000774518
0.000946906
0.00109788
0.00122939
0.00134251
0.0014379
0.0015158
0.00157638
0.00162072
7.7524e-05
0.000348532
0.000577862
0.00077448
0.000946156
0.00109673
0.00122821
0.00134168
0.00143765
0.00151632
0.00157778
0.00162328
7.66912e-05
0.000349468
0.000578679
0.000774636
0.000945648
0.0010958
0.00122724
0.00134101
0.00143757
0.00151705
0.00157944
0.00162558
7.58647e-05
0.000350566
0.000579793
0.000775076
0.000945408
0.00109512
0.00122648
0.00134049
0.00143762
0.0015179
0.00158113
0.00162769
7.50092e-05
0.000351675
0.000581029
0.000775726
0.00094541
0.00109471
0.0012259
0.00134009
0.00143768
0.00151859
0.00158254
0.00163014
7.42048e-05
0.000353096
0.000582551
0.000776725
0.000945739
0.00109455
0.00122553
0.00133986
0.00143786
0.00151942
0.00158416
0.00163235
7.33631e-05
0.000354487
0.000584247
0.000777988
0.000946412
0.00109472
0.00122547
0.00133987
0.00143826
0.00152049
0.00158612
0.00163548
7.25081e-05
0.00035598
0.000586289
0.000779588
0.000947406
0.00109523
0.00122573
0.00134018
0.00143893
0.00152178
0.00158818
0.00163802
7.16886e-05
0.000357798
0.000588574
0.000781583
0.00094885
0.00109616
0.00122641
0.00134088
0.00143996
0.00152349
0.0015908
0.00164189
7.08856e-05
0.000359666
0.000591095
0.000783908
0.000950658
0.00109749
0.00122745
0.00134194
0.0014414
0.00152556
0.0015937
0.00164543
7.00641e-05
0.000361737
0.000594016
0.000786631
0.000952888
0.00109925
0.00122891
0.00134341
0.00144314
0.00152782
0.00159656
0.00164867
6.92729e-05
0.000363934
0.000597215
0.00078978
0.000955614
0.00110154
0.00123087
0.00134524
0.00144511
0.00153011
0.00159932
0.00165248
6.84754e-05
0.000366318
0.000600703
0.000793346
0.000958835
0.00110431
0.00123331
0.00134754
0.00144751
0.00153287
0.00160271
0.00165647
6.77134e-05
0.000368969
0.00060461
0.000797356
0.000962577
0.00110764
0.0012363
0.00135038
0.00145041
0.00153611
0.00160657
0.00166138
6.69485e-05
0.00037169
0.000608825
0.00080193
0.000966901
0.00111157
0.00123987
0.00135373
0.00145375
0.00153961
0.00161032
0.00166504
6.62217e-05
0.000374716
0.000613493
0.000806957
0.00097182
0.00111616
0.00124409
0.00135769
0.00145762
0.00154357
0.00161452
0.00166969
6.55235e-05
0.000377859
0.000618523
0.000812612
0.000977438
0.00112146
0.00124905
0.00136235
0.00146213
0.00154807
0.00161919
0.00167461
6.48217e-05
0.000381289
0.000624076
0.000818862
0.000983749
0.00112752
0.00125476
0.00136775
0.00146734
0.00155325
0.00162454
0.00168028
6.41569e-05
0.000384814
0.000629961
0.000825647
0.000990707
0.0011343
0.00126121
0.00137387
0.00147322
0.00155905
0.00163042
0.00168624
6.34931e-05
0.00038853
0.000636304
0.000833067
0.000998421
0.00114189
0.00126849
0.00138081
0.00147987
0.00156555
0.00163704
0.0016937
6.28478e-05
0.000392525
0.00064316
0.000841191
0.00100695
0.00115037
0.00127669
0.0013886
0.00148728
0.00157273
0.0016442
0.00170081
6.22597e-05
0.000396737
0.000650492
0.000849995
0.00101629
0.00115973
0.00128575
0.00139726
0.00149556
0.00158077
0.00165226
0.00170937
6.16711e-05
0.000400834
0.000658084
0.000859313
0.00102636
0.00116989
0.00129569
0.0014068
0.00150468
0.00158958
0.00166097
0.00171798
6.11087e-05
0.000404784
0.000665787
0.000869036
0.00103696
0.00118075
0.00130642
0.0014172
0.00151466
0.00159916
0.00167032
0.00172767
6.05436e-05
0.000407374
0.000672435
0.000878315
0.00104758
0.00119198
0.00131784
0.00142853
0.00152565
0.00160993
0.00168111
0.00173947
5.97852e-05
0.000407171
0.000676315
0.0008858
0.0010566
0.0012021
0.00132862
0.00143964
0.00153686
0.00162163
0.00169251
0.00175028
0.0042954
0.00124222
0.00090104
0.0080707
0.0010552
0.00124684
0.00184384
0.00370571
0.000677384
0.00150333
0.00198203
0.00242725
0.00254245
0.000697957
0.00124226
0.000524031
0.00124552
0.00198193
0.00334642
0.000726443
0.00157352
0.00124523
0.00183386
0.00159818
0.000497296
0.00124497
0.00532177
0.00240654
0.00186405
0.0012573
0.00249918
0.00272263
0.00195253
0.00430641
0.00132656
0.00204562
0.00021677
0.00833664
0.00376538
0.00168234
0.0061566
0.00184175
0.00379166
0.00203626
0.00124297
0.00199834
0.00329621
0.00124325
0.00385793
0.000118468
0.000665344
0.00213346
0.00626639
0.00174427
0.00266034
0.00124285
0.00189705
0.00132661
0.000429998
0.00338006
0.00236675
0.000554923
0.0037347
0.0026515
0.00171282
0.00124175
0.00138397
0.00314247
0.000408406
0.0034055
0.000223258
0.0028253
0.00128509
0.00785247
0.0021201
0.00034247
0.000222882
0.000173851
0.000671983
0.00140582
0.000709195
0.00187879
0.00124836
0.00372386
0.00301752
0.0034624
0.000179137
0.000291152
0.00195267
0.000289918
0.0018142
0.00244922
0.00134414
0.00126652
0.00128137
0.00123896
0.0013539
0.00219846
0.00654473
0.005854
0.00194829
0.00334258
0.00101167
0.00186377
0.00599944
0.000497985
0.0013396
0.000521973
0.00128678
0.00124038
0.000735036
0.000192515
0.00262002
0.00112593
0.00383536
0.00274702
0.00192091
0.00262226
0.00240799
0.0012402
0.00278207
0.000131735
0.00126111
0.000174995
0.00388611
0.00254855
0.000882209
0.00140204
0.00126789
4.26875e-05
0.000155836
0.00126826
0.000178738
0.00517098
0.0037696
0.00052848
0.000403429
0.00101924
0.000854014
0.00124303
0.00214347
0.00019049
0.00489499
0.000124877
0.00151387
0.000736332
0.00124849
0.00124075
0.00939273
0.00184876
0.00587142
0.000127921
0.00139138
0.000294535
0.000573694
0.000493809
0.00218911
0.00124281
0.00434026
0.000754205
0.00012176
0.00203187
0.00788304
0.000566558
0.000290377
0.00056219
0.00192174
0.00123856
0.000103163
0.00180313
0.0014024
0.00125768
0.00124489
0.00124667
0.00124148
0.000121993
0.000610473
0.000272827
0.000332946
0.000764225
0.000749082
0.000371888
0.000248554
0.00178407
0.00914167
0.000250283
0.00727695
0.0039031
0.00192693
0.00883743
0.00243739
0.00348883
0.000813383
0.00184001
0.00267847
0.000525177
0.00309517
0.00124004
0.0012586
0.000280376
0.00124185
0.00610976
0.00135337
0.000578327
0.00126704
0.000661197
0.00177183
0.00204986
0.00143424
0.00506272
0.000564696
0.00814731
0.00305557
0.00321129
0.00837649
0.00199487
0.00183164
0.000397489
0.0055617
0.00191588
0.000169064
0.00128061
0.0035645
0.00184075
0.00644668
0.000902761
0.0015183
0.000223869
0.00126565
0.00129812
0.00124115
0.000562095
0.000233277
0.00189061
0.00178887
0.00177455
0.00255662
0.000467969
4.20618e-05
0.00124722
0.00146795
0.00370115
0.000233286
0.00683661
0.000460208
0.000208387
0.00145447
0.0015307
0.00578466
0.00178738
0.000149941
0.0012411
0.000295859
0.000491891
0.00192123
0.00650849
0.00124156
0.000482594
4.82493e-05
0.000106042
4.93874e-05
0.000234169
0.00139894
0.00190871
0.00207352
0.00195717
0.000150456
0.00203
0.00395138
0.00211814
0.00210456
0.000193887
0.000224809
0.000233281
0.00211313
0.00124447
5.05944e-05
0.000609425
0.000377579
0.00185596
0.00123883
9.11767e-05
4.41811e-05
4.41095e-05
5.70797e-05
0.00285478
0.000839158
0.000408122
0.00169426
0.00269772
0.00181269
0.00187547
0.0012398
0.00181825
0.0016028
0.00134866
9.13741e-05
4.63133e-05
0.00234619
0.00106193
0.00178378
4.03358e-05
0.00210087
0.000663944
0.000311355
0.00622465
0.00332003
0.000381847
0.00188808
0.000213769
0.00146025
0.000585536
0.001458
0.00024094
0.000922546
6.38899e-05
0.00126376
0.005927
0.00408599
0.00300338
4.45916e-05
0.00215454
0.00752946
0.00123854
0.00123846
0.00124041
0.000418591
0.000563989
0.000192562
0.000461464
0.00174629
0.00124144
0.000495921
0.00176264
0.00417585
0.00123917
0.00648749
0.00124101
0.000864803
0.000869006
0.00124183
0.00119769
0.00902688
0.00123922
0.00125514
0.0050013
0.00124175
0.000264804
0.000574418
0.0016832
0.00168692
0.00477676
0.0024902
0.0057611
0.000113572
0.000748892
0.000292589
0.00124947
0.0020513
0.000265005
0.00545918
0.000312401
0.00251399
0.00048785
0.00191416
0.00100908
0.000100249
0.00204523
0.000509624
0.0030886
0.00125456
0.00155419
0.00178313
0.000702758
0.000424196
0.00185666
0.00124123
0.000742358
0.001693
0.000106647
5.56094e-05
0.0026505
0.00179675
0.00124105
0.00207254
0.000173623
0.0035032
0.00536668
0.00124363
0.00263559
0.0016944
0.00221574
0.00530725
0.00189388
0.00102334
0.00125375
0.00124328
0.00154028
0.00124178
0.00124199
0.000192602
0.00179529
0.00180788
0.00429048
0.00142427
0.00594074
0.00124191
0.00139079
0.0019082
0.00175761
0.00125578
0.00169421
0.000309236
0.00200543
0.00203042
0.0006207
0.000174189
0.000499148
0.00216459
0.00124022
0.00126189
0.0011856
0.0012663
0.00401365
0.000140739
0.00123772
0.00060605
0.00577951
0.000312688
4.38584e-05
0.00304484
0.00671076
0.00165701
5.2642e-05
5.71855e-05
4.76766e-05
0.00311642
0.00209546
0.00192899
0.00179048
0.000212756
0.00124195
4.60536e-05
0.00221171
0.000234514
0.0017813
0.00633451
0.00324367
0.000457978
0.00132755
0.000139605
0.000418179
0.0022431
0.00342931
0.000522351
0.00025446
0.000185066
0.00447567
0.000279488
0.00314991
0.00175864
0.001806
0.00167894
0.0012417
0.00142715
4.65025e-05
0.00165357
0.00846987
0.00182116
0.000237346
0.00178392
0.00294378
0.00173636
0.00183677
0.00772697
0.00393133
0.00528498
0.00253296
0.00124299
0.00127751
0.00123986
0.000173484
0.00124287
0.00180814
0.00147511
0.00209413
5.31306e-05
0.00021225
0.00228942
0.00126579
0.00927033
0.00060902
0.00207528
0.00117663
0.00550069
0.00331929
0.00124062
0.00124111
0.00124637
0.00126238
4.62188e-05
4.36824e-05
0.00249654
0.00316121
0.00173578
0.000510196
0.00113115
0.000389202
0.0017824
0.00170313
0.000250718
0.00127143
0.00131988
0.000387555
0.00031307
0.00124161
0.00313026
0.00354704
0.00124001
0.000227787
0.00124316
0.0018794
0.00220779
0.000706522
0.000485507
0.000313341
0.000508445
0.000171121
0.000243313
0.00125401
0.00195547
0.00127045
0.00309706
0.000997902
0.00182537
0.00301369
0.00218458
0.000582614
0.0015566
0.00534148
0.000228884
0.00124396
6.75856e-05
0.00124188
0.00173005
0.00206023
0.00189168
0.000632086
0.000119998
0.000432306
0.000666129
0.000470786
0.00123778
0.00359836
0.00414692
0.00344019
0.00394103
0.0010097
0.0029785
0.00126712
0.00362018
0.000477081
0.00173509
0.00132781
0.00260661
0.00124164
0.000845135
0.00129886
0.00161787
0.00517655
0.00347748
3.81569e-05
0.00225449
0.000786667
0.00124691
0.0015262
0.00181125
0.000347387
0.00417442
0.00253526
0.000138641
0.00023095
0.00190786
0.00820227
0.0015873
0.00123965
0.000211881
0.00195271
0.00379464
0.000968807
0.00181919
0.00166887
0.00123955
0.00181844
0.00401857
0.00182531
0.00235631
0.00880778
0.00176939
0.00754311
0.00169256
0.00341873
0.00340989
0.00211085
0.0023461
0.000331196
0.000676386
0.00239558
0.00126292
4.68091e-05
0.00400351
0.00125017
0.00298358
6.59039e-05
0.00126614
0.000476389
0.00512904
0.00169443
0.00164907
0.00357094
0.000252166
0.00177004
0.00152265
0.00188279
0.000291463
0.000667381
0.00184445
0.00100913
0.00014191
0.00893072
0.0025583
0.00216309
0.002927
0.00163996
0.00640281
0.00143191
0.000442202
0.000311404
0.00124145
0.00290848
0.00166331
0.00130133
0.00202997
0.00264743
0.0012449
0.00485042
0.00624651
0.00313902
0.00124195
0.00847478
0.00184982
0.000142422
0.000724505
0.000507909
0.00311788
0.00017281
0.00327084
0.00758357
0.00180159
0.00192441
0.0019303
0.000200652
0.00405132
0.00124244
0.002258
0.00185527
0.00172608
0.00166043
0.00228966
0.00444141
0.00126701
0.00124984
0.00205724
0.00206475
0.0013592
0.00555223
0.00108902
0.00729248
0.00176729
0.0025829
0.00189196
0.00272194
0.000322517
0.00130823
0.00209458
0.00917029
0.00124645
4.30256e-05
0.00180479
0.00180028
0.000308828
0.000510655
0.000458605
0.00841744
3.61678e-05
0.00205768
0.00127615
0.0012406
0.00166111
0.000201555
0.00127449
0.00188034
0.00174156
3.46601e-05
4.3825e-05
4.11375e-05
0.00194184
4.92573e-05
0.00438778
0.00124942
0.004759
0.00180667
0.00168389
0.00164458
0.00123842
0.00169199
0.00659642
5.1853e-05
0.000183188
0.00123772
0.00479148
0.00101487
0.00184971
0.00178053
0.00239936
0.000840728
0.00188287
0.0030558
0.00064199
0.00145869
0.00234872
0.00015739
0.00668185
0.000371935
0.00123935
0.00165893
0.00180886
0.00167521
0.000133285
0.0019055
0.0018486
0.00142548
0.00818176
0.00179796
0.00180794
0.00170184
0.00119021
0.00273793
0.000210145
8.70713e-05
0.00456797
0.00209538
0.00123782
4.21342e-05
0.00215283
4.48377e-05
0.00128916
0.007971
0.00188007
0.00500939
0.00164248
0.00166295
0.00124193
0.00170449
0.00200325
0.000706217
0.0073647
0.00176837
0.00517468
0.00317486
0.00487697
0.00123868
0.00226192
0.00178392
0.00124338
0.000342776
0.00177531
0.0058886
0.00124428
0.00125309
0.00035256
0.00185928
0.00132542
0.00132482
5.50514e-05
0.00166569
0.000168908
0.00350162
4.53919e-05
0.00167857
0.00123926
0.00169124
0.0017217
0.000423035
0.000478578
0.00789862
0.00195344
0.0019753
0.000249642
0.00253085
0.00195271
0.0015342
0.00207699
0.00124026
0.0013939
0.00300475
0.000818544
0.000144553
0.000592315
0.000451338
0.000384008
0.000186692
0.00204228
0.00070137
0.00815032
0.00603731
6.22755e-05
0.000228312
0.00182945
0.000313715
0.00128418
0.00255773
0.00229845
5.08321e-05
0.0012815
0.00193344
0.00260007
0.00201195
0.00285152
0.0017234
0.00161228
0.00125042
0.00125882
0.00211045
0.000198894
0.000928498
0.0010375
0.00174158
0.00080709
9.23514e-05
0.000102359
0.000892148
0.00168425
0.00180393
0.00184534
0.00534342
4.3362e-05
0.00536037
0.00124194
0.00174067
0.00133101
0.00177365
0.00969401
0.00185675
0.000210551
0.000270365
0.0036569
0.0011996
0.00028936
0.000935712
0.00300997
0.00167672
0.00510323
0.000682718
0.00155941
0.00283168
3.29164e-05
0.000810641
0.000524021
0.00127387
0.0053947
0.00124194
0.00130156
0.0026794
0.00262852
0.00191415
0.00539603
0.0054284
0.00149271
0.00126726
0.00125467
0.00195387
0.00134054
0.00138684
0.00499131
0.00189452
0.000336561
0.0012551
0.000243742
0.00197265
0.00178689
0.000246693
0.000247818
0.00359026
0.000422328
0.00123874
0.00124176
0.000968339
0.00207248
0.00126246
0.00107129
0.00124101
0.00144125
0.00143393
0.000627976
0.00123701
0.00123695
0.00334658
0.00127456
0.00273558
0.000564741
0.00210955
0.00046313
0.000264113
0.000714066
4.36669e-05
0.00123836
0.000421753
0.00265262
4.56415e-05
0.00104185
0.00200222
0.00430946
0.000333345
0.00207807
0.000425995
4.01244e-05
0.00592364
0.00124287
0.00181089
0.00168041
0.00163466
0.00173373
0.0051345
4.33825e-05
0.00149556
0.00227367
0.000381284
6.26304e-05
0.00237813
0.00124089
0.00875288
0.008046
0.00205111
0.000811781
0.00136645
0.000719425
0.000288845
4.41658e-05
0.00047852
0.00204043
0.00299307
0.000442782
0.00193762
0.000578349
0.00125933
0.000130348
0.00185639
0.00210498
0.00654032
4.59959e-05
0.00123917
6.25354e-05
0.00542636
0.00177873
0.00226937
0.00424278
0.00175663
0.00024671
0.00203117
0.00052254
0.00164402
0.000426194