/*--------------------------------*- C++ -*----------------------------------*\
| =========                 |                                                 |
| \\      /  F ield         | OpenFOAM: The Open Source CFD Toolbox           |
|  \\    /   O peration     | Version:  2.3.1                                 |
|   \\  /    A nd           | Web:      www.OpenFOAM.org                      |
|    \\/     M anipulation  |                                                 |
\*---------------------------------------------------------------------------*/
FoamFile
{
    version     2.0;
    format      ascii;
    class       surfaceScalarField;
    location    "0.99";
    object      phi;
}
// * * * * * * * * * * * * * * * * * * * * * * * * * * * * * * * * * * * * * //

dimensions      [0 3 -1 0 0 0 0];

internalField   nonuniform List<scalar> 
22429
(
-9.33627e-06
8.54945e-05
-7.61582e-05
-1.64902e-05
0.000103741
-9.65873e-05
-2.14597e-05
0.000121895
-0.000116925
-2.4621e-05
0.000141155
-0.000137993
-2.74678e-05
0.000157567
-0.00015472
-2.93789e-05
0.000173931
-0.00017202
-3.05202e-05
0.000188755
-0.000187613
-3.08349e-05
0.000201273
-0.000200958
-3.0699e-05
0.000211351
-0.000211487
-3.02545e-05
0.000219587
-0.000220031
-2.95565e-05
0.000225903
-0.000226601
0.000230778
-2.88039e-05
-0.000231531
-5.6244e-06
9.11189e-05
-1.10944e-05
0.000109211
-1.60783e-05
0.000126879
-1.96944e-05
0.000144771
-2.27403e-05
0.000160613
-2.49446e-05
0.000176135
-2.62919e-05
0.000190102
-2.70104e-05
0.000201991
-2.72535e-05
0.000211594
-2.70958e-05
0.000219429
-2.67383e-05
0.000225545
0.000230372
-2.63322e-05
-4.61719e-06
9.57361e-05
-9.08052e-06
0.000113675
-1.31987e-05
0.000130997
-1.64567e-05
0.000148029
-1.93086e-05
0.000163465
-2.14396e-05
0.000178266
-2.28842e-05
0.000191547
-2.37384e-05
0.000202845
-2.41963e-05
0.000212052
-2.42614e-05
0.000219494
-2.41281e-05
0.000225412
0.000230137
-2.38934e-05
-3.83134e-06
9.95674e-05
-7.74915e-06
0.000117592
-1.12931e-05
0.000134541
-1.41991e-05
0.000150935
-1.67344e-05
0.000166
-1.86828e-05
0.000180215
-2.0086e-05
0.00019295
-2.09929e-05
0.000203752
-2.15335e-05
0.000212593
-2.18068e-05
0.000219767
-2.1878e-05
0.000225483
0.000230147
-2.18881e-05
-3.14414e-06
0.000102712
-6.60194e-06
0.00012105
-9.73869e-06
0.000137678
-1.23515e-05
0.000153548
-1.4638e-05
0.000168286
-1.64679e-05
0.000182045
-1.77699e-05
0.000194252
-1.86797e-05
0.000204662
-1.92484e-05
0.000213161
-1.9587e-05
0.000220106
-1.97689e-05
0.000225665
0.000230219
-1.98403e-05
-2.67609e-06
0.000105388
-5.70854e-06
0.000124083
-8.48955e-06
0.000140459
-1.0871e-05
0.000155929
-1.29156e-05
0.000170331
-1.45457e-05
0.000183675
-1.58105e-05
0.000195517
-1.66704e-05
0.000205522
-1.72778e-05
0.000213769
-1.76448e-05
0.000220473
-1.78945e-05
0.000225914
0.000230362
-1.8038e-05
-2.35779e-06
0.000107745
-5.05059e-06
0.000126775
-7.50393e-06
0.000142912
-9.64955e-06
0.000158075
-1.14911e-05
0.000172173
-1.29944e-05
0.000185178
-1.40948e-05
0.000196617
-1.49395e-05
0.000206367
-1.55494e-05
0.000214379
-1.59507e-05
0.000220874
-1.62406e-05
0.000226204
0.000230654
-1.65319e-05
-2.10312e-06
0.000109849
-4.51688e-06
0.000129189
-6.71626e-06
0.000145111
-8.63063e-06
0.000159989
-1.03045e-05
0.000173846
-1.16445e-05
0.000186518
-1.27035e-05
0.000197676
-1.34733e-05
0.000207136
-1.40143e-05
0.00021492
-1.4453e-05
0.000221313
-1.47593e-05
0.000226511
0.00023084
-1.49456e-05
-1.89364e-06
0.000111742
-4.09216e-06
0.000131388
-6.07836e-06
0.000147098
-7.81286e-06
0.000161723
-9.30264e-06
0.000175336
-1.04926e-05
0.000187708
-1.14372e-05
0.000198621
-1.21559e-05
0.000207855
-1.27268e-05
0.000215491
-1.31443e-05
0.00022173
-1.34768e-05
0.000226843
0.000231123
-1.37604e-05
-1.73068e-06
0.000113473
-3.71545e-06
0.000133372
-5.50297e-06
0.000148885
-7.07813e-06
0.000163299
-8.42202e-06
0.00017668
-9.54273e-06
0.000188829
-1.03826e-05
0.000199461
-1.10497e-05
0.000208522
-1.15675e-05
0.000216008
-1.19783e-05
0.000222141
-1.23179e-05
0.000227183
0.000231368
-1.25624e-05
-1.57439e-06
0.000115047
-3.37637e-06
0.000135174
-5.0437e-06
0.000150553
-6.4569e-06
0.000164712
-7.67733e-06
0.000177901
-8.64777e-06
0.000189799
-9.45832e-06
0.000200271
-1.00492e-05
0.000209113
-1.05314e-05
0.000216491
-1.08938e-05
0.000222504
-1.12146e-05
0.000227504
0.000231636
-1.14823e-05
-1.46106e-06
0.000116508
-3.12999e-06
0.000136843
-4.62594e-06
0.000152048
-5.93688e-06
0.000166023
-7.02288e-06
0.000178987
-7.90276e-06
0.000190679
-8.59402e-06
0.000200962
-9.15518e-06
0.000209674
-9.57885e-06
0.000216914
-9.94238e-06
0.000222867
-1.02168e-05
0.000227778
0.000231873
-1.04539e-05
-1.34182e-06
0.00011785
-2.86668e-06
0.000138368
-4.23998e-06
0.000153422
-5.44019e-06
0.000167223
-6.42426e-06
0.000179971
-7.2437e-06
0.000191498
-7.87057e-06
0.000201589
-8.38452e-06
0.000210188
-8.76906e-06
0.000217299
-9.07466e-06
0.000223173
-9.30304e-06
0.000228006
0.000232008
-9.43823e-06
-1.23971e-06
0.00011909
-2.66281e-06
0.000139791
-3.93324e-06
0.000154692
-4.99312e-06
0.000168283
-5.91153e-06
0.000180889
-6.63552e-06
0.000192222
-7.22788e-06
0.000202182
-7.65038e-06
0.000210611
-8.00841e-06
0.000217657
-8.33772e-06
0.000223502
-8.61586e-06
0.000228284
0.000232341
-8.94875e-06
-1.15949e-06
0.000120249
-2.44853e-06
0.00014108
-3.63935e-06
0.000155883
-4.63358e-06
0.000169277
-5.42988e-06
0.000181685
-6.10776e-06
0.0001929
-6.60012e-06
0.000202674
-7.00961e-06
0.00021102
-7.36665e-06
0.000218014
-7.6145e-06
0.00022375
-7.83822e-06
0.000228508
0.000232461
-7.95804e-06
-1.07369e-06
0.000121323
-2.2838e-06
0.00014229
-3.35233e-06
0.000156952
-4.26755e-06
0.000170192
-5.01393e-06
0.000182432
-5.60869e-06
0.000193495
-6.07585e-06
0.000203141
-6.44326e-06
0.000211388
-6.71455e-06
0.000218285
-6.95994e-06
0.000223995
-7.16201e-06
0.00022871
0.0002326
-7.30115e-06
-9.92542e-07
0.000122316
-2.11937e-06
0.000143417
-3.1293e-06
0.000157961
-3.95098e-06
0.000171014
-4.63248e-06
0.000183113
-5.14777e-06
0.00019401
-5.54376e-06
0.000203537
-5.87464e-06
0.000211719
-6.1426e-06
0.000218553
-6.33885e-06
0.000224192
-6.52468e-06
0.000228896
0.00023275
-6.67463e-06
-9.3446e-07
0.00012325
-1.96536e-06
0.000144448
-2.88407e-06
0.00015888
-3.66126e-06
0.000171791
-4.26115e-06
0.000183713
-4.72491e-06
0.000194474
-5.10365e-06
0.000203916
-5.37604e-06
0.000211991
-5.61867e-06
0.000218796
-5.82637e-06
0.000224399
-5.9856e-06
0.000229055
0.000232897
-6.13342e-06
-8.62595e-07
0.000124113
-1.82243e-06
0.000145408
-2.69544e-06
0.000159753
-3.39261e-06
0.000172488
-3.93854e-06
0.000184259
-4.35571e-06
0.000194891
-4.69474e-06
0.000204255
-4.93407e-06
0.00021223
-5.09523e-06
0.000218957
-5.24697e-06
0.000224551
-5.3989e-06
0.000229207
0.000233003
-5.50433e-06
-7.96867e-07
0.000124909
-1.68911e-06
0.0001463
-2.4806e-06
0.000160545
-3.1212e-06
0.000173129
-3.61612e-06
0.000184754
-4.01174e-06
0.000195287
-4.26277e-06
0.000204506
-4.46757e-06
0.000212435
-4.62354e-06
0.000219113
-4.7713e-06
0.000224699
-4.83068e-06
0.000229267
0.000233035
-4.86326e-06
-7.50592e-07
0.00012566
-1.58161e-06
0.000147131
-2.2979e-06
0.000161261
-2.88762e-06
0.000173719
-3.33625e-06
0.000185203
-3.64334e-06
0.000195594
-3.88284e-06
0.000204745
-4.05748e-06
0.00021261
-4.21466e-06
0.00021927
-4.28929e-06
0.000224773
-4.37268e-06
0.00022935
0.000233121
-4.45772e-06
-6.77091e-07
0.000126337
-1.44587e-06
0.0001479
-2.12711e-06
0.000161942
-2.66874e-06
0.00017426
-3.05196e-06
0.000185586
-3.34486e-06
0.000195887
-3.55232e-06
0.000204953
-3.69994e-06
0.000212757
-3.75506e-06
0.000219325
-3.83879e-06
0.000224857
-3.91354e-06
0.000229425
0.000233218
-4.01094e-06
-6.32813e-07
0.00012697
-1.33259e-06
0.0001486
-1.96455e-06
0.000162574
-2.44084e-06
0.000174737
-2.8065e-06
0.000185951
-3.04045e-06
0.000196121
-3.19171e-06
0.000205104
-3.31114e-06
0.000212877
-3.39419e-06
0.000219408
-3.42659e-06
0.00022489
-3.44223e-06
0.00022944
0.000233248
-3.47218e-06
-5.77884e-07
0.000127548
-1.24348e-06
0.000149265
-1.79021e-06
0.000163121
-2.24588e-06
0.000175192
-2.55215e-06
0.000186258
-2.77663e-06
0.000196345
-2.89977e-06
0.000205227
-2.9695e-06
0.000212947
-3.00619e-06
0.000219445
-3.05324e-06
0.000224937
-3.07606e-06
0.000229463
0.000233314
-3.14211e-06
-5.28301e-07
0.000128076
-1.12454e-06
0.000149862
-1.66512e-06
0.000163661
-2.03931e-06
0.000175566
-2.33278e-06
0.000186551
-2.47868e-06
0.000196491
-2.59869e-06
0.000205347
-2.64467e-06
0.000212992
-2.66159e-06
0.000219462
-2.66434e-06
0.000224939
-2.66189e-06
0.000229461
0.000233292
-2.63953e-06
-4.97559e-07
0.000128574
-1.02803e-06
0.000150392
-1.50546e-06
0.000164139
-1.86323e-06
0.000175924
-2.10083e-06
0.000186789
-2.24111e-06
0.000196631
-2.31035e-06
0.000205417
-2.30797e-06
0.00021299
-2.33189e-06
0.000219486
-2.29436e-06
0.000224902
-2.32339e-06
0.00022949
0.000233308
-2.33966e-06
-4.28302e-07
0.000129002
-9.51966e-07
0.000150916
-1.37087e-06
0.000164558
-1.69379e-06
0.000176247
-1.87777e-06
0.000186973
-2.01324e-06
0.000196767
-2.03237e-06
0.000205436
-2.0326e-06
0.00021299
-1.98238e-06
0.000219436
-1.97651e-06
0.000224896
-1.91769e-06
0.000229431
0.000233295
-1.90516e-06
-3.99215e-07
0.000129401
-8.4226e-07
0.000151359
-1.24141e-06
0.000164957
-1.50909e-06
0.000176515
-1.68562e-06
0.000187149
-1.74608e-06
0.000196827
-1.76428e-06
0.000205454
-1.74058e-06
0.000212967
-1.66748e-06
0.000219362
-1.58369e-06
0.000224812
-1.52177e-06
0.000229369
0.000233203
-1.42986e-06
-3.50585e-07
0.000129752
-7.53607e-07
0.000151762
-1.09611e-06
0.000165299
-1.35296e-06
0.000176772
-1.50118e-06
0.000187298
-1.53668e-06
0.000196863
-1.50735e-06
0.000205425
-1.43745e-06
0.000212897
-1.37349e-06
0.000219299
-1.27856e-06
0.000224717
-1.19546e-06
0.000229286
0.000233187
-1.17863e-06
-3.06881e-07
0.000130059
-6.69822e-07
0.000152125
-9.9696e-07
0.000165627
-1.20204e-06
0.000176977
-1.27796e-06
0.000187373
-1.31212e-06
0.000196897
-1.26079e-06
0.000205373
-1.17171e-06
0.000212808
-1.09055e-06
0.000219217
-9.79012e-07
0.000224606
-8.68948e-07
0.000229176
0.000233064
-7.46668e-07
-2.65353e-07
0.000130324
-6.07283e-07
0.000152467
-8.60224e-07
0.00016588
-1.03513e-06
0.000177152
-1.13043e-06
0.000187469
-1.09462e-06
0.000196861
-1.02252e-06
0.000205301
-9.40393e-07
0.000212726
-7.89931e-07
0.000219067
-6.64336e-07
0.00022448
-5.51381e-07
0.000229063
0.000232992
-4.79505e-07
-2.4053e-07
0.000130565
-5.08546e-07
0.000152735
-7.47872e-07
0.000166119
-8.9409e-07
0.000177298
-9.18649e-07
0.000187493
-8.83469e-07
0.000196826
-7.90669e-07
0.000205208
-6.63581e-07
0.000212598
-5.2156e-07
0.000218925
-3.78032e-07
0.000224337
-2.37408e-07
0.000228922
0.00023281
-5.49699e-08
-1.79666e-07
0.000130744
-4.3089e-07
0.000152986
-6.38489e-07
0.000166326
-7.5691e-07
0.000177416
-7.57828e-07
0.000187494
-7.01742e-07
0.00019677
-5.896e-07
0.000205096
-4.19704e-07
0.000212429
-2.3617e-07
0.000218741
-8.06559e-08
0.000224181
6.11541e-08
0.000228781
0.000232674
1.97537e-07
-1.6154e-07
0.000130906
-3.56672e-07
0.000153181
-5.3171e-07
0.000166501
-6.00554e-07
0.000177485
-6.00812e-07
0.000187494
-4.99645e-07
0.000196669
-3.43611e-07
0.00020494
-1.55436e-07
0.00021224
1.8513e-08
0.000218567
1.90999e-07
0.000224009
3.89315e-07
0.000228582
0.000232474
5.89163e-07
-1.18496e-07
0.000131024
-2.98582e-07
0.000153361
-4.05673e-07
0.000166609
-4.47524e-07
0.000177527
-4.23768e-07
0.000187471
-3.01999e-07
0.000196547
-1.52417e-07
0.000204791
5.09119e-08
0.000212037
2.64996e-07
0.000218353
4.78209e-07
0.000223795
6.75114e-07
0.000228385
0.000232355
7.94125e-07
-7.70628e-08
0.000131101
-2.07609e-07
0.000153492
-3.0343e-07
0.000166704
-3.4007e-07
0.000177564
-2.49975e-07
0.000187381
-1.3262e-07
0.00019643
8.27463e-08
0.000204575
2.77829e-07
0.000211842
5.11012e-07
0.00021812
7.68955e-07
0.000223537
9.67386e-07
0.000228187
0.000232097
1.22471e-06
-5.89873e-08
0.00013116
-1.37318e-07
0.00015357
-2.04034e-07
0.000166771
-1.90789e-07
0.00017755
-1.02651e-07
0.000187292
7.97416e-08
0.000196247
2.65156e-07
0.00020439
5.28731e-07
0.000211578
7.79218e-07
0.00021787
9.99544e-07
0.000223317
1.25549e-06
0.000227931
0.000231923
1.42958e-06
-4.39591e-09
0.000131165
-7.25706e-08
0.000153638
-1.03292e-07
0.000166802
-5.07043e-08
0.000177498
6.33057e-08
0.000187178
2.41443e-07
0.000196069
4.93334e-07
0.000204138
7.51182e-07
0.000211321
1.01979e-06
0.000217601
1.31612e-06
0.000223021
1.57983e-06
0.000227667
0.000231676
1.82741e-06
1.4563e-08
0.00013115
-7.06398e-09
0.00015366
4.85044e-09
0.00016679
7.09881e-08
0.000177432
2.00918e-07
0.000187049
4.21795e-07
0.000195848
6.67877e-07
0.000203892
9.42204e-07
0.000211046
1.25289e-06
0.00021729
1.53218e-06
0.000222741
1.8201e-06
0.000227379
0.00023143
2.06551e-06
5.24498e-08
0.000131098
6.25871e-08
0.00015365
1.06956e-07
0.000166746
1.88871e-07
0.00017735
3.61605e-07
0.000186876
5.7722e-07
0.000195633
8.65033e-07
0.000203604
1.18168e-06
0.00021073
1.48286e-06
0.000216989
1.80588e-06
0.000222418
2.12201e-06
0.000227063
0.000231105
2.44683e-06
8.26129e-08
0.000131015
1.07881e-07
0.000153624
1.77191e-07
0.000166676
3.00391e-07
0.000177227
4.958e-07
0.00018668
7.5358e-07
0.000195375
1.05774e-06
0.0002033
1.39068e-06
0.000210397
1.73195e-06
0.000216648
2.06963e-06
0.000222081
2.35548e-06
0.000226777
0.000230856
2.60541e-06
1.11634e-07
0.000130903
1.91429e-07
0.000153545
2.85952e-07
0.000166582
4.35655e-07
0.000177077
6.50962e-07
0.000186465
9.26434e-07
0.000195099
1.24925e-06
0.000202977
1.59902e-06
0.000210047
1.95817e-06
0.000216289
2.31431e-06
0.000221725
2.66314e-06
0.000226428
0.00023049
3.02836e-06
1.30871e-07
0.000130773
2.55213e-07
0.00015342
3.7406e-07
0.000166463
5.46753e-07
0.000176904
7.80634e-07
0.000186231
1.10007e-06
0.00019478
1.43963e-06
0.000202637
1.80347e-06
0.000209683
2.17631e-06
0.000215916
2.56872e-06
0.000221332
2.9134e-06
0.000226084
0.000230183
3.22062e-06
1.63117e-07
0.000130609
2.95025e-07
0.000153288
4.62687e-07
0.000166295
6.58216e-07
0.000176709
9.35924e-07
0.000185953
1.24743e-06
0.000194468
1.60319e-06
0.000202282
2.00886e-06
0.000209277
2.4224e-06
0.000215502
2.77538e-06
0.000220979
3.17313e-06
0.000225686
0.000229771
3.58535e-06
1.97903e-07
0.000130412
3.79299e-07
0.000153107
5.49994e-07
0.000166125
7.8954e-07
0.000176469
1.06551e-06
0.000185678
1.42016e-06
0.000194114
1.81773e-06
0.000201884
2.21372e-06
0.000208881
2.61772e-06
0.000215098
3.06743e-06
0.00022053
3.44873e-06
0.000225305
0.000229401
3.81847e-06
2.30667e-07
0.000130181
4.19307e-07
0.000152918
6.3759e-07
0.000165906
9.00212e-07
0.000176206
1.21898e-06
0.000185359
1.56753e-06
0.000193765
1.98255e-06
0.000201469
2.42394e-06
0.00020844
2.87171e-06
0.000214651
3.28733e-06
0.000220114
3.71148e-06
0.000224881
0.00022901
4.1026e-06
2.48767e-07
0.000129932
4.83151e-07
0.000152684
7.26742e-07
0.000165663
1.0105e-06
0.000175923
1.34967e-06
0.00018502
1.74359e-06
0.000193371
2.17555e-06
0.000201037
2.63431e-06
0.000207981
3.10273e-06
0.000214182
3.5687e-06
0.000219648
4.03675e-06
0.000224413
0.00022854
4.50655e-06
2.83025e-07
0.000129649
5.43641e-07
0.000152423
8.13473e-07
0.000165393
1.12168e-06
0.000175614
1.50384e-06
0.000184637
1.91322e-06
0.000192962
2.36631e-06
0.000200584
2.84183e-06
0.000207506
3.32373e-06
0.0002137
3.80315e-06
0.000219169
4.2834e-06
0.000223932
0.000228138
4.68543e-06
3.16487e-07
0.000129333
6.05446e-07
0.000152134
9.00917e-07
0.000165097
1.25324e-06
0.000175262
1.6113e-06
0.000184279
2.06308e-06
0.00019251
2.52893e-06
0.000200118
3.04533e-06
0.000206989
3.54516e-06
0.0002132
4.06721e-06
0.000218646
4.52706e-06
0.000223472
0.000227621
5.04453e-06
3.33947e-07
0.000128999
6.67311e-07
0.000151801
1.0081e-06
0.000164757
1.36271e-06
0.000174908
1.78373e-06
0.000183858
2.23347e-06
0.00019206
2.74255e-06
0.000199609
3.24864e-06
0.000206483
3.79131e-06
0.000212658
4.29782e-06
0.00021814
4.81102e-06
0.000222959
0.000227204
5.22794e-06
3.53423e-07
0.000128645
7.12188e-07
0.000151442
1.07495e-06
0.000164394
1.47193e-06
0.000174511
1.89393e-06
0.000183436
2.38006e-06
0.000191574
2.90552e-06
0.000199084
3.43137e-06
0.000205957
3.98584e-06
0.000212103
4.53769e-06
0.000217588
5.05059e-06
0.000222446
0.000226656
5.59884e-06
4.06607e-07
0.000128239
7.73265e-07
0.000151076
1.163e-06
0.000164004
1.56123e-06
0.000174112
2.04521e-06
0.000182952
2.55166e-06
0.000191068
3.07009e-06
0.000198565
3.65667e-06
0.000205371
4.20246e-06
0.000211558
4.76728e-06
0.000217023
5.32773e-06
0.000221886
0.000226225
5.75818e-06
4.22001e-07
0.000127817
8.35539e-07
0.000150662
1.25076e-06
0.000163589
1.71399e-06
0.000173649
2.17311e-06
0.000182493
2.70021e-06
0.000190541
3.25942e-06
0.000198006
3.84051e-06
0.00020479
4.45403e-06
0.000210944
5.00824e-06
0.000216469
5.58101e-06
0.000221313
0.00022562
6.18655e-06
4.44952e-07
0.000127372
8.98184e-07
0.000150209
1.3381e-06
0.000163149
1.8029e-06
0.000173184
2.32779e-06
0.000181968
2.84857e-06
0.00019002
3.4488e-06
0.000197406
4.04658e-06
0.000204192
4.65077e-06
0.00021034
5.27287e-06
0.000215847
5.84189e-06
0.000220744
0.000225122
6.33983e-06
4.78274e-07
0.000126893
9.41211e-07
0.000149746
1.40525e-06
0.000162685
1.91523e-06
0.000172674
2.43835e-06
0.000181445
3.0204e-06
0.000189438
3.63838e-06
0.000196788
4.25572e-06
0.000203575
4.90226e-06
0.000209693
5.51779e-06
0.000215231
6.12162e-06
0.00022014
0.00022447
6.77318e-06
4.97287e-07
0.000126396
1.00491e-06
0.000149238
1.51634e-06
0.000162173
2.02486e-06
0.000172166
2.59066e-06
0.000180879
3.19418e-06
0.000188834
3.80841e-06
0.000196174
4.46048e-06
0.000202922
5.09528e-06
0.000209058
5.74419e-06
0.000214583
6.36546e-06
0.000219519
0.00022393
6.90601e-06
5.3323e-07
0.000125863
1.05165e-06
0.00014872
1.58325e-06
0.000161642
2.13695e-06
0.000171612
2.72339e-06
0.000180293
3.34821e-06
0.00018821
3.97485e-06
0.000195547
4.64657e-06
0.000202251
5.32673e-06
0.000208378
5.99613e-06
0.000213913
6.61547e-06
0.0002189
0.00022332
7.22465e-06
5.57249e-07
0.000125306
1.11365e-06
0.000148164
1.67247e-06
0.000161083
2.25172e-06
0.000171033
2.85909e-06
0.000179686
3.49808e-06
0.000187571
4.17215e-06
0.000194873
4.86393e-06
0.000201559
5.56453e-06
0.000207678
6.26452e-06
0.000213213
6.96305e-06
0.000218201
0.00022261
7.67373e-06
5.76278e-07
0.000124729
1.18009e-06
0.00014756
1.76375e-06
0.000160499
2.36354e-06
0.000170433
2.99173e-06
0.000179057
3.65475e-06
0.000186908
4.36376e-06
0.000194164
5.0741e-06
0.000200849
5.7846e-06
0.000206967
6.49214e-06
0.000212506
7.19603e-06
0.000217497
0.000222
7.80613e-06
6.13629e-07
0.000124116
1.22602e-06
0.000146947
1.83479e-06
0.000159891
2.47769e-06
0.00016979
3.12622e-06
0.000178409
3.80471e-06
0.000186229
4.53524e-06
0.000193433
5.25334e-06
0.000200131
5.98068e-06
0.00020624
6.69079e-06
0.000211796
7.40365e-06
0.000216784
0.000221345
8.05874e-06
6.36405e-07
0.000123479
1.29007e-06
0.000146294
1.94555e-06
0.000159235
2.57119e-06
0.000169165
3.26451e-06
0.000177716
3.98116e-06
0.000185512
4.70337e-06
0.000192711
5.46777e-06
0.000199366
6.23436e-06
0.000205473
6.97013e-06
0.00021106
7.69155e-06
0.000216063
0.000220648
8.38797e-06
6.60224e-07
0.000122819
1.34043e-06
0.000145613
1.99871e-06
0.000158577
2.70742e-06
0.000168456
3.39835e-06
0.000177025
4.14008e-06
0.000184771
4.87996e-06
0.000191971
5.65793e-06
0.000198588
6.43933e-06
0.000204692
7.21331e-06
0.000210286
7.96574e-06
0.000215311
0.000219898
8.71614e-06
7.0186e-07
0.000122117
1.39121e-06
0.000144924
2.09406e-06
0.000157874
2.80654e-06
0.000167743
3.53987e-06
0.000176291
4.29843e-06
0.000184012
5.08239e-06
0.000191187
5.87688e-06
0.000197794
6.64815e-06
0.000203921
7.45526e-06
0.000209479
8.18241e-06
0.000214583
0.000219162
8.91845e-06
7.08795e-07
0.000121408
1.45842e-06
0.000144174
2.1903e-06
0.000157142
2.9276e-06
0.000167006
3.68659e-06
0.000175532
4.46611e-06
0.000183233
5.26354e-06
0.00019039
6.08069e-06
0.000196977
6.89669e-06
0.000203105
7.70306e-06
0.000208672
8.51843e-06
0.000213768
0.000218441
9.23948e-06
7.5133e-07
0.000120657
1.51362e-06
0.000143412
2.28742e-06
0.000156368
3.0294e-06
0.000166264
3.82928e-06
0.000174732
4.63409e-06
0.000182428
5.47907e-06
0.000189545
6.3157e-06
0.00019614
7.1599e-06
0.00020226
7.99509e-06
0.000207837
8.81689e-06
0.000212946
0.000217614
9.64374e-06
7.7932e-07
0.000119878
1.56552e-06
0.000142626
2.34646e-06
0.000155587
3.15541e-06
0.000165455
3.9788e-06
0.000173909
4.80236e-06
0.000181604
5.64878e-06
0.000188698
6.50505e-06
0.000195284
7.41274e-06
0.000201353
8.26578e-06
0.000206984
9.07554e-06
0.000212136
0.000216909
9.78023e-06
8.03446e-07
0.000119074
1.61871e-06
0.000141811
2.44588e-06
0.00015476
3.27764e-06
0.000164623
4.1069e-06
0.00017308
4.97356e-06
0.000180738
5.86023e-06
0.000187812
6.76153e-06
0.000194382
7.64887e-06
0.000200465
8.52933e-06
0.000206104
9.43119e-06
0.000211235
0.000215989
1.03511e-05
8.16078e-07
0.000118258
1.68907e-06
0.000140938
2.54568e-06
0.000153904
3.38583e-06
0.000163783
4.2518e-06
0.000172214
5.14265e-06
0.000179847
6.05104e-06
0.000186903
6.94406e-06
0.000193489
7.86134e-06
0.000199548
8.78951e-06
0.000205175
9.62467e-06
0.000210399
0.000215298
1.03154e-05
8.61186e-07
0.000117397
1.74758e-06
0.000140051
2.60824e-06
0.000153043
3.50798e-06
0.000162883
4.40324e-06
0.000171319
5.31113e-06
0.000178939
6.21181e-06
0.000186003
7.16976e-06
0.000192531
8.09861e-06
0.000198619
8.9873e-06
0.000204287
9.89052e-06
0.000209496
0.000214379
1.08098e-05
8.88417e-07
0.000116509
1.80453e-06
0.000139135
2.71069e-06
0.000152137
3.61699e-06
0.000161977
4.53552e-06
0.0001704
5.46468e-06
0.00017801
6.43347e-06
0.000185034
7.3856e-06
0.000191579
8.34086e-06
0.000197664
9.30482e-06
0.000203323
1.01974e-05
0.000208604
0.000213486
1.10906e-05
9.05528e-07
0.000115603
1.84283e-06
0.000138198
2.81466e-06
0.000151165
3.74685e-06
0.000161045
4.68655e-06
0.00016946
5.64222e-06
0.000177054
6.62919e-06
0.000184047
7.60648e-06
0.000190602
8.58027e-06
0.00019669
9.54912e-06
0.000202354
1.053e-05
0.000207623
0.000212521
1.14949e-05
9.34426e-07
0.000114669
1.91905e-06
0.000137213
2.87898e-06
0.000150205
3.86193e-06
0.000160062
4.8252e-06
0.000168497
5.82048e-06
0.000176059
6.81022e-06
0.000183057
7.82558e-06
0.000189587
8.84082e-06
0.000195675
9.82549e-06
0.000201369
1.08149e-05
0.000206633
0.000211533
1.18026e-05
9.67802e-07
0.000113701
1.97769e-06
0.000136203
2.96829e-06
0.000149214
3.97051e-06
0.00015906
4.98138e-06
0.000167486
6.00286e-06
0.000175037
7.00925e-06
0.000182051
8.0465e-06
0.000188549
9.05371e-06
0.000194668
1.00931e-05
0.00020033
1.10547e-05
0.000205672
0.000210641
1.19467e-05
1.00055e-06
0.0001127
2.02255e-06
0.000135181
3.07649e-06
0.00014816
4.08665e-06
0.00015805
5.13855e-06
0.000166434
6.16233e-06
0.000174014
7.21179e-06
0.000181001
8.2703e-06
0.000187491
9.32679e-06
0.000193611
1.03735e-05
0.000199283
1.14025e-05
0.000204643
0.000209643
1.24011e-05
1.01756e-06
0.000111683
2.10198e-06
0.000134097
3.14565e-06
0.000147117
4.2233e-06
0.000156972
5.26469e-06
0.000165393
6.34917e-06
0.000172929
7.42502e-06
0.000179925
8.50112e-06
0.000186415
9.57792e-06
0.000192534
1.06369e-05
0.000198224
1.16664e-05
0.000203613
0.000208678
1.26313e-05
1.05347e-06
0.000110629
2.14866e-06
0.000133002
3.25491e-06
0.000146011
4.32284e-06
0.000155904
5.42881e-06
0.000164287
6.5209e-06
0.000171837
7.63677e-06
0.00017881
8.71728e-06
0.000185334
9.83977e-06
0.000191412
1.09255e-05
0.000197139
1.20278e-05
0.000202511
0.00020761
1.30956e-05
1.07884e-06
0.000109551
2.21181e-06
0.000131869
3.33269e-06
0.00014489
4.46467e-06
0.000154772
5.57353e-06
0.000163178
6.68568e-06
0.000170725
7.83187e-06
0.000177663
8.97288e-06
0.000184193
1.00917e-05
0.000190293
1.11946e-05
0.000196036
1.22573e-05
0.000201448
0.000206578
1.32894e-05
1.10524e-06
0.000108445
2.2622e-06
0.000130712
3.42868e-06
0.000143723
4.58457e-06
0.000153616
5.72324e-06
0.000162039
6.88417e-06
0.000169564
8.02471e-06
0.000176523
9.19202e-06
0.000183026
1.03517e-05
0.000189134
1.15087e-05
0.000194879
1.26256e-05
0.000200331
0.00020544
1.3764e-05
1.13445e-06
0.000107311
2.32576e-06
0.000129521
3.52133e-06
0.000142528
4.69055e-06
0.000152447
5.89372e-06
0.000160836
7.07975e-06
0.000168378
8.24817e-06
0.000175354
9.43792e-06
0.000181836
1.05959e-05
0.000187976
1.17619e-05
0.000193713
1.29221e-05
0.000199171
0.000204418
1.39436e-05
1.16228e-06
0.000106149
2.38853e-06
0.000128294
3.60472e-06
0.000141311
4.83781e-06
0.000151214
6.02575e-06
0.000159648
7.23627e-06
0.000167167
8.46932e-06
0.000174121
9.65635e-06
0.000180649
1.08909e-05
0.000186741
1.20665e-05
0.000192537
1.32513e-05
0.000197986
0.000203199
1.44704e-05
1.18934e-06
0.000104959
2.45134e-06
0.000127032
3.70152e-06
0.000140061
4.94524e-06
0.00014997
6.20141e-06
0.000158392
7.43744e-06
0.000165931
8.64864e-06
0.00017291
9.90819e-06
0.00017939
1.11315e-05
0.000185518
1.23669e-05
0.000191302
1.35312e-05
0.000196822
0.000202031
1.46988e-05
1.21854e-06
0.000103741
2.50401e-06
0.000125747
3.80092e-06
0.000138764
5.07115e-06
0.0001487
6.33961e-06
0.000157124
7.59595e-06
0.000164675
8.87519e-06
0.000171631
1.01522e-05
0.000178113
1.13997e-05
0.00018427
1.26311e-05
0.00019007
1.38614e-05
0.000195592
0.000200851
1.50417e-05
1.24688e-06
0.000102494
2.56949e-06
0.000124424
3.89097e-06
0.000137443
5.20622e-06
0.000147385
6.49436e-06
0.000155836
7.80484e-06
0.000163364
9.10903e-06
0.000170327
1.03633e-05
0.000176858
1.16601e-05
0.000182973
1.29341e-05
0.000188796
1.41646e-05
0.000194361
0.00019966
1.53556e-05
1.27533e-06
0.000101218
2.63242e-06
0.000123067
3.9833e-06
0.000136092
5.32258e-06
0.000146045
6.65914e-06
0.000154499
7.99207e-06
0.000162032
9.30149e-06
0.000169017
1.06267e-05
0.000175533
1.19447e-05
0.000181655
1.3228e-05
0.000187513
1.45397e-05
0.000193049
0.000198412
1.57883e-05
1.30697e-06
9.99115e-05
2.68811e-06
0.000121686
4.07633e-06
0.000134704
5.45463e-06
0.000144667
6.82505e-06
0.000153129
8.16157e-06
0.000160695
9.54023e-06
0.000167639
1.08889e-05
0.000174184
1.22014e-05
0.000180343
1.35252e-05
0.000186189
1.48038e-05
0.000191771
0.000197246
1.59692e-05
1.33079e-06
9.85807e-05
2.74992e-06
0.000120267
4.17614e-06
0.000133278
5.58175e-06
0.000143261
6.99258e-06
0.000151718
8.37988e-06
0.000159308
9.73665e-06
0.000166282
1.11151e-05
0.000172806
1.25005e-05
0.000178958
1.38509e-05
0.000184839
1.51676e-05
0.000190454
0.000195836
1.65778e-05
1.36036e-06
9.72203e-05
2.81451e-06
0.000118813
4.2671e-06
0.000131825
5.71279e-06
0.000141816
7.12971e-06
0.000150301
8.55761e-06
0.00015788
9.98329e-06
0.000164856
1.13811e-05
0.000171408
1.27657e-05
0.000177573
1.41275e-05
0.000183477
1.54615e-05
0.00018912
0.000194667
1.66305e-05
1.39209e-06
9.58283e-05
2.87357e-06
0.000117331
4.36528e-06
0.000130333
5.84283e-06
0.000140338
7.30865e-06
0.000148835
8.75628e-06
0.000156432
1.01939e-05
0.000163419
1.16369e-05
0.000169965
1.30466e-05
0.000176163
1.44586e-05
0.000182065
1.58276e-05
0.000187751
0.000193326
1.71684e-05
1.42041e-06
9.44078e-05
2.93983e-06
0.000115812
4.46404e-06
0.000128809
5.97038e-06
0.000138832
7.46555e-06
0.00014734
8.95258e-06
0.000154945
1.04231e-05
0.000161948
1.18934e-05
0.000168495
1.33355e-05
0.000174721
1.47746e-05
0.000180626
1.61588e-05
0.000186367
0.000191987
1.74984e-05
1.44543e-06
9.29624e-05
3.00049e-06
0.000114257
4.55953e-06
0.00012725
6.1074e-06
0.000137284
7.63661e-06
0.000145811
9.15014e-06
0.000153432
1.06575e-05
0.000160441
1.2138e-05
0.000167014
1.36185e-05
0.000173241
1.50776e-05
0.000179167
1.65127e-05
0.000184932
0.000190569
1.793e-05
1.47855e-06
9.14839e-05
3.06189e-06
0.000112673
4.65473e-06
0.000125657
6.23938e-06
0.000135699
7.80271e-06
0.000144247
9.35332e-06
0.000151881
1.0878e-05
0.000158916
1.24167e-05
0.000165475
1.39164e-05
0.000171741
1.53684e-05
0.000177715
1.67809e-05
0.000183519
0.000189217
1.81333e-05
1.50725e-06
8.99766e-05
3.12248e-06
0.000111058
4.75621e-06
0.000124023
6.37083e-06
0.000134085
7.97175e-06
0.000142646
9.54932e-06
0.000150303
1.11254e-05
0.00015734
1.26698e-05
0.000163931
1.42098e-05
0.000170201
1.57519e-05
0.000176173
1.72833e-05
0.000181988
0.00018764
1.88607e-05
1.53664e-06
8.844e-05
3.18828e-06
0.000109407
4.85245e-06
0.000122359
6.50306e-06
0.000132434
8.13948e-06
0.00014101
9.75874e-06
0.000148684
1.13583e-05
0.000155741
1.29514e-05
0.000162338
1.45133e-05
0.000168639
1.60535e-05
0.000174632
1.75801e-05
0.000180461
0.000186208
1.90118e-05
1.5643e-06
8.68757e-05
3.2511e-06
0.00010772
4.95122e-06
0.000120659
6.64228e-06
0.000130743
8.30995e-06
0.000139342
9.96359e-06
0.00014703
1.15961e-05
0.000154108
1.32029e-05
0.000160731
1.4816e-05
0.000167026
1.63894e-05
0.000173059
1.79638e-05
0.000178887
0.000184607
1.95646e-05
1.59111e-06
8.52846e-05
3.31389e-06
0.000105997
5.05233e-06
0.000118921
6.7754e-06
0.00012902
8.47694e-06
0.000137641
1.01649e-05
0.000145343
1.18329e-05
0.00015244
1.34802e-05
0.000159084
1.51206e-05
0.000165385
1.67301e-05
0.00017145
1.82606e-05
0.000177356
0.00018316
1.97079e-05
1.6232e-06
8.36614e-05
3.37359e-06
0.000104247
5.14916e-06
0.000117145
6.91116e-06
0.000127258
8.6485e-06
0.000135903
1.03652e-05
0.000143626
1.20692e-05
0.000150736
1.37536e-05
0.0001574
1.54113e-05
0.000163728
1.70649e-05
0.000169796
1.87047e-05
0.000175716
0.000181488
2.03768e-05
1.6492e-06
8.20122e-05
3.43658e-06
0.000102459
5.24252e-06
0.000115339
7.04078e-06
0.00012546
8.81985e-06
0.000134124
1.05742e-05
0.000141872
1.23053e-05
0.000149005
1.40213e-05
0.000155684
1.57113e-05
0.000162038
1.73674e-05
0.00016814
1.90019e-05
0.000174082
0.000180002
2.04878e-05
1.67782e-06
8.03343e-05
3.49419e-06
0.000100643
5.34211e-06
0.000113491
7.17241e-06
0.000123629
8.98574e-06
0.000132311
1.07739e-05
0.000140083
1.25483e-05
0.000147231
1.42914e-05
0.00015394
1.60209e-05
0.000160308
1.77279e-05
0.000166433
1.94056e-05
0.000172404
0.000178285
2.11222e-05
1.70463e-06
7.86297e-05
3.55727e-06
9.87902e-05
5.43407e-06
0.000111614
7.30322e-06
0.00012176
9.1523e-06
0.000130462
1.09763e-05
0.000138259
1.27745e-05
0.000145432
1.45553e-05
0.00015216
1.63111e-05
0.000158552
1.80403e-05
0.000164704
1.9735e-05
0.00017071
0.000176748
2.12719e-05
1.73384e-06
7.68959e-05
3.61824e-06
9.69058e-05
5.52913e-06
0.000109704
7.43593e-06
0.000119854
9.3194e-06
0.000128578
1.11798e-05
0.000136399
1.30142e-05
0.000143598
1.48202e-05
0.000150354
1.66084e-05
0.000156764
1.83686e-05
0.000162943
2.00963e-05
0.000168982
0.000175023
2.1822e-05
1.75803e-06