/*--------------------------------*- C++ -*----------------------------------*\
| =========                 |                                                 |
| \\      /  F ield         | OpenFOAM: The Open Source CFD Toolbox           |
|  \\    /   O peration     | Version:  2.3.1                                 |
|   \\  /    A nd           | Web:      www.OpenFOAM.org                      |
|    \\/     M anipulation  |                                                 |
\*---------------------------------------------------------------------------*/
FoamFile
{
    version     2.0;
    format      ascii;
    class       volScalarField;
    location    "0.1";
    object      epsilon;
}
// * * * * * * * * * * * * * * * * * * * * * * * * * * * * * * * * * * * * * //

dimensions      [0 2 -3 0 0 0 0];

internalField   nonuniform List<scalar> 
15166
(
1022.04
919.678
887.396
921.867
943.165
952.564
914.161
830.871
737.457
633.284
531.913
448.748
1024.78
805.569
822.771
865.134
888.904
894.855
855.089
778.173
689.751
593.76
500.794
418.331
1038.68
716.327
761.544
810.314
837.044
841.024
801.875
730.597
647.505
558.616
472.277
392.585
1056.3
648.904
707.158
759.637
788.411
791.184
753.641
687.524
609.732
527.041
446.018
368.277
1075.47
597.876
659.845
713.887
743.647
745.514
709.93
648.506
575.738
498.521
422.098
347.482
1096.12
558.438
618.432
672.651
702.631
703.805
670.251
613.079
544.994
472.61
400.21
328.291
1118.28
527.432
581.907
635.332
665
665.651
634.106
580.818
517.031
448.939
379.996
309.929
1141.57
502.838
549.565
601.461
630.426
630.686
601.073
551.327
491.478
427.232
361.442
293.931
1165.77
483.253
520.857
570.656
598.628
598.587
570.792
524.27
468.032
407.264
344.375
279.306
1190.6
467.643
495.296
542.572
569.347
569.059
542.96
499.383
446.437
388.84
328.695
266.383
1215.8
455.229
472.472
516.896
542.338
541.843
517.308
476.418
426.492
371.802
314.249
254.545
1241.3
445.411
452.026
493.362
517.382
516.702
493.604
455.168
408.011
356.016
301.026
244.45
1266.92
437.729
433.666
471.731
494.275
493.424
471.645
435.451
390.845
341.366
288.884
235.464
1292.54
431.814
417.138
451.806
472.844
471.83
451.254
417.119
374.857
327.721
277.523
225.949
1318.02
427.373
402.226
433.411
452.932
451.752
432.28
400.026
359.943
315.011
267.033
218.026
1343.35
424.165
388.745
416.394
434.398
433.054
414.59
384.07
345.992
303.126
257.277
210.603
1368.36
421.998
376.533
400.623
417.121
415.606
398.063
369.133
332.923
292.006
248.165
203.536
1393.11
420.707
365.456
385.982
400.986
399.292
382.59
355.137
320.665
281.577
239.631
196.904
1417.46
420.155
355.39
372.367
385.897
384.017
368.087
341.987
309.14
271.778
231.638
190.813
1441.32
420.234
346.232
359.688
371.764
369.691
354.463
329.621
298.287
262.561
224.132
185.08
1464.62
420.839
337.889
347.864
358.51
356.232
341.65
317.973
288.057
253.865
217.043
179.481
1487.46
421.9
330.281
336.823
346.062
343.574
329.581
306.985
278.394
245.651
210.327
174.131
1509.8
423.333
323.334
326.5
334.358
331.65
318.197
296.604
269.258
237.878
203.933
168.813
1531.41
425.097
316.988
316.84
323.341
320.403
307.443
286.784
260.609
230.513
197.853
163.83
1552.47
427.145
311.187
307.789
312.959
309.783
297.276
277.488
252.409
223.517
192.057
159.032
1572.8
429.407
305.879
299.303
303.165
299.745
287.651
268.673
244.625
216.869
186.537
154.553
1592.48
431.863
301.021
291.337
293.916
290.244
278.528
260.307
237.228
210.54
181.28
150.275
1611.53
434.476
296.571
283.854
285.175
281.245
269.87
252.359
230.191
204.512
176.268
146.289
1629.84
437.233
292.498
276.818
276.906
272.711
261.651
244.798
223.489
198.765
171.503
142.576
1647.52
440.129
288.764
270.198
269.077
264.611
253.836
237.603
217.101
193.283
166.946
138.895
1664.5
443.083
285.343
263.965
261.658
256.915
246.401
230.745
211.007
188.045
162.603
135.479
1680.61
446.129
282.208
258.092
254.622
249.6
239.319
224.208
205.187
183.04
158.442
132.119
1695.86
449.239
279.341
252.555
247.946
242.638
232.572
217.966
199.626
178.252
154.469
129.016
1710.71
452.378
276.714
247.333
241.606
236.01
226.134
212.005
194.307
173.67
150.663
125.965
1724.54
455.546
274.316
242.403
235.582
229.693
219.99
206.307
189.219
169.281
147.021
123.124
1737.61
458.75
272.124
237.748
229.855
223.67
214.12
200.856
184.346
165.074
143.525
120.291
1750.13
461.967
270.127
233.349
224.406
217.922
208.51
195.639
179.674
161.036
140.165
117.602
1761.73
465.192
268.309
229.192
219.219
212.433
203.142
190.64
175.193
157.162
136.947
115.132
1772.69
468.424
266.657
225.26
214.278
207.191
198.004
185.849
170.893
153.443
133.857
112.702
1782.94
471.684
265.16
221.541
209.571
202.178
193.085
181.255
166.766
149.871
130.902
110.477
1792.17
474.971
263.806
218.025
205.085
197.386
188.371
176.846
162.801
146.434
128.045
108.104
1800.72
478.383
262.595
214.698
200.808
192.799
183.852
172.613
158.989
143.128
125.274
105.694
1808.34
481.818
261.511
211.549
196.727
188.409
179.517
168.546
155.322
139.944
122.608
103.575
1815.32
485.358
260.56
208.571
192.834
184.205
175.356
164.638
151.795
136.876
120.032
101.436
1821.56
488.843
259.775
205.757
189.117
180.177
171.362
160.88
148.398
133.919
117.552
99.4999
1826.97
492.168
259.139
203.105
185.569
176.314
167.524
157.264
145.126
131.068
115.153
97.4726
1831.6
495.576
258.637
200.615
182.182
172.61
163.836
153.784
141.974
128.316
112.844
95.7012
1835.66
498.812
258.246
198.277
178.944
169.058
160.29
150.432
138.934
125.661
110.611
93.8645
1838.94
501.975
257.931
196.085
175.86
165.652
156.881
147.203
136.002
123.097
108.459
92.2026
1841.49
505.079
257.738
194.024
172.918
162.387
153.601
144.093
133.174
120.622
106.375
90.468
1843.29
508.031
257.626
192.09
170.112
159.252
150.443
141.092
130.441
118.228
104.367
88.9316
1844.46
511.053
257.596
190.281
167.439
156.245
147.403
138.198
127.8
115.912
102.425
87.4335
1844.97
513.889
257.639
188.579
164.889
153.358
144.476
135.405
125.249
113.671
100.535
85.8137
1844.73
516.711
257.751
186.993
162.461
150.587
141.656
132.708
122.782
111.503
98.707
84.3618
1843.97
519.47
257.928
185.509
160.145
147.927
138.94
130.105
120.395
109.402
96.9368
82.9702
1842.63
522.167
258.168
184.124
157.939
145.374
136.323
127.59
118.087
107.369
95.2297
81.7034
1840.52
524.682
258.461
182.834
155.839
142.923
133.801
125.162
115.854
105.398
93.5746
80.393
1837.86
527.275
258.814
181.641
153.839
140.571
131.372
122.816
113.693
103.491
91.9759
79.2049
1834.67
529.678
259.221
180.535
151.938
138.315
129.029
120.549
111.601
101.642
90.4124
77.7966
1830.7
532.036
259.653
179.504
150.126
136.149
126.773
118.359
109.577
99.8506
88.8955
76.5742
1826.27
534.261
260.163
178.562
148.406
134.072
124.598
116.242
107.616
98.1129
87.4283
75.4645
1821.33
536.527
260.719
177.697
146.774
132.08
122.502
114.197
105.718
96.4275
86.0112
74.43
1815.78
538.619
261.318
176.908
145.222
130.17
120.482
112.219
103.879
94.795
84.636
73.3467
1809.59
540.668
261.935
176.199
143.753
128.34
118.536
110.308
102.098
93.2112
83.3053
72.3412
1802.9
542.574
262.625
175.552
142.362
126.586
116.661
108.461
100.374
91.6758
82.011
71.2825
1795.55
544.46
263.33
174.974
141.05
124.906
114.856
106.675
98.7035
90.1878
80.7546
70.306
1788.09
546.323
264.08
174.471
139.807
123.3
113.117
104.951
97.0863
88.7434
79.5309
69.2844
1779.39
548.025
264.86
174.026
138.637
121.763
111.443
103.284
95.5192
87.342
78.3439
68.368
1770.69
549.68
265.688
173.646
137.539
120.294
109.832
101.674
94.0029
85.9827
77.1904
67.4457
1761.67
551.233
266.554
173.331
136.504
118.89
108.282
100.117
92.5329
84.6638
76.0732
66.5993
1751.74
552.798
267.443
173.084
135.54
117.55
106.791
98.6153
91.1102
83.3853
74.9865
65.7139
1741.4
554.058
268.38
172.891
134.638
116.275
105.358
97.1641
89.7321
82.1445
73.9318
64.9116
1730.54
555.497
269.313
172.742
133.797
115.06
103.982
95.7633
88.3974
80.9416
72.9115
64.1286
1719.24
556.694
270.363
172.684
133.029
113.908
102.662
94.413
87.107
79.7752
71.9193
63.3342
1707.43
557.81
271.368
172.664
132.31
112.812
101.394
93.1095
85.8566
78.6428
70.9543
62.5835
1695.61
559.018
272.435
172.709
131.657
111.772
100.179
91.8522
84.6471
77.5454
70.015
61.7884
1682.87
559.993
273.517
172.805
131.067
110.791
99.0166
90.6426
83.4787
76.4811
69.1013
61.0578
1669.35
560.76
274.618
172.962
130.532
109.866
97.9045
89.4761
82.3482
75.4501
68.213
60.3122
1655.84
561.664
275.778
173.174
130.057
108.995
96.8419
88.3545
81.257
74.4506
67.3507
59.6275
1642.13
562.402
276.956
173.448
129.637
108.178
95.8285
87.2756
80.2027
73.4834
66.5101
58.8988
1627.49
563.036
278.191
173.774
129.278
107.416
94.8633
86.2397
79.1839
72.5456
65.6951
58.2401
1612.6
563.605
279.412
174.165
128.98
106.709
93.9442
85.2452
78.2012
71.6364
64.9047
57.6337
1597.29
564.052
280.656
174.603
128.735
106.051
93.0742
84.2925
77.2548
70.7575
64.1398
57.0198
1581.51
564.421
281.954
175.095
128.55
105.448
92.2516
83.3818
76.3437
69.909
63.3959
56.3714
1565.33
564.724
283.277
175.645
128.426
104.896
91.4735
82.5109
75.4666
69.0878
62.6752
55.7873
1549.14
564.955
284.636
176.275
128.352
104.396
90.7429
81.6777
74.6239
68.2963
61.9757
55.1776
1532.13
565.037
286.016
176.952
128.34
103.952
90.0571
80.8864
73.8139
67.5307
61.2978
54.6465
1514.77
565.02
287.418
177.675
128.396
103.559
89.4198
80.1344
73.0371
66.794
60.6423
54.076
1497
564.9
288.847
178.466
128.503
103.222
88.8289
79.4223
72.2948
66.0846
60.007
53.5224
1478.84
564.696
290.346
179.334
128.678
102.94
88.2829
78.7496
71.5866
65.403
59.3882
52.924
1460.3
564.373
291.816
180.241
128.907
102.705
87.783
78.1146
70.9092
64.7459
58.7942
52.5008
1441.38
563.929
293.311
181.23
129.208
102.532
87.3294
77.5198
70.2669
64.1199
58.2287
52.028
1422.49
563.505
294.876
182.281
129.571
102.414
86.9239
76.9664
69.6579
63.5193
57.6857
51.6075
1402.47
562.783
296.45
183.392
130
102.358
86.5678
76.4532
69.0825
62.9473
57.1657
51.1754
1382.86
562.097
298.041
184.569
130.503
102.352
86.2617
75.982
68.5403
62.4028
56.6696
50.7809
1362.54
561.211
299.639
185.805
131.063
102.413
86.0049
75.5511
68.0335
61.8886
56.1957
50.3544
1341.86
560.306
301.304
187.131
131.703
102.533
85.7999
75.1638
67.5618
61.4014
55.7436
49.9886
1320.81
559.149
302.974
188.523
132.416
102.722
85.6493
74.8178
67.1252
60.9429
55.3139
49.6045
1299.83
558.077
304.663
189.982
133.213
102.97
85.5515
74.5172
66.7241
60.5143
54.9093
49.2698
1278.15
556.693
306.399
191.535
134.087
103.296
85.5099
74.2648
66.3624
60.117
54.5273
48.8997
1256.12
555.25
308.138
193.155
135.038
103.684
85.5277
74.0578
66.0372
59.7496
54.1674
48.5917
1233.76
553.659
309.885
194.871
136.083
104.151
85.6043
73.8973
65.7504
59.412
53.8355
48.3218
1211.09
551.9
311.684
196.659
137.213
104.693
85.7463
73.7904
65.5063
59.1102
53.5316
48.0359
1188.12
550.056
313.48
198.521
138.442
105.321
85.9523
73.7351
65.3051
58.8425
53.2533
47.7647
1165.19
548.137
315.327
200.486
139.763
106.035
86.2257
73.7355
65.1467
58.6082
53.0025
47.5577
1141.63
546.003
317.167
202.555
141.194
106.836
86.5732
73.792
65.0335
58.4128
52.7841
47.3488
1118.1
543.788
319.054
204.703
142.722
107.725
86.9989
73.9107
64.9688
58.253
52.5941
47.1969
1093.99
541.324
320.923
206.935
144.368
108.719
87.5033
74.0949
64.9562
58.136
52.4402
47.0666
1069.21
538.659
322.829
209.306
146.128
109.821
88.0961
74.3453
64.9966
58.0623
52.3195
46.9412
1044.76
536.015
324.78
211.744
148.016
111.031
88.7814
74.6667
65.0944
58.0325
52.2343
46.8571
1019.79
533.138
326.72
214.33
150.045
112.364
89.5619
75.0702
65.2546
58.0521
52.1868
46.7745
994.499
530.048
328.688
217.012
152.202
113.82
90.4485
75.5545
65.4789
58.1239
52.1821
46.7572
969.28
526.889
330.646
219.82
154.513
115.423
91.4457
76.1293
65.7754
58.2529
52.2279
46.7743
943.54
523.484
332.628
222.735
156.983
117.166
92.5706
76.7984
66.1471
58.4402
52.3132
46.7651
917.506
519.858
334.674
225.819
159.627
119.068
93.8214
77.5747
66.5995
58.6887
52.4445
46.8392
891.253
516.119
336.654
229.012
162.432
121.129
95.2136
78.4602
67.1378
59.0062
52.634
46.9459
864.737
512.161
338.7
232.357
165.432
123.386
96.7563
79.4694
67.7736
59.4007
52.8799
47.1195
838.277
508.092
340.733
235.831
168.636
125.831
98.4755
80.6162
68.5197
59.879
53.1951
47.3407
811.637
503.759
342.815
239.502
172.064
128.494
100.373
81.9085
69.3807
60.4524
53.5886
47.6502
784.291
499.129
344.852
243.314
175.726
131.393
102.482
83.3715
70.3704
61.1271
54.0664
48.0106
756.895
494.379
346.912
247.331
179.629
134.547
104.807
85.0144
71.5055
61.91
54.6191
48.3779
729.588
489.435
348.993
251.515
183.822
137.983
107.379
86.8544
72.7991
62.817
55.2694
48.8762
702.16
484.239
351.085
255.909
188.314
141.729
110.228
88.9276
74.275
63.8701
56.0429
49.4664
674.107
478.769
353.178
260.549
193.121
145.816
113.394
91.2525
75.953
65.0813
56.9304
50.1605
646.217
473.121
355.305
265.41
198.305
150.29
116.897
93.8707
77.862
66.4706
57.9641
50.9525
618.271
467.216
357.46
270.547
203.877
155.192
120.794
96.8129
80.0332
68.0635
59.1505
51.8829
589.777
461.055
359.659
276.014
209.929
160.587
125.151
100.143
82.5109
69.8976
60.5308
52.9672
561.42
454.686
361.956
281.831
216.505
166.55
130.02
103.912
85.3433
72.0133
62.1273
54.2
532.832
448.114
364.396
288.116
223.706
173.174
135.505
108.193
88.5854
74.4463
63.969
55.6145
504.184
441.375
367.1
294.971
231.657
180.592
141.696
113.07
92.3074
77.2455
66.0863
57.2595
475.24
434.605
370.239
302.629
240.566
188.945
148.746
118.657
96.5906
80.4799
68.5459
59.1644
446.133
428.124
374.263
311.455
250.726
198.482
156.821
125.089
101.528
84.2164
71.3799
61.3668
416.561
422.786
379.975
322.06
262.519
209.452
166.09
132.49
107.24
88.534
74.6464
63.8454
386.467
421.903
389.744
335.879
276.716
222.342
176.91
141.132
113.904
93.5711
78.4237
66.6728
352.102
425.943
401.448
351.631
291.734
235.845
188.289
150.481
121.13
99.1152
82.6027
69.902
176.543
0.00117457
3.81217
2.84007
2.81979
12.0579
11.6069
87.0776
31.3093
16.4383
4.58288
0.00222965
0.0159933
430.978
10.1474
0.000844957
355.415
0.130472
0.124224
0.000826593
2.47129
5.90127
0.171021
0.0135083
182.056
3.79038
4.03857
11.591
10.3677
34.7191
8.95666
374.399
0.00102759
4.46944
0.0150463
2.0818
92.4016
7.83658
32.7997
0.00239886
0.199489
0.000787365
0.0857516
14.5974
30.0193
5.66753
0.0393117
0.00992158
30.2894
2.45477
2.05452
83.5467
24.3895
0.000749117
151.613
0.00109344
0.00300903
0.000786952
7.85835
9.36039
3.48986
388.991
0.000746701
0.00621402
0.510185
0.00111854
50.4156
23.8994
339.758
11.4299
128.87
0.0339212
31.2848
29.1071
0.0138772
0.000774493
28.3031
0.000731895
0.0547099
13.1531
0.129447
0.000732793
82.6449
26.5858
0.00575676
47.3892
50.0177
0.00074033
2.99155
31.7437
22.3178
17.1372
0.000741849
0.000938108
63.7544
0.000771074
10.8168
0.00494114
0.000734106
51.6069
109.907
0.849428
0.000786088
0.00105788
0.000731669
79.3531
65.8876
111.952
12.4936
0.0156954
0.524676
0.000732361
8.96001
0.000893305
0.000736511
8.98874
0.00810864
1.03082
47.1169
0.372626
88.3097
0.0139532
126.164
0.722837
0.200546
34.4073
0.0010037
1348.2
0.0135543
0.000742731
133.109
0.000758843
109.499
0.00106419
4.19326
0.00130648
34.4733
7.92417
9.50707
0.00149009
0.0064711
3.13783
18.6261
0.181062
36.8426
139.81
21.3387
0.00113043
43.0238
26.9536
0.609364
8.6347
0.000734806
0.170187
0.46341
0.000735864
13.7191
0.00076241
60.4213
0.00199973
0.0125626
0.000854529
0.198908
0.00479011
2.53283
0.145915
316.947
37.3432
23.1376
0.00073202
146.217
32.9337
152.817
0.00700662
0.000732611
11.6304
0.000731684
26.3935
0.615503
23.8562
333.007
2.02725
0.0547396
31.1156
0.000801685
15.1051
0.000750405
0.000732501
35.6722
0.000737511
5.45519
0.000737453
209.066
0.00123572
17.7799
16.5818
12.4819
5.15011
0.000732441
297.199
44.0158
24.5635
64.2961
10.2952
23.6284
0.0967677
0.11281
0.843762
26.7076
0.874573
178.906
36.6447
52.8859
42.3287
0.000732249
18.7446
0.00474832
6.82938
308.976
26.6994
26.3254
44.1886
31.0314
0.000740346
0.000742464
35.8423
47.4712
0.000760409
1177.46
0.0134374
165.241
0.187028
0.000734096
60.491
6.22046
15.1835
13.2503
48.6141
21.7586
22.5401
0.299346
0.269422
22.1428
63.6823
160.726
168.528
103.08
0.000824312
30.1857
20.0226
10.454
29.0263
3.19457
3430.58
28.6326
1.04344
2.20908
21.0355
8.77218
30.9059
0.871229
16.0754
0.00559578
0.10943
574.131
16.8377
41.6849
52.676
4.65658
163.771
7.91832
0.0298305
127.091
98.0164
96.1359
135.687
39.2656
112.013
36.3715
32.839
188.896
38.5653
32.248
24.5185
16.9043
12.5984
7.68053
90.8288
62.2974
2.14619
32.4152
122.485
105.639
105.099
21.013
201.044
0.614665
96.9231
0.046451
64.5962
6.99589
0.445171
325.444
148.897
0.426043
36.6388
40.686
0.00073818
0.472811
0.325173
0.424197
47.5857
0.00073765
71.412
24.8678
0.0647071
98.1037
30.7354
0.000732148
400.325
0.018343
8.77858
6.52974
7658.67
58.0769
30.444
11.9188
0.000733204
0.000751636
46.6861
8.28101
0.000735961
6.59618
0.000734261
0.000750659
0.000761422
0.000731666
0.155397
0.000733834
0.00164942
91.0851
54.3936
0.000755436
21.8211
0.00276516
85.8771
143.203
61.4991
845.489
9.48419
0.000731707
0.000764344
0.0656842
0.607389
96.9498
0.00073268
0.115444
31.328
36.1911
3.13866
33.1976
31.8668
51.0676
769.39
2.43474
2.85313
0.000889543
0.0007369
0.769254
3.29717
0.143494
33.5507
58.4933
4910.21
125.135
3.0508
25.4073
46.2841
0.000744273
5.33884
32.4104
0.00138669
0.000751953
56.7453
3229.96
90.0344
0.000735577
0.0326021
4.14295
0.0104595
0.000757889
38.6258
4.03338
23.3187
20.8623
0.00091865
702.188
0.000735666
0.949299
12.1912
0.00173122
0.00376683
63.1504
0.00262058
30.5391
298.905
60.6675
17.1389
46.6448
109.452
0.000732755
0.000736963
0.000734223
54.1227
0.0585042
331.436
4742.33
5.11732
66.0548
0.000751342
0.0151101
17.6059
0.000732341
0.000738765
104.495
0.000734602
0.972335
38.6109
33.9512
0.000731853
0.00212429
0.160981
0.144356
12.6281
0.236209
0.000731859
625.118
39.3825
0.826107
0.00410952
41.1884
98.3746
0.00190706
17.2824
0.00181026
43.9143
0.000838184
13.9183
0.952754
0.000732015
50.5186
12.7738
167.166
0.00300808
5.95184
3.08793
0.00137452
98.1862
60.3068
1.48516
227.026
0.0104225
0.0295561
0.00359465
85.3216
21.7752
0.169294
2.59393
4.16222
166.426
0.489205
93.9582
1102.68
0.000732499
146.436
39.9265
11.4013
0.000732393
25.7891
65.0676
0.0861857
91.8535
28.1361
1.36513
0.204921
35.4064
118.405
0.000860344
0.00749316
39.8521
0.0215766
0.00297479
248.872
836.204
0.0215309
28.4409
36.8757
0.261672
50.5826
33.497
37.5965
21.7707
31.1921
0.000775137
0.144677
54.3636
20.8221
84.3595
27.5971
65.2439
184.977
766.359
50.705
1.46545
0.000733746
184.448
98.4388
33.0082
6.28832
0.923831
0.0871481
6.80158
0.000777422
21.1254
0.000735005
47.1921
6.49695
101.3
34.7224
51.4366
117.555
85.9332
20.2919
156.703
0.000766242
0.252112
41.055
1229.5
8.33221
14.8733
0.000857871
0.0132105
3.608
79.6298
11.3229
0.000732244
0.0421112
0.000731661
0.0368211
24.8473
0.0200468
45.3398
2.93972
81.4144
0.257424
0.351403
314.07
646.198
0.000740452
0.00074097
5.75661
147.914
23.3874
7.93254
2.02944
21.1853
25.5359
0.000731783
0.532718
15.2046
0.00124445
56.2643
16.1827
32.3938
23.3129
0.00377363
0.000731919
0.0100727
0.000734711
17.9299
12.4637
134.712
14.5933
0.00074679
100.459
0.0827219
128.379
1.79349
141.558
0.00239866
0.301037
0.000734757
44.0202
565.753
24.4709
2.6555
0.000731673
73.6721
31.6406
56.2954
0.00074231
0.224993
40.3867
18.1405
0.00157872
1096.37
0.000891322
38.6241
18.8871
0.000863244
2.20544
0.0885302
0.626386
0.000732203
0.000742003
51.182
43.2886
23.2442
60.6177
0.00123018
2.1192
0.132909
32.0882
9.2598
0.000976015
1.19196
413.577
0.000732045
0.00230088
33.1806
162.43
64.6547
0.000738342
684.221
30.9151
84.345
0.0118102
2.80753
154.134
0.000743174
111.84
2.61944
20.3117
4.64802
29.2888
5.14968
66.9774
70.7302
17.549
4403
0.000755502
0.000733919
102.896
34.0938
0.00119197
0.000732407
5.54686
0.000745504
37.6893
57.5514
0.664253
0.000741141
26.822
0.401465
27.7121
43.3272
31.6424
0.179208
2.31715
86.019
0.000739834
1.82213
42.939
27.5484
11.511
0.00194447
6.35326
1.54334
2732.95
0.000732363
2.51597
24.6299
20.2061
0.000794736
0.107828
36.2696
65.7637
50.9268
0.0391298
146.028
37.8357
0.253334
34.6787
0.000732753
0.00199294
5.13796
0.000732109
31.9124
0.000733707
122.416
0.00366794
41.5514
0.000778221
0.945716
61.1782
85.4238
4.38925
21.3136
0.265299
168.599
0.00600592
0.0994713
11.5833
0.000732502
0.000745105
30.7928
0.264732
98.9301
29.4369
0.000784464
95.3012
109
90.1546
4.22421
138.076
104.318
0.000741205
2355.3
3771.5
55.3834
0.000759717
0.00315069
199.479
68.7518
0.000735589
61.6325
0.0007327
0.068679
215.586
0.000835599
18.6115
0.000732151
0.0425857
130.742
0.000762142
0.000981054
0.000736985
0.000928327
0.0101291
786.527
37.1978
0.257396
13.2665
0.000733114
33.0961
0.000734164
8.76281
1.02726
0.00866421
4.84634
0.00431593
50.0281
0.00075338
9338.8
2.3823
20.1372
174.767
5.1529
0.000731816
31.7222
152.873
2.20781
32.2665
42.4207
134.55
25.8287
0.0247265
19.457
0.116246
0.000979143
0.225228
3671.91
116.945
1.01251
0.00161023
26.7028
0.000895599
5.59574
37.0661
147.801
43.2377
44.1239
0.0206686
0.00166419
40.3622
31.7459
0.0338048
55.1817
0.000740361
114.566
155.394
0.000777122
126.311
35.0653
1.23865
0.103595
102.067
0.0114614
0.257016
8.33058
1.70627
1.615
0.000752825
17.7276
0.0743439
149.229
30.791
90.3557
4.18342
0.00197273
24.6493
0.000734492
0.000733565
11.5812
0.100804
1.53582
150.619
0.000731905
49.2542
0.114316
0.0375066
0.000837491
116.348
4.72196
0.305352
28.0982
0.0379588
320.47
4.1459
0.000732639
255.871
197.226
0.00137111
0.00244953
88.1726
17.1372
0.360991
249.231
0.0181283
1.12588
0.183388
0.231892
22.0486
102.904
0.000737764
70.1798
29.4063
0.00469332
0.713483
1186.2
21.4611
0.000734621
0.000734499
23.6238
29.0502
47.235
0.00073244
23.5891
1.64281
38.1864
0.000924967
163.793
33.539
0.00134304
22.0231
0.000747364
62.9706
37.4615
35.7089
46.4682
0.000736219
0.000731951
10.1763
75.9077
3.28169
26.5936
0.000731981
0.0305673
0.000758332
0.0016566
25.5442
0.0584793
0.292407
0.861006
28.9761
145.842
27.2086
42.7233
0.000734333
36.6987
26.5335
26.7157
0.000739743
28.5529
0.000749949
0.00073357
0.104109
26.6172
0.0112135
325.217
43.6305
233.185
0.000767053
0.00130198
0.0201712
121.112
2.58867
159.69
0.000735935
0.000738099
0.00171875
0.00245098
102.775
31.5975
91.6317
0.193896
0.0234799
2.20214
4.32147
63.3828
16.7665
44.8996
21.0414
0.000732175
153.743
0.00142425
0.913754
45.5664
31.7426
0.966193
0.517092
0.000911968
74.0648
4.3996
12.0514
35.8053
0.00073486
73.2792
30.7422
163.687
0.00263782
42.651
56.2138
41.2231
175.37
24.4871
62.0238
0.171035
760.44
3.53253
0.11033
124.149
0.000737352
66.783
183.655
0.000735724
24.7225
0.0012168
111.665
108.208
1.00894
24.7761
113.908
67.944
14.9744
0.871793
56.1113
10.4932
0.00399723
0.000737265
15.9567
0.0544631
12.58
63.4464
2.53276
39.2077
114.648
0.000733305
21.0805
483.816
254.04
11.3753
124.036
11.4525
148.406
104.625
0.941517
0.0111105
0.177814
78.843
57.8215
0.134604
39.1055
41.7578
36.2858
13.0138
1.13462
6.45901
22.7647
0.000739251
174.184
96.383
1.16472
0.00073947
17.1886
9.63483
21.7686
0.000753654
149.106
0.000734357
13.1997
0.11227
0.000743161
26.1001
85.1881
0.000731782
55.4925
34.1394
16.6395
16.1419
48.7603
17.2468
25.3448
58.2574
1.53579
0.000736826
0.00116997
41.7689
6.15535
0.0810979
0.00077612
87.4729
0.00154543
0.962299
0.151564
6.60974
9.4981
0.0443829
0.522775
518.458
125.926
31.0111
1127.93
41.4146
0.000732446
56.8489
11.2264
132.935
0.000732792
5.70864
0.000738445
0.000850479
23.1603
2.22799
0.0213517
0.000807318
38.2967
2569.76
0.0020436
0.000736504
1.79637
7.18213
0.00957466
0.0577336
2693.65
0.43551
0.00080817
0.00073983
48.419
27.7468
0.198894
0.0463423
72.0802
211.031
34.6225
109.503
24.317
0.00073461
10.566
0.000734395
141.291
20.7276
2395.62
6.56259
0.0919288
0.000903666
70.9388
0.000740353
0.000733683
0.00150179
15.571
24.3024
43.2153
0.000733427
10.65
0.000736469
481.162
43.2723
0.000744721
137.795
5.70022
0.000734501
0.000778339
0.0144421
102.628
3.26033
0.0120786
0.000737835
0.000736731
144.006
98.0865
23.0278
23.0733
0.390605
38.4098
0.000734079
0.00340796
4.04949
214.51
32.5009
0.00258549
0.000734746
40.779
0.000760849
94.0122
149.625
4.19699
0.0246401
96.3907
10.5951
3.0401
0.000734175
4.37819
64.3545
93.7964
0.00180473
0.0161355
21.6873
2956.96
0.0343105
2.62748
0.000731773
0.000736053
0.000745979
0.00767628
38.711
48.2311
0.0102263
99.8521
14.3678
430.014
9.05938
0.00786209
0.00221709
0.00503371
2.42723
53.7603
26.0701
0.000753069
65.1263
0.000733433
0.00495009
45.02
35.0933
0.0167361
3.06874
5.82449
0.00100031
0.663762
1.84083
0.000732514
0.000930081
108.992
0.000872858
0.000753584
134.036
31.3286
3115.61
9.67666
1187.65
0.000878739
0.000741006
3063.98
21.9212
0.667804
2.3959
0.037321
24.3881
0.596397
944.107
33.4522
72.1731
143.561
109.773
1.15282
34.434
106.504
0.00519787
84.1863
0.000998891
41.0658
5.70636
0.734415
4.67058
7.45754
2.08402
1.61565
45.5068
53.6312
54.0963
34.2989
56.9207
25.3008
3.55617
0.00102113
0.000732789
0.152362
177.049
0.00073278
54.7582
0.000739497
0.00287963
166.598
124.01
31.4339
84.488
927.957
53.4585
12.254
49.2519
0.000737471
18.4183
53.1905
0.00076008
163.515
0.00211206
739.72
258.228
305.159
18.4755
96.0344
2.46631
0.488885
20.6101
66.3745
25.4927
8.38303
5.71735
88.652
0.0900583
132.281
326.095
0.00286637
23.2757
0.000740503
0.00094825
19.9406
93.2576
158.249
18.5928
0.367108
0.131751
0.238287
0.000940548
25.0736
0.00095256
163.099
0.000801134
0.0945561
266.054
5.85583
1.64693
169.908
132.161
0.00160569
0.000748447
0.139071
17.684
0.112093
118.05
0.0243357
30.8605
2.96544
32.5393
58.964
0.00085284
0.000731981
87.6231
0.459934
5.89239
40.0735
19.3909
25.7228
0.00289308
115.889
63.7334
96.2075
0.000812937
0.711435
28.0954
90.177
0.570707
15.675
0.000771104
7.21479
0.000737135
205.05
0.00348693
38.7746
0.116787
6.1178
0.00076194
1669.69
0.000739879
102.199
0.00902745
0.00073876
0.00448313
17.6771
0.000734119
0.000735638
6.06966
0.0145539
23.9683
0.0413647
0.000794402
28.3992
6.82954
47.301
0.00077794
115.221
5.23093
371.28
26.353
35.1009
74.7385
96.3553
2.6046
285.814
246.283
107.883
0.000753321
2.37823
28.1286
22.8239
0.00123482
0.0296801
26.5937
506.441
0.00073739
0.87529
76.6638
0.00073263
42.1863
49.0603
166.194
82.682
37.6153
15.3554
0.20557
145.13
5.57758
49.4792
37.5425
56.9826
0.431945
0.0007335
40.5149
0.00162307
0.000750529
0.000734816
224.362
0.000733306
0.000932618
11.8632
8292.33
1.75052
2.08165
38.2644
12.9833
0.000742443
48.1927
241.11
0.0114967
4.90099
36.9858
55.6276
0.199414
0.0141906
0.000732508
0.000735149
0.0124775
0.0263614
32.2332
27.3671
60.5879
18.4563
16.5961
0.000960444
175.125
33.841
0.000747905
25.3667
638.116
0.00075746
4.07668
128.192
30.5414
102.362
0.409879
109.46
0.000842258
0.526428
0.000776628
0.00178213
0.000746883
43.6485
11.4229
0.0602346
0.000739869
0.00073211
205.197
31.4069
1.55275
25.8854
3.62857
40.2787
20.3297
23.0949
33.4347
0.000735411
0.284328
0.831278
0.206682
21.2259
55.7342
33.9837
96.1793
34.7843
64.3354
172.018
65.4806
56.2984
20.0797
0.103765
40.9867
34.9826
0.0117748
81.85
38.9894
6.63976
0.000742088
0.000742816
0.000854244
0.00113405
59.8424
0.000732128
115.545
55.8509
239.378
18.2979
0.000737408
7.64958
20.4246
61.5244
16.8642
32.3897
8.3209
0.000766777
0.000742565
0.00258578
0.106325
0.000735147
94.4053
16.0127
1.21766
33.0275
9.38377
46.5467
123.829
0.000733616
21.4833
21.2654
0.000914212
0.0624759
62.2109
159.605
13.1764
5.40737
0.00075674
44.3688
48.3326
0.000918879
0.00831054
0.000733464
45.604
0.00108752
0.396556
82.1183
0.756711
0.0633024
14.1887
2819.53
0.00076083
20.0804
0.000733136
11.1981
26.7177
28.5948
10.2733
66.6264
21.812
61.0755
150.456
31.2942
0.000735055
0.000731991
0.0329551
0.131013
42.4606
5.2458
0.000751825
119.563
1.56205
0.00255692
36.8319
0.0357771
0.0022687
0.019996
54.5033
0.0016941
0.000741877
27.6016
95.267
16.4567
0.778749
58.6211
9.06214
0.000753607
18.5338
0.0935694
0.0442631
0.000801845
42.8772
13.0252
6.103
101.26
63.9733
20.1975
1.79096
0.000733251
31.8838
0.00076021
166.147
0.00297835
37.1746
0.101658
38.9783
0.00509112
0.00295812
3.67141
2.13647
394.824
0.000881177
0.971138
54.0865
103.512
6.79322
123.353
1.40758
0.000810638
0.000744964
57.719
16.0783
301.594
1.27565
0.120063
61.4106
26.1614
41.4988
0.0479473
0.000736429
0.000736816
1.29438
740.435
11.3225
74.4185
0.000865636
0.00361974
0.912206
58.8924
29.1835
32.1721
65.6868
44.5927
0.000742227
0.000755554
149.399
128.878
45.1838
370.746
56.4233
0.0120727
96.8285
0.00075374
236.038
0.010737
0.0125254
0.000735399
0.0213791
0.114448
39.0036
34.958
0.000754516
124.536
0.000742422
94.7265
105.411
0.000732009
0.337679
0.000754376
22.0356
0.201076
5.86128
0.000733711
16.0833
98.4328
14.7112
28.6419
1.02244
39.0336
1.36266
42.2489
39.3241
60.4333
20.7768
0.000923668
0.000751112
32.5747
0.307438
40.6993
0.000735045
87.8156
0.000732576
0.00125816
0.167277
0.0007392
256.389
67.4704
0.000762181
13.6443
1.44089
0.105601
22.6131
0.00169568
0.000736496
52.3119
5.41407
0.0292015
33.4779
1950
75.4578
1.47287
144.936
0.139065
0.000737367
0.00087574
0.0184275
1.65964
41.9848
104.275
294.821
37.486
61.1709
6.32998
1.41338
23.3975
104.515
62.3082
0.0250235
0.0581039
11.3039
54.8709
0.000804131
0.580469
10.6536
174.011
0.000737281
59.1657
0.000732076
0.00474757
139.381
0.000840166
71.3485
1021.55
0.000739066
149.459
0.000953616
9.21398
0.00423703
0.00104335
33.816
21.7291
47.4804
5.04288
56.0253
366.93
111.779
6.37125
25.0258
21.0925
0.000731868
204.457
0.0363736
60.8515
3.68261
6.40121
0.00514966
0.00101044
176.267
82.3982
14.2525
34.7892
20.3065
0.00598812
0.00073459
0.000753136
1.50146
80.1642
11.0403
0.000741855
999.135
22.5504
0.00652254
0.0877549
12.8243
0.000731936
0.34011
0.000762208
0.000732657
27.2711
20.0829
0.0355586
0.00434942
0.000732726
19.608
0.967177
22.7893
0.00212313
0.0197251
0.00518493
43.7669
113.571
1.18189
0.000739542
112.939
0.000778916
0.0240576
0.00297249
0.00125896
45.9537
46.3962
0.000746139
36.1544
0.000748781
0.000733616
0.00088379
38.4322
19.178
57.7247
47.9639
12.7419
41.7549
0.030851
0.00073393
0.00524447
0.00138189
3.26745
0.000739882
42.6808
7.13981
0.0223924
72.6426
0.296516
14.5418
1.58394
0.00163709
136.502
40.8427
26.3402
0.00523847
0.116069
151.333
0.000735672
5.33285
41.9994
0.000736329
0.48343
0.00225571
25.4994
0.000734791
86.8759
24.8656
1.6238
0.373803