/*--------------------------------*- C++ -*----------------------------------*\
| =========                 |                                                 |
| \\      /  F ield         | OpenFOAM: The Open Source CFD Toolbox           |
|  \\    /   O peration     | Version:  2.3.1                                 |
|   \\  /    A nd           | Web:      www.OpenFOAM.org                      |
|    \\/     M anipulation  |                                                 |
\*---------------------------------------------------------------------------*/
FoamFile
{
    version     2.0;
    format      ascii;
    class       volScalarField;
    location    "0.1";
    object      k;
}
// * * * * * * * * * * * * * * * * * * * * * * * * * * * * * * * * * * * * * //

dimensions      [0 2 -2 0 0 0 0];

internalField   nonuniform List<scalar> 
15166
(
1.04173
1.21396
1.52692
1.85858
2.11084
2.36138
2.53355
2.62592
2.64526
2.60432
2.51148
2.40017
1.04357
1.18121
1.52392
1.8465
2.09859
2.33166
2.48672
2.56607
2.57692
2.53269
2.44213
2.32249
1.05299
1.14673
1.50491
1.82256
2.07469
2.29418
2.43648
2.50609
2.5113
2.46499
2.37541
2.25301
1.06487
1.11847
1.48098
1.79348
2.04394
2.25203
2.38444
2.44678
2.44819
2.40056
2.31095
2.1841
1.07769
1.09635
1.45616
1.76287
2.00997
2.20792
2.33214
2.38887
2.38765
2.33924
2.24968
2.12234
1.09145
1.07882
1.43138
1.73189
1.97451
2.16328
2.28051
2.33277
2.32966
2.28078
2.1912
2.06272
1.1061
1.06482
1.40713
1.70104
1.93837
2.11881
2.22998
2.27862
2.27411
2.22493
2.13498
2.00363
1.12143
1.05373
1.38382
1.67067
1.90217
2.07499
2.18083
2.22648
2.22093
2.17161
2.08165
1.95093
1.13721
1.04506
1.36173
1.64113
1.86639
2.03215
2.13322
2.17633
2.17
2.1207
2.03097
1.90089
1.15329
1.03839
1.34093
1.61253
1.83132
1.99051
2.08725
2.12817
2.12123
2.0721
1.98302
1.85518
1.16952
1.03337
1.32145
1.58497
1.79713
1.95016
2.04294
2.08192
2.07452
2.02574
1.93774
1.81303
1.1858
1.0297
1.30321
1.55846
1.76393
1.91117
2.00027
2.03753
2.02979
1.98156
1.89533
1.77587
1.20206
1.02716
1.28618
1.53298
1.73179
1.87354
1.95922
1.9949
1.98694
1.93945
1.85542
1.74142
1.2182
1.02558
1.27029
1.50853
1.70071
1.83725
1.91972
1.95397
1.94586
1.89921
1.81696
1.70352
1.23417
1.02474
1.25545
1.48508
1.67069
1.80229
1.88173
1.91465
1.90648
1.86079
1.78065
1.67153
1.24992
1.02455
1.24157
1.46258
1.64174
1.7686
1.84518
1.87687
1.86869
1.82403
1.74609
1.64055
1.2654
1.02487
1.22857
1.44101
1.61382
1.73614
1.81001
1.84055
1.83242
1.78884
1.71306
1.6105
1.2806
1.02562
1.2164
1.42033
1.58692
1.70488
1.77616
1.80561
1.79758
1.7551
1.6814
1.58144
1.29546
1.02671
1.20497
1.40049
1.56097
1.67475
1.74355
1.77198
1.76408
1.72273
1.65114
1.55435
1.30995
1.02807
1.19424
1.38145
1.53598
1.6457
1.71214
1.7396
1.73185
1.69165
1.62215
1.5284
1.32406
1.02965
1.18412
1.36317
1.51187
1.61769
1.68185
1.70839
1.70082
1.66174
1.59419
1.50238
1.3378
1.03139
1.17457
1.34563
1.48863
1.59067
1.65263
1.6783
1.67091
1.63293
1.56716
1.47707
1.35111
1.03327
1.16554
1.32876
1.46621
1.5646
1.62445
1.64927
1.64207
1.60514
1.54095
1.45204
1.36401
1.03524
1.15699
1.31255
1.44458
1.53943
1.59724
1.62125
1.61424
1.5783
1.51555
1.42785
1.37647
1.03729
1.14887
1.29697
1.42372
1.51512
1.57096
1.59419
1.58736
1.55235
1.49096
1.40458
1.38847
1.03938
1.14114
1.28199
1.40358
1.49164
1.54556
1.56803
1.56137
1.52725
1.46714
1.38223
1.40006
1.04149
1.13377
1.26754
1.38413
1.46894
1.521
1.54273
1.53624
1.50295
1.44414
1.361
1.4112
1.04364
1.12675
1.25363
1.36533
1.44699
1.49725
1.51826
1.51191
1.47944
1.42194
1.34107
1.42187
1.0458
1.12002
1.24023
1.34718
1.42576
1.47426
1.49457
1.48835
1.45667
1.40053
1.32176
1.43211
1.04797
1.11359
1.2273
1.32962
1.40521
1.45201
1.47162
1.46552
1.43462
1.37977
1.30269
1.44187
1.05012
1.10739
1.21481
1.31264
1.38532
1.43045
1.44938
1.44339
1.41324
1.35969
1.2844
1.45118
1.05226
1.10145
1.20275
1.29621
1.36606
1.40956
1.42782
1.42193
1.39252
1.34021
1.26649
1.46001
1.05439
1.09572
1.1911
1.28031
1.34739
1.38931
1.40691
1.40112
1.3724
1.32132
1.24931
1.46846
1.05649
1.09022
1.17983
1.26491
1.3293
1.36967
1.38662
1.38091
1.35289
1.303
1.23252
1.47636
1.05858
1.0849
1.16894
1.25
1.31176
1.35061
1.36693
1.36129
1.33394
1.28522
1.21636
1.48389
1.06066
1.07979
1.15839
1.23555
1.29475
1.33211
1.3478
1.34224
1.31553
1.26794
1.20051
1.49094
1.06272
1.07484
1.14817
1.22154
1.27824
1.31415
1.32922
1.32371
1.29763
1.25118
1.18546
1.49756
1.06476
1.07006
1.13827
1.20795
1.26222
1.2967
1.31116
1.3057
1.28024
1.23492
1.17105
1.50376
1.06679
1.06545
1.12867
1.19476
1.24666
1.27975
1.2936
1.28819
1.26333
1.21912
1.15677
1.50951
1.06881
1.06099
1.11936
1.18198
1.23155
1.26328
1.27653
1.27115
1.2469
1.20383
1.14342
1.51477
1.07083
1.05667
1.11033
1.16956
1.21686
1.24726
1.25992
1.25458
1.23089
1.1888
1.12882
1.51956
1.07283
1.05249
1.10157
1.1575
1.2026
1.23168
1.24376
1.23844
1.21529
1.17406
1.1144
1.5239
1.0748
1.04845
1.09306
1.1458
1.18873
1.21653
1.22802
1.22272
1.20008
1.1597
1.10125
1.52779
1.07674
1.04454
1.0848
1.13442
1.17524
1.20178
1.21271
1.20741
1.18525
1.14568
1.08815
1.53125
1.0786
1.04077
1.07679
1.12337
1.16213
1.18743
1.19778
1.19248
1.17079
1.13203
1.07579
1.53428
1.08037
1.03714
1.06903
1.11262
1.14936
1.17345
1.18325
1.17793
1.15668
1.11869
1.06322
1.5369
1.08212
1.03363
1.06149
1.10217
1.13694
1.15984
1.16908
1.16374
1.14291
1.10571
1.05169
1.53911
1.08375
1.03025
1.05418
1.092
1.12485
1.14658
1.15527
1.1499
1.12948
1.09304
1.04004
1.54092
1.0853
1.02698
1.04708
1.08209
1.11308
1.13367
1.1418
1.13639
1.11637
1.08072
1.02908
1.54234
1.08679
1.02381
1.04018
1.07246
1.10162
1.12107
1.12866
1.12321
1.10357
1.06866
1.01789
1.54337
1.08822
1.02073
1.03347
1.0631
1.09046
1.10879
1.11584
1.11033
1.09106
1.0569
1.00738
1.54402
1.08964
1.01775
1.02695
1.05399
1.07958
1.09681
1.10332
1.09775
1.07883
1.04542
0.997129
1.5443
1.09098
1.01487
1.02061
1.04513
1.06898
1.08513
1.09109
1.08545
1.06687
1.03415
0.986506
1.54421
1.09231
1.01207
1.01445
1.03651
1.05865
1.07373
1.07916
1.07344
1.05518
1.02315
0.976691
1.54376
1.0936
1.00935
1.00845
1.02812
1.04859
1.06261
1.0675
1.06169
1.04375
1.01242
0.967221
1.54297
1.09484
1.00673
1.00262
1.01994
1.03877
1.05176
1.05611
1.0502
1.03257
1.00197
0.958182
1.54182
1.09602
1.00418
0.996949
1.01199
1.02921
1.04117
1.04499
1.03898
1.02164
0.991738
0.949018
1.54033
1.0972
1.00172
0.991434
1.00424
1.01988
1.03084
1.03412
1.028
1.01095
0.981748
0.940215
1.53851
1.09831
0.999352
0.986071
0.99669
1.01079
1.02075
1.02351
1.01727
1.00049
0.971899
0.930642
1.53635
1.09941
0.997062
0.980856
0.989339
1.00193
1.01091
1.01313
1.00677
0.990255
0.962256
0.921881
1.53386
1.10045
0.994861
0.975787
0.982178
0.993278
1.00129
1.00299
0.996507
0.980235
0.952848
0.913692
1.53106
1.10149
0.992742
0.97086
0.975199
0.984843
0.991906
0.993085
0.986464
0.970432
0.943673
0.905797
1.52793
1.10246
0.990708
0.966074
0.968403
0.976616
0.982741
0.983401
0.976643
0.960843
0.934692
0.897755
1.52449
1.10343
0.988754
0.961429
0.961785
0.968593
0.973795
0.973937
0.967037
0.951459
0.92591
0.889983
1.52073
1.10435
0.986898
0.956921
0.955341
0.96077
0.96506
0.964689
0.957643
0.942278
0.91729
0.882043
1.51666
1.10528
0.985118
0.952548
0.949066
0.953141
0.956532
0.955651
0.948455
0.933293
0.908846
0.874454
1.5123
1.10616
0.983427
0.948313
0.942958
0.945701
0.948207
0.946821
0.939466
0.924493
0.900554
0.866765
1.50762
1.10701
0.981827
0.944207
0.937014
0.938447
0.940079
0.938188
0.930673
0.915876
0.89243
0.85948
1.50263
1.10787
0.980321
0.940242
0.931232
0.931375
0.932143
0.929753
0.922076
0.907443
0.88447
0.852246
1.49737
1.10866
0.978909
0.936407
0.925607
0.92448
0.924397
0.921507
0.913662
0.899183
0.876682
0.845338
1.49181
1.10946
0.977581
0.932709
0.920141
0.917757
0.916835
0.913452
0.905435
0.891099
0.869041
0.838298
1.48595
1.11018
0.976342
0.92914
0.914829
0.911207
0.909453
0.905577
0.897385
0.88318
0.861551
0.831588
1.47981
1.11094
0.975194
0.925698
0.90967
0.904828
0.902252
0.897885
0.889511
0.875432
0.854228
0.825004
1.47336
1.11166
0.974174
0.922412
0.904672
0.898619
0.895228
0.890374
0.881813
0.867847
0.847047
0.818465
1.46663
1.11234
0.973213
0.919245
0.899817
0.892571
0.888374
0.883034
0.874281
0.860416
0.840006
0.812134
1.45964
1.11301
0.972361
0.916218
0.895117
0.886686
0.881691
0.875867
0.86692
0.853146
0.833098
0.805664
1.45237
1.11362
0.971601
0.913326
0.890572
0.880964
0.875177
0.868872
0.859725
0.846027
0.826313
0.799403
1.44479
1.1142
0.970934
0.910572
0.886177
0.875404
0.868829
0.862041
0.852692
0.839063
0.819658
0.793159
1.43695
1.1148
0.970389
0.907959
0.881935
0.870002
0.862645
0.855379
0.845821
0.832246
0.813133
0.787145
1.42883
1.11534
0.969943
0.905491
0.877844
0.864759
0.856625
0.848878
0.839109
0.825576
0.806724
0.781037
1.42042
1.11587
0.9696
0.903168
0.873907
0.859676
0.850765
0.842537
0.832547
0.819046
0.800447
0.775242
1.41175
1.11635
0.969349
0.900989
0.870127
0.854749
0.845063
0.836354
0.826137
0.81265
0.794296
0.769667
1.40281
1.11679
0.969198
0.89895
0.866497
0.84998
0.839524
0.830332
0.819884
0.806403
0.788285
0.764125
1.39358
1.11721
0.969171
0.897063
0.863029
0.845373
0.834145
0.82447
0.813785
0.8003
0.782394
0.758522
1.38408
1.11761
0.969254
0.89533
0.859719
0.840923
0.828922
0.818762
0.807834
0.794333
0.776624
0.753189
1.37432
1.11795
0.969446
0.893762
0.856568
0.836632
0.823858
0.813207
0.802032
0.788507
0.770972
0.74778
1.3643
1.11823
0.969737
0.892345
0.853582
0.832504
0.818952
0.807809
0.796376
0.78281
0.765435
0.742704
1.35399
1.11847
0.970142
0.891081
0.850767
0.82854
0.814208
0.802565
0.790869
0.777258
0.76003
0.73755
1.34341
1.11869
0.970663
0.889987
0.848117
0.824742
0.809625
0.797479
0.785511
0.771843
0.754743
0.732533
1.33255
1.11887
0.971317
0.889075
0.845646
0.821113
0.805202
0.792547
0.780302
0.76656
0.749545
0.727286
1.32142
1.11899
0.972061
0.888316
0.843344
0.817647
0.80094
0.787767
0.775233
0.761404
0.744491
0.722891
1.31001
1.11907
0.972922
0.887745
0.841232
0.814361
0.796844
0.783148
0.770324
0.756411
0.739612
0.718366
1.29836
1.11907
0.973918
0.887353
0.839302
0.811251
0.792917
0.778691
0.765564
0.751549
0.734853
0.714011
1.28641
1.11903
0.975021
0.887143
0.837562
0.808326
0.789163
0.774395
0.760956
0.74683
0.730227
0.709663
1.27419
1.11892
0.976245
0.887119
0.836023
0.805581
0.785581
0.770264
0.756501
0.742253
0.725729
0.705442
1.26172
1.11872
0.977576
0.887281
0.834675
0.80303
0.782176
0.766298
0.752205
0.73783
0.721362
0.701175
1.24896
1.11847
0.979056
0.88766
0.833544
0.800674
0.778955
0.762503
0.748065
0.733542
0.717106
0.697146
1.2359
1.11817
0.980647
0.888241
0.832628
0.798525
0.77592
0.758878
0.744086
0.729406
0.712989
0.693136
1.22259
1.11775
0.982369
0.889027
0.83194
0.796579
0.773078
0.755432
0.740271
0.72542
0.709007
0.689334
1.20899
1.11726
0.984214
0.890044
0.831483
0.794859
0.770435
0.752173
0.73663
0.721596
0.705169
0.685498
1.19511
1.11668
0.986182
0.891276
0.831261
0.793356
0.767995
0.749096
0.733154
0.717917
0.701453
0.681946
1.18092
1.11605
0.988279
0.892749
0.831297
0.79209
0.765767
0.746209
0.729852
0.714398
0.697895
0.678564
1.16645
1.11534
0.990508
0.894455
0.831588
0.791067
0.763764
0.74353
0.726742
0.711063
0.694507
0.675218
1.1517
1.11449
0.99286
0.896395
0.832152
0.790303
0.76199
0.741057
0.723823
0.707898
0.691275
0.672039
1.13667
1.11352
0.995354
0.898601
0.832991
0.789808
0.760452
0.738798
0.721094
0.704905
0.688204
0.66916
1.12134
1.11247
0.997969
0.901076
0.834133
0.789588
0.759167
0.736763
0.718569
0.70211
0.685327
0.666329
1.10571
1.11127
1.00072
0.903816
0.835576
0.789656
0.758148
0.734966
0.716254
0.699492
0.682597
0.663743
1.08977
1.10995
1.0036
0.906827
0.837346
0.790039
0.757406
0.73342
0.714166
0.697086
0.680068
0.66126
1.07352
1.10859
1.00661
0.91016
0.839455
0.790753
0.756962
0.732135
0.712313
0.694897
0.677734
0.658927
1.05696
1.10703
1.00979
0.913778
0.841926
0.791809
0.756834
0.731124
0.710706
0.692923
0.675582
0.656752
1.04007
1.10537
1.01309
0.917734
0.844786
0.793238
0.757036
0.730415
0.709366
0.69119
0.673652
0.654744
1.02286
1.1036
1.01654
0.922011
0.848032
0.795052
0.757592
0.730017
0.708304
0.689709
0.671958
0.653033
1.00535
1.10157
1.02012
0.926632
0.851703
0.797295
0.758526
0.729958
0.707547
0.688516
0.670559
0.651528
0.987502
1.09945
1.02384
0.931602
0.855818
0.799972
0.759869
0.730251
0.707102
0.687586
0.669341
0.649916
0.969309
1.09719
1.02771
0.936971
0.860412
0.803123
0.761635
0.730924
0.70698
0.686931
0.668354
0.648702
0.95079
1.09469
1.03172
0.942708
0.86549
0.806768
0.763863
0.732001
0.707216
0.686603
0.66769
0.647819
0.9319
1.09208
1.03589
0.948872
0.871103
0.810976
0.766592
0.733526
0.707843
0.686616
0.667298
0.647193
0.912663
1.08919
1.04024
0.955453
0.877287
0.81576
0.769877
0.735541
0.708908
0.687017
0.667286
0.646989
0.893056
1.0861
1.04471
0.96251
0.884089
0.821184
0.773752
0.738082
0.710436
0.68784
0.667671
0.647219
0.873095
1.08289
1.04933
0.970026
0.891538
0.827296
0.778283
0.741212
0.712471
0.689119
0.668488
0.647712
0.852749
1.0794
1.05413
0.978068
0.899678
0.834154
0.783507
0.744964
0.715052
0.690843
0.669609
0.648179
0.831999
1.07565
1.05912
0.986638
0.908581
0.841829
0.789508
0.7494
0.718232
0.693088
0.671203
0.649356
0.810857
1.0716
1.06428
0.995784
0.918302
0.850399
0.796369
0.75462
0.722102
0.695957
0.673414
0.651214
0.789314
1.06745
1.0696
1.00557
0.92891
0.859944
0.804194
0.760696
0.726714
0.699457
0.676107
0.65338
0.767329
1.0629
1.07517
1.01602
0.940504
0.870591
0.813069
0.767737
0.732168
0.70368
0.679463
0.656117
0.744902
1.05803
1.08096
1.02722
0.953173
0.882452
0.823142
0.775854
0.738563
0.708699
0.683463
0.659429
0.722026
1.05305
1.08702
1.03926
0.967085
0.895696
0.834582
0.785225
0.746051
0.714664
0.688313
0.663552
0.698643
1.04762
1.09345
1.05227
0.982381
0.910518
0.847564
0.796012
0.754775
0.721699
0.694066
0.668275
0.674747
1.04194
1.10033
1.06641
0.999301
0.927147
0.862339
0.808414
0.76489
0.729901
0.700816
0.674009
0.650259
1.03596
1.10781
1.08198
1.01812
0.94591
0.879168
0.822657
0.776586
0.739402
0.708606
0.680547
0.625155
1.02991
1.1163
1.09938
1.03933
0.96717
0.898407
0.839039
0.790099
0.750418
0.717715
0.688314
0.599287
1.02397
1.1264
1.11933
1.06349
0.991437
0.92044
0.857882
0.805656
0.7631
0.728142
0.6971
0.572526
1.01941
1.13941
1.14288
1.09135
1.01921
0.945609
0.879421
0.823494
0.777603
0.739998
0.706897
0.544673
1.0201
1.15884
1.17255
1.12431
1.05145
0.974711
0.904408
0.844171
0.794369
0.753512
0.717913
0.511829
1.02308
1.17779
1.20388
1.15722
1.08372
1.00403
0.930494
0.865747
0.812365
0.768077
0.730258
0.831114
0.00439835
0.246673
0.232749
0.232185
0.260476
0.253114
0.652729
0.633727
0.581657
0.426343
0.0067981
0.0256127
2.47081
0.209492
0.00350914
2.29961
0.0823725
0.0801924
0.00345614
0.108447
0.156915
0.106893
0.0220304
0.842257
0.246384
0.130072
0.265839
0.446175
0.624954
0.394325
1.14538
0.00401862
0.418993
0.0245331
0.111092
0.424459
0.34158
0.40358
0.00714169
0.0484917
0.00334213
0.0525187
0.354937
0.339177
0.152979
0.0465474
0.0187791
0.342474
0.108239
0.110406
0.640762
0.338449
0.00321469
1.57464
0.00419122
0.00834686
0.00334082
0.342255
0.200435
0.122466
1.16788
0.0032093
0.0132419
0.123936
0.00425785
0.637097
0.328403
1.52565
0.512596
1.48578
0.0416771
0.392688
0.529257
0.0224279
0.00330369
0.605289
0.00317672
0.0541581
0.258639
0.076473
0.00317938
0.454704
0.366448
0.0126797
0.859187
0.635558
0.00319533
0.284622
0.302654
0.355127
0.485972
0.00319869
0.00377237
0.52426
0.00329387
0.255858
0.00953495
0.00318262
0.654705
0.838692
0.131502
0.00333839
0.00409767
0.00317601
0.579077
0.496774
0.722245
0.38388
0.00448325
0.0820688
0.00317808
0.193515
0.00364679
0.0031867
0.210313
0.0160284
0.162244
0.840228
0.129479
0.757528
0.0228027
1.34754
0.130477
0.0997771
1.00222
0.00392829
1.91363
0.0223691
0.0032006
0.244098
0.00323635
0.271015
0.00411335
0.132691
0.00473677
0.294176
0.440873
0.198742
0.00518706
0.0138423
0.131891
0.330072
0.0227131
0.221243
1.50222
0.343367
0.00428939
0.757467
0.435701
0.0579301
0.204163
0.00318548
0.0859007
0.107406
0.0031889
0.245337
0.00326715
0.989742
0.00632529
0.0214233
0.00353606
0.0987523
0.0112831
0.110454
0.0618058
0.961868
0.360708
0.392431
0.00317703
1.49888
0.566662
1.57892
0.0146016
0.00317896
0.421809
0.00317596
0.374473
0.0949079
0.54131
0.984889
0.333339
0.0497501
0.408063
0.003384
0.259198
0.00323252
0.00317811
0.221985
0.0031889
0.357695
0.00319345
0.93402
0.00454721
0.282333
0.318534
0.269254
0.151549
0.00317846
2.58131
0.78462
0.368882
0.47902
0.209932
0.354154
0.0797033
0.0721124
0.168642
0.515124
0.163961
0.339676
0.690236
0.514529
0.464146
0.00317724
0.318037
0.0110597
0.303929
2.64198
0.277537
0.365955
0.78567
0.404804
0.00320247
0.00320874
1.01438
0.85889
0.00326244
3.55126
0.0225615
0.309703
0.0964253
0.00318349
0.693607
0.294808
0.290778
0.241751
0.831596
0.454527
0.326498
0.116977
0.115054
0.998222
1.32762
0.341574
0.331437
0.264827
0.00345005
1.10933
0.332125
0.482504
0.529119
0.275221
3.50077
0.320685
0.178781
0.133721
0.312729
0.425766
0.40553
0.163656
0.302211
0.0127233
0.0709356
0.672935
0.310413
0.713913
0.512223
0.251583
1.41769
0.203834
0.0387369
1.3086
0.225272
0.225168
1.35552
0.334125
0.270259
0.372508
0.261344
0.874199
0.328001
0.418587
0.359
0.453177
0.270201
0.344539
0.222138
0.881413
0.107977
0.25904
1.32347
0.235503
0.234152
0.343986
0.918596
0.0857213
0.224567
0.0503611
0.545192
0.169706
0.064843
1.23186
1.62688
0.106413
0.728906
0.394024
0.00319037
0.13751
0.122322
0.156391
0.348104
0.00319432
0.938619
0.3708
0.0491439
0.233364
0.581583
0.00317714
0.598845
0.0281291
0.426909
0.301629
4.34751
0.546912
0.578515
0.393269
0.00318073
0.00323603
0.343484
0.312011
0.00318863
0.379503
0.00318397
0.00323314
0.00326537
0.00317598
0.1046
0.0031822
0.00552771
0.758049
0.521148
0.00322889
0.336047
0.00788366
0.214149
0.292941
0.996491
3.4522
0.34331
0.003176
0.00327395
0.0629543
0.0930074
0.215927
0.00317916
0.0781441
0.388033
0.67467
0.274607
0.23313
0.343932
0.800079
3.39148
0.111563
0.235636
0.00363264
0.00318785
0.108489
0.158253
0.086073
0.225262
0.54813
2.69257
1.34384
0.115874
0.35382
0.784046
0.00321417
0.304624
0.534972
0.00492882
0.00323649
0.532331
3.3919
0.741594
0.00318766
0.0353009
0.130215
0.0194347
0.00325476
0.644996
0.277741
0.349934
0.342908
0.00371192
3.16091
0.00318827
0.175034
0.397844
0.0057482
0.00957618
0.704974
0.00762377
1.11958
0.731391
0.898444
0.485805
0.21071
0.714635
0.00317931
0.00319174
0.00318268
0.813358
0.0582674
1.24683
2.53742
0.151002
0.597025
0.0032353
0.00428046
0.308243
0.00317801
0.00319761
0.709509
0.00318464
0.171286
0.70464
0.428277
0.00317655
0.00657231
0.087572
0.0873383
0.248523
0.107185
0.00317658
2.77741
0.648274
0.0843939
0.0102135
0.398389
0.214111
0.00613836
0.290035
0.00591508
0.620922
0.00348971
0.247162
0.0937571
0.00317712
1.00246
0.250085
0.316011
0.00830588
0.343237
0.131007
0.00489867
0.231327
0.54802
0.261261
1.10778
0.0187091
0.0368245
0.00936599
1.04171
0.505878
0.0435726
0.110376
0.132359
0.328892
0.140283
0.567302
1.07388
0.00317848
1.6201
0.70608
0.223752
0.00317823
0.341205
0.71263
0.0100996
0.482063
0.390564
0.19024
0.100479
0.230189
0.263391
0.00355277
0.015208
0.677822
0.0298505
0.00424254
0.919663
3.40698
0.0299369
0.262436
0.597645
0.0570804
0.502008
0.326085
0.651705
0.321313
0.362978
0.00330558
0.0623484
0.514674
0.379847
1.05412
0.280317
1.10061
0.929198
3.12669
0.651812
0.226033
0.0031814
1.02588
0.222072
0.614458
0.296586
0.107781
0.0598811
0.303168
0.00331097
0.341723
0.00318378
0.455559
0.300832
0.227053
0.227953
0.977887
0.25058
0.767866
0.47463
1.57074
0.00327912
0.0881033
0.720329
2.1602
0.185321
0.53407
0.00354637
0.0218672
0.252445
1.46902
0.436148
0.00317788
0.0444315
0.00317584
0.0447668
0.411818
0.0296723
0.630494
0.114311
0.62983
0.113823
0.0884301
1.21573
0.699979
0.00319564
0.0031968
0.245183
0.956085
0.349499
0.442856
0.33716
0.497675
0.340147
0.00317629
0.125903
0.290279
0.00457956
0.824185
0.308016
0.232653
0.349518
0.00969069
0.00317669
0.0183597
0.00318534
0.480811
0.617769
0.746404
0.471834
0.00322182
1.17083
0.0663404
0.76331
0.10034
1.38594
0.0032685
0.117317
0.00318526
0.502955
0.700042
0.369033
0.300074
0.00317587
1.01828
0.615284
0.533772
0.003208
0.0373912
0.621025
0.453605
0.00539454
2.12068
0.00364162
0.57274
0.436727
0.00356154
0.106304
0.0670634
0.15151
0.00317771
0.00319904
0.890888
0.480512
0.350793
0.555028
0.00454403
0.107339
0.0768003
0.587972
0.208346
0.00385538
0.130463
1.18605
0.00317707
0.00697761
0.35741
0.792162
0.882183
0.00319637
0.721159
0.300894
1.03822
0.0207268
0.140523
0.82514
0.00321097
0.216988
0.110929
0.374028
0.275717
0.513119
0.183785
0.951874
0.931611
0.280473
2.49881
0.00324778
0.00318291
1.18632
0.601257
0.0044468
0.00317765
0.345673
0.00320662
0.636555
0.543673
0.182175
0.00320456
0.610586
0.0433266
0.363357
0.931868
0.299532
0.109849
0.107508
1.0656
0.003194
0.232618
0.756416
0.304089
0.408663
0.00600988
0.392224
0.194329
2.00424
0.00317818
0.110173
0.505024
0.304678
0.0033635
0.0751924
0.414098
0.50629
0.975945
0.0431625
1.49042
0.450598
0.0683692
0.413939
0.00317927
0.00632951
0.244705
0.00317725
0.229784
0.0031815
0.254949
0.00932768
0.650566
0.00331367
0.08704
0.55124
1.25332
0.250073
0.499714
0.117149
1.95691
0.0130723
0.07261
0.41984
0.00317858
0.00320591
0.389631
0.111476
0.25854
0.394174
0.00333332
0.224449
0.230287
0.216026
0.363024
0.900457
0.218152
0.00319724
1.85903
2.25277
0.529495
0.00323831
0.00863271
1.68185
0.350129
0.00318797
1.00099
0.00317917
0.0599086
2.21169
0.00348267
0.290111
0.0031771
0.0411078
0.76832
0.00324367
0.00389019
0.00318767
0.00374466
0.0178172
3.17525
0.61979
0.0690058
0.257665
0.00317917
0.557948
0.00318247
0.2123
0.174512
0.0166982
0.141592
0.0107009
0.885291
0.00324123
3.95258
0.140694
0.453295
0.312813
0.144241
0.00317644
0.249452
0.88488
0.1104
0.533446
0.68922
1.35309
0.350658
0.0327767
0.460884
0.0621236
0.0038853
0.0767931
2.28481
0.876652
0.0892093
0.00322566
0.368093
0.0036537
0.322464
0.671064
0.872446
0.616429
0.698943
0.029207
0.00556059
0.398161
0.305558
0.0386673
0.368278
0.00320257
0.268124
1.56173
0.0033119
1.34621
0.599081
0.0988211
0.0752572
1.15501
0.0194271
0.0735056
0.325732
0.225955
0.21427
0.00322309
0.501909
0.060904
0.270239
0.3852
0.216444
0.14658
0.00625556
0.477876
0.00318239
0.00318146
0.225723
0.0781238
0.105456
1.52336
0.00317666
0.877653
0.0503052
0.0419566
0.00348515
1.35615
0.253737
0.0679245
0.59526
0.0440298
1.14022
0.130257
0.00317891
1.19612
1.6773
0.00489813
0.00728022
0.221479
0.807305
0.0733577
1.32214
0.0267449
0.174403
0.0752622
0.115276
0.509499
0.2183
0.00318974
0.930176
0.42195
0.0111885
0.149324
3.59025
0.351135
0.00318314
0.00318446
0.574686
0.244436
0.784839
0.0031783
0.537975
0.215706
0.451946
0.00373488
0.309385
0.595262
0.00482552
0.332892
0.00322351
0.884282
0.262454
0.416724
0.316557
0.00318995
0.0031767
0.330662
1.09376
0.28059
0.553769
0.00317694
0.0365511
0.00325614
0.00557597
0.898157
0.0545103
0.0712187
0.0896208
0.416905
0.299841
0.360097
0.927732
0.00318357
0.375157
0.553697
0.317354
0.003194
0.714242
0.00323126
0.00318086
0.0646071
0.282788
0.0197305
1.22844
0.272362
2.25749
0.00328228
0.00467897
0.0266993
0.909833
0.219926
0.968729
0.00318895
0.00319562
0.00571126
0.00727877
0.835587
0.615366
0.666525
0.0982034
0.0333221
0.229752
0.153141
0.583046
0.274591
0.686949
0.311892
0.00317754
0.296974
0.00501923
0.137942
0.695207
0.243768
0.182184
0.0924547
0.00369985
1.04792
0.381707
0.325996
0.386349
0.00318574
0.602455
0.582115
0.323865
0.00659093
0.709272
0.534976
0.649983
0.310479
0.346261
0.619966
0.0928094
0.823342
0.15968
0.0700351
0.248041
0.00319329
0.95006
0.870688
0.00318836
0.50636
0.00450832
0.583696
0.219969
0.176547
0.341031
0.737299
0.687375
0.258393
0.0925278
0.211434
0.2123
0.00999035
0.00319285
0.801721
0.0480185
0.731114
0.562382
0.146013
0.646527
0.590336
0.00318101
0.344571
1.51249
1.04708
0.224155
0.27658
0.41923
1.50686
0.20748
0.174447
0.0196243
0.0618382
0.603573
0.925326
0.0840532
0.65218
0.618507
0.581757
0.257073
0.171523
0.304419
0.519752
0.00319292
1.55759
0.684835
0.128957
0.00319311
0.416345
0.33057
0.349053
0.00324184
0.594508
0.00318365
0.239147
0.0718096
0.00321079
0.620926
0.384222
0.00317629
0.53532
0.428771
0.449314
0.303793
0.605438
0.287556
0.485991
0.202195
0.104662
0.00319177
0.00439402
0.41606
0.158325
0.00991707
0.00330842
0.393297
0.00530976
0.0885891
0.0895012
0.323058
0.19813
0.0459626
0.0819627
0.658619
1.30584
0.399379
3.47762
0.676191
0.00317845
0.545028
0.433957
1.34082
0.00317954
0.153511
0.0031909
0.00352512
0.349953
0.209009
0.0296792
0.00340046
0.588833
3.27886
0.00644596
0.00319066
0.116262
0.187664
0.0173783
0.0546426
3.38723
0.0976132
0.0034027
0.00320085
0.756985
0.350719
0.0967278
0.0460152
0.660178
1.14022
0.428777
0.256845
0.501679
0.00318246
0.359685
0.00318424
0.243786
0.345789
4.61211
0.162679
0.0687342
0.00367573
0.937598
0.00319538
0.00318231
0.00521441
0.269912
0.358838
0.753626
0.00318144
0.365957
0.00319058
0.649995
0.753875
0.00320505
0.758355
0.168242
0.00318404
0.00331559
0.0213593
0.835759
0.278826
0.0207765
0.00319479
0.00319147
0.847053
0.690573
0.327402
0.567316
0.083665
0.442068
0.0031834
0.00907673
0.277998
0.808992
0.555588
0.00753381
0.00318336
0.460737
0.00326309
0.222215
0.814384
0.249938
0.0324461
0.215866
0.364916
0.117559
0.00318285
0.379494
1.03131
0.673184
0.00572443
0.0249241
0.516903
3.51928
0.0397961
0.272339
0.00317628
0.00318917
0.00321932
0.0154281
0.455846
0.829085
0.00384476
0.230425
0.468999
1.20891
0.204784
0.0157322
0.00679991
0.00659204
0.111741
0.207989
0.308035
0.0032235
1.04019
0.00318139
0.0115391
0.628472
0.654403
0.0264316
0.270958
0.341061
0.00394197
0.112077
0.151826
0.00317799
0.00374929
0.854343
0.00358872
0.00322473
0.846761
0.300593
2.06443
0.200268
2.12759
0.00360386
0.00320411
2.89953
0.349929
0.164239
0.385754
0.0447529
0.305961
0.149951
0.992221
0.624363
0.597963
0.587638
0.242343
0.0957337
0.39473
0.728701
0.012022
0.391349
0.00393437
0.455245
0.326716
0.0823474
0.276525
0.176105
0.308514
0.129825
0.318112
0.984853
0.522432
0.273122
0.373502
0.535738
0.228073
0.00399927
0.0031788
0.0884397
1.77181
0.00317841
1.42761
0.00319974
0.00814157
0.312004
0.236004
0.625863
0.737955
0.86867
0.880587
0.371007
0.457894
0.00319366
0.288861
0.824846
0.00323915
0.991971
0.0063502
1.6713
0.935444
1.1145
0.332639
0.225152
0.197887
0.0778899
0.341272
0.964196
0.41961
0.606128
0.151366
0.222492
0.0681126
0.241517
0.854077
0.00803582
0.483936
0.00319564
0.00380107
0.315854
1.19064
0.337364
0.323526
0.127346
0.0828945
0.0869246
0.00358248
0.344523
0.00357805
0.744768
0.00337428
0.0454066
0.936766
0.153581
0.222918
0.321293
0.286968
0.0054449
0.00322664
0.0722222
0.321493
0.0859941
0.546788
0.0323128
0.408367
0.157966
0.419909
0.767091
0.00353178
0.0031766
1.31833
0.173026
0.153969
0.61873
0.513917
0.617096
0.0080714
1.32836
0.388818
0.222026
0.00341702
0.149303
0.40575
0.224077
0.152326
0.272667
0.00329319
0.34395
0.00319271
0.59329
0.00913952
0.443823
0.0891236
0.290817
0.00324325
5.77237
0.00319423
1.1942
0.0173566
0.00319762
0.0109542
0.308305
0.00318171
0.00318513
0.273023
0.0218925
0.355638
0.0438452
0.0033623
0.285216
0.171752
0.498723
0.00331432
0.228694
0.182337
1.3414
0.531397
0.431545
0.550721
0.220856
0.220171
0.742339
0.809739
0.224667
0.00322411
0.108247
0.366047
0.357266
0.00455182
0.00746709
0.304524
1.55247
0.00318846
0.151948
0.978884
0.00317885
0.660142
0.734687
0.336069
0.633742
0.609091
0.297014
0.0992474
2.10255
0.296726
0.643796
0.635038
0.255699
0.0782515
0.00318036
0.465746
0.00541394
0.00321788
0.00318575
0.350565
0.00317953
0.00375453
0.392248
3.7126
0.308545
0.132038
0.645042
0.254167
0.00320873
0.199037
1.14273
0.020127
0.141172
0.776767
0.368629
0.090277
0.0238606
0.00317843
0.00318646
0.0216997
0.0321239
0.376316
0.370585
0.957016
0.325559
0.29513
0.00383379
0.469624
0.270835
0.00321197
0.346279
2.80746
0.00325358
0.260419
1.00853
0.553169
0.693854
0.138453
0.83526
0.00350155
0.153095
0.00331047
0.00584169
0.00320978
0.624005
0.417716
0.0553992
0.00319427
0.00317738
1.12063
0.388976
0.210883
0.306301
0.255761
0.450644
0.305049
0.29914
0.417459
0.00318431
0.114159
0.0889608
0.100971
0.38211
0.830081
0.568356
0.647351
0.42879
0.881812
0.840534
0.697961
0.487005
0.663295
0.0484426
0.635937
0.433225
0.0199002
0.978665
0.662561
0.324196
0.0032073
0.00320087
0.00353602
0.00428409
0.538352
0.00317736
0.529293
0.197633
0.987056
0.572961
0.00319348
0.344509
0.339957
0.211181
0.274684
0.398102
0.406428
0.00328132
0.00320004
0.00748358
0.0748449
0.00318671
0.673174
0.282101
0.155407
0.567157
0.375584
0.495156
0.562845
0.00318023
0.319059
0.499574
0.00370665
0.0606646
0.475128
0.315036
0.384442
0.185061
0.0032515
0.489728
0.429719
0.00371868
0.0163403
0.00318127
0.216403
0.00417601
0.0998743
1.02098
0.098925
0.0560319
0.784275
1.78793
0.00326366
0.452478
0.00318033
0.222158
0.373562
0.319165
0.329539
0.690778
0.506117
0.777398
0.962763
0.554818
0.003184
0.00317685
0.0411215
0.0804917
0.468217
0.162229
0.00323681
1.26626
0.183936
0.00735995
0.595567
0.0436862
0.00690882
0.0289254
0.786318
0.00566263
0.00320702
0.330832
0.224875
0.475608
0.0627723
0.259754
0.193193
0.00324212
0.289461
0.0700496
0.0459191
0.00338437
0.271097
0.382052
0.159769
1.15317
1.03323
0.361103
0.31482
0.00318007
0.416292
0.00326114
2.23683
0.00830129
0.433846
0.0735265
0.650825
0.0118947
0.00819131
0.156181
0.224565
1.23058
0.00361082
0.153722
0.529057
0.663214
0.170736
0.992565
0.0949244
0.0034102
0.00320542
0.463562
0.471777
0.952129
0.210823
0.0619305
0.557621
0.380379
0.616658
0.0345921
0.00319046
0.00318732
0.093312
0.690494
0.513238
0.723582
0.00356763
0.00937931
0.109879
0.520944
0.339821
0.577509
0.404053
0.686628
0.00319947
0.00324794
0.906924
0.281069
0.692211
2.55964
0.423935
0.0202311
1.12254
0.00324227
1.01104
0.0196652
0.0216465
0.00318731
0.0297461
0.0621559
0.648428
0.610646
0.00322673
0.766156
0.00320867
0.654949
1.23512
0.00317678
0.109945
0.00322649
0.332872
0.099913
0.155646
0.00318217
0.294532
0.223214
0.264016
0.775994
0.110801
0.939711
0.14061
0.611666
0.293521
0.875928
0.463627
0.0037319
0.00323471
0.419319
0.138474
0.590971
0.00318394
1.70307
0.00317792
0.00461205
0.0175532
0.00319908
0.998161
0.721809