/*--------------------------------*- C++ -*----------------------------------*\
| =========                 |                                                 |
| \\      /  F ield         | OpenFOAM: The Open Source CFD Toolbox           |
|  \\    /   O peration     | Version:  2.3.1                                 |
|   \\  /    A nd           | Web:      www.OpenFOAM.org                      |
|    \\/     M anipulation  |                                                 |
\*---------------------------------------------------------------------------*/
FoamFile
{
    version     2.0;
    format      ascii;
    class       surfaceScalarField;
    location    "0.1";
    object      phi;
}
// * * * * * * * * * * * * * * * * * * * * * * * * * * * * * * * * * * * * * //

dimensions      [0 3 -1 0 0 0 0];

internalField   nonuniform List<scalar> 
23326
(
-1.28141e-05
0.000114833
-0.000102019
-2.19044e-05
0.000129742
-0.000120651
-2.75822e-05
0.000143396
-0.000137718
-3.12563e-05
0.000158239
-0.000154565
-3.43766e-05
0.000170123
-0.000167002
-3.65903e-05
0.000181669
-0.000179456
-3.81292e-05
0.000191508
-0.000189969
-3.8951e-05
0.000199458
-0.000198637
-3.94081e-05
0.000205376
-0.000204919
-3.95395e-05
0.000209877
-0.000209746
-3.95403e-05
0.000213198
-0.000213197
0.000215576
-3.94721e-05
-0.000215645
-7.09023e-06
0.000121923
-1.39682e-05
0.00013662
-2.00965e-05
0.000149524
-2.46586e-05
0.000162801
-2.83824e-05
0.000173846
-3.11429e-05
0.00018443
-3.30968e-05
0.000193462
-3.4416e-05
0.000200778
-3.52762e-05
0.000206236
-3.5813e-05
0.000210414
-3.61206e-05
0.000213506
0.000215749
-3.62939e-05
-5.70844e-06
0.000127632
-1.10802e-05
0.000141991
-1.61621e-05
0.000154606
-2.03417e-05
0.000166981
-2.39421e-05
0.000177447
-2.67694e-05
0.000187257
-2.88906e-05
0.000195583
-3.0425e-05
0.000202312
-3.15688e-05
0.00020738
-3.23846e-05
0.00021123
-3.29437e-05
0.000214065
0.000216205
-3.33997e-05
-4.80112e-06
0.000132433
-9.42873e-06
0.000146619
-1.37744e-05
0.000158952
-1.74516e-05
0.000170658
-2.07074e-05
0.000180703
-2.3369e-05
0.000189919
-2.55015e-05
0.000197716
-2.71204e-05
0.000203931
-2.83718e-05
0.000208631
-2.93588e-05
0.000212217
-3.01173e-05
0.000214823
0.000216852
-3.07634e-05
-3.92032e-06
0.000136353
-8.00569e-06
0.000150704
-1.18662e-05
0.000162812
-1.5195e-05
0.000173987
-1.81458e-05
0.000183654
-2.06566e-05
0.000192429
-2.26846e-05
0.000199744
-2.4305e-05
0.000205551
-2.56414e-05
0.000209968
-2.66695e-05
0.000213245
-2.75679e-05
0.000215722
0.000217585
-2.83016e-05
-3.25387e-06
0.000139607
-6.85638e-06
0.000154307
-1.03006e-05
0.000166257
-1.33301e-05
0.000177016
-1.60775e-05
0.000186401
-1.83757e-05
0.000194728
-2.03103e-05
0.000201679
-2.19253e-05
0.000207166
-2.3225e-05
0.000211268
-2.43289e-05
0.000214349
-2.52652e-05
0.000216658
0.000218403
-2.60829e-05
-2.79207e-06
0.000142399
-5.98814e-06
0.000157503
-9.06968e-06
0.000169338
-1.18426e-05
0.000179789
-1.43207e-05
0.000188879
-1.64853e-05
0.000196892
-1.83163e-05
0.00020351
-1.98408e-05
0.000208691
-2.1153e-05
0.00021258
-2.22785e-05
0.000215474
-2.32706e-05
0.00021765
0.000219293
-2.41609e-05
-2.44779e-06
0.000144847
-5.31686e-06
0.000160372
-8.08834e-06
0.00017211
-1.05799e-05
0.000182281
-1.28723e-05
0.000191171
-1.48811e-05
0.000198901
-1.66104e-05
0.000205239
-1.80642e-05
0.000210144
-1.93545e-05
0.00021387
-2.04836e-05
0.000216603
-2.14714e-05
0.000218638
0.00022018
-2.23583e-05
-2.17419e-06
0.000147021
-4.77589e-06
0.000162974
-7.28931e-06
0.000174623
-9.59014e-06
0.000184582
-1.16803e-05
0.000193262
-1.35183e-05
0.000200739
-1.51412e-05
0.000206862
-1.65641e-05
0.000211567
-1.77881e-05
0.000215094
-1.88811e-05
0.000217696
-1.98652e-05
0.000219622
0.000221128
-2.0813e-05
-1.9436e-06
0.000148965
-4.31122e-06
0.000165341
-6.61084e-06
0.000176923
-8.71888e-06
0.00018669
-1.06675e-05
0.00019521
-1.23798e-05
0.000202451
-1.38812e-05
0.000208363
-1.5204e-05
0.00021289
-1.64099e-05
0.0002163
-1.74798e-05
0.000218766
-1.84574e-05
0.000220599
0.000222019
-1.93482e-05
-1.75227e-06
0.000150717
-3.92795e-06
0.000167517
-6.03682e-06
0.000179031
-7.98424e-06
0.000188637
-9.7717e-06
0.000196998
-1.13642e-05
0.000204044
-1.27793e-05
0.000209778
-1.40366e-05
0.000214147
-1.51749e-05
0.000217438
-1.62125e-05
0.000219804
-1.72044e-05
0.000221591
0.000222888
-1.8073e-05
-1.58374e-06
0.000152301
-3.58259e-06
0.000169516
-5.52674e-06
0.000180976
-7.35791e-06
0.000190468
-8.99311e-06
0.000198633
-1.04849e-05
0.000205536
-1.18136e-05
0.000211107
-1.30077e-05
0.000215341
-1.4095e-05
0.000218526
-1.50992e-05
0.000220808
-1.59978e-05
0.00022249
0.000223759
-1.68691e-05
-1.44208e-06
0.000153743
-3.28489e-06
0.000171359
-5.09523e-06
0.000182786
-6.78108e-06
0.000192154
-8.33239e-06
0.000200184
-9.72725e-06
0.00020693
-1.09552e-05
0.000212335
-1.20926e-05
0.000216479
-1.31093e-05
0.000219542
-1.4066e-05
0.000221765
-1.49488e-05
0.000223373
0.000224519
-1.57091e-05
-1.32003e-06
0.000155063
-3.04827e-06
0.000173087
-4.71852e-06
0.000184456
-6.276e-06
0.000193712
-7.72468e-06
0.000201633
-9.01072e-06
0.000208216
-1.01988e-05
0.000213523
-1.12534e-05
0.000217534
-1.22533e-05
0.000220542
-1.3198e-05
0.00022271
-1.40787e-05
0.000224253
0.000225417
-1.49761e-05
-1.20709e-06
0.00015627
-2.80029e-06
0.00017468
-4.3846e-06
0.000186041
-5.84467e-06
0.000195172
-7.18114e-06
0.000202969
-8.41659e-06
0.000209452
-9.51349e-06
0.00021462
-1.05469e-05
0.000218567
-1.14523e-05
0.000221447
-1.2323e-05
0.00022358
-1.31603e-05
0.000225091
0.000226165
-1.39089e-05
-1.10894e-06
0.000157379
-2.60023e-06
0.000176171
-4.06901e-06
0.000187509
-5.43437e-06
0.000196537
-6.69412e-06
0.000204229
-7.83538e-06
0.000210593
-8.87706e-06
0.000215662
-9.82882e-06
0.000219519
-1.07498e-05
0.000222368
-1.16164e-05
0.000224447
-1.2412e-05
0.000225886
0.000226901
-1.31484e-05
-1.02157e-06
0.0001584
-2.40077e-06
0.000177551
-3.77579e-06
0.000188884
-5.06804e-06
0.000197829
-6.25203e-06
0.000205413
-7.3305e-06
0.000211672
-8.31571e-06
0.000216647
-9.25592e-06
0.000220459
-1.01067e-05
0.000223219
-1.08926e-05
0.000225233
-1.1662e-05
0.000226656
0.000227634
-1.23946e-05
-9.30523e-07
0.000159331
-2.23401e-06
0.000178854
-3.53693e-06
0.000190187
-4.75439e-06
0.000199047
-5.87322e-06
0.000206532
-6.89805e-06
0.000212696
-7.83114e-06
0.00021758
-8.64726e-06
0.000221275
-9.468e-06
0.00022404
-1.02453e-05
0.00022601
-1.09876e-05
0.000227398
0.000228344
-1.16975e-05
-8.6203e-07
0.000160193
-2.08765e-06
0.00018008
-3.29283e-06
0.000191392
-4.44383e-06
0.000200198
-5.47739e-06
0.000207565
-6.44535e-06
0.000213664
-7.31254e-06
0.000218447
-8.16776e-06
0.00022213
-8.92338e-06
0.000224796
-9.66867e-06
0.000226755
-1.0358e-05
0.000228088
0.000229031
-1.10455e-05
-7.99697e-07
0.000160993
-1.93174e-06
0.000181212
-3.09356e-06
0.000192554
-4.16021e-06
0.000201264
-5.1665e-06
0.000208572
-6.06047e-06
0.000214558
-6.90809e-06
0.000219295
-7.67298e-06
0.000222895
-8.42165e-06
0.000225544
-9.08119e-06
0.000227415
-9.76225e-06
0.000228769
0.000229654
-1.03845e-05
-7.43071e-07
0.000161736
-1.80842e-06
0.000182277
-2.8865e-06
0.000193632
-3.90011e-06
0.000202278
-4.82431e-06
0.000209496
-5.69847e-06
0.000215433
-6.48023e-06
0.000220076
-7.21307e-06
0.000223628
-7.90363e-06
0.000226235
-8.58904e-06
0.0002281
-9.21525e-06
0.000229395
0.000230273
-9.83501e-06
-6.65803e-07
0.000162402
-1.67176e-06
0.000183283
-2.69659e-06
0.000194657
-3.67708e-06
0.000203259
-4.55785e-06
0.000210377
-5.34205e-06
0.000216217
-6.08738e-06
0.000220822
-6.78564e-06
0.000224326
-7.47652e-06
0.000226926
-8.11472e-06
0.000228739
-8.73636e-06
0.000230016
0.000230862
-9.32495e-06
-6.24308e-07
0.000163026
-1.57046e-06
0.000184229
-2.53995e-06
0.000195627
-3.42642e-06
0.000204145
-4.26585e-06
0.000211216
-5.03115e-06
0.000216982
-5.74553e-06
0.000221536
-6.41124e-06
0.000224992
-7.04827e-06
0.000227563
-7.66316e-06
0.000229353
-8.25022e-06
0.000230603
0.000231433
-8.8212e-06
-5.63142e-07
0.000163589
-1.45381e-06
0.00018512
-2.37321e-06
0.000196546
-3.21455e-06
0.000204986
-4.01031e-06
0.000212012
-4.74239e-06
0.000217714
-5.42176e-06
0.000222215
-6.06166e-06
0.000225632
-6.64804e-06
0.000228149
-7.20662e-06
0.000229912
-7.78204e-06
0.000231179
0.00023199
-8.33849e-06
-5.18505e-07
0.000164107
-1.34084e-06
0.000185942
-2.21492e-06
0.00019742
-3.03936e-06
0.000205811
-3.77209e-06
0.000212745
-4.47016e-06
0.000218412
-5.09249e-06
0.000222838
-5.6807e-06
0.00022622
-6.26428e-06
0.000228733
-6.83337e-06
0.000230481
-7.35356e-06
0.000231699
0.000232533
-7.89673e-06
-4.86709e-07
0.000164594
-1.25933e-06
0.000186715
-2.06689e-06
0.000198228
-2.85211e-06
0.000206596
-3.54919e-06
0.000213442
-4.18897e-06
0.000219052
-4.78244e-06
0.000223431
-5.36661e-06
0.000226804
-5.90474e-06
0.000229271
-6.42059e-06
0.000230997
-6.95864e-06
0.000232237
0.00023303
-7.45555e-06
-4.29445e-07
0.000165024
-1.15797e-06
0.000187443
-1.92428e-06
0.000198994
-2.647e-06
0.000207319
-3.33559e-06
0.00021413
-3.94498e-06
0.000219661
-4.51133e-06
0.000223998
-5.04611e-06
0.000227339
-5.55812e-06
0.000229783
-6.08015e-06
0.000231519
-6.53061e-06
0.000232688
0.000233499
-6.99997e-06
-3.79171e-07
0.000165403
-1.0889e-06
0.000188153
-1.81463e-06
0.00019972
-2.48018e-06
0.000207984
-3.1088e-06
0.000214759
-3.69158e-06
0.000220244
-4.25635e-06
0.000224562
-4.7405e-06
0.000227823
-5.23129e-06
0.000230274
-5.70783e-06
0.000231996
-6.20066e-06
0.00023318
0.000233921
-6.62261e-06
-3.52099e-07
0.000165755
-9.95034e-07
0.000188796
-1.66432e-06
0.000200389
-2.34176e-06
0.000208662
-2.91953e-06
0.000215337
-3.47061e-06
0.000220795
-3.95965e-06
0.000225051
-4.47843e-06
0.000228342
-4.91952e-06
0.000230715
-5.38072e-06
0.000232457
-5.80326e-06
0.000233603
0.000234398
-6.28019e-06
-2.98313e-07
0.000166053
-8.87441e-07
0.000189385
-1.56546e-06
0.000201067
-2.16376e-06
0.00020926
-2.73623e-06
0.000215909
-3.23727e-06
0.000221296
-3.7298e-06
0.000225544
-4.16809e-06
0.00022878
-4.62132e-06
0.000231168
-5.03068e-06
0.000232866
-5.4886e-06
0.000234061
0.000234795
-5.88592e-06
-2.7575e-07
0.000166329
-8.48377e-07
0.000189958
-1.42393e-06
0.000201643
-2.01717e-06
0.000209853
-2.5344e-06
0.000216426
-3.03705e-06
0.000221799
-3.48206e-06
0.000225989
-3.92915e-06
0.000229227
-4.33117e-06
0.00023157
-4.75291e-06
0.000233288
-5.1141e-06
0.000234422
0.000235202
-5.5207e-06
-2.42184e-07
0.000166571
-7.4882e-07
0.000190464
-1.338e-06
0.000202232
-1.8512e-06
0.000210366
-2.36986e-06
0.000216945
-2.82195e-06
0.000222251
-3.2681e-06
0.000226435
-3.6403e-06
0.000229599
-4.05546e-06
0.000231985
-4.43099e-06
0.000233663
-4.82313e-06
0.000234814
0.000235531
-5.15207e-06
-2.1395e-07
0.000166785
-6.71006e-07
0.000190922
-1.20548e-06
0.000202766
-1.74143e-06
0.000210902
-2.20915e-06
0.000217413
-2.63842e-06
0.00022268
-3.01142e-06
0.000226808
-3.41959e-06
0.000230008
-3.78601e-06
0.000232351
-4.14706e-06
0.000234024
-4.50433e-06
0.000235171
0.000235883
-4.85671e-06
-1.54441e-07
0.00016694
-6.21258e-07
0.000191388
-1.12691e-06
0.000203272
-1.58598e-06
0.000211361
-2.02915e-06
0.000217856
-2.43599e-06
0.000223087
-2.81597e-06
0.000227188
-3.17638e-06
0.000230368
-3.52745e-06
0.000232703
-3.84386e-06
0.000234341
-4.18311e-06
0.000235511
0.000236247
-4.5465e-06
-1.64334e-07
0.000167104
-5.51213e-07
0.000191775
-1.00263e-06
0.000203723
-1.48611e-06
0.000211845
-1.87836e-06
0.000218248
-2.23703e-06
0.000223446
-2.59707e-06
0.000227548
-2.94211e-06
0.000230713
-3.24578e-06
0.000233006
-3.57363e-06
0.000234669
-3.90029e-06
0.000235837
0.000236544
-4.19752e-06
-1.01004e-07
0.000167205
-4.83377e-07
0.000192158
-9.30567e-07
0.000204171
-1.31247e-06
0.000212227
-1.70923e-06
0.000218645
-2.07358e-06
0.00022381
-2.41265e-06
0.000227887
-2.70971e-06
0.00023101
-2.99653e-06
0.000233293
-3.30385e-06
0.000234976
-3.57362e-06
0.000236107
0.000236844
-3.87419e-06
-8.48779e-08
0.00016729
-4.13603e-07
0.000192486
-8.12333e-07
0.000204569
-1.21996e-06
0.000212634
-1.56898e-06
0.000218994
-1.88637e-06
0.000224127
-2.18065e-06
0.000228181
-2.45834e-06
0.000231288
-2.75771e-06
0.000233592
-3.04852e-06
0.000235267
-3.30773e-06
0.000236366
0.000237087
-3.55079e-06
-5.59478e-08
0.000167346
-3.5267e-07
0.000192783
-7.21453e-07
0.000204938
-1.08093e-06
0.000212994
-1.40835e-06
0.000219321
-1.73181e-06
0.000224451
-2.00989e-06
0.00022846
-2.27317e-06
0.000231551
-2.52745e-06
0.000233847
-2.77966e-06
0.000235519
-3.02959e-06
0.000236616
0.000237332
-3.27458e-06
-1.89024e-08
0.000167365
-2.89253e-07
0.000193053
-6.34454e-07
0.000205283
-9.71018e-07
0.000213331
-1.27793e-06
0.000219628
-1.53001e-06
0.000224703
-1.81568e-06
0.000228745
-2.06359e-06
0.000231799
-2.30602e-06
0.000234089
-2.52084e-06
0.000235734
-2.77811e-06
0.000236874
0.000237621
-3.06622e-06
6.62468e-09
0.000167358
-2.32429e-07
0.000193292
-5.51294e-07
0.000205602
-8.63913e-07
0.000213643
-1.15069e-06
0.000219915
-1.41142e-06
0.000224964
-1.62627e-06
0.00022896
-1.82963e-06
0.000232002
-2.05355e-06
0.000234313
-2.27147e-06
0.000235952
-2.47035e-06
0.000237072
0.000237798
-2.64821e-06
1.54978e-08
0.000167342
-1.76687e-07
0.000193485
-4.68525e-07
0.000205894
-7.33761e-07
0.000213908
-1.00012e-06
0.000220181
-1.21421e-06
0.000225178
-1.43914e-06
0.000229185
-1.65417e-06
0.000232217
-1.83686e-06
0.000234496
-2.04895e-06
0.000236164
-2.24079e-06
0.000237264
0.000238022
-2.46424e-06
4.68259e-08
0.000167296
-1.15036e-07
0.000193647
-3.58645e-07
0.000206138
-6.30443e-07
0.00021418
-8.50693e-07
0.000220402
-1.07609e-06
0.000225403
-1.25638e-06
0.000229365
-1.42746e-06
0.000232388
-1.62427e-06
0.000234693
-1.78962e-06
0.000236329
-1.98236e-06
0.000237457
0.000238187
-2.14706e-06
6.9761e-08
0.000167226
-8.42388e-08
0.000193801
-3.06465e-07
0.00020636
-5.29416e-07
0.000214403
-7.31884e-07
0.000220604
-9.11427e-07
0.000225583
-1.07656e-06
0.00022953
-1.2613e-06
0.000232573
-1.41384e-06
0.000234845
-1.56672e-06
0.000236482
-1.72255e-06
0.000237613
0.000238345
-1.88078e-06
1.02458e-07
0.000167123
-4.48884e-09
0.000193907
-2.01062e-07
0.000206556
-4.03059e-07
0.000214605
-5.87504e-07
0.000220789
-7.50257e-07
0.000225746
-8.9951e-07
0.00022968
-1.04121e-06
0.000232715
-1.18013e-06
0.000234984
-1.31874e-06
0.000236621
-1.45533e-06
0.000237749
0.000238478
-1.58865e-06
1.25612e-07
0.000166998
4.78724e-08
0.000193985
-1.19462e-07
0.000206724
-3.04172e-07
0.00021479
-4.72068e-07
0.000220956
-5.92638e-07
0.000225866
-7.25934e-07
0.000229813
-8.52976e-07
0.000232842
-9.78212e-07
0.000235109
-1.10454e-06
0.000236747
-1.23693e-06
0.000237882
0.000238624
-1.38317e-06
1.30541e-07
0.000166867
9.71149e-08
0.000194019
-4.77113e-08
0.000206869
-1.85114e-07
0.000214927
-3.34007e-07
0.000221105
-4.64303e-07
0.000225996
-5.82718e-07
0.000229931
-6.67093e-07
0.000232926
-7.77343e-07
0.00023522
-8.59714e-07
0.00023683
-9.6569e-07
0.000237988
0.000238691
-1.03203e-06
1.77466e-07
0.00016669
1.44596e-07
0.000194051
4.82272e-08
0.000206965
-9.5068e-08
0.000215071
-1.99123e-07
0.000221209
-3.11729e-07
0.000226109
-3.86812e-07
0.000230006
-4.84582e-07
0.000233024
-5.53726e-07
0.000235289
-6.53792e-07
0.00023693
-7.33545e-07
0.000238068
0.000238815
-8.57313e-07
1.84492e-07
0.000166505
1.9435e-07
0.000194042
9.58953e-08
0.000207063
-8.80323e-09
0.000215175
-9.17213e-08
0.000221292
-1.60807e-07
0.000226178
-2.48806e-07
0.000230094
-3.04493e-07
0.00023308
-3.60027e-07
0.000235344
-4.17065e-07
0.000236987
-5.02052e-07
0.000238153
0.000238862
-5.49942e-07
2.08102e-07
0.000166297
2.16564e-07
0.000194033
1.86591e-07
0.000207093
1.10889e-07
0.000215251
1.98172e-08
0.000221383
-3.81378e-08
0.000226236
-5.67329e-08
0.000230113
-1.26708e-07
0.00023315
-1.68936e-07
0.000235386
-2.14458e-07
0.000237032
-2.67195e-07
0.000238205
0.000238931
-3.35679e-07
2.32316e-07
0.000166065
2.91549e-07
0.000193974
2.5631e-07
0.000207129
1.97012e-07
0.00021531
1.72171e-07
0.000221408
1.0706e-07
0.000226301
7.68425e-08
0.000230143
7.70112e-08
0.00023315
4.85593e-08
0.000235415
-1.04959e-08
0.000237091
-1.20875e-08
0.000238207
0.00023895
-3.14543e-08
2.3786e-07
0.000165827
3.39099e-07
0.000193873
3.23893e-07
0.000207144
2.83373e-07
0.000215351
2.48954e-07
0.000221443
2.52121e-07
0.000226298
2.35731e-07
0.00023016
2.2141e-07
0.000233164
2.33455e-07
0.000235403
2.41298e-07
0.000237083
2.14246e-07
0.000238234
0.00023898
1.84837e-07
2.82293e-07
0.000165545
3.85383e-07
0.00019377
4.15802e-07
0.000207113
3.95187e-07
0.000215371
4.0376e-07
0.000221434
3.95668e-07
0.000226306
4.2133e-07
0.000230134
4.20028e-07
0.000233165
4.14859e-07
0.000235408
4.02656e-07
0.000237096
4.05345e-07
0.000238231
0.000239034
3.51262e-07
2.83961e-07
0.000165261
4.31478e-07
0.000193622
4.57994e-07
0.000207087
4.80461e-07
0.000215349
5.05306e-07
0.000221409
5.39426e-07
0.000226272
5.51344e-07
0.000230122
5.91983e-07
0.000233125
6.01482e-07
0.000235398
6.35076e-07
0.000237062
6.66727e-07
0.0002382
0.000238997
7.03181e-07
3.12311e-07
0.000164949
4.79471e-07
0.000193455
5.49883e-07
0.000207016
5.91197e-07
0.000215308
6.05369e-07
0.000221395
6.54655e-07
0.000226223
7.09053e-07
0.000230068
7.64078e-07
0.00023307
8.15491e-07
0.000235347
8.62441e-07
0.000237015
8.73858e-07
0.000238188
0.000238973
8.98502e-07
3.3471e-07
0.000164614
5.2453e-07
0.000193265
6.16955e-07
0.000206924
6.75389e-07
0.000215249
7.32751e-07
0.000221338
7.97427e-07
0.000226158
8.66191e-07
0.000229999
9.34072e-07
0.000233002
9.99371e-07
0.000235282
1.05776e-06
0.000236957
1.11216e-06
0.000238134
0.000238915
1.16954e-06
3.59168e-07
0.000164255
5.71179e-07
0.000193053
6.82695e-07
0.000206812
7.59603e-07
0.000215172
8.59819e-07
0.000221237
9.38638e-07
0.000226079
1.02138e-06
0.000229916
1.10292e-06
0.00023292
1.20703e-06
0.000235178
1.27597e-06
0.000236888
1.3344e-06
0.000238075
0.000238872
1.37753e-06
3.60903e-07
0.000163894
6.15959e-07
0.000192798
7.48586e-07
0.00020668
8.69663e-07
0.000215051
9.58739e-07
0.000221148
1.05291e-06
0.000225985
1.17721e-06
0.000229792
1.30003e-06
0.000232797
1.36113e-06
0.000235117
1.4714e-06
0.000236777
1.54854e-06
0.000237998
0.000238758
1.66267e-06
4.07055e-07
0.000163487
6.61286e-07
0.000192544
8.39551e-07
0.000206502
9.5335e-07
0.000214937
1.05956e-06
0.000221042
1.22323e-06
0.000225821
1.33431e-06
0.000229681
1.44157e-06
0.00023269
1.57138e-06
0.000234987
1.6624e-06
0.000236686
1.78852e-06
0.000237872
0.000238736
1.8104e-06
4.09743e-07
0.000163077
7.08933e-07
0.000192245
9.07001e-07
0.000206303
1.06351e-06
0.000214781
1.21291e-06
0.000220893
1.31072e-06
0.000225723
1.46267e-06
0.000229529
1.6146e-06
0.000232538
1.75893e-06
0.000234842
1.89935e-06
0.000236546
2.01421e-06
0.000237757
0.000238581
2.16992e-06
4.34236e-07
0.000162643
7.31201e-07
0.000191948
9.48195e-07
0.000206087
1.12277e-06
0.000214606
1.28772e-06
0.000220728
1.48162e-06
0.00022553
1.64965e-06
0.000229361
1.81397e-06
0.000232374
1.97505e-06
0.000234681
2.12517e-06
0.000236396
2.26388e-06
0.000237619
0.000238454
2.39057e-06
4.44953e-07
0.000162198
8.03351e-07
0.000191589
1.0411e-06
0.000205849
1.23396e-06
0.000214413
1.41678e-06
0.000220545
1.5971e-06
0.000225349
1.77872e-06
0.000229179
1.95704e-06
0.000232195
2.15562e-06
0.000234483
2.31903e-06
0.000236233
2.47424e-06
0.000237463
0.000238297
2.63138e-06
4.8657e-07
0.000161711
8.49576e-07
0.000191226
1.109e-06
0.000205589
1.34599e-06
0.000214176
1.54236e-06
0.000220349
1.73893e-06
0.000225153
1.96192e-06
0.000228956
2.153e-06
0.000232004
2.30803e-06
0.000234328
2.50881e-06
0.000236032
2.66453e-06
0.000237308
0.000238139
2.82189e-06
4.91074e-07
0.00016122
8.96622e-07
0.000190821
1.17456e-06
0.000205311
1.40418e-06
0.000213947
1.64417e-06
0.000220109
1.88241e-06
0.000224914
2.09007e-06
0.000228748
2.32204e-06
0.000231772
2.54605e-06
0.000234104
2.70437e-06
0.000235873
2.91366e-06
0.000237098
0.000237951
3.10161e-06
5.16371e-07
0.000160704
9.18756e-07
0.000190418
1.26962e-06
0.000204961
1.51625e-06
0.0002137
1.77306e-06
0.000219852
1.99767e-06
0.00022469
2.25004e-06
0.000228496
2.46752e-06
0.000231555
2.70199e-06
0.000233869
2.92613e-06
0.000235649
3.13231e-06
0.000236892
0.000237803
3.28114e-06
5.24489e-07
0.000160179
9.91707e-07
0.000189951
1.3121e-06
0.00020464
1.60334e-06
0.000213409
1.87642e-06
0.000219579
2.14454e-06
0.000224422
2.40973e-06
0.000228231
2.66689e-06
0.000231298
2.89061e-06
0.000233646
3.15632e-06
0.000235384
3.36119e-06
0.000236687
0.000237545
3.6192e-06
5.52349e-07
0.000159627
1.01851e-06
0.000189485
1.38142e-06
0.000204277
1.71887e-06
0.000213071
1.98031e-06
0.000219317
2.29257e-06
0.000224109
2.54289e-06
0.000227981
2.80974e-06
0.000231031
3.11512e-06
0.00023334
3.3341e-06
0.000235165
3.59073e-06
0.000236431
0.000237373
3.76238e-06
5.86852e-07
0.00015904
1.06897e-06
0.000189003
1.47335e-06
0.000203873
1.78909e-06
0.000212756
2.11534e-06
0.000218991
2.40618e-06
0.000223819
2.71508e-06
0.000227672
3.02956e-06
0.000230717
3.28474e-06
0.000233085
3.57048e-06
0.000234879
3.82822e-06
0.000236173
0.000237084
4.11777e-06
5.93305e-07
0.000158447
1.10492e-06
0.000188491
1.53123e-06
0.000203447
1.88179e-06
0.000212405
2.22463e-06
0.000218648
2.53675e-06
0.000223507
2.87119e-06
0.000227337
3.16974e-06
0.000230418
3.48557e-06
0.000232769
3.78916e-06
0.000234575
4.04503e-06
0.000235917
0.000236838
4.29077e-06
6.15193e-07
0.000157832
1.16361e-06
0.000187943
1.59337e-06
0.000203017
2.00551e-06
0.000211993
2.34782e-06
0.000218306
2.69859e-06
0.000223156
3.0246e-06
0.000227011
3.38822e-06
0.000230054
3.66212e-06
0.000232495
3.98076e-06
0.000234257
4.28998e-06
0.000235608
0.000236522
4.60583e-06
6.35884e-07
0.000157196
1.20833e-06
0.00018737
1.67722e-06
0.000202548
2.06298e-06
0.000211607
2.44141e-06
0.000217928
2.83858e-06
0.000222759
3.17408e-06
0.000226676
3.52914e-06
0.000229699
3.87205e-06
0.000232153
4.20251e-06
0.000233926
4.50975e-06
0.000235301
0.000236268
4.76352e-06
6.74031e-07
0.000156522
1.24583e-06
0.000186799
1.76337e-06
0.00020203
2.19053e-06
0.00021118
2.56421e-06
0.000217554
2.95068e-06
0.000222372
3.35344e-06
0.000226273
3.72283e-06
0.00022933
4.07981e-06
0.000231796
4.42532e-06
0.000233581
4.7615e-06
0.000234965
0.000235926
5.10404e-06
6.52785e-07
0.000155869
1.30983e-06
0.000186142
1.82353e-06
0.000201517
2.27096e-06
0.000210733
2.71203e-06
0.000217113
3.08774e-06
0.000221996
3.50778e-06
0.000225853
3.8911e-06
0.000228947
4.288e-06
0.000231399
4.61866e-06
0.00023325
4.9872e-06
0.000234596
0.000235608
5.30452e-06
7.23616e-07
0.000155145
1.32018e-06
0.000185545
1.85793e-06
0.000200979
2.35011e-06
0.000210241
2.80967e-06
0.000216653
3.25389e-06
0.000221552
3.66157e-06
0.000225445
4.05818e-06
0.00022855
4.46914e-06
0.000230988
4.86348e-06
0.000232856
5.21208e-06
0.000234247
0.000235284
5.5361e-06
7.10137e-07
0.000154435
1.43688e-06
0.000184818
1.9967e-06
0.000200419
2.51003e-06
0.000209727
2.9618e-06
0.000216201
3.42245e-06
0.000221092
3.84525e-06
0.000225023
4.28372e-06
0.000228112
4.68147e-06
0.00023059
5.09262e-06
0.000232445
5.46425e-06
0.000233876
0.000234859
5.88947e-06
7.31837e-07
0.000153703
1.42931e-06
0.000184121
2.03073e-06
0.000199818
2.53693e-06
0.000209221
3.06046e-06
0.000215678
3.51031e-06
0.000220642
4.00153e-06
0.000224531
4.42696e-06
0.000227686
4.86551e-06
0.000230151
5.25966e-06
0.000232051
5.65856e-06
0.000233477
0.000234503
6.01518e-06
7.90208e-07
0.000152913
1.49694e-06
0.000183414
2.1232e-06
0.000199192
2.6751e-06
0.000208669
3.15847e-06
0.000215195
3.68193e-06
0.000220118
4.13501e-06
0.000224078
4.60215e-06
0.000227219
5.0826e-06
0.000229671
5.52077e-06
0.000231612
5.97855e-06
0.000233019
0.000234101
6.37998e-06
7.87748e-07
0.000152125
1.53375e-06
0.000182668
2.18255e-06
0.000198543
2.78674e-06
0.000208065
3.31834e-06
0.000214663
3.82389e-06
0.000219613
4.35179e-06
0.00022355
4.83408e-06
0.000226737
5.27355e-06
0.000229232
5.72207e-06
0.000231164
6.14707e-06
0.000232594
0.000233691
6.55681e-06
7.80964e-07
0.000151344
1.57768e-06
0.000181871
2.27263e-06
0.000197848
2.86798e-06
0.00020747
3.44416e-06
0.000214087
3.97812e-06
0.000219079
4.48433e-06
0.000223044
4.98178e-06
0.000226239
5.49663e-06
0.000228717
5.98867e-06
0.000230672
6.44012e-06
0.000232143
0.000233238
6.89379e-06
8.44165e-07
0.0001505
1.64283e-06
0.000181073
2.33981e-06
0.000197151
2.98161e-06
0.000206828
3.5514e-06
0.000213517
4.12312e-06
0.000218507
4.65148e-06
0.000222516
5.22557e-06
0.000225665
5.6891e-06
0.000228253
6.20086e-06
0.00023016
6.68071e-06
0.000231663
0.000232835
7.08388e-06
8.54646e-07
0.000149646
1.68171e-06
0.000180246
2.43373e-06
0.000196399
3.06316e-06
0.000206198
3.68693e-06
0.000212893
4.27648e-06
0.000217918
4.82143e-06
0.000221971
5.37868e-06
0.000225108
5.95425e-06
0.000227678
6.44482e-06
0.00022967
6.93271e-06
0.000231175
0.000232286
7.48113e-06
8.70732e-07
0.000148775
1.76168e-06
0.000179355
2.49517e-06
0.000195665
3.1894e-06
0.000205504
3.82464e-06
0.000212258
4.43213e-06
0.00021731
5.02009e-06
0.000221383
5.56646e-06
0.000224562
6.15007e-06
0.000227094
6.69667e-06
0.000229123
7.21606e-06
0.000230656
0.00023184
7.66186e-06
9.01125e-07
0.000147874
1.77617e-06
0.00017848
2.60057e-06
0.000194841
3.30836e-06
0.000204796
3.98913e-06
0.000211577
4.55213e-06
0.000216747
5.19359e-06
0.000220741
5.78122e-06
0.000223974
6.35008e-06
0.000226525
6.89716e-06
0.000228576
7.41752e-06
0.000230135
0.000231288
7.97014e-06
9.19096e-07
0.000146955
1.82227e-06
0.000177576
2.66134e-06
0.000194002
3.39156e-06
0.000204066
4.06757e-06
0.000210901
4.74814e-06
0.000216066
5.37034e-06
0.000220119
6.00026e-06
0.000223344
6.55702e-06
0.000225968
7.14613e-06
0.000227987
7.68358e-06
0.000229598
0.000230789
8.18263e-06
9.44268e-07
0.00014601
1.8922e-06
0.000176629
2.73453e-06
0.000193159
3.51251e-06
0.000203288
4.22319e-06
0.000210191
4.91166e-06
0.000215378
5.57803e-06
0.000219453
6.19928e-06
0.000222723
6.82835e-06
0.000225339
7.38504e-06
0.00022743
8.02132e-06
0.000228962
0.00023022
8.59027e-06
9.72007e-07
0.000145038
1.94241e-06
0.000175658
2.80979e-06
0.000192292
3.65012e-06
0.000202448
4.35524e-06
0.000209485
5.03803e-06
0.000214695
5.7626e-06
0.000218728
6.40083e-06
0.000222085
7.01893e-06
0.000224721
7.66861e-06
0.000226781
8.23619e-06
0.000228394
0.000229705
8.75063e-06
1.00391e-06
0.000144035
1.99971e-06
0.000174662
2.94851e-06
0.000191343
3.71253e-06
0.000201684
4.4774e-06
0.000208721
5.24577e-06
0.000213927
5.88246e-06
0.000218092
6.63153e-06
0.000221336
7.29274e-06
0.00022406
7.94709e-06
0.000226126
8.5312e-06
0.00022781
0.000229072
9.16471e-06
1.02156e-06
0.000143013
2.05369e-06
0.00017363
3.01142e-06
0.000190386
3.83878e-06
0.000200856
4.66768e-06
0.000207892
5.37525e-06
0.000213219
6.13838e-06
0.000217329
6.81172e-06
0.000220662
7.48783e-06
0.000223384
8.14007e-06
0.000225474
8.75718e-06
0.000227193
0.000228475
9.35392e-06
1.04524e-06
0.000141968
2.10363e-06
0.000172572
3.06672e-06
0.000189423
4.00816e-06
0.000199915
4.77853e-06
0.000207121
5.59018e-06
0.000212408
6.33154e-06
0.000216587
7.00652e-06
0.000219987
7.74362e-06
0.000222647
8.4156e-06
0.000224802
9.10808e-06
0.0002265
0.00022789
9.69359e-06
1.06824e-06
0.000140899
2.15858e-06
0.000171481
3.16991e-06
0.000188411
4.07408e-06
0.000199011
4.95128e-06
0.000206244
5.76776e-06
0.000211591
6.52911e-06
0.000215826
7.2652e-06
0.000219251
7.97946e-06
0.000221933
8.69769e-06
0.000224084
9.36488e-06
0.000225833
0.000227222
1.00321e-05
1.09401e-06
0.000139805
2.25202e-06
0.000170323
3.28772e-06
0.000187375
4.226e-06
0.000198073
5.11e-06
0.00020536
5.92301e-06
0.000210778
6.72964e-06
0.000215019
7.5287e-06
0.000218452
8.28605e-06
0.000221175
8.99292e-06
0.000223377
9.70508e-06
0.000225121
0.000226535
1.03926e-05
1.11872e-06
0.000138687
2.26926e-06
0.000169173
3.33773e-06
0.000186307
4.31842e-06
0.000197092
5.20215e-06
0.000204476
6.10649e-06
0.000209874
6.90662e-06
0.000214219
7.70428e-06
0.000217654
8.47478e-06
0.000220405
9.18701e-06
0.000222665
9.87687e-06
0.000224431
0.000225936
1.04757e-05
1.14084e-06
0.000137546
2.3251e-06
0.000167989
3.47027e-06
0.000185162
4.47708e-06
0.000196085
5.4105e-06
0.000203543
6.26895e-06
0.000209015
7.11534e-06
0.000213373
7.95908e-06
0.000216811
8.77116e-06
0.000219593
9.53819e-06
0.000221898
1.0266e-05
0.000223703
0.000225152
1.10504e-05
1.20211e-06
0.000136344
2.41825e-06
0.000166773
3.55884e-06
0.000184021
4.59442e-06
0.00019505
5.55383e-06
0.000202584
6.461e-06
0.000208108
7.35488e-06
0.000212479
8.21562e-06
0.00021595
8.98135e-06
0.000218827
9.81278e-06
0.000221066
1.05612e-05
0.000222955
0.000224415
1.12974e-05
1.18208e-06
0.000135162
2.47379e-06
0.000165481
3.64698e-06
0.000182848
4.72158e-06
0.000193975
5.77198e-06
0.000201533
6.65623e-06
0.000207224
7.5701e-06
0.000211565
8.45569e-06
0.000215064
9.28603e-06
0.000217997
1.0088e-05
0.000220264
1.08887e-05
0.000222154
0.000223642
1.16626e-05
1.24718e-06
0.000133915
2.52879e-06
0.000164199
3.73967e-06
0.000181637
4.89082e-06
0.000192824
5.85147e-06
0.000200572
6.87936e-06
0.000206196
7.81866e-06
0.000210626
8.67445e-06
0.000214209
9.54968e-06
0.000217121
1.03949e-05
0.000219419
1.11974e-05
0.000221352
0.000222902
1.19374e-05
1.26123e-06
0.000132653
2.58257e-06
0.000162878
3.82864e-06
0.000180391
4.97022e-06
0.000191682
6.08004e-06
0.000199463
7.05987e-06
0.000205216
8.0227e-06
0.000209663
8.95148e-06
0.00021328
9.87294e-06
0.0002162
1.07169e-05
0.000218575
1.15668e-05
0.000220502
0.000222041
1.24276e-05
1.31339e-06
0.00013134
2.67676e-06
0.000161515
3.9653e-06
0.000179103
5.14574e-06
0.000190502
6.2361e-06
0.000198372
7.26961e-06
0.000204183
8.28217e-06
0.00020865
9.23253e-06
0.000212329
1.01503e-05
0.000215282
1.10345e-05
0.000217691
1.18765e-05
0.00021966
0.0002213
1.26174e-05
1.30498e-06
0.000130035
2.73583e-06
0.000160084
4.05914e-06
0.000177779
5.27639e-06
0.000189284
6.45163e-06
0.000197197
7.50973e-06
0.000203125
8.47185e-06
0.000207688
9.49613e-06
0.000211305
1.04098e-05
0.000214369
1.13159e-05
0.000216785
1.21952e-05
0.000218781
0.000220369
1.31262e-05
1.39939e-06
0.000128636
2.79235e-06
0.000158691
4.15525e-06
0.000176416
5.45997e-06
0.00018798
6.57204e-06
0.000196085
7.71184e-06
0.000201985
8.74434e-06
0.000206656
9.7422e-06
0.000210307
1.07288e-05
0.000213382
1.17063e-05
0.000215807
1.25883e-05
0.000217899
0.000219594
1.33635e-05
1.38286e-06
0.000127253
2.89243e-06
0.000157181
4.29885e-06
0.00017501
5.59452e-06
0.000186684
6.8419e-06
0.000194838
7.91921e-06