/*--------------------------------*- C++ -*----------------------------------*\
| =========                 |                                                 |
| \\      /  F ield         | OpenFOAM: The Open Source CFD Toolbox           |
|  \\    /   O peration     | Version:  2.3.1                                 |
|   \\  /    A nd           | Web:      www.OpenFOAM.org                      |
|    \\/     M anipulation  |                                                 |
\*---------------------------------------------------------------------------*/
FoamFile
{
    version     2.0;
    format      ascii;
    class       volVectorField;
    location    "0.1";
    object      U;
}
// * * * * * * * * * * * * * * * * * * * * * * * * * * * * * * * * * * * * * //

dimensions      [0 1 -1 0 0 0 0];

internalField   nonuniform List<vector> 
15166
(
(6.16183 0.568006 2.07783e-19)
(7.34878 1.05519 1.22933e-18)
(8.39456 0.905473 -7.34339e-19)
(9.38528 0.949459 6.56715e-19)
(10.1375 1.00164 6.93895e-19)
(10.8694 1.04671 3.75049e-19)
(11.4786 1.13305 -7.52819e-19)
(11.978 1.18862 7.318e-19)
(12.3361 1.2705 -3.75766e-19)
(12.6103 1.32013 1.49699e-18)
(12.809 1.36645 -1.1035e-18)
(12.9423 1.41562 1.1071e-18)
(6.86922 1.04867 3.91824e-19)
(7.7693 1.4611 5.60838e-20)
(8.68177 1.22132 2.98406e-20)
(9.56162 1.23065 3.88187e-19)
(10.2781 1.2375 -3.30606e-19)
(10.9617 1.25254 0)
(11.535 1.30184 3.72388e-19)
(11.9993 1.33645 3.1154e-22)
(12.341 1.38525 3.72555e-19)
(12.6026 1.4169 -7.55672e-19)
(12.7926 1.44775 1.49074e-18)
(12.9295 1.4784 -1.1163e-18)
(7.42431 1.28706 -3.66756e-19)
(8.21139 1.60939 -2.0638e-18)
(9.03088 1.39203 4.15172e-19)
(9.81022 1.41723 -7.91959e-19)
(10.4743 1.41046 -1.7467e-20)
(11.1011 1.41402 7.72437e-19)
(11.6303 1.44128 -1.1127e-18)
(12.0565 1.46042 -3.8867e-19)
(12.3754 1.48731 7.41928e-19)
(12.6191 1.50441 6.45022e-21)
(12.7972 1.5214 -1.11771e-18)
(12.9295 1.53818 1.4738e-18)
(7.73724 1.40761 0)
(8.52884 1.66901 -9.28238e-19)
(9.31741 1.49563 2.19218e-18)
(10.0391 1.53674 -1.25334e-18)
(10.6663 1.52807 8.07701e-19)
(11.2476 1.53078 1.20481e-18)
(11.7381 1.54735 -3.72475e-19)
(12.1311 1.55756 3.89644e-19)
(12.4276 1.5708 -7.63794e-19)
(12.6533 1.57736 7.58538e-19)
(12.82 1.58318 3.78841e-19)
(12.9473 1.58849 7.54818e-19)
(7.9524 1.48368 -5.42134e-19)
(8.77344 1.7051 -5.06131e-19)
(9.54729 1.57235 -1.37122e-18)
(10.2347 1.62002 1.30011e-18)
(10.8378 1.61161 -4.13297e-19)
(11.386 1.61604 -4.03016e-19)
(11.8459 1.62702 -3.95551e-19)
(12.212 1.63205 4.06951e-19)
(12.4891 1.63681 -3.87471e-19)
(12.699 1.63624 -3.82654e-19)
(12.8551 1.63462 -1.14877e-18)
(12.9752 1.6332 -5.05899e-21)
(8.14286 1.53693 1.07449e-18)
(8.99282 1.72759 1.03085e-18)
(9.75067 1.63003 -9.69245e-19)
(10.4113 1.67955 1.83912e-18)
(10.9948 1.67275 -1.76688e-18)
(11.5163 1.67911 8.4927e-19)
(11.9512 1.6867 0)
(12.2952 1.68837 8.17793e-19)
(12.5555 1.68766 -1.59776e-18)
(12.7517 1.68216 7.83414e-19)
(12.898 1.67527 0)
(13.0111 1.66875 1.15141e-18)
(8.31781 1.57259 -5.96322e-19)
(9.19639 1.7374 5.52136e-19)
(9.9384 1.67012 0)
(10.5766 1.71971 0)
(11.1421 1.71589 4.67354e-19)
(11.6406 1.72427 4.49902e-19)
(12.0538 1.72987 -8.60815e-19)
(12.379 1.7294 1.2573e-18)
(12.6247 1.72505 4.14832e-19)
(12.809 1.71592 0)
(12.9468 1.70481 4.00373e-19)
(13.0545 1.69421 0)
(8.47395 1.59409 -1.20926e-18)
(9.38196 1.73721 1.12118e-18)
(10.1107 1.69556 5.1363e-19)
(10.7308 1.74415 5.0781e-19)
(11.2802 1.74398 -2.36519e-18)
(11.7588 1.75429 4.63265e-19)
(12.1534 1.75894 0)
(12.4623 1.75726 -4.24015e-19)
(12.6953 1.7506 4.27008e-19)
(12.8693 1.73906 3.27198e-21)
(12.9997 1.7251 -8.00173e-19)
(13.1009 1.71194 7.94093e-19)
(8.61257 1.60444 1.25289e-18)
(9.54997 1.72958 -1.16092e-18)
(10.2679 1.70964 5.30918e-19)
(10.8735 1.75644 -1.53053e-18)
(11.4088 1.75993 1.9608e-18)
(11.8704 1.77186 -1.8833e-18)
(12.2489 1.77618 9.0919e-19)
(12.544 1.77394 0)
(12.7659 1.76596 4.35904e-19)
(12.9312 1.75296 0)
(13.0549 1.73722 8.35421e-19)
(13.1507 1.72198 -4.03959e-19)
(8.73692 1.60604 1.29663e-18)
(9.70309 1.7163 0)
(10.412 1.71481 5.67423e-19)
(11.0057 1.75931 5.37407e-19)
(11.5285 1.76617 5.11995e-19)
(11.9755 1.77933 4.91092e-19)
(12.3401 1.78365 0)
(12.6233 1.78124 0)
(12.8357 1.77255 -1.31795e-18)
(12.9934 1.7587 2.15973e-18)
(13.1113 1.7419 -8.36024e-19)
(13.202 1.72676 -1.24556e-18)
(8.84981 1.60073 1.32928e-18)
(9.84388 1.6986 -1.82994e-18)
(10.5453 1.71271 1.73106e-18)
(11.1288 1.75464 -1.62383e-18)
(11.6403 1.76449 -5.10241e-19)
(12.0744 1.7785 -4.89917e-19)
(12.427 1.78298 9.56754e-19)
(12.6998 1.78061 -9.2942e-19)
(12.904 1.77162 -1.3582e-18)
(13.0553 1.75732 -4.33949e-19)
(13.1681 1.73952 1.7314e-18)
(13.2536 1.72319 -8.35329e-19)
(8.95302 1.58969 -1.36894e-18)
(9.97407 1.67715 -1.87027e-18)
(10.6691 1.7045 -2.91684e-19)
(11.2437 1.74375 1.11613e-18)
(11.7448 1.75618 7.90085e-19)
(12.1676 1.77073 -2.03564e-18)
(12.5096 1.77546 1.96167e-18)
(12.7734 1.77325 -3.71507e-21)
(12.9705 1.76428 -1.38926e-18)
(13.116 1.75008 9.01347e-19)
(13.2241 1.73224 -4.3529e-19)
(13.3051 1.71518 8.49227e-19)
(9.0477 1.57391 -1.0466e-18)
(10.0948 1.65258 -3.24883e-19)
(10.7847 1.69109 2.96574e-19)
(11.3514 1.72761 0)
(11.843 1.74225 2.67892e-19)
(12.2557 1.7571 -2.63115e-19)
(12.5882 1.76209 0)
(12.8441 1.76009 0)
(13.0348 1.7513 2.37921e-19)
(13.1751 1.73738 0)
(13.2782 1.72002 0)
(13.3535 1.70295 -8.61801e-19)
(9.13492 1.55413 -3.53507e-19)
(10.2073 1.62532 3.23403e-19)
(10.893 1.67325 0)
(11.4524 1.70705 0)
(11.9354 1.72351 1.1043e-18)
(12.3389 1.73843 -8.02996e-19)
(12.663 1.74364 1.02008e-18)
(12.9119 1.74182 -9.92822e-19)
(13.0971 1.73307 7.20227e-19)
(13.233 1.71893 -5.52245e-21)
(13.3325 1.7011 -1.82426e-18)
(13.4049 1.68772 1.11267e-18)
(9.21542 1.53094 -1.4605e-18)
(10.3122 1.5957 0)
(10.9946 1.65154 1.24614e-18)
(11.5475 1.68268 -1.48724e-18)
(12.0224 1.70062 0)
(12.4177 1.71547 2.73408e-19)
(12.7343 1.72087 1.03935e-18)
(12.9769 1.71927 -2.27199e-18)
(13.1573 1.71089 1.95808e-18)
(13.2893 1.69732 -9.55926e-19)
(13.3858 1.67953 9.2608e-19)
(13.4552 1.66005 -1.12976e-18)
(9.28991 1.50483 3.68332e-21)
(10.4104 1.56399 6.82168e-19)
(11.0902 1.62647 0)
(11.6371 1.65503 2.98168e-19)
(12.1045 1.67417 0)
(12.4923 1.68881 8.25408e-19)
(12.8021 1.69439 -7.9065e-21)
(13.0393 1.693 -7.76431e-19)
(13.2153 1.68496 0)
(13.3437 1.67192 -2.44379e-19)
(13.4368 1.65478 2.3813e-19)
(13.5037 1.63387 0)
(9.359 1.47622 3.7088e-19)
(10.5024 1.53046 -1.04145e-18)
(11.1803 1.59845 9.70423e-19)
(11.7217 1.62451 -4.74657e-21)
(12.1821 1.64458 2.90245e-19)
(12.5631 1.65893 -2.80007e-19)
(12.8668 1.66464 0)
(13.0989 1.66343 0)
(13.2711 1.6557 1.00935e-18)
(13.3964 1.64306 -7.45063e-19)
(13.4864 1.62667 -4.80137e-19)
(13.5499 1.60691 -2.33889e-19)
(9.42306 1.44538 3.80797e-19)
(10.5887 1.49519 3.46945e-19)
(11.2655 1.56777 -3.25219e-19)
(11.8018 1.59144 6.19263e-19)
(12.2556 1.61222 -1.48099e-18)
(12.6304 1.6262 2.89497e-19)
(12.9284 1.63201 0)
(13.156 1.63099 5.2841e-19)
(13.3247 1.6236 -5.16943e-19)
(13.4472 1.6114 -7.50863e-19)
(13.5347 1.59568 2.4591e-19)
(13.5958 1.57737 7.08975e-19)
(9.48258 1.41261 0)
(10.67 1.4584 0)
(11.3459 1.53476 0)
(11.8775 1.55613 3.17821e-19)
(12.3253 1.57742 0)
(12.6942 1.59097 5.75416e-19)
(12.9871 1.59683 -8.39978e-19)
(13.2107 1.596 0)
(13.3762 1.589 -5.20361e-19)
(13.4962 1.57729 5.06666e-19)
(13.5815 1.56214 0)
(13.6406 1.5442 0)
(9.53793 1.37814 1.97676e-18)
(10.7464 1.42019 -1.44099e-18)
(11.4222 1.49962 6.76578e-19)
(11.9493 1.5188 -9.53413e-19)
(12.3913 1.54041 1.22083e-18)
(12.7548 1.55349 -8.76825e-19)
(13.043 1.55937 8.47699e-19)
(13.2629 1.5587 2.68818e-19)
(13.4255 1.5521 -1.06027e-18)
(13.5431 1.54095 7.73769e-19)
(13.6262 1.52651 0)
(13.6834 1.50821 0)
(9.58938 1.34215 -1.60301e-18)
(10.8184 1.38068 0)
(11.4944 1.46258 0)
(12.0173 1.47965 -6.44399e-19)
(12.454 1.50143 6.20984e-19)
(12.8124 1.51398 -8.85759e-19)
(13.0963 1.51983 5.22304e-21)
(13.3127 1.51928 8.31345e-19)
(13.4727 1.51302 5.34887e-19)
(13.588 1.50235 -5.24972e-19)
(13.669 1.48866 -2.56024e-19)
(13.7241 1.47028 0)
(9.63709 1.30483 -1.21588e-18)
(10.8862 1.33999 1.11239e-18)
(11.5628 1.42383 0)
(12.0818 1.43883 -6.51942e-19)
(12.5135 1.46064 9.43518e-19)
(12.8672 1.47265 0)
(13.1471 1.47842 0)
(13.3604 1.47792 2.82262e-19)
(13.518 1.47189 5.41683e-19)
(13.6314 1.46147 -5.31771e-19)
(13.7107 1.44808 5.15319e-19)
(13.7644 1.43168 0)
(9.68156 1.26622 -4.49342e-21)
(10.9502 1.29805 -1.11983e-18)
(11.6278 1.38347 0)
(12.1431 1.39651 9.92294e-19)
(12.57 1.41825 -9.503e-19)
(12.9194 1.42966 3.06001e-19)
(13.1955 1.43532 2.95142e-19)
(13.406 1.43489 -8.47151e-19)
(13.5614 1.42915 5.53571e-19)
(13.6731 1.41916 -2.69468e-19)
(13.7511 1.40629 3.08655e-21)
(13.8034 1.39124 0)
(9.72231 1.22638 -8.25776e-19)
(11.0104 1.25502 7.57507e-19)
(11.6893 1.34169 0)
(12.2012 1.35281 -3.32471e-19)
(12.6236 1.37438 0)
(12.969 1.3852 -3.05622e-19)
(13.2417 1.39074 3.50646e-21)
(13.4495 1.39036 2.88798e-19)
(13.603 1.38492 -2.80257e-19)
(13.7131 1.37535 -3.08985e-21)
(13.7898 1.36287 -2.53559e-21)
(13.8411 1.34943 -1.03313e-18)
(9.76 1.18583 -4.21887e-19)
(11.067 1.21131 -7.5857e-19)
(11.7477 1.29868 7.15001e-19)
(12.2564 1.30789 3.39753e-19)
(12.6746 1.32921 0)
(13.0161 1.33941 3.12433e-19)
(13.2856 1.34481 -5.99683e-19)
(13.491 1.34447 -5.74574e-19)
(13.6427 1.3393 8.46619e-19)
(13.7514 1.33014 -2.96847e-21)
(13.827 1.31797 -2.85578e-21)
(13.8771 1.305 2.60267e-19)
(9.79518 1.14434 4.1664e-19)
(11.1204 1.1666 -7.72311e-19)
(11.803 1.25445 -3.61704e-19)
(12.3089 1.26185 -3.39143e-19)
(12.723 1.28283 -3.28087e-19)
(13.0609 1.29241 3.12503e-19)
(13.3275 1.29764 -1.21509e-18)
(13.5306 1.29732 2.995e-21)
(13.6806 1.2924 0)
(13.7881 1.28366 8.26852e-19)
(13.8627 1.27192 -2.73962e-19)
(13.9123 1.26028 -2.62722e-19)
(9.82743 1.10196 -4.29875e-19)
(11.1706 1.12099 0)
(11.8555 1.20913 3.31602e-21)
(12.3586 1.21474 3.45601e-19)
(12.769 1.23535 6.58631e-19)
(13.1034 1.24429 3.12132e-19)
(13.3673 1.24934 -1.22669e-18)
(13.5683 1.24904 3.00712e-19)
(13.7168 1.2444 8.6724e-19)
(13.8231 1.23614 0)
(13.8968 1.22487 0)
(13.9457 1.21314 0)
(9.85667 1.05871 1.72628e-18)
(11.2178 1.07453 -7.7917e-19)
(11.9052 1.16281 7.3779e-19)
(12.4057 1.16667 -3.45609e-19)
(12.8125 1.18684 6.70618e-19)
(13.1438 1.19515 9.54236e-19)
(13.405 1.19999 -9.27635e-19)
(13.6042 1.19969 6.07728e-21)
(13.7512 1.19526 1.16431e-18)
(13.8564 1.18738 -8.51835e-19)
(13.9292 1.17666 2.76467e-19)
(13.9772 1.16579 -5.2943e-19)
(9.88324 1.015 -4.33223e-19)
(11.2621 1.02759 -3.95604e-19)
(11.9522 1.11562 -3.67253e-19)
(12.4504 1.11771 -6.96372e-19)
(12.8538 1.1374 -3.2713e-19)
(13.1821 1.14507 3.24063e-19)
(13.4409 1.14969 3.06902e-19)
(13.6383 1.14936 -9.03862e-19)
(13.784 1.14512 2.97415e-19)
(13.8883 1.13753 5.7023e-19)
(13.9604 1.12717 -2.76557e-19)
(14.0077 1.11819 -2.72165e-19)
(9.90733 0.970868 -8.72699e-19)
(11.3035 0.98013 1.59195e-18)
(11.9967 1.06759 0)
(12.4927 1.06792 0)
(12.8929 1.08712 0)
(13.2183 1.09413 6.49849e-19)
(13.4749 1.09851 6.27978e-19)
(13.6706 1.09816 -3.02966e-19)
(13.8152 1.09412 2.96821e-19)
(13.9187 1.08693 2.4149e-21)
(13.9902 1.07688 -5.57519e-19)
(14.0368 1.06821 5.46912e-19)
(9.92944 0.926439 8.84379e-19)
(11.3425 0.932127 -1.97383e-19)
(12.0387 1.01869 -1.87984e-19)
(12.5327 1.01738 0)
(12.9299 1.03604 0)
(13.2526 1.0424 -3.26073e-19)
(13.5071 1.04654 3.14573e-19)
(13.7013 1.04617 -6.16674e-19)
(13.8448 1.04233 2.96146e-19)
(13.9475 1.03552 -8.72063e-19)
(14.0184 1.02592 0)
(14.0647 1.01805 -2.74358e-19)
(9.94897 0.881413 -1.77697e-18)
(11.3787 0.883347 6.09156e-19)
(12.0783 0.968964 1.87771e-19)
(12.5705 0.966096 -5.32181e-19)
(12.9648 0.984214 6.88034e-19)
(13.285 0.989928 0)
(13.5374 0.993835 6.34439e-19)
(13.7302 0.993428 -6.21432e-19)
(13.8728 0.989778 0)
(13.9748 0.983355 0)
(14.0451 0.974179 0)
(14.0908 0.965648 5.4769e-19)
(9.96614 0.836338 0)
(11.4122 0.834394 0)
(12.1154 0.918639 -3.77651e-19)
(12.6061 0.914173 1.79679e-21)
(12.9977 0.931721 0)
(13.3155 0.936795 -6.60823e-19)
(13.5661 0.940454 1.4456e-18)
(13.7576 0.939991 -4.69768e-19)
(13.8992 0.936492 -6.02001e-19)
(14.0006 0.930367 1.54064e-19)
(14.0704 0.921651 6.15537e-21)
(14.1157 0.913663 5.64473e-19)
(9.98129 0.790845 4.49067e-19)
(11.4434 0.784784 -2.05457e-19)
(12.1504 0.867651 1.91548e-19)
(12.6395 0.86168 -1.79957e-19)
(13.0287 0.878627 8.67671e-19)
(13.3441 0.883055 -1.68225e-19)
(13.593 0.886458 -4.82735e-19)
(13.7833 0.885948 -3.10224e-19)
(13.9242 0.882614 3.06351e-19)
(14.025 0.876826 -2.96715e-19)
(14.0944 0.868576 1.45083e-19)
(14.1393 0.860516 -1.38476e-19)
(9.99442 0.744926 6.79781e-19)
(11.4721 0.734663 -6.16808e-19)
(12.183 0.816102 -1.91397e-19)
(12.671 0.808611 1.82569e-19)
(13.0577 0.824966 -5.21115e-19)
(13.3709 0.82876 5.04996e-19)
(13.6182 0.831907 -3.32864e-21)
(13.8074 0.831365 -1.59955e-19)
(13.9476 0.828222 -3.05199e-19)
(14.048 0.82278 4.49306e-19)
(14.1171 0.815072 1.4453e-19)
(14.1619 0.807844 -4.29329e-19)
(10.005 0.698868 2.29246e-19)
(11.4984 0.684307 0)
(12.2136 0.764086 -1.93678e-19)
(12.7004 0.755037 1.11263e-21)
(13.0848 0.770776 0)
(13.396 0.773935 1.69636e-19)
(13.6418 0.776834 0)
(13.8299 0.776276 0)
(13.9694 0.773354 0)
(14.0694 0.768348 0)
(14.1382 0.761254 -2.91621e-19)
(14.1828 0.753876 5.70163e-19)
(10.0142 0.652605 -4.59678e-19)
(11.5224 0.633644 0)
(12.242 0.711623 3.88213e-19)
(12.7278 0.700955 -1.83422e-19)
(13.1101 0.716096 -3.5103e-19)
(13.4194 0.718621 1.72256e-19)
(13.6636 0.721259 -3.27478e-19)
(13.8508 0.720648 3.21105e-19)
(13.9897 0.71788 -3.09009e-19)
(14.0892 0.713197 3.2422e-21)
(14.1574 0.706778 1.51055e-19)
(14.2017 0.700694 2.86766e-19)
(10.0211 0.605843 0)
(11.5442 0.582399 -2.08897e-19)
(12.2683 0.658657 -1.94557e-19)
(12.7533 0.646376 0)
(13.1336 0.660948 -3.5281e-19)
(13.441 0.662824 6.83727e-19)
(13.6839 0.66519 -3.32625e-19)
(13.8702 0.664499 0)
(14.0085 0.661821 0)
(14.1076 0.657285 -1.52536e-19)
(14.1755 0.651066 -1.47961e-19)
(14.2189 0.648046 0)
(10.026 0.559108 4.61986e-19)
(11.5637 0.531159 -4.56075e-21)
(12.2925 0.605356 -3.07829e-21)
(12.7769 0.591356 -3.53801e-21)
(13.1554 0.605382 -5.36392e-19)
(13.461 0.60661 0)
(13.7026 0.608686 0)
(13.8881 0.607905 0)
(14.0259 0.605314 0)
(14.1249 0.600887 1.52603e-19)
(14.1931 0.59422 -1.4708e-19)
(14.2373 0.593341 2.97587e-21)
(10.0292 0.511912 -5.81206e-19)
(11.5811 0.479423 6.3265e-19)
(12.3147 0.551644 3.91817e-19)
(12.7986 0.53591 -3.74931e-19)
(13.1754 0.549451 8.88161e-20)
(13.4793 0.550035 0)
(13.7198 0.551853 3.32445e-19)
(13.9045 0.551023 -3.41606e-21)
(14.042 0.548673 -3.17383e-19)
(14.1407 0.544884 0)
(14.2089 0.538893 -2.24817e-19)
(14.2529 0.532121 0)
(10.0305 0.464624 2.06425e-21)
(11.5963 0.427575 4.24626e-19)
(12.3349 0.497592 9.9057e-20)
(12.8184 0.48011 2.79063e-19)
(13.1936 0.493216 -2.71291e-19)
(13.496 0.49314 0)
(13.7354 0.494691 3.33946e-19)
(13.9195 0.493785 -3.43432e-21)
(14.0565 0.491516 -2.39435e-19)
(14.1551 0.487949 0)
(14.2229 0.48267 1.50743e-19)
(14.2671 0.479911 0)
(10.0306 0.417372 1.27029e-21)
(11.6093 0.375442 3.1936e-19)
(12.3529 0.443051 -9.90343e-20)
(12.8363 0.424042 1.87996e-19)
(13.2101 0.436728 0)
(13.5111 0.435949 0)
(13.7494 0.437233 -8.44361e-20)
(13.9329 0.436245 -8.20132e-20)
(14.0697 0.434088 -7.94941e-20)
(14.1681 0.430792 -7.77811e-20)
(14.236 0.425859 -1.50327e-19)
(14.2799 0.423553 1.47285e-19)
(10.0288 0.369867 -1.17956e-19)
(11.6202 0.322769 -1.06174e-19)
(12.3692 0.388039 1.98199e-19)
(12.8526 0.367719 -4.71623e-19)
(13.225 0.379979 1.81812e-19)
(13.5246 0.378488 0)
(13.762 0.379502 8.44453e-20)
(13.9449 0.37843 8.20311e-20)
(14.0814 0.376401 -1.59121e-19)
(14.1798 0.373366 2.34603e-19)
(14.2477 0.36872 1.51572e-19)
(14.2915 0.366774 -1.49497e-19)
(10.0253 0.322634 0)
(11.6287 0.270209 0)
(12.3836 0.332685 1.00119e-19)
(12.867 0.311107 0)
(13.2383 0.323031 -9.09523e-20)
(13.5365 0.320779 8.77748e-20)
(13.773 0.321524 1.68948e-19)
(13.9554 0.320366 -2.48492e-19)
(14.0917 0.318462 0)
(14.1901 0.315735 -7.8415e-20)
(14.258 0.311521 7.56862e-20)
(14.3018 0.308742 -2.23021e-19)
(10.0204 0.275217 5.9606e-20)
(11.6352 0.21731 2.13535e-19)
(12.3958 0.276913 -3.01219e-19)
(12.8797 0.254248 0)
(13.25 0.265916 4.53296e-20)
(13.5469 0.262841 8.71742e-20)
(13.7826 0.263321 -3.40807e-19)
(13.9645 0.262064 4.13806e-19)
(14.1007 0.260259 -1.62066e-19)
(14.199 0.257765 1.17806e-19)
(14.267 0.253961 0)
(14.3111 0.251234 7.49956e-20)
(10.0136 0.227905 -5.96256e-20)
(11.6398 0.16435 0)
(12.4058 0.221042 -4.96945e-20)
(12.8907 0.197386 9.57186e-20)
(13.2601 0.208579 1.36508e-19)
(13.5558 0.204631 -8.86295e-20)
(13.7907 0.2049 -4.27875e-20)
(13.9722 0.203566 4.15834e-20)
(14.1083 0.201893 8.04372e-20)
(14.2066 0.199743 -1.18663e-19)
(14.2746 0.196668 -3.85274e-20)
(14.3189 0.19289 -3.7324e-20)
(10.0053 0.18063 -8.9152e-20)
(11.6423 0.11122 1.35195e-19)
(12.414 0.165061 -7.55675e-20)
(12.9 0.140537 1.18947e-19)
(13.2686 0.151039 -2.06077e-19)
(13.5631 0.146178 1.76849e-19)
(13.7973 0.146295 -6.48022e-20)
(13.9785 0.144861 4.12677e-20)
(14.1144 0.143272 -1.6225e-19)
(14.2128 0.141265 5.97434e-20)
(14.2809 0.138562 3.85545e-20)
(14.3252 0.135153 3.77907e-20)
(9.99563 0.133589 -8.9724e-20)
(11.6432 0.0580296 2.73034e-20)
(12.4202 0.108977 2.52291e-20)
(12.9076 0.0836801 -2.38941e-20)
(13.2753 0.0932427 -2.27518e-20)
(13.5689 0.0875418 4.45459e-20)
(13.8024 0.0875659 2.14587e-20)
(13.9834 0.0860132 0)
(14.1192 0.0845283 0)
(14.2177 0.0827851 1.98148e-20)
(14.286 0.0807042 0)
(14.3306 0.0774391 0)
(9.98457 0.086622 -1.50517e-20)
(11.6424 0.00446106 1.34797e-20)
(12.4247 0.0530364 6.90156e-22)
(12.9136 0.0267699 -1.24202e-20)
(13.2803 0.0349271 0)
(13.5732 0.0288566 0)
(13.8062 0.0287753 1.13847e-20)
(13.9868 0.0270323 -2.09348e-20)
(14.1227 0.0256346 1.02511e-20)
(14.2213 0.0240554 6.22137e-22)
(14.2898 0.0222972 0)
(14.3345 0.0198103 0)
(9.97174 0.0398943 4.52702e-20)
(11.6395 -0.0493423 2.70088e-20)
(12.4275 -0.00307813 -1.35378e-20)
(12.9177 -0.0302859 3.74839e-22)
(13.2837 -0.0234226 -1.15249e-20)
(13.576 -0.0297666 1.11288e-20)
(13.8085 -0.0302283 -1.14682e-20)
(13.9889 -0.0320811 -3.13608e-20)
(14.1248 -0.0333596 -1.00067e-20)
(14.2236 -0.0346803 9.44761e-21)
(14.2923 -0.0358671 -9.73909e-21)
(14.3373 -0.0376874 0)
(9.95743 -0.00650835 4.5044e-20)
(11.6349 -0.102975 -8.15247e-20)
(12.4286 -0.0591988 1.28485e-20)
(12.9201 -0.087436 -2.38141e-20)
(13.2858 -0.0818178 3.50427e-20)
(13.5774 -0.0884462 3.36383e-20)
(13.8093 -0.0893411 1.07924e-20)
(13.9896 -0.0913071 1.04949e-20)
(14.1255 -0.0925161 1.0226e-20)
(14.2245 -0.0937145 2.99527e-20)
(14.2933 -0.0947538 -9.76414e-21)
(14.3379 -0.095394 5.71555e-20)
(9.9418 -0.0528201 -5.99188e-20)
(11.6282 -0.156614 -8.06416e-20)
(12.4279 -0.11533 1.27449e-19)
(12.9208 -0.144652 -2.40601e-20)
(13.2863 -0.140254 -1.14971e-19)
(13.5772 -0.147203 1.78339e-19)
(13.8087 -0.148511 -4.36685e-20)
(13.9889 -0.150588 0)
(14.125 -0.151762 4.10007e-20)
(14.2243 -0.152866 -1.99784e-20)
(14.2937 -0.154087 1.95063e-20)
(14.3392 -0.153287 -1.90994e-20)
(9.92448 -0.0989805 -1.21981e-19)
(11.6198 -0.210156 -5.80524e-22)
(12.4255 -0.171461 0)
(12.9199 -0.201916 -9.59674e-20)
(13.2852 -0.198667 9.28697e-20)
(13.5756 -0.205966 0)
(13.8067 -0.207672 3.39743e-23)
(13.9869 -0.209819 0)
(14.1232 -0.210873 -4.10003e-20)
(14.2229 -0.211585 0)
(14.2928 -0.212356 0)
(14.3392 -0.21102 -7.51262e-20)
(9.90568 -0.144811 6.0741e-20)
(11.6096 -0.263405 5.38136e-20)
(12.4213 -0.227502 -4.07387e-19)
(12.9173 -0.259172 3.86018e-19)
(13.2827 -0.257054 -1.85856e-19)
(13.5725 -0.264727 0)
(13.8033 -0.266804 -4.32962e-20)
(13.9835 -0.269019 0)
(14.12 -0.269983 0)
(14.22 -0.270418 0)
(14.2902 -0.2709 0)
(14.3369 -0.269513 -1.50969e-19)
(9.88555 -0.190342 1.21664e-19)
(11.5977 -0.316485 2.1816e-19)
(12.4154 -0.283543 0)
(12.9132 -0.316419 2.88775e-19)
(13.2786 -0.315388 -9.33875e-20)
(13.5679 -0.32347 0)
(13.7985 -0.325914 -8.57492e-20)
(13.9786 -0.328221 8.60675e-20)
(14.1154 -0.329132 1.65148e-19)
(14.2157 -0.32933 2.39575e-19)
(14.2862 -0.329372 -1.57362e-19)
(14.3333 -0.32861 7.56335e-20)
(9.86419 -0.235545 -4.87099e-19)
(11.5839 -0.369328 -1.09156e-19)
(12.4077 -0.339538 1.02065e-19)
(12.9074 -0.37363 -2.80333e-24)
(13.273 -0.373652 -9.25685e-20)
(13.5619 -0.382172 8.9348e-20)
(13.7922 -0.384991 8.57687e-20)
(13.9724 -0.387406 -2.53775e-19)
(14.1094 -0.3883 0)
(14.2101 -0.388381 -2.396e-19)
(14.2811 -0.388153 3.13071e-19)
(14.3284 -0.38727 -3.06717e-19)
(9.84116 -0.280781 2.43742e-19)
(11.5684 -0.422221 2.17751e-19)
(12.3983 -0.395429 -2.04889e-19)
(12.9 -0.430769 -9.66219e-20)
(13.2658 -0.431835 1.84237e-19)
(13.5544 -0.440805 -9.11591e-20)
(13.7846 -0.443981 -8.75711e-20)
(13.9649 -0.446497 8.4277e-20)
(14.1022 -0.447356 0)
(14.2034 -0.447225 0)
(14.2749 -0.446506 0)
(14.3226 -0.445498 8.13519e-22)
(9.8167 -0.325376 -2.43862e-19)
(11.551 -0.474555 0)
(12.3871 -0.451171 -5.94252e-23)
(12.891 -0.487805 0)
(13.2572 -0.489901 9.25301e-20)
(13.5456 -0.499321 -3.55533e-19)
(13.7756 -0.502848 2.6168e-19)
(13.956 -0.505469 -8.42949e-20)
(14.0938 -0.506298 0)
(14.1955 -0.506094 -3.18879e-19)
(14.2677 -0.505428 3.14772e-19)
(14.3162 -0.504001 -7.68932e-20)
(9.79098 -0.370021 -3.65922e-19)
(11.5319 -0.526919 2.18385e-19)
(12.3742 -0.506741 -3.06284e-19)
(12.8803 -0.544695 1.93095e-19)
(13.247 -0.547825 -2.77505e-19)
(13.5352 -0.557717 0)
(13.7651 -0.561566 0)
(13.9458 -0.564254 3.35166e-19)
(14.0839 -0.564941 -4.94273e-19)
(14.1862 -0.564263 -1.58612e-19)
(14.2591 -0.562678 1.58278e-19)
(14.3091 -0.562083 0)
(9.76353 -0.414267 0)
(11.511 -0.578903 -1.35238e-21)
(12.3596 -0.562105 -2.05386e-19)
(12.8681 -0.601439 -1.7315e-21)
(13.2353 -0.60558 -1.86564e-19)
(13.5234 -0.615949 5.33453e-19)
(13.7533 -0.620135 -3.47914e-19)
(13.934 -0.622918 1.66673e-19)
(14.0726 -0.623558 -1.65755e-19)
(14.1753 -0.622735 1.58315e-19)
(14.2485 -0.620714 -1.57977e-19)
(14.2988 -0.617825 3.01283e-19)
(9.73498 -0.458149 7.31695e-19)
(11.4886 -0.630538 2.18492e-19)
(12.3432 -0.617247 0)
(12.8542 -0.658005 3.85981e-19)
(13.2221 -0.663182 3.67786e-19)
(13.5101 -0.674049 -1.82007e-19)
(13.74 -0.678586 -3.47596e-19)
(13.921 -0.681494 2.33474e-22)
(14.0599 -0.682119 0)
(14.1631 -0.681213 0)
(14.2369 -0.678993 0)
(14.2872 -0.675265 0)
(9.70521 -0.501811 -7.31863e-19)
(11.4643 -0.682009 -2.18046e-19)
(12.3251 -0.672259 0)
(12.8387 -0.714415 -1.93004e-19)
(13.2074 -0.720622 -1.84452e-19)
(13.4954 -0.732002 -1.76453e-19)
(13.7253 -0.736895 3.56243e-21)
(13.9065 -0.739954 8.40025e-19)
(14.0459 -0.740594 -3.29239e-19)
(14.1497 -0.739637 0)
(14.2242 -0.737603 3.10307e-19)
(14.2751 -0.734102 -3.06425e-19)
(9.67373 -0.54528 -2.44052e-19)
(11.4383 -0.733262 1.35723e-21)
(12.3052 -0.727018 2.05256e-19)
(12.8217 -0.770633 0)
(13.1912 -0.777856 1.80353e-21)
(13.4793 -0.789752 3.57176e-19)
(13.7093 -0.795002 -3.43153e-19)
(13.8908 -0.798202 5.04845e-19)
(14.0307 -0.798816 0)
(14.1352 -0.797625 0)
(14.2104 -0.795113 0)
(14.2623 -0.791881 4.51069e-19)
(9.64074 -0.588283 -9.74363e-19)
(11.4104 -0.784024 -6.52385e-19)
(12.2836 -0.781433 6.12081e-19)
(12.8029 -0.826583 0)
(13.1734 -0.83485 -3.68283e-19)
(13.4617 -0.84727 -1.77771e-19)
(13.6919 -0.852866 0)
(13.8738 -0.85621 3.32843e-19)
(14.0142 -0.856836 -3.28258e-19)
(14.1194 -0.855577 0)
(14.1954 -0.853017 0)
(14.2479 -0.8489 -1.52146e-19)
(9.60642 -0.630979 9.71018e-19)
(11.381 -0.83446 -2.20042e-19)
(12.2602 -0.835547 -2.01547e-19)
(12.7826 -0.882251 1.94272e-19)
(13.1542 -0.891565 1.84079e-19)
(13.4427 -0.904511 -5.29809e-19)
(13.6731 -0.910454 3.45534e-19)
(13.8554 -0.913932 -3.34308e-19)
(13.9964 -0.914534 -3.24147e-19)
(14.1023 -0.913045 3.19778e-19)
(14.1791 -0.910084 0)
(14.2326 -0.905844 -1.50136e-19)
(9.5707 -0.673188 4.83066e-19)
(11.3498 -0.884401 -6.54305e-19)
(12.2352 -0.889318 -2.03195e-19)
(12.7607 -0.937621 1.1475e-18)
(13.1334 -0.947991 -7.37466e-19)
(13.4223 -0.961467 1.77168e-19)
(13.6529 -0.967756 6.82563e-19)
(13.8356 -0.971373 -5.03735e-19)
(13.9772 -0.971953 1.62386e-19)
(14.0839 -0.970331 0)
(14.1615 -0.967233 0)
(14.2158 -0.962913 1.51205e-19)
(9.53405 -0.714997 -7.20751e-22)
(11.3169 -0.933897 0)
(12.2084 -0.942787 6.04101e-19)
(12.737 -0.992693 -9.6149e-19)
(13.1111 -1.0041 -7.29025e-19)
(13.4004 -1.01813 7.0973e-19)
(13.6313 -1.02475 5.10125e-19)
(13.8145 -1.02849 -8.35547e-19)
(13.9567 -1.02906 -1.62459e-19)
(14.0641 -1.02719 -7.879e-19)
(14.1426 -1.02351 4.67513e-19)
(14.198 -1.01987 0)
(9.4954 -0.756739 -2.42769e-19)
(11.2822 -0.983361 0)
(12.1799 -0.995947 1.00733e-18)
(12.7118 -1.04745 -1.52881e-18)
(13.0873 -1.05992 3.69443e-19)
(13.377 -1.07448 -3.5167e-19)
(13.6083 -1.08145 1.70984e-19)
(13.7919 -1.08532 4.95365e-19)
(13.9349 -1.08592 -6.50701e-19)
(14.043 -1.08402 1.58155e-19)
(14.1223 -1.08017 4.59966e-19)
(14.1782 -1.07713 -6.04443e-19)
(9.45511 -0.797612 4.82936e-19)
(11.2457 -1.03194 4.3139e-19)
(12.1495 -1.04858 8.03189e-19)
(12.685 -1.10179 -1.52565e-18)
(13.0619 -1.11537 1.09779e-18)
(13.3522 -1.13048 -3.47176e-19)
(13.5839 -1.13781 3.44587e-19)
(13.768 -1.14183 3.31666e-19)
(13.9116 -1.1424 0)
(14.0207 -1.14032 0)
(14.1009 -1.13578 -3.03811e-19)
(14.1579 -1.13305 6.63625e-21)
(9.41398 -0.838088 -1.8653e-21)
(11.2077 -1.08004 -1.65134e-21)
(12.1175 -1.10079 0)
(12.6564 -1.15576 -3.77607e-19)
(13.035 -1.17046 1.0933e-18)
(13.326 -1.18613 -3.49649e-19)
(13.558 -1.19381 -6.74058e-19)
(13.7428 -1.19801 3.34247e-19)
(13.8871 -1.19858 3.18861e-19)
(13.997 -1.19648 -9.44696e-19)
(14.078 -1.19169 0)
(14.1355 -1.18963 -2.99036e-19)
(9.37144 -0.878162 -1.98566e-21)
(11.1677 -1.1277 4.26365e-19)
(12.0837 -1.15265 -4.04838e-19)
(12.6263 -1.20932 -1.13524e-18)
(13.0066 -1.22516 -3.56318e-19)
(13.2982 -1.24142 1.40028e-18)
(13.5308 -1.24944 1.39591e-21)
(13.7161 -1.25379 1.35702e-21)
(13.8612 -1.25435 3.21287e-19)
(13.9719 -1.25211 3.13604e-19)
(14.054 -1.24665 0)
(14.1129 -1.24339 8.86338e-19)
(9.32752 -0.91791 -4.81501e-19)
(11.1265 -1.175 -4.27829e-19)
(12.0481 -1.20399 -4.0117e-19)
(12.5944 -1.26246 -3.75585e-19)
(12.9766 -1.27946 7.26065e-19)
(13.269 -1.29633 -1.04145e-18)
(13.5022 -1.30471 3.44854e-19)
(13.6881 -1.30924 6.6059e-19)
(13.8339 -1.30982 0)
(13.9455 -1.30759 3.09147e-19)
(14.0284 -1.30214 -1.21771e-18)
(14.0875 -1.29868 5.99505e-19)
(9.2818 -0.957099 4.76016e-19)
(11.0829 -1.22178 -4.30774e-19)
(12.0108 -1.25498 -1.19214e-18)
(12.561 -1.3152 3.71722e-21)
(12.9451 -1.33333 0)
(13.2384 -1.3508 -3.46034e-19)
(13.4721 -1.35956 -3.35185e-19)
(13.6587 -1.36429 3.27404e-19)
(13.8054 -1.36493 0)
(13.9179 -1.36267 3.11368e-19)
(14.0019 -1.35725 6.03533e-19)
(14.0623 -1.35336 -6.69834e-21)
(9.23441 -0.995503 4.79074e-19)
(11.0378 -1.26766 0)
(11.9714 -1.30522 7.93726e-19)
(12.5258 -1.36735 -3.78522e-19)
(12.9119 -1.38672 -3.58037e-19)
(13.2063 -1.40479 1.03416e-18)
(13.4407 -1.41396 -1.0032e-18)
(13.628 -1.41887 9.78692e-19)
(13.7755 -1.41954 0)
(13.8891 -1.41712 -3.0684e-19)
(13.9742 -1.41132 9.08795e-19)
(14.0358 -1.40696 2.9331e-19)
(9.18625 -1.03335 -9.52334e-19)
(10.9913 -1.31293 4.23039e-19)
(11.9306 -1.35493 -4.25262e-21)
(12.489 -1.41904 -7.51987e-19)
(12.8773 -1.43964 7.14878e-19)
(13.1727 -1.45832 0)
(13.4078 -1.46789 -3.32331e-19)
(13.5959 -1.47301 -3.2474e-19)
(13.7444 -1.47375 0)
(13.8589 -1.47134 3.03843e-19)
(13.9451 -1.46564 -9.06199e-19)
(14.0078 -1.46124 -2.94515e-19)
(9.13692 -1.07085 0)
(10.9427 -1.35779 2.35212e-21)
(11.8879 -1.4042 1.18164e-18)
(12.4504 -1.47021 -7.03047e-21)
(12.8411 -1.49207 -1.78096e-18)
(13.1376 -1.51137 1.37057e-18)
(13.3736 -1.52132 -1.32532e-18)
(13.5625 -1.52663 6.48342e-19)
(13.7118 -1.5274 0)
(13.8274 -1.52483 0)
(13.9148 -1.51867 -2.97133e-19)
(13.9793 -1.51407 5.82502e-19)
(9.08569 -1.10776 0)
(10.8924 -1.40201 2.49281e-21)
(11.8434 -1.45289 -1.17423e-18)
(12.4102 -1.52084 7.46229e-19)
(12.8033 -1.54393 0)
(13.1011 -1.5639 6.78841e-19)
(13.3379 -1.57424 -3.32625e-19)
(13.5276 -1.57974 0)
(13.678 -1.58061 -6.22066e-19)
(13.7946 -1.57807 6.13527e-19)
(13.8831 -1.57206 -2.98817e-19)
(13.9484 -1.56753 0)
(9.03287 -1.14412 9.42268e-19)
(10.8406 -1.44567 4.20957e-19)
(11.7971 -1.50089 7.82739e-19)
(12.3682 -1.57086 0)
(12.7638 -1.59523 7.02224e-19)
(13.063 -1.61587 -3.45277e-19)
(13.3007 -1.62661 -6.6061e-19)
(13.4913 -1.63232 0)
(13.6427 -1.63323 3.10093e-19)
(13.7606 -1.63054 0)
(13.8504 -1.62412 0)
(13.9174 -1.61912 0)
(8.97845 -1.17965 4.66439e-19)
(10.7866 -1.48851 -8.39841e-19)
(11.7488 -1.54824 -3.90876e-19)
(12.3245 -1.62027 0)
(12.7228 -1.64594 6.98901e-19)
(13.0234 -1.66727 -3.40098e-19)
(13.2621 -1.6784 -6.50338e-19)
(13.4537 -1.68432 9.55182e-19)
(13.6061 -1.68529 -9.25892e-19)
(13.7252 -1.68261 9.08002e-19)
(13.8163 -1.67632 -8.8036e-19)
(13.8842 -1.67152 6.59631e-21)
(8.92276 -1.21437 1.8641e-18)
(10.731 -1.53037 -4.2128e-19)
(11.6987 -1.59484 0)
(12.279 -1.66899 1.09359e-18)
(12.6801 -1.69605 -6.68311e-21)
(12.9822 -1.71805 -6.75454e-19)
(13.2221 -1.72959 -3.23932e-19)
(13.4146 -1.73572 -2.17084e-21)
(13.5681 -1.73668 6.12049e-19)
(13.6884 -1.73379 -6.05686e-19)
(13.7808 -1.72687 1.16916e-18)
(13.8507 -1.72176 -1.13704e-18)
(8.86585 -1.24858 -9.2971e-19)
(10.6738 -1.57157 -4.15338e-19)
(11.6468 -1.64075 -3.8427e-19)
(12.2318 -1.71703 -2.62167e-21)
(12.6358 -1.7455 -3.46297e-19)
(12.9396 -1.76819 -6.6503e-19)
(13.1805 -1.78018 6.52024e-19)
(13.3741 -1.78655 -2.26463e-21)
(13.5287 -1.7876 0)
(13.65 -1.78472 -8.92974e-19)
(13.7435 -1.7776 5.83794e-19)
(13.8141 -1.77152 0)
(8.80744 -1.28215 4.68659e-19)
(10.6147 -1.61211 8.27263e-19)
(11.5931 -1.68594 1.14865e-18)
(12.1828 -1.76439 -1.09162e-18)
(12.5898 -1.79428 -3.40939e-19)
(12.8953 -1.81773 9.985e-19)
(13.1375 -1.8302 3.22426e-19)
(13.3322 -1.83682 -3.13215e-19)
(13.4879 -1.83804 -1.20924e-18)
(13.6105 -1.83536 1.19226e-18)
(13.7053 -1.82864 -2.90496e-19)
(13.7767 -1.82241 -1.12988e-18)
(8.74736 -1.315 -9.1622e-19)
(10.5538 -1.65189 1.63891e-18)
(11.5375 -1.73042 -3.85448e-19)
(12.132 -1.81104 3.58601e-19)
(12.5421 -1.84241 3.42121e-19)
(12.8496 -1.86659 -2.60277e-21)
(13.093 -1.87953 9.52531e-19)
(13.2889 -1.88639 -1.24673e-18)
(13.4459 -1.88775 0)
(13.5699 -1.88506 2.93364e-19)
(13.6664 -1.87846 0)
(13.7399 -1.87251 2.8046e-19)
(8.68565 -1.34704 -1.82241e-18)
(10.491 -1.69077 1.63581e-18)
(11.4799 -1.77406 -3.80704e-19)
(12.0794 -1.85692 -3.59324e-19)