/*--------------------------------*- C++ -*----------------------------------*\
| =========                 |                                                 |
| \\      /  F ield         | OpenFOAM: The Open Source CFD Toolbox           |
|  \\    /   O peration     | Version:  2.3.1                                 |
|   \\  /    A nd           | Web:      www.OpenFOAM.org                      |
|    \\/     M anipulation  |                                                 |
\*---------------------------------------------------------------------------*/
FoamFile
{
    version     2.0;
    format      ascii;
    class       volScalarField;
    location    "0.33";
    object      epsilon;
}
// * * * * * * * * * * * * * * * * * * * * * * * * * * * * * * * * * * * * * //

dimensions      [0 2 -3 0 0 0 0];

internalField   nonuniform List<scalar> 
9648
(
2416.92
2415.98
2414.88
2409.29
2398.97
2383.31
2362.71
2336.9
2305.82
2269.57
2228.38
2182.42
2132.56
2079.76
2024.84
1968.73
1912.54
1857.25
1803.55
1751.95
1702.97
1656.91
1613.89
1574.09
1537.51
1504.05
1473.62
1446.17
1421.65
1399.88
1380.76
1364.1
1349.73
1337.45
1327.18
1318.8
1312.24
1307.44
1304.4
1303.04
1303.2
1304.86
1307.97
1312.44
1318.36
1325.78
1334.64
1344.95
1356.77
1370.24
1385.37
1402.12
1420.74
1441.19
1463.44
1487.29
1512.53
1538.74
1565.17
1591.2
1616.43
596.014
588.85
580.531
571.282
563.263
558.893
557.566
558.281
560.878
565.391
571.571
578.747
586.495
594.437
602.237
609.529
616.143
622.055
627.268
631.726
635.54
638.78
641.502
643.834
645.909
647.793
649.536
651.207
652.889
654.636
656.49
658.525
660.792
663.28
666.007
668.981
672.206
675.661
679.383
683.414
687.742
692.397
697.367
702.648
708.211
714.066
720.215
726.638
733.321
740.267
747.424
754.761
762.223
769.843
777.476
785.098
792.552
799.948
807.143
814.062
820.661
234.905
238.05
242.702
249.661
258.783
269.718
282.537
296.854
312.584
329.332
346.883
364.781
382.686
400.257
417.206
433.3
448.375
462.348
475.172
486.841
497.387
506.852
515.321
522.884
529.645
535.693
541.111
545.988
550.389
554.4
558.092
561.535
564.785
567.873
570.835
573.695
576.463
579.176
581.828
584.46
587.132
589.84
592.598
595.373
598.14
600.916
603.7
606.493
609.287
612.051
614.777
617.459
620.06
622.633
625.061
627.444
629.684
631.918
633.984
635.926
637.735
131.654
141.531
152.916
166.006
180.777
197.126
214.96
234.042
254.114
274.805
295.787
316.676
337.149
356.903
375.697
393.33
409.679
424.673
438.287
450.536
461.456
471.102
479.562
486.931
493.322
498.84
503.585
507.651
511.121
514.078
516.6
518.758
520.61
522.227
523.65
524.928
526.112
527.147
528.084
528.932
529.707
530.51
531.292
532.073
532.86
533.633
534.436
535.244
536.052
536.841
537.587
538.323
539.026
539.713
540.331
540.94
541.535
542.108
542.635
543.126
543.619
97.0568
109.864
124.359
140.553
158.387
177.745
198.424
220.144
242.568
265.292
287.941
310.131
331.553
351.934
371.068
388.773
404.963
419.6
432.681
444.255
454.372
463.095
470.531
476.777
481.969
486.228
489.662
492.384
494.465
496.005
497.082
497.756
498.125
498.223
498.129
497.912
497.556
497.122
496.557
495.891
495.225
494.51
493.811
493.101
492.364
491.68
491.038
490.453
489.898
489.347
488.781
488.206
487.64
487.077
486.514
485.952
485.416
484.879
484.327
483.771
483.217
84.1341
98.8591
115.489
133.939
154.042
175.616
198.372
221.957
245.969
269.955
293.523
316.27
337.925
358.228
377.046
394.184
409.587
423.273
435.247
445.616
454.446
461.789
467.792
472.54
476.204
478.925
480.815
481.996
482.541
482.543
482.107
481.302
480.194
478.872
477.348
475.673
473.963
472.1
470.21
468.326
466.389
464.555
462.678
460.774
458.904
457.041
455.3
453.665
452.105
450.59
449.086
447.591
446.114
444.66
443.222
441.832
440.479
439.139
437.797
436.462
435.119
80.1407
96.5106
114.963
135.319
157.284
180.628
204.968
229.898
254.993
279.695
303.666
326.433
347.813
367.545
385.643
401.802
416.027
428.417
438.944
447.813
455.113
460.834
465.229
468.297
470.297
471.384
471.645
471.277
470.257
468.739
466.848
464.579
462.117
459.464
456.613
453.702
450.677
447.618
444.537
441.449
438.545
435.672
432.865
430.097
427.248
424.516
421.855
419.323
416.935
414.63
412.377
410.144
407.957
405.774
403.625
401.534
399.497
397.513
395.528
393.52
391.536
80.3635
98.2517
118.358
140.392
163.907
188.626
214.15
240.032
265.814
290.814
314.801
337.128
357.828
376.557
393.676
408.584
421.367
432.279
441.099
448.262
453.899
457.817
460.558
461.817
462.066
461.464
460.067
458.17
455.617
452.609
449.326
445.667
441.87
437.966
433.914
429.787
425.726
421.48
417.277
413.207
409.153
405.353
401.691
398.063
394.5
391.008
387.566
384.241
381.073
378.076
375.152
372.272
369.436
366.59
363.797
361.103
358.438
355.889
353.303
350.677
348.144
82.5618
101.653
123.225
146.517
171.397
197.08
223.33
249.997
275.993
301.125
324.763
346.532
366.16
383.584
399.504
413.065
424.329
433.614
440.941
446.412
450.155
452.226
453.072
452.7
451.256
448.834
445.88
442.524
438.344
433.931
429.233
424.318
419.462
414.278
408.84
403.77
398.532
393.197
388.149
382.848
377.634
372.495
367.995
363.622
359.268
355.327
351.001
347.004
342.878
339.159
335.364
331.873
328.46
324.893
321.436
318.293
314.893
312.056
308.824
305.467
302.487
1640.97
1664.68
1687.26
1708.68
1729.15
1749.1
1768.65
1788.09
1807.24
1825.4
1842.24
1858.32
1873.91
1889.38
1904.97
1921.34
1939.09
1958.73
1980.61
2005.19
2032.14
2060.94
2091.17
2122.45
2154.43
2187.08
2220.55
2254.48
2288.87
2323.73
2359.25
2395.29
2431.86
2469.14
2507.12
2545.71
2585.01
2625.16
2666.22
2708.05
2750.67
2794.33
2839
2884.52
2931.22
2978.97
3027.63
3077.27
3128.08
3180.11
3233.28
3287.46
3343.23
3400.16
3458.63
3518.43
3580.29
3644.2
3710.17
3778.09
3848.09
826.918
833.252
839.405
845.3
850.962
856.514
862.107
867.588
873.151
878.464
883.738
888.909
894.094
899.309
904.549
909.863
915.268
920.808
926.471
932.229
938.041
943.845
949.623
955.35
961.016
966.598
972.024
977.268
982.326
987.223
991.974
996.554
1000.98
1005.28
1009.44
1013.47
1017.39
1021.19
1024.88
1028.45
1031.91
1035.3
1038.59
1041.76
1044.86
1047.85
1050.74
1053.51
1056.18
1058.77
1061.24
1063.6
1065.85
1068.16
1070.27
1072.47
1074.62
1076.99
1079.23
1081.53
1083.95
639.513
641.212
642.959
644.673
646.361
647.949
649.614
651.18
652.728
654.133
655.491
656.796
658.124
659.422
660.692
661.925
663.115
664.26
665.347
666.365
667.299
668.15
668.905
669.561
670.113
670.557
670.888
671.103
671.193
671.165
671.007
670.726
670.325
669.798
669.163
668.413
667.552
666.578
665.492
664.292
662.982
661.568
660.056
658.432
656.707
654.869
652.905
650.81
648.588
646.244
643.748
641.151
638.412
635.562
632.519
629.392
626.176
622.883
619.501
616.066
612.64
544.086
544.554
544.99
545.415
545.808
546.171
546.497
546.815
547.062
547.209
547.297
547.344
547.328
547.23
547.08
546.864
546.584
546.232
545.799
545.279
544.672
543.978
543.2
542.332
541.371
540.309
539.148
537.887
536.525
535.062
533.498
531.825
530.046
528.166
526.194
524.129
521.97
519.717
517.365
514.917
512.379
509.763
507.073
504.316
501.491
498.597
495.613
492.538
489.366
486.115
482.756
479.299
475.758
472.115
468.344
464.453
460.489
456.437
452.327
448.195
444.067
482.667
482.092
481.495
480.869
480.217
479.504
478.738
477.97
477.2
476.379
475.524
474.627
473.671
472.659
471.586
470.45
469.281
468.04
466.727
465.338
463.879
462.354
460.769
459.129
457.423
455.646
453.796
451.872
449.879
447.818
445.683
443.464
441.161
438.778
436.328
433.811
431.224
428.558
425.81
422.982
420.085
417.128
414.127
411.095
408.04
404.961
401.824
398.655
395.416
392.131
388.777
385.344
381.855
378.292
374.634
370.874
367.03
363.098
359.142
355.17
351.198
433.79
432.452
431.11
429.724
428.315
426.873
425.391
423.897
422.362
420.804
419.207
417.589
415.933
414.228
412.479
410.696
408.887
407.015
405.076
403.072
401.011
398.905
396.767
394.605
392.404
390.153
387.853
385.504
383.123
380.711
378.263
375.754
373.186
370.554
367.882
365.17
362.399
359.574
356.673
353.699
350.666
347.58
344.469
341.357
338.264
335.2
332.109
329.027
325.915
322.814
319.674
316.471
313.246
309.954
306.614
303.147
299.615
296.006
292.407
288.767
285.149
389.572
387.621
385.664
383.696
381.691
379.644
377.568
375.492
373.381
371.222
369.051
366.875
364.667
362.434
360.157
357.865
355.575
353.235
350.828
348.348
345.811
343.253
340.683
338.128
335.563
332.958
330.322
327.648
324.981
322.33
319.713
317.058
314.386
311.663
308.941
306.197
303.392
300.55
297.644
294.669
291.63
288.522
285.392
282.276
279.197
276.222
273.226
270.311
267.387
264.567
261.752
258.857
255.972
253.031
250.082
246.957
243.817
240.567
237.409
234.182
231.006
345.613
343.144
340.666
338.232
335.773
333.33
330.813
328.37
325.898
323.314
320.735
318.2
315.621
313.019
310.337
307.686
305.111
302.497
299.816
296.991
294.085
291.2
288.297
285.438
282.638
279.802
276.934
273.971
271.033
268.175
265.489
262.787
260.16
257.502
254.922
252.358
249.658
246.891
244.112
241.321
238.422
235.394
232.34
229.282
226.244
223.424
220.522
217.801
215.069
212.615
210.227
207.691
205.206
202.66
200.172
197.395
194.684
191.802
189.158
186.397
183.736
299.273
296.301
293.166
290.377
287.428
284.906
282.047
279.609
277.143
274.447
271.742
269.296
266.604
263.938
260.983
258
255.369
252.836
250.308
247.52
244.31
241.319
238.247
235.139
232.214
229.34
226.565
223.457
220.131
216.998
214.264
211.527
209.015
206.558
204.45
202.412
200.049
197.395
194.828
192.458
190.018
187.198
184.298
181.446
178.498
175.932
173.033
170.511
167.866
165.905
164.056
161.879
159.891
157.818
155.904
153.432
151.185
148.605
146.53
144.272
142.238
3921.24
3997.05
4074.89
4154.78
4237.16
4322.93
4411.53
4502.9
4596.73
4693.23
4792.92
4894.48
4998.46
5108.93
5250.22
5374.89
5500.71
5629.12
5760.04
5893.45
6029.65
6168.7
6310.17
6454.3
6600.84
6749.08
6898.74
7049.54
7201.31
7353.16
7505
7656.23
7805.96
7953.6
8098.64
8239.65
8375.49
8504.89
8619.87
8704.7
8762.63
8795.32
8802.61
8782.74
8734.15
8654.41
8539.49
8384.77
8185.96
7938.44
7635.99
7271.74
6840.49
6333.79
5755.5
4769.33
4332.08
4110.24
4022.2
3983.8
3910.41
1086.62
1089.39
1092.38
1095.43
1098.58
1101.97
1105.9
1110.23
1115.03
1120.12
1125.68
1128.8
1130.26
1133.38
1137.09
1142.36
1147.63
1152.84
1158.2
1163.8
1169.67
1175.85
1182.28
1188.99
1195.95
1203.13
1210.58
1218.32
1226.38
1234.83
1243.7
1253.06
1263.03
1273.71
1285.23
1297.81
1311.62
1327.04
1345.14
1374.49
1409.92
1448.46
1490.14
1535.09
1584.01
1637.24
1694.86
1757.15
1824.41
1896.22
1971.72
2049.31
2127.23
2204.86
2275.31
2341.72
2399.19
2485.03
2587.75
2697.52
2673.59
609.194
605.755
602.285
598.799
595.261
591.75
588.351
585.105
581.916
578.696
574.886
569.161
563.362
558.352
553.86
550.024
546.235
542.326
538.356
534.377
530.429
526.509
522.61
518.731
514.869
511.02
507.194
503.394
499.64
495.929
492.281
488.719
485.254
481.93
478.775
475.836
473.161
470.82
468.94
468.033
468.281
472.653
480.845
492.321
507.527
527.108
551.772
582.534
620.388
666.414
721.627
786.815
863.142
951.053
1050.69
1159.14
1266.3
1382.65
1524.04
1706.29
1901.38
439.946
435.84
431.736
427.619
423.458
419.3
415.191
411.179
407.136
402.992
397.941
391.943
386.245
381.065
376.287
371.87
367.546
363.223
358.892
354.581
350.294
346.012
341.744
337.493
333.255
329.041
324.851
320.687
316.55
312.442
308.367
304.328
300.34
296.411
292.553
288.784
285.126
281.595
278.217
275.054
272.186
269.909
268.883
269.572
271.833
276
282.526
292.05
305.402
323.588
348.002
379.958
421.115
472.648
535.38
607.541
684.721
767.961
865.077
989.415
1147.35
347.248
343.364
339.503
335.623
331.677
327.733
323.806
319.96
316.076
312.074
307.226
301.945
297.005
292.459
288.172
284.127
280.172
276.299
272.474
268.709
264.982
261.243
257.523
253.829
250.15
246.5
242.877
239.283
235.709
232.157
228.628
225.129
221.664
218.244
214.877
211.574
208.347
205.207
202.162
199.23
196.437
193.845
191.581
189.986
189.197
189.219
190.271
192.648
196.775
203.178
212.638
226.142
244.878
270.114
302.926
343.535
390.542
443.331
503.929
577.624
671.096
281.533
278.04
274.579
271.12
267.523
263.932
260.333
256.85
253.335
249.749
245.424
240.952
236.785
232.961
229.282
225.77
222.313
218.999
215.767
212.631
209.542
206.412
203.318
200.267
197.226
194.226
191.243
188.293
185.347
182.416
179.496
176.604
173.738
170.916
168.14
165.422
162.769
160.19
157.687
155.271
152.956
150.763
148.731
146.945
145.647
144.738
144.339
144.566
145.623
147.78
151.397
156.99
165.22
176.85
192.765
213.559
239.378
270.268
306.776
350.441
404.338
227.746
224.684
221.667
218.702
215.481
212.292
209.04
205.991
202.92
199.877
196.13
192.421
188.953
185.847
182.763
179.822
176.865
174.126
171.472
168.934
166.448
163.862
161.358
158.941
156.514
154.14
151.759
149.419
147.051
144.697
142.331
140.005
137.702
135.455
133.244
131.096
129.002
126.98
125.023
123.148
121.357
119.673
118.102
116.679
115.459
114.603
114.014
113.757
113.93
114.666
116.149
118.627
122.412
127.931
135.654
146.078
159.622
176.607
197.478
222.983
254.362
180.82
178.189
175.642
173.248
170.421
167.669
164.759
162.201
159.625
157.202
154.006
150.977
148.107
145.688
143.138
140.773
138.271
136.096
133.979
131.965
130.015
127.871
125.891
124.109
122.251
120.438
118.565
116.778
114.895
113.033
111.122
109.304
107.5
105.786
104.085
102.46
100.86
99.3384
97.8743
96.5056
95.2089
94.0213
92.9433
91.9697
91.1302
90.5209
90.118
89.902
89.9381
90.2972
91.0768
92.3967
94.4242
97.3525
101.429
106.935
114.168
123.458
135.166
149.78
167.939
139.634
137.366
135.31
133.572
131.138
128.849
126.231
124.252
122.208
120.438
117.733
115.288
112.87
111.114
108.98
107.205
105.063
103.463
101.817
100.179
98.68
96.8293
95.3214
94.2692
92.8816
91.4731
89.9547
88.6792
87.1197
85.6322
84.0102
82.6758
81.2834
80.0718
78.7776
77.6023
76.3398
75.2153
74.1581
73.2324
72.3798
71.6292
70.9975
70.4505
69.9395
69.5348
69.3069
69.1901
69.2946
69.543
70.1739
71.103
72.5352
74.4312
77.0028
80.2815
84.5567
89.9183
96.7535
105.321
115.962
3768.32
3611.95
3444.55
3267.94
3091.3
2920.05
2757.4
2607.46
2474
2359.22
2263.68
2186.51
2126.25
2080.84
2047.67
2024.3
2008.58
1998.92
1993.89
1992.26
1993.34
1996.54
2001.41
2007.83
2015.74
2024.92
2035.28
2046.82
2059.6
2073.48
2088.43
2104.38
2121.23
2138.72
2156.75
2175.02
2193.2
2211.04
2228.3
2244.67
2259.7
2273.19
2284.95
2294.82
2302.89
2309.42
2314.55
2318.52
2321.89
2325.42
2329.46
2334.21
2340.21
2347.66
2356.25
2365.71
2375.77
2386.39
2396.59
2405.29
2411.87
2483.31
2278.33
2078.81
1885.52
1717.54
1562.66
1419.91
1289.58
1172.01
1067.88
977.367
899.998
834.903
780.425
736.195
701.434
674.638
653.883
637.647
624.838
614.705
606.652
600.296
595.392
591.777
589.298
587.848
587.404
587.924
589.397
591.83
595.201
599.503
604.699
610.737
617.544
624.991
632.962
641.295
649.79
658.18
666.142
673.251
679.053
683.135
685.098
684.605
681.514
675.953
668.317
659.208
649.421
639.868
631.344
624.205
618.792
614.838
612.01
609.358
606.103
601.619
1994.94
1988.08
1893.13
1720.8
1541.24
1367.34
1198.69
1044.86
907.723
786.171
681.046
592.025
517.868
457.312
409.308
372.227
343.732
321.051
302.991
288.726
277.45
268.486
261.307
255.519
250.837
247.047
244.002
241.612
239.815
238.572
237.851
237.646
237.936
238.685
239.864
241.43
243.343
245.558
248.013
250.628
253.305
255.935
258.39
260.502
262.11
263.013
263.018
261.954
259.727
256.307
251.807
246.55
240.992
235.706
231.17
227.927
226.198
226.024
227.145
229.24
232.025
1313.24
1462.56
1564.24
1588.35
1524.71
1403.08
1238.42
1067.75
910.61
765.791
638.807
532.463
444.557
373.847
318.252
274.962
241.242
214.558
193.48
177.008
164.211
154.314
146.663
140.704
136.003
132.241
129.211
126.768
124.812
123.272
122.105
121.284
120.779
120.551
120.56
120.768
121.135
121.622
122.184
122.77
123.324
123.791
124.108
124.215
124.053
123.566
122.71
121.454
119.797
117.747
115.354
112.743
110.115
107.746
105.962
105.187
105.775
107.895
111.531
116.618
123.264
785.701
919.492
1062.36
1192.1
1278.12
1302.09
1257.9
1156.63
1022.55
870.277
722.082
595.033
485.731
395.87
324.624
268.201
223.85
189.071
161.817
140.674
124.44
112.142
102.902
95.9344
90.6152
86.4857
83.2453
80.6864
78.6647
77.0671
75.828
74.9101
74.2729
73.8696
73.6563
73.5924
73.6392
73.7577
73.9091
74.0501
74.1354
74.1217
73.9673
73.6329
73.0844
72.2968
71.2623
69.9862
68.4797
66.7793
64.9453
63.08
61.35
59.9707
59.2351
59.4603
61.0447
64.3282
69.4963
76.7486
85.9689
471.48
555.038
656.246
771.833
890.191
994.084
1063.31
1081.65
1045.69
962.648
848.566
723.025
596.215
483.274
391.221
315.233
254.716
206.863
168.705
139.078
116.594
99.9058
87.6905
78.725
72.0535
66.999
63.1312
60.1559
57.863
56.0826
54.7159
53.7071
53.0024
52.5432
52.2783
52.1639
52.1579
52.2233
52.3222
52.415
52.4606
52.4235
52.2669
51.9605
51.4735
50.7896
49.9046
48.8302
47.5762
46.175
44.6777
43.1737
41.8001
40.7498
40.3029
40.8213
42.7732
46.5745
52.5497
60.8507
71.4161
293.296
341.987
402.779
477.312
564.922
661.362
757.16
838.447
890.656
902.663
871.383
803.457
710.737
606.95
504.512
407.794
326.711
260.814
205.798
162.497
129.53
105.374
88.0899
75.6658
66.6016
59.8592
54.8022
50.9997
48.1404
45.9588
44.3043
43.0897
42.242
41.6824
41.3476
41.1847
41.1474
41.1962
41.2931
41.3992
41.4749
41.4908
41.4109
41.2096
40.8534
40.3335
39.6431
38.7969
37.7967
36.6754
35.4731
34.2696
33.1846
32.386
32.1359
32.8218
34.9112
38.9332
45.3526
54.3974
66.0443
190.582
218.894
254.416
298.775
353.347
418.504
492.768
571.481
646.985
708.652
745.765
751.48
725.328
671.256
597.929
513.73
428.639
348.365
272.548
210.7
161.778
125.955
100.827
82.9955
70.0856
60.5498
53.4725
48.2585
44.4392
41.5663
39.4106
37.8282
36.7204
35.9734
35.5048
35.2459
35.1417
35.147
35.2219
35.326
35.4188
35.4777
35.4656
35.3603
35.1221
34.7498
34.2303
33.5841
32.8036
31.9227
30.9736
30.0318
29.203
28.638
28.5852
29.4187
31.6315
35.8334
42.6201
52.3357
64.9864
129.338
145.948
166.722
192.913
225.576
265.779
313.978
369.813
431.009
493.72
550.272
594.54
619.947
623.36
602.864
560.463
501.959
431.592
358.437
283.592
214.005
162.529
126.732
101.174
82.2563
68.2613
57.8942
50.4074
45.0411
41.0362
38.0713
35.8844
34.3498
33.2934
32.6021
32.1773
31.9515
31.8662
31.882
31.9467
32.0259
32.0989
32.13
32.0937
31.9493
31.6949
31.3208
30.8407
30.2485
29.5696
28.8408
28.1305
27.5437
27.2153
27.3778
28.3991
30.7777
35.185
42.2909
52.5867
66.047
1.43248
212.319
189.826
2.41528
2.05279
0.202848
0.000722974
89.1784
0.000791877
0.0145491
97.6816
6.99951
0.000723581
248.321
0.165873
136.361
0.000755926
90.9095
122.375
0.00072281
2.45105
237.412
200.605
0.000767939
0.000777159
0.209372
0.000723062
7.80231
0.000751767
0.000819279
5.89733
0.000784211
0.00869666
66.9359
3.97914
116.097
75.4692
15.8577
0.000724662
45.311
65.1562
28.089
0.000742552
103.745
176.05
0.717251
0.000878402
0.00849163
1.53431
7.21436
371.406
357.63
0.000709027
0.00103676
0.0643827
0.102717
0.00081606
9.05377
62.0615
284.48
138.718
0.000898816
1.68003
0.0249992
201.518
1.20745
41.3075
62.4141
0.0011312
0.000747592
9.51525
41.1267
55.8866
0.0118651
0.051321
82.7559
229.666
55.9004
0.000707636
5.46673
0.00232704
48.5906
0.0138837
111.095
0.000749909
8.65346
0.000786832
38.8599
0.0113775
0.00136154
0.230186
0.000706344
0.000930153
308.414
144.061
0.000864285
1.58355
1.65134
0.00183633
208.168
0.425732
31.2306
5.92813
0.000705471
0.000727006
0.000707267
1.41469
0.209888
0.000748826
175.051
223.706
0.00490396
239.685
28.1689
111.944
56.5285
30.2831
0.000977489
0.110728
0.00109967
0.00118964
192.946
0.0028004
288.99
416.333
28.0932
0.000745352
7.19372
7.02868
0.000743274
0.0297054
0.0268809
90.9809
0.0018061
66.1796
0.000748022
0.000725141
397.307
351.756
0.000746846
0.666524
150.253
0.229367
0.908725
28.2197
119.018
0.338079
29.3073
0.00520703
276.919
11.6977
0.0848467
49.3531
108.668
189.712
0.000767
0.000754887
0.516074
0.000768853
44.1924
0.124234
0.00144139
0.000743002
0.000746508
0.000758645
40.7364
68.7596
34.4121
0.000777466
287.2
307.723
403.469
167.383
0.00686448
163.389
45.8564
30.1456
0.000747284
0.00167612
193.087
71.0673
28.8461
72.5719
0.000743507
0.000840385
243.874
0.0296175
2.48848
0.000757753
0.000878364
0.172179
0.000798865
333.09
4.03271
0.000774421
0.684197
89.9609
141.207
0.00119561
56.1954
0.000744963
0.000748495
106.357
33.1817
302.66
0.00121256
0.000796388
0.00288739
42.2144
81.1529
9.89355
122.488
13.5625
233.139
0.809671
87.1238
83.1219
26.3644
10.7224
41.3349
0.00140812
0.0291307
0.000745958
0.000771231
30.3654
0.00999737
0.0117082
0.00183546
0.00623036
47.3866
201.164
0.0110289
170.404
7.54992
2.48483
0.000732298
0.505263
38.8344
7.31817
0.00106288
11.9879
35.0392
0.855382
2.99135
272.537
7.54902
4.98968
123.635
0.000953548
0.000727735
0.00101794
0.00425588
30.671
0.00078552
0.00229579
0.000724757
1.7516
74.2264
79.193
51.5419
12.5986
11.4412
326.208
0.00113914
51.1711
99.1341
0.000743246
84.9403
0.000749568
337.155
1.75063
53.796
0.00153028
0.00074768
20.306
7.62183
0.000759693
0.00074819
0.000753266
0.000750935
1.18573
35.8019
45.094
0.0111202
0.000760497
0.000725212
0.000704935
105.345
1.05819
0.00117885
19.1954
0.116238
0.0988656
0.000705845
0.784726
0.000760202
0.0953937
47.4075
276.458
3.51946
0.000987938
0.00184262
56.6156
0.346546
129.262
323.809
0.00083429
0.000739543
0.000733707
157.546
0.000769967
135.469
0.000749326
24.365
12.8088
0.0240874
143.307
244.556
0.00125989
52.4304
52.0575
88.9916
90.7628
8.16224
349.391
40.6584
70.0711
145.526
95.825
56.092
0.340342
338.677
281.28
65.5018
35.4186
0.00101504
270.27
128.594
231.281
0.0186803
0.00086123
0.000744988
0.000806826
0.689797
1.56211
5.8316
0.125022
0.00072771
171.42
0.000745734
28.1493
23.8215
193.325
40.121
18.9408
0.00190285
0.00110253
0.484806
88.8602
0.00433544
8.04074
263.438
38.2981
84.5265
192.766
62.0095
0.000819908
284.234
143.047
96.5473
0.000748829
193.907
152.97
0.000777571
32.2771
0.000749778
398.079
172.758
29.8306
82.2217
116.591
150.121
0.00076553
149.338
0.000956467
71.2374
81.6804
30.1519
280.527
3.65849
0.492716
2.57852
0.00109773
443.028
1.61637
0.00287225
0.00194393
259.314
0.000945116
93.1919
0.000740644
0.000748378
0.00182661
31.8441
0.19119
22.0135
0.00182507
84.3271
0.308548
218.985
281.201
38.7893
341.922
0.000795821
280.511
42.5563
0.000739997
79.0611
25.9842
0.000707857
0.000728295
119.993
0.00204927
25.436
0.478822
78.9734
0.0175078
3.46488
40.0884
118.623
33.259
80.9634
69.9755
0.0010164
0.0356908
30.8416
20.8819
332.093
343.391
140.345
0.0843593
124.472
123.379
3.39167
91.1532
46.3136
26.2957
0.000831681
84.8062
384.618
0.00106711
91.2938
19.1663
46.9454
0.0152312
0.0888697
270.747
0.00190436
327.97
0.00124116
1.81674
0.000737832
7.80631
167.296
0.555995
0.00131692
0.000905669
78.5718
28.4224
0.168136
5.56485
297.37
544.837
0.00144743
11.6911
28.9227
75.1316
27.6729
451.718
30.6723
154.968
52.1947
3.92224
6.95341
303.432
54.3003
355.179
172.708
0.323377
177.305
62.7882
0.000793795
91.6866
30.682
13.5207
0.00970477
97.0016
44.8541
4.16776
53.2594
0.00158372
0.000746739
0.0469784
27.7273
105.386
76.667
0.000749964
0.000732325
0.000741573
30.0695
0.0278622
0.000744709
0.245546
92.9347
276.466
0.00439083
0.00452131
0.000725417
0.000738351
0.00191265
29.8004
100.646
20.5406
1.89224
297.857
387.18
0.00150321
60.3379
29.8001
30.2936
76.4733
439.429
0.000822193
0.00442858
0.00074838
397.857
0.778566
0.000727354
10.5182
0.354259
303.104
0.000759417
324.627
8.78474
0.0629222
202.646
0.00074544
0.000733956
0.00103352
405.396
53.361
131.039
322.543
9.89876
30.6641
0.000713059
0.00183831
0.489145
0.00928913
0.01622
177.109
43.4921
0.000746385
25.5106
48.2702
185.07
407.893
0.00290941
411.336
0.00182114
0.0216013
152.549
0.000736799
147.254
0.000759693
0.000787586
0.0214252
36.2744
2.93042
321.738
61.814
0.000889864
30.391
506.836
0.0902576
2.3842
8.18341
0.000771123
0.000756608
0.00228967
136.499
5.50079
0.000786516
270.685
281.476
216.993
0.0364887
63.5653
0.00109053
30.2739
0.512774
0.131483
127.959
31.8962
149.355
174.867
0.000761386
0.00071531
0.00481233
74.695
103.428
5.92641
0.00656659
0.000775753
0.000747157
0.00341169
0.533044
0.00210048
76.7565
21.1479
0.00494988
27.8765
173.173
0.000759022
40.2579
0.000742091
3.25022
0.000762529
0.0131055
36.4505
0.0115518
0.000744455
4.06885
364.14
262.578
0.000732315
0.000750856
1.55854
0.489141
0.000747179
97.4087
0.000900525
34.2985
377.672
29.8649
87.1344
294.223
135.779
337.066
0.000745019
0.00248076
0.0114371
296.261
60.0589
200.551
4.3353
4.39426
102.375
170.921
126.546
3.54496
45.4169
0.00075003
1.52569
41.9167
33.2609
317.512
26.051
1.02876
41.1216
0.203163
0.0107973
42.2111
0.000748338
175.128
0.00089154
2.7263
294.068
185.301
3.03827
0.002485
7.1551
0.000765511
0.000735754
0.196828
0.0134753
53.3894
0.00859481
30.5796
0.000750278
0.0189516
0.000726117
96.3035
0.00191987
88.4615
299.871
0.0142172
166.991
374.5
0.000754133
98.4255
226.963
0.000787346
288.502
0.287938
0.000832319
0.000797249
281.325
0.000731628
0.00111715
0.122492
0.214534
433.661
271.229
0.000751493
0.000755198
7.66575
28.0223
0.00708321
2.88783
22.1919
0.000746908
0.000946324
0.00092113
169.741
272.263
3.42227
296.124
0.0171618
28.1443
0.000775425
0.00711461
0.016005
0.0432048
0.000748218
298.447
0.000741667
0.0159434
0.000772481
0.711482
0.0147057
0.0123814
2.45886
5.11786
36.9042
2.11645
9.30246
29.8297
190.15
0.00081305
168.504
327.01
12.7888
76.2143
0.000761521
270.857
79.5234
0.000743909
412.026
69.7165
0.00356232
0.00832379
162.864
162.032
0.122574
316.616
410.483
4.41451
432.862
264.145
128.853
53.9168
20.3326
28.1203
265.321
291.126
0.0142077
309.491
41.0536
412.088
0.000811994
1.583
2.31746
226.395
165.666
0.0117147
447.071
196.833
6.96961
0.0562659
2.76089
30.0654
0.00153298
30.1912
442.707
0.0291285
222.721
14.1487
94.2636
190.457
0.000744765
0.00166935
7.3826
5.32933
0.013372
0.000747722
0.826951
1.8169
0.00119868
0.000758734
269.101
7.08738
52.8615
10.7254
0.00311391
0.00107232
0.227791
90.819
0.000818731
21.9488
31.5019
1.84704
164.675
0.000997115
0.395539
0.0007399
2.41697
87.6989
0.00118886
0.184604
43.4367
165.874
0.503486
95.7571
5.13888
0.675048
0.000983244
33.4294
332.581
0.000743081
0.000757578
148.852
0.015639
0.000758309
73.5474
2.67673
163.451
31.5054
38.1482
0.313079
17.1804
208.942
162.882
246.993
0.000760852
278.034
0.000976306
36.2799
0.000802599
0.00126717
47.8313
0.0020839
260.514
0.0121009
0.0322333
45.563
7.74786
0.595775
0.000890201
186.093
0.000879986
0.000721093
345.092
162.168
40.9488
30.4351
0.000809479
0.000708458
19.1238
149.509
0.000732379
218.484
37.3631
0.000750974
170.565
0.000710537
3.37268
6.41687
10.6877
1.52251
76.0346
21.3643
0.000709809
270.41
328.472
0.000742492
0.0135401
30.8369
0.000713741
239.944
162.142
407.689
0.000743685
0.000728195
203.228
0.100552
0.000835244
31.559
80.3769
256.849
0.000722933
0.000794675
0.0156585
0.011528
0.000745549
0.00201885
126.719
53.1353
0.000745338
13.3605
0.000746572
10.055
0.00109015
0.00086075
27.3797
0.000751463
0.32399
0.000730596
49.448
2.17255
20.2912
186.928
365.22
151.978
5.20047
14.6989
0.000758276
5.67177
278.741
530.636
0.156945
0.000821608
129.9
0.000745256
0.125057
0.000722182
443.637
14.9813
3.14856
197.177
52.6419
4.97982
80.9964
7.77789
225.207
114.086
0.000770133
0.000759003
0.00305713
0.000759341
0.0140542
98.6431
0.000932071
250.861
0.00186222
0.209695
3.04952
156.456
0.00135755
42.0434
0.0138406
55.0479
30.6361
439.161
0.000802227
0.00095522
0.819064
85.4492
62.9005
66.0074
1.94715
7.96375
19.7371
0.0623065
9.8547
2.19948
32.3886
0.000758165
399.522
1.44089
56.0505
0.000786663
53.1183
16.2539
0.00130042
88.2108
17.2943
0.0841823
0.000718925
0.000744411
207.374
48.1081
15.106
0.000736564
0.0095248
53.7406
189.151
3.98632
0.00583796
0.000736764
147.676
130.984
38.1046
36.0224
0.00074143
105.127
437.415
0.000746837
0.000749153
18.5595
0.00107898
0.00381976
0.316827
47.5692
0.00105313
38.5061
345.81
0.000737079
0.000822562
0.000729329
0.000767304
67.0115
521.672
335.949
0.0204639
34.1029
49.9867
0.1325
45.0288
0.000832092
33.6547
0.532594
32.3509
5.26063
81.7625
104.993
0.439861
0.000759253
160.674
86.8413
282.358
5.74024
31.5639
0.525513
19.3491
0.00350022
0.00132379
156.214
144.081
0.0358223
1.49404
0.000752205
0.0997735
19.7041
0.0280519
13.7887
3.04986
387.385
38.8769
1.74549
275.22
140.72
59.0702
15.6519
204.27
192.919
3.17523
38.1837
0.00211569
47.3799
45.477
0.000743254
0.000715077
0.324388
0.000746882
0.000777645
60.0889
299.822
0.000743485
87.1817
0.00074319
0.000736311
0.000739257
0.00075517
0.00179702
31.3319
44.4347
250.665
0.000722204
0.000997561
6.71583
0.000849673
0.0281265
0.000762841
0.000876452
170.694
0.000975103
0.00465791
182.456
0.00421465
0.000749072
190.766
0.000744505
0.000758335
2.41128
0.000867998
6.32245
0.00124034
0.0238176
0.000743706
0.000753397
305.11
422.585
44.0165
0.0236286
113.013
16.1999
0.00130212
29.4044
314.382
236.001
481.494
0.000731882
26.0597
56.6649
0.262058
30.5193
102.736
0.351065
33.4402
2.00333
30.4625
0.333949
7.39872
0.000757709
221.765
0.00077661
30.7272
32.3725
0.000747627
0.919359
0.00242954
0.0172717
0.00072811
3.88322
0.000886841
0.000742564
42.3552
0.198165
0.164636
231.618
151.702
0.000821162
0.000968115
30.5225
261.685
0.000717595
0.000752081
0.19736
24.1085
147.68
0.00208195
15.8943
0.000744149
0.000813124
0.000721582
0.0279362
23.6959
0.00405401
275.067
31.4056
260.371
173.42
0.000837749
300.19
66.8907
0.000733131
0.000754083
0.000750337
0.00116353
0.000739397
127.621
0.000745238
0.000747602
352.934
1.21139
0.00264875
0.0220922
61.037
7.51717
0.00874845
0.000819571
186.561
0.000762745
7.50292
0.000755612
0.000839904
164.166
164.65
0.00331909
0.00084073
3.96825
0.000744012
370.796
0.000753488
151.307
0.0245095
8.50975
0.0422715
3.16663
2.51584
29.8399
0.0007611
0.000853702
0.00485282
59.7904
0.277019
304.389
0.000745727
0.00124467
0.0016363
258.145
62.2597
272.168
0.00224344
0.00348641
0.821773
0.000751044
20.0311
37.8456
0.00873463
272.013
181.213
45.0515
0.00153189
1.45083
169.388
226.469
29.8383
0.0104915
124.598
0.576928
134.14
0.144099
2.29143
42.3769
0.000761985
30.37
0.00122683
0.00502313
0.0033733
0.0473981
0.000899753
10.8719
0.000744966
47.0709
0.131783
0.000875711
2.06278
0.00075658
0.763418
0.226278
42.6463
3.8007
95.0819
0.804273
0.00074812
0.000730951
3.42062
0.156757
43.4126