/*--------------------------------*- C++ -*----------------------------------*\
| =========                 |                                                 |
| \\      /  F ield         | OpenFOAM: The Open Source CFD Toolbox           |
|  \\    /   O peration     | Version:  2.3.1                                 |
|   \\  /    A nd           | Web:      www.OpenFOAM.org                      |
|    \\/     M anipulation  |                                                 |
\*---------------------------------------------------------------------------*/
FoamFile
{
    version     2.0;
    format      ascii;
    class       volScalarField;
    location    "0.33";
    object      nut;
}
// * * * * * * * * * * * * * * * * * * * * * * * * * * * * * * * * * * * * * //

dimensions      [0 2 -1 0 0 0 0];

internalField   nonuniform List<scalar> 
9648
(
0.000272677
0.000272594
0.00027254
0.00027236
0.000272009
0.000271408
0.000270608
0.000269623
0.000268435
0.000267025
0.000265388
0.000263563
0.00026155
0.000259362
0.000257052
0.000254667
0.000252234
0.000249776
0.000247336
0.000244956
0.00024265
0.00024044
0.000238349
0.000236374
0.00023452
0.000232801
0.000231223
0.000229787
0.000228486
0.000227324
0.00022629
0.000225373
0.000224566
0.000223874
0.000223285
0.000222814
0.000222453
0.000222202
0.000222047
0.000221971
0.000221986
0.000222077
0.000222234
0.000222483
0.000222812
0.000223211
0.000223702
0.000224285
0.000224953
0.000225689
0.000226507
0.000227427
0.000228425
0.000229505
0.000230677
0.000231936
0.000233248
0.000234555
0.000235864
0.000237175
0.000238471
0.000453649
0.00045835
0.000463508
0.000469475
0.00047577
0.000481616
0.000488692
0.000498401
0.000510864
0.000526096
0.000544184
0.000565428
0.000589778
0.000617094
0.000647207
0.000680031
0.000715333
0.000752767
0.000792013
0.000832892
0.000875045
0.00091821
0.000962185
0.00100667
0.00105137
0.00109615
0.00114096
0.00118572
0.00123031
0.00127467
0.00131872
0.00136222
0.001405
0.00144707
0.00148844
0.0015291
0.0015692
0.00160892
0.00164807
0.00168647
0.00172405
0.00176065
0.00179624
0.00183078
0.00186449
0.00189725
0.00192904
0.00196004
0.00199025
0.0020195
0.00204775
0.00207502
0.00210152
0.00212679
0.00215149
0.00217543
0.00219923
0.0022219
0.00224408
0.00226602
0.00228791
0.000781231
0.000822667
0.000862698
0.000900855
0.000940074
0.000982497
0.00102739
0.00107592
0.00112762
0.00118325
0.00124217
0.00130498
0.00137156
0.00144182
0.00151554
0.00159244
0.00167221
0.00175433
0.00183834
0.00192383
0.0020103
0.00209743
0.00218473
0.00227186
0.00235847
0.00244435
0.00252942
0.00261351
0.00269667
0.00277884
0.0028599
0.00293974
0.00301823
0.00309522
0.00317048
0.00324421
0.00331652
0.00338768
0.00345822
0.00352777
0.00359599
0.00366262
0.00372741
0.0037909
0.00385309
0.00391401
0.00397368
0.00403208
0.0040891
0.00414494
0.00419956
0.00425304
0.0043059
0.0043567
0.00440771
0.00445663
0.00450533
0.00455109
0.00459702
0.00464215
0.00468661
0.00125011
0.00133002
0.00140833
0.00148551
0.00156341
0.0016435
0.00172609
0.00181174
0.00190051
0.00199313
0.00208935
0.00218957
0.00229354
0.00240132
0.00251247
0.00262663
0.00274337
0.00286214
0.00298242
0.00310366
0.00322544
0.00334719
0.00346854
0.00358914
0.0037087
0.00382693
0.0039437
0.00405888
0.0041725
0.00428466
0.00439553
0.00450524
0.00461367
0.00472034
0.00482496
0.00492691
0.00502642
0.00512487
0.005222
0.00531899
0.00541502
0.00550913
0.00560227
0.0056937
0.00578379
0.00587239
0.00595896
0.00604409
0.00612766
0.00621004
0.00629175
0.00637152
0.00645004
0.00652665
0.00660302
0.00667727
0.00674951
0.00681982
0.0068886
0.0069558
0.00702046
0.00179033
0.00190071
0.00201165
0.00212254
0.0022342
0.002348
0.00246472
0.00258466
0.00270836
0.00283621
0.00296814
0.00310415
0.00324416
0.00338799
0.00353507
0.00368481
0.00383662
0.00399002
0.00414438
0.00429924
0.00445402
0.00460825
0.00476149
0.00491343
0.00506382
0.00521248
0.0053591
0.0055036
0.00564609
0.00578667
0.00592585
0.00606379
0.00620036
0.00633553
0.00646776
0.0065972
0.00672416
0.0068481
0.0069719
0.007094
0.00721421
0.00733374
0.00745139
0.00756924
0.00768618
0.00780072
0.00791281
0.00802175
0.00812885
0.00823414
0.0083384
0.00844121
0.00854167
0.00863989
0.00873625
0.00883093
0.0089227
0.00901217
0.00909939
0.00918376
0.00926524
0.00233824
0.00247124
0.00260995
0.00275185
0.00289636
0.003044
0.00319545
0.00335116
0.00351119
0.00367571
0.0038445
0.00401719
0.00419374
0.00437366
0.00455661
0.0047418
0.00492825
0.00511573
0.00530339
0.00549085
0.00567767
0.00586316
0.0060471
0.00622893
0.00640866
0.00658606
0.00676099
0.00693349
0.00710337
0.00727121
0.00743699
0.00760083
0.00776316
0.00792284
0.00808052
0.00823527
0.00838727
0.00853914
0.00868675
0.00883236
0.00897442
0.00911137
0.00925046
0.00938961
0.0095292
0.00966805
0.00980217
0.00993208
0.0100584
0.0101822
0.0103045
0.0104249
0.0105432
0.0106583
0.0107712
0.0108808
0.0109875
0.0110916
0.0111927
0.0112897
0.011384
0.00286845
0.00302028
0.00318634
0.00336015
0.0035392
0.00372288
0.00391147
0.00410511
0.00430367
0.00450657
0.00471371
0.00492414
0.00513767
0.00535386
0.00557301
0.00579367
0.00601471
0.00623605
0.00645651
0.00667589
0.0068941
0.00711007
0.00732374
0.00753416
0.00774157
0.00794616
0.00814774
0.00834657
0.00854262
0.00873561
0.00892646
0.00911438
0.00929883
0.00948104
0.00965901
0.00983433
0.010011
0.0101839
0.0103587
0.0105276
0.0106858
0.0108411
0.0109919
0.0111462
0.0113035
0.0114581
0.0116115
0.0117585
0.0119006
0.0120387
0.0121739
0.0123071
0.0124372
0.0125643
0.0126877
0.0128081
0.0129253
0.0130387
0.0131481
0.0132534
0.013355
0.00337659
0.00354557
0.00373964
0.00394665
0.00416243
0.00438344
0.00461063
0.00484399
0.00508204
0.0053248
0.00557139
0.00582058
0.0060713
0.00632306
0.00657763
0.00683375
0.00708957
0.00734513
0.0075984
0.00784868
0.00809758
0.00834328
0.00858655
0.00882471
0.00905783
0.00928785
0.00951399
0.00973774
0.00995739
0.0101738
0.0103876
0.0105967
0.0108025
0.0110039
0.0111996
0.0113915
0.0115816
0.0117766
0.0119708
0.0121618
0.0123438
0.0125102
0.012674
0.0128377
0.0130009
0.0131661
0.0133295
0.0134905
0.0136446
0.0137915
0.0139342
0.0140738
0.0142116
0.0143453
0.0144743
0.0145993
0.0147205
0.0148388
0.0149524
0.0150602
0.0151633
0.00386888
0.00405098
0.00427287
0.00450976
0.00476407
0.00502071
0.00528486
0.00555937
0.00583374
0.00611703
0.00640158
0.00669294
0.00698042
0.00726688
0.00755171
0.00784231
0.00813236
0.00842242
0.00871313
0.00899138
0.00926863
0.00954473
0.0098179
0.0100884
0.0103439
0.0105972
0.0108457
0.0110916
0.0113352
0.0115718
0.0118085
0.0120392
0.0122584
0.0124791
0.0126954
0.0128985
0.013099
0.013303
0.0135078
0.0137216
0.0139254
0.0141189
0.0142967
0.0144684
0.0146348
0.0147956
0.0149646
0.0151311
0.0152973
0.0154453
0.0155921
0.0157283
0.0158663
0.0160063
0.0161391
0.0162584
0.0163794
0.0164924
0.0166083
0.0167173
0.0168143
0.000239671
0.000240771
0.000241845
0.000242891
0.000243891
0.000244818
0.000245712
0.000246612
0.000247501
0.000248331
0.00024908
0.000249815
0.00025052
0.000251197
0.000251878
0.000252609
0.000253397
0.000254244
0.000255177
0.000256229
0.00025737
0.000258578
0.000259845
0.000261139
0.000262437
0.000263753
0.000265097
0.000266448
0.000267796
0.000269152
0.000270518
0.000271887
0.00027326
0.000274649
0.000276042
0.000277446
0.00027887
0.000280313
0.000281763
0.000283218
0.000284699
0.000286199
0.000287715
0.000289257
0.000290816
0.000292372
0.000293943
0.00029555
0.000297181
0.000298808
0.000300451
0.000302135
0.000303829
0.00030553
0.000307267
0.000309046
0.000310857
0.000312652
0.000314492
0.000316413
0.00031842
0.00230987
0.00232954
0.00234879
0.00236796
0.00238672
0.00240429
0.00241977
0.00243429
0.00244634
0.00245831
0.00246867
0.00247831
0.00248682
0.00249423
0.00250043
0.00250518
0.00250856
0.00251042
0.00251085
0.00250991
0.00250777
0.00250466
0.0025005
0.00249543
0.0024895
0.00248275
0.00247522
0.00246676
0.00245748
0.00244731
0.00243621
0.00242428
0.00241155
0.00239793
0.00238348
0.00236828
0.00235225
0.0023355
0.002318
0.00229978
0.00228088
0.00226127
0.00224112
0.00222038
0.00219899
0.00217695
0.00215419
0.0021308
0.00210665
0.00208181
0.00205627
0.00203
0.00200313
0.001975
0.00194669
0.0019172
0.00188732
0.00185624
0.00182539
0.00179439
0.00176326
0.00472872
0.0047697
0.00480785
0.00484476
0.00488023
0.00491547
0.00494701
0.00497706
0.00500366
0.00502921
0.00505248
0.00507411
0.00509326
0.00511087
0.00512654
0.00514024
0.00515203
0.00516192
0.00516997
0.00517624
0.00518099
0.00518415
0.00518583
0.00518607
0.00518487
0.00518225
0.0051783
0.00517295
0.00516621
0.00515793
0.00514825
0.00513703
0.00512428
0.00511012
0.00509441
0.00507725
0.00505859
0.0050385
0.00501695
0.00499405
0.00496987
0.00494452
0.00491804
0.00489062
0.00486209
0.00483244
0.00480153
0.00476935
0.00473574
0.00470069
0.00466436
0.00462599
0.00458603
0.00454403
0.00450092
0.00445542
0.00440796
0.00435888
0.00430901
0.00425827
0.00420645
0.00708349
0.0071439
0.00720212
0.00725728
0.00731037
0.00736138
0.00740983
0.00745461
0.00749693
0.0075371
0.00757465
0.00760932
0.00764145
0.00767148
0.00769874
0.00772374
0.00774636
0.00776662
0.00778454
0.00780028
0.0078139
0.0078256
0.00783533
0.00784324
0.00784925
0.00785339
0.00785561
0.00785598
0.00785459
0.00785133
0.00784609
0.00783884
0.00782955
0.00781819
0.00780477
0.00778931
0.00777171
0.00775191
0.00772999
0.00770603
0.00768025
0.00765268
0.00762373
0.00759346
0.00756198
0.00752919
0.0074949
0.007459
0.00742143
0.00738192
0.00734058
0.00729692
0.0072507
0.00720188
0.00715076
0.00709674
0.00703956
0.00698015
0.00691922
0.00685631
0.00679202
0.00934364
0.00941978
0.00949291
0.00956273
0.0096289
0.0096923
0.00975285
0.00980949
0.00986272
0.00991347
0.00996093
0.0100054
0.0100471
0.0100859
0.0101219
0.0101555
0.0101855
0.0102128
0.0102372
0.0102587
0.0102776
0.0102941
0.0103083
0.0103203
0.01033
0.0103373
0.0103424
0.0103454
0.0103464
0.0103455
0.0103425
0.0103373
0.0103297
0.0103198
0.0103075
0.0102926
0.0102751
0.0102549
0.0102318
0.0102059
0.0101775
0.0101468
0.0101142
0.0100801
0.0100447
0.0100081
0.00997
0.00992986
0.00988823
0.009845
0.00979956
0.00975157
0.00970073
0.00964662
0.00958951
0.0095281
0.00946331
0.00939561
0.00932553
0.0092527
0.00917845
0.0114746
0.011562
0.0116453
0.0117257
0.011802
0.0118742
0.0119432
0.0120073
0.012068
0.012125
0.012179
0.0122296
0.0122769
0.0123209
0.0123614
0.0123989
0.0124327
0.0124633
0.0124903
0.0125134
0.0125332
0.01255
0.012564
0.0125754
0.0125841
0.0125899
0.012593
0.0125935
0.012592
0.0125888
0.012584
0.0125771
0.0125678
0.0125562
0.0125423
0.0125256
0.0125059
0.0124829
0.0124566
0.012427
0.012394
0.0123577
0.0123189
0.0122781
0.0122359
0.0121928
0.0121482
0.0121019
0.0120542
0.0120055
0.0119548
0.011901
0.0118445
0.0117849
0.0117215
0.0116531
0.0115807
0.011504
0.011425
0.0113431
0.011259
0.0134525
0.0135461
0.0136352
0.01372
0.0138008
0.0138776
0.0139498
0.0140173
0.0140809
0.0141403
0.0141957
0.0142478
0.0142966
0.014341
0.0143816
0.0144191
0.0144532
0.0144836
0.0145096
0.0145306
0.0145473
0.0145603
0.0145699
0.0145765
0.01458
0.0145799
0.0145761
0.0145687
0.0145588
0.0145475
0.0145357
0.014522
0.014507
0.0144899
0.0144716
0.0144509
0.0144263
0.0143982
0.0143667
0.0143319
0.0142932
0.0142501
0.014203
0.0141534
0.014102
0.0140505
0.0139964
0.0139412
0.0138844
0.0138286
0.013771
0.0137099
0.0136468
0.0135805
0.0135113
0.0134355
0.0133553
0.0132696
0.0131823
0.0130912
0.0129976
0.0152621
0.0153559
0.0154446
0.015528
0.0156067
0.0156801
0.0157492
0.0158141
0.0158753
0.0159319
0.0159837
0.0160322
0.0160774
0.0161187
0.0161545
0.0161863
0.0162163
0.0162435
0.0162664
0.0162834
0.0162937
0.0163001
0.0163026
0.016301
0.0162962
0.0162874
0.0162744
0.0162553
0.0162312
0.0162048
0.0161797
0.0161528
0.0161262
0.0160982
0.0160719
0.0160453
0.0160135
0.0159767
0.0159371
0.0158958
0.0158513
0.0158021
0.0157468
0.0156877
0.0156268
0.0155661
0.0155008
0.015435
0.0153663
0.0153009
0.0152356
0.0151648
0.0150931
0.0150196
0.0149447
0.0148617
0.0147743
0.0146796
0.0145842
0.0144846
0.0143832
0.0169125
0.0170019
0.0170879
0.01716
0.0172303
0.0172869
0.0173457
0.017392
0.0174408
0.017492
0.0175357
0.0175656
0.017601
0.0176357
0.0176643
0.0176841
0.017699
0.0177142
0.0177319
0.0177447
0.017746
0.0177453
0.0177432
0.017732
0.017716
0.0176957
0.017674
0.0176478
0.0176088
0.0175624
0.0175187
0.0174715
0.0174258
0.0173767
0.0173346
0.0172989
0.0172582
0.0172074
0.0171538
0.0171009
0.0170478
0.0169977
0.0169353
0.0168673
0.0168014
0.0167328
0.0166611
0.0165843
0.0165046
0.0164265
0.016352
0.0162685
0.0161827
0.0161022
0.0160184
0.0159319
0.0158369
0.0157369
0.0156319
0.0155258
0.0154156
0.000320425
0.000322411
0.000324476
0.000326618
0.000328808
0.000331001
0.000333227
0.000335516
0.000337845
0.000340198
0.000342573
0.00034499
0.000347429
0.000349954
0.000353139
0.000355927
0.0003587
0.000361462
0.000364226
0.000367017
0.00036982
0.000372638
0.000375478
0.000378321
0.000381153
0.000383981
0.000386805
0.000389614
0.00039239
0.000395135
0.000397838
0.00040049
0.000403078
0.000405604
0.000408042
0.000410389
0.000412637
0.000414762
0.000416616
0.000417964
0.000418893
0.000419416
0.000419531
0.000419234
0.000418469
0.000417172
0.0004153
0.00041279
0.00040952
0.000405337
0.000400106
0.00039366
0.000385715
0.00037593
0.000364126
0.000342028
0.000331245
0.000325442
0.000323065
0.000322047
0.000320123
0.00173158
0.00169988
0.00166764
0.00163522
0.00160258
0.00157003
0.00153699
0.00150423
0.00147132
0.00143883
0.0014071
0.00137492
0.0013434
0.00131216
0.00127695
0.00124236
0.00120818
0.00117463
0.00114179
0.00110968
0.0010783
0.00104747
0.00101716
0.000987356
0.000958045
0.000929267
0.000900996
0.000873285
0.00084611
0.00081948
0.000793432
0.000767989
0.000743142
0.000718938
0.000695434
0.000672648
0.000650678
0.000629599
0.000609148
0.000586435
0.000563129
0.000540721
0.000519366
0.000499249
0.00048046
0.000463199
0.000447736
0.000434332
0.00042325
0.000414821
0.000409406
0.000407432
0.000409334
0.000415789
0.00042474
0.000446476
0.000480129
0.000534337
0.000617722
0.000738055
0.000866095
0.0041541
0.00410104
0.00404708
0.00399166
0.00393497
0.00387729
0.00381854
0.00375915
0.00369909
0.003639
0.00357698
0.0035156
0.00345667
0.00339758
0.00333566
0.00327137
0.00320578
0.00314
0.00307434
0.00300909
0.00294409
0.00287901
0.00281385
0.00274864
0.00268325
0.00261778
0.00255215
0.0024864
0.00242039
0.00235419
0.00228771
0.00222091
0.00215386
0.00208646
0.00201878
0.0019508
0.00188258
0.00181407
0.00174513
0.00167435
0.00160144
0.00151696
0.00142478
0.00132968
0.00123281
0.00113538
0.001039
0.000945166
0.000855848
0.000773029
0.000698687
0.000634702
0.000582335
0.000543002
0.000516157
0.000506006
0.000515235
0.000548694
0.000615527
0.000729076
0.000891819
0.0067267
0.00666106
0.00659387
0.0065245
0.00645246
0.00637887
0.00630377
0.0062279
0.00615165
0.00607483
0.00599431
0.00591597
0.00584016
0.00576407
0.00568483
0.00560219
0.00551702
0.00543103
0.00534477
0.00525859
0.00517225
0.00508498
0.00499701
0.00490841
0.00481895
0.00472866
0.00463742
0.00454523
0.00445184
0.00435718
0.00426116
0.00416381
0.00406507
0.00396496
0.00386351
0.00376071
0.00365651
0.00355092
0.00344372
0.00333435
0.00322198
0.00310336
0.00297061
0.00282039
0.00265851
0.00248521
0.00230126
0.00210786
0.00190737
0.00170377
0.00150155
0.00130791
0.00112924
0.000972395
0.00084112
0.000740553
0.000674081
0.000641776
0.000645487
0.000692166
0.000791608
0.00910232
0.0090257
0.00894727
0.00886665
0.00878187
0.00869489
0.00860622
0.00851749
0.00842821
0.00833835
0.00824394
0.00815198
0.00806223
0.00797245
0.00787953
0.00778276
0.00768264
0.00758169
0.00748026
0.00737882
0.00727675
0.00717291
0.00706799
0.00696214
0.00685483
0.00674624
0.00663597
0.00652402
0.00640995
0.00629374
0.00617528
0.00605476
0.00593222
0.00580781
0.00568152
0.00555347
0.00542365
0.00529203
0.00515843
0.00502257
0.00488392
0.00474118
0.00459119
0.00442501
0.00424024
0.00403953
0.00382131
0.00358416
0.00332687
0.00305024
0.00275561
0.00244765
0.002135
0.0018299
0.00154632
0.00129881
0.00110007
0.000952985
0.000855177
0.000805667
0.000807954
0.0111719
0.0110845
0.0109955
0.0109042
0.0108077
0.0107083
0.0106063
0.0105051
0.0104039
0.0103025
0.0101959
0.0100915
0.00998891
0.00988722
0.00978196
0.00967294
0.00956017
0.00944728
0.00933386
0.00922043
0.00910583
0.00898823
0.00886969
0.00875042
0.00862908
0.00850601
0.0083805
0.00825268
0.0081217
0.00798788
0.0078511
0.00771205
0.00757082
0.00742783
0.00728292
0.00713638
0.00698818
0.0068384
0.0066869
0.00653356
0.00637794
0.0062195
0.00605681
0.00588613
0.00569691
0.00549231
0.00526955
0.00502713
0.00476191
0.00447107
0.00415252
0.00380481
0.00342968
0.0030347
0.00263201
0.00224246
0.00188905
0.00158799
0.00134609
0.00116462
0.00104303
0.0128994
0.0128013
0.0127022
0.0126015
0.0124935
0.0123818
0.0122666
0.0121534
0.012041
0.0119293
0.0118109
0.0116947
0.0115806
0.0114685
0.0113524
0.011233
0.0111093
0.0109868
0.0108637
0.0107408
0.010616
0.0104864
0.010357
0.0102276
0.010095
0.00996001
0.00982145
0.00968027
0.0095345
0.00938542
0.0092329
0.00907884
0.00892288
0.00876601
0.00860748
0.00844802
0.00828727
0.00812585
0.00796349
0.0078004
0.00763593
0.00746986
0.00730143
0.00712869
0.00694746
0.0067471
0.00653092
0.00629689
0.00604232
0.0057643
0.00545896
0.00512238
0.00475188
0.00434593
0.00390904
0.00345261
0.0029963
0.0025636
0.00217344
0.00183838
0.00156598
0.0142746
0.0141653
0.0140565
0.0139472
0.013829
0.0137058
0.0135782
0.0134529
0.0133301
0.013209
0.01308
0.012953
0.0128289
0.0127084
0.0125834
0.0124552
0.012323
0.0121925
0.0120618
0.0119318
0.0117981
0.011658
0.0115203
0.0113837
0.0112415
0.0110955
0.0109449
0.0107916
0.0106317
0.0104686
0.0103022
0.0101366
0.00996944
0.00980314
0.00963533
0.00946787
0.00929951
0.00913274
0.00896641
0.0088015
0.0086361
0.00847062
0.0083039
0.00813473
0.00796018
0.00777258
0.00756835
0.00734807
0.00711047
0.00685348
0.00657451
0.0062695
0.00593347
0.00556224
0.00515319
0.00470784
0.00423475
0.0037484
0.00326807
0.00281261
0.00239957
0.0153023
0.0151798
0.0150633
0.0149426
0.014819
0.0146833
0.0145475
0.0144071
0.0142766
0.0141448
0.0140095
0.0138714
0.0137417
0.0136127
0.013484
0.0133459
0.0132116
0.0130714
0.0129358
0.0128024
0.0126586
0.012512
0.012368
0.0122234
0.0120727
0.0119134
0.0117529
0.0115857
0.0114128
0.0112358
0.0110594
0.010886
0.0107111
0.0105389
0.0103663
0.0101953
0.0100249
0.00986157
0.00969999
0.00954333
0.00938425
0.0092273
0.00906885
0.00890811
0.00874384
0.00857161
0.00838172
0.00817575
0.00795681
0.00772825
0.00748086
0.00721643
0.00692314
0.00660293
0.00624543
0.00585392
0.00542079
0.00495733
0.00446659
0.00396372
0.0034691
0.000316199
0.0003117
0.000306796
0.000301493
0.000296001
0.000290421
0.000284908
0.00027965
0.000274806
0.000270492
0.000266776
0.00026372
0.000261283
0.000259397
0.000258003
0.000257028
0.000256372
0.000255955
0.000255728
0.000255659
0.000255703
0.000255838
0.000256055
0.000256332
0.000256661
0.000257047
0.00025749
0.000257983
0.000258518
0.000259101
0.000259723
0.000260382
0.00026107
0.000261786
0.000262511
0.000263246
0.00026398
0.0002647
0.000265383
0.000266022
0.000266617
0.000267149
0.000267608
0.000268006
0.000268325
0.000268567
0.000268755
0.000268917
0.00026906
0.000269187
0.000269332
0.000269528
0.000269756
0.00027003
0.000270355
0.000270733
0.000271125
0.00027149
0.000271846
0.000272186
0.000272488
0.000932313
0.000988508
0.00103364
0.00106169
0.00107388
0.00107546
0.0010641
0.00104023
0.00100618
0.000964117
0.000916096
0.000865373
0.000814495
0.000765611
0.000719138
0.000676668
0.000639621
0.000608643
0.000583365
0.000563299
0.000547703
0.000535784
0.000526787
0.000520109
0.000515284
0.000511981
0.000509938
0.000508954
0.000508866
0.000509532
0.000510821
0.000512605
0.000514737
0.000517062
0.000519436
0.000521716
0.000523736
0.00052535
0.000526395
0.000526719
0.000526174
0.000524621
0.000521935
0.000518003
0.000512763
0.00050621
0.00049842
0.000489582
0.000479991
0.000470088
0.000460418
0.000451584
0.000444151
0.000438547
0.000435073
0.000433747
0.000434412
0.000436701
0.000440214
0.000444439
0.000448976
0.0010628
0.00123506
0.0014037
0.00156031
0.00166289
0.0017439
0.00180123
0.0018296
0.0018319
0.00181174
0.00176987
0.00171048
0.00163759
0.00155482
0.00146446
0.00137078
0.00127934
0.00119585
0.00112166
0.00105917
0.00100886
0.000969976
0.000940983
0.000920074
0.000905597
0.000896257
0.000891052
0.000889179
0.000889969
0.000892843
0.000897346
0.000902952
0.00090913
0.000915357
0.000921096
0.000925871
0.000929205
0.00093065
0.000929756
0.000926135
0.000919466
0.000909547
0.000896268
0.000879674
0.000859863
0.000837128
0.000811855
0.000784588
0.000755984
0.000726989
0.000698847
0.000673057
0.000651425
0.000635641
0.00062727
0.000627193
0.000635685
0.000652355
0.000676386
0.000706633
0.000741794
0.000940766
0.00113404
0.00136017
0.00160038
0.00181972
0.0020185
0.00220159
0.0023387
0.00243349
0.00249816
0.00252993
0.00253029
0.00250418
0.00245344
0.00237966
0.00228592
0.0021765
0.00206147
0.00194817
0.00184291
0.00175052
0.00167435
0.00161519
0.00157185
0.00154212
0.00152391
0.00151532
0.00151478
0.00152079
0.00153201
0.00154736
0.00156575
0.00158593
0.00160662
0.00162665
0.00164483
0.00166002
0.00167108
0.00167691
0.00167647
0.00166884
0.00165331
0.00162939
0.00159686
0.00155572
0.00150648
0.00144988
0.001387
0.00131901
0.00124773
0.00117544
0.00110525
0.00104112
0.000987997
0.000951417
0.000935983
0.000943544
0.000973686
0.00102408
0.00109125
0.00116931
0.000866397
0.00098479
0.00116438
0.00139783
0.00166187
0.00193601
0.00220518
0.00244735
0.00265586
0.00283774
0.00297687
0.0030663
0.00312324
0.00314765
0.00314062
0.00310707
0.00304902
0.00296753
0.00287348
0.00277583
0.00268033
0.00259397
0.00252193
0.00246667
0.00242826
0.00240577
0.00239787
0.0024032
0.0024198
0.00244572
0.0024794
0.00251911
0.00256286
0.00260851
0.00265406
0.00269751
0.00273686
0.00277018
0.00279543
0.0028107
0.00281417
0.00280443
0.00278012
0.0027404
0.00268451
0.00261267
0.00252522
0.0024232
0.00230793
0.00218145
0.00204656
0.00190761
0.00177028
0.00164276
0.00153653
0.00146556
0.00143632
0.00145017
0.00150337
0.0015841
0.00168295
0.000983036
0.000986869
0.00105803
0.00119896
0.00140516
0.00166497
0.00196
0.00226416
0.00255567
0.00282307
0.00305396
0.00324319
0.00340056
0.00351374
0.00358237
0.00362507
0.00364315
0.00363899
0.00361939
0.00358772
0.00355032
0.00351177
0.00347693
0.00345009
0.00343466
0.00343207
0.00344309
0.00346852
0.00350726
0.00355747
0.00361776
0.00368621
0.00376042
0.00383766
0.00391528
0.00399054
0.0040608
0.00412327
0.0041751
0.00421353
0.00423588
0.00424006
0.00422392
0.00418586
0.00412416
0.00403864
0.00392881
0.00379525
0.00363856
0.00346059
0.00326366
0.00305212
0.00283192
0.002612
0.00240669
0.00223678
0.00211533
0.00205549
0.00206013
0.00211926
0.00221729
0.00136106
0.00122631
0.0011637
0.00117531
0.00126214
0.00142295
0.00165153
0.0019331
0.00224582
0.00256546
0.00286883
0.00314014
0.00337428
0.00356618
0.0037188
0.00384724
0.00394125
0.00400741
0.00406337
0.00411189
0.00416193
0.00421239
0.00426274
0.00431384
0.00436681
0.00442309
0.00448547
0.00455761
0.00463985
0.00473109
0.0048307
0.00493712
0.00504835
0.00516167
0.00527441
0.00538364
0.0054863
0.00557905
0.00565841
0.00572096
0.00576346
0.00578323
0.00577769
0.00574477
0.0056818
0.00558798
0.00546205
0.00530404
0.00511402
0.00489308
0.00464283
0.00436691
0.00406997
0.00375946
0.00344834
0.00315725
0.00291117
0.00273795
0.00265598
0.00266416
0.00274322
0.00204273
0.00175303
0.00153742
0.00140035
0.00134363
0.00136761
0.0014711
0.00164976
0.00189412
0.00218742
0.00250647
0.00282686
0.00312965
0.00340004
0.00363276
0.00383092
0.00399656
0.00413603
0.00426719
0.00437615
0.00449749
0.00462753
0.00476423
0.00490626
0.0050541
0.00520499
0.00535728
0.0055092
0.00566263
0.0058187
0.00597686
0.00613549
0.0062934
0.0064491
0.0066005
0.00674538
0.00688095
0.00700361
0.00710937
0.00719436
0.00725579
0.00728983
0.0072942
0.00726669
0.00720405
0.00710414
0.006966
0.00678777
0.0065702
0.00631312
0.00601805
0.00568692
0.00532264
0.00493116
0.00452173
0.00411459
0.00373984
0.00344186
0.00325775
0.00320092
0.00325144
0.00299723
0.00257075
0.00220478
0.00190914
0.00169412
0.00156352
0.00151865
0.00155726
0.00167582
0.00186749
0.00211952
0.00241534
0.00273574
0.00305938
0.00336792
0.00365465
0.00390538
0.00412062
0.00430338
0.00446189
0.00464684
0.00482952
0.00501926
0.0052236
0.00544931
0.00569054
0.00594198
0.00619628
0.00644764
0.00669298
0.00693236
0.00716203
0.00737939
0.00758771
0.00778375
0.00796837
0.00813963
0.00829389
0.00842648
0.00853252
0.00861339
0.00865959
0.00867354
0.00865084
0.00859058
0.00848586
0.00834029
0.00814338
0.00790384
0.00761522
0.00728417
0.00690677
0.00648463
0.00602632
0.00553396
0.00502602
0.00453845
0.00412896
0.0038482
0.00372708
0.00374475
0.00517975
0.0183637
0.018648
0.00181184
0.00530522
0.00711768
0.00125016
0.00573311
0.00128853
0.00334349
0.0106586
0.015021
0.00125
0.0133554
0.00667562
0.0197959
0.00126295
0.00612424
0.0100713
0.00125235
0.00180898
0.0132221
0.0181372
0.00127693
0.00127851
0.00478638
0.00125237
0.00298651
0.00125952
0.0013143
0.00709437
0.00126773
0.00272562
0.00875133
0.0141209
0.00938657
0.00822977
0.0142006
0.00124683
0.0145172
0.00496054
0.0131816
0.00124697
0.0195825
0.00524458
0.00996508
0.00135458
0.00242155
0.00119443
0.0152222
0.0106049
0.0152846
0.00124468
0.00143811
0.00193348
0.000196233
0.00131164
0.00462438
0.00905262
0.0176783
0.0040102
0.00135512
0.00128147
0.00368676
0.0190889
0.00552285
0.00927419
0.00422565
0.00148035
0.00124276
0.0135013
0.0144529
0.00477454
0.000628309
0.00269152
0.0183129
0.0185169
0.0173567
0.00124295
0.0145278
0.00194042
0.0136817
0.000789606
0.0190021
0.00124277
0.0121009
0.00128449
0.0118416
0.00174532
0.00158971
0.00563622
0.00124262
0.00137842
0.0170583
0.0191329
0.00133991
0.0109675
0.00450058
0.00177522
0.0191369
0.00275183
0.0176945
0.00851607
0.00124254
0.00124196
0.00124435
0.00598723
0.00669414
0.0012637
0.0195388
0.018853
0.001605
0.00793981
0.00762121
0.00520674
0.0122974
0.0102285
0.00140286
0.00597311
0.00143428
0.00131989
0.00557833
0.00161466
0.0171925
0.012896
0.00305663
0.00124658
0.0133506
0.0137973
0.00124659
0.00349271
0.00377369
0.0028853
0.00156734
0.0130951
0.00124624
0.00124206
0.0134392
0.0157284
0.001253
0.00329142
0.0193697
0.00430611
0.00909091
0.0082208
0.01714
0.000444425
0.00887554
0.00250063
0.0162527
0.0123457
0.000198574
0.0145154
0.0189281
0.0192186
0.00128537
0.00126715
0.00829029
0.0012423
0.00844644
0.000737564
0.00161908
0.00124309
0.00124782
0.00124302
0.0178521
0.00404017
0.00647601
0.00128786
0.0144061
0.00671478
0.0022178
0.0129078
0.00252255
0.00768346
0.0057243
0.0115157
0.00125837
0.00170974
0.0039327
0.0125255
0.0134522
0.0174306
0.00124789
0.00132541
0.0089274
0.0039799
0.0116744
0.00124534
0.00135555
0.00573009
0.00129741
0.0163499
0.0105693
0.0012414
0.0086909
0.00325484
0.0183945
0.00151223
0.00651646
0.00124784
0.00125357
0.020062
0.0160034
0.0157724
0.00152018
0.00129334
0.00182458
0.0162651
0.00586114
0.0109073
0.0184295
0.01516
0.0187333
0.0039331
0.0196505
0.0185663
0.0130573
0.0156553
0.0121878
0.00150706
0.00419827
0.00125147
0.001261
0.0106167
0.00298046
0.00313381
0.00153728
0.00244703
0.0146624
0.00988485
0.00287587
0.0186536
0.0140328
0.00478361
0.00124477
0.00450306
0.0181243
0.0133219
0.00144767
0.00961737
0.00329184
0.00335311
0.00258324
0.0177002
0.00742044
0.00421725
0.0197141
0.00138782
0.00124301
0.00142378
0.00230766
0.00964835
0.00129728
0.00158219
0.00124572
0.00771864
0.0191665
0.0185285
0.0138276
0.0120442
0.0163069
0.0161953
0.0014843
0.00826288
0.0185215
0.00124635
0.00428709
0.00124288
0.00447145
0.00765422
0.0041703
0.00165254
0.00124683
0.0159319
0.00297086
0.00124299
0.00125512
0.00125848
0.00126105
0.00986081
0.00654005
0.0181332
0.00176148
0.00124293
0.00124386
0.00124262
0.019493
0.004076
0.00150651
0.0130673
0.00597162
0.00153091
0.00124408
0.00805777
0.0012427
0.00223669
0.0040654
0.00722206
0.00245538
0.00141271
0.00173682
0.0170094
0.00510251
0.00261902
0.0161024
0.00131551
0.00124349
0.00124528
0.0196564
0.00127396
0.0150716
0.00124588
0.0133536
0.0103114
0.00269936
0.00550679
0.00592265
0.00154519
0.0134308
0.013577
0.00273453
0.0214528
0.0108561
0.0158385
0.014027
0.0192061
0.00842979
0.019426
0.00470731
0.00668042
0.0160061
0.0174707
0.0130333
0.0121356
0.00140065
0.0161893
0.00538567
0.0185993
0.00363349
0.00133242
0.0012469
0.00129799
0.0039709
0.0102784
0.0071626
0.00616986
0.00124896
0.0195065
0.00124651
0.00711167
0.0144601
0.0193258
0.0144759
0.0162241
0.00166734
0.00147357
0.00145574
0.00819639
0.00220845
0.00611116
0.00930921
0.0106765
0.018589
0.0180889
0.0165888
0.00131283
0.0173287
0.0191116
0.00283644
0.00125432
0.0190762
0.0194188
0.00127785
0.011478
0.00125525
0.0104994
0.016483
0.0112267
0.0194654
0.00500868
0.01963
0.00127498
0.0197112
0.00138947
0.0173247
0.017916
0.0116602
0.0174444
0.0128969
0.00833394
0.0106299
0.00147135
0.0037572
0.00130188
0.00205358
0.00123557
0.0070095
0.00138285
0.0186831
0.00124315
0.00125561
0.00175949
0.0093835
0.00521314
0.0141243
0.00154262
0.019556
0.00786128
0.0185747
0.00617396
0.016596
0.0102684
0.00129757
0.0174776
0.0179919
0.00124938
0.0178462
0.0149628
0.00124423
0.0012418
0.00896304
0.00182659
0.0125788
0.00145373
0.00655414
0.00365576
0.009682
0.0161342
0.018116
0.0160699
0.0172334
0.0178926
0.00139943
0.00121173
0.0090089
0.0119427
0.01575
0.0110292
0.018458
0.00460548
0.0192752
0.0192561
0.00664972
0.00293425
0.0161647
0.0149963
0.00132004
0.0184031
0.0144167
0.00144662
0.0193641
0.0166928
0.0162325
0.0034387
0.00468092
0.0129057
0.00166981
0.0159296
0.00153917
0.00325505
0.00125146
0.0114206
0.00284407
0.00863173
0.00156894
0.00136379
0.00868354
0.00867326
0.0015152
0.00267572
0.0105395
0.0027527
0.00128706
0.0162386
0.00900006
0.0130877
0.0077575
0.00351303
0.0120025
0.0170332
0.0183284
0.00726089
0.0120753
0.0167394
0.00615389
0.0150706
0.019602
0.000391177
0.00592144
0.0121885
0.00129585
0.00318102
0.00787086
0.0120981
0.00275913
0.0213141
0.00426557
0.0106224
0.00629371
0.00167784
0.00124541
0.000983277
0.0171257
0.0177046
0.00844651