/*--------------------------------*- C++ -*----------------------------------*\
| =========                 |                                                 |
| \\      /  F ield         | OpenFOAM: The Open Source CFD Toolbox           |
|  \\    /   O peration     | Version:  2.3.1                                 |
|   \\  /    A nd           | Web:      www.OpenFOAM.org                      |
|    \\/     M anipulation  |                                                 |
\*---------------------------------------------------------------------------*/
FoamFile
{
    version     2.0;
    format      ascii;
    class       volScalarField;
    location    "0.33";
    object      p;
}
// * * * * * * * * * * * * * * * * * * * * * * * * * * * * * * * * * * * * * //

dimensions      [0 2 -2 0 0 0 0];

internalField   nonuniform List<scalar> 
9648
(
0.0384592
-0.208017
-0.508237
-0.876022
-1.32299
-1.85973
-2.49774
-3.2452
-4.11047
-5.11136
-6.25901
-7.56631
-9.04584
-10.7083
-12.5629
-14.6195
-16.886
-19.3709
-22.0774
-25.0095
-28.1721
-31.5614
-35.1768
-39.0134
-43.0669
-47.3277
-51.7849
-56.4292
-61.2427
-66.2168
-71.3312
-76.5705
-81.9203
-87.3496
-92.836
-98.3476
-103.874
-109.41
-114.941
-120.457
-125.941
-131.386
-136.746
-141.991
-147.086
-151.988
-156.702
-161.226
-165.579
-169.73
-173.642
-177.312
-180.739
-183.889
-186.765
-189.354
-191.643
-193.639
-195.32
-196.699
-197.763
0.609726
0.359718
0.0580231
-0.305843
-0.746054
-1.26524
-1.87621
-2.59382
-3.42963
-4.39278
-5.49441
-6.74639
-8.15979
-9.74503
-11.5118
-13.4688
-15.6238
-17.9834
-20.5524
-23.3346
-26.3326
-29.5455
-32.9717
-36.607
-40.4465
-44.4818
-48.7033
-53.0999
-57.6573
-62.3638
-67.2035
-72.1627
-77.2272
-82.3706
-87.5652
-92.7835
-98.0126
-103.245
-108.467
-113.674
-118.857
-124.002
-129.081
-134.05
-138.862
-143.489
-147.932
-152.191
-156.267
-160.157
-163.842
-167.303
-170.526
-173.496
-176.2
-178.634
-180.78
-182.649
-184.219
-185.494
-186.458
0.428757
0.198887
-0.0773604
-0.411641
-0.81047
-1.2928
-1.86593
-2.54167
-3.33049
-4.24559
-5.29747
-6.49803
-7.85796
-9.38713
-11.0951
-12.9901
-15.0797
-17.37
-19.8657
-22.5705
-25.4864
-28.613
-31.9486
-35.4892
-39.2293
-43.1618
-47.2776
-51.5656
-56.0123
-60.6032
-65.3219
-70.1529
-75.0822
-80.0905
-85.157
-90.2683
-95.4096
-100.559
-105.69
-110.775
-115.814
-120.804
-125.732
-130.57
-135.269
-139.809
-144.182
-148.38
-152.392
-156.203
-159.8
-163.175
-166.324
-169.222
-171.871
-174.252
-176.372
-178.199
-179.743
-181
-181.978
0.666389
0.431852
0.153281
-0.178362
-0.57226
-1.03967
-1.59153
-2.23935
-2.99464
-3.86978
-4.87663
-6.02666
-7.33043
-8.79769
-10.4383
-12.26
-14.27
-16.4744
-18.8773
-21.4825
-24.2917
-27.3038
-30.5172
-33.9271
-37.5288
-41.3154
-45.2805
-49.4147
-53.7051
-58.132
-62.6728
-67.3072
-72.0175
-76.7981
-81.6521
-86.5809
-91.5898
-96.625
-101.624
-106.555
-111.381
-116.133
-120.816
-125.391
-129.849
-134.17
-138.365
-142.421
-146.299
-149.971
-153.42
-156.643
-159.643
-162.408
-164.931
-167.2
-169.209
-170.945
-172.405
-173.585
-174.484
0.726547
0.52622
0.280101
-0.0206732
-0.384003
-0.819422
-1.33686
-1.94697
-2.66192
-3.49268
-4.45192
-5.54967
-6.79672
-8.20172
-9.77539
-11.5242
-13.4556
-15.5755
-17.8867
-20.3934
-23.097
-25.9951
-29.0869
-32.3665
-35.8302
-39.4741
-43.2907
-47.2741
-51.4044
-55.6601
-60.0207
-64.4607
-68.9737
-73.5557
-78.2022
-82.9401
-87.7481
-92.5929
-97.447
-102.248
-107
-111.664
-116.182
-120.519
-124.653
-128.666
-132.623
-136.517
-140.284
-143.846
-147.174
-150.267
-153.135
-155.781
-158.194
-160.365
-162.281
-163.939
-165.336
-166.465
-167.323
0.820246
0.636652
0.411188
0.133955
-0.202128
-0.607585
-1.09178
-1.66524
-2.3408
-3.12817
-4.04121
-5.08808
-6.28027
-7.62359
-9.13185
-10.8092
-12.6626
-14.6991
-16.9181
-19.3252
-21.9219
-24.7028
-27.6715
-30.8189
-34.1454
-37.6462
-41.3128
-45.1338
-49.0837
-53.1403
-57.2968
-61.5532
-65.9064
-70.3457
-74.8416
-79.3342
-83.841
-88.3381
-92.869
-97.5529
-102.297
-107.046
-111.607
-115.752
-119.558
-123.155
-126.756
-130.42
-134.027
-137.474
-140.686
-143.652
-146.393
-148.914
-151.212
-153.272
-155.086
-156.652
-157.973
-159.039
-159.845
0.917155
0.751025
0.545292
0.289785
-0.0208322
-0.398327
-0.851315
-1.38929
-2.02718
-2.77216
-3.64112
-4.63892
-5.7786
-7.06014
-8.50473
-10.1111
-11.8866
-13.8404
-15.9662
-18.2696
-20.758
-23.4181
-26.2645
-29.2824
-32.4706
-35.829
-39.3373
-42.9936
-46.7521
-50.5894
-54.5339
-58.5866
-62.7898
-67.1379
-71.5204
-75.8625
-80.0457
-84.0766
-88.195
-92.4871
-97.1661
-102.068
-106.74
-110.919
-114.459
-117.678
-120.913
-124.243
-127.641
-130.93
-134.016
-136.855
-139.466
-141.868
-144.052
-146.002
-147.707
-149.172
-150.409
-151.413
-152.165
1.01176
0.864049
0.680164
0.445234
0.160526
-0.1905
-0.614844
-1.11539
-1.71876
-2.41954
-3.24886
-4.19768
-5.29355
-6.50591
-7.8899
-9.42784
-11.1211
-12.9991
-15.0291
-17.2175
-19.606
-22.1346
-24.8719
-27.7649
-30.8056
-34.0236
-37.3549
-40.8481
-44.4398
-48.0763
-51.8169
-55.6538
-59.6225
-63.8066
-68.1513
-72.3894
-76.4794
-80.2638
-83.7545
-87.5129
-91.706
-96.4355
-101.225
-105.443
-109.043
-112.134
-115.101
-118.128
-121.228
-124.279
-127.217
-129.894
-132.36
-134.65
-136.738
-138.565
-140.168
-141.507
-142.663
-143.618
-144.304
1.11073
0.97199
0.825564
0.595557
0.347639
0.0118177
-0.390257
-0.826119
-1.4269
-2.04911
-2.87556
-3.74402
-4.85163
-5.92772
-7.29316
-8.78086
-10.3495
-12.196
-14.1084
-16.148
-18.5195
-20.8366
-23.5345
-26.2801
-29.1514
-32.3012
-35.3566
-38.7173
-42.2045
-45.6077
-49.2886
-52.8998
-56.5263
-60.4625
-64.607
-68.6076
-72.9846
-76.7989
-79.9597
-82.9904
-86.2481
-90.4983
-94.8392
-99.2157
-103.208
-106.522
-109.572
-112.078
-114.853
-117.541
-120.407
-122.82
-125.14
-127.389
-129.361
-131.004
-132.604
-133.727
-134.878
-135.786
-136.337
-198.489
-198.894
-198.981
-198.74
-198.192
-197.327
-196.148
-194.654
-192.836
-190.722
-188.288
-185.549
-182.542
-179.27
-175.724
-171.918
-167.858
-163.573
-159.054
-154.315
-149.39
-144.264
-138.962
-133.497
-127.896
-122.164
-116.286
-110.301
-104.214
-98.0575
-91.8325
-85.5592
-79.2591
-72.9323
-66.6072
-60.2858
-53.9914
-47.736
-41.5276
-35.3833
-29.3145
-23.3445
-17.4706
-11.7133
-6.08636
-0.592279
4.7532
9.94184
14.9586
19.7967
24.4515
28.912
33.1672
37.2161
41.048
44.658
48.041
51.1917
54.1097
56.7905
59.2338
-187.111
-187.436
-187.489
-187.237
-186.687
-185.847
-184.706
-183.27
-181.526
-179.487
-177.15
-174.528
-171.661
-168.545
-165.172
-161.546
-157.68
-153.589
-149.277
-144.759
-140.051
-135.158
-130.096
-124.874
-119.507
-114.008
-108.408
-102.707
-96.9126
-91.0439
-85.1126
-79.1343
-73.124
-67.0936
-61.0594
-55.0306
-49.0235
-43.0516
-37.1265
-31.2607
-25.4677
-19.7632
-14.1545
-8.6549
-3.27686
1.97272
7.08257
12.0421
16.8397
21.4681
25.9205
30.1881
34.2615
38.1377
41.8075
45.2663
48.5072
51.528
54.3255
56.897
59.2412
-182.659
-183.064
-183.132
-182.893
-182.366
-181.565
-180.439
-179.02
-177.277
-175.244
-172.946
-170.381
-167.536
-164.424
-161.065
-157.471
-153.647
-149.607
-145.358
-140.914
-136.286
-131.484
-126.519
-121.403
-116.146
-110.758
-105.261
-99.666
-93.985
-88.2321
-82.4206
-76.5657
-70.6808
-64.7798
-58.8756
-52.9798
-47.1057
-41.266
-35.4736
-29.741
-24.0812
-18.5075
-13.0295
-7.65929
-2.40718
2.71832
7.70652
12.5471
17.2299
21.7477
26.0921
30.256
34.2317
38.0145
41.5966
44.9728
48.1379
51.088
53.8206
56.3324
58.6237
-175.097
-175.434
-175.473
-175.22
-174.669
-173.801
-172.656
-171.285
-169.658
-167.759
-165.577
-163.134
-160.425
-157.462
-154.255
-150.812
-147.144
-143.26
-139.173
-134.896
-130.44
-125.816
-121.033
-116.103
-111.036
-105.846
-100.545
-95.1494
-89.6703
-84.1204
-78.5126
-72.862
-67.1822
-61.4873
-55.7881
-50.0967
-44.4249
-38.7847
-33.1895
-27.6515
-22.1832
-16.7972
-11.5039
-6.31422
-1.23781
3.71755
8.54051
13.2218
17.7504
22.1211
26.3244
30.3533
34.2022
37.8648
41.336
44.6079
47.6778
50.5394
53.1914
55.63
57.8565
-167.905
-168.215
-168.246
-168.001
-167.474
-166.668
-165.61
-164.226
-162.597
-160.72
-158.588
-156.205
-153.574
-150.705
-147.603
-144.276
-140.73
-136.976
-133.026
-128.895
-124.593
-120.13
-115.516
-110.758
-105.869
-100.861
-95.7469
-90.5421
-85.2573
-79.9047
-74.4946
-69.0444
-63.5664
-58.0763
-52.5818
-47.0949
-41.6258
-36.186
-30.7899
-25.4485
-20.1738
-14.9792
-9.87393
-4.86892
0.0265671
4.80793
9.45972
13.977
18.3455
22.5632
26.6196
30.5075
34.2229
37.7587
41.1126
44.2744
47.2438
50.0101
52.5765
54.9363
57.0927
-160.388
-160.664
-160.672
-160.414
-159.887
-159.099
-158.048
-156.73
-155.156
-153.337
-151.274
-148.97
-146.427
-143.658
-140.669
-137.462
-134.044
-130.423
-126.614
-122.633
-118.49
-114.197
-109.759
-105.18
-100.475
-95.6543
-90.7313
-85.7245
-80.6409
-75.4924
-70.2848
-65.0413
-59.7702
-54.4935
-49.211
-43.936
-38.6768
-33.444
-28.2539
-23.1156
-18.0409
-13.0444
-8.13312
-3.31961
1.38767
5.99079
10.4667
14.8163
19.0178
23.0778
26.9818
30.7225
34.3003
37.7024
40.9365
43.983
46.8487
49.5154
51.9942
54.2698
56.354
-152.663
-152.904
-152.89
-152.616
-152.091
-151.32
-150.29
-149.005
-147.478
-145.721
-143.731
-141.507
-139.054
-136.39
-133.519
-130.437
-127.15
-123.66
-119.992
-116.166
-112.189
-108.073
-103.818
-99.4229
-94.9071
-90.2759
-85.5488
-80.7459
-75.8696
-70.9297
-65.9273
-60.8931
-55.8331
-50.7779
-45.7138
-40.6597
-35.6189
-30.5985
-25.6203
-20.6929
-15.8237
-11.0302
-6.31843
-1.70264
2.81035
7.23158
11.5278
15.7078
19.7373
23.6339
27.3799
30.9688
34.4031
37.6664
40.7782
43.7062
46.4686
49.0318
51.4191
53.6056
55.6155
-144.758
-144.951
-144.916
-144.618
-144.1
-143.344
-142.344
-141.069
-139.576
-137.896
-135.987
-133.84
-131.475
-128.92
-126.181
-123.225
-120.07
-116.707
-113.189
-109.524
-105.71
-101.778
-97.7245
-93.5103
-89.1872
-84.7499
-80.2259
-75.632
-70.9579
-66.2317
-61.4281
-56.6093
-51.7572
-46.9376
-42.0959
-37.2828
-32.4807
-27.664
-22.8987
-18.2014
-13.5325
-8.94212
-4.4431
-0.0226795
4.28141
8.52631
12.6347
16.6514
20.4942
24.2253
27.8041
31.2283
34.5243
37.6394
40.6383
43.4419
46.1078
48.5526
50.8489
52.9347
54.8744
-136.747
-136.863
-136.817
-136.491
-135.984
-135.213
-134.257
-132.921
-131.508
-130.016
-128.113
-126.046
-123.735
-121.273
-118.766
-115.864
-112.837
-109.667
-106.274
-102.786
-99.0543
-95.2878
-91.5345
-87.4038
-83.2861
-79.1207
-74.7365
-70.3879
-65.8085
-61.4141
-56.6845
-52.2055
-47.4478
-42.9652
-38.3067
-33.7641
-29.2623
-24.5306
-19.9857
-15.5667
-11.0151
-6.67839
-2.43015
1.87556
5.82393
10.035
13.8177
17.79
21.3077
24.9484
28.377
31.5392
34.8149
37.6656
40.6895
43.2407
45.9181
48.0947
50.4274
52.312
54.2905
61.4412
63.411
65.144
66.6408
67.9009
68.9286
69.7279
70.3036
70.6601
70.8041
70.7601
70.5709
70.2244
69.6785
68.9677
68.0942
67.0153
65.7476
64.3134
62.7273
61.0012
59.1453
57.1721
55.0925
52.919
50.6644
48.342
45.9661
43.5491
41.1065
38.6518
36.1998
33.766
31.3639
29.0104
26.7184
24.5029
22.3782
20.3671
18.4837
16.7553
15.1848
13.7861
12.579
11.5782
10.793
10.2332
9.90078
9.7906
9.88532
10.1523
10.5394
10.97
11.343
11.5782
10.9569
9.47005
7.94538
6.68487
5.75058
4.94091
61.3587
63.2501
64.9154
66.355
67.5691
68.5598
69.3305
69.8853
70.2283
70.3618
70.3025
70.1108
69.7806
69.259
68.5666
67.7065
66.655
65.4233
64.0296
62.4879
60.8094
59.0047
57.0857
55.0648
52.9538
50.7648
48.5102
46.2028
43.8555
41.4819
39.0954
36.7101
34.3403
31.9997
29.7034
27.4654
25.3003
23.2197
21.2297
19.3581
17.6124
16.0263
14.6111
13.3795
12.343
11.5121
10.8954
10.4955
10.3075
10.3163
10.4918
10.7864
11.127
11.4197
11.5097
10.9163
9.61121
8.25576
7.17703
6.3812
5.56845
60.6933
62.5431
64.1726
65.5834
66.7749
67.7499
68.5116
69.0642
69.4097
69.5446
69.4978
69.331
69.0227
68.5241
67.8572
67.0278
66.0201
64.8419
63.5067
62.0274
60.4148
58.6791
56.8324
54.886
52.8508
50.739
48.5624
46.3333
44.0641
41.7681
39.4582
37.148
34.851
32.5808
30.3513
28.1763
26.0689
24.0412
22.1053
20.2827
18.5899
17.0428
15.6516
14.4276
13.3821
12.5251
11.8634
11.3984
11.125
11.029
11.0818
11.2393
11.4299
11.5569
11.4539
10.8386
9.69927
8.47015
7.43489
6.60166
5.77287
59.8683
61.6684
63.2552
64.6317
65.796
66.752
67.5007
68.0475
68.3905
68.5243
68.4949
68.3585
68.0738
67.6047
66.9676
66.1709
65.2069
64.0831
62.8084
61.3944
59.8514
58.1886
56.4187
54.5521
52.5989
50.572
48.4819
46.341
44.1608
41.9545
39.7341
37.5132
35.3041
33.1204
30.9748
28.8808
26.851
24.8976
23.0337
21.2753
19.637
18.1319
16.7699
15.5593
14.5105
13.6317
12.927
12.396
12.0316
11.8198
11.7328
11.7291
11.7433
11.686
11.4238
10.7974
9.80756
8.70449
7.7027
6.83863
6.01789
59.0407
60.7871
62.3271
63.6664
64.7993
65.7334
66.465
67.0025
67.339
67.4732
67.4625
67.3562
67.0938
66.6552
66.0489
65.2871
64.3656
63.2954
62.0799
60.7314
59.2587
57.669
55.9775
54.1928
52.3233
50.3838
48.3827
46.333
44.244
42.1302
40.0017
37.8724
35.7531
33.6576
31.5973
29.5857
27.6342
25.7553
23.96
22.2624
20.6749
19.2098
17.8764
16.6821
15.6331
14.7348
13.99
13.396
12.9442
12.6195
12.396
12.235
12.0812
11.862
11.4858
10.8627
9.99326
9.01183
8.06009
7.18821
6.36365
58.2336
59.9248
61.4145
62.7162
63.815
64.7266
65.4392
65.9673
66.2968
66.4365
66.4432
66.3645
66.1229
65.7147
65.1392
64.4145
63.5345
62.5179
61.3606
60.0774
58.676
57.1587
55.5464
53.8449
52.0591
50.2091
48.2976
46.3408
44.3436
42.3236
40.2876
38.2509
36.2214
34.2146
32.2391
30.3099
28.4362
26.6305
24.9012
23.2622
21.7229
20.2957
18.9881
17.8062
16.7544
15.8336
15.0471
14.3901
13.8531
13.4219
13.072
12.77
12.4706
12.12
11.6573
11.032
10.2428
9.35894
8.46566
7.60873
6.78466
57.4231
59.0578
60.4944
61.7582
62.8213
63.7118
64.4057
64.9246
65.2479
65.3974
65.4204
65.3669
65.1462
64.7679
64.223
63.5367
62.6984
61.7361
60.6355
59.4185
58.0903
56.6457
55.1139
53.496
51.794
50.0355
48.2151
46.3529
44.4481
42.5237
40.5813
38.6383
36.6986
34.7806
32.8891
31.0423
29.2461
27.5129
25.8473
24.2646
22.7707
21.3795
20.0957
18.9237
17.8656
16.9229
16.0959
15.3784
14.7605
14.2316
13.7686
13.3444
12.9229
12.4657
11.9331
11.2959
10.551
9.73417
8.89428
8.06371
7.25122
56.598
58.1817
59.557
60.7883
61.8082
62.683
63.3546
63.8681
64.1839
64.352
64.3837
64.3571
64.1542
63.8081
63.2912
62.6461
61.8453
60.9461
59.8934
58.7458
57.496
56.1179
54.6766
53.1423
51.5158
49.8567
48.1253
46.3634
44.5465
42.7232
40.8722
39.0273
37.1744
35.3476
33.535
31.7722
30.052
28.3936
26.7871
25.2605
23.8055
22.4497
21.1869
20.0269
18.9622
17.9953
17.1335
16.3611
15.6683
15.0546
14.4924
13.9661
13.4425
12.8997
12.3071
11.6515
10.9256
10.1507
9.34824
8.54411
7.74925
55.7976
57.4415
58.6546
59.9616
60.8268
61.7653
62.3068
62.9108
63.1384
63.4265
63.3601
63.4414
63.1764
62.9529
62.3863
61.8564
60.9899
60.2583
59.2027
58.1325
56.9964
55.5778
54.2986
52.8799
51.2408
49.7563
48.0431
46.4505
44.6485
42.9867
41.1638
39.47
37.6558
35.9699
34.1805
32.541
30.853
29.3072
27.7207
26.2854
24.8272
23.5339
22.2701
21.1327
20.0637
19.056
18.1761
17.3526
16.5839
15.9148
15.2555
14.6575
14.0379
13.4344
12.7801
12.1121
11.3815
10.6419
9.85534
9.06396
8.28994
4.14444
3.42506
2.75799
2.08631
1.41169
0.77557
0.191045
-0.333879
-0.779176
-1.13646
-1.40153
-1.58002
-1.67548
-1.68019
-1.62217
-1.52641
-1.40705
-1.28295
-1.16915
-1.07382
-1.00009
-0.942713
-0.898031
-0.860687
-0.827424
-0.793675
-0.755292
-0.709733
-0.652549
-0.582931
-0.497333
-0.394814
-0.275817
-0.13994
0.00919965
0.170311
0.340281
0.514453
0.688846
0.857899
1.01647
1.1587
1.28394
1.38701
1.46437
1.51594
1.54057
1.53941
1.51322
1.46506
1.39893
1.3182
1.22586
1.12756
1.02449
0.919291
0.811331
0.699174
0.576561
0.435552
0.263038
4.72725
4.04233
3.43489
2.81079
2.16524
1.55978
1.00456
0.501034
0.0735839
-0.265748
-0.512237
-0.663137
-0.717933
-0.692397
-0.613446
-0.507687
-0.386208
-0.264971
-0.156728
-0.0686612
-0.00192324
0.0469877
0.082914
0.110345
0.132488
0.154029
0.178639
0.210072
0.251435
0.30523
0.374013
0.45921
0.561202
0.679435
0.812133
0.95687
1.10958
1.26701
1.4251
1.57971
1.72624
1.85972
1.97534
2.06999
2.14066
2.18599
2.20538
2.19891
2.16763
2.11388
2.04073
1.95164
1.84964
1.74063
1.62569
1.50895
1.38896
1.26647
1.13628
0.990753
0.818651
4.96959
4.29009
3.67363
3.00174
2.302
1.67807
1.10295
0.564586
0.100103
-0.277118
-0.56629
-0.766774
-0.879762
-0.920545
-0.893263
-0.81748
-0.699208
-0.563612
-0.443086
-0.345997
-0.272705
-0.219061
-0.179669
-0.148529
-0.120583
-0.0923191
-0.0603202
-0.0212731
0.0275257
0.0882519
0.163209
0.253756
0.360068
0.481276
0.615655
0.760843
0.913631
1.07024
1.2265
1.37784
1.51966
1.64766
1.75795
1.84699
1.91202
1.95167
1.96546
1.95425
1.91961
1.86433
1.7917
1.70586
1.61063
1.50975
1.40583
1.30092
1.19406
1.08214
0.959052
0.814495
0.635692
5.24133
4.55267
3.90504
3.21276
2.51468
1.89091
1.29986
0.737068
0.266318
-0.104828
-0.39304
-0.589846
-0.68897
-0.705008
-0.644583
-0.520516
-0.375845
-0.261097
-0.151685
-0.0546203
0.0225118
0.0799704
0.120944
0.15021
0.171873
0.190526
0.209997
0.23454
0.267211
0.310784
0.367851
0.440305
0.528766
0.632455
0.749945
0.878832
1.01615
1.15847
1.30195
1.4424
1.57539
1.69686
1.80297
1.89057
1.95698
2.00094
2.02175
2.02014
1.99722
1.95553
1.89726
1.82586
1.74391
1.65427
1.5578
1.45654
1.35211
1.24498
1.13125
1.00055
0.851179
5.58541
4.86868
4.18558
3.4823
2.78339
2.13448
1.51547
0.944507
0.472408
0.0880546
-0.226474
-0.440167
-0.548788
-0.581063
-0.544716
-0.456637
-0.349835
-0.224847
-0.113039
-0.01787
0.0542079
0.107698
0.146819
0.177181
0.201049
0.222841
0.245007
0.271775
0.305323
0.347682
0.401767
0.469555
0.551683
0.647517
0.755938
0.874764
1.00137
1.13271
1.26529
1.39539
1.51876
1.63191
1.73092
1.81326
1.87596
1.91803
1.93822
1.93747
1.91607
1.87653
1.82077
1.7523
1.67447
1.59023
1.50179
1.41348
1.3258
1.23311
1.13116
1.01967
0.88761
5.99481
5.24547
4.52716
3.8113
3.10643
2.43642
1.8003
1.21597
0.716549
0.300269
-0.0303873
-0.24917
-0.375772
-0.431413
-0.404719
-0.315408
-0.201711
-0.0840304
0.0245229
0.108302
0.167763
0.212044
0.243509
0.268379
0.286201
0.302464
0.317916
0.338107
0.364309
0.397836
0.442392
0.499977
0.57126
0.655375
0.751553
0.857606
0.971164
1.08952
1.20949
1.32785
1.44034
1.5443
1.63556
1.71261
1.77192
1.81344
1.83519
1.83911
1.82458
1.79472
1.75075
1.69645
1.63476
1.569
1.50209
1.43175
1.3574
1.27913
1.19193
1.09097
0.968896
6.45936
5.69226
4.94774
4.21727
3.50333
2.82185
2.17727
1.5851
1.06194
0.618271
0.264025
0.0147905
-0.145526
-0.214759
-0.190494
-0.112685
-0.00935738
0.0970675
0.194005
0.265219
0.306475
0.335578
0.353468
0.36993
0.379029
0.388013
0.394401
0.407072
0.425138
0.447992
0.48217
0.528651
0.588774
0.66081
0.744596
0.837707
0.938145
1.04348
1.15092
1.25784
1.35965
1.45469
1.53831
1.61031
1.66607
1.70706
1.73018
1.73854
1.7304
1.70979
1.67669
1.63536
1.58741
1.5349
1.48063
1.4257
1.36842
1.30763
1.23812
1.15444
1.04888
6.96532
6.19663
5.44272
4.70899
3.9899
3.30949
2.66641
2.08133
1.5527
1.09726
0.725738
0.450142
0.246661
0.149258
0.13928
0.182087
0.272711
0.348177
0.413244
0.466272
0.477203
0.483613
0.479003
0.48642
0.480653
0.48138
0.474118
0.479663
0.490913
0.49898
0.521315
0.556796
0.607997
0.668548
0.741239
0.822419
0.910758
1.0042
1.10051
1.19792
1.28999
1.37785
1.45401
1.52249
1.57395
1.6149
1.63799
1.65057
1.64656
1.63348
1.60734
1.57573
1.53945
1.49823
1.45646
1.41485
1.37242
1.32853
1.27631
1.21186
1.12408
7.5049
6.75504
5.99657
5.26582
4.54776
3.8867
3.25831
2.71672
2.19711
1.76037
1.40594
1.14829
0.87044
0.742935
0.70157
0.676162
0.728769
0.652309
0.653101
0.728217
0.677325
0.660153
0.607656
0.636217
0.589698
0.597982
0.550743
0.556164
0.571533
0.554495
0.550835
0.58477
0.634539
0.679545
0.743973
0.814571
0.88985
0.975624
1.06254
1.1597
1.2363
1.32869
1.38714
1.46454
1.50028
1.55114
1.55922
1.59049
1.57668
1.57849
1.54682
1.51765
1.49376
1.46265
1.43438
1.40345
1.37301
1.34786
1.3089
1.27062
1.19406
4.69212
-4.43117
-5.76211
15.1875
5.57081
19.4482
18.5082
11.0626
11.4112
29.1087
1.44586
23.8419
18.6043
2.85579
21.7449
-102.495
20.6567
12.4231
1.23254
18.05
15.4306
3.23797
0.957058
20.3817
11.3082
17.1113
18.1177
9.58878
20.4127
6.46917
10.2608
17.5608
28.4521
1.70151
23.1241
0.627259
0.578937
57.3414
19.0677
17.6311
7.61421
-3.00013
18.0936
-88.5509
0.472347
31.7004
10.5842
2.76342
16.5949
25.4803
-3.54396
-46.3937
18.0515
8.98123
14.1831
17.4254
6.58545
7.55159
0.784865
-31.6963
3.62657
15.4543
17.3473
-8.37007
-25.9916
14.2482
0.683368
8.9507
19.0595
18.2314
15.3579
59.5272
6.48964
11.9446
13.4855
6.46066
-12.697
44.5379
18.1292
28.2234
-0.891651
16.6539
17.0425
-36.5629
18.1102
50.2029
11.8958
1.75729
15.6299
1.38502
-14.0718
18.1815
4.87657
-32.1353
-37.3185
5.36244
44.2676
9.75674
25.5427
-101.945
13.8274
16.1928
24.9184
18.2292
18.6179
18.0973
15.0869
39.7183
20.0374
-79.2467
-109.567
16.2355
0.619182
1.44988
5.91433
2.16389
0.987585
19.7255
-7.71071
10.5726
11.3361
0.235289
10.7585
-118.379
-26.8251
10.9099
15.2702
-47.2723
-34.9837
17.895
21.2812
-8.20644
4.28103
10.397
2.63447
10.5126
18.5526
-53.7121
-31.0881
11.4969
9.34701
-53.4313
14.8714
49.0152
1.51003
12.82
17.0692
1.50378
31.7934
-0.65771
16.3104
17.317
59.0851
-33.4847
-60.1187
8.299
7.92195
-28.0161
18.0509
0.601735
16.933
26.4665
18.0664
12.373
14.8704
13.2348
7.00164
9.59127
17.6408
0.340555
-1.73011
1.48946
5.81352
17.4911
1.48109
1.48108
1.1316
8.56312
22.4129
1.71032
1.76306
-1.43605
-31.3421
9.36648
6.14284
0.901479
-10.6894
52.1462
9.45389
10.7779
25.3995
20.4701
-17.0707
-39.4586
18.2374
-31.8358
4.0737
0.322074
21.4514
0.67536
9.51324
14.9363
13.4351
-59.1004
-1.70716
20.9949
8.29206
16.3876
-45.8124
0.783391
41.1362
-5.87729
16.3244
-117.827
11.1092
-77.751
-65.549
1.59406
33.435
1.82729
10.6913
40.1336
11.8424
17.6827
0.990247
-7.89486
-9.45872
11.0606
17.0936
59.7149
1.49925
21.456
-5.32334
-37.7424
13.4309
19.5403
2.94107
-57.3181
-46.8091
19.4904
13.2381
8.96799
11.0019
16.4469
-124.082
16.5602
8.34719
-98.8668
24.0373
18.1279
8.7287
23.8007
1.313
7.92381
10.7778
19.0687
25.2479
15.1726
6.76961
1.89491
15.8918
9.59064
-64.6457
18.7581
0.56394
13.1347
17.5764
1.2002
17.6446
0.96402
23.9409
1.31797
22.8037
11.1855
52.9313
10.0901
14.2162
10.5707
15.9481
20.8836
50.3038
9.62532
-72.1343
15.5824
14.836
19.0391
18.2016
-61.7648
7.75907
7.8239
-26.3644
40.5439
14.7006
18.1644
35.039
17.492
9.24392
4.93508
-0.677842
16.6788
10.2199
5.14716
48.6437
-3.98608
3.96242
-80.4699
21.866
18.7924
19.631
-100.745
9.58806
12.3203
11.2722
-12.6904
16.565
14.3274
0.888808
1.18159
6.93608
1.84382
16.672
3.50783
15.3128
14.8046
-26.9612
1.8865
15.4407
0.791166
-90.8196
6.36632
-27.3689
-45.0544
-101.758
2.04482
1.57961
17.2693
0.723265
0.970471
-124.379
35.1004
14.9742
14.7266
11.8943
11.625
49.7587
11.0834
-9.40073
19.1631
-71.7052
14.9114
1.45225
-45.7134
-114.176
10.5486
-62.0418
8.25555
2.4884
14.7857
1.83728
2.14814
10.2253
0.560767
0.914144
-6.55739
0.954099
16.2702
6.44707
-114.47
-34.2375
3.82656
16.5786
-26.3767
-50.0963
12.5581
1.66517
15.6878
-5.72415
7.39009
1.55072
-73.9332
0.987609
-80.178
20.5028
-89.6266
11.1607
4.9088
21.0668
1.19985
-117.905
-27.6946
47.4003
50.1489
2.99479
0.681814
17.4457
30.299
17.1755
-0.224477
11.9778
-10.0981
17.9914
18.8702
22.0681
21.2502
-7.86703
-47.0218
11.3457
-83.1588
0.312901
-11.3536
1.77521
-62.253
-1.86814
19.0696
-124.695
9.79575
9.01065
23.4019
-53.2104
18.0939
18.6877
1.3065
17.8989
9.82502
14.6609
1.32339
35.9221
-26.3556
-51.9093
9.54513
-61.3767
9.07331
-54.6766
17.2635
15.9811
0.870669
3.8649
-92.676
-1.63169
1.56693
-11.0313
-62.6073
-60.206
18.234
4.6178
-41.7611
-50.3662
17.5557
2.68996
-32.3071
22.8606
13.3503
36.5628
-40.1889
-0.351057
-9.85392
0.644011
8.65245
-88.8074
2.10758
10.5497
20.0941
46.9693
2.48276
44.1125
1.83932
17.75
1.84665
1.53459
13.1159
12.688
0.324807
1.28199
17.2131
2.49265
1.5084
2.75866
1.51016
1.96521
1.35391
8.3454
4.94844
16.2782
15.6197
-111.256
9.91098
-68.2209
-107.383
16.766
0.64093
2.40736
19.3912
3.72032
1.45198
16.4631
17.0982
15.1597
5.3143
-37.7745
10.3711
26.6268
13.5334
12.9153
15.58
5.43897
0.618045
13.3852
19.5593
9.23778
1.45546
14.0451
13.4751
-12.9151
12.6486
-0.201453
-3.59525
-4.43763
18.1169
20.21
8.97905
22.298
3.40723
2.66231
48.6993
-22.1552
-5.33211
22.0551
8.17357
1.18253
1.44604
-80.3858
-27.5473
21.1619
2.90607
10.1615
0.684234
-21.3048
19.0648
12.1807
-27.5039
-83.2516
12.5596
-17.8919
-54.3408
4.38006
-105.863
9.04003
8.7919
8.61187
-32.5179
14.0529
-81.2235
-2.24105
12.9082
0.893545
18.18
-0.509627
15.2643
12.1679
31.7822
2.86693
0.82794
14.7973
7.11842
0.671312
-46.5918
-30.8625
8.02593
-34.4307
4.46101
28.7033
1.70149
8.80025
-95.7849
9.57965
8.3399
14.6446
1.48951
52.193
1.65079
8.04576
8.048
1.34918
1.1309
12.928
15.9853
16.1782
9.35407
10.0551
29.3093
-76.3076
8.32698
18.2086
-32.3976
0.768425
-88.4379
12.5168
0.689724
17.9425
-55.335
4.08799
-21.2019
0.870857
0.754867
2.79
-106.494
20.7779
18.1927
6.25302
16.2137
-27.1704
-22.3933
-6.56389
9.2985
8.8134
4.71201
17.7701
-0.385203
0.661054
16.2781
23.2977
1.49101
-59.1136
21.036
1.58278
20.711
-8.49814
17.328
36.3709
6.60257
29.5516
18.6884
-30.17
-21.6469
-4.63753
19.4221
9.66478
-32.6591
17.3533
12.3804
4.52543
5.40127
0.680835
-31.1416
40.6368
3.82797
2.03797
0.814252
-88.8546
9.29971
23.4426
15.9961
0.910251
5.23387
-23.1976
14.1754
12.6758
6.20888
1.40824
-7.12525
14.8928
2.01781
10.7258
-21.2668
1.47319
39.1836
0.891439
0.00849038
8.12474
57.2378
17.0619
17.0769
1.39104
10.014
7.19161
8.34155
10.2001
-116.5
2.00866
-35.1278
30.5847
17.4417
8.24271
19.5323
-6.42994
-11.0347
1.44156
3.68542
1.42289
12.7641
-2.64918
18.9843
-88.9214
17.1892
6.84161
2.06518
-3.693
2.86993
-7.0647
10.4626
3.3224
0.909785
19.5261
-121.399
15.7096
17.5491
9.93191
-4.28093
19.2333
3.58012
-21.5113
15.6227
-14.0406
-98.3961
17.5805
8.34383
14.3357
-63.384
-6.65884
16.3324
42.9225
12.4564
8.98
10.6825
-111.422
-126.632
16.4721
-1.30837
-12.1001
1.51927
18.1991
6.88913
-11.5969
13.8943
15.3134
0.15026
18.7008
19.6104
8.02681
14.1677
-3.25322
12.1137
-5.74093
23.039
1.73036
-4.61067
42.5809
1.08849
6.76382
21.9775
4.40346
-45.6986
24.354
-83.9788
21.0823
1.18259
-19.854
9.85933
-9.79632
0.670582
12.0251
11.4622
-93.7066
-39.968
12.9479
-64.8158
-9.04657
53.6976
-16.2676
-20.3601
21.5921
0.675608
5.82662
12.2424
-56.3348
-23.0915
-4.92292
-4.24413
-6.74489
0.923454
22.7541
19.0237
13.1219
-121.95
-44.5061
27.5285
2.22848
-112.352
11.4787
14.7019
10.4029
1.0829
4.68425
1.14561
-15.0675
21.4178
-121.531
-17.4594
-86.1744
-98.8641
18.917
25.4413
-43.757
26.0744
14.7571
12.1092
11.1093
10.4333
26.1083
18.0728
2.08404
-51.8162
-30.5398
24.4497
2.13239
3.27176
13.3012
1.3012
12.8325
-53.8151
1.38341
49.2678
3.7006
22.2975
11.6724
18.7016
16.22
-76.9448
11.4499
44.7484
0.847942
0.87117
32.3357
61.1826
12.6105
12.9107
25.142
-50.9057
-15.7473
17.3055
9.28917
-91.9393
27.4877
17.4993
-63.3699
16.1563
3.58931
1.35204
6.19166
-16.5118
53.8487
0.666985
-8.72595
-0.232722
17.8184
0.466859
8.98803
14.7922
17.7313
11.3311
0.858049
17.4692
0.583416
30.2423
0.09788
11.2266
10.289
17.0033
8.31712
-49.8159
9.66646
18.6611
-29.7659
-71.7838
34.198
1.57244
7.30782
18.3522
34.4732
-85.0153
8.81582
-2.99199
11.0119
16.3116
-88.3796
18.1034
9.83818
49.9458
29.9894
-19.7624
4.29776
16.0204
18.0655
-66.8572
-4.44683
9.88723
15.1374
1.20535
18.239
-128.152
7.56912
0.79336
10.3268
19.1392
0.110736
15.012
23.1269
24.7087
4.53441
-0.560931
18.3903
20.9091
17.4782
20.3932
10.5646
18.33
-70.5275
2.461
18.158
-25.8998
14.0303
7.18311
19.8274
11.5546
-62.3492
9.82579
4.87348
19.2258
-20.9955
16.9447
-24.9758
-104.346
1.60643
1.36944
-47.8993
16.3265
18.6532
-21.4396
-104.942
1.18471
-14.3021
15.8615
-83.0312
13.2855
16.8996
18.7494
-18.5616
6.97092
9.59759
-29.0101
17.2143
8.60597
-85.1398
10.4799
-119.569
47.2656
11.5501
18.6204
6.05709
17.5854
-9.36993
-6.41527
20.3211
-18.5842
5.42865
12.4799
-38.3745
4.86442
17.7798
-49.5752
15.1446
1.77576
-67.6433
-14.0848
17.6756
19.5515
14.1224
62.1694
8.7841
-2.23516
-24.0887
15.6416
-11.9429
15.4845
5.19923
16.1116
0.717656
9.14626
0.637145
-13.9806
58.967
6.98391
59.3256
6.97885
11.4383
3.97775
20.212
-9.63578
18.4057
10.9408
1.65058
59.7959
17.038
8.61759
-8.6941
0.546216
-109.115
16.3153
-5.84309
9.59388
-22.0616
-62.4009
0.929148
-73.7313
9.20653
3.00106
-25.9513
18.5285
15.7532
14.0061
11.1891
21.424
16.8203
12.6075
17.914
1.14928
-68.6044
18.156
20.4943
18.3301
7.65529
-73.1922
1.25741
-24.6936
15.73
-43.6949
0.779958
25.0028
-67.6912
17.5096
0.669562
40.1116
1.42339
22.6908
4.08214
1.87607
17.1008
10.198
-107.74
13.9838
-1.11739
-39.3004
1.49862
15.8428
10.8557
30.9585
2.63348
1.42595
-79.4976
16.2095
16.9793
17.015
-20.2129
-35.9632
14.1725
12.6482
15.0562
1.14637
1.70118
49.3006
0.578014
-65.7189
2.08225
-59.2343
0.708235
0.600417
32.2269
51.0634
11.9197
60.0849
45.5761
18.5222
18.2818
6.06706
14.4528
18.8994
2.21939
1.80343
19.8138
1.58713
10.0151
19.3763
8.5734
18.8943
28.8489
1.5696
-5.66903
-121.329
18.4067
11.0151
-50.8553
7.52393
22.4597
13.965
10.1413
2.40423
17.343
-2.45789
1.56523
30.417
12.6876
0.96048
16.7941
17.452
16.2513
5.48339
15.6777
17.2853
-3.80383
18.7315
20.8439
-78.5975
-29.0687
-18.7943
14.8423
1.64828
-50.9711
17.3337
1.54685
1.07269
-126.383
0.65122
17.8351
8.53761
31.2532
-1.106
1.17503
9.42793
46.3976
1.65436
17.2107
1.02232
17.1117
53.9016
14.1399
-21.2101
17.5189
0.887656
-69.7759
15.6894
42.4276
4.04929
12.4683
19.1626
29.6089
10.8867
20.0276
1.98699
17.8077
10.7156
-123.5
4.32768
18.9507
20.1829
-65.2575
-81.633
18.0643
18.192
12.7203
11.2816
-59.5266
24.7173
-59.0371
17.8821
11.2194
18.1995
-12.2581
5.69375
17.5889
0.803508
1.51441
-91.7572
-62.8306
8.07022
-2.6859
-74.8633
18.7449
18.6566
18.8202
7.07941
19.0608
2.46927
18.3825
9.31184
-1.65315
-25.4134
2.31793
12.2187
1.54084
36.249
17.1297
19.6524
-104.594
15.58
15.8473
20.3733
12.3963
-74.7334
-7.09323
1.37986
17.642
17.2839
17.8058
-4.05117
20.515
-18.0127
8.08575
8.44619
12.5318
9.51699
16.1935
10.8845
10.3759
9.65894
-1.79761
-10.6313
2.5562
-84.9897
11.7205
17.0707
0.706064
-93.4119
41.1052
2.19648
23.8163
16.1744
13.1413
11.6747
16.8521
60.8062
-8.44034
1.1549
-94.9485
17.1452
27.9541
-37.3457
3.43235
-51.8012
1.23755
30.9937
1.61338
17.037
-23.1359
-13.4987
-38.3004
-8.70375
17.9605
1.42514
7.34297
22.504
12.1723
19.5595
8.72885
56.7525
20.645
16.7512
43.9402
10.0204
16.2332
18.8153
20.4585
-10.8463
1.18473
9.8565
11.9879
-16.836
13.8355
8.76669
14.9543