/*--------------------------------*- C++ -*----------------------------------*\
| =========                 |                                                 |
| \\      /  F ield         | OpenFOAM: The Open Source CFD Toolbox           |
|  \\    /   O peration     | Version:  2.3.1                                 |
|   \\  /    A nd           | Web:      www.OpenFOAM.org                      |
|    \\/     M anipulation  |                                                 |
\*---------------------------------------------------------------------------*/
FoamFile
{
    version     2.0;
    format      ascii;
    class       surfaceScalarField;
    location    "0.33";
    object      phi;
}
// * * * * * * * * * * * * * * * * * * * * * * * * * * * * * * * * * * * * * //

dimensions      [0 3 -1 0 0 0 0];

internalField   nonuniform List<scalar> 
15416
(
-0.00070237
-5.1677e-06
0.000706456
-0.000698433
-3.93454e-06
-0.000695742
-2.68995e-06
-0.000694218
-1.52367e-06
-0.000694
-2.17149e-07
-0.000695398
1.3988e-06
-0.000699153
3.75589e-06
-0.000705515
6.36366e-06
-0.000714691
9.17811e-06
-0.000727013
1.23236e-05
-0.000742883
1.5871e-05
-0.000762502
1.96212e-05
-0.000785991
2.34895e-05
-0.00081341
2.74211e-05
-0.000844837
3.14277e-05
-0.000880176
3.53398e-05
-0.000919227
3.90517e-05
-0.000961775
4.25465e-05
-0.00100767
4.58923e-05
-0.00105658
4.89093e-05
-0.00110824
5.16613e-05
-0.00116241
5.41619e-05
-0.00121872
5.63069e-05
-0.00127681
5.80897e-05
-0.00133643
5.9629e-05
-0.00139735
6.09236e-05
-0.00145924
6.1912e-05
-0.00152179
6.25723e-05
-0.00158478
6.30044e-05
-0.00164804
6.32614e-05
-0.00171128
6.32388e-05
-0.00177431
6.30485e-05
-0.00183705
6.28072e-05
-0.00189928
6.23466e-05
-0.00196083
6.16864e-05
-0.00202164
6.08875e-05
-0.00208158
5.99245e-05
-0.00214046
5.87071e-05
-0.00219804
5.72366e-05
-0.0022543
5.58232e-05
-0.00230924
5.44639e-05
-0.00236267
5.30293e-05
-0.0024145
5.16066e-05
-0.00246479
5.02397e-05
-0.00251329
4.8563e-05
-0.00255994
4.67816e-05
-0.00260486
4.50119e-05
-0.00264803
4.32329e-05
-0.00268925
4.12514e-05
-0.00272847
3.92135e-05
-0.00276567
3.7183e-05
-0.00280102
3.53309e-05
-0.00283402
3.29931e-05
-0.00286515
3.11145e-05
-0.00289418
2.90266e-05
-0.00292148
2.72974e-05
-0.0029461
2.46171e-05
-0.00296846
2.23582e-05
-0.00298891
2.04563e-05
-0.00300763
1.87164e-05
1.70113e-05
-0.00302465
-0.000402169
-5.08006e-06
0.000402088
-0.000403985
-2.11741e-06
-0.000408072
1.397e-06
-0.00041515
5.55472e-06
-0.000426729
1.1363e-05
-0.000442143
1.68129e-05
-0.00046156
2.31741e-05
-0.0004848
2.9606e-05
-0.0005125
3.68794e-05
-0.00054419
4.40149e-05
-0.00058004
5.17228e-05
-0.000619897
5.94794e-05
-0.000663645
6.72397e-05
-0.000711151
7.49284e-05
-0.00076211
8.23878e-05
-0.00081638
8.96102e-05
-0.000873695
9.63667e-05
-0.00093384
0.000102692
-0.000996462
0.000108514
-0.00106136
0.000113804
-0.00112831
0.000118615
-0.00119689
0.000122737
-0.0012669
0.000126313
-0.00133812
0.000129311
-0.00141024
0.000131753
-0.00148301
0.00013371
-0.00155611
0.000135026
-0.00162948
0.000135959
-0.0017028
0.00013636
-0.00177577
0.000136262
-0.0018484
0.000135904
-0.00192049
0.000135204
-0.00199168
0.000134052
-0.00206195
0.000132662
-0.00213136
0.000131065
-0.00219955
0.000129003
-0.00226653
0.000126824
-0.00233216
0.000124257
-0.00239637
0.000121448
-0.00245892
0.000118368
-0.00251948
0.000114974
-0.0025783
0.00011176
-0.00263524
0.000108332
-0.00269011
0.00010485
-0.00274312
0.000101339
-0.00279409
9.76154e-05
-0.00284308
9.39844e-05
-0.0028896
8.98083e-05
-0.00293403
8.57473e-05
-0.0029763
8.15335e-05
-0.00301641
7.73153e-05
-0.00305468
7.36079e-05
-0.00308948
6.77954e-05
-0.00312361
6.52277e-05
-0.00315392
5.93296e-05
-0.00318269
5.60613e-05
-0.00320711
4.90345e-05
-0.00323136
4.66107e-05
-0.00325334
4.243e-05
-0.00327315
3.85224e-05
3.24745e-05
-0.00328861
-0.000258875
2.8858e-06
0.000250908
-0.000269694
8.7002e-06
-0.000284437
1.614e-05
-0.000303596
2.47137e-05
-0.000326375
3.41433e-05
-0.000353723
4.41621e-05
-0.000385192
5.46438e-05
-0.00042106
6.54751e-05
-0.000461234
7.70554e-05
-0.000505806
8.85883e-05
-0.000554492
0.00010041
-0.000606906
0.000111895
-0.000663163
0.000123499
-0.000722879
0.000134646
-0.000785847
0.000145357
-0.000851781
0.000155545
-0.000920458
0.000165044
-0.000991602
0.000173835
-0.00106489
0.000181803
-0.00114017
0.000189082
-0.00121697
0.00019542
-0.00129523
0.000200992
-0.00137463
0.000205714
-0.00145491
0.000209594
-0.00153578
0.000212625
-0.001617
0.000214927
-0.00169839
0.000216432
-0.00177969
0.000217289
-0.00186063
0.000217346
-0.0019413
0.000217011
-0.00202125
0.000215921
-0.00210025
0.000214255
-0.00217851
0.00021229
-0.00225558
0.000209597
-0.00233136
0.00020668
-0.00240583
0.00020332
-0.00247882
0.000199805
-0.00255015
0.000195791
-0.0026198
0.000191343
-0.00268763
0.000186494
-0.00275367
0.00018114
-0.00281733
0.000175356
-0.00287897
0.000169872
-0.00293842
0.000164085
-0.00299568
0.000158449
-0.00305081
0.00015263
-0.00310358
0.000146661
-0.00315408
0.000140283
-0.00320202
0.00013369
-0.00324816
0.000127699
-0.00329057
0.000119764
-0.00333037
0.000113436
-0.00336854
0.000105978
-0.00340441
0.000101096
-0.00343813
9.30446e-05
-0.00346756
8.54926e-05
-0.00349685
7.83183e-05
-0.00352182
7.1575e-05
-0.00354456
6.51683e-05
-0.00356304
5.69973e-05
5.08463e-05
-0.00358141
-0.000189233
1.8008e-05
0.000174107
-0.000208698
2.81638e-05
-0.000232351
3.97921e-05
-0.000260215
5.25787e-05
-0.000292405
6.6334e-05
-0.000329068
8.08257e-05
-0.000370121
9.5699e-05
-0.000415926
0.000111281
-0.000466046
0.000127177
-0.000520576
0.00014312
-0.000579074
0.00015891
-0.000641721
0.000174543
-0.000708082
0.000189862
-0.000777733
0.000204298
-0.000850609
0.000218234
-0.000926353
0.000231289
-0.00100468
0.000243367
-0.00108528
0.000254436
-0.00116793
0.000264462
-0.00125223
0.000273384
-0.00133815
0.000281346
-0.00142519
0.000288037
-0.00151326
0.000293782
-0.00160203
0.000298355
-0.00169132
0.000301897
-0.00178069
0.000304295
-0.00187004
0.00030579
-0.00195916
0.000306449
-0.00204792
0.000306161
-0.00213588
0.000305004
-0.00222314
0.000303206
-0.00230961
0.000300671
-0.00239474
0.000297316
-0.0024787
0.000293439
-0.00256127
0.000289031
-0.00264215
0.000284125
-0.00272111
0.000278666
-0.00279838
0.000272961
-0.00287372
0.00026689
-0.00294737
0.000260286
-0.00301872
0.000252884
-0.00308804
0.000245241
-0.00315475
0.000236913
-0.00321909
0.00022873
-0.00328094
0.000220284
-0.00334033
0.000211842
-0.0033972
0.000203352
-0.00345188
0.000194778
-0.00350321
0.00018494
-0.00355197
0.000176459
-0.00359931
0.000167127
-0.00364252
0.000156693
-0.00368352
0.000146997
-0.00372038
0.000137974
-0.00375689
0.000129555
-0.00378926
0.000117857
-0.00381936
0.000108419
-0.00384723
9.94355e-05
-0.00387089
8.88341e-05
-0.00389232
7.84197e-05
6.8079e-05
-0.00390955
-0.000157277
4.01664e-05
0.000135115
-0.000183493
5.43796e-05
-0.00021425
7.05491e-05
-0.000249658
8.79869e-05
-0.000289742
0.000106419
-0.000334701
0.000125785
-0.000384706
0.000145705
-0.000439227
0.000165804
-0.000498505
0.000186456
-0.000562156
0.000206772
-0.000630216
0.000226971
-0.000702368
0.000246698
-0.000778079
0.000265574
-0.000857379
0.0002836
-0.000940059
0.000300914
-0.0010251
0.000316334
-0.00111282
0.000331082
-0.00120275
0.000344376
-0.00129454
0.000356254
-0.00138802
0.000366875
-0.00148285
0.000376178
-0.00157891
0.000384096
-0.00167579
0.000390656
-0.00177324
0.000395781
-0.00187086
0.000399504
-0.00196873
0.000402147
-0.00206631
0.000403387
-0.00216344
0.000403605
-0.00225998
0.000402704
-0.00235582
0.000400841
-0.00245073
0.000398026
-0.00254447
0.000394324
-0.00263704
0.00038979
-0.00272825
0.000384466
-0.00281757
0.000378286
-0.00290501
0.00037126
-0.00299072
0.000364034
-0.00307412
0.000356229
-0.00315559
0.000348066
-0.00323476
0.000339762
-0.00331193
0.000330618
-0.00338654
0.000320553
-0.0034586
0.000309976
-0.00352804
0.000298741
-0.00359476
0.000287384
-0.00365945
0.000276576
-0.00371946
0.000263111
-0.00377743
0.000252527
-0.00383374
0.000241045
-0.00388606
0.000228674
-0.00393605
0.000217098
-0.00398381
0.000204481
-0.0040276
0.000190817
-0.00406913
0.00017953
-0.00410466
0.000165106
-0.00413975
0.000152946
-0.0041726
0.000141269
-0.00420126
0.000128095
-0.00422577
0.000113336
-0.00425002
0.000102662
8.8151e-05
-0.00427009
-0.000143984
6.87236e-05
0.000115426
-0.000177125
8.75208e-05
-0.000214969
0.000108393
-0.000258113
0.000131132
-0.00030647
0.000154777
-0.000359867
0.000179184
-0.000418325
0.000204164
-0.000482012
0.000229492
-0.00055041
0.000254855
-0.000623752
0.000280116
-0.000701521
0.000304741
-0.000783253
0.000328431
-0.000868965
0.000351288
-0.000957858
0.000372493
-0.00104973
0.000392789
-0.00114462
0.000411217
-0.001242
0.000428464
-0.00134169
0.000444079
-0.00144303
0.000457599
-0.00154587
0.000469724
-0.00165016
0.000480467
-0.00175531
0.000489228
-0.00186134
0.000496661
-0.00196784
0.00050226
-0.00207455
0.000506194
-0.00218104
0.000508639
-0.00228726
0.000509608
-0.00239284
0.000509212
-0.00249771
0.000507572
-0.00260172
0.000504765
-0.00270461
0.000500842
-0.00280612
0.000495668
-0.00290626
0.00048978
-0.00300473
0.00048294
-0.00310133
0.000474662
-0.00319588
0.000465842
-0.00328823
0.000456208
-0.00337844
0.000445927
-0.00346614
0.000435998
-0.00355187
0.000425207
-0.00363466
0.000413699
-0.00371475
0.000401634
-0.00379227
0.000388079
-0.00386635
0.000373875
-0.00393806
0.000359571
-0.00400714
0.000345754
-0.00407409
0.00033012
-0.00413716
0.000315252
-0.0041962
0.00029986
-0.00425293
0.000285256
-0.00430562
0.000269723
-0.00435419
0.00025307
-0.00440231
0.000238959
-0.00444463
0.000221879
-0.00448655
0.000207033
-0.00452434
0.000190748
-0.00455599
0.000172915
-0.00458534
0.000157447
-0.00461448
0.000142476
-0.00463757
0.000125745
0.000109034
-0.00465845
-0.000144082
0.000103586
0.000109219
-0.000184291
0.00012773
-0.000229901
0.000154004
-0.000281268
0.000182499
-0.00033797
0.00021148
-0.000400427
0.000241642
-0.000468277
0.000272015
-0.000541272
0.000302487
-0.000619664
0.000333249
-0.000702549
0.000363003
-0.000790336
0.000392529
-0.000882413
0.00042051
-0.000978056
0.000446931
-0.00107701
0.000471453
-0.00117959
0.000495363
-0.00128487
0.000516494
-0.00139228
0.000535874
-0.00150198
0.000553793
-0.0016133
0.000568914
-0.00172624
0.000582668
-0.00184037
0.000594579
-0.00195536
0.000604197
-0.00207119
0.00061247
-0.00218731
0.000618351
-0.00230338
0.000622244
-0.00241924
0.000624491
-0.00253432
0.000624716
-0.00264897
0.000623886
-0.00276279
0.000621371
-0.00287526
0.000617241
-0.00298668
0.00061206
-0.00309646
0.0006053
-0.00320418
0.000597406
-0.00331035
0.000588887
-0.00341443
0.000579068
-0.00351627
0.000567743
-0.0036161
0.000556124
-0.00371289
0.000543617
-0.00380767
0.000530119
-0.00389938
0.000516841
-0.00398824
0.000502449
-0.00407378
0.000486585
-0.00415671
0.000471679
-0.004237
0.000454314
-0.00431456
0.000437505
-0.00438791
0.000419593
-0.00445757
0.000399646
-0.00452472
0.00038251
-0.00458964
0.000364649
-0.00464878
0.000344202
-0.00470557
0.000326407
-0.00476004
0.00030748
-0.00480872
0.000287646
-0.00485531
0.000268481
-0.00489789
0.000249622
-0.00493624
0.000229114
-0.00497411
0.000210783
-0.00500586
0.000189206
-0.00503365
0.000170258
-0.00505746
0.000149553
0.000130616
-0.00507905
-0.000155012
0.000144955
0.000113643
-0.000202673
0.000175391
-0.000256317
0.000207648
-0.000316744
0.000242927
-0.000382887
0.000277624
-0.000454793
0.000313548
-0.000532587
0.00034981
-0.000615326
0.000385227
-0.000704093
0.000422017
-0.000797482
0.000456394
-0.000896436
0.000491486
-0.000999025
0.000523099
-0.00110627
0.000554182
-0.00121583
0.000581012
-0.00132882
0.000608349
-0.00144535
0.000633023
-0.00156379
0.00065432
-0.0016843
0.000674297
-0.00180688
0.000691498
-0.00192979
0.000705557
-0.00205471
0.000719469
-0.00217981
0.00072928
-0.00230635
0.000738986
-0.00243299
0.000744973
-0.00255901
0.000748264
-0.00268505
0.00075054
-0.00280954
0.00074924
-0.00293358
0.000747959
-0.00305684
0.000744685
-0.0031781
0.000738374
-0.00329858
0.000732489
-0.00341722
0.000723823
-0.00353316
0.000713153
-0.00364727
0.000703142
-0.0037596
0.000691404
-0.0038684
0.000677203
-0.00397519
0.000664111
-0.00408003
0.000648506
-0.00418082
0.000631534
-0.00427949
0.000614519
-0.0043753
0.000596837
-0.00446764
0.000578593
-0.00455522
0.000558323
-0.004642
0.000541375
-0.00472383
0.000519866
-0.0048012
0.000497611
-0.00487775
0.000477279
-0.00494836
0.000453154
-0.0050155
0.000431475
-0.00507982
0.000408228
-0.00513896
0.000385368
-0.00519531
0.000363838
-0.00524767
0.000339993
-0.00529829
0.000319115
-0.00534333
0.000294668
-0.00538564
0.000271428
-0.00542196
0.000247111
-0.00545359
0.000220845
-0.00548352
0.000200195
-0.00550994
0.000175963
0.000152607
-0.00553193
-0.000174507
0.000127407
0.000192055
-0.000230868
0.000231753
-0.000291859
0.00026864
-0.000362861
0.00031393
-0.000438369
0.000353132
-0.000520775
0.000395955
-0.000609363
0.000438399
-0.000701321
0.000477187
-0.000802955
0.000523653
-0.000905759
0.000559199
-0.0010183
0.000604034
-0.0011309
0.000635697
-0.00125311
0.00067639
-0.00137133
0.000699233
-0.00149706
0.000734077
-0.00162632
0.000762286
-0.00175449
0.000782485
-0.00188845
0.00080826
-0.00202237
0.000825413
-0.00215555
0.000838707
-0.00229522
0.000859115
-0.00242895
0.000863003
-0.00256797
0.000878006
-0.00270617
0.000883182
-0.00284239
0.000884471
-0.00298111
0.000889264
-0.00311407
0.000882234
-0.00324863
0.000882513
-0.00338306
0.000879055
-0.00351217
0.00086749
-0.00364305
0.000863413
-0.0037708
0.000851531
-0.003895
0.000837434
-0.00401804
0.000825954
-0.00414033
0.000813857
-0.00425378
0.000791325
-0.00436985
0.000780721
-0.00448208
0.000762065
-0.00458988
0.00073977
-0.00469755
0.000721661
-0.00479615
0.000694806
-0.00489548
0.000676734
-0.00498904
0.000651127
-0.00507982
0.000631159
-0.00516984
0.000610169
-0.00525231
0.000580776
-0.00533277
0.000558613
-0.00540614
0.000526551
-0.0054778
0.000502673
-0.00554358
0.00047371
-0.00560925
0.00045099
-0.00566776
0.000422339
-0.00572308
0.000395324
-0.00577451
0.000370558
-0.00582361
0.000343763
-0.00586485
0.000312677
-0.00590453
0.000286799
-0.00593774
0.000254055
-0.00596831
0.000230775
-0.00599541
0.000203062
-0.00601686
0.000174054
-0.00303808
1.34285e-05
-0.0030497
1.16194e-05
-0.00305963
9.93269e-06
-0.00306769
8.05878e-06
-0.0030735
5.80858e-06
-0.0030767
3.1966e-06
-0.00307815
1.44964e-06
-0.00307752
-6.38718e-07
-0.00307489
-2.6281e-06
-0.00306984
-5.05084e-06
-0.0030629
-6.93591e-06
-0.00305393
-8.97245e-06
-0.00304291
-1.10204e-05
-0.00302983
-1.30851e-05
-0.00301498
-1.48433e-05
-0.0029983
-1.66849e-05
-0.00297959
-1.87067e-05
-0.00295884
-2.07504e-05
-0.00293639
-2.24507e-05
-0.00291207
-2.43274e-05
-0.00288595
-2.61177e-05
-0.00285821
-2.77391e-05
-0.00282873
-2.94816e-05
-0.00279742
-3.13125e-05
-0.00276447
-3.29451e-05
-0.00273015
-3.4327e-05
-0.00269414
-3.6007e-05
-0.00265648
-3.76628e-05
-0.00261728
-3.91994e-05
-0.0025767
-4.05783e-05
-0.00253463
-4.20672e-05
-0.00249112
-4.35119e-05
-0.00244636
-4.4758e-05
-0.00240029
-4.60712e-05
-0.00235289
-4.73988e-05
-0.00230433
-4.85581e-05
-0.00225468
-4.96507e-05
-0.0022039
-5.07763e-05
-0.00215192
-5.19752e-05
-0.00209891
-5.301e-05
-0.00204501
-5.39043e-05
-0.00199017
-5.48379e-05
-0.00193441
-5.57579e-05
-0.0018779
-5.65097e-05
-0.00182049
-5.74071e-05
-0.00176227
-5.82178e-05
-0.00170342
-5.88494e-05
-0.00164402
-5.93962e-05
-0.00158396
-6.00636e-05
-0.00152333
-6.06306e-05
-0.00146225
-6.10786e-05
-0.00140084
-6.14127e-05
-0.0013389
-6.19306e-05
-0.00127675
-6.21533e-05
-0.00121436
-6.23907e-05
-0.00115194
-6.2417e-05
-0.00108923
-6.27082e-05
-0.00102647
-6.27629e-05
-0.00096383
-6.26383e-05
-0.000901391
-6.2438e-05
-6.21996e-05
-0.000839191
-0.00330393
2.87479e-05
-0.00331468
2.23691e-05
-0.00332343
1.86776e-05
-0.00332996
1.45864e-05
-0.00333636
1.22105e-05
-0.00333858
5.41804e-06
-0.00333925
2.11439e-06
-0.00333613
-3.75829e-06
-0.00333236
-6.40283e-06
-0.00332501
-1.24031e-05
-0.00331582
-1.6117e-05
-0.00330433
-2.04638e-05
-0.00329082
-2.45323e-05
-0.00327543
-2.84776e-05
-0.00325757
-3.26998e-05
-0.00323768
-3.6584e-05
-0.00321565
-4.07354e-05
-0.00319167
-4.47285e-05
-0.00316547
-4.86561e-05
-0.00313733
-5.24659e-05
-0.00310742
-5.60236e-05
-0.00307531
-5.98481e-05
-0.00304129
-6.3508e-05
-0.00300551
-6.7089e-05
-0.0029679
-7.05592e-05
-0.00292843
-7.37905e-05
-0.00288718
-7.72618e-05
-0.00284442
-8.04205e-05
-0.00279999
-8.36307e-05
-0.00275373
-8.68388e-05
-0.00270604
-8.97587e-05
-0.00265696
-9.25925e-05
-0.0026062
-9.55132e-05
-0.00255401
-9.82566e-05
-0.0025006
-0.000100812
-0.00244569
-0.000103463
-0.0023895
-0.000105842
-0.00233205
-0.000108222
-0.00227351
-0.000110524
-0.00221378
-0.000112731
-0.00215277
-0.000114919
-0.00209084
-0.000116761
-0.00202796
-0.000118644
-0.001964
-0.000120466
-0.00189922
-0.000122191
-0.00183355
-0.000123879
-0.00176713
-0.00012527
-0.00169979
-0.000126739
-0.00163187
-0.000127983
-0.00156335
-0.000129145
-0.00149427
-0.000130165
-0.00142482
-0.000130854
-0.00135441
-0.000132347
-0.00128424
-0.000132322
-0.00121314
-0.00013349
-0.00114206
-0.000133498
-0.00107017
-0.000134596
-0.000998896
-0.000134034
-0.000927575
-0.000133959
-0.00085627
-0.000133742
-0.000133933
-0.000784537
-0.00359545
4.27854e-05
-0.00360959
3.6513e-05
-0.00361928
2.83678e-05
-0.0036267
2.2008e-05
-0.00362985
1.53499e-05
-0.00363312
8.69627e-06
-0.00363198
9.70612e-07
-0.00362882
-6.92413e-06
-0.00362332
-1.19024e-05
-0.00361616
-1.95657e-05
-0.00360652
-2.57503e-05
-0.00359316
-3.38243e-05
-0.00357806
-3.96348e-05
-0.00356035
-4.61876e-05
-0.00354034
-5.27163e-05
-0.00351791
-5.90078e-05
-0.00349332
-6.53279e-05
-0.00346652
-7.15273e-05
-0.00343746
-7.77152e-05
-0.00340644
-8.34878e-05
-0.00337292
-8.95461e-05
-0.00333749
-9.52791e-05
-0.00330002
-0.000100976
-0.00326055
-0.000106557
-0.00321903
-0.000112082
-0.00317549
-0.000117326
-0.00313014
-0.000122613
-0.00308289
-0.000127675
-0.00303368
-0.000132843
-0.00298303
-0.000137485
-0.0029305
-0.000142286
-0.00287618
-0.000146917
-0.00282056
-0.000151133
-0.00276324
-0.000155574
-0.00270437
-0.000159683
-0.00264408
-0.000163744
-0.00258235
-0.000167579
-0.00251919
-0.00017138
-0.00245474
-0.000174965
-0.00238907
-0.000178409
-0.00232231
-0.00018167
-0.00225416
-0.000184911
-0.00218507
-0.000187739
-0.00211489
-0.00019064
-0.00204376
-0.000193318
-0.00197175
-0.000195888
-0.00189882
-0.000198208
-0.00182507
-0.000200479
-0.00175051
-0.000202548
-0.00167559
-0.000204066
-0.00159938
-0.000206369
-0.00152259
-0.000207642
-0.00144567
-0.000209267
-0.00136839
-0.000209607
-0.00129082
-0.000211055
-0.00121235
-0.000211974
-0.00113446
-0.000212478
-0.00105589
-0.000212609
-0.000977349
-0.000212499
-0.000898398
-0.000212693
-0.000212231
-0.000820099
-0.00392652
5.97585e-05
-0.0039394
4.93868e-05
-0.00395
3.89668e-05
-0.00395634
2.83518e-05
-0.00396051
1.95146e-05
-0.00396223
1.04157e-05
-0.0039596
-1.6608e-06
-0.00395703
-9.48674e-06
-0.00395046
-1.84772e-05
-0.00394182
-2.8202e-05
-0.00392893
-3.86399e-05
-0.00391486
-4.79029e-05
-0.00389826
-5.62346e-05
-0.00387824
-6.6205e-05
-0.00385603
-7.49249e-05
-0.00383128
-8.37594e-05
-0.00380403
-9.25802e-05
-0.00377425
-0.00010131
-0.00374224
-0.000109724
-0.00370755
-0.000118174
-0.00367092
-0.000126174
-0.00363178
-0.000134427
-0.00359054
-0.00014221
-0.00354708
-0.000150014
-0.0035016
-0.000157563
-0.00345374
-0.000165186
-0.00340386
-0.000172497
-0.00335204
-0.000179498
-0.00329841
-0.000186469
-0.00324254
-0.000193358
-0.00318498
-0.000199845
-0.00312577
-0.000206124
-0.00306453
-0.000212372
-0.00300177
-0.000218334
-0.00293741
-0.00022404
-0.00287149
-0.000229664
-0.00280383
-0.000235244
-0.00273478
-0.000240424
-0.00266431
-0.000245434
-0.00259258
-0.000250136
-0.00251937
-0.000254882
-0.00244518
-0.0002591
-0.0023696
-0.00026332
-0.00229301
-0.000267223
-0.00221531
-0.000271019
-0.00213657
-0.000274628
-0.00205687
-0.000277906
-0.00197646
-0.000280893
-0.00189487
-0.000284137
-0.00181256
-0.000286372
-0.0017302
-0.000288726
-0.00164654
-0.000291308
-0.00156251
-0.00029329
-0.00147743
-0.000294691
-0.00139283
-0.000295654
-0.00130742
-0.000297381
-0.00122192
-0.000297977
-0.00113647
-0.000298063
-0.00105051
-0.000298458
-0.000964741
-0.00029846
-0.000298278
-0.000878693
-0.00428595
7.56183e-05
-0.00429764
6.10732e-05
-0.00430908
5.04139e-05
-0.00431635
3.56178e-05
-0.00431942
2.25834e-05
-0.00432019
1.11898e-05
-0.00432108
-7.77485e-07
-0.00431544
-1.51222e-05
-0.00430772
-2.61956e-05
-0.00429608
-3.98416e-05
-0.00428236
-5.23589e-05
-0.00426646
-6.38048e-05
-0.00424654
-7.61592e-05
-0.00422515
-8.7597e-05
-0.0042019
-9.81732e-05
-0.00417364
-0.00011202
-0.00414346
-0.000122763
-0.0041106
-0.000134164
-0.00407506
-0.000145267
-0.00403716
-0.00015607
-0.00399662
-0.00016672
-0.00395397
-0.000177078
-0.00390872
-0.000187454
-0.00386105
-0.00019769
-0.0038108
-0.000207809
-0.00375858
-0.00021741
-0.00370406
-0.000227011
-0.00364723
-0.000236329
-0.00358832
-0.000245382
-0.00352747
-0.000254205
-0.00346448
-0.000262832
-0.00339948
-0.00027113
-0.00333273
-0.000279121
-0.00326421
-0.000286846
-0.00319381
-0.000294437
-0.00312161
-0.000301869
-0.00304801
-0.000308845
-0.00297257
-0.000315863
-0.00289558
-0.000322419
-0.00281701
-0.00032871
-0.00273727
-0.000334617
-0.00265611
-0.000340261
-0.00257381
-0.000345615
-0.00249026
-0.000350779
-0.00240557
-0.00035571
-0.00232014
-0.000360051
-0.00223252
-0.000365532
-0.00214442
-0.000368984
-0.00205612
-0.000372446
-0.0019664
-0.000376083
-0.00187622
-0.000378914
-0.00178568
-0.000381845
-0.00169404
-0.000384923
-0.00160211
-0.000386626
-0.00150854
-0.00038922
-0.00141559
-0.000390334
-0.0013226
-0.000390967
-0.00122913
-0.00039153
-0.00113526
-0.000392334
-0.00104217
-0.000391547
-0.000391648
-0.000948798
-0.00467517
9.23271e-05
-0.00468969
7.55957e-05
-0.00469805
5.87786e-05
-0.00470621
4.37779e-05
-0.00471218
2.85496e-05
-0.00471201
1.10211e-05
-0.00470778
-5.00368e-06
-0.00470327
-1.96326e-05
-0.00469281
-3.66635e-05
-0.00468215
-5.04956e-05
-0.00466746
-6.705e-05
-0.00464877
-8.24999e-05
-0.00462796
-9.69663e-05
-0.00460322
-0.000112337
-0.00457447
-0.000126925
-0.00454381
-0.000142677
-0.00451056
-0.000156013
-0.00447482
-0.000169904
-0.00443574
-0.000184342
-0.00439391
-0.000197908
-0.00434959
-0.000211036
-0.00430236
-0.00022431
-0.00425262
-0.000237195
-0.00420037
-0.000249934
-0.00414566
-0.000262519
-0.00408824
-0.000274829
-0.00402862
-0.000286636
-0.00396651
-0.00029844
-0.00390209
-0.000309797
-0.00383562
-0.000320681
-0.00376679
-0.000331663
-0.00369581
-0.000342107
-0.00362292
-0.000352013
-0.00354818
-0.00036158
-0.00347131
-0.000371306
-0.00339277
-0.000380413
-0.00331218
-0.000389434
-0.00322986
-0.000398185
-0.00314597
-0.000406309
-0.00306055
-0.000414122
-0.00297339
-0.000421777
-0.00288499
-0.00042866
-0.00279522
-0.000435388
-0.00270391
-0.000442089
-0.00261168
-0.000447936
-0.00251831
-0.000453421
-0.00242444
-0.000459397
-0.00232889
-0.000464539
-0.00223207
-0.000469268
-0.00213474
-0.000473404
-0.0020362
-0.000477453
-0.00193663
-0.00048142
-0.00183742
-0.00048413
-0.00173662
-0.000487426
-0.00163616
-0.000489679
-0.00153506
-0.00049143
-0.00143267
-0.000493359
-0.00133064
-0.000493557
-0.00122928
-0.000493694
-0.0011273
-0.000493533
-0.000493365
-0.00102558
-0.0050965
0.000109777
-0.00511175
9.08424e-05
-0.00512291
6.99342e-05
-0.00512993
5.08017e-05
-0.0051309
2.95171e-05
-0.00513175
1.18748e-05
-0.00512846
-8.29483e-06
-0.00512106
-2.70331e-05
-0.00511158
-4.61427e-05
-0.00509631
-6.57662e-05
-0.005079
-8.43562e-05
-0.00505949
-0.000102014
-0.00503409
-0.000122362
-0.00500668
-0.000139753
-0.00497729
-0.000156317
-0.00494392
-0.000176045
-0.00490652
-0.000193414
-0.00486628
-0.000210141
-0.00482286
-0.000227759
-0.00477756
-0.000243209
-0.00472857
-0.000260028
-0.00467706
-0.000275822
-0.00462266
-0.000291601
-0.00456533
-0.000307258
-0.00450522
-0.000322635
-0.00444245
-0.000337596
-0.00437697
-0.00035211
-0.00430923
-0.000366185
-0.00423911
-0.000379911
-0.00416642
-0.000393375
-0.00409127
-0.000406812
-0.00401398
-0.000419395
-0.00393431
-0.000431682
-0.00385283
-0.000443065
-0.00376933
-0.000454801
-0.0036837
-0.000466044
-0.00359606
-0.000477071
-0.00350636
-0.000487889
-0.00341484
-0.000497826
-0.00332154
-0.000507421
-0.00322671
-0.000516603
-0.00312991
-0.000525456
-0.00303232
-0.000532981
-0.00293343
-0.000540982
-0.00283353
-0.000547837
-0.00273163
-0.000555315
-0.00262837
-0.000562655
-0.00252447
-0.000568445
-0.00242032
-0.000573415
-0.00231395
-0.000579772
-0.00220714
-0.000584264
-0.00210015
-0.000588406
-0.00199131
-0.000592972
-0.00188237
-0.000596366
-0.00177231
-0.000599737
-0.00166179
-0.00060195
-0.00155176
-0.000603395
-0.00144106
-0.000604254
-0.00132995
-0.000604802
-0.00121898
-0.000604498
-0.000604093
-0.00110826
-0.00554999
0.000127832
-0.00556371
0.000104554
-0.00557363
7.98453e-05
-0.0055812
5.83702e-05
-0.00558498
3.32988e-05
-0.00558294
9.83624e-06
-0.00557889
-1.234e-05
-0.00556847
-3.74541e-05
-0.00555603
-5.85819e-05
-0.0055402
-8.15988e-05
-0.00552226
-0.000102294
-0.0054984
-0.00012588
-0.00547217
-0.00014859
-0.00544224
-0.000169682
-0.00540697
-0.000191587
-0.00537105
-0.000211959
-0.00533124
-0.000233231
-0.00528543
-0.000255948
-0.00523916
-0.00027403
-0.00518795
-0.000294417
-0.00513353
-0.000314449
-0.00507713
-0.000332221
-0.00501794
-0.000350788
-0.00495505
-0.000370151
-0.00488924
-0.000388449
-0.00482045
-0.00040638
-0.00474892
-0.000423643
-0.00467475
-0.00044035
-0.00459804
-0.000456625
-0.00451883
-0.000472588
-0.00443673
-0.000488912
-0.00435262
-0.000503506
-0.00426584
-0.000518452
-0.00417769
-0.000531216
-0.00408686
-0.000545636
-0.00399381
-0.000559093
-0.00389865
-0.000572234
-0.00380093
-0.000585601
-0.00370098
-0.000597775
-0.00359955
-0.000608851
-0.00349651
-0.000619647
-0.00339165
-0.00063031
-0.00328461
-0.000640019
-0.00317773
-0.000647863
-0.00306865
-0.00065692
-0.00295737
-0.000666596
-0.00284681
-0.000673213
-0.00273345
-0.000681802
-0.00261985
-0.000687013
-0.00250533
-0.000694295
-0.00238875
-0.00070084
-0.00227239
-0.000704764
-0.00215472
-0.000710646
-0.00203716
-0.000713921
-0.00191719
-0.000719711
-0.00179783
-0.000721303
-0.00167685
-0.000724375
-0.00155659
-0.000724514
-0.0014361
-0.000725293
-0.00131615
-0.000724454
-0.000724746
-0.00119549
-0.00603551
0.000146468
-0.00604894
0.000117978
-0.00605929
9.01902e-05
-0.00606289
6.19707e-05
-0.00606525
3.56617e-05
-0.00606386
8.44151e-06
-0.006058
-1.82004e-05
-0.00604735
-4.80995e-05
-0.00603153
-7.44009e-05
-0.00601506
-9.80725e-05
-0.00599255
-0.000124803
-0.00596646
-0.00015197
-0.005938
-0.000177051
-0.00590269
-0.000204992
-0.00586814
-0.000226137
-0.00582633
-0.000253762
-0.00578019
-0.00027938
-0.00573269
-0.000303443
-0.00567858
-0.000328143
-0.0056235
-0.000349498
-0.00556581
-0.000372136
-0.00550237
-0.000395663
-0.00543894
-0.000414219
-0.00536976
-0.000439328
-0.00529701
-0.000461202
-0.00522268
-0.000480709
-0.00514353
-0.000502793
-0.0050634
-0.000520477
-0.00497778
-0.000542244
-0.00489354
-0.000556825
-0.00480192
-0.000580534
-0.0047119
-0.000593531
-0.00461574
-0.000614609
-0.00452184
-0.000625111
-0.00442357
-0.00064391
-0.00432223
-0.000660434
-0.00422019
-0.00067427
-0.00411315
-0.00069264
-0.00400405
-0.000706879
-0.00389546
-0.000717432
-0.00378149
-0.000733622
-0.00366612
-0.000745682
-0.00355202
-0.000754111
-0.00343309
-0.000766795
-0.00331821
-0.000771801
-0.00319551
-0.000789288
-0.00307658
-0.000792145
-0.00295167
-0.000806714
-0.00283092
-0.000807758
-0.00270686
-0.000818355
-0.00257993
-0.000827776
-0.00245612
-0.00082857
-0.00232699
-0.000839774
-0.0022012
-0.000839716
-0.00206845
-0.000852459
-0.00194072
-0.000849025
-0.00180661
-0.000858492
-0.0016802
-0.00085092
-0.00154671
-0.000858784
-0.00141903
-0.000852134
-0.00128478
-0.000858995
-0.000776797
-6.23944e-05
-0.000714758
-6.20386e-05
-0.000653093
-6.1664e-05
-0.000591842
-6.12513e-05
-0.000531066
-6.07757e-05
-0.00047081
-6.02553e-05
-0.000411335
-5.94746e-05
-0.000352693
-5.86422e-05
-0.000295096
-5.75967e-05
-0.000238684
-5.64116e-05
-0.000183248
-5.54367e-05
-0.000126905
-5.63425e-05
-6.88229e-05
-5.80826e-05
-9.56164e-06
-5.92614e-05
4.85415e-05
-5.81034e-05
0.000103917
-5.53761e-05
0.00015706
-5.3143e-05
0.000208473
-5.14137e-05
0.000258323
-4.98496e-05
0.000306611
-4.82889e-05
0.000353353
-4.6743e-05
0.000398493
-4.514e-05
0.000441961
-4.34681e-05
0.000483624
-4.1664e-05
0.000523424
-3.98008e-05
0.000561298
-3.78748e-05
0.000597128
-3.58305e-05
0.000630782
-3.36545e-05
0.000662146
-3.13642e-05
0.000691129
-2.89836e-05
0.000717533
-2.64055e-05
0.000741203
-2.36702e-05
0.000762016
-2.08138e-05
0.000779729
-1.77132e-05
0.000794125
-1.43969e-05
0.000805013
-1.08887e-05
0.000812138
-7.12639e-06
0.000815197
-3.05908e-06
0.000814851
3.44694e-07
0.000810956
3.89512e-06
0.000803668
7.28669e-06
0.000792293
1.13744e-05
0.000776324
1.59683e-05
0.000755341
2.0983e-05
0.000728711
2.66299e-05
0.00069581
3.29002e-05
0.000656022
3.97875e-05
0.00060861
4.74112e-05
0.000552718
5.58921e-05
0.000487576
6.51415e-05
0.000412455
7.51208e-05
0.000326784
8.56702e-05
0.000230058
9.6726e-05
0.000121729
0.000108327
-4.8489e-06
0.000126577
-0.000145404
0.000140554
-0.000276311
0.000130906
-0.000385638
0.000109326
-0.000468771
8.31324e-05
-0.000530464
6.16913e-05
5.10611e-05
-0.000581526
-0.000713424
-0.000133507
-0.000642008
-0.000133454
-0.00057081
-0.000132862
-0.000499868
-0.000132192
-0.000429542
-0.000131102
-0.000359339
-0.000130458
-0.000289676
-0.000129137
-0.000220413
-0.000127906
-0.000151881
-0.000126128
-8.39153e-05
-0.000124377
-1.54939e-05
-0.000123858
5.33127e-05
-0.000125149
0.000120965
-0.000125735
0.000187359
-0.000125655
0.000253059
-0.000123803
0.000318165
-0.000120483
0.000382172
-0.00011715
0.000444862
-0.000114103
0.000506155
-0.000111143
0.000566071
-0.000108206
0.000624614
-0.000105286
0.000681641
-0.000102167
0.000737125
-9.89529e-05
0.000791061
-9.56001e-05
0.000843344
-9.20844e-05
0.000893914
-8.84451e-05
0.000942639
-8.4556e-05
0.000989538
-8.05544e-05
0.00103446
-7.62908e-05
0.00107724
-7.17618e-05
0.00111789