/*--------------------------------*- C++ -*----------------------------------*\
| =========                 |                                                 |
| \\      /  F ield         | OpenFOAM: The Open Source CFD Toolbox           |
|  \\    /   O peration     | Version:  2.3.1                                 |
|   \\  /    A nd           | Web:      www.OpenFOAM.org                      |
|    \\/     M anipulation  |                                                 |
\*---------------------------------------------------------------------------*/
FoamFile
{
    version     2.0;
    format      ascii;
    class       volScalarField;
    location    "0.5";
    object      p;
}
// * * * * * * * * * * * * * * * * * * * * * * * * * * * * * * * * * * * * * //

dimensions      [0 2 -2 0 0 0 0];

internalField   nonuniform List<scalar> 
768
(
-8.38138e-08
-0.00213604
-0.00344671
-0.00267187
-0.00170624
-0.000525906
0.000689019
0.00178886
0.00270458
0.00330663
0.00358211
0.00381748
7.20258e-05
-0.00137714
-0.00222014
-0.00192927
-0.00121592
-0.000274589
0.000733755
0.00167734
0.00250822
0.00307311
0.00323507
0.00331991
0.000302557
-0.000739047
-0.00135701
-0.00125787
-0.000745106
-7.57811e-06
0.000813072
0.0015897
0.00232033
0.00280298
0.00283915
0.00273783
0.000535038
-0.000239542
-0.000709539
-0.000694747
-0.000331383
0.000237228
0.000893396
0.00153092
0.00211381
0.0025042
0.00249078
0.00220495
0.00401183
0.00354407
0.00360504
0.00330333
0.00306042
0.00285081
0.00271354
0.00265403
0.00262997
0.00256107
0.00225691
0.00145575
0.00364418
0.00354026
0.00350636
0.00333511
0.00314149
0.00296663
0.00283329
0.0027311
0.00261449
0.00240759
0.00197818
0.0011759
0.00340273
0.00359308
0.00350563
0.00335909
0.0031792
0.00300672
0.00285945
0.00272532
0.00256127
0.00230018
0.00185012
0.00112513
0.00343771
0.00371847
0.00354122
0.00338622
0.0032071
0.00302902
0.00286158
0.00269379
0.00249129
0.00220398
0.00177153
0.00114481
-0.000223635
-0.00238222
-0.00373672
-0.00290595
-0.00191236
-0.000718521
0.000504903
0.00161079
0.00253168
0.00313817
0.00341847
0.00365938
-0.000135282
-0.0016098
-0.00247292
-0.00215728
-0.00142356
-0.000468735
0.000548285
0.00149818
0.00233515
0.00290442
0.00307125
0.00316219
0.000103583
-0.000957229
-0.00158625
-0.00147672
-0.000950436
-0.000201277
0.000627573
0.0014095
0.00214749
0.00263384
0.00267472
0.00257982
0.000343141
-0.000445999
-0.000923488
-0.000904174
-0.000532013
4.54602e-05
0.000708598
0.00135145
0.00193979
0.00233429
0.0023251
0.00204518
0.00398592
0.00353909
0.00361955
0.00333448
0.00310914
0.00291785
0.0027989
0.00275742
0.00275078
0.00269738
0.00240864
0.00163116
0.00362101
0.0035388
0.00352444
0.00336981
0.00319315
0.0030357
0.00292009
0.00283565
0.00273659
0.00254638
0.00213322
0.00135025
0.00338363
0.00359507
0.00352681
0.00339699
0.00323364
0.00307794
0.00294768
0.00283067
0.00268383
0.00243977
0.00200626
0.00129954
0.00342533
0.00372564
0.00356644
0.00342736
0.00326408
0.00310207
0.00295098
0.00279971
0.00261385
0.00234309
0.00192703
0.00131718
0.000728082
0.000135362
-0.000231113
-0.000256697
-3.6148e-07
0.000437295
0.000960585
0.00147842
0.00194081
0.00225697
0.00224778
0.00197269
0.00088334
0.000411976
0.000115066
7.2175e-05
0.000255444
0.000594934
0.00101506
0.00143886
0.00182247
0.00208082
0.00217776
0.00204793
0.00100836
0.000620128
0.000371749
0.000321307
0.000453709
0.000720005
0.0010606
0.00141102
0.00173212
0.00194897
0.00204565
0.00198512
0.00111004
0.000781002
0.000567832
0.000512973
0.00060902
0.000820124
0.00109907
0.00139216
0.00166395
0.00185241
0.00195333
0.00194259
0.00119283
0.000906618
0.000718868
0.000661406
0.000730774
0.000900084
0.00113128
0.00137953
0.00161277
0.00178004
0.00187957
0.00189614
0.00125966
0.0010047
0.000835328
0.00077619
0.000825828
0.000963436
0.0011578
0.00137108
0.00157436
0.00172526
0.00182164
0.00185216
0.00131295
0.00108083
0.000924746
0.000864363
0.000899323
0.00101295
0.00117911
0.00136537
0.0015455
0.0016836
0.00177638
0.00181367
0.00135469
0.00113909
0.000992512
0.000931103
0.000955098
0.00105078
0.00119565
0.00136135
0.00152386
0.00165204
0.00174134
0.00178189
0.00138645
0.00118242
0.00104249
0.000980092
0.000996053
0.00107857
0.00120779
0.00135828
0.00150781
0.00162852
0.0017149
0.00175688
0.00140948
0.00121307
0.00107753
0.00101414
0.00102441
0.00109764
0.00121592
0.00135565
0.00149611
0.00161154
0.00169579
0.00173833
0.00142492
0.00123284
0.00109924
0.00103542
0.00104198
0.00110918
0.00122035
0.00135317
0.00148789
0.00160003
0.00168305
0.00172558
0.00143507
0.00124509
0.00111124
0.00104663
0.0010508
0.00111455
0.00122189
0.00135116
0.00148306
0.00159318
0.00167514
0.00171623
0.00387808
0.00384025
0.00360495
0.00341163
0.00322409
0.00303918
0.00285714
0.00266584
0.00243783
0.00213756
0.00172854
0.00118599
0.00401778
0.00387059
0.00362841
0.00342239
0.00322916
0.003038
0.00284537
0.00263927
0.00239738
0.0020945
0.00171016
0.0012347
0.00401048
0.00384634
0.00362203
0.00341827
0.00322432
0.00302959
0.00282957
0.00261377
0.00236476
0.00206505
0.00170476
0.00128287
0.00394715
0.00379573
0.00359788
0.00340435
0.00321293
0.00301722
0.00281296
0.00259146
0.00233962
0.00204571
0.00170721
0.00132797
0.00387416
0.00374099
0.00356694
0.00338528
0.00319817
0.00300324
0.00279704
0.00257282
0.00232096
0.00203399
0.00171448
0.00136889
0.00380543
0.00369008
0.00353531
0.0033647
0.0031825
0.00298938
0.00278273
0.00255767
0.00230734
0.00202741
0.00172391
0.00140462
0.00374595
0.00364584
0.00350602
0.00334497
0.00316766
0.00297679
0.00277061
0.00254584
0.00229775
0.00202431
0.00173386
0.00143487
0.00369706
0.00360917
0.00348067
0.00332752
0.0031547
0.00296621
0.002761
0.00253706
0.00229142
0.00202359
0.00174341
0.00145974
0.00365865
0.00358018
0.00346007
0.00331321
0.00314433
0.00295809
0.00275404
0.00253112
0.00228775
0.0020245
0.00175202
0.00147949
0.00363014
0.00355863
0.00344461
0.00330259
0.00313699
0.00295275
0.00274987
0.00252787
0.00228641
0.00202657
0.00175942
0.00149447
0.00361004
0.00354391
0.00343426
0.00329603
0.00313293
0.00295035
0.00274855
0.00252716
0.00228713
0.00202949
0.00176552
0.00150513
0.00359439
0.00353373
0.00342741
0.00329183
0.00313127
0.00295011
0.00274943
0.00252839
0.0022892
0.00203332
0.00177104
0.0015129
0.00054362
-6.12871e-05
-0.000434047
-0.000457996
-0.000196305
0.000247741
0.000776683
0.00129931
0.00176619
0.00208623
0.0020805
0.00180916
0.000704842
0.000222838
-7.98158e-05
-0.000122908
6.34582e-05
0.000407455
0.000832096
0.00126003
0.00164743
0.00190922
0.00200901
0.00188177
0.000834143
0.000436433
0.000182689
0.000130925
0.000264996
0.000534411
0.00087856
0.00123248
0.00155681
0.00177664
0.00187573
0.00181707
0.000939234
0.000601558
0.000383183
0.000326485
0.000423046
0.000636206
0.000917904
0.0012139
0.00148846
0.00167948
0.00178241
0.00177311
0.0010249
0.000730629
0.000537723
0.000477877
0.000547009
0.000717606
0.000950909
0.00120155
0.00143716
0.00160662
0.00170786
0.00172555
0.00109409
0.000831474
0.000656917
0.000594925
0.000643843
0.000782176
0.000978116
0.00119337
0.00139868
0.00155145
0.00164931
0.00168074
0.00114927
0.000909772
0.00074847
0.000684956
0.000718797
0.000832704
0.00100002
0.0011879
0.00136977
0.0015095
0.00160356
0.00164161
0.00119251
0.000969681
0.000817882
0.000753174
0.000775736
0.000871341
0.00101705
0.00118409
0.00134812
0.00147773
0.00156816
0.00160936
0.0012254
0.00101425
0.000869094
0.000803299
0.00081759
0.000899774
0.00102958
0.00118119
0.00133205
0.00145405
0.00154144
0.00158401
0.00124922
0.00104576
0.000905001
0.000838153
0.000846591
0.000919303
0.00103799
0.00117869
0.00132036
0.00143697
0.00152215
0.00156522
0.00126514
0.00106608
0.000927283
0.000859943
0.000864582
0.000931143
0.0010426
0.0011763
0.00131214
0.00142539
0.0015093
0.00155233
0.00127551
0.00107859
0.000939503
0.000871402
0.000873608
0.000936668
0.00104424
0.00117433
0.00130731
0.0014185
0.00150133
0.0015429
0.00387826
0.00385408
0.00363427
0.00345601
0.00328352
0.00311396
0.00294758
0.00277219
0.00256022
0.00227575
0.0018823
0.00135473
0.00402854
0.00389134
0.0036623
0.00347
0.00329095
0.0031144
0.00293676
0.0027459
0.00251941
0.00223158
0.00186183
0.00139995
0.00402997
0.00387344
0.00366026
0.00346897
0.0032883
0.00310747
0.0029218
0.00272061
0.00248634
0.00220094
0.00185445
0.00144529
0.00397369
0.00382835
0.00364006
0.00345788
0.00327891
0.00309644
0.00290592
0.00269847
0.00246076
0.00218046
0.00185508
0.00148789
0.00390634
0.00377822
0.00361256
0.00344132
0.00326594
0.00308364
0.00289064
0.00267995
0.00244169
0.00216772
0.00186074
0.00152662
0.0038421
0.00373111
0.00358385
0.0034229
0.00325182
0.0030708
0.00287689
0.00266491
0.00242771
0.00216027
0.00186883
0.00156055
0.00378616
0.00368993
0.00355697
0.00340498
0.00323827
0.00305907
0.00286524
0.00265315
0.00241781
0.00215644
0.0018777
0.00158932
0.00374002
0.00365566
0.00353354
0.00338899
0.00322637
0.00304919
0.00285601
0.00264442
0.00241123
0.00215514
0.00188639
0.001613
0.00370367
0.00362849
0.00351442
0.00337582
0.00321682
0.00304163
0.00284936
0.00263851
0.00240737
0.00215563
0.00189432
0.00163184
0.00367663
0.00360824
0.00350003
0.00336603
0.00321007
0.0030367
0.00284545
0.00263525
0.00240589
0.0021574
0.00190123
0.00164615
0.00365745
0.00359436
0.00349037
0.00336002
0.0032064
0.00303458
0.00284434
0.00263448
0.00240652
0.00216012
0.00190701
0.00165638
0.00364226
0.00358458
0.00348384
0.00335596
0.00320493
0.00303448
0.00284543
0.00263558
0.00240849
0.00216392
0.00191238
0.00166395
)
;

boundaryField
{
    rotor
    {
        type            zeroGradient;
    }
    stator
    {
        type            zeroGradient;
    }
    AMI1
    {
        type            cyclicAMI;
        value           nonuniform 0();
    }
    AMI2
    {
        type            cyclicAMI;
        value           nonuniform List<scalar> 
48
(
-9.95375e-05
-0.00276094
-0.00412036
-0.00316021
-0.00200854
-0.000661662
0.000678911
0.00185029
0.00278292
0.00338273
0.00371643
0.00403557
0.0042588
0.00341249
0.00360792
0.00327653
0.0029949
0.00276803
0.00265451
0.00267922
0.00278108
0.00286407
0.00266804
0.00184437
-0.00031137
-0.00299773
-0.00440402
-0.00338579
-0.002208
-0.000850122
0.000497152
0.00167356
0.00261089
0.00321506
0.00355354
0.00387804
0.0042334
0.00340833
0.0036232
0.00330778
0.00304402
0.00283593
0.00274093
0.00278369
0.00290345
0.00300194
0.00282133
0.00202019
)
;
    }
    front
    {
        type            empty;
    }
    back
    {
        type            empty;
    }
    procBoundary0to1
    {
        type            processor;
        value           nonuniform List<scalar> 8(0.0038597 0.00349299 0.00325281 0.00328971 0.00376827 0.00327107 0.00268796 0.00214907);
    }
}


// ************************************************************************* //
