/*--------------------------------*- C++ -*----------------------------------*\
| =========                 |                                                 |
| \\      /  F ield         | OpenFOAM: The Open Source CFD Toolbox           |
|  \\    /   O peration     | Version:  2.3.1                                 |
|   \\  /    A nd           | Web:      www.OpenFOAM.org                      |
|    \\/     M anipulation  |                                                 |
\*---------------------------------------------------------------------------*/
FoamFile
{
    version     2.0;
    format      ascii;
    class       surfaceScalarField;
    location    "0.5";
    object      phi;
}
// * * * * * * * * * * * * * * * * * * * * * * * * * * * * * * * * * * * * * //

dimensions      [0 3 -1 0 0 0 0];

internalField   nonuniform List<scalar> 
1460
(
-1.52999e-08
7.79118e-07
1.59359e-07
4.29623e-08
4.67239e-07
-5.00755e-08
4.38205e-08
-1.62294e-07
-2.56187e-07
-2.78489e-07
-4.84204e-07
-3.8644e-07
-6.55319e-07
-4.74346e-07
-7.76622e-07
-5.59984e-07
-8.34891e-07
-6.80575e-07
-8.25315e-07
-8.69212e-07
-7.39564e-07
-1.00872e-06
-7.72472e-07
-1.11077e-06
-8.26542e-07
1.7337e-07
6.84948e-07
-7.92e-08
2.20761e-07
4.19849e-07
1.76549e-07
8.8032e-08
1.12866e-07
-1.92504e-07
4.24299e-08
-4.13768e-07
-2.89673e-08
-5.83922e-07
-1.14611e-07
-6.90978e-07
-2.22987e-07
-7.26515e-07
-3.83086e-07
-6.65216e-07
-6.53271e-07
-4.69379e-07
-9.75088e-07
-4.50654e-07
-1.10895e-06
-9.76908e-07
3.7382e-07
6.00232e-07
-2.89104e-07
4.19813e-07
3.73856e-07
4.09339e-07
9.85063e-08
3.63373e-07
-1.46539e-07
2.97325e-07
-3.4772e-07
2.12787e-07
-4.99383e-07
1.1166e-07
-5.89852e-07
-1.17925e-08
-6.03062e-07
-1.7899e-07
-4.98019e-07
-4.13825e-07
-2.34544e-07
-7.46328e-07
-1.18151e-07
-9.02104e-07
-9.53176e-07
4.26498e-07
-3.33782e-07
5.07516e-07
4.79438e-07
3.20915e-07
4.80764e-07
9.71798e-08
4.43994e-07
-1.09768e-07
3.7751e-07
-2.81237e-07
2.8825e-07
-4.10123e-07
1.81616e-07
-4.83218e-07
6.07353e-08
-4.82181e-07
-6.23527e-08
-3.74931e-07
-1.62134e-07
-1.34762e-07
-3.25986e-07
4.5701e-08
-6.78164e-07
-5.49926e-07
-4.43527e-07
-1.14375e-06
-5.42741e-07
-1.78644e-07
-5.99779e-07
3.68053e-08
-5.68489e-07
1.23519e-07
-5.22048e-07
2.90739e-07
-4.75599e-07
4.92156e-07
-4.40954e-07
6.90644e-07
-4.21839e-07
8.55988e-07
-4.05017e-07
9.65474e-07
-3.6473e-07
1.01765e-06
-2.81202e-07
1.01843e-06
9.55612e-07
-1.50818e-07
-5.34798e-07
-1.58586e-06
-4.43953e-07
-2.69489e-07
-5.24061e-07
1.16913e-07
-5.26203e-07
1.25661e-07
-4.92099e-07
2.56635e-07
-4.26562e-07
4.26619e-07
-3.37e-07
6.01081e-07
-2.43928e-07
7.62916e-07
-1.62621e-07
8.84168e-07
-8.99463e-08
9.44972e-07
-1.36702e-08
9.42151e-07
8.6223e-07
7.97114e-08
-6.63066e-07
-1.87597e-06
-4.87408e-07
-4.45146e-07
-4.80708e-07
1.10212e-07
-4.72457e-07
1.1741e-07
-4.41302e-07
2.25479e-07
-3.88238e-07
3.73556e-07
-3.03247e-07
5.1609e-07
-1.90419e-07
6.50088e-07
-6.46633e-08
7.58412e-07
5.97511e-08
8.20558e-07
1.77286e-07
8.24616e-07
7.55322e-07
2.84194e-07
-6.32218e-07
-1.92192e-06
-5.36141e-07
-5.41223e-07
-4.63119e-07
3.71903e-08
-4.25239e-07
7.95303e-08
-3.85793e-07
1.86033e-07
-3.3536e-07
3.23122e-07
-2.65156e-07
4.45887e-07
-1.70763e-07
5.55695e-07
-5.41602e-08
6.41809e-07
7.55547e-08
6.90843e-07
2.07493e-07
6.92678e-07
3.28286e-07
6.34529e-07
-1.04389e-08
7.86988e-07
4.60442e-08
4.80178e-07
-5.11029e-08
5.71149e-08
-1.65511e-07
-2.48458e-07
-2.81007e-07
-4.81051e-07
-3.87176e-07
-6.55256e-07
-4.7365e-07
-7.77937e-07
-5.58709e-07
-8.36281e-07
-6.79303e-07
-8.26243e-07
-8.6818e-07
-7.39904e-07
-1.00794e-06
-7.72407e-07
-1.11051e-06
1.71835e-07
6.94864e-07
2.19817e-07
4.32196e-07
1.75072e-07
1.01861e-07
1.10979e-07
-1.84365e-07
4.16352e-08
-4.11707e-07
-2.84679e-08
-5.85152e-07
-1.13547e-07
-6.92858e-07
-2.21916e-07
-7.27912e-07
-3.8224e-07
-6.65919e-07
-6.52651e-07
-4.69494e-07
-9.74607e-07
-4.50451e-07
-1.10858e-06
3.71431e-07
6.07627e-07
4.19596e-07
3.84031e-07
4.09584e-07
1.11873e-07
3.63636e-07
-1.38418e-07
2.98255e-07
-3.46326e-07
2.13916e-07
-5.00814e-07
1.12603e-07
-5.91545e-07
-1.11714e-08
-6.04137e-07
-1.78573e-07
-4.98517e-07
-4.13508e-07
-2.34559e-07
-7.46055e-07
-1.17904e-07
-9.01653e-07
4.24347e-07
5.11566e-07
4.79683e-07
3.28695e-07
4.82468e-07
1.09088e-07
4.46386e-07
-1.02335e-07
3.79637e-07
-2.79577e-07
2.89613e-07
-4.1079e-07
1.82315e-07
-4.84247e-07
6.10399e-08
-4.82863e-07
-6.22514e-08
-3.75226e-07
-1.6209e-07
-1.34721e-07
-3.25733e-07
4.57387e-08
-5.49508e-07
-4.41121e-07
-1.1432e-06
-5.40507e-07
-1.79088e-07
-5.98135e-07
3.6777e-08
-5.67457e-07
1.23474e-07
-5.21405e-07
2.90595e-07
-4.75215e-07
4.92316e-07
-4.41092e-07
6.91833e-07
-4.23115e-07
8.58817e-07
-4.0825e-07
9.7055e-07
-3.70882e-07
1.02556e-06
-2.90082e-07
1.02843e-06
9.59585e-07
-5.32645e-07
-1.58417e-06
-4.42424e-07
-2.69308e-07
-5.22761e-07
1.17114e-07
-5.25448e-07
1.2616e-07
-4.91844e-07
2.56991e-07
-4.26655e-07
4.27127e-07
-3.37307e-07
6.02485e-07
-2.44681e-07
7.66192e-07
-1.64497e-07
8.90367e-07
-9.35692e-08
9.54631e-07
-1.82823e-08
9.53145e-07
8.62103e-07
-6.60722e-07
-1.87346e-06
-4.85902e-07
-4.44129e-07
-4.79619e-07
1.10832e-07
-4.7172e-07
1.1826e-07
-4.41017e-07
2.26289e-07
-3.88371e-07
3.7448e-07
-3.03626e-07
5.1774e-07
-1.90748e-07
6.53314e-07
-6.45818e-08
7.64201e-07
6.08111e-08
8.29238e-07
1.80851e-07
8.33105e-07
7.5385e-07
-6.30161e-07
-1.91841e-06
-5.34654e-07
-5.39636e-07
-4.62063e-07
3.82409e-08
-4.24466e-07
8.06627e-08
-3.8533e-07
1.87153e-07
-3.35186e-07
3.24337e-07
-2.65164e-07
4.47718e-07
-1.70563e-07
5.58713e-07
-5.28801e-08
6.46517e-07
7.90983e-08
6.9726e-07
2.13872e-07
6.98332e-07
6.3394e-07
3.65448e-07
4.22074e-07
-2.80005e-07
4.16455e-07
2.69909e-07
4.22931e-07
9.07038e-08
3.94023e-07
-8.0861e-08
3.36827e-07
-2.2404e-07
2.58912e-07
-3.32209e-07
1.68287e-07
-3.92593e-07
7.52536e-08
-3.89148e-07
4.08327e-10
-3.00086e-07
2.31263e-09
-1.36667e-07
8.9001e-08
-4.09873e-08
-4.60925e-07
2.96527e-07
3.52432e-07
-2.26885e-07
3.39202e-07
2.27234e-07
3.47673e-07
8.22325e-08
3.26475e-07
-5.96629e-08
2.81684e-07
-1.7925e-07
2.19575e-07
-2.70099e-07
1.4822e-07
-3.21238e-07
7.85084e-08
-3.19437e-07
2.60852e-08
-2.47662e-07
2.43561e-08
-1.34938e-07
7.06499e-08
-8.72812e-08
-3.90275e-07
2.51009e-07
2.95359e-07
-1.93935e-07
2.86533e-07
1.9171e-07
2.95667e-07
7.3099e-08
2.80127e-07
-4.41231e-08
2.45286e-07
-1.44408e-07
1.95526e-07
-2.20339e-07
1.38148e-07
-2.6386e-07
8.38256e-08
-2.65114e-07
4.91018e-08
-2.12939e-07
5.27345e-08
-1.3857e-07
7.65468e-08
-1.11093e-07
-3.13729e-07
2.19056e-07
2.46633e-07
-1.70331e-07
2.49764e-07
1.61002e-07
2.59106e-07
6.37567e-08
2.48241e-07
-3.32585e-08
2.20343e-07
-1.1651e-07
1.79606e-07
-1.79603e-07
1.32215e-07
-2.16468e-07
8.75251e-08
-2.20424e-07
6.01688e-08
-1.85582e-07
6.03593e-08
-1.38761e-07
6.6636e-08
-1.1737e-07
-2.47093e-07
1.93809e-07
2.04025e-07
-1.51201e-07
2.20968e-07
1.33843e-07
2.30649e-07
5.40759e-08
2.22733e-07
-2.53428e-08
2.00231e-07
-9.40072e-08
1.66814e-07
-1.46186e-07
1.27399e-07
-1.77054e-07
8.94922e-08
-1.82517e-07
6.40562e-08
-1.60146e-07
5.66625e-08
-1.31367e-07
5.14783e-08
-1.12186e-07
-1.95614e-07
1.7347e-07
1.66302e-07
-1.35746e-07
1.98064e-07
1.09249e-07
2.07625e-07
4.45144e-08
2.021e-07
-1.98172e-08
1.8391e-07
-7.58173e-08
1.56065e-07
-1.18341e-07
1.22879e-07
-1.43868e-07
9.0132e-08
-1.4977e-07
6.53821e-08
-1.35397e-07
5.15481e-08
-1.17533e-07
3.9895e-08
-1.00533e-07
-1.55719e-07
1.57215e-07
1.32424e-07
-1.23337e-07
1.7981e-07
8.66539e-08
1.89024e-07
3.52998e-08
1.8548e-07
-1.62725e-08
1.70375e-07
-6.07128e-08
1.46949e-07
-9.49152e-08
1.18421e-07
-1.1534e-07
8.96346e-08
-1.20984e-07
6.57202e-08
-1.11482e-07
4.82889e-08
-1.00102e-07
3.32692e-08
-8.55131e-08
-1.2245e-07
1.44259e-07
1.01549e-07
-1.13383e-07
1.6528e-07
6.56323e-08
1.74436e-07
2.61435e-08
1.72024e-07
-1.38606e-08
1.59637e-07
-4.83251e-08
1.39283e-07
-7.45613e-08
1.14283e-07
-9.03399e-08
8.84889e-08
-9.51896e-08
6.55662e-08
-8.85593e-08
4.65087e-08
-8.10443e-08
2.97399e-08
-6.87443e-08
-9.27102e-08
1.34284e-07
7.24885e-08
-1.05224e-07
1.5411e-07
4.58066e-08
1.6356e-07
1.66932e-08
1.62264e-07
-1.25642e-08
1.51575e-07
-3.76364e-08
1.33931e-07
-5.69175e-08
1.11486e-07
-6.7895e-08
8.78747e-08
-7.1578e-08
6.58593e-08
-6.65439e-08
4.59899e-08
-6.11749e-08
2.80714e-08
-5.08258e-08
-6.46388e-08
1.28988e-07
4.38097e-08
-1.0031e-07
1.48863e-07
2.59318e-08
1.58929e-07
6.62781e-09
1.58974e-07
-1.261e-08
1.49891e-07
-2.85534e-08
1.33885e-07
-4.09117e-08
1.13269e-07
-4.72784e-08
9.06769e-08
-4.8986e-08
6.87283e-08
-4.45953e-08
4.76058e-08
-4.00525e-08
2.80349e-08
-3.12548e-08
-3.66039e-08
1.4105e-07
1.49259e-08
-1.12167e-07
1.60835e-07
6.14692e-09
1.70473e-07
-3.00962e-09
1.69745e-07
-1.18822e-08
1.598e-07
-1.86079e-08
1.42306e-07
-2.34177e-08
1.20049e-07
-2.5022e-08
9.53762e-08
-2.43131e-08
7.12394e-08
-2.04585e-08
4.77626e-08
-1.65757e-08
2.67657e-08
-1.02579e-08
-9.83823e-09
1.57236e-07
-1.4231e-07
1.63383e-07
1.60373e-07
1.48491e-07
1.29883e-07
1.06465e-07
8.14434e-08
5.71303e-08
3.66718e-08
2.00961e-08
9.83823e-09
-4.78819e-07
-1.4431e-06
-5.10331e-07
-5.09712e-07
-4.27323e-07
-4.58172e-08
-3.76008e-07
2.82154e-08
-3.35977e-07
1.46002e-07
-2.86988e-07
2.74133e-07
-2.24512e-07
3.8341e-07
-1.46042e-07
4.77225e-07
-5.1271e-08
5.47038e-07
5.58485e-08
5.83723e-07
1.68867e-07
5.79659e-07
5.27498e-07
2.75899e-07
-3.67616e-07
-1.07548e-06
-4.23261e-07
-4.54067e-07
-3.63724e-07
-1.05354e-07
-3.24399e-07
-1.11099e-08
-2.91316e-07
1.1292e-07
-2.47165e-07
2.29982e-07
-1.91112e-07
3.27357e-07
-1.22315e-07
4.08428e-07
-4.20008e-08
4.66724e-07
4.6194e-08
4.95528e-07
1.37472e-07
4.88381e-07
4.41656e-07
2.23314e-07
-2.64867e-07
-8.10614e-07
-3.303e-07
-3.88633e-07
-2.99902e-07
-1.35752e-07
-2.78666e-07
-3.23468e-08
-2.52561e-07
8.68156e-08
-2.13983e-07
1.91404e-07
-1.64313e-07
2.77687e-07
-1.03429e-07
3.47545e-07
-3.31844e-08
3.96479e-07
4.27544e-08
4.1959e-07
1.19551e-07
4.11584e-07
3.7074e-07
1.90467e-07
-1.91376e-07
-6.19237e-07
-2.54919e-07
-3.25091e-07
-2.4822e-07
-1.42451e-07
-2.39819e-07
-4.07473e-08
-2.19551e-07
6.65471e-08
-1.86446e-07
1.58299e-07
-1.4248e-07
2.33721e-07
-8.85445e-08
2.93609e-07
-2.66084e-08
3.34543e-07
3.98713e-08
3.5311e-07
1.06361e-07
3.45094e-07
3.09852e-07
1.67249e-07
-1.42475e-07
-4.76762e-07
-2.00608e-07
-2.66958e-07
-2.08442e-07
-1.34617e-07
-2.07568e-07
-4.16214e-08
-1.92008e-07
5.0987e-08
-1.63684e-07
1.29976e-07
-1.2475e-07
1.94786e-07
-7.66931e-08
2.45552e-07
-2.17048e-08
2.79555e-07
3.70026e-08
2.94403e-07
9.53307e-08
2.86766e-07
2.56683e-07
1.48499e-07
-1.10267e-07
-3.66495e-07
-1.62264e-07
-2.14961e-07
-1.77905e-07
-1.18976e-07
-1.81251e-07
-3.82759e-08
-1.69361e-07
3.90974e-08
-1.44979e-07
1.05593e-07
-1.10298e-07
1.60106e-07
-6.72127e-08
2.02467e-07
-1.79722e-08
2.30314e-07
3.44229e-08
2.42007e-07
8.62528e-08
2.34936e-07
2.09647e-07
1.33289e-07
-8.87105e-08
-2.77785e-07
-1.35092e-07
-1.68579e-07
-1.54472e-07
-9.95958e-08
-1.60137e-07
-3.26112e-08
-1.51009e-07
2.9969e-08
-1.29781e-07
8.43656e-08
-9.87074e-08
1.29032e-07
-5.96531e-08
1.63412e-07
-1.51209e-08
1.85782e-07
3.2202e-08
1.94685e-07
7.88332e-08
1.88305e-07
1.67409e-07
1.21071e-07
-7.4053e-08
-2.03732e-07
-1.15782e-07
-1.26849e-07
-1.36791e-07
-7.8587e-08
-1.43705e-07
-2.5697e-08
-1.36556e-07
2.28194e-08
-1.17859e-07
6.56683e-08
-8.96257e-08
1.008e-07
-5.3888e-08
1.27675e-07
-1.30639e-08
1.44958e-07
3.02124e-08
1.51408e-07
7.27133e-08
1.45804e-07
1.28904e-07
1.11218e-07
-6.46749e-08
-1.39057e-07
-1.031e-07
-8.84239e-08
-1.24857e-07
-5.68303e-08
-1.32488e-07
-1.80661e-08
-1.26842e-07
1.71736e-08
-1.09997e-07
4.88233e-08
-8.39217e-08
7.47242e-08
-5.06684e-08
9.44213e-08
-1.25825e-08
1.06872e-07
2.77135e-08
1.11112e-07
6.73244e-08
1.06193e-07
9.29925e-08
1.03236e-07
-5.99473e-08
-7.91097e-08
-9.73238e-08
-5.10473e-08
-1.20233e-07
-3.3921e-08
-1.288e-07
-9.49928e-09
-1.24461e-07
1.28342e-08
-1.08912e-07
3.32746e-08
-8.40572e-08
4.98695e-08
-5.18442e-08
6.22083e-08
-1.47056e-08
6.97334e-08
2.44535e-08
7.19533e-08
6.32718e-08
6.7375e-08
5.7819e-08
9.84454e-08
-5.46941e-08
-2.44156e-08
-9.0687e-08
-1.50544e-08
-1.14494e-07
-1.01136e-08
-1.23706e-07
-2.87727e-10
-1.19785e-07
8.91271e-09
-1.03918e-07
1.74078e-08
-7.81155e-08
2.40673e-08
-4.45275e-08
2.86202e-08
-5.94699e-09
3.11529e-08
3.48574e-08
3.11489e-08
7.46889e-08
2.75434e-08
2.20874e-08
1.10421e-07
-2.44156e-08
-3.947e-08
-4.95836e-08
-4.98713e-08
-4.09586e-08
-2.35507e-08
5.16554e-10
2.91368e-08
6.02897e-08
9.14386e-08
1.18982e-07
1.41069e-07
3.6293e-07
4.24535e-07
4.15495e-07
2.76129e-07
4.24242e-07
1.00341e-07
3.96479e-07
-7.45727e-08
3.38766e-07
-2.21864e-07
2.60027e-07
-3.32052e-07
1.68768e-07
-3.92987e-07
7.53919e-08
-3.89487e-07
3.57889e-10
-3.00192e-07
2.1273e-09
-1.3649e-07
8.8898e-08
-4.1032e-08
-4.6061e-07
2.93371e-07
3.54478e-07
3.37212e-07
2.32288e-07
3.47999e-07
8.95553e-08
3.27876e-07
-5.445e-08
2.8297e-07
-1.76958e-07
2.20346e-07
-2.69427e-07
1.48572e-07
-3.21213e-07
7.86145e-08
-3.1953e-07
2.60669e-08
-2.47644e-07
2.42824e-08
-1.34706e-07
7.05459e-08
-8.72955e-08
-3.90065e-07
2.47834e-07
2.97112e-07
2.84411e-07
1.9571e-07
2.95249e-07
7.8718e-08
2.80814e-07
-4.00157e-08
2.46025e-07
-1.42169e-07
1.96023e-07
-2.19425e-07
1.38404e-07
-2.63594e-07
8.39169e-08
-2.65043e-07
4.91164e-08
-2.12844e-07
5.27534e-08
-1.38343e-07
7.65252e-08
-1.11067e-07
-3.13539e-07
2.16297e-07
2.48064e-07
2.47787e-07
1.6422e-07
2.58558e-07
6.79474e-08
2.48344e-07
-2.98024e-08
2.20654e-07
-1.14479e-07
1.79887e-07
-1.78658e-07
1.32375e-07
-2.16082e-07
8.75839e-08
-2.20252e-07
6.01859e-08
-1.85446e-07
6.04e-08
-1.38557e-07
6.66319e-08
-1.17299e-07
-2.46907e-07
1.91336e-07
2.05228e-07
2.19189e-07
1.36366e-07
2.2983e-07
5.7307e-08
2.22587e-07
-2.25596e-08
2.0034e-07
-9.22325e-08
1.66947e-07
-1.45264e-07
1.27476e-07
-1.76611e-07
8.95141e-08
-1.8229e-07
6.40554e-08
-1.59987e-07
5.66834e-08
-1.31185e-07
5.14675e-08
-1.12083e-07
-1.9544e-07
1.7123e-07
1.67287e-07
1.96403e-07
1.11193e-07
2.06689e-07
4.70212e-08
2.01744e-07
-1.76142e-08
1.83837e-07
-7.43251e-08
1.56074e-07
-1.17501e-07
1.22882e-07
-1.43419e-07
9.01164e-08
-1.49525e-07
6.53595e-08
-1.3523e-07
5.15443e-08
-1.17369e-07
3.98785e-08
-1.00417e-07
-1.55561e-07
1.55094e-07
1.33264e-07
1.78222e-07
8.80653e-08
1.88049e-07
3.71948e-08
1.84978e-07
-1.45441e-08
1.70161e-07
-5.95072e-08
1.46852e-07
-9.41922e-08
1.18364e-07
-1.14931e-07
8.95872e-08
-1.20748e-07
6.5679e-08
-1.11322e-07
4.82675e-08
-9.99581e-08
3.32506e-08
-8.54004e-08
-1.22311e-07
1.42357e-07
1.02124e-07
1.63728e-07
6.66949e-08
1.73399e-07
2.75234e-08
1.71453e-07
-1.25985e-08
1.59342e-07
-4.73954e-08
1.39115e-07
-7.39656e-08
1.14179e-07
-8.99956e-08
8.8415e-08
-9.49831e-08
6.55108e-08
-8.84177e-08
4.64763e-08
-8.09235e-08
2.97187e-08
-6.86429e-08
-9.25921e-08
1.32481e-07
7.28794e-08
1.52662e-07
4.65138e-08
1.6254e-07
1.76456e-08
1.61622e-07
-1.16805e-08
1.51199e-07
-3.69728e-08
1.33713e-07
-5.64791e-08
1.11349e-07
-6.76319e-08
8.77827e-08
-7.14167e-08
6.57946e-08
-6.64296e-08
4.59512e-08
-6.10801e-08
2.80496e-08
-5.07413e-08
-6.45424e-08
1.27364e-07
4.39609e-08
1.47467e-07
2.64107e-08
1.57905e-07
7.2077e-09
1.58303e-07
-1.20781e-08
1.49471e-07
-2.81413e-08
1.33633e-07
-4.06411e-08
1.1311e-07
-4.71093e-08
9.05739e-08
-4.88802e-08
6.8661e-08
-4.45166e-08
4.75659e-08
-3.9985e-08
2.80141e-08
-3.11895e-08
-3.65283e-08
1.39429e-07
1.4952e-08
1.59507e-07
6.33292e-09
1.69479e-07
-2.76375e-09
1.6907e-07
-1.16697e-08
1.59371e-07
-1.84421e-08
1.4204e-07
-2.331e-08
1.19882e-07
-2.49514e-08
9.52661e-08
-2.42642e-08
7.11655e-08
-2.0416e-08
4.77159e-08
-1.65354e-08
2.67411e-08
-1.02147e-08
-9.78715e-09
1.56021e-07
1.62354e-07
1.59591e-07
1.47921e-07
1.29479e-07
1.06169e-07
8.12174e-08
5.69532e-08
3.65372e-08
2.00018e-08
9.78715e-09
-4.77679e-07
-1.44073e-06
-5.09178e-07
-5.08136e-07
-4.2639e-07
-4.45478e-08
-3.75265e-07
2.95386e-08
-3.3538e-07
1.47268e-07
-2.86525e-07
2.75481e-07
-2.24074e-07
3.85267e-07
-1.45325e-07
4.79965e-07
-4.9637e-08
5.50829e-07
5.92348e-08
5.88388e-07
1.74009e-07
5.83558e-07
5.27944e-07
-3.66903e-07
-1.07383e-06
-4.22465e-07
-4.52574e-07
-3.62961e-07
-1.04052e-07
-3.23677e-07
-9.74541e-09
-2.90644e-07
1.14235e-07
-2.46514e-07
2.31351e-07
-1.9038e-07
3.29134e-07
-1.21269e-07
4.10854e-07
-4.02797e-08
4.6984e-07
4.90028e-08
4.99106e-07
1.41236e-07
4.91324e-07
4.42295e-07
-2.64489e-07
-8.09337e-07
-3.29758e-07
-3.87305e-07
-2.99288e-07
-1.34522e-07
-2.77983e-07
-3.10504e-08
-2.51826e-07
8.80783e-08
-2.13214e-07
1.92739e-07
-1.63409e-07
2.79328e-07
-1.02218e-07
3.49664e-07
-3.14271e-08
3.99048e-07
4.52993e-08
4.22379e-07
1.2281e-07
4.13814e-07
3.71169e-07
-1.91138e-07
-6.18199e-07
-2.545e-07
-3.23943e-07
-2.4768e-07
-1.41342e-07
-2.39161e-07
-3.95699e-08
-2.18797e-07
6.77146e-08
-1.85604e-07
1.59546e-07
-1.41473e-07
2.35198e-07
-8.724e-08
2.9543e-07
-2.48428e-08
3.36651e-07
4.22605e-08
3.55276e-07
1.09318e-07
3.46756e-07
3.10156e-07
-1.42295e-07
-4.75903e-07
-2.00252e-07
-2.65986e-07
-2.07945e-07
-1.33649e-07
-2.06933e-07
-4.05817e-08
-1.91246e-07
5.20271e-08
-1.62802e-07
1.31102e-07
-1.23684e-07
1.96079e-07
-7.53418e-08
2.47089e-07
-1.99619e-08
2.81271e-07
3.92381e-08
2.96076e-07
9.79605e-08
2.88034e-07
2.56916e-07
-1.10113e-07
-3.6579e-07
-1.61943e-07
-2.14156e-07
-1.77436e-07
-1.18156e-07
-1.80626e-07
-3.73913e-08
-1.68604e-07
4.00046e-08
-1.4408e-07
1.06579e-07
-1.09199e-07
1.61197e-07
-6.58413e-08
2.03731e-07
-1.62708e-08
2.31701e-07
3.65097e-08
2.43296e-07
8.85786e-08
2.35965e-07
2.09749e-07
-8.857e-08
-2.7722e-07
-1.34793e-07
-1.67933e-07
-1.54026e-07
-9.89232e-08
-1.59534e-07
-3.18827e-08
-1.50262e-07
3.07319e-08
-1.28863e-07
8.51802e-08
-9.75967e-08
1.29931e-07
-5.82923e-08
1.64427e-07
-1.34641e-08
1.86873e-07
3.4132e-08
1.95699e-07
8.10126e-08
1.89085e-07
1.67424e-07
-7.39202e-08
-2.033e-07
-1.155e-07
-1.26353e-07
-1.36363e-07
-7.80607e-08
-1.43119e-07
-2.5126e-08
-1.35814e-07
2.34269e-08
-1.16945e-07
6.63112e-08
-8.85112e-08
1.01497e-07
-5.25401e-08
1.28456e-07
-1.14491e-08
1.45782e-07
3.20422e-08
1.52208e-07
7.4816e-08
1.46311e-07
1.28857e-07
-6.45455e-08
-1.38754e-07
-1.0283e-07
-8.80688e-08
-1.2444e-07
-5.64503e-08
-1.31912e-07
-1.76542e-08
-1.26112e-07
1.76275e-08
-1.09089e-07
4.9288e-08
-8.28146e-08
7.52222e-08
-4.93398e-08
9.4981e-08
-1.10079e-08
1.0745e-07
2.9531e-08
1.11669e-07
6.9329e-08
1.06513e-07
9.29626e-08
-5.98192e-08
-7.8935e-08
-9.70528e-08
-5.08351e-08
-1.19821e-07
-3.36821e-08
-1.28235e-07
-9.23995e-09
-1.2373e-07
1.31222e-08
-1.08011e-07
3.3569e-08
-8.29633e-08
5.01747e-08
-5.05314e-08
6.25491e-08
-1.3167e-08
7.00854e-08
2.61776e-08
7.23246e-08
6.50927e-08
6.75978e-08
5.77458e-08
-5.4575e-08
-2.43599e-08
-9.04333e-08
-1.49768e-08
-1.14101e-07
-1.00141e-08
-1.23162e-07
-1.7951e-10
-1.19079e-07
9.03897e-09
-1.03045e-07
1.75359e-08
-7.7058e-08
2.41873e-08
-4.3272e-08
2.87631e-08
-4.5015e-09
3.13149e-08
3.65263e-08
3.12968e-08
7.65006e-08
2.76236e-08
2.20798e-08
-2.43599e-08
-3.93367e-08
-4.93507e-08
-4.95302e-08
-4.04913e-08
-2.29554e-08
1.23192e-09
2.9995e-08
6.13099e-08
9.26066e-08
1.2023e-07
)
;

boundaryField
{
    rotor
    {
        type            calculated;
        value           nonuniform 0();
    }
    stator
    {
        type            calculated;
        value           nonuniform List<scalar> 
96
(
1.82315e-58
0
-5.41668e-35
6.01853e-36
0
3.61112e-35
0
-6.01853e-36
4.81482e-35
0
-9.65169e-35
1.20371e-35
-9.12507e-35
0
4.81482e-35
0
0
3.00927e-35
0
3.00927e-36
5.41668e-35
0
1.18358e-36
1.66538e-35
1.96993e-34
0
-3.61663e-35
0
0
-1.22575e-35
3.00927e-35
-6.23894e-36
7.2002e-35
0
2.40741e-35
1.18167e-35
1.20371e-35
1.32628e-34
0
1.45949e-34
-6.01853e-36
-1.3316e-34
3.7726e-35
-1.95602e-35
6.01853e-36
-4.73959e-35
0
1.82315e-58
0
-6.01853e-36
-6.01853e-36
0
6.01853e-36
-6.01853e-36
0
1.80556e-35
0
0
0
0
-6.01853e-36
6.01853e-36
6.01853e-36
0
-6.01853e-36
0
0
-1.80556e-35
-1.20371e-35
0
0
0
0
-6.01853e-36
3.00927e-36
-6.01853e-36
0
0
6.01853e-36
0
0
0
0
1.20371e-35
0
6.01853e-36
6.01853e-36
0
-6.01853e-36
6.01853e-36
0
-1.80556e-35
0
0
0
0
)
;
    }
    AMI1
    {
        type            cyclicAMI;
        value           nonuniform 0();
    }
    AMI2
    {
        type            cyclicAMI;
        value           nonuniform List<scalar> 
48
(
-9.23169e-07
-5.25502e-07
4.92169e-08
3.68405e-07
6.004e-07
7.6327e-07
8.64528e-07
9.20528e-07
9.45906e-07
9.28201e-07
9.11977e-07
9.28596e-07
7.60735e-07
2.77858e-07
2.02323e-08
-1.54809e-07
-3.37179e-07
-5.38605e-07
-7.25289e-07
-8.75104e-07
-9.82296e-07
-1.05793e-06
-1.10196e-06
-1.086e-06
-9.27367e-07
-5.36661e-07
4.00321e-08
3.62866e-07
5.96547e-07
7.61425e-07
8.64411e-07
9.2134e-07
9.46837e-07
9.28781e-07
9.12163e-07
9.28538e-07
7.60877e-07
2.78474e-07
2.08509e-08
-1.54152e-07
-3.36646e-07
-5.38506e-07
-7.25956e-07
-8.76794e-07
-9.85415e-07
-1.06293e-06
-1.10923e-06
-1.09031e-06
)
;
    }
    front
    {
        type            empty;
        value           nonuniform 0();
    }
    back
    {
        type            empty;
        value           nonuniform 0();
    }
    procBoundary0to1
    {
        type            processor;
        value           nonuniform List<scalar> 8(-8.25965e-07 -9.7654e-07 -9.52977e-07 -6.77878e-07 8.23445e-07 9.73615e-07 9.50015e-07 6.75105e-07);
    }
}


// ************************************************************************* //
