/*--------------------------------*- C++ -*----------------------------------*\
| =========                 |                                                 |
| \\      /  F ield         | OpenFOAM: The Open Source CFD Toolbox           |
|  \\    /   O peration     | Version:  2.3.1                                 |
|   \\  /    A nd           | Web:      www.OpenFOAM.org                      |
|    \\/     M anipulation  |                                                 |
\*---------------------------------------------------------------------------*/
FoamFile
{
    version     2.0;
    format      ascii;
    class       volScalarField;
    location    "4000";
    object      sigmaEq;
}
// * * * * * * * * * * * * * * * * * * * * * * * * * * * * * * * * * * * * * //

dimensions      [1 -1 -2 0 0 0 0];

internalField   nonuniform List<scalar> 
11800
(
188953
132731
632757
536854
128738
375450
175684
192153
206781
220697
188048
768188
97886.6
570229
485209
2.10072e+06
136089
137174
248823
152224
427068
693556
911603
816906
1.722e+06
1.07606e+06
1.12793e+06
559963
1.22777e+06
1.32858e+06
371484
125263
1.07951e+06
138887
145584
356807
147838
1.15094e+06
147912
160727
1.169e+06
1.27265e+06
588269
1.37814e+06
391961
1.96704e+06
873825
1.01888e+06
177091
264431
806367
568263
143843
233887
2.2419e+06
1.83585e+06
71246.4
525598
410111
392280
1.83429e+06
158689
417180
343211
1.68863e+06
254348
829417
588487
70976.6
995398
147169
122922
118938
1.74956e+06
1.81659e+06
346200
1.76598e+06
241328
192455
196248
2.27878e+06
134669
128635
130835
133263
1.28083e+06
399126
1.18135e+06
1.08396e+06
584157
142843
1.28538e+06
163757
67744.3
202884
166947
21649.2
166979
145388
675953
81558.4
745400
1.22005e+06
420765
154447
358550
197349
170316
1.79248e+06
1.19177e+06
1.29208e+06
1.09352e+06
404763
592415
242691
1.6184e+06
236693
152960
1.5196e+06
227237
218479
177198
198271
151187
160987
142507
145181
144919
102569
29820.1
2.0533e+06
1.37088e+06
433332
1.28434e+06
622702
1.18243e+06
1.08357e+06
378777
1.09934e+06
539461
1.01216e+06
927750
550753
211086
265945
361198
1.32948e+06
1.36134e+06
776838
404962
222532
214643
144903
282673
259467
200403
514975
709783
1.411e+06
151194
2.05961e+06
249475
1.79821e+06
519147
564048
609819
309135
232535
2.21632e+06
1.38466e+06
492191
678467
166279
404132
402115
1.96788e+06
1.98923e+06
1.05454e+06
968153
1.1435e+06
516499
353453
273648
220184
489053
234262
361566
163257
186254
173237
260158
243060
231096
211281
1.0062e+06
1.27805e+06
1.8144e+06
130989
240320
2.13713e+06
147505
310972
348349
149224
154351
924852
773434
711486
589012
2.05199e+06
630972
931677
2.79214e+06
2.34247e+06
2.36818e+06
367550
138599
902015
827768
760929
284667
410104
138122
138559
245270
148198
1.3517e+06
274296
150297
508181
228824
188161
147488
715134
730213
2.78936e+06
1.35037e+06
240386
251396
1.25333e+06
1.02672e+06
353672
516071
1.1422e+06
1.05638e+06
969690
153858
1.23726e+06
434374
598394
560578
165407
132799
442956
393695
153676
2.36621e+06
307762
354738
253739
292594
762430
829652
897407
408458
286629
146868
1.80331e+06
171064
86487.7
144104
448827
165054
588276
2.10104e+06
421516
417888
633085
458042
527729
383659
1.30191e+06
1.08865e+06
348585
435910
276977
332940
599280
787542
284840
1.27249e+06
1.36488e+06
1.64136e+06
182812
416619
414080
1.90335e+06
1.92106e+06
1.15151e+06
1.13318e+06
1.17403e+06
1.16204e+06
141916
96766.8
314489
2.45833e+06
128720
135248
325970
267005
287304
1.00497e+06
1.0301e+06
1.70458e+06
2.36959e+06
740891
197733
959907
793869
553591
452322
174755
184428
280388
497831
261329
461268
134521
180368
173231
152730
1.35462e+06
174064
135023
1.97225e+06
335461
762062
847982
825828
1.04379e+06
1.00473e+06
109114
107949
686016
898157
619837
1.60477e+06
128237
891939
693363
455068
343566
338864
259988
345141
298011
395364
433189
466741
166452
145426
838072
889119
192149
240484
493937
419254
471402
214023
200385
250986
255949
967467
468118
344786
378843
1.16904e+06
1.35657e+06
363799
210600
198391
269936
250633
472652
548620
448073
525740
413446
485184
365544
347029
701731
357241
782122
1.34941e+06
679622
497515
2.17019e+06
141804
1.41691e+06
698445
506934
2.10324e+06
152002
1.44962e+06
358550
1.21873e+06
1.12496e+06
1.09489e+06
201710
92145.2
129436
2.50726e+06
2.16906e+06
966192
345947
469390
188816
251082
285381
155420
217003
1.66207e+06
66905.3
598010
458510
1.8328e+06
112697
185553
158122
156487
157493
158105
1.83369e+06
615710
246075
714275
658082
605364
124397
1.38029e+06
452073
633211
175725
907905
196954
1.76139e+06
141904
207099
516975
477101
439378
921305
245735
514519
452308
240420
717897
781459
847079
409158
293208
68718.7
180280
200564
2.27847e+06
786683
620312
447779
368362
194230
157847
115833
115530
200454
104501
121181
128871
172075
343486
154460
198121
616070
749733
352816
1.62501e+06
213981
385443
159963
190206
1.57638e+06
2.06684e+06
649884
706392
255889
227633
125257
1.37984e+06
2.00966e+06
1.77562e+06
2.56602e+06
838694
585704
767571
127975
194197
177979
198637
762585
150227
148283
130359
189489
1.37877e+06
308060
1.40199e+06
826107
179042
229641
1.13526e+06
1.44432e+06
757825
824722
889814
403650
283654
690051
147824
149266
145642
167202
132697
196788
101174
190458
100693
188103
88857.3
183134
167933
174697
119583
1.57791e+06
242087
262257
584476
927815
127676
157863
136954
134188
119230
305647
443940
133478
132707
605955
126086
188009
1.71427e+06
84094.8
170021
540900
497956
521312
564980
579646
611064
286225
213968
1.98665e+06
2.45191e+06
512657
89270.4
364185
350391
390652
277104
833003
770016
707684
178711
87839
806653
752914
335196
372592
186405
644521
699929
241400
1.13648e+06
1.15193e+06
1.16533e+06
1.1542e+06
1.95353e+06
1.91153e+06
602227
2.33374e+06
847505
143349
1.62821e+06
1.43778e+06
1.56468e+06
798941
323321
349721
192638
1.66608e+06
550886
695068
2.47032e+06
219943
272288
542106
528171
1.38381e+06
719520
2.06357e+06
141627
139153
282326
404877
898359
825645
758835
1.88487e+06
157353
413016
887046
1.34117e+06
138718
2.21123e+06
2.06818e+06
2.14433e+06
249102
337663
128776
2.19254e+06
631560
254029
433327
2.05989e+06
152721
256539
272256
147541
502960
310038
2.50708e+06
2.19992e+06
212139
622581
796199
305548
361396
268729
236396
665954
198902
620776
458323
1.17517e+06
1.0263e+06
177700
1.34202e+06
146180
423159
520897
1.78987e+06
340352
461409
257609
211217
195700
229121
436821
1.0213e+06
1.12511e+06
147831
142141
143831
190548
363779
1.36064e+06
119711
469727
849568
661930
236494
1.12702e+06
1.24789e+06
809603
1.35816e+06
1.47193e+06
609411
399031
167760
200776
378945
403796
352343
389525
200726
359747
419548
245617
147025
2.55107e+06
1.09546e+06
411796
557308
510956
248052
443543
648740
1.39622e+06
1.28676e+06
1.17959e+06
362191
428057
208175
224887
1.59175e+06
1.16972e+06
1.35642e+06
158513
210314
299901
709916
1.57028e+06
502191
99421.8
159786
2.31521e+06
2.17574e+06
261163
1.99237e+06
117220
169165
124783
759745
134278
233915
259910
1.41451e+06
1.53965e+06
1.6674e+06
1.79897e+06
814081
692082
575057
453066
201829
140576
445196
2.20287e+06
149212
145537
161357
153050
160717
167178
172827
1.70539e+06
860890
881301
518508
961066
1.04409e+06
365911
1.22065e+06
292160
241461
156285
2.28949e+06
147356
177486
170947
178578
147304
2.08298e+06
294040
290683
1.12043e+06
368525
776305
276813
2.12047e+06
932622
466055
347243
1.43484e+06
516268
197672
165580
148016
142033
248221
273387
261757
190029
514582
162507
143796
912528
1.01919e+06
124275
646114
930026
788382
1.07021e+06
1.99999e+06
1.8501e+06
1.7014e+06
1.55267e+06
646054
787862
2.00252e+06
1.85248e+06
929608
1.70376e+06
1.07024e+06
1.55524e+06
1.78765e+06
163858
141063
154017
260732
565830
1.24014e+06
146926
471436
645272
510101
701886
206096
266280
468339
685147
1.46488e+06
1.34986e+06
1.23706e+06
587005
435103
1.09789e+06
222505
282214
177015
363789
338109
307597
630306
492306
506036
375812
138553
756928
207877
385992
474467
1.17588e+06
638466
746672
603628
220333
286254
198434
174688
165211
190615
664294
560883
150538
229046
251040
516320
1.53848e+06
503442
706833
532675
167872
239461
225135
207774
282811
203180
682222
628627
573969
223793
1.65395e+06
776794
229950
1.01677e+06
685436
1.47452e+06
2.00266e+06
247360
276087
232753
156997
167982
824411
701957
2.08672e+06
139467
196525
384884
569827
246965
147852
832410
823748
63156.1
145506
399468
324973
94514.4
1.82778e+06
2.00245e+06
330731
127872
297956
420807
898928
760747
828327
2.28545e+06
142819
652202
734648
176233
671089
819804
968411
1.11418e+06
2.09432e+06
1.93828e+06
1.78282e+06
1.62785e+06
670639
819090
2.09572e+06
1.939e+06
966772
1.78372e+06
1.11352e+06
1.62877e+06
1.94917e+06
1.67781e+06
1.26509e+06
535857
611366
1.67791e+06
1.24823e+06
369546
126730
121451
1.24715e+06
2.21585e+06
167469
459674
1.82504e+06
1.24677e+06
2.0031e+06
2.04429e+06
1.31836e+06
1.32141e+06
605048
480055
627105
264561
196327
333161
168770
205005
249907
210698
458162
2.14629e+06
626190
212056
127974
401653
430927
1.95123e+06
407178
368154
466742
495552
1.26698e+06
599610
432928
1.62759e+06
462831
601925
217330
179038
416915
360501
388924
965124
626257
607984
1.47378e+06
1.4096e+06
600869
634546
1.1106e+06
1.19297e+06
447261
469131
145540
199320
208677
610958
475622
82359.3
176202
202251
711370
676938
366760
713657
551994
218614
134307
134444
562254
1.35396e+06
133465
2.00164e+06
289467
811031
745234
230281
288071
483067
158635
135496
1.70894e+06
431732
1.11138e+06
1.02606e+06
942349
344885
501949
177659
1.5481e+06
2.04281e+06
187317
154944
1.12303e+06
410751
560689
968800
1.05469e+06
1.15469e+06
348411
505822
65980.1
819879
426712
2.03599e+06
342303
1.17236e+06
971956
1.09058e+06
148651
152584
155822
165086
166658
146170
1.69021e+06
524424
196429
228576
252973
284589
354758
393446
806614
780706
745045
718883
661542
684455
1.17611e+06
178531
147790
143340
195589
222083
157977
179290
1.39954e+06
288385
523959
446189
1.14914e+06
604420
212579
221799
497476
385450
686447
561478
1.38006e+06
1.21045e+06
1.11648e+06
1.02405e+06
569208
1.59023e+06
786099
1.58366e+06
280133
233425
301964
293451
204769
186125
202834
1.60919e+06
2.09048e+06
373724
123085
277731
626251
486215
136780
163110
271665
257308
267720
248415
328506
308963
232477
530421
588654
573161
636047
486661
540870
596812
139019
1.30815e+06
1.0378e+06
549048
1.31395e+06
1.23433e+06
721265
2.09036e+06
395361
375736
425834
456157
210479
173009
186338
397146
154673
1.75023e+06
227427
149857
872745
63311.4
124229
1.73866e+06
199475
450179
1.43441e+06
660386
1.32259e+06
1.21272e+06
1.5677e+06
1.04172e+06
170683
663881
531025
221685
1.48422e+06
678832
223381
1.24086e+06
1.13114e+06
1.34997e+06
144353
147058
172356
2.52644e+06
302249
473007
577911
262242
149673
148391
454384
491199
192253
1.73989e+06
460732
1.76132e+06
268847
868743
147420
698483
835543
1.10731e+06
444735
598680
717178
289924
2.47939e+06
177922
125815
152471
2.11656e+06
1.38879e+06
349310
514073
1.165e+06
1.07908e+06
991041
2.17871e+06
666043
539522
2.17758e+06
2.45959e+06
1.69577e+06
86942.8
583064
1.44273e+06
1.08395e+06
590329
439508
1.0893e+06
971694
447892
1.47752e+06
356773
292527
554954
488971
372136
1.71234e+06
2.60119e+06
133344
146235
172759
2.4847e+06
171604
200265
768658
590833
2.20014e+06
2.30459e+06
144304
654258
227123
216093
541477
233322
140877
584738
136816
154697
2.61541e+06
1.13962e+06
632858
472607
425532
304779
865149
798548
732706
224064
2.33181e+06
458126
414571
472116
1.95287e+06
795981
1.16943e+06
161266
251870
190266
874857
536807
715094
133468
306350
417577
883818
312160
199010
170278
336304
2.17464e+06
315571
426064
876096
1.40513e+06
1.98569e+06
1.34104e+06
918110
724331
857186
88746.2
251902
350306
748605
690859
635828
1.98523e+06
156886
203508
218242
217817
218541
212190
313992
145907
147559
712932
1.79802e+06
509657
1.12831e+06
1.04097e+06
956085
350310
2.03143e+06
650503
741416
887458
765147
1.24487e+06
1.98768e+06
597731
157377
769503
124796
936183
562130
1.0213e+06
1.10992e+06
398934
1.28975e+06
318355
2.68986e+06
921826
149202
1.85334e+06
2.69732e+06
2.32226e+06
548480
143277
1.04048e+06
177912
167119
122683
291798
159303
163769
141090
148168
1.68142e+06
1.765e+06
148324
1.1584e+06
187389
178114
145991
243367
1.21059e+06
1.21639e+06
276868
1.23221e+06
1.23504e+06
1.58716e+06
522106
196023
245480
334589
670381
727687
246968
65494.3
169933
793577
377777
922847
1.03883e+06
1.13507e+06
1.23383e+06
634162
447382
329522
184457
159429
2.01491e+06
1.11172e+06
136161
231341
992281
771590
419697
454706
208080
185716
342930
303617
121857
233360
160196
1.69064e+06
659490
1.6031e+06
151903
140651
2.69821e+06
141695
2.09363e+06
2.06644e+06
149150
962658
485104
1.65692e+06
162863
911063
1.03887e+06
2.26239e+06
253256
159891
135265
512669
242922
331263
669853
613666
564227
165784
133304
189748
180499
1.18276e+06
1.30318e+06
889664
1.52142e+06
1.39783e+06
1.61608e+06
2.3038e+06
288921
734845
2.1942e+06
646302
2.06141e+06
982960
1.07021e+06
1.16052e+06
513747
348969
431863
506478
1.90667e+06
173329
203185
299565
283761
264697
193307
394893
364586
341183
837876
866548
2.54642e+06
281008
131583
181974
2.01258e+06
576758
312339
301510
1.96409e+06
1.02324e+06
706364
113644
211342
135526
1.00869e+06
1.28634e+06
325264
1.45133e+06
198645
192750
2.62238e+06
1.71876e+06
2.10361e+06
409599
543545
951573
298241
749963
2.18833e+06
2.31319e+06
195508
224884
378084
308721
1.09179e+06
1.21955e+06
834566
940149
2.43177e+06
2.24196e+06
287784
191631
112974
1.60032e+06
131223
2.1112e+06
419923
319103
1.1342e+06
362309
149517
1.95993e+06
223585
290840
112420
134129
1.4589e+06
503671
152556
793553
377293
208795
155564
136548
733926
138028
2.00218e+06
1.8012e+06
330029
894876
507563
151150
168247
1.54725e+06
187894
1.04183e+06
267729
574654
1.20616e+06
1.37705e+06
1.91241e+06
206383
327145
2.08581e+06
261864
165055
154386
180599
138511
2.13667e+06
1.66756e+06
384179
528602
915655
916719
1.19927e+06
422321
579945
418336
607201
1.2961e+06
1.19521e+06
1.09595e+06
1.71584e+06
807379
576519
1.6546e+06
580119
1.79996e+06
673239
747348
1.98738e+06
2.69339e+06
2.30689e+06
453280
439191
1.24122e+06
591466
429211
143908
373210
1.91059e+06
161313
188328
2.43822e+06
1.82176e+06
2.09849e+06
971669
1.20522e+06
1.21525e+06
1.0492e+06
133127
125284
188026
127884
751090
817097
887708
414233
290966
639128
2.12783e+06
161453
215318
181069
168281
1.09841e+06
992770
200613
1.89349e+06
2.14204e+06
1.26843e+06
1.03588e+06
1.72338e+06
1.98532e+06
127224
951510
604494
1.32149e+06
176425
282031
301807
1.69666e+06
1.69004e+06
780077
392664
121591
146167
247548
519920
1.77476e+06
236532
1.36328e+06
163075
395652
268585
356889
611868
314824
482871
46932.3
13558.6
482353
2.52165e+06
219860
180950
182125
142575
131521
194149
200541
145511
146772
564137
144129
157269
194178
1.0577e+06
1.30438e+06
938691
1.76514e+06
2.24529e+06
155895
216051
411451
179562
1.60573e+06
226037
2.35453e+06
253204
329314
636104
471636
250240
258859
600942
138317
162625
205791
131361
198071
128923
2.0902e+06
115324
167876
304771
130101
98755.7
2.00044e+06
223349
1.731e+06
1.84168e+06
667722
431195
349218
507718
1.14184e+06
1.06468e+06
977883
140867
1.26015e+06
653829
137346
2.13845e+06
145666
152680
397995
1.17476e+06
941718
1.04477e+06
1.43461e+06
206814
156926
445724
660103
1.44281e+06
767393
1.55935e+06
552477
1.33016e+06
1.21986e+06
440077
1.54678e+06
546525
1.42564e+06
649016
1.31486e+06
1.20574e+06
757172
1.55655e+06
196796
648152
505728
161398
204336
1.74434e+06
1.09059e+06
1.47768e+06
1.37457e+06
1.19938e+06
1.4851e+06
1.0957e+06
416978
457102
675902
1.63266e+06
157524
2.41099e+06
193677
157325
1.81893e+06
215942
341482
670860
665017
1.97995e+06
119524
1.25806e+06
1.16155e+06
1.06572e+06
387691
569712
2.42983e+06
409401
313452
726298
188671
760356
351185
369267
132727
214833
223651
194414
580020
130494
712754
382139
290345
972377
1.29605e+06
1.3017e+06
971957
475009
2.29438e+06
144397
145496
2.05018e+06
1.85243e+06
1.12529e+06
2.68545e+06
1.20831e+06
1.04205e+06
1.07463e+06
2.38635e+06
1.19454e+06
955778
2.11988e+06
455283
480151
713674
1.86773e+06
116989
1.59054e+06
190367
278237
434678
729190
794485
861952
422935
301912
483762
80447.6
86283
157870
168248
230335
191000
152389
206893
1.18974e+06
2.17146e+06
260631
192868
2.00006e+06
1.45483e+06
574213
779269
157977
165640
1.74089e+06
1.15159e+06
245674
918207
861006
1.15036e+06
139998
157846
162868
140622
1.36221e+06
2.20256e+06
2.15127e+06
1.46079e+06
2.32961e+06
296242
130404
383447
1.16684e+06
1.07067e+06
1.26529e+06
575507
390690
2.45976e+06
540577
682156
892196
289897
246294
1.02565e+06
362882
187389
777970
297261
385332
2.2791e+06
393545
348109
1.22177e+06
1.12813e+06
1.03655e+06
521354
1.55596e+06
1.46546e+06
1.92315e+06
599612
619914
793920
1.63969e+06
780554
559672
1.45763e+06
281692
2.69622e+06
178974
2.05761e+06
549759
628539
149260
669077
1.28358e+06
155027
181868
177966
2.37981e+06
702317
644048
759605
375801
271442
343233
683222
1.55568e+06
690027
1.34466e+06
1.58615e+06
1.46514e+06
460062
1.48824e+06
1.13141e+06
1.19776e+06
1.41815e+06
1.49104e+06
1.13258e+06
1.20808e+06
1.42686e+06
823715
688436
52968.1
330027
202636
471720
696326
578967
807392
1.62452e+06
1.50506e+06
1.38727e+06
1.27193e+06
467200
1.297e+06
642576
176857
122607
128146
220248
117404
554592
1.31683e+06
1.34543e+06
477996
2.22197e+06
182038
163610
1.73029e+06
2.14569e+06
104438
1.36996e+06
540979
732927
1.02396e+06
567422
365804
161726
542323
770736
71375.2
148405
2.24871e+06
298151
223645
544392
501083
589704
378471
145740
151913
385328
1.35077e+06
2.09106e+06
2.421e+06
373495
415190
1.74709e+06
1.57494e+06
2.04987e+06
124603
1.14006e+06
1.99679e+06
2.43573e+06
2.51231e+06
2.45688e+06
642790
1.1168e+06
481111
2.31687e+06
1.75289e+06
717661
1.51008e+06
167534
148726
1.79778e+06
1.79954e+06
150131
484540
2.23309e+06
1.87613e+06
1.7842e+06
1.84657e+06
2.52272e+06
1.71281e+06
2.2269e+06
1.92379e+06
168346
304626
1.41813e+06
672141
1.16115e+06
244470
161416
204200
188409
171515
227613
203193
482831
2.23316e+06
1.35723e+06
477196
659803
1.45167e+06
189275
673100
469349
2.5801e+06
361736
350815
644703
369190
598221
265185
206600
2.10018e+06
17246.1
168390
168169
34650.4
523321
558747
200349
219684
233748
162733
593447
585643
143030
2.24495e+06
1.91541e+06
690737
1.44877e+06
496468
137065
1.69045e+06
373692
2.22971e+06
617812
755450
893965
1.03067e+06
1.95383e+06
1.80967e+06
1.66481e+06
1.52266e+06
616875
754020
1.95312e+06
1.80816e+06
891515
1.66366e+06
1.0285e+06
1.52104e+06
341743
261639
634929
690375
609837
288570
235859
200942
161402
150798
172048
144839
152668
258330
1.04198e+06
1.1187e+06
1.00599e+06
563299
1.09575e+06
1.20753e+06
1.86605e+06
791160
637877
1.98318e+06
662055
227252
141198
194776
159480
313351
288479
292668
154266
421731
332697
432494
887846
153483
231225
1.04956e+06
167119
121476
151698
130487
1.5729e+06
184713
216569
742316
592154
287298
740735
235837
142182
129456
2.35274e+06
2.42611e+06
1.4754e+06
1.20844e+06
1.17865e+06
1.50071e+06
2.37968e+06
1.23167e+06
141081
794823
443195
338708
488596
233584
2.25307e+06
246877
1.33265e+06
1.23191e+06
1.1307e+06
594976
403090
698011
408603
311220
2.27633e+06
262039
141269
746645
745857
340549
212893
260085
439366
900575
1.70883e+06
717473
573106
1.05525e+06
1.39206e+06
379879
554448
1.20289e+06
1.10879e+06
1.01715e+06
573525
617467
997532
824648
1.15901e+06
614868
1.27343e+06
1.38548e+06
401124
1.50111e+06
2.68434e+06
1.89194e+06
124842
913395
996662
1.08335e+06
331612
224492
1.62994e+06
283084
372021
460507
506256
216206
275432
221606
175223
1.56002e+06
1.199e+06
1.2577e+06
1.50668e+06
347984
1.89313e+06
2.34698e+06
866938
152823
896670
977564
1.06294e+06
996300
1.15577e+06
323965
1.84996e+06
809933
753219
690513
816244
294706
410246
236609
219397
512622
603650
556483
639380
697132
756161
462668
459104
660884
663813
1.34447e+06
1.33787e+06
1.13386e+06
1.23766e+06
1.12781e+06
1.23139e+06
669731
728189
259180
161787
184523
220255
1.33497e+06
858920
149301
1.36617e+06
1.13353e+06
1.0868e+06
1.40716e+06
222639
489013
1.75908e+06
743000
1.62384e+06
1.49118e+06
119772
291459
1.21224e+06
719006
508090
1.60913e+06
562099
76577.7
1.23413e+06
1.13287e+06
1.33866e+06
599590
405244
1.64701e+06
638456
516512
2.19246e+06
640775
906998
216869
157194
368580
344557
315626
1.86875e+06
464276
309847
529968
487864
571623
287833
218751
1.23465e+06
1.38505e+06
222059
793583
167569
1.06254e+06
2.13094e+06
1.33619e+06
658149
492319
1.17418e+06
600746
534953
441742
289342
180131
444116
219057
542450
218041
368518
154588
174389
2.22897e+06
451533
1.90763e+06
1.09699e+06
1.17957e+06
637451
475733
1.13269e+06
2.03082e+06
130900
158972
161995
153773
402442
38966.3
12887.4
402007
847070
155895
898035
400035
274914
186537
598807
836829
1.74796e+06
140437
110412
185159
216350
466183
300937
1.18419e+06
1.05652e+06
254089
165521
131402
2.26183e+06
846994
142453
328683
161498
2.58009e+06
2.10687e+06
327649
246862
926020
445863
633543
1.24785e+06
1.05121e+06
1.14809e+06
2.43771e+06
1.94096e+06
158189
1.81596e+06
2.44391e+06
1.91337e+06
2.12919e+06
916965
186885
1.23041e+06
303660
188064
232100
454500
496587
363417
362753
822281
268308
181881
136684
1.19552e+06
1.46954e+06
1.59919e+06
1.73155e+06
1.85174e+06
830798
708063
584114
459137
289972
132051
569679
26389.5
278775
278459
14323.7
616957
309100
243313
95555.5
388570
440093
147152
393181
1.18013e+06
932328
642928
454400
518897
2.24201e+06
1.71306e+06
229057
735286
146845
158464
632442
745130
766350
1.51891e+06
445637
485877
153083
2.02588e+06
163745
355635
413968
386030
1.47671e+06
1.60663e+06
834376
886687
885759
632186
810881
1.51387e+06
1.4414e+06
1.4407e+06
498099
690825
125042
136481
129174
308700
145204
665143
1.4049e+06
1.24705e+06
1.52804e+06
1.11594e+06
1.53817e+06
1.11469e+06
757890
501187
1.34739e+06
986647
1.34842e+06
990021
323271
1.48187e+06
1.248e+06
1.09381e+06
1.42466e+06
1.26098e+06
1.555e+06
1.13083e+06
1.55415e+06
1.13017e+06
1.4032e+06
2.58521e+06
568021
797284
1.68492e+06
616894
153166
162020
259068
25649.5
258764
22671.2
148536
479856
1.49043e+06
1.36769e+06
1.61587e+06
717317
496746
2.29454e+06
76498.1
141684
286793
986862
328901
906768
446645
2.33047e+06
2.35106e+06
1.40443e+06
168131
305256
1.59405e+06
850014
681266
458735
842985
773282
913393
318664
447094
2.38976e+06
561556
2.12852e+06
151219
147506
140913
149531
100355
2.10309e+06
170884
1.55005e+06
97711.6
1.13382e+06
1.43611e+06
172356
149938
219317
648639
229539
548828
504998
370469
401048
433564
183844
400532
540323
669321
449337
1.51688e+06
1.4014e+06
1.286e+06
1.57504e+06
2.10463e+06
2.32186e+06
137380
134385
135284
148308
309211
181656
335247
2.3335e+06
2.38008e+06
2.39231e+06
1.82133e+06
71999.4
1.25318e+06
2.18011e+06
1.49503e+06
1.18002e+06
1.20385e+06
1.47514e+06
720911
636983
1.29387e+06
854879
1.52282e+06
111268
274682
352828
678281
279787
275932
314100
211298
242991
178147
206975
475977
478176
518584
517241
560069
559429
656589
646826
153908
151259
619962
398803
117828
232816
903258
1.52485e+06
154380
919124
1.98613e+06
615119
1.89059e+06
867933
239240
1.75339e+06
936172
787062
1.24754e+06
2.11743e+06
2.51644e+06
987000
423630
2.11748e+06
304566
222528
190183
468676
102502
890588
1.55956e+06
406254
613014
247701
146538
265349
2.27877e+06
410923
480279
463899
341659
976176
306836
242565
966046
213499
2.07699e+06
162920
1.22919e+06
456881
496465
1.92828e+06
1.64328e+06
994895
1.79133e+06
1.94191e+06
852335
2.09369e+06
710818
567580
1.64418e+06
1.79189e+06
2.09713e+06
1.94291e+06
569488
855184
998349
712992
2.10504e+06
208823
1.65258e+06
180271
122604
157914
9491.78
72253.3
905899
97397.3
1.58909e+06
329860
245298
620435
670160
570946
474256
312008
1.38915e+06
310620
334170
1.25298e+06
104998
491715
455927
452374
1.43212e+06
1.31456e+06
1.55215e+06
681155
574783
243858
417843
822822
1.58761e+06
77126.7
406747
240800
154559
524090
1.67546e+06
949505
813988
1.76813e+06
198731
971018
2.06834e+06
1.04741e+06
1.9366e+06
172328
2.18382e+06
259463
1.45822e+06
523574
646193
150990
16688.8
167280
167022
28525
278802
1.48455e+06
212250
1.82839e+06
827342
300981
1.41962e+06
1.3631e+06
1.54958e+06
1.48815e+06
1.68178e+06
1.61554e+06
783934
758018
534121
517394
593657
400290
1.34003e+06
1.23903e+06
1.13706e+06
358044
417941
386497
191091
1.26055e+06
1.10151e+06
99008.4
214605
159706
181218
191975
2.11051e+06
1.77076e+06
464251
1.52674e+06
1.40239e+06
1.65223e+06
132547
777322
1.43001e+06
1.49293e+06
150071
140480
1.70792e+06
541494
184266
315373
367055
340872
196708
589747
545091
504276
1.97979e+06
2.58046e+06
1.90354e+06
1.35695e+06
664891
479503
202704
220886
332388
238885
149833
132931
250642
725042
579211
149153
1.55975e+06
1.80896e+06
755609
655772
191110
183279
162603
173618
505792
1.70646e+06
1.33799e+06
1.03236e+06
1.06297e+06
1.26762e+06
143556
162081
241350
145065
148592
330514
2.66658e+06
2.11724e+06
163607
203187
907923
783230
543901
1.68871e+06
1.82018e+06
1.426e+06
1.55592e+06
915517
477737
409858
443968
205447
258344
1.9554e+06
525081
1.24759e+06
91242.4
1.81004e+06
165527
717293
833112
2.66451e+06
146115
739744
174990
692448
186669
436503
1.32874e+06
609938
1.53155e+06
994854
1.673e+06
1.81659e+06
859827
1.96196e+06
723206
587906
724097
588433
279918
859250
970711
1.27008e+06
153209
248735
1.556e+06
673353
2.44713e+06
1.98701e+06
2.22716e+06
400906
1.74647e+06
817494
635951
311522
237755
2.3932e+06
1.23784e+06
145749
2.59466e+06
2.19365e+06
75281.3
763062
623678
95701.6
1.00078e+06
808928
118167
205017
1.67361e+06
2.49319e+06
150728
883396
906414
1.81228e+06
1.75543e+06
640943
656866
641318
656535
156712
157584
156827
147602
119177
2.56336e+06
1.99965e+06
1.80183e+06
2.2736e+06
859930
460505
1.86138e+06
1.04526e+06
1.14157e+06
1.24083e+06
81499.9
1.9038e+06
332775
1.42837e+06
2.03684e+06
605000
425595
2.59417e+06
697703
732498
512368
540361
1.37856e+06
1.33208e+06
229635
225571
125523
148567
448252
1.63064e+06
1.50523e+06
1.3825e+06
682844
2.56061e+06
154692
310752
138903
1.36598e+06
1.49062e+06
872359
1.61723e+06
745388
1.76049e+06
630292
1.66992e+06
1.41019e+06
1.53872e+06
1.8008e+06
505466
896705
773183
631471
145570
204759
218777
284184
532571
451214
489936
2.11943e+06
987441
1.20473e+06
1.95369e+06
228706
351565
148609
551524
771120
265412
370365
1.97407e+06
211087
142760
145210
148109
143528
91841.6
229548
177600
191891
1.70253e+06
2.0105e+06
175527
152424
194741
336998
735468
2.17087e+06
2.02296e+06
898477
152073
220149
1.73088e+06
154695
155532
2.63476e+06
1.02164e+06
1.99165e+06
562491
1.35059e+06
856919
836596
231001
943246
1.43069e+06
691111
496875
195550
446998
150664
117280
135836
2.13709e+06
1.26751e+06
1.29269e+06
2.11644e+06
330830
354885
183858
670877
164176
147848
158471
424149
332893
33900.1
332548
23214.4
146917
1.32312e+06
399887
580116
1.2285e+06
1.13251e+06
1.03825e+06
207816
2.42944e+06
798588
463978
2.09296e+06
1.25126e+06
1.3006e+06
213806
21005.5
213527
22098.1
1.84884e+06
454117
774040
916400
845217
170640
1.978e+06
466607
334280
1.07334e+06
824745
142112
45214.6
1.45417e+06
302327
1.45159e+06
371536
494302
909015
1.01631e+06
853369
184023
744446
305912
394709
188543
202508
706928
737061
244762
446923
154950
156152
1.18271e+06
593158
434922
164690
626523
16222.8
60717.2
625862
787962
636705
943082
1.11955e+06
128632
2.4185e+06
2.51775e+06
317613
150416
167276
263090
289519
29939.8
289226
25804.8
1.27489e+06
436479
606141
2.34606e+06
2.38126e+06
2.02623e+06
1.83382e+06
1.10003e+06
974923
933085
827850
1.98679e+06
287565
569312
204301
132591
147596
410927
576651
825824
2.30906e+06
2.33044e+06
292849
152188
766028
832695
279282
1.26527e+06
519653
425345
1.84229e+06
182084
166450
224181
1.23894e+06
1.24679e+06
1.31735e+06
835548
418030
584722
98445.4
100512
1.42694e+06
148021
1.26712e+06
163460
624194
1.0149e+06
889451
1.47962e+06
1.73075e+06
152717
201912
470350
2.05568e+06
9879.1
122263
36266.7
122861
331238
304502
98440
2.22114e+06
39597.6
2.1038e+06
547734
53071.1
17114.1
547157
360369
177988
20493.4
177880
458549
1.99464e+06
461670
2.18893e+06
2.5218e+06
73001
727273
860138
793597
1.02692e+06
493434
358963
1.10219e+06
692965
120892
270942
431514
308515
769686
1.01704e+06
283750
284938
2.4236e+06
877539
1.01862e+06
948932
1.09537e+06
1.53563e+06
138441
153333
1.28504e+06
1.56218e+06
523129
298209
343460
175971
352843
521675
157304
274585
398225
154978
108470
1.40453e+06
1.64095e+06
318599
707280
551523
563264
1.74406e+06
795461
344248
265194
671447
553423
137335
403594
1.56314e+06
2.00196e+06
537376
373898
947430
1.1209e+06
1.03336e+06
93038.3
149077
389733
276349
1.48701e+06
539381
117980
57658.5
90204.1
523883
366784
916846
1.08455e+06
1.00005e+06
153036
2.1613e+06
2.46876e+06
168536
170315
161928
157857
2.16424e+06
432335
319018
922319
2.67364e+06
2.14792e+06
612718
212463
564934
521276
317860
296900
338363
187953
163937
164704
461586
2.10263e+06
121847
1.17197e+06
1.26941e+06
1.99909e+06
1.4421e+06
1.40742e+06
538977
531422
726250
737713
335251
378199
325332
148175
145056
855209
276327
1.95635e+06
1.35597e+06
344215
144147
834375
2.49931e+06
142302
1.34244e+06
1.11673e+06
1.06158e+06
1.38649e+06
947981
408171
569540
1.25994e+06
219399
919469
398450
446020
227799
462515
282830
368147
1.01038e+06
501360
211841
183603
245037
1.29846e+06
1.06612e+06
230518
219932
206440
237456
150100
684715
526914
133157
498899
153417
285099
461898
2.28652e+06
2.01318e+06
1.36774e+06
400579
283182
895922
830191
763397
360280
359544
173152
1.23771e+06
168571
703213
915120
265731
229369
2.03891e+06
115512
407223
379699
181479
2.15232e+06
112737
146654
609372
718380
215404
204321
226382
163220
154440
1.36687e+06
121576
168268
20920.8
168111
1.36549e+06
1.30119e+06
2.46352e+06
1.46888e+06
1.85204e+06
152565
1.91209e+06
1.30892e+06
18924.8
137361
325059
245205
554552
602501
650080
850297
478203
1.99377e+06
1.17319e+06
1.27277e+06
201895
133602
130242
150891
163931
172636
269817
1.1425e+06
137447
2.47607e+06
606191
245788
1.28382e+06
843296
427915
596948
274052
237759
338650
509268
329079
678410
615453
244017
154524
880162
1.21706e+06
105407
114557
208293
122660
125063
1.85283e+06
493290
361247
1.04605e+06
1.79795e+06
490614
355609
887176
753202
815974
691697
398530
286314
158283
11131.4
88096.4
847372
697486