/*--------------------------------*- C++ -*----------------------------------*\
| =========                 |                                                 |
| \\      /  F ield         | OpenFOAM: The Open Source CFD Toolbox           |
|  \\    /   O peration     | Version:  2.3.1                                 |
|   \\  /    A nd           | Web:      www.OpenFOAM.org                      |
|    \\/     M anipulation  |                                                 |
\*---------------------------------------------------------------------------*/
FoamFile
{
    version     2.0;
    format      ascii;
    class       volVectorField;
    location    "320";
    object      D;
}
// * * * * * * * * * * * * * * * * * * * * * * * * * * * * * * * * * * * * * //

dimensions      [0 1 0 0 0 0 0];

internalField   nonuniform List<vector> 
11800
(
(1.52658e-06 5.05821e-05 0)
(-2.07963e-06 5.58431e-05 0)
(1.16614e-06 1.95244e-05 0)
(-1.38761e-06 2.54445e-05 0)
(-1.90543e-06 5.57562e-05 0)
(-9.18296e-07 2.54878e-05 0)
(-3.632e-07 3.9106e-05 0)
(-3.53358e-07 3.11424e-05 0)
(1.51636e-07 6.02703e-06 0)
(2.10927e-07 2.01501e-05 0)
(1.70242e-06 5.04731e-05 0)
(-1.74958e-06 2.21734e-05 0)
(-2.58098e-09 -2.05643e-09 0)
(1.03181e-06 1.94235e-05 0)
(-1.23645e-06 2.55371e-05 0)
(1.51279e-06 3.84515e-06 0)
(-2.29061e-07 3.90053e-05 0)
(-2.26604e-07 3.10457e-05 0)
(7.42945e-08 6.08769e-06 0)
(1.10411e-07 2.00645e-05 0)
(-1.07117e-06 2.54068e-05 0)
(-1.60683e-06 2.22497e-05 0)
(-3.6961e-07 1.4661e-06 0)
(-3.93277e-07 1.52283e-06 0)
(1.32519e-06 4.34958e-06 0)
(-5.71797e-07 2.35153e-06 0)
(-1.84349e-06 1.42037e-05 0)
(2.22124e-06 3.55125e-05 0)
(-1.7142e-06 1.11544e-05 0)
(-1.55532e-06 8.32242e-06 0)
(2.33679e-06 4.37028e-05 0)
(5.82933e-09 1.1593e-06 0)
(6.97254e-07 2.96692e-06 0)
(-1.28976e-06 5.7193e-05 0)
(9.28121e-07 5.69535e-05 0)
(-2.79462e-06 4.63613e-05 0)
(8.60096e-07 5.7135e-05 0)
(6.84077e-07 3.04429e-06 0)
(-3.55877e-07 4.10479e-05 0)
(2.07253e-07 2.18388e-05 0)
(-1.81014e-06 1.43422e-05 0)
(-1.68448e-06 1.12838e-05 0)
(2.16907e-06 3.53349e-05 0)
(-1.52978e-06 8.44198e-06 0)
(2.28338e-06 4.35169e-05 0)
(1.43975e-06 3.87462e-06 0)
(3.97461e-07 1.71638e-06 0)
(4.45184e-07 1.69028e-06 0)
(-5.25779e-07 4.1079e-05 0)
(3.52597e-07 2.18651e-05 0)
(-2.70175e-06 3.14973e-05 0)
(-2.84335e-06 3.946e-05 0)
(-3.22476e-07 5.00889e-05 0)
(1.21841e-08 1.10349e-06 0)
(-1.8707e-06 4.51518e-06 0)
(2.87139e-07 2.71666e-07 0)
(-3.49147e-06 5.79184e-05 0)
(-9.9014e-07 1.88971e-05 0)
(9.61896e-07 2.6134e-05 0)
(-7.36953e-07 1.82573e-05 0)
(5.54719e-07 8.35978e-07 0)
(-5.06406e-07 5.0123e-05 0)
(-8.68001e-07 1.88607e-05 0)
(8.31305e-07 2.61759e-05 0)
(1.24143e-06 4.28962e-06 0)
(-3.32578e-06 5.17158e-05 0)
(-2.80186e-06 3.13779e-05 0)
(-2.95834e-06 3.93306e-05 0)
(-3.31859e-06 5.78319e-05 0)
(-5.98329e-07 2.42238e-06 0)
(-1.15714e-06 5.73411e-05 0)
(-1.99303e-06 5.70543e-05 0)
(-2.04909e-06 5.68671e-05 0)
(-2.88231e-08 3.74663e-08 0)
(5.92356e-07 8.69591e-07 0)
(-2.63604e-06 4.64778e-05 0)
(1.57135e-06 5.84102e-06 0)
(-3.37902e-06 5.18924e-05 0)
(-2.70307e-06 5.22923e-05 0)
(-2.5299e-06 5.24517e-05 0)
(-1.7853e-06 4.45974e-06 0)
(1.53033e-07 2.2557e-05 0)
(1.75163e-06 5.66403e-05 0)
(1.55643e-06 5.66727e-05 0)
(-3.02597e-07 2.30942e-05 0)
(-1.47249e-06 9.25377e-06 0)
(2.10748e-06 4.22832e-05 0)
(-1.60767e-06 1.21626e-05 0)
(-1.71935e-06 1.52797e-05 0)
(1.9997e-06 3.41592e-05 0)
(-1.26501e-07 4.91042e-05 0)
(7.46055e-07 2.83026e-06 0)
(-1.70472e-06 5.25991e-05 0)
(3.33362e-06 5.83272e-05 0)
(4.96883e-07 2.7661e-05 0)
(-6.88161e-10 -5.24231e-10 0)
(1.75175e-11 -1.09407e-10 0)
(6.75901e-10 -5.15453e-10 0)
(-1.02335e-07 5.06492e-05 0)
(-1.65927e-06 2.25946e-05 0)
(2.85793e-06 5.81338e-05 0)
(1.79351e-06 2.44983e-05 0)
(-9.14139e-07 4.01814e-06 0)
(-2.22772e-07 3.16842e-06 0)
(-1.60314e-07 5.55273e-05 0)
(2.06938e-07 6.27763e-06 0)
(-4.37597e-07 3.07475e-05 0)
(-4.4561e-07 3.86747e-05 0)
(8.34725e-07 1.60487e-06 0)
(1.54071e-06 1.21552e-05 0)
(1.41885e-06 9.2466e-06 0)
(1.64173e-06 1.52709e-05 0)
(-2.26019e-06 4.22894e-05 0)
(-2.14926e-06 3.41661e-05 0)
(2.89287e-07 1.97974e-05 0)
(6.60098e-07 1.47371e-06 0)
(3.17003e-06 5.19104e-05 0)
(-1.38825e-06 5.31615e-05 0)
(6.74312e-07 1.42268e-06 0)
(-2.91575e-07 2.03655e-05 0)
(-2.0111e-07 5.88313e-06 0)
(2.37037e-07 3.936e-05 0)
(2.26396e-07 3.13729e-05 0)
(-4.68024e-07 3.7932e-05 0)
(-1.71537e-06 5.278e-05 0)
(-2.113e-07 5.05053e-05 0)
(-1.12558e-06 5.55472e-05 0)
(-3.12121e-07 5.54086e-05 0)
(-3.74779e-06 5.96994e-05 0)
(-3.88092e-06 5.95643e-05 0)
(-1.76318e-07 8.32668e-08 0)
(-7.2782e-07 1.88301e-06 0)
(2.16498e-06 4.11647e-05 0)
(-1.55985e-06 1.00158e-05 0)
(2.05099e-06 3.30998e-05 0)
(-1.69198e-06 1.29839e-05 0)
(-1.80239e-06 1.61516e-05 0)
(1.99266e-06 4.11982e-05 0)
(-1.44031e-06 9.9903e-06 0)
(1.88772e-06 3.31314e-05 0)
(-1.56301e-06 1.2957e-05 0)
(-1.66559e-06 1.61234e-05 0)
(-4.27991e-07 5.48778e-06 0)
(6.62719e-07 4.00258e-05 0)
(6.24276e-07 3.2022e-05 0)
(-6.67578e-07 2.09335e-05 0)
(2.89144e-06 2.26669e-05 0)
(-2.99282e-06 2.22426e-05 0)
(1.76153e-06 2.4651e-05 0)
(-3.04596e-07 3.34679e-06 0)
(-1.88606e-06 4.88998e-05 0)
(-1.87062e-06 4.9134e-05 0)
(8.25578e-07 5.65518e-05 0)
(-2.09903e-06 4.64179e-05 0)
(7.65087e-07 3.41462e-05 0)
(8.24814e-07 4.22643e-05 0)
(-2.34069e-06 3.77854e-05 0)
(-2.21197e-06 2.99077e-05 0)
(1.36889e-06 6.84541e-06 0)
(-2.34413e-07 4.9271e-05 0)
(9.08939e-07 1.63043e-06 0)
(-1.9238e-06 4.6459e-05 0)
(1.64365e-06 5.91669e-06 0)
(-9.88396e-07 1.58204e-05 0)
(-9.24822e-07 1.26702e-05 0)
(-8.48804e-07 9.72207e-06 0)
(1.08857e-06 3.34749e-05 0)
(1.14943e-06 4.15616e-05 0)
(-8.40358e-07 1.14575e-06 0)
(-1.31294e-06 6.61351e-06 0)
(2.06408e-06 3.81562e-05 0)
(1.94739e-06 3.02583e-05 0)
(4.14497e-07 3.86374e-05 0)
(-3.17602e-06 4.61678e-05 0)
(-3.20772e-06 4.64165e-05 0)
(1.53143e-06 4.35348e-06 0)
(1.52857e-06 4.46358e-06 0)
(1.4299e-06 1.18474e-05 0)
(1.52585e-06 1.49439e-05 0)
(1.31377e-06 8.96189e-06 0)
(-2.02311e-06 3.45674e-05 0)
(-2.12581e-06 4.27166e-05 0)
(7.79766e-07 3.396e-05 0)
(8.30126e-07 4.2074e-05 0)
(9.09262e-07 2.21746e-05 0)
(-5.18729e-07 2.08933e-05 0)
(-3.31297e-07 5.51364e-06 0)
(4.87611e-07 3.99786e-05 0)
(4.58227e-07 3.19774e-05 0)
(-7.76428e-07 4.82953e-05 0)
(-3.29889e-07 1.06471e-05 0)
(-3.58956e-07 1.36647e-05 0)
(-2.74657e-06 5.13525e-05 0)
(-1.217e-07 2.78843e-06 0)
(-2.74471e-06 2.64921e-05 0)
(2.40465e-06 1.86092e-05 0)
(4.19194e-08 4.69973e-08 0)
(-1.67271e-06 5.72772e-05 0)
(3.14781e-06 5.21007e-05 0)
(-1.52642e-07 1.00334e-07 0)
(2.0503e-06 5.43872e-05 0)
(2.57415e-06 4.71462e-05 0)
(2.76622e-06 4.7181e-05 0)
(-1.48675e-07 5.57862e-05 0)
(-2.81088e-07 5.59508e-05 0)
(1.5961e-06 1.82277e-05 0)
(1.40257e-06 1.82979e-05 0)
(-1.88548e-06 2.68827e-05 0)
(-1.66869e-06 2.68024e-05 0)
(1.70575e-07 8.01935e-08 0)
(-4.28486e-07 3.95637e-06 0)
(-4.97292e-07 2.30528e-06 0)
(-1.2822e-08 4.90805e-09 0)
(1.45491e-06 2.6837e-06 0)
(-3.99626e-08 1.2853e-08 0)
(1.7664e-07 2.26756e-06 0)
(-1.88826e-06 5.5515e-05 0)
(-1.13605e-06 9.05854e-06 0)
(-1.24007e-06 1.19551e-05 0)
(-1.32859e-06 1.50597e-05 0)
(1.60967e-06 4.25629e-05 0)
(1.53271e-06 3.44273e-05 0)
(4.9398e-08 3.99128e-05 0)
(4.30192e-08 3.19149e-05 0)
(-8.73624e-08 5.54961e-06 0)
(-1.49626e-07 2.08402e-05 0)
(-5.90659e-08 9.62668e-09 0)
(1.51627e-07 6.79049e-06 0)
(-3.39635e-07 2.99584e-05 0)
(-9.4529e-07 2.0229e-05 0)
(2.23141e-07 6.70057e-06 0)
(-4.53567e-07 3.00951e-05 0)
(-1.31109e-06 5.27733e-05 0)
(1.58535e-06 2.23116e-05 0)
(1.47493e-06 2.21652e-05 0)
(1.2518e-08 4.75554e-09 0)
(5.79053e-08 9.3558e-09 0)
(-2.4753e-06 4.94366e-05 0)
(-2.38401e-06 4.96265e-05 0)
(-2.53931e-06 1.93429e-05 0)
(2.61828e-06 2.56771e-05 0)
(1.98907e-06 4.26985e-05 0)
(1.88834e-06 3.45529e-05 0)
(-1.37683e-06 8.97569e-06 0)
(-1.50742e-06 1.18619e-05 0)
(-1.61494e-06 1.49597e-05 0)
(-1.41741e-07 5.03215e-05 0)
(-1.22058e-06 6.35532e-06 0)
(1.94646e-06 3.85764e-05 0)
(1.8375e-06 3.06539e-05 0)
(1.25286e-06 2.25123e-05 0)
(9.69802e-07 4.77174e-05 0)
(1.56656e-06 5.8391e-05 0)
(2.30427e-07 2.23674e-06 0)
(-7.16456e-07 1.84178e-05 0)
(-1.03942e-08 8.80882e-07 0)
(3.91003e-08 1.24795e-08 0)
(5.83046e-07 1.92864e-05 0)
(4.95261e-07 1.91135e-05 0)
(-7.14747e-07 2.57243e-05 0)
(-6.20295e-07 2.58876e-05 0)
(1.23628e-06 1.50531e-05 0)
(1.15946e-06 1.19494e-05 0)
(1.06705e-06 9.05475e-06 0)
(-1.6579e-06 3.44277e-05 0)
(-1.74128e-06 4.25696e-05 0)
(-9.58748e-07 5.72928e-05 0)
(4.71048e-07 6.54779e-07 0)
(-5.9469e-08 3.48941e-05 0)
(-3.57085e-08 8.71721e-06 0)
(1.12081e-06 5.54376e-05 0)
(9.76548e-07 2.2037e-05 0)
(-3.83078e-06 5.48317e-05 0)
(1.12466e-06 2.26519e-05 0)
(7.00779e-08 5.79369e-08 0)
(3.02568e-06 4.56511e-05 0)
(3.04365e-06 4.54212e-05 0)
(-1.98539e-06 3.06893e-05 0)
(-2.10178e-06 3.86093e-05 0)
(-1.78033e-06 3.06228e-05 0)
(-1.88462e-06 3.85391e-05 0)
(1.17912e-06 6.33195e-06 0)
(1.05304e-06 6.37103e-06 0)
(8.87488e-07 2.85202e-05 0)
(1.06659e-06 2.84913e-05 0)
(9.41621e-07 3.63098e-05 0)
(1.13224e-06 3.62791e-05 0)
(-6.81183e-07 7.7727e-06 0)
(-8.05552e-07 7.79475e-06 0)
(-1.68354e-07 3.76687e-06 0)
(7.69265e-07 2.48238e-06 0)
(7.21021e-07 2.4029e-06 0)
(7.53382e-07 1.85182e-06 0)
(8.19494e-07 4.79027e-05 0)
(-3.12569e-06 4.57306e-05 0)
(-3.14218e-06 4.54917e-05 0)
(1.56244e-06 4.81689e-06 0)
(1.53628e-06 4.69154e-06 0)
(2.52869e-06 2.26736e-05 0)
(2.55939e-06 2.28918e-05 0)
(-2.62971e-06 2.22298e-05 0)
(-2.64715e-06 2.20142e-05 0)
(1.03376e-06 5.65168e-05 0)
(-3.08287e-06 5.71975e-05 0)
(-2.95464e-06 4.88626e-05 0)
(1.03834e-06 1.29964e-06 0)
(-1.83497e-06 5.65346e-05 0)
(-1.64525e-06 5.63557e-05 0)
(7.10323e-07 2.88014e-05 0)
(-5.38868e-07 2.62732e-05 0)
(4.00158e-07 1.87742e-05 0)
(-2.25479e-06 2.27495e-05 0)
(2.1084e-06 2.21397e-05 0)
(-1.36949e-06 4.7467e-06 0)
(-4.78634e-08 3.30007e-08 0)
(2.27149e-07 1.09242e-06 0)
(1.48356e-07 1.98514e-05 0)
(-1.94396e-06 1.99668e-05 0)
(1.90794e-06 2.49698e-05 0)
(-1.15572e-06 1.8423e-05 0)
(1.18043e-06 2.66675e-05 0)
(5.42555e-07 4.32922e-05 0)
(7.71457e-07 4.3209e-05 0)
(-4.66894e-07 1.14267e-05 0)
(-6.29241e-07 1.14867e-05 0)
(-5.03796e-07 1.4498e-05 0)
(-6.77633e-07 1.45618e-05 0)
(9.93044e-08 6.23907e-06 0)
(-2.6571e-07 3.08072e-05 0)
(-2.647e-07 3.87413e-05 0)
(-3.98895e-07 5.45887e-05 0)
(6.87539e-07 1.84162e-06 0)
(-1.54279e-07 2.56918e-05 0)
(-1.49543e-06 5.58465e-05 0)
(3.09858e-07 2.80938e-07 0)
(1.22559e-06 3.50397e-05 0)
(-9.04749e-07 8.62975e-06 0)
(-2.30411e-06 2.59229e-05 0)
(-2.16853e-06 2.58122e-05 0)
(2.01186e-06 1.91105e-05 0)
(1.89136e-06 1.92111e-05 0)
(-2.20963e-06 5.80527e-05 0)
(-2.23309e-06 5.78221e-05 0)
(-5.12561e-07 3.78771e-06 0)
(-6.04573e-07 3.77409e-06 0)
(2.48828e-07 1.14173e-06 0)
(-6.24197e-07 1.18023e-06 0)
(4.70858e-08 2.678e-05 0)
(7.88588e-07 6.43943e-06 0)
(6.58081e-07 6.47733e-06 0)
(-1.35441e-06 3.05072e-05 0)
(-1.14526e-06 3.04447e-05 0)
(-1.43297e-06 3.84181e-05 0)
(-1.21111e-06 3.83522e-05 0)
(-2.83627e-06 4.74388e-05 0)
(-2.62891e-06 4.74555e-05 0)
(-7.29388e-07 1.67447e-05 0)
(-6.98058e-07 1.35397e-05 0)
(-6.43999e-07 1.05308e-05 0)
(8.1391e-07 4.45735e-05 0)
(-2.17535e-07 4.98764e-05 0)
(1.89138e-06 2.21227e-05 0)
(1.78534e-06 2.22881e-05 0)
(7.51361e-07 3.91805e-05 0)
(7.28985e-07 3.12142e-05 0)
(-5.09627e-07 5.98513e-06 0)
(4.22209e-07 6.6283e-06 0)
(3.4129e-07 6.74488e-06 0)
(-6.90332e-07 3.79251e-05 0)
(-8.09807e-07 3.80973e-05 0)
(-7.66172e-07 3.02078e-05 0)
(-6.35555e-07 3.00291e-05 0)
(-9.86286e-07 6.12592e-06 0)
(1.4915e-06 3.10048e-05 0)
(1.57957e-06 3.89488e-05 0)
(-3.49599e-08 3.45834e-07 0)
(2.78733e-06 2.47776e-05 0)
(-2.75267e-06 2.0191e-05 0)
(-2.1209e-08 3.22873e-07 0)
(-8.76567e-07 4.26919e-05 0)
(-1.01805e-06 4.29017e-05 0)
(-8.16725e-07 3.45613e-05 0)
(-9.46309e-07 3.47609e-05 0)
(5.68854e-07 8.81759e-06 0)
(4.83766e-07 8.95555e-06 0)
(6.36987e-07 1.1706e-05 0)
(5.3941e-07 1.18554e-05 0)
(6.78988e-07 1.47954e-05 0)
(5.74013e-07 1.49545e-05 0)
(2.99558e-06 4.75163e-05 0)
(3.05266e-06 4.77344e-05 0)
(-4.33254e-07 2.32316e-06 0)
(1.09578e-06 3.51921e-05 0)
(-8.12527e-07 8.52389e-06 0)
(1.28395e-06 6.89942e-06 0)
(-2.07481e-06 2.98222e-05 0)
(-2.20021e-06 3.76897e-05 0)
(-4.66406e-08 1.42795e-08 0)
(3.29426e-07 4.93301e-05 0)
(1.27581e-06 6.61242e-06 0)
(-2.09991e-06 3.02586e-05 0)
(-2.22715e-06 3.81458e-05 0)
(1.10246e-06 2.12478e-06 0)
(-1.57734e-06 5.30914e-05 0)
(1.26037e-06 5.3887e-06 0)
(-2.4441e-06 4.44044e-05 0)
(-7.4391e-07 3.0525e-06 0)
(-7.90826e-07 3.15561e-06 0)
(7.4285e-07 3.12344e-06 0)
(-3.2492e-07 2.56576e-05 0)
(-3.2971e-09 -2.42825e-09 0)
(-1.67215e-06 5.77576e-05 0)
(-4.17119e-08 1.70197e-08 0)
(4.56238e-08 1.38533e-08 0)
(-1.00634e-06 6.4295e-06 0)
(1.57733e-06 3.84448e-05 0)
(1.48857e-06 3.05294e-05 0)
(1.19204e-06 4.9401e-05 0)
(-3.68692e-06 5.26779e-05 0)
(4.31324e-07 2.42368e-05 0)
(-3.69284e-07 2.3691e-05 0)
(-1.33181e-07 3.18549e-06 0)
(-3.68737e-07 4.3345e-07 0)
(-2.37833e-09 -2.14293e-09 0)
(-1.04074e-06 1.85711e-05 0)
(1.05309e-06 2.65067e-05 0)
(1.27943e-07 4.51451e-08 0)
(-1.81833e-07 2.33906e-05 0)
(-1.74674e-07 2.3196e-05 0)
(-5.61314e-08 2.01232e-05 0)
(-5.4078e-08 6.05459e-06 0)
(-1.76005e-08 3.10981e-05 0)
(-2.23198e-08 3.90737e-05 0)
(-1.30875e-07 4.6513e-08 0)
(4.37263e-07 3.42311e-06 0)
(-1.30727e-06 4.37544e-05 0)
(8.24983e-07 1.11045e-05 0)
(8.83361e-07 1.41538e-05 0)
(9.30506e-07 1.73885e-05 0)
(2.56344e-06 5.56125e-05 0)
(-1.31336e-06 5.80986e-06 0)
(2.19088e-06 3.95033e-05 0)
(2.0709e-06 3.15288e-05 0)
(-1.55326e-06 5.16408e-05 0)
(3.23966e-07 9.6116e-07 0)
(1.94056e-06 5.07667e-05 0)
(-6.67029e-07 1.16278e-06 0)
(1.34162e-06 5.58165e-05 0)
(-1.1352e-06 4.37586e-05 0)
(7.04985e-07 1.1101e-05 0)
(7.5456e-07 1.41502e-05 0)
(7.94903e-07 1.73837e-05 0)
(2.82606e-07 9.13911e-07 0)
(8.7084e-07 3.59718e-05 0)
(-6.4323e-07 7.99574e-06 0)
(-2.47749e-07 3.41173e-06 0)
(-2.69709e-06 5.09294e-05 0)
(-1.15301e-06 1.58706e-05 0)
(-1.07963e-06 1.27177e-05 0)
(-9.91861e-07 9.76648e-06 0)
(1.28044e-06 3.34271e-05 0)
(1.35164e-06 4.1511e-05 0)
(3.56585e-06 5.86828e-05 0)
(2.04111e-06 5.20337e-05 0)
(2.27055e-06 5.19522e-05 0)
(4.74918e-08 3.69084e-08 0)
(1.38733e-06 1.84797e-05 0)
(-1.64484e-06 2.65991e-05 0)
(-7.81634e-07 1.87092e-05 0)
(7.51466e-07 2.63613e-05 0)
(-2.8803e-07 2.81058e-05 0)
(-2.29172e-07 4.29407e-05 0)
(7.94812e-08 1.47637e-05 0)
(7.70341e-08 1.16758e-05 0)
(-2.42512e-08 8.55683e-06 0)
(-9.52717e-08 2.74202e-05 0)
(-7.58625e-08 3.51358e-05 0)
(1.59215e-06 5.86077e-05 0)
(1.13917e-07 3.50557e-06 0)
(-7.01818e-08 8.93166e-07 0)
(2.58452e-07 3.70281e-05 0)
(1.63911e-08 9.21825e-07 0)
(-3.67641e-07 2.67691e-06 0)
(7.42582e-07 8.53589e-06 0)
(-1.22419e-06 3.51717e-05 0)
(-3.84587e-08 4.92486e-08 0)
(-2.50281e-06 5.09076e-05 0)
(-2.94965e-07 5.94971e-06 0)
(3.75328e-07 3.92583e-05 0)
(3.78701e-07 3.12671e-05 0)
(9.0185e-08 2.12412e-08 0)
(-1.08072e-06 2.16152e-06 0)
(8.74862e-07 1.44578e-05 0)
(8.18486e-07 1.13895e-05 0)
(-1.28611e-06 4.33497e-05 0)
(2.07173e-07 1.92052e-05 0)
(-1.71717e-06 5.70694e-05 0)
(-4.60512e-08 6.30488e-09 0)
(-1.36785e-06 3.27448e-06 0)
(9.00639e-07 1.87867e-06 0)
(-9.645e-07 1.15678e-06 0)
(1.89912e-06 2.24703e-05 0)
(1.39262e-06 2.66037e-05 0)
(-1.36928e-06 1.84753e-05 0)
(7.74115e-08 8.47877e-06 0)
(-2.62895e-07 2.75098e-05 0)
(-2.27451e-07 3.52501e-05 0)
(1.68874e-06 5.02406e-05 0)
(1.66013e-06 2.43025e-05 0)
(7.86164e-07 5.74756e-05 0)
(7.55003e-07 5.7674e-05 0)
(1.89912e-07 2.64984e-05 0)
(3.02357e-07 1.90812e-05 0)
(4.51418e-08 6.12042e-09 0)
(-2.41554e-06 4.59829e-05 0)
(1.15657e-06 4.54556e-06 0)
(3.7031e-09 8.06003e-08 0)
(3.96458e-07 3.41315e-05 0)
(5.35965e-07 3.42348e-05 0)
(1.25212e-09 7.40184e-09 0)
(-6.80751e-07 1.82695e-06 0)
(1.2384e-06 1.46648e-05 0)
(1.15916e-06 1.15846e-05 0)
(1.06409e-06 8.70693e-06 0)
(-1.67708e-06 3.48958e-05 0)
(-1.76035e-06 4.308e-05 0)
(1.51423e-06 2.32906e-05 0)
(1.49799e-07 4.93781e-05 0)
(-1.02614e-06 5.51116e-05 0)
(-9.75022e-07 5.5379e-05 0)
(-1.5268e-07 4.35623e-05 0)
(-1.40028e-07 4.37764e-05 0)
(4.14658e-08 1.10813e-05 0)
(3.39451e-08 1.12255e-05 0)
(4.14992e-08 1.41296e-05 0)
(3.3412e-08 1.42836e-05 0)
(4.67848e-09 1.73624e-05 0)
(1.47859e-08 1.75202e-05 0)
(6.47447e-08 2.65747e-05 0)
(1.65469e-07 2.69416e-05 0)
(3.15131e-07 3.88545e-05 0)
(-1.54303e-07 2.80464e-05 0)
(-9.20048e-08 2.1839e-08 0)
(-1.02038e-07 8.54052e-07 0)
(7.60416e-07 3.58047e-05 0)
(-5.74252e-07 8.10663e-06 0)
(3.1828e-07 1.16159e-06 0)
(3.12684e-06 5.58641e-05 0)
(-3.03272e-07 4.39474e-05 0)
(1.44932e-07 1.09713e-05 0)
(1.52824e-07 1.4012e-05 0)
(1.36897e-07 1.72317e-05 0)
(-2.49423e-06 4.76598e-05 0)
(8.61903e-07 1.94713e-05 0)
(1.17855e-06 5.903e-05 0)
(1.34128e-06 5.89081e-05 0)
(-3.64938e-07 2.75404e-06 0)
(-2.14711e-07 3.47342e-05 0)
(6.99766e-08 8.82778e-06 0)
(5.78806e-08 6.96903e-08 0)
(3.06849e-06 5.73167e-05 0)
(-7.4667e-08 1.45906e-06 0)
(-7.37134e-07 1.22587e-05 0)
(-7.8999e-07 1.53837e-05 0)
(-9.35001e-07 1.55229e-05 0)
(-8.73559e-07 1.23899e-05 0)
(-6.66133e-07 9.33713e-06 0)
(-7.97612e-07 9.46197e-06 0)
(9.84458e-07 3.38388e-05 0)
(1.03952e-06 4.19472e-05 0)
(6.83284e-07 1.05386e-06 0)
(-4.78612e-08 3.137e-08 0)
(-2.76045e-06 4.02382e-05 0)
(-2.88166e-06 5.72095e-05 0)
(8.92035e-07 2.69228e-05 0)
(-1.2853e-07 1.49088e-06 0)
(-1.53215e-06 3.37846e-05 0)
(-1.61036e-06 4.18896e-05 0)
(1.00018e-06 9.50981e-06 0)
(1.08249e-06 1.24412e-05 0)
(1.15119e-06 1.55759e-05 0)
(1.28624e-06 4.95503e-05 0)
(3.01615e-06 5.7505e-05 0)
(-1.81153e-06 2.26454e-05 0)
(8.28864e-07 8.62677e-06 0)
(-1.3511e-06 3.50383e-05 0)
(8.50277e-07 2.71031e-05 0)
(-4.12566e-07 2.02582e-05 0)
(9.719e-07 1.45638e-05 0)
(9.09591e-07 1.14892e-05 0)
(-1.41144e-06 4.32102e-05 0)
(-2.66507e-06 2.28649e-05 0)
(2.50606e-06 2.20521e-05 0)
(2.50169e-06 2.22631e-05 0)
(-2.63459e-06 2.26416e-05 0)
(-1.58349e-06 4.69231e-06 0)
(-1.62467e-06 4.82504e-06 0)
(-1.2687e-06 2.22674e-05 0)
(-9.05836e-07 1.18447e-06 0)
(-2.01819e-06 2.24113e-05 0)
(-3.34772e-07 4.79072e-05 0)
(-3.79967e-07 5.11734e-07 0)
(2.10408e-06 1.40793e-05 0)
(1.96297e-06 1.10381e-05 0)
(-2.71568e-06 3.17348e-05 0)
(4.40845e-07 1.45743e-05 0)
(4.14001e-07 1.14982e-05 0)
(-7.07819e-07 4.31919e-05 0)
(1.19036e-06 4.09887e-06 0)
(1.44403e-06 2.64178e-05 0)
(-1.42204e-06 1.86454e-05 0)
(-1.06636e-06 1.30891e-06 0)
(6.84819e-07 3.8992e-05 0)
(6.64173e-07 3.10434e-05 0)
(-4.73936e-07 6.09201e-06 0)
(2.10069e-06 3.70705e-05 0)
(-1.39325e-06 7.29492e-06 0)
(1.97852e-06 2.92373e-05 0)
(-1.67756e-06 4.63392e-06 0)
(1.45385e-06 5.52139e-05 0)
(1.67694e-06 5.51398e-05 0)
(1.61269e-06 4.30792e-05 0)
(1.54031e-06 3.4899e-05 0)
(-1.12349e-06 8.73055e-06 0)
(-1.22686e-06 1.15857e-05 0)
(-1.31718e-06 1.4666e-05 0)
(-4.02459e-07 4.4483e-07 0)
(-1.39677e-06 5.15926e-05 0)
(1.4059e-06 3.45611e-05 0)
(-1.04252e-06 8.96399e-06 0)
(-2.45412e-07 3.47761e-07 0)
(1.17901e-06 5.57831e-05 0)
(4.78899e-07 4.41674e-07 0)
(3.996e-07 3.36646e-07 0)
(9.5326e-07 1.52186e-06 0)
(1.4375e-06 4.57304e-05 0)
(-2.60321e-06 4.6864e-05 0)
(3.33012e-06 5.59299e-05 0)
(9.61994e-07 1.59531e-06 0)
(1.50669e-06 2.42967e-05 0)
(1.97211e-06 4.82075e-05 0)
(-3.33543e-06 4.58407e-05 0)
(1.63613e-06 4.63984e-06 0)
(-8.16702e-07 4.84827e-05 0)
(3.06949e-07 1.46139e-05 0)
(2.89167e-07 1.15352e-05 0)
(-5.30212e-07 4.3139e-05 0)
(-1.81462e-07 9.50445e-07 0)
(8.37268e-07 2.81948e-05 0)
(4.05156e-08 1.6418e-08 0)
(-1.44784e-06 3.24401e-06 0)
(-2.4089e-07 2.38174e-05 0)
(-6.22936e-07 5.613e-06 0)
(-7.20704e-07 5.64619e-06 0)
(9.44928e-07 3.18206e-05 0)
(1.10627e-06 3.17691e-05 0)
(1.17154e-06 3.97581e-05 0)
(1.0012e-06 3.98126e-05 0)
(4.43433e-08 2.0738e-07 0)
(-2.48809e-08 2.25865e-06 0)
(-1.87849e-06 2.90034e-05 0)
(-1.99486e-06 3.68211e-05 0)
(1.19598e-06 7.44895e-06 0)
(-7.8581e-07 4.6605e-06 0)
(-3.92609e-07 3.77338e-05 0)
(-7.57893e-07 2.12996e-06 0)
(9.75719e-07 5.52953e-05 0)
(-9.54453e-07 2.07491e-05 0)
(-1.09786e-06 2.07039e-05 0)
(4.63247e-08 5.52902e-08 0)
(-6.47675e-07 2.13577e-05 0)
(-4.03078e-07 5.20444e-06 0)
(5.98802e-07 3.24965e-05 0)
(6.35272e-07 4.05278e-05 0)
(-8.40005e-07 3.77386e-05 0)
(-7.57702e-07 2.98554e-05 0)
(4.23167e-07 6.8603e-06 0)
(6.45494e-07 2.79939e-06 0)
(6.00299e-07 2.70543e-06 0)
(1.87084e-07 2.06979e-05 0)
(-3.47828e-07 3.97446e-05 0)
(-3.33925e-07 3.17527e-05 0)
(1.36042e-07 5.6484e-06 0)
(-3.64086e-07 9.20633e-06 0)
(-7.12968e-07 2.18583e-06 0)
(1.87367e-06 5.64903e-05 0)
(-1.96077e-06 3.56134e-05 0)
(1.5476e-06 1.85807e-05 0)
(-1.81671e-06 2.64906e-05 0)
(1.99715e-06 4.84044e-05 0)
(-2.15879e-06 1.72787e-05 0)
(-2.04197e-06 1.40473e-05 0)
(2.33185e-06 2.79524e-05 0)
(-1.89759e-06 1.10089e-05 0)
(-1.7221e-06 8.19386e-06 0)
(2.48786e-06 3.57111e-05 0)
(2.61283e-06 4.39221e-05 0)
(-7.52219e-07 4.22289e-05 0)
(-7.18052e-07 3.41055e-05 0)
(4.55732e-07 1.2189e-05 0)
(4.22444e-07 9.27553e-06 0)
(4.83514e-07 1.53093e-05 0)
(4.32766e-07 1.23421e-05 0)
(-7.17234e-07 4.20181e-05 0)
(4.58555e-07 1.54721e-05 0)
(4.01744e-07 9.41719e-06 0)
(-6.84574e-07 3.39059e-05 0)
(-4.32598e-07 5.23325e-05 0)
(-1.13571e-06 1.62698e-06 0)
(-1.07986e-06 6.79961e-06 0)
(1.65702e-06 3.78443e-05 0)
(1.56267e-06 2.99643e-05 0)
(-6.66872e-07 8.88054e-06 0)
(8.70318e-07 3.46771e-05 0)
(2.47897e-06 4.18834e-05 0)
(2.35104e-06 3.37806e-05 0)
(-1.73963e-06 9.52903e-06 0)
(-1.89371e-06 1.24588e-05 0)
(-2.02136e-06 1.55937e-05 0)
(2.61276e-06 4.52922e-05 0)
(2.85795e-06 4.52406e-05 0)
(8.37256e-08 1.94815e-06 0)
(-3.39183e-07 2.3482e-05 0)
(-1.04326e-06 3.17344e-06 0)
(5.75496e-08 1.30944e-07 0)
(-1.00717e-06 3.9569e-06 0)
(-1.78722e-07 4.79934e-05 0)
(3.11877e-08 1.87001e-06 0)
(-6.68954e-07 2.49211e-05 0)
(2.40619e-06 3.1751e-05 0)
(-1.50074e-06 5.68312e-06 0)
(2.54463e-06 3.97382e-05 0)
(-4.04103e-09 -2.8027e-09 0)
(1.03507e-07 3.70592e-05 0)
(7.50553e-08 3.24893e-08 0)
(5.09269e-08 4.21359e-08 0)
(3.87585e-07 2.78051e-05 0)
(-8.71339e-08 7.98764e-08 0)
(1.91655e-06 5.68798e-05 0)
(9.07318e-08 3.42261e-05 0)
(-1.3076e-07 9.18152e-06 0)
(5.80252e-07 4.02357e-06 0)
(2.1631e-07 3.41333e-05 0)
(-2.23193e-07 9.24113e-06 0)
(-4.79483e-08 9.87702e-07 0)
(-2.18944e-06 1.40761e-05 0)
(-2.03546e-06 1.10364e-05 0)
(-1.84769e-06 8.2209e-06 0)
(-1.61577e-06 5.6943e-06 0)
(2.59525e-06 3.17401e-05 0)
(2.67297e-06 3.56767e-05 0)
(2.74457e-06 3.97264e-05 0)
(2.80815e-06 4.38865e-05 0)
(-1.33191e-06 4.69876e-05 0)
(-1.19527e-06 5.5013e-05 0)
(-3.71204e-06 4.62162e-05 0)
(1.79876e-06 4.45648e-06 0)
(7.69585e-07 5.80607e-05 0)
(9.05731e-07 5.78289e-05 0)
(2.03694e-07 3.34743e-05 0)
(2.22367e-07 4.15654e-05 0)
(-2.72053e-07 1.5837e-05 0)
(-2.52307e-07 1.26854e-05 0)
(-2.28997e-07 9.73536e-06 0)
(-1.45574e-06 4.64803e-06 0)
(5.18594e-07 3.42889e-06 0)
(-1.63465e-06 1.64834e-05 0)
(1.83445e-06 3.2693e-05 0)
(-1.53604e-06 1.3297e-05 0)
(-1.41898e-06 1.03067e-05 0)
(1.93781e-06 4.0735e-05 0)
(-1.09772e-06 5.10941e-06 0)
(1.9599e-06 4.49267e-05 0)
(3.07666e-07 2.26266e-05 0)
(-2.7879e-07 4.96477e-05 0)
(3.42228e-07 1.79049e-07 0)
(-2.16348e-07 4.41553e-05 0)
(8.42536e-08 1.08272e-05 0)
(8.75522e-08 1.38578e-05 0)
(6.7864e-08 1.70688e-05 0)
(5.67496e-07 5.12749e-05 0)
(-1.42017e-07 9.94305e-08 0)
(3.14933e-06 5.05272e-05 0)
(-5.62151e-07 2.37879e-05 0)
(-2.47707e-08 6.24368e-08 0)
(1.10614e-06 3.22515e-05 0)
(-7.03405e-07 5.35476e-06 0)
(1.17056e-06 4.02685e-05 0)
(4.06758e-08 3.57995e-08 0)
(-9.20236e-07 6.34797e-06 0)
(1.36081e-06 3.0653e-05 0)
(1.44193e-06 3.8576e-05 0)
(3.63317e-07 5.48083e-07 0)
(-1.10186e-06 2.11417e-05 0)
(1.66074e-07 2.23959e-05 0)
(-2.2917e-06 5.36921e-05 0)
(1.48769e-07 3.3633e-05 0)
(1.59808e-07 4.17292e-05 0)
(-2.37059e-07 1.57051e-05 0)
(-1.98014e-07 9.62066e-06 0)
(-2.19334e-07 1.25611e-05 0)
(2.95887e-07 2.27704e-05 0)
(-7.66629e-08 3.25084e-07 0)
(-7.0946e-08 1.0365e-06 0)
(3.19595e-08 4.79225e-05 0)
(2.24474e-06 2.42323e-05 0)
(-2.26532e-06 2.07003e-05 0)
(-1.63017e-06 5.9567e-05 0)
(-3.61172e-06 4.04845e-05 0)
(-3.41915e-06 3.24577e-05 0)
(-3.51965e-06 3.64145e-05 0)
(-3.31134e-06 2.86229e-05 0)
(2.20642e-06 7.74492e-06 0)
(2.43505e-06 1.05089e-05 0)
(2.61862e-06 1.35103e-05 0)
(2.77405e-06 1.67042e-05 0)
(3.48135e-06 4.04851e-05 0)
(3.39187e-06 3.64141e-05 0)
(-2.26942e-06 7.7489e-06 0)
(-2.51197e-06 1.05138e-05 0)
(3.2952e-06 3.24581e-05 0)
(-2.70882e-06 1.35135e-05 0)
(3.19186e-06 2.86216e-05 0)
(-2.8744e-06 1.67085e-05 0)
(-1.40527e-06 4.52942e-06 0)
(-6.15263e-07 4.95516e-05 0)
(-4.58002e-07 4.95087e-05 0)
(-5.52846e-07 5.55306e-05 0)
(7.54318e-07 3.54181e-05 0)
(-5.78049e-07 8.36743e-06 0)
(-2.48538e-07 4.14856e-07 0)
(-6.97545e-07 5.84433e-05 0)
(-8.32797e-07 1.52076e-05 0)
(-1.01045e-06 1.51576e-05 0)
(-7.76621e-07 1.20933e-05 0)
(-9.42737e-07 1.20465e-05 0)
(9.62247e-07 4.24283e-05 0)
(1.16781e-06 4.24459e-05 0)
(2.64325e-06 4.17864e-05 0)
(2.50655e-06 3.36889e-05 0)
(-1.8555e-06 9.59765e-06 0)
(-2.01809e-06 1.25322e-05 0)
(-2.15296e-06 1.56713e-05 0)
(-1.73507e-06 2.90922e-05 0)
(-1.8422e-06 3.69156e-05 0)
(1.09492e-06 7.38585e-06 0)
(-5.90359e-07 2.64541e-05 0)
(4.27607e-07 1.86111e-05 0)
(4.72222e-07 4.35008e-05 0)
(-4.13688e-07 1.12637e-05 0)
(-4.47227e-07 1.43241e-05 0)
(-4.70113e-07 1.75363e-05 0)
(1.05981e-06 1.84182e-05 0)
(8.89853e-07 1.84594e-05 0)
(-1.28678e-06 2.66622e-05 0)
(-1.09866e-06 2.66153e-05 0)
(-1.2629e-06 5.80385e-05 0)
(1.21567e-07 3.99467e-07 0)
(1.92337e-06 5.0577e-05 0)
(7.22015e-07 2.01615e-05 0)
(1.89832e-06 3.63824e-05 0)
(-1.29821e-06 7.73706e-06 0)
(1.78581e-06 2.859e-05 0)
(-1.81674e-06 2.35654e-05 0)
(5.11413e-07 6.02215e-06 0)
(-9.91643e-07 3.91059e-05 0)
(-9.40645e-07 3.11548e-05 0)
(7.14398e-08 2.08621e-05 0)
(-2.04627e-07 3.19365e-05 0)
(-2.11422e-07 3.99386e-05 0)
(5.86106e-08 5.53631e-06 0)
(1.17674e-06 1.91564e-05 0)
(-1.39171e-06 2.58534e-05 0)
(-6.80427e-07 5.23317e-05 0)
(-2.91105e-06 5.18752e-05 0)
(4.76107e-07 2.4824e-05 0)
(1.28106e-06 2.48893e-05 0)
(-1.40374e-06 5.86349e-06 0)
(2.33892e-06 3.94168e-05 0)
(2.21064e-06 3.14472e-05 0)
(-1.83356e-07 8.50555e-07 0)
(-4.46495e-07 4.44303e-05 0)
(2.2416e-07 1.06348e-05 0)
(2.38454e-07 1.36518e-05 0)
(2.47343e-07 1.68534e-05 0)
(-6.7428e-07 2.36877e-05 0)
(-2.70303e-06 5.18909e-05 0)
(-9.59337e-07 1.0645e-05 0)
(-1.03716e-06 1.36613e-05 0)
(-1.0998e-06 1.68696e-05 0)
(1.28091e-06 4.44158e-05 0)
(4.00061e-09 6.26201e-09 0)
(1.69086e-06 2.34027e-05 0)
(1.62942e-08 2.39702e-06 0)
(-1.27484e-07 2.54254e-07 0)
(-2.56416e-07 1.08467e-06 0)
(-1.10217e-06 4.19703e-06 0)
(-1.32994e-07 4.99177e-08 0)
(3.48968e-07 1.18451e-05 0)
(3.25169e-07 8.95251e-06 0)
(3.70311e-07 1.49438e-05 0)
(-6.09603e-07 4.27048e-05 0)
(-5.8562e-07 3.45641e-05 0)
(-1.79407e-06 1.99306e-05 0)
(1.76548e-06 2.50168e-05 0)
(-2.60435e-07 1.67422e-07 0)
(2.05218e-06 5.52314e-05 0)
(1.45872e-06 4.98827e-05 0)
(-3.31001e-06 4.72232e-05 0)
(1.20443e-06 2.47238e-05 0)
(3.93105e-07 2.65507e-05 0)
(-8.85003e-07 5.84189e-05 0)
(-2.40346e-06 2.76333e-05 0)
(-2.28983e-06 2.75285e-05 0)
(3.15269e-06 5.84037e-05 0)
(-3.22632e-07 5.25702e-05 0)
(-8.413e-07 1.85461e-05 0)
(8.40243e-07 2.65457e-05 0)
(2.33214e-08 2.47508e-06 0)
(6.05189e-07 9.26509e-07 0)
(1.29782e-07 4.83708e-08 0)
(7.30573e-07 2.80362e-05 0)
(2.76975e-06 5.95166e-05 0)
(-1.60655e-06 4.27122e-05 0)
(-1.52926e-06 3.45631e-05 0)
(9.73463e-07 8.95867e-06 0)
(1.13012e-06 1.49432e-05 0)
(1.05948e-06 1.18458e-05 0)
(-4.83096e-08 3.72292e-08 0)
(-1.81383e-07 5.45371e-05 0)
(1.45959e-06 2.4952e-05 0)
(-1.48032e-06 2.00194e-05 0)
(-2.38862e-06 5.33222e-05 0)
(-3.5334e-06 4.06685e-05 0)
(-3.44384e-06 3.65927e-05 0)
(-3.34632e-06 3.2631e-05 0)
(-3.24108e-06 2.87913e-05 0)
(2.14306e-06 7.62626e-06 0)
(2.36866e-06 1.03788e-05 0)
(2.54969e-06 1.3371e-05 0)
(2.70259e-06 1.65571e-05 0)
(3.4027e-06 4.06681e-05 0)
(3.31592e-06 3.65924e-05 0)
(-2.20536e-06 7.63069e-06 0)
(-2.44476e-06 1.0384e-05 0)
(3.22168e-06 3.26311e-05 0)
(-2.63906e-06 1.33745e-05 0)
(3.12118e-06 2.87892e-05 0)
(-2.80233e-06 1.65618e-05 0)
(-7.84229e-07 1.15876e-06 0)
(3.12241e-07 3.35891e-07 0)
(-4.17385e-07 8.49788e-07 0)
(1.29653e-06 2.4548e-05 0)
(-1.53433e-06 2.51755e-05 0)
(3.92595e-07 5.41599e-07 0)
(-6.55708e-08 1.0726e-08 0)
(-3.18515e-06 4.73258e-05 0)
(1.72544e-06 5.89569e-05 0)
(1.94488e-06 5.90604e-05 0)
(6.43022e-08 1.04321e-08 0)
(8.62716e-07 1.28764e-06 0)
(2.74019e-06 5.40602e-05 0)
(-1.1561e-06 2.74477e-05 0)
(-1.14398e-07 1.14278e-07 0)
(-2.5253e-07 4.42834e-07 0)
(-4.08735e-08 1.0425e-08 0)
(7.41774e-08 6.55757e-08 0)
(3.02317e-06 2.25677e-05 0)
(-3.13143e-06 2.23446e-05 0)
(9.31867e-07 1.77158e-05 0)
(-1.18549e-06 2.70152e-05 0)
(9.65123e-07 1.81061e-05 0)
(-8.181e-08 1.37867e-06 0)
(-7.30187e-07 4.0663e-05 0)
(5.15112e-07 2.14791e-05 0)
(-4.33218e-07 4.02712e-05 0)
(-4.22194e-07 3.22337e-05 0)
(1.84157e-07 5.35817e-06 0)
(2.59745e-07 2.11444e-05 0)
(-1.28318e-06 2.7327e-05 0)
(9.17822e-07 1.35923e-06 0)
(1.04848e-06 1.78302e-05 0)
(3.30155e-07 2.48569e-05 0)
(2.75439e-06 5.56848e-05 0)
(-9.50801e-07 2.50331e-05 0)
(-1.08448e-06 2.51792e-05 0)
(-1.17205e-06 2.75247e-06 0)
(-1.05077e-06 2.58666e-05 0)
(-9.07147e-07 2.57121e-05 0)
(8.77211e-07 1.91304e-05 0)
(7.62767e-07 1.92928e-05 0)
(-1.21054e-06 6.22524e-06 0)
(1.83958e-06 3.08576e-05 0)
(1.94811e-06 3.87924e-05 0)
(-3.95172e-07 4.93038e-07 0)
(-1.28644e-06 2.71384e-05 0)
(1.05411e-06 1.80011e-05 0)
(-8.23894e-07 3.3754e-05 0)
(-8.64076e-07 4.18578e-05 0)
(5.01965e-07 9.52621e-06 0)
(5.73998e-07 1.55967e-05 0)
(5.41332e-07 1.24597e-05 0)
(-5.80054e-07 2.96222e-06 0)
(-2.56201e-06 3.53542e-05 0)
(-2.43119e-06 3.52568e-05 0)
(1.63497e-06 8.42892e-06 0)
(1.55123e-06 8.49521e-06 0)
(1.62118e-06 2.89301e-05 0)
(1.78911e-06 2.88066e-05 0)
(-1.16848e-06 7.49848e-06 0)
(-1.28909e-06 7.58659e-06 0)
(1.72238e-06 3.67441e-05 0)
(1.90112e-06 3.66127e-05 0)
(-7.80636e-07 5.21563e-05 0)
(1.35795e-06 4.80204e-05 0)
(1.37847e-06 4.78178e-05 0)
(-1.21444e-06 1.81081e-05 0)
(1.2251e-06 2.70092e-05 0)
(-3.82179e-06 5.76097e-05 0)
(-1.13872e-06 4.68667e-05 0)
(-1.09594e-06 4.66687e-05 0)
(4.77138e-07 4.17863e-06 0)
(4.92573e-07 4.0808e-06 0)
(3.16568e-06 4.73328e-05 0)
(-1.57346e-06 2.24303e-05 0)
(-1.35833e-06 2.24379e-05 0)
(3.13534e-06 5.28598e-05 0)
(-3.30301e-06 5.54812e-05 0)
(-3.2991e-06 5.57246e-05 0)