/*--------------------------------*- C++ -*----------------------------------*\
| =========                 |                                                 |
| \\      /  F ield         | OpenFOAM: The Open Source CFD Toolbox           |
|  \\    /   O peration     | Version:  2.3.1                                 |
|   \\  /    A nd           | Web:      www.OpenFOAM.org                      |
|    \\/     M anipulation  |                                                 |
\*---------------------------------------------------------------------------*/
FoamFile
{
    version     2.0;
    format      ascii;
    class       volSymmTensorField;
    location    "320";
    object      sigma;
}
// * * * * * * * * * * * * * * * * * * * * * * * * * * * * * * * * * * * * * //

dimensions      [1 -1 -2 0 0 0 0];

internalField   nonuniform List<symmTensor> 
11800
(
(24909.1 42239.2 1.15332e-14 -1639.79 6.20317e-15 5773.59)
(-17691.8 46179.4 1.77185e-14 -5028.7 5.72878e-15 -5637.41)
(63502.3 32875.4 -1.39816e-16 373.6 -1.40959e-14 15848.9)
(-68415.3 30379.5 0 4505.8 0 -15857.3)
(-17337.1 44062.3 3.31077e-15 -9124.15 -9.49414e-15 -6565.58)
(-45444.6 38657.8 1.33801e-14 3610.26 7.10363e-15 -10380)
(-8233.35 43321.5 2.42177e-14 -592.919 -6.38454e-15 -2189.98)
(-9890.98 37382.1 -3.65109e-15 1711.55 1.49288e-14 -2029.48)
(25415.7 44778.3 6.42512e-15 183.799 -4.51765e-15 6351.76)
(10883.8 35790.3 -1.34088e-14 1592.34 -1.14319e-14 3095.58)
(29539.7 40634.5 -9.61842e-15 -1774.97 8.35799e-15 6889)
(-94762.2 26584 -1.23246e-14 -1580.61 -5.68182e-15 -23904.6)
(6396.12 -9355.3 3.48513e-17 -17387.5 2.70937e-17 -2727.19)
(59881.6 29276.4 1.13931e-14 1164.68 -3.19473e-15 15146.8)
(-58913.3 35574.9 -9.04449e-15 6024.59 7.13445e-15 -13122.8)
(411855 11426.4 0 -351.57 0 102102)
(-5771.6 41261.1 8.1928e-15 -619.365 7.36517e-16 -1585.73)
(-7514.8 34747.7 -4.6781e-15 194.575 2.73512e-14 -1816.3)
(14670.9 55881.6 -6.30308e-15 -2935.37 4.60074e-15 2911.82)
(7339.17 31354.6 -1.78681e-14 714.656 -5.83074e-15 1998.32)
(-56854.3 33074.1 5.39387e-15 3644.96 5.71005e-15 -13202.3)
(-81837 33369.6 8.73342e-15 -391.101 -5.13275e-15 -20402.5)
(-217031 60773.1 -6.26121e-15 4262.83 4.23888e-15 -52792.2)
(-199678 49668.7 7.48243e-17 1255 1.15321e-15 -49232.8)
(317640 35213.6 3.83459e-16 -2899.66 8.6055e-15 78093.6)
(-238944 56887.5 -6.02402e-15 2988.88 -2.2411e-16 -58545.1)
(-140626 26656.3 0 963.547 0 -34653.1)
(80486 27272.9 -1.37268e-14 -4774.31 -8.39016e-15 18785.6)
(-169616 28830.5 -3.21833e-15 2469.78 -1.39859e-14 -41472.3)
(-206360 31760.1 3.84591e-15 1377.77 -6.3063e-15 -50860.3)
(64823.6 32461 -1.69399e-14 -351.378 -3.07399e-14 15996.9)
(9817.34 54884 -4.12158e-15 843.195 -3.66159e-15 2645.1)
(218996 52161.9 -8.5991e-16 1556.79 -4.35674e-15 54723.7)
(-9985.34 50683.3 2.23156e-15 1197.46 -1.68874e-14 -2180.45)
(4420.1 50186.4 -5.85303e-15 5780.49 -2.55858e-14 2530.97)
(-67860.1 28766.8 -1.5354e-14 7932.79 -1.1269e-14 -14869.2)
(3268.25 49099.5 2.08211e-14 3692.47 -2.51992e-14 1727.1)
(235486 45113 -3.1368e-15 975.283 -1.56115e-14 58670.9)
(-7525.24 43640 0 -5184.1 0 -3153.45)
(7695.44 34576.1 -7.68786e-15 212.808 1.44513e-14 1962.2)
(-148414 26574.1 -1.49e-14 39.6701 -7.05079e-15 -36814.7)
(-178441 28710.7 1.08937e-14 435.48 -6.3449e-15 -44166.8)
(83049.4 31412.5 -5.23621e-15 -4816.44 -1.78563e-14 19411.2)
(-217014 31776.8 -2.5519e-15 -1983.3 -1.20437e-14 -54337.7)
(67276.1 35576.7 4.49696e-14 3056.61 -1.42433e-14 17451)
(379644 24196.8 0 -2227.77 0 93644.5)
(189009 62354.9 -3.99616e-15 -1679.77 2.20756e-15 46480.2)
(230501 45121.6 -6.86929e-15 -2055.1 -5.02693e-15 56682.1)
(-13477.9 43600.7 -1.78296e-14 -3376.51 -1.1166e-14 -4181.92)
(25125.1 34478.6 0 567.406 0 6374.82)
(-101302 21749.7 -7.971e-16 2170.79 9.38832e-15 -24596.5)
(-79595.5 25151 3.00758e-14 6177.24 3.563e-15 -18216.6)
(-1752.38 49617.8 1.67384e-14 -2404.87 1.0618e-14 -1031.5)
(2145.05 71395.2 -5.88639e-16 1879.33 5.20959e-15 998.531)
(-433745 5341.19 -1.06432e-15 -2765.75 -1.26172e-15 -108307)
(480081 6052.17 1.12592e-15 -22433.4 2.42555e-15 113552)
(-16123.2 26767.4 1.45545e-14 1572.94 5.46074e-15 -3610.22)
(-62403.1 36283.6 1.09937e-15 -108.813 -9.91355e-15 -15510.5)
(48761.2 33534.8 -9.54359e-15 1049.35 1.40699e-14 12359)
(-49736.1 33711.2 8.22865e-15 -3068.89 -1.48472e-15 -13102)
(460514 30717.9 -1.03639e-14 -2197.25 -3.59863e-15 113718)
(-7367.37 50467.3 7.07762e-15 -237.738 -1.17318e-14 -1886.98)
(-50768.9 34317.9 -4.43831e-15 -2059.86 7.80166e-15 -13107.9)
(37480.9 35948.2 1.29538e-14 -1703.13 -7.48136e-15 8877.18)
(319513 25222.1 1.24575e-15 1308.64 -6.24752e-15 79602.4)
(-46299.2 32885 -2.03622e-14 3047.61 -2.49472e-14 -10731.6)
(-106697 18982.4 1.45851e-14 -439.955 4.93746e-15 -26582.9)
(-84896.5 20971.3 3.28941e-16 4189.78 -2.54594e-14 -20025)
(-15818.2 28812.5 0 -1084.97 0 -4194.01)
(-223479 45428.8 -2.25676e-16 2486.42 1.63356e-14 -54832.8)
(-10254.6 52083.2 -4.07673e-15 958.787 8.55581e-15 -2306.47)
(-11762.3 45089.1 -1.57206e-14 -2891.54 1.78715e-14 -3635.91)
(-11223 43110.1 1.10278e-14 -6012.71 -6.84687e-15 -4276.53)
(-433521 131590 -1.56676e-15 73483.8 1.6126e-15 -89332.5)
(450657 39623 -1.9926e-16 -1862.6 -4.39189e-15 111355)
(-64736.2 33224.6 -1.50716e-14 9242.66 -1.1082e-14 -13769.1)
(307538 21304.5 -7.75235e-15 2038.38 6.8813e-15 76812.3)
(-46405.5 27983.9 1.3454e-14 2141.49 -4.45624e-14 -10982.8)
(-35207 39851 2.51367e-15 6936.41 -2.4387e-15 -7014.5)
(-37609.2 42747.2 2.55736e-14 4768.88 2.60814e-14 -8148.35)
(-447258 -740.736 3.50808e-15 -768.969 1.36925e-14 -111165)
(10037.3 33295.4 0 1992.3 0 2984.79)
(12368.4 43241.4 -2.66865e-14 -1122.97 -1.069e-14 2790.21)
(7838.39 45838.5 9.24697e-15 3909.52 -7.9803e-17 2914.89)
(-10457.4 34960 6.69984e-15 -1396.13 1.9182e-14 -2941.1)
(-194311 37146.5 -3.83906e-15 -334.333 2.26762e-14 -48295.6)
(62246.9 36263.3 2.15151e-14 298.1 -6.79379e-15 15518.7)
(-160530 31332.7 0 321.508 0 -39750.9)
(-136779 29751.9 -8.65367e-15 179.752 -8.83156e-15 -33893)
(77731.3 31933.7 9.93893e-15 1019.51 5.96711e-16 19539.7)
(-3177.84 46759.8 -3.46492e-14 -1059.44 -2.25985e-14 -1051.35)
(262339 50039.4 0 -1900.76 0 64620.1)
(-20869.2 44366.3 -7.35163e-15 1701.32 -1.23942e-14 -4755.94)
(23870.6 26727.1 -4.29932e-15 2079.19 -6.29471e-15 6438.66)
(19814.9 31736.3 3.36194e-14 -1047.09 5.94883e-16 4656.67)
(14838 -11228.4 -2.22018e-16 -31683.2 -1.6477e-16 -4179.63)
(-779.243 3037.13 5.6901e-18 1817.86 -3.38233e-17 257.703)
(-14705.1 -10949.3 -1.3805e-16 31065 9.21956e-17 4059.22)
(-3085.11 48281 -1.07815e-14 -2793.33 -1.64687e-16 -1458.56)
(-80988.6 27917 -2.70199e-15 -1102.78 1.13552e-14 -20368.5)
(14903.3 35560.6 5.95139e-15 -730.893 -1.69402e-14 3516.45)
(84008.1 31275.8 -1.32428e-14 -1778.65 -1.8792e-14 20402.8)
(-243521 49673.3 1.26605e-15 1703.88 2.53644e-15 -59999.7)
(-91776.8 53528.2 -7.48682e-16 1568.65 2.48898e-15 -22382.5)
(3739.72 50144.2 -1.6734e-15 80.5075 -8.44152e-15 947.876)
(47296.3 52363.9 -4.49064e-15 505.844 -8.08317e-15 11860.7)
(-17193.1 34725.2 -1.03448e-14 1923.79 2.31884e-14 -3788.64)
(-13475.3 40805.5 -3.46104e-14 -232.314 -1.69437e-14 -3401.14)
(420429 26019.9 2.73603e-15 2699.08 6.39347e-15 104987)
(145158 31757.5 3.76391e-15 -434.62 7.44889e-16 35908.8)
(180188 35277.1 7.28548e-15 213.052 1.07056e-14 44761.1)
(124352 28573.8 2.50297e-14 1178.5 1.50097e-14 31146.7)
(-65417.9 35897.7 1.01158e-14 -3972.41 1.59977e-14 -17217.1)
(-82803.1 31365.5 -2.68609e-14 -2388.78 9.73919e-15 -21137.8)
(18501.9 30932.2 1.23696e-14 -82.9954 -6.56522e-15 4570.11)
(381026 36292.5 4.39282e-15 1313.79 2.68941e-15 94866.4)
(50446.7 26383 -8.40034e-15 -3663.02 -3.31179e-14 11608)
(-12071 47038.9 -2.87748e-14 2193.41 2.7372e-14 -2450.83)
(355790 43435.3 -5.41919e-15 -110.87 6.79481e-15 88251.3)
(-17457.5 36681.8 -1.00815e-14 1161.18 -2.74531e-15 -4043.44)
(-45254.3 43792.9 -8.53608e-15 806.666 -3.70839e-15 -11028.4)
(9552.42 43731.4 2.06115e-14 -3484.91 -2.99294e-14 1505.47)
(10470.6 36776.9 -1.46114e-14 -84.485 1.01597e-14 2577.01)
(-5395.88 37808.5 -4.20411e-15 -3876.04 -6.27603e-15 -2300.55)
(-20760.4 42915.4 -2.61865e-14 2561.86 -2.07472e-14 -4515.43)
(-1933.97 49065.4 -2.51423e-14 -2640.08 -1.92652e-14 -1134.91)
(-9917.81 49375.4 -1.51133e-14 -7943.76 1.6876e-14 -4431.82)
(552.925 47340 -9.88764e-15 -372.078 -9.57738e-15 44.8717)
(3618.6 43629.5 4.86284e-16 19955.1 2.17215e-14 5849.12)
(-18283.7 19124.1 -1.53637e-16 -4124.61 1.05215e-14 -5559.94)
(-561767 -82027.6 5.1052e-15 24133.1 -2.73051e-15 -133398)
(-324000 43963.1 3.30125e-15 -1095.73 -4.91901e-16 -80662.8)
(70190.8 31999.9 1.14011e-14 4443.08 -1.12568e-14 18518.2)
(-187658 34976.3 -1.07034e-14 2700.36 6.84132e-15 -45891.7)
(82570.8 27357.2 -5.28546e-15 5440.17 1.59016e-14 21837.3)
(-152051 28799.7 4.0531e-15 3225.19 4.04562e-15 -36926.8)
(-130601 26499.2 -2.15086e-14 3395.26 1.67058e-14 -31562.3)
(57962.5 37264.3 1.11039e-14 2476.47 3.14571e-14 14996.1)
(-163579 31052.1 1.43909e-14 2218.98 -2.0662e-14 -40036.8)
(69679.9 32556.6 1.40449e-14 3895.49 -1.13016e-14 18255.5)
(-133570 25723.8 1.13061e-14 1863.06 -2.03648e-14 -32679.2)
(-114976 24238.3 -1.18137e-14 2636.3 -1.06642e-14 -27873.7)
(-101451 51380.3 1.11408e-15 3374.21 1.07105e-14 -24334.9)
(21332.2 42400.5 -5.50979e-15 -4083.94 -3.75332e-14 4279.65)
(25971.5 34648.5 -8.93256e-15 -1877.57 -2.63392e-14 5978.19)
(-38058 31241 -2.78068e-15 1386.83 1.67453e-14 -9098.85)
(146750 21037.2 -1.79706e-14 -37.448 -6.01519e-15 36402.3)
(-167332 12351.8 1.75341e-14 -2629.12 5.56221e-15 -42170.8)
(87152 29034.5 1.21607e-14 -2547.48 -1.1385e-14 20992.1)
(-90322.8 46530.8 3.70543e-16 2022.67 2.24304e-15 -21909.1)
(-37119.5 42910.2 -1.4369e-14 3989.42 -1.20544e-14 -8220.26)
(-38357.7 41963 1.23224e-14 1984.53 -1.13241e-14 -9024.92)
(1916.22 48714.5 9.37886e-15 2863.08 1.74363e-14 1185.84)
(-52028.9 35539.9 -2.10897e-14 4270.09 2.21619e-14 -11849.9)
(28522 34893.5 -1.11174e-14 -3776.93 -1.1928e-14 6139.75)
(17915.7 46477.3 -1.01095e-14 -509.151 7.92496e-15 4318.93)
(-73675.5 33026.7 1.72063e-14 3652.52 -1.17356e-14 -17374.1)
(-89962.7 31642.5 6.49173e-15 234.384 1.41476e-14 -22263.4)
(229275 28702.1 5.07029e-15 464.493 -1.27045e-16 57003)
(-39.4364 48678.6 4.91124e-15 1598.09 -2.43145e-14 386.734)
(472023 36324.7 -6.7695e-15 -5212.19 -3.75228e-15 115825)
(-43235.3 38916.5 -1.82052e-14 2421.5 1.27259e-14 -10126.7)
(303169 25164.8 0 -4242.41 0 74169.6)
(-68062.9 33958 6.27582e-15 2078.4 2.56986e-14 -16372.1)
(-78763.7 36830.1 -6.41399e-15 1258.54 7.80864e-15 -19230.6)
(-95879.3 42484.2 -7.98772e-16 275.323 2.98312e-14 -23721.3)
(33235.5 36802.5 -1.36425e-14 -263.493 3.41264e-15 8181.02)
(23176.3 44495.7 -1.43762e-14 -1358.93 3.61284e-15 5413.33)
(-563767 10103.2 5.53665e-15 -4703.56 -3.22201e-15 -141049)
(-242909 38538 -4.60055e-15 -377.611 9.27162e-15 -60364.3)
(68565.2 35258.2 -1.44043e-14 2723.03 -8.54386e-15 17688.1)
(79767.7 28797.1 4.14618e-14 -138.533 -2.25516e-14 19757.6)
(15811.2 41997.6 7.90082e-15 -3398.21 -2.07617e-14 3079.92)
(-71385.4 26027.3 0 1854.14 0 -17252.1)
(-76949.1 23179.7 2.17048e-14 4475.77 -1.11622e-14 -17982.1)
(364398 24622 7.98155e-15 -4921.48 5.42726e-15 89193.5)
(379024 12556.3 6.5164e-15 3716.02 5.9834e-15 94965.7)
(131885 27924.1 4.87944e-17 781.499 1.2441e-14 32917.2)
(112311 25124.7 1.78137e-15 2066.31 2.87767e-14 28379.3)
(164008 30157.4 6.89863e-15 555.006 -9.85554e-15 40831.5)
(-69140.7 32464.3 -1.31263e-14 1046.87 1.19666e-14 -16895.5)
(-53775.9 38245.4 -1.26769e-14 -638.33 1.41043e-14 -13501.3)
(27661.3 38045.6 0 641.183 0 7022.42)
(15790.9 47526.3 -5.66248e-16 1175.88 2.04042e-14 4209.8)
(54017.2 33370.2 -1.66168e-14 -1107.01 1.37108e-14 13128.1)
(-26020.3 32438.4 -1.32335e-14 -1196.79 3.19718e-14 -6753.11)
(-64213.7 53652.5 -3.25664e-15 861.185 1.50427e-14 -15719)
(14812 43414.1 -4.59981e-14 -699.482 -1.24041e-14 3501.61)
(17805.7 35115.8 -3.23318e-14 633.901 1.37146e-14 4575.24)
(-21047 44170.9 -6.20167e-15 1207.03 -8.47291e-17 -4922.69)
(-43778.3 41385.5 -6.27298e-15 -305.899 -4.00637e-15 -10938.2)
(-36313.2 36335.6 3.93896e-15 -1002.42 -6.86567e-15 -9258.75)
(-47575.7 39050.2 0 -1211.6 0 -12105.1)
(-29635.6 60031.3 1.15127e-16 -407.307 -1.01522e-14 -7454.26)
(-116569 15765.5 1.56193e-14 -3770.36 -6.8569e-15 -29858.8)
(142327 20727.6 -2.16399e-14 -423.385 -2.01149e-15 35209.1)
(435373 82763.9 1.89023e-15 -100390 1.00458e-15 83116)
(-11379.6 47947.1 4.13485e-15 -278.533 -9.52013e-15 -2892.62)
(53785.7 25000.7 1.50157e-14 -502.445 -3.47939e-14 13220.6)
(-568143 -48830.9 4.81207e-15 51984 -3.4924e-15 -128070)
(23917.4 40870.9 6.55923e-16 3087.95 1.77539e-14 6700.58)
(54427.2 27410 1.21707e-14 3991.23 -1.41238e-14 14494.8)
(58556.9 28128.8 1.69932e-14 -1803.95 -7.24303e-15 14081.6)
(-1065.53 50225.3 1.27753e-14 70.4286 -1.92889e-15 -246.904)
(-1590.15 50561.7 1.34825e-14 -454.221 1.16067e-15 -507.249)
(103451 24392.4 4.46332e-15 -3249.38 1.59574e-14 24862.1)
(85104.7 32537.2 6.06382e-15 -2405.05 -1.49782e-15 20519.5)
(-81565 30301.2 0 -1627.79 0 -20641.8)
(-71200.8 28699.3 -1.44733e-14 -2639.22 -9.16325e-15 -18321.2)
(549408 -82369.7 -1.99082e-15 -24360.7 -1.49502e-15 130275)
(-122141 58021.1 -1.39644e-15 3606.26 1.87943e-14 -29410.9)
(-215621 44169.1 1.11817e-14 -634.664 -6.87809e-15 -53657.4)
(-583709 -233711 -5.49111e-15 128773 2.19315e-15 -112879)
(506653 3425.76 0 7495.42 0 127571)
(-512564 -217891 -1.79403e-15 60198.9 5.60086e-16 -112241)
(59760.9 63774.7 -1.07715e-14 -396.343 4.00445e-15 14729.5)
(-16218.4 44439.7 -1.31237e-15 -4632.63 1.85205e-14 -5173.57)
(-138701 42613.8 7.99546e-15 -313.247 -9.0935e-15 -34492.3)
(-113258 36992.9 1.15473e-14 726.281 -1.40638e-15 -27921.5)
(-96504.5 34243.8 -1.26169e-14 492.241 4.40362e-16 -23822.6)
(44116.6 40691.3 9.66517e-15 1662.82 -2.73463e-14 11358.8)
(54611.1 34457.2 -2.45061e-14 1086.29 2.40956e-14 13819.6)
(6892.55 39855 -3.80733e-15 -3578.5 1.81364e-14 822.284)
(7409.48 32564.5 9.14765e-15 -3077.44 1.18621e-14 1074.87)
(-31490.3 54747.4 -1.38389e-14 3690.42 3.8413e-15 -6897.72)
(-11818.8 31439 8.24501e-15 2080.02 -1.06842e-14 -2416.39)
(-324408 -131477 -1.40365e-15 -9643.6 2.87096e-16 -82885)
(26104.5 53177.1 -7.4822e-15 2020.45 -2.78168e-14 6978.38)
(-13508.7 34446.2 -2.05628e-14 -2359.64 -9.52914e-15 -3937.24)
(-57147.1 35455.2 0 -188.308 0 -14226.1)
(26388.4 45308.9 2.03623e-14 -509.476 -8.56222e-15 6421.08)
(-13294 37533.9 0 95.5159 0 -3274.8)
(-15123.3 43520.7 -9.79043e-15 1178.03 -1.57572e-14 -3460.1)
(76313.5 29169.5 1.48326e-14 1080.54 -1.55176e-14 19203)
(79161.6 27345.9 2.22516e-14 -1206.88 1.07232e-14 19342.2)
(572121 -229754 -2.01758e-15 -123894 -6.6935e-16 111214)
(318347 -129376 2.38393e-15 10077.5 6.41676e-16 81488.7)
(-46496.7 35656.2 2.98301e-15 -314.347 4.30941e-15 -11614.8)
(-51061.7 38340 -9.03806e-15 -1289.16 -1.8816e-14 -12989.3)
(-150063 17077 -1.09749e-14 -2525.99 -2.61463e-15 -37860.5)
(120159 26128.1 2.37237e-14 -2270.29 -6.34858e-15 29250.5)
(53394.7 40588.3 7.06508e-16 644.313 4.17394e-14 13408.2)
(67030 35559.8 1.40222e-14 -734.022 1.5491e-14 16449.4)
(-178415 31310 -2.13881e-16 -897.384 1.1157e-14 -44491)
(-148077 27988 -1.05118e-14 471.659 3.48295e-15 -36623.9)
(-125222 26840 -3.90914e-16 388.392 1.59407e-14 -30973.7)
(-722.43 49415.9 -2.12208e-14 -1346.96 6.23866e-15 -513.458)
(-223797 31606.8 7.80262e-15 -1319.58 8.44595e-15 -55856)
(57746.6 36093 -1.43754e-14 406.279 7.15073e-15 14428.9)
(66524.6 31266.6 0 -1590.2 0 16111.5)
(60112.4 31729.9 5.65651e-15 -176.913 1.39862e-14 14871.2)
(16266.2 40007.4 -1.79019e-14 4084.44 -4.80655e-14 5049.42)
(-944.038 49784.7 -1.57561e-14 -4818.22 -5.90879e-15 -1429.73)
(93425.7 47542.1 -2.93988e-14 2948.34 5.65925e-15 23912.3)
(-52128 29182 -1.96281e-15 -845.625 -1.54084e-14 -13143.8)
(6635.51 59290.1 3.25317e-16 -3997.65 4.83864e-15 654.508)
(502564 -214562 -1.83685e-15 -57093.4 -4.55324e-16 110530)
(27756.3 33735.5 1.71401e-15 -2665.68 -2.90702e-14 6225.5)
(34950.5 34253.7 1.3365e-14 -1906.1 4.58895e-15 8198.99)
(-31344.6 37448.5 0 3137.59 0 -6998.73)
(-36714.5 38316 4.72326e-15 677.903 -1.3402e-14 -8941.42)
(82772 33151.4 0 2481.79 0 21153.2)
(98401.1 37206.6 9.4832e-15 670.294 9.24192e-15 24581.6)
(122061 42111.8 -2.2682e-14 405.927 -2.06792e-15 30386.5)
(-60035.9 32438.3 2.58646e-14 -2208.73 2.65679e-14 -15444.2)
(-49059.7 37936.3 1.34806e-15 -1597.81 -1.57906e-14 -12569.2)
(-6227.81 50605.6 1.5126e-14 3696.73 8.18913e-15 -628.013)
(460266 30905.2 -3.47629e-15 -5404.33 -7.28748e-15 112860)
(-4767.46 38808.2 -1.64774e-14 -2258 5.19472e-15 -1743.16)
(-3306.64 41904.1 -1.96419e-14 1497.27 -1.2541e-14 -448.942)
(6123.69 49675 1.1766e-14 -542.842 -2.7789e-14 1384.72)
(50142.2 34101.2 1.3251e-14 -2035.75 1.42498e-14 11936.2)
(-39296.2 18499.7 -2.09797e-14 -2430.59 1.06523e-15 -10353.3)
(61331.9 38657.5 0 -737.026 0 15034.8)
(529236 6228.72 8.7711e-17 -90468.8 3.5194e-17 108867)
(74972.9 21000.4 1.20464e-14 97.1897 2.76362e-14 18626.4)
(68843.5 24284.8 5.45581e-15 -2250.61 3.00163e-15 16523.1)
(-79764.1 30964.3 1.85035e-15 1677.64 3.89731e-15 -19374.8)
(-61284.1 34763.4 -1.39864e-14 -583.113 4.51935e-15 -15350.5)
(-69135.1 30520 -2.90843e-14 3098.44 -5.17929e-15 -16385)
(-52652.5 34424.8 1.44031e-15 120.996 -1.53821e-15 -13034.1)
(217607 31312.6 -1.45485e-15 326.958 4.48146e-15 54073.8)
(175030 45287.8 7.80277e-16 -1013.55 -9.22043e-15 43177.1)
(36418.2 36166.3 2.58544e-15 1025.32 1.54708e-15 9290.51)
(50632.3 35177.8 4.81897e-15 1441.38 8.37177e-15 12920.5)
(27975.7 39609.5 1.32221e-14 -2766.58 9.5584e-15 6254.89)
(42358 36901.7 1.18848e-14 -4869.93 -1.90462e-15 9301.56)
(-102962 40806.8 -2.73076e-15 210.084 7.18516e-15 -25494.8)
(-130169 44279.8 -7.75389e-15 -113.133 1.38668e-15 -32325.7)
(-42950.1 61801.5 9.42895e-15 263.753 6.96454e-15 -10591.4)
(272750 40030.9 1.08322e-14 1377.63 8.07659e-15 68016.6)
(298205 42273.9 -2.43379e-15 5529.97 1.26479e-15 75362.8)
(371684 39883.7 1.95012e-15 -105.484 1.27363e-15 92196.2)
(18986.5 42764.5 -2.56232e-14 5376.99 3.15798e-14 6045.08)
(-74249.3 22497.8 -1.59424e-14 2980.94 -8.26342e-15 -17683.1)
(-68058.7 25059.3 -2.0229e-14 6646.67 1.36795e-14 -15237.6)
(354417 13263.9 0 4829.1 0 89136.1)
(350132 26452.1 0 -1893.76 0 86404.9)
(124823 24411.2 2.99597e-15 -1721 1.59494e-14 30544)
(129170 20544.4 1.11499e-14 1557.15 -3.01293e-14 32436.1)
(-145187 18024.9 0 -2660.68 0 -36684)
(-139056 22039.2 0 1347.56 0 -34168.2)
(7166.96 47063.6 -3.53631e-15 4099.98 1.03009e-14 2795.56)
(-25408.6 37442.6 3.80716e-14 -3717.03 -1.63563e-14 -7226.66)
(-65376.2 26630.7 -9.9888e-15 -2871.47 -3.72466e-15 -16933.6)
(600528 1233.21 0 12552 0 152118)
(-12620.8 46736.3 -2.5018e-14 -8329.76 -6.65492e-16 -5198.26)
(-11366 49479.6 -3.59977e-15 -6467.6 -2.03976e-14 -4424.88)
(31570.7 35793 -1.31733e-14 328.555 -9.13296e-15 7914.85)
(-29433.7 37778 -2.78394e-14 883.102 1.18073e-14 -7083.97)
(26884.1 31822.2 8.58907e-15 -3630.6 -8.96511e-15 5769.66)
(-123319 24034 5.6973e-15 -158.271 -1.20498e-14 -30637.2)
(111282 23945.7 -2.17646e-15 -557.944 -1.4804e-14 27472.8)
(-326969 35143.2 2.82349e-15 -959.529 -1.43547e-14 -81365.7)
(-589370 -33014.9 2.09432e-15 135295 -1.70643e-15 -112665)
(167035 63107.5 -3.14546e-15 -3669.27 4.11665e-15 40534.4)
(4880.6 35797.7 -1.46568e-15 -1303.47 8.22872e-15 887.557)
(-112455 32608.3 -7.57936e-15 -3493.69 -2.05525e-14 -28769.3)
(91739.1 27993.3 -9.23908e-15 -1868.95 1.33029e-14 22298.6)
(-72550.2 27074.4 1.06516e-14 -2450.59 1.36976e-14 -18609.2)
(50866.1 30943.8 1.49375e-14 473.892 2.33979e-16 12738.5)
(6330.09 50744 3.99715e-15 -2129.19 1.9073e-16 1042.33)
(22811.8 47261.8 -1.69114e-14 -1628.96 2.16215e-14 5255.88)
(-43381.3 40433.1 1.39323e-14 -2544.02 -1.51559e-14 -11395)
(-66622.5 47693.7 3.77891e-16 -381.66 1.90761e-14 -16625.1)
(-36187.5 36362.4 2.00798e-15 -2935.48 -1.46206e-14 -9707.19)
(-56527.1 42864.1 1.30421e-14 -1595.61 -4.80542e-15 -14421.4)
(10332.6 44893.5 -9.44979e-15 -282.284 3.03737e-15 2493.69)
(-4641.22 38136.4 -2.0336e-16 1328.69 -1.4439e-14 -821.906)
(-3400.29 44770.2 1.73855e-14 402.139 1.41538e-14 -743.903)
(-3742.52 49956.7 8.95063e-15 -946.905 -1.98324e-14 -1163.54)
(308582 37239.2 7.73957e-15 1188.8 1.1534e-15 76860.5)
(-3372.14 39376.8 -2.04772e-14 -824.633 -9.21871e-15 -1041.3)
(-13738.7 47554.5 9.73344e-15 -9180.53 -3.31213e-14 -5686.73)
(512763 11424.9 -4.06351e-15 -28310.1 -3.2623e-15 120202)
(41210.3 34496.4 1.04476e-14 -3345.02 -1.35379e-14 9395.15)
(-116166 46392.3 8.79811e-15 2144.93 2.46041e-15 -28291)
(-97611.8 25394.7 -1.18632e-14 1501.63 -5.25245e-15 -23846.9)
(-99520.9 23628.2 0 995.079 0 -24446.2)
(115775 21279.9 -1.10359e-14 3825.34 -5.27528e-15 29675.2)
(107625 28941.1 4.04464e-16 3570.01 1.33998e-14 27589.8)
(-10665.7 42804.2 -1.15396e-14 3565.52 9.55961e-15 -1761.69)
(-8067.18 42862.2 8.40291e-15 2228.95 -4.7532e-14 -1448.58)
(-137358 55520.8 -6.43232e-15 2063.08 -1.89674e-16 -33569.5)
(-183134 49101.1 0 2495.18 0 -44820.1)
(145743 49931.1 3.68122e-15 2162.45 1.0034e-14 36698.3)
(-402051 49586.5 1.55825e-15 -420.046 -5.62257e-15 -99861.1)
(2723.11 31952.6 0 -1058.98 0 412.906)
(144868 39862.4 -8.20674e-16 342.75 5.10546e-15 36029.7)
(105434 50465.8 -3.87816e-16 653.153 2.16115e-17 26322.4)
(-56013.9 35499.3 2.17753e-14 5116.86 -2.82138e-15 -12628.6)
(-44963.3 32990.7 -2.08734e-15 6053.43 1.55427e-14 -9654.34)
(-40956 37743.5 3.2873e-15 1657.95 -1.27696e-14 -9750.64)
(-29186.2 34853.5 -1.85851e-16 2056.74 7.50659e-16 -6731.38)
(-65949.8 29880.1 7.72019e-15 3969.09 1.15498e-14 -15378.7)
(-52257.2 32942.8 -1.35337e-14 8699.89 2.77974e-15 -10807.5)
(-46037.2 35335.1 0 1520.21 0 -11045.6)
(-57309.5 41744.2 -7.91144e-15 673.291 6.99561e-15 -14052.6)
(-69446.9 47689 -6.85048e-16 764.274 -7.91557e-16 -17041.6)
(16150.6 37278.7 -3.31997e-14 1859.06 -1.6805e-14 4468.55)
(-4366.07 48065.1 -7.37455e-15 -2463.14 1.49314e-14 -1694.46)
(91536.6 23081.6 -4.63906e-15 1324.55 1.28081e-14 23040.7)
(94569.8 26625.7 6.3376e-15 -2469.82 -1.20956e-14 22851.9)
(22728.2 43547.1 1.19758e-15 -4253.15 -8.4169e-15 4584.02)
(25013.8 34846.2 0 22.1459 0 6211.94)
(-90281.7 53471.3 1.12907e-14 405.153 -1.28106e-14 -22300.2)
(60297.2 44799.6 -2.14097e-14 533.658 -1.94075e-16 15093.4)
(65442.7 49874.8 -9.35769e-15 363.593 -5.55056e-16 16327.9)
(-19760.4 38394.6 -1.36837e-14 -4258.22 1.99132e-14 -5959.51)
(-14747.2 38222.6 8.01111e-15 -2956.11 4.85853e-16 -4392.55)
(-28356.3 37285.3 1.3194e-14 2666.8 4.74995e-15 -6374.08)
(-32053.1 36283.5 0 1831.46 0 -7498.6)
(-179052 38335.9 4.9313e-15 -431.19 -7.88711e-15 -44533.4)
(50832.7 35071.6 -6.21121e-15 1799.32 -2.54865e-14 13059.1)
(45206.7 40450.2 -2.86788e-15 306.962 -4.1359e-16 11292.9)
(-36279 91825.3 -2.73676e-15 8980.78 -2.17843e-15 -6773.25)
(133744 24435 -1.36486e-14 -2072.32 -8.27177e-15 32670.4)
(-166337 19298.5 1.25113e-14 1788.32 7.55841e-15 -40827.8)
(-50230.1 88579 0 1394.3 0 -12117.2)
(-31181.2 42587.4 4.76282e-15 3049.8 1.46269e-14 -6979.96)
(-28379.4 43604.8 -3.59069e-14 4445.09 -9.21639e-15 -5938.58)
(-39386.7 32531.3 1.56478e-14 767.221 1.78368e-16 -9582.27)
(-34497.5 33206.1 0 2302.06 0 -7988.33)
(59562 39342.4 1.01647e-14 73.9186 -1.64175e-14 14796.9)
(69343.6 43538.1 3.60827e-15 -999.617 1.55183e-15 16957.5)
(48403.8 37607.9 -7.1262e-15 -219.933 6.89869e-15 11955.4)
(58312.7 40474 7.24375e-15 -513.364 2.10532e-14 14341.2)
(39164.6 32667.5 5.54774e-15 2041.39 9.58053e-15 10224)
(47455.7 34964.5 -1.23303e-14 728.273 7.1406e-15 11955.4)
(62191.1 27115.1 4.88248e-15 2426.51 1.86568e-14 16032.9)
(60123.4 24426.2 1.43652e-14 6893.14 3.10994e-14 16628.2)
(-158984 54052 -3.97507e-15 1584.01 5.50605e-15 -39054.2)
(43484.4 38676.4 -1.49262e-14 -1527.86 -3.55216e-16 10410.3)
(-124145 41856.9 0 881.056 0 -30584.2)
(211485 40541.8 1.07606e-14 -3458.96 -6.87223e-15 51615.5)
(-86948.6 28537 1.5127e-14 294.394 -2.54332e-14 -21500.7)
(-74022.3 29425.5 1.81225e-14 -841.464 -1.23235e-14 -18575.2)
(-443162 -209577 -1.72047e-15 72481.5 3.78842e-16 -91973.5)
(14062 46792.1 2.01463e-14 1163.07 -5.3786e-15 3777.64)
(232285 35016.5 -3.53848e-15 -599.387 -1.42553e-16 57485.9)
(-88413.2 31922.9 -4.37531e-15 -169.302 -1.25756e-14 -21979.1)
(-73742.1 34305.7 2.63369e-14 -1448.57 1.31476e-14 -18656.3)
(471882 11384.9 6.47799e-15 724.037 2.88682e-15 117263)
(-18857.4 43672.9 -2.90078e-15 1587.86 1.17999e-14 -4284.93)
(257331 26545.9 9.25722e-15 1397.19 -5.87e-15 64195.7)
(-60715 34751.8 9.06659e-15 1937.61 -1.61839e-14 -14583.9)
(-260109 49632.5 7.76845e-15 3674.77 -9.84073e-16 -63626.6)
(-245187 41230.3 -4.75517e-15 -1338.08 -4.07988e-16 -61167.9)
(221423 42496.8 -9.14174e-15 -186.838 6.16358e-15 54893.1)
(-21282.1 37433.1 -4.11962e-14 1621.93 -1.90103e-14 -4878.09)
(-1021.5 -11308.5 6.97697e-17 -17753.3 2.49053e-17 -4658.4)
(-7575.55 47407.4 0 2962.65 0 -1144.55)
(-584878 -183710 2.80622e-15 80591.7 -7.72778e-16 -125124)
(434629 -206349 3.27263e-15 -69808.8 1.02935e-15 90519.3)
(-170464 45807.8 9.08416e-15 -1120.07 -9.10761e-15 -42573.4)
(51373.7 37745.1 3.01418e-15 -1143.97 1.18712e-14 12463)
(55081.2 30791.7 -1.00542e-14 -1988.43 2.28786e-14 13173.4)
(29489 43176.8 1.95218e-14 -2079.76 5.91373e-15 6800.79)
(-47886.8 23928.8 1.13765e-14 1472.68 -1.76631e-14 -11516.3)
(21737.4 36857.2 -9.91452e-15 89.18 9.15696e-15 5415.63)
(-14039.1 35291.5 2.92526e-15 1370.23 4.54175e-15 -3143.4)
(-29980.9 60290.7 2.8206e-15 1478.6 8.55139e-15 -7072)
(-447039 27291 -1.40306e-15 9809.07 3.83964e-15 -108486)
(3931.94 -6720.24 1.82623e-17 -11756.7 1.13461e-17 -1941.48)
(-71727.6 34022.5 -3.789e-17 696.731 8.72985e-16 -17624.2)
(53864.1 30377.4 7.17176e-15 574.707 2.29119e-14 13507.4)
(492943 -95179.3 2.65859e-16 -13408.7 4.09714e-16 118982)
(-6948.15 34397.3 -1.91511e-15 222.278 -1.50513e-14 -1668.83)
(-9325.93 38271 1.52215e-15 809.366 1.47148e-14 -2113.13)
(-6400.36 34456.2 -2.6285e-16 1362.52 -2.30589e-14 -1249.99)
(-22882.5 49196.7 -5.17238e-15 807.26 7.24694e-15 -5477.32)
(5526.51 36538.9 6.39466e-15 184.113 1.67385e-14 1416.92)
(4942.25 43586.5 -1.47838e-14 -1491.88 -4.90418e-15 856.109)
(-502983 -95447.3 1.2878e-15 13364.5 -3.85485e-16 -121484)
(114324 53306.9 -8.22868e-15 -287.166 4.61829e-15 28294.8)
(-42336.3 42231.9 -3.94977e-14 3737.38 -1.13408e-14 -9577.18)
(84410.3 40517.1 2.5748e-14 2807.68 -4.31994e-14 21640.6)
(69668.1 35608.6 -4.18484e-17 3572.64 -1.5697e-14 18172.5)
(60543 31762.4 -4.26366e-14 1518.36 6.70443e-15 15398.7)
(18456 37183.2 -1.93858e-14 4635.12 -7.34577e-15 5729.38)
(-253408 30307.8 1.36035e-14 -1430.36 -1.36986e-14 -63230.5)
(64387.9 32661.6 2.10148e-14 -55.1963 2.27392e-15 15962.2)
(74508.5 29087.5 -9.5574e-15 30.6848 -1.39398e-14 18494.7)
(-25026.2 44277.2 -3.35122e-14 -679.319 -5.7371e-15 -6378.07)
(212749 59388.2 3.29128e-15 -3937.14 5.19252e-15 51810.5)
(31539.4 38530.4 -1.35696e-14 -3353.14 9.31759e-15 6993.58)
(-447302 31309.8 -5.53529e-15 -1490.87 -2.20423e-15 -111355)
(9589.75 45362.8 -1.74965e-14 2144.7 -1.49521e-14 2911.56)
(-32934.7 43184.7 -3.47567e-14 3746.47 1.66883e-14 -7242.2)
(58901.6 38946.2 3.17788e-14 1508.44 -4.81684e-15 14989)
(47881.4 34348.1 2.82359e-14 1797.32 6.86689e-15 12326.3)
(41985.1 30672 -1.97818e-14 437.022 5.57504e-15 10525.8)
(225407 48411.1 3.89797e-15 674.886 9.1457e-15 56095.4)
(24125.7 37669.5 -1.17252e-14 664.951 -2.5576e-14 6151.07)
(-88328.3 42901.4 1.02097e-14 -695.835 2.60983e-16 -22088.7)
(-89930.9 61516 6.93209e-15 1271.45 7.99159e-15 -21998.2)
(-43785.9 39331.3 0 -127.885 0 -10895.9)
(-90698.8 35937.9 -1.21376e-14 404.072 3.70879e-15 -22403.9)
(-104603 39083.9 -1.91411e-14 551.094 -1.37029e-15 -25817.4)
(-127521 45598.6 -1.98634e-14 -261.745 9.72992e-15 -31705.5)
(51631.1 34788.9 3.19039e-16 235.102 4.22248e-15 12869.1)
(40801.1 41881.1 5.22164e-15 -773.373 -6.63245e-15 9931.7)
(28911.5 21242.1 -1.53595e-14 789.222 5.58574e-15 7369.35)
(26240.2 36326.8 0 -2036.23 0 6005.49)
(36967.9 33302.7 -1.78307e-14 -2390.63 1.07662e-14 8579.33)
(581596 -3687.65 -1.52854e-15 -96228.7 -7.71112e-16 120429)
(89212.2 27473.2 1.95714e-14 -2117.51 -2.01178e-14 21610)
(-70422.8 32906.2 0 -1051.72 0 -17734.3)
(-55931.9 32792.8 -9.51467e-15 293.902 -4.46295e-16 -13804.9)
(39478.8 36615 4.83841e-15 -1469.7 -6.03522e-15 9430.84)
(-14123.1 33583.2 7.98618e-15 -93.5607 6.61498e-15 -3527.45)
(-8216.82 48102.9 2.27922e-14 1421.36 -1.82663e-14 -1686.09)
(-2226.43 33504.8 2.08702e-14 1400.62 -3.36343e-15 -204.901)
(-1636.99 38635.5 -1.13727e-14 990.56 -1.08089e-14 -160.392)
(-7595.13 50813.4 -5.94983e-16 -2456.61 -5.05479e-15 -2494.04)
(79.8141 30509.5 -4.38835e-15 47.1072 1.49489e-14 31.4918)
(-3574.6 34826.6 -1.60656e-14 -5333.16 1.21054e-14 -2210.19)
(1261.6 49341.1 1.52652e-14 -7912.47 -7.04712e-15 -1650.22)
(22526.1 47899.5 -1.61227e-15 812.592 -8.13494e-15 5790.81)
(-78214 68270.7 -4.18998e-16 319.888 -4.44358e-15 -19327.1)
(13470.7 44208.6 3.82627e-14 -1669.15 -7.64963e-15 2928.21)
(-5335.78 67289.5 2.42248e-15 -3882.29 3.74648e-15 -2287.19)
(-132924 60135.9 -5.78875e-15 267.571 -3.61955e-15 -32914.7)
(104740 38844 1.63456e-14 2428.66 1.50443e-14 26590.6)
(-48956.3 33846.7 -1.48014e-14 521.534 4.88921e-15 -12017.6)
(-393568 109743 -1.13488e-15 87815.7 7.41477e-16 -75863.3)
(-44419.1 40745.9 1.04509e-14 -2722.94 1.15531e-14 -11696.9)
(-66408.8 55081.4 0 1266.58 0 -16163.1)
(15764.7 41353.6 2.03984e-14 -4263.69 -2.85954e-14 2853.63)
(18225 32987.2 1.09032e-15 56.6574 3.60411e-15 4536.05)
(437738 -97702.7 -3.6125e-16 15714.6 6.6876e-17 112511)
(-474540 20118.6 -4.3457e-15 1881.5 2.01325e-15 -117276)
(68457.4 32874 7.31657e-15 5592.25 6.2754e-15 18373.2)
(83543.7 37660.9 -8.18301e-15 3830.33 1.75121e-14 21679.3)
(-42276.4 43477.6 -4.83317e-14 6134.56 -1.74637e-14 -8967.52)
(12771.6 38454.5 9.23922e-15 -900.655 1.85658e-14 2945.43)
(-9156.59 45396.9 1.36488e-14 -6082.53 2.11347e-14 -3781.13)
(-252363 -164515 -3.0533e-16 16782.1 1.28006e-16 -58452.4)
(-421558 29051.1 1.47764e-15 2265.02 1.85502e-15 -104035)
(403798 28604.5 8.11302e-15 815.492 -4.15816e-15 100393)
(-650125 -4640.21 -2.24788e-15 -4212.79 -1.00999e-15 -162354)
(90459.4 26777.9 -6.13426e-15 -141.502 -9.83026e-15 22409.7)
(65782.5 28122.8 -1.04394e-14 791.469 3.77572e-14 16518.3)
(-92989.2 32255.2 0 1900.01 0 -22601.1)
(8752.43 41493.1 -2.19509e-14 -2411.31 1.0687e-14 1573.36)