/*--------------------------------*- C++ -*----------------------------------*\
| =========                 |                                                 |
| \\      /  F ield         | OpenFOAM: The Open Source CFD Toolbox           |
|  \\    /   O peration     | Version:  2.3.1                                 |
|   \\  /    A nd           | Web:      www.OpenFOAM.org                      |
|    \\/     M anipulation  |                                                 |
\*---------------------------------------------------------------------------*/
FoamFile
{
    version     2.0;
    format      ascii;
    class       volScalarField;
    location    "320";
    object      sigmaEq;
}
// * * * * * * * * * * * * * * * * * * * * * * * * * * * * * * * * * * * * * //

dimensions      [1 -1 -2 0 0 0 0];

internalField   nonuniform List<scalar> 
11800
(
76911.9
80935.9
80561.6
83761.6
76938
79994.3
75359
65555.2
80835.4
62589.6
75748.6
96026.6
26352.9
73440.5
84480.1
372250
71623.6
60582.1
98027.9
54647.5
78781
93512.8
225123
200448
295067
239038
135665
89705.6
162715
195085
81306.2
95416.9
216122
88346.4
86971.3
83778.5
85061.6
225609
75681.6
60270.1
141577
168763
95597.3
201868
84876.7
346645
202885
223563
76142
63722.1
100362
88076.2
85948.7
123665
389206
450320
48967.1
84308.1
72377.3
72246.8
420397
87650.7
74092.1
71481.2
290481
72036.7
101376
87663.6
51685.6
218140
90762.1
78560.3
74931
502953
413605
87244.8
278280
65124.6
78403.2
83050.1
402804
58167.7
75855
79522.6
61131.9
186450
84092.3
154850
133819
88692
81018.2
253342
79438.6
50417.1
58054.7
44937.7
5727.1
44134.1
83638.6
86901.8
63164.4
94249.9
237094
125088
86915.5
100065
62501.2
71684.8
379820
142311
173469
121770
83684.4
90893.8
56133.5
348371
66505.3
82442.5
329674
65677.2
86429.2
76597.2
64405.1
65541.1
77163.2
84993.8
85656
81999.3
77110.4
35768.9
544044
301171
81654.4
181707
84844.2
148245
128839
81894.2
158623
82273.5
129778
113743
129504
76790.4
64962.1
64654.8
137307
150451
94961.2
115697
82830.9
81161.9
84388.5
79442.7
66887.5
82184.3
89822.5
98062
212334
84326.6
434279
78819.9
280080
86171.5
96193.3
113705
70525.7
80132.9
505195
228750
85459
87629.1
74685.5
79762.2
83172.3
335134
339719
127855
108808
156474
84561.8
81814.9
70290.7
83394.9
76140.2
60546.7
109847
76468.5
62786
79054.4
81724.9
70599.6
79611.4
107281
105864
133602
492900
83653
65311.8
558994
73368.7
66168.6
72873.9
86998.6
87582.5
104693
96712.9
89364.7
79639.1
533622
151162
208528
746804
451304
633605
123042
77800.6
145042
121050
105636
80324.6
76859.5
69628.9
57140.4
99845.5
55822.3
365029
94702.8
60570.8
80081.3
82120.7
66120.2
76771
84720.7
86448
731051
358232
74516.6
80260.3
136666
119044
84937.9
86696.6
169160
142416
122406
85594.1
208169
81170.2
81731.5
77294
70280.4
86307.1
116231
68594.6
103108
620978
64407.4
67882.5
71759.5
74400.2
92698.7
109267
131802
76879.9
78547.9
88074.1
422645
67276.1
72700.5
86244.6
75348.5
46437.9
87209.9
548047
76716.1
76429
90762.2
81435.7
83572.4
76282.7
203378
176968
70373.7
75493.6
73863.8
76467.1
116828
140160
113905
254573
274696
342348
75252.8
79461.1
79428.2
316819
320522
121487
120682
132653
132080
81609.2
67915.9
73165.6
532107
81206.5
85923.6
68117.7
70870.2
61405.4
118645
108991
300399
640473
188404
62240.8
113786
97134.6
79002.6
70315.8
88202.3
84720.2
79303.7
101979
69950.4
89383.6
78340.2
66261.4
77617.8
86569.4
284809
68246.4
82663.1
484614
71762.5
133341
99440
99339.5
108007
106854
75177.7
74787.6
158075
187474
155977
372335
55441.9
147548
128797
82144.3
72892
75720.9
66506.3
81170.7
78504
74617.2
89178.2
104015
65900.5
83285.4
90824.2
98627.8
79099.3
64428.1
123524
94522.6
104469
68112.3
67134.7
70244.4
69774.9
174304
75292.8
80944.9
163949
129328
155031
160277
79812.9
80923.3
66923.3
66252.2
86736.5
98459
78508.4
87873.5
65900
73840.5
71759.6
64807
172259
78223.2
133954
205736
92886.9
83484.9
583011
81902.4
218542
96929.3
88369.1
425502
77810
235558
82378.7
252485
231414
212970
67983
24818.8
82625.8
670462
571863
172252
80639.6
73931.9
79923.7
60677.1
66761.2
62647.8
108161
413395
17999.1
87901.4
71317.6
483798
59924.5
66900.4
60070.7
87822.4
63472.5
75704.4
492443
138570
83888.1
101989
86143.4
76706.2
65763.6
233442
81102.4
83970
79799.2
220368
73602.2
405931
78890.2
81596.2
85161.3
72723.8
65047.4
219436
68620.5
108554
134498
78693.8
103037
116459
139355
76043.7
81609.2
44752.6
67791.9
67563.9
599643
94875.8
84745.6
76115.1
73288.6
59531.1
83751.3
58117.3
66957.6
88160.2
52844
60382.4
85846.1
85271.7
137816
77742.8
116579
158967
114481
73632
464606
80159.9
113164
73753.6
59441.1
418641
430837
80956.7
97493.8
86668.9
67715.4
78768.3
372888
385234
366929
583207
93941.9
76300.3
101983
72533.2
61206.1
66559.9
78941.5
93874
87416.6
85556.4
60247
59350.1
365926
79897.6
238089
287841
63226.9
71430.2
389384
317838
89091
106444
129140
77894.1
85652.5
90486.3
84092
83158.5
82675.9
85573.6
76969.2
78463.7
66419.5
66683.9
57750.1
59667.9
50665.8
63616.6
58892.3
75324.6
53620.7
426497
112858
69455.9
119935
222632
59188.9
79555.6
70304.3
60508.7
53587
78548.2
68849.5
92282.1
89806.8
146533
60374.2
84831.6
457938
53065.4
96522.3
93681.9
83530.8
90610.3
101163
109920
119104
66656.7
77404.1
443397
659874
84453.5
67781.7
67571.9
135716
73272.9
72913.4
125111
107752
92220.4
79923
55625.2
101700
119634
70526.3
66887.1
58566.5
83996.3
100191
83202.5
127844
117711
120108
129023
340027
332619
86613.6
525678
104392
77005.2
403225
158293
189101
98396.9
60149.7
71661.8
83775.5
291414
76819.3
93174.4
548517
77658.1
64323.2
125931
91696.2
219217
95937
361793
83380.1
78693.1
83869.1
77260.9
143043
121996
105356
466937
78722.5
80859.9
142068
345152
80328.6
534576
504772
454778
71375.6
87294.1
53965.1
465100
83342.3
73502.5
80440.8
346606
76511.5
65650.4
77179.2
79740.6
151011
65884.2
657004
422833
71900.2
134309
161686
70432.3
71249.2
81280.8
81826.2
221144
109944
85613.8
83087.2
177011
197845
73303.9
288181
88162.3
68938
72772.1
486584
73639.8
111588
73365.5
85741
65339
66882.4
103072
204962
228415
58756
70105.1
59723.5
89932.1
95486.8
294495
68544.1
83867.5
102036
84594.5
71425.3
125645
147978
97111.8
178136
215564
92106.1
82420.2
74844
59212.3
80465.3
91335.8
69615.9
74815.8
82187.9
64808.3
85157.7
66346.3
78093.1
552742
185468
87571.1
83995.2
107159
70723.5
81145.8
87573.2
195352
160794
138548
73149.3
78950.7
107654
70523.8
314347
328043
256723
79789.7
98062.1
73568.3
91723.6
262135
85553.2
26796.7
81498
606182
576604
62911.5
533560
74720.8
68030.4
76626.2
147027
61338.5
90450.5
123922
164834
197677
240907
296716
101363
100650
91831.6
88333.1
83550.8
79552.8
78660.7
374686
87124.2
89691
65360.3
77669.3
60093.9
65816.9
77843.3
300476
174634
109763
75264.1
124992
152906
75494.6
218307
73285.9
69488.9
84767.5
592986
76066.1
73733.3
63565.4
56600.5
74302.8
545416
74809.2
72771.9
355288
79145.4
150115
87920
564671
166818
78000.5
85339.9
343603
80300.9
65022.8
76777.7
61681.9
75293.7
69671.7
91574.4
77065.3
60908.5
179081
107240
77872.8
107926
119622
85052.2
98137.5
116271
111199
123799
275828
222791
181710
157410
95913.4
107252
291395
235928
111486
195492
121563
165002
316672
86153.2
80625.5
87838.9
70526.6
116334
322238
91117.6
87042.7
96888.1
97491.6
110054
83306.7
86306.7
79005.1
87264.4
202888
167791
144965
84500.4
80765.2
165780
64503.1
63190.5
83941.6
87839.7
75832.6
64603.8
82219.9
76092
80741.6
71507.8
87699.9
204575
78766.7
58576.7
85494.1
186045
87763.9
91987.8
124930
60946.9
59310.6
62546.5
62163.9
73781.2
83405.5
83313.4
86940.5
77050.1
80745.6
60474.7
73838
255908
87086.5
92156.3
158012
81514
73840.4
64344.1
55344.4
63868.5
79718.8
113812
94826.1
82268.6
69808.4
492626
100329
113438
285301
181113
273796
536441
72293.3
81012.5
62297.6
79340.2
59905.6
99471.8
92726.4
537865
71671.2
82065
81125.3
81897.6
64759.7
90745.3
104182
101137
57785.5
75105
72506.5
65017.1
85560.5
414163
526916
62875.9
84277.8
86940.4
81352.2
129943
89287.4
106528
618850
84862.5
89809.8
91904.3
82599.3
103072
121221
125575
132842
289969
232604
189096
163406
103031
117379
304054
245749
119665
203515
129333
172253
444070
408227
311484
78213.8
88541.3
398205
338177
80739.2
84060.7
80650.4
331922
481602
61149.5
77338.6
485379
319710
538792
536152
135526
144283
76341.9
77138.5
82423.9
124371
72866.6
69782.5
72292.4
65366.6
81010.8
65218.2
73172.8
464133
82662.6
66969.6
66924.1
76259.2
79849
389475
80604
77107.2
70931.1
73322.2
215567
77542.6
78673.6
402322
77037.7
78160.4
61243.7
75740.7
90022.9
69762.8
80175.7
207534
95745.3
89299.7
199889
193705
88824.1
86326.6
178534
191511
89120.5
83772.3
79587.4
70301.2
71754.2
84656.1
71786
38658.7
79362
82097
140451
143624
70352.3
92234.7
79950
59224.6
59878.7
62169.1
174224
327466
69656.2
528536
87989.4
119563
104146
68698.2
73248.3
100101
78098.6
84805.2
343455
72255
169450
141815
123016
84052.9
85674.5
73664.8
412656
357488
64012.8
77410.5
190814
81375.7
79724.1
108602
128606
160612
88525
86693.2
46616.7
209268
77012.5
343150
140399
218537
115453
124376
88205
74439.3
61602.3
87640.3
60080.7
72879.7
320399
79283.1
58984.3
64706.2
77014.2
84612.9
72821.3
79243.1
132519
133670
112627
111822
99006.5
100050
368621
82068.5
76747.2
84414.9
65739.6
102272
82696.3
64155
412789
72410.7
140378
87730.6
185687
88773.8
55533.1
59198.6
85774.6
77442.6
93998.6
85964.2
209718
159999
131910
112503
91310.3
253527
97555.1
373267
65343.4
61958.7
72689.4
85127.5
66079.6
83261.6
70691.9
318493
560920
68905
68293.4
59289.1
88194.2
71690.6
58481.5
76831.4
88524.6
75828.9
67453.4
76472.6
65995.3
65258.2
72615.1
83843.5
91514.6
93706.4
103911
70882.9
78298.3
159768
85198.6
148641
113297
89133
269300
258497
154780
550730
79649.7
76535.1
89203.1
105510
60778.9
77072.5
78696.3
118163
79706.1
343054
98225.2
87608.6
105830
46687.2
78714.1
460360
69944.5
82905.3
201411
90099.1
166703
143553
416992
287696
57116.4
89674.6
83201.7
99473.5
264436
92182.2
112526
136369
118471
162516
89095.4
90216.7
57721.3
662186
96806.3
80320.5
81193.1
80284.8
77020.7
63555
86870.1
97853.1
83294.5
468868
83214.5
279464
68038
226419
76418.1
91324
104229
179494
80360.2
83477.8
92438.1
67396.9
486682
61012.5
55448.2
61995.2
462903
356654
82221.5
85580.9
174810
147808
126704
476183
86014.4
82647.8
593372
647399
392997
89560.5
157831
257617
161424
87015.4
83368.1
114619
102175
70674.9
243120
80935.2
100718
80815.4
70058.7
74920.3
431509
581697
65506.5
81961.2
94183.7
621974
69017.1
70092.4
101665
75957.8
581860
607248
90410.8
161281
81198.7
69229.4
138250
70113
64624.1
146915
76091.6
86719.3
570668
166891
94249.4
89873.2
80123.9
80228.2
123304
106543
90293.2
95641.8
609280
135719
118032
73294.3
523831
177144
209127
55223
93740.6
68989.5
229974
78106.3
87676.4
73061.8
65974
69916.3
154952
63999.6
84210
81726.1
134579
566784
70443
73738.6
150888
379272
530529
257074
200565
94836.2
102890
47328.1
80667.5
73659.4
118339
100159
84445.8
521356
68419.1
67317.1
72251.1
67522.3
65634.9
83361.9
63688.5
84150.6
75386.9
167094
395839
83023.5
158575
131055
112207
81651.6
460662
93317.4
97201.5
99458.8
86195.5
239260
433588
167221
77444.4
260831
79707.7
115365
83542.8
131430
160044
84692.3
228329
80955.2
722360
229860
77074.2
381172
716391
619308
141111
87783.6
225938
62523.4
57708.8
82522.1
104990
74932.1
61983.6
72499.9
58368.5
333607
349214
77346
325966
75971.3
65455
78671.4
88520.7
124725
135369
71182
127397
136153
336975
127323
74011.5
61375.2
59870.6
103244
118958
84282.7
17611.2
69566.5
239144
70671.8
104505
108409
127631
152101
85984.9
77842.6
96710
61510.8
65639.2
541263
266374
88944.1
79328.6
183840
164288
80890.2
91317.7
91035.3
59214.3
102400
98793.7
77451.8
62027.1
73183.1
434196
98836.4
219494
66611
79378.7
723321
89484.8
543074
506995
62535.2
190035
88988.5
448069
67527.9
136549
276170
603521
74165.8
58672.9
75132.9
145169
77723.9
74439.5
104843
89872.5
75657.8
62350.9
87934.3
57128.8
54631.5
126540
135301
107693
180688
152284
218101
461533
65533.4
154017
437949
210459
507275
110199
129897
161417
84638.5
82259
100363
133076
501911
81029.3
65219.2
78328.8
70497.8
59358.7
82692.9
85084.9
73167.4
65341.9
205808
101437
577650
56309.8
61749.3
93388.5
530837
169343
74614.3
69268.2
528226
111558
89855.3
70043.7
65421.9
74586.3
108374
132248
83137.1
247025
65394
65558.6
652187
452078
557532
80566.5
78596
151055
110170
96337.6
459598
617847
66183.6
71127.6
95609.6
90518.4
129560
138629
97002.7
106362
473191
554403
72483.4
78512.9
73654.9
332314
83463.8
427706
149056
74368.8
225405
71587
73805.9
477690
83181.8
66965.4
80672.5
86160.1
385946
73721.5
77416.3
167277
72673.7
71956
63031.2
83881.3
89702.8
91791.1
417240
485419
75030.9
109249
83815.2
73809.4
76754.2
398797
74638.7
236034
77559.5
115796
132004
154139
383829
60685.3
111822
515223
68778.6
78088
61539.4
77207.3
87342.5
586613
356680
75972.6
73073.8
151633
106344
205542
82552.4
80330.6
84131.4
93372.1
169800
139508
118288
279174
97754.3
89325.8
439810
82743.4
476337
150631
94639.8
457225
734556
564035
79874
171503
212784
81056.1
83743.4
72489.1
118925
507702
76808.6
77886.1
522026
375530
546179
106822
120954
131285
116809
71131.9
58373.4
94395.2
57470.8
106670
120488
144277
72435.8
74812.3
144243
545671
71496.2
96211.2
83153
62385.1
117250
108748
98293.1
462388
575073
140507
117220
435919
496744
90785.5
255922
180340
257937
64870.8
68391
70818.6
312231
313202
213250
74285.6
81357.6
86022.3
68861.3
109178
383976
63639.8
245593
59794.5
68647.6
82791.9
71963
119880
80959
130325
12385.9
3625.69
127798
675329
64956.3
59827.1
84962.4
74180.7
80573.5
66974.1
77020.9
72568.9
89653.4
84259.1
72105
75196.1
86441.2
122859
143754
108374
512420
582366
74577.3
92301.7
84476.1
69848.5
284285
106883
574780
67416.3
66941.1
118870
71243.3
78536.2
69940.8
123122
82137.9
88930.7
76630.2
71788
65831.1
63005
379277
73365.7
57295.1
68350.8
85506
71406.5
536283
55663.3
444276
408266
175185
155495
85899.7
88987.2
171470
147088
125919
82934.2
245980
193017
86865.5
563649
87215.8
86622.6
80193
287143
111302
125796
276230
60978.1
69464.9
81326.2
94425.4
187966
103303
234852
91617.6
152560
130476
81251.3
248281
85862.4
200770
88756.5
166537
143216
92138.2
446075
78157.9
92479.5
71545.9
67646.2
73169.2
407169
119561
152597
142550
134210
162532
121156
70297.8
75546.5
102838
222677
80303.3
644145
82307.3
74806.2
509420
63869.4
63880.2
147272
177941
408718
80044.5
182157
152799
131695
82787.4
86509.9
467703
71787.8
72174.3
129998
79017.3
131866
76582.9
128971
71753.7
70817.9
82473.6
59608.4
92777
85123.8
122943
80589.3
73693.9
111134
134245
143686
112087
85909.4
387685
88096.1
87317.1
376383
389469
217251
704866
137607
120900
232299
638264
137208
107208
554043
145771
131393
95572.7
457028
79761.4
469056
59780.3
93740.8
76957.3
100898
114151
136210
76562.4
79501.4
174443
60340.4
60585.5
73889.3
61856.5
89730.5
60939.9
87238.1
107448
215260
560574
62790.2
86168.4
526408
207011
94549.9
104010
73488.1
74758.4
424495
311304
109802
195335
178829
305465
61548.1
62217.8
88267.3
82000.1
261555
518746
565226
359222
637764
84515.8
73424.9
70774.8
137610
117491
168256
88267.7
80466.5
476338
85598.7
90139
102015
73262.8
93932.8
239548
107987
58909.8
148675
77987.3
69664.7
535236
70914
78904
182578
155179
131107
88393.8
333365
295997
363919
132555
145781
96011.7
267706
93090.3
86838.2
238550
66537.6
706744
68466.7
549239
130339
153668
56948.5
155178
240321
76645.7
69322.2
66724.6
634692
101779
83903.9
115680
64896.7
68522.7
114745
82238.6
434008
97385.4
159733
226541
188174
86374.2
162588
120062
130298
141779
153955
118604
135200
151880
103628
150386
14238.5
93430.9
71072
85288.5
98991.2
96264.9
107014
243945
196076
159132
136061
84584.9
212590
85912.1
82039.3
55800.2
66603.4
96308.2
54627.4
79436.3
133330
151875
86485.1
369927
68726.9
60668.8
326153
425018
73657.4
195853
94236.7
100638
120899
185180
66385.9
60339.8
80372.6
217684
57415.7
84082.1
387456
68760.2
76452
86529.1
73887.2
98684.9
106595
88205.1
87977
114329
305039
544177
632866
76685.7
81651.7
284186
257569
372290
87096.3
289710
351322
630348
660654
569762
91517.4
157884
75355.1
448089
239485
107305
296133
72653.6
81357
348117
351616
73997.9
136237
564453
410943
364885
376308
661685
425389
384423
404892
76697.4
81631.7
245210
239100
239060
72972.8
64543.2
75609
73294.3
85509.1
86029.4
65335.1
83818.7
371665
223884
80438.4
83056
259162
79556.6
137610
132185
693862
72322.2
65240.2
166494
67135.5
137318
67905.1
80138
562472
4552.21
45400.7
44513.9
9304.84
74537.8
171229
61189
69552.8
81126.5
74378.1
213105
140244
77403.6
511530
466932
84556.9
238949
80360.2
96329.8
283615
81992.9
522056
95246.7
112791
115626
123993
272976
221104
179156
154701
96700.6
108674
288475
233829
110217
192772
120024
163309
64784.8
69802.3
127188
93699.3
75626.1
64251.6
61267.3
61404.1
71839.5
72349.9
58140.1
70902.1
61379.5
95884.8
209936
226461
111982
76901
122237
131670
314515
100516
86636.7
500602
181931
61447.5
45076.8
67316.5
78199.7
85715.2
66481
74510.8
87322.2
147466
113961
77024.2
108751
86309.8
76066.7
286568
80946.5
82704.8
87749.3
75132.5
251292
87109.3
118213
92098.2
74179.4
110323
98953.4
107212
68472.6
64032.9
625331
548959
158706
133109
122694
153852
470081
215458
88046.6
140056
71797.3
74125.2
85863
70093.8
596876
72090.7
194275
163054
140027
90691.6
83775.3
125092
69441.1
71292.9
606798
77382.9
87697
201741
197857
70474.1
74052.9
67751.6
96389.8
223891
385702
97733.9
79382
341562
278239
76859.9
79427.1
174678
144966
125925
79588.8
86960
197066
100442
129482
94010.9
152071
183772
82532.2
223187
617446
475414
84974.8
98701.6
114528
135083
87432.8
73383.2
348111
60838.6
70475.1
121817
117800
60687.1
68815.3
82330.8
74857.9
172433
126442
135282
151076
116157
497128
614353
227998
68481
98666.4
112128
132594
187670
276513
81884.5
398229
185045
101388
85024.9
116990
74813.4
73827.9
69094.2
72534.8
78425
109004
91923.1
91304.7
105538
126408
80889.5
77998.5
86902.3
88910.3
171747
168462
120167
140732
118109
138677
97814.9
113417
85263.3
77946
77612.5
63010.3
355993
99142.2
84617.3
147053
128454
113256
146090
79934.5
91991
251356
105600
205695
172525
65783.3
65231.7
226704
94685.8
89520.9
271035
153624
59363.4
146223
124749
180654
91575.3
83075.8
396219
84841.1
80264.5
432331
94271.1
110400
55456.5
80585.5
87507
75862.5
65565.8
339271
74480.2
111511
89005.8
76290.2
100089
63136.3
72028.1
274646
336000
80678.9
146321
66682.6
280805
515229
362606
88196
86289.5
181051
79572.9
78631.5
70435.8
64997
68731.4
107814
63214.6
79508.2
59598.3
112807
75781.1
62549.5
582839
84607.2
307116
117055
138148
81283.7
82446.5
174113
523882
54556.6
66594
77321.4
74576.3
108639
10284.6
3448.61
106540
191424
67057.7
147703
77699.9
117882
63630.3
92430.9
108432
266522
76033.9
80236.8
70782.2
61888.5
112641
68060.8
136642
121143
79943
60817.4
77463.9
556469
197270
75211.7
100913
66967.4
692392
406061
109702
63321.3
103814
79564.3
84584.5
156033
109780
129455
467282
352184
80189.1
400975
641352
404340
410503
245545
85054.7
383575
66578.6
69141.8
63895.4
107408
76392
85939.9
74446.4
163306
83399.7
60236.9
73773.4
271671
168692
203743
249942
306737
105099
102285
94132.7
88166.8
61904.3
77486.1
151732
6955.88
75197.3
73735.4
3852.44
121099
72376.3
65362.2
74946.8
68797.2
79430.9
90520.6
132961
398289
104926
87513.7
79518.2
79606.9
463018
402432
52207.2
168448
88051.6
85537.9
86184
95437.2
179287
391320
69841.7
85293.4
86850.7
416695
82989.9
69422.2
90210.6
80370.2
160497
192868
104285
239735
235178
82413.4
104523
284077
268446
239044
82280.3
85147.1
55076.6
84625.8
55497.9
67363.2
64016.6
162612
143192
138888
156162
122972
166742
122140
94463.1
142353
137251
114366
145789
115040
86328.4
254323
133329
120810
147521
140268
157859
128449
166980
127128
257837
679734
84867.1
101898
258074
144068
57099
81301.6
69840.5
6764.76
68478.3
6082.28
76569.7
87561.7
171393
145519
213488
101190
79965.3
516902
57192
81494.7
130618
330407
73206.3
151941
79789.4
581053
585809
418086
62678.6
136789
288947
97674.3
89685.9
134236
111249
93906.8
130120
78692.6
78835.5
657009
161322
555868
65006.2
76588
88058.6
63359.1
71245.4
538604
67654.3
327970
72871.7
230181
424704
58020.8
91683
82403.4
146432
89296.1
95874.6
82905.5
69000.6
80393.3
93974.9
75022.1
64184
77688.9
94887.8
85590.7
217684
181685
155390
401356
553120
618843
58402.2
65413.5
75717.9
75125.6
70695.6
55685.2
64774
582407
621542
446184
508397
19396.5
410777
471847
155931
120173
134455
157251
157996
206221
244835
103398
406574
63222.5
90201
76767
137340
70409.4
66127.5
74768.8
77894.5
85046.6
68590.8
74413.8
77244.8
84591.7
96347.9
89566.9
106012
113561
138125
147810
77987.8
83034.2
81908.5
87887.7
81285.2
62032.1
306813
414329
81604.6
167104
356890
96433.5
306491
108681
82536.6
444070
108040
99428
139185
360235
640379
271383
61717.5
564928
85109.5
68132.3
70397.1
172620
65095.7
260601
373786
71702.8
128350
79834.3
90347.2
69846.6
595403
69695.3
69603.2
73688.5
82934.6
179961
64397.6
73428.8
238624
64165.5
408499
74885.3
238136
71450.9
74285.1
351018
186300
114091
219934
270762
103993
330535
99808.5
84332.9
173443
203652
317213
253526
84169.7
108381
116475
100133
562532
91271.4
442920
59864.4
83697.1
62742.3
2517.95
19068.2
202290
46290.9
428512
69071.9
80368.3
96781.2
109103
83394.5
166755
73641.4
234904
72759.2
67662.8
283640
78202.1
80504.1
72161.3
82472.7
165629
140686
206421
94344.3
174388
66580.5
96568.6
97328.3
420361
63971.5
81115.4
65096.6
69141.1
154810
500163
203364
205950
494565
104329
227877
534298
246626
420735
92414.8
428410
76622.2
317730
77568.6
91858.7
79680.3
4401.42
45081.4
44185.5
7660.03
74998.3
421026
61592.7
320285
212330
67591.9
160614
153342
187843
179111
229259
218809
99186.1
95560.8
86857.8
84927.1
89819.7
83046.9
193998
163469
139549
67729.1
92929.2
79230.8
73240
145759
123297
78404.7
73082.5
66771.2
75856
64551.1
537960
358248
82469
180707
152585
222943
89255.8
252405
338841
293278
93930.8
90732.5
465808
193304
85973.6
60932.1
78536.6
68973
74262.1
110778
94262.8
81362.6
308831
677692
418700
207961
93702.3
82940.4
73624.7
79683
68978.8
67805.8
86940.1
91008.4
63055.9
97025
79036.8
75125.2
452000
479213
94188.8
157329
64551.7
87518.7
79065.3
66395.3
151350
457605
149024
111141
117200
128277
84843.1
57733.8
98264.8
72235.5
60673.1
70200
714833
554296
62033.1
70543.8
113424
103501
88056.6
216102
268535
149926
174341
254064
93289.6
72547.1
83256.6
79944.7
66681.5
483105
84350
271446
61523.9
488136
59064.1
95100.7
93216.2
699647
75309.3
90078.9
76860.3
82878.3
71285.7
78614.2
227472
79234.7
167522
111820
197046
241007
107426
297562
101578
93548
106379
92818.5
64473.4
104132
113615
132819
62898.7
89360.7
304572
173106
592932
531784
593678
137701
388634
242445
124721
66578.8
63475.2
478546
318419
70295.2
598553
393945
20278.8
91291
88286.1
38093.8
325535
169752
82356
53531.5
496935
570023
83636.1
103467
107460
280643
270071
94238.3
97440.2
95278.7
103600
72442.5
75268.4
77691.7
76455.1
52744.2
686969
409464
459898
569650
176432
83361.4
295796
112104
130296
154667
67730.9
461793
74341.8
310323
542985
148666
88553.4
612823
88984.8
93912.8
83954.6
90667.2
214717
209886
99516.8
90167.5
60126.6
76769.6
89949.5
234154
192242
160179
101497
672798
83515.9
67967.6
66810.1
156339
182506
101064
221406
93882.1
273819
90352.5
212763
147460
171766
264847
81216.5
113646
103515
97481.1
76866.9
88992.5
79497.5
68597.8
92891.9
68812.2
81314.9
414941
109818
122313
469866
87438.3
76607.9
79875.4
112952
129918
71338.7
78664.2
544577
83543
75997.9
88198.6
88852.8
76612.4
71857.5
118750
78246.4
84003.3
346500
445619
60829.2
55219.4
59213.5
100799
174017
551928
501847
288903
90460.9
59616.6
353816
83736.3
85637.5
665382
193038
431185
72638.8
265382
104633
149456
80852.3
300387
222177
95302.8
83726.8
69199.8
111166
64148.9
41449.2
57107.8
553388
139327
132442
363550
76775
85279.4
75312.2
137521
67368.2
77820.9
92261.8
68477.4
89734.3
8945.66
87996.9
6214.92
86390.1
300914
78097.5
87930.6
160231
131739
111790
67406.2
517727
238018
83663.3
345426
129568
146228
57659.4
5540.77
56535.5
5929.2
364810
170396
91546.4
127704
111416
67742.6
549611
72903.9
74342.4
114537
95455.2
77482.2
12135.2
345688
72866.6
384744
75290.5
78749.3
145704
118499
104617
62005.8
137928
80413.8
73534.2
73706.1
78780.1
143064
146369
69268
74343.1
69385.5
70901
185648
90929.1
83123.5
81378
169062
4323.38
16023.9
165787
93415.8
85607.1
107049
118323
66298.2
585783
642713
67519.4
82043.9
68520
78509.1
78067.5
7904.8
76569.3
6911.18
203457
77262.3
87145.4
598927
603184
387496
478702
121642
106887
107463
100468
522259
73835.1
110770
61832.7
58390.7
77499.1
74692.9
81270.1
94024.2
424544
444817
65864.5
44134.3
109326
125904
83998.3
203902
77013.4
79680.1
498893
69497.5
82638.2
93075.6
133425
127334
149789
96788.9
74005
82230.8
69297.5
59717.8
287278
65033.5
206589
40745.1
81262.2
116546
103888
255743
295462
83515.7
94590.9
87588.4
335168
2596.12
32961.8
9752.45
32520.1
75131.3
77751.2
73191.4
581956
10625.4
564596
147818
14011.9
4566.4
144967
71182.2
47945.7
5414.6
47040.8
86408.9
323458
81183.1
583179
566949
19615
87553.8
122262
106325
168891
77869.1
71607.4
217676
220431
50778.1
66258.8
69830.9
71313.1
92774.3
121996
68707.6
69036.5
559956
106289
116264
116547
130111
376675
83233.5
57987.7
312883
416060
189535
66004.4
68833.7
64989.9
99244.8
90756.8
84416.7
73762.5
75050.6
82497.3
59386.5
335990
410888
65323.3
86977
82059.2
94166.7
285796
103543
67902.4
82499.6
135383
179163
69885.9
72153.4
423544
452077
84263.7
77354.4
104654
149453
123911
73111.2
75092.1
73862.8
64706.8
374114
147252
57569.1
38384.8
24268.7
87751.5
82111.5
101632
144294
120666
78256.1
558865
609910
83724.6
66723
57051
51607.3
502310
80427.9
88556.2
172728
636053
551261
82921.6
82668.2
103866
89037.9
76438
65655.1
87560.3
63648.8
78730.5
77747
76535.9
553857
83484.8
130229
136681
334173
226693
220601
93361.9
89938.1
95585.6
98496.4
109193
64296.6
70364.9
61704
77545.6
98264.6
64038.1
473502
265127
69982.6
76900.6
259048
653610
70102.2
142838
128218
109944
145564
185883
89215
86347.1
220711
79351.5
169900
78887.4
76601.8
73704.7
185459
68437.8
75068.7
163938
81264.9
65740.2
63889.8
77380.4
129052
116302
80852.6
76165.7
84963.5
83684.5
78137.9
91060.4
78235.2
87518.2
77531
85292.4
63787
71756.1
585067
517677
385864
77475.5
86299.4
134889
111586
94231.3
83489.4
96784.8
45452.8
331472
65257.3
84644.6
114121
69455.6
127126
552096
59677.8
72360.1
66924.7
66969
534230
56714.2
92333.3
83279.4
94119.9
70112.5
62433.8
79415.6
60111
76256.4
368955
83044.5
45298.2
5530.72
44430.9
361916
285538
515675
443270
491739
91428.2
525273
289818
5007.73
36281.7
73827
83723.8
90824.4
101224
118778
181393
86868.8
319329
123094
145424
69284.3
63692
56586.3
73466.2
80647.6
64945.3
64637.1
282362
36974
494313
156603
53323
208492
98519
76837.1
85385.4
70962.9
57134.6
66495.3
129159
74506.8
159038
165733
62711.3
84992
103397
305261
70243.7
68669.9
90345
60753.5
82117.4
500208
77142
84867
190031
425226
138739
68253.4
108702
103559
119701
88209.2
77529.3
78039.3
75378.8
2948.73
23269
117794
102720
121324
282629
190666
229592
102292
111594
298583
241497
118535
202396
98629.6
74754.2
69025.7
104817
79477.5
80285.8
67373.2
141457
71062.4
82156.4
57209.3
92426.4
239122
97810.8
64120.1
65058.1
65764.4
74140.1
64048
71431.5
86960.7
72757.7
54566.2
216001
80441.1
84332.3
79456.6
83011
153002
130820
109351
98650
257310
74697.6
64047.4
115880
101606
83588.1
73709.9
74605
83457.4
75115.7
108629
78946.6
68454.1
85651.6
83192.4
75621.4
132238
62734.6
55733.2
315240
266624
72613.2
88908.7
520121
81143.8
91313.4
59672.8
70084.1
82072.6
153031
128219
109153
82384.9
76142.6
193437
78192.9
66615.5
76038.1
347035
76630
66979.4
88252.8
75739.9
60093.6
68327.9
60004.4
65110.8
403277
364357
80742.3
76916.8
88408.6
212914
189242
80872.6
86721.6
98672.8
89745.4
59806.1
72485.8
536248
101655
107084
59678
91299.8
69016.1
28520.2
59126.2
63882.8
81726.7
92867
79454
73248.3
71643.8
82813.9
609835
77140.9
208626
72296.1
467505
103367
117170
77913.3
79137.8
213446
67062.5
77561.6
66335.5
71504.7
86693.6
113464
65656
40629.4
43971.6
182053
77671.2
85185.1
62354.9
72395.6
62431.3
68902.5
99779.6
73566.3
85298.9
48113.8
56081.5
439053
63252.7
674737
80854.8
115079
296650
80513
73152.4
227869
66966
62451.1
291141
85382.6
101599
200893
169056
245286
80594.5
112828
77936.5
296949
282817
65861.5
70788
80448.4
81712.7
94096.1
102982
187007
94192.5
99183.2
234386
185223
228248
130129
152249
129016
150669
373643
154774
73492.8
542506
84219.1
84424.2
165280
483629
111149
68484.6
65525.9
77740.8
70933.5
87079
90350.4
62320.7
343860
78695.4
80201.1
138224
83532.5
195123
81392.7
114464
113795
175558
65664.5
78727.4
81932
65081.5
80085.9
79028.2
67377.2
60748.6
579514
96579.5
75156.7
73618.4
88814.6
69137.5
68879.1
65267.1
328650
64270.6
82973
83848
86329.6
54413.9
551395
75420.4
71069.8
163341
71679.4
82748.4
505546
320814
316379
85363.8
86496.4
446751
125213
137188
70239.8
216319
181781
134302
117406
334595
201502
390229
279759
375202
230659
100189
88490.7
51146.2
58953
417837
62314.8
76558.7
75017.7
79108.2
74085.4
67657.9
128674
133223
71554.4
137477
13082.6
1824.42
134811
83559.5
53852.7
363179
82429.5
119968
68619.5
68544.6
70440.4
65265.3
67567.6
96584
103593
64468.9
81986.1
91506
79789.9
74450.7
90236.3
316019
264856
59029.4
120363
109821
579271
190632
120902
225049
277454
111670
339517
107384
92911.2
179008
209578
261069
326345
114025
91015
121759
107758
78445
204658
58951.4
306065
300186
563073
75940.4
125714
267042
78299.9
118648
48931.3
57813.1
328118
65418.9
71214.9
174765
212711
503762
71733.5
84647.6
99592.2
70648.6
81523.2
77172.3
184623
132151
91734
83443.8
86723.6
82009
433981
127649
124248
327487
319329
76345.5
72732.1
81778.8
75192.3
156675
149846
303202
349836
137382
160949
199520
250019
88189.3
106530
95057
101215
263661
213982
177833
152898
86243
89029
94435
95641.8
74789.3
85892
255219
505934
70396.7
83751.5
73081.5
155854
137467
118139
98567.7
90740.5
72815.7
75184.2
695462
64353.5
80508.7
203863
442024
367847
82298.7
101042
86605.8
38465.2
74591.5
369534
143730
519219
71012.3
76033.8
275815
426309
80710.5
141060
168749
121699
551560
128622
75302.8
76163.2
151684
84317.6
70211.8
154267
199654
137393
135220
121068
76505.5
107313
148934
125018
108640
119453
584658
461832
114730
73876.6
487844
69993.8
78054.7
83516
85914.2
90396.9
175222
179929
73432.1
74623.3