/*--------------------------------*- C++ -*----------------------------------*\
| =========                 |                                                 |
| \\      /  F ield         | OpenFOAM: The Open Source CFD Toolbox           |
|  \\    /   O peration     | Version:  2.3.1                                 |
|   \\  /    A nd           | Web:      www.OpenFOAM.org                      |
|    \\/     M anipulation  |                                                 |
\*---------------------------------------------------------------------------*/
FoamFile
{
    version     2.0;
    format      ascii;
    class       volScalarField;
    location    "5400";
    object      sigmaEq;
}
// * * * * * * * * * * * * * * * * * * * * * * * * * * * * * * * * * * * * * //

dimensions      [1 -1 -2 0 0 0 0];

internalField   nonuniform List<scalar> 
11800
(
200489
136202
691033
585252
132318
405731
182657
202059
222027
234873
200451
839431
105187
623372
527149
2.27864e+06
138973
142050
263428
161087
464199
756867
982166
880575
1.86905e+06
1.16218e+06
1.23074e+06
611603
1.33752e+06
1.44522e+06
404267
128243
1.1689e+06
140950
148607
387817
151443
1.24683e+06
151796
168604
1.27551e+06
1.38645e+06
642274
1.4994e+06
426620
2.13367e+06
943609
1.10155e+06
185509
284885
882865
621903
146624
243463
2.43163e+06
1.97816e+06
73898.2
571445
446742
424489
1.97959e+06
163376
452927
372084
1.83288e+06
276521
908408
644481
73362.9
1.07547e+06
149768
125061
121027
1.87565e+06
1.96066e+06
375252
1.91913e+06
262936
206309
208956
2.47091e+06
140914
131588
133376
137827
1.39362e+06
435116
1.28715e+06
1.18247e+06
638834
145843
1.39209e+06
171541
70151.9
216566
179395
23278.9
179559
148599
738384
81589.9
815103
1.32076e+06
451899
158455
386185
210203
178636
1.93773e+06
1.30095e+06
1.40802e+06
1.19508e+06
441270
647513
262384
1.74917e+06
256339
158445
1.64209e+06
241227
233330
184201
209105
157613
169043
145191
148455
148455
105809
29957.2
2.20693e+06
1.48054e+06
473029
1.39763e+06
681787
1.28906e+06
1.18259e+06
412088
1.19631e+06
589512
1.10343e+06
1.01244e+06
594641
224490
287100
392292
1.45605e+06
1.48915e+06
849856
435926
237095
229264
148157
305553
280227
212945
562144
775867
1.53487e+06
154786
2.22666e+06
268122
1.95428e+06
564248
612687
661316
335061
249126
2.39127e+06
1.50322e+06
538130
742795
172504
440959
438365
2.13591e+06
2.15893e+06
1.15116e+06
1.05816e+06
1.24606e+06
563682
384126
294230
233799
532981
251742
387336
169935
197737
180468
278702
260628
249289
220725
1.1027e+06
1.39809e+06
1.94967e+06
132962
260648
2.29788e+06
155067
339031
379939
152666
158400
1.01108e+06
844261
778017
644025
2.20707e+06
680507
1.00647e+06
3.00036e+06
2.53683e+06
2.54473e+06
393603
142912
980108
900688
828855
308048
447051
141449
143634
258741
155340
1.45214e+06
292686
157287
552572
245751
197909
152849
782133
798811
2.99965e+06
1.45174e+06
259118
270806
1.37053e+06
1.12354e+06
384224
563218
1.24281e+06
1.15079e+06
1.05776e+06
157923
1.34292e+06
474011
654655
612503
174233
134443
478985
427478
158291
2.54446e+06
333186
385151
271640
314441
832736
904977
977271
444862
309896
149756
1.94518e+06
177718
85272.8
147446
488233
180020
641827
2.25975e+06
460712
456754
691665
500134
576125
418532
1.41552e+06
1.18318e+06
378156
474994
298395
360798
649640
854542
301346
1.3776e+06
1.47736e+06
1.77492e+06
192907
454915
452081
2.06671e+06
2.08579e+06
1.26093e+06
1.24086e+06
1.28398e+06
1.27061e+06
145224
99654.9
342008
2.65621e+06
131186
138057
352937
285994
311715
1.09849e+06
1.12788e+06
1.84843e+06
2.54542e+06
798711
208681
1.04897e+06
868666
603221
492901
181197
194416
301540
538160
281137
499049
141327
188373
179154
156734
1.46485e+06
180744
138068
2.12481e+06
364759
826929
927863
903465
1.14253e+06
1.09947e+06
109686
108340
740601
971558
669045
1.73066e+06
132161
970027
752847
494825
372585
367700
281464
375289
323288
427539
467887
503365
176023
148809
917559
973129
202746
259114
532214
454802
510866
229127
213546
268634
274769
1.049e+06
511266
374367
399079
1.2799e+06
1.48256e+06
383079
223445
209065
290636
268720
514256
596337
487993
572140
450927
528697
399579
380102
756700
387614
849428
1.46749e+06
743348
543651
2.33168e+06
144977
1.54056e+06
763790
553782
2.27566e+06
158529
1.57494e+06
389707
1.31793e+06
1.2168e+06
1.18622e+06
213464
99017.2
131162
2.69423e+06
2.33212e+06
1.04786e+06
375735
512699
199558
273996
307466
163582
226696
1.78938e+06
71895.7
650885
500392
1.9706e+06
114521
193932
164376
161794
163169
162494
1.97016e+06
666059
262964
779150
718685
661485
131236
1.49797e+06
493696
693276
184987
979363
210934
1.90005e+06
146029
218796
563687
520713
479686
994449
264163
556798
484936
259601
781732
850237
920135
445950
317216
72572.3
192294
215644
2.44988e+06
859592
677594
486373
399989
205407
161692
118630
117771
209143
105557
123195
130190
183190
364245
159683
204818
663472
816788
382428
1.74284e+06
229671
413179
166342
202943
1.69466e+06
2.23439e+06
710490
771161
273327
242223
127321
1.48232e+06
2.17585e+06
1.92035e+06
2.76878e+06
917978
640751
836800
134609
204538
185796
211356
833842
153755
151895
135399
202346
1.48222e+06
333610
1.52229e+06
879093
189576
244344
1.20875e+06
1.55997e+06
828490
900310
969431
438862
305249
754321
151099
153205
149321
171815
134534
206254
104442
200210
103918
197849
89607.1
191565
175411
182334
122305
1.69511e+06
255884
283174
632367
1.00113e+06
136361
162157
142998
140285
123339
331532
483607
134553
133976
654255
128669
195942
1.84293e+06
87466
178422
587653
541296
565585
612688
628665
661472
310667
229335
2.14525e+06
2.63435e+06
560388
90646.3
395117
371929
425513
300118
906969
839144
772190
188088
91077.1
880897
819403
363815
405257
198829
703800
763290
258269
1.24323e+06
1.26156e+06
1.27614e+06
1.26261e+06
2.11887e+06
2.07333e+06
656690
2.51849e+06
925839
146848
1.75316e+06
1.57063e+06
1.70674e+06
875010
352617
380976
201408
1.8079e+06
601721
758065
2.66698e+06
233654
294159
585264
576878
1.50346e+06
786991
2.23803e+06
145598
143991
304715
440734
976602
898399
826776
2.02946e+06
164230
449407
964159
1.4429e+06
142100
2.38293e+06
2.22826e+06
2.31803e+06
268960
365929
138468
2.37015e+06
690034
274062
473280
2.23616e+06
158024
275490
292096
151364
540129
335739
2.69606e+06
2.38185e+06
223652
673498
861551
330614
393621
289819
252425
710807
206305
678613
500105
1.27849e+06
1.11151e+06
186232
1.45016e+06
149677
460162
568452
1.92297e+06
367201
498729
275518
222477
208958
245758
472312
1.10613e+06
1.21801e+06
153939
145687
148684
200062
391259
1.47001e+06
122796
512111
928053
724165
255311
1.23148e+06
1.36168e+06
886231
1.4796e+06
1.60092e+06
666458
434991
175585
214351
410081
436864
381660
423735
211045
391781
456157
262886
151148
2.75556e+06
1.18922e+06
447983
608562
552869
266802
484264
710155
1.51979e+06
1.40286e+06
1.28765e+06
395239
467912
218136
238253
1.72259e+06
1.25545e+06
1.46912e+06
163174
223879
323509
777479
1.70447e+06
548971
106835
163479
2.48968e+06
2.33907e+06
280593
2.14105e+06
119126
175632
127367
823958
138123
246214
273303
1.5437e+06
1.67762e+06
1.81369e+06
1.95286e+06
891849
757304
629165
494449
213036
144357
487043
2.39074e+06
152732
148209
167504
157126
168731
175805
181207
1.84943e+06
932475
961303
567185
1.04734e+06
1.13569e+06
398633
1.32352e+06
316979
257108
160579
2.46287e+06
150946
187636
180839
189006
152144
2.23963e+06
320075
312451
1.19694e+06
399404
841521
296842
2.27956e+06
1.01192e+06
508093
375994
1.54714e+06
561858
208514
174704
154269
145717
264004
290138
278547
203183
548714
166920
147273
998185
1.11382e+06
125781
707334
1.01861e+06
862918
1.17184e+06
2.17763e+06
2.01809e+06
1.85909e+06
1.69848e+06
707545
863046
2.17799e+06
2.01872e+06
1.01874e+06
1.8597e+06
1.17229e+06
1.70011e+06
1.93835e+06
169272
144188
157844
281226
612259
1.33389e+06
149642
510777
702655
552432
763574
218493
285963
512257
750701
1.59449e+06
1.4716e+06
1.35024e+06
641057
474070
1.19468e+06
237846
304554
185025
392285
364986
332302
688443
536144
551099
408405
140639
814688
222037
421517
517462
1.27786e+06
697865
816448
653929
237337
310730
209629
182881
171053
202871
726153
611125
155590
247224
271873
564108
1.67018e+06
549957
773771
572032
173265
258558
242947
224204
306232
217961
741131
684138
624986
240089
1.77142e+06
848673
240469
1.0913e+06
737877
1.5975e+06
2.15184e+06
265522
296789
249992
162024
176601
901069
767050
2.24461e+06
145828
208066
419495
621869
265725
150656
910136
901119
62162.5
149937
432773
352515
95504.8
1.97302e+06
2.1531e+06
359111
130073
320780
457414
979579
831792
904401
2.45507e+06
145717
712098
802780
186052
734467
896459
1.05997e+06
1.21942e+06
2.28008e+06
2.11443e+06
1.94822e+06
1.78087e+06
733996
896528
2.2794e+06
2.11304e+06
1.05891e+06
1.947e+06
1.21937e+06
1.78044e+06
2.10283e+06
1.80826e+06
1.36254e+06
584602
667101
1.80957e+06
1.34088e+06
402352
128131
122694
1.34066e+06
2.39421e+06
180132
500012
1.96167e+06
1.34163e+06
2.15214e+06
2.19847e+06
1.44383e+06
1.44574e+06
661290
522953
684582
277703
208412
360922
175290
216575
270376
222853
499668
2.31924e+06
683183
224922
134982
436148
467405
2.11111e+06
440898
399066
509305
540262
1.37464e+06
656982
473184
1.75257e+06
503660
657322
232868
188162
451737
391119
421445
1.04331e+06
684080
664960
1.60555e+06
1.53523e+06
655871
694004
1.20692e+06
1.29597e+06
486665
512124
149651
213008
222882
666090
518600
88880.7
185061
213447
771384
732635
401233
779560
602112
237537
143876
143690
602164
1.45893e+06
139555
2.1521e+06
311824
882795
812125
246911
309808
524508
164625
138022
1.8488e+06
469942
1.20861e+06
1.11728e+06
1.02733e+06
374969
548104
187083
1.66379e+06
2.21544e+06
196781
158657
1.2186e+06
448240
613258
1.05901e+06
1.15139e+06
1.25804e+06
377518
551484
68572.3
883630
466484
2.21003e+06
362986
1.27021e+06
1.06228e+06
1.19277e+06
152011
156558
161573
171660
174052
150141
1.83042e+06
572389
212583
243621
273025
306777
386088
427552
876479
847294
810721
781512
719738
745402
1.25695e+06
189398
152136
146308
205961
233049
164959
187500
1.49938e+06
309791
565169
485975
1.24856e+06
659973
229099
238822
543500
420265
750721
613564
1.50083e+06
1.31946e+06
1.21902e+06
1.11947e+06
622802
1.72717e+06
860779
1.7081e+06
302540
250261
326210
315282
216858
194296
216710
1.74219e+06
2.24613e+06
406336
126688
301368
682030
530691
146676
170297
288252
273493
290526
266878
356489
334490
249351
578011
641168
624509
692463
531233
589882
643044
141635
1.42942e+06
1.13693e+06
600960
1.4212e+06
1.33444e+06
780992
2.2476e+06
427031
405692
459870
491648
226073
182300
194692
426153
160644
1.8943e+06
241220
153361
954357
66165.3
126400
1.86925e+06
212666
491730
1.56124e+06
722979
1.44163e+06
1.32351e+06
1.68497e+06
1.11879e+06
184874
724535
579082
236092
1.6093e+06
740214
233737
1.35582e+06
1.23732e+06
1.47297e+06
147139
150206
186267
2.71665e+06
326138
515157
630309
283994
154195
153770
491986
531531
203342
1.86924e+06
504110
1.91377e+06
290549
935513
151504
763749
912604
1.20273e+06
485283
654610
783280
311598
2.6841e+06
186399
129896
159193
2.28572e+06
1.49426e+06
380208
561417
1.26718e+06
1.17499e+06
1.08056e+06
2.35281e+06
727525
588244
2.33871e+06
2.64457e+06
1.82889e+06
85438.2
628361
1.56441e+06
1.17974e+06
644601
478912
1.1928e+06
1.06412e+06
487883
1.6047e+06
388327
312677
604895
534372
403361
1.84371e+06
2.80774e+06
135783
148537
178553
2.67521e+06
180066
215097
838169
646466
2.36497e+06
2.47754e+06
146899
705344
240192
228929
584231
248753
150405
630185
140645
158698
2.8254e+06
1.24075e+06
690746
514613
462680
329353
943207
871476
800762
234801
2.50785e+06
491576
446338
514493
2.09911e+06
860117
1.26875e+06
170882
269560
202445
940820
585954
781037
135292
333190
455260
959837
338267
209672
177983
357185
2.33904e+06
342161
463643
952054
1.50962e+06
2.13391e+06
1.45207e+06
991962
791578
936862
94229.4
270153
380003
814850
753056
693995
2.13486e+06
164812
220090
235882
235167
236175
227081
340579
149250
150773
769633
1.94147e+06
556726
1.22899e+06
1.13574e+06
1.0443e+06
381040
2.19198e+06
709568
810156
970642
837130
1.34817e+06
2.14654e+06
642244
162320
819842
127025
1.02153e+06
614503
1.11337e+06
1.20776e+06
434184
1.39875e+06
344917
2.8901e+06
993159
152631
2.00448e+06
2.89935e+06
2.49615e+06
592136
145907
1.12451e+06
185909
176929
125070
309907
163906
170190
144855
155049
1.8195e+06
1.91008e+06
153981
1.24335e+06
198069
188454
149440
260774
1.32584e+06
1.33054e+06
301249
1.34937e+06
1.35124e+06
1.71524e+06
563041
208273
265068
363586
729011
790411
265228
70379.9
176888
849899
410940
1.00941e+06
1.13627e+06
1.24009e+06
1.34604e+06
693622
488615
354397
195766
167374
2.16499e+06
1.19833e+06
138033
247531
1.07615e+06
835251
455236
492886
219081
197733
367176
325783
123814
250897
167093
1.81898e+06
721025
1.74579e+06
161570
144135
2.89917e+06
143946
2.25165e+06
2.22615e+06
155020
1.04305e+06
528633
1.77997e+06
168413
991986
1.11775e+06
2.43132e+06
274711
167907
139497
551125
260036
358127
729842
669224
616178
178251
134770
205621
195945
1.29434e+06
1.42551e+06
972201
1.66008e+06
1.52729e+06
1.76032e+06
2.4932e+06
315550
794873
2.374e+06
690868
2.22054e+06
1.0742e+06
1.16805e+06
1.26415e+06
560787
379261
467238
544752
2.0499e+06
180107
215020
324268
307036
286635
202978
428182
395815
369952
903194
948035
2.74757e+06
307856
134429
188458
2.16405e+06
619408
339791
328532
2.1108e+06
1.11969e+06
773382
116121
222927
140420
1.10503e+06
1.4075e+06
352607
1.57579e+06
213742
207065
2.82398e+06
1.84778e+06
2.26109e+06
445230
593607
1.0345e+06
318150
819805
2.36608e+06
2.4857e+06
208040
239358
407434
330831
1.19246e+06
1.33253e+06
914033
1.02976e+06
2.6323e+06
2.41431e+06
308728
200945
115295
1.73029e+06
137289
2.28421e+06
447610
347982
1.22853e+06
395812
157251
2.11197e+06
236475
314555
116402
136108
1.56828e+06
549517
157814
858815
408787
224158
160979
140150
802783
143012
2.16446e+06
1.93517e+06
358823
977701
555437
157632
176521
1.66446e+06
198815
1.12546e+06
287494
622622
1.32041e+06
1.50526e+06
2.06893e+06
219806
349487
2.2466e+06
280070
172027
165449
191485
141055
2.29432e+06
1.80185e+06
418108
578208
994501
1.00299e+06
1.30122e+06
460923
634646
455801
663281
1.41301e+06
1.30525e+06
1.19837e+06
1.86288e+06
884637
631316
1.77872e+06
633092
1.93524e+06
728253
816953
2.14383e+06
2.89226e+06
2.48526e+06
495921
465566
1.34678e+06
647338
468124
147545
400301
2.0537e+06
170006
201479
2.63431e+06
1.96983e+06
2.25718e+06
1.06402e+06
1.31936e+06
1.32944e+06
1.14862e+06
135258
127889
195215
131189
817647
888769
964105
452360
315869
690502
2.28959e+06
168919
227316
191290
175688
1.20237e+06
1.08637e+06
211620
2.04015e+06
2.30164e+06
1.38659e+06
1.13409e+06
1.85562e+06
2.13755e+06
129980
1.02352e+06
649017
1.43068e+06
187211
307212
328580
1.83909e+06
1.83194e+06
839020
428881
122659
149298
266366
562615
1.91784e+06
253064
1.47777e+06
173007
430768
288026
387183
663327
341657
518792
50470.2
14573.1
518607
2.70952e+06
236850
192038
191607
145841
132718
203883
210227
149012
149466
614243
147990
162356
205222
1.15699e+06
1.42542e+06
1.02797e+06
1.89235e+06
2.41532e+06
161862
230049
447084
191223
1.74184e+06
237773
2.53661e+06
272415
356709
691090
513891
269356
279381
650068
140169
166652
216944
135132
209185
132883
2.26554e+06
117936
176193
331717
131848
98647
2.14939e+06
240911
1.8624e+06
1.98831e+06
719487
459195
379259
553567
1.24211e+06
1.15936e+06
1.06629e+06
143911
1.36504e+06
701333
139683
2.29945e+06
148933
157365
434255
1.2656e+06
1.03013e+06
1.14131e+06
1.5541e+06
220836
164421
487007
722113
1.57264e+06
839359
1.69595e+06
603643
1.45251e+06
1.33362e+06
480824
1.67977e+06
598296
1.55163e+06
710549
1.43325e+06
1.31601e+06
829404
1.66917e+06
209274
705892
552805
169783
217589
1.88097e+06
1.19505e+06
1.6165e+06
1.50451e+06
1.31255e+06
1.62319e+06
1.20038e+06
454676
498018
738546
1.77821e+06
162853
2.59087e+06
202418
163094
1.95204e+06
232973
371568
725910
716095
2.14145e+06
120980
1.36906e+06
1.26558e+06
1.16269e+06
422620
622913
2.63065e+06
445948
339512
788123
200243
825374
381310
393941
135202
227101
235944
205223
634310
132026
775266
413771
313619
1.06449e+06
1.41802e+06
1.42274e+06
1.06416e+06
519248
2.49034e+06
147312
148636
2.22168e+06
2.00228e+06
1.219e+06
2.8878e+06
1.32075e+06
1.1405e+06
1.16127e+06
2.56474e+06
1.30527e+06
1.0469e+06
2.27938e+06
488089
518094
779257
2.01158e+06
117917
1.70372e+06
201799
297428
475280
794629
864971
937051
460868
326902
515346
82820.3
88947.2
163077
176164
245591
202471
161124
216024
1.29052e+06
2.33572e+06
280504
204004
2.15051e+06
1.58382e+06
627190
851859
165875
173245
1.87611e+06
1.23724e+06
259891
992658
931523
1.23681e+06
143837
163663
168005
145053
1.47584e+06
2.37447e+06
2.31297e+06
1.57413e+06
2.50152e+06
320186
132010
419056
1.27398e+06
1.17037e+06
1.37907e+06
628867
425890
2.66347e+06
588589
745512
975190
315802
265196
1.10699e+06
388656
199656
842652
322083
420262
2.4572e+06
427508
378986
1.32901e+06
1.22827e+06
1.13026e+06
568948
1.6818e+06
1.5853e+06
2.08284e+06
649323
669932
867605
1.78012e+06
855541
613137
1.58349e+06
307149
2.89929e+06
186631
2.21163e+06
593703
678135
161243
723608
1.39147e+06
162861
189414
187393
2.55737e+06
765080
703054
827150
409684
294281
368970
746843
1.6697e+06
755498
1.46742e+06
1.72563e+06
1.59656e+06
502862
1.62674e+06
1.23982e+06
1.31127e+06
1.55259e+06
1.63106e+06
1.24143e+06
1.32211e+06
1.56075e+06
899568
744522
56919.3
355052
214426
515424
761831
632578
883271
1.76684e+06
1.64044e+06
1.51483e+06
1.39052e+06
510374
1.40817e+06
703149
186286
125618
130544
231317
120727
604357
1.44273e+06
1.47114e+06
522271
2.4124e+06
189556
172686
1.87404e+06
2.32176e+06
105549
1.49159e+06
590162
800631
1.11912e+06
606352
397881
168263
591195
828214
71284.6
152034
2.43933e+06
322073
238619
593010
546583
642031
408846
148816
155924
414786
1.45787e+06
2.24867e+06
2.60363e+06
407102
453174
1.89764e+06
1.71068e+06
2.22148e+06
125375
1.2273e+06
2.16614e+06
2.6203e+06
2.70142e+06
2.64961e+06
701787
1.21671e+06
524296
2.5082e+06
1.90908e+06
784579
1.63516e+06
177872
153356
1.9469e+06
1.94856e+06
153762
522402
2.40384e+06
2.02684e+06
1.92999e+06
1.99759e+06
2.71269e+06
1.84404e+06
2.41559e+06
2.07944e+06
177403
329726
1.5393e+06
714496
1.25586e+06
263816
173056
218494
201963
177863
243347
214456
528183
2.42445e+06
1.47332e+06
522013
722672
1.57486e+06
199982
729280
505680
2.77205e+06
392102
382104
695432
401268
645797
286453
219737
2.25684e+06
18546.3
180938
180834
37235.7
571984
599544
213176
234378
249137
169105
630883
631718
146938
2.42284e+06
2.06332e+06
756779
1.57284e+06
543315
141133
1.83547e+06
406827
2.40405e+06
676263
826094
978641
1.12804e+06
2.12694e+06
1.97366e+06
1.81901e+06
1.66559e+06
675124
825527
2.12374e+06
1.96995e+06
976676
1.8156e+06
1.12636e+06
1.66239e+06
372223
282624
687199
752693
666429
314311
252625
213066
167901
155727
182665
149162
159314
275035
1.12776e+06
1.21025e+06
1.10126e+06
615847
1.19907e+06
1.32111e+06
2.02508e+06
863864
696861
2.13443e+06
712245
242546
153668
209325
165953
336246
310059
314387
158222
450301
356452
473046
970021
157568
248630
1.12753e+06
175180
122375
155425
134048
1.70906e+06
193945
224744
811856
647498
306271
807690
248912
150047
136367
2.52873e+06
2.61868e+06
1.61329e+06
1.32305e+06
1.29161e+06
1.64204e+06
2.5759e+06
1.33709e+06
143661
862525
483394
367631
534078
253210
2.42179e+06
267668
1.44994e+06
1.34194e+06
1.23328e+06
650653
439878
757476
444909
337127
2.44629e+06
282851
143910
802136
801857
368078
225555
278560
477185
970931
1.84423e+06
782478
626401
1.12654e+06
1.5064e+06
414355
606827
1.3087e+06
1.20807e+06
1.10952e+06
626528
673625
1.07999e+06
902437
1.26635e+06
672187
1.38948e+06
1.50921e+06
437059
1.63243e+06
2.89632e+06
2.03637e+06
126083
999141
1.08903e+06
1.1823e+06
358881
237320
1.76184e+06
306273
402614
495304
547361
232368
296352
234791
184461
1.70493e+06
1.31388e+06
1.37709e+06
1.64948e+06
374161
2.03617e+06
2.52404e+06
933459
159307
980440
1.06802e+06
1.15976e+06
1.08008e+06
1.24603e+06
351360
1.9993e+06
874530
821908
754703
889815
319061
446757
254829
234465
558007
655366
605189
696076
758453
821230
505289
501926
723584
726341
1.46568e+06
1.45892e+06
1.2397e+06
1.35161e+06
1.23338e+06
1.34508e+06
729445
792099
278186
169282
194324
235872
1.43498e+06
939102
153178
1.49399e+06
1.24063e+06
1.19111e+06
1.53935e+06
237975
534109
1.91368e+06
813304
1.76969e+06
1.62757e+06
124704
315408
1.31343e+06
787000
554805
1.7466e+06
604759
77083.4
1.34713e+06
1.23809e+06
1.45852e+06
655314
441914
1.77476e+06
696953
563262
2.37271e+06
701802
993329
236123
162116
398431
372623
341415
2.02528e+06
505418
331682
576368
531337
621565
311981
234374
1.33388e+06
1.4931e+06
236213
861593
179017
1.14341e+06
2.29632e+06
1.43527e+06
719507
536853
1.27654e+06
655911
582708
481199
313077
190165
480181
234302
590494
234226
394331
160338
184536
2.39709e+06
493045
2.07243e+06
1.20163e+06
1.28892e+06
697514
519042
1.23144e+06
2.18454e+06
135203
164979
167418
158380
432388
41904.2
13851.1
432231
914957
165659
975403
435820
292547
199376
655240
915551
1.90062e+06
144130
110283
195858
232089
503818
325180
1.29433e+06
1.15599e+06
272670
173435
134297
2.43633e+06
914933
147253
351171
169680
2.77215e+06
2.28167e+06
350124
264828
1.01324e+06
486844
693272
1.36093e+06
1.1497e+06
1.25414e+06
2.64018e+06
2.10451e+06
164342
1.96087e+06
2.62757e+06
2.06789e+06
2.30581e+06
985662
197161
1.31578e+06
328478
198997
248642
491904
540680
394999
394384
890355
288812
190757
139510
1.29072e+06
1.60413e+06
1.74276e+06
1.88349e+06
2.01013e+06
909730
774647
638726
500961
316403
134889
614005
28380.1
299522
299398
15391.7
669289
334460
262957
94451.4
422848
477419
149994
420437
1.25754e+06
1.01998e+06
703362
496512
565342
2.42501e+06
1.84762e+06
250213
794176
150051
163374
690942
813592
827801
1.63406e+06
486267
531159
156929
2.19122e+06
169579
385563
448494
418154
1.61344e+06
1.75273e+06
913530
952607
952299
691534
884698
1.63965e+06
1.56151e+06
1.56376e+06
545155
756953
129422
141929
133071
337465
154830
717042
1.538e+06
1.36462e+06
1.67167e+06
1.22267e+06
1.68126e+06
1.22122e+06
828230
538451
1.47442e+06
1.0802e+06
1.47415e+06
1.08384e+06
349858
1.60879e+06
1.36549e+06
1.19748e+06
1.55936e+06
1.37987e+06
1.70133e+06
1.23855e+06
1.69898e+06
1.23783e+06
1.52067e+06
2.77975e+06
622060
872572
1.83182e+06
666005
161033
167910
278358
27583.1
278233
24363.7
153224
524376
1.62729e+06
1.49512e+06
1.76083e+06
784850
543381
2.47629e+06
77398.3
145598
303096
1.0518e+06
357651
985448
486406
2.5095e+06
2.53133e+06
1.50417e+06
179812
322267
1.72774e+06
929557
744485
492121
919748
844960
995408
345276
487112
2.56568e+06
603106
2.28875e+06
155781
150764
143936
154232
100548
2.26321e+06
181897
1.67576e+06
97517.1
1.22737e+06
1.53815e+06
186072
152767
234109
701109
243512
596719
549771
401444
434578
469129
193742
437001
589824
732907
491242
1.65028e+06
1.52689e+06
1.40306e+06
1.69572e+06
2.26323e+06
2.49529e+06
142026
138342
138554
152290
336489
197382
364389
2.5122e+06
2.55953e+06
2.59237e+06
1.9548e+06
77369.2
1.33721e+06
2.35477e+06
1.63535e+06
1.29362e+06
1.31768e+06
1.61333e+06
779554
680590
1.40224e+06
934139
1.63682e+06
112038
293529
381872
734952
303586
299183
339019
225971
259062
189688
220304
517746
518247
561621
561967
607526
604884
710756
698015
158493
155659
677248
434074
119126
252698
962012
1.63787e+06
160240
997549
2.15389e+06
672997
2.05298e+06
950512
256087
1.88703e+06
1.02371e+06
860599
1.36486e+06
2.29745e+06
2.70778e+06
1.06e+06
462579
2.27542e+06
329650
236436
200797
498800
105403
954752
1.68066e+06
441412
663129
265646
149253
287760
2.45072e+06
446853
524726
507079
371036
1.05798e+06
331602
263130
1.04063e+06
231707
2.2485e+06
169724
1.33183e+06
498152
541899
2.09058e+06
1.79402e+06
1.09044e+06
1.95297e+06
2.1132e+06
934803
2.27423e+06
778785
622384
1.7971e+06
1.95615e+06
2.28018e+06
2.11699e+06
624495
937178
1.09364e+06
781186
2.26216e+06
223322
1.77584e+06
189400
124098
163557
10205.2
77698.7
978275
104547
1.70726e+06
357686
262915
675568
729335
622439
506079
339095
1.5083e+06
337731
364850
1.35262e+06
108079
533922
496274
494510
1.56333e+06
1.43679e+06
1.69109e+06
745570
615829
260796
453434
900239
1.70689e+06
75527.7
442689
257311
164189
563390
1.79382e+06
1.02621e+06
876786
1.89792e+06
206982
1.04831e+06
2.22466e+06
1.13063e+06
2.09244e+06
183276
2.36421e+06
276408
1.57528e+06
570163
703601
155450
17947.2
179739
179593
30653.5
302058
1.5928e+06
229890
1.98362e+06
890807
327564
1.55028e+06
1.48868e+06
1.68999e+06
1.62314e+06
1.83106e+06
1.759e+06
858831
830446
584430
565960
649167
436690
1.45824e+06
1.34991e+06
1.24057e+06
388369
452146
418739
201780
1.37743e+06
1.20609e+06
98068
231840
169603
191529
201883
2.27078e+06
1.91564e+06
507804
1.66603e+06
1.53235e+06
1.79964e+06
133783
829809
1.54147e+06
1.61591e+06
152917
142807
1.83433e+06
576182
191567
343275
399453
370902
209723
638974
591445
547485
2.15151e+06
2.77462e+06
2.0561e+06
1.4756e+06
726670
523842
218205
237905
359467
256356
153301
134114
273136
790766
632933
155811
1.67219e+06
1.94481e+06
825865
708518
200994
193157
167425
181024
543380
1.83404e+06
1.46211e+06
1.13121e+06
1.16378e+06
1.38777e+06
147036
170331
254904
148841
154270
360148
2.86516e+06
2.27677e+06
175156
214623
993826
857633
595078
1.84067e+06
1.9799e+06
1.55903e+06
1.69917e+06
982929
518919
445810
482347
217509
277995
2.10556e+06
572135
1.34838e+06
93290.6
1.94458e+06
175068
783439
911451
2.86509e+06
151225
808986
183971
756886
198855
476999
1.44144e+06
668313
1.67315e+06
1.09029e+06
1.82522e+06
1.97839e+06
941951
2.13228e+06
792230
643277
792171
643864
306023
939881
1.06104e+06
1.39035e+06
159616
263681
1.68425e+06
725951
2.63689e+06
2.1351e+06
2.39339e+06
428877
1.88607e+06
876557
689864
337808
256684
2.58929e+06
1.33166e+06
153920
2.79948e+06
2.3781e+06
80893.7
834289
680779
103950
1.06862e+06
874972
119066
223024
1.79203e+06
2.69052e+06
155869
967694
992739
1.96916e+06
1.90746e+06
701761
719090
701703
717496
163893
164246
164193
154071
127736
2.75436e+06
2.16303e+06
1.93949e+06
2.44809e+06
931263
503466
2.02245e+06
1.14305e+06
1.24698e+06
1.35358e+06
80173.2
2.0516e+06
362263
1.54349e+06
2.18937e+06
653065
463786
2.79735e+06
763636
801548
560250
590382
1.49826e+06
1.44721e+06
243292
236778
128686
153877
488758
1.77404e+06
1.64039e+06
1.50908e+06
746824
2.75344e+06
160118
338751
146901
1.49135e+06
1.62534e+06
955824
1.76046e+06
816813
1.91257e+06
690479
1.82026e+06
1.54177e+06
1.68036e+06
1.95885e+06
553415
981406
846557
690425
149221
216789
232244
305882
579810
492205
533725
2.29386e+06
1.08124e+06
1.31868e+06
2.10574e+06
243555
382571
154965
596545
837643
285589
402069
2.11964e+06
227286
146665
148249
151308
146668
91083.3
239746
186860
201747
1.84122e+06
2.17125e+06
183316
159961
207299
361388
794490
2.33592e+06
2.17881e+06
959478
155365
239471
1.87198e+06
159612
159847
2.8357e+06
1.10762e+06
2.1523e+06
614346
1.46199e+06
936202
908599
246674
1.00763e+06
1.55526e+06
755793
543327
208356
481153
155420
127282
140228
2.2984e+06
1.38695e+06
1.41544e+06
2.29599e+06
356024
382003
194171
726630
170379
153527
162798
462337
357683
36454.7
357572
24949.8
150716
1.42791e+06
436014
633948
1.33931e+06
1.23675e+06
1.13526e+06
222703
2.62588e+06
855686
507063
2.27272e+06
1.37054e+06
1.42225e+06
229733
22589.8
229601
23747.7
2.00145e+06
482320
845987
998959
922048
180658
2.12316e+06
509443
363512
1.17421e+06
902651
145493
48588.6
1.56734e+06
328969
1.56037e+06
404315
539467
988431
1.11069e+06
933812
197833
807350
330552
429260
199904
214612
765710
798742
264732
487327
164474
165844
1.28605e+06
647588
474115
172000
673139
17439
65293.2
672912
861242
695859
1.03237e+06
1.22508e+06
134980
2.60617e+06
2.70949e+06
343866
155265
173249
284163
311087
32196.5
311000
27733.1
1.38578e+06
476588
662186
2.52473e+06
2.56322e+06
2.19393e+06
1.97263e+06
1.20309e+06
1.06664e+06
1.02135e+06
905394
2.13638e+06
310014
617128
215982
136172
153535
448778
630477
903430
2.50283e+06
2.52348e+06
315965
166333
834027
905549
301576
1.37517e+06
566837
461727
1.97909e+06
190588
171922
238131
1.35568e+06
1.36614e+06
1.44018e+06
913609
456522
639080
98254.1
101254
1.54384e+06
157775
1.37685e+06
179102
682288
1.11009e+06
972927
1.60513e+06
1.87767e+06
156786
215830
513507
2.2328e+06
10626
131374
38971.2
132114
360950
327128
98595.7
2.38823e+06
42553.2
2.26044e+06
588502
57071.9
18396.1
588307
393241
191255
22037.2
191279
500431
2.16668e+06
504957
2.35252e+06
2.72175e+06
78447.4
794703
937423
865663
1.11621e+06
538268
391021
1.19375e+06
741162
129911
291726
470986
335156
842665
1.1107e+06
308197
309713
2.61464e+06
959827
1.11464e+06
1.03644e+06
1.19684e+06
1.65488e+06
141020
165502
1.38446e+06
1.6793e+06
556336
325372
375466
186382
378383
570337
161773
297696
435526
160919
112783
1.51465e+06
1.76718e+06
348392
772771
601530
615569
1.89367e+06
870737
374399
285085
726869
591840
144525
438927
1.67914e+06
2.16111e+06
586925
407132
1.03587e+06
1.22189e+06
1.12828e+06
92040.1
156157
425582
296973
1.6007e+06
580686
121081
61112.5
96934.6
571164
398299
1.00271e+06
1.18272e+06
1.09219e+06
157917
2.32517e+06
2.65856e+06
173765
182144
173105
168689
2.33458e+06
470747
344489
999727
2.88235e+06
2.31123e+06
668315
225797
612947
566318
343070
320694
365063
198848
170237
173617
501136
2.26078e+06
122899
1.28241e+06
1.38893e+06
2.16955e+06
1.56681e+06
1.52921e+06
588640
580437
794182
806785
359277
411832
351331
153642
148363
934656
301797
2.10848e+06
1.46792e+06
375896
149701
892528
2.68787e+06
146115
1.46832e+06
1.22196e+06
1.16363e+06
1.5165e+06
1.02628e+06
444442
622860
1.36652e+06
234030
997554
432351
485363
245923
489012
307800
400620
1.09867e+06
546438
224310
193449
264382
1.42164e+06
1.16738e+06
247243
235972
219255
253966
154674
746948
575418
134899
543933
157421
311291
503790
2.45994e+06
2.16563e+06
1.46784e+06
435987
304988
975442
905654
833883
391801
387608
189347
1.33023e+06
175362
770023
998826
284594
238130
2.19018e+06
121547
442772
413250
192602
2.31753e+06
119395
149143
665887
784244
229991
218200
241828
170727
159086
1.46851e+06
122456
180814
22496.2
180777
1.46808e+06
1.40589e+06
2.66281e+06
1.57188e+06
1.991e+06
155930
2.05343e+06
1.41408e+06
20349
147712
351942
262552
602733
654499
705057
920099
522699
2.16611e+06
1.28516e+06
1.3913e+06
216270
140094
136496
159371
168861
180056
290001