/*--------------------------------*- C++ -*----------------------------------*\
| =========                 |                                                 |
| \\      /  F ield         | OpenFOAM: The Open Source CFD Toolbox           |
|  \\    /   O peration     | Version:  2.3.1                                 |
|   \\  /    A nd           | Web:      www.OpenFOAM.org                      |
|    \\/     M anipulation  |                                                 |
\*---------------------------------------------------------------------------*/
FoamFile
{
    version     2.0;
    format      ascii;
    class       volVectorField;
    location    "2360";
    object      D;
}
// * * * * * * * * * * * * * * * * * * * * * * * * * * * * * * * * * * * * * //

dimensions      [0 1 0 0 0 0 0];

internalField   nonuniform List<vector> 
11800
(
(7.80905e-06 0.000223554 0)
(-9.89481e-06 0.000248995 0)
(5.50948e-06 7.55343e-05 0)
(-6.29774e-06 0.000102636 0)
(-9.04096e-06 0.000248574 0)
(-4.08449e-06 0.000102836 0)
(-1.5092e-06 0.000167939 0)
(-1.43784e-06 0.000129571 0)
(6.59041e-07 1.99925e-05 0)
(1.1922e-06 7.83363e-05 0)
(8.67205e-06 0.000223027 0)
(-7.85166e-06 8.75372e-05 0)
(-7.79707e-09 -6.20649e-09 0)
(4.89592e-06 7.508e-05 0)
(-5.58715e-06 0.000103067 0)
(5.42378e-06 1.22788e-05 0)
(-8.50085e-07 0.000167452 0)
(-8.24378e-07 0.000129108 0)
(3.70109e-07 2.02134e-05 0)
(7.3286e-07 7.79497e-05 0)
(-4.80482e-06 0.000102459 0)
(-7.19534e-06 8.78835e-05 0)
(-1.19632e-06 4.34853e-06 0)
(-1.27674e-06 4.52802e-06 0)
(4.83623e-06 1.40216e-05 0)
(-1.91125e-06 7.20311e-06 0)
(-7.71192e-06 5.23406e-05 0)
(1.113e-05 0.000150579 0)
(-6.87969e-06 3.97428e-05 0)
(-5.96379e-06 2.86069e-05 0)
(1.17837e-05 0.000190215 0)
(4.82615e-08 3.3874e-06 0)
(2.48172e-06 9.25492e-06 0)
(-6.02162e-06 0.000255496 0)
(4.86075e-06 0.000254348 0)
(-1.34499e-05 0.000203095 0)
(4.52716e-06 0.000255224 0)
(2.44221e-06 9.51451e-06 0)
(-1.47574e-06 0.000177343 0)
(1.19454e-06 8.59943e-05 0)
(-7.5825e-06 5.29249e-05 0)
(-6.77107e-06 4.02644e-05 0)
(1.0873e-05 0.000149721 0)
(-5.87659e-06 2.90647e-05 0)
(1.1522e-05 0.000189313 0)
(5.17329e-06 1.23764e-05 0)
(1.37148e-06 5.14714e-06 0)
(1.5293e-06 5.06527e-06 0)
(-2.31081e-06 0.000177495 0)
(1.86602e-06 8.61147e-05 0)
(-1.27936e-05 0.000131283 0)
(-1.36567e-05 0.000169661 0)
(-1.26908e-06 0.000221175 0)
(6.82068e-08 3.21491e-06 0)
(-6.65388e-06 1.46174e-05 0)
(9.07852e-07 7.59566e-07 0)
(-1.6783e-05 0.000258989 0)
(-4.24097e-06 7.27306e-05 0)
(4.81495e-06 0.000105855 0)
(-3.08529e-06 6.98822e-05 0)
(1.81037e-06 2.417e-06 0)
(-2.17405e-06 0.00022134 0)
(-3.68915e-06 7.25671e-05 0)
(4.19703e-06 0.00010605 0)
(4.52991e-06 1.38079e-05 0)
(-1.60224e-05 0.000229043 0)
(-1.32721e-05 0.000130712 0)
(-1.42158e-05 0.000169035 0)
(-1.59413e-05 0.000258572 0)
(-2.0054e-06 7.43641e-06 0)
(-5.36959e-06 0.000256211 0)
(-9.46822e-06 0.000254829 0)
(-9.74305e-06 0.000253926 0)
(-8.59907e-08 9.71954e-08 0)
(1.93325e-06 2.52053e-06 0)
(-1.26701e-05 0.000203662 0)
(5.92963e-06 1.93545e-05 0)
(-1.62822e-05 0.000229896 0)
(-1.29686e-05 0.000231831 0)
(-1.21171e-05 0.000232603 0)
(-6.34334e-06 1.4418e-05 0)
(9.50185e-07 8.92783e-05 0)
(8.90068e-06 0.000252839 0)
(7.94334e-06 0.000252995 0)
(-1.16515e-06 9.17429e-05 0)
(-5.72898e-06 3.22007e-05 0)
(1.06518e-05 0.000183338 0)
(-6.53359e-06 4.3836e-05 0)
(-7.26934e-06 5.69083e-05 0)
(1.00244e-05 0.000144059 0)
(-3.04637e-07 0.00021641 0)
(2.63866e-06 8.79884e-06 0)
(-8.06115e-06 0.00023332 0)
(1.66253e-05 0.000260965 0)
(2.63085e-06 0.000113032 0)
(-2.07753e-09 -1.57985e-09 0)
(5.36664e-11 -3.35247e-10 0)
(2.0754e-09 -1.57829e-09 0)
(-1.87215e-07 0.000223883 0)
(-7.45409e-06 8.94636e-05 0)
(1.43075e-05 0.000260035 0)
(8.66816e-06 9.8249e-05 0)
(-3.20402e-06 1.28425e-05 0)
(-7.25715e-07 9.92114e-06 0)
(-4.80132e-07 0.000247464 0)
(8.72878e-07 2.091e-05 0)
(-1.84233e-06 0.000127685 0)
(-1.91305e-06 0.000165851 0)
(2.80747e-06 4.81067e-06 0)
(6.57042e-06 4.38161e-05 0)
(5.7628e-06 3.21828e-05 0)
(7.30974e-06 5.68857e-05 0)
(-1.08259e-05 0.00018336 0)
(-1.0191e-05 0.00014409 0)
(1.54304e-06 7.67487e-05 0)
(2.22155e-06 4.38778e-06 0)
(1.58567e-05 0.000229976 0)
(-6.50572e-06 0.000236041 0)
(2.26253e-06 4.22805e-06 0)
(-1.09982e-06 7.93058e-05 0)
(-6.62901e-07 1.94667e-05 0)
(1.43856e-06 0.000169168 0)
(1.3663e-06 0.000130673 0)
(-2.01704e-06 0.000162261 0)
(-8.11364e-06 0.000234196 0)
(-7.23442e-07 0.000223187 0)
(-5.21733e-06 0.000247562 0)
(-1.22443e-06 0.000246891 0)
(-1.80105e-05 0.000267539 0)
(-1.86538e-05 0.000266893 0)
(-5.33481e-07 2.41e-07 0)
(-2.40901e-06 5.6848e-06 0)
(1.09284e-05 0.000177915 0)
(-6.14686e-06 3.51936e-05 0)
(1.02475e-05 0.000138964 0)
(-6.95806e-06 4.7228e-05 0)
(-7.69936e-06 6.0666e-05 0)
(1.00824e-05 0.000178076 0)
(-5.66516e-06 3.50892e-05 0)
(9.45513e-06 0.000139113 0)
(-6.4144e-06 4.71126e-05 0)
(-7.09914e-06 6.05404e-05 0)
(-1.50251e-06 1.80354e-05 0)
(3.53264e-06 0.000172392 0)
(3.29834e-06 0.000133782 0)
(-2.82857e-06 8.18792e-05 0)
(1.36492e-05 8.98311e-05 0)
(-1.35901e-05 8.78822e-05 0)
(8.52603e-06 9.89578e-05 0)
(-1.01529e-06 1.0526e-05 0)
(-8.97126e-06 0.000215416 0)
(-8.89384e-06 0.000216552 0)
(4.35714e-06 0.000252409 0)
(-1.00313e-05 0.000203376 0)
(4.00558e-06 0.000143988 0)
(4.34353e-06 0.000183242 0)
(-1.11766e-05 0.000161562 0)
(-1.03788e-05 0.000123692 0)
(5.30071e-06 2.30352e-05 0)
(-8.35621e-07 0.000217218 0)
(3.05235e-06 4.89575e-06 0)
(-9.16882e-06 0.000203576 0)
(6.20665e-06 1.96332e-05 0)
(-4.12213e-06 5.92194e-05 0)
(-3.7173e-06 4.59116e-05 0)
(-3.27457e-06 3.40196e-05 0)
(5.57299e-06 0.000140759 0)
(5.93642e-06 0.000179837 0)
(-2.70129e-06 3.36634e-06 0)
(-4.87334e-06 2.21639e-05 0)
(1.04022e-05 0.000163343 0)
(9.65239e-06 0.000125364 0)
(2.31133e-06 0.000165669 0)
(-1.53202e-05 0.000202154 0)
(-1.54746e-05 0.000203361 0)
(5.56964e-06 1.40456e-05 0)
(5.57625e-06 1.44314e-05 0)
(6.08094e-06 4.25553e-05 0)
(6.78001e-06 5.54851e-05 0)
(5.31776e-06 3.10719e-05 0)
(-9.58508e-06 0.000146021 0)
(-1.01702e-05 0.000185426 0)
(4.07504e-06 0.000143091 0)
(4.36772e-06 0.00018232 0)
(4.44604e-06 8.75331e-05 0)
(-2.14425e-06 8.16955e-05 0)
(-1.14432e-06 1.81279e-05 0)
(2.66996e-06 0.000172163 0)
(2.49179e-06 0.000133567 0)
(-3.50751e-06 0.000212485 0)
(-1.20073e-06 3.76809e-05 0)
(-1.35218e-06 5.00458e-05 0)
(-1.31868e-05 0.000227288 0)
(-3.71455e-07 8.64441e-06 0)
(-1.2759e-05 0.000107557 0)
(1.10162e-05 7.14879e-05 0)
(1.30275e-07 1.26171e-07 0)
(-7.89953e-06 0.000255902 0)
(1.5746e-05 0.000230897 0)
(-4.65213e-07 2.80083e-07 0)
(1.03662e-05 0.000241959 0)
(1.29535e-05 0.000206928 0)
(1.38941e-05 0.000207097 0)
(-4.23508e-07 0.000248713 0)
(-1.07254e-06 0.000249507 0)
(7.36358e-06 6.97706e-05 0)
(6.50272e-06 7.00776e-05 0)
(-8.70722e-06 0.000109376 0)
(-7.67334e-06 0.000108995 0)
(5.25003e-07 2.37266e-07 0)
(-1.46754e-06 1.26194e-05 0)
(-1.6551e-06 7.04996e-06 0)
(-3.89189e-08 1.468e-08 0)
(5.02469e-06 8.34657e-06 0)
(-1.21086e-07 3.85552e-08 0)
(6.49608e-07 6.9249e-06 0)
(-8.95769e-06 0.00024741 0)
(-4.38166e-06 3.14326e-05 0)
(-4.99417e-06 4.29781e-05 0)
(-5.56491e-06 5.59599e-05 0)
(8.20838e-06 0.00018469 0)
(7.75369e-06 0.000145345 0)
(5.16378e-07 0.000171846 0)
(4.79727e-07 0.000133268 0)
(-2.39473e-07 1.82571e-05 0)
(-4.51778e-07 8.14539e-05 0)
(-1.77735e-07 2.95669e-08 0)
(6.75491e-07 2.28026e-05 0)
(-1.36545e-06 0.000123924 0)
(-4.08012e-06 7.86934e-05 0)
(9.45235e-07 2.24695e-05 0)
(-1.91536e-06 0.000124576 0)
(-6.1279e-06 0.000234164 0)
(7.58324e-06 8.81696e-05 0)
(7.06434e-06 8.74973e-05 0)
(3.86837e-08 1.46016e-08 0)
(1.77168e-07 2.94831e-08 0)
(-1.18659e-05 0.000218017 0)
(-1.14159e-05 0.000218937 0)
(-1.12615e-05 7.4752e-05 0)
(1.26212e-05 0.000103749 0)
(1.00732e-05 0.000185347 0)
(9.49038e-06 0.000145952 0)
(-5.32664e-06 3.11178e-05 0)
(-6.09381e-06 4.26044e-05 0)
(-6.79455e-06 5.55398e-05 0)
(-3.81199e-07 0.000222298 0)
(-4.5047e-06 2.12092e-05 0)
(9.83275e-06 0.000165374 0)
(9.13768e-06 0.000127249 0)
(6.05345e-06 8.90844e-05 0)
(5.08311e-06 0.000209691 0)
(7.9923e-06 0.000261277 0)
(8.32334e-07 6.8249e-06 0)
(-2.9967e-06 7.05947e-05 0)
(-9.93168e-09 2.53307e-06 0)
(1.20543e-07 3.84068e-08 0)
(2.8612e-06 7.44607e-05 0)
(2.46062e-06 7.36888e-05 0)
(-3.12502e-06 0.000103939 0)
(-2.67938e-06 0.000104701 0)
(5.53831e-06 5.59425e-05 0)
(4.97085e-06 4.29626e-05 0)
(4.35151e-06 3.14244e-05 0)
(-7.80312e-06 0.000145346 0)
(-8.2833e-06 0.000184714 0)
(-4.39546e-06 0.000255978 0)
(1.5253e-06 1.87164e-06 0)
(-1.38026e-08 0.000147593 0)
(-2.16857e-08 3.00986e-05 0)
(5.80674e-06 0.000247028 0)
(4.75338e-06 8.69041e-05 0)
(-1.84679e-05 0.00024411 0)
(5.46365e-06 8.97228e-05 0)
(2.18004e-07 1.61056e-07 0)
(1.51658e-05 0.000199667 0)
(1.52535e-05 0.000198551 0)
(-9.31161e-06 0.00012741 0)
(-1.00186e-05 0.000165541 0)
(-8.32034e-06 0.000127091 0)
(-8.95439e-06 0.0001652 0)
(4.53127e-06 2.11312e-05 0)
(4.06177e-06 2.12705e-05 0)
(4.51281e-06 0.0001171 0)
(5.37065e-06 0.000116964 0)
(4.88987e-06 0.000154428 0)
(5.82162e-06 0.00015428 0)
(-2.53152e-06 2.64895e-05 0)
(-3.01397e-06 2.65752e-05 0)
(-5.35995e-07 1.19631e-05 0)
(2.68566e-06 7.64543e-06 0)
(2.51435e-06 7.38211e-06 0)
(2.56923e-06 5.59342e-06 0)
(4.34403e-06 0.000210589 0)
(-1.50742e-05 0.000200034 0)
(-1.51548e-05 0.000198874 0)
(5.75024e-06 1.56793e-05 0)
(5.63776e-06 1.52345e-05 0)
(1.19742e-05 8.98509e-05 0)
(1.21349e-05 9.08518e-05 0)
(-1.19161e-05 8.78133e-05 0)
(-1.19796e-05 8.68286e-05 0)
(5.37891e-06 0.000252241 0)
(-1.47942e-05 0.000255519 0)
(-1.42204e-05 0.000215233 0)
(3.40549e-06 3.86624e-06 0)
(-8.69552e-06 0.000252324 0)
(-7.7663e-06 0.000251462 0)
(3.66878e-06 0.00011843 0)
(-2.29704e-06 0.000106504 0)
(2.02442e-06 7.21781e-05 0)
(-1.02202e-05 9.01847e-05 0)
(9.98821e-06 8.73949e-05 0)
(-4.89867e-06 1.54096e-05 0)
(-1.44985e-07 9.25471e-08 0)
(7.74395e-07 3.18428e-06 0)
(9.03335e-07 7.69904e-05 0)
(-8.61401e-06 7.75323e-05 0)
(9.23118e-06 0.000100441 0)
(-4.96795e-06 7.06228e-05 0)
(5.86399e-06 0.000108357 0)
(2.95559e-06 0.000188221 0)
(4.08373e-06 0.000187818 0)
(-1.77379e-06 4.08174e-05 0)
(-2.44528e-06 4.10621e-05 0)
(-1.98461e-06 5.35587e-05 0)
(-2.73453e-06 5.3831e-05 0)
(4.66777e-07 2.07677e-05 0)
(-1.01278e-06 0.00012797 0)
(-1.02477e-06 0.000166174 0)
(-1.65088e-06 0.000242933 0)
(2.34944e-06 5.55795e-06 0)
(-4.74461e-07 0.000103787 0)
(-7.03137e-06 0.000249007 0)
(9.7839e-07 7.87831e-07 0)
(6.26394e-06 0.000148296 0)
(-3.44342e-06 2.97693e-05 0)
(-1.06426e-05 0.00010488 0)
(-9.99647e-06 0.00010436 0)
(9.30234e-06 7.37051e-05 0)
(8.7677e-06 7.41502e-05 0)
(-1.0524e-05 0.000259637 0)
(-1.06397e-05 0.000258526 0)
(-1.76235e-06 1.20376e-05 0)
(-2.08903e-06 1.19921e-05 0)
(8.47895e-07 3.33689e-06 0)
(-2.01564e-06 3.46247e-06 0)
(4.83064e-07 0.00010888 0)
(3.07195e-06 2.15147e-05 0)
(2.58204e-06 2.16512e-05 0)
(-6.26358e-06 0.000126538 0)
(-5.25376e-06 0.000126241 0)
(-6.74251e-06 0.000164614 0)
(-5.6565e-06 0.000164295 0)
(-1.36455e-05 0.000208321 0)
(-1.26282e-05 0.000208404 0)
(-3.01487e-06 6.32271e-05 0)
(-2.79113e-06 4.95244e-05 0)
(-2.47667e-06 3.72186e-05 0)
(4.29721e-06 0.000194434 0)
(-7.53291e-07 0.000220147 0)
(8.98529e-06 8.73113e-05 0)
(8.50647e-06 8.80661e-05 0)
(3.96445e-06 0.000168298 0)
(3.79428e-06 0.000129916 0)
(-1.81789e-06 1.98396e-05 0)
(1.69775e-06 2.22043e-05 0)
(1.39555e-06 2.2635e-05 0)
(-3.10476e-06 0.000162229 0)
(-3.69119e-06 0.000163062 0)
(-3.42308e-06 0.000125112 0)
(-2.79231e-06 0.000124261 0)
(-3.60973e-06 2.03615e-05 0)
(7.47845e-06 0.000128921 0)
(8.03688e-06 0.000167175 0)
(-9.93723e-08 9.46435e-07 0)
(1.33551e-05 9.95656e-05 0)
(-1.23102e-05 7.85649e-05 0)
(-5.61674e-08 8.8071e-07 0)
(-4.03498e-06 0.00018531 0)
(-4.72969e-06 0.000186325 0)
(-3.70508e-06 0.000145988 0)
(-4.33644e-06 0.000146951 0)
(2.36592e-06 3.04924e-05 0)
(2.03662e-06 3.10257e-05 0)
(2.79069e-06 4.19575e-05 0)
(2.39349e-06 4.25648e-05 0)
(3.11485e-06 5.4829e-05 0)
(2.66848e-06 5.55061e-05 0)
(1.50173e-05 0.000208722 0)
(1.52972e-05 0.00020978 0)
(-1.43725e-06 7.10748e-06 0)
(5.63125e-06 0.000149031 0)
(-3.07552e-06 2.936e-05 0)
(4.9851e-06 2.32327e-05 0)
(-9.7166e-06 0.000123284 0)
(-1.04883e-05 0.000161099 0)
(-1.41174e-07 4.29465e-08 0)
(1.93816e-06 0.000217503 0)
(4.92372e-06 2.21681e-05 0)
(-9.85114e-06 0.000125359 0)
(-1.06257e-05 0.000163302 0)
(3.76002e-06 6.49213e-06 0)
(-7.43464e-06 0.000235702 0)
(4.73054e-06 1.77063e-05 0)
(-1.1731e-05 0.000193599 0)
(-2.54172e-06 9.53714e-06 0)
(-2.71122e-06 9.88609e-06 0)
(2.65313e-06 9.78306e-06 0)
(-1.28127e-06 0.000103627 0)
(-9.95812e-09 -7.32684e-09 0)
(-7.89389e-06 0.000258217 0)
(-1.26561e-07 5.04377e-08 0)
(1.40479e-07 4.27623e-08 0)
(-3.70476e-06 2.14765e-05 0)
(8.02111e-06 0.000164735 0)
(7.45027e-06 0.000126652 0)
(6.17303e-06 0.000217845 0)
(-1.77817e-05 0.000233689 0)
(2.27262e-06 9.70207e-05 0)
(-1.48119e-06 9.44936e-05 0)
(-4.11178e-07 9.97863e-06 0)
(-1.15223e-06 1.21252e-06 0)
(-7.18844e-09 -6.47206e-09 0)
(-4.45719e-06 7.12798e-05 0)
(5.25591e-06 0.000107601 0)
(3.91903e-07 1.3761e-07 0)
(-6.02963e-07 9.31073e-05 0)
(-5.69501e-07 9.2211e-05 0)
(-2.55927e-08 7.82134e-05 0)
(-1.11946e-07 2.00919e-05 0)
(1.85996e-07 0.000129359 0)
(1.65382e-07 0.000167783 0)
(-3.94295e-07 1.38413e-07 0)
(1.60336e-06 1.07912e-05 0)
(-6.1456e-06 0.000190453 0)
(3.52868e-06 3.95279e-05 0)
(3.95682e-06 5.21133e-05 0)
(4.34488e-06 6.60559e-05 0)
(1.28762e-05 0.000247873 0)
(-4.80223e-06 1.92193e-05 0)
(1.10436e-05 0.000169865 0)
(1.02969e-05 0.000131435 0)
(-7.3206e-06 0.000228684 0)
(1.0829e-06 2.78465e-06 0)
(9.83944e-06 0.000224446 0)
(-2.15221e-06 3.41033e-06 0)
(6.89053e-06 0.000248857 0)
(-5.29942e-06 0.000190474 0)
(3.03689e-06 3.95109e-05 0)
(3.4055e-06 5.20955e-05 0)
(3.74192e-06 6.60328e-05 0)
(9.45861e-07 2.63938e-06 0)
(4.54032e-06 0.000152795 0)
(-2.39239e-06 2.7336e-05 0)
(-8.15519e-07 1.07466e-05 0)
(-1.29464e-05 0.000225242 0)
(-4.84349e-06 5.94379e-05 0)
(-4.36922e-06 4.61103e-05 0)
(-3.85046e-06 3.41966e-05 0)
(6.50684e-06 0.00014053 0)
(6.93193e-06 0.000179591 0)
(1.77514e-05 0.000262676 0)
(1.03288e-05 0.000230578 0)
(1.1453e-05 0.000230183 0)
(1.47329e-07 1.03789e-07 0)
(6.44583e-06 7.08828e-05 0)
(-7.55227e-06 0.000108039 0)
(-3.29605e-06 7.18913e-05 0)
(3.82252e-06 0.000106918 0)
(-1.11596e-06 0.000115134 0)
(-8.49684e-07 0.000186516 0)
(5.28158e-07 5.4688e-05 0)
(4.73328e-07 4.18288e-05 0)
(2.22733e-08 2.94804e-05 0)
(-1.93898e-07 0.000111896 0)
(-9.32755e-08 0.000148758 0)
(8.11788e-06 0.000262322 0)
(4.64291e-07 1.10678e-05 0)
(-2.04843e-07 2.57032e-06 0)
(1.54771e-06 0.000157895 0)
(7.8354e-08 2.65793e-06 0)
(-1.22236e-06 8.27464e-06 0)
(3.03322e-06 2.94087e-05 0)
(-5.69349e-06 0.000148934 0)
(-1.15296e-07 1.28331e-07 0)
(-1.19922e-05 0.000225137 0)
(-1.0143e-06 1.97092e-05 0)
(2.11757e-06 0.000168675 0)
(2.10199e-06 0.000130167 0)
(2.75656e-07 6.62134e-08 0)
(-3.60961e-06 6.59914e-06 0)
(3.93912e-06 5.33988e-05 0)
(3.52077e-06 4.06773e-05 0)
(-6.044e-06 0.000188493 0)
(1.16162e-06 7.40969e-05 0)
(-8.11742e-06 0.0002549 0)
(-1.3864e-07 1.94515e-08 0)
(-4.71879e-06 1.03087e-05 0)
(3.05918e-06 5.68702e-06 0)
(-3.09114e-06 3.40795e-06 0)
(9.04526e-06 8.89037e-05 0)
(6.86792e-06 0.00010806 0)
(-5.92849e-06 7.08587e-05 0)
(4.21002e-07 2.91805e-05 0)
(-9.93425e-07 0.000112318 0)
(-8.32862e-07 0.00014931 0)
(8.60539e-06 0.000221902 0)
(8.03299e-06 9.73387e-05 0)
(4.16455e-06 0.000256866 0)
(4.01152e-06 0.000257822 0)
(1.15894e-06 0.000107558 0)
(1.58956e-06 7.35442e-05 0)
(1.3819e-07 1.93964e-08 0)
(-1.15904e-05 0.000201262 0)
(4.25748e-06 1.4702e-05 0)
(1.46776e-08 2.05608e-07 0)
(2.20797e-06 0.000143918 0)
(2.88868e-06 0.000144415 0)
(4.02166e-09 1.79961e-08 0)
(-2.24823e-06 5.50343e-06 0)
(5.51765e-06 5.42886e-05 0)
(4.93902e-06 4.14781e-05 0)
(4.31018e-06 3.00773e-05 0)
(-7.90246e-06 0.000147603 0)
(-8.37646e-06 0.000187184 0)
(7.30423e-06 9.2661e-05 0)
(1.05392e-06 0.000217735 0)
(-4.72923e-06 0.000245457 0)
(-4.47823e-06 0.000246749 0)
(-4.67148e-07 0.000189527 0)
(-4.0233e-07 0.000190565 0)
(3.1758e-07 3.94227e-05 0)
(2.8892e-07 4.00034e-05 0)
(3.55829e-07 5.19999e-05 0)
(3.23309e-07 5.26499e-05 0)
(2.29915e-07 6.59299e-05 0)
(2.76701e-07 6.66238e-05 0)
(5.65478e-07 0.000107916 0)
(1.04644e-06 0.00010964 0)
(1.82277e-06 0.000166721 0)
(-4.7674e-07 0.000114853 0)
(-2.76611e-07 6.64266e-08 0)
(-3.09083e-07 2.45159e-06 0)
(3.99796e-06 0.000151987 0)
(-2.12712e-06 2.77581e-05 0)
(1.0768e-06 3.40028e-06 0)
(1.56318e-05 0.000249089 0)
(-1.20405e-06 0.000191394 0)
(7.38821e-07 3.89809e-05 0)
(8.2903e-07 5.15049e-05 0)
(8.14882e-07 6.53564e-05 0)
(-1.1967e-05 0.000209395 0)
(4.12868e-06 7.52913e-05 0)
(6.0892e-06 0.000264356 0)
(6.88766e-06 0.000263768 0)
(-1.21489e-06 8.53127e-06 0)
(-7.71428e-07 0.000146822 0)
(3.9693e-07 3.05263e-05 0)
(1.80933e-07 1.86549e-07 0)
(1.53385e-05 0.000256098 0)
(-2.15466e-07 4.32429e-06 0)
(-2.91614e-06 4.42141e-05 0)
(-3.24282e-06 5.73389e-05 0)
(-3.87844e-06 5.79381e-05 0)
(-3.491e-06 4.4755e-05 0)
(-2.52984e-06 3.2509e-05 0)
(-3.05878e-06 3.29986e-05 0)
(5.07119e-06 0.000142509 0)
(5.39827e-06 0.000181706 0)
(2.24569e-06 3.08568e-06 0)
(-1.4507e-07 8.86149e-08 0)
(-1.32597e-05 0.00017343 0)
(-1.38114e-05 0.000255577 0)
(4.5019e-06 0.000109554 0)
(-3.94989e-07 4.42467e-06 0)
(-7.18268e-06 0.000142251 0)
(-7.63961e-06 0.000181423 0)
(4.12282e-06 3.31977e-05 0)
(4.68816e-06 4.49771e-05 0)
(5.20562e-06 5.81811e-05 0)
(6.63439e-06 0.000218566 0)
(1.50824e-05 0.000257006 0)
(-8.16184e-06 8.96989e-05 0)
(3.37851e-06 2.97612e-05 0)
(-6.31232e-06 0.00014829 0)
(4.30702e-06 0.000110402 0)
(-1.65141e-06 7.88215e-05 0)
(4.36314e-06 5.38516e-05 0)
(3.90275e-06 4.10836e-05 0)
(-6.66096e-06 0.000187816 0)
(-1.21289e-05 9.07237e-05 0)
(1.1814e-05 8.70059e-05 0)
(1.18129e-05 8.79712e-05 0)
(-1.19705e-05 8.96987e-05 0)
(-5.65973e-06 1.52263e-05 0)
(-5.82467e-06 1.5698e-05 0)
(-5.63219e-06 8.7959e-05 0)
(-2.91272e-06 3.4895e-06 0)
(-9.10583e-06 8.863e-05 0)
(-1.33686e-06 0.000210604 0)
(-1.19302e-06 1.43891e-06 0)
(9.16318e-06 5.18406e-05 0)
(8.16864e-06 3.93022e-05 0)
(-1.28701e-05 0.000132421 0)
(2.08021e-06 5.38851e-05 0)
(1.86099e-06 4.111e-05 0)
(-3.2033e-06 0.000187732 0)
(4.32444e-06 1.31408e-05 0)
(7.10453e-06 0.000107189 0)
(-6.1738e-06 7.16158e-05 0)
(-3.43661e-06 3.88463e-06 0)
(3.63765e-06 0.000167385 0)
(3.47917e-06 0.000129099 0)
(-1.68692e-06 2.02295e-05 0)
(1.05691e-05 0.000158101 0)
(-5.24026e-06 2.47049e-05 0)
(9.76773e-06 0.000120509 0)
(-5.98743e-06 1.50246e-05 0)
(7.4406e-06 0.000245949 0)
(8.53542e-06 0.000245591 0)
(8.22394e-06 0.00018719 0)
(7.7987e-06 0.000147618 0)
(-4.30967e-06 3.0163e-05 0)
(-4.91522e-06 4.14739e-05 0)
(-5.49182e-06 5.42841e-05 0)
(-1.25699e-06 1.24769e-06 0)
(-6.55249e-06 0.000228451 0)
(7.13732e-06 0.000145989 0)
(-4.00567e-06 3.10638e-05 0)
(-7.64113e-07 9.59298e-07 0)
(6.09246e-06 0.000248696 0)
(1.51656e-06 1.25535e-06 0)
(1.25828e-06 9.52368e-07 0)
(3.1786e-06 4.55519e-06 0)
(7.36906e-06 0.000200051 0)
(-1.25056e-05 0.000205537 0)
(1.66234e-05 0.000249406 0)
(3.2186e-06 4.78764e-06 0)
(7.31386e-06 9.73092e-05 0)
(1.00039e-05 0.000212068 0)
(-1.61007e-05 0.000200567 0)
(5.98621e-06 1.50573e-05 0)
(-3.70502e-06 0.000213395 0)
(1.505e-06 5.40517e-05 0)
(1.34687e-06 4.12588e-05 0)
(-2.32945e-06 0.000187476 0)
(-5.6823e-07 2.74534e-06 0)
(4.2658e-06 0.000115559 0)
(1.2517e-07 4.99283e-08 0)
(-4.98896e-06 1.02095e-05 0)
(-8.80571e-07 9.5078e-05 0)
(-2.22935e-06 1.84897e-05 0)
(-2.59385e-06 1.86111e-05 0)
(4.84998e-06 0.000132818 0)
(5.63198e-06 0.000132573 0)
(6.03602e-06 0.000171094 0)
(5.19727e-06 0.000171359 0)
(1.47013e-07 5.55848e-07 0)
(-4.00811e-08 6.8941e-06 0)
(-8.74779e-06 0.000119395 0)
(-9.47378e-06 0.000156898 0)
(4.70652e-06 2.52861e-05 0)
(-2.78249e-06 1.50874e-05 0)
(-1.6466e-06 0.000161303 0)
(-2.52785e-06 6.48404e-06 0)
(5.09415e-06 0.000246342 0)
(-4.13799e-06 8.10453e-05 0)
(-4.79319e-06 8.08423e-05 0)
(1.4433e-07 1.47678e-07 0)
(-2.74426e-06 8.38061e-05 0)
(-1.40378e-06 1.70162e-05 0)
(3.17775e-06 0.000136057 0)
(3.39757e-06 0.000174825 0)
(-3.83559e-06 0.000161329 0)
(-3.37979e-06 0.000123435 0)
(1.71143e-06 2.30647e-05 0)
(2.28957e-06 8.69257e-06 0)
(2.12662e-06 8.37801e-06 0)
(1.0902e-06 8.08099e-05 0)
(-1.43467e-06 0.000171032 0)
(-1.3463e-06 0.000132491 0)
(5.92274e-07 1.86156e-05 0)
(-1.32455e-06 3.19963e-05 0)
(-2.3804e-06 6.66449e-06 0)
(9.49928e-06 0.000252114 0)
(-9.2948e-06 0.000151068 0)
(7.17125e-06 7.13342e-05 0)
(-8.36363e-06 0.000107532 0)
(1.01263e-05 0.000213021 0)
(-9.36744e-06 6.55943e-05 0)
(-8.54196e-06 5.16883e-05 0)
(1.13998e-05 0.00011443 0)
(-7.61159e-06 3.9164e-05 0)
(-6.5976e-06 2.81212e-05 0)
(1.24341e-05 0.000151538 0)
(1.3138e-05 0.000191277 0)
(-3.4246e-06 0.000183066 0)
(-3.22464e-06 0.000143792 0)
(2.05827e-06 4.39297e-05 0)
(1.80652e-06 3.22701e-05 0)
(2.28921e-06 5.70242e-05 0)
(1.96791e-06 4.45586e-05 0)
(-3.2532e-06 0.000182044 0)
(2.18633e-06 5.77225e-05 0)
(1.72973e-06 3.28231e-05 0)
(-3.06136e-06 0.00014283 0)
(-1.8134e-06 0.00023203 0)
(-3.71267e-06 4.88581e-06 0)
(-4.00746e-06 2.2847e-05 0)
(8.40583e-06 0.000161834 0)
(7.79081e-06 0.00012396 0)
(-2.51706e-06 3.07339e-05 0)
(4.52361e-06 0.000146546 0)
(1.2472e-05 0.000181401 0)
(1.17226e-05 0.000142241 0)
(-6.81481e-06 3.3285e-05 0)
(-7.74985e-06 4.5062e-05 0)
(-8.60471e-06 5.82642e-05 0)
(1.31401e-05 0.000197924 0)
(1.43427e-05 0.000197673 0)
(3.2471e-07 5.88582e-06 0)
(-1.33861e-06 9.35294e-05 0)
(-3.58825e-06 9.95377e-06 0)
(1.84124e-07 3.4675e-07 0)
(-3.52969e-06 1.26329e-05 0)
(-5.68191e-07 0.000211024 0)
(1.45213e-07 5.63354e-06 0)
(-2.90196e-06 0.000100196 0)
(1.19232e-05 0.000132499 0)
(-5.4798e-06 1.87665e-05 0)
(1.27771e-05 0.000171001 0)
(-1.22035e-08 -8.45509e-09 0)
(7.87045e-07 0.000158045 0)
(2.31695e-07 9.77512e-08 0)
(1.58088e-07 1.17291e-07 0)
(2.11067e-06 0.000113713 0)
(-2.64884e-07 2.15571e-07 0)
(9.70824e-06 0.000253995 0)
(7.16763e-07 0.000144374 0)
(-3.96248e-07 3.18995e-05 0)
(2.14505e-06 1.28588e-05 0)
(1.32941e-06 0.000143926 0)
(-7.64296e-07 3.21318e-05 0)
(-1.31131e-07 2.85887e-06 0)
(-9.17213e-06 5.18151e-05 0)
(-8.17502e-06 3.928e-05 0)
(-7.08707e-06 2.82301e-05 0)
(-5.90354e-06 1.88118e-05 0)
(1.28355e-05 0.000132449 0)
(1.33361e-05 0.000151372 0)
(1.37551e-05 0.000170945 0)
(1.40962e-05 0.000191104 0)
(-6.25487e-06 0.000206142 0)
(-5.55942e-06 0.000244981 0)
(-1.79427e-05 0.000202389 0)
(6.53147e-06 1.44217e-05 0)
(4.08272e-06 0.000259686 0)
(4.75078e-06 0.000258569 0)
(1.2647e-06 0.000140751 0)
(1.37136e-06 0.000179851 0)
(-9.9462e-07 5.92883e-05 0)
(-8.96711e-07 4.59704e-05 0)
(-7.89629e-07 3.40675e-05 0)
(-5.19703e-06 1.50644e-05 0)
(1.89018e-06 1.08126e-05 0)
(-6.99017e-06 6.2101e-05 0)
(9.18636e-06 0.000137008 0)
(-6.3294e-06 4.85254e-05 0)
(-5.60613e-06 3.63406e-05 0)
(9.81127e-06 0.00017583 0)
(-3.94813e-06 1.669e-05 0)
(9.93376e-06 0.00019615 0)
(1.66913e-06 8.95978e-05 0)
(-1.05418e-06 0.000219041 0)
(1.0446e-06 5.23158e-07 0)
(-7.74101e-07 0.000192403 0)
(4.87951e-07 3.84022e-05 0)
(5.47973e-07 5.0856e-05 0)
(5.06967e-07 6.46421e-05 0)
(3.10116e-06 0.00022691 0)
(-4.33043e-07 2.75802e-07 0)
(1.57661e-05 0.000223285 0)
(-2.38494e-06 9.49423e-05 0)
(-7.31558e-08 1.58431e-07 0)
(5.63928e-06 0.000134883 0)
(-2.51646e-06 1.75595e-05 0)
(6.03321e-06 0.000173568 0)
(1.26129e-07 9.89711e-08 0)
(-3.37531e-06 2.11744e-05 0)
(6.83705e-06 0.000127241 0)
(7.35753e-06 0.00016537 0)
(1.17599e-06 1.55139e-06 0)
(-4.8265e-06 8.28282e-05 0)
(1.00973e-06 8.85404e-05 0)
(-1.09358e-05 0.000238601 0)
(9.97778e-07 0.000141515 0)
(1.06357e-06 0.000180645 0)
(-8.41223e-07 5.87195e-05 0)
(-6.65042e-07 3.36165e-05 0)
(-7.57706e-07 4.54567e-05 0)
(1.61629e-06 9.02579e-05 0)
(-2.3215e-07 8.86755e-07 0)
(-2.06101e-07 3.00833e-06 0)
(4.68609e-07 0.000210681 0)
(1.07705e-05 9.70227e-05 0)
(-1.01324e-05 8.08485e-05 0)
(-7.67896e-06 0.000266935 0)
(-1.74199e-05 0.000174625 0)
(-1.63005e-05 0.0001359 0)
(-1.69094e-05 0.000154941 0)
(-1.55903e-05 0.000117612 0)
(8.61358e-06 2.64519e-05 0)
(9.9946e-06 3.72072e-05 0)
(1.12599e-05 4.94745e-05 0)
(1.24156e-05 6.31241e-05 0)
(1.73663e-05 0.000174623 0)
(1.68565e-05 0.000154941 0)
(-8.64036e-06 2.64535e-05 0)
(-1.00262e-05 3.72097e-05 0)
(1.62479e-05 0.000135899 0)
(-1.12968e-05 4.94763e-05 0)
(1.55409e-05 0.000117612 0)
(-1.24567e-05 6.31262e-05 0)
(-5.00262e-06 1.46446e-05 0)
(-2.70938e-06 0.000218576 0)
(-1.93538e-06 0.000218368 0)
(-2.40537e-06 0.00024748 0)
(3.96382e-06 0.00015012 0)
(-2.1497e-06 2.87562e-05 0)
(-7.76478e-07 1.15119e-06 0)
(-3.10941e-06 0.000261528 0)
(-3.42377e-06 5.65847e-05 0)
(-4.19256e-06 5.63725e-05 0)
(-3.0754e-06 4.35355e-05 0)
(-3.76482e-06 4.3346e-05 0)
(5.02199e-06 0.000184038 0)
(6.03423e-06 0.000184123 0)
(1.3276e-05 0.000180931 0)
(1.24745e-05 0.000141801 0)
(-7.28189e-06 3.3558e-05 0)
(-8.27519e-06 4.5369e-05 0)
(-9.18327e-06 5.86021e-05 0)
(-8.0628e-06 0.000119814 0)
(-8.72878e-06 0.000157353 0)
(4.31303e-06 2.50455e-05 0)
(-2.54268e-06 0.000107351 0)
(2.14382e-06 7.14532e-05 0)
(2.61073e-06 0.000189231 0)
(-1.55167e-06 4.0158e-05 0)
(-1.73838e-06 5.28221e-05 0)
(-1.88106e-06 6.66956e-05 0)
(4.9744e-06 7.0605e-05 0)
(4.2136e-06 7.07848e-05 0)
(-5.85329e-06 0.000108331 0)
(-4.95789e-06 0.000108109 0)
(-5.88452e-06 0.000259574 0)
(4.01006e-07 1.10557e-06 0)
(9.75567e-06 0.000223528 0)
(3.52111e-06 7.83924e-05 0)
(9.56847e-06 0.000154778 0)
(-4.91396e-06 2.63677e-05 0)
(8.81933e-06 0.000117438 0)
(-8.23247e-06 9.39294e-05 0)
(2.00625e-06 1.99788e-05 0)
(-4.59054e-06 0.000167941 0)
(-4.27649e-06 0.000129632 0)
(5.61881e-07 8.15534e-05 0)
(-7.20449e-07 0.000133372 0)
(-7.65165e-07 0.000171971 0)
(3.02241e-07 1.82095e-05 0)
(5.53762e-06 7.38881e-05 0)
(-6.32866e-06 0.000104544 0)
(-3.03081e-06 0.000232027 0)
(-1.39914e-05 0.000229814 0)
(2.49387e-06 9.97463e-05 0)
(6.27819e-06 0.000100058 0)
(-5.14174e-06 1.94174e-05 0)
(1.17675e-05 0.000169446 0)
(1.09687e-05 0.000131046 0)
(-5.73752e-07 2.44156e-06 0)
(-1.90319e-06 0.000193736 0)
(1.0531e-06 3.76338e-05 0)
(1.1851e-06 4.99931e-05 0)
(1.29606e-06 6.37016e-05 0)
(-2.90756e-06 9.44801e-05 0)
(-1.297e-05 0.000229891 0)
(-3.76437e-06 3.76792e-05 0)
(-4.23789e-06 5.00389e-05 0)
(-4.65438e-06 6.37773e-05 0)
(6.59393e-06 0.000193669 0)
(1.22214e-08 1.61064e-08 0)
(8.13287e-06 9.31797e-05 0)
(1.02815e-07 7.34801e-06 0)
(-3.92591e-07 6.87924e-07 0)
(-8.1471e-07 3.15761e-06 0)
(-3.88717e-06 1.347e-05 0)
(-4.01165e-07 1.47787e-07 0)
(1.60335e-06 4.25206e-05 0)
(1.40925e-06 3.10117e-05 0)
(1.78754e-06 5.5458e-05 0)
(-2.72204e-06 0.000185373 0)
(-2.57962e-06 0.000146002 0)
(-7.92992e-06 7.73658e-05 0)
(8.56265e-06 0.000100657 0)
(-7.94741e-07 4.69909e-07 0)
(1.03733e-05 0.000246033 0)
(7.47841e-06 0.000220172 0)
(-1.59686e-05 0.000207273 0)
(5.91225e-06 9.92884e-05 0)
(2.12405e-06 0.000107804 0)
(-4.02949e-06 0.00026141 0)
(-1.12065e-05 0.000112922 0)
(-1.06604e-05 0.000112426 0)
(1.57431e-05 0.000261333 0)
(-1.27388e-06 0.000233181 0)
(-3.56058e-06 7.11661e-05 0)
(4.2473e-06 0.000107783 0)
(1.28119e-07 7.60503e-06 0)
(1.98126e-06 2.69321e-06 0)
(3.98057e-07 1.46672e-07 0)
(3.75241e-06 0.000114807 0)
(1.38732e-05 0.000266686 0)
(-7.62163e-06 0.000185405 0)
(-7.17745e-06 0.000145998 0)
(3.97335e-06 3.10487e-05 0)
(5.07135e-06 5.54705e-05 0)
(4.54828e-06 4.25373e-05 0)
(-1.46112e-07 1.02682e-07 0)
(-5.83538e-07 0.000242684 0)
(7.1204e-06 0.000100352 0)
(-6.5074e-06 7.77577e-05 0)
(-1.14137e-05 0.000236813 0)
(-1.7039e-05 0.000175516 0)
(-1.65432e-05 0.000155801 0)
(-1.59544e-05 0.000136731 0)
(-1.52643e-05 0.000118408 0)
(8.35156e-06 2.59999e-05 0)
(9.70616e-06 3.66857e-05 0)
(1.09473e-05 4.8889e-05 0)
(1.20813e-05 6.24801e-05 0)
(1.69838e-05 0.00017551 0)
(1.64903e-05 0.000155801 0)
(-8.37765e-06 2.60032e-05 0)
(-9.73656e-06 3.66896e-05 0)
(1.58998e-05 0.000136728 0)
(-1.09829e-05 4.88924e-05 0)
(1.52135e-05 0.000118404 0)
(-1.21209e-05 6.2484e-05 0)
(-2.52577e-06 3.40341e-06 0)
(9.93583e-07 9.39854e-07 0)
(-1.33041e-06 2.44426e-06 0)
(6.33884e-06 9.84729e-05 0)
(-6.98071e-06 0.000101384 0)
(1.26691e-06 1.53462e-06 0)
(-1.97171e-07 3.29518e-08 0)
(-1.5356e-05 0.000207771 0)
(8.77013e-06 0.000264002 0)
(9.84406e-06 0.000264499 0)
(1.96598e-07 3.2871e-08 0)
(2.8507e-06 3.817e-06 0)
(1.37435e-05 0.000240381 0)
(-5.24867e-06 0.00011203 0)
(-3.49313e-07 3.07717e-07 0)
(-7.8993e-07 1.2321e-06 0)
(-1.23555e-07 3.1616e-08 0)
(2.31119e-07 1.80724e-07 0)
(1.42471e-05 8.93817e-05 0)
(-1.42391e-05 8.83531e-05 0)
(4.36797e-06 6.74965e-05 0)
(-5.37974e-06 0.000109991 0)
(4.53507e-06 6.92212e-05 0)
(-2.39687e-07 4.07127e-06 0)
(-3.31363e-06 0.000175481 0)
(2.60903e-06 8.4357e-05 0)
(-1.85481e-06 0.000173583 0)
(-1.77622e-06 0.000134797 0)
(7.63279e-07 1.75688e-05 0)
(1.429e-06 8.28349e-05 0)
(-5.85252e-06 0.000111462 0)
(3.03789e-06 4.0434e-06 0)
(4.89376e-06 6.80036e-05 0)
(1.8071e-06 9.98981e-05 0)
(1.38116e-05 0.000248224 0)
(-4.23131e-06 0.000100718 0)
(-4.86324e-06 0.000101399 0)
(-3.98604e-06 8.54751e-06 0)
(-4.71616e-06 0.000104604 0)
(-4.03504e-06 0.000103882 0)
(4.18384e-06 7.37674e-05 0)
(3.67355e-06 7.44912e-05 0)
(-4.45634e-06 2.07314e-05 0)
(9.15486e-06 0.000128222 0)
(9.8436e-06 0.000166419 0)
(-1.23889e-06 1.3858e-06 0)
(-5.86354e-06 0.000110573 0)
(4.92761e-06 6.87584e-05 0)
(-3.73867e-06 0.0001421 0)
(-3.97608e-06 0.000181267 0)
(2.13475e-06 3.32514e-05 0)
(2.6939e-06 5.82602e-05 0)
(2.42667e-06 4.50438e-05 0)
(-1.96808e-06 9.23037e-06 0)
(-1.22239e-05 0.000149819 0)
(-1.15844e-05 0.000149348 0)
(6.51568e-06 2.90288e-05 0)
(6.19726e-06 2.92798e-05 0)
(8.04183e-06 0.000119048 0)
(8.84288e-06 0.000118464 0)
(-4.39585e-06 2.5463e-05 0)
(-4.8665e-06 2.57986e-05 0)
(8.71284e-06 0.000156525 0)
(9.58547e-06 0.00015589 0)
(-3.52334e-06 0.000231178 0)
(6.99016e-06 0.000211161 0)
(7.09103e-06 0.000210179 0)
(-5.21788e-06 6.92278e-05 0)
(6.08629e-06 0.000109964 0)
(-1.8392e-05 0.000257502 0)
(-5.30404e-06 0.000205556 0)
(-5.09429e-06 0.000204596 0)
(1.78504e-06 1.33956e-05 0)
(1.83496e-06 1.30556e-05 0)
(1.585e-05 0.000207833 0)
(-7.04925e-06 8.87092e-05 0)
(-6.05345e-06 8.87401e-05 0)
(1.56807e-05 0.000234574 0)
(-1.58861e-05 0.000247248 0)
(-1.58657e-05 0.000248423 0)
(-4.94615e-07 2.526e-06 0)