/*--------------------------------*- C++ -*----------------------------------*\
| =========                 |                                                 |
| \\      /  F ield         | OpenFOAM: The Open Source CFD Toolbox           |
|  \\    /   O peration     | Version:  2.3.1                                 |
|   \\  /    A nd           | Web:      www.OpenFOAM.org                      |
|    \\/     M anipulation  |                                                 |
\*---------------------------------------------------------------------------*/
FoamFile
{
    version     2.0;
    format      ascii;
    class       volScalarField;
    location    "0.24";
    object      k;
}
// * * * * * * * * * * * * * * * * * * * * * * * * * * * * * * * * * * * * * //

dimensions      [0 2 -2 0 0 0 0];

internalField   nonuniform List<scalar> 
15166
(
1.07618
1.31503
1.69197
2.08822
2.39434
2.69971
2.91732
3.04672
3.09068
3.06662
2.98216
2.87061
1.07664
1.28598
1.69515
2.08001
2.38557
2.6701
2.8675
2.98045
3.01414
2.98532
2.90221
2.78188
1.08479
1.25409
1.67938
2.05773
2.36268
2.63083
2.81289
2.91346
2.9401
2.908
2.82508
2.70153
1.09541
1.22845
1.65751
2.02918
2.3314
2.58568
2.75558
2.8468
2.86845
2.83406
2.75048
2.62211
1.1069
1.20906
1.63419
1.9985
2.29597
2.53784
2.69753
2.78141
2.79938
2.76341
2.67938
2.55033
1.11931
1.19423
1.61053
1.96701
2.25845
2.48902
2.63987
2.7178
2.73295
2.69583
2.61138
2.4811
1.13266
1.1829
1.58715
1.93535
2.21982
2.4401
2.5832
2.6562
2.66912
2.6311
2.54596
2.4127
1.14675
1.1744
1.56455
1.90393
2.18085
2.39167
2.52789
2.59671
2.60782
2.56917
2.48377
2.35118
1.16136
1.16825
1.54309
1.87321
2.14214
2.34416
2.47417
2.53938
2.549
2.50993
2.42459
2.29278
1.1763
1.16399
1.52287
1.84336
2.10406
2.29786
2.42219
2.48422
2.49258
2.45329
2.36852
2.23926
1.19146
1.16129
1.50393
1.81448
2.06683
2.25292
2.372
2.43118
2.43848
2.39921
2.31551
2.18974
1.2067
1.15982
1.48621
1.78665
2.0306
2.20941
2.32363
2.38021
2.38661
2.34762
2.26575
2.14578
1.22196
1.15936
1.46967
1.75984
1.99546
2.16737
2.27703
2.33122
2.33687
2.2984
2.21881
2.10472
1.23713
1.15974
1.45425
1.73405
1.96144
2.12679
2.23218
2.28415
2.28917
2.25131
2.17352
2.05987
1.25217
1.16073
1.43987
1.7093
1.92856
2.08767
2.189
2.23892
2.24341
2.20632
2.13069
2.02177
1.267
1.16225
1.42642
1.68552
1.89682
2.04995
2.14746
2.19544
2.19949
2.16324
2.08986
1.9848
1.2816
1.16413
1.41381
1.6627
1.8662
2.0136
2.10747
2.15363
2.15731
2.12196
2.05078
1.94887
1.29591
1.16632
1.402
1.64081
1.83668
1.97859
2.06897
2.11342
2.11679
2.08237
2.01329
1.91418
1.30991
1.16873
1.39089
1.61979
1.80821
1.94483
2.03189
2.07471
2.07783
2.04437
1.97743
1.88172
1.32356
1.17127
1.38044
1.5996
1.78077
1.9123
1.99618
2.03743
2.04034
2.00787
1.94304
1.85058
1.33684
1.17392
1.37056
1.58021
1.75431
1.88092
1.96174
2.00151
2.00424
1.97272
1.90985
1.81948
1.34975
1.1766
1.3612
1.56159
1.7288
1.85066
1.92854
1.96689
1.96945
1.93886
1.87775
1.78921
1.36225
1.1793
1.35233
1.54367
1.7042
1.82147
1.89652
1.9335
1.93591
1.90619
1.84663
1.75932
1.37434
1.18199
1.34388
1.52644
1.68047
1.7933
1.86561
1.90127
1.90354
1.87464
1.81648
1.73049
1.386
1.18464
1.33582
1.50986
1.65758
1.76611
1.83577
1.87015
1.87227
1.84413
1.78727
1.70273
1.39721
1.18723
1.3281
1.4939
1.63549
1.73985
1.80695
1.84009
1.84206
1.81462
1.75901
1.67608
1.408
1.18973
1.3207
1.47851
1.61416
1.71449
1.7791
1.81103
1.81284
1.78606
1.73173
1.65076
1.41836
1.19218
1.31359
1.46366
1.59356
1.68996
1.75217
1.78293
1.78456
1.75843
1.70541
1.62691
1.42825
1.19453
1.30674
1.44935
1.57365
1.66626
1.72612
1.75573
1.75719
1.73169
1.68001
1.60374
1.43771
1.19679
1.30013
1.43551
1.55441
1.64333
1.70092
1.7294
1.73069
1.70579
1.6554
1.58094
1.44672
1.19896
1.29371
1.42214
1.5358
1.62114
1.67652
1.7039
1.70501
1.6807
1.63158
1.55901
1.45527
1.20104
1.28751
1.40919
1.51779
1.59966
1.65289
1.6792
1.68012
1.65638
1.60847
1.53758
1.46336
1.20302
1.28148
1.39668
1.50037
1.57886
1.63
1.65525
1.65598
1.63279
1.58608
1.51699
1.47105
1.20492
1.27563
1.38455
1.4835
1.55872
1.60781
1.63203
1.63257
1.60991
1.56436
1.49688
1.47824
1.20671
1.26993
1.37281
1.46716
1.5392
1.5863
1.60951
1.60985
1.5877
1.54328
1.47751
1.48503
1.20843
1.2644
1.36141
1.45132
1.52027
1.56544
1.58765
1.5878
1.56614
1.52282
1.45859
1.49138
1.21005
1.259
1.35036
1.43596
1.50192
1.54519
1.56643
1.56637
1.54519
1.50297
1.44059
1.49729
1.2116
1.25373
1.33962
1.42107
1.48411
1.52554
1.54582
1.54556
1.52483
1.48371
1.42325
1.50278
1.21308
1.2486
1.32918
1.40661
1.46683
1.50646
1.5258
1.52533
1.50507
1.46501
1.40606
1.50785
1.21448
1.24358
1.31904
1.39259
1.45006
1.48794
1.50635
1.50568
1.48586
1.4469
1.38996
1.51246
1.21582
1.23868
1.30918
1.37897
1.43377
1.46994
1.48744
1.48656
1.46716
1.4291
1.3725
1.51663
1.21707
1.23388
1.29959
1.36574
1.41794
1.45245
1.46906
1.46796
1.44894
1.41165
1.3554
1.52035
1.21823
1.2292
1.29027
1.35289
1.40257
1.43544
1.45118
1.44987
1.4312
1.39468
1.33968
1.52365
1.21929
1.22462
1.28119
1.3404
1.38763
1.41891
1.43379
1.43225
1.4139
1.37812
1.32413
1.52654
1.22022
1.22014
1.27237
1.32825
1.3731
1.40283
1.41686
1.41509
1.39705
1.36201
1.30937
1.52901
1.22101
1.21578
1.2638
1.31644
1.35896
1.38719
1.40039
1.39838
1.38062
1.34628
1.29449
1.53107
1.22171
1.21152
1.25545
1.30493
1.34521
1.37197
1.38434
1.3821
1.36461
1.331
1.28071
1.53275
1.22227
1.20735
1.24732
1.29373
1.33184
1.35714
1.36872
1.36622
1.34899
1.31609
1.26687
1.53403
1.22272
1.20326
1.23939
1.28282
1.31883
1.34271
1.35348
1.35074
1.33375
1.30157
1.25377
1.53493
1.22308
1.19925
1.23167
1.27222
1.30615
1.32865
1.33863
1.33563
1.31887
1.28736
1.24048
1.53545
1.22335
1.19531
1.22413
1.2619
1.2938
1.31495
1.32415
1.32089
1.30434
1.2735
1.22785
1.5356
1.22357
1.19144
1.21678
1.25184
1.28178
1.30159
1.31003
1.3065
1.29016
1.25999
1.21557
1.53539
1.22369
1.18765
1.20961
1.24205
1.27006
1.28858
1.29626
1.29247
1.27631
1.24676
1.20305
1.5348
1.22376
1.18392
1.2026
1.23251
1.25865
1.2759
1.28284
1.27877
1.26279
1.23387
1.1914
1.53387
1.22375
1.18026
1.19577
1.22321
1.24753
1.26354
1.26974
1.2654
1.24959
1.22131
1.18018
1.5326
1.22367
1.17667
1.18909
1.21415
1.23669
1.25149
1.25696
1.25234
1.23671
1.20908
1.16934
1.53097
1.2235
1.17315
1.18258
1.20531
1.22612
1.23973
1.24449
1.2396
1.22413
1.19713
1.15842
1.52901
1.2233
1.1697
1.17621
1.19669
1.21583
1.22827
1.23233
1.22716
1.21185
1.18546
1.14782
1.52671
1.223
1.16631
1.17
1.18828
1.20578
1.2171
1.22046
1.21502
1.19985
1.17399
1.13667
1.52408
1.22267
1.163
1.16393
1.18008
1.19599
1.2062
1.20888
1.20317
1.18812
1.16277
1.12632
1.52112
1.22227
1.15975
1.15801
1.17208
1.18644
1.19556
1.19758
1.19159
1.17666
1.15184
1.11659
1.51785
1.22183
1.15657
1.15223
1.16428
1.17711
1.18518
1.18654
1.18028
1.16547
1.14119
1.10715
1.51425
1.22131
1.15346
1.14658
1.15666
1.16802
1.17506
1.17578
1.16924
1.15454
1.13078
1.09762
1.51034
1.22076
1.15042
1.14108
1.14924
1.15916
1.16518
1.16527
1.15846
1.14386
1.12061
1.08833
1.50611
1.22016
1.14746
1.13571
1.14199
1.15051
1.15555
1.15501
1.14794
1.13344
1.11064
1.07897
1.50156
1.21954
1.14457
1.13048
1.13493
1.14208
1.14615
1.14501
1.13766
1.12325
1.10088
1.06996
1.49672
1.21884
1.14175
1.12538
1.12804
1.13386
1.13699
1.13525
1.12763
1.11329
1.09132
1.06095
1.49156
1.21811
1.13901
1.12041
1.12133
1.12584
1.12805
1.12572
1.11784
1.10355
1.08197
1.05235
1.4861
1.21737
1.13635
1.11559
1.11479
1.11802
1.11933
1.11642
1.10827
1.09404
1.07283
1.04388
1.48034
1.21656
1.13377
1.11089
1.10842
1.1104
1.11082
1.10734
1.09894
1.08475
1.0639
1.03573
1.47429
1.21572
1.13126
1.10633
1.10221
1.10296
1.10252
1.09849
1.08982
1.07567
1.05516
1.02751
1.46794
1.21482
1.12883
1.10189
1.09617
1.09572
1.09443
1.08985
1.08092
1.06679
1.0466
1.01961
1.4613
1.21391
1.12649
1.09759
1.09029
1.08867
1.08654
1.08143
1.07223
1.05813
1.03825
1.0119
1.45435
1.21298
1.12425
1.09344
1.08458
1.0818
1.07886
1.07321
1.06376
1.04967
1.03008
1.00428
1.44711
1.21201
1.12207
1.08941
1.07903
1.07511
1.07137
1.0652
1.05548
1.0414
1.02209
0.996872
1.43962
1.21099
1.11998
1.08552
1.07364
1.06861
1.06408
1.05739
1.04741
1.03333
1.01427
0.989391
1.43183
1.20991
1.11797
1.08176
1.06842
1.06228
1.05697
1.04979
1.03954
1.02544
1.0066
0.982109
1.42373
1.20881
1.11605
1.07814
1.06335
1.05613
1.05006
1.04237
1.03187
1.01775
0.999109
0.974906
1.41536
1.20771
1.11424
1.07467
1.05845
1.05016
1.04334
1.03515
1.0244
1.01024
0.991776
0.967937
1.40671
1.20655
1.11252
1.07133
1.05371
1.04436
1.0368
1.02813
1.01711
1.00292
0.984606
0.960982
1.39778
1.20536
1.11088
1.06815
1.04914
1.03875
1.03044
1.02129
1.01001
0.99576
0.977596
0.954354
1.38857
1.20413
1.10934
1.0651
1.04472
1.0333
1.02427
1.01463
1.00309
0.988776
0.970743
0.947924
1.37908
1.20286
1.10788
1.0622
1.04048
1.02803
1.01828
1.00817
0.99636
0.98198
0.964074
0.941564
1.36932
1.20156
1.10654
1.05945
1.0364
1.02295
1.01248
1.0019
0.989821
0.975367
0.957569
0.935244
1.35927
1.20024
1.10529
1.05685
1.0325
1.01804
1.00686
0.995809
0.983461
0.968922
0.951218
0.929198
1.34895
1.19886
1.10415
1.05441
1.02876
1.0133
1.00142
0.989899
0.977283
0.962656
0.945028
0.923147
1.33837
1.19741
1.10309
1.05212
1.0252
1.00875
0.996162
0.984175
0.971283
0.956554
0.938985
0.917439
1.32751
1.19593
1.10213
1.04999
1.02182
1.00438
0.991092
0.978636
0.965468
0.950641
0.933133
0.911751
1.31636
1.19443
1.10129
1.04803
1.01862
1.0002
0.986209
0.973284
0.959836
0.944902
0.927444
0.906255
1.30494
1.19289
1.10055
1.04624
1.01561
0.996207
0.981511
0.968116
0.954385
0.939331
0.921881
0.900587
1.29325
1.1913
1.09991
1.04461
1.01278
0.992397
0.977
0.963129
0.94911
0.933928
0.916504
0.895729
1.28128
1.18967
1.09938
1.04316
1.01014
0.988786
0.972684
0.958338
0.944036
0.92874
0.911369
0.890856
1.26906
1.18794
1.09896
1.04189
1.0077
0.985374
0.968564
0.953741
0.939145
0.923715
0.90637
0.886104
1.25654
1.18621
1.09864
1.04079
1.00546
0.982167
0.964644
0.949336
0.934444
0.918875
0.901548
0.881396
1.24377
1.18439
1.09844
1.03988
1.00343
0.979163
0.960925
0.945131
0.929933
0.914216
0.896885
0.876824
1.23073
1.18248
1.09833
1.03915
1.00161
0.976373
0.957413
0.941125
0.925621
0.909755
0.892405
0.87231
1.21741
1.18053
1.09835
1.03863
1.00001
0.973802
0.954114
0.937325
0.921502
0.905466
0.888065
0.868035
1.20379
1.17855
1.09848
1.03831
0.998634
0.971458
0.951032
0.933732
0.917584
0.901374
0.883923
0.863872
1.18993
1.17643
1.09873
1.03819
0.997495
0.969343
0.948174
0.930353
0.913871
0.897475
0.879949
0.859913
1.17578
1.17427
1.09908
1.03829
0.996597
0.967473
0.945547
0.927198
0.910373
0.893783
0.876186
0.856067
1.16135
1.17202
1.09956
1.0386
0.995944
0.965847
0.943156
0.924265
0.90708
0.89028
0.872586
0.852537
1.14664
1.16973
1.10015
1.03914
0.995554
0.964481
0.941011
0.921563
0.90401
0.886992
0.869201
0.849183
1.13164
1.16737
1.10085
1.0399
0.99543
0.963382
0.939128
0.919113
0.901182
0.883944
0.866055
0.845953
1.11638
1.16488
1.10168
1.04089
0.995582
0.962565
0.93751
0.916911
0.898591
0.881116
0.863123
0.843005
1.10084
1.16227
1.10262
1.04213
0.996018
0.96204
0.936165
0.914967
0.89624
0.878515
0.860408
0.840365
1.08502
1.15959
1.10368
1.04363
0.996758
0.961817
0.93511
0.913294
0.894146
0.876172
0.857955
0.837843
1.06892
1.15677
1.10486
1.04538
0.997807
0.961907
0.934358
0.911906
0.892312
0.874057
0.855684
0.835586
1.05254
1.15386
1.10616
1.04739
0.999183
0.962334
0.933925
0.910818
0.890764
0.87222
0.853687
0.833491
1.03586
1.15093
1.10757
1.04969
1.00091
0.963116
0.933831
0.910046
0.889511
0.870662
0.851952
0.831642
1.01889
1.14778
1.10913
1.05228
1.00299
0.964265
0.934095
0.909601
0.888562
0.869376
0.850445
0.829968
1.00163
1.14456
1.11082
1.05517
1.00545
0.965811
0.934735
0.909513
0.887946
0.868404
0.849255
0.828615
0.984078
1.14125
1.11261
1.05837
1.00831
0.967766
0.935773
0.9098
0.887678
0.867767
0.848397
0.827666
0.966253
1.13768
1.11454
1.06188
1.01157
0.970167
0.937235
0.910486
0.887794
0.867511
0.847941
0.827001
0.948127
1.13404
1.11659
1.06572
1.01527
0.97302
0.939144
0.911581
0.88828
0.867571
0.847698
0.826225
0.929704
1.13029
1.11874
1.06991
1.01943
0.976359
0.941516
0.913107
0.889152
0.867972
0.847761
0.825946
0.911001
1.1263
1.12105
1.07444
1.02406
0.980207
0.944389
0.915101
0.890459
0.868793
0.848265
0.826172
0.891981
1.12225
1.12347
1.07936
1.02921
0.984623
0.947808
0.917608
0.892236
0.870037
0.849112
0.826696
0.872667
1.1179
1.12607
1.08467
1.03489
0.989629
0.951823
0.920675
0.89454
0.871782
0.850484
0.82785
0.85305
1.11339
1.12874
1.09039
1.04116
0.995276
0.956474
0.924341
0.897403
0.87406
0.852379
0.829569
0.833155
1.10881
1.13156
1.09652
1.04804
1.00161
0.961812
0.928666
0.900868
0.876905
0.854822
0.831622
0.812953
1.10395
1.13452
1.10311
1.05556
1.00867
0.967878
0.933674
0.904955
0.880269
0.857607
0.833611
0.792432
1.09886
1.13764
1.11018
1.06378
1.01653
0.974745
0.939432
0.909733
0.884267
0.861016
0.836587
0.771615
1.0935
1.14089
1.11775
1.07275
1.02526
0.982496
0.946041
0.915306
0.889027
0.865224
0.840488
0.75051
1.0881
1.14428
1.12586
1.08254
1.03492
0.991223
0.95357
0.921714
0.89452
0.86999
0.844677
0.729076
1.0823
1.14786
1.13457
1.09321
1.04564
1.00101
0.962121
0.929064
0.900864
0.875566
0.849576
0.707332
1.07624
1.15164
1.14393
1.10486
1.0575
1.01199
0.971808
0.937456
0.908126
0.881911
0.855218
0.685291
1.07013
1.15563
1.154
1.11762
1.07067
1.02432
0.982799
0.94705
0.916484
0.889288
0.861874
0.662899
1.0636
1.15994
1.16492
1.13162
1.08531
1.03817
0.99525
0.957982
0.926054
0.897736
0.869259
0.640172
1.0569
1.16463
1.17682
1.14708
1.10162
1.05374
1.00934
0.970387
0.936917
0.907342
0.877905
0.617053
1.04994
1.16985
1.19
1.16424
1.11989
1.07128
1.02526
0.984431
0.949185
0.918117
0.887499
0.59354
1.04298
1.176
1.2048
1.18355
1.14046
1.09109
1.04328
1.00034
0.963086
0.9304
0.898584
0.569516
1.03617
1.18364
1.22191
1.20551
1.16375
1.1135
1.06366
1.0183
0.97872
0.944108
0.910817
0.544909
1.03079
1.194
1.24228
1.23077
1.19017
1.13875
1.08656
1.03845
0.996179
0.959276
0.924048
0.519589
1.03036
1.21032
1.26832
1.26064
1.22059
1.16759
1.11273
1.06139
1.01593
0.976184
0.93868
0.489789
1.03178
1.22552
1.29503
1.28926
1.24981
1.1955
1.13916
1.08464
1.03665
0.993999
0.954742
1.01896
0.00464862
0.336773
0.31269
0.311698
0.282291
0.27312
0.64615
0.812166
0.760139
0.555307
0.00768436
0.031928
2.97127
0.26598
0.00354075
2.78495
0.108019
0.105132
0.00347542
0.136684
0.172829
0.141082
0.0264518
1.03377
0.335956
0.155853
0.360592
0.590005
0.794377
0.524509
1.16424
0.00417848
0.545979
0.0304914
0.159457
0.388957
0.458086
0.392635
0.00808268
0.068067
0.00336996
0.0697842
0.510726
0.271827
0.169767
0.0594385
0.0242645
0.27478
0.136181
0.157766
0.633918
0.266322
0.00321462
1.95151
0.00441774
0.010438
0.00336698
0.458799
0.255487
0.151322
1.18881
0.00320909
0.0165456
0.177615
0.00450186
0.861974
0.255691
1.53002
0.673194
1.84894
0.0523923
0.382917
0.707318
0.0269091
0.00323884
0.779243
0.00309979
0.0685935
0.240449
0.101062
0.00310743
0.408088
0.298468
0.0160249
1.09542
0.857955
0.00319459
0.381158
0.240914
0.352907
0.6377
0.00319819
0.00390289
0.460178
0.00325989
0.348273
0.012397
0.00317156
0.873374
1.08133
0.196306
0.0033471
0.00431262
0.00312191
0.517972
0.503979
0.690509
0.517545
0.00838614
0.0930373
0.00312721
0.200516
0.00371397
0.00318209
0.216504
0.0192014
0.213661
1.07017
0.171833
0.996779
0.0287446
1.66833
0.192682
0.123102
1.26688
0.00403127
1.9603
0.0313793
0.00320007
0.232012
0.00323636
0.234558
0.00431851
0.158543
0.00510534
0.23629
0.581868
0.206121
0.00578957
0.0167275
0.143518
0.271339
0.0241936
0.176633
1.8625
0.300248
0.00451428
0.962041
0.374064
0.058014
0.210715
0.00310624
0.112129
0.151583
0.00314672
0.247113
0.00322688
1.25385
0.00701062
0.0265265
0.00356073
0.125288
0.0130996
0.144929
0.0822034
0.982207
0.295153
0.335421
0.0030887
1.85383
0.738228
1.95624
0.0176104
0.00309113
0.55994
0.00311792
0.308899
0.133586
0.702206
1.00659
0.428944
0.0616058
0.372318
0.00338465
0.261438
0.00317955
0.00315318
0.177436
0.0031855
0.475648
0.00312048
0.935482
0.00473142
0.282879
0.294487
0.27066
0.163106
0.0031272
3.12449
0.998187
0.320017
0.417235
0.215649
0.325445
0.102502
0.0895611
0.22322
0.683085
0.21148
0.290182
0.880259
0.500391
0.399741
0.00315438
0.284243
0.0127843
0.414559
3.19991
0.213303
0.297829
0.999312
0.341819
0.00315591
0.00318598
1.28287
1.09476
0.00326561
4.15045
0.0314247
0.311893
0.118916
0.00311943
0.921152
0.401784
0.254058
0.244944
1.05621
0.633909
0.321358
0.151208
0.156812
1.23292
1.65562
0.372887
0.283674
0.229318
0.00349613
1.37109
0.291024
0.635398
0.705323
0.36917
3.91403
0.240136
0.234383
0.200201
0.309532
0.564019
0.344501
0.210939
0.258954
0.0154613
0.0880336
0.682469
0.262954
0.90222
0.506258
0.349325
1.48338
0.275809
0.049149
1.60973
0.209627
0.208915
1.66536
0.246029
0.260636
0.305327
0.206302
0.865643
0.242401
0.374322
0.332061
0.597994
0.271994
0.461742
0.208397
1.09847
0.126093
0.204359
1.63783
0.22652
0.225085
0.28523
0.918631
0.116185
0.206679
0.0660592
0.483486
0.181051
0.100546
1.35414
2.01979
0.149479
0.933297
0.327065
0.00318774
0.195125
0.16214
0.206348
0.291887
0.00315676
1.16333
0.32186
0.0655974
0.225912
0.744128
0.00315188
0.63594
0.0377857
0.565514
0.410159
4.87472
0.505013
0.740303
0.52451
0.00313839
0.00317151
0.287975
0.432387
0.00314539
0.50454
0.00311794
0.00316942
0.00322381
0.00311794
0.136859
0.00316324
0.00577393
1.00856
0.511813
0.00322899
0.334052
0.00967869
0.196435
0.295061
1.26203
4.08723
0.466706
0.00309186
0.00323694
0.0800629
0.129967
0.209049
0.00309115
0.0969034
0.319233
0.859132
0.368089
0.179975
0.27675
1.00484
4.02728
0.151556
0.316412
0.00364447
0.00318498
0.152887
0.246146
0.113596
0.175688
0.507438
2.73944
1.66406
0.140303
0.342894
0.992749
0.00319607
0.408627
0.729448
0.00523385
0.00318636
0.520086
3.79084
0.734229
0.00312453
0.0475678
0.151403
0.0250695
0.00320121
0.81464
0.372494
0.280421
0.284236
0.00374114
3.75848
0.00314212
0.229953
0.530141
0.0064157
0.010985
0.93606
0.00868126
1.38424
0.764367
1.12785
0.637472
0.173891
0.682647
0.00313921
0.0031418
0.00317183
1.01722
0.0737528
1.26014
2.74431
0.162662
0.591312
0.00318123
0.0100062
0.274901
0.00309296
0.00317018
0.702641
0.00314037
0.222178
0.896425
0.374243
0.00309097
0.00740573
0.108261
0.113391
0.236115
0.14148
0.00310767
3.2948
0.818052
0.106798
0.012191
0.330949
0.200006
0.00702134
0.279027
0.00680581
0.822519
0.00351924
0.248889
0.128943
0.00311718
1.27603
0.237533
0.321371
0.00920097
0.459188
0.142302
0.00513663
0.217913
0.492713
0.344289
1.10752
0.0235774
0.0495089
0.0113416
1.28736
0.659302
0.0609196
0.134269
0.158869
0.334095
0.178017
0.513754
1.10131
0.00309828
2.01184
0.895112
0.225066
0.00310272
0.270972
0.937602
0.021725
0.438856
0.350224
0.250049
0.12414
0.179369
0.259255
0.00357789
0.0185839
0.856408
0.0383085
0.00441412
0.921812
4.02969
0.0386914
0.202666
0.769108
0.0860553
0.491059
0.262497
0.824894
0.320192
0.294439
0.00323994
0.0829263
0.45081
0.381212
1.30743
0.21716
1.39497
0.935886
3.6986
0.863992
0.302787
0.00316659
1.24078
0.204783
0.783215
0.404034
0.157903
0.0821509
0.413665
0.00324738
0.298751
0.00317757
0.344986
0.409136
0.213642
0.177293
1.24594
0.241475
1.01505
0.625232
1.94189
0.00322701
0.120286
0.913098
2.42473
0.193922
0.700731
0.00360534
0.0276679
0.340346
1.82445
0.577548
0.0031057
0.0569593
0.0031232
0.0573185
0.351528
0.0368006
0.824366
0.139378
0.591157
0.152031
0.121498
1.22796
0.70783
0.00319505
0.0031963
0.256049
1.19211
0.278758
0.584383
0.43223
0.650328
0.26995
0.00309118
0.181367
0.25413
0.00482746
1.02813
0.265605
0.178729
0.277517
0.0124637
0.00309958
0.0232316
0.00313879
0.630933
0.800035
0.710929
0.622401
0.00319106
1.45045
0.0875645
0.743173
0.131419
1.70135
0.00763454
0.151137
0.00310622
0.496489
0.714764
0.317607
0.399682
0.00309162
1.27598
0.787393
0.511299
0.00313485
0.0655991
0.794154
0.600862
0.00603304
2.1678
0.00372486
0.779824
0.594757
0.00361863
0.128724
0.0858123
0.197622
0.00310804
0.00319879
1.13349
0.43366
0.322622
0.527322
0.00484415
0.125542
0.0960449
0.750655
0.206415
0.00393898
0.200766
1.20624
0.00309064
0.00809124
0.289793
0.638778
1.09431
0.00315719
0.728394
0.224649
1.28386
0.0289617
0.150168
0.81595
0.00319754
0.199993
0.134642
0.375162
0.372473
0.702295
0.264084
1.19275
1.1542
0.281132
2.69078
0.00323327
0.00314985
1.46902
0.765181
0.00472443
0.00315668
0.461504
0.00320624
0.805095
0.539608
0.242194
0.00313047
0.7896
0.0453329
0.294697
1.19076
0.238506
0.14473
0.140684
1.32118
0.00319207
0.28068
0.960587
0.237751
0.542882
0.00665055
0.520515
0.256215
2.02938
0.0031302
0.144155
0.664656
0.304628
0.00332145
0.0933937
0.345645
0.442574
1.24349
0.0576764
1.84229
0.407971
0.0903803
0.404469
0.00313402
0.00727207
0.349341
0.00308743
0.177639
0.00316493
0.244965
0.0106366
0.820645
0.00324615
0.108055
0.496549
1.5791
0.345335
0.652748
0.159014
2.40601
0.0153674
0.0915354
0.557251
0.00310374
0.00320597
0.379847
0.151633
0.249027
0.389993
0.00328553
0.216409
0.219078
0.201486
0.480675
1.12355
0.200712
0.0031966
1.88091
2.41095
0.507249
0.00323832
0.0106217
2.05753
0.263911
0.00312232
1.26805
0.00310473
0.0786021
2.6997
0.00353742
0.290342
0.00314934
0.0550818
0.751426
0.00324368
0.00399971
0.00318304
0.00378936
0.0213042
3.75691
0.786355
0.0914069
0.241468
0.0031639
0.74312
0.00317296
0.241491
0.226819
0.0240247
0.157186
0.0136007
1.12694
0.00318731
4.29651
0.208075
0.60985
0.348842
0.160304
0.00310101
0.195951
1.07658
0.127014
0.728234
0.866866
1.66329
0.348848
0.0411181
0.610258
0.0819531
0.00404364
0.103718
2.45587
1.12178
0.116683
0.00732841
0.300633
0.00374128
0.432113
0.852714
1.06513
0.818999
0.87706
0.0364648
0.00579862
0.329603
0.227848
0.0474317
0.27335
0.00315977
0.261339
1.93017
0.00329797
1.66565
0.764425
0.112666
0.099306
1.42389
0.0232491
0.0986238
0.443871
0.302796
0.286579
0.00322321
0.657626
0.074822
0.270927
0.38223
0.199602
0.211747
0.00679669
0.664986
0.00317326
0.00316012
0.226915
0.102316
0.153995
1.88379
0.00309071
1.11694
0.0631316
0.0563056
0.00340511
1.68992
0.351812
0.0877106
0.766395
0.0582483
1.15754
0.151293
0.00314219
1.19261
2.05307
0.00540609
0.00861896
0.204122
1.01754
0.0967367
1.32287
0.0344886
0.22733
0.10128
0.153274
0.663795
0.203725
0.00318761
1.153
0.331823
0.0147898
0.191991
4.19934
0.27906
0.0031763
0.00310663
0.746263
0.186679
0.992258
0.00308979
0.697775
0.288359
0.410074
0.00375872
0.313289
0.758855
0.00532733
0.261614
0.00321353
1.10109
0.213559
0.348787
0.265048
0.00314562
0.00314542
0.343699
1.37788
0.376084
0.714624
0.00310937
0.0445673
0.0032087
0.00619224
1.13691
0.0722785
0.0945137
0.12115
0.328306
0.304922
0.355655
1.1851
0.00317219
0.307847
0.714261
0.248866
0.0031924
0.922408
0.00320277
0.00316597
0.0860738
0.214969
0.0246635
1.35134
0.206028
2.75528
0.00328027
0.00474779
0.0385032
0.902378
0.29698
0.961849
0.00316726
0.00314769
0.0062334
0.00825191
1.0787
0.787297
0.641322
0.121025
0.0437582
0.307226
0.162522
0.577347
0.274628
0.860528
0.311512
0.00309229
0.330438
0.00533146
0.188034
0.870003
0.186919
0.227101
0.12912
0.00379425
1.31707
0.504268
0.469822
0.318055
0.00315864
0.588452
0.744415
0.333119
0.00801541
0.893499
0.481972
0.819657
0.327244
0.336154
0.583518
0.117476
0.858888
0.246533
0.0954004
0.236606
0.00317753
1.19025
0.862002
0.00312132
0.665672
0.0047435
0.54013
0.205106
0.231341
0.269988
0.730047
0.92498
0.260964
0.127256
0.176286
0.217941
0.0123079
0.00311997
1.0082
0.0601918
0.920051
0.549551
0.214369
0.815875
0.547044
0.00314456
0.280749
1.53131
1.05894
0.225235
0.240652
0.556217
1.86272
0.191369
0.228849
0.0244444
0.0815684
0.549506
1.17157
0.109088
0.823331
0.800303
0.764268
0.23919
0.224929
0.413092
0.675454
0.00319145
1.9076
0.669775
0.197002
0.00319068
0.572642
0.458555
0.296765
0.00318423
0.591021
0.0031719
0.241738
0.0892383
0.00319249
0.804435
0.34928
0.0031082
0.531069
0.375838
0.592809
0.259628
0.51899
0.278874
0.680856
0.170515
0.151435
0.00313058
0.0046736
0.347054
0.171054
0.0198164
0.00324117
0.356645
0.00597112
0.116424
0.115859
0.433658
0.205375
0.0564134
0.0928908
0.55292
1.60732
0.332722
4.06424
0.851131
0.00311922
0.540292
0.574467
1.64734
0.00312686
0.170096
0.00318784
0.00358023
0.280322
0.281219
0.0382772
0.00340234
0.782865
3.68862
0.0072978
0.00317525
0.127648
0.251507
0.0234044
0.0721424
3.81386
0.136246
0.00338675
0.00317576
0.948934
0.266117
0.131693
0.05794
0.651285
1.13077
0.393183
0.247554
0.660515
0.00317316
0.487423
0.00315914
0.23138
0.276653
5.31753
0.175691
0.0878467
0.00381047
1.16264
0.00319442
0.00313389
0.00579209
0.271321
0.290337
0.956202
0.00314889
0.493126
0.00317129
0.689885
0.956328
0.00320489
0.7265
0.216894
0.00317248
0.00329823
0.030912
1.08009
0.37382
0.0259163
0.00317315
0.00313331
0.847582
0.685086
0.326406
0.736331
0.114304
0.43791
0.00314843
0.0101871
0.372694
0.80986
0.737514
0.00874479
0.00317603
0.400706
0.00320924
0.204302
0.805289
0.342833
0.0421726
0.20134
0.491867
0.152131
0.00316928
0.501325
1.30579
0.648738
0.00634976
0.0300789
0.673312
3.67722
0.0533605
0.364357
0.00311204
0.00311182
0.00321184
0.0184688
0.404018
1.05289
0.0096634
0.221172
0.618338
1.23174
0.204154
0.0193472
0.00785173
0.00750874
0.152811
0.172898
0.24002
0.00322348
1.31732
0.00314278
0.0134531
0.821937
0.833889
0.035466
0.363143
0.456153
0.00407992
0.128287
0.24432
0.00315467
0.00377328
1.09712
0.00364476
0.00322479
0.708444
0.238521
2.09061
0.207404
2.38888
0.00356219
0.00313024
3.21696
0.297933
0.219612
0.488649
0.0588615
0.235877
0.191891
1.01925
0.79602
0.588007
0.581921
0.233558
0.109378
0.325133
0.727428
0.014406
0.353182
0.00392071
0.439564
0.362843
0.104434
0.373446
0.186093
0.404098
0.199389
0.264954
1.09891
0.462586
0.218347
0.320109
0.693147
0.31537
0.00418811
0.00315938
0.108809
2.1887
0.00316163
1.75767
0.00312992
0.00972684
0.338365
0.221936
0.801859
0.675188
0.9005
1.11628
0.506226
0.389892
0.0031658
0.2896
1.03643
0.00323919
1.22265
0.00705222
1.70542
0.939414
1.1315
0.275636
0.206851
0.274172
0.0902777
0.286487
1.21137
0.360702
0.764977
0.166975
0.203789
0.0837259
0.231983
0.944732
0.00941021
0.646519
0.0031942
0.00391637
0.299925
1.48905
0.337881
0.275306
0.160798
0.108125
0.118286
0.00349762
0.340216
0.00349977
0.700924
0.00343733
0.0567457
0.941988
0.168875
0.298552
0.332942
0.316164
0.00616088
0.00321215
0.0965735
0.26821
0.111983
0.518264
0.0415746
0.367435
0.229728
0.376182
0.788734
0.00358341
0.0031478
1.65646
0.221916
0.169129
0.791323
0.671566
0.799029
0.00970884
1.65357
0.338421
0.21331
0.00346816
0.191859
0.402839
0.206121
0.202592
0.265144
0.0032455
0.460467
0.00313485
0.625791
0.0105286
0.439185
0.115198
0.397205
0.00324326
6.48156
0.00319246
1.48208
0.0248075
0.00317377
0.01424
0.275541
0.00317066
0.00318024
0.383056
0.0317418
0.327977
0.0557783
0.00332695
0.222039
0.183422
0.447302
0.00333483
0.223959
0.188546
1.35395
0.689066
0.395822
0.42013
0.215723
0.297506
0.775871
0.830016
0.211599
0.00322412
0.140601
0.361582
0.308037
0.00469612
0.00842219
0.237526
1.57106
0.00318405
0.200255
1.21179
0.00309722
0.830797
0.916392
0.355622
0.59619
0.777662
0.259304
0.127141
2.54879
0.400083
0.859883
0.803216
0.223955
0.104524
0.00316613
0.422183
0.00582243
0.00321786
0.00313422
0.302312
0.00316624
0.00373232
0.523196
4.03027
0.398378
0.203475
0.815156
0.238852
0.00318018
0.167301
1.14251
0.0247907
0.160914
0.99702
0.315767
0.122094
0.0304977
0.00314343
0.00316728
0.0267513
0.043639
0.30638
0.303163
1.21104
0.269199
0.268904
0.00393866
0.50103
0.216342
0.0032118
0.34195
3.32976
0.00320827
0.352259
1.01466
0.719783
0.657571
0.185205
1.07615
0.00355238
0.205036
0.00331354
0.00628588
0.00320969
0.813292
0.554109
0.0724419
0.00319319
0.00308855
1.11237
0.385946
0.281829
0.238526
0.344625
0.435207
0.304952
0.339425
0.353101
0.00317713
0.147697
0.11995
0.133065
0.384099
1.03775
0.746582
0.593458
0.366179
1.09423
0.826409
0.935275
0.419596
0.861826
0.0630568
0.806134
0.394517
0.0273513
1.00851
0.836928
0.435103
0.00313494
0.00320078
0.0035988
0.00442161
0.475399
0.00308682
0.495801
0.166382
0.99461
0.749058
0.00317019
0.461555
0.285291
0.187884
0.274775
0.389778
0.539144
0.00326149
0.00319927
0.00895819
0.0981812
0.00313268
0.638741
0.266863
0.242921
0.739961
0.50109
0.443675
0.533302
0.00316782
0.318211
0.65205
0.0037992
0.0771157
0.412524
0.314559
0.521194
0.191826
0.00325198
0.379253
0.362082
0.00383518
0.0201107
0.00315746
0.180445
0.00438031
0.139526
1.26307
0.11011
0.0719022
0.982581
1.81037
0.00326506
0.609483
0.00311003
0.223388
0.347391
0.251169
0.466459
0.689795
0.659746
0.799119
1.19807
0.726395
0.00317834
0.00314509
0.0519833
0.099297
0.588773
0.170655
0.00319302
1.55922
0.246315
0.00816232
0.76842
0.0572258
0.00804538
0.0392509
0.977571
0.00638902
0.0031929
0.261781
0.206567
0.624963
0.10983
0.22776
0.201035
0.00321114
0.290119
0.0883854
0.058736
0.00337146
0.205359
0.518038
0.171479
1.42245
1.30827
0.316109
0.404849
0.00316311
0.36204
0.00320951
2.68748
0.0101398
0.429927
0.0922951
0.821616
0.0159399
0.00922667
0.237014
0.299643
1.29594
0.0035673
0.205549
0.484109
0.611582
0.182513
0.997401
0.117768
0.00342751
0.00320505
0.471097
0.619879
1.05223
0.282232
0.082619
0.531022
0.330449
0.798094
0.0448226
0.00316814
0.00318273
0.119071
0.705344
0.673938
0.964949
0.00353338
0.010811
0.161914
0.455752
0.271875
0.740469
0.352593
0.860204
0.00319883
0.0032083
1.1138
0.275166
0.866332
2.84939
0.363222
0.0241911
1.38522
0.00318783
1.02131
0.0269282
0.0299165
0.00317007
0.0405968
0.0824314
0.818588
0.775778
0.00322673
0.757802
0.00315941
0.603518
1.53637
0.00314499
0.152654
0.00322656
0.262051
0.124877
0.171507
0.00310092
0.262432
0.212043
0.256399
1.00142
0.163955
1.19947
0.209174
0.810114
0.240102
1.09509
0.619068
0.00382684
0.00320581
0.377009
0.189474
0.798548
0.00317703
2.07635
0.00315889
0.00476008
0.0314461
0.00315882
1.12838
0.94881
0.00324379
0.649521
0.249792
0.100108
0.692102
0.00603562
0.00313031
0.426421
0.373606
0.00957563
0.75794
6.59133
1.33129
0.149549
1.17247
0.101795
0.00318515
0.00367465
0.0344353
0.135617
0.825359
1.06467
1.30217
0.776375
0.532062
0.496701
0.246995
0.62714
1.90787
0.584415
0.0421385
0.0764736
0.267959
1.47724
0.00337813
0.189687
0.640042
0.331764
0.00317143
0.427523
0.003086
0.0136236
0.842569
0.00340709
0.300059
1.83325
0.00318983
0.350858
0.00353861
0.335397
0.0137646
0.00406232
0.747908
0.258165
0.896307
0.388636
1.09765