/*--------------------------------*- C++ -*----------------------------------*\
| =========                 |                                                 |
| \\      /  F ield         | OpenFOAM: The Open Source CFD Toolbox           |
|  \\    /   O peration     | Version:  2.3.1                                 |
|   \\  /    A nd           | Web:      www.OpenFOAM.org                      |
|    \\/     M anipulation  |                                                 |
\*---------------------------------------------------------------------------*/
FoamFile
{
    version     2.0;
    format      ascii;
    class       volScalarField;
    location    "0.24";
    object      nut;
}
// * * * * * * * * * * * * * * * * * * * * * * * * * * * * * * * * * * * * * //

dimensions      [0 2 -1 0 0 0 0];

internalField   nonuniform List<scalar> 
15166
(
9.71216e-05
0.000156157
0.000260037
0.000373055
0.000472172
0.000585668
0.000702693
0.000829746
0.000948262
0.00107013
0.0011857
0.0012848
9.71397e-05
0.000169884
0.000280481
0.000393344
0.000496034
0.000608547
0.000724268
0.000846518
0.000962717
0.00108011
0.00119138
0.00129127
9.75072e-05
0.000181032
0.000296513
0.000410064
0.000515613
0.000627513
0.000741967
0.000860513
0.000974522
0.00108814
0.00119586
0.00129555
9.79847e-05
0.000191009
0.000310169
0.000424467
0.00053205
0.000643402
0.000756605
0.000872188
0.000984087
0.00109445
0.00119919
0.00129872
9.84951e-05
0.000200027
0.000322242
0.000437246
0.000546188
0.000656953
0.000768865
0.000881956
0.000991826
0.00109933
0.00120158
0.00130051
9.90466e-05
0.00020813
0.000333061
0.00044871
0.000558534
0.000668629
0.000779237
0.000890152
0.000998041
0.00110299
0.00120303
0.00130122
9.9634e-05
0.000215408
0.000342885
0.000459086
0.000569391
0.000678777
0.000788079
0.000897016
0.001003
0.00110562
0.00120366
0.00130155
0.000100255
0.000221944
0.000351914
0.000468538
0.000579031
0.000687654
0.00079566
0.000902771
0.00100692
0.00110743
0.00120383
0.00130202
0.000100891
0.000227803
0.000360299
0.000477254
0.000587682
0.00069548
0.000802199
0.000907608
0.00100997
0.00110855
0.00120353
0.00130167
0.000101537
0.000233023
0.000368127
0.000485327
0.000595513
0.000702443
0.000807874
0.000911653
0.00101232
0.00110913
0.00120291
0.00130081
0.00010219
0.000237658
0.000375466
0.000492851
0.000602641
0.000708667
0.000812822
0.00091504
0.00101407
0.00110931
0.00120221
0.00130094
0.000102841
0.000241739
0.000382349
0.000499896
0.000609171
0.000714264
0.000817156
0.000917871
0.00101535
0.00110918
0.00120142
0.00130027
0.000103488
0.000245309
0.000388816
0.000506504
0.000615196
0.000719329
0.000820963
0.000920227
0.00101622
0.0011088
0.00120044
0.00129856
0.000104128
0.000248426
0.000394886
0.00051272
0.00062077
0.000723918
0.00082432
0.000922176
0.00101678
0.00110818
0.00119903
0.00129595
0.000104761
0.000251101
0.000400577
0.000518591
0.000625951
0.000728109
0.000827289
0.000923792
0.00101706
0.00110737
0.0011975
0.00129369
0.000105378
0.000253387
0.000405886
0.000524133
0.000630782
0.000731936
0.000829911
0.000925099
0.00101711
0.00110639
0.00119578
0.00129072
0.000105986
0.000255305
0.00041082
0.000529371
0.000635302
0.000735449
0.000832239
0.000926163
0.00101696
0.00110526
0.00119387
0.00128776
0.000106575
0.000256901
0.0004154
0.000534333
0.000639553
0.000738694
0.000834317
0.000926993
0.00101664
0.00110398
0.00119175
0.00128432
0.000107146
0.000258207
0.000419617
0.000539022
0.000643539
0.000741679
0.000836151
0.000927641
0.00101617
0.00110258
0.00118952
0.00128095
0.000107703
0.00025924
0.000423492
0.000543451
0.000647303
0.000744444
0.000837792
0.000928116
0.00101557
0.00110107
0.00118719
0.00127759
0.000108245
0.00026004
0.000427016
0.00054763
0.000650843
0.000747006
0.000839244
0.000928436
0.00101485
0.00109946
0.00118468
0.00127376
0.000108768
0.000260618
0.000430201
0.000551576
0.000654193
0.000749379
0.000840528
0.000928621
0.00101403
0.00109775
0.00118203
0.00126982
0.000109265
0.000261011
0.000433062
0.000555274
0.000657349
0.000751589
0.000841672
0.000928694
0.00101312
0.00109595
0.0011793
0.00126667
0.000109753
0.000261232
0.0004356
0.000558743
0.000660331
0.00075365
0.000842689
0.000928666
0.00101212
0.00109405
0.00117647
0.00126298
0.000110216
0.000261294
0.000437823
0.000561995
0.000663149
0.000755573
0.000843584
0.000928534
0.00101103
0.00109208
0.00117363
0.00125989
0.000110662
0.000261232
0.000439742
0.000565024
0.000665811
0.000757361
0.000844367
0.00092832
0.00100988
0.00109004
0.00117075
0.00125633
0.000111092
0.000261044
0.000441367
0.000567822
0.000668321
0.000759032
0.000845056
0.000928024
0.00100866
0.00108796
0.00116793
0.00125353
0.0001115
0.000260767
0.000442724
0.000570404
0.000670676
0.000760585
0.000845659
0.000927656
0.00100738
0.00108585
0.0011652
0.00125093
0.000111888
0.000260393
0.000443802
0.000572781
0.00067289
0.000762034
0.000846166
0.000927228
0.00100606
0.00108372
0.00116245
0.00124752
0.000112256
0.000259924
0.000444635
0.000574936
0.000674967
0.000763379
0.000846602
0.000926733
0.00100469
0.00108157
0.00115972
0.00124466
0.0001126
0.000259409
0.00044521
0.000576882
0.000676899
0.000764631
0.000846963
0.00092619
0.00100329
0.00107942
0.00115697
0.00124121
0.000112934
0.000258822
0.000445567
0.000578613
0.0006787
0.000765788
0.000847262
0.000925591
0.00100186
0.00107725
0.00115424
0.00123828
0.000113256
0.000258184
0.000445695
0.000580152
0.000680369
0.00076686
0.000847489
0.000924954
0.00100041
0.00107508
0.00115147
0.00123465
0.000113546
0.000257514
0.000445632
0.000581484
0.000681902
0.000767843
0.000847663
0.000924276
0.000998925
0.00107289
0.00114871
0.00123155
0.000113823
0.000256809
0.000445368
0.00058263
0.000683307
0.000768739
0.000847779
0.000923561
0.000997418
0.00107069
0.00114592
0.0012279
0.000114093
0.000256078
0.000444938
0.000583566
0.000684578
0.000769559
0.000847846
0.000922809
0.000995891
0.00106849
0.00114317
0.00122508
0.000114329
0.000255319
0.00044433
0.000584325
0.000685723
0.000770294
0.000847853
0.000922017
0.000994347
0.00106629
0.00114048
0.00122254
0.00011456
0.000254545
0.000443569
0.000584892
0.000686736
0.000770955
0.000847817
0.000921203
0.000992791
0.00106409
0.0011378
0.00121922
0.00011477
0.00025376
0.000442667
0.000585283
0.000687626
0.000771528
0.000847732
0.000920363
0.000991228
0.0010619
0.00113512
0.001216
0.000114959
0.000252968
0.000441636
0.000585503
0.000688394
0.000772038
0.000847602
0.000919492
0.00098965
0.00105972
0.00113244
0.00121261
0.00011514
0.000252157
0.000440484
0.000585548
0.000689034
0.000772462
0.000847426
0.000918603
0.000988064
0.00105752
0.00112964
0.0012087
0.000115296
0.000251268
0.000439199
0.000585432
0.000689547
0.000772816
0.000847207
0.000917686
0.000986469
0.00105531
0.00112683
0.00120585
0.000115444
0.00025035
0.00043782
0.000585161
0.000689942
0.000773093
0.000846946
0.000916755
0.000984867
0.00105309
0.00112402
0.00120243
0.000115566
0.000249368
0.000436301
0.000584727
0.000690212
0.000773292
0.000846642
0.000915796
0.000983249
0.00105086
0.00112124
0.00119964
0.000115671
0.000248383
0.00043462
0.000584145
0.000690364
0.000773413
0.000846296
0.000914817
0.000981623
0.00104862
0.00111846
0.00119615
0.000115765
0.000247435
0.000432814
0.000583396
0.00069039
0.000773465
0.000845915
0.00091382
0.00097999
0.00104639
0.00111572
0.00119356
0.000115846
0.000246435
0.000430918
0.00058244
0.000690276
0.00077344
0.000845487
0.000912802
0.000978344
0.00104416
0.00111299
0.00119016
0.000115902
0.000245467
0.000428929
0.000581348
0.000690027
0.000773328
0.000845014
0.000911765
0.000976692
0.00104192
0.00111029
0.00118751
0.000115948
0.000244503
0.000426903
0.000580089
0.000689641
0.000773139
0.000844502
0.000910699
0.000975032
0.0010397
0.00110761
0.00118427
0.000115982
0.000243545
0.000424768
0.000578686
0.00068913
0.000772854
0.000843942
0.000909618
0.000973357
0.00103747
0.00110495
0.00118164
0.000116005
0.000242629
0.000422577
0.000577144
0.000688495
0.000772499
0.000843336
0.000908515
0.000971683
0.00103525
0.00110225
0.00117802
0.00011601
0.000241676
0.000420334
0.000575449
0.000687722
0.000772044
0.000842681
0.000907384
0.000969997
0.00103303
0.00109956
0.00117465
0.000116001
0.000240777
0.00041805
0.00057365
0.000686824
0.000771509
0.000841978
0.000906238
0.000968309
0.00103082
0.00109691
0.0011723
0.000115984
0.000239883
0.000415728
0.000571708
0.000685791
0.000770889
0.000841232
0.00090507
0.000966616
0.00102862
0.0010943
0.00116954
0.000115947
0.000238999
0.000413375
0.000569652
0.000684636
0.000770176
0.000840434
0.000903878
0.000964918
0.00102642
0.00109174
0.00116684
0.000115893
0.000238121
0.000410996
0.000567489
0.000683359
0.000769367
0.000839581
0.000902663
0.000963216
0.00102424
0.00108916
0.00116348
0.000115836
0.000237299
0.000408601
0.000565224
0.000681949
0.000768472
0.000838681
0.000901424
0.000961506
0.00102207
0.0010866
0.00116057
0.000115761
0.000236444
0.00040619
0.000562842
0.000680422
0.000767487
0.000837717
0.000900159
0.0009598
0.00101991
0.001084
0.00115686
0.000115669
0.000235642
0.000403767
0.000560369
0.000678765
0.000766394
0.00083671
0.000898876
0.000958089
0.00101775
0.00108144
0.00115485
0.000115576
0.000234854
0.000401372
0.000557837
0.000677009
0.000765221
0.000835633
0.000897556
0.000956362
0.00101559
0.00107889
0.00115204
0.000115463
0.000234102
0.000398938
0.000555201
0.000675125
0.000763944
0.000834502
0.000896213
0.000954633
0.00101343
0.00107635
0.00114891
0.000115335
0.000233327
0.000396503
0.000552488
0.000673116
0.000762566
0.000833305
0.000894832
0.000952892
0.00101129
0.0010738
0.00114544
0.000115197
0.000232603
0.000394076
0.000549708
0.000671017
0.000761095
0.000832044
0.000893427
0.000951143
0.00100914
0.00107125
0.00114248
0.000115051
0.000231893
0.00039169
0.000546844
0.000668796
0.000759523
0.000830724
0.000891988
0.000949391
0.001007
0.00106868
0.00113901
0.00011489
0.000231225
0.00038928
0.000543947
0.000666475
0.000757858
0.000829334
0.000890515
0.000947623
0.00100486
0.0010661
0.00113613
0.000114724
0.000230565
0.000386914
0.000540995
0.000664041
0.000756098
0.000827876
0.000889013
0.000945849
0.00100271
0.00106352
0.00113285
0.000114521
0.000229896
0.000384557
0.000537973
0.000661523
0.000754234
0.000826355
0.000887468
0.000944051
0.00100056
0.00106095
0.00113015
0.00011435
0.000229283
0.000382232
0.000534925
0.000658906
0.000752276
0.000824765
0.000885885
0.000942245
0.000998405
0.00105836
0.00112684
0.000114133
0.000228688
0.000379919
0.00053184
0.000656186
0.000750216
0.000823097
0.000884259
0.000940412
0.000996246
0.00105579
0.00112384
0.000113893
0.000228112
0.000377631
0.000528712
0.000653395
0.000748072
0.000821356
0.000882593
0.000938568
0.000994077
0.00105319
0.00112044
0.000113669
0.00022753
0.000375381
0.000525539
0.000650503
0.000745828
0.000819547
0.000880877
0.000936698
0.000991896
0.00105059
0.00111747
0.000113425
0.000227043
0.000373141
0.000522354
0.000647537
0.000743478
0.000817662
0.000879116
0.000934804
0.0009897
0.00104797
0.00111397
0.000113174
0.000226493
0.000370978
0.000519185
0.000644503
0.000741044
0.000815693
0.000877308
0.00093289
0.000987496
0.00104532
0.00111054
0.000112905
0.000226028
0.000368765
0.000515932
0.000641355
0.000738501
0.000813637
0.000875443
0.000930939
0.000985277
0.00104268
0.00110747
0.000112627
0.000225582
0.000366659
0.000512706
0.00063818
0.000735879
0.00081152
0.000873529
0.000928968
0.000983048
0.00104004
0.00110417
0.00011231
0.000225091
0.000364559
0.000509454
0.000634914
0.000733174
0.000809316
0.000871569
0.000926969
0.000980803
0.00103741
0.00110138
0.000112011
0.000224668
0.000362515
0.00050621
0.000631577
0.000730365
0.00080703
0.000869539
0.000924927
0.000978542
0.00103475
0.00109805
0.000111719
0.000224319
0.00036052
0.000502954
0.000628194
0.000727465
0.000804663
0.000867461
0.000922859
0.00097626
0.00103208
0.00109508
0.000111385
0.000223921
0.000358545
0.000499708
0.000624747
0.000724489
0.000802215
0.000865321
0.000920746
0.000973959
0.0010294
0.00109167
0.000111024
0.000223567
0.000356624
0.000496458
0.000621259
0.000721425
0.000799684
0.000863121
0.0009186
0.000971628
0.00102673
0.00108891
0.000110683
0.000223245
0.000354715
0.000493227
0.000617709
0.000718271
0.000797067
0.000860848
0.000916412
0.000969272
0.00102403
0.0010857
0.000110318
0.000222933
0.000352893
0.000489989
0.000614101
0.000715023
0.000794374
0.000858511
0.000914174
0.000966892
0.00102129
0.00108209
0.000109942
0.000222654
0.000351121
0.000486787
0.00061047
0.000711721
0.000791585
0.000856107
0.00091189
0.000964493
0.00101855
0.00107876
0.000109555
0.000222396
0.000349376
0.000483613
0.000606794
0.000708331
0.00078871
0.000853626
0.000909561
0.000962058
0.00101583
0.00107601
0.000109155
0.000222156
0.000347685
0.000480463
0.00060307
0.000704866
0.00078576
0.000851076
0.000907181
0.000959599
0.00101307
0.00107275
0.000108717
0.000221922
0.000346032
0.000477291
0.000599347
0.000701334
0.000782712
0.000848467
0.000904746
0.000957097
0.00101031
0.00106988
0.000108296
0.000221723
0.000344428
0.000474174
0.000595583
0.000697708
0.000779589
0.000845765
0.000902262
0.000954569
0.00100753
0.00106639
0.000107858
0.000221549
0.000342884
0.000471113
0.000591767
0.000694025
0.000776363
0.000842989
0.000899728
0.000952013
0.00100475
0.00106356
0.000107407
0.000221405
0.000341394
0.000468073
0.000587966
0.000690263
0.000773051
0.000840134
0.000897125
0.000949423
0.00100199
0.00106078
0.000106944
0.000221283
0.000339919
0.000465044
0.000584126
0.000686432
0.00076966
0.000837196
0.000894449
0.000946777
0.000999221
0.00105839
0.000106467
0.000221186
0.000338544
0.000462095
0.000580299
0.000682568
0.000766185
0.000834184
0.000891724
0.000944108
0.00099641
0.00105464
0.000105978
0.00022112
0.000337224
0.000459156
0.000576439
0.000678617
0.000762633
0.000831093
0.000888936
0.000941406
0.000993603
0.00105167
0.000105448
0.000221017
0.000335921
0.000456268
0.000572583
0.000674618
0.000758995
0.000827908
0.000886076
0.00093866
0.00099072
0.00104807
0.000104959
0.000221019
0.000334685
0.000453439
0.000568726
0.000670541
0.000755266
0.000824637
0.000883148
0.000935856
0.000987805
0.00104475
0.000104401
0.00022098
0.000333515
0.000450664
0.000564855
0.000666455
0.000751446
0.000821272
0.000880154
0.000933001
0.000984814
0.00104103
0.000103857
0.000220987
0.000332412
0.000447955
0.000561033
0.000662292
0.000747552
0.000817829
0.000877078
0.000930083
0.000981808
0.00103795
0.000103298
0.000220985
0.000331339
0.000445275
0.000557197
0.000658096
0.000743572
0.000814287
0.000873916
0.000927098
0.000978716
0.00103424
0.000102724
0.000221069
0.000330338
0.000442669
0.000553384
0.00065384
0.000739504
0.000810667
0.000870677
0.000924063
0.000975622
0.00103102
0.000102108
0.000221073
0.000329406
0.000440134
0.000549576
0.000649578
0.000735367
0.000806947
0.000867363
0.000920954
0.000972441
0.00102733
0.000101503
0.000221179
0.000328507
0.000437639
0.000545801
0.000645244
0.000731154
0.000803117
0.000863946
0.000917776
0.000969275
0.00102442
0.000100884
0.00022128
0.000327689
0.00043523
0.000542071
0.000640916
0.000726854
0.000799201
0.000860442
0.000914512
0.000966045
0.00102094
0.000100249
0.000221425
0.000326949
0.000432871
0.000538355
0.000636547
0.000722491
0.000795205
0.000856852
0.000911199
0.000962739
0.0010171
9.95964e-05
0.000221608
0.000326242
0.000430604
0.000534695
0.000632167
0.000718046
0.000791098
0.000853165
0.000907804
0.000959407
0.00101378
9.89286e-05
0.000221782
0.000325621
0.00042843
0.000531062
0.000627756
0.000713544
0.000786901
0.000849375
0.000904321
0.000956046
0.00101066
9.82168e-05
0.000221942
0.000325041
0.000426318
0.000527493
0.000623326
0.000708982
0.000782598
0.000845488
0.000900764
0.000952623
0.00100694
9.75135e-05
0.000222165
0.000324547
0.000424271
0.000523961
0.00061891
0.000704345
0.000778212
0.000841508
0.000897117
0.000949145
0.00100347
9.67653e-05
0.00022237
0.000324095
0.000422335
0.000520515
0.00061451
0.000699641
0.000773717
0.000837411
0.000893377
0.00094554
0.000999445
9.60237e-05
0.000222643
0.000323742
0.000420511
0.000517125
0.000610104
0.000694896
0.000769121
0.000833203
0.000889532
0.000941839
0.000995306
9.5295e-05
0.000222992
0.000323441
0.000418733
0.000513825
0.000605705
0.000690092
0.000764447
0.000828896
0.000885586
0.000938082
0.000991557
9.44941e-05
0.00022326
0.000323198
0.000417114
0.000510596
0.000601345
0.000685243
0.000759689
0.000824471
0.000881529
0.000934179
0.000987352
9.36939e-05
0.0002236
0.000323054
0.000415544
0.000507442
0.000597007
0.000680371
0.000754812
0.000819927
0.000877362
0.000930247
0.000983704
9.28772e-05
0.000223995
0.000322965
0.000414107
0.00050441
0.000592727
0.000675461
0.000749868
0.000815283
0.000873084
0.000926218
0.0009795
9.20125e-05
0.000224331
0.000322975
0.000412772
0.000501461
0.00058846
0.00067054
0.000744837
0.000810524
0.00086872
0.000922123
0.000975211
9.11493e-05
0.00022475
0.000323055
0.000411576
0.000498617
0.000584269
0.000665571
0.00073973
0.000805636
0.000864196
0.000917854
0.000971316
9.02676e-05
0.000225226
0.000323158
0.00041045
0.000495882
0.000580138
0.000660609
0.000734513
0.000800611
0.00085952
0.000913447
0.00096678
8.93638e-05
0.00022567
0.000323424
0.000409484
0.000493306
0.00057611
0.000655648
0.000729247
0.000795491
0.000854739
0.000908974
0.000962638
8.84352e-05
0.00022619
0.000323722
0.000408646
0.000490856
0.000572146
0.000650722
0.00072392
0.000790247
0.000849795
0.00090432
0.000957854
8.7454e-05
0.000226657
0.000324144
0.00040797
0.000488553
0.000568314
0.000645795
0.000718533
0.000784879
0.000844749
0.000899614
0.000953461
8.64415e-05
0.000227191
0.000324599
0.000407392
0.000486405
0.000564597
0.000640941
0.000713127
0.000779429
0.000839557
0.000894755
0.000948561
8.54589e-05
0.000227834
0.000325196
0.000406993
0.000484427
0.000561009
0.000636113
0.000707665
0.000773891
0.000834253
0.000889768
0.000943539
8.44325e-05
0.000228443
0.00032588
0.000406724
0.000482656
0.000557576
0.000631383
0.000702182
0.000768216
0.000828756
0.000884503
0.000938513
8.3343e-05
0.000229064
0.000326662
0.000406648
0.000481048
0.000554313
0.000626748
0.000696715
0.000762451
0.000823113
0.000879115
0.000933092
8.22174e-05
0.00022971
0.000327543
0.000406738
0.000479653
0.000551244
0.000622227
0.000691243
0.000756619
0.000817353
0.000873642
0.000928101
8.11162e-05
0.000230483
0.000328529
0.000406987
0.000478513
0.000548386
0.00061783
0.000685828
0.000750712
0.000811415
0.000867903
0.000922148
7.99402e-05
0.000231206
0.000329634
0.000407461
0.00047759
0.00054577
0.000613631
0.000680453
0.000744756
0.000805362
0.000861984
0.000916298
7.87167e-05
0.000231965
0.000330859
0.000408147
0.000476962
0.000543428
0.000609637
0.000675195
0.000738772
0.000799168
0.000855839
0.000909916
7.75114e-05
0.000232854
0.000332209
0.000409021
0.000476596
0.00054138
0.000605858
0.000670041
0.000732792
0.000792867
0.000849523
0.000903481
7.62264e-05
0.000233699
0.000333702
0.000410165
0.000476553
0.00053967
0.000602382
0.000665058
0.000726829
0.000786444
0.000843004
0.000896709
7.49131e-05
0.000234601
0.000335332
0.000411539
0.000476859
0.000538324
0.000599197
0.00066027
0.000720898
0.000779912
0.000836314
0.000890314
7.35342e-05
0.000235513
0.000337095
0.00041323
0.00047754
0.000537373
0.000596389
0.000655705
0.000715003
0.000773263
0.000829353
0.000883047
7.21243e-05
0.000236475
0.000339068
0.00041521
0.000478646
0.00053689
0.000593949
0.000651394
0.000709201
0.000766532
0.000822218
0.000875923
7.06363e-05
0.000237388
0.000341202
0.000417537
0.000480171
0.000536837
0.000591892
0.000647339
0.000703502
0.000759696
0.000814802
0.000868019
6.90977e-05
0.000238354
0.000343519
0.000420178
0.000482108
0.000537214
0.000590227
0.000643533
0.000697837
0.000752711
0.000807043
0.000860015
6.7485e-05
0.000239206
0.000345949
0.000423152
0.000484392
0.000537961
0.000588938
0.000640088
0.000692386
0.000745692
0.000799048
0.000851867
6.55099e-05
0.000238263
0.000346412
0.000425047
0.000485593
0.000537969
0.000587142
0.000636447
0.000686753
0.000738846
0.000791054
0.00084334
0.000463905
0.00154094
0.00161764
0.00186387
0.00186578
0.000604689
0.000593197
0.000461484
0.0013545
0.0020421
0.00379338
0.00200593
0.00419167
0.00141363
0.000539422
0.0013301
0.00148428
0.00501258
0.00499696
0.00131648
0.000695171
0.000476287
0.00726967
0.00352327
0.000464374
0.00162002
0.000548178
0.000749497
0.00192398
0.00120746
0.00176192
0.000334199
0.00145798
0.003758
0.0040783
0.00100174
0.000155661
0.00154859
0.000464255
0.00205865
0.00180353
0.00129098
0.00378765
0.0010268
0.000277219
0.000477716
0.00571105
0.00369835
0.000280305
0.000699209
0.00100256
0.000463933
0.000341215
0.00124158
0.00163418
0.00150115
0.00236217
0.00129034
0.00154912
0.000536781
0.000592343
0.000335139
0.00124141
0.00283963
0.00411053
0.00151718
0.000912872
0.000321842
0.000653008
0.00225929
0.00170628
0.00525612
0.000462407
0.00107452
0.00355191
0.00127132
0.00136732
0.00123849
0.00553727
0.000461577
0.00451991
0.00123993
0.000198052
0.000385117
0.00282408
0.00158715
0.000914453
0.00124133
0.00262903
0.000200708
0.000569865
0.00145003
0.00124138
0.00140249
0.000351877
0.00127295
0.000747457
0.00163668
0.00124218
0.000925212
0.000745305
0.00310924
0.00128739
0.00148162
0.00123887
0.000351533
0.000349842
0.000421235
0.00129871
0.000232268
0.00148886
0.00123988
0.000436053
0.00136537
0.00124077
0.000507067
0.00313472
0.00225335
0.00153452
0.00427655
0.000764636
0.00374905
0.00145797
0.00346763
0.00443986
0.0028018
0.00141106
0.000259298
0.00397817
0.00124135
3.92885e-05
0.00124223
5.62074e-05
0.00148204
0.000543616
0.00162454
0.000175107
0.0024013
0.00043791
0.00174065
0.00294622
0.00066795
0.000461186
0.000421791
8.9185e-05
0.00161625
0.000465192
0.00151949
0.0013903
0.000575459
0.000561683
0.00050039
0.00124283
0.00440802
0.00345551
0.00124346
0.00043655
0.0012711
0.00163803
0.00191847
0.00365582
0.0013351
0.00451464
0.00259376
0.000733114
0.00327399
0.000275762
0.000256828
0.000544536
0.00123849
0.00154426
0.0010699
0.00162995
0.0030239
0.00124078
0.00158386
0.0012386
0.000413576
0.00226803
0.00131818
0.000275748
0.00522505
0.00425413
0.000469016
0.00129706
0.000454667
0.00125543
0.00124024
9.34041e-05
0.00124086
0.00230315
0.00124611
0.000393918
0.00155552
0.000444268
0.000549247
0.000602592
0.000522987
0.0012398
0.00219718
0.00144728
0.000461127
0.00028332
0.000453877
0.000470304
0.00687959
0.00416357
0.00315803
0.00110735
0.00271442
5.36928e-05
0.0013653
0.000465644
0.000414197
0.00123975
0.000466013
0.00249748
0.00144046
0.002213
0.00019289
0.000387782
0.00144543
0.000421958
0.00124792
0.00125092
0.00275692
0.00158347
0.00126801
0.00106266
0.00407281
5.24272e-05
0.00445584
0.00124163
0.000886802
0.00147513
0.000471631
0.000456818
0.00146687
0.00108716
0.000451425
0.00423301
0.00581985
0.00431945
0.00266629
6.46566e-05
5.40146e-05
5.66084e-05
0.00131885
0.00388627
0.000465243
0.00219673
0.00107617
0.00231295
0.000348017
0.000235394
0.00282507
0.000953967
0.000448171
0.00205476
0.000428392
0.00271175
0.000470811
0.00291703
0.00416167
7.26754e-05
0.000467753
0.00128962
0.000473649
0.00143665
0.00120725
0.000663331
0.00519507
0.00136953
4.49666e-05
4.57376e-05
0.00137447
0.000178868
5.76417e-05
0.000284419
0.000139506
0.000375971
0.000176044
0.000465504
0.000468642
0.00131803
0.000600611
0.00159593
4.73752e-05
0.00129552
0.000732981
0.000138912
0.0014499
4.63506e-05
4.60417e-05
0.000445948
0.000395586
0.00182217
4.49458e-05
0.0057754
0.000381989
0.000448863
0.000973122
0.000491254
0.00176183
0.00364105
0.0014964
0.000288736
0.00124092
0.00514012
0.00470317
0.00562421
0.000186539
0.00124536
0.00127574
0.000460339
0.0042597
4.9165e-05
0.00119117
0.00123978
8.27773e-05
0.00456995
0.00206289
0.00147085
0.000235198
0.000452632
0.00119045
0.00139045
0.00124119
0.0012563
0.000185205
0.00130244
0.00125314
0.00215889
0.00124179
0.00125543
0.00126419
0.00123875
0.00753053
0.00124183
0.00172604
0.000763948
0.000470524
0.00124211
0.000521468
0.00227208
4.56277e-05
5.33827e-05
0.0016315
0.0013929
0.00135367
0.00124142
0.00126765
0.00626383
0.00218504
4.09522e-05
0.00124053
0.00492189
0.000368763
0.00132714
0.00234267
0.000104449
0.000270154
0.00130999
0.0014772
0.000808173
0.00189933
0.00135502
0.0012413
0.00140257
0.00136307
0.00498493
9.80257e-05
0.000452733
0.000134032
0.00146179
0.000603982
0.000460107
0.00138299
0.00125247
0.00175453
0.000999254
0.00164452
0.001262
0.000466936
0.000347111
0.00059478
0.00124878
0.00423803
0.00052068
0.00375109
0.00126088
0.0011544
0.00189956
0.000395854
0.000446187
0.00137323
0.00140954
0.00124372
0.00298807
0.00139093
0.00184116
0.00236093
0.00087874
0.00216348
0.00391176
0.000168108
0.00137725
0.00144917
6.56758e-05
0.000421235
0.00124067
0.00125275
0.00124187
0.00127747
0.00599811
0.000451903
0.000127776
0.000522837
0.000523699
0.00125617
0.000222763
0.000465377
0.00123902
0.00124726
0.000453864
0.0012521
0.00270719
0.00135065
0.000450072
0.0012412
0.00196379
0.00424693
0.00503456
0.000454899
0.00461709
0.00123851
0.00123077
0.00114263
0.00127067
0.00251624
0.000291847
4.03586e-05
0.00193015
0.000453936
0.00189035
0.00096699
0.00132535
0.000436698
0.00147156
0.00123907
0.00196491
0.00045498
5.42186e-05
0.00220033
0.00197204
0.000671505
0.00162977
4.7621e-05
0.000423387
0.00441279
0.000521412
0.00338889
0.00491341
0.00243531
0.00130741
0.00127579
0.00170531
0.000662862
0.000548859
5.89568e-05
0.00359208
0.000283097
9.53128e-05
0.00124283
0.00177548
0.00131551
0.000436369
0.00123908
0.000330333
0.000864672
0.000324359
0.000204321
0.000467664
0.00243974
0.00442079
9.57293e-05
5.02879e-05
0.00133899
0.0030841
0.00122682
0.00416526
0.000917614
0.000316955
0.00137155
0.00420837
0.000160547
0.00105231
0.00115463
0.000467226
0.000227089
0.0012077
0.000474658
0.000314405
0.00127182
0.00336268
0.000402253
0.0006993
0.00135335
0.000193097
0.00184222
0.000446866
0.00126699
0.000926271
0.00334584
0.00124126
0.000648168
4.13618e-05
0.00122792
0.00147584
0.0020567
0.00423828
0.00143985
0.00127571
0.000465364
0.00124131
0.000296405
0.00147082
4.44438e-05
9.56633e-05
0.00184921
4.71992e-05
0.000795494
0.00122471
0.00157724
0.00126952
0.00394113
0.00132848
0.000375806
0.000437396
0.00191828
0.00134265
0.00365826
0.00175987
0.00261323
0.00171278
0.00123918
0.00463029
0.00123875
0.00565034
0.000556343
0.00447652
0.000955951
0.000620323
0.000433238
0.00486838
0.00308282
0.000453486
6.86211e-05
0.00124138
0.00124141
0.00107341
0.000700928
0.000391486
0.00241836
0.00533185
0.00127212
0.000331276
0.00124125
0.00407164
0.000470537
0.00157609
0.00126023
0.000489775
0.000105899
0.000391438
0.00256311
0.00124318
0.00338512
0.00124269
0.0013755
0.00294521
0.000368543
0.0015771
0.00125372
0.00139401
0.00580267
0.000417016
0.000872581
0.00137602
0.000191898
0.00422401
0.00124417
0.000566141
8.11859e-05
0.00045892
0.00326238
0.00124135
0.00144226
0.00127874
0.000462548
0.00124974
0.000698467
0.00103033
0.0012502
0.00177966
0.000394345
0.00136748
0.000961726
0.00114305
0.00134551
0.000727532
0.00487817
0.00337278
0.00123919
0.00124141
0.00157918
0.000459807
0.000469627
0.000459871
0.00157862
0.000737479
0.00394202
0.00116619
0.000461209
0.00139648
0.00237745
0.000324205
0.00123842
0.00208244
0.000283613
0.000278782
0.00124945
0.00124601
6.87488e-05
0.000188071
0.00131429
0.00391459
0.0008031
0.000412245
0.00125203
3.5402e-05
0.000659916
0.000695277
0.00166257
0.00101948
0.000826797
0.00139452
0.00126942
0.000444194
0.000132421
0.00126189
0.00124188
0.00139557
0.00114605
0.0015571
0.00123991
0.00213191
0.00124132
0.00115361
0.000495862
0.00483291
0.0012481
0.00145169
0.000548596
0.000359066
0.00198108
0.000197774
0.00731454
0.000762427
0.00135482
0.00124095
0.00306307
0.00138925
0.000233319
0.0015144
0.00174799
0.0023727
0.00226143
0.000133108
0.00123981
0.000735606
0.00115
0.000453136
0.00128706
0.00489669
0.000368294
0.000313305
0.00185885
0.00512459
0.00152984
0.000465212
0.00247231
0.000464135
0.00124057
0.00196871
0.00127269
0.00123871
0.000106152
0.00124145
4.6851e-05
0.00228578
0.00108983
0.00127523
0.00114387
0.000423214
0.00182212
0.001484
0.00127374
0.00607257
0.00221524
0.00279224
0.00503252
0.00157715
0.00123944
0.00124152
0.000462291
0.00558957
5.88332e-05
0.000524536
0.00127947
4.63853e-05
4.08057e-05
4.48069e-05
0.00300922
0.000678586
3.77486e-05
0.00124132
0.000132917
0.000125273
0.000462622
0.0012423
0.0023979
0.00142768
0.000114467
0.00124324
0.00164152
0.00123945
0.00518465
0.00221826
0.00132765
0.000446753
0.00123976
0.00441332
0.000416722
0.00124246
0.00142316
0.0012407
0.00138225
0.00306134
0.00127254
0.00111217
0.00248222
0.000458108
0.00124017
0.00104524
0.00124189
0.000591662
0.00266485
0.00345327
0.000499976
0.00273668
0.00159396
0.00125883
0.000156948
0.000974137
0.00114918
5.31984e-05
0.000482431
0.00123837
0.000131455
0.00058722
0.00072837
0.000998835
0.00119024
0.00138133
0.000470882
0.00431115
0.00121215
0.00358087
0.00143007
0.00340359
0.000133034
0.000747945
0.00119828
0.000187795
0.000388301
0.00137045
0.00186306
0.0012879
0.000593525
0.000970536
0.00117472
0.00409898
0.00172974
0.000296672
0.000189091
0.00426316
0.000155527
0.00124816
5.1104e-05
0.00157251
0.00127878
0.00145308
0.00110809
0.000990882
0.00601767
0.00133573
0.00321825
0.0028308
0.00137767
0.00287314
0.0027186
0.00124195
0.00148485
0.00468429
4.41017e-05
0.000465601
4.46984e-05
0.000686123
0.0018839
0.00105928
0.00124068
0.00124158
0.000436823
0.00652593
0.001262
0.00154717
0.00124109
0.00159142
0.00247974
0.005064
0.00130804
0.00158833
0.00143862
0.00202366
0.00133938
0.0054165
0.000388944
0.000521282
0.00124059
0.000538354
0.00143638
0.00167632
0.00215184
4.80916e-05
0.00362526
0.00205137
0.000672293
0.00399017
0.00242158
0.00386477
0.00562228
0.00127677
3.94991e-05
0.00124132
0.0012759
0.000443194
0.00277878
0.00270605
0.00107872
0.000431936
0.00124156
0.0012444
0.00146084
0.000132002
0.0013609
0.00123987
0.00131703
0.0027076
0.000464762
0.00137673
5.29263e-05
0.00114319
0.00165914
0.000368903
0.00125592
0.00128926
0.000126632
0.000381037
0.000156071
0.00124372
0.00123961
0.00108162
0.00159387
0.00234149
0.00124676
0.00124541
0.00422826
0.00126149
0.00180508
0.00302547
0.00549966
0.00235981
0.00145996
0.000439961
5.5199e-05
0.000456922
0.00198985
0.00124274
0.000286187