/*--------------------------------*- C++ -*----------------------------------*\
| =========                 |                                                 |
| \\      /  F ield         | OpenFOAM: The Open Source CFD Toolbox           |
|  \\    /   O peration     | Version:  2.3.1                                 |
|   \\  /    A nd           | Web:      www.OpenFOAM.org                      |
|    \\/     M anipulation  |                                                 |
\*---------------------------------------------------------------------------*/
FoamFile
{
    version     2.0;
    format      ascii;
    class       surfaceScalarField;
    location    "0.24";
    object      phi;
}
// * * * * * * * * * * * * * * * * * * * * * * * * * * * * * * * * * * * * * //

dimensions      [0 3 -1 0 0 0 0];

internalField   nonuniform List<scalar> 
23326
(
-1.24469e-05
0.000111761
-9.93145e-05
-2.13675e-05
0.000127172
-0.000118251
-2.70015e-05
0.000141511
-0.000135877
-3.06442e-05
0.000157023
-0.00015338
-3.37606e-05
0.000169596
-0.000166479
-3.5963e-05
0.000181847
-0.000179645
-3.74738e-05
0.000192393
-0.000190882
-3.82467e-05
0.000201006
-0.000200233
-3.86419e-05
0.000207516
-0.000207121
-3.87047e-05
0.000212536
-0.000212473
-3.86206e-05
0.000216283
-0.000216367
0.000218998
-3.84624e-05
-0.000219156
-6.92826e-06
0.00011869
-1.36933e-05
0.000133937
-1.97343e-05
0.000147552
-2.42204e-05
0.00016151
-2.78991e-05
0.000173275
-3.06158e-05
0.000184564
-3.25183e-05
0.000194296
-3.3777e-05
0.000202265
-3.457e-05
0.000208309
-3.50301e-05
0.000212996
-3.52563e-05
0.000216509
0.000219096
-3.53549e-05
-5.59258e-06
0.000124283
-1.08958e-05
0.000139241
-1.59068e-05
0.000152564
-2.00159e-05
0.000165619
-2.35577e-05
0.000176817
-2.63273e-05
0.000187334
-2.83854e-05
0.000196354
-2.98503e-05
0.000203729
-3.09202e-05
0.000209379
-3.16561e-05
0.000213731
-3.21317e-05
0.000216985
0.000219469
-3.25041e-05
-4.70909e-06
0.000128992
-9.28316e-06
0.000143815
-1.35692e-05
0.00015685
-1.71879e-05
0.000169238
-2.03865e-05
0.000180015
-2.29877e-05
0.000189935
-2.50535e-05
0.00019842
-2.65997e-05
0.000205276
-2.77738e-05
0.000210553
-2.86797e-05
0.000214637
-2.93562e-05
0.000217661
0.000220038
-2.99256e-05
-3.85434e-06
0.000132846
-7.89383e-06
0.000147854
-1.16986e-05
0.000160654
-1.49739e-05
0.000172513
-1.78685e-05
0.00018291
-2.03186e-05
0.000192385
-2.22791e-05
0.00020038
-2.38261e-05
0.000206823
-2.5085e-05
0.000211812
-2.60317e-05
0.000215584
-2.68488e-05
0.000218478
0.000220691
-2.7501e-05
-3.20826e-06
0.000136055
-6.77206e-06
0.000151418
-1.01646e-05
0.000164047
-1.31432e-05
0.000175492
-1.58342e-05
0.000185601
-1.80711e-05
0.000194622
-1.9938e-05
0.000202247
-2.148e-05
0.000208365
-2.27021e-05
0.000213034
-2.37259e-05
0.000216608
-2.45818e-05
0.000219334
0.000221428
-2.5319e-05
-2.76014e-06
0.000138815
-5.92311e-06
0.000154581
-8.95744e-06
0.000167081
-1.1682e-05
0.000178216
-1.41042e-05
0.000188023
-1.62075e-05
0.000196725
-1.79709e-05
0.000204011
-1.94227e-05
0.000209817
-2.06585e-05
0.00021427
-2.17053e-05
0.000217655
-2.26192e-05
0.000220248
0.000222245
-2.34362e-05
-2.42564e-06
0.000141241
-5.26521e-06
0.000157421
-7.99326e-06
0.000169809
-1.04388e-05
0.000180662
-1.2676e-05
0.00019026
-1.4624e-05
0.000198673
-1.62864e-05
0.000205673
-1.76683e-05
0.000211198
-1.88832e-05
0.000215485
-1.99348e-05
0.000218706
-2.08439e-05
0.000221157
0.000223049
-2.16477e-05
-2.15968e-06
0.0001434
-4.73437e-06
0.000159995
-7.20696e-06
0.000172282
-9.46291e-06
0.000182918
-1.1499e-05
0.000192296
-1.3277e-05
0.000200451
-1.4834e-05
0.00020723
-1.61866e-05
0.000212551
-1.73367e-05
0.000216635
-1.83541e-05
0.000219724
-1.92624e-05
0.000222066
0.000223923
-2.01364e-05
-1.9354e-06
0.000145335
-4.27782e-06
0.000162338
-6.53849e-06
0.000174543
-8.60243e-06
0.000184982
-1.04976e-05
0.000194192
-1.21508e-05
0.000202105
-1.35874e-05
0.000208667
-1.48411e-05
0.000213805
-1.59751e-05
0.000217769
-1.69718e-05
0.00022072
-1.7876e-05
0.00022297
0.000224742
-1.86955e-05
-1.7491e-06
0.000147085
-3.9008e-06
0.000164489
-5.9722e-06
0.000176614
-7.87598e-06
0.000186886
-9.61062e-06
0.000195926
-1.11446e-05
0.000203639
-1.24959e-05
0.000210018
-1.36853e-05
0.000214994
-1.47529e-05
0.000218836
-1.57182e-05
0.000221686
-1.66367e-05
0.000223888
0.000225536
-1.74301e-05
-1.58482e-06
0.000148669
-3.56072e-06
0.000166465
-5.46836e-06
0.000178522
-7.25584e-06
0.000188673
-8.83885e-06
0.00019751
-1.02727e-05
0.000205073
-1.15385e-05
0.000211284
-1.26656e-05
0.000216121
-1.36832e-05
0.000219854
-1.46163e-05
0.000222619
-1.54425e-05
0.000224714
0.000226334
-1.62413e-05
-1.44652e-06
0.000150116
-3.26715e-06
0.000168286
-5.04159e-06
0.000180296
-6.68395e-06
0.000190315
-8.18331e-06
0.000199009
-9.52077e-06
0.00020641
-1.06865e-05
0.00021245
-1.17579e-05
0.000217193
-1.27056e-05
0.000220802
-1.35916e-05
0.000223505
-1.44028e-05
0.000225526
0.000227018
-1.50865e-05
-1.32724e-06
0.000151443
-3.03347e-06
0.000169992
-4.66853e-06
0.000181931
-6.18269e-06
0.00019183
-7.57973e-06
0.000200406
-8.8089e-06
0.000207639
-9.93561e-06
0.000213577
-1.09253e-05
0.000218183
-1.18578e-05
0.000221734
-1.27335e-05
0.000224381
-1.35436e-05
0.000226336
0.000227852
-1.43776e-05
-1.21671e-06
0.00015266
-2.78846e-06
0.000171564
-4.33749e-06
0.00018348
-5.75418e-06
0.000193246
-7.03944e-06
0.000201691
-8.21844e-06
0.000208818
-9.25469e-06
0.000214613
-1.02243e-05
0.000219152
-1.10635e-05
0.000222573
-1.18671e-05
0.000225184
-1.26373e-05
0.000227106
0.000228525
-1.33107e-05
-1.12052e-06
0.00015378
-2.5905e-06
0.000173034
-4.02432e-06
0.000184914
-5.34621e-06
0.000194568
-6.55491e-06
0.0002029
-7.64009e-06
0.000209903
-8.62169e-06
0.000215594
-9.5102e-06
0.000220041
-1.03658e-05
0.000223429
-1.11654e-05
0.000225984
-1.18927e-05
0.000227833
0.000229194
-1.25616e-05
-1.03471e-06
0.000154815
-2.39299e-06
0.000174392
-3.7331e-06
0.000186254
-4.98161e-06
0.000195817
-6.11466e-06
0.000204033
-7.13735e-06
0.000210926
-8.06298e-06
0.00021652
-8.94082e-06
0.000220919
-9.72688e-06
0.000224215
-1.04465e-05
0.000226704
-1.11487e-05
0.000228536
0.000229859
-1.18135e-05
-9.4526e-07
0.00015576
-2.22764e-06
0.000175675
-3.49546e-06
0.000187522
-4.66905e-06
0.00019699
-5.73706e-06
0.000205101
-6.70642e-06
0.000211896
-7.58051e-06
0.000217394
-8.33485e-06
0.000221673
-9.09215e-06
0.000224973
-9.80512e-06
0.000227417
-1.04835e-05
0.000229214
0.000230507
-1.11316e-05
-8.77712e-07
0.000156638
-2.08219e-06
0.000176879
-3.25246e-06
0.000188693
-4.35932e-06
0.000198097
-5.3422e-06
0.000206084
-6.25478e-06
0.000212808
-7.06334e-06
0.000218203
-7.85748e-06
0.000222467
-8.55022e-06
0.000225665
-9.23167e-06
0.000228098
-9.85641e-06
0.000229839
0.00023113
-1.04793e-05
-8.16108e-07
0.000157454
-1.92727e-06
0.00017799
-3.05359e-06
0.000189819
-4.07612e-06
0.00019912
-5.03157e-06
0.000207039
-5.8704e-06
0.000213647
-6.65962e-06
0.000218992
-7.36366e-06
0.000223171
-8.04978e-06
0.000226352
-8.64536e-06
0.000228694
-9.26171e-06
0.000230455
0.000231684
-9.81584e-06
-7.5991e-07
0.000158214
-1.80432e-06
0.000179035
-2.84691e-06
0.000190861
-3.81612e-06
0.000200089
-4.68957e-06
0.000207913
-5.50851e-06
0.000214466
-6.23205e-06
0.000219716
-6.90435e-06
0.000223844
-7.53277e-06
0.00022698
-8.15545e-06
0.000229316
-8.71959e-06
0.000231019
0.000232246
-9.28165e-06
-6.8361e-07
0.000158898
-1.66823e-06
0.00018002
-2.65715e-06
0.00019185
-3.59279e-06
0.000201025
-4.42273e-06
0.000208743
-5.15199e-06
0.000215195
-5.83924e-06
0.000220403
-6.4772e-06
0.000224482
-7.10637e-06
0.000227609
-7.68185e-06
0.000229892
-8.24052e-06
0.000231578
0.000232774
-8.76829e-06
-6.42016e-07
0.00015954
-1.56685e-06
0.000180945
-2.50018e-06
0.000192784
-3.34202e-06
0.000201866
-4.13049e-06
0.000209531
-4.84071e-06
0.000215905
-5.49714e-06
0.000221059
-6.10276e-06
0.000225087
-6.67817e-06
0.000228185
-7.23076e-06
0.000230445
-7.75547e-06
0.000232103
0.000233284
-8.26494e-06
-5.81339e-07
0.000160122
-1.45037e-06
0.000181814
-2.33323e-06
0.000193667
-3.12972e-06
0.000202663
-3.87444e-06
0.000210276
-4.55145e-06
0.000216582
-5.17302e-06
0.000221681
-5.75319e-06
0.000225668
-6.27859e-06
0.00022871
-6.77577e-06
0.000230942
-7.29124e-06
0.000232618
0.000233786
-7.79351e-06
-5.36681e-07
0.000160658
-1.33748e-06
0.000182614
-2.17463e-06
0.000194504
-2.95374e-06
0.000203442
-3.63556e-06
0.000210958
-4.27856e-06
0.000217225
-4.84328e-06
0.000222246
-5.37205e-06
0.000226196
-5.89514e-06
0.000229233
-6.4038e-06
0.00023145
-6.86407e-06
0.000233078
0.000234268
-7.34637e-06
-5.04483e-07
0.000161163
-1.25557e-06
0.000183366
-2.02618e-06
0.000195274
-2.76577e-06
0.000204182
-3.41183e-06
0.000211604
-3.99661e-06
0.00021781
-4.53254e-06
0.000222781
-5.05744e-06
0.000226721
-5.53549e-06
0.000229711
-5.99137e-06
0.000231906
-6.47141e-06
0.000233558
0.000234712
-6.91508e-06
-4.47597e-07
0.000161611
-1.15418e-06
0.000184072
-1.88304e-06
0.000196003
-2.56009e-06
0.000204859
-3.19722e-06
0.000212241
-3.75154e-06
0.000218364
-4.26033e-06
0.00022329
-4.73593e-06
0.000227197
-5.18805e-06
0.000230164
-5.65064e-06
0.000232369
-6.04302e-06
0.000233951
0.000235126
-6.45725e-06
-3.97815e-07
0.000162008
-1.08461e-06
0.000184759
-1.77241e-06
0.000196691
-2.39225e-06
0.000205478
-2.96946e-06
0.000212818
-3.49694e-06
0.000218892
-4.00393e-06
0.000223797
-4.42881e-06
0.000227622
-4.85946e-06
0.000230594
-5.27581e-06
0.000232785
-5.70881e-06
0.000234384
0.000235486
-6.06846e-06
-3.71511e-07
0.00016238
-9.90452e-07
0.000185378
-1.62154e-06
0.000197322
-2.25245e-06
0.000206109
-2.77883e-06
0.000213344
-3.27455e-06
0.000219387
-3.70586e-06
0.000224229
-4.16536e-06
0.000228081
-4.54651e-06
0.000230975
-4.94814e-06
0.000233187
-5.31237e-06
0.000234748
0.000235909
-5.73571e-06
-3.14771e-07
0.000162695
-8.81688e-07
0.000185945
-1.52111e-06
0.000197962
-2.07331e-06
0.000206661
-2.5941e-06
0.000213865
-3.03984e-06
0.000219833
-3.47457e-06
0.000224663
-3.85372e-06
0.000228461
-4.24739e-06
0.000231369
-4.59754e-06
0.000233537
-4.99744e-06
0.000235148
0.000236247
-5.33537e-06
-2.91374e-07
0.000162986
-8.41375e-07
0.000186495
-1.3788e-06
0.000198499
-1.92532e-06
0.000207208
-2.39094e-06
0.000214331
-2.83807e-06
0.00022028
-3.22541e-06
0.000225051
-3.61349e-06
0.000228849
-3.95621e-06
0.000231712
-4.31928e-06
0.0002339
-4.62329e-06
0.000235452
0.000236602
-4.97785e-06
-2.57924e-07
0.000163244
-7.4178e-07
0.000186979
-1.29144e-06
0.000199049
-1.75823e-06
0.000207675
-2.22485e-06
0.000214797
-2.62146e-06
0.000220677
-3.00975e-06
0.000225439
-3.32307e-06
0.000229162
-3.67908e-06
0.000232068
-3.99606e-06
0.000234217
-4.33061e-06
0.000235787
0.000236871
-4.5996e-06
-2.29159e-07
0.000163474
-6.63344e-07
0.000187413
-1.15818e-06
0.000199544
-1.64675e-06
0.000208163
-2.06245e-06
0.000215213
-2.43611e-06
0.00022105
-2.75141e-06
0.000225754
-3.10064e-06
0.000229511
-3.40804e-06
0.000232375
-3.71082e-06
0.00023452
-4.01161e-06
0.000236087
0.000237172
-4.31279e-06
-1.69605e-07
0.000163643
-6.12473e-07
0.000187856
-1.078e-06
0.000200009
-1.48998e-06
0.000208575
-1.88085e-06
0.000215604
-2.23185e-06
0.000221401
-2.5539e-06
0.000226076
-2.85537e-06
0.000229813
-3.14751e-06
0.000232668
-3.40575e-06
0.000234778
-3.68793e-06
0.00023637
0.000237476
-3.99248e-06
-1.78061e-07
0.000163821
-5.41499e-07
0.00018822
-9.52738e-07
0.00020042
-1.38808e-06
0.00020901
-1.72806e-06
0.000215943
-2.03086e-06
0.000221704
-2.33278e-06
0.000226378
-2.6188e-06
0.000230099
-2.86349e-06
0.000232912
-3.13338e-06
0.000235048
-3.40424e-06
0.00023664
0.000237723
-3.65107e-06
-1.14667e-07
0.000163936
-4.72695e-07
0.000188578
-8.78818e-07
0.000200827
-1.2132e-06
0.000209345
-1.55703e-06
0.000216287
-1.86505e-06
0.000222012
-2.14573e-06
0.000226659
-2.38361e-06
0.000230337
-2.61134e-06
0.00023314
-2.86054e-06
0.000235298
-3.07401e-06
0.000236854
0.000237971
-3.32221e-06
-9.75217e-08
0.000164034
-4.01966e-07
0.000188882
-7.59482e-07
0.000201184
-1.11846e-06
0.000209704
-1.41452e-06
0.000216583
-1.67545e-06
0.000222273
-1.91111e-06
0.000226894
-2.12918e-06
0.000230555
-2.36892e-06
0.00023338
-2.60074e-06
0.000235529
-2.80192e-06
0.000237055
0.000238156
-2.98644e-06
-6.76456e-08
0.000164101
-3.39916e-07
0.000189155
-6.67063e-07
0.000201511
-9.77761e-07
0.000210014
-1.25184e-06
0.000216857
-1.51828e-06
0.000222539
-1.73751e-06
0.000227114
-1.94101e-06
0.000230758
-2.13557e-06
0.000233574
-2.32907e-06
0.000235723
-2.52239e-06
0.000237249
0.000238348
-2.71439e-06
-2.96628e-08
0.000164131
-2.75419e-07
0.0001894
-5.78496e-07
0.000201814
-8.65818e-07
0.000210302
-1.11907e-06
0.000217111
-1.31428e-06
0.000222735
-1.54061e-06
0.00022734
-1.72858e-06
0.000230946
-1.91132e-06
0.000233757
-2.06761e-06
0.000235879
-2.26765e-06
0.000237449
0.000238582
-2.5019e-06
-2.81458e-09
0.000164134
-2.17493e-07
0.000189615
-4.93729e-07
0.000202091
-7.5667e-07
0.000210565
-9.89402e-07
0.000217343
-1.1928e-06
0.000222938
-1.34835e-06
0.000227496
-1.49146e-06
0.00023109
-1.65511e-06
0.000233921
-1.8138e-06
0.000236038
-1.95455e-06
0.000237589
0.000238695
-2.06765e-06
7.27951e-09
0.000164127
-1.60459e-07
0.000189783
-4.09333e-07
0.000202339
-6.24686e-07
0.00021078
-8.36653e-07
0.000217555
-9.93299e-07
0.000223095
-1.1585e-06
0.000227661
-1.31302e-06
0.000231244
-1.43544e-06
0.000234043
-1.58813e-06
0.000236191
-1.7231e-06
0.000237724
0.000238875
-1.90274e-06
3.93989e-08
0.000164088
-9.76559e-08
0.00018992
-2.98075e-07
0.00020254
-5.19133e-07
0.000211001
-6.85018e-07
0.000217721
-8.52547e-07
0.000223262
-9.73141e-07
0.000227781
-1.08371e-06
0.000231355
-1.22043e-06
0.00023418
-1.32707e-06
0.000236297
-1.46336e-06
0.000237861
0.000238984
-1.572e-06
6.32626e-08
0.000164024
-6.52631e-08
0.000190049
-2.43779e-07
0.000202718
-4.15654e-07
0.000211173
-5.63665e-07
0.000217869
-6.85443e-07
0.000223384
-7.90683e-07
0.000227887
-9.14703e-07
0.000231479
-1.007e-06
0.000234272
-1.10103e-06
0.000236391
-1.20044e-06
0.00023796
0.000239091
-1.30755e-06
9.69749e-08
0.000163927
1.53709e-08
0.00019013
-1.34159e-07
0.000202868
-2.86791e-07
0.000211325
-4.17103e-07
0.000217999
-5.21824e-07
0.000223488
-6.10912e-07
0.000227976
-6.91604e-07
0.000231559
-7.6993e-07
0.000234351
-8.49264e-07
0.000236471
-9.28287e-07
0.000238039
0.000239165
-1.00298e-06
1.20656e-07
0.000163807
6.75525e-08
0.000190183
-5.51187e-08
0.000202991
-1.87152e-07
0.000211457
-3.00067e-07
0.000218112
-3.62133e-07
0.00022355
-4.34649e-07
0.000228048
-5.00326e-07
0.000231625
-5.6471e-07
0.000234415
-6.31643e-07
0.000236538
-7.07607e-07
0.000238115
0.000239262
-8.04278e-07
1.26469e-07
0.000163681
1.172e-07
0.000190193
1.72763e-08
0.000203091
-6.99198e-08
0.000211545
-1.61796e-07
0.000218204
-2.31338e-07
0.00022362
-2.88411e-07
0.000228105
-3.11168e-07
0.000231648
-3.60133e-07
0.000234464
-3.82904e-07
0.000236561
-4.31333e-07
0.000238164
0.000239271
-4.4031e-07
1.73779e-07
0.000163507
1.6421e-07
0.000190202
1.14543e-07
0.00020314
2.12762e-08
0.000211638
-1.93904e-08
0.000218245
-7.47151e-08
0.000223675
-8.92763e-08
0.00022812
-1.25075e-07
0.000231684
-1.32757e-07
0.000234472
-1.72682e-07
0.000236601
-1.94882e-07
0.000238186
0.000239343
-2.66613e-07
1.83353e-07
0.000163324
2.20738e-07
0.000190165
1.62917e-07
0.000203198
1.1763e-07
0.000211683
8.79504e-08
0.000218274
7.72891e-08
0.000223686
5.15774e-08
0.000228145
5.85703e-08
0.000231677
6.51358e-08
0.000234465
6.85762e-08
0.000236597
4.15032e-08
0.000238213
0.000239333
5.1422e-08
2.075e-07
0.000163116
2.43664e-07
0.000190129
2.57035e-07
0.000203185
2.33124e-07
0.000211707
1.96277e-07
0.000218311
2.0154e-07
0.000223681
2.45775e-07
0.000228101
2.39522e-07
0.000231683
2.60233e-07
0.000234445
2.76406e-07
0.000236581
2.82742e-07
0.000238207
0.000239349
2.6725e-07
2.323e-07
0.000162884
3.18503e-07
0.000190043
3.28111e-07
0.000203175
3.22956e-07
0.000211712
3.55623e-07
0.000218278
3.506e-07
0.000223686
3.82786e-07
0.000228069
4.46492e-07
0.000231619
4.81532e-07
0.00023441
4.84806e-07
0.000236578
5.44664e-07
0.000238147
0.000239305
5.88001e-07
2.39374e-07
0.000162644
3.67659e-07
0.000189914
3.9784e-07
0.000203145
4.11591e-07
0.000211698
4.34454e-07
0.000218256
4.98323e-07
0.000223622
5.44861e-07
0.000228022
5.94346e-07
0.00023157
6.69664e-07
0.000234334
7.39014e-07
0.000236509
7.70059e-07
0.000238116
0.000239282
7.93413e-07
2.84728e-07
0.00016236
4.15483e-07
0.000189784
4.9158e-07
0.000203069
5.25129e-07
0.000211665
5.91397e-07
0.000218189
6.44543e-07
0.000223569
7.33204e-07
0.000227934
7.96014e-07
0.000231507
8.545e-07
0.000234276
9.04136e-07
0.000236459
9.66425e-07
0.000238053
0.000239279
9.69286e-07
2.8881e-07
0.000162071
4.62894e-07
0.00018961
5.35883e-07
0.000202996
6.12662e-07
0.000211588
6.95787e-07
0.000218106
7.91122e-07
0.000223473
8.66671e-07
0.000227858
9.71693e-07
0.000231402
1.04539e-06
0.000234202
1.14173e-06
0.000236363
1.23416e-06
0.000237961
0.000239185
1.32787e-06
3.15687e-07
0.000161755
5.11662e-07
0.000189414
6.29161e-07
0.000202879
7.2534e-07
0.000211492
7.98735e-07
0.000218033
9.09615e-07
0.000223362
1.02777e-06
0.00022774
1.14745e-06
0.000231282
1.26317e-06
0.000234086
1.3726e-06
0.000236253
1.44343e-06
0.00023789
0.000239105
1.52332e-06
3.40118e-07
0.000161415
5.58445e-07
0.000189196
6.98161e-07
0.000202739
8.1198e-07
0.000211378
9.28673e-07
0.000217916
1.05542e-06
0.000223235
1.18832e-06
0.000227607
1.32134e-06
0.000231149
1.45127e-06
0.000233956
1.57281e-06
0.000236132
1.68844e-06
0.000237775
0.000238984
1.80965e-06
3.65775e-07
0.00016105
6.0676e-07
0.000188955
7.65932e-07
0.00020258
8.98762e-07
0.000211245
1.05844e-06
0.000217756
1.19981e-06
0.000223094
1.34719e-06
0.000227459
1.4943e-06
0.000231002
1.66349e-06
0.000233787
1.79619e-06
0.000235999
1.91592e-06
0.000237655
0.000238885
2.01541e-06
3.68902e-07
0.000160681
6.53071e-07
0.00018867
8.33842e-07
0.000202399
1.01099e-06
0.000211068
1.16055e-06
0.000217606
1.31778e-06
0.000222936
1.5069e-06
0.00022727
1.69557e-06
0.000230813
1.82258e-06
0.00023366
1.99689e-06
0.000235825
2.13639e-06
0.000237515
0.000238705
2.31571e-06
4.15954e-07
0.000160265
7.00007e-07
0.000188386
9.26416e-07
0.000202173
1.09736e-06
0.000210897
1.26467e-06
0.000217439
1.49123e-06
0.00022271
1.66798e-06
0.000227094
1.8418e-06
0.000230639
2.03743e-06
0.000233465
2.19266e-06
0.000235669
2.3791e-06
0.000237329
0.000238636
2.44861e-06
4.20003e-07
0.000159845
7.49136e-07
0.000188057
9.95906e-07
0.000201926
1.20982e-06
0.000210683
1.42061e-06
0.000217228
1.58311e-06
0.000222547
1.80107e-06
0.000226876
2.01994e-06
0.000230421
2.23109e-06
0.000233254
2.43695e-06
0.000235464
2.61549e-06
0.000237151
0.000238418
2.83327e-06
4.45666e-07
0.000159399
7.73586e-07
0.000187729
1.0397e-06
0.00020166
1.27235e-06
0.000210451
1.49937e-06
0.000217001
1.75751e-06
0.000222289
1.99222e-06
0.000226641
2.22432e-06
0.000230188
2.45289e-06
0.000233025
2.6693e-06
0.000235247
2.87178e-06
0.000236948
0.000238232
3.05768e-06
4.5763e-07
0.000158942
8.46689e-07
0.00018734
1.13424e-06
0.000201372
1.38593e-06
0.000210199
1.63156e-06
0.000216756
1.8772e-06
0.000222044
2.12603e-06
0.000226392
2.37249e-06
0.000229942
2.63866e-06
0.000232759
2.86793e-06
0.000235018
3.08607e-06
0.00023673
0.000238012
3.30635e-06
5.00131e-07
0.000158442
8.94612e-07
0.000186946
1.20431e-06
0.000201062
1.50039e-06
0.000209903
1.7604e-06
0.000216496
2.02297e-06
0.000221781
2.31346e-06
0.000226102
2.5733e-06
0.000229682
2.79692e-06
0.000232535
3.06437e-06
0.000234751
3.28497e-06
0.000236509
0.000237791
3.50567e-06
5.06025e-07
0.000157936
9.43297e-07
0.000186509
1.27217e-06
0.000200734
1.5621e-06
0.000209613
1.86596e-06
0.000216192
2.17047e-06
0.000221477
2.44668e-06
0.000225825
2.74786e-06
0.000229381
3.04091e-06
0.000232242
3.26736e-06
0.000234524
3.5426e-06
0.000236234
0.000237538
3.79578e-06
5.32509e-07
0.000157403
9.6781e-07
0.000186073
1.36901e-06
0.000200333
1.67672e-06
0.000209305
1.99819e-06
0.00021587
2.29021e-06
0.000221185
2.61132e-06
0.000225504
2.89881e-06
0.000229093
3.20288e-06
0.000231938
3.49519e-06
0.000234232
3.76716e-06
0.000235962
0.000237329
3.97638e-06
5.42002e-07
0.000156861
1.04186e-06
0.000185574
1.41432e-06
0.00019996
1.76687e-06
0.000208953
2.10532e-06
0.000215532
2.44112e-06
0.000220849
2.7757e-06
0.00022517
3.10328e-06
0.000228766
3.39733e-06
0.000231644
3.73172e-06
0.000233897
4.00346e-06
0.00023569
0.000237005
4.32701e-06
5.71023e-07
0.00015629
1.07098e-06
0.000185074
1.48602e-06
0.000199545
1.8849e-06
0.000208554
2.21306e-06
0.000215204
2.59317e-06
0.000220469
2.91394e-06
0.000224849
3.25186e-06
0.000228428
3.62726e-06
0.000231269
3.91578e-06
0.000233609
4.23883e-06
0.000235367
0.000236774
4.4701e-06
6.06479e-07
0.000155684
1.12318e-06
0.000184557
1.57985e-06
0.000199088
1.95852e-06
0.000208175
2.35139e-06
0.000214811
2.71158e-06
0.000220108
3.09077e-06
0.00022447
3.47657e-06
0.000228042
3.80387e-06
0.000230942
4.15914e-06
0.000233254
4.48496e-06
0.000235042
0.000236417
4.84238e-06
6.14386e-07
0.000155069
1.16123e-06
0.00018401
1.64026e-06
0.000198609
2.05444e-06
0.000207761
2.46452e-06
0.000214401
2.84659e-06
0.000219726
3.25212e-06
0.000224064
3.62304e-06
0.000227671
4.01071e-06
0.000230554
4.38468e-06
0.00023288
4.70806e-06
0.000234718
0.00023611
5.01469e-06
6.37507e-07
0.000154432
1.22136e-06
0.000183426
1.70501e-06
0.000198126
2.18033e-06
0.000207286
2.59151e-06
0.000213989
3.01249e-06
0.000219305
3.41109e-06
0.000223665
3.84693e-06
0.000227235
4.19406e-06
0.000230207
4.58398e-06
0.00023249
4.96241e-06
0.00023434
0.000235725
5.34779e-06
6.59407e-07
0.000153773
1.26809e-06
0.000182818
1.79091e-06
0.000197603
2.24197e-06
0.000206834
2.68938e-06
0.000213542
3.1573e-06
0.000218837
3.566e-06
0.000223257
3.99469e-06
0.000226807
4.41115e-06
0.00022979
4.81393e-06
0.000232087
5.19036e-06
0.000233963
0.000235407
5.50822e-06
6.98475e-07
0.000153074
1.30769e-06
0.000182208
1.87918e-06
0.000197031
2.37169e-06
0.000206342
2.81613e-06
0.000213098
3.2748e-06
0.000218379
3.75048e-06
0.000222781
4.19436e-06
0.000226363
4.62583e-06
0.000229359
5.04483e-06
0.000231668
5.45326e-06
0.000233555
0.000234991
5.86936e-06
6.792e-07
0.000152395
1.37299e-06
0.000181515
1.94198e-06
0.000196462
2.4557e-06
0.000205828
2.96729e-06
0.000212586
3.41652e-06
0.000217929
3.91054e-06
0.000222287
4.36899e-06
0.000225904
4.83999e-06
0.000228888
5.2446e-06
0.000231263
5.68286e-06
0.000233117
0.000234611
6.06296e-06
7.50315e-07
0.000151645
1.3864e-06
0.000180879
1.97983e-06
0.000195869
2.5386e-06
0.000205269
3.06929e-06
0.000212055
3.58696e-06
0.000217412
4.06983e-06
0.000221804
4.54223e-06
0.000225432
5.02836e-06
0.000228402
5.49596e-06
0.000230796
5.91656e-06
0.000232696
0.000234215
6.31207e-06
7.38742e-07
0.000150906
1.50305e-06
0.000180114
2.11938e-06
0.000195253
2.70011e-06
0.000204689
3.22484e-06
0.000211531
3.75995e-06
0.000216877
4.25892e-06
0.000221305
4.77384e-06
0.000224917
5.2482e-06
0.000227927
5.73435e-06
0.00023031
6.17864e-06
0.000232252
0.000233722
6.67129e-06
7.61746e-07
0.000150144
1.49912e-06
0.000179377
2.15719e-06
0.000194595
2.73237e-06
0.000204114
3.32839e-06
0.000210934
3.8542e-06
0.000216351
4.42166e-06
0.000220738
4.92488e-06
0.000224414
5.4407e-06
0.000227412
5.91114e-06
0.000229839
6.38367e-06
0.000231779
0.000233298
6.8085e-06
8.20597e-07
0.000149324
1.56814e-06
0.000178629
2.25164e-06
0.000193911
2.87271e-06
0.000203492
3.43138e-06
0.000210376
4.03043e-06
0.000215752
4.56169e-06
0.000220206
5.10728e-06
0.000223868
5.6659e-06
0.000226853
6.18159e-06
0.000229324
6.7143e-06
0.000231247
0.000232821
7.1905e-06
8.19849e-07
0.000148504
1.60733e-06
0.000177842
2.3141e-06
0.000193204
2.98739e-06
0.000202819
3.59437e-06
0.000209769
4.17789e-06
0.000215168
4.78358e-06
0.000219601
5.34528e-06
0.000223307
5.86431e-06
0.000226334
6.39067e-06
0.000228797
6.89017e-06
0.000230747
0.000232346
7.36608e-06
8.14933e-07
0.000147689
1.65331e-06
0.000177004
2.40631e-06
0.000192451
3.07256e-06
0.000202153
3.7246e-06
0.000209117
4.33664e-06
0.000214556
4.923e-06
0.000219014
5.50075e-06
0.000222729
6.09487e-06
0.00022574
6.6656e-06
0.000228227
7.19403e-06
0.000230219
0.000231815
7.72502e-06
8.78443e-07
0.000146811
1.72002e-06
0.000176162
2.47623e-06
0.000191695
3.18912e-06
0.00020144
3.83634e-06
0.000208469
4.48709e-06
0.000213905
5.09608e-06
0.000218405
5.74996e-06
0.000222075
6.2954e-06
0.000225194
6.88592e-06
0.000227636
7.44206e-06
0.000229663
0.000231343
7.9139e-06
8.90345e-07
0.00014592
1.76126e-06
0.000175291
2.57218e-06
0.000190884
3.27465e-06
0.000200737
3.97581e-06
0.000207768
4.64539e-06
0.000213236
5.27198e-06
0.000217779
5.91083e-06
0.000221436
6.56688e-06
0.000224538
7.13865e-06
0.000227064
7.70464e-06
0.000229097
0.000230721
8.32615e-06
9.07791e-07
0.000145012
1.84217e-06
0.000174357
2.63668e-06
0.00019009
3.4033e-06
0.000199971
4.11737e-06
0.000207054
4.806e-06
0.000212547
5.47605e-06
0.000217109
6.10534e-06
0.000220807
6.7707e-06
0.000223873
7.39723e-06
0.000226438
7.99435e-06
0.0002285
0.000230198
8.51726e-06
9.39176e-07
0.000144073
1.85973e-06
0.000173436
2.7437e-06
0.000189206
3.52512e-06
0.000199189
4.2852e-06
0.000206294
4.93213e-06
0.0002119
5.65556e-06
0.000216385
6.3265e-06
0.000220136
6.97828e-06
0.000223221
7.60671e-06
0.000225809
8.20584e-06
0.0002279
0.00022957
8.8339e-06
9.5842e-07
0.000143115
1.90794e-06
0.000172487
2.80767e-06
0.000188306
3.61249e-06
0.000198385
4.36948e-06
0.000205537
5.1322e-06
0.000211137
5.83853e-06
0.000215679
6.55245e-06
0.000219422
7.19365e-06
0.00022258
7.86517e-06
0.000225138
8.48298e-06
0.000227283
0.000228996
9.05725e-06
9.84738e-07
0.00014213
1.97936e-06
0.000171492
2.88369e-06
0.000187402
3.73649e-06
0.000197532
4.52863e-06
0.000204745
5.301e-06
0.000210365
6.05221e-06
0.000214928
6.75909e-06
0.000218715
7.47303e-06
0.000221866
8.11393e-06
0.000224497
8.8299e-06
0.000226567
0.000228351
9.47511e-06
1.01357e-06
0.000141117
2.0317e-06
0.000170474
2.96181e-06
0.000186472
3.8765e-06
0.000196617
4.66547e-06
0.000203956
5.43401e-06
0.000209596
6.24324e-06
0.000214118
6.96809e-06
0.00021799
7.67225e-06
0.000221162
8.40574e-06
0.000223764
9.05437e-06
0.000225918
0.000227764
9.64165e-06
1.04649e-06
0.00014007
2.09092e-06
0.00016943
3.10134e-06
0.000185461
3.94394e-06
0.000195774
4.79252e-06
0.000203107
5.64583e-06
0.000208743
6.37152e-06
0.000213393
7.20617e-06
0.000217155
7.95437e-06
0.000220414
8.69357e-06
0.000223024
9.36246e-06
0.000225249
0.000227045
1.00807e-05
1.06543e-06
0.000139005
2.14692e-06
0.000168348
3.1677e-06
0.00018444
4.07329e-06
0.000194869
4.98559e-06
0.000202195
5.78212e-06
0.000207946
6.63225e-06
0.000212542
7.39449e-06
0.000216393
8.15844e-06
0.00021965
8.89677e-06
0.000222286
9.59607e-06
0.00022455
0.000226376
1.02658e-05
1.09033e-06
0.000137915
2.19908e-06
0.00016724
3.22662e-06
0.000183413
4.24428e-06
0.000193851
5.1021e-06
0.000201337
6.00115e-06
0.000207047
6.83214e-06
0.000211711
7.59814e-06
0.000215627
8.42299e-06
0.000218825
9.18244e-06
0.000221527
9.95802e-06
0.000223774
0.000225711
1.06223e-05
1.11453e-06
0.0001368
2.2561e-06
0.000166098
3.33196e-06
0.000182337
4.31543e-06
0.000192868
5.27828e-06
0.000200374
6.18427e-06
0.000206141
7.03656e-06
0.000210859
7.86365e-06
0.0002148
8.66823e-06
0.00021802
9.47483e-06
0.00022072
1.02272e-05
0.000223022
0.000224968
1.09705e-05
1.14144e-06
0.000135659
2.35024e-06
0.000164889
3.45127e-06
0.000181236
4.46951e-06
0.000191849
5.44118e-06
0.000199402
6.34564e-06
0.000205237
7.24394e-06
0.000209961
8.13367e-06
0.00021391
8.98189e-06
0.000217172
9.77804e-06
0.000219924
1.05752e-05
0.000222225
0.0002242
1.1343e-05
1.1673e-06
0.000134491
2.37091e-06
0.000163686
3.50542e-06
0.000180101
4.56652e-06
0.000190788
5.5398e-06
0.000198429
6.53464e-06
0.000204242
7.42827e-06
0.000209067
8.31864e-06
0.00021302
9.18087e-06
0.00021631
9.98309e-06
0.000219122
1.07591e-05
0.000221449
0.000223515
1.14441e-05
1.19066e-06
0.000133301
2.42883e-06
0.000162447
3.63903e-06
0.000178891
4.72718e-06
0.0001897
5.7507e-06
0.000197406
6.70332e-06
0.000203289
7.64414e-06
0.000208126
8.58169e-06
0.000212082
9.48643e-06
0.000215405
1.03459e-05
0.000218262
1.11649e-05
0.00022063
0.00022264
1.20407e-05
1.25194e-06
0.000132049
2.52273e-06
0.000161177
3.7303e-06
0.000177684
4.84816e-06
0.000188582
5.89886e-06
0.000196355
6.90093e-06
0.000202287
7.89007e-06
0.000207137
8.84531e-06
0.000211127
9.70724e-06
0.000214543
1.06298e-05
0.000217339
1.14677e-05
0.000219792
0.000221821
1.22861e-05
1.23442e-06
0.000130814
2.58031e-06
0.000159831
3.82121e-06
0.000176443
4.97866e-06
0.000187425
6.11921e-06
0.000195214
7.10154e-06
0.000201305
8.11148e-06
0.000206127
9.09341e-06
0.000210145
1.00197e-05
0.000213617
1.09159e-05
0.000216443
1.18088e-05
0.000218899
0.000220952
1.26776e-05
1.2994e-06
0.000129515
2.63745e-06
0.000158493
3.91653e-06
0.000175164
5.14949e-06
0.000186192
6.2058e-06
0.000194158
7.32879e-06
0.000200182
8.36606e-06
0.00020509
9.32065e-06
0.00020919
1.02926e-05
0.000212645
1.12328e-05
0.000215503
1.21263e-05
0.000218006
0.00022013
1.29485e-05
1.31484e-06
0.0001282
2.69333e-06
0.000157114
4.00819e-06
0.000173849
5.23408e-06
0.000184966
6.43615e-06
0.000192956
7.51508e-06
0.000199103
8.57735e-06
0.000204027
9.60537e-06
0.000208162
1.0624e-05
0.000211626
1.15653e-05
0.000214562
1.251e-05
0.000217061
0.000219176
1.34646e-05
1.3671e-06
0.000126833
2.78803e-06
0.000155693
4.14556e-06
0.000172491
5.4108e-06
0.000183701
6.59648e-06
0.00019177
7.72971e-06
0.000197969
8.84192e-06
0.000202915
9.8929e-06
0.000207111
1.09103e-05
0.000210609
1.18923e-05
0.00021358
1.28287e-05
0.000216124
0.00021835
1.36548e-05
1.36092e-06
0.000125472
2.84887e-06
0.000154205
4.24181e-06
0.000171098
5.54446e-06
0.000182398
6.81385e-06
0.000190501
7.97311e-06
0.00019681
9.03961e-06
0.000201848
1.01642e-05
0.000205987
1.11797e-05
0.000209593
1.21858e-05
0.000212574
1.31634e-05
0.000215147
0.000217322
1.41914e-05
1.45377e-06
0.000124019
2.90728e-06
0.000152752
4.34015e-06
0.000169666
5.72862e-06
0.00018101
6.93988e-06
0.000189289
8.17996e-06
0.00019557
9.3164e-06
0.000200712
1.04177e-05
0.000204885
1.15063e-05
0.000208504
1.25828e-05
0.000211497
1.3562e-05
0.000214168
0.000216458
1.4425e-05
1.43964e-06
0.000122579
3.00725e-06
0.000151184
4.4838e-06
0.000168189
5.8657e-06
0.000179628
7.20886e-06
0.000187946
8.39163e-06
0.000194387
9.6255e-06
0.000199478
1.07535e-05
0.000203757
1.1843e-05