/*--------------------------------*- C++ -*----------------------------------*\
| =========                 |                                                 |
| \\      /  F ield         | OpenFOAM: The Open Source CFD Toolbox           |
|  \\    /   O peration     | Version:  2.3.1                                 |
|   \\  /    A nd           | Web:      www.OpenFOAM.org                      |
|    \\/     M anipulation  |                                                 |
\*---------------------------------------------------------------------------*/
FoamFile
{
    version     2.0;
    format      ascii;
    class       volVectorField;
    location    "0.24";
    object      U;
}
// * * * * * * * * * * * * * * * * * * * * * * * * * * * * * * * * * * * * * //

dimensions      [0 1 -1 0 0 0 0];

internalField   nonuniform List<vector> 
15166
(
(5.99 0.560652 3.10171e-19)
(7.20079 1.03622 1.56817e-18)
(8.28033 0.90258 -8.80923e-19)
(9.30931 0.955872 7.8991e-19)
(10.101 1.01884 8.13413e-19)
(10.8743 1.07288 4.2948e-19)
(11.5249 1.17038 -8.50925e-19)
(12.0637 1.23535 8.24885e-19)
(12.456 1.32873 -4.18809e-19)
(12.7603 1.38743 1.65762e-18)
(12.9839 1.44216 -1.21785e-18)
(13.1359 1.49975 1.21277e-18)
(6.68347 1.02827 4.80938e-19)
(7.61674 1.42804 5.26941e-20)
(8.56647 1.21051 2.76406e-20)
(9.48512 1.22977 4.50544e-19)
(10.2422 1.24864 -3.90691e-19)
(10.9666 1.27424 0)
(11.5805 1.33491 4.20789e-19)
(12.0829 1.37995 1.36117e-21)
(12.4585 1.43946 4.14655e-19)
(12.7495 1.48046 -8.36401e-19)
(12.9636 1.51978 1.64354e-18)
(13.1198 1.55805 -1.22496e-18)
(7.22717 1.26 -4.55349e-19)
(8.05276 1.57176 -2.44379e-18)
(8.91131 1.37786 4.8214e-19)
(9.73064 1.41128 -9.14415e-19)
(10.4365 1.41693 -1.6665e-20)
(11.1041 1.43166 8.75006e-19)
(11.6735 1.47029 -1.257e-18)
(12.1371 1.50027 -4.31934e-19)
(12.4896 1.53758 8.2447e-19)
(12.7621 1.56415 6.03172e-21)
(12.9641 1.58965 -1.22838e-18)
(13.1158 1.6138 1.61111e-18)
(7.53393 1.37704 0)
(8.36598 1.63026 -1.07186e-18)
(9.19345 1.47978 2.51522e-18)
(9.95579 1.52749 -1.42948e-18)
(10.6253 1.53137 9.15738e-19)
(11.2475 1.54521 1.3528e-18)
(11.778 1.57295 -4.19813e-19)
(12.2081 1.59404 4.32021e-19)
(12.5379 1.6175 -8.44557e-19)
(12.7923 1.63346 8.34674e-19)
(12.9828 1.64768 4.14362e-19)
(13.1298 1.6602 8.21703e-19)
(7.74556 1.45079 -6.18654e-19)
(8.60786 1.66602 -5.74037e-19)
(9.41997 1.55508 -1.55852e-18)
(10.1482 1.60844 1.47085e-18)
(10.7936 1.61267 -4.66064e-19)
(11.3826 1.62795 -4.51752e-19)
(11.8822 1.64986 -4.40834e-19)
(12.2852 1.66561 4.4758e-19)
(12.5954 1.68038 -4.26416e-19)
(12.8338 1.68908 -4.20195e-19)
(13.0137 1.69576 -1.25405e-18)
(13.1537 1.70154 -4.69469e-21)
(7.93348 1.50238 1.22606e-18)
(8.82495 1.68857 1.16345e-18)
(9.62054 1.61149 -1.08859e-18)
(10.322 1.66624 2.05662e-18)
(10.9476 1.67206 -1.96673e-18)
(11.5096 1.68892 9.42045e-19)
(11.9838 1.70722 0)
(12.3644 1.71939 8.98151e-19)
(12.6577 1.72847 -1.74962e-18)
(12.8822 1.73206 8.55513e-19)
(13.0524 1.73332 0)
(13.1853 1.73385 1.2479e-18)
(8.10645 1.53685 -6.68039e-19)
(9.02631 1.69883 6.15195e-19)
(9.80561 1.65055 0)
(10.4847 1.70515 0)
(11.0918 1.7138 5.14866e-19)
(11.6306 1.7323 4.93898e-19)
(12.0828 1.74839 -9.43859e-19)
(12.4443 1.75817 1.3741e-18)
(12.7227 1.76338 4.51058e-19)
(12.9353 1.76312 0)
(13.0971 1.75995 4.32854e-19)
(13.2248 1.75623 0)
(8.26115 1.55752 -1.35019e-18)
(9.20979 1.69934 1.24463e-18)
(9.9753 1.67518 5.69767e-19)
(10.6362 1.72874 5.57459e-19)
(11.2268 1.74076 -2.59848e-18)
(11.7454 1.76082 5.05893e-19)
(12.1786 1.77573 0)
(12.5237 1.78402 -4.62421e-19)
(12.7892 1.78671 4.61852e-19)
(12.9915 1.78384 2.8005e-21)
(13.1457 1.77772 -8.65419e-19)
(13.2672 1.77138 8.54e-19)
(8.39879 1.56733 1.39e-18)
(9.37588 1.69259 -1.28036e-18)
(10.1301 1.68862 5.85294e-19)
(10.7763 1.74046 -1.67757e-18)
(11.3523 1.75578 2.1405e-18)
(11.8536 1.77712 -2.05013e-18)
(12.2705 1.79147 9.87229e-19)
(12.6014 1.79892 0)
(12.8557 1.80005 4.69891e-19)
(13.0492 1.79548 0)
(13.1968 1.78732 8.96144e-19)
(13.3128 1.77856 -4.34443e-19)
(8.52255 1.56862 1.42999e-18)
(9.5272 1.68031 0)
(10.2719 1.69325 6.18648e-19)
(10.9058 1.74298 5.83933e-19)
(11.4689 1.76126 5.54857e-19)
(11.9553 1.78352 5.30854e-19)
(12.358 1.79762 0)
(12.6768 1.80461 0)
(12.9215 1.8048 -1.41864e-18)
(13.1073 1.79915 2.31746e-18)
(13.2492 1.78973 -8.97182e-19)
(13.3601 1.78081 -1.33233e-18)
(8.63514 1.56318 1.45961e-18)
(9.66631 1.66365 -1.99938e-18)
(10.403 1.69074 1.88084e-18)
(11.0262 1.73812 -1.7613e-18)
(11.5775 1.75894 -5.52901e-19)
(12.0508 1.78177 -5.29549e-19)
(12.4412 1.79579 1.0297e-18)
(12.7495 1.80255 -9.98149e-19)
(12.9858 1.80221 -1.45475e-18)
(13.1652 1.79593 -4.64846e-19)
(13.302 1.78539 1.84666e-18)
(13.408 1.77512 -8.89285e-19)
(8.73829 1.55219 -1.49589e-18)
(9.79486 1.64331 -2.03521e-18)
(10.5247 1.6822 -3.1596e-19)
(11.1386 1.72714 1.20445e-18)
(11.679 1.75009 8.51446e-19)
(12.1407 1.77322 -2.18691e-18)
(12.5202 1.78724 2.10312e-18)
(12.8193 1.7939 -3.84539e-21)
(13.0484 1.79336 -1.48287e-18)
(13.2219 1.78698 9.60834e-19)
(13.3541 1.7763 -4.63888e-19)
(13.4554 1.76519 9.0103e-19)
(8.83312 1.53659 -1.1399e-18)
(9.91404 1.61985 -3.51219e-19)
(10.6381 1.66855 3.20454e-19)
(11.2436 1.71102 0)
(11.7742 1.73569 2.87897e-19)
(12.2254 1.75891 -2.81178e-19)
(12.5952 1.77294 0)
(12.8862 1.77958 0)
(13.1088 1.779 2.52883e-19)
(13.277 1.77272 0)
(13.4041 1.76244 0)
(13.4995 1.75144 -9.11617e-19)
(8.92065 1.51711 -3.84097e-19)
(10.025 1.59371 3.49585e-19)
(10.7442 1.65053 0)
(11.342 1.69053 0)
(11.8634 1.71655 1.18083e-18)
(12.3053 1.73965 -8.55969e-19)
(12.6664 1.75365 1.08651e-18)
(12.9502 1.76021 -1.05528e-18)
(13.1672 1.75947 7.64098e-19)
(13.331 1.75274 -5.66593e-21)
(13.4545 1.74165 -1.9295e-18)
(13.5473 1.73352 1.17414e-18)
(9.0016 1.49432 -1.5791e-18)
(10.1284 1.56519 0)
(10.8438 1.62871 1.33515e-18)
(11.4345 1.6663 -1.58752e-18)
(11.9474 1.69334 0)
(12.3808 1.71617 2.90384e-19)
(12.7342 1.73012 1.10376e-18)
(13.0116 1.73666 -2.4079e-18)
(13.2236 1.73607 2.07216e-18)
(13.3835 1.72972 -1.00985e-18)
(13.5039 1.71865 9.7694e-19)
(13.5936 1.70489 -1.18969e-18)
(9.07666 1.46872 3.49428e-21)
(10.2251 1.53459 7.31173e-19)
(10.9373 1.6036 0)
(11.5214 1.63884 3.17959e-19)
(12.0265 1.66661 0)
(12.4521 1.68907 8.75313e-19)
(12.7985 1.70295 -7.82699e-21)
(13.0703 1.70948 -8.20172e-19)
(13.2779 1.70903 0)
(13.4342 1.70303 -2.57207e-19)
(13.5512 1.69243 2.50234e-19)
(13.6381 1.6773 0)
(9.1464 1.44069 3.99721e-19)
(10.3156 1.50213 -1.11299e-18)
(11.0252 1.57559 1.03321e-18)
(11.6034 1.60854 -4.58743e-21)
(12.1011 1.6368 3.07577e-19)
(12.5196 1.65879 -2.96385e-19)
(12.8597 1.67257 0)
(13.1263 1.67908 0)
(13.33 1.67874 1.06289e-18)
(13.483 1.67295 -7.82729e-19)
(13.597 1.6629 -5.03956e-19)
(13.6806 1.6488 -2.44643e-19)
(9.2112 1.4105 4.08852e-19)
(10.4006 1.46793 3.70597e-19)
(11.1082 1.54498 -3.45861e-19)
(11.6807 1.57575 6.56176e-19)
(12.1716 1.60427 -1.56586e-18)
(12.5835 1.62575 3.04929e-19)
(12.9178 1.63938 0)
(13.1798 1.64587 5.55977e-19)
(13.3799 1.64567 -5.42863e-19)
(13.5302 1.64012 -7.87293e-19)
(13.6416 1.63051 2.57662e-19)
(13.7229 1.61764 7.41091e-19)
(9.27152 1.37845 0)
(10.4804 1.43218 0)
(11.1866 1.51209 0)
(11.7537 1.54073 3.35488e-19)
(12.2382 1.56935 0)
(12.644 1.59024 6.0595e-19)
(12.973 1.6037 -8.8244e-19)
(13.2309 1.61017 0)
(13.4278 1.61018 -5.45484e-19)
(13.5755 1.60497 5.30701e-19)
(13.6847 1.59581 0)
(13.7641 1.58322 0)
(9.32772 1.34475 2.11015e-18)
(10.5554 1.395 -1.53008e-18)
(11.2607 1.47713 7.15115e-19)
(11.8228 1.50372 -1.00586e-18)
(12.3012 1.53227 1.28461e-18)
(12.7014 1.55254 -9.21396e-19)
(13.0256 1.56579 8.89289e-19)
(13.2795 1.57224 2.81988e-19)
(13.4735 1.57246 -1.10891e-18)
(13.6187 1.56768 8.08271e-19)
(13.7258 1.55914 0)
(13.8032 1.54622 0)
(9.38005 1.30959 -1.70758e-18)
(10.626 1.35651 0)
(11.3307 1.44032 0)
(11.8881 1.46493 -6.78256e-19)
(12.3607 1.49325 6.5187e-19)
(12.7557 1.51285 -9.29077e-19)
(13.0754 1.52585 5.12691e-21)
(13.3259 1.53224 8.69142e-19)
(13.517 1.53262 5.58459e-19)
(13.6601 1.52814 -5.4708e-19)
(13.7649 1.52013 -2.66225e-19)
(13.8403 1.50693 0)
(9.42869 1.27314 -1.29272e-18)
(10.6924 1.31682 1.17584e-18)
(11.3969 1.40184 0)
(11.9499 1.42449 -6.84844e-19)
(12.4172 1.45247 9.88313e-19)
(12.8073 1.47138 0)
(13.1228 1.48408 0)
(13.37 1.49035 2.94224e-19)
(13.5587 1.4908 5.64505e-19)
(13.6998 1.48643 -5.5314e-19)
(13.8031 1.47858 5.35387e-19)
(13.8773 1.4672 0)
(9.4741 1.23542 -4.27193e-21)
(10.755 1.27588 -1.18225e-18)
(11.4597 1.3618 0)
(12.0084 1.38257 1.04001e-18)
(12.4706 1.41012 -9.94183e-19)
(12.8561 1.42829 3.19309e-19)
(13.1678 1.44068 3.07535e-19)
(13.412 1.44683 -8.82703e-19)
(13.5986 1.4474 5.75592e-19)
(13.7379 1.44333 -2.7962e-19)
(13.8399 1.4359 2.71599e-21)
(13.9129 1.42571 0)
(9.5158 1.19653 -8.75202e-19)
(10.8137 1.23382 7.9796e-19)
(11.519 1.32037 0)
(12.0638 1.3393 -3.48178e-19)
(12.5212 1.36633 0)
(12.9024 1.38377 -3.18918e-19)
(13.2105 1.39582 3.1218e-21)
(13.4521 1.40185 3.00011e-19)
(13.6366 1.40254 -2.90742e-19)
(13.7744 1.39871 -2.72262e-21)
(13.8751 1.3915 -2.53407e-21)
(13.9473 1.38256 -1.06832e-18)
(9.55446 1.15693 -4.45786e-19)
(10.8689 1.19108 -7.98395e-19)
(11.5751 1.27776 7.48718e-19)
(12.1162 1.29483 3.54619e-19)
(12.5691 1.32127 0)
(12.9463 1.33795 3.24943e-19)
(13.2511 1.34966 -6.23323e-19)
(13.4901 1.35555 -5.97059e-19)
(13.6728 1.35634 8.77703e-19)
(13.8092 1.35278 -2.60997e-21)
(13.9089 1.3458 -2.50232e-21)
(13.9801 1.33731 2.68303e-19)
(9.5906 1.11642 4.40709e-19)
(10.921 1.14732 -8.10972e-19)
(11.6281 1.23397 -3.77954e-19)
(12.1659 1.24925 -3.53981e-19)
(12.6144 1.27505 -3.41224e-19)
(12.9877 1.29097 3.24697e-19)
(13.2895 1.3023 -1.2605e-18)
(13.5262 1.30804 2.92858e-21)
(13.7072 1.30892 0)
(13.8424 1.30561 8.5496e-19)
(13.9412 1.29889 -2.82408e-19)
(14.012 1.2914 -2.7107e-19)
(9.62381 1.07504 -4.52824e-19)
(10.9698 1.10267 0)
(11.6783 1.18912 3.15818e-21)
(12.2128 1.20263 3.59855e-19)
(12.6573 1.22775 6.84491e-19)
(13.027 1.2429 3.24323e-19)
(13.3258 1.25385 -1.27065e-18)
(13.5605 1.25945 3.11104e-19)
(13.7399 1.26045 8.9591e-19)
(13.8739 1.25748 0)
(13.972 1.25115 0)
(14.0423 1.24354 0)
(9.65403 1.03281 1.81706e-18)
(11.0156 1.05716 -8.1641e-19)
(11.7257 1.1433 7.68573e-19)
(12.2571 1.15508 -3.59328e-19)
(12.6978 1.17947 6.95233e-19)
(13.0641 1.19384 9.89181e-19)
(13.3602 1.2044 -9.59627e-19)
(13.5928 1.20984 5.95147e-21)
(13.7708 1.21091 1.20116e-18)
(13.9038 1.2082 -8.77564e-19)
(14.001 1.20237 2.84309e-19)
(14.0705 1.19558 -5.43706e-19)
(9.68163 0.990099 -4.55667e-19)
(11.0584 1.01113 -4.1359e-19)
(11.7703 1.09665 -3.82661e-19)
(12.299 1.10666 -7.23325e-19)
(12.7359 1.1303 -3.39666e-19)
(13.099 1.14388 3.35333e-19)
(13.3926 1.15403 3.17527e-19)
(13.6234 1.15928 -9.32974e-19)
(13.8001 1.16037 3.06156e-19)
(13.9322 1.15782 5.8689e-19)
(14.0287 1.15217 -2.84418e-19)
(14.0976 1.147 -2.79121e-19)
(9.7067 0.946812 -9.16514e-19)
(11.0984 0.964494 1.66287e-18)
(11.8124 1.04924 0)
(12.3385 1.05745 0)
(12.7719 1.08031 0)
(13.1319 1.0931 6.71532e-19)
(13.4232 1.10282 6.48055e-19)
(13.6523 1.10788 -3.12459e-19)
(13.8278 1.10902 3.05308e-19)
(13.9591 1.10671 2.08323e-21)
(14.0552 1.1013 -5.72317e-19)
(14.1235 1.09643 5.59768e-19)
(9.72969 0.903202 9.27114e-19)
(11.1359 0.917335 -2.06367e-19)
(11.852 1.001 -1.95114e-19)
(12.3757 1.0075 0)
(12.8058 1.02956 0)
(13.1629 1.04155 -3.36738e-19)
(13.4519 1.05084 3.24177e-19)
(13.6794 1.05572 -6.34589e-19)
(13.8539 1.05691 3.04371e-19)
(13.9845 1.05483 -8.95276e-19)
(14.0801 1.04972 0)
(14.1482 1.04542 -2.80975e-19)
(9.75005 0.85908 -1.86089e-18)
(11.1707 0.869471 6.34361e-19)
(11.8892 0.951956 1.94903e-19)
(12.4106 0.95682 -5.50837e-19)
(12.8376 0.978091 7.10071e-19)
(13.1919 0.989302 0)
(13.4789 0.998171 6.53259e-19)
(13.7049 1.00286 -6.38706e-19)
(13.8784 1.00408 0)
(14.0083 1.00226 0)
(14.1034 0.997513 0)
(14.1711 0.992641 5.59486e-19)
(9.76806 0.814952 0)
(11.2028 0.821456 0)
(11.9239 0.902323 -3.91461e-19)
(12.4433 0.905523 1.70189e-21)
(12.8674 0.925994 0)
(13.2191 0.936425 -6.80535e-19)
(13.504 0.944864 1.48622e-18)
(13.7288 0.949338 -4.82312e-19)
(13.9014 0.95056 -6.1751e-19)
(14.0307 0.948887 1.57425e-19)
(14.1254 0.944422 6.06071e-21)
(14.1927 0.939864 5.76343e-19)
(9.78402 0.770428 4.69251e-19)
(11.2325 0.772796 -2.13578e-19)
(11.9564 0.852055 1.98142e-19)
(12.4739 0.853684 -1.85724e-19)
(12.8951 0.87333 8.93536e-19)
(13.2444 0.882978 -1.72987e-19)
(13.5275 0.890983 -4.95953e-19)
(13.751 0.895256 -3.18362e-19)
(13.9228 0.896497 3.13738e-19)
(14.0518 0.895034 -3.03523e-19)
(14.1462 0.89096 1.48099e-19)
(14.2132 0.886417 -1.41307e-19)
(9.79793 0.725492 7.0928e-19)
(11.2597 0.723634 -6.40667e-19)
(11.9866 0.801253 -1.97999e-19)
(12.5025 0.801299 1.88121e-19)
(12.921 0.820136 -5.36321e-19)
(13.2679 0.829011 5.1863e-19)
(13.5493 0.836587 -3.23512e-21)
(13.7716 0.840676 -1.63707e-19)
(13.9428 0.841964 -3.12362e-19)
(14.0714 0.840707 4.59125e-19)
(14.1656 0.836987 1.47426e-19)
(14.2326 0.833004 -4.37588e-19)
(9.80931 0.680419 2.38773e-19)
(11.2845 0.674239 0)
(12.0147 0.750013 -1.99934e-19)
(12.5289 0.748438 9.40911e-22)
(12.945 0.766447 0)
(13.2896 0.774552 1.73972e-19)
(13.5694 0.781711 0)
(13.7906 0.785638 0)
(13.9611 0.787009 0)
(14.0893 0.786073 0)
(14.1834 0.78287 -2.9727e-19)
(14.2506 0.778706 5.79973e-19)
(9.81913 0.635144 -4.78522e-19)
(11.3071 0.62454 0)
(12.0405 0.698352 4.00573e-19)
(12.5535 0.695096 -1.88818e-19)
(12.9671 0.712302 -3.60484e-19)
(13.3095 0.71964 1.7637e-19)
(13.5877 0.726371 -3.35325e-19)
(13.808 0.730102 3.28219e-19)
(13.9779 0.731497 -3.15601e-19)
(14.1057 0.730785 3.17025e-21)
(14.1993 0.728198 1.53582e-19)
(14.2663 0.725234 2.91193e-19)
(9.82673 0.589379 0)
(11.3274 0.574279 -2.16248e-19)
(12.0643 0.646218 -2.00663e-19)
(12.576 0.641283 0)
(12.9874 0.657717 -3.61949e-19)
(13.3278 0.664278 7.00137e-19)
(13.6045 0.670571 -3.40073e-19)
(13.8238 0.674076 0)
(13.9932 0.675418 0)
(14.1206 0.674718 -1.553e-19)
(14.2141 0.672178 -1.50569e-19)
(14.2802 0.67193 0)
(9.83224 0.543642 4.8014e-19)
(11.3454 0.524031 -4.24446e-21)
(12.086 0.593775 -2.94567e-21)
(12.5966 0.587056 -3.38533e-21)
(13.0059 0.602747 -5.49407e-19)
(13.3443 0.60853 0)
(13.6197 0.614368 0)
(13.8382 0.617635 0)
(14.0071 0.61892 0)
(14.1345 0.618198 1.55378e-19)
(14.2284 0.615117 -1.49584e-19)
(14.2955 0.616746 2.948e-21)
(9.83596 0.497453 -6.03345e-19)
(11.3612 0.473308 6.53969e-19)
(12.1056 0.540949 4.03331e-19)
(12.6153 0.532426 -3.84516e-19)
(13.0226 0.547442 9.10517e-20)
(13.3593 0.552456 0)
(13.6333 0.557872 3.39412e-19)
(13.8511 0.560949 -3.31924e-21)
(14.0196 0.562342 -3.23055e-19)
(14.1469 0.562144 0)
(14.2408 0.559816 -2.28251e-19)
(14.3076 0.55615 0)
(9.83774 0.451161 2.05248e-21)
(11.3749 0.422477 4.3842e-19)
(12.1231 0.48781 1.01793e-19)
(12.6321 0.477467 2.86198e-19)
(13.0376 0.491866 -2.7732e-19)
(13.3725 0.496094 0)
(13.6454 0.501078 3.40628e-19)
(13.8624 0.503932 -3.33589e-21)
(14.0306 0.505265 -2.43509e-19)
(14.1578 0.505132 0)
(14.2514 0.503213 1.52875e-19)
(14.3186 0.503103 0)
(9.83819 0.404898 1.21747e-21)
(11.3864 0.371368 3.29449e-19)
(12.1386 0.434203 -1.0178e-19)
(12.6471 0.422261 1.92544e-19)
(13.0509 0.43607 0)
(13.3842 0.439468 0)
(13.6559 0.444017 -8.59855e-20)
(13.8723 0.446639 -8.34139e-20)
(14.0402 0.447939 -8.08245e-20)
(14.1674 0.447947 -7.88954e-20)
(14.2612 0.44627 -1.52413e-19)
(14.3286 0.446521 1.4881e-19)
(9.83677 0.358378 -1.22132e-19)
(11.3958 0.319736 -1.09534e-19)
(12.1522 0.380144 2.03511e-19)
(12.6602 0.36682 -4.82649e-19)
(13.0625 0.380055 1.85575e-19)
(13.3942 0.382606 0)
(13.6649 0.386717 8.59994e-20)
(13.8807 0.389108 8.34368e-20)
(14.0484 0.390395 -1.61597e-19)
(14.1756 0.390536 2.37869e-19)
(14.2696 0.389018 1.53391e-19)
(14.3371 0.389373 -1.51073e-19)
(9.83364 0.31213 0)
(11.4028 0.268243 0)
(12.1638 0.325744 1.02634e-19)
(12.6716 0.311117 0)
(13.0725 0.32389 -9.27391e-20)
(13.4027 0.325525 8.93526e-20)
(13.6723 0.329205 1.7187e-19)
(13.8876 0.331367 -2.52333e-19)
(14.0552 0.332645 0)
(14.1824 0.33298 -7.94005e-20)
(14.2765 0.331845 7.65453e-20)
(14.3443 0.331464 -2.24949e-19)
(9.82894 0.265683 6.15527e-20)
(11.4078 0.216363 2.19861e-19)
(12.1732 0.271039 -3.08692e-19)
(12.6813 0.255291 0)
(13.0809 0.267543 4.62642e-20)
(13.4096 0.268213 8.87118e-20)
(13.6783 0.271492 -3.46321e-19)
(13.8931 0.273423 4.20013e-19)
(14.0606 0.274665 -1.64233e-19)
(14.1879 0.275094 1.19258e-19)
(14.2822 0.27419 0)
(14.3503 0.273653 7.57193e-20)
(9.82243 0.219349 -6.15728e-20)
(11.4109 0.164419 0)
(12.1805 0.216259 -5.09467e-20)
(12.6892 0.19953 9.76806e-20)
(13.0877 0.210994 1.39076e-19)
(13.4149 0.210628 -9.00889e-20)
(13.6828 0.213603 -4.34252e-20)
(13.8972 0.215325 4.21504e-20)
(14.0645 0.216567 8.14813e-20)
(14.192 0.217227 -1.20008e-19)
(14.2865 0.21697 -3.88834e-20)
(14.3552 0.215464 -3.75713e-20)
(9.81433 0.173076 -9.20066e-20)
(11.4121 0.112281 1.38912e-19)
(12.1859 0.161467 -7.73233e-20)
(12.6954 0.143788 1.21341e-19)
(13.0926 0.154112 -2.09709e-19)
(13.4187 0.152842 1.79664e-19)
(13.6858 0.15562 -6.56923e-20)
(13.8998 0.157074 4.18154e-20)
(14.0671 0.158256 -1.64187e-19)
(14.1947 0.158933 6.03624e-20)
(14.2895 0.158884 3.89127e-20)
(14.3582 0.157558 3.80914e-20)
(9.80474 0.127134 -9.24988e-20)
(11.4115 0.0599426 2.80123e-20)
(12.1895 0.106677 2.58032e-20)
(12.6999 0.0879037 -2.43612e-20)
(13.0958 0.0969518 -2.31296e-20)
(13.421 0.0951615 4.51914e-20)
(13.6873 0.0974895 2.17571e-20)
(13.901 0.098687 0)
(14.0683 0.0998583 0)
(14.1961 0.100692 2.00107e-20)
(14.2912 0.101197 0)
(14.3605 0.100101 0)
(9.79371 0.0812619 -1.54986e-20)
(11.409 0.00737318 1.38374e-20)
(12.1915 0.0518641 7.11611e-22)
(12.7025 0.0319363 -1.26429e-20)
(13.0975 0.0396319 0)
(13.4218 0.0374246 0)
(13.6873 0.039251 1.15246e-20)
(13.9007 0.0401958 -2.11595e-20)
(14.0681 0.0413401 1.03454e-20)
(14.1961 0.0422379 6.26805e-22)
(14.2916 0.0429103 0)
(14.3611 0.042363 0)
(9.78086 0.0355793 4.65711e-20)
(11.4045 -0.0452881 2.77059e-20)
(12.1917 -0.00310079 -1.38229e-20)
(12.7034 -0.0240724 3.81604e-22)
(13.0977 -0.0177111 -1.16908e-20)
(13.421 -0.0204013 1.12668e-20)
(13.6859 -0.0190838 -1.15914e-20)
(13.899 -0.0183616 -3.16625e-20)
(14.0664 -0.0172436 -1.00921e-20)
(14.1947 -0.0161781 9.5081e-21)
(14.2906 -0.0150039 -9.77967e-21)
(14.3606 -0.0149878 0)
(9.7665 -0.00981945 4.63244e-20)
(11.3982 -0.0977317 -8.35572e-20)
(12.1901 -0.0580356 1.31058e-20)
(12.7026 -0.0801477 -2.42376e-20)
(13.0963 -0.0750732 3.55078e-20)
(13.4187 -0.0782704 3.40262e-20)
(13.683 -0.0774776 1.09086e-20)
(13.896 -0.0770032 1.05921e-20)
(14.0635 -0.0759769 1.0305e-20)
(14.192 -0.0749516 3.0118e-20)
(14.2881 -0.0738209 -9.78891e-21)
(14.3578 -0.0728842 5.72786e-20)
(9.75074 -0.0551492 -6.16209e-20)
(11.39 -0.150156 -8.26413e-20)
(12.1867 -0.112957 1.29939e-19)
(12.7001 -0.136265 -2.44605e-20)
(13.0934 -0.132433 -1.16548e-19)
(13.4149 -0.136167 1.80357e-19)
(13.6787 -0.135885 -4.40845e-20)
(13.8915 -0.135669 0)
(14.0592 -0.134754 4.12538e-20)
(14.1882 -0.133762 -2.00844e-20)
(14.2851 -0.132897 1.9573e-20)
(14.3558 -0.130579 -1.91325e-20)
(9.7332 -0.10032 -1.25174e-19)
(11.38 -0.202456 -5.5507e-22)
(12.1815 -0.16785 0)
(12.696 -0.192397 -9.74831e-20)
(13.0889 -0.189739 9.40289e-20)
(13.4097 -0.194022 0)
(13.673 -0.19424 1.04884e-25)
(13.8857 -0.194238 0)
(14.0536 -0.193335 -4.1256e-20)
(14.1831 -0.192068 0)
(14.2807 -0.190844 0)
(14.3527 -0.188161 -7.50684e-20)
(9.71416 -0.14507 6.23299e-20)
(11.3682 -0.254402 5.51008e-20)
(12.1745 -0.222652 -4.14879e-19)
(12.6902 -0.248493 3.91747e-19)
(13.0829 -0.246989 -1.88052e-19)
(13.4029 -0.251832 0)
(13.6658 -0.252524 -4.36677e-20)
(13.8785 -0.25274 0)
(14.0467 -0.251887 0)
(14.1765 -0.250492 0)
(14.2746 -0.249117 0)
(14.347 -0.246573 -1.50806e-19)
(9.69376 -0.189562 1.24663e-19)
(11.3546 -0.306196 2.23002e-19)
(12.1658 -0.277408 0)
(12.6828 -0.304533 2.92902e-19)
(13.0753 -0.304155 -9.44435e-20)
(13.3947 -0.309582 0)
(13.6572 -0.310748 -8.64659e-20)
(13.8698 -0.311203 8.64693e-20)
(14.0383 -0.310428 1.65838e-19)
(14.1686 -0.308921 2.40226e-19)
(14.2671 -0.307158 -1.57463e-19)
(14.34 -0.305069 7.5432e-20)
(9.67206 -0.233776 -4.98938e-19)
(11.3391 -0.357774 -1.11548e-19)
(12.1553 -0.332072 1.03764e-19)
(12.6738 -0.360497 -7.67679e-23)
(13.0662 -0.361218 -9.35982e-20)
(13.385 -0.367248 9.00809e-20)
(13.6472 -0.368895 8.63597e-20)
(13.8598 -0.369602 -2.55098e-19)
(14.0285 -0.368941 0)
(14.1594 -0.367453 -2.40144e-19)
(14.2584 -0.365596 3.13108e-19)
(14.3315 -0.363525 -3.06144e-19)
(9.64862 -0.278024 2.49491e-19)
(11.322 -0.409387 2.22333e-19)
(12.1431 -0.386601 -2.08295e-19)
(12.6631 -0.416354 -9.7916e-20)
(13.0555 -0.418166 1.86151e-19)
(13.3739 -0.424799 -9.18206e-20)
(13.6358 -0.426912 -8.80965e-20)
(13.8484 -0.427862 8.46293e-20)
(14.0175 -0.427292 0)
(14.1489 -0.425713 0)
(14.2486 -0.423461 0)
(14.3223 -0.421189 7.79615e-22)
(9.62368 -0.321648 -2.49441e-19)
(11.3028 -0.460435 0)
(12.129 -0.440946 -1.36705e-22)
(12.6507 -0.472074 0)
(13.0433 -0.474962 9.33729e-20)
(13.3613 -0.48219 -3.58205e-19)
(13.6229 -0.484764 2.62988e-19)
(13.8357 -0.485959 -8.4653e-20)
(14.0052 -0.485493 0)
(14.1372 -0.483985 -3.19141e-19)
(14.2378 -0.482049 3.1432e-19)
(14.3124 -0.479873 -7.67266e-20)
(9.59739 -0.365305 -3.73992e-19)
(11.282 -0.511488 2.22587e-19)
(12.1132 -0.49509 -3.10905e-19)
(12.6367 -0.527612 1.95302e-19)
(13.0295 -0.53158 -2.79932e-19)
(13.3472 -0.539417 0)
(13.6086 -0.542417 0)
(13.8215 -0.543811 3.36313e-19)
(13.9915 -0.543319 -4.9495e-19)
(14.1242 -0.541417 -1.58726e-19)
(14.2256 -0.538562 1.57971e-19)
(14.3025 -0.537026 0)
(9.56933 -0.408561 0)
(11.2594 -0.562149 -1.30827e-21)
(12.0958 -0.548999 -2.08246e-19)
(12.6211 -0.582963 -1.6638e-21)
(13.0142 -0.587992 -1.87951e-19)
(13.3316 -0.596435 5.36681e-19)
(13.5929 -0.599879 -3.4927e-19)
(13.8059 -0.601499 1.67232e-19)
(13.9762 -0.601087 -1.65783e-19)
(14.1094 -0.599166 1.58203e-19)
(14.2114 -0.596035 -1.57447e-19)
(14.2886 -0.592606 2.99614e-19)
(9.5401 -0.451446 7.46832e-19)
(11.2352 -0.612442 2.22587e-19)
(12.0765 -0.602653 0)
(12.6038 -0.638103 3.9008e-19)
(12.9973 -0.644213 3.70709e-19)
(13.3146 -0.653281 -1.82865e-19)
(13.5757 -0.657184 -3.48728e-19)
(13.7888 -0.659064 3.56001e-22)
(13.9596 -0.658776 0)
(14.0934 -0.656918 0)
(14.196 -0.6537 0)
(14.2734 -0.649531 0)
(9.50957 -0.494105 -7.46686e-19)
(11.2091 -0.662554 -2.21839e-19)
(12.0555 -0.656142 0)
(12.5849 -0.693046 -1.95012e-19)
(12.9789 -0.700234 -1.85692e-19)
(13.296 -0.709938 -1.77448e-19)
(13.5571 -0.714306 3.40467e-21)
(13.7704 -0.716469 8.41117e-19)
(13.9417 -0.716323 -3.29048e-19)
(14.0762 -0.714543 0)
(14.1797 -0.711605 3.09139e-19)
(14.2576 -0.707658 -3.04565e-19)
(9.47727 -0.536552 -2.48888e-19)
(11.1813 -0.712423 1.31083e-21)
(12.0326 -0.709348 2.07908e-19)
(12.5644 -0.747758 0)
(12.959 -0.756008 1.71341e-21)
(13.2761 -0.766347 3.5844e-19)
(13.5371 -0.771179 -3.44006e-19)
(13.7507 -0.77361 5.05003e-19)
(13.9225 -0.773561 0)
(14.0578 -0.771666 0)
(14.1622 -0.76834 0)
(14.2412 -0.764604 4.4769e-19)
(9.4434 -0.578523 -9.92686e-19)
(11.1516 -0.761784 -6.63337e-19)
(12.0081 -0.762181 6.19634e-19)
(12.5421 -0.802163 0)
(12.9375 -0.811504 -3.70466e-19)
(13.2546 -0.822483 -1.78472e-19)
(13.5157 -0.82777 0)
(13.7296 -0.830474 3.3278e-19)
(13.902 -0.830566 -3.27639e-19)
(14.038 -0.828743 0)
(14.1433 -0.825552 0)
(14.223 -0.821161 -1.51112e-19)
(9.40814 -0.620173 9.88784e-19)
(11.1204 -0.810797 -2.23507e-19)
(11.9818 -0.814679 -2.04127e-19)
(12.5183 -0.856247 1.9583e-19)
(12.9145 -0.866681 1.85131e-19)
(13.2317 -0.878301 -5.31419e-19)
(13.4929 -0.884045 3.45799e-19)
(13.7071 -0.887012 -3.34081e-19)
(13.8801 -0.887207 -3.23464e-19)
(14.017 -0.885276 3.18425e-19)
(14.1232 -0.881788 0)
(14.2043 -0.877303 -1.48745e-19)
(9.3714 -0.661324 4.91487e-19)
(11.0873 -0.859299 -6.64322e-19)
(11.9538 -0.866803 -2.05546e-19)
(12.4928 -0.909995 1.15661e-18)
(12.8899 -0.921531 -7.4083e-19)
(13.2074 -0.933794 1.77659e-19)
(13.4687 -0.93999 6.83002e-19)
(13.6833 -0.943224 -5.02853e-19)
(13.8569 -0.943531 1.6185e-19)
(13.9946 -0.941605 0)
(14.1018 -0.938152 0)
(14.1838 -0.933836 1.49931e-19)
(9.33365 -0.702064 -9.0546e-22)
(11.0525 -0.907337 0)
(11.924 -0.918591 6.10884e-19)
(12.4656 -0.963409 -9.68255e-19)
(12.8638 -0.976026 -7.32313e-19)
(13.1815 -0.988952 7.10833e-19)
(13.443 -0.995586 5.10248e-19)
(13.6581 -0.999058 -8.33718e-19)
(13.8323 -0.999482 -1.61934e-19)
(13.9709 -0.997424 -7.83781e-19)
(14.079 -0.993475 4.64087e-19)
(14.1625 -0.989747 0)
(9.29386 -0.742707 -2.46795e-19)
(11.0158 -0.955308 0)
(11.8924 -0.97004 1.01786e-18)
(12.4368 -1.01647 -1.53894e-18)
(12.8361 -1.03019 3.70761e-19)
(13.1542 -1.04374 -3.51991e-19)
(13.416 -1.05083 1.70909e-19)
(13.6314 -1.05457 4.94424e-19)
(13.8063 -1.05515 -6.47814e-19)
(13.9457 -1.0532 1.5727e-19)
(14.0548 -1.04928 4.56621e-19)
(14.1388 -1.04634 -5.9825e-19)
(9.25236 -0.78247 4.90302e-19)
(10.9774 -1.00239 4.37125e-19)
(11.859 -1.02093 8.11147e-19)
(12.4062 -1.06906 -1.53494e-18)
(12.8068 -1.08393 1.10119e-18)
(13.1253 -1.09815 -3.47466e-19)
(13.3874 -1.10569 3.44061e-19)
(13.6033 -1.1097 3.30735e-19)
(13.7789 -1.11037 0)
(13.9193 -1.10835 0)
(14.0295 -1.10384 -3.01251e-19)
(14.1149 -1.10108 6.33983e-21)
(9.20994 -0.821818 -2.23382e-21)
(10.9373 -1.04896 -1.97917e-21)
(11.8238 -1.07137 0)
(12.374 -1.12126 -3.80027e-19)
(12.776 -1.13728 1.09582e-18)
(13.095 -1.15214 -3.49574e-19)
(13.3574 -1.16014 -6.72662e-19)
(13.5738 -1.16444 3.32942e-19)
(13.7502 -1.16523 3.17366e-19)
(13.8915 -1.16333 -9.37652e-19)
(14.0027 -1.15875 0)
(14.0887 -1.15681 -2.95643e-19)
(9.16604 -0.860748 -2.35507e-21)
(10.8954 -1.09507 4.31677e-19)
(11.787 -1.12141 -4.08294e-19)
(12.3401 -1.173 -1.1413e-18)
(12.7436 -1.19019 -3.5754e-19)
(13.0632 -1.20575 1.39949e-18)
(13.326 -1.21418 1.62877e-21)
(13.543 -1.21875 1.58034e-21)
(13.7201 -1.21965 3.19449e-19)
(13.8623 -1.2177 3.11258e-19)
(13.9746 -1.21255 0)
(14.0624 -1.20936 8.75397e-19)
(9.12069 -0.899321 -4.88284e-19)
(10.852 -1.14079 -4.32782e-19)
(11.7483 -1.17092 -4.0451e-19)
(12.3046 -1.22428 -3.77593e-19)
(12.7096 -1.24265 7.26987e-19)
(13.0298 -1.25892 -1.04073e-18)
(13.2932 -1.26781 3.43565e-19)
(13.5107 -1.27268 6.57377e-19)
(13.6885 -1.27374 0)
(13.8317 -1.27195 3.06755e-19)
(13.945 -1.26706 -1.20507e-18)
(14.0328 -1.26403 5.92181e-19)
(9.07349 -0.93732 4.82681e-19)
(10.8064 -1.18597 -4.3529e-19)
(11.7078 -1.22002 -1.20111e-18)
(12.2674 -1.27512 3.48309e-21)
(12.674 -1.29465 0)
(12.995 -1.3116 -3.45386e-19)
(13.2589 -1.32098 -3.33833e-19)
(13.477 -1.32616 3.25698e-19)
(13.6557 -1.32741 0)
(13.7999 -1.32572 3.0865e-19)
(13.9145 -1.32096 5.97027e-19)
(14.0039 -1.31753 -6.42913e-21)
(9.02455 -0.974513 4.85237e-19)
(10.7592 -1.23023 0)
(11.6654 -1.26834 7.99752e-19)
(12.2284 -1.32532 -3.79457e-19)
(12.6367 -1.3461 -3.58067e-19)
(12.9587 -1.36375 1.03231e-18)
(13.2231 -1.37363 -9.9881e-19)
(13.442 -1.37911 9.72407e-19)
(13.6216 -1.38051 0)
(13.7668 -1.37877 -3.04097e-19)
(13.8826 -1.37377 8.98057e-19)
(13.9736 -1.37003 2.89106e-19)
(8.97477 -1.01113 -9.63666e-19)
(10.7105 -1.27385 4.27652e-19)
(11.6213 -1.3161 -3.61837e-21)
(12.1877 -1.37502 -7.53942e-19)
(12.598 -1.39705 7.14798e-19)
(12.9208 -1.41539 0)
(13.186 -1.42576 -3.30611e-19)
(13.4055 -1.43156 -3.22665e-19)
(13.586 -1.43315 0)
(13.7324 -1.43153 3.0073e-19)
(13.8494 -1.42676 -8.95134e-19)
(13.9416 -1.42316 -2.90439e-19)
(8.92373 -1.04736 0)
(10.6597 -1.31703 2.67828e-21)
(11.5755 -1.36339 1.18895e-18)
(12.1453 -1.42415 -6.63126e-21)
(12.5576 -1.44745 -1.77997e-18)
(12.8815 -1.4665 1.3662e-18)
(13.1473 -1.47734 -1.31794e-18)
(13.3676 -1.48344 6.43432e-19)
(13.5491 -1.48517 0)
(13.6966 -1.48349 0)
(13.815 -1.47833 -2.93552e-19)
(13.9092 -1.47453 5.73072e-19)
(8.87075 -1.08298 0)
(10.6072 -1.35954 2.81726e-21)
(11.5277 -1.41005 -1.18057e-18)
(12.1012 -1.4727 7.47387e-19)
(12.5155 -1.49724 0)
(12.8406 -1.51705 6.76492e-19)
(13.1072 -1.52837 -3.3036e-19)
(13.3283 -1.53477 0)
(13.5108 -1.53672 -6.16149e-19)
(13.6594 -1.53523 6.06316e-19)
(13.779 -1.53042 -2.94903e-19)
(13.8742 -1.52698 0)
(8.81611 -1.11802 9.51764e-19)
(10.5531 -1.40146 4.24705e-19)
(11.4782 -1.45598 7.86482e-19)
(12.0553 -1.52061 0)
(12.4718 -1.54643 7.01217e-19)
(12.7981 -1.56698 -3.43327e-19)
(13.0656 -1.5788 -6.56138e-19)
(13.2876 -1.58552 0)
(13.4711 -1.58763 3.06781e-19)
(13.621 -1.5861 0)
(13.7421 -1.58095 0)
(13.8393 -1.577 0)
(8.75981 -1.1522 4.71259e-19)
(10.4969 -1.44254 -8.4634e-19)
(11.4267 -1.50124 -3.92678e-19)
(12.0076 -1.56785 0)
(12.4265 -1.59498 6.97528e-19)
(12.7541 -1.6163 -3.38154e-19)
(13.0225 -1.6286 -6.45896e-19)
(13.2454 -1.63564 9.4624e-19)
(13.43 -1.63794 -9.16009e-19)
(13.5811 -1.63656 8.96165e-19)
(13.7036 -1.63175 -8.67417e-19)
(13.8019 -1.6283 6.35664e-21)
(8.70217 -1.18556 1.88089e-18)
(10.4389 -1.48262 -4.24352e-19)
(11.3733 -1.54571 0)
(11.9581 -1.61436 1.09394e-18)
(12.3794 -1.64287 -6.30381e-21)
(12.7085 -1.66494 -6.71657e-19)
(12.9779 -1.67775 -3.21345e-19)
(13.2018 -1.68511 -2.37225e-21)
(13.3874 -1.68752 6.05122e-19)
(13.5398 -1.68606 -5.97656e-19)
(13.6639 -1.68074 1.15135e-18)
(13.7646 -1.6771 -1.11624e-18)
(8.64325 -1.21838 -9.37412e-19)
(10.3793 -1.52201 -4.18341e-19)
(11.3181 -1.58945 -3.85356e-19)
(11.9069 -1.66015 -2.88426e-21)
(12.3307 -1.69006 -3.45026e-19)
(12.6613 -1.71291 -6.6129e-19)
(12.9318 -1.72625 6.46749e-19)
(13.1567 -1.73396 -2.46258e-21)
(13.3434 -1.73659 0)
(13.497 -1.73528 -8.80698e-19)
(13.6222 -1.72991 5.74167e-19)
(13.7237 -1.72552 0)
(8.58276 -1.25052 4.72208e-19)
(10.3178 -1.56071 8.3227e-19)
(11.2611 -1.63244 1.15209e-18)
(11.8538 -1.70522 -1.09068e-18)
(12.2803 -1.73654 -3.39699e-19)
(12.6125 -1.76021 9.91782e-19)
(12.8842 -1.77412 3.19721e-19)
(13.1101 -1.7822 -3.09939e-19)
(13.298 -1.78512 -1.19411e-18)
(13.4529 -1.78415 1.17458e-18)
(13.5796 -1.77934 -2.85786e-19)
(13.682 -1.77496 -1.10977e-18)
(8.52055 -1.2819 -9.2293e-19)
(10.2544 -1.5986 1.64823e-18)
(11.2021 -1.67467 -3.86284e-19)
(11.7989 -1.74953 3.58001e-19)
(12.2282 -1.78229 3.40498e-19)
(12.5622 -1.80676 -2.82164e-21)
(12.8351 -1.82125 9.44114e-19)
(13.0622 -1.82967 -1.23221e-18)
(13.2513 -1.83285 0)
(13.4078 -1.83199 2.88802e-19)
(13.5363 -1.82742 0)
(13.641 -1.82338 2.75073e-19)
(8.45665 -1.31245 -1.83467e-18)
(10.1892 -1.63557 1.64387e-18)
(11.1412 -1.71602 -3.81448e-19)
(11.7422 -1.79301 -3.58795e-19)