/*--------------------------------*- C++ -*----------------------------------*\
| =========                 |                                                 |
| \\      /  F ield         | OpenFOAM: The Open Source CFD Toolbox           |
|  \\    /   O peration     | Version:  2.3.1                                 |
|   \\  /    A nd           | Web:      www.OpenFOAM.org                      |
|    \\/     M anipulation  |                                                 |
\*---------------------------------------------------------------------------*/
FoamFile
{
    version     2.0;
    format      ascii;
    class       volVectorField;
    location    "40";
    object      D;
}
// * * * * * * * * * * * * * * * * * * * * * * * * * * * * * * * * * * * * * //

dimensions      [0 1 0 0 0 0 0];

internalField   nonuniform List<vector> 
11800
(
(1.7906e-07 7.503e-06 0)
(-2.72475e-07 8.25664e-06 0)
(1.20482e-07 3.39271e-06 0)
(-1.70856e-07 4.17732e-06 0)
(-2.50216e-07 8.24409e-06 0)
(-1.17252e-07 4.18252e-06 0)
(-4.78e-08 5.94485e-06 0)
(-5.11705e-08 4.91589e-06 0)
(1.58813e-08 1.38616e-06 0)
(8.25031e-09 3.47641e-06 0)
(2.00957e-07 7.48761e-06 0)
(-2.16914e-07 3.74435e-06 0)
(-6.28062e-10 -4.93795e-10 0)
(1.04873e-07 3.37935e-06 0)
(-1.53504e-07 4.18931e-06 0)
(2.56494e-07 9.75399e-07 0)
(-3.27524e-08 5.93176e-06 0)
(-3.71544e-08 4.9035e-06 0)
(4.06273e-09 1.39691e-06 0)
(-3.32537e-09 3.46519e-06 0)
(-1.34555e-07 4.172e-06 0)
(-2.00218e-07 3.75459e-06 0)
(-7.85328e-08 4.53875e-07 0)
(-8.29236e-08 4.68062e-07 0)
(2.15626e-07 1.07497e-06 0)
(-1.11538e-07 6.64148e-07 0)
(-2.42261e-07 2.66194e-06 0)
(2.40053e-07 5.47896e-06 0)
(-2.3583e-07 2.21768e-06 0)
(-2.28197e-07 1.77235e-06 0)
(2.66056e-07 6.5539e-06 0)
(-9.66772e-10 3.74385e-07 0)
(1.22189e-07 7.98522e-07 0)
(-1.72157e-07 8.45542e-06 0)
(1.08705e-07 8.41899e-06 0)
(-3.43639e-07 6.9165e-06 0)
(1.00088e-07 8.44547e-06 0)
(1.19037e-07 8.14991e-07 0)
(-4.65693e-08 6.2002e-06 0)
(8.66381e-09 3.70092e-06 0)
(-2.37499e-07 2.68153e-06 0)
(-2.3125e-07 2.23701e-06 0)
(2.33741e-07 5.45628e-06 0)
(-2.23677e-07 1.79156e-06 0)
(2.59006e-07 6.5291e-06 0)
(2.42953e-07 9.81809e-07 0)
(7.70671e-08 5.15329e-07 0)
(8.68495e-08 5.08821e-07 0)
(-6.60588e-08 6.20409e-06 0)
(2.5319e-08 3.70435e-06 0)
(-3.18035e-07 4.96135e-06 0)
(-3.36969e-07 5.99099e-06 0)
(-5.11985e-08 7.43148e-06 0)
(4.38892e-10 3.59207e-07 0)
(-3.18766e-07 1.10333e-06 0)
(7.07362e-08 1.02318e-07 0)
(-4.60103e-07 8.56241e-06 0)
(-1.31986e-07 3.30694e-06 0)
(9.46422e-08 4.26842e-06 0)
(-1.0252e-07 3.22145e-06 0)
(1.23874e-07 2.80141e-07 0)
(-7.3625e-08 7.43629e-06 0)
(-1.17805e-07 3.30213e-06 0)
(7.99253e-08 4.27382e-06 0)
(2.02386e-07 1.06408e-06 0)
(-4.25686e-07 7.66402e-06 0)
(-3.29853e-07 4.94621e-06 0)
(-3.50859e-07 5.97423e-06 0)
(-4.36758e-07 8.54964e-06 0)
(-1.15871e-07 6.80005e-07 0)
(-1.55655e-07 8.47689e-06 0)
(-2.62095e-07 8.43486e-06 0)
(-2.69227e-07 8.40748e-06 0)
(-8.04971e-09 1.66051e-08 0)
(1.32064e-07 2.89408e-07 0)
(-3.24703e-07 6.93191e-06 0)
(2.37476e-07 1.34906e-06 0)
(-4.32919e-07 7.68946e-06 0)
(-3.47109e-07 7.74607e-06 0)
(-3.25714e-07 7.76864e-06 0)
(-3.04756e-07 1.09332e-06 0)
(2.87773e-09 3.79602e-06 0)
(2.13118e-07 8.37308e-06 0)
(1.88301e-07 8.37776e-06 0)
(-4.91769e-08 3.86768e-06 0)
(-2.10806e-07 1.9234e-06 0)
(2.3587e-07 6.36336e-06 0)
(-2.18602e-07 2.36824e-06 0)
(-2.24264e-07 2.81472e-06 0)
(2.1329e-07 5.30385e-06 0)
(-2.7414e-08 7.29226e-06 0)
(1.32671e-07 7.68975e-07 0)
(-2.23205e-07 7.78878e-06 0)
(4.22161e-07 8.62138e-06 0)
(4.30593e-08 4.46624e-06 0)
(-1.70208e-10 -1.27785e-10 0)
(4.17508e-12 -2.50451e-11 0)
(1.67221e-10 -1.2548e-10 0)
(-2.40488e-08 7.5114e-06 0)
(-2.0598e-07 3.80039e-06 0)
(3.58274e-07 8.5926e-06 0)
(1.90825e-07 4.05234e-06 0)
(-1.58868e-07 1.01196e-06 0)
(-4.30502e-08 8.42422e-07 0)
(-2.91316e-08 8.21186e-06 0)
(2.39138e-08 1.43038e-06 0)
(-6.10484e-08 4.86495e-06 0)
(-5.72163e-08 5.88865e-06 0)
(1.69091e-07 4.85079e-07 0)
(1.85001e-07 2.36518e-06 0)
(1.85444e-07 1.92035e-06 0)
(1.86317e-07 2.81083e-06 0)
(-2.70378e-07 6.36524e-06 0)
(-2.53091e-07 5.30428e-06 0)
(1.73614e-08 3.42966e-06 0)
(1.34309e-07 4.53593e-07 0)
(3.91115e-07 7.6935e-06 0)
(-1.83961e-07 7.86891e-06 0)
(1.38241e-07 4.40444e-07 0)
(-4.95744e-08 3.50524e-06 0)
(-3.77475e-08 1.3606e-06 0)
(2.01545e-08 5.97833e-06 0)
(1.38316e-08 4.94577e-06 0)
(-6.09111e-08 5.79133e-06 0)
(-2.24534e-07 7.81444e-06 0)
(-3.73427e-08 7.4909e-06 0)
(-1.50916e-07 8.2145e-06 0)
(-4.84451e-08 8.19464e-06 0)
(-4.99052e-07 8.83014e-06 0)
(-5.18045e-07 8.8091e-06 0)
(-4.67297e-08 2.73295e-08 0)
(-1.47495e-07 5.53992e-07 0)
(2.40362e-07 6.2157e-06 0)
(-2.19272e-07 2.04339e-06 0)
(2.18657e-07 5.16773e-06 0)
(-2.26935e-07 2.48735e-06 0)
(-2.32809e-07 2.93575e-06 0)
(2.20385e-07 6.2202e-06 0)
(-2.03064e-07 2.03939e-06 0)
(2.00124e-07 5.17199e-06 0)
(-2.10341e-07 2.48346e-06 0)
(-2.15977e-07 2.93181e-06 0)
(-7.28512e-08 1.28986e-06 0)
(6.85243e-08 6.06558e-06 0)
(5.86407e-08 5.02915e-06 0)
(-9.22188e-08 3.58018e-06 0)
(3.21733e-07 3.80994e-06 0)
(-3.65914e-07 3.75301e-06 0)
(1.87082e-07 4.07223e-06 0)
(-5.72176e-08 8.79708e-07 0)
(-2.39004e-07 7.26455e-06 0)
(-2.3764e-07 7.29705e-06 0)
(9.57343e-08 8.36062e-06 0)
(-2.59377e-07 6.92256e-06 0)
(7.50582e-08 5.30219e-06 0)
(8.72385e-08 6.3607e-06 0)
(-2.77066e-07 5.7713e-06 0)
(-2.61949e-07 4.75645e-06 0)
(1.9617e-07 1.52593e-06 0)
(-4.04943e-08 7.31565e-06 0)
(1.84546e-07 4.90758e-07 0)
(-2.38486e-07 6.92795e-06 0)
(2.4818e-07 1.36212e-06 0)
(-1.34063e-07 2.89023e-06 0)
(-1.29784e-07 2.44244e-06 0)
(-1.24287e-07 1.99808e-06 0)
(1.10896e-07 5.21604e-06 0)
(1.2424e-07 6.26759e-06 0)
(-1.87411e-07 3.65859e-07 0)
(-2.03405e-07 1.48656e-06 0)
(2.24885e-07 5.82288e-06 0)
(2.07665e-07 4.80216e-06 0)
(3.91845e-08 5.88422e-06 0)
(-3.90442e-07 6.89085e-06 0)
(-3.9524e-07 6.92484e-06 0)
(2.50833e-07 1.07434e-06 0)
(2.48625e-07 1.09533e-06 0)
(1.71678e-07 2.31945e-06 0)
(1.72519e-07 2.76497e-06 0)
(1.72518e-07 1.87547e-06 0)
(-2.38468e-07 5.35608e-06 0)
(-2.54614e-07 6.42311e-06 0)
(7.66606e-08 5.27839e-06 0)
(8.79917e-08 6.33549e-06 0)
(8.93801e-08 3.74546e-06 0)
(-7.53603e-08 3.57511e-06 0)
(-5.80058e-08 1.29451e-06 0)
(4.90558e-08 6.05951e-06 0)
(4.03196e-08 5.02354e-06 0)
(-1.05066e-07 7.18027e-06 0)
(-5.50748e-08 2.14132e-06 0)
(-5.84965e-08 2.58591e-06 0)
(-3.50852e-07 7.6116e-06 0)
(-2.53922e-08 7.62304e-07 0)
(-3.27395e-07 4.31365e-06 0)
(2.7051e-07 3.26781e-06 0)
(1.11739e-08 1.98391e-08 0)
(-2.20895e-07 8.46776e-06 0)
(3.88881e-07 7.7204e-06 0)
(-3.96093e-08 3.64303e-08 0)
(2.50309e-07 8.04697e-06 0)
(3.03214e-07 7.01975e-06 0)
(3.27473e-07 7.02466e-06 0)
(-2.75459e-08 8.2496e-06 0)
(-4.44367e-08 8.27368e-06 0)
(1.72889e-07 3.21702e-06 0)
(1.49615e-07 3.22647e-06 0)
(-2.26391e-07 4.36509e-06 0)
(-2.0187e-07 4.35491e-06 0)
(4.52504e-08 2.67612e-08 0)
(-7.70593e-08 1.00122e-06 0)
(-9.77055e-08 6.54023e-07 0)
(-3.34463e-09 1.44705e-09 0)
(2.72514e-07 7.31519e-07 0)
(-1.04285e-08 3.75167e-09 0)
(3.0252e-08 6.46466e-07 0)
(-2.47771e-07 8.20911e-06 0)
(-1.65221e-07 1.89267e-06 0)
(-1.71062e-07 2.33777e-06 0)
(-1.75976e-07 2.78382e-06 0)
(1.77748e-07 6.40083e-06 0)
(1.60812e-07 5.33859e-06 0)
(-6.70198e-10 6.05047e-06 0)
(-6.25563e-09 5.01521e-06 0)
(-2.01011e-08 1.30139e-06 0)
(-3.29385e-08 3.56801e-06 0)
(-1.56409e-08 2.66917e-09 0)
(1.49231e-08 1.51931e-06 0)
(-5.08677e-08 4.76293e-06 0)
(-1.25312e-07 3.48716e-06 0)
(2.56928e-08 1.50404e-06 0)
(-6.34355e-08 4.78037e-06 0)
(-1.74021e-07 7.81325e-06 0)
(1.66775e-07 3.76357e-06 0)
(1.54088e-07 3.74443e-06 0)
(3.27318e-09 1.4275e-09 0)
(1.53053e-08 2.62806e-09 0)
(-3.12457e-07 7.34007e-06 0)
(-3.01679e-07 7.36655e-06 0)
(-3.14394e-07 3.36644e-06 0)
(2.85736e-07 4.20737e-06 0)
(2.22496e-07 6.4193e-06 0)
(2.00865e-07 5.355e-06 0)
(-1.98919e-07 1.87862e-06 0)
(-2.06185e-07 2.32349e-06 0)
(-2.11694e-07 2.76929e-06 0)
(-2.8855e-08 7.46475e-06 0)
(-1.90784e-07 1.44187e-06 0)
(2.11478e-07 5.87782e-06 0)
(1.94762e-07 4.85314e-06 0)
(1.28207e-07 3.78986e-06 0)
(1.05691e-07 7.09893e-06 0)
(1.89986e-07 8.62952e-06 0)
(4.05913e-08 6.39182e-07 0)
(-1.00144e-07 3.24281e-06 0)
(-4.11611e-09 2.97218e-07 0)
(1.02235e-08 3.70919e-09 0)
(5.21763e-08 3.36096e-06 0)
(4.17597e-08 3.33741e-06 0)
(-9.44149e-08 4.21363e-06 0)
(-8.38621e-08 4.23502e-06 0)
(1.36449e-07 2.78084e-06 0)
(1.36048e-07 2.33524e-06 0)
(1.37911e-07 1.8908e-06 0)
(-1.97051e-07 5.33814e-06 0)
(-2.0873e-07 6.4031e-06 0)
(-1.30676e-07 8.46977e-06 0)
(1.07987e-07 2.26993e-07 0)
(-1.65139e-08 5.39772e-06 0)
(-1.40944e-08 1.83878e-06 0)
(1.32661e-07 8.19962e-06 0)
(9.68854e-08 3.72745e-06 0)
(-4.99053e-07 8.11041e-06 0)
(1.13668e-07 3.80836e-06 0)
(1.82989e-08 2.25793e-08 0)
(3.55492e-07 6.81723e-06 0)
(3.57064e-07 6.78627e-06 0)
(-2.35672e-07 4.85826e-06 0)
(-2.49377e-07 5.87971e-06 0)
(-2.1247e-07 4.84961e-06 0)
(-2.24268e-07 5.87048e-06 0)
(1.71372e-07 1.43695e-06 0)
(1.52018e-07 1.44426e-06 0)
(8.72732e-08 4.57699e-06 0)
(1.07294e-07 4.57319e-06 0)
(9.54157e-08 5.58006e-06 0)
(1.16918e-07 5.57626e-06 0)
(-1.05566e-07 1.6849e-06 0)
(-1.23393e-07 1.6883e-06 0)
(-3.33636e-08 9.64522e-07 0)
(1.41767e-07 6.92598e-07 0)
(1.33447e-07 6.74959e-07 0)
(1.47216e-07 5.46149e-07 0)
(8.76494e-08 7.12462e-06 0)
(-3.82908e-07 6.8311e-06 0)
(-3.84359e-07 6.7987e-06 0)
(2.4909e-07 1.16171e-06 0)
(2.4652e-07 1.13839e-06 0)
(2.77538e-07 3.81103e-06 0)
(2.80864e-07 3.84025e-06 0)
(-3.21681e-07 3.75167e-06 0)
(-3.24059e-07 3.72299e-06 0)
(1.22028e-07 8.35549e-06 0)
(-4.04844e-07 8.4558e-06 0)
(-3.71271e-07 7.26052e-06 0)
(2.25681e-07 4.02264e-07 0)
(-2.4138e-07 8.3587e-06 0)
(-2.16975e-07 8.33248e-06 0)
(6.74196e-08 4.61336e-06 0)
(-7.46032e-08 4.28589e-06 0)
(3.0466e-08 3.29119e-06 0)
(-2.76206e-07 3.82077e-06 0)
(2.28477e-07 3.74071e-06 0)
(-2.28717e-07 1.15035e-06 0)
(-1.27121e-08 1.19167e-08 0)
(4.62994e-08 3.55667e-07 0)
(9.99534e-10 3.43684e-06 0)
(-2.42405e-07 3.45093e-06 0)
(2.03732e-07 4.11425e-06 0)
(-1.51872e-07 3.24332e-06 0)
(1.20043e-07 4.33804e-06 0)
(5.56688e-08 6.49842e-06 0)
(8.18002e-08 6.48732e-06 0)
(-7.26078e-08 2.25942e-06 0)
(-9.32581e-08 2.26827e-06 0)
(-7.59056e-08 2.70469e-06 0)
(-9.6923e-08 2.71357e-06 0)
(7.62207e-09 1.42366e-06 0)
(-4.17095e-08 4.87268e-06 0)
(-3.68746e-08 5.89733e-06 0)
(-5.93157e-08 8.07574e-06 0)
(1.33946e-07 5.44088e-07 0)
(-3.12106e-08 4.20913e-06 0)
(-1.97894e-07 8.2578e-06 0)
(7.65167e-08 1.04975e-07 0)
(1.26719e-07 5.41709e-06 0)
(-1.34712e-07 1.82394e-06 0)
(-2.76596e-07 4.24018e-06 0)
(-2.6097e-07 4.2259e-06 0)
(2.21345e-07 3.33626e-06 0)
(2.06663e-07 3.34998e-06 0)
(-2.91103e-07 8.58192e-06 0)
(-2.93934e-07 8.54816e-06 0)
(-9.19858e-08 9.67938e-07 0)
(-1.07717e-07 9.64914e-07 0)
(5.05767e-08 3.69044e-07 0)
(-1.36432e-07 3.77456e-07 0)
(-8.29569e-09 4.35246e-06 0)
(1.11652e-07 1.45713e-06 0)
(9.18156e-08 1.46428e-06 0)
(-1.64322e-07 4.83446e-06 0)
(-1.40799e-07 4.82612e-06 0)
(-1.71958e-07 5.85457e-06 0)
(-1.46234e-07 5.84582e-06 0)
(-3.52737e-07 7.06456e-06 0)
(-3.26973e-07 7.06642e-06 0)
(-1.02239e-07 3.01714e-06 0)
(-1.00684e-07 2.56796e-06 0)
(-9.63892e-08 2.12358e-06 0)
(8.73837e-08 6.67082e-06 0)
(-3.82821e-08 7.4013e-06 0)
(2.02873e-07 3.73868e-06 0)
(1.90202e-07 3.7604e-06 0)
(7.81361e-08 5.95538e-06 0)
(7.03696e-08 4.92532e-06 0)
(-8.5066e-08 1.37839e-06 0)
(5.57377e-08 1.49116e-06 0)
(4.31993e-08 1.51132e-06 0)
(-8.64905e-08 5.79013e-06 0)
(-9.99643e-08 5.81253e-06 0)
(-9.83354e-08 4.79513e-06 0)
(-8.37319e-08 4.77199e-06 0)
(-1.56461e-07 1.40238e-06 0)
(1.55417e-07 4.89829e-06 0)
(1.70057e-07 5.92609e-06 0)
(-9.05577e-09 1.33406e-07 0)
(3.05069e-07 4.08927e-06 0)
(-3.37983e-07 3.48003e-06 0)
(-5.81972e-09 1.25871e-07 0)
(-1.07427e-07 6.41852e-06 0)
(-1.24287e-07 6.44678e-06 0)
(-1.01982e-07 5.35506e-06 0)
(-1.16931e-07 5.38071e-06 0)
(7.01044e-08 1.85442e-06 0)
(5.77043e-08 1.87629e-06 0)
(6.93562e-08 2.30047e-06 0)
(5.6494e-08 2.32256e-06 0)
(6.87246e-08 2.74611e-06 0)
(5.56107e-08 2.76836e-06 0)
(3.57259e-07 7.07111e-06 0)
(3.64936e-07 7.10126e-06 0)
(-8.53426e-08 6.58405e-07 0)
(1.12373e-07 5.43651e-06 0)
(-1.22299e-07 1.80712e-06 0)
(1.83027e-07 1.53547e-06 0)
(-2.46281e-07 4.74536e-06 0)
(-2.60772e-07 5.75886e-06 0)
(-1.22169e-08 4.15676e-09 0)
(2.80988e-08 7.32424e-06 0)
(1.83961e-07 1.48583e-06 0)
(-2.48906e-07 4.80229e-06 0)
(-2.6403e-07 5.81861e-06 0)
(2.13955e-07 6.08352e-07 0)
(-2.07554e-07 7.85893e-06 0)
(1.92153e-07 1.26874e-06 0)
(-2.96517e-07 6.65158e-06 0)
(-1.37398e-07 8.16481e-07 0)
(-1.45057e-07 8.38091e-07 0)
(1.28785e-07 8.31531e-07 0)
(-5.04445e-08 4.20465e-06 0)
(-8.05676e-10 -5.83869e-10 0)
(-2.21481e-07 8.53817e-06 0)
(-1.09099e-08 5.17978e-09 0)
(1.19695e-08 4.10687e-09 0)
(-1.58125e-07 1.45548e-06 0)
(1.69324e-07 5.8605e-06 0)
(1.55334e-07 4.83697e-06 0)
(1.35039e-07 7.33465e-06 0)
(-4.75131e-07 7.8028e-06 0)
(3.44389e-08 4.01804e-06 0)
(-5.60475e-08 3.94637e-06 0)
(-2.73063e-08 8.45992e-07 0)
(-8.85252e-08 1.57476e-07 0)
(-5.73805e-10 -5.11703e-10 0)
(-1.38234e-07 3.26315e-06 0)
(1.05347e-07 4.31716e-06 0)
(3.4228e-08 1.38591e-08 0)
(-3.52996e-08 3.90684e-06 0)
(-3.45546e-08 3.88116e-06 0)
(-2.25542e-08 3.47297e-06 0)
(-1.53913e-08 1.39102e-06 0)
(-1.37577e-08 4.91037e-06 0)
(-9.45065e-09 5.94075e-06 0)
(-3.4995e-08 1.40419e-08 0)
(7.2173e-08 8.94406e-07 0)
(-1.60248e-07 6.56238e-06 0)
(9.61637e-08 2.20949e-06 0)
(9.58897e-08 2.65512e-06 0)
(9.44755e-08 3.10351e-06 0)
(3.17622e-07 8.22492e-06 0)
(-2.08791e-07 1.34587e-06 0)
(2.40246e-07 5.99776e-06 0)
(2.20682e-07 4.96501e-06 0)
(-2.03197e-07 7.65196e-06 0)
(6.86441e-08 3.18459e-07 0)
(2.3136e-07 7.52952e-06 0)
(-1.463e-07 3.72397e-07 0)
(1.60635e-07 8.25451e-06 0)
(-1.40043e-07 6.56276e-06 0)
(8.04127e-08 2.20926e-06 0)
(7.99663e-08 2.65483e-06 0)
(7.84679e-08 3.10299e-06 0)
(5.99245e-08 3.05411e-07 0)
(8.73878e-08 5.53644e-06 0)
(-9.97003e-08 1.72173e-06 0)
(-4.72439e-08 8.93069e-07 0)
(-3.43663e-07 7.55122e-06 0)
(-1.53825e-07 2.89706e-06 0)
(-1.49198e-07 2.44916e-06 0)
(-1.43312e-07 2.00482e-06 0)
(1.32167e-07 5.21004e-06 0)
(1.47147e-07 6.26111e-06 0)
(4.54516e-07 8.67403e-06 0)
(2.45942e-07 7.70947e-06 0)
(2.75184e-07 7.69805e-06 0)
(1.25104e-08 1.40276e-08 0)
(1.47699e-07 3.25115e-06 0)
(-1.99472e-07 4.32861e-06 0)
(-1.07763e-07 3.2818e-06 0)
(7.0988e-08 4.29809e-06 0)
(-4.51448e-08 4.52351e-06 0)
(-3.24337e-08 6.45152e-06 0)
(-4.8789e-09 2.74214e-06 0)
(-2.95107e-09 2.29642e-06 0)
(-1.24707e-08 1.81309e-06 0)
(-2.39591e-08 4.43497e-06 0)
(-1.83405e-08 5.42889e-06 0)
(1.93215e-07 8.66131e-06 0)
(1.5331e-08 9.11936e-07 0)
(-1.72068e-08 3.00755e-07 0)
(1.94775e-08 5.67325e-06 0)
(1.65772e-09 3.08796e-07 0)
(-7.07684e-08 7.37586e-07 0)
(9.5666e-08 1.80944e-06 0)
(-1.48633e-07 5.43309e-06 0)
(-1.05491e-08 2.14641e-08 0)
(-3.19397e-07 7.54799e-06 0)
(-5.21541e-08 1.37227e-06 0)
(3.57436e-08 5.96519e-06 0)
(3.08984e-08 4.93224e-06 0)
(2.40781e-08 6.10482e-09 0)
(-2.14756e-07 6.16648e-07 0)
(9.38973e-08 2.69826e-06 0)
(9.41458e-08 2.25269e-06 0)
(-1.56848e-07 6.50765e-06 0)
(7.82522e-09 3.34972e-06 0)
(-2.26559e-07 8.43734e-06 0)
(-1.21539e-08 1.74191e-09 0)
(-2.4994e-07 8.59869e-07 0)
(1.77299e-07 5.51773e-07 0)
(-2.17533e-07 3.67028e-07 0)
(2.03223e-07 3.78435e-06 0)
(1.44446e-07 4.32977e-06 0)
(-1.77099e-07 3.25019e-06 0)
(1.73751e-09 1.80064e-06 0)
(-4.27427e-08 4.44652e-06 0)
(-3.54241e-08 5.44347e-06 0)
(1.98917e-07 7.45452e-06 0)
(1.75452e-07 4.02674e-06 0)
(9.07559e-08 8.49527e-06 0)
(8.68697e-08 8.52432e-06 0)
(7.92084e-09 4.31585e-06 0)
(1.89928e-08 3.33298e-06 0)
(1.18877e-08 1.71312e-09 0)
(-2.96219e-07 6.86419e-06 0)
(1.84508e-07 1.11335e-06 0)
(7.41772e-10 3.70198e-08 0)
(3.40378e-08 5.30002e-06 0)
(4.96557e-08 5.31344e-06 0)
(3.56309e-10 3.86425e-09 0)
(-1.38691e-07 5.40974e-07 0)
(1.37806e-07 2.7262e-06 0)
(1.37557e-07 2.28065e-06 0)
(1.39336e-07 1.83539e-06 0)
(-1.99348e-07 5.39823e-06 0)
(-2.11923e-07 6.47215e-06 0)
(1.58206e-07 3.89352e-06 0)
(6.38247e-09 7.3309e-06 0)
(-1.38333e-07 8.15158e-06 0)
(-1.31946e-07 8.19022e-06 0)
(-2.47729e-08 6.53528e-06 0)
(-2.38121e-08 6.56396e-06 0)
(-6.6949e-09 2.20756e-06 0)
(-7.92224e-09 2.22936e-06 0)
(-8.79161e-09 2.65271e-06 0)
(-9.99347e-09 2.67463e-06 0)
(-1.48503e-08 3.10107e-06 0)
(-1.38445e-08 3.12226e-06 0)
(-6.23407e-09 4.32573e-06 0)
(5.14606e-09 4.37333e-06 0)
(2.83775e-08 5.91231e-06 0)
(-3.00881e-08 4.51588e-06 0)
(-2.45869e-08 6.18772e-09 0)
(-2.41416e-08 2.89535e-07 0)
(7.51509e-08 5.51514e-06 0)
(-8.98423e-08 1.73973e-06 0)
(6.53009e-08 3.74123e-07 0)
(3.91184e-07 8.26135e-06 0)
(-4.3224e-08 6.58699e-06 0)
(7.24998e-09 2.19085e-06 0)
(5.41277e-09 2.63598e-06 0)
(9.81641e-10 3.08335e-06 0)
(-3.1066e-07 7.09454e-06 0)
(8.49076e-08 3.38579e-06 0)
(1.40701e-07 8.72324e-06 0)
(1.61299e-07 8.70534e-06 0)
(-6.99092e-08 7.54206e-07 0)
(-3.39425e-08 5.37713e-06 0)
(4.19464e-10 1.85636e-06 0)
(1.51591e-08 2.96101e-08 0)
(3.85433e-07 8.47265e-06 0)
(-1.74395e-08 4.52914e-07 0)
(-1.06541e-07 2.38252e-06 0)
(-1.10365e-07 2.82929e-06 0)
(-1.27769e-07 2.84862e-06 0)
(-1.23609e-07 2.40153e-06 0)
(-1.00134e-07 1.93734e-06 0)
(-1.17815e-07 1.95702e-06 0)
(9.9402e-08 5.26282e-06 0)
(1.11789e-07 6.3186e-06 0)
(1.48754e-07 3.40839e-07 0)
(-1.26815e-08 1.11169e-08 0)
(-3.27815e-07 6.09272e-06 0)
(-3.78369e-07 8.4576e-06 0)
(8.70804e-08 4.37121e-06 0)
(-2.83863e-08 4.60924e-07 0)
(-1.82631e-07 5.25513e-06 0)
(-1.9239e-07 6.31169e-06 0)
(1.26444e-07 1.96286e-06 0)
(1.24634e-07 2.40782e-06 0)
(1.2496e-07 2.85408e-06 0)
(1.47104e-07 7.35597e-06 0)
(3.78638e-07 8.50019e-06 0)
(-2.2378e-07 3.807e-06 0)
(1.07215e-07 1.82351e-06 0)
(-1.62804e-07 5.41623e-06 0)
(8.24442e-08 4.39457e-06 0)
(-6.35824e-08 3.49105e-06 0)
(1.0547e-07 2.71283e-06 0)
(1.05579e-07 2.26725e-06 0)
(-1.71238e-07 6.48913e-06 0)
(-3.24956e-07 3.8359e-06 0)
(2.76179e-07 3.72874e-06 0)
(2.75201e-07 3.75652e-06 0)
(-3.21696e-07 3.80638e-06 0)
(-2.65826e-07 1.13896e-06 0)
(-2.70996e-07 1.16343e-06 0)
(-1.60885e-07 3.7572e-06 0)
(-2.02057e-07 3.75447e-07 0)
(-2.48298e-07 3.77594e-06 0)
(-5.12219e-08 7.1263e-06 0)
(-8.97226e-08 1.83356e-07 0)
(2.49007e-07 2.64172e-06 0)
(2.47998e-07 2.19585e-06 0)
(-3.19404e-07 4.99153e-06 0)
(3.98013e-08 2.71554e-06 0)
(4.08689e-08 2.26997e-06 0)
(-8.83943e-08 6.4856e-06 0)
(1.96481e-07 1.02763e-06 0)
(1.50404e-07 4.30539e-06 0)
(-1.83234e-07 3.27307e-06 0)
(-2.36537e-07 4.06121e-07 0)
(7.0335e-08 5.93084e-06 0)
(6.29452e-08 4.90333e-06 0)
(-7.94557e-08 1.39734e-06 0)
(2.27331e-07 5.68035e-06 0)
(-2.10684e-07 1.6029e-06 0)
(2.10506e-07 4.6701e-06 0)
(-2.82956e-07 1.12728e-06 0)
(1.74832e-07 8.16702e-06 0)
(2.0304e-07 8.15628e-06 0)
(1.79157e-07 6.47033e-06 0)
(1.61913e-07 5.39933e-06 0)
(-1.64824e-07 1.83973e-06 0)
(-1.70283e-07 2.28252e-06 0)
(-1.75263e-07 2.72782e-06 0)
(-9.70144e-08 1.60568e-07 0)
(-1.83557e-07 7.64508e-06 0)
(1.46669e-07 5.35581e-06 0)
(-1.52656e-07 1.87755e-06 0)
(-5.90665e-08 1.30624e-07 0)
(1.40084e-07 8.24972e-06 0)
(1.16985e-07 1.57658e-07 0)
(9.93397e-08 1.22836e-07 0)
(1.97368e-07 4.6259e-07 0)
(1.62171e-07 6.82695e-06 0)
(-3.22074e-07 6.98458e-06 0)
(4.18302e-07 8.27109e-06 0)
(1.97208e-07 4.81242e-07 0)
(1.57726e-07 4.02599e-06 0)
(2.29861e-07 7.16724e-06 0)
(-4.09579e-07 6.84639e-06 0)
(2.6444e-07 1.12798e-06 0)
(-1.10112e-07 7.20613e-06 0)
(2.33253e-08 2.72116e-06 0)
(2.47044e-08 2.27557e-06 0)
(-6.77144e-08 6.47836e-06 0)
(-4.11872e-08 3.16603e-07 0)
(8.15772e-08 4.53494e-06 0)
(1.06259e-08 5.09179e-09 0)
(-2.65514e-07 8.52877e-07 0)
(-4.15653e-08 3.96296e-06 0)
(-1.02745e-07 1.31182e-06 0)
(-1.17578e-07 1.31754e-06 0)
(9.43721e-08 5.00339e-06 0)
(1.12169e-07 4.99683e-06 0)
(1.25163e-07 6.03118e-06 0)
(1.0632e-07 6.03811e-06 0)
(1.04312e-08 8.56429e-08 0)
(-7.82019e-09 6.44648e-07 0)
(-2.24349e-07 4.63924e-06 0)
(-2.36839e-07 5.64659e-06 0)
(1.66015e-07 1.62871e-06 0)
(-1.33074e-07 1.1364e-06 0)
(-5.25303e-08 5.76549e-06 0)
(-1.50238e-07 6.1199e-07 0)
(1.14425e-07 8.17885e-06 0)
(-1.2567e-07 3.55584e-06 0)
(-1.42299e-07 3.54983e-06 0)
(1.22844e-08 2.36309e-08 0)
(-8.96851e-08 3.63614e-06 0)
(-6.98489e-08 1.23857e-06 0)
(5.63426e-08 5.09018e-06 0)
(6.60747e-08 6.13135e-06 0)
(-1.03891e-07 5.76551e-06 0)
(-9.73702e-08 4.74945e-06 0)
(5.50105e-08 1.53099e-06 0)
(1.14355e-07 7.62942e-07 0)
(1.06943e-07 7.4291e-07 0)
(5.65819e-09 3.54922e-06 0)
(-4.58979e-08 6.02829e-06 0)
(-4.85196e-08 4.99429e-06 0)
(1.42565e-08 1.31898e-06 0)
(-5.89557e-08 1.91669e-06 0)
(-1.40693e-07 6.25213e-07 0)
(2.28612e-07 8.35155e-06 0)
(-2.3199e-07 5.49007e-06 0)
(1.66781e-07 3.26498e-06 0)
(-2.19219e-07 4.31431e-06 0)
(2.33385e-07 7.19467e-06 0)
(-2.73297e-07 3.08849e-06 0)
(-2.68227e-07 2.6391e-06 0)
(2.51475e-07 4.50373e-06 0)
(-2.61239e-07 2.19516e-06 0)
(-2.52947e-07 1.75085e-06 0)
(2.70959e-07 5.50487e-06 0)
(3.00031e-07 6.58383e-06 0)
(-9.24974e-08 6.35681e-06 0)
(-9.03365e-08 5.29654e-06 0)
(4.54472e-08 2.37127e-06 0)
(4.84417e-08 1.92681e-06 0)
(4.42387e-08 2.81757e-06 0)
(4.23466e-08 2.39358e-06 0)
(-8.82151e-08 6.32879e-06 0)
(4.10158e-08 2.84017e-06 0)
(4.52004e-08 1.9491e-06 0)
(-8.64359e-08 5.27106e-06 0)
(-6.42287e-08 7.7505e-06 0)
(-2.41337e-07 4.87308e-07 0)
(-1.67303e-07 1.51931e-06 0)
(1.77754e-07 5.78174e-06 0)
(1.63821e-07 4.76398e-06 0)
(-1.01017e-07 1.86462e-06 0)
(8.71732e-08 5.37046e-06 0)
(2.79114e-07 6.31056e-06 0)
(2.5354e-07 5.25505e-06 0)
(-2.46759e-07 1.96652e-06 0)
(-2.55272e-07 2.41124e-06 0)
(-2.6147e-07 2.85841e-06 0)
(3.03758e-07 6.76862e-06 0)
(3.33652e-07 6.76179e-06 0)
(1.3398e-08 5.71734e-07 0)
(-5.29228e-08 3.91885e-06 0)
(-1.91196e-07 8.40467e-07 0)
(1.43704e-08 5.62475e-08 0)
(-1.75593e-07 9.99629e-07 0)
(-3.25707e-08 7.13806e-06 0)
(3.38273e-09 5.53345e-07 0)
(-8.87906e-08 4.10793e-06 0)
(2.59713e-07 4.9942e-06 0)
(-2.40021e-07 1.32184e-06 0)
(2.82326e-07 6.02925e-06 0)
(-9.89536e-10 -6.73568e-10 0)
(2.47576e-09 5.67728e-06 0)
(1.97379e-08 1.03819e-08 0)
(1.34046e-08 1.63423e-08 0)
(3.08516e-08 4.48473e-06 0)
(-2.27902e-08 3.15906e-08 0)
(2.34446e-07 8.40797e-06 0)
(2.08225e-10 5.3119e-06 0)
(-2.72297e-08 1.91257e-06 0)
(9.31164e-08 1.01514e-06 0)
(1.40118e-08 5.30013e-06 0)
(-3.97445e-08 1.92205e-06 0)
(-1.23489e-08 3.27301e-07 0)
(-2.87116e-07 2.64287e-06 0)
(-2.79873e-07 2.19893e-06 0)
(-2.70866e-07 1.75469e-06 0)
(-2.58389e-07 1.3233e-06 0)
(2.81842e-07 4.99277e-06 0)
(2.92309e-07 5.50068e-06 0)
(3.06002e-07 6.02783e-06 0)
(3.23489e-07 6.5794e-06 0)
(-1.68357e-07 6.9999e-06 0)
(-1.59605e-07 8.13725e-06 0)
(-4.58487e-07 6.89796e-06 0)
(2.95858e-07 1.09232e-06 0)
(8.8839e-08 8.58108e-06 0)
(1.06049e-07 8.54702e-06 0)
(1.24644e-08 5.21626e-06 0)
(1.90446e-08 6.26859e-06 0)
(-4.72913e-08 2.89172e-06 0)
(-4.44197e-08 2.44405e-06 0)
(-4.05144e-08 1.99958e-06 0)
(-2.44613e-07 1.13139e-06 0)
(8.63968e-08 8.9535e-07 0)
(-2.11294e-07 2.98162e-06 0)
(1.93714e-07 5.11557e-06 0)
(-2.05612e-07 2.53279e-06 0)
(-1.98897e-07 2.08896e-06 0)
(2.1298e-07 6.15923e-06 0)
(-1.80389e-07 1.21866e-06 0)
(2.23939e-07 6.71865e-06 0)
(2.04514e-08 3.80535e-06 0)
(-4.58415e-08 7.36877e-06 0)
(9.30481e-08 6.09867e-08 0)
(-3.35003e-08 6.61481e-06 0)
(-4.42659e-10 2.16898e-06 0)
(-2.54371e-09 2.61393e-06 0)
(-7.1586e-09 3.06127e-06 0)
(5.9604e-08 7.60041e-06 0)
(-3.67847e-08 3.66909e-08 0)
(3.84012e-07 7.4965e-06 0)
(-7.76916e-08 3.95906e-06 0)
(-6.92177e-09 2.85641e-08 0)
(1.12383e-07 5.05897e-06 0)
(-1.16161e-07 1.26499e-06 0)
(1.25655e-07 6.09788e-06 0)
(1.07885e-08 1.41456e-08 0)
(-1.45678e-07 1.4416e-06 0)
(1.40941e-07 4.85282e-06 0)
(1.54233e-07 5.87744e-06 0)
(8.37966e-08 1.95225e-07 0)
(-1.42224e-07 3.60745e-06 0)
(4.15247e-09 3.77469e-06 0)
(-2.98735e-07 7.94642e-06 0)
(6.42936e-09 5.2365e-06 0)
(1.19992e-08 6.29011e-06 0)
(-4.31173e-08 2.87349e-06 0)
(-3.63077e-08 1.9817e-06 0)
(-4.03141e-08 2.42611e-06 0)
(1.91678e-08 3.82441e-06 0)
(-1.88289e-08 1.26003e-07 0)
(-1.72185e-08 3.40704e-07 0)
(-7.22614e-09 7.12803e-06 0)
(2.42396e-07 4.01796e-06 0)
(-2.78889e-07 3.54849e-06 0)
(-2.17995e-07 8.80337e-06 0)
(-4.31618e-07 6.12574e-06 0)
(-4.01474e-07 5.08321e-06 0)
(-4.14242e-07 5.59457e-06 0)
(-3.90388e-07 4.58975e-06 0)
(3.12049e-07 1.67398e-06 0)
(3.16464e-07 2.11467e-06 0)
(3.18654e-07 2.56033e-06 0)
(3.23028e-07 3.00759e-06 0)
(3.96113e-07 6.12762e-06 0)
(3.77672e-07 5.59559e-06 0)
(-3.37523e-07 1.67625e-06 0)
(-3.4919e-07 2.11831e-06 0)
(3.64404e-07 5.08506e-06 0)
(-3.57469e-07 2.56166e-06 0)
(3.52903e-07 4.59019e-06 0)
(-3.64645e-07 3.01017e-06 0)
(-2.37574e-07 1.10915e-06 0)
(-8.6836e-08 7.35523e-06 0)
(-6.77554e-08 7.3492e-06 0)
(-7.89132e-08 8.21229e-06 0)
(7.45456e-08 5.46557e-06 0)
(-9.00333e-08 1.78199e-06 0)
(-5.89689e-08 1.53542e-07 0)
(-9.84639e-08 8.63723e-06 0)
(-1.15502e-07 2.80483e-06 0)
(-1.36984e-07 2.79781e-06 0)
(-1.11594e-07 2.35844e-06 0)
(-1.32695e-07 2.35153e-06 0)
(1.02857e-07 6.38252e-06 0)
(1.26439e-07 6.38489e-06 0)
(2.98599e-07 6.29782e-06 0)
(2.71669e-07 5.24322e-06 0)
(-2.62804e-07 1.97712e-06 0)
(-2.71451e-07 2.42176e-06 0)
(-2.77886e-07 2.86908e-06 0)
(-2.07947e-07 4.65081e-06 0)
(-2.19316e-07 5.6588e-06 0)
(1.51667e-07 1.61834e-06 0)
(-8.04389e-08 4.30972e-06 0)
(3.38148e-08 3.26897e-06 0)
(4.74119e-08 6.52663e-06 0)
(-6.58779e-08 2.23491e-06 0)
(-6.91202e-08 2.68001e-06 0)
(-7.11452e-08 3.12445e-06 0)
(1.0869e-07 3.24265e-06 0)
(8.86579e-08 3.24827e-06 0)
(-1.58894e-07 4.33697e-06 0)
(-1.37843e-07 4.33087e-06 0)
(-1.69907e-07 8.57862e-06 0)
(2.72615e-08 1.50425e-07 0)
(2.28893e-07 7.50257e-06 0)
(6.76401e-08 3.4775e-06 0)
(2.03775e-07 5.59061e-06 0)
(-1.94562e-07 1.67751e-06 0)
(1.88469e-07 4.58608e-06 0)
(-2.23235e-07 3.92895e-06 0)
(7.10056e-08 1.38501e-06 0)
(-1.1983e-07 5.94441e-06 0)
(-1.17112e-07 4.9173e-06 0)
(-7.54871e-09 3.57094e-06 0)
(-3.39236e-08 5.01786e-06 0)
(-3.02725e-08 6.05371e-06 0)
(2.52367e-09 1.29905e-06 0)
(1.22138e-07 3.34338e-06 0)
(-1.71214e-07 4.23106e-06 0)
(-9.51099e-08 7.75028e-06 0)
(-3.72583e-07 7.68656e-06 0)
(3.93015e-08 4.0952e-06 0)
(1.31942e-07 4.10339e-06 0)
(-2.22635e-07 1.35491e-06 0)
(2.57462e-07 5.98675e-06 0)
(2.36895e-07 4.95465e-06 0)
(-4.1966e-08 2.88254e-07 0)
(-6.12118e-08 6.6521e-06 0)
(1.86931e-08 2.13926e-06 0)
(1.68816e-08 2.58414e-06 0)
(1.46331e-08 3.0318e-06 0)
(-9.05813e-08 3.94581e-06 0)
(-3.46498e-07 7.68857e-06 0)
(-1.37422e-07 2.14086e-06 0)
(-1.424e-07 2.58506e-06 0)
(-1.46474e-07 3.03391e-06 0)
(1.4245e-07 6.65e-06 0)
(1.15916e-09 2.94022e-09 0)
(1.78616e-07 3.90847e-06 0)
(-2.08058e-10 6.76322e-07 0)
(-3.12546e-08 1.00282e-07 0)
(-5.69108e-08 3.53558e-07 0)
(-1.89699e-07 1.04654e-06 0)
(-3.54334e-08 1.5265e-08 0)
(3.2038e-08 2.32117e-06 0)
(3.55877e-08 1.87595e-06 0)
(3.07229e-08 2.76704e-06 0)
(-7.6385e-08 6.42011e-06 0)
(-7.57067e-08 5.3553e-06 0)
(-2.24945e-07 3.44632e-06 0)
(1.87463e-07 4.12032e-06 0)
(-6.76115e-08 6.04102e-08 0)
(2.51358e-07 8.16973e-06 0)
(1.69429e-07 7.40344e-06 0)
(-4.11574e-07 7.03567e-06 0)
(1.23086e-07 4.08169e-06 0)
(3.08435e-08 4.32272e-06 0)
(-1.22157e-07 8.63376e-06 0)
(-2.84924e-07 4.46138e-06 0)
(-2.7189e-07 4.44795e-06 0)
(3.98001e-07 8.63262e-06 0)
(-5.03776e-08 7.78435e-06 0)
(-1.14758e-07 3.25998e-06 0)
(8.11278e-08 4.32217e-06 0)
(1.01437e-09 6.93794e-07 0)
(1.33634e-07 3.0576e-07 0)
(3.46211e-08 1.50529e-08 0)
(6.95917e-08 4.51456e-06 0)
(3.47524e-07 8.79775e-06 0)
(-1.93101e-07 6.4222e-06 0)
(-1.82612e-07 5.35559e-06 0)
(1.25548e-07 1.87574e-06 0)
(1.23714e-07 2.76566e-06 0)
(1.2354e-07 2.32009e-06 0)
(-1.29152e-08 1.40698e-08 0)
(-3.18876e-08 8.0682e-06 0)
(1.52412e-07 4.11163e-06 0)
(-1.88195e-07 3.4587e-06 0)
(-3.104e-07 7.89317e-06 0)
(-4.22449e-07 6.14988e-06 0)
(-4.05541e-07 5.61755e-06 0)
(-3.92858e-07 5.10529e-06 0)
(-3.81935e-07 4.61164e-06 0)
(3.03996e-07 1.6545e-06 0)
(3.0833e-07 2.09489e-06 0)
(3.10479e-07 2.54047e-06 0)
(3.147e-07 2.98763e-06 0)
(3.87103e-07 6.15149e-06 0)
(3.68947e-07 5.61855e-06 0)
(-3.29176e-07 1.65697e-06 0)
(-3.40775e-07 2.09852e-06 0)
(3.55733e-07 5.10723e-06 0)
(-3.49061e-07 2.54191e-06 0)
(3.44498e-07 4.61179e-06 0)
(-3.56289e-07 2.99035e-06 0)
(-1.73568e-07 3.70118e-07 0)
(7.54965e-08 1.25176e-07 0)
(-9.37569e-08 2.86308e-07 0)
(1.33486e-07 4.0587e-06 0)
(-1.87869e-07 4.14194e-06 0)
(9.11616e-08 1.92631e-07 0)
(-1.73812e-08 2.96389e-09 0)
(-3.96214e-07 7.04956e-06 0)
(2.10481e-07 8.71292e-06 0)
(2.3891e-07 8.72843e-06 0)
(1.70146e-08 2.91729e-09 0)
(1.83895e-07 4.02233e-07 0)
(3.39287e-07 7.99961e-06 0)
(-1.44044e-07 4.43795e-06 0)
(-2.94274e-08 4.54744e-08 0)
(-5.96644e-08 1.62866e-07 0)
(-1.07304e-08 2.96101e-09 0)
(1.93001e-08 2.5969e-08 0)
(3.3806e-07 3.79655e-06 0)
(-3.82638e-07 3.76646e-06 0)
(9.40742e-08 3.14765e-06 0)
(-1.47405e-07 4.38251e-06 0)
(9.77327e-08 3.20035e-06 0)
(-1.90466e-08 4.3228e-07 0)
(-8.96791e-08 6.14886e-06 0)
(4.3691e-08 3.65309e-06 0)
(-5.55508e-08 6.09718e-06 0)
(-5.8061e-08 5.05588e-06 0)
(2.24875e-08 1.26693e-06 0)
(1.42107e-08 3.60832e-06 0)
(-1.58237e-07 4.42249e-06 0)
(1.94391e-07 4.20513e-07 0)
(1.07801e-07 3.16302e-06 0)
(2.28919e-08 4.09958e-06 0)
(3.42202e-07 8.23526e-06 0)
(-1.20656e-07 4.1228e-06 0)
(-1.36019e-07 4.142e-06 0)
(-2.21732e-07 7.49474e-07 0)
(-1.32512e-07 4.23261e-06 0)
(-1.16081e-07 4.21213e-06 0)
(8.69824e-08 3.3399e-06 0)
(7.33381e-08 3.36183e-06 0)
(-1.90039e-07 1.41928e-06 0)
(1.94874e-07 4.87921e-06 0)
(2.11837e-07 5.90578e-06 0)
(-9.39132e-08 1.76955e-07 0)
(-1.58672e-07 4.39833e-06 0)
(1.08355e-07 3.18614e-06 0)
(-1.02106e-07 5.25146e-06 0)
(-1.04895e-07 6.30754e-06 0)
(5.84527e-08 1.96614e-06 0)
(5.47135e-08 2.8574e-06 0)
(5.58405e-08 2.41066e-06 0)
(-1.08143e-07 7.97954e-07 0)
(-3.00792e-07 5.4571e-06 0)
(-2.85677e-07 5.44463e-06 0)
(2.21369e-07 1.78889e-06 0)
(2.09015e-07 1.79981e-06 0)
(1.69896e-07 4.63015e-06 0)
(1.88907e-07 4.61422e-06 0)
(-1.76989e-07 1.63812e-06 0)
(-1.94005e-07 1.65248e-06 0)
(1.84145e-07 5.63739e-06 0)
(2.04304e-07 5.62051e-06 0)
(-1.07519e-07 7.72536e-06 0)
(1.5351e-07 7.14085e-06 0)
(1.55738e-07 7.1128e-06 0)
(-1.58969e-07 3.20104e-06 0)
(1.2525e-07 4.38242e-06 0)
(-5.04576e-07 8.51717e-06 0)
(-1.45178e-07 6.9832e-06 0)
(-1.39784e-07 6.95611e-06 0)
(7.45397e-08 1.04565e-06 0)
(7.77807e-08 1.02654e-06 0)
(3.78361e-07 7.04584e-06 0)
(-1.96119e-07 3.77861e-06 0)
(-1.71088e-07 3.7799e-06 0)
(3.89026e-07 7.82806e-06 0)