/*--------------------------------*- C++ -*----------------------------------*\
| =========                 |                                                 |
| \\      /  F ield         | OpenFOAM: The Open Source CFD Toolbox           |
|  \\    /   O peration     | Version:  2.3.1                                 |
|   \\  /    A nd           | Web:      www.OpenFOAM.org                      |
|    \\/     M anipulation  |                                                 |
\*---------------------------------------------------------------------------*/
FoamFile
{
    version     2.0;
    format      ascii;
    class       volVectorField;
    location    "4600";
    object      D;
}
// * * * * * * * * * * * * * * * * * * * * * * * * * * * * * * * * * * * * * //

dimensions      [0 1 0 0 0 0 0];

internalField   nonuniform List<vector> 
11800
(
(1.04381e-05 0.000295547 0)
(-1.31625e-05 0.000329429 0)
(7.31216e-06 9.87888e-05 0)
(-8.33686e-06 0.000134678 0)
(-1.20243e-05 0.000328869 0)
(-5.39898e-06 0.000134944 0)
(-1.986e-06 0.000221487 0)
(-1.88802e-06 0.000170444 0)
(8.70631e-07 2.58194e-05 0)
(1.60032e-06 0.000102493 0)
(1.15884e-05 0.000294845 0)
(-1.03835e-05 0.000114671 0)
(-9.9905e-09 -7.95458e-09 0)
(6.49977e-06 9.8188e-05 0)
(-7.39387e-06 0.00013525 0)
(7.05478e-06 1.58032e-05 0)
(-1.10776e-06 0.000220838 0)
(-1.0719e-06 0.000169829 0)
(4.93697e-07 2.61069e-05 0)
(9.92101e-07 0.000101981 0)
(-6.35507e-06 0.000134444 0)
(-9.51407e-06 0.000115129 0)
(-1.54195e-06 5.55594e-06 0)
(-1.64606e-06 5.7868e-06 0)
(6.29948e-06 1.80621e-05 0)
(-2.47043e-06 9.23388e-06 0)
(-1.0144e-05 6.81898e-05 0)
(1.48461e-05 0.000198384 0)
(-9.02148e-06 5.16359e-05 0)
(-7.79381e-06 3.70575e-05 0)
(1.57324e-05 0.000251147 0)
(6.62077e-08 4.32113e-06 0)
(3.22672e-06 1.18853e-05 0)
(-7.99945e-06 0.000338086 0)
(6.50766e-06 0.000336558 0)
(-1.79022e-05 0.000268298 0)
(6.06297e-06 0.000337723 0)
(3.17614e-06 1.22209e-05 0)
(-1.94182e-06 0.000234006 0)
(1.60542e-06 0.000112626 0)
(-9.97472e-06 6.89588e-05 0)
(-8.88006e-06 5.23201e-05 0)
(1.45035e-05 0.000197243 0)
(-7.68087e-06 3.76558e-05 0)
(1.53835e-05 0.000249946 0)
(6.73021e-06 1.59293e-05 0)
(1.77898e-06 6.58412e-06 0)
(1.98285e-06 6.47889e-06 0)
(-3.05464e-06 0.000234208 0)
(2.49528e-06 0.000112786 0)
(-1.69946e-05 0.000172721 0)
(-1.8169e-05 0.00022378 0)
(-1.66322e-06 0.000292379 0)
(9.18401e-08 4.0998e-06 0)
(-8.64618e-06 1.88371e-05 0)
(1.16858e-06 9.63681e-07 0)
(-2.23419e-05 0.000342737 0)
(-5.58833e-06 9.5083e-05 0)
(6.41763e-06 0.000138948 0)
(-4.05826e-06 9.13193e-05 0)
(2.3368e-06 3.07965e-06 0)
(-2.86972e-06 0.000292598 0)
(-4.8583e-06 9.48669e-05 0)
(5.59718e-06 0.000139207 0)
(5.90051e-06 1.77844e-05 0)
(-2.13312e-05 0.000302857 0)
(-1.76304e-05 0.000171962 0)
(-1.89134e-05 0.000222946 0)
(-2.12205e-05 0.000342182 0)
(-2.59276e-06 9.53503e-06 0)
(-7.13012e-06 0.000339038 0)
(-1.25937e-05 0.000337197 0)
(-1.29601e-05 0.000335996 0)
(-1.10062e-07 1.22133e-07 0)
(2.49538e-06 3.21246e-06 0)
(-1.68627e-05 0.000269054 0)
(7.74324e-06 2.49935e-05 0)
(-2.16774e-05 0.000303993 0)
(-1.72606e-05 0.00030657 0)
(-1.61255e-05 0.000307599 0)
(-8.24193e-06 1.85778e-05 0)
(1.28225e-06 0.000116975 0)
(1.18932e-05 0.000334549 0)
(1.0617e-05 0.000334756 0)
(-1.52218e-06 0.000120239 0)
(-7.49499e-06 4.17555e-05 0)
(1.42223e-05 0.000241989 0)
(-8.57552e-06 5.70074e-05 0)
(-9.56938e-06 7.42038e-05 0)
(1.33704e-05 0.000189711 0)
(-3.77426e-07 0.000286033 0)
(3.42896e-06 1.12959e-05 0)
(-1.07181e-05 0.000308554 0)
(2.21878e-05 0.000345368 0)
(3.51957e-06 0.000148474 0)
(-2.66164e-09 -2.02476e-09 0)
(6.88416e-11 -4.30374e-10 0)
(2.66388e-09 -2.02679e-09 0)
(-2.21001e-07 0.000295986 0)
(-9.8587e-06 0.000117221 0)
(1.90994e-05 0.00034413 0)
(1.1525e-05 0.000128863 0)
(-4.1579e-06 1.65306e-05 0)
(-9.35149e-07 1.27455e-05 0)
(-6.12203e-07 0.00032739 0)
(1.15037e-06 2.7014e-05 0)
(-2.42578e-06 0.000167937 0)
(-2.52394e-06 0.000218707 0)
(3.63301e-06 6.15314e-06 0)
(8.65691e-06 5.69828e-05 0)
(7.56653e-06 4.17335e-05 0)
(9.66043e-06 7.41759e-05 0)
(-1.44023e-05 0.000242018 0)
(-1.35412e-05 0.000189752 0)
(2.06415e-06 0.000100393 0)
(2.87508e-06 5.60832e-06 0)
(2.11647e-05 0.000304099 0)
(-8.64454e-06 0.000312178 0)
(2.92734e-06 5.40307e-06 0)
(-1.43415e-06 0.000103775 0)
(-8.5443e-07 2.51349e-05 0)
(1.94162e-06 0.000223123 0)
(1.84232e-06 0.000171908 0)
(-2.66188e-06 0.000213929 0)
(-1.07881e-05 0.000309721 0)
(-9.3591e-07 0.000295059 0)
(-6.9273e-06 0.00032752 0)
(-1.60435e-06 0.000326627 0)
(-2.3976e-05 0.000354118 0)
(-2.48327e-05 0.000353259 0)
(-6.83632e-07 3.069e-07 0)
(-3.11162e-06 7.27682e-06 0)
(1.45895e-05 0.000234768 0)
(-8.04943e-06 4.56732e-05 0)
(1.36639e-05 0.000182934 0)
(-9.14073e-06 6.14645e-05 0)
(-1.01433e-05 7.91569e-05 0)
(1.34622e-05 0.000234982 0)
(-7.41748e-06 4.55362e-05 0)
(1.26095e-05 0.000183132 0)
(-8.42515e-06 6.13125e-05 0)
(-9.35098e-06 7.89911e-05 0)
(-1.94907e-06 2.32729e-05 0)
(4.73232e-06 0.000227415 0)
(4.41344e-06 0.000176043 0)
(-3.72425e-06 0.00010718 0)
(1.81161e-05 0.000117712 0)
(-1.79877e-05 0.00011513 0)
(1.13373e-05 0.000129803 0)
(-1.31132e-06 1.35282e-05 0)
(-1.19321e-05 0.000284709 0)
(-1.18289e-05 0.000286223 0)
(5.83624e-06 0.000333976 0)
(-1.33453e-05 0.000268673 0)
(5.35759e-06 0.000189615 0)
(5.81485e-06 0.000241861 0)
(-1.48618e-05 0.000213 0)
(-1.37764e-05 0.000162633 0)
(6.9356e-06 2.97863e-05 0)
(-1.08531e-06 0.000287109 0)
(3.94931e-06 6.26305e-06 0)
(-1.21956e-05 0.00026894 0)
(8.10532e-06 2.53566e-05 0)
(-5.42051e-06 7.72483e-05 0)
(-4.87445e-06 5.97329e-05 0)
(-4.28051e-06 4.41345e-05 0)
(7.44303e-06 0.00018532 0)
(7.93717e-06 0.000237327 0)
(-3.48069e-06 4.29643e-06 0)
(-6.35292e-06 2.86495e-05 0)
(1.38831e-05 0.000215369 0)
(1.28608e-05 0.000164854 0)
(3.10445e-06 0.000218466 0)
(-2.03948e-05 0.000267045 0)
(-2.06006e-05 0.000268652 0)
(7.25261e-06 1.80945e-05 0)
(7.26295e-06 1.8595e-05 0)
(8.01051e-06 5.53271e-05 0)
(8.95911e-06 7.23306e-05 0)
(6.98058e-06 4.02799e-05 0)
(-1.27358e-05 0.00019232 0)
(-1.3529e-05 0.000244768 0)
(5.44979e-06 0.000188422 0)
(5.84686e-06 0.000240633 0)
(5.91526e-06 0.000114664 0)
(-2.81775e-06 0.000106937 0)
(-1.48207e-06 2.33933e-05 0)
(3.58258e-06 0.00022711 0)
(3.34011e-06 0.000175757 0)
(-4.64768e-06 0.000280806 0)
(-1.56131e-06 4.89301e-05 0)
(-1.7632e-06 6.51679e-05 0)
(-1.75516e-05 0.000300521 0)
(-4.75358e-07 1.10945e-05 0)
(-1.69204e-05 0.000141209 0)
(1.45885e-05 9.3445e-05 0)
(1.67455e-07 1.59297e-07 0)
(-1.05028e-05 0.000338626 0)
(2.10171e-05 0.000305327 0)
(-5.96546e-07 3.55359e-07 0)
(1.38465e-05 0.000320059 0)
(1.72942e-05 0.000273405 0)
(1.85478e-05 0.00027363 0)
(-5.36762e-07 0.000329053 0)
(-1.40191e-06 0.00033011 0)
(9.7563e-06 9.11739e-05 0)
(8.61875e-06 9.1579e-05 0)
(-1.1542e-05 0.000143621 0)
(-1.01684e-05 0.000143115 0)
(6.741e-07 3.02634e-07 0)
(-1.90014e-06 1.62403e-05 0)
(-2.13845e-06 9.03606e-06 0)
(-4.98883e-08 1.87532e-08 0)
(6.51606e-06 1.07155e-05 0)
(-1.55186e-07 4.9269e-08 0)
(8.47436e-07 8.87443e-06 0)
(-1.19133e-05 0.000327319 0)
(-5.7282e-06 4.07499e-05 0)
(-6.55025e-06 5.58802e-05 0)
(-7.32035e-06 7.29537e-05 0)
(1.09664e-05 0.00024379 0)
(1.03482e-05 0.000191421 0)
(7.12865e-07 0.000226687 0)
(6.62985e-07 0.000175359 0)
(-3.02226e-07 2.35611e-05 0)
(-5.76136e-07 0.000106617 0)
(-2.27639e-07 3.78103e-08 0)
(8.93846e-07 2.94798e-05 0)
(-1.79105e-06 0.00016294 0)
(-5.37971e-06 0.000102965 0)
(1.246e-06 2.90457e-05 0)
(-2.52244e-06 0.000163806 0)
(-8.14091e-06 0.000309679 0)
(1.00741e-05 0.000115508 0)
(9.38555e-06 0.000114618 0)
(4.96906e-08 1.86807e-08 0)
(2.27349e-07 3.77517e-08 0)
(-1.5791e-05 0.000288173 0)
(-1.5191e-05 0.000289399 0)
(-1.48782e-05 9.77576e-05 0)
(1.67791e-05 0.000136158 0)
(1.34518e-05 0.000244664 0)
(1.26606e-05 0.000192228 0)
(-6.96557e-06 4.03389e-05 0)
(-7.99506e-06 5.53902e-05 0)
(-8.94104e-06 7.24011e-05 0)
(-4.79633e-07 0.000293875 0)
(-5.86969e-06 2.74054e-05 0)
(1.31255e-05 0.000218072 0)
(1.21781e-05 0.00016736 0)
(8.04746e-06 0.000116719 0)
(6.80443e-06 0.000277085 0)
(1.06823e-05 0.000345784 0)
(1.08403e-06 8.74555e-06 0)
(-3.94145e-06 9.22605e-05 0)
(-9.55677e-09 3.22567e-06 0)
(1.54799e-07 4.91528e-08 0)
(3.80718e-06 9.73689e-05 0)
(3.27679e-06 9.63487e-05 0)
(-4.12547e-06 0.000136407 0)
(-3.53393e-06 0.000137418 0)
(7.3227e-06 7.29321e-05 0)
(6.55218e-06 5.58609e-05 0)
(5.7156e-06 4.07401e-05 0)
(-1.03631e-05 0.000191422 0)
(-1.10144e-05 0.000243821 0)
(-5.83146e-06 0.000338728 0)
(1.9675e-06 2.3817e-06 0)
(6.6832e-09 0.000194411 0)
(-1.51608e-08 3.90045e-05 0)
(7.76871e-06 0.000326809 0)
(6.32217e-06 0.000113831 0)
(-2.45894e-05 0.000322925 0)
(7.26611e-06 0.000117564 0)
(2.80215e-07 2.04174e-07 0)
(2.02415e-05 0.000263734 0)
(2.03582e-05 0.000262247 0)
(-1.23601e-05 0.000167573 0)
(-1.33211e-05 0.000218295 0)
(-1.10415e-05 0.000167149 0)
(-1.19033e-05 0.000217842 0)
(5.92572e-06 2.73048e-05 0)
(5.31337e-06 2.74857e-05 0)
(6.0222e-06 0.000153875 0)
(7.16235e-06 0.000153695 0)
(6.53802e-06 0.000203506 0)
(7.77885e-06 0.000203309 0)
(-3.29949e-06 3.42896e-05 0)
(-3.93067e-06 3.44017e-05 0)
(-6.88855e-07 1.53894e-05 0)
(3.48633e-06 9.80608e-06 0)
(3.26369e-06 9.46601e-06 0)
(3.32868e-06 7.16018e-06 0)
(5.81924e-06 0.00027828 0)
(-2.00667e-05 0.000264221 0)
(-2.01739e-05 0.000262677 0)
(7.49464e-06 2.02154e-05 0)
(7.34644e-06 1.96376e-05 0)
(1.58964e-05 0.000117737 0)
(1.61114e-05 0.000119063 0)
(-1.57696e-05 0.000115038 0)
(-1.5852e-05 0.000113734 0)
(7.19837e-06 0.000333752 0)
(-1.96919e-05 0.000338117 0)
(-1.89293e-05 0.000284465 0)
(4.39721e-06 4.94138e-06 0)
(-1.15639e-05 0.000333861 0)
(-1.03253e-05 0.000332713 0)
(4.9009e-06 0.000155642 0)
(-3.02662e-06 0.000139809 0)
(2.69904e-06 9.43524e-05 0)
(-1.3526e-05 0.000118178 0)
(1.326e-05 0.000114483 0)
(-6.36793e-06 1.9863e-05 0)
(-1.85817e-07 1.17448e-07 0)
(1.00367e-06 4.06097e-06 0)
(1.21754e-06 0.000100713 0)
(-1.138e-05 0.000101432 0)
(1.22749e-05 0.000131769 0)
(-6.54803e-06 9.22982e-05 0)
(7.81224e-06 0.000142268 0)
(3.96529e-06 0.000248491 0)
(5.46909e-06 0.000247954 0)
(-2.31509e-06 5.30433e-05 0)
(-3.19774e-06 5.33645e-05 0)
(-2.59769e-06 6.97907e-05 0)
(-3.58644e-06 7.01493e-05 0)
(6.2016e-07 2.68286e-05 0)
(-1.32244e-06 0.000168316 0)
(-1.34046e-06 0.000219137 0)
(-2.17288e-06 0.000321356 0)
(3.04451e-06 7.11419e-06 0)
(-6.06318e-07 0.000136205 0)
(-9.34552e-06 0.000329445 0)
(1.2592e-06 9.99908e-07 0)
(8.36588e-06 0.000195346 0)
(-4.49675e-06 3.85747e-05 0)
(-1.41067e-05 0.000137656 0)
(-1.32484e-05 0.000136966 0)
(1.23271e-05 9.63731e-05 0)
(1.16208e-05 9.69611e-05 0)
(-1.40006e-05 0.000343599 0)
(-1.41549e-05 0.00034212 0)
(-2.28289e-06 1.54863e-05 0)
(-2.70741e-06 1.54276e-05 0)
(1.09884e-06 4.25681e-06 0)
(-2.59807e-06 4.41858e-06 0)
(6.65564e-07 0.000142961 0)
(4.02189e-06 2.78029e-05 0)
(3.38253e-06 2.79804e-05 0)
(-8.30579e-06 0.000166414 0)
(-6.96263e-06 0.000166018 0)
(-8.95674e-06 0.000217061 0)
(-7.51007e-06 0.000216637 0)
(-1.81628e-05 0.000275259 0)
(-1.68069e-05 0.000275369 0)
(-3.96163e-06 8.25334e-05 0)
(-3.65818e-06 6.44822e-05 0)
(-3.23629e-06 4.83244e-05 0)
(5.75441e-06 0.000256765 0)
(-9.75625e-07 0.00029101 0)
(1.19309e-05 0.000114372 0)
(1.12975e-05 0.000115372 0)
(5.3071e-06 0.000221964 0)
(5.07196e-06 0.000170903 0)
(-2.36147e-06 2.56205e-05 0)
(2.2286e-06 2.87005e-05 0)
(1.83437e-06 2.92617e-05 0)
(-4.11069e-06 0.000213887 0)
(-4.89201e-06 0.000214996 0)
(-4.52762e-06 0.000164519 0)
(-3.68862e-06 0.000163388 0)
(-4.70022e-06 2.63009e-05 0)
(9.97245e-06 0.000169581 0)
(1.07335e-05 0.000220469 0)
(-1.2627e-07 1.19829e-06 0)
(1.77463e-05 0.000130611 0)
(-1.6274e-05 0.0001028 0)
(-7.07182e-08 1.11457e-06 0)
(-5.35275e-06 0.000244614 0)
(-6.27861e-06 0.000245966 0)
(-4.90761e-06 0.000192276 0)
(-5.74823e-06 0.000193556 0)
(3.11267e-06 3.95199e-05 0)
(2.68196e-06 4.02172e-05 0)
(3.68461e-06 5.45402e-05 0)
(3.16314e-06 5.53372e-05 0)
(4.12557e-06 7.1464e-05 0)
(3.53768e-06 7.23557e-05 0)
(2.00449e-05 0.000275795 0)
(2.04181e-05 0.000277204 0)
(-1.85633e-06 9.11014e-06 0)
(7.52363e-06 0.000196324 0)
(-4.01446e-06 3.80394e-05 0)
(6.52404e-06 3.00434e-05 0)
(-1.28955e-05 0.000162091 0)
(-1.39448e-05 0.000212383 0)
(-1.80914e-07 5.48813e-08 0)
(2.61254e-06 0.000287489 0)
(6.44084e-06 2.86558e-05 0)
(-1.30761e-05 0.000164848 0)
(-1.41287e-05 0.000215316 0)
(4.87116e-06 8.32004e-06 0)
(-9.88292e-06 0.000311727 0)
(6.17521e-06 2.2848e-05 0)
(-1.56101e-05 0.000255651 0)
(-3.29152e-06 1.22497e-05 0)
(-3.51205e-06 1.27012e-05 0)
(3.45047e-06 1.25684e-05 0)
(-1.6775e-06 0.000135993 0)
(-1.27591e-08 -9.39057e-09 0)
(-1.0495e-05 0.000341709 0)
(-1.62226e-07 6.43832e-08 0)
(1.8038e-07 5.47244e-08 0)
(-4.82614e-06 2.7753e-05 0)
(1.07117e-05 0.000217222 0)
(9.93335e-06 0.000166566 0)
(8.25752e-06 0.000287944 0)
(-2.36757e-05 0.000309045 0)
(3.0386e-06 0.000127233 0)
(-1.94182e-06 0.000123884 0)
(-5.26775e-07 1.28199e-05 0)
(-1.48085e-06 1.53915e-06 0)
(-9.21122e-09 -8.29496e-09 0)
(-5.87318e-06 9.31661e-05 0)
(7.00421e-06 0.000141265 0)
(5.02975e-07 1.75963e-07 0)
(-7.76721e-07 0.000122047 0)
(-7.32332e-07 0.000120859 0)
(-1.19157e-08 0.00010233 0)
(-1.35454e-07 2.59487e-05 0)
(2.7213e-07 0.000170162 0)
(2.4525e-07 0.000221279 0)
(-5.05067e-07 1.76713e-07 0)
(2.09001e-06 1.38722e-05 0)
(-8.16552e-06 0.000251462 0)
(4.65091e-06 5.13531e-05 0)
(5.23193e-06 6.78892e-05 0)
(5.76157e-06 8.62677e-05 0)
(1.71921e-05 0.000327935 0)
(-6.25306e-06 2.48151e-05 0)
(1.47405e-05 0.000224051 0)
(1.37238e-05 0.000172923 0)
(-9.73102e-06 0.000302379 0)
(1.40092e-06 3.54901e-06 0)
(1.31445e-05 0.000296735 0)
(-2.77396e-06 4.35187e-06 0)
(9.21353e-06 0.000329245 0)
(-7.03767e-06 0.00025149 0)
(4.00491e-06 5.13306e-05 0)
(4.50543e-06 6.78655e-05 0)
(4.96483e-06 8.62369e-05 0)
(1.22383e-06 3.36269e-06 0)
(6.07203e-06 0.000201333 0)
(-3.11821e-06 3.53948e-05 0)
(-1.05192e-06 1.38138e-05 0)
(-1.72313e-05 0.000297796 0)
(-6.37268e-06 7.75366e-05 0)
(-5.73247e-06 5.99942e-05 0)
(-5.03599e-06 4.43664e-05 0)
(8.68603e-06 0.000185015 0)
(9.26397e-06 0.000237 0)
(2.3688e-05 0.000347646 0)
(1.37969e-05 0.000304902 0)
(1.52953e-05 0.000304375 0)
(1.89322e-07 1.31747e-07 0)
(8.54466e-06 9.26425e-05 0)
(-1.00067e-05 0.000141846 0)
(-4.33796e-06 9.39737e-05 0)
(5.10029e-06 0.000140358 0)
(-1.45902e-06 0.000151264 0)
(-1.10732e-06 0.00024622 0)
(7.15034e-07 7.12776e-05 0)
(6.38424e-07 5.43706e-05 0)
(4.22787e-08 3.81963e-05 0)
(-2.33639e-07 0.000146965 0)
(-9.90824e-08 0.000195961 0)
(1.08497e-05 0.000347175 0)
(6.10752e-07 1.42298e-05 0)
(-2.61064e-07 3.27332e-06 0)
(2.08701e-06 0.000208119 0)
(1.04483e-07 3.38568e-06 0)
(-1.57883e-06 1.06169e-05 0)
(3.98502e-06 3.81035e-05 0)
(-7.55537e-06 0.000196196 0)
(-1.47628e-07 1.61407e-07 0)
(-1.59591e-05 0.000297656 0)
(-1.31293e-06 2.54507e-05 0)
(2.84631e-06 0.000222466 0)
(2.8209e-06 0.000171236 0)
(3.53711e-07 8.47843e-08 0)
(-4.66633e-06 8.45688e-06 0)
(5.21039e-06 6.95813e-05 0)
(4.6423e-06 5.28607e-05 0)
(-8.03016e-06 0.000248852 0)
(1.55849e-06 9.68878e-05 0)
(-1.07932e-05 0.000337292 0)
(-1.77575e-07 2.4871e-08 0)
(-6.11657e-06 1.32502e-05 0)
(3.96199e-06 7.28143e-06 0)
(-3.98207e-06 4.35071e-06 0)
(1.20129e-05 0.000116481 0)
(9.14525e-06 0.000141874 0)
(-7.81837e-06 9.26102e-05 0)
(5.64346e-07 3.78044e-05 0)
(-1.29593e-06 0.000147526 0)
(-1.08382e-06 0.000196695 0)
(1.14995e-05 0.000293347 0)
(1.06812e-05 0.000127656 0)
(5.5796e-06 0.00033991 0)
(5.3756e-06 0.000341184 0)
(1.563e-06 0.000141207 0)
(2.12443e-06 9.61574e-05 0)
(1.77337e-07 2.48299e-08 0)
(-1.54236e-05 0.000265857 0)
(5.54952e-06 1.89443e-05 0)
(1.9295e-08 2.57972e-07 0)
(2.9644e-06 0.000189521 0)
(3.87072e-06 0.000190182 0)
(5.18865e-09 2.23934e-08 0)
(-2.90336e-06 7.04304e-06 0)
(7.2926e-06 7.0754e-05 0)
(6.50741e-06 5.39126e-05 0)
(5.65855e-06 3.89786e-05 0)
(-1.04963e-05 0.000194424 0)
(-1.11388e-05 0.000247109 0)
(9.70955e-06 0.000121457 0)
(1.43368e-06 0.000287798 0)
(-6.27659e-06 0.000324718 0)
(-5.94199e-06 0.000326438 0)
(-5.96929e-07 0.00025023 0)
(-5.10315e-07 0.000251612 0)
(4.32832e-07 5.12137e-05 0)
(3.95403e-07 5.19754e-05 0)
(4.8698e-07 6.77387e-05 0)
(4.44338e-07 6.85943e-05 0)
(3.24213e-07 8.61002e-05 0)
(3.86213e-07 8.70162e-05 0)
(7.74876e-07 0.000141682 0)
(1.41396e-06 0.000143971 0)
(2.45351e-06 0.000219865 0)
(-6.09548e-07 0.000150891 0)
(-3.54255e-07 8.49348e-08 0)
(-3.95627e-07 3.12124e-06 0)
(5.34947e-06 0.000200258 0)
(-2.77138e-06 3.59461e-05 0)
(1.39449e-06 4.33838e-06 0)
(2.08649e-05 0.000329554 0)
(-1.5788e-06 0.000252716 0)
(9.85901e-07 5.06345e-05 0)
(1.11022e-06 6.70874e-05 0)
(1.09691e-06 8.53432e-05 0)
(-1.59256e-05 0.000276689 0)
(5.48479e-06 9.84671e-05 0)
(8.14532e-06 0.000349883 0)
(9.20973e-06 0.000349102 0)
(-1.56932e-06 1.09485e-05 0)
(-1.00206e-06 0.000193385 0)
(5.33372e-07 3.95637e-05 0)
(2.32687e-07 2.35408e-07 0)
(2.04735e-05 0.000338888 0)
(-2.74144e-07 5.5245e-06 0)
(-3.819e-06 5.75025e-05 0)
(-4.25888e-06 7.47697e-05 0)
(-5.0979e-06 7.55595e-05 0)
(-4.57562e-06 5.82133e-05 0)
(-3.30265e-06 4.21572e-05 0)
(-3.99651e-06 4.2798e-05 0)
(6.77572e-06 0.000187647 0)
(7.22033e-06 0.000239816 0)
(2.90038e-06 3.93703e-06 0)
(-1.85936e-07 1.12539e-07 0)
(-1.76417e-05 0.000228798 0)
(-1.83822e-05 0.000338194 0)
(6.00395e-06 0.000143857 0)
(-5.06217e-07 5.65356e-06 0)
(-9.53603e-06 0.000187305 0)
(-1.01562e-05 0.000239438 0)
(5.41951e-06 4.30601e-05 0)
(6.18408e-06 5.85063e-05 0)
(6.88741e-06 7.58815e-05 0)
(8.87245e-06 0.000288904 0)
(2.01321e-05 0.000340097 0)
(-1.07971e-05 0.000117533 0)
(4.43779e-06 3.85645e-05 0)
(-8.37921e-06 0.000195338 0)
(5.7455e-06 0.000144982 0)
(-2.16439e-06 0.000103134 0)
(5.76996e-06 7.01777e-05 0)
(5.1449e-06 5.33941e-05 0)
(-8.85246e-06 0.000247951 0)
(-1.60568e-05 0.000118893 0)
(1.56784e-05 0.00011397 0)
(1.56789e-05 0.000115248 0)
(-1.5845e-05 0.000117535 0)
(-7.35699e-06 1.96259e-05 0)
(-7.57323e-06 2.02388e-05 0)
(-7.44244e-06 0.000115228 0)
(-3.75327e-06 4.4549e-06 0)
(-1.20469e-05 0.000116118 0)
(-1.75412e-06 0.000278301 0)
(-1.53392e-06 1.82767e-06 0)
(1.20905e-05 6.75346e-05 0)
(1.07434e-05 5.10614e-05 0)
(-1.70974e-05 0.000174235 0)
(2.76072e-06 7.02207e-05 0)
(2.46184e-06 5.34275e-05 0)
(-4.24423e-06 0.000247838 0)
(5.63099e-06 1.69189e-05 0)
(9.45869e-06 0.000140719 0)
(-8.14359e-06 9.36106e-05 0)
(-4.42929e-06 4.96331e-06 0)
(4.87161e-06 0.000220749 0)
(4.65257e-06 0.000169817 0)
(-2.19082e-06 2.61281e-05 0)
(1.41032e-05 0.000208394 0)
(-6.83817e-06 3.19626e-05 0)
(1.301e-05 0.000158405 0)
(-7.78218e-06 1.93646e-05 0)
(9.94671e-06 0.000325373 0)
(1.14062e-05 0.000324896 0)
(1.09875e-05 0.000247117 0)
(1.04092e-05 0.000194445 0)
(-5.63177e-06 3.90899e-05 0)
(-6.44418e-06 5.39059e-05 0)
(-7.22172e-06 7.07468e-05 0)
(-1.61544e-06 1.58425e-06 0)
(-8.70708e-06 0.000302069 0)
(9.52783e-06 0.000192277 0)
(-5.23502e-06 4.02674e-05 0)
(-9.81661e-07 1.21585e-06 0)
(8.14962e-06 0.00032903 0)
(1.95227e-06 1.59607e-06 0)
(1.61897e-06 1.20998e-06 0)
(4.11014e-06 5.82548e-06 0)
(9.84982e-06 0.000264246 0)
(-1.66434e-05 0.000271551 0)
(2.21863e-05 0.000329976 0)
(4.16306e-06 6.1244e-06 0)
(9.72715e-06 0.000127617 0)
(1.33636e-05 0.00028025 0)
(-2.14346e-05 0.000264932 0)
(7.79859e-06 1.94081e-05 0)
(-4.91096e-06 0.000282017 0)
(2.00256e-06 7.04398e-05 0)
(1.78628e-06 5.36226e-05 0)
(-3.0795e-06 0.000247498 0)
(-7.30006e-07 3.49766e-06 0)
(5.69316e-06 0.000151829 0)
(1.60779e-07 6.38327e-08 0)
(-6.46622e-06 1.31222e-05 0)
(-1.14509e-06 0.000124658 0)
(-2.89716e-06 2.38642e-05 0)
(-3.37261e-06 2.40224e-05 0)
(6.47767e-06 0.000174761 0)
(7.51811e-06 0.000174435 0)
(8.06825e-06 0.000225687 0)
(6.9505e-06 0.000226039 0)
(1.90196e-07 7.01671e-07 0)
(-4.61558e-08 8.8345e-06 0)
(-1.16045e-05 0.000156924 0)
(-1.2592e-05 0.000206792 0)
(6.16572e-06 3.27213e-05 0)
(-3.61355e-06 1.94428e-05 0)
(-2.16831e-06 0.000212654 0)
(-3.26723e-06 8.30697e-06 0)
(6.81869e-06 0.000325895 0)
(-5.45793e-06 0.000106077 0)
(-6.32546e-06 0.000105808 0)
(1.85562e-07 1.86311e-07 0)
(-3.61331e-06 0.00010973 0)
(-1.81979e-06 2.19477e-05 0)
(4.25342e-06 0.000179067 0)
(4.55246e-06 0.000230654 0)
(-5.08395e-06 0.000212689 0)
(-4.46971e-06 0.00016229 0)
(2.24749e-06 2.98218e-05 0)
(2.97612e-06 1.11581e-05 0)
(2.7641e-06 1.07515e-05 0)
(1.46595e-06 0.000105765 0)
(-1.88684e-06 0.000225604 0)
(-1.76653e-06 0.000174326 0)
(7.82618e-07 2.40275e-05 0)
(-1.72249e-06 4.14863e-05 0)
(-3.07684e-06 8.53951e-06 0)
(1.26911e-05 0.000333582 0)
(-1.23515e-05 0.000199035 0)
(9.50451e-06 9.32391e-05 0)
(-1.10838e-05 0.000141175 0)
(1.35269e-05 0.00028152 0)
(-1.23554e-05 8.56602e-05 0)
(-1.12359e-05 6.73321e-05 0)
(1.51724e-05 0.000150332 0)
(-9.98097e-06 5.08776e-05 0)
(-8.62171e-06 3.64237e-05 0)
(1.65831e-05 0.00019966 0)
(1.75374e-05 0.000252561 0)
(-4.53925e-06 0.000241626 0)
(-4.26789e-06 0.000189355 0)
(2.72357e-06 5.71294e-05 0)
(2.38173e-06 4.1845e-05 0)
(3.03871e-06 7.43557e-05 0)
(2.60526e-06 5.79554e-05 0)
(-4.31082e-06 0.000240265 0)
(2.90352e-06 7.52759e-05 0)
(2.28162e-06 4.25687e-05 0)
(-4.05045e-06 0.000188075 0)
(-2.38921e-06 0.000306837 0)
(-4.79098e-06 6.25045e-06 0)
(-5.22376e-06 2.9539e-05 0)
(1.12233e-05 0.000213361 0)
(1.03843e-05 0.000162989 0)
(-3.28443e-06 3.98354e-05 0)
(6.04793e-06 0.000193018 0)
(1.66473e-05 0.00023941 0)
(1.56295e-05 0.000187293 0)
(-8.92037e-06 4.31751e-05 0)
(-1.01774e-05 5.86187e-05 0)
(-1.13331e-05 7.59913e-05 0)
(1.75414e-05 0.000261412 0)
(1.91441e-05 0.000261079 0)
(4.25668e-07 7.53473e-06 0)
(-1.75251e-06 0.000122606 0)
(-4.64974e-06 1.27896e-05 0)
(2.37335e-07 4.3698e-07 0)
(-4.58064e-06 1.62591e-05 0)
(-7.29341e-07 0.000278859 0)
(1.93116e-07 7.20962e-06 0)
(-3.8285e-06 0.000131443 0)
(1.58879e-05 0.000174339 0)
(-7.13481e-06 2.42269e-05 0)
(1.70503e-05 0.000225564 0)
(-1.56359e-08 -1.08369e-08 0)
(1.07367e-06 0.000208319 0)
(2.97585e-07 1.24863e-07 0)
(2.03161e-07 1.4874e-07 0)
(2.82856e-06 0.000149378 0)
(-3.39571e-07 2.72479e-07 0)
(1.29696e-05 0.000336087 0)
(9.79125e-07 0.000190128 0)
(-5.05727e-07 4.13597e-05 0)
(2.79755e-06 1.65511e-05 0)
(1.79476e-06 0.000189533 0)
(-9.88166e-07 4.16635e-05 0)
(-1.65782e-07 3.64313e-06 0)
(-1.20661e-05 6.74995e-05 0)
(-1.07209e-05 5.10303e-05 0)
(-9.26226e-06 3.65665e-05 0)
(-7.68699e-06 2.42862e-05 0)
(1.71014e-05 0.000174273 0)
(1.7784e-05 0.00019944 0)
(1.83531e-05 0.000225488 0)
(1.88144e-05 0.000252331 0)
(-8.31116e-06 0.000272358 0)
(-7.3833e-06 0.000324084 0)
(-2.38896e-05 0.000267358 0)
(8.50375e-06 1.85841e-05 0)
(5.47048e-06 0.000343665 0)
(6.36108e-06 0.000342178 0)
(1.70823e-06 0.000185309 0)
(1.85277e-06 0.000237345 0)
(-1.29332e-06 7.7339e-05 0)
(-1.16315e-06 5.98099e-05 0)
(-1.02155e-06 4.4197e-05 0)
(-6.75483e-06 1.94152e-05 0)
(2.46251e-06 1.39001e-05 0)
(-9.2097e-06 8.1049e-05 0)
(1.22505e-05 0.000180332 0)
(-8.31598e-06 6.31698e-05 0)
(-7.34261e-06 4.71751e-05 0)
(1.31004e-05 0.000231993 0)
(-5.13418e-06 2.15254e-05 0)
(1.32677e-05 0.00025905 0)
(2.23548e-06 0.000117398 0)
(-1.37672e-06 0.000289537 0)
(1.34016e-06 6.66782e-07 0)
(-1.00553e-06 0.000254059 0)
(6.56139e-07 4.98757e-05 0)
(7.3969e-07 6.62336e-05 0)
(6.89932e-07 8.44004e-05 0)
(4.1625e-06 0.000300017 0)
(-5.55319e-07 3.4969e-07 0)
(2.10443e-05 0.000295189 0)
(-3.14081e-06 0.000124478 0)
(-9.35115e-08 1.98709e-07 0)
(7.52882e-06 0.000177507 0)
(-3.27045e-06 2.26546e-05 0)
(8.06493e-06 0.00022898 0)
(1.6208e-07 1.25399e-07 0)
(-4.39558e-06 2.73592e-05 0)
(9.11814e-06 0.000167348 0)
(9.8278e-06 0.000218067 0)
(1.51695e-06 1.9719e-06 0)
(-6.37109e-06 0.000108436 0)
(1.36107e-06 0.000115997 0)
(-1.45499e-05 0.000315586 0)
(1.35299e-06 0.000186325 0)
(1.44259e-06 0.000238403 0)
(-1.09084e-06 7.65892e-05 0)
(-8.58129e-07 4.36066e-05 0)
(-9.80187e-07 5.91348e-05 0)
(2.16562e-06 0.000118272 0)
(-2.97272e-07 1.1224e-06 0)
(-2.62501e-07 3.83479e-06 0)
(6.52841e-07 0.000278402 0)
(1.43128e-05 0.000127238 0)
(-1.33954e-05 0.000105819 0)
(-1.02078e-05 0.000353318 0)
(-2.31839e-05 0.00023039 0)
(-2.16648e-05 0.000178862 0)
(-2.24927e-05 0.000204189 0)
(-2.06968e-05 0.000154559 0)
(1.12758e-05 3.42477e-05 0)
(1.31314e-05 4.83172e-05 0)
(1.48431e-05 6.44238e-05 0)
(1.64136e-05 8.24049e-05 0)
(2.31655e-05 0.000230386 0)
(2.24739e-05 0.000204189 0)
(-1.12863e-05 3.42482e-05 0)
(-1.31427e-05 4.83183e-05 0)
(2.16448e-05 0.000178861 0)
(-1.48563e-05 6.44248e-05 0)
(2.06792e-05 0.000154559 0)
(-1.64283e-05 8.24059e-05 0)
(-6.50066e-06 1.887e-05 0)
(-3.58335e-06 0.000288918 0)
(-2.55145e-06 0.000288641 0)
(-3.17861e-06 0.000327412 0)
(5.30347e-06 0.000197773 0)
(-2.80165e-06 3.72501e-05 0)
(-9.97811e-07 1.46008e-06 0)
(-4.11668e-06 0.000346118 0)
(-4.49711e-06 7.3776e-05 0)
(-5.51096e-06 7.34966e-05 0)
(-4.02794e-06 5.66113e-05 0)
(-4.93438e-06 5.63626e-05 0)
(6.71935e-06 0.00024292 0)
(8.06854e-06 0.000243034 0)
(1.77185e-05 0.000238784 0)
(1.66298e-05 0.000186708 0)
(-9.53315e-06 4.35329e-05 0)
(-1.08689e-05 5.90224e-05 0)
(-1.2097e-05 7.64371e-05 0)
(-1.06942e-05 0.000157481 0)
(-1.15999e-05 0.000207398 0)
(5.65077e-06 3.2407e-05 0)
(-3.353e-06 0.000140933 0)
(2.85654e-06 9.33948e-05 0)
(3.50578e-06 0.000249836 0)
(-2.02295e-06 5.21782e-05 0)
(-2.27285e-06 6.8821e-05 0)
(-2.46525e-06 8.7111e-05 0)
(6.59881e-06 9.2275e-05 0)
(5.59299e-06 9.25123e-05 0)
(-7.7504e-06 0.000142234 0)
(-6.56096e-06 0.00014194 0)
(-7.81625e-06 0.000343516 0)
(5.18316e-07 1.40157e-06 0)
(1.30328e-05 0.000295513 0)
(4.6834e-06 0.000102568 0)
(1.2769e-05 0.000203972 0)
(-6.41531e-06 3.41321e-05 0)
(1.17465e-05 0.000154326 0)
(-1.08956e-05 0.000123138 0)
(2.62852e-06 2.5802e-05 0)
(-6.09114e-06 0.00022149 0)
(-5.66406e-06 0.000170525 0)
(7.66407e-07 0.000106749 0)
(-9.33899e-07 0.000175497 0)
(-9.94797e-07 0.000226854 0)
(4.04142e-07 2.34992e-05 0)
(7.34742e-06 9.66129e-05 0)
(-8.37921e-06 0.00013721 0)
(-4.01215e-06 0.000306832 0)
(-1.86241e-05 0.000303884 0)
(3.33332e-06 0.000130847 0)
(8.35547e-06 0.000131261 0)
(-6.69614e-06 2.50732e-05 0)
(1.57047e-05 0.000223493 0)
(1.46169e-05 0.000172407 0)
(-7.37093e-07 3.10848e-06 0)
(-2.51027e-06 0.000255834 0)
(1.39773e-06 4.88686e-05 0)
(1.57843e-06 6.50986e-05 0)
(1.7318e-06 8.31596e-05 0)
(-3.83389e-06 0.000123866 0)
(-1.72625e-05 0.000303987 0)
(-4.92733e-06 4.89285e-05 0)
(-5.56414e-06 6.51594e-05 0)
(-6.12734e-06 8.32598e-05 0)
(8.81565e-06 0.000255745 0)
(1.56902e-08 2.02117e-08 0)
(1.0809e-05 0.000122144 0)
(1.39235e-07 9.42014e-06 0)
(-5.0379e-07 8.69925e-07 0)
(-1.04825e-06 4.02635e-06 0)
(-5.0472e-06 1.73448e-05 0)
(-5.13922e-07 1.8861e-07 0)
(2.1243e-06 5.52789e-05 0)
(1.85999e-06 4.01988e-05 0)
(2.37597e-06 7.2292e-05 0)
(-3.60288e-06 0.000244697 0)
(-3.40935e-06 0.000192294 0)
(-1.04743e-05 0.000101211 0)
(1.13878e-05 0.000132056 0)
(-1.01925e-06 5.96475e-07 0)
(1.38559e-05 0.000325484 0)
(9.99737e-06 0.000291043 0)
(-2.12589e-05 0.000273863 0)
(7.86921e-06 0.00013024 0)
(2.84485e-06 0.000141534 0)
(-5.34325e-06 0.000345961 0)
(-1.48659e-05 0.00014833 0)
(-1.41398e-05 0.000147671 0)
(2.10123e-05 0.000345858 0)
(-1.67004e-06 0.000308369 0)
(-4.68742e-06 9.30155e-05 0)
(5.66483e-06 0.000141506 0)
(1.72175e-07 9.75193e-06 0)
(2.55805e-06 3.43361e-06 0)
(5.10933e-07 1.87485e-07 0)
(5.01053e-06 0.000150831 0)
(1.85203e-05 0.000352985 0)
(-1.01327e-05 0.00024474 0)
(-9.53039e-06 0.000192288 0)
(5.21937e-06 4.02485e-05 0)
(6.70616e-06 7.23101e-05 0)
(5.99586e-06 5.53023e-05 0)
(-1.87236e-07 1.30063e-07 0)
(-7.50048e-07 0.000321024 0)
(9.47345e-06 0.000131651 0)
(-8.59191e-06 0.000101729 0)
(-1.51871e-05 0.000313206 0)
(-2.26769e-05 0.000231576 0)
(-2.20055e-05 0.000205334 0)
(-2.12052e-05 0.000179967 0)
(-2.02648e-05 0.000155616 0)
(1.09315e-05 3.36574e-05 0)
(1.2751e-05 4.76335e-05 0)
(1.44296e-05 6.36535e-05 0)
(1.59703e-05 8.15551e-05 0)
(2.26564e-05 0.000231567 0)
(2.19869e-05 0.000205334 0)
(-1.09413e-05 3.36601e-05 0)
(-1.2761e-05 4.76365e-05 0)
(2.11826e-05 0.000179963 0)
(-1.44412e-05 6.36565e-05 0)
(2.02453e-05 0.000155611 0)
(-1.59833e-05 8.15584e-05 0)
(-3.25504e-06 4.34362e-06 0)
(1.27967e-06 1.19272e-06 0)
(-1.71274e-06 3.11265e-06 0)
(8.43463e-06 0.000129159 0)
(-9.24245e-06 0.000133018 0)
(1.63375e-06 1.9508e-06 0)
(-2.52518e-07 4.21413e-08 0)
(-2.04426e-05 0.000274526 0)
(1.1719e-05 0.000349412 0)
(1.31505e-05 0.000350074 0)
(2.52268e-07 4.20916e-08 0)
(3.68334e-06 4.87655e-06 0)
(1.8348e-05 0.000317958 0)
(-6.9492e-06 0.000147144 0)
(-4.47983e-07 3.88867e-07 0)
(-1.0152e-06 1.56318e-06 0)
(-1.58314e-07 4.04199e-08 0)
(2.97121e-07 2.2892e-07 0)
(1.89074e-05 0.000117117 0)
(-1.88486e-05 0.000115754 0)
(5.79375e-06 8.81697e-05 0)
(-7.1223e-06 0.000144437 0)
(6.01646e-06 9.04472e-05 0)
(-3.05527e-07 5.1993e-06 0)
(-4.39078e-06 0.000231527 0)
(3.47911e-06 0.000110459 0)
(-2.44679e-06 0.000229001 0)
(-2.33882e-06 0.000177392 0)
(1.0048e-06 2.2666e-05 0)
(1.91525e-06 0.000108445 0)
(-7.75122e-06 0.00014639 0)
(3.92573e-06 5.16769e-06 0)
(6.48923e-06 8.88394e-05 0)
(2.42187e-06 0.000131048 0)
(1.84391e-05 0.000328402 0)
(-5.59309e-06 0.000132135 0)
(-6.4321e-06 0.000133038 0)
(-5.16066e-06 1.09721e-05 0)
(-6.23828e-06 0.000137288 0)
(-5.33371e-06 0.000136331 0)
(5.55636e-06 9.64529e-05 0)
(4.88194e-06 9.74093e-05 0)
(-5.80555e-06 2.67831e-05 0)
(1.22018e-05 0.000168652 0)
(1.31403e-05 0.000219464 0)
(-1.59269e-06 1.76008e-06 0)
(-7.76535e-06 0.000145209 0)
(6.53485e-06 8.98362e-05 0)
(-4.95191e-06 0.000187103 0)
(-5.27424e-06 0.000239231 0)
(2.81311e-06 4.31293e-05 0)
(3.57367e-06 7.59846e-05 0)
(3.20921e-06 5.85931e-05 0)
(-2.54694e-06 1.18526e-05 0)
(-1.6251e-05 0.000197373 0)
(-1.53993e-05 0.000196747 0)
(8.54299e-06 3.76102e-05 0)
(8.12706e-06 3.7938e-05 0)
(1.07144e-05 0.000156463 0)
(1.17787e-05 0.000155688 0)
(-5.73609e-06 3.29509e-05 0)
(-6.35207e-06 3.33892e-05 0)
(1.16302e-05 0.000206295 0)
(1.27921e-05 0.000205451 0)
(-4.66876e-06 0.000305701 0)
(9.34659e-06 0.000279043 0)
(9.48099e-06 0.000277734 0)
(-6.87717e-06 9.04555e-05 0)
(8.10863e-06 0.000144401 0)
(-2.4486e-05 0.000340756 0)
(-7.04358e-06 0.000271577 0)
(-6.76398e-06 0.000270298 0)
(2.33039e-06 1.72469e-05 0)
(2.39474e-06 1.68061e-05 0)
(2.11545e-05 0.000274611 0)
(-9.32131e-06 0.000116222 0)
(-8.00144e-06 0.000116263 0)
(2.09299e-05 0.000310223 0)
(-2.11485e-05 0.000327103 0)
(-2.11211e-05 0.000328667 0)