/*--------------------------------*- C++ -*----------------------------------*\
| =========                 |                                                 |
| \\      /  F ield         | OpenFOAM: The Open Source CFD Toolbox           |
|  \\    /   O peration     | Version:  2.3.1                                 |
|   \\  /    A nd           | Web:      www.OpenFOAM.org                      |
|    \\/     M anipulation  |                                                 |
\*---------------------------------------------------------------------------*/
FoamFile
{
    version     2.0;
    format      ascii;
    class       volScalarField;
    location    "0.63";
    object      k;
}
// * * * * * * * * * * * * * * * * * * * * * * * * * * * * * * * * * * * * * //

dimensions      [0 2 -2 0 0 0 0];

internalField   nonuniform List<scalar> 
1000
(
0.00244805
0.00250588
0.00250706
0.00250699
0.00250695
0.00250694
0.00250693
0.00250692
0.00250679
0.0025021
0.0025074
0.00251672
0.0025173
0.0025173
0.00251728
0.00251727
0.00251725
0.00251722
0.00251657
0.00250379
0.00251068
0.0025197
0.00252041
0.00252042
0.00252042
0.0025204
0.00252037
0.00252032
0.00251958
0.00250579
0.00251309
0.00252291
0.00252374
0.0025238
0.00252381
0.0025238
0.00252375
0.00252369
0.00252287
0.00250845
0.00251642
0.00252759
0.00252858
0.00252874
0.00252878
0.00252876
0.00252873
0.00252859
0.00252769
0.00251198
0.00250595
0.0025147
0.00251551
0.00251564
0.00251569
0.00251571
0.00251571
0.00251571
0.00251514
0.00250382
0.00251586
0.00279481
0.00281194
0.00281281
0.00281288
0.00281291
0.00281292
0.00281248
0.00279798
0.00251331
0.00251835
0.0028143
0.00283277
0.00283364
0.00283369
0.00283369
0.00283367
0.00283316
0.00281738
0.00251576
0.00252074
0.00281624
0.00283478
0.00283566
0.00283571
0.0028357
0.00283568
0.00283515
0.00281923
0.00251819
0.00252392
0.00281883
0.00283767
0.00283867
0.00283876
0.00283876
0.00283871
0.00283808
0.00282185
0.00252144
0.00250919
0.00251675
0.00251752
0.00251765
0.00251771
0.00251774
0.00251775
0.00251774
0.00251712
0.00250527
0.0025175
0.00281209
0.00283045
0.00283135
0.00283141
0.00283143
0.00283144
0.00283095
0.00281532
0.00251519
0.0025197
0.0028324
0.00285237
0.00285333
0.00285337
0.00285337
0.00285336
0.00285279
0.00283575
0.00251742
0.00252184
0.00283413
0.0028542
0.00285517
0.00285522
0.00285521
0.00285519
0.00285461
0.00283743
0.00251954
0.00252464
0.00283547
0.00285568
0.00285671
0.00285677
0.00285677
0.00285673
0.00285609
0.00283877
0.00252235
0.00251047
0.0025179
0.00251861
0.00251871
0.00251876
0.00251879
0.0025188
0.00251879
0.00251818
0.00250629
0.00251847
0.00281368
0.00283199
0.00283286
0.00283292
0.00283293
0.00283293
0.00283244
0.00281673
0.00251612
0.0025204
0.00283335
0.00285332
0.00285427
0.00285432
0.00285432
0.00285431
0.00285374
0.00283665
0.00251815
0.0025223
0.0028349
0.00285497
0.00285594
0.00285598
0.00285598
0.00285596
0.00285537
0.00283819
0.00252001
0.00252475
0.00283574
0.00285585
0.00285684
0.00285689
0.00285689
0.00285686
0.00285625
0.00283899
0.00252244
0.00251115
0.00251853
0.0025192
0.00251927
0.00251931
0.00251934
0.00251935
0.00251933
0.00251872
0.00250681
0.00251904
0.00281451
0.00283278
0.00283364
0.00283368
0.00283369
0.00283369
0.00283319
0.00281745
0.0025166
0.00252081
0.00283349
0.00285341
0.00285436
0.00285441
0.00285441
0.0028544
0.00285382
0.00283675
0.00251851
0.00252256
0.00283493
0.00285493
0.00285589
0.00285593
0.00285593
0.00285592
0.00285533
0.00283818
0.00252024
0.00252481
0.00283559
0.00285558
0.00285656
0.00285661
0.0028566
0.00285658
0.00285597
0.00283881
0.00252246
0.00251127
0.00251881
0.00251947
0.00251954
0.00251957
0.00251959
0.0025196
0.00251958
0.00251895
0.00250684
0.00251918
0.00281506
0.00283332
0.00283417
0.00283421
0.00283421
0.00283421
0.00283369
0.00281793
0.0025167
0.00252097
0.00283366
0.00285355
0.0028545
0.00285455
0.00285455
0.00285454
0.00285396
0.00283688
0.00251864
0.00252276
0.00283507
0.00285503
0.002856
0.00285605
0.00285605
0.00285603
0.00285543
0.00283829
0.00252041
0.00252504
0.00283573
0.00285567
0.00285664
0.00285669
0.00285669
0.00285666
0.00285605
0.0028389
0.00252266
0.00251089
0.00251883
0.00251951
0.00251957
0.0025196
0.00251961
0.00251962
0.00251959
0.00251894
0.00250641
0.00251895
0.00281527
0.00283353
0.00283438
0.00283442
0.00283442
0.00283441
0.00283389
0.00281812
0.00251642
0.00252094
0.00283389
0.00285377
0.00285473
0.00285477
0.00285478
0.00285476
0.00285418
0.00283709
0.00251856
0.00252299
0.0028354
0.00285536
0.00285633
0.00285638
0.00285638
0.00285636
0.00285575
0.0028386
0.00252059
0.00252554
0.00283622
0.00285616
0.00285715
0.0028572
0.0028572
0.00285716
0.00285653
0.00283936
0.0025231
0.00250998
0.0025183
0.002519
0.00251906
0.00251909
0.0025191
0.0025191
0.00251906
0.00251839
0.00250547
0.00251827
0.00281481
0.00283303
0.00283388
0.00283392
0.00283392
0.00283391
0.00283339
0.00281764
0.00251568
0.00252058
0.00283339
0.00285321
0.00285417
0.00285422
0.00285422
0.00285421
0.00285361
0.00283657
0.00251816
0.00252302
0.00283499
0.00285488
0.00285586
0.00285591
0.00285592
0.00285589
0.00285527
0.00283815
0.00252056
0.0025261
0.00283608
0.00285597
0.00285698
0.00285705
0.00285706
0.002857
0.00285633
0.00283915
0.0025236
0.00250849
0.00251656
0.00251722
0.00251728
0.0025173
0.0025173
0.0025173
0.00251726
0.00251662
0.00250393
0.00251662
0.00279799
0.00281494
0.00281571
0.00281574
0.00281574
0.00281573
0.00281525
0.00280053
0.00251389
0.00251927
0.00281482
0.00283315
0.00283402
0.00283405
0.00283406
0.00283404
0.00283351
0.00281766
0.00251667
0.00252215
0.00281553
0.00283383
0.00283471
0.00283475
0.00283476
0.00283473
0.00283417
0.00281831
0.0025195
0.00252594
0.00281546
0.00283366
0.00283456
0.00283461
0.00283461
0.00283455
0.00283394
0.0028181
0.00252323
0.00250228
0.00250254
0.00250257
0.00250258
0.00250259
0.00250259
0.00250259
0.00250258
0.00250245
0.00249746
0.00250434
0.00251292
0.00251366
0.00251372
0.00251374
0.00251375
0.00251373
0.00251369
0.002513
0.00249964
0.00250686
0.00251613
0.00251699
0.0025171
0.00251713
0.00251714
0.00251711
0.00251702
0.00251621
0.00250216
0.00251018
0.00251953
0.00252048
0.00252063
0.00252068
0.00252069
0.00252063
0.00252049
0.00251957
0.00250546
0.00251526
0.00252477
0.00252586
0.00252607
0.00252614
0.00252614
0.00252606
0.00252582
0.00252475
0.00251059
0.00252729
0.00253644
0.00253771
0.00253797
0.00253805
0.00253804
0.00253795
0.00253765
0.00253631
0.00252277
0.00254586
0.0025797
0.00258244
0.0025819
0.00258152
0.00258149
0.00258186
0.00258229
0.00258044
0.00254219
0.00273674
0.00318776
0.0032085
0.00318917
0.00318221
0.00318192
0.00318789
0.00320677
0.00319921
0.00274302
0.00440175
0.00788305
0.00810834
0.00801363
0.00797659
0.0079739
0.0080045
0.00809587
0.00795295
0.00447913
0.0115842
0.0251361
0.026559
0.0265802
0.0265589
0.0265502
0.026552
0.0265212
0.0253461
0.0118133
0.00253038
0.00281258
0.0028303
0.00283118
0.00283122
0.00283121
0.00283117
0.00283053
0.00281506
0.00252769
0.00253665
0.00283445
0.00285531
0.00285703
0.00285715
0.00285715
0.00285705
0.00285564
0.00283748
0.00253418
0.00256496
0.00305025
0.00309146
0.00309733
0.00309857
0.00309858
0.00309734
0.00309225
0.00305617
0.00256367
0.00304403
0.00457926
0.00463432
0.00459065
0.00458857
0.00458801
0.00458929
0.0046324
0.00461569
0.00306748
0.0158486
0.0509974
0.0535664
0.0534457
0.0533342
0.0533199
0.0534012
0.0535305
0.0514695
0.0162622
0.00252826
0.00283635
0.00285639
0.00285749
0.00285758
0.00285758
0.00285749
0.00285672
0.00283938
0.00252583
0.00253201
0.00283773
0.00285791
0.00285901
0.00285906
0.00285906
0.00285902
0.00285827
0.00284091
0.00252974
0.00253925
0.00290928
0.00294027
0.00294462
0.00294558
0.0029456
0.00294472
0.00294102
0.00291404
0.00253737
0.00284976
0.0044059
0.00451796
0.00452784
0.00452977
0.0045296
0.00452762
0.00452006
0.00443325
0.00286469
0.016518
0.0518515
0.0537912
0.0537428
0.0536873
0.0536806
0.0537243
0.0538047
0.0523402
0.0169503
0.00252652
0.00283606
0.00285616
0.0028572
0.00285727
0.00285727
0.0028572
0.00285652
0.00283918
0.00252412
0.00252934
0.00283536
0.00285531
0.00285627
0.0028563
0.0028563
0.00285628
0.00285567
0.00283853
0.00252703
0.00253336
0.00286499
0.00288795
0.00288955
0.0028898
0.00288981
0.00288961
0.00288847
0.00286896
0.00253135
0.00282332
0.00429332
0.00439437
0.00440242
0.00440375
0.00440371
0.0044025
0.00439709
0.00432044
0.0028373
0.0171459
0.0544178
0.0563642
0.0564018
0.0563797
0.0563771
0.0563966
0.0564075
0.0549594
0.0176142
0.00252551
0.00283519
0.00285527
0.00285627
0.00285633
0.00285633
0.00285628
0.00285563
0.00283836
0.00252314
0.00252801
0.00283443
0.00285435
0.00285529
0.00285531
0.00285531
0.00285529
0.00285472
0.00283761
0.00252569
0.00253142
0.00285675
0.00287869
0.00287994
0.00288007
0.00288008
0.00287998
0.00287918
0.00286057
0.00252934
0.00281943
0.00425921
0.00435292
0.00435912
0.00436002
0.00436004
0.00435933
0.0043558
0.00428623
0.00283335
0.0174475
0.0555699
0.0575476
0.0576327
0.0576302
0.0576299
0.0576352
0.0576067
0.0561384
0.0179343
0.00252529
0.00283519
0.00285538
0.00285641
0.00285648
0.00285647
0.00285642
0.00285577
0.00283841
0.00252295
0.002528
0.00283436
0.00285449
0.00285545
0.00285548
0.00285548
0.00285546
0.00285489
0.00283761
0.00252568
0.00253188
0.00285802
0.00288053
0.00288193
0.00288209
0.00288209
0.00288197
0.00288104
0.00286188
0.00252976
0.00294617
0.00459112
0.00472324
0.00474919
0.00475798
0.00475818
0.00475038
0.00472843
0.00462485
0.00296672
0.0175357
0.0556013
0.0575643
0.0576564
0.0576583
0.0576584
0.0576621
0.0576304
0.0561779
0.0180339
0.00252569
0.00283619
0.00285668
0.00285777
0.00285787
0.00285786
0.0028578
0.00285709
0.0028395
0.00252341
0.00252902
0.00283514
0.00285579
0.00285684
0.00285688
0.00285689
0.00285686
0.00285624
0.00283847
0.00252669
0.00253521
0.00287585
0.00290144
0.00290391
0.00290442
0.00290443
0.002904
0.00290203
0.0028801
0.00253317
0.00318922
0.00508533
0.00528239
0.00534658
0.00537006
0.00537068
0.0053495
0.00529143
0.00512619
0.00322111
0.0175696
0.0548906
0.056778
0.0568625
0.056865
0.0568652
0.0568716
0.0568508
0.0554657
0.0180835
0.00252657
0.00283772
0.00285856
0.00285978
0.00285991
0.00285991
0.00285981
0.00285904
0.00284112
0.00252431
0.00253036
0.00283995
0.00286209
0.00286349
0.00286361
0.0028636
0.00286354
0.00286256
0.00284343
0.00252799
0.00254371
0.00293505
0.00296849
0.00297383
0.00297536
0.0029754
0.00297395
0.00296936
0.00294009
0.00254178
0.00345817
0.00486338
0.0050862
0.00521121
0.00526061
0.00526192
0.00521687
0.00509723
0.00488945
0.00349506
0.0174032
0.0521677
0.0538595
0.0539446
0.053954
0.0539551
0.0539582
0.0539391
0.0527001
0.0179194
0.00252751
0.00282457
0.00284437
0.00284557
0.0028457
0.0028457
0.00284562
0.00284484
0.00282777
0.00252512
0.0025308
0.00285047
0.0028757
0.00287824
0.00287876
0.00287878
0.00287831
0.00287628
0.00285414
0.00252823
0.0025575
0.00303858
0.00307956
0.00308731
0.00308979
0.00308983
0.00308751
0.00308063
0.00304393
0.00255565
0.00301826
0.0042623
0.00441308
0.00443423
0.00444044
0.00444044
0.00443501
0.00441704
0.00428643
0.00303337
0.0156732
0.0415612
0.0427755
0.0429517
0.0430116
0.0430143
0.0429704
0.0428439
0.0419077
0.0160655
0.00251851
0.00253422
0.00253596
0.0025363
0.00253643
0.00253645
0.00253629
0.00253606
0.0025345
0.00251393
0.00251847
0.00254037
0.00254258
0.00254286
0.00254294
0.00254293
0.00254287
0.00254267
0.00254057
0.0025138
0.00256571
0.00260235
0.00260702
0.00260822
0.00260857
0.00260853
0.00260831
0.00260703
0.00260295
0.00256173
0.00271812
0.00296453
0.00300088
0.00300758
0.00300962
0.00300972
0.00300783
0.00300214
0.00297078
0.00271973
0.00872924
0.0135246
0.0137971
0.0138647
0.0138878
0.0138885
0.0138698
0.0138119
0.0135874
0.00882731
)
;

boundaryField
{
    walls
    {
        type            kqRWallFunction;
        value           nonuniform List<scalar> 
500
(
0.00244805
0.00244805
0.00244805
0.00250588
0.00250588
0.00250706
0.00250706
0.00250699
0.00250699
0.00250695
0.00250695
0.00250694
0.00250694
0.00250693
0.00250693
0.00250692
0.00250692
0.00250679
0.00250679
0.0025021
0.0025021
0.0025021
0.0025074
0.0025074
0.00251672
0.0025173
0.0025173
0.00251728
0.00251727
0.00251725
0.00251722
0.00251657
0.00250379
0.00250379
0.00251068
0.00251068
0.0025197
0.00252041
0.00252042
0.00252042
0.0025204
0.00252037
0.00252032
0.00251958
0.00250579
0.00250579
0.00251309
0.00251309
0.00252291
0.00252374
0.0025238
0.00252381
0.0025238
0.00252375
0.00252369
0.00252287
0.00250845
0.00250845
0.00251642
0.00251642
0.00252759
0.00252858
0.00252874
0.00252878
0.00252876
0.00252873
0.00252859
0.00252769
0.00251198
0.00251198
0.00250595
0.00250595
0.0025147
0.00251551
0.00251564
0.00251569
0.00251571
0.00251571
0.00251571
0.00251514
0.00250382
0.00250382
0.00251586
0.00251331
0.00251835
0.00251576
0.00252074
0.00251819
0.00252392
0.00252144
0.00250919
0.00250919
0.00251675
0.00251752
0.00251765
0.00251771
0.00251774
0.00251775
0.00251774
0.00251712
0.00250527
0.00250527
0.0025175
0.00251519
0.0025197
0.00251742
0.00252184
0.00251954
0.00252464
0.00252235
0.00251047
0.00251047
0.0025179
0.00251861
0.00251871
0.00251876
0.00251879
0.0025188
0.00251879
0.00251818
0.00250629
0.00250629
0.00251847
0.00251612
0.0025204
0.00251815
0.0025223
0.00252001
0.00252475
0.00252244
0.00251115
0.00251115
0.00251853
0.0025192
0.00251927
0.00251931
0.00251934
0.00251935
0.00251933
0.00251872
0.00250681
0.00250681
0.00251904
0.0025166
0.00252081
0.00251851
0.00252256
0.00252024
0.00252481
0.00252246
0.00251127
0.00251127
0.00251881
0.00251947
0.00251954
0.00251957
0.00251959
0.0025196
0.00251958
0.00251895
0.00250684
0.00250684
0.00251918
0.0025167
0.00252097
0.00251864
0.00252276
0.00252041
0.00252504
0.00252266
0.00251089
0.00251089
0.00251883
0.00251951
0.00251957
0.0025196
0.00251961
0.00251962
0.00251959
0.00251894
0.00250641
0.00250641
0.00251895
0.00251642
0.00252094
0.00251856
0.00252299
0.00252059
0.00252554
0.0025231
0.00250998
0.00250998
0.0025183
0.002519
0.00251906
0.00251909
0.0025191
0.0025191
0.00251906
0.00251839
0.00250547
0.00250547
0.00251827
0.00251568
0.00252058
0.00251816
0.00252302
0.00252056
0.0025261
0.0025236
0.00250849
0.00250849
0.00251656
0.00251722
0.00251728
0.0025173
0.0025173
0.0025173
0.00251726
0.00251662
0.00250393
0.00250393
0.00251662
0.00251389
0.00251927
0.00251667
0.00252215
0.0025195
0.00252594
0.00252323
0.00250228
0.00250228
0.00250228
0.00250254
0.00250254
0.00250257
0.00250257
0.00250258
0.00250258
0.00250259
0.00250259
0.00250259
0.00250259
0.00250259
0.00250259
0.00250258
0.00250258
0.00250245
0.00250245
0.00249746
0.00249746
0.00249746
0.00250434
0.00250434
0.00251292
0.00251366
0.00251372
0.00251374
0.00251375
0.00251373
0.00251369
0.002513
0.00249964
0.00249964
0.00250686
0.00250686
0.00251613
0.00251699
0.0025171
0.00251713
0.00251714
0.00251711
0.00251702
0.00251621
0.00250216
0.00250216
0.00251018
0.00251018
0.00251953
0.00252048
0.00252063
0.00252068
0.00252069
0.00252063
0.00252049
0.00251957
0.00250546
0.00250546
0.00251526
0.00251526
0.00252477
0.00252586
0.00252607
0.00252614
0.00252614
0.00252606
0.00252582
0.00252475
0.00251059
0.00251059
0.00252729
0.00252729
0.00253644
0.00253771
0.00253797
0.00253805
0.00253804
0.00253795
0.00253765
0.00253631
0.00252277
0.00252277
0.00254586
0.00254586
0.0025797
0.00258244
0.0025819
0.00258152
0.00258149
0.00258186
0.00258229
0.00258044
0.00254219
0.00254219
0.00273674
0.00273674
0.00318776
0.0032085
0.00318917
0.00318221
0.00318192
0.00318789
0.00320677
0.00319921
0.00274302
0.00274302
0.00440175
0.00440175
0.00788305
0.00810834
0.00801363
0.00797659
0.0079739
0.0080045
0.00809587
0.00795295
0.00447913
0.00447913
0.0115842
0.0115842
0.0251361
0.026559
0.0265802
0.0265589
0.0265502
0.026552
0.0265212
0.0253461
0.0118133
0.0118133
0.00253038
0.00252769
0.00253665
0.00253418
0.00256496
0.00256367
0.00304403
0.00306748
0.0158486
0.0162622
0.00252826
0.00252583
0.00253201
0.00252974
0.00253925
0.00253737
0.00284976
0.00286469
0.016518
0.0169503
0.00252652
0.00252412
0.00252934
0.00252703
0.00253336
0.00253135
0.00282332
0.0028373
0.0171459
0.0176142
0.00252551
0.00252314
0.00252801
0.00252569
0.00253142
0.00252934
0.00281943
0.00283335
0.0174475
0.0179343
0.00252529
0.00252295
0.002528
0.00252568
0.00253188
0.00252976
0.00294617
0.00296672
0.0175357
0.0180339
0.00252569
0.00252341
0.00252902
0.00252669
0.00253521
0.00253317
0.00318922
0.00322111
0.0175696
0.0180835
0.00252657
0.00252431
0.00253036
0.00252799
0.00254371
0.00254178
0.00345817
0.00349506
0.0174032
0.0179194
0.00252751
0.00252512
0.0025308
0.00252823
0.0025575
0.00255565
0.00301826
0.00303337
0.0156732
0.0160655
0.00251851
0.00251851
0.00253422
0.00253596
0.0025363
0.00253643
0.00253645
0.00253629
0.00253606
0.0025345
0.00251393
0.00251393
0.00251847
0.00251847
0.00254037
0.00254258
0.00254286
0.00254294
0.00254293
0.00254287
0.00254267
0.00254057
0.0025138
0.0025138
0.00256571
0.00256571
0.00260235
0.00260702
0.00260822
0.00260857
0.00260853
0.00260831
0.00260703
0.00260295
0.00256173
0.00256173
0.00271812
0.00271812
0.00296453
0.00300088
0.00300758
0.00300962
0.00300972
0.00300783
0.00300214
0.00297078
0.00271973
0.00271973
0.00872924
0.00872924
0.0135246
0.0137971
0.0138647
0.0138878
0.0138885
0.0138698
0.0138119
0.0135874
0.00882731
0.00882731
)
;
    }
    lid
    {
        type            kqRWallFunction;
        value           nonuniform List<scalar> 
100
(
0.0115842
0.0251361
0.026559
0.0265802
0.0265589
0.0265502
0.026552
0.0265212
0.0253461
0.0118133
0.0158486
0.0509974
0.0535664
0.0534457
0.0533342
0.0533199
0.0534012
0.0535305
0.0514695
0.0162622
0.016518
0.0518515
0.0537912
0.0537428
0.0536873
0.0536806
0.0537243
0.0538047
0.0523402
0.0169503
0.0171459
0.0544178
0.0563642
0.0564018
0.0563797
0.0563771
0.0563966
0.0564075
0.0549594
0.0176142
0.0174475
0.0555699
0.0575476
0.0576327
0.0576302
0.0576299
0.0576352
0.0576067
0.0561384
0.0179343
0.0175357
0.0556013
0.0575643
0.0576564
0.0576583
0.0576584
0.0576621
0.0576304
0.0561779
0.0180339
0.0175696
0.0548906
0.056778
0.0568625
0.056865
0.0568652
0.0568716
0.0568508
0.0554657
0.0180835
0.0174032
0.0521677
0.0538595
0.0539446
0.053954
0.0539551
0.0539582
0.0539391
0.0527001
0.0179194
0.0156732
0.0415612
0.0427755
0.0429517
0.0430116
0.0430143
0.0429704
0.0428439
0.0419077
0.0160655
0.00872924
0.0135246
0.0137971
0.0138647
0.0138878
0.0138885
0.0138698
0.0138119
0.0135874
0.00882731
)
;
    }
}


// ************************************************************************* //
