/*--------------------------------*- C++ -*----------------------------------*\
| =========                 |                                                 |
| \\      /  F ield         | OpenFOAM: The Open Source CFD Toolbox           |
|  \\    /   O peration     | Version:  2.3.1                                 |
|   \\  /    A nd           | Web:      www.OpenFOAM.org                      |
|    \\/     M anipulation  |                                                 |
\*---------------------------------------------------------------------------*/
FoamFile
{
    version     2.0;
    format      ascii;
    class       surfaceScalarField;
    location    "0.63";
    object      phi;
}
// * * * * * * * * * * * * * * * * * * * * * * * * * * * * * * * * * * * * * //

dimensions      [0 3 -1 0 0 0 0];

internalField   nonuniform List<scalar> 
2700
(
4.58622e-06
3.15101e-05
-2.38219e-05
3.64476e-06
2.81822e-05
-2.72688e-05
1.71354e-06
2.85783e-05
-2.66801e-05
9.63147e-07
2.81477e-05
-2.7436e-05
4.0915e-07
2.81425e-05
-2.76288e-05
-1.53772e-08
2.80892e-05
-2.7707e-05
-2.88675e-07
2.79503e-05
-2.77187e-05
-3.74248e-07
2.77507e-05
-2.77027e-05
-2.45452e-07
2.75262e-05
-2.76878e-05
2.73741e-05
-2.76366e-05
1.21452e-06
6.02944e-05
-3.0023e-05
1.33457e-06
5.87867e-05
-3.07529e-05
1.26398e-06
5.9393e-05
-3.07782e-05
8.31438e-07
5.96035e-05
-3.10617e-05
3.24316e-07
5.97906e-05
-3.11819e-05
-1.47049e-07
5.97497e-05
-3.12317e-05
-4.75195e-07
5.94598e-05
-3.12221e-05
-5.41037e-07
5.89663e-05
-3.11868e-05
-3.03875e-07
5.83833e-05
-3.11252e-05
5.77699e-05
-3.07175e-05
1.37478e-06
9.54187e-05
-3.65384e-05
1.62293e-06
9.60674e-05
-3.75748e-05
1.5243e-06
9.72109e-05
-3.77691e-05
9.77427e-07
9.80617e-05
-3.79653e-05
2.66315e-07
9.85252e-05
-3.80797e-05
-4.32736e-07
9.85059e-05
-3.81143e-05
-9.4696e-07
9.79913e-05
-3.8074e-05
-1.07675e-06
9.70385e-05
-3.79934e-05
-7.04379e-07
9.58405e-05
-3.78784e-05
9.43992e-05
-3.737e-05
2.03535e-06
0.000142107
-4.88233e-05
2.63597e-06
0.000145045
-4.9683e-05
2.33643e-06
0.00014736
-4.99595e-05
1.41528e-06
0.000149063
-5.01934e-05
2.4011e-07
0.000149924
-5.03387e-05
-9.31781e-07
0.000149927
-5.03662e-05
-1.86099e-06
0.000149079
-5.02744e-05
-2.19844e-06
0.000147373
-5.01114e-05
-1.64634e-06
0.000145074
-4.98965e-05
0.00014187
-4.9205e-05
4.34835e-06
-6.96686e-05
0.000207239
4.98572e-06
-7.09779e-05
0.000215195
4.07646e-06
-7.15245e-05
0.000219595
2.30182e-06
-7.19405e-05
0.000222576
2.43492e-07
-7.21814e-05
0.000223958
-1.81496e-06
-7.22076e-05
0.000223984
-3.5975e-06
-7.20204e-05
0.000222676
-4.55388e-06
-7.16624e-05
0.00021979
-4.0515e-06
-7.11765e-05
0.000215551
-6.99385e-05
0.00020762
8.0453e-07
2.47013e-05
-4.93509e-05
8.10805e-07
2.49653e-05
-5.22683e-05
9.33729e-07
2.54477e-05
-5.22827e-05
6.62667e-07
2.54551e-05
-5.26564e-05
3.0283e-07
2.55067e-05
-5.28137e-05
-3.95551e-08
2.54769e-05
-5.28812e-05
-2.84872e-07
2.5356e-05
-5.28687e-05
-3.91464e-07
2.51702e-05
-5.28017e-05
-3.24378e-07
2.49307e-05
-5.27161e-05
2.44052e-05
-5.23814e-05
6.21802e-07
5.13142e-05
-5.72793e-05
8.55117e-07
5.20232e-05
-5.80696e-05
9.656e-07
5.26947e-05
-5.81652e-05
6.79238e-07
5.30601e-05
-5.84138e-05
2.6687e-07
5.32648e-05
-5.85628e-05
-1.484e-07
5.32399e-05
-5.86163e-05
-4.51406e-07
5.29784e-05
-5.85766e-05
-5.51747e-07
5.25254e-05
-5.84729e-05
-3.98123e-07
5.19641e-05
-5.8338e-05
5.11159e-05
-5.78406e-05
1.11468e-06
8.23963e-05
-6.87694e-05
1.40448e-06
8.37147e-05
-6.95919e-05
1.32302e-06
8.48541e-05
-6.98873e-05
8.61567e-07
8.56964e-05
-7.01832e-05
2.33859e-07
8.61361e-05
-7.03683e-05
-3.98528e-07
8.61244e-05
-7.04127e-05
-8.80443e-07
8.56586e-05
-7.03168e-05
-1.05623e-06
8.47854e-05
-7.01197e-05
-8.01075e-07
8.36686e-05
-6.98757e-05
8.21704e-05
-6.92556e-05
2.00398e-06
0.000119665
-8.81755e-05
2.454e-06
0.000122736
-8.92422e-05
2.1237e-06
0.000124917
-8.97817e-05
1.28067e-06
0.000126501
-9.02477e-05
2.16939e-07
0.000127292
-9.0525e-05
-8.5064e-07
0.000127297
-9.05662e-05
-1.71955e-06
0.000126525
-9.03686e-05
-2.11236e-06
0.000124964
-8.99881e-05
-1.7509e-06
0.000122834
-8.95173e-05
0.000119691
-8.85499e-05
4.17456e-06
-0.000119052
0.000164714
4.61223e-06
-0.000120919
0.00017208
3.7063e-06
-0.000121986
0.000176117
2.08159e-06
-0.000122841
0.000178855
2.22292e-07
-0.000123316
0.000180112
-1.64032e-06
-0.000123361
0.000180136
-3.27852e-06
-0.000122975
0.000178946
-4.23587e-06
-0.000122213
0.000176296
-3.94053e-06
-0.000121236
0.000172429
-0.000119437
0.000165131
1.08029e-06
1.9809e-05
-7.02637e-05
8.73152e-07
1.96049e-05
-7.1693e-05
7.39005e-07
1.97565e-05
-7.19347e-05
4.9425e-07
1.98038e-05
-7.22483e-05
2.22843e-07
1.98475e-05
-7.2424e-05
-3.61333e-08
1.9829e-05
-7.24869e-05
-2.29678e-07
1.9737e-05
-7.24471e-05
-3.23844e-07
1.95921e-05
-7.23317e-05
-2.8903e-07
1.94026e-05
-7.21812e-05
1.89539e-05
-7.16385e-05
7.27128e-07
3.97544e-05
-7.79716e-05
7.95686e-07
4.02178e-05
-7.87727e-05
7.66841e-07
4.0635e-05
-7.90396e-05
5.29321e-07
4.093e-05
-7.93299e-05
2.07566e-07
4.10909e-05
-7.95134e-05
-1.15433e-07
4.10737e-05
-7.95684e-05
-3.5781e-07
4.08711e-05
-7.94972e-05
-4.50004e-07
4.0518e-05
-7.93323e-05
-3.51168e-07
4.00769e-05
-7.91318e-05
3.93561e-05
-7.86054e-05
9.20415e-07
6.23509e-05
-9.23096e-05
1.14002e-06
6.3468e-05
-9.30876e-05
1.04083e-06
6.43262e-05
-9.35076e-05
6.76203e-07
6.49771e-05
-9.38959e-05
1.86447e-07
6.53165e-05
-9.41358e-05
-3.0736e-07
6.53077e-05
-9.41851e-05
-6.91736e-07
6.49494e-05
-9.4042e-05
-8.46077e-07
6.42762e-05
-9.3752e-05
-6.70288e-07
6.34075e-05
-9.34083e-05
6.21727e-05
-9.27639e-05
1.60234e-06
8.77782e-05
-0.000115262
1.93872e-06
9.02251e-05
-0.000116392
1.66274e-06
9.18823e-05
-0.000117121
1.0025e-06
9.30756e-05
-0.000117747
1.74462e-07
9.36701e-05
-0.000118112
-6.58547e-07
9.3672e-05
-0.000118161
-1.34004e-06
9.30892e-05
-0.000117889
-1.67019e-06
9.19129e-05
-0.000117357
-1.41926e-06
9.0285e-05
-0.000116708
8.78022e-05
-0.000115648
3.26679e-06
-0.000149014
0.000114371
3.56214e-06
-0.000151117
0.000120018
2.84566e-06
-0.000152491
0.000122994
1.59963e-06
-0.000153587
0.000124953
1.76432e-07
-0.00015419
0.00012585
-1.24892e-06
-0.000154243
0.000125864
-2.51228e-06
-0.00015375
0.000125007
-3.27233e-06
-0.000152761
0.000123108
-3.09985e-06
-0.000151489
0.000120248
-0.000149441
0.000114623
5.06283e-07
1.24069e-05
-8.32006e-05
4.81428e-07
1.24882e-05
-8.41821e-05
4.42018e-07
1.25657e-05
-8.44887e-05
3.1478e-07
1.26158e-05
-8.47666e-05
1.55252e-07
1.26458e-05
-8.4941e-05
-2.90926e-09
1.26347e-05
-8.49951e-05
-1.23903e-07
1.25764e-05
-8.49338e-05
-1.88988e-07
1.24868e-05
-8.47824e-05
-1.76598e-07
1.2373e-05
-8.45924e-05
1.2117e-05
-8.39463e-05
4.12252e-07
2.52145e-05
-9.12107e-05
5.01258e-07
2.55452e-05
-9.19395e-05
4.83198e-07
2.57865e-05
-9.22649e-05
3.43767e-07
2.59742e-05
-9.25732e-05
1.48473e-07
2.60737e-05
-9.27713e-05
-5.0268e-08
2.60613e-05
-9.28226e-05
-2.03326e-07
2.59334e-05
-9.27263e-05
-2.62454e-07
2.57123e-05
-9.25216e-05
-1.94289e-07
2.54382e-05
-9.22842e-05
2.50114e-05
-9.17051e-05
5.34695e-07
3.91128e-05
-0.000106762
7.10465e-07
3.97844e-05
-0.000107522
6.57455e-07
4.03045e-05
-0.000107993
4.36067e-07
4.07052e-05
-0.000108428
1.34439e-07
4.09131e-05
-0.000108697
-1.71968e-07
4.09042e-05
-0.000108745
-4.11209e-07
4.06795e-05
-0.000108571
-5.03728e-07
4.02599e-05
-0.000108228
-3.83321e-07
3.97246e-05
-0.000107833
3.90013e-05
-0.000107153
9.50536e-07
5.37577e-05
-0.000130888
1.19913e-06
5.51416e-05
-0.000132031
1.04273e-06
5.6132e-05
-0.000132827
6.37248e-07
5.68488e-05
-0.00013352
1.23903e-07
5.72058e-05
-0.000133928
-3.95548e-07
5.7204e-05
-0.000133977
-8.16863e-07
5.68433e-05
-0.000133667
-1.01452e-06
5.61316e-05
-0.000133065
-8.35059e-07
5.51496e-05
-0.000132349
5.37446e-05
-0.000131255
1.91313e-06
-0.000164266
6.70384e-05
2.16743e-06
-0.000166289
7.00054e-05
1.75184e-06
-0.000167696
7.16955e-05
9.94797e-07
-0.000168842
7.28029e-05
1.21762e-07
-0.000169482
7.33129e-05
-7.53284e-07
-0.000169539
7.33141e-05
-1.52722e-06
-0.000169008
7.28183e-05
-1.97895e-06
-0.000167972
7.17339e-05
-1.81108e-06
-0.000166661
7.00953e-05
-0.000164678
6.71285e-05
1.92812e-07
4.71726e-06
-8.81344e-05
1.90384e-07
4.74636e-06
-8.89512e-05
1.77043e-07
4.75895e-06
-8.92605e-05
1.42769e-07
4.76833e-06
-8.95282e-05
1.00473e-07
4.77222e-06
-8.9699e-05
5.48789e-08
4.76434e-06
-8.97427e-05
1.24645e-08
4.74334e-06
-8.96629e-05
-1.9432e-08
4.71199e-06
-8.94893e-05
-3.61441e-08
4.67318e-06
-8.92736e-05
4.58801e-06
-8.85857e-05
1.54834e-07
9.63102e-06
-9.62998e-05
1.89218e-07
9.73716e-06
-9.6986e-05
1.856e-07
9.80685e-06
-9.73316e-05
1.48545e-07
9.86095e-06
-9.76522e-05
9.60738e-08
9.88633e-06
-9.7857e-05
3.82787e-08
9.87554e-06
-9.79005e-05
-9.99476e-09
9.82683e-06
-9.77853e-05
-3.92537e-08
9.7482e-06
-9.75509e-05
-3.88765e-08
9.65086e-06
-9.72823e-05
9.50319e-06
-9.6672e-05
1.84951e-07
1.4961e-05
-0.000112293
2.48523e-07
1.51935e-05
-0.00011306
2.3565e-07
1.5376e-05
-0.000113568
1.71613e-07
1.55125e-05
-0.000114035
8.46537e-08
1.5579e-05
-0.000114322
-7.46509e-09
1.55684e-05
-0.000114366
-8.47918e-08
1.54807e-05
-0.000114167
-1.22936e-07
1.53236e-05
-0.000113783
-9.91373e-08
1.51207e-05
-0.000113344
1.48638e-05
-0.000112625
3.30933e-07
2.04835e-05
-0.000136759
4.20539e-07
2.09898e-05
-0.000137934
3.67288e-07
2.13695e-05
-0.000138785
2.35722e-07
2.16352e-05
-0.000139529
7.32813e-08
2.17617e-05
-0.000139966
-9.37849e-08
2.17529e-05
-0.000140014
-2.39274e-07
2.16119e-05
-0.000139671
-3.15158e-07
2.1332e-05
-0.000139015
-2.69071e-07
2.09445e-05
-0.000138236
2.04255e-05
-0.000137099
6.93999e-07
-0.000169598
2.51084e-05
7.8928e-07
-0.000171591
2.61777e-05
6.29936e-07
-0.000173031
2.68457e-05
3.62142e-07
-0.00017422
2.7264e-05
6.42222e-08
-0.000174888
2.74476e-05
-2.37021e-07
-0.000174942
2.74407e-05
-5.1309e-07
-0.000174384
2.72451e-05
-6.94828e-07
-0.000173298
2.68237e-05
-6.44757e-07
-0.000171948
2.61624e-05
-0.000169991
2.5085e-05
-5.24824e-08
-3.1562e-06
-8.49491e-05
-8.40885e-08
-3.25776e-06
-8.56859e-05
-7.04675e-08
-3.31723e-06
-8.59816e-05
-1.83446e-08
-3.36647e-06
-8.62391e-05
5.73421e-08
-3.39779e-06
-8.64024e-05
1.32686e-07
-3.40481e-06
-8.64389e-05
1.80252e-07
-3.38818e-06
-8.63474e-05
1.8079e-07
-3.35407e-06
-8.61604e-05
1.23408e-07
-3.31189e-06
-8.59279e-05
-3.23029e-06
-8.52479e-05
-8.06396e-08
-6.36119e-06
-9.30357e-05
-1.30865e-07
-6.51311e-06
-9.37025e-05
-1.14887e-07
-6.62783e-06
-9.40592e-05
-4.53163e-08
-6.72509e-06
-9.43861e-05
5.28154e-08
-6.78487e-06
-9.45911e-05
1.50022e-07
-6.79698e-06
-9.46287e-05
2.12731e-07
-6.7611e-06
-9.44977e-05
2.13503e-07
-6.68708e-06
-9.42405e-05
1.36611e-07
-6.59635e-06
-9.3942e-05
-6.46393e-06
-9.33162e-05
-1.63099e-07
-9.44216e-06
-0.000109066
-2.37667e-07
-9.64405e-06
-0.000109871
-2.11653e-07
-9.80905e-06
-0.00011043
-1.0502e-07
-9.95223e-06
-0.000110932
4.05824e-08
-1.00364e-05
-0.000111234
1.83978e-07
-1.0051e-05
-0.000111273
2.82582e-07
-9.99499e-06
-0.000111049
2.95941e-07
-9.88027e-06
-0.000110619
1.99415e-07
-9.74028e-06
-0.000110119
-9.55387e-06
-0.000109345
-2.96597e-07
-1.21011e-05
-0.00013381
-3.99774e-07
-1.23666e-05
-0.000135115
-3.50493e-07
-1.25644e-05
-0.000136085
-1.8981e-07
-1.2738e-05
-0.00013691
2.55042e-08
-1.28393e-05
-0.000137384
2.38103e-07
-1.28547e-05
-0.000137428
3.92755e-07
-1.27835e-05
-0.000137042
4.30933e-07
-1.26388e-05
-0.000136299
3.14933e-07
-1.24672e-05
-0.000135398
-1.22135e-05
-0.000134124
-4.71368e-07
-0.000167302
-1.39152e-05
-5.98139e-07
-0.000169591
-1.42264e-05
-5.23063e-07
-0.000171255
-1.44011e-05
-2.92135e-07
-0.000172594
-1.45799e-05
9.78897e-09
-0.000173328
-1.46852e-05
3.09264e-07
-0.00017338
-1.47012e-05
5.35014e-07
-0.000172751
-1.46257e-05
6.03804e-07
-0.000171514
-1.44758e-05
4.73003e-07
-0.000169942
-1.43255e-05
-0.000167689
-1.40256e-05
-2.70039e-07
-1.09994e-05
-7.37013e-05
-3.60073e-07
-1.12796e-05
-7.43382e-05
-3.19954e-07
-1.1433e-05
-7.46106e-05
-1.79264e-07
-1.15565e-05
-7.48452e-05
2.15563e-08
-1.16307e-05
-7.49942e-05
2.21538e-07
-1.16381e-05
-7.50222e-05
3.61468e-07
-1.15795e-05
-7.49288e-05
3.95013e-07
-1.14703e-05
-7.47443e-05
2.95604e-07
-1.1333e-05
-7.45165e-05
-1.10612e-05
-7.39065e-05
-3.23822e-07
-2.24277e-05
-8.13033e-05
-4.72652e-07
-2.2897e-05
-8.19565e-05
-4.31978e-07
-2.32349e-05
-8.23178e-05
-2.45778e-07
-2.35123e-05
-8.26367e-05
1.57907e-08
-2.3671e-05
-8.28322e-05
2.77097e-07
-2.36854e-05
-8.28623e-05
4.61289e-07
-2.35551e-05
-8.27253e-05
4.96947e-07
-2.33054e-05
-8.246e-05
3.4034e-07
-2.29945e-05
-8.21436e-05
-2.25375e-05
-8.15128e-05
-5.62137e-07
-3.41775e-05
-9.67672e-05
-7.81548e-07
-3.49126e-05
-9.76496e-05
-6.98402e-07
-3.54949e-05
-9.82656e-05
-4.00401e-07
-3.59637e-05
-9.87917e-05
1.39468e-09
-3.62212e-05
-9.90972e-05
4.02133e-07
-3.62408e-05
-9.91302e-05
6.98591e-07
-3.60225e-05
-9.88896e-05
7.80288e-07
-3.55931e-05
-9.84243e-05
5.62298e-07
-3.50479e-05
-9.78587e-05
-3.43279e-05
-9.69985e-05
-1.04832e-06
-4.53892e-05
-0.000121543
-1.34302e-06
-4.6606e-05
-0.00012312
-1.15533e-06
-4.74904e-05
-0.000124268
-6.55329e-07
-4.8174e-05
-0.000125191
-1.85213e-08
-4.85334e-05
-0.000125699
6.16191e-07
-4.85564e-05
-0.000125737
1.11457e-06
-4.82442e-05
-0.000125308
1.30511e-06
-4.761e-05
-0.000124461
1.02781e-06
-4.67757e-05
-0.000123381
-4.55761e-05
-0.000121832
-1.88493e-06
-0.000156909
-5.38537e-05
-2.21731e-06
-0.000160013
-5.58106e-05
-1.83119e-06
-0.000162136
-5.69508e-05
-1.01785e-06
-0.000163729
-5.78071e-05
-4.23638e-08
-0.000164556
-5.82338e-05
9.2958e-07
-0.000164602
-5.82577e-05
1.73944e-06
-0.000163874
-5.78837e-05
2.13145e-06
-0.000162385
-5.70828e-05
1.83927e-06
-0.000160369
-5.6008e-05
-0.000157306
-5.40751e-05
-4.64459e-07
-1.84739e-05
-5.47804e-05
-6.12944e-07
-1.8994e-05
-5.52132e-05
-5.50435e-07
-1.92685e-05
-5.54216e-05
-3.23612e-07
-1.94834e-05
-5.56053e-05
-5.60023e-09
-1.96066e-05
-5.57217e-05
3.13131e-07
-1.96155e-05
-5.57406e-05
5.41908e-07
-1.95101e-05
-5.5662e-05
6.07351e-07
-1.93127e-05
-5.5512e-05
4.63206e-07
-1.90563e-05
-5.53327e-05
-1.85417e-05
-5.49141e-05
-5.96041e-07
-3.80615e-05
-6.11353e-05
-8.24263e-07
-3.89399e-05
-6.1798e-05
-7.46142e-07
-3.95606e-05
-6.21185e-05
-4.38565e-07
-4.00551e-05
-6.23873e-05
-1.3632e-08
-4.03282e-05
-6.25493e-05
4.11772e-07
-4.03458e-05
-6.25704e-05
7.21814e-07
-4.01082e-05
-6.245e-05
8.05933e-07
-3.96498e-05
-6.22197e-05
5.86563e-07
-3.90636e-05
-6.19317e-05
-3.81977e-05
-6.12811e-05
-1.06306e-06
-5.91486e-05
-7.46221e-05
-1.39401e-06
-6.06406e-05
-7.56226e-05
-1.2177e-06
-6.17744e-05
-7.6232e-05
-7.03287e-07
-6.26492e-05
-7.67159e-05
-3.12734e-08
-6.31122e-05
-7.69876e-05
6.4049e-07
-6.31376e-05
-7.70119e-05
1.15734e-06
-6.27274e-05
-7.67888e-05
1.34264e-06
-6.19088e-05
-7.63525e-05
1.03461e-06
-6.08313e-05
-7.57859e-05
-5.93594e-05
-7.47998e-05
-2.06284e-06
-8.08937e-05
-9.77103e-05
-2.48672e-06
-8.3636e-05
-9.96751e-05
-2.06945e-06
-8.55034e-05
-0.000100929
-1.16228e-06
-8.68644e-05
-0.000101855
-5.74248e-08
-8.75467e-05
-0.000102339
1.04483e-06
-8.75777e-05
-0.000102369
1.95199e-06
-8.69641e-05
-0.000101947
2.38141e-06
-8.56803e-05
-0.000101088
2.00564e-06
-8.39029e-05
-9.99025e-05
-8.11924e-05
-9.79623e-05
-3.97157e-06
-0.000134346
-9.94096e-05
-4.33358e-06
-0.00013881
-0.0001044
-3.41391e-06
-0.000141409
-0.00010707
-1.84952e-06
-0.000143168
-0.000108909
-9.07936e-08
-0.000144017
-0.000109762
1.66203e-06
-0.000144054
-0.000109795
3.21729e-06
-0.00014329
-0.000109021
4.14486e-06
-0.000141633
-0.000107276
3.87128e-06
-0.000139166
-0.000104747
-0.000134748
-9.98066e-05
-5.8445e-07
-2.4869e-05
-2.93402e-05
-8.02072e-07
-2.55441e-05
-2.94646e-05
-7.30687e-07
-2.59394e-05
-2.95655e-05
-4.37356e-07
-2.62472e-05
-2.96628e-05
-2.45462e-08
-2.6419e-05
-2.97257e-05
3.9037e-07
-2.64295e-05
-2.97352e-05
6.88669e-07
-2.62783e-05
-2.96906e-05
7.70022e-07
-2.59922e-05
-2.96105e-05
5.67147e-07
-2.56181e-05
-2.95238e-05
-2.49498e-05
-2.94078e-05
-7.85242e-07
-5.19777e-05
-3.32512e-05
-1.11288e-06
-5.32111e-05
-3.38126e-05
-1.00938e-06
-5.41468e-05
-3.4023e-05
-5.97751e-07
-5.48731e-05
-3.41811e-05
-3.38799e-08
-5.52632e-05
-3.42757e-05
5.31362e-07
-5.52841e-05
-3.42867e-05
9.4848e-07
-5.49371e-05
-3.42138e-05
1.06396e-06
-5.4257e-05
-3.4077e-05
7.57643e-07
-5.33672e-05
-3.3886e-05
-5.215e-05
-3.33292e-05
-1.51839e-06
-8.29696e-05
-4.21067e-05
-1.97261e-06
-8.53378e-05
-4.30367e-05
-1.69985e-06
-8.71584e-05
-4.34861e-05
-9.75954e-07
-8.85042e-05
-4.38016e-05
-5.49736e-08
-8.9191e-05
-4.3972e-05
8.65662e-07
-8.92216e-05
-4.3985e-05
1.59338e-06
-8.86027e-05
-4.38416e-05
1.8815e-06
-8.73329e-05
-4.35544e-05
1.46724e-06
-8.55966e-05
-4.31348e-05
-8.32601e-05
-4.22122e-05
-3.19845e-06
-0.000118477
-5.8959e-05
-3.72039e-06
-0.000123507
-6.09366e-05
-3.00606e-06
-0.00012679
-6.19635e-05
-1.65653e-06
-0.000129034
-6.26249e-05
-8.80496e-08
-0.000130099
-6.2947e-05
1.47683e-06
-0.000130139
-6.29637e-05
2.8228e-06
-0.000129164
-6.26777e-05
3.55102e-06
-0.000127035
-6.20607e-05
3.10469e-06
-0.000123908
-6.10925e-05
-0.000118933
-5.91314e-05
-6.84216e-06
-9.05822e-05
-0.000155288
-6.96573e-06
-9.56533e-05
-0.000166435
-5.2191e-06
-9.80225e-05
-0.000171811
-2.72918e-06
-9.93914e-05
-0.000175189
-1.29699e-07
-9.99871e-05
-0.000176614
2.45617e-06
-0.000100008
-0.000176655
4.91854e-06
-9.94642e-05
-0.00017534
6.65247e-06
-9.81731e-05
-0.000172113
6.67617e-06
-9.59394e-05
-0.00016704
-9.09136e-05
-0.000155995
-5.68123e-07
-2.8779e-05
-8.66469e-07
-2.91727e-05
-8.15455e-07
-2.96225e-05
-4.94365e-07
-2.99891e-05
-3.32997e-08
-3.01913e-05
4.30226e-07
-3.02023e-05
7.57999e-07
-3.00222e-05
8.2173e-07
-2.9679e-05
5.42461e-07
-2.92522e-05
-2.88694e-05
-8.17317e-07
-6.12157e-05
-1.24833e-06
-6.25567e-05
-1.15418e-06
-6.37411e-05
-6.86021e-07
-6.46395e-05
-4.3243e-08
-6.511e-05
6.01131e-07
-6.51327e-05
1.0752e-06
-6.47101e-05
1.18346e-06
-6.38647e-05
7.79282e-07
-6.27369e-05
-6.14186e-05
-1.78557e-06
-0.000101524
-2.34524e-06
-0.00010502
-2.0122e-06
-0.000107546
-1.14602e-06
-0.000109293
-6.64514e-08
-0.000110146
1.01147e-06
-0.000110179
1.88029e-06
-0.000109404
2.22913e-06
-0.000107752
1.71806e-06
-0.000105346
-0.000101895
-4.25299e-06
-0.000156182
-4.73155e-06
-0.000165432
-3.7041e-06
-0.000170491
-1.99355e-06
-0.000173579
-1.0262e-07
-0.000174933
1.78008e-06
-0.000174976
3.47751e-06
-0.000173727
4.50786e-06
-0.000170794
4.12915e-06
-0.000166006
-0.000156854
-1.048e-05
-0.000236209
-9.63003e-06
-0.000261849
-6.7566e-06
-0.000271298
-3.37444e-06
-0.000276265
-1.50307e-07
-0.000278055
3.05108e-06
-0.000278093
6.37207e-06
-0.000276423
9.17505e-06
-0.000271683
1.02411e-05
-0.00026291
-0.000237473
-2.74607e-05
-0.000362655
0.000154077
-1.98927e-05
-0.000438804
0.000169532
-1.18831e-05
-0.000454564
0.000175406
-5.36837e-06
-0.000461051
0.00017842
-1.97195e-07
-0.000462599
0.000179525
4.90932e-06
-0.000462603
0.000179552
1.12527e-05
-0.000461149
0.000178523
1.89753e-05
-0.000454907
0.000175663
2.69629e-05
-0.000440947
0.000170187
-0.000365258
0.000154859
-6.04572e-05
-0.000559583
0.000257362
-4.1562e-05
-0.000746034
0.000288431
-2.14051e-05
-0.000772132
0.000297506
-8.89242e-06
-0.000775086
0.000301577
-2.72322e-07
-0.000773842
0.000302676
8.22506e-06
-0.000773735
0.000302684
2.03174e-05
-0.000774818
0.000301635
3.97888e-05
-0.00077206
0.000297726
5.94402e-05
-0.000749947
0.000289475
-0.000564441
0.000258592
-0.000173556
-0.000815759
0.000429734
-7.95846e-05
-0.00138893
0.000548782
-1.98713e-05
-0.00140238
0.000570346
-4.5662e-06
-0.00136911
0.000578556
-3.05198e-08
-0.00135812
0.000579551
4.32784e-06
-0.0013578
0.000579508
1.85542e-05
-0.00136775
0.000578532
7.61103e-05
-0.00140043
0.000570719
0.000171344
-0.00139703
0.000551587
-0.000826564
0.00043338
-0.000262657
-0.00142143
0.000867882
-0.000113417
-0.00240489
0.000866299
-3.61712e-05
-0.00240662
0.000926616
-1.04964e-05
-0.00234232
0.0009471
-1.71004e-07
-0.00232043
0.000951567
9.91359e-06
-0.00231983
0.00095155
3.42982e-05
-0.00233982
0.000947283
0.000108914
-0.00240302
0.000927506
0.000258718
-0.00241533
0.000868203
-0.00143916
0.00087103
0.000310214
-0.00173193
0.000157748
-0.0022527
5.41624e-05
-0.00230336
1.68248e-05
-0.00230529
2.29219e-07
-0.00230413
-1.59611e-05
-0.00230396
-5.13724e-05
-0.00230473
-0.000151448
-0.00230319
-0.000305853
-0.0022612
-0.00174513
-1.42972e-05
-0.000175921
0.000189097
-1.2118e-05
-0.000199004
0.000200054
-8.28624e-06
-0.000205326
0.000205215
-4.05192e-06
-0.000209308
0.000208424
-1.70657e-07
-0.000210676
0.000209826
3.67601e-06
-0.000210707
0.000209871
7.84456e-06
-0.000209449
0.000208584
1.15743e-05
-0.000205594
0.000205531
1.40171e-05
-0.000199822
0.000200666
-0.000176857
0.000189796
-3.30003e-05
-0.000169622
0.00028416
-2.69056e-05
-0.000226434
0.000309821
-1.7015e-05
-0.00023847
0.00032082
-7.83011e-06
-0.000244092
0.000327227
-2.84678e-07
-0.000245229
0.000329719
7.18872e-06
-0.000245244
0.000329783
1.61739e-05
-0.000244217
0.000327456
2.58479e-05
-0.000238777
0.000321321
3.23682e-05
-0.000227787
0.000310932
-0.000171368
0.00028549
-3.19792e-05
-4.61023e-06
0.000296517
-1.72526e-05
-5.06044e-05
0.00035814
-5.93545e-06
-4.62194e-05
0.000366676
-1.92159e-06
-3.99421e-05
0.000370246
-6.87609e-08
-3.84133e-05
0.000370738
1.72812e-06
-3.83991e-05
0.000370725
5.47574e-06
-3.98271e-05
0.000370291
1.6453e-05
-4.60625e-05
0.000366864
3.15581e-05
-5.1027e-05
0.000359653
-4.79487e-06
0.000298227
-0.000174157
0.000332564
0.000704605
-0.000113026
-5.0868e-05
0.000805119
-5.16342e-05
-3.39827e-05
0.000852618
-1.95091e-05
1.24868e-06
0.000873441
-5.68261e-07
1.43735e-05
0.000879505
1.80603e-05
1.46158e-05
0.000879574
4.91309e-05
2.19816e-06
0.000873835
0.000110051
-3.35219e-05
0.000853766
0.000171618
-5.28104e-05
0.000808063
0.000328531
0.000709115
0.000196277
-0.0015959
0.000105945
-0.0022135
3.8479e-05
-0.00227013
1.1993e-05
-0.0022778
2.13656e-07
-0.00227822
-1.12523e-05
-0.00227813
-3.64393e-05
-0.00227759
-0.000102442
-0.00227096
-0.000194021
-0.00222264
-0.0016107
-6.97866e-06
-0.000105175
0.00020191
-6.59457e-06
-0.000112677
0.000208026
-4.91851e-06
-0.000114932
0.000211481
-2.56111e-06
-0.000116678
0.000213911
-1.20242e-07
-0.000117398
0.0002151
2.30459e-06
-0.000117427
0.000215152
4.64114e-06
-0.000116782
0.000214084
6.29364e-06
-0.00011511
0.000211789
6.82427e-06
-0.00011304
0.000208513
-0.0001056
0.000202457
-1.64291e-05
-8.29814e-05
0.000278405
-1.49505e-05
-9.57822e-05
0.000291489
-1.04778e-05
-9.76158e-05
0.000299065
-5.16317e-06
-9.88806e-05
0.000304137
-2.16761e-07
-9.90763e-05
0.000306466
4.69327e-06
-9.90924e-05
0.000306552
9.92384e-06
-9.89594e-05
0.000304421
1.43248e-05
-9.77559e-05
0.000299598
1.60672e-05
-9.62032e-05
0.000292385
-8.35247e-05
0.000279464
-7.19757e-06
-1.54572e-05
0.000236124
-3.18509e-06
5.61654e-06
0.000252637
-1.23516e-06
1.22797e-05
0.000254724
-5.24086e-07
1.45338e-05
0.000256009
-4.67535e-08
1.48145e-05
0.000256255
4.20997e-07
1.47924e-05
0.000256261
1.08395e-06
1.45011e-05
0.000256069
2.95724e-06
1.23214e-05
0.000254828
7.0575e-06
6.09763e-06
0.000253123
-1.49072e-05
0.000236584
-5.74125e-05
0.000280662
0.000465674
-4.22469e-05
0.000306738
0.000488576
-2.38471e-05
0.000337037
0.000509196
-1.043e-05
0.000352482
0.000521826
-4.42203e-07
0.000357615
0.000526469
9.41009e-06
0.000357667
0.000526604
2.24652e-05
0.000352706
0.000522335
4.07594e-05
0.000337344
0.000510187
5.62474e-05
0.00030806
0.000490384
0.000282337
0.000467977
7.69537e-05
-0.00139237
3.93764e-05
-0.00186937
1.46325e-05
-0.00190852
4.43743e-06
-0.0019153
1.06524e-07
-0.00191645
-4.08834e-06
-0.00191644
-1.3788e-05
-0.00191536
-3.80805e-05
-0.00190949
-7.61635e-05
-0.00187665
-0.00140458
-2.95029e-06
-5.62083e-05
0.000207243
-3.09418e-06
-5.87287e-05
0.000211127
-2.47921e-06
-5.96252e-05
0.000213579
-1.35228e-06
-6.04481e-05
0.000215464
-6.41271e-08
-6.08385e-05
0.000216456
1.21726e-06
-6.08628e-05
0.000216512
2.34056e-06
-6.05254e-05
0.000215642
2.95565e-06
-5.97521e-05
0.000213879
2.8768e-06
-5.89282e-05
0.000211556
-5.64437e-05
0.000207719
-7.30482e-06
-3.99254e-05
0.000269442
-7.26957e-06
-4.5239e-05
0.000277969
-5.40536e-06
-4.61434e-05
0.000283726
-2.78762e-06
-4.67572e-05
0.000287832
-1.26431e-07
-4.68993e-05
0.000289866
2.5208e-06
-4.69161e-05
0.000289959
5.10565e-06
-4.68219e-05
0.000288131
6.95663e-06
-4.62522e-05
0.000284257
7.12519e-06
-4.54748e-05
0.000278762
-4.02176e-05
0.000270353
-9.43672e-07
-3.4869e-05
0.000231933
-3.46091e-07
-3.01082e-05
0.000236855
-2.82902e-07
-2.89278e-05
0.000237374
-2.55412e-07
-2.89138e-05
0.000238067
-3.22245e-08
-2.92437e-05
0.000238305
1.88038e-07
-2.92771e-05
0.000238324
2.26729e-07
-2.89942e-05
0.000238142
2.83742e-07
-2.90282e-05
0.000237473
9.00627e-07
-3.0112e-05
0.000237083
-3.49437e-05
0.000232148
-2.65487e-05
0.000100979
0.00035626
-1.93553e-05
9.96321e-05
0.000351495
-1.18803e-05
0.000109338
0.000363313
-5.51511e-06
0.000114601
0.000371808
-2.82853e-07
0.000116499
0.000375353
4.89399e-06
0.000116524
0.000375495
1.11179e-05
0.000114697
0.00037228
1.85374e-05
0.000109449
0.00036416
2.59815e-05
0.000100021
0.000352672
0.000101383
0.000357555
2.2356e-05
-0.00131385
1.15394e-05
-0.00175901
4.51801e-06
-0.00179225
1.31818e-06
-0.00179758
5.50372e-08
-0.00179876
-1.16028e-06
-0.00179878
-4.20025e-06
-0.00179771
-1.11255e-05
-0.00179319
-2.21335e-05
-0.00176568
-0.00132535
-5.72298e-07
-1.46962e-05
0.000208603
-6.88278e-07
-1.48562e-05
0.00021187
-6.27682e-07
-1.48378e-05
0.000213953
-3.63212e-07
-1.49778e-05
0.000215597
-5.71985e-09
-1.50746e-05
0.000216485
3.50658e-07
-1.50907e-05
0.000216545
6.12433e-07
-1.50267e-05
0.000215778
6.7186e-07
-1.49115e-05
0.000214256
5.60947e-07
-1.49477e-05
0.000212286
-1.48113e-05
0.000209059
-1.40535e-06
-1.38723e-05
0.000269991
-1.6215e-06
-1.4497e-05
0.00027782
-1.36661e-06
-1.45397e-05
0.000283161
-7.62194e-07
-1.47556e-05
0.000286991
-2.88794e-08
-1.48709e-05
0.000288916
6.97838e-07
-1.48921e-05
0.000289015
1.29972e-06
-1.4813e-05
0.000287303
1.55578e-06
-1.4639e-05
0.000283708
1.35627e-06
-1.46189e-05
0.000278629
-1.40389e-05
0.000270908
8.45113e-07
-1.80539e-05
0.000235256
6.78443e-07
-1.69493e-05
0.000239439
2.00449e-07
-1.69887e-05
0.000240272
-1.14088e-08
-1.75115e-05
0.000241006
-1.13586e-08
-1.79137e-05
0.000241312
-3.28166e-09
-1.79421e-05
0.000241338
-2.03326e-07
-1.76012e-05
0.000241094
-6.76283e-07
-1.71186e-05
0.000240407
-8.59157e-07
-1.70697e-05
0.000239673
-1.8261e-05
0.000235481
-4.56393e-06
5.82122e-06
0.00033689
-4.24597e-06
6.01723e-07
0.000333597
-3.47572e-06
1.32222e-06
0.000344213
-1.92641e-06
1.30378e-06
0.00035141
-1.33878e-07
1.2293e-06
0.000354393
1.63594e-06
1.22915e-06
0.000354528
3.17341e-06
1.26953e-06
0.000351843
4.00252e-06
1.21076e-06
0.000344975
4.30591e-06
5.06877e-07
0.000334772
5.57171e-06
0.000338011
2.48677e-06
-0.00131052
4.45713e-07
-0.00175637
-3.81634e-07
-0.00179011
-4.02913e-07
-0.00179623
1.97833e-08
-0.00179793
4.60292e-07
-0.00179797
4.57201e-07
-0.0017964
-3.88054e-07
-0.00179113
-2.41562e-06
-0.00176315
-0.00132218
1.33234e-06
2.76132e-05
0.00020471
1.33405e-06
2.99241e-05
0.000208078
9.71999e-07
3.10854e-05
0.000210027
5.11329e-07
3.17118e-05
0.00021156
5.47242e-08
3.19528e-05
0.000212387
-4.03413e-07
3.19445e-05
0.000212445
-8.65924e-07
3.16999e-05
0.000211738
-1.23985e-06
3.10776e-05
0.000210321
-1.28797e-06
2.99627e-05
0.000208489
2.76469e-05
0.000205162
4.02004e-06
1.05001e-05
0.000283053
3.58804e-06
1.49834e-05
0.000293148
2.37535e-06
1.60298e-05
0.00029939
1.1495e-06
1.62298e-05
0.000303655
7.13141e-08
1.61592e-05
0.000305737
-9.99874e-07
1.61429e-05
0.000305845
-2.21024e-06
1.61688e-05
0.00030399
-3.40643e-06
1.59532e-05
0.000299995
-3.94164e-06
1.49833e-05
0.000294095
1.04165e-05
0.000284151
2.88316e-06
7.01169e-06
0.000235838
1.76388e-06
1.37028e-05
0.00024185
8.14847e-07
1.46268e-05
0.000242659
2.89727e-07
1.42057e-05
0.000243535
1.76561e-08
1.37789e-05
0.00024396
-2.52882e-07
1.37475e-05
0.000243996
-7.596e-07
1.41138e-05
0.000243634
-1.69174e-06
1.45006e-05
0.00024281
-2.87019e-06
1.37194e-05
0.000242124
6.90908e-06
0.00023612
1.87637e-05
-7.84492e-05
0.000403655
1.0356e-05
-7.83255e-05
0.000434138
4.2021e-06
-8.42787e-05
0.000449305
1.37427e-06
-8.91444e-05
0.000457715
1.36277e-08
-9.1138e-05
0.00046077
-1.33928e-06
-9.11766e-05
0.000460878
-4.05619e-06
-8.93281e-05
0.000458157
-1.00265e-05
-8.46471e-05
0.000450164
-1.87507e-05
-7.88912e-05
0.000436188
-7.95298e-05
0.000405755
-1.3067e-05
-0.00137584
-9.36885e-06
-0.00183835
-5.15462e-06
-0.00187846
-2.22877e-06
-0.00188819
-2.27665e-08
-0.00189114
2.18531e-06
-0.00189118
5.03246e-06
-0.0018885
9.14739e-06
-0.00187977
1.30633e-05
-0.00184589
-0.0013886
3.31472e-06
7.86483e-05
0.00018968
3.27037e-06
8.50079e-05
0.000193007
2.48237e-06
8.78024e-05
0.000194597
1.33492e-06
8.94812e-05
0.00019591
1.13448e-07
9.0172e-05
0.000196626
-1.10545e-06
9.01786e-05
0.00019668
-2.26002e-06
8.95161e-05
0.000196066
-3.06534e-06
8.7893e-05
0.000194855
-3.21165e-06
8.52407e-05
0.000193373
7.89007e-05
0.000190081
1.13526e-05
4.79988e-05
0.000302261
9.83331e-06
6.46637e-05
0.000314947
6.60775e-06
6.81679e-05
0.000322199
3.23281e-06
6.92938e-05
0.000327107
1.80414e-07
6.94272e-05
0.000329435
-2.85404e-06
6.94083e-05
0.000329545
-6.17443e-06
6.92455e-05
0.000327466
-9.33484e-06
6.81272e-05
0.000322856
-1.11023e-05
6.50086e-05
0.000316017
4.82958e-05
0.000303603
5.68212e-06
5.45181e-05
0.000223711
3.34416e-06
7.84973e-05
0.000230443
1.70984e-06
8.26675e-05
0.000229768
7.40647e-07
8.33755e-05
0.000230482
5.64345e-08
8.32205e-05
0.000230869
-6.44292e-07
8.31747e-05
0.000230902
-1.59224e-06
8.33372e-05
0.000230594
-3.1911e-06
8.26727e-05
0.000229889
-5.61225e-06
7.89851e-05
0.000230618
5.49057e-05
0.00022396
6.52362e-05
-0.000197124
0.000590206
3.51616e-05
-0.000152318
0.000695157
1.47914e-05
-0.000164192
0.000716831
5.36827e-06
-0.000177345
0.000728062
1.51962e-07
-0.000182643
0.000732074
-4.9352e-06
-0.000182746
0.00073223
-1.39844e-05
-0.0001779
0.000728616
-3.37869e-05
-0.000165129
0.000718035
-6.46438e-05
-0.000152624
0.000698862
-0.000198684
0.000594825
-4.26862e-05
-0.00153013
-2.79496e-05
-0.00200519
-1.36591e-05
-0.00205677
-5.38389e-06
-0.00207359
-6.68618e-08
-0.00207884
5.13911e-06
-0.00207896
1.31329e-05
-0.00207416
2.70832e-05
-0.00205868
4.24016e-05
-0.00201369
-0.00154478
5.27531e-06