/*--------------------------------*- C++ -*----------------------------------*\
| =========                 |                                                 |
| \\      /  F ield         | OpenFOAM: The Open Source CFD Toolbox           |
|  \\    /   O peration     | Version:  2.3.1                                 |
|   \\  /    A nd           | Web:      www.OpenFOAM.org                      |
|    \\/     M anipulation  |                                                 |
\*---------------------------------------------------------------------------*/
FoamFile
{
    version     2.0;
    format      ascii;
    class       volScalarField;
    location    "0.52";
    object      epsilon;
}
// * * * * * * * * * * * * * * * * * * * * * * * * * * * * * * * * * * * * * //

dimensions      [0 2 -3 0 0 0 0];

internalField   nonuniform List<scalar> 
15166
(
1077.71
1003.57
1000.27
1064.01
1106.61
1135.62
1106.51
1023.41
922.621
805.909
688.757
589.614
1078.28
882.489
931.175
1001.46
1045.92
1069.29
1037.39
960.108
864.446
756.791
649.281
551.069
1090.35
787.874
864.768
940.372
987.187
1006.86
974.595
902.621
812.63
712.879
612.982
518.056
1106.22
716.773
805.521
883.61
931.687
948.708
917.309
850.338
766.066
673.243
579.471
486.936
1123.51
663.284
753.879
832.203
880.335
895.19
865.144
802.798
723.982
637.3
548.852
460.061
1142.26
622.165
708.606
785.734
833.085
846.135
817.604
759.494
685.778
604.532
520.757
435.238
1162.59
590.002
668.632
743.575
789.584
801.124
774.157
719.948
650.919
574.51
494.76
411.521
1184.13
564.625
633.214
705.229
749.506
759.773
734.346
683.712
618.977
546.91
470.845
390.701
1206.67
544.533
601.769
670.296
712.567
721.735
697.775
650.402
589.602
521.468
448.808
371.673
1229.9
528.613
573.775
638.402
678.491
686.688
664.105
619.714
562.499
497.952
428.529
354.789
1253.57
516.038
548.782
609.209
647.015
654.34
633.028
591.358
537.428
476.177
409.817
339.258
1277.58
506.162
526.4
582.424
617.898
624.426
604.281
565.091
514.17
455.979
392.664
325.963
1301.75
498.498
506.308
557.784
590.912
596.702
577.625
540.698
492.546
437.215
376.881
314.03
1325.96
492.652
488.226
535.07
565.865
570.965
552.856
518.001
472.391
419.723
362.087
301.404
1350.05
488.312
471.918
514.09
542.578
547.021
529.794
496.83
453.579
403.416
348.407
290.875
1374.01
485.226
457.177
494.672
520.893
524.711
508.284
477.059
435.976
388.16
335.67
280.982
1397.66
483.187
443.826
476.67
500.669
503.884
488.182
458.545
419.48
373.877
323.756
271.527
1421.05
482.025
431.715
459.955
481.78
484.407
469.359
441.195
404.003
360.476
312.585
262.654
1444.06
481.594
420.707
444.408
464.11
466.166
451.714
424.894
389.452
347.88
302.115
254.49
1466.57
481.781
410.69
429.928
447.559
449.057
435.138
409.565
375.75
336.029
292.273
246.784
1488.54
482.477
401.559
416.423
432.036
432.983
419.547
395.126
362.833
324.845
282.971
239.277
1510.02
483.609
393.224
403.812
417.458
417.865
404.865
381.507
350.634
314.28
274.154
232.1
1531.01
485.088
385.606
392.022
403.752
403.625
391.015
368.643
339.102
304.279
265.755
224.969
1551.26
486.875
378.636
380.988
390.852
390.195
377.937
356.477
328.185
294.802
257.764
218.295
1570.95
488.919
372.254
370.651
378.698
377.516
365.573
344.963
317.837
285.799
250.147
211.867
1589.93
491.149
366.401
360.958
367.235
365.535
353.873
334.049
308.017
277.245
242.894
205.87
1608.23
493.544
361.03
351.859
356.412
354.198
342.786
323.694
298.688
269.101
235.987
200.147
1625.89
496.066
356.095
343.311
346.186
343.462
332.268
313.86
289.815
261.348
229.406
194.81
1642.81
498.701
351.562
335.274
336.514
333.284
322.286
304.508
281.368
253.958
223.149
189.819
1659.09
501.445
347.391
327.711
327.36
323.628
312.799
295.613
273.32
246.911
217.167
184.883
1674.69
504.22
343.549
320.586
318.688
314.457
303.777
287.139
265.645
240.18
211.466
180.291
1689.42
507.06
340.008
313.872
310.467
305.742
295.187
279.064
258.319
233.75
206.006
175.783
1703.3
509.94
336.749
307.54
302.669
297.452
287.007
271.358
251.321
227.602
200.791
171.611
1716.73
512.818
333.742
301.564
295.266
289.564
279.208
264.003
244.633
221.721
195.799
167.513
1729.22
515.697
330.974
295.92
288.234
282.05
271.767
256.977
238.238
216.092
191.023
163.692
1740.9
518.584
328.42
290.589
281.55
274.888
264.662
250.259
232.117
210.698
186.44
159.895
1752.06
521.458
326.069
285.546
275.193
268.058
257.875
243.834
226.252
205.524
182.039
156.298
1762.31
524.313
323.903
280.775
269.144
261.539
251.386
237.681
220.63
200.562
177.825
152.973
1771.91
527.149
321.909
276.259
263.384
255.315
245.179
231.787
215.24
195.803
173.78
149.697
1780.84
529.954
320.071
271.983
257.896
249.368
239.239
226.141
210.069
191.234
169.913
146.694
1788.81
532.754
318.378
267.933
252.668
243.685
233.551
220.724
205.105
186.841
166.171
143.496
1796.14
535.658
316.83
264.097
247.685
238.25
228.102
215.529
200.336
182.617
162.544
140.274
1802.56
538.568
315.409
260.46
242.933
233.051
222.878
210.54
195.752
178.55
159.056
137.429
1808.38
541.542
314.141
257.017
238.399
228.074
217.869
205.751
191.346
174.636
155.689
134.573
1813.49
544.431
313.04
253.762
234.071
223.308
213.063
201.148
187.106
170.865
152.45
131.974
1817.79
547.142
312.081
250.693
229.939
218.741
208.448
196.724
183.025
167.231
149.317
129.273
1821.34
549.906
311.241
247.809
225.997
214.367
204.019
192.469
179.097
163.727
146.306
126.898
1824.33
552.494
310.513
245.081
222.235
210.177
199.763
188.374
175.31
160.348
143.396
124.45
1826.57
554.996
309.853
242.512
218.649
206.16
195.671
184.432
171.659
157.085
140.591
122.224
1828.08
557.424
309.311
240.089
215.228
202.31
191.738
180.634
168.137
153.934
137.873
119.916
1828.87
559.692
308.847
237.802
211.964
198.615
187.955
176.974
164.737
150.889
135.254
117.847
1829.05
562.007
308.461
235.652
208.853
195.074
184.317
173.448
161.457
147.948
132.725
115.833
1828.57
564.134
308.143
233.617
205.886
191.678
180.818
170.049
158.291
145.105
130.269
113.69
1827.36
566.214
307.889
231.708
203.057
188.419
177.45
166.772
155.234
142.358
127.897
111.767
1825.64
568.217
307.697
229.91
200.358
185.294
174.21
163.612
152.28
139.701
125.604
109.928
1823.36
570.141
307.562
228.218
197.785
182.297
171.092
160.564
149.427
137.132
123.396
108.232
1820.3
571.875
307.477
226.628
195.333
179.422
168.09
157.624
146.672
134.647
121.258
106.489
1816.72
573.664
307.447
225.143
192.996
176.665
165.203
154.789
144.009
132.246
119.195
104.883
1812.61
575.254
307.465
223.751
190.771
174.023
162.422
152.052
141.436
129.923
117.181
103.04
1807.72
576.785
307.505
222.438
188.649
171.488
159.747
149.413
138.95
127.674
115.229
101.422
1802.38
578.172
307.616
221.221
186.631
169.058
157.171
146.865
136.546
125.497
113.344
99.9508
1796.53
579.578
307.768
220.086
184.713
166.729
154.692
144.407
134.222
123.389
111.528
98.5681
1790.08
580.804
307.957
219.03
182.886
164.497
152.307
142.035
131.975
121.352
109.767
97.1333
1782.99
581.973
308.159
218.059
181.154
162.36
150.012
139.746
129.803
119.379
108.066
95.7877
1775.4
582.991
308.427
217.154
179.509
160.313
147.804
137.538
127.704
117.47
106.413
94.3892
1767.16
583.974
308.705
216.321
177.953
158.355
145.682
135.408
125.675
115.623
104.812
93.0915
1758.8
584.917
309.023
215.567
176.477
156.482
143.64
133.354
123.715
113.835
103.255
91.7512
1749.2
585.693
309.364
214.873
175.081
154.692
141.678
131.373
121.82
112.103
101.747
90.5387
1739.62
586.412
309.748
214.247
173.767
152.983
139.793
129.463
119.99
110.427
100.286
89.3288
1729.69
587.019
310.163
213.688
172.525
151.35
137.983
127.622
118.22
108.805
98.8731
88.2095
1718.86
587.621
310.596
213.201
171.36
149.792
136.245
125.848
116.511
107.236
97.5019
87.049
1707.64
587.924
311.067
212.768
170.267
148.31
134.576
124.139
114.86
105.717
96.1729
85.9884
1695.89
588.38
311.533
212.381
169.241
146.899
132.979
122.493
113.265
104.248
94.8908
84.9567
1683.7
588.6
312.104
212.088
168.297
145.563
131.45
120.91
111.727
102.828
93.6474
83.9185
1670.99
588.727
312.627
211.832
167.407
144.292
129.983
119.387
110.242
101.454
92.4415
82.9366
1658.27
588.928
313.205
211.643
166.592
143.087
128.583
117.922
108.81
100.126
91.2713
81.9077
1644.64
588.895
313.791
211.507
165.845
141.951
127.245
116.517
107.43
98.8428
90.1354
80.9558
1630.24
588.659
314.39
211.432
165.159
140.881
125.969
115.166
106.101
97.6037
89.035
79.9938
1615.84
588.537
315.04
211.411
164.541
139.873
124.753
113.872
104.822
96.4068
87.9701
79.1057
1601.24
588.251
315.703
211.453
163.983
138.93
123.598
112.632
103.591
95.2528
86.9364
78.1758
1585.71
587.855
316.412
211.548
163.493
138.05
122.501
111.446
102.406
94.138
85.9371
77.335
1569.95
587.387
317.104
211.707
163.068
137.235
121.46
110.312
101.268
93.0618
84.972
76.5559
1553.76
586.793
317.812
211.912
162.702
136.476
120.48
109.231
100.178
92.027
84.0433
75.771
1537.11
586.119
318.565
212.171
162.402
135.782
119.557
108.203
99.1341
91.0333
83.1445
74.9547
1520.06
585.373
319.338
212.488
162.167
135.148
118.689
107.226
98.1345
90.0764
82.2778
74.22
1503
584.551
320.138
212.883
161.989
134.573
117.878
106.296
97.1799
89.1596
81.4417
73.4598
1485.14
583.579
320.952
213.323
161.877
134.064
117.123
105.42
96.2684
88.2782
80.6359
72.798
1466.93
582.507
321.78
213.809
161.839
133.615
116.426
104.594
95.4009
87.4368
79.8639
72.0973
1448.33
581.331
322.629
214.361
161.856
133.23
115.786
103.818
94.5786
86.6329
79.1213
71.426
1429.34
580.072
323.536
214.989
161.946
132.909
115.201
103.092
93.801
85.8663
78.4024
70.7041
1409.99
578.691
324.411
215.653
162.094
132.643
114.672
102.414
93.0644
85.1344
77.7203
70.1999
1390.27
577.192
325.303
216.395
162.319
132.447
114.2
101.788
92.375
84.446
77.0804
69.643
1370.59
575.7
326.254
217.197
162.61
132.315
113.786
101.215
91.7294
83.7926
76.4707
69.1469
1349.82
573.928
327.204
218.057
162.971
132.255
113.433
100.693
91.1288
83.1787
75.8942
68.6406
1329.44
572.18
328.166
218.977
163.409
132.252
113.141
100.225
90.5722
82.6032
75.3513
68.181
1308.39
570.237
329.124
219.954
163.908
132.325
112.909
99.8078
90.0631
82.0695
74.841
67.6908
1287.01
568.27
330.139
221.015
164.491
132.466
112.739
99.4467
89.6006
81.5734
74.3612
67.2787
1265.28
566.066
331.149
222.136
165.15
132.684
112.636
99.1385
89.1853
81.1177
73.9156
66.8527
1243.62
563.927
332.169
223.321
165.894
132.97
112.596
98.8883
88.8173
80.7034
73.5051
66.4895
1221.32
561.497
333.222
224.59
166.719
133.342
112.624
98.6989
88.5017
80.3325
73.129
66.0939
1198.71
559.005
334.27
225.92
167.622
133.786
112.723
98.5677
88.2347
80.0031
72.7852
65.7847
1175.81
556.376
335.316
227.337
168.622
134.316
112.894
98.4961
88.02
79.717
72.4834
65.5258
1152.62
553.579
336.402
228.82
169.707
134.931
113.143
98.493
87.8628
79.4814
72.2236
65.2529
1129.21
550.708
337.473
230.368
170.892
135.64
113.468
98.5554
87.7627
79.2933
72.0023
65.0117
1105.83
547.75
338.581
232.008
172.169
136.444
113.874
98.6884
87.7199
79.1527
71.8219
64.8567
1081.91
544.596
339.671
233.739
173.554
137.342
114.368
98.8924
87.7378
79.0669
71.6898
64.7036
1058.03
541.357
340.79
235.539
175.037
138.337
114.952
99.1745
87.8201
79.0308
71.5978
64.6274
1033.64
537.885
341.884
237.411
176.633
139.445
115.63
99.5387
87.9718
79.0551
71.5598
64.5844
1008.67
534.232
342.997
239.406
178.342
140.668
116.41
99.9859
88.1943
79.1399
71.5705
64.5549
984.045
530.587
344.141
241.457
180.176
142.007
117.297
100.522
88.4921
79.2854
71.6313
64.5827
958.984
526.728
345.263
243.637
182.145
143.476
118.294
101.158
88.8722
79.5
71.7492
64.6258
933.681
522.675
346.396
245.9
184.236
145.074
119.412
101.895
89.3372
79.7885
71.9325
64.7703
908.496
518.549
347.509
248.268
186.475
146.825
120.656
102.742
89.8969
80.158
72.1914
64.9667
882.888
514.199
348.628
250.726
188.862
148.72
122.041
103.702
90.5523
80.604
72.5023
65.1197
857.086
509.651
349.783
253.325
191.411
150.777
123.566
104.789
91.3089
81.1321
72.8793
65.3969
831.154
504.987
350.867
256.01
194.109
152.996
125.245
106.005
92.1751
81.7542
73.3415
65.7303
805.07
500.129
351.985
258.82
196.985
155.409
127.09
107.366
93.1636
82.4785
73.8823
66.1586
779.126
495.157
353.075
261.731
200.046
158.011
129.124
108.889
94.2905
83.3164
74.5249
66.6657
753.117
489.947
354.177
264.798
203.309
160.827
131.351
110.58
95.5611
84.2812
75.2792
67.3056
726.574
484.47
355.213
267.971
206.779
163.874
133.801
112.467
96.9905
85.3797
76.1502
68.0149
700.102
478.876
356.242
271.298
210.459
167.165
136.476
114.556
98.5938
86.6142
77.1164
68.7208
673.834
473.103
357.255
274.75
214.388
170.723
139.407
116.864
100.386
88.0077
78.219
69.6296
647.591
467.101
358.241
278.352
218.571
174.572
142.62
119.43
102.396
89.5885
79.4913
70.6729
620.924
460.862
359.189
282.134
223.02
178.737
146.151
122.27
104.641
91.3639
80.9099
71.8527
594.556
454.457
360.127
286.071
227.78
183.254
150.018
125.423
107.152
93.3593
82.5202
73.1637
568.3
447.827
361.046
290.206
232.861
188.158
154.271
128.919
109.961
95.6008
84.3261
74.6691
541.727
440.984
361.959
294.579
238.335
193.504
158.967
132.82
113.114
98.1333
86.3824
76.3844
515.459
433.96
362.913
299.207
244.236
199.352
164.154
137.172
116.658
100.998
88.7108
78.2919
489.178
426.775
363.945
304.185
250.649
205.779
169.919
142.04
120.643
104.227
91.3385
80.4334
463.051
419.464
365.162
309.606
257.677
212.898
176.34
147.497
125.133
107.866
94.2944
82.8773
436.876
412.161
366.724
315.667
265.5
220.83
183.545
153.643
130.204
111.986
97.6567
85.6469
410.789
405.16
369.036
322.699
274.371
229.78
191.672
160.59
135.934
116.643
101.444
88.786
384.55
399.267
372.83
331.243
284.616
239.953
200.852
168.432
142.418
121.899
105.7
92.2153
358.152
397.439
380.215
342.604
296.931
251.778
211.403
177.431
149.83
127.892
110.503
96.0417
328.026
400.026
389.103
355.318
309.501
263.693
222.069
186.825
157.603
134.296
115.666
100.325
204.09
0.00127441
6.61802
4.94909
4.91223
12.0028
11.44
81.0996
45.1621
26.4341
7.60942
0.00269745
0.0225733
574.738
12.1847
0.000851398
481.46
0.218388
0.207468
0.000828389
2.43326
5.66621
0.255382
0.0183578
209.859
6.5753
4.01591
16.2409
16.9314
48.3747
14.6186
364.47
0.0010859
7.42563
0.0211527
2.32598
87.3121
12.6943
29.7369
0.00290823
0.239161
0.00079419
0.119468
23.9638
23.6682
5.45038
0.0575885
0.0148368
23.921
2.39962
2.27283
77.6344
18.4153
0.000749082
215.552
0.00118115
0.0042838
0.000793153
12.7291
11.311
3.50663
378.965
0.000746608
0.00894763
0.714035
0.00121408
75.9531
17.9968
321.656
18.7703
185.488
0.0485449
28.3987
43.4693
0.0188444
0.00073923
41.217
0.000696188
0.0790882
11.2059
0.211315
0.000699392
75.3497
20.511
0.0084517
70.1916
75.0913
0.000739954
5.19629
25.7358
19.5224
26.1267
0.000741583
0.000984352
53.6122
0.000751864
15.2007
0.00909681
0.000728965
76.833
144.552
1.15136
0.000785221
0.00114027
0.000707795
68.0702
66.1535
101.276
19.2747
0.0283706
0.52711
0.000709766
8.28732
0.000913665
0.000734491
8.35018
0.0108554
1.92848
69.2578
0.64947
120.109
0.0204754
176.403
0.995433
0.320186
53.3382
0.00104706
1333.1
0.0233497
0.000742466
123.042
0.000758846
87.3219
0.00114265
4.1936
0.00146185
28.4055
13.21
8.70761
0.00176233
0.00877395
2.76327
14.1748
0.128701
31.2677
198.5
17.2477
0.00121804
61.6801
21.7512
0.585594
8.01246
0.000693017
0.266012
0.616624
0.000716845
12.5463
0.000727037
89.0532
0.00234153
0.0178414
0.000857528
0.32621
0.00608359
2.60501
0.191022
314.809
30.1559
18.452
0.000686871
205.69
47.3631
217.155
0.00947236
0.000680101
18.5033
0.00070594
20.4641
0.723532
34.7384
330.642
3.28981
0.0834719
26.3598
0.000796765
13.4497
0.000724076
0.000721553
30.1123
0.000736009
9.2162
0.000697708
199.401
0.00130534
16.1361
14.1846
10.8614
4.55653
0.000709812
409.911
63.8337
19.7507
54.8021
9.17195
20.1023
0.142265
0.181149
1.48678
39.2791
1.55955
139.738
52.6028
48.1482
34.2883
0.000722342
15.4565
0.00601998
11.2046
426.929
20.9693
20.2814
64.0585
24.5863
0.000718587
0.000731014
55.5865
70.2675
0.000758439
1485.42
0.0228425
167.473
0.297645
0.000704641
89.0474
10.2831
12.1994
11.7482
70.51
34.7493
20.4972
0.507682
0.393871
32.6457
95.4699
196.153
132.797
82.9035
0.000837445
44.9009
16.2076
17.2023
43.1357
5.54357
4010.25
21.7492
1.83427
4.0293
19.1563
14.5009
24.6065
1.5532
12.6805
0.00758017
0.175003
577.522
13.1494
58.4035
48.4785
8.02214
164.45
10.7473
0.0432536
174.618
87.6186
85.533
186.196
30.0785
105.965
29.1211
27.209
178.811
29.6737
26.8115
21.0094
25.2643
11.0088
12.5195
82.257
86.0516
1.95071
26.8108
170.935
99.5035
98.8974
16.1901
191.453
0.677898
85.1599
0.0705482
54.5237
6.57842
1.01918
336.801
214.361
0.56917
54.0422
32.9329
0.00073701
0.690768
0.522544
0.708847
40.7761
0.000720436
97.9509
20.0138
0.094137
93.3651
43.066
0.000721189
442.74
0.0292802
14.5206
10.7414
9248.28
50.2896
42.6506
18.475
0.000714317
0.000717289
39.9752
13.495
0.000683284
11.0573
0.000703651
0.000717377
0.000740059
0.000705937
0.231971
0.000725324
0.00175281
123.104
49.8668
0.000755471
19.1171
0.00381988
75.8045
147.327
90.5782
1101.64
15.0733
0.000659355
0.000744366
0.0952346
0.710619
96.1966
0.000682234
0.178226
24.5159
51.5257
5.43993
27.6966
25.1724
71.2779
1009
2.59282
4.97173
0.000883416
0.000735548
1.61039
4.12667
0.243011
28.1261
50.7696
5051.79
175.046
2.9446
22.8831
65.9991
0.000734759
8.93533
49.8448
0.0015142
0.000714542
51.8791
3771.29
81.0695
0.000685447
0.0499582
3.97399
0.0156118
0.000730479
53.1716
6.86742
17.5984
16.069
0.000919416
921.019
0.000714644
1.66851
18.8642
0.00204593
0.00469402
92.7745
0.00319563
45.4708
313.836
85.4411
26.1238
41.2514
98.9821
0.000714964
0.000689674
0.000729242
74.8568
0.084358
315.267
5355.21
4.53359
59.7345
0.000724194
0.0435133
14.4785
0.000689967
0.000725726
97.516
0.000679853
1.72352
55.1219
27.6804
0.000667645
0.00255828
0.259388
0.239537
10.9758
0.407641
0.000700725
809.917
54.17
0.813655
0.00544798
33.362
88.9549
0.00234471
15.3589
0.00225219
65.2073
0.000844042
12.722
1.03224
0.000705393
77.0766
11.1058
172.089
0.00351786
10.0366
2.70042
0.00146973
89.4754
51.1011
2.5184
210.767
0.0152329
0.0467378
0.00488279
117.015
31.6539
0.202606
2.45288
4.17137
171.025
0.830815
83.3529
1148.55
0.000673688
211.053
56.3876
10.4204
0.000697366
19.7025
94.4798
0.151545
84.5108
23.3657
2.42139
0.326851
30.0448
120.683
0.000863279
0.0103596
55.299
0.032812
0.00190358
240.855
1087.35
0.033152
22.7765
52.1751
0.631999
46.2218
26.982
52.1227
19.3115
24.4688
0.000738991
0.189254
44.9563
18.5927
116.658
21.7095
98.1413
175.883
991.238
75.0611
2.57867
0.000727144
216.709
91.0623
46.2599
10.3929
1.11736
0.14965
11.1619
0.000731113
17.0699
0.00073215
35.6876
10.6885
92.1672
29.369
78.0584
111.048
119.963
29.7017
221.011
0.00073452
0.340671
58.1085
1424.38
7.72917
23.9202
0.000875366
0.0194399
6.20089
118.195
18.2105
0.000699182
0.0653833
0.000708429
0.0541466
19.8446
0.0280712
66.1402
2.82841
72.082
0.446147
0.442329
298.247
658.773
0.000740135
0.000740699
5.4978
186.021
17.5795
13.2305
3.27179
30.9005
19.4983
0.000664853
0.752115
12.2348
0.0013433
77.4935
12.839
26.9351
17.418
0.00564469
0.000664678
0.0148133
0.000713661
26.9417
20.3169
122.755
22.9315
0.000731614
139.399
0.123256
118.658
1.79537
194.097
0.0306319
0.508144
0.000685116
38.9044
566.776
19.5394
4.60114
0.00065763
104.453
44.9303
50.564
0.000700558
0.620828
56.7723
26.8979
0.00187213
1071.12
0.000918097
59.1366
28.9796
0.000879834
2.05194
0.141206
1.09088
0.00070051
0.000741847
75.5108
36.4465
19.7845
54.0698
0.00135235
1.92138
0.220844
44.7534
8.30489
0.00100863
1.57325
403.337
0.000688999
0.00289097
26.2938
130.868
88.4949
0.000720254
696.07
23.8522
115.776
0.0201951
2.51917
144.832
0.000735714
101.368
2.47766
18.1083
7.84904
45.3278
7.97877
94.366
96.8922
15.9417
4967.34
0.000746673
0.000719185
142.834
47.3018
0.00130357
0.000723312
9.37617
0.000745337
51.9797
52.5757
1.13893
0.000701389
39.9166
0.404882
21.4494
66.6134
25.5947
0.267044
2.35775
118.998
0.000738987
2.36784
61.54
21.515
18.1869
0.00232542
10.7097
2.74479
2789.49
0.000711224
2.56626
35.7513
18.3448
0.000771081
0.166375
28.7974
55.7291
77.3508
0.0607322
205.03
31.8888
0.303985
31.5695
0.000712602
0.00246725
9.09735
0.000684434
26.5394
0.000726289
115.093
0.00454608
57.1764
0.000732333
0.924496
51.9261
127.025
7.58872
31.0903
0.388093
241.816
0.00778833
0.155582
18.4029
0.000697685
0.000745103
27.953
0.38322
94.8467
25.9057
0.000758638
90.8107
105.902
81.2719
7.20575
170.472
95.821
0.000740884
2399.23
4212.45
49.7597
0.000759723
0.00435904
273.542
54.2199
0.000704669
90.8912
0.000698266
0.1115
303.61
0.000851929
16.9049
0.00072004
0.0642345
121.431
0.000762143
0.00101787
0.000734967
0.000938572
0.0137169
1018.35
51.4735
0.309758
11.3894
0.000726474
49.2978
0.000729748
8.99182
1.82534
0.015796
4.44002
0.00628701
73.9572
0.000725039
10699
4.25274
30.2343
208.302
4.79188
0.000697114
26.0418
180.201
1.99011
49.711
58.3667
184.823
23.1179
0.0364566
28.6101
0.174943
0.00103709
0.292455
4116.74
155.088
1.03304
0.0292302
20.6411
0.000924335
9.409
52.2761
174.551
64.4408
60.5247
0.0301328
0.00176371
32.5421
24.3996
0.0490974
42.7598
0.000720327
120.914
218.996
0.000766954
176.414
48.8626
1.15434
0.152759
140.099
0.0155347
0.316814
13.4114
3.00464
2.84605
0.000752868
27.1369
0.111477
150.17
28.1054
79.8935
6.18385
0.00223544
39.2274
0.000730491
0.00072403
10.5808
0.149555
1.72226
211.998
0.000669082
72.7622
0.14871
0.0586081
0.000791268
166.404
8.12353
0.348388
40.6898
0.0585594
309.41
3.96195
0.000716372
236.616
270.722
0.00159331
0.00318284
77.6548
26.5962
0.418691
233.404
0.0277726
2.02103
0.246084
0.391659
32.0626
94.3403
0.000736748
96.2033
22.0606
0.00735528
1.29298
1498.09
15.9811
0.000731446
0.000683575
35.4583
23.5294
66.9792
0.000683099
34.3297
2.89324
32.2536
0.000926311
167.474
46.6541
0.0015637
16.4322
0.000740962
86.8748
32.1844
28.3423
40.2221
0.000716166
0.000718333
9.82904
110.406
5.68096
37.9997
0.000665312
0.0436206
0.000734268
0.00194282
39.7964
0.0887142
0.348114
0.917342
21.7518
152.295
24.7976
65.69
0.000728964
29.4236
37.8996
20.6598
0.000738997
44.1374
0.00073533
0.000726962
0.158978
20.7581
0.0161944
336.731
35.1092
328.389
0.000762579
0.00132088
0.0372677
110.275
4.60589
145.809
0.000725842
0.000715972
0.00196183
0.00296936
139.78
44.8613
83.1156
0.308861
0.0360342
3.86456
3.79036
57.2949
15.2978
61.282
18.9404
0.000690188
182.594
0.00155587
1.83362
62.1408
26.2516
1.31025
0.619612
0.000943326
106.328
7.47939
20.0298
28.5103
0.000722607
67.2855
43.0439
171.597
0.00440731
59.1373
47.6219
56.6704
191.119
22.0779
55.8493
0.277529
814.128
4.28475
0.188837
121.15
0.00072954
94.056
173.506
0.000703882
35.836
0.00130996
102.238
102.351
1.77343
18.8102
106.395
97.4849
13.3801
0.94348
50.2273
9.34898
0.00560361
0.000696507
24.6845
0.0862158
19.5043
58.1457
4.48945
53.9323
105.073
0.000717039
15.9812
461.702
243.562
10.398
99.7516
18.2211
208.583
97.3438
1.65235
0.0159495
0.221753
68.1235
84.0347
0.222209
53.8709
59.904
53.0034
11.0925
2.07418
10.6437
32.9947
0.000738547
238.752
88.8088
1.51879
0.000738418
26.8079
15.5619
17.1625
0.000720232
149.681
0.000728796
12.0522
0.180639
0.000733695
39.4136
81.5262
0.000701061
50.5269
27.9129
24.853
12.7043
40.4066
15.436
40.7538
52.8684
1.7175
0.000708692
0.00128167
33.6908
5.62504
0.126303
0.000738549
84.1892
0.0018536
0.97708
0.2508
10.8766
8.66918
0.0645109
0.523455
394.632
173.196
24.3356
1421.46
56.95
0.000706103
51.5607
18.0429
182.311
0.000709436
5.48312
0.000737103
0.000866617
17.4577
4.00088
0.0327371
0.000802665
56.9976
3020.66
0.00246938
0.00072892
1.63795
9.51191
0.0158731
0.0871923
3169.33
0.553668
0.000795799
0.000727665
66.8485
20.7727
0.306569
0.0668063
64.2424
193.17
29.5409
103.473
35.2974
0.000730546
16.6228
0.000723077
130.356
15.4915
2936.03
6.1545
0.146547
0.000951916
97.3638
0.000739878
0.000712133
0.00176185
13.7145
18.5056
61.6901
0.000719015
16.6921
0.000727255
529.713
61.7525
0.000744625
126.181
6.2758
0.000729066
0.000766877
0.0263548
139.726
5.64916
0.017391
0.000727498
0.000709722
134.682
91.5309
20.8813
34.589
0.474701
34.4933
0.000718457
0.00406399
6.88943
209.963
48.136
0.00325748
0.000731397
33.26
0.00072752
87.9404
140.605
7.23383
0.0382084
91.8396
16.6105
3.15464
0.000727966
7.44218
95.0727
85.2042
0.0021734
0.0221237
31.8252
3012.28
0.0536076
4.56456
0.000703037
0.000689904
0.000740629
0.0102673
31.9857
69.9655
0.0416568
99.6764
22.5763
419.995
8.16138
0.0109774
0.00276811
0.00617734
2.59044
48.0763
20.1532
0.000753059
96.3269
0.000716165
0.00631955
65.6595
49.7215
0.0266908
5.32486
9.82958
0.00104964
0.740427
2.52801
0.000722278
0.000931247
146.975
0.000888905
0.000753606
110.968
25.2426
3163.54
8.83011
1375.54
0.000851896
0.000700285
3520.51
17.3
1.17946
3.72187
0.0572928
18.5502
1.02499
986.633
47.0444
66.6516
143.513
104.545
1.05628
27.1935
99.3801
0.00693358
80.7338
0.00098091
37.033
6.32229
0.736027
7.88709
6.98903
3.50027
2.03932
39.2242
61.0183
45.0632
28.7069
50.2171
36.1629
6.28149
0.00109219
0.000724307
0.237003
252.401
0.000725512
80.0918
0.000705563
0.00379317
189.954
112.721
45.0505
74.9534
979.75
77.5674
19.0907
40.2785
0.000724389
16.7219
74.4988
0.000760093
198.6
0.00253946
719.432
250.265
294.799
14.1515
84.1486
4.5342
0.501116
16.045
94.4027
20.5336
12.2258
5.38858
77.2851
0.135776
124.336
335.516
0.00368013
34.5783
0.000739834
0.000988051
17.5247
133.355
168.945
14.6289
0.612739
0.218608
0.320306
0.000848466
22.8511
0.000847949
154.813
0.000803063
0.120897
258.611
5.55395
2.89869
192.116
157.852
0.00194699
0.000740096
0.194303
13.6202
0.166099
112.996
0.0371962
25.7622
5.13137
27.1021
56.1331
0.000867468
0.000719445
130.496
0.722767
5.57542
56.3086
29.2704
38.8199
0.00389011
164.652
56.1522
90.4927
0.000828366
1.28808
24.7618
79.1428
1.00395
14.0353
0.0007377
11.8613
0.000710645
221.85
0.0043622
34.7291
0.172587
10.146
0.000761946
1961.43
0.000739093
142.759
0.0160709
0.000727375
0.00678395
14.5695
0.000729276
0.000733365
10.3298
0.0268868
20.4679
0.0634402
0.000772374
22.4127
6.44899
39.6922
0.000782264
111.689
4.55497
351.89
37.5117
29.9432
57.4791
93.0148
4.63578
299.272
249.185
98.3264
0.000753326
2.42128
25.6175
18.2156
0.00128568
0.0163342
20.6324
482.279
0.000735472
1.66524
105.141
0.000675625
57.8785
66.8418
182.227
73.3764
52.5665
12.3107
0.341826
202.376
9.27884
73.8051
51.7828
52.4072
0.489105
0.000727258
34.1884
0.0018239
0.000750513
0.000711671
177.892
0.00072755
0.000913184
18.387
9466.46
2.85531
2.58868
52.7482
11.1669
0.000728512
42.3178
223.835
0.0161885
4.7396
55.8021
49.0295
0.282544
0.0208542
0.000717028
0.00072621
0.0173096
0.041695
25.2438
21.2205
88.1965
14.1338
13.9376
0.000995509
197.964
28.2681
0.00074783
23.1038
827.02
0.000734647
6.959
119.793
43.7481
91.7399
0.717523
143.975
0.000856754
0.925266
0.000773862
0.00198773
0.000746828
63.382
18.1498
0.096716
0.000739345
0.000686729
188.248
28.6445
2.73476
19.9815
6.24323
36.3334
18.427
24.4777
26.5611
0.000732269
0.48237
0.879189
0.353977
19.0568
77.2059
49.5794
84.0738
27.818
88.1019
161.594
95.3849
46.5638
32.1662
0.131533
56.79
29.6183
0.0202652
79.5656
53.9166
10.9306
0.000699444
0.000742731
0.000873471
0.0011827
49.9002
0.000674427
109.753
50.5033
229.906
28.9535
0.00072644
12.4746
15.888
58.0824
15.369
29.4779
13.7356
0.000754703
0.000742226
0.00345321
0.176023
0.000710773
84.5289
13.961
1.7428
47.6624
15.07
39.0282
118.305
0.000728216
19.0922
30.9798
0.00094462
0.0907758
52.8277
168.854
20.2823
4.75165
0.000753932
33.6849
39.6355
0.000959512
0.0116215
0.000722848
39.7521
0.00116596
0.517968
112.715
0.763672
0.0999153
21.8091
2877.59
0.000758173
30.2146
0.000675455
10.2402
23.0474
22.2866
17.0795
60.8661
31.7216
58.2624
189.005
45.3549
0.000732409
0.000718148
0.0475301
0.206905
53.2005
4.548
0.000730223
164.418
2.89852
0.00301848
52.3442
0.0545854
0.00287156
0.0322915
74.2109
0.00203757
0.000734266
21.3523
83.4566
25.1447
1.6265
53.9653
8.2494
0.000737461
16.8036
0.146148
0.0685564
0.000791109
34.6981
20.0481
5.5103
139.129
94.6247
16.4152
2.90045
0.000725724
25.8576
0.000726204
223.165
0.00407565
33.4119
0.157994
53.6977
0.00810763
0.00356641
4.54883
3.74174
386.541
0.000853158
1.89442
46.3894
91.2231
6.40693
114.717
1.32768
0.000812305
0.000744797
58.1964
24.6048
313.159
2.2472
0.164464
54.9284
21.0956
59.5242
0.0668363
0.00072599
0.000734803
1.27415
767.879
18.608
105.99
0.000842789
0.0045324
1.10958
48.9146
22.8248
45.0754
57.9192
60.8564
0.000741921
0.000735547
179.037
135.89
61.5954
427.121
48.0772
0.016103
132.998
0.00072467
226.236
0.0177362
0.0210135
0.000727211
0.0347097
0.173069
53.698
48.4313
0.000754517
116.31
0.000719038
82.8546
148.53
0.000718105
0.470252
0.0007544
16.469
0.324126
5.61873
0.000691773
13.1868
90.9348
13.1428
45.1322
1.24022
60.6295
1.58096
62.6717
33.3866
84.0361
30.8143
0.00095511
0.000736192
27.2193
0.480869
61.6564
0.000731901
123.356
0.000724325
0.00131046
0.250737
0.000720462
273.624
97.6768
0.000762186
21.8783
2.57127
0.175184
33.2006
0.00188095
0.000708278
42.9992
9.1575
0.0205766
46.5993
2371.91
108.399
1.62936
183.019
0.225356
0.000735777
0.000900535
0.0276577
1.55172
57.709
140.786
312.544
52.4276
55.0414
10.6069
1.98006
37.3468
154.182
56.1193
0.0352213
0.0854675
13.0683
83.8811
0.000793214
1.00359
17.5323
192.492
0.000726907
49.0889
0.000680745
0.00644379
129.557
0.000790483
65.1865
1155.59
0.000738013
175.252
0.0008702
8.89687
0.00652875
0.00103378
47.5329
16.2041
64.6384
8.46984
79.5689
350.45
105.553
5.96054
36.6815
20.3435
0.000705297
162.902
0.0565445
88.613
4.03139
10.5365
0.0346712
0.0010887
167.196
116.652
12.6436
48.3889
18.0944
0.0103114
0.000694833
0.000744479
1.65772
75.3314
17.2548
0.000703927
1167.98
20.4522
0.00960934
0.141798
20.189
0.000664297
0.392138
0.000762217
0.000723747
21.4313
30.045
0.0546575
0.00624177
0.000708808
29.0803
1.77434
20.7292
0.00231511
0.0321801
0.00738256
61.1709
103.266
1.23314
0.000729313
160.248
0.000780828
0.0337247
0.00416234
0.00141261
34.822
64.8547
0.000725237
49.985
0.000748745
0.000696271
0.000880834
53.445
15.4252
53.2221
42.4431
20.0782
61.8989
0.0442263
0.00072878
0.00706991
0.00161848
2.86899
0.000713546
61.6086
11.7282
0.03309
101.136
0.353808
22.3102
1.87893
0.00184178
125.487
56.7826
20.1903
0.00724489
0.146523
214.867
0.000732765
8.92519
57.7639
0.00072466
0.708891
0.00279799
19.5264
0.000691663
81.5042
37.273
1.71725
0.430818
94.1647
365.854
4.71909
125.554
0.00104647
18.2689
0.000742387