/*--------------------------------*- C++ -*----------------------------------*\
| =========                 |                                                 |
| \\      /  F ield         | OpenFOAM: The Open Source CFD Toolbox           |
|  \\    /   O peration     | Version:  2.3.1                                 |
|   \\  /    A nd           | Web:      www.OpenFOAM.org                      |
|    \\/     M anipulation  |                                                 |
\*---------------------------------------------------------------------------*/
FoamFile
{
    version     2.0;
    format      ascii;
    class       volScalarField;
    location    "0.52";
    object      nut;
}
// * * * * * * * * * * * * * * * * * * * * * * * * * * * * * * * * * * * * * //

dimensions      [0 2 -1 0 0 0 0];

internalField   nonuniform List<scalar> 
15166
(
9.72546e-05
0.000157298
0.000262301
0.000376508
0.000476723
0.00059137
0.00070955
0.000837771
0.000957399
0.00108043
0.00119718
0.00129735
9.72686e-05
0.000171232
0.000283035
0.000397083
0.000500899
0.000614542
0.000731394
0.000854761
0.000972055
0.00109057
0.00120298
0.00130397
9.76316e-05
0.000182564
0.000299311
0.000414056
0.000520748
0.000633764
0.000749323
0.00086895
0.000984035
0.00109874
0.00120758
0.00130837
9.81045e-05
0.000192714
0.000313188
0.000428689
0.000537423
0.000649877
0.000764162
0.000880798
0.000993755
0.00110518
0.00121102
0.00131165
9.861e-05
0.000201893
0.000325465
0.000441682
0.000551776
0.000663629
0.000776601
0.000890723
0.00100163
0.00111018
0.00121351
0.00131356
9.91566e-05
0.000210148
0.000336477
0.000453345
0.000564318
0.000675488
0.000787135
0.00089906
0.00100797
0.00111395
0.00121505
0.00131438
9.97394e-05
0.000217567
0.000346482
0.000463908
0.000575354
0.000685801
0.000796123
0.000906052
0.00101304
0.00111668
0.00121578
0.00131483
0.000100357
0.000224235
0.000355683
0.000473535
0.00058516
0.00069483
0.000803839
0.000911925
0.00101705
0.00111857
0.00121604
0.0013154
0.000100988
0.000230216
0.000364232
0.000482418
0.000593967
0.000702798
0.000810502
0.000916869
0.0010202
0.00111978
0.00121583
0.00131514
0.000101631
0.000235551
0.000372217
0.00049065
0.000601945
0.000709894
0.000816292
0.000921015
0.00102264
0.00112045
0.0012153
0.00131437
0.00010228
0.000240292
0.000379705
0.000498325
0.000609212
0.000716243
0.000821349
0.000924497
0.00102447
0.0011207
0.00121467
0.0013146
0.000102928
0.00024447
0.000386731
0.000505516
0.000615875
0.000721958
0.000825786
0.000927416
0.00102583
0.00112065
0.00121397
0.00131399
0.000103572
0.000248131
0.000393332
0.000512263
0.000622027
0.000727135
0.00082969
0.000929857
0.00102678
0.00112034
0.00121306
0.00131233
0.000104209
0.000251331
0.000399531
0.000518612
0.000627723
0.000731831
0.000833141
0.000931887
0.00102741
0.00111979
0.00121171
0.00130981
0.000104839
0.000254083
0.000405343
0.000524611
0.00063302
0.000736127
0.000836198
0.000933581
0.00102775
0.00111904
0.00121025
0.00130761
0.000105454
0.000256439
0.000410766
0.000530276
0.000637965
0.000740052
0.000838907
0.000934962
0.00102787
0.00111813
0.00120859
0.00130469
0.000106059
0.000258421
0.000415806
0.000535632
0.000642594
0.000743661
0.000841318
0.000936099
0.00102779
0.00111705
0.00120673
0.00130178
0.000106645
0.000260074
0.000420486
0.000540707
0.000646951
0.000747
0.000843477
0.000936999
0.00102753
0.00111583
0.00120467
0.0012984
0.000107214
0.000261433
0.000424796
0.000545503
0.000651039
0.000750076
0.000845389
0.000937716
0.00102712
0.0011145
0.0012025
0.00129507
0.000107768
0.000262513
0.000428757
0.000550035
0.000654903
0.000752928
0.000847107
0.000938258
0.00102659
0.00111305
0.00120022
0.00129176
0.000108308
0.000263355
0.000432361
0.000554313
0.000658538
0.000755577
0.000848633
0.000938644
0.00102593
0.00111149
0.00119776
0.00128798
0.000108829
0.000263969
0.000435618
0.000558352
0.000661981
0.000758034
0.000849991
0.000938893
0.00102516
0.00110983
0.00119516
0.0012841
0.000109323
0.000264395
0.000438546
0.000562139
0.000665228
0.000760325
0.000851207
0.000939029
0.00102431
0.00110808
0.00119248
0.00128101
0.000109809
0.000264643
0.000441145
0.000565691
0.000668298
0.000762466
0.000852295
0.000939064
0.00102336
0.00110623
0.0011897
0.00127738
0.00011027
0.00026473
0.000443423
0.000569023
0.0006712
0.000764468
0.000853259
0.000938993
0.00102233
0.00110431
0.0011869
0.00127436
0.000110714
0.000264688
0.000445392
0.000572127
0.000673944
0.000766333
0.000854111
0.000938839
0.00102123
0.00110232
0.00118408
0.00127086
0.000111141
0.000264517
0.000447062
0.000574995
0.000676533
0.000768079
0.000854867
0.000938603
0.00102006
0.00110029
0.0011813
0.00126812
0.000111547
0.000264253
0.00044846
0.000577642
0.000678963
0.000769706
0.000855536
0.000938294
0.00101884
0.00109822
0.00117862
0.00126558
0.000111932
0.000263889
0.000449573
0.00058008
0.000681251
0.000771227
0.000856109
0.000937924
0.00101757
0.00109614
0.00117592
0.0012622
0.000112298
0.000263427
0.000450438
0.000582292
0.000683398
0.000772642
0.000856609
0.000937486
0.00101626
0.00109405
0.00117325
0.00125941
0.00011264
0.000262917
0.00045104
0.000584289
0.000685398
0.000773963
0.000857035
0.000937001
0.00101491
0.00109194
0.00117055
0.00125601
0.000112971
0.000262332
0.000451421
0.000586068
0.000687262
0.000775187
0.000857397
0.000936459
0.00101353
0.00108982
0.00116787
0.00125313
0.00011329
0.000261694
0.00045157
0.000587651
0.000688994
0.000776325
0.000857686
0.000935879
0.00101212
0.00108769
0.00116515
0.00124956
0.000113578
0.000261022
0.000451524
0.000589023
0.000690585
0.000777373
0.000857922
0.000935257
0.00101069
0.00108555
0.00116243
0.00124651
0.000113853
0.000260312
0.000451274
0.000590206
0.000692046
0.000778331
0.000858098
0.000934597
0.00100924
0.00108341
0.00115969
0.0012429
0.000114121
0.000259574
0.000450856
0.000591174
0.000693369
0.000779211
0.000858226
0.000933901
0.00100776
0.00108125
0.00115699
0.00124014
0.000114355
0.000258807
0.000450256
0.000591962
0.000694564
0.000780006
0.000858291
0.000933164
0.00100627
0.0010791
0.00115436
0.00123765
0.000114583
0.000258024
0.000449501
0.000592555
0.000695623
0.000780723
0.000858313
0.000932405
0.00100476
0.00107696
0.00115172
0.00123437
0.00011479
0.000257227
0.000448604
0.000592968
0.000696556
0.000781352
0.000858286
0.00093162
0.00100325
0.00107481
0.00114909
0.00123119
0.000114977
0.000256421
0.000447575
0.000593208
0.000697366
0.000781916
0.000858213
0.000930803
0.00100172
0.00107268
0.00114645
0.00122784
0.000115156
0.000255598
0.000446423
0.00059327
0.000698044
0.000782392
0.000858093
0.000929968
0.00100019
0.00107053
0.0011437
0.00122399
0.000115309
0.000254694
0.000445136
0.000593168
0.000698592
0.000782795
0.000857928
0.000929105
0.000998643
0.00106836
0.00114094
0.00122122
0.000115455
0.000253759
0.000443753
0.000592908
0.000699019
0.00078312
0.000857721
0.000928227
0.000997091
0.00106619
0.00113817
0.00121786
0.000115575
0.000252759
0.000442226
0.000592483
0.000699318
0.000783364
0.000857469
0.000927321
0.000995523
0.00106401
0.00113545
0.00121513
0.000115678
0.000251755
0.000440537
0.000591908
0.000699498
0.00078353
0.000857175
0.000926395
0.000993948
0.00106182
0.00113272
0.0012117
0.00011577
0.000250787
0.000438723
0.000591159
0.000699548
0.000783623
0.000856844
0.000925449
0.000992365
0.00105964
0.00113003
0.00120918
0.000115849
0.000249765
0.000436817
0.000590204
0.00069945
0.000783637
0.000856465
0.000924483
0.00099077
0.00105745
0.00112735
0.00120583
0.000115903
0.000248775
0.000434817
0.000589111
0.00069922
0.000783563
0.00085604
0.000923497
0.000989168
0.00105527
0.00112471
0.00120324
0.000115947
0.000247787
0.000432777
0.00058785
0.000698851
0.000783409
0.000855576
0.000922482
0.000987559
0.0010531
0.00112208
0.00120004
0.000115979
0.000246805
0.000430628
0.000586442
0.000698354
0.000783157
0.000855062
0.000921452
0.000985935
0.00105092
0.00111947
0.00119747
0.000116
0.000245865
0.000428423
0.000584894
0.00069773
0.000782833
0.0008545
0.000920398
0.000984311
0.00104875
0.00111682
0.0011939
0.000116003
0.000244887
0.000426163
0.000583192
0.000696966
0.000782407
0.000853888
0.000919317
0.000982677
0.00104658
0.00111418
0.00119057
0.000115992
0.000243962
0.000423862
0.000581385
0.000696075
0.000781898
0.000853226
0.00091822
0.00098104
0.00104443
0.00111159
0.00118829
0.000115973
0.000243042
0.000421523
0.000579434
0.000695046
0.000781303
0.00085252
0.0009171
0.000979397
0.00104227
0.00110903
0.00118558
0.000115934
0.000242132
0.000419152
0.000577367
0.000693894
0.000780611
0.000851759
0.000915955
0.00097775
0.00104013
0.00110652
0.00118292
0.000115878
0.000241228
0.000416753
0.000575193
0.000692618
0.000779822
0.000850943
0.000914786
0.000976099
0.001038
0.001104
0.00117959
0.000115819
0.000240379
0.000414339
0.000572915
0.000691207
0.000778944
0.000850078
0.000913592
0.000974439
0.00103589
0.00110149
0.00117673
0.000115742
0.000239496
0.000411907
0.000570519
0.000689677
0.000777975
0.000849147
0.000912372
0.000972784
0.00103377
0.00109894
0.00117305
0.000115648
0.000238666
0.000409462
0.000568033
0.000688015
0.000776895
0.000848171
0.000911133
0.000971123
0.00103167
0.00109643
0.00117113
0.000115553
0.000237851
0.000407045
0.000565486
0.000686253
0.000775733
0.000847124
0.000909856
0.000969446
0.00102956
0.00109394
0.00116837
0.000115438
0.000237071
0.000404588
0.000562834
0.000684361
0.000774466
0.00084602
0.000908554
0.000967767
0.00102746
0.00109145
0.00116528
0.000115308
0.000236268
0.000402129
0.000560105
0.000682344
0.000773095
0.000844849
0.000907213
0.000966074
0.00102537
0.00108895
0.00116184
0.000115168
0.000235515
0.000399678
0.000557309
0.000680235
0.00077163
0.000843612
0.000905847
0.000964373
0.00102327
0.00108645
0.00115892
0.00011502
0.000234776
0.000397267
0.000554428
0.000678004
0.000770061
0.000842314
0.000904446
0.000962669
0.00102118
0.00108392
0.00115548
0.000114857
0.000234081
0.000394832
0.000551513
0.000675671
0.000768398
0.000840946
0.00090301
0.000960947
0.00101909
0.0010814
0.00115266
0.000114689
0.000233392
0.00039244
0.000548543
0.000673224
0.000766639
0.000839506
0.000901542
0.000959219
0.00101699
0.00107886
0.00114942
0.000114484
0.000232695
0.000390056
0.000545502
0.000670692
0.000764773
0.000838001
0.000900031
0.000957466
0.00101489
0.00107634
0.00114677
0.000114311
0.000232053
0.000387705
0.000542435
0.000668062
0.000762813
0.000836427
0.00089848
0.000955703
0.00101278
0.0010738
0.00114351
0.000114091
0.000231431
0.000385365
0.000539331
0.000665326
0.00076075
0.000834772
0.000896885
0.000953913
0.00101067
0.00107128
0.00114057
0.00011385
0.000230826
0.000383049
0.000536184
0.00066252
0.0007586
0.000833043
0.000895248
0.000952111
0.00100855
0.00106872
0.0011372
0.000113623
0.000230216
0.000380771
0.00053299
0.000659611
0.000756349
0.000831244
0.000893559
0.000950281
0.00100642
0.00106618
0.00113429
0.000113377
0.000229701
0.000378502
0.000529784
0.000656629
0.000753991
0.000829368
0.000891824
0.000948426
0.00100427
0.0010636
0.00113083
0.000113124
0.000229122
0.00037631
0.000526595
0.000653578
0.000751549
0.000827405
0.00089004
0.00094655
0.00100211
0.001061
0.00112745
0.000112852
0.000228631
0.000374067
0.00052332
0.000650412
0.000748996
0.000825355
0.000888198
0.000944635
0.000999932
0.0010584
0.00112442
0.000112572
0.000228157
0.000371932
0.000520074
0.00064722
0.000746364
0.000823242
0.000886305
0.0009427
0.000997746
0.00105581
0.00112116
0.000112253
0.000227638
0.000369803
0.0005168
0.000643936
0.000743647
0.00082104
0.000884364
0.000940735
0.000995544
0.00105322
0.00111844
0.000111952
0.000227187
0.000367728
0.000513534
0.000640581
0.000740825
0.000818754
0.000882352
0.000938724
0.000993324
0.00105061
0.00111514
0.000111657
0.000226811
0.000365702
0.000510255
0.000637179
0.000737911
0.000816386
0.00088029
0.000936688
0.000991082
0.00104799
0.00111223
0.000111321
0.000226387
0.000363697
0.000506987
0.000633713
0.000734922
0.000813936
0.000878165
0.000934604
0.00098882
0.00104534
0.00110885
0.000110957
0.000226005
0.000361744
0.000503713
0.000630206
0.000731843
0.000811402
0.000875976
0.000932486
0.000986528
0.00104272
0.00110616
0.000110614
0.000225657
0.000359805
0.00050046
0.000626637
0.000728674
0.00080878
0.000873715
0.000930324
0.000984209
0.00104006
0.00110299
0.000110247
0.00022532
0.000357951
0.000497198
0.00062301
0.00072541
0.000806081
0.000871386
0.00092811
0.000981864
0.00103737
0.00109942
0.000109868
0.000225014
0.000356148
0.000493973
0.000619361
0.000722092
0.000803284
0.00086899
0.000925849
0.000979499
0.00103467
0.00109612
0.000109479
0.00022473
0.000354371
0.000490775
0.000615664
0.000718686
0.000800401
0.000866515
0.000923541
0.000977097
0.00103198
0.00109343
0.000109077
0.000224465
0.000352649
0.0004876
0.000611922
0.000715204
0.000797442
0.000863969
0.00092118
0.000974669
0.00102927
0.00109021
0.000108636
0.000224207
0.000350964
0.000484405
0.00060818
0.000711655
0.000794385
0.000861363
0.000918763
0.000972197
0.00102655
0.0010874
0.000108212
0.000223982
0.000349329
0.000481262
0.000604397
0.000708012
0.000791251
0.000858662
0.000916295
0.000969699
0.0010238
0.00108395
0.000107772
0.000223785
0.000347752
0.000478176
0.000600561
0.000704313
0.000788013
0.000855886
0.000913775
0.00096717
0.00102107
0.00108118
0.000107318
0.000223617
0.000346231
0.000475111
0.000596742
0.000700533
0.000784688
0.000853029
0.000911185
0.000964608
0.00101834
0.00107845
0.000106852
0.000223472
0.000344722
0.000472057
0.000592882
0.000696684
0.000781283
0.000850087
0.00090852
0.000961986
0.00101562
0.00107614
0.000106373
0.000223351
0.000343317
0.000469082
0.000589037
0.000692803
0.000777795
0.000847072
0.000905804
0.000959342
0.00101284
0.0010724
0.000105882
0.000223263
0.000341965
0.000466117
0.000585157
0.000688835
0.00077423
0.000843976
0.000903024
0.000956663
0.00101007
0.00106948
0.000105349
0.000223138
0.000340629
0.000463202
0.000581282
0.000684819
0.000770577
0.000840785
0.000900171
0.000953938
0.00100722
0.00106591
0.000104858
0.00022312
0.000339362
0.000460347
0.000577405
0.000680725
0.000766835
0.000837506
0.000897249
0.000951154
0.00100434
0.00106261
0.000104297
0.000223059
0.000338161
0.000457544
0.000573515
0.000676623
0.000762999
0.000834136
0.000894258
0.000948316
0.00100137
0.00105892
0.000103751
0.000223046
0.000337028
0.000454809
0.000569673
0.000672443
0.000759092
0.000830683
0.000891186
0.000945413
0.000998389
0.00105588
0.00010319
0.000223025
0.000335924
0.000452102
0.000565818
0.000668232
0.000755098
0.000827133
0.000888024
0.000942441
0.00099532
0.0010522
0.000102614
0.000223091
0.000334893
0.00044947
0.000561987
0.00066396
0.000751016
0.000823503
0.000884787
0.000939419
0.000992249
0.00104902
0.000101996
0.000223076
0.000333932
0.000446908
0.000558158
0.000659684
0.000746864
0.000819774
0.000881471
0.000936319
0.000989088
0.00104534
0.000101388
0.000223165
0.000333004
0.000444385
0.000554367
0.000655332
0.000742638
0.000815932
0.000878053
0.00093315
0.000985943
0.00104249
0.000100767
0.000223248
0.000332157
0.000441951
0.000550617
0.000650992
0.000738322
0.000812006
0.000874544
0.000929893
0.000982731
0.00103903
0.000100126
0.000223375
0.000331387
0.000439566
0.000546885
0.000646608
0.000733947
0.000807998
0.000870951
0.000926587
0.000979441
0.0010352
9.94731e-05
0.00022354
0.000330652
0.000437274
0.000543209
0.000642219
0.000729491
0.000803883
0.00086726
0.000923198
0.000976125
0.00103192
9.87985e-05
0.000223697
0.000330001
0.000435075
0.000539562
0.000637798
0.000724981
0.000799676
0.000863465
0.000919719
0.00097278
0.00102883
9.80835e-05
0.000223837
0.000329392
0.000432936
0.000535977
0.00063336
0.000720409
0.000795364
0.000859573
0.000916165
0.00096937
0.00102511
9.73747e-05
0.000224042
0.000328866
0.000430861
0.00053243
0.000628935
0.000715764
0.000790969
0.000855587
0.00091252
0.000965902
0.00102166
9.66226e-05
0.000224229
0.000328383
0.000428897
0.000528967
0.000624527
0.000711054
0.000786466
0.000851484
0.000908779
0.000962302
0.00101764
9.58784e-05
0.000224485
0.000328
0.000427043
0.00052556
0.000620114
0.000706302
0.000781863
0.000847269
0.000904933
0.000958606
0.00101351
9.51468e-05
0.000224818
0.000327667
0.000425235
0.000522242
0.000615708
0.000701494
0.000777182
0.000842957
0.000900984
0.000954852
0.00100977
9.43428e-05
0.000225069
0.000327393
0.000423584
0.000518994
0.00061134
0.00069664
0.00077242
0.000838525
0.000896924
0.000950949
0.00100557
9.354e-05
0.000225395
0.000327217
0.000421981
0.000515819
0.000606994
0.000691766
0.000767537
0.000833975
0.000892752
0.000947017
0.00100194
9.27208e-05
0.000225777
0.000327099
0.000420511
0.000512764
0.000602704
0.000686852
0.000762589
0.000829326
0.00088847
0.000942988
0.000997731
9.18537e-05
0.000226102
0.00032708
0.000419142
0.000509793
0.000598427
0.000681928
0.000757556
0.000824562
0.000884103
0.000938893
0.000993439
9.09886e-05
0.00022651
0.000327134
0.000417914
0.000506924
0.000594226
0.000676955
0.000752446
0.00081967
0.000879572
0.000934621
0.00098957
9.01045e-05
0.00022698
0.000327211
0.000416756
0.000504165
0.000590082
0.00067199
0.000747226
0.000814639
0.000874891
0.00093021
0.000985032
8.91989e-05
0.000227418
0.000327457
0.00041576
0.000501564
0.000586043
0.000667025
0.000741958
0.000809516
0.000870104
0.000925735
0.000980899
8.82682e-05
0.000227936
0.000327735
0.000414894
0.000499091
0.000582066
0.000662096
0.00073663
0.000804269
0.000865156
0.000921075
0.000976105
8.72855e-05
0.000228402
0.000328142
0.000414193
0.000496766
0.000578223
0.000657165
0.000731243
0.000798899
0.000860105
0.000916366
0.000971714
8.62715e-05
0.000228938
0.000328583
0.000413593
0.000494599
0.000574496
0.000652311
0.000725839
0.000793449
0.00085491
0.000911502
0.000966795
8.52877e-05
0.000229584
0.00032917
0.000413175
0.000492604
0.0005709
0.000647484
0.000720381
0.000787914
0.000849605
0.000906508
0.000961759
8.42603e-05
0.000230197
0.000329846
0.000412888
0.000490818
0.000567463
0.000642757
0.000714905
0.000782243
0.000844107
0.000901236
0.000956736
8.31703e-05
0.000230823
0.000330621
0.000412798
0.000489197
0.000564197
0.000638129
0.000709447
0.000776486
0.000838465
0.000895843
0.000951304
8.20442e-05
0.000231474
0.000331496
0.000412874
0.000487793
0.000561128
0.000633618
0.00070399
0.000770665
0.000832711
0.00089037
0.000946314
8.09438e-05
0.000232254
0.000332478
0.000413112
0.000486645
0.000558273
0.000629236
0.000698593
0.000764774
0.000826781
0.000884627
0.000940336
7.97682e-05
0.000232985
0.000333578
0.000413574
0.000485715
0.000555664
0.000625055
0.000693244
0.000758839
0.000820741
0.000878708
0.000934467
7.85465e-05
0.000233752
0.0003348
0.000414248
0.00048508
0.000553329
0.000621084
0.000688016
0.000752884
0.000814565
0.000872565
0.000928063
7.73436e-05
0.00023465
0.000336146
0.000415109
0.000484706
0.000551289
0.000617331
0.000682897
0.000746939
0.000808289
0.000866256
0.000921606
7.60617e-05
0.000235504
0.000337635
0.00041624
0.000484653
0.000549587
0.000613882
0.000677955
0.000741019
0.000801898
0.00085975
0.000914821
7.47527e-05
0.000236418
0.000339262
0.0004176
0.000484949
0.000548247
0.000610726
0.000673212
0.000735136
0.000795406
0.000853082
0.000908437
7.33792e-05
0.000237342
0.000341021
0.000419274
0.000485615
0.0005473
0.000607946
0.000668695
0.000729295
0.000788804
0.000846149
0.000901171
7.19761e-05
0.000238318
0.000342992
0.000421236
0.000486704
0.000546816
0.000605532
0.000664432
0.000723554
0.000782129
0.000839053
0.000894069
7.04963e-05
0.000239246
0.000345122
0.000423542
0.000488205
0.000546754
0.000603493
0.000660425
0.000717918
0.000775356
0.000831684
0.000886179
6.8968e-05
0.000240228
0.000347434
0.000426156
0.000490109
0.000547113
0.000601838
0.000656659
0.000712316
0.000768437
0.000823978
0.000878206
6.73677e-05
0.000241087
0.000349845
0.00042909
0.000492345
0.000547825
0.000600545
0.000653247
0.000706924
0.00076149
0.000816048
0.000870119
6.5408e-05
0.000240126
0.000350262
0.000430919
0.000493468
0.000547769
0.00059872
0.000649621
0.000701345
0.000754731
0.000808139
0.000861648
0.000477623
0.00154683
0.0016415
0.0018833
0.00188492
0.000625877
0.000613846
0.000464323
0.00137612
0.00206055
0.00381323
0.0020192
0.00424158
0.00142696
0.000567019
0.00133218
0.00149823
0.00504314
0.00502785
0.00131829
0.000731051
0.000492697
0.00739148
0.00354945
0.000478399
0.0016435
0.000573855
0.000779505
0.00194355
0.00122973
0.0017826
0.000336196
0.00146245
0.00377778
0.00412587
0.00106552
0.000154619
0.0015719
0.000467561
0.00207227
0.00186933
0.00129258
0.00387019
0.00106133
0.000274022
0.000494758
0.00578657
0.00374703
0.000277093
0.000735479
0.00106633
0.00046684
0.00033803
0.00124158
0.00165003
0.00150681
0.00238911
0.00129193
0.00157225
0.000564833
0.000622532
0.000337196
0.00124141
0.00286706
0.00424902
0.00152312
0.000936347
0.000318481
0.000656901
0.00227763
0.00172232
0.00532168
0.000465861
0.00110073
0.00357809
0.00127028
0.00138913
0.00123815
0.0056098
0.000466713
0.00456076
0.00123973
0.000196633
0.000382631
0.00285225
0.00160584
0.00093784
0.00124135
0.00264802
0.000197733
0.000577062
0.00147256
0.00124139
0.00140645
0.000350381
0.00127365
0.000777999
0.00163166
0.00124229
0.000946867
0.000765414
0.00324357
0.00128879
0.00148709
0.00123885
0.000350442
0.000356988
0.000422456
0.00132742
0.000248957
0.00152405
0.00123993
0.000445644
0.00136814
0.00124078
0.000521305
0.00316048
0.00225872
0.00155345
0.00429897
0.000786544
0.00378462
0.00147426
0.00360587
0.00443922
0.0028183
0.00141303
0.000260772
0.00404274
0.00124136
3.92604e-05
0.00124223
5.60442e-05
0.00148728
0.000568735
0.00163242
0.000172468
0.00241992
0.000447292
0.00175204
0.00297187
0.000688443
0.000461391
0.000452919
8.77517e-05
0.00163226
0.000466249
0.00152495
0.00141032
0.000579266
0.000630873
0.000514629
0.0012418
0.00445314
0.0035772
0.00124362
0.000443127
0.00126919
0.00165586
0.0019296
0.00368905
0.00133707
0.00452643
0.00261239
0.000775088
0.00336003
0.000277184
0.000253946
0.000547987
0.0012374
0.00156016
0.00109331
0.00164574
0.00304983
0.00123866
0.00160591
0.00123854
0.000411621
0.00236993
0.00134201
0.000277213
0.00524988
0.00426959
0.00047047
0.00129841
0.000461958
0.00125536
0.00124028
9.18964e-05
0.00124087
0.00232211
0.001245
0.000396104
0.00156056
0.000450186
0.000557824
0.000612012
0.0005387
0.00123982
0.00221417
0.00146683
0.000461419
0.000281454
0.000463179
0.000472615
0.00697688
0.00416405
0.0031728
0.00113403
0.00271707
5.35156e-05
0.00138617
0.00046836
0.000412798
0.00123977
0.000468238
0.0025143
0.00146761
0.00223
0.000189829
0.000385298
0.00146497
0.000420423
0.00124826
0.00125143
0.00277331
0.00160214
0.00126904
0.00107199
0.00413829
5.24769e-05
0.00445563
0.00124159
0.000907393
0.00150163
0.000474631
0.000464789
0.00148611
0.00111801
0.000455826
0.0042469
0.00595267
0.00434362
0.00268291
6.46242e-05
5.38267e-05
5.64279e-05
0.001321
0.00390614
0.000466592
0.00221535
0.0011023
0.00233166
0.000350483
0.00023185
0.00283618
0.00098915
0.000452967
0.00207411
0.000427086
0.00271418
0.000473048
0.00294757
0.00416275
7.28863e-05
0.000469314
0.00131023
0.000477138
0.00146528
0.00121712
0.000695078
0.00526217
0.0013854
4.49102e-05
4.5676e-05
0.00139017
0.000175644
5.76235e-05
0.00028153
0.000137115
0.000377628
0.000172891
0.000466163
0.000471051
0.00134399
0.000609939
0.00161864
4.73284e-05
0.00131391
0.000762931
0.000136534
0.00146625
4.63307e-05
4.60207e-05
0.000445243
0.000397744
0.00190278
4.48805e-05
0.00586009
0.000380884
0.000461401
0.000994824
0.000499054
0.00177757
0.00376486
0.0015161
0.000286031
0.00124093
0.00528857
0.00475326
0.00566187
0.000184239
0.0012456
0.0012932
0.000460598
0.00434306
4.91545e-05
0.00121455
0.0012398
8.29448e-05
0.00463798
0.00208213
0.00149695
0.000236518
0.000453412
0.0012139
0.00141584
0.00124132
0.00125526
0.000182926
0.00133377
0.00124749
0.00217821
0.0012417
0.00125457
0.00126456
0.00123871
0.00764799
0.00124194
0.00173196
0.000788596
0.000473672
0.00124211
0.000528248
0.0022961
4.55398e-05
5.33955e-05
0.00164929
0.00140466
0.00138219
0.0012375
0.00126827
0.00634819
0.00228186
4.08551e-05
0.00123871
0.00493687
0.000366201
0.00134831
0.00236133
0.000102548
0.000267043
0.00132945
0.00148968
0.000856953
0.00191846
0.00135659
0.00124134
0.00141442
0.00145332
0.00501594
9.628e-05
0.0004536
0.000134142
0.00147809
0.000632284
0.000463716
0.00140276
0.00125299
0.00177548
0.00102559
0.00165108
0.00126004
0.000469776
0.00034958
0.000599699
0.00124573
0.00431297
0.000542478
0.00379982
0.00126072
0.00117565
0.00191942
0.000393463
0.00044549
0.00137527
0.00142176
0.00124395
0.00300006
0.00141625
0.00185329
0.00237675
0.000899194
0.00217974
0.00393168
0.000168741
0.00139601
0.00147173
6.47264e-05
0.000422419
0.00124076
0.00124942
0.00124196
0.00129658
0.00607656
0.000455016
0.000128266
0.0005386
0.000528144
0.00125603
0.000246604
0.000467811
0.00123811
0.00124764
0.00045655
0.00124636
0.00271301
0.00137136
0.000449706
0.00123756
0.00197642
0.00424356
0.00506072
0.000460695
0.0046405
0.00123831
0.00124228
0.00116354
0.00132625
0.00253753
0.000289137
4.03098e-05
0.00194497
0.000458305
0.00190518
0.000988416
0.00132736
0.000443233
0.00154549
0.00123901
0.00198191
0.000460669
5.42864e-05
0.00221356
0.0019919
0.000692274
0.00163567
4.75737e-05
0.000423026
0.00443697
0.000525103
0.00342177
0.00498934
0.00245747
0.00132433
0.00130102
0.00176563
0.000694552
0.000574797
5.90292e-05
0.00359494
0.000281977
9.54027e-05
0.00123922
0.00179122
0.00133628
0.00044364
0.00123871
0.000327214
0.000883841
0.000386737
0.000203129
0.000468796
0.00245077
0.00442172
9.39893e-05
5.0192e-05
0.00134098
0.00311196
0.001248
0.00420533
0.000908948
0.000318352
0.00138311
0.00424932
0.000157879
0.0010738
0.00116555
0.000470246
0.00022412
0.00122931
0.000480818
0.000311417
0.00127064
0.00345099
0.000401068
0.000707633
0.00137072
0.000190143
0.00185895
0.000449847
0.00127828
0.000947048
0.00336596
0.00124133
0.000663592
4.1197e-05
0.00125051
0.00150217
0.00216057
0.00428608
0.00146711
0.00127209
0.000466441
0.00124136
0.000293014
0.00149699
4.44023e-05
9.39214e-05
0.00186649
4.71798e-05
0.000816971
0.00125197
0.00159295
0.0012688
0.00405326
0.00134905
0.000379069
0.000447749
0.00193736
0.00134524
0.00369417
0.00178091
0.00262977
0.00173349
0.00123896
0.00466703
0.00123871
0.00572599
0.00055973
0.00452923
0.000975769
0.000650477
0.000434111
0.00489953
0.00318965
0.000456657
6.86778e-05
0.0012414
0.00124143
0.00108772
0.000717524
0.000388962
0.00243686
0.00535644
0.00129777
0.000328142
0.00123742
0.00420993
0.000473564
0.00158208
0.00127894
0.000492955
0.00010394
0.000388855
0.00259338
0.00123876
0.00341863
0.00124288
0.00139931
0.00296274
0.000369114
0.00159857
0.00125422
0.00141094
0.0059
0.000418659
0.000920054
0.00139161
0.000220725
0.00423707
0.00124154
0.000571752
8.15595e-05
0.000458921
0.00328205
0.00123742
0.00146021
0.00130132
0.000464645
0.00124777
0.00072901
0.00105034
0.00127782
0.00179153
0.000396854
0.00137054
0.000986893
0.00117329
0.00134804
0.000761303
0.00490607
0.00338389
0.00123903
0.00124142
0.00159771
0.000460247
0.000471998
0.000461585
0.00158543
0.000768082
0.00393658
0.00118918
0.000470766
0.00139829
0.0025006
0.000326109
0.00123753
0.00209976
0.000280574
0.000277413
0.00126719
0.00124626
6.87978e-05
0.000184909
0.00133136
0.00397787
0.000822732
0.000414273
0.00125256
3.52956e-05
0.000691038
0.000703605
0.00168527
0.00104679
0.000862796
0.00141283
0.00128688
0.000450126
0.000132835
0.00126266
0.001242
0.00141234
0.00116848
0.00156354
0.00123993
0.00215139
0.00124132
0.00117501
0.00049998
0.00486263
0.00124663
0.00147286
0.000624538
0.000356307
0.00199833
0.000194865
0.00743597
0.000805192
0.00137205
0.00124096
0.00309961
0.00140927
0.000230107
0.0015371
0.00175615
0.00239152
0.0022736
0.000133185
0.00123984
0.000777818
0.00117697
0.000458745
0.00128731
0.00491294
0.00036593
0.000311558
0.00187605
0.00520518
0.00154572
0.000466013
0.00255201
0.000467528
0.00124066
0.00198425
0.001304
0.00123736
0.000104209
0.00124154
4.68266e-05
0.00230003
0.00110973
0.00127198
0.00119185
0.000422911
0.00183843
0.00151095
0.00129926
0.00620675
0.00223156
0.00281353
0.00505678
0.00159935
0.00123916
0.00124153
0.000465742
0.00571903
5.87673e-05
0.000530499
0.00127956
4.63517e-05
4.06657e-05
4.47439e-05
0.00302807
0.000696136
3.75985e-05
0.00124133
0.000133
0.000125624
0.000464725
0.0012423
0.00242385
0.00144263
0.000112576
0.00124314
0.00165926
0.00123911
0.00522694
0.00223498
0.00132999
0.000452508
0.00123978
0.00449221
0.000418492
0.00124246
0.00142681
0.00124071
0.00138463
0.00308405
0.0012838
0.00113348
0.00256244
0.00046332
0.00124019
0.00107
0.00124199
0.000615926
0.00267119
0.00350422
0.000517391
0.00277029
0.00161246
0.00125876
0.0001575
0.00100829
0.00117855
5.3405e-05
0.000499196
0.00123809
0.000129263
0.000601881
0.000756531
0.00102529
0.00121075
0.00139712
0.000476391
0.00434705
0.00124026
0.00363684
0.00143454
0.00350379
0.000133478
0.000766114
0.0012549
0.000220161
0.000385897
0.00137356
0.00188342
0.00130931
0.000608737
0.000992422
0.00119473
0.00413349
0.00173555
0.000293881
0.000185918
0.00428807
0.000152866
0.00124855
5.08504e-05
0.00158821
0.00127988
0.0014693
0.00113014
0.00102279
0.00612258
0.00135209
0.00324189
0.0029219
0.00140578
0.00289151
0.002736
0.00124195
0.00150667
0.00470105
4.41384e-05
0.000470041
4.463e-05
0.000723906
0.00189322
0.00108919
0.00124071
0.00124168
0.00044401
0.00663042
0.00134063
0.00156295
0.00123761
0.00160993
0.00252656
0.00514454
0.00130619
0.00160465
0.00146684
0.00209106
0.00136171
0.00549664
0.000391468
0.000543124
0.00124068
0.000542109
0.00145143
0.00168636
0.00217163
4.80265e-05
0.00364359
0.00212287
0.000676695
0.00402914
0.00242831
0.00396718
0.00566289
0.00130185
3.94154e-05
0.00124135
0.00129347
0.000441245
0.0028139
0.00270459
0.00108823
0.000430427
0.00124163
0.00124152
0.00148222
0.000129606
0.00138073
0.0012381
0.00134088
0.0027249
0.000465621
0.00137867
5.29861e-05
0.00116576
0.00166898
0.000366214
0.00125657
0.00130749
0.000124612
0.000378808
0.000154017
0.00124388
0.00123963
0.00109339
0.00161136
0.00236023
0.00127086
0.00124035
0.00425442
0.00126164
0.00181648
0.00304253
0.00558832
0.00243874
0.00153039
0.000438036
5.52299e-05
0.000461202
0.00200699
0.00124289
0.000283302
0.00127271
0.000262689
0.00124124
0.00181406
0.00125767