/*--------------------------------*- C++ -*----------------------------------*\
| =========                 |                                                 |
| \\      /  F ield         | OpenFOAM: The Open Source CFD Toolbox           |
|  \\    /   O peration     | Version:  2.3.1                                 |
|   \\  /    A nd           | Web:      www.OpenFOAM.org                      |
|    \\/     M anipulation  |                                                 |
\*---------------------------------------------------------------------------*/
FoamFile
{
    version     2.0;
    format      ascii;
    class       volScalarField;
    location    "0.52";
    object      p;
}
// * * * * * * * * * * * * * * * * * * * * * * * * * * * * * * * * * * * * * //

dimensions      [0 2 -2 0 0 0 0];

internalField   nonuniform List<scalar> 
15166
(
-17.3008
-22.3283
-25.0979
-27.3083
-29.187
-30.7852
-32.2176
-33.4749
-34.562
-35.3686
-36.1106
-36.6837
-22.0177
-24.5297
-25.8906
-27.5576
-29.1314
-30.5568
-31.8612
-33.0401
-34.0718
-34.9012
-35.6424
-36.2356
-27.2038
-28.0919
-28.3671
-29.3025
-30.3002
-31.3155
-32.3144
-33.2464
-34.0956
-34.8213
-35.4664
-36.0038
-30.1794
-30.5916
-30.5864
-31.1469
-31.7382
-32.4068
-33.111
-33.7987
-34.4492
-35.0279
-35.5473
-35.9758
-32.0477
-32.3023
-32.2766
-32.6763
-33.0531
-33.5075
-34.0015
-34.4989
-34.9817
-35.4234
-35.8263
-36.1752
-33.6954
-33.8149
-33.7574
-34.0317
-34.2675
-34.5765
-34.9178
-35.2679
-35.6137
-35.9361
-36.2326
-36.4948
-35.2856
-35.2857
-35.1786
-35.3316
-35.4487
-35.6363
-35.8509
-36.0776
-36.3059
-36.5209
-36.7161
-36.8786
-36.7585
-36.671
-36.5262
-36.5785
-36.5983
-36.682
-36.7884
-36.9092
-37.0353
-37.1556
-37.2638
-37.3504
-38.0959
-37.9424
-37.7743
-37.7495
-37.6948
-37.6944
-37.7116
-37.7434
-37.7826
-37.8213
-37.8538
-37.8712
-39.3184
-39.1118
-38.928
-38.8428
-38.7308
-38.6628
-38.6077
-38.5659
-38.5321
-38.5004
-38.4651
-38.4179
-40.448
-40.198
-40.002
-39.8674
-39.7094
-39.5862
-39.4715
-39.3684
-39.2728
-39.1815
-39.0896
-38.9788
-41.5017
-41.2145
-41.0082
-40.8317
-40.6358
-40.4661
-40.3016
-40.1467
-39.9986
-39.8562
-39.7188
-39.5755
-42.4868
-42.1685
-41.9536
-41.7414
-41.5135
-41.3042
-41.0975
-40.8984
-40.7051
-40.5172
-40.3356
-40.1609
-43.4108
-43.0657
-42.8435
-42.6006
-42.3457
-42.1027
-41.8596
-41.6218
-41.388
-41.1564
-40.9187
-40.6619
-44.2802
-43.9117
-43.6831
-43.4136
-43.1355
-42.8634
-42.5894
-42.3188
-42.0515
-41.7899
-41.5368
-41.2738
-45.1
-44.7111
-44.4768
-44.1842
-43.8861
-43.589
-43.2885
-42.99
-42.6937
-42.4018
-42.119
-41.8426
-45.8746
-45.468
-45.2285
-44.9155
-44.6
-44.2809
-43.9573
-43.6341
-43.3122
-42.9928
-42.6791
-42.3772
-46.6088
-46.1858
-45.9411
-45.61
-45.279
-44.9406
-44.5968
-44.2521
-43.9082
-43.5662
-43.2277
-42.8989
-47.3043
-46.8671
-46.6177
-46.2705
-45.9259
-45.5705
-45.2088
-44.845
-44.4815
-44.1206
-43.7638
-43.4145
-47.9647
-47.5146
-47.2608
-46.8989
-46.542
-46.1713
-45.7936
-45.4128
-45.0318
-44.653
-44.2798
-43.9201
-48.5921
-48.1302
-47.8721
-47.4973
-47.1292
-46.7447
-46.3525
-45.9562
-45.5587
-45.1624
-44.77
-44.3928
-49.1879
-48.7157
-48.4539
-48.067
-47.6888
-47.2918
-46.8866
-46.4761
-46.0634
-45.6505
-45.2372
-44.8318
-49.7574
-49.2739
-49.0077
-48.6098
-48.2225
-47.8142
-47.3973
-46.9742
-46.5488
-46.1237
-45.7001
-45.2843
-50.298
-49.8044
-49.5348
-49.1271
-48.7314
-48.3129
-47.8855
-47.4514
-47.0146
-46.5778
-46.1414
-45.7067
-50.8064
-50.3079
-50.036
-49.6194
-49.2163
-48.7887
-48.3519
-47.9079
-47.4606
-47.0132
-46.5668
-46.1207
-51.2963
-50.7888
-50.5132
-50.0883
-49.6784
-49.2426
-48.7973
-48.3442
-47.8875
-47.4303
-46.9738
-46.5153
-51.7616
-51.2461
-50.9678
-50.535
-50.1187
-49.6753
-49.2222
-48.7609
-48.2958
-47.8306
-47.3683
-46.9038
-52.2043
-51.6805
-51.3997
-50.9598
-50.5377
-50.0873
-49.6271
-49.1582
-48.6851
-48.2108
-47.7383
-47.2692
-52.6202
-52.0925
-51.8101
-51.3635
-50.9361
-50.4793
-50.0125
-49.5365
-49.0559
-48.5735
-48.0902
-47.6024
-53.0166
-52.4832
-52.1997
-51.7468
-51.3146
-50.852
-50.3792
-49.8968
-49.4098
-48.9212
-48.4334
-47.9397
-53.3928
-52.8564
-52.5697
-52.1107
-51.6741
-51.2061
-50.7277
-50.2396
-49.7466
-49.2519
-48.7581
-48.2579
-53.7528
-53.2111
-52.9211
-52.4559
-52.015
-51.5418
-51.0584
-50.565
-50.0666
-49.5662
-49.068
-48.5664
-54.0831
-53.5434
-53.252
-52.7818
-52.337
-51.8594
-51.3715
-50.8733
-50.3697
-49.8634
-49.3577
-48.848
-54.4027
-53.8584
-53.5637
-53.089
-52.6411
-52.1594
-51.6673
-51.1649
-50.657
-50.1466
-49.6375
-49.1278
-54.7031
-54.1544
-53.8579
-53.3785
-52.9274
-52.442
-51.9463
-51.44
-50.9285
-50.4146
-49.9015
-49.3864
-54.9806
-54.4313
-54.134
-53.6504
-53.1965
-52.7074
-52.2082
-51.6984
-51.1835
-50.6669
-50.1531
-49.6393
-55.2423
-54.6906
-54.3929
-53.9047
-53.4481
-52.9557
-52.4532
-51.9399
-51.421
-50.8994
-50.379
-49.8644
-55.4919
-54.9341
-54.6351
-54.1421
-53.683
-53.1873
-52.6814
-52.1645
-51.6416
-51.1148
-50.5847
-50.0483
-55.7147
-55.1579
-54.8602
-54.3623
-53.9012
-53.4025
-52.8938
-52.3736
-51.8474
-51.3176
-50.7833
-50.224
-55.9294
-55.3662
-55.0689
-54.5657
-54.1028
-53.6016
-53.0906
-52.5683
-52.0404
-51.5114
-50.9901
-50.4645
-56.1212
-55.5566
-55.2605
-54.7521
-54.2883
-53.785
-53.2718
-52.7474
-52.2167
-51.6819
-51.1464
-50.6107
-56.2977
-55.7333
-55.4342
-54.9215
-54.4576
-53.9522
-53.4371
-52.9105
-52.3777
-51.8412
-51.3049
-50.7625
-56.4628
-55.8948
-55.5921
-55.0754
-54.6114
-54.1039
-53.5871
-53.0586
-52.524
-51.9861
-51.4482
-50.9007
-56.6027
-56.0384
-55.7357
-55.2126
-54.75
-54.2406
-53.7222
-53.192
-52.6557
-52.1161
-51.5782
-51.0372
-56.7344
-56.1669
-55.862
-55.3356
-54.8743
-54.3622
-53.8423
-53.3105
-52.7724
-52.2306
-51.689
-51.1427
-56.8437
-56.2775
-55.9708
-55.4438
-54.9848
-54.4685
-53.9471
-53.414
-52.8747
-52.3321
-51.7921
-51.2582
-56.9393
-56.3737
-56.0634
-55.5394
-55.0789
-54.5579
-54.0368
-53.5026
-52.962
-52.4171
-51.8711
-51.3263
-57.0177
-56.4564
-56.1382
-55.6213
-55.1519
-54.6344
-54.1123
-53.5766
-53.0349
-52.4896
-51.9448
-51.4087
-57.0839
-56.5232
-56.1999
-55.6868
-55.213
-54.696
-54.1728
-53.6362
-53.0935
-52.547
-51.999
-51.4534
-57.1337
-56.5752
-56.2469
-55.7355
-55.2602
-54.7431
-54.2187
-53.6813
-53.1379
-52.5908
-52.0438
-51.5061
-57.1641
-56.6092
-56.2796
-55.769
-55.2924
-54.7752
-54.2501
-53.7121
-53.1677
-52.6189
-52.0664
-51.5132
-57.1836
-56.6292
-56.2981
-55.7881
-55.3103
-54.7932
-54.2676
-53.7293
-53.1845
-52.6353
-52.0824
-51.5208
-57.1868
-56.6337
-56.3017
-55.7919
-55.3135
-54.7968
-54.2712
-53.7334
-53.1894
-52.6424
-52.0971
-51.55
-57.1709
-56.6232
-56.2903
-55.7812
-55.3024
-54.786
-54.2607
-53.7233
-53.1797
-52.6324
-52.0852
-51.5332
-57.1439
-56.5987
-56.2643
-55.7558
-55.277
-54.7609
-54.2358
-53.6986
-53.1549
-52.6071
-52.0597
-51.5148
-57.1011
-56.5592
-56.2236
-55.7159
-55.237
-54.7216
-54.1967
-53.6599
-53.1164
-52.5683
-52.0184
-51.4666
-57.0482
-56.5044
-56.1683
-55.6615
-55.1828
-54.668
-54.1438
-53.6077
-53.0651
-52.5183
-51.9711
-51.4294
-56.9709
-56.4348
-56.0984
-55.5927
-55.1142
-54.6003
-54.0771
-53.5421
-53.0006
-52.4547
-51.9059
-51.3483
-56.8881
-56.3503
-56.0136
-55.5093
-55.0314
-54.5185
-53.9962
-53.4627
-52.923
-52.3808
-51.8438
-51.3223
-56.7843
-56.2505
-55.9141
-55.411
-54.9339
-54.4222
-53.9011
-53.3686
-52.8299
-52.2867
-51.7419
-51.2047
-56.6665
-56.1364
-55.8003
-55.2987
-54.8223
-54.3116
-53.7913
-53.2594
-52.721
-52.1778
-51.6313
-51.0867
-56.5387
-56.0103
-55.6732
-55.1726
-54.6969
-54.1872
-53.6678
-53.1369
-52.5992
-52.0571
-51.5114
-50.9588
-56.3953
-55.8679
-55.5313
-55.0321
-54.5572
-54.0489
-53.531
-53.0017
-52.4658
-51.926
-51.3866
-50.8516
-56.2329
-55.71
-55.3746
-54.8773
-54.4037
-53.897
-53.3807
-52.8532
-52.319
-51.7804
-51.2389
-50.6931
-56.0586
-55.538
-55.2033
-54.7081
-54.236
-53.7312
-53.2167
-52.6913
-52.1593
-51.6235
-51.0879
-50.5551
-55.8678
-55.3518
-55.0181
-54.5249
-54.0544
-53.5515
-53.039
-52.5157
-51.9859
-51.452
-50.9166
-50.3779
-55.6642
-55.1525
-54.8191
-54.3278
-53.8589
-53.3579
-52.8475
-52.3264
-51.7987
-51.2676
-50.7376
-50.2158
-55.4524
-54.939
-54.6057
-54.1164
-53.6492
-53.1503
-52.6419
-52.123
-51.5974
-51.0673
-50.5351
-50.0041
-55.2131
-54.7078
-54.377
-53.8907
-53.4254
-52.9288
-52.4227
-51.906
-51.3829
-50.8558
-50.3292
-49.8178
-54.9651
-54.4637
-54.1344
-53.6505
-53.1875
-52.6932
-52.1897
-51.6752
-51.1546
-50.6297
-50.1023
-49.5826
-54.7051
-54.2072
-53.8782
-53.397
-52.9358
-52.444
-51.9429
-51.431
-50.9128
-50.3907
-49.8679
-49.3653
-54.4308
-53.935
-53.6078
-53.1294
-52.6706
-52.181
-51.6823
-51.173
-50.6571
-50.1367
-49.6118
-49.0922
-54.1428
-53.6502
-53.3232
-52.8474
-52.391
-51.9043
-51.4083
-50.9017
-50.3882
-49.8708
-49.3494
-48.8346
-53.8328
-53.3476
-53.024
-52.5518
-52.098
-51.6144
-51.1214
-50.6179
-50.1079
-49.5945
-49.08
-48.5776
-53.5112
-53.0313
-52.7102
-52.2415
-51.7907
-51.3105
-50.8207
-50.3207
-49.814
-49.3033
-48.7893
-48.2793
-53.1837
-52.7059
-52.3845
-51.9184
-51.47
-50.993
-50.5066
-50.0099
-49.5068
-49.0003
-48.4935
-48.0023
-52.8367
-52.3634
-52.0441
-51.5814
-51.136
-50.6619
-50.179
-49.6859
-49.1859
-48.6818
-48.1735
-47.6683
-52.4754
-52.0054
-51.6886
-51.2297
-50.7876
-50.317
-49.8376
-49.3481
-48.8522
-48.3525
-47.8519
-47.3675
-52.0989
-51.6344
-51.3195
-50.864
-50.4251
-49.9581
-49.4826
-48.9971
-48.505
-48.0093
-47.51
-47.0131
-51.704
-51.2471
-50.9353
-50.4843
-50.0486
-49.5855
-49.1139
-48.6323
-48.1449
-47.6537
-47.1635
-46.6916
-51.3004
-50.8476
-50.5378
-50.0907
-49.6585
-49.1992
-48.7314
-48.2538
-47.7699
-47.2815
-46.7889
-46.3092
-50.8837
-50.435
-50.1272
-49.6839
-49.255
-48.7995
-48.3355
-47.8618
-47.3816
-46.8962
-46.4045
-45.9143
-50.4517
-50.0075
-49.702
-49.2629
-48.8377
-48.3863
-47.9265
-47.4577
-46.9825
-46.5035
-46.0221
-45.5448
-50.004
-49.5656
-49.2626
-48.8282
-48.4067
-47.9598
-47.5047
-47.0411
-46.5718
-46.0995
-45.6285
-45.1741
-49.5414
-49.1089
-48.8092
-48.3792
-47.9621
-47.5194
-47.0691
-46.6105
-46.1456
-45.6768
-45.2041
-44.7372
-49.0634
-48.6389
-48.3422
-47.9171
-47.5036
-47.0654
-46.6195
-46.1657
-45.7061
-45.2425
-44.7779
-44.3336
-48.5798
-48.1571
-47.8621
-47.4413
-47.0319
-46.5978
-46.1568
-45.7077
-45.2533
-44.7945
-44.3304
-43.8643
-48.0765
-47.6598
-47.3674
-46.9518
-46.5462
-46.1172
-45.6808
-45.2373
-44.7889
-44.3377
-43.8871
-43.4532
-47.5573
-47.147
-46.8582
-46.4475
-46.0471
-45.6226
-45.1918
-44.7539
-44.3112
-43.8665
-43.4214
-42.9998
-47.0245
-46.621
-46.3356
-45.9304
-45.534
-45.115
-44.689
-44.2565
-43.8193
-43.3789
-42.936
-42.5172
-46.4788
-46.081
-45.799
-45.3987
-45.0074
-44.5934
-44.173
-43.7456
-43.3138
-42.8782
-42.434
-41.9897
-45.9204
-45.5283
-45.2491
-44.8546
-44.4678
-44.0594
-43.6448
-43.2238
-42.8001
-42.3756
-41.9536
-41.5667
-45.3488
-44.9632
-44.6865
-44.2968
-43.9151
-43.5123
-43.1038
-42.6896
-42.272
-41.8534
-41.4294
-41.0149
-44.7658
-44.3833
-44.1094
-43.7255
-43.3488
-42.952
-42.5497
-42.141
-41.7299
-41.3161
-40.8995
-40.504
-44.1614
-43.7885
-43.5186
-43.1399
-42.7686
-42.3784
-41.9819
-41.5804
-41.1745
-40.7674
-40.3558
-39.9472
-43.5529
-43.1826
-42.914
-42.5405
-42.1752
-41.7911
-41.4021
-41.0067
-40.6081
-40.209
-39.8113
-39.4368
-42.9284
-42.5628
-42.2965
-41.9282
-41.5683
-41.1913
-40.809
-40.4206
-40.0281
-39.6343
-39.2359
-38.838
-42.2804
-41.9247
-41.6636
-41.3017
-40.9483
-40.5782
-40.2031
-39.8216
-39.4365
-39.0503
-38.6646
-38.301
-41.6293
-41.2778
-41.0182
-40.6622
-40.3142
-39.9522
-39.5837
-39.2101
-38.8324
-38.4538
-38.0723
-37.6931
-40.9607
-40.6161
-40.36
-40.0094
-39.6686
-39.3122
-38.9523
-38.5859
-38.2167
-37.8464
-37.4792
-37.1358
-40.2809
-39.9408
-39.6884
-39.3442
-39.0089
-38.661
-38.3078
-37.9501
-37.588
-37.2238
-36.8552
-36.4976
-39.5796
-39.2504
-39.0031
-38.6675
-38.3395
-37.9979
-37.6532
-37.3029
-36.9493
-36.5938
-36.2346
-35.8833
-38.8697
-38.5472
-38.3079
-37.9801
-37.6588
-37.3253
-36.988
-36.6466
-36.302
-35.9579
-35.6158
-35.2884
-38.1483
-37.8341
-37.5994
-37.2806
-36.9667
-36.6401
-36.3111
-35.9778
-35.6423
-35.3065
-34.9714
-34.6571
-37.4099
-37.1046
-36.8777
-36.5669
-36.2607
-35.942
-35.6203
-35.2955
-34.9682
-34.6394
-34.3074
-33.9834
-36.6577
-36.3606
-36.1402
-35.8393
-35.5412
-35.2303
-34.9165
-34.6004
-34.2827
-33.9652
-33.6492
-33.3602
-35.8908
-35.6036
-35.3895
-35.0982
-34.8081
-34.5059
-34.2008
-33.8934
-33.5849
-33.2759
-32.9633
-32.655
-35.116
-34.8348
-34.6266
-34.3441
-34.0632
-33.7697
-33.4735
-33.1758
-32.8766
-32.5784
-32.2797
-31.994
-34.3278
-34.0531
-33.8511
-33.5787
-33.3064
-33.0223
-32.7356
-32.4475
-32.1596
-31.8736
-31.5906
-31.327
-33.5234
-33.2586
-33.063
-32.7999
-32.5375
-32.2635
-31.9865
-31.7087
-31.4307
-31.1552
-30.8784
-30.6061
-32.7107
-32.4528
-32.2634
-32.0103
-31.7575
-31.4938
-31.2275
-30.9596
-30.6931
-30.4296
-30.1696
-29.9302
-31.8853
-31.6358
-31.4528
-31.2092
-30.9661
-30.7133
-30.4576
-30.2011
-29.9465
-29.6946
-29.4425
-29.2041
-31.0544
-30.8109
-30.6324
-30.398
-30.1652
-29.9227
-29.6784
-29.4337
-29.1914
-28.9552
-28.7234
-28.5255
-30.2113
-29.9743
-29.8007
-29.5761
-29.3531
-29.1226
-28.8891
-28.6556
-28.4253
-28.2008
-27.9808
-27.7695
-29.3544
-29.1266
-28.9596
-28.7445
-28.5318
-28.3119
-28.0903
-27.8677
-27.6468
-27.4297
-27.2118
-26.9938
-28.4944
-28.2701
-28.1079
-27.9021
-27.6996
-27.492
-27.2825
-27.0725
-26.8645
-26.6609
-26.4648
-26.2959
-27.6172
-27.4025
-27.2467
-27.0512
-26.8594
-26.6637
-26.468
-26.2717
-26.0775
-25.888
-25.7001
-25.5177
-26.7346
-26.5269
-26.3769
-26.191
-26.0106
-25.8285
-25.6464
-25.4656
-25.2863
-25.1122
-24.9451
-24.8007
-25.8428
-25.6446
-25.5004
-25.3245
-25.1551
-24.9856
-24.8184
-24.6529
-24.4904
-24.3324
-24.1789
-24.0442
-24.9487
-24.7547
-24.6161
-24.4506
-24.2929
-24.1372
-23.9847
-23.8348
-23.6892
-23.5486
-23.4151
-23.3182
-24.0441
-23.8572
-23.7256
-23.5701
-23.4242
-23.282
-23.1449
-23.0117
-22.8813
-22.7563
-22.6346
-22.5173
-23.1295
-22.9522
-22.8279
-22.6842
-22.5501
-22.4222
-22.3009
-22.1839
-22.0705
-21.9599
-21.8507
-21.7448
-22.2138
-22.044
-21.9261
-21.7936
-21.6731
-21.5597
-21.4552
-21.3575
-21.264
-21.1766
-21.0994
-21.061
-21.2961
-21.1315
-21.0211
-20.9005
-20.7932
-20.6962
-20.6092
-20.5308
-20.4586
-20.3901
-20.3233
-20.2659
-20.37
-20.2146
-20.1123
-20.0049
-19.9125
-19.832
-19.7641
-19.7063
-19.6552
-19.6091
-19.567
-19.5551
-19.4442
-19.2962
-19.2016
-19.1073
-19.0309
-18.9692
-18.9215
-18.8858
-18.8583
-18.8353
-18.8118
-18.7952
-18.5185
-18.3763
-18.2903
-18.2108
-18.1518
-18.1107
-18.0857
-18.074
-18.0724
-18.0768
-18.084
-18.1049
-17.5894
-17.455
-17.3785
-17.3151
-17.276
-17.2578
-17.2577
-17.2733
-17.3
-17.3341
-17.3735
-17.4265
-16.6638
-16.5354
-16.4689
-16.4237
-16.407
-16.4147
-16.4431
-16.4873
-16.5435
-16.6071
-16.6759
-16.7629
-15.7373
-15.6173
-15.5626
-15.5384
-15.5486
-15.5864
-15.6463
-15.7227
-15.8091
-15.9001
-15.9886
-16.0795
-14.8154
-14.7016
-14.6619
-14.6641
-14.7069
-14.7811
-14.8779
-14.9901
-15.111
-15.2346
-15.3571
-15.4939
-13.893
-13.7884
-13.7701
-13.8085
-13.8941
-14.0126
-14.152
-14.3033
-14.4597
-14.6159
-14.765
-14.913
-12.9667
-12.8758
-12.8944
-12.9868
-13.1289
-13.3003
-13.4873
-13.6801
-13.8723
-14.0592
-14.2348
-14.4048
-12.029
-11.9708
-12.0582
-12.2336
-12.4492
-12.6805
-12.9144
-13.1435
-13.368
-13.5822
-13.7748
-13.9335
-11.0577
-11.1438
-11.3809
-11.6843
-11.9813
-12.2599
-12.5296
-12.7855
-13.0278
-13.2702
-13.4705
-13.6539
-1.51153
9.70877
-10.3086
-19.2166
-19.8569
-7.19991
-4.75741
32.7501
-44.7908
-39.9603
-35.0475
-14.8551
16.5882
-41.2461
1.38595
-6.75739
-41.2714
-30.5994
-30.0395
-6.48886
27.983
26.3247
17.7849
-16.1201
-0.857621
-10.8525
24.3648
0.646094
-42.5141
-37.8084
-42.4769
30.9146
9.58127
-34.6561
16.7938
18.0435
33.6642
-30.8181
33.2344
-14.7596
2.32282
-1.99094
24.6823
-0.419923
33.4336
26.1242
19.0532
19.9917
33.3649
27.9716
18.7594
32.5677
30.9377
1.49093
-36.959
9.41829
12.9041
-2.36881
-31.5739
0.921453
24.1693
30.3291
1.53639
-3.96685
17.5255
9.71185
-13.6885
30.4921
16.3352
-39.4151
-37.0558
13.9388
33.1334
-13.2567
-15.4929
2.61661
-44.3284
-1.67797
10.0152
28.8018
2.66432
-1.93252
33.9141
32.5579
1.96513
-44.3985
-13.7142
0.919624
-39.5742
33.5431
27.9871
-41.322
-0.226457
7.82809
34.3248
-4.18771
0.51626
-1.90758
-0.642107
-13.3459
-15.8562
14.5775
5.57205
8.91226
-1.70937
33.9714
1.83119
33.2504
-13.6622
0.350613
17.979
-2.06977
30.5197
-7.73163
1.68693
15.6665
-19.9036
-6.20097
-45.7005
-33.3362
-10.6052
-21.5298
-42.0203
15.4071
-18.1223
-40.3273
-1.92276
11.6047
19.3705
1.03081
31.5957
1.40016
21.4162
8.84741
23.5182
10.7801
34.0285
-39.3998
31.5452
10.3897
-19.15
28.7193
27.1229
0.538256
30.8962
-37.1303
31.6714
-10.6841
-47.9229
3.35593
0.321668
16.647
-1.66775
4.7634
22.1789
3.22727
31.8296
-1.35028
-41.7128
-14.5818
-22.0911
-6.32608
-30.1841
-15.0633
24.1412
26.3774
31.5948
34.3122
10.9011
1.48682
-38.11
-18.0681
-36.9183
-19.2511
-1.10234
-41.2491
1.95432
32.3909
25.2138
-36.982
31.0682
-32.2836
-7.56597
33.4017
6.30579
31.4887
3.49407
-1.70588
31.7775
1.62161
-40.3788
-1.74517
31.9151
-5.90094
32.0477
8.0604
26.9526
30.4002
2.38184
-61.4229
-47.5675
32.4141
34.3551
31.1708
32.8672
14.1223
-7.97466
-36.2495
-13.8279
-15.9304
4.30729
-46.9818
33.4128
34.2282
1.93909
31.1852
-11.1909
-13.1308
-63.5323
30.5447
32.4363
-47.829
33.5686
-3.23904
-3.26709
-39.9206
-44.807
-2.07337
-56.4297
20.0277
33.7385
-17.1118
-2.30155
-13.0099
-13.3751
27.404
31.2411
-47.3667
-1.80722
32.8943
-33.3321
19.455
-40.7468
-45.9351
33.0711
2.45057
19.8825
6.01827
-42.4817
31.3422
-40.1267
-13.3929
-40.3665
-71.5385
28.2597
-31.6903
0.0948791
32.6677
-42.1992
33.4
-15.2349
27.0936
17.3274
-8.60962
-14.3254
27.5834
-46.58
32.7187
-3.68253
6.48109
0.17725
18.6138
-45.2877
33.0931
32.8854
-44.4152
21.8576
34.4528
34.2539
32.6632
32.6386
23.365
33.6995
33.1971
-25.4647
27.4654
-33.0659
33.228
-50.0976
29.5071
32.6455
-42.3228
34.9562
34.9491
30.4558
32.0088
28.0431
30.7005
23.9776
34.247
29.0809
-0.741218
-10.8245
-37.5661
22.3455
-46.5051
34.4992
1.55038
14.3868
16.6655
-27.9375
34.7071
3.44697
-50.9239
32.5037
24.3755
34.9042
-31.4233
2.01236
27.8128
22.046
-41.8218
-15.3305
69.7061
34.239
-30.7855
-26.2035
-2.31633
2.575
34.7398
-4.0839
0.640641
-41.827
-2.27032
2.63713
4.2489
-1.70757
14.9905
2.158
6.52432
-0.323193
33.0154
0.121636
29.3957
12.9123
31.6242
33.6237
-42.1355
-60.7301
-12.6694
-0.17021
-4.06268
13.8574
26.0112
34.797
-1.17882
-25.346
33.5388
-46.1392
-40.0124
30.1011
33.7028
-49.0019
-61.3695
21.2618
-21.6337
-3.18216
0.32472
-1.55282
0.707321
-29.7905
30.2466
33.9942
-33.198
-41.7285
28.7305
33.1788
-48.2767
3.57208
-35.8022
-11.0462
-11.0819
-1.39278
33.1491
-67.0638
28.0379
-0.86497
21.7732
28.6232
19.7466
3.5048
-37.2332
-35.6886
30.765
30.2909
-3.02423
-55.7613
-2.80583
-33.8538
-26.8305
13.1528
-14.3693
-12.9828
14.1073
-43.4329
30.9288
-48.796
-41.2343
31.3149
33.3119
-2.21853
-0.821482
1.55669
-49.2655
12.7162
28.7867
-62.5219
30.4042
30.6389
3.41166
0.202543
30.6394
1.6971
-3.00134
32.5319
0.583966
-21.6433
-47.3119
33.9102
0.580409
-14.0846
-11.2362
-31.4656
29.4253
-32.5514
1.9633
-41.4945
-37.3274
28.6094
-6.84194
34.5697
33.2528
12.9852
32.0709
8.54985
-14.4578
-6.82791
31.8917
27.0096
2.12668
-37.5278
29.7144
33.4661
10.746
-41.8303
28.3663
9.66307
34.798
34.233
-32.4331
28.6086
-10.422
22.8583
-4.52622
-50.1396
-28.1423
2.28271
29.3302
22.8504
33.354
-25.8524
33.6562
19.1354
0.823609
-38.0165
-46.7775
30.8413
1.99124
31.8788
-13.1568
0.115801
33.5103
33.2828
-23.2124
-20.629
30.208
34.1742
-6.22574
-19.4049
-42.8956
-22.353
0.944955
32.4125
-57.7277
-17.2725
30.5445
-23.7898
-1.02662
33.1338
33.928
-40.5087
31.0784
33.6241
2.45384
26.293
34.3916
22.9637
-48.3237
31.0994
-37.6742
31.7016
-49.5387
-13.7775
-36.8351
2.00609
-15.7091
31.4397
-37.6468
-13.9789
21.4093
15.8633
-12.5256
1.31248
31.556
-0.694137
3.7719
-14.8048
33.6809
30.2585
-38.9828
34.9539
-15.2383
-17.4598
-37.2822
-2.15895
25.9695
-47.4008
-36.3909
30.3884
-42.5659
-7.71211
-17.8141
-21.4706
-48.2461
-43.3064
-1.82932
-26.3765
1.9568
19.6123
9.06663
13.8134
-17.3891
28.4737
33.6715
-30.3884
26.2231
29.0597
-13.8712
0.00805684
-0.106153
16.657
-13.4323
30.6453
-39.1193
-31.5301
-25.9522
31.7888
0.499832
16.9992
27.6795
10.862
-49.676
24.3569
30.003
30.3205
12.4573
0.450095
-9.38819
-2.67427
-36.0462
-36.1247
33.071
-43.7469
4.26552
-45.8301
25.0433
33.0045
27.5529
-43.9617
0.130281
-32.4615
1.30789
28.5277
-13.3952
32.2827
-36.708
-0.0880339
-46.0913
-40.8498
33.4608
1.83871
-0.660901
-26.6603
-17.3402
11.7118
11.9938
8.30442
-12.7968
-6.26463
7.62104
29.7406
-29.2461
-33.8716
-1.86131
0.820974
-44.4465
34.1617
32.6956
33.5988
10.7179
29.3629
-6.83682
-30.694
25.676
-1.78595
11.3481
30.2423
1.56021
14.4133
33.874
-50.3705
-50.7111
3.39489
-13.0612
29.1765
-49.7369
19.3729
25.1678
32.2125
-2.12204
31.985
29.4067
23.5546
-22.1532
-9.39004
-0.321465
-48.2333
-50.96
32.2003
-60.8105
4.45216
2.76269
-45.9054
-31.0136
10.4447
1.96413
-41.9242
-1.12056
-36.3
31.7158
-31.2638
2.02353
-45.9067
-0.0556659
32.8856
-37.7955
33.5812
17.0764
25.4816
-48.4528
-1.14369
19.0926
-48.1163
31.7541
-36.8397
-3.98172
-40.3367
-17.9674
1.34494
2.35872
24.1739
-15.0303
32.2644
4.06476
-25.4102
34.2335
34.3042
-38.7188
23.5397
-38.4757
33.8133
27.4067
33.082
-2.17946
13.5333
-1.13195
1.50352
30.1588
2.13799
34.8894
-10.6979
-35.4052
1.45865
28.6794
34.1123
-37.1414
-5.31337
-26.728
18.8935
-52.801
-17.3549
-28.6039
-40.6108
-1.86534
0.84506
33.2053
20.6277
34.3399
29.6527
3.82776
34.8362
34.9155
32.8925
-37.0523
-16.6337
32.8877
-0.533013
4.46283
-56.586
33.4982
1.2616
15.1421
-38.4377
6.44645
-2.37119
-41.5413
2.0542
-26.6077
-57.9189
6.35012
32.1525
-1.61947
23.0342
32.7934
1.41701
-8.69819
-1.28428
7.34558
-9.47238
-52.4276
-32.0855
27.6011
29.3695
1.92141
-13.8775
-0.634741
-0.648556
-21.2373
14.8983
30.6167
16.5076
-43.6549
-2.86912
-109.938
-0.506604
-10.291
33.0057
30.1056
-1.66018
31.6937
-17.4866
29.2847
-10.4849
-42.7112
-43.93
31.3883
-24.7436
-15.0093
17.3424
8.05727
27.3584
-58.0204
-13.349
29.0358
0.119602
32.56
-8.11892
-39.5387
-44.9468
-16.1661
-13.9776
-43.1437
-23.8662
6.08248
34.3736
29.1904
-12.4079
7.35046
-3.33209
33.8417
-37.4054
-5.30665
-42.2569
-28.3774
25.943
24.2429
-48.3397
-11.1444
27.6852
-12.2068
-38.923
-38.7163
0.209635
-43.2188
-15.7617
34.1372
32.4846
30.5673
0.113574
-10.7378
-2.82264
1.74869
2.38277
31.0467
23.1994
20.4824
-37.8739
0.665735
-43.7976
15.57
23.5983
1.95708
-38.5739
-4.1919
26.4399
-42.6961
23.7775
30.6366
28.5198
-2.12413
26.3506
-38.1647
10.2428
14.1347
31.9724
-39.9686
28.0088
16.0805
-15.3867
-13.9888
26.9793
-26.9054
-28.8916
30.8749
0.41754
-50.6025
15.3054
12.6142
-9.05578
-58.3956
26.869
-0.424937
1.19831
-45.3468
29.9377
-48.615
1.3883
-36.3589
-38.1921
33.7616
6.52061
33.5866
-29.9291
6.56181
29.3279
-2.04941
-50.3317
34.0856
34.0221
34.6386
3.19288
1.99485
15.4299
-41.3326
-40.5931
-32.0405
0.323266
-14.3856
3.88942
12.7774
-39.7164
25.044
27.7165
28.0079
16.8942
33.3537
32.6238
-37.5236
0.00679133
34.2917
-32.3082
31.6937
1.1514
-41.6912
-4.33768
1.98096
4.47976
29.8319
-20.8228
-10.8178
26.3729
-54.7536
-4.70329
3.80049
16.3249
23.1413
-11.7448
27.9147
2.61429
-3.12748
-13.7405
13.9227
-12.9839
-40.9048
33.2475
-16.574
22.2405
-35.6764
28.3166
30.4536
32.3705
-40.4948
31.8767
1.66877
32.8128
-10.5735
-2.2625
-41.3835
30.0152
21.1454
25.7234
-8.22027
-44.0123
-35.8615
-0.414581
34.1245
2.73923
33.1901
-31.5341
33.2044
-2.03549
-45.3649
34.2538
-35.5515
33.1189
32.9914
-15.1151
-29.5382
23.7313
0.626397
15.0992
34.9205
-1.37921
-48.2953
32.2826
-2.32817
-15.448
10.6853
33.2677
33.6728
-31.4992
31.4343
32.6517
-10.2922
31.5617
27.0204
30.5854
31.2982
1.56161
-1.61601
-40.2621
-6.00694
-38.8833
32.9995
-0.808356
-36.8728
33.2249
-2.27766
30.064
25.2497
31.1486
31.0625
18.4321
-41.1715
-38.1739
30.802
-33.1003
-21.2882
26.1204
33.8681
-45.5452
-30.7042
-38.5912
-21.5058
-15.8922
28.5316
-9.8826
-18.2689
-31.1189
-0.441719
-40.5815
33.0399
12.659
1.70927
-3.20555
-3.20667
31.5025
-2.11195
32.6855
-0.164239
31.7906
-7.40104
3.34944
-46.3819
33.7315
1.88267
31.4899
33.7561
-25.0791
27.0593
-17.8705
32.2716
-1.61896
30.3538
21.4524
2.92918
10.3907
34.4824
30.9577
-0.140379
2.31272
33.7329
2.32829
28.6956
-31.3627
-31.5377
31.335
-19.2652
18.8107
-100.842
-44.9356
33.5162
-53.7458
-41.455
2.31057
31.1344
-43.0735
-44.4746
2.46815
26.4051
-1.20396
-7.25333
30.6221
-10.4832
-17.3585
6.32749
-13.8771
-62.0423
13.9523
-1.1586
25.0341
0.472801
10.4802
24.7294
-64.6495
24.6571
5.48185
-3.15689
-47.6633
26.8693
4.72172
7.88318
27.8753
24.5468
33.6665
34.7277
-15.0227
-1.39813
-13.6568
2.63325
39.3292
26.7189
-87.8062
29.5237
-29.8724
1.10466
-50.7341
-0.330217
2.74627
11.6268
30.7687
31.6866
-48.1349
2.64206
-16.9663
-1.91354
27.2525
-48.2246
0.949445
32.9991
1.38627
1.1094
5.79055
16.4227
-13.2165
-40.6068
-22.1804
2.97839
-2.63348
31.3929
32.4265
32.1379
-44.8417
27.6006
31.3206
2.88157
11.4046
-35.2478
32.4821
-14.2186
14.104
1.29036
34.1249
-2.04983
31.9498
32.1905
-7.64898
-12.1772
33.2151
-16.4528
21.8003
1.67023
-35.9986
-40.7805
33.1618
-2.86252
-17.8751
-35.3422
-20.3005
23.3233
-38.7322
1.95665
1.53411
0.316513
-19.6484
33.9727
-47.0196
0.244703
34.861
-43.5485
29.7671
25.6962
-19.0922
14.1025
1.71596
20.504
30.4623
31.2485
-1.039
-40.5277
-2.35405
-16.8487
-17.0902
-44.2261
21.6103
-39.8733
-41.5206
8.90325
14.5459
2.25742
-1.6652
6.3262
-12.6575
-7.35188
0.963883
-44.044
33.3933
-0.583161
31.4929
-34.9024
3.53398
1.89545
-62.3628
31.4388
-35.7659
-20.81
23.5532
30.2916
-27.0115
20.2104
-40.0726
33.0508
32.6474
34.7959
25.8433
33.7724
31.8041
-18.4933
33.7086
3.71748
33.3286
15.4464
28.4473
-22.9029
29.3645
-32.9963
11.3403
34.4982
23.0346
34.2955
33.3732
34.6
-28.1207
-3.82818
8.57864
2.09865
-20.3499
-39.3714
1.93393
-45.093
2.59584
15.4198
32.8995
30.9633
-43.4651
-22.7241
22.8402
-46.3383
-7.21134
34.5395
-2.81396
32.3633
-49.2543
0.775853
-15.9538
-4.19045
21.4195
32.2062
30.865
25.3503
31.5583
-1.80273
21.1879
30.5593
-46.7155
5.89935
14.3471
29.3262
31.4847
-19.0309
32.0481
-16.839
-7.39607
-12.5813
1.21848
-8.95113
32.4807
-41.5761
33.3065
29.7228
-26.7537
-30.0124
25.8106
1.44968
32.8997
1.24009
1.62773
-0.748841
16.0371
32.1447
28.6414
-38.4426
33.0747
32.6658
6.31789
3.49976
26.5306
26.63
19.8716
33.1019
-22.4577
33.5615
-0.838771
33.714
7.69007
7.34193
1.93176
-37.5708
-19.1512
28.7867
-26.2814
-42.0509
-46.0021
2.01511
-40.1618
34.5441
33.833
-0.335548
-9.59829
28.0763
32.7309
-35.1129
31.8977
-1.74658
-37.1832
3.08955
32.3483
-16.321
31.1438
13.6595
-12.3285
-0.66232
43.5755
-0.893729
-45.0975
18.2033
3.31354
16.3239
30.705
-1.39553
-0.602055
-1.89999
16.0585
32.9163
-25.9225
-3.49838
31.6103
25.0824
34.0989
1.85163
34.4751
25.9103
27.8126
-21.8925
33.673
-16.0161
34.8269
-11.0359
30.8283
32.2958
33.9251
-0.742659
26.0026
32.585
31.903
7.62459
0.81097
31.3788
23.9708
1.73466
-4.78632
-50.7257
0.913655
-37.1445
-45.3314
32.9798
33.5741
-27.2266
24.6969
-31.7016
-52.1813
-25.8373
-13.3703
-35.9552
34.7806
28.4327
-1.48648
33.8316
-5.61123
-0.816349
2.92491
-0.21761
1.89901
4.17683
-25.6964
-100.28
-31.4019
8.13065
-37.821
29.1179
-3.71379
30.9831
28.409
-21.3938
27.1203
-43.4178
34.6849
24.7251
20.2514
-2.00246
2.23408
16.4976
21.3969
33.6455
32.8214
-44.0834
27.9062
30.9254
-9.0074
32.8818
33.3688
-1.13716
32.8032
-42.4152
4.05545
-18.5834
14.8398
-18.3197
33.0215
-32.1609
-15.9458
7.04739
-33.0326
5.3121
-10.4807
1.19722
-18.6858
-40.3559
-25.6269
-0.64203
-1.4447
25.643
32.4812
-38.2124
31.237
-24.4729
33.3051
32.1832
2.0243
33.6204
-1.26769
-33.1774
27.9864
-31.7773
24.2366
-49.5413
-16.0633
33.5936
33.8505
-50.5662
32.4906
-14.2879
34.6228
-38.7952
22.851
-31.6164
33.922
12.0564
5.43092
-41.0618
-32.2185
1.7097
-0.122494
-6.96311
-5.50421
34.4047
-0.920274
33.0507
30.2893
31.8844
-43.202
2.92396
-33.8317
30.4092
34.1806
32.1973
32.9079
-42.3676
-5.05127
1.62496
3.43621
-28.8581
2.90976
33.5274
31.342
5.20218
-17.6195
-35.9837
34.0544
33.0435
1.87956
31.2076
-27.0658
8.71783
11.549
34.254
33.5294
-9.85328
26.5605
-1.45938
2.72847
34.64
7.32479
-19.6831
2.46183
32.5992
-9.8817
23.7489
-50.1421
16.2261
-28.0632
-40.5661
6.43399
3.43944
-9.85552
0.808843
30.7838
33.4184
32.4242
-1.11687
22.8855
-27.9185
8.40301
-13.1698
-16.8204
-0.314856
2.12638
14.6182
-11.7767
0.710585
28.8858
4.0375
-46.0714
-5.95234
-7.49418
-22.5237
23.2174
13.9086
21.3906
-48.2609
12.3565
-1.91947
32.4547
30.9388
-40.3041
0.0218067
34.791
31.3383
-4.36344
32.1845
-28.2124
-26.5699
5.69203
26.4901
-9.29201
30.9012
-48.046
-40.1182
11.0573
-30.3665
-1.51733
33.5408
-1.8313
-23.4765
14.6269
31.2216
-27.8325
-38.2358
16.6819
-13.893
-0.801733
-32.9514
-10.6312
3.23258
-3.686
34.1155
33.6554
25.1474
14.0081
29.398
-6.39464
1.55669
2.42134
-40.4554
-15.2268
-36.2062
26.4183
33.6577
32.8129
-21.2135
17.2454
2.79977
-1.24181
29.4113
-26.6827
-38.8981
-14.5217
4.11058
-16.1146
20.4285
34.354
33.1889
-25.63
34.4217
-40.5986
-0.705276
4.19891
-17.5067
33.811
-41.0107
32.8588
34.6816
8.0527
-48.85
-2.71047
31.6805
19.7981
20.0051
-1.62022
21.5043
17.712
-37.6562
-32.9034
-1.0072
32.3836
-3.22189
33.5526
-42.9771
-1.68167
21.155
-0.385498
29.347
-26.3673
26.8762
-1.64432
29.5019
33.7634
31.6136
-38.4753
19.8946
-36.9304
3.58803
-14.4791
34.3239
-49.8684
-12.4294
-8.48702
-4.31648
33.6314
6.55465
-13.5647
1.34121
-24.4653
1.91265
7.58922
-0.0298259
-3.16345
-16.5771
-13.2669
1.19635
-43.683
-17.3044
-26.1684
-38.023
-8.68092
-2.54004
34.3583
-6.49558
0.908997
-29.5424
-11.0301
-43.9481
21.8634
-12.2803
10.523
-0.948511
-7.58366
-22.7076
20.4098
-36.0625
-12.5881
-11.222
-26.8759
33.6662
-41.0272
3.47622
-0.306959
-43.1532
-11.83
12.1332
18.4378
1.48557
-40.5271
5.66861
-30.6959
-40.4947
33.0124
-2.41886
34.4472
1.2418
-14.1452
31.3035
1.81782
34.4982
-30.0491
1.68799
32.8314
1.57844
13.663
15.069
3.9919
-23.8252
29.111
-43.8125
-27.6026
-48.2651
11.8318
32.9906
29.8039
-42.3063
-17.063
2.04836
-58.2854
23.7718
-43.6512
13.0174
-18.511
0.25329
-2.66254
31.289
-14.6351
31.1362
-28.5337
31.318
-2.60095
1.95695
4.33095
22.5607
12.0506
-23.1008
-1.87962
-30.4945
32.0929
18.3101
-16.1678
-38.4873
0.220909
27.8973
0.856347
1.87362
30.9266
-41.2347
-25.5345
16.3905