/*--------------------------------*- C++ -*----------------------------------*\
| =========                 |                                                 |
| \\      /  F ield         | OpenFOAM: The Open Source CFD Toolbox           |
|  \\    /   O peration     | Version:  2.3.1                                 |
|   \\  /    A nd           | Web:      www.OpenFOAM.org                      |
|    \\/     M anipulation  |                                                 |
\*---------------------------------------------------------------------------*/
FoamFile
{
    version     2.0;
    format      ascii;
    class       volScalarField;
    location    "0.9";
    object      p;
}
// * * * * * * * * * * * * * * * * * * * * * * * * * * * * * * * * * * * * * //

dimensions      [0 2 -2 0 0 0 0];

internalField   nonuniform List<scalar> 
768
(
-0.0363582
-0.0361561
-0.036037
-0.0361659
-0.0365171
-0.0369247
-0.0372114
-0.0372802
-0.0371653
-0.036957
-0.0367117
-0.0364845
-0.0336378
-0.033863
-0.0344216
-0.0352047
-0.0360199
-0.0366666
-0.0370001
-0.0369771
-0.036627
-0.036004
-0.0352975
-0.0346279
-0.0320386
-0.0326375
-0.033836
-0.035211
-0.0364143
-0.0372314
-0.0375464
-0.0373312
-0.0366427
-0.0356857
-0.0346096
-0.033426
-0.0298085
-0.0309556
-0.0326446
-0.0343349
-0.0356863
-0.0364902
-0.0366762
-0.0362922
-0.0354636
-0.0343419
-0.0329837
-0.0313839
-0.0273336
-0.0287332
-0.0305252
-0.0322659
-0.0336075
-0.0343191
-0.0343535
-0.0338364
-0.0329081
-0.0316439
-0.0299753
-0.0280501
-0.024613
-0.0258428
-0.0274155
-0.028987
-0.0301982
-0.0307618
-0.0306275
-0.0299556
-0.0288843
-0.0273816
-0.0253911
-0.023378
-0.0218993
-0.0226238
-0.0237163
-0.0248731
-0.0257407
-0.0260267
-0.0256886
-0.0248307
-0.0234637
-0.0216394
-0.0194315
-0.0176711
-0.0194786
-0.0195804
-0.0201402
-0.0208182
-0.0211635
-0.0208597
-0.0199574
-0.0186768
-0.0170285
-0.0149442
-0.0127462
-0.011515
-0.0174542
-0.0170616
-0.0172854
-0.0176335
-0.0174562
-0.0163167
-0.0143551
-0.0121435
-0.0101209
-0.00810125
-0.0063197
-0.00567156
-0.0154885
-0.0147305
-0.0148191
-0.0149626
-0.014389
-0.0126346
-0.00979297
-0.00657814
-0.00385333
-0.00207303
-0.00104685
-0.00100731
-0.012903
-0.0118315
-0.0121622
-0.0123407
-0.0116319
-0.0095384
-0.00635187
-0.00276443
0.000382655
0.00231575
0.00279636
0.00211283
-0.0103634
-0.00930145
-0.00974732
-0.0102873
-0.00932977
-0.0070707
-0.00398686
-0.000638111
0.0023278
0.00431372
0.00486775
0.00399721
-0.0363698
-0.0364292
-0.0366239
-0.0369836
-0.037577
-0.0384749
-0.0397393
-0.0413316
-0.0428471
-0.0437033
-0.043725
-0.0432455
-0.034007
-0.0334579
-0.0331184
-0.0331527
-0.0337365
-0.0350225
-0.0371102
-0.0396901
-0.0420811
-0.0433821
-0.0432287
-0.0421202
-0.0321605
-0.0310411
-0.030462
-0.0305421
-0.0312429
-0.0325665
-0.0345879
-0.0372476
-0.0400077
-0.0418079
-0.0419483
-0.0409646
-0.0297495
-0.028586
-0.0281129
-0.0282398
-0.0289049
-0.0301009
-0.0318064
-0.034018
-0.0365376
-0.0387238
-0.039631
-0.0392522
-0.0264389
-0.0256366
-0.0255509
-0.0259687
-0.0267567
-0.0278642
-0.0293005
-0.031044
-0.0329479
-0.0348405
-0.0364616
-0.0370748
-0.0221777
-0.0219437
-0.0223351
-0.023114
-0.0241515
-0.0253838
-0.0268067
-0.0283658
-0.0298209
-0.0309367
-0.0324314
-0.0344815
-0.017195
-0.0176985
-0.0186334
-0.0197979
-0.0211409
-0.0226292
-0.0242038
-0.0257685
-0.027105
-0.0278308
-0.0287539
-0.0316095
-0.0119388
-0.0132867
-0.0148202
-0.0163948
-0.0180476
-0.0197731
-0.0214865
-0.023056
-0.0243363
-0.025104
-0.0259156
-0.0284371
-0.00689793
-0.0090369
-0.0111634
-0.0131498
-0.0150957
-0.0170119
-0.0187957
-0.0202605
-0.0212953
-0.0218259
-0.0225104
-0.0244323
-0.00257744
-0.00518224
-0.00780751
-0.0101859
-0.0124013
-0.0144654
-0.0162624
-0.0175621
-0.0181612
-0.0179166
-0.0175815
-0.0182295
0.000428573
-0.00208175
-0.0048737
-0.00755356
-0.0100264
-0.0122358
-0.0140363
-0.0151622
-0.0152771
-0.0140509
-0.0117026
-0.00886722
0.00216742
-9.77383e-05
-0.00261496
-0.00528497
-0.00792069
-0.0102965
-0.0121671
-0.0132301
-0.0131217
-0.0112648
-0.00722237
0.000305271
-0.0363888
-0.0361861
-0.036066
-0.036194
-0.0365447
-0.036952
-0.0372386
-0.0373072
-0.0371922
-0.036984
-0.0367387
-0.0365117
-0.0336697
-0.0338942
-0.0344524
-0.0352354
-0.0360504
-0.0366968
-0.0370295
-0.0370054
-0.0366537
-0.0360304
-0.035325
-0.0346569
-0.032074
-0.032672
-0.0338708
-0.0352464
-0.03645
-0.0372662
-0.0375787
-0.03736
-0.0366686
-0.0357107
-0.0346354
-0.0334522
-0.0298472
-0.0309939
-0.032684
-0.0343752
-0.0357263
-0.0365285
-0.0367106
-0.0363208
-0.0354875
-0.0343637
-0.0330048
-0.0314047
-0.0273759
-0.028776
-0.0305695
-0.0323108
-0.0336512
-0.0343595
-0.0343881
-0.0338631
-0.0329289
-0.031661
-0.0299896
-0.0280641
-0.024659
-0.0258899
-0.0274648
-0.0290373
-0.0302465
-0.0308048
-0.0306624
-0.0299819
-0.0289021
-0.0273942
-0.0254001
-0.0233895
-0.0219482
-0.0226744
-0.0237694
-0.0249275
-0.025793
-0.0260725
-0.0257245
-0.024856
-0.0234811
-0.0216507
-0.0194405
-0.0176868
-0.0195299
-0.0196327
-0.0201943
-0.0208727
-0.0212148
-0.0209043
-0.0199933
-0.0187038
-0.0170477
-0.0149586
-0.0127613
-0.0115391
-0.0175083
-0.0171162
-0.0173413
-0.017689
-0.0175066
-0.0163575
-0.0143867
-0.01217
-0.0101453
-0.00812488
-0.0063434
-0.00570355
-0.0155465
-0.0147896
-0.0148802
-0.0150237
-0.0144424
-0.0126744
-0.00981995
-0.00659934
-0.00387648
-0.00210015
-0.00107707
-0.00104253
-0.0129679
-0.0118959
-0.0122277
-0.0124038
-0.0116867
-0.00957861
-0.0063777
-0.0027825
0.000363861
0.0022908
0.00276566
0.00207652
-0.0104349
-0.00937408
-0.00982004
-0.0103522
-0.00938399
-0.00711167
-0.00401528
-0.000658909
0.00230835
0.00429083
0.00483865
0.00396186
-0.0363979
-0.0364578
-0.036652
-0.0370109
-0.037603
-0.0384985
-0.0397584
-0.0413459
-0.0428582
-0.0437153
-0.0437391
-0.0432617
-0.0340365
-0.033487
-0.0331471
-0.0331811
-0.0337634
-0.035044
-0.0371246
-0.0396961
-0.0420815
-0.0433824
-0.0432346
-0.042132
-0.0321865
-0.0310686
-0.0304927
-0.0305742
-0.0312735
-0.0325919
-0.0346043
-0.0372528
-0.0400046
-0.0418047
-0.0419516
-0.0409758
-0.0297714
-0.0286122
-0.028142
-0.028269
-0.0289314
-0.0301226
-0.0318218
-0.0340263
-0.03654
-0.0387258
-0.0396392
-0.0392665
-0.0264574
-0.0256591
-0.0255732
-0.0259881
-0.0267722
-0.0278757
-0.0293091
-0.0310512
-0.0329554
-0.0348493
-0.0364736
-0.0370912
-0.0221964
-0.0219645
-0.0223529
-0.0231269
-0.0241598
-0.0253888
-0.0268107
-0.0283714
-0.0298302
-0.030949
-0.0324447
-0.0344971
-0.0172195
-0.017723
-0.0186525
-0.019811
-0.0211493
-0.0226347
-0.0242088
-0.025776
-0.0271167
-0.0278454
-0.028767
-0.0316241
-0.0119719
-0.0133179
-0.0148441
-0.0164122
-0.0180605
-0.0197834
-0.0214965
-0.0230685
-0.0243535
-0.025124
-0.0259334
-0.0284571
-0.00693778
-0.00907386
-0.0111925
-0.0131726
-0.0151144
-0.0170282
-0.0188115
-0.0202788
-0.0213185
-0.0218536
-0.0225406
-0.0244679
-0.00261935
-0.00522266
-0.00784142
-0.0102145
-0.0124263
-0.0144879
-0.0162838
-0.017585
-0.0181885
-0.0179497
-0.0176219
-0.0182839
0.000388363
-0.00212251
-0.0049116
-0.00758832
-0.0100586
-0.0122652
-0.0140632
-0.0151881
-0.0153055
-0.0140854
-0.0117485
-0.00893234
0.00212868
-0.000137118
-0.00265426
-0.00532429
-0.00795938
-0.0103326
-0.0121987
-0.0132573
-0.013148
-0.011298
-0.0072684
0.000228293
-0.00531282
-0.00763157
-0.00901231
-0.00904029
-0.00766077
-0.00533425
-0.00248941
0.000441857
0.00296228
0.00466162
0.0052856
0.00469944
-0.00691552
-0.00825287
-0.00870956
-0.00796578
-0.00627164
-0.00396361
-0.00137669
0.00113425
0.00320281
0.00455431
0.0050861
0.00468547
-0.00729155
-0.00767526
-0.00771616
-0.00690901
-0.00520992
-0.00296368
-0.000607149
0.00151643
0.00316992
0.00419604
0.00463595
0.00430464
-0.00713354
-0.00682692
-0.00668981
-0.00597653
-0.00437631
-0.00241215
-0.00046247
0.00126887
0.00264658
0.00348122
0.00392915
0.00354981
0.00314219
0.00104952
-0.00117328
-0.00350884
-0.00599355
-0.00840837
-0.0103855
-0.011548
-0.0115798
-0.0103202
-0.00783873
-0.00563188
0.00346616
0.00170501
-0.000276716
-0.00231393
-0.00442492
-0.00656353
-0.00846709
-0.00975445
-0.0101211
-0.00947751
-0.00813458
-0.00668035
0.00339832
0.00198772
0.000286897
-0.00152718
-0.00337802
-0.00519999
-0.00686351
-0.00812861
-0.00875615
-0.00865978
-0.00806472
-0.00752298
0.00293207
0.00191556
0.000562465
-0.000975994
-0.00259021
-0.00418204
-0.00567165
-0.00690938
-0.00772303
-0.00801628
-0.00790122
-0.00804753
-0.00538901
-0.00772147
-0.00910162
-0.00911464
-0.00771884
-0.00537833
-0.00252216
0.000416252
0.00293874
0.00463666
0.00525748
0.0046668
-0.00700056
-0.00835008
-0.00880433
-0.00804497
-0.00633319
-0.00401075
-0.001413
0.00110483
0.00317592
0.00452669
0.00505667
0.0046533
-0.00736422
-0.00775582
-0.00779928
-0.00698424
-0.00527204
-0.00301314
-0.000646563
0.00148333
0.00313942
0.00416533
0.00460434
0.00427108
-0.00719169
-0.00688865
-0.00675551
-0.00603994
-0.00443279
-0.00246086
-0.000504075
0.0012319
0.00261153
0.00344583
0.00389451
0.0035134
0.00310523
0.00101053
-0.00121256
-0.00354914
-0.00603477
-0.00844799
-0.0104199
-0.0115753
-0.0116019
-0.0103394
-0.00786735
-0.00566261
0.00343042
0.00166653
-0.000316419
-0.0023542
-0.00446573
-0.00660347
-0.00850283
-0.00978351
-0.0101444
-0.00949958
-0.00816604
-0.00673128
0.00336237
0.00194946
0.000247014
-0.00156787
-0.00341883
-0.00523993
-0.00690071
-0.0081612
-0.00878429
-0.00868636
-0.00809534
-0.00756109
0.0028942
0.00187629
0.000521935
-0.00101723
-0.00263141
-0.00422269
-0.00571085
-0.00694569
-0.00775589
-0.00804595
-0.0079265
-0.00806209
)
;

boundaryField
{
    rotor
    {
        type            zeroGradient;
    }
    stator
    {
        type            zeroGradient;
    }
    AMI1
    {
        type            cyclicAMI;
        value           nonuniform List<scalar> 
48
(
-0.00704613
-0.00654751
-0.00611255
-0.00528077
-0.00378605
-0.00203694
-0.000344563
0.00116751
0.00239504
0.00320737
0.00359768
0.00329891
0.002707
0.00178218
0.000549595
-0.00088567
-0.00242232
-0.00395135
-0.00536871
-0.00656212
-0.00739486
-0.00777705
-0.00779646
-0.00777455
-0.00710024
-0.0066047
-0.00617329
-0.00534038
-0.00384081
-0.00208506
-0.000386627
0.00112926
0.00235862
0.00317115
0.00356191
0.00326196
0.00266885
0.00174284
0.00050913
-0.000926921
-0.00246371
-0.00399211
-0.00540804
-0.00659908
-0.00742872
-0.00780777
-0.00782326
-0.00779592
)
;
    }
    AMI2
    {
        type            cyclicAMI;
        value           nonuniform 0();
    }
    front
    {
        type            empty;
    }
    back
    {
        type            empty;
    }
    procBoundary2to3
    {
        type            processor;
        value           nonuniform List<scalar> 8(-0.00558751 -0.00662043 -0.00746118 -0.00798655 -0.00543903 -0.00705602 -0.00741091 -0.00722277);
    }
}


// ************************************************************************* //
