/*--------------------------------*- C++ -*----------------------------------*\
| =========                 |                                                 |
| \\      /  F ield         | OpenFOAM: The Open Source CFD Toolbox           |
|  \\    /   O peration     | Version:  2.3.1                                 |
|   \\  /    A nd           | Web:      www.OpenFOAM.org                      |
|    \\/     M anipulation  |                                                 |
\*---------------------------------------------------------------------------*/
FoamFile
{
    version     2.0;
    format      ascii;
    class       surfaceVectorField;
    location    "0.9";
    object      Uf;
}
// * * * * * * * * * * * * * * * * * * * * * * * * * * * * * * * * * * * * * //

dimensions      [0 1 -1 0 0 0 0];

internalField   nonuniform List<vector> 
1460
(
(0.0968681 -0.0918128 -8.95303e-21)
(0.111042 -0.0856815 2.21182e-19)
(0.0883885 -0.0882564 -8.75494e-21)
(0.10962 -0.0785128 -1.3562e-19)
(0.0768446 -0.0808131 8.70803e-21)
(0.101546 -0.0705858 3.80822e-19)
(0.0636909 -0.0738537 -1.0256e-19)
(0.0881811 -0.0654894 -2.84714e-19)
(0.0507878 -0.0690794 9.75095e-20)
(0.0727983 -0.0631055 9.1725e-21)
(0.0393106 -0.0672311 -1.461e-19)
(0.0575963 -0.0631658 -8.40842e-20)
(0.0298061 -0.0686094 5.95487e-22)
(0.0436821 -0.0655919 1.04432e-19)
(0.0223545 -0.0726074 1.46009e-19)
(0.0323241 -0.0698538 -2.19332e-20)
(0.0169845 -0.0782106 6.1833e-22)
(0.0238211 -0.0758664 4.19904e-20)
(0.0133281 -0.0840728 6.1833e-22)
(0.0183429 -0.0829079 4.93204e-21)
(0.0109008 -0.0889917 9.87832e-20)
(0.0150877 -0.090142 8.34359e-20)
(0.0117225 -0.0983084 -2.23328e-20)
(0.00894029 -0.0930951 -1.17894e-21)
(0.122736 -0.0780571 8.6465e-20)
(0.12763 -0.0891059 7.87695e-20)
(0.118987 -0.0657402 2.58935e-19)
(0.129883 -0.0724161 2.19473e-20)
(0.108527 -0.0582798 9.26076e-20)
(0.123046 -0.0627528 1.03375e-19)
(0.0936853 -0.0561957 -1.67709e-19)
(0.109524 -0.0614852 -1.49943e-19)
(0.0770048 -0.0580041 -1.70928e-19)
(0.0925058 -0.0650529 -7.03762e-21)
(0.0603616 -0.062263 1.7203e-19)
(0.0741781 -0.0708047 -3.14613e-19)
(0.0450545 -0.0677908 8.40279e-20)
(0.0561729 -0.0773804 4.17947e-19)
(0.0322278 -0.0744608 -1.31105e-19)
(0.0393795 -0.0846363 -1.7877e-19)
(0.0226784 -0.082152 4.40018e-20)
(0.0250888 -0.0926422 -1.52082e-19)
(0.0165272 -0.0904393 8.64236e-20)
(0.0149352 -0.101318 -3.35653e-20)
(0.0115056 -0.100859 -4.02657e-20)
(0.00659509 -0.111871 9.98619e-21)
(-0.00542883 -0.128012 -5.75106e-20)
(0.00197068 -0.117195 -3.8287e-20)
(0.137672 -0.0798836 3.79945e-21)
(0.147258 -0.0912418 -4.28364e-20)
(0.136702 -0.0641531 -1.49513e-19)
(0.152129 -0.0708019 1.70613e-19)
(0.127279 -0.0612054 -1.49334e-19)
(0.145817 -0.0677623 -9.54192e-21)
(0.112096 -0.0662344 4.86206e-21)
(0.132808 -0.0745099 -7.72877e-20)
(0.0937481 -0.0745729 -1.57117e-19)
(0.115574 -0.0845803 3.70697e-19)
(0.0738653 -0.0838725 -7.51027e-20)
(0.0956945 -0.0948963 -3.13891e-19)
(0.0539067 -0.093369 1.60891e-19)
(0.074282 -0.104488 3.17038e-19)
(0.0359731 -0.102603 -2.06809e-19)
(0.0524988 -0.113387 -1.55963e-19)
(0.0214772 -0.111383 -2.41237e-19)
(0.0328092 -0.121981 -2.05335e-19)
(0.00924061 -0.121932 -1.16406e-19)
(0.0155273 -0.131481 9.62473e-20)
(-0.00591793 -0.138807 -2.7482e-21)
(-0.00347699 -0.145413 -7.89339e-20)
(-0.0291336 -0.168727 7.47164e-20)
(-0.0275996 -0.164639 7.50043e-20)
(0.159049 -0.0800166 1.10678e-19)
(0.167215 -0.0971369 2.97805e-20)
(0.160237 -0.0715334 3.20011e-19)
(0.172733 -0.0808851 1.42959e-19)
(0.151495 -0.0788884 6.81013e-20)
(0.168289 -0.0886613 6.90493e-20)
(0.136874 -0.0914285 2.94663e-19)
(0.157358 -0.102499 1.18963e-19)
(0.118348 -0.104272 2.24039e-19)
(0.141192 -0.116218 3.64641e-19)
(0.0971454 -0.115838 8.01873e-20)
(0.120541 -0.127709 -1.3786e-19)
(0.0742426 -0.125702 -6.33424e-21)
(0.0968855 -0.136848 -1.83395e-19)
(0.0509289 -0.133949 -1.56302e-19)
(0.0717274 -0.144633 -8.49441e-20)
(0.0283152 -0.142157 1.40307e-19)
(0.0462313 -0.151849 -1.28361e-19)
(0.00438085 -0.154926 1.40307e-19)
(0.018797 -0.161002 8.82219e-20)
(-0.0250104 -0.176636 -2.69752e-21)
(-0.0140303 -0.177331 1.0919e-19)
(-0.0509405 -0.202639 -7.80604e-20)
(-0.0555827 -0.203762 -1.61919e-20)
(0.175853 -0.0922774 4.58225e-20)
(0.183144 -0.108905 6.75687e-20)
(0.179475 -0.09534 -1.17601e-19)
(0.18934 -0.103751 -3.17719e-20)
(0.173427 -0.110509 1.20642e-19)
(0.188764 -0.120816 9.0129e-20)
(0.161336 -0.126167 1.86943e-19)
(0.182083 -0.138445 1.05264e-19)
(0.1437 -0.139568 1.54673e-21)
(0.168851 -0.152963 5.85419e-20)
(0.121353 -0.150005 -4.0936e-19)
(0.148754 -0.162809 4.06381e-20)
(0.0958993 -0.157684 -2.64435e-19)
(0.123203 -0.168807 -3.37104e-19)
(0.0684024 -0.163531 -5.56014e-20)
(0.0948374 -0.173709 2.50664e-19)
(0.0376702 -0.170599 -1.86697e-19)
(0.0634739 -0.178458 -1.31845e-19)
(0.00127695 -0.184515 5.64302e-20)
(0.024717 -0.186403 -2.09672e-21)
(-0.039457 -0.205854 3.43485e-20)
(-0.0207779 -0.202552 6.31484e-20)
(-0.0637687 -0.223162 -7.73648e-20)
(-0.0734448 -0.22613 -1.56789e-20)
(0.188867 -0.115152 -9.85895e-21)
(0.192151 -0.127722 -2.50305e-19)
(0.195832 -0.128831 1.79778e-19)
(0.200814 -0.135919 -7.04604e-20)
(0.194722 -0.148449 7.83098e-20)
(0.205173 -0.158716 7.37883e-20)
(0.187448 -0.165189 -2.17148e-20)
(0.204745 -0.178364 -1.05733e-19)
(0.17287 -0.177218 9.91053e-20)
(0.197391 -0.192331 -2.24458e-20)
(0.150842 -0.184289 1.167e-19)
(0.181167 -0.199552 1.82464e-19)
(0.122749 -0.187547 1.89432e-19)
(0.155876 -0.201377 -7.36992e-20)
(0.0898381 -0.189749 1.76755e-19)
(0.12346 -0.201146 2.59101e-19)
(0.0501196 -0.195241 5.44617e-20)
(0.0844031 -0.201201 -8.54839e-20)
(0.00258156 -0.207449 6.0283e-21)
(0.0348574 -0.205876 -1.23611e-20)
(-0.0453997 -0.22292 -4.84334e-20)
(-0.0202358 -0.218033 9.8279e-21)
(-0.0660324 -0.229729 2.6611e-20)
(-0.0797184 -0.232765 0)
(0.196537 -0.14494 -3.08597e-19)
(0.194288 -0.151544 -1.49136e-19)
(0.206759 -0.166654 -1.68033e-19)
(0.205331 -0.171265 -2.84993e-20)
(0.211572 -0.189417 -9.84365e-20)
(0.213606 -0.196661 3.60762e-20)
(0.211423 -0.206526 -9.30138e-20)
(0.219442 -0.21611 -2.11001e-19)
(0.20354 -0.21647 6.77185e-20)
(0.219929 -0.227842 5.35309e-20)
(0.185531 -0.219511 -1.14608e-20)
(0.211785 -0.232268 5.32722e-20)
(0.156472 -0.217418 -1.74086e-21)
(0.192142 -0.231178 -1.87065e-19)
(0.11718 -0.21389 -6.49426e-21)
(0.159217 -0.22658 1.8412e-19)
(0.0679722 -0.214948 -1.54802e-19)
(0.11179 -0.220645 -8.74784e-20)
(0.0110121 -0.221254 -3.70924e-21)
(0.051751 -0.217949 -5.72277e-20)
(-0.0420161 -0.227438 8.64811e-20)
(-0.0110562 -0.222552 3.92087e-20)
(-0.0597016 -0.224403 1.07045e-20)
(-0.0767066 -0.227346 1.99018e-21)
(0.198527 -0.175746 1.31407e-19)
(0.191853 -0.175721 4.71781e-21)
(0.209265 -0.20153 1.81219e-19)
(0.202278 -0.201839 1.2692e-19)
(0.218093 -0.22396 -6.65414e-20)
(0.210351 -0.224483 6.07972e-23)
(0.224618 -0.238652 -6.70446e-20)
(0.218336 -0.238078 -7.48234e-20)
(0.225465 -0.245742 4.70943e-20)
(0.223933 -0.243356 5.96981e-20)
(0.216423 -0.246502 -1.18175e-19)
(0.224335 -0.243786 -1.14865e-19)
(0.19328 -0.242312 -1.09076e-21)
(0.215376 -0.24234 -4.92428e-20)
(0.152763 -0.235127 1.03157e-19)
(0.191632 -0.239571 1.78579e-20)
(0.0945056 -0.228422 7.5111e-21)
(0.146686 -0.233994 -2.00827e-20)
(0.0280055 -0.225275 -4.58626e-21)
(0.078281 -0.22406 7.58945e-21)
(-0.0305564 -0.221133 -3.47779e-20)
(0.0068855 -0.217949 -1.57003e-21)
(-0.0473421 -0.21031 -1.24653e-20)
(-0.0680352 -0.213322 -3.04285e-21)
(0.195494 -0.200833 4.11089e-22)
(0.189587 -0.19469 -4.64028e-22)
(0.201791 -0.222851 -5.89278e-20)
(0.195793 -0.22009 -4.20915e-21)
(0.208731 -0.236714 -3.6245e-21)
(0.197532 -0.230966 -9.90721e-20)
(0.21616 -0.241982 5.37315e-20)
(0.200539 -0.230133 5.25833e-20)
(0.221624 -0.242392 -1.00589e-19)
(0.204443 -0.223328 -4.09581e-20)
(0.221434 -0.241798 -4.78985e-20)
(0.20768 -0.217674 -6.09716e-20)
(0.210695 -0.241667 -3.04231e-20)
(0.206766 -0.217237 8.71677e-20)
(0.182753 -0.240444 -9.90597e-20)
(0.196551 -0.221813 -7.95384e-20)
(0.129289 -0.234641 -2.02944e-20)
(0.169268 -0.227535 1.59462e-20)
(0.0561488 -0.222978 1.39202e-20)
(0.111342 -0.224053 -5.69643e-21)
(-0.0118838 -0.208108 1.83891e-20)
(0.0352061 -0.210576 1.19188e-20)
(-0.0288782 -0.193271 -9.05241e-22)
(-0.0564993 -0.193466 4.46898e-21)
(0.195252 -0.213692 -1.55284e-20)
(0.189528 -0.204822 -1.09069e-21)
(0.191018 -0.223394 -3.50377e-20)
(0.189932 -0.21865 5.64157e-20)
(0.187404 -0.219716 -4.32532e-20)
(0.182253 -0.209202 -4.36542e-20)
(0.187661 -0.208973 -3.94569e-20)
(0.175298 -0.190613 5.89255e-20)
(0.190668 -0.198999 1.49174e-21)
(0.172491 -0.172537 -3.98226e-20)
(0.192749 -0.195347 7.10089e-20)
(0.172683 -0.161819 3.83388e-20)
(0.190245 -0.199876 3.30222e-20)
(0.172351 -0.161754 9.36496e-21)
(0.178754 -0.210557 2.70529e-20)
(0.167872 -0.172081 0)
(0.149019 -0.220436 1.88561e-20)
(0.155628 -0.189439 2.41358e-20)
(0.0904237 -0.216305 -1.12827e-20)
(0.125379 -0.20432 6.15342e-21)
(0.0174947 -0.196672 -6.41065e-21)
(0.0668387 -0.201853 -8.68648e-21)
(-0.00120925 -0.181968 -7.27433e-21)
(-0.0399239 -0.173793 -4.25149e-21)
(0.188192 -0.219796 5.79171e-20)
(0.190627 -0.197226 0)
(0.174216 -0.203375 5.79171e-20)
(0.176493 -0.183779 2.71011e-22)
(0.164445 -0.177207 5.94768e-20)
(0.160411 -0.1576 -2.33958e-20)
(0.15769 -0.152741 5.94768e-20)
(0.14843 -0.13093 -1.532e-20)
(0.154613 -0.136085 0)
(0.142079 -0.111856 -5.3527e-20)
(0.153114 -0.130133 -2.41875e-20)
(0.139208 -0.10253 -8.74113e-21)
(0.150127 -0.135788 -2.41875e-20)
(0.136107 -0.104016 -5.48041e-21)
(0.143211 -0.151784 -3.19752e-21)
(0.130067 -0.115901 0)
(0.129838 -0.174293 4.63685e-21)
(0.119742 -0.136012 -2.26897e-21)
(0.101092 -0.191693 1.26618e-21)
(0.10436 -0.160492 -6.13881e-21)
(0.0487139 -0.187654 -9.44356e-21)
(0.0754485 -0.178033 7.48743e-21)
(0.0264475 -0.173664 6.98763e-21)
(-0.0122225 -0.164321 -3.01135e-21)
(0.189961 -0.166093 -5.19433e-20)
(0.164603 -0.122254 2.15836e-21)
(0.15738 -0.134555 -7.55464e-20)
(0.145308 -0.108239 -6.57319e-20)
(0.140388 -0.108372 -1.01563e-19)
(0.128931 -0.0912497 -2.37999e-20)
(0.131332 -0.0897165 -1.25275e-19)
(0.12044 -0.0743444 -7.32719e-20)
(0.126553 -0.0789874 -6.10746e-20)
(0.116842 -0.0635384 -3.7417e-20)
(0.123009 -0.0773274 1.26406e-20)
(0.11443 -0.0601631 2.39449e-20)
(0.117692 -0.084747 2.14592e-20)
(0.110329 -0.0648247 2.16382e-20)
(0.108606 -0.100078 -2.75519e-21)
(0.102648 -0.0771402 -3.00206e-21)
(0.0956179 -0.12152 -1.50305e-20)
(0.0904315 -0.0951868 6.67387e-21)
(0.0791243 -0.146175 1.9723e-21)
(0.0747154 -0.116561 -2.16081e-20)
(0.0535606 -0.163321 2.40097e-20)
(0.0570663 -0.138825 2.47121e-20)
(0.0131045 -0.158927 1.01142e-20)
(0.0321331 -0.152478 -4.28969e-22)
(0.00434616 -0.0986723 -9.98384e-20)
(0.00472044 -0.110423 -1.677e-20)
(-0.00699711 -0.107318 2.53721e-20)
(-0.00687347 -0.126905 1.04202e-20)
(-0.0220059 -0.116648 -1.57371e-21)
(-0.0184635 -0.143048 -4.90129e-21)
(-0.0319028 -0.123012 -2.68926e-20)
(-0.0252291 -0.155092 -4.75247e-20)
(-0.0337445 -0.124337 2.8651e-20)
(-0.0266033 -0.160342 2.06437e-20)
(-0.0319565 -0.120083 2.8651e-20)
(-0.0257655 -0.159216 2.91837e-20)
(-0.0312134 -0.109091 2.36017e-19)
(-0.0232665 -0.153685 0)
(-0.0349434 -0.0958749 7.29293e-20)
(-0.0284004 -0.141042 2.40406e-19)
(-0.0451287 -0.0853713 7.49498e-21)
(-0.0415822 -0.123053 -2.31387e-19)
(-0.062429 -0.0816066 -6.78156e-20)
(-0.0611084 -0.102643 2.40282e-19)
(-0.0820275 -0.0866976 -1.19381e-19)
(-0.0824556 -0.0883437 -1.40422e-19)
(-0.0946999 -0.0900796 1.35387e-19)
(-0.0140341 -0.140605 9.71516e-20)
(-0.0240154 -0.152568 8.7981e-20)
(-0.0280138 -0.164674 -2.1014e-20)
(-0.0408754 -0.178899 1.87808e-20)
(-0.0322554 -0.182711 -5.18265e-20)
(-0.0475709 -0.199483 -3.87965e-20)
(-0.0290706 -0.193274 8.33005e-22)
(-0.0455323 -0.213552 -2.08565e-20)
(-0.0244993 -0.196671 2.10348e-20)
(-0.0388982 -0.222032 5.15816e-20)
(-0.0219657 -0.192709 0)
(-0.0315471 -0.225391 6.72318e-20)
(-0.0242157 -0.182482 0)
(-0.0267728 -0.223264 -9.79401e-20)
(-0.0344612 -0.163641 -5.56849e-20)
(-0.028914 -0.212795 -1.51204e-19)
(-0.0546514 -0.138056 3.11052e-21)
(-0.0430817 -0.190467 1.01172e-19)
(-0.0816981 -0.113161 1.69815e-19)
(-0.069496 -0.154803 1.49586e-19)
(-0.103489 -0.10092 7.83303e-20)
(-0.0987301 -0.114868 2.13017e-19)
(-0.111576 -0.0964305 9.12942e-20)
(-0.0483505 -0.192806 8.1214e-21)
(-0.0554852 -0.197402 -1.32893e-20)
(-0.0584175 -0.215158 1.26116e-21)
(-0.069921 -0.220207 8.24479e-21)
(-0.0582107 -0.231448 -6.84337e-21)
(-0.0713885 -0.235978 -6.94735e-21)
(-0.0523175 -0.243805 3.21267e-20)
(-0.0653426 -0.248444 0)
(-0.0433685 -0.25278 1.00502e-19)
(-0.05534 -0.259743 1.90061e-20)
(-0.0343028 -0.256729 -3.11098e-20)
(-0.0436533 -0.269622 3.91693e-20)
(-0.0301103 -0.252582 -2.53382e-19)
(-0.0335941 -0.275892 -7.49448e-20)
(-0.0362043 -0.235881 -1.32773e-21)
(-0.029391 -0.274331 -1.00248e-19)
(-0.0563338 -0.203342 2.51806e-19)
(-0.0371659 -0.257549 1.03364e-19)
(-0.0876843 -0.159611 1.94321e-19)
(-0.0615621 -0.218542 9.09596e-20)
(-0.11363 -0.124838 2.00807e-19)
(-0.0967986 -0.160115 -1.36996e-19)
(-0.116631 -0.113307 -1.51192e-19)
(-0.0757183 -0.226098 -1.34943e-20)
(-0.0782402 -0.225398 4.48834e-20)
(-0.0814187 -0.241249 0)
(-0.0884781 -0.238614 1.00252e-20)
(-0.0773819 -0.253122 0)
(-0.0872011 -0.246998 0)
(-0.0679473 -0.264743 -1.3915e-20)
(-0.0803049 -0.255248 0)
(-0.0558205 -0.277067 -4.46264e-20)
(-0.0701232 -0.265638 -3.6264e-20)
(-0.0435502 -0.289068 -4.76752e-21)
(-0.0579335 -0.279084 -5.60952e-20)
(-0.0338819 -0.296915 8.22076e-20)
(-0.0452587 -0.294167 7.75657e-20)
(-0.0315631 -0.293482 -3.73843e-21)
(-0.0346783 -0.306068 1.58946e-19)
(-0.0431636 -0.269032 -5.81283e-20)
(-0.031755 -0.305661 -1.05025e-19)
(-0.071782 -0.218705 -2.38314e-19)
(-0.0450958 -0.279839 1.74523e-19)
(-0.106447 -0.159238 -4.99637e-19)
(-0.0796185 -0.219319 -5.52528e-19)
(-0.116747 -0.143016 -3.60799e-20)
(-0.0906918 -0.23799 6.96681e-20)
(-0.0887884 -0.235082 6.02657e-20)
(-0.0935456 -0.243909 1.01668e-20)
(-0.0955485 -0.238223 -7.568e-21)
(-0.0889977 -0.248857 0)
(-0.0932443 -0.23948 -1.05512e-21)
(-0.0810988 -0.256114 -2.24682e-20)
(-0.0876387 -0.242726 0)
(-0.071091 -0.267758 -4.85396e-20)
(-0.0805101 -0.249977 -8.25979e-22)
(-0.0589858 -0.284244 2.5852e-20)
(-0.0715932 -0.262657 -2.64064e-20)
(-0.0457452 -0.303028 1.55305e-19)
(-0.0600464 -0.281214 9.65896e-20)
(-0.0349963 -0.31748 5.80132e-20)
(-0.046544 -0.30301 1.50167e-19)
(-0.0340873 -0.314856 1.26362e-19)
(-0.0344332 -0.320685 -1.32994e-19)
(-0.0527127 -0.278473 -1.31492e-19)
(-0.0325063 -0.319667 2.65253e-19)
(-0.0921947 -0.206458 -8.88844e-20)
(-0.0561411 -0.279957 -3.88933e-19)
(-0.109357 -0.191939 1.06681e-19)
(-0.0942368 -0.234599 -1.79403e-20)
(-0.0891606 -0.231138 -2.62988e-20)
(-0.0958137 -0.233103 -1.90091e-20)
(-0.0944205 -0.227011 -1.0283e-20)
(-0.0924537 -0.232765 -1.06886e-21)
(-0.0928146 -0.22375 -3.80039e-23)
(-0.0875847 -0.236105 2.19548e-20)
(-0.0897488 -0.223811 0)
(-0.0814322 -0.24459 2.19548e-20)
(-0.086237 -0.228412 3.85075e-20)
(-0.0727828 -0.259179 4.45717e-20)
(-0.0810937 -0.238221 0)
(-0.0605729 -0.28031 9.07127e-20)
(-0.0727062 -0.254194 1.03363e-21)
(-0.0457542 -0.305633 -4.03092e-20)
(-0.0602431 -0.276931 4.66913e-20)
(-0.0338001 -0.325928 4.32835e-21)
(-0.044344 -0.303482 -8.89067e-20)
(-0.0372112 -0.319574 6.62808e-21)
(-0.0299345 -0.324436 1.72758e-19)
(-0.0713838 -0.259587 -2.06561e-19)
(-0.0354146 -0.319886 -6.93849e-20)
(-0.0904171 -0.250532 -3.11758e-19)
(-0.0903746 -0.222365 -1.89368e-20)
(-0.0835362 -0.218222 -1.07677e-20)
(-0.0924304 -0.217054 8.69554e-21)
(-0.0896315 -0.210532 7.76489e-21)
(-0.0912459 -0.214314 1.0161e-21)
(-0.0898379 -0.205823 1.02741e-21)
(-0.0895764 -0.215559 1.64875e-20)
(-0.0896009 -0.204678 0)
(-0.0868131 -0.221476 1.64875e-20)
(-0.0892044 -0.207512 -1.04894e-20)
(-0.0813393 -0.232538 -4.46445e-20)
(-0.0867381 -0.214766 0)
(-0.071913 -0.249535 -4.46445e-20)
(-0.0804363 -0.227134 -4.51413e-20)
(-0.0579056 -0.273739 0)
(-0.0698182 -0.245816 -7.96052e-20)
(-0.0406848 -0.304136 8.04306e-20)
(-0.0548889 -0.270897 1.51644e-19)
(-0.029135 -0.326858 8.59506e-20)
(-0.035371 -0.299631 1.05574e-20)
(-0.0481669 -0.300285 -1.4655e-19)
(-0.0239455 -0.326315 7.66101e-21)
(-0.0642576 -0.298419 -1.90532e-19)
(-0.0836969 -0.20493 1.63263e-20)
(-0.0754944 -0.199121 1.64966e-20)
(-0.0877154 -0.198972 0)
(-0.0846208 -0.190526 0)
(-0.0888763 -0.196039 0)
(-0.0868274 -0.186763 3.88234e-21)
(-0.0898929 -0.196219 -2.71117e-20)
(-0.0885255 -0.186059 3.64786e-21)
(-0.089669 -0.200005 -2.71117e-20)
(-0.0901719 -0.187743 -1.6166e-20)
(-0.0861354 -0.208316 0)
(-0.0896273 -0.192599 0)
(-0.0781254 -0.222002 -8.0501e-20)
(-0.0847777 -0.201923 2.78133e-20)
(-0.0659317 -0.241677 7.05065e-20)
(-0.0750289 -0.217047 -1.10763e-19)
(-0.0492417 -0.269211 7.58391e-20)
(-0.0615296 -0.238903 1.5495e-19)
(-0.0296462 -0.304013 -7.10967e-20)
(-0.0426268 -0.265218 -7.2311e-20)
(-0.0312487 -0.314985 -2.16725e-20)
(-0.0242498 -0.30569 4.7278e-22)
(-0.0424129 -0.32092 6.21732e-20)
(-0.0772134 -0.183048 0)
(-0.0660484 -0.176497 0)
(-0.084121 -0.178151 3.92326e-21)
(-0.0810054 -0.166495 0)
(-0.0868225 -0.176852 7.52234e-21)
(-0.085453 -0.164212 3.96177e-21)
(-0.0891581 -0.177301 1.48372e-20)
(-0.0876101 -0.165585 3.44439e-21)
(-0.0904394 -0.179469 1.11509e-20)
(-0.0895794 -0.16783 1.79867e-20)
(-0.0885409 -0.184848 2.81064e-20)
(-0.0898355 -0.171249 0)
(-0.0819931 -0.195578 -7.22262e-22)
(-0.08637 -0.177743 -1.02895e-20)
(-0.0710189 -0.213191 -2.97327e-20)
(-0.0782191 -0.189478 -3.00246e-20)
(-0.0562264 -0.237763 0)
(-0.0658901 -0.209119 -4.91828e-20)
(-0.0370647 -0.270899 0)
(-0.0487254 -0.234099 5.22056e-20)
(-0.0268283 -0.304952 6.867e-20)
(-0.0332448 -0.276217 3.9717e-22)
(-0.0350661 -0.315831 -1.93802e-20)
(-0.0709061 -0.158084 0)
(-0.0511081 -0.157776 0)
(-0.0827573 -0.152226 0)
(-0.0766568 -0.141334 0)
(-0.0863962 -0.152979 -2.31752e-22)
(-0.0858856 -0.136327 0)
(-0.0881896 -0.15589 6.55038e-21)
(-0.0882802 -0.138723 -4.93223e-21)
(-0.0892261 -0.158866 6.79303e-21)
(-0.0888637 -0.143285 -3.68496e-22)
(-0.0880187 -0.162784 -3.90551e-20)
(-0.088194 -0.147883 0)
(-0.0831125 -0.170245 -3.90551e-20)
(-0.0850199 -0.153509 9.42723e-21)
(-0.0742608 -0.184278 -4.96703e-20)
(-0.0784434 -0.162543 5.38407e-20)
(-0.0619987 -0.207619 1.04514e-20)
(-0.0688744 -0.178626 -5.2645e-20)
(-0.047887 -0.240491 4.84239e-20)
(-0.0554598 -0.202618 1.31029e-19)
(-0.0371834 -0.281761 -7.93958e-20)
(-0.0461048 -0.245774 -5.84578e-21)
(-0.0439947 -0.28903 -1.3633e-19)
(-0.0574573 -0.13937 0)
(-0.0265032 -0.150625 0)
(-0.0803525 -0.124763 0)
(-0.0643325 -0.125406 0)
(-0.0878922 -0.121823 -4.74229e-21)
(-0.0833013 -0.11001 -1.17191e-22)
(-0.0887605 -0.125823 -1.23228e-20)
(-0.0892591 -0.106185 -4.78393e-21)
(-0.0875832 -0.131741 -7.52739e-21)
(-0.0889046 -0.109631 -7.59348e-21)
(-0.0850598 -0.137557 4.88158e-20)
(-0.0858951 -0.115792 3.02892e-20)
(-0.0804594 -0.144403 1.02004e-19)
(-0.0811345 -0.122836 1.13859e-20)
(-0.0736705 -0.155263 5.48732e-20)
(-0.0746799 -0.13151 8.14568e-20)
(-0.0656853 -0.174209 6.90691e-20)
(-0.0674666 -0.144777 -1.16799e-19)
(-0.0593603 -0.206025 6.43022e-20)
(-0.0602551 -0.164849 9.99536e-20)
(-0.0617329 -0.249971 -7.23554e-20)
(-0.059827 -0.204773 -6.36448e-21)
(-0.0640778 -0.240615 -3.39631e-20)
(-0.0326523 -0.135722 0)
(-0.00412158 -0.14611 0)
(-0.067317 -0.110017 -1.18229e-22)
(-0.0425259 -0.123532 0)
(-0.084898 -0.0938471 -1.18229e-22)
(-0.0706082 -0.0984361 -1.54996e-23)
(-0.0892556 -0.0894595 0)
(-0.0843004 -0.0813441 -1.34586e-21)
(-0.0866345 -0.0931068 3.05575e-20)
(-0.0866769 -0.0748148 4.77098e-21)
(-0.0811565 -0.100307 -8.19469e-21)
(-0.0825003 -0.0762759 1.35676e-20)
(-0.0745329 -0.108874 -1.24278e-20)
(-0.0752399 -0.0823459 -3.96267e-20)
(-0.0677619 -0.11939 -8.82277e-20)
(-0.0670628 -0.0911964 2.64362e-20)
(-0.0628448 -0.134368 -9.02909e-20)
(-0.0600572 -0.103219 -1.13866e-19)
(-0.0649095 -0.158882 2.79635e-20)
(-0.0573853 -0.11893 5.69077e-21)
(-0.0894962 -0.199589 1.28821e-20)
(-0.066687 -0.1419 1.4026e-20)
(-0.0918387 -0.152084 6.10283e-20)
(-0.0918313 -0.0968681 2.6072e-19)
(-0.0856973 -0.11103 2.21371e-19)
(-0.088279 -0.0884017 -3.66548e-19)
(-0.0785421 -0.109618 2.28412e-19)
(-0.080833 -0.0768643 -5.67251e-19)
(-0.0706095 -0.101563 -5.06536e-19)
(-0.0738714 -0.0637106 1.39765e-19)
(-0.0655092 -0.0882024 -1.42942e-19)
(-0.0690979 -0.0508042 2.44435e-19)
(-0.0631266 -0.0728173 2.91972e-19)
(-0.0672548 -0.0393235 -2.43596e-19)
(-0.0631929 -0.0576095 1.19225e-19)
(-0.0686415 -0.0298179 4.9263e-20)
(-0.0656289 -0.0436895 -3.67706e-19)
(-0.0726442 -0.0223703 2.43473e-19)
(-0.0699008 -0.0323353 2.0354e-19)
(-0.0782434 -0.0170077 0)
(-0.0759196 -0.023845 1.66643e-19)
(-0.08409 -0.0133578 0)
(-0.0829562 -0.0183837 -1.67574e-19)
(-0.0889858 -0.0109371 0)
(-0.0901778 -0.015137 0)
(-0.0983447 -0.0117533 -8.22865e-20)
(-0.0930768 -0.00898148 0)
(-0.0780927 -0.122726 1.77684e-19)
(-0.0891368 -0.127603 7.3641e-20)
(-0.0657708 -0.118992 9.4893e-20)
(-0.0724561 -0.129875 4.02621e-19)
(-0.0583026 -0.108544 -8.35123e-20)
(-0.0627793 -0.123057 -2.95346e-19)
(-0.0562171 -0.093706 1.02675e-21)
(-0.0615031 -0.109542 6.73423e-20)
(-0.0580318 -0.0770209 1.71896e-19)
(-0.0650735 -0.0925198 -1.47999e-19)
(-0.0623024 -0.0603715 -2.48863e-23)
(-0.0708362 -0.0741822 3.31918e-19)
(-0.067843 -0.0450632 -2.16064e-19)
(-0.0774268 -0.0561667 -2.55349e-19)
(-0.0745278 -0.0322484 1.26125e-19)
(-0.0847052 -0.0393695 -4.4406e-20)
(-0.0822212 -0.0227208 -2.66087e-21)
(-0.0927246 -0.0251079 1.66547e-20)
(-0.0905032 -0.0165916 -1.70749e-19)
(-0.101407 -0.0149872 5.8007e-20)
(-0.100933 -0.011557 -8.38456e-20)
(-0.111973 -0.00665025 -7.65311e-20)
(-0.128165 0.00543877 -8.52477e-20)
(-0.117324 -0.00194811 3.26105e-21)
(-0.07993 -0.137654 3.00634e-19)
(-0.0912854 -0.147218 -1.22066e-19)
(-0.0641847 -0.1367 9.94016e-21)
(-0.070843 -0.152117 4.19169e-19)
(-0.0612209 -0.12729 -1.45522e-19)
(-0.0677782 -0.145821 -3.53524e-19)
(-0.066246 -0.112109 -8.29617e-20)
(-0.0745138 -0.132816 7.73586e-20)
(-0.0745925 -0.0937533 -9.22607e-22)
(-0.0845893 -0.115577 -3.03632e-19)
(-0.083911 -0.0738541 7.82456e-20)
(-0.0949228 -0.0956835 1.62112e-19)
(-0.0934373 -0.0538884 -8.14401e-20)
(-0.104539 -0.0742414 -6.08361e-21)
(-0.10269 -0.0359703 -1.58638e-19)
(-0.113465 -0.0524562 0)
(-0.111481 -0.0215088 7.76046e-20)
(-0.122082 -0.0328005 -1.69596e-20)
(-0.122051 -0.00928587 1.58048e-19)
(-0.131602 -0.0155532 3.01602e-20)
(-0.138988 0.0059239 -7.78326e-20)
(-0.14558 0.00347735 -7.90152e-20)
(-0.168978 0.0292038 -2.94847e-20)
(-0.164886 0.0276675 3.51556e-20)
(-0.0800604 -0.159024 -7.44093e-21)
(-0.0971838 -0.16717 -8.9484e-20)
(-0.0715523 -0.160227 6.82486e-20)
(-0.0809151 -0.172718 -1.42594e-19)
(-0.0788875 -0.151495 -1.30414e-19)
(-0.0886544 -0.168285 -1.29771e-19)
(-0.0914267 -0.13687 -1.45983e-19)
(-0.102482 -0.157352 -8.8744e-21)
(-0.104285 -0.118334 -1.45983e-19)
(-0.116211 -0.141174 3.08765e-19)
(-0.115874 -0.0971132 7.85463e-20)
(-0.127725 -0.120506 -2.65393e-19)
(-0.125774 -0.0741926 7.85463e-20)
(-0.136894 -0.0968095 3.47488e-19)
(-0.134046 -0.0508833 1.46312e-19)
(-0.14471 -0.0716483 -1.38415e-19)
(-0.142273 -0.0282973 -6.55482e-20)
(-0.151954 -0.0461839 1.48348e-19)
(-0.155093 -0.00435571 -2.12193e-19)
(-0.161136 -0.0187618 -2.09734e-19)
(-0.176882 0.025083 -2.99395e-20)
(-0.177539 0.0141103 5.17262e-20)
(-0.202906 0.0510174 1.92888e-20)
(-0.20401 0.0556262 -5.79454e-20)
(-0.0923118 -0.175825 -2.11013e-19)
(-0.108949 -0.183103 1.17658e-19)
(-0.0953367 -0.179459 -3.492e-19)
(-0.103758 -0.189327 -3.44543e-19)
(-0.110484 -0.173412 -6.50601e-21)
(-0.120784 -0.188758 1.49207e-20)
(-0.126147 -0.161309 4.50527e-19)
(-0.138404 -0.182063 -1.28983e-19)
(-0.139567 -0.143655 1.95495e-19)
(-0.152932 -0.168806 4.57813e-19)
(-0.150032 -0.121293 2.48949e-21)
(-0.162799 -0.14868 -4.6377e-20)
(-0.157733 -0.0958236 1.26561e-19)
(-0.168825 -0.123097 1.52669e-19)
(-0.163626 -0.0683356 -1.40369e-19)
(-0.173772 -0.0946929 -1.53013e-19)
(-0.170716 -0.0375956 6.76806e-21)
(-0.17853 -0.0633883 -5.03546e-20)
(-0.184697 -0.00117302 5.92245e-20)
(-0.186516 -0.0246065 1.09629e-19)
(-0.206088 0.039556 1.02788e-19)
(-0.202747 0.0209254 -4.14238e-20)
(-0.223364 0.0638125 6.69051e-20)
(-0.226304 0.0734115 5.03312e-20)
(-0.115165 -0.188845 2.79015e-20)
(-0.127756 -0.192119 -1.48799e-19)
(-0.128799 -0.195823 1.86573e-20)
(-0.135904 -0.200812 -6.6728e-20)
(-0.148393 -0.194708 -1.08854e-19)
(-0.158667 -0.205181 8.52078e-21)
(-0.165134 -0.187408 -1.29727e-19)
(-0.178305 -0.204734 -2.11413e-19)
(-0.177181 -0.172793 2.17453e-19)
(-0.192276 -0.197338 -8.27779e-21)
(-0.184284 -0.150733 1.0016e-19)
(-0.199506 -0.181057 3.01204e-19)
(-0.187572 -0.122628 -1.36646e-19)
(-0.201345 -0.155716 -4.23145e-20)
(-0.18978 -0.0897085 -6.1992e-20)
(-0.201137 -0.123281 -1.96677e-19)
(-0.195318 -0.049979 5.21096e-20)
(-0.201219 -0.0842484 1.0747e-20)
(-0.207586 -0.00241561 4.85937e-21)
(-0.205933 -0.0346685 1.04349e-19)
(-0.223071 0.0455013 -7.79511e-20)
(-0.218155 0.0204345 -6.9802e-20)
(-0.22983 0.0660603 3.91623e-20)
(-0.232849 0.0796182 -2.05381e-20)
(-0.14494 -0.196528 -2.25754e-19)
(-0.151572 -0.194264 -8.51015e-20)
(-0.16661 -0.206769 -7.27749e-20)
(-0.171244 -0.205347 -2.70081e-21)
(-0.189352 -0.211581 -8.6556e-20)
(-0.196622 -0.213647 0)
(-0.206458 -0.211402 -8.6556e-20)
(-0.216072 -0.219481 -8.75192e-20)
(-0.216404 -0.203463 7.37599e-20)
(-0.227806 -0.219932 0)
(-0.21945 -0.185388 1.54933e-19)
(-0.232225 -0.211716 -5.13984e-20)
(-0.217372 -0.156279 -1.06487e-19)
(-0.231122 -0.191982 8.20767e-20)
(-0.213863 -0.116978 -1.23346e-19)
(-0.226518 -0.158997 -2.03866e-19)
(-0.214955 -0.0677679 6.08676e-20)
(-0.220595 -0.111571 -2.0897e-20)
(-0.221298 -0.0107953 2.61988e-20)
(-0.217935 -0.051505 7.59827e-20)
(-0.227478 0.042139 4.88231e-20)
(-0.222572 0.0112999 -2.18246e-20)
(-0.224407 0.0597644 -1.60599e-20)
(-0.227361 0.0766041 3.3792e-20)
(-0.175751 -0.198523 1.37538e-19)
(-0.175749 -0.191833 6.99373e-20)
(-0.201513 -0.209298 6.83223e-20)
(-0.201841 -0.202299 6.90349e-20)
(-0.223949 -0.218151 0)
(-0.224502 -0.210419 0)
(-0.23865 -0.224673 0)
(-0.238121 -0.218439 0)
(-0.245736 -0.225476 -1.19924e-19)
(-0.243405 -0.224037 -4.49238e-20)
(-0.246474 -0.216352 -1.19924e-19)
(-0.243823 -0.224393 -2.42832e-20)
(-0.242252 -0.193113 -1.16949e-20)
(-0.242349 -0.215338 -7.37821e-20)
(-0.235041 -0.152533 -1.01027e-19)
(-0.239537 -0.191482 -3.73894e-20)
(-0.228357 -0.0942567 -8.38418e-22)
(-0.233922 -0.146445 -3.66968e-20)
(-0.225223 -0.0277472 2.51809e-20)
(-0.223979 -0.0780041 3.86842e-20)
(-0.221076 0.0307324 -8.33222e-20)
(-0.217879 -0.00660504 -4.11502e-20)
(-0.210238 0.0474788 -3.35445e-20)
(-0.213287 0.0680077 -3.41031e-20)
(-0.200858 -0.195492 0)
(-0.194726 -0.18956 -8.05798e-20)
(-0.22289 -0.201832 0)
(-0.220124 -0.19579 0)
(-0.236794 -0.208831 0)
(-0.231057 -0.197582 0)
(-0.242089 -0.216303 -4.53973e-20)
(-0.230256 -0.200652 0)
(-0.242501 -0.221771 4.81537e-20)
(-0.223448 -0.204596 3.88418e-20)
(-0.241885 -0.221525 1.60462e-20)
(-0.21778 -0.207838 5.67165e-20)
(-0.241707 -0.210679 -1.00402e-19)
(-0.217328 -0.206874 -3.82184e-20)
(-0.240421 -0.182615 1.96615e-20)
(-0.221874 -0.19656 1.99169e-20)
(-0.234549 -0.129044 -1.90736e-21)
(-0.227534 -0.169159 6.64929e-20)
(-0.222864 -0.0558614 -2.83238e-20)
(-0.223979 -0.111101 -2.94012e-20)
(-0.207987 0.0121168 9.59662e-21)
(-0.210462 -0.0349091 9.16334e-21)
(-0.193149 0.0290899 1.38929e-21)
(-0.193388 0.0565829 4.51119e-21)
(-0.213733 -0.19522 -8.13785e-20)
(-0.204832 -0.189469 4.62954e-20)
(-0.223469 -0.19102 0)
(-0.218702 -0.189887 -1.0038e-21)
(-0.219843 -0.187472 0)
(-0.209334 -0.182241 -3.27362e-20)
(-0.209117 -0.187802 8.6279e-20)
(-0.19074 -0.175345 2.79236e-20)
(-0.199131 -0.190846 4.51299e-20)
(-0.172622 -0.172603 9.05498e-20)
(-0.195472 -0.192918 -5.01705e-21)
(-0.161892 -0.17283 -1.33829e-20)
(-0.199994 -0.190361 7.12309e-20)
(-0.161842 -0.172491 3.34168e-20)
(-0.210641 -0.17878 4.91097e-20)
(-0.172186 -0.16797 3.25751e-20)
(-0.220451 -0.148917 2.38819e-20)
(-0.18953 -0.155662 8.24514e-21)
(-0.216227 -0.0901843 1.00499e-20)
(-0.204353 -0.125294 1.05502e-20)
(-0.196534 -0.0172202 9.93852e-22)
(-0.201784 -0.0666145 -6.51253e-21)
(-0.181833 0.00145603 -4.98758e-22)
(-0.173676 0.0401092 -1.82997e-21)
(-0.219816 -0.188115 8.33153e-20)
(-0.19718 -0.19056 1.52701e-19)
(-0.203476 -0.174134 -1.94698e-20)
(-0.183875 -0.176434 -1.02209e-21)
(-0.177339 -0.164404 -4.85763e-21)
(-0.157715 -0.160323 1.08872e-20)
(-0.152825 -0.157716 2.88765e-20)
(-0.130983 -0.148402 -2.66655e-20)
(-0.136133 -0.154704 3.15046e-20)
(-0.111863 -0.142118 3.98852e-20)
(-0.130184 -0.153232 2.53322e-20)
(-0.102535 -0.139293 2.55546e-20)
(-0.135867 -0.150233 -4.13058e-21)
(-0.104054 -0.136201 -1.3449e-20)
(-0.151889 -0.143286 -9.85307e-21)
(-0.115977 -0.130141 -4.25874e-21)
(-0.174403 -0.12987 -2.87203e-21)
(-0.136111 -0.11979 -8.42225e-21)
(-0.191739 -0.101021 -9.60039e-21)
(-0.160594 -0.104379 -4.95888e-21)
(-0.187581 -0.0485156 -8.08933e-21)
(-0.178073 -0.0753792 9.26769e-21)
(-0.173593 -0.0262695 -1.34966e-20)
(-0.164186 0.0124545 -7.77894e-22)
(-0.16613 -0.189899 4.09756e-20)
(-0.122257 -0.164629 2.69304e-20)
(-0.134657 -0.157287 4.46115e-20)
(-0.108395 -0.145295 -1.35304e-20)
(-0.108418 -0.140303 -6.17186e-21)
(-0.0913322 -0.128851 1.77541e-20)
(-0.0897099 -0.131304 -1.41104e-20)
(-0.0743693 -0.120389 -1.76567e-20)
(-0.0789686 -0.126586 3.66729e-20)
(-0.063536 -0.116848 7.33638e-21)
(-0.0773288 -0.123077 -1.35681e-20)
(-0.0601671 -0.11448 0)
(-0.0847795 -0.117759 -1.66502e-20)
(-0.0648544 -0.110394 -5.46497e-21)
(-0.100137 -0.108649 -8.65604e-21)
(-0.0771953 -0.1027 2.58151e-21)
(-0.121604 -0.0956407 -1.05768e-20)
(-0.0952539 -0.0904543 8.3431e-21)
(-0.146272 -0.0791316 1.41557e-20)
(-0.116634 -0.0747198 -2.41198e-21)
(-0.163364 -0.0535054 2.58726e-21)
(-0.138901 -0.0570616 2.40596e-20)
(-0.15886 -0.0129518 -1.5154e-20)
(-0.152501 -0.0320744 -4.73814e-21)
(-0.0986736 -0.00436391 6.36605e-21)
(-0.110495 -0.00470476 8.50281e-20)
(-0.107353 0.0070378 -5.8921e-21)
(-0.127007 0.0069203 6.48442e-21)
(-0.116712 0.022082 6.27456e-22)
(-0.143158 0.0185213 -1.32479e-20)
(-0.1231 0.0319752 1.84716e-22)