/*--------------------------------*- C++ -*----------------------------------*\
| =========                 |                                                 |
| \\      /  F ield         | OpenFOAM: The Open Source CFD Toolbox           |
|  \\    /   O peration     | Version:  2.3.1                                 |
|   \\  /    A nd           | Web:      www.OpenFOAM.org                      |
|    \\/     M anipulation  |                                                 |
\*---------------------------------------------------------------------------*/
FoamFile
{
    version     2.0;
    format      ascii;
    class       volSymmTensorField;
    location    "2820";
    object      sigma;
}
// * * * * * * * * * * * * * * * * * * * * * * * * * * * * * * * * * * * * * //

dimensions      [1 -1 -2 0 0 0 0];

internalField   nonuniform List<symmTensor> 
11800
(
(128730 69540.7 6.21593e-14 -2593.99 3.29395e-14 31296.9)
(-64794.1 62917.7 9.54214e-14 -1208.82 3.02766e-14 -16376.7)
(577311 86023.5 -1.55703e-15 1214.23 -6.92387e-14 143544)
(-502660 46644.5 0 -296.524 0 -124794)
(-66984.9 60628.3 1.78034e-14 -5759.3 -5.0322e-14 -18049.3)
(-314976 89576.2 6.91501e-14 2491.76 3.62862e-14 -77533.7)
(-58376.5 86529 1.30616e-13 -705.854 -3.39772e-14 -14659.5)
(-82010.6 88888.5 -1.94585e-14 1070.11 7.83262e-14 -20083)
(178681 49597.6 2.61693e-14 448.137 -1.7892e-14 44445.5)
(121061 93300.9 -6.71274e-14 1118.98 -5.65661e-14 30315.2)
(148748 58322.1 -5.18546e-14 1174.78 4.44052e-14 37198.8)
(-729176 34609.7 -6.21306e-14 -5461.65 -2.82048e-14 -182279)
(21035.7 -30561.2 1.14052e-16 -56681.8 8.86169e-17 -8844.51)
(535020 46848.2 5.63645e-14 3420.46 -1.54371e-14 133598)
(-428632 83853.5 -4.69538e-14 6612.29 3.65199e-14 -104712)
(2.01206e+06 -4718.35 0 -6185.06 0 497698)
(-38215.7 69007.7 4.42008e-14 3381.78 3.8999e-15 -8643.01)
(-58796.9 63320.1 -2.49512e-14 6951.12 1.43376e-13 -12864)
(122974 107322 -2.56739e-14 -16615.1 1.82683e-14 26389.7)
(92095.7 57955.7 -8.93407e-14 -9630.96 -2.89061e-14 20461.2)
(-395424 52607.3 2.781e-14 -704.036 2.91545e-14 -98287.3)
(-637622 78859.6 4.45039e-14 3211.81 -2.58865e-14 -157410)
(-853562 103033 -2.27001e-14 10576.4 1.46309e-14 -209162)
(-783367 61660.6 2.29795e-16 167.868 3.95447e-15 -194328)
(1.63926e+06 75422.8 2.7925e-15 -7255.26 3.28171e-14 404934)
(-1.01587e+06 102182 -2.22735e-14 6987.68 -6.43268e-16 -250325)
(-1.05802e+06 53865 0 9185.11 0 -260237)
(521441 41219.7 -7.36684e-14 -5517.07 -4.45055e-14 128011)
(-1.15545e+06 55267.2 -1.28323e-14 10261.7 -6.14778e-14 -284144)
(-1.25421e+06 55999.8 1.70337e-14 11569.5 -2.6532e-14 -308324)
(343959 43953.2 -9.12675e-14 -1787.47 -1.63637e-13 84899.7)
(68545.9 59120.3 -1.48611e-14 2392.73 -1.23228e-14 17601.3)
(1.03248e+06 98144.1 -3.62183e-15 11864.4 -1.59227e-14 259122)
(-26072.1 74169.3 1.19379e-14 -1450.52 -8.94125e-14 -6828.92)
(17841.7 77916.1 -3.15651e-14 2861.08 -1.35557e-13 5136.79)
(-336541 33705.7 -8.28721e-14 510.574 -6.02192e-14 -83375.8)
(19367 78688.3 1.12114e-13 2027.82 -1.33394e-13 5308.48)
(1.10687e+06 58881.1 -1.33013e-14 5863.74 -5.719e-14 276091)
(-39969.8 75775.4 0 -2319.97 0 -10492.9)
(87818.9 70985.8 -3.87496e-14 5152.08 7.22059e-14 23068)
(-1.11172e+06 41163 -6.89973e-14 -5534.42 -3.20891e-14 -277213)
(-1.21398e+06 41048.2 4.9458e-14 -5843.53 -2.83952e-14 -302664)
(547850 54398.5 -2.83989e-14 -1650.81 -9.46156e-14 135523)
(-1.31778e+06 41781.4 -9.47824e-15 -5469.11 -5.03412e-14 -328324)
(361441 54261.3 2.42605e-13 1410.11 -7.5711e-14 90030.6)
(1.88065e+06 48605.8 0 -6838.48 0 464930)
(815007 111891 -1.4353e-14 -3276.87 7.53289e-15 201407)
(971518 43769.6 -2.53115e-14 -10567 -1.76189e-14 238431)
(-92650.6 78195.1 -9.61829e-14 -214.388 -5.92843e-14 -23041.7)
(212619 74666.7 0 2218.98 0 53305.7)
(-755669 44628.1 -4.6427e-15 2528.42 4.93889e-14 -186869)
(-530114 42411.1 1.61291e-13 3807.23 1.89078e-14 -130588)
(-10906.8 77192 9.04178e-14 473.774 5.63241e-14 -2588.65)
(38932.1 123337 -1.99875e-15 7514.43 1.74333e-14 11524.3)
(-2.16167e+06 5588.85 -3.08436e-15 -11198.2 -4.77975e-15 -539132)
(1.7105e+06 -72898.3 4.10097e-15 -78426.5 7.3037e-15 404950)
(-58186.9 21754.7 7.78547e-14 1826.53 2.89205e-14 -13984.2)
(-476007 88135.9 5.81438e-15 -5085.98 -4.83827e-14 -119369)
(380936 57374.7 -4.92055e-14 8035.81 7.20802e-14 96511.8)
(-337739 91989.6 4.03937e-14 -6790.94 -7.29289e-15 -85484.8)
(1.7646e+06 22975 -3.59766e-14 -13508.1 -1.24741e-14 434482)
(-46368.6 80894.7 3.82684e-14 764.139 -6.23068e-14 -11315.4)
(-375344 72883.9 -2.21539e-14 -2649.75 3.81134e-14 -93787.8)
(299091 73153.5 6.71543e-14 2631.39 -3.83218e-14 74863.6)
(1.61921e+06 14300.6 3.94674e-15 -398.498 -2.36721e-14 401660)
(-234713 33626.4 -1.09506e-13 2235.19 -1.32379e-13 -57682.6)
(-779797 20865.8 7.70902e-14 3818.62 2.57158e-14 -192536)
(-552967 23748.3 2.21891e-15 3980 -1.35303e-13 -136215)
(-60159.3 23369.1 0 -3162.59 0 -15711.5)
(-947141 58507.7 -1.73941e-15 9585.88 5.83665e-14 -232626)
(-20976.9 78747.5 -2.19362e-14 212.273 4.53056e-14 -5152.13)
(-47109.7 62268.2 -8.45088e-14 -3218.76 9.4579e-14 -12487.5)
(-41493.2 60766.3 5.92705e-14 -2323.23 -3.62884e-14 -10871.8)
(-1.4431e+06 318097 -5.16226e-15 181785 4.69298e-15 -312957)
(1.74905e+06 66766.8 -1.36819e-15 -6387.1 -1.43454e-14 432391)
(-316372 49661.5 -8.14183e-14 4459.38 -5.92313e-14 -77391.9)
(1.6929e+06 14497.6 -3.01067e-14 3656.37 2.67936e-14 420949)
(-228227 21766.2 7.19909e-14 124.573 -2.36275e-13 -56596.8)
(-169283 43006.1 1.35376e-14 1115.22 -1.29237e-14 -41726)
(-160615 55127.4 1.38208e-13 2730.54 1.38643e-13 -39174.3)
(-2.17962e+06 -40444.5 1.11622e-14 9131.27 5.19891e-14 -538541)
(93809.4 53303.7 0 8050.18 0 25273.4)
(50884.8 63911.2 -1.43689e-13 1387.28 -5.66363e-14 12969.8)
(35189.6 68163.5 4.98173e-14 1627.13 -3.93731e-16 9134.97)
(-74176.7 60643.7 3.41478e-14 -7644.63 9.6666e-14 -20301.5)
(-1.22111e+06 68537.2 -1.90491e-14 -6931.18 9.65282e-14 -304702)
(371925 50070.5 1.15963e-13 3810.16 -3.60814e-14 93227.4)
(-1.1223e+06 65846.3 0 -6179.23 0 -280000)
(-1.02652e+06 64423.6 -4.01244e-14 -5556.24 -4.10827e-14 -256080)
(550209 47203.7 5.31438e-14 4904.22 3.24531e-15 137735)
(-11865.4 76309.9 -1.87328e-13 -2706.9 -1.20187e-13 -3615.7)
(1.22203e+06 90805.3 0 -3887.15 0 302245)
(-100166 67342 -3.97431e-14 1843.7 -6.59159e-14 -24395.7)
(64456.7 17824.4 -2.29197e-14 4441.92 -3.32681e-14 17095.2)
(150518 66880 1.7602e-13 874.651 3.15046e-15 37563.5)
(48669.4 -36705 -7.25963e-16 -103339 -5.38044e-16 -13564.7)
(-2579.27 10086.3 1.88933e-17 6056.35 -1.12361e-16 862.733)
(-49110.8 -36459.2 -4.59219e-16 103012 3.05853e-16 13374)
(-11864.4 77707.2 -5.82405e-14 -277.89 -8.48179e-16 -3012.76)
(-635151 50678 -1.42961e-14 -2510.55 5.7104e-14 -158217)
(45650.9 38071 3.20106e-14 -172.494 -8.95742e-14 11284.1)
(691199 56910.2 -6.92766e-14 -6556.09 -9.59007e-14 169874)
(-1.15842e+06 102240 4.68926e-15 -92.0149 9.54172e-15 -287451)
(-381469 71718.3 -2.8928e-15 6074.66 9.14754e-15 -93142.9)
(-944.931 82635.2 -8.98817e-15 -677.842 -4.4732e-14 -402.643)
(299502 94089.3 -1.86928e-14 2364.62 -3.2362e-14 74899.2)
(-141591 68156.8 -5.50504e-14 -254.528 1.21423e-13 -35194.6)
(-99350.4 71593.9 -1.86453e-13 -760.478 -8.99477e-14 -24839.5)
(1.73443e+06 21547.8 1.05725e-14 4333.94 2.21143e-14 431422)
(1.12917e+06 56912.4 1.71566e-14 3828.74 3.48674e-15 281121)
(1.2291e+06 58420.2 3.28833e-14 4587.62 4.5849e-14 306103)
(1.0334e+06 55655.6 1.20173e-13 3846.4 7.12317e-14 257363)
(-376941 51431.7 5.43427e-14 -4134.06 8.48824e-14 -94552.4)
(-557278 49963.9 -1.43749e-13 -4288.91 5.16853e-14 -139336)
(200836 61632.4 6.14407e-14 254.429 -3.22183e-14 49894.5)
(1.56205e+06 35557.2 1.59562e-14 -179.164 9.42111e-15 387532)
(218809 30655.3 -4.47765e-14 -3145.65 -1.76062e-13 53510.5)
(-68688.6 72507.8 -1.55245e-13 1117.92 1.45208e-13 -16765.7)
(1.46287e+06 71657.7 -1.83339e-14 789.04 2.2851e-14 363164)
(-123478 96626.1 -5.04052e-14 216.251 -1.35697e-14 -30583.6)
(-195307 44099.7 -3.48084e-14 2683.46 -1.46718e-14 -47793.8)
(59923.5 86587.4 1.11138e-13 -2927.43 -1.59144e-13 14141.9)
(85254.6 90999.5 -7.74862e-14 -1636.32 5.33063e-14 20747.4)
(-60685.5 71518 -2.25426e-14 2376.17 -3.32646e-14 -14467.7)
(-105372 63892.5 -1.41362e-13 -547.931 -1.10341e-13 -26281)
(-2787.71 76705.7 -1.35866e-13 -2498.09 -1.02271e-13 -1311.52)
(-33059.3 76191.9 -8.14556e-14 -2062.96 8.95193e-14 -8714.55)
(-6937.97 77524.9 -5.32519e-14 -1901.81 -5.07665e-14 -2193.33)
(8458.24 54559.4 2.53324e-15 36660.9 1.13458e-13 11195)
(-34775.1 8158.25 -3.84377e-16 -8015.28 5.39497e-14 -10617.2)
(-1.85248e+06 -297297 1.6652e-14 77283.6 -8.43483e-15 -440463)
(-1.32745e+06 69494.6 1.19711e-14 -10098.7 -1.82371e-15 -331874)
(406580 45584.5 6.13607e-14 3931.83 -5.98572e-14 101856)
(-1.21643e+06 70355.2 -4.75634e-14 1375.27 2.98841e-14 -301480)
(587394 41693 -2.76628e-14 4696.27 8.37605e-14 146910)
(-1.11538e+06 66857.5 1.81457e-14 1670.25 1.82281e-14 -276335)
(-1.01889e+06 64799.2 -1.04423e-13 1982.15 7.98259e-14 -252316)
(338345 62937.4 6.00818e-14 -3547.86 1.67503e-13 83070)
(-1.04068e+06 30658.2 6.49475e-14 7498.01 -8.93949e-14 -256353)
(492299 65129.4 7.46016e-14 -4108.41 -5.94122e-14 121130)
(-955072 30640.3 5.37242e-14 6509.6 -9.26195e-14 -235358)
(-872882 31992.5 -5.57156e-14 6474.62 -5.01651e-14 -214973)
(-493711 86034.4 4.19537e-15 14625.5 4.20869e-14 -118871)
(148685 72203.3 -2.99932e-14 -5786.09 -1.99872e-13 35456)
(212233 69322.2 -4.79594e-14 -6869.82 -1.38633e-13 50954.8)
(-310849 67668.4 -1.4445e-14 10025.2 8.33124e-14 -74640.5)
(1.25398e+06 43104.5 -9.15822e-14 1596.42 -3.08859e-14 311534)
(-1.29634e+06 -14471.4 8.80961e-14 -10629.2 2.72559e-14 -324286)
(727525 42862.4 6.19765e-14 -2886.67 -5.77308e-14 179797)
(-378304 45040.8 1.39336e-15 6717.45 8.27946e-15 -92198.2)
(-171944 69172.1 -7.77841e-14 2556.31 -6.42909e-14 -42028.5)
(-180110 58350.5 6.65682e-14 -1905.54 -6.02446e-14 -45161.8)
(18745.7 77218.3 5.06042e-14 1731.68 9.24633e-14 5080.85)
(-255408 50806.7 -1.13808e-13 81.5141 1.18053e-13 -63351.6)
(217261 60232.6 -5.96825e-14 -4454.7 -6.30828e-14 52801.7)
(147001 69392.8 -5.46831e-14 2098.33 4.21634e-14 36994.6)
(-471846 56327.6 9.25688e-14 7233.36 -6.233e-14 -115280)
(-659483 61869.1 3.36832e-14 2806.41 7.36875e-14 -162935)
(1.34878e+06 22172.7 2.09202e-14 1653.24 -2.86144e-16 335069)
(-6021.96 80761.7 2.65646e-14 -252.042 -1.29256e-13 -1556.71)
(1.9733e+06 75173.9 -2.44695e-14 -12402.1 -1.33441e-14 486538)
(-210346 62193.3 -9.83036e-14 1267.95 6.77562e-14 -51876.6)
(1.70293e+06 48654.8 0 -17853.5 0 418101)
(-484283 62979.8 2.90476e-14 -4343.53 1.21201e-13 -121238)
(-529638 63378.2 -2.9778e-14 -5189.09 3.5351e-14 -132702)
(-575694 65298.6 -4.78869e-15 -5378.9 1.28028e-13 -144176)
(265083 69025.5 -7.29023e-14 799.985 1.7938e-14 65971)
(180089 71476.4 -7.77473e-14 154.419 1.92024e-14 44722)
(-2.1538e+06 -14877.2 1.94223e-14 -8438.79 -1.10878e-14 -536494)
(-1.32664e+06 67905.9 -1.98568e-14 -7604.07 3.75167e-14 -331054)
(461428 49306.8 -7.76129e-14 4663.08 -4.54355e-14 115647)
(639241 45818.1 2.18174e-13 4794.72 -1.17293e-13 159798)
(72553.9 76631.8 4.26733e-14 -7495.68 -1.10365e-13 16142.3)
(-378576 36042.2 0 1733.68 0 -93502.1)
(-384227 21306 1.16703e-13 -1504.1 -5.9342e-14 -95707.7)
(1.87346e+06 53056.2 3.16847e-14 -13421.7 2.11479e-14 461514)
(1.91841e+06 -9319.23 2.6252e-14 12202 2.32267e-14 479025)
(999144 25779.6 1.56021e-15 -758.831 5.53437e-14 247720)
(915297 27082.2 1.12066e-14 -117.939 1.34194e-13 227075)
(1.08662e+06 23935.2 2.86507e-14 -1761.47 -4.14038e-14 269175)
(-470414 66614.6 -7.04107e-14 4101.64 6.3373e-14 -115702)
(-313393 64017.9 -6.82972e-14 2690.3 7.49329e-14 -77091.7)
(204564 87948.1 0 1828.34 0 51210.2)
(138939 86708.1 -2.84715e-15 831.674 1.0862e-13 34680)
(446173 67081.5 -8.38507e-14 -297.897 6.85774e-14 110631)
(-188949 63632.6 -6.70475e-14 2270.15 1.5905e-13 -46318.7)
(-299065 95696.4 -1.33625e-14 3492.35 5.91563e-14 -73337.6)
(91234.5 70497.9 -2.48805e-13 -872.49 -6.60451e-14 22420.6)
(129631 66373.4 -1.72175e-13 -700.526 7.20626e-14 31990.2)
(-81148 79710.7 -3.3544e-14 2025.2 -4.68917e-16 -19632)
(-226484 55290.1 -2.79129e-14 4874.6 -1.74419e-14 -54985.9)
(-207660 55449.7 1.84181e-14 4039.91 -3.14677e-14 -50522.4)
(-210325 42112.5 0 -622.065 0 -52340.2)
(-102293 99347.5 3.87039e-16 -4734.94 -3.68116e-14 -26555.8)
(-954981 5441.26 8.16091e-14 -6715.78 -3.57365e-14 -238617)
(1.20014e+06 50839.3 -1.06248e-13 -5311.28 -1.06738e-14 296461)
(1.514e+06 162291 6.39193e-15 -263609 3.23594e-15 310247)
(-36147.5 68788.2 2.22172e-14 -3036.57 -5.03762e-14 -9722.36)
(228600 25357.8 8.10702e-14 1837.27 -1.85142e-13 57176.3)
(-1.89947e+06 -233354 1.59874e-14 156151 -1.03968e-14 -432552)
(106238 55210.1 3.47e-15 3739.34 9.40995e-14 27287.6)
(289150 38721.1 6.5457e-14 1614.79 -7.51598e-14 72144.5)
(319182 42121.1 9.13956e-14 -4808.83 -3.85708e-14 78002.4)
(-4130.53 80115.3 6.88348e-14 -65.2181 -1.02129e-14 -1041.05)
(-4763.04 82636.1 7.26103e-14 -612.528 6.14269e-15 -1333.79)
(868902 32667.9 2.32356e-14 -5131.2 7.74591e-14 214319)
(719987 84329.9 2.95936e-14 5387.83 -7.14157e-15 179980)
(-654373 70142.9 0 5911.51 0 -160896)
(-559724 39790.4 -7.5164e-14 -9069.16 -4.70314e-14 -141129)
(1.84584e+06 -300175 -6.70451e-15 -79247.3 -4.55297e-15 438328)
(-560574 109795 -6.05137e-15 15329.5 7.08634e-14 -135286)
(-899198 40800.3 4.18184e-14 -2436.72 -2.46899e-14 -223714)
(-1.92629e+06 -775361 -1.80597e-14 405965 7.0733e-15 -377224)
(2.28188e+06 2807.76 0 31229.1 0 573929)
(-1.6871e+06 -718346 -5.87788e-15 191865 1.82053e-15 -370998)
(291665 110354 -3.98616e-14 -5.79601 1.4086e-14 72366.5)
(-65556.2 65698.5 -7.02191e-15 -1692.38 9.82114e-14 -16685.7)
(-854450 80952.5 3.51791e-14 -7092.32 -3.87351e-14 -213766)
(-779346 79917.3 5.23792e-14 -6028.73 -6.53539e-15 -194867)
(-713134 77733 -5.96791e-14 -5460.91 2.31087e-15 -178298)
(253826 57841 5.20945e-14 3599.17 -1.45379e-13 63872.3)
(379498 54542.1 -1.30804e-13 4364.09 1.27193e-13 95243.9)
(37652.1 69427.3 -2.05556e-14 -7190.81 9.65015e-14 7558.05)
(53389.6 64704.7 4.86853e-14 -9346.49 6.23864e-14 10928)
(-124963 104069 -5.59404e-14 19807.8 1.51494e-14 -26091)
(-77988.8 60995.3 4.14827e-14 13641.1 -5.30784e-14 -15966)
(-1.05686e+06 -425425 -4.55503e-15 -26101 9.51726e-16 -268706)
(192405 104688 -3.1732e-14 14680.5 -1.12635e-13 51382.2)
(-95309.3 62612 -1.0874e-13 -7811.62 -4.9726e-14 -25586.4)
(-447477 96327.6 0 218.303 0 -110974)
(192288 60266.4 8.42067e-14 1373.99 -3.44121e-14 48051.5)
(-94255.5 83593.4 0 -329.312 0 -23468.4)
(-71299.9 68635 -5.28635e-14 -486.178 -8.37607e-14 -17811.6)
(666391 69434.7 7.41975e-14 4032.19 -7.75966e-14 166346)
(684767 45230.9 1.13514e-13 -211.294 5.42285e-14 169852)
(1.92186e+06 -773656 -6.7506e-15 -405925 -2.23532e-15 376135)
(1.05433e+06 -424821 7.89016e-15 25863.8 2.1649e-15 268019)
(-211022 50609.2 1.61154e-14 1523.87 2.29399e-14 -51980.6)
(-225499 51847.5 -4.89558e-14 -2615.95 -1.00143e-13 -56599.9)
(-1.19021e+06 3548.15 -5.40346e-14 -4999.17 -1.23971e-14 -296555)
(962915 48200.2 1.22201e-13 -3782.39 -3.19495e-14 237980)
(313310 65036.6 4.02775e-15 -2389.12 2.21867e-13 77145.7)
(469465 68648.2 7.53652e-14 -3294.97 8.19771e-14 115666)
(-1.09031e+06 24687.9 -1.96081e-15 -1369.44 4.71428e-14 -270868)
(-1.00482e+06 27297 -4.78284e-14 -621.094 1.58178e-14 -249471)
(-919874 29158.2 -3.15114e-15 -737.6 7.42477e-14 -228423)
(-13797.8 81913.9 -1.146e-13 -985.715 3.31583e-14 -3668.08)
(-1.18651e+06 26089.2 3.11964e-14 -2064.75 3.35605e-14 -294910)
(392158 64630.9 -7.72408e-14 -2485.62 3.79025e-14 96685.7)
(548392 67220.3 0 -3323 0 135243)
(518051 52208.3 2.94646e-14 -3747.95 7.03801e-14 127609)
(100304 68054.2 -9.68432e-14 1405.1 -2.561e-13 25236.1)
(8248.34 71684.6 -8.48705e-14 -8228.89 -3.12262e-14 4.82775)
(432071 41668.5 -1.09004e-13 13765.4 1.9589e-14 110621)
(-362442 53787.1 -9.2654e-15 -1086.77 -7.49143e-14 -90199)
(57178.7 75064.4 1.26737e-15 -13567.3 1.59274e-14 10820.9)
(1.68263e+06 -717371 -6.11018e-15 -192590 -1.53898e-15 369710)
(256309 74227.4 7.70017e-15 -2603.37 -1.42206e-13 62949.6)
(309181 72537.8 6.61773e-14 24.1616 2.25132e-14 76720)
(-203938 72083.6 0 231.814 0 -50543.6)
(-242158 80398.6 2.46601e-14 -5892.52 -6.86673e-14 -61546.5)
(713156 77264.3 0 7006.25 0 178687)
(779334 79925.5 4.37593e-14 7159.47 4.15531e-14 195145)
(846496 83678.3 -9.81336e-14 7335.72 -9.46739e-15 211853)
(-380642 51726.2 1.38071e-13 -5199.98 1.4028e-13 -95735.2)
(-257614 56408.8 7.25043e-15 -3861.12 -8.39268e-14 -64877.3)
(-14473.8 78737.1 8.16291e-14 366.235 4.34742e-14 -3500.38)
(1.72478e+06 15732.2 -1.27947e-14 -27130.9 -2.35194e-14 421221)
(-11164 88904.1 -8.82374e-14 -5425.67 2.74981e-14 -4116.24)
(20933.6 48466.9 -8.48407e-14 10391.7 -5.28469e-14 7772.46)
(37690.6 75033.8 6.34307e-14 982.99 -1.47257e-13 9595.71)
(403518 73382.2 6.76653e-14 -64.7234 7.15304e-14 100105)
(-160959 6918.79 -1.12292e-13 -3048.43 5.5079e-15 -40693.6)
(532655 81966.1 0 -3299.15 0 131344)
(1.8194e+06 -72965 2.95657e-16 -257453 1.18947e-16 387551)
(404629 21654 6.48155e-14 5799.54 1.47425e-13 101836)
(388340 32721.4 2.93773e-14 -5898.04 1.60107e-14 94891.6)
(-580687 69333.2 9.6661e-15 5503.57 2.04044e-14 -142715)
(-413297 65738.8 -7.5246e-14 4240.32 2.41054e-14 -101495)
(-494980 44841.3 -1.53934e-13 -1596.84 -2.69409e-14 -123211)
(-354930 49325.8 7.76563e-15 -2401.1 -8.16827e-15 -88661.1)
(1.24142e+06 22402 -5.43821e-15 -3189.08 1.78613e-14 307231)
(1.02729e+06 88994.5 2.26952e-15 -214.699 -3.69327e-14 254839)
(292486 80219.3 1.36282e-14 -3227.78 8.06262e-15 71770.8)
(393721 67321.6 2.5578e-14 134.204 4.35337e-14 97723.5)
(215459 79732.9 7.11263e-14 -4086.88 5.06923e-14 52445.8)
(289639 67643.6 6.37857e-14 -2326.94 -1.00988e-14 71287.9)
(-562563 50441.8 -1.18236e-14 5436.78 2.97089e-14 -138234)
(-739296 76203.7 -3.28158e-14 1634.76 5.89738e-15 -183029)
(-171111 118207 3.65331e-14 -692.999 2.61086e-14 -42628)
(1.22553e+06 55033.3 4.08373e-14 4829.28 2.93439e-14 305276)
(1.32918e+06 55207.6 -8.85833e-15 21488.1 4.4088e-15 335128)
(1.57877e+06 55807.7 7.18966e-15 -2298.06 4.53596e-15 391154)
(108514 75716.2 -1.38378e-13 826.564 1.68071e-13 27129.7)
(-399377 22816.9 -8.57504e-14 -4671.59 -4.40937e-14 -100253)
(-385681 35295.5 -1.08804e-13 4688.4 7.27887e-14 -94532.1)
(1.83486e+06 -4877.29 0 12525.9 0 458373)
(1.83907e+06 59435.2 0 1317.95 0 456638)
(1.08214e+06 47055 1.67762e-14 -1883.44 8.01716e-14 268032)
(1.07399e+06 10509.2 5.38398e-14 4672.87 -1.51057e-13 267638)
(-1.11801e+06 12320.9 0 -8851.17 0 -279597)
(-1.08971e+06 46874.1 0 7453.43 0 -268529)
(31706.5 74430.1 -1.90678e-14 2792.65 5.46321e-14 8559.95)
(-78744.8 34601.3 2.04089e-13 -4945.99 -8.64081e-14 -20765.4)
(-298217 33406.9 -5.381e-14 -3461.19 -1.98578e-14 -74852.4)
(2.41772e+06 3978.58 0 49219 0 612099)
(-42856 66166.7 -1.34574e-13 -2713.04 -3.36436e-15 -11306.6)
(-50214.5 68958.6 -1.9383e-14 -5165.79 -1.07842e-13 -13741)
(259931 85985 -6.94771e-14 -5696.64 -4.76252e-14 63080.7)
(-206055 85041.3 -1.44823e-13 -5783.52 6.06636e-14 -52561.5)
(248825 53608.3 4.21292e-14 -7270.26 -4.35833e-14 59934.6)
(-954686 44780.8 2.98015e-14 -8422.57 -6.07459e-14 -238967)
(960322 48685.2 -1.23435e-14 -9515.84 -7.42906e-14 235914)
(-1.63932e+06 73116.9 1.29009e-14 -10110.6 -5.5433e-14 -409258)
(-1.96702e+06 -175711 6.89708e-15 368979 -4.98853e-15 -396506)
(682144 97324.5 -1.09575e-14 -14322.6 1.36412e-14 165700)
(75339.2 92962.5 -7.20166e-15 -4145.13 4.05328e-14 17664.7)
(-901102 76694.6 -3.61114e-14 -4848.98 -1.0106e-13 -224785)
(756033 28151.3 -4.6917e-14 8793.07 6.76524e-14 189769)
(-525994 48136 5.18153e-14 -9349.76 6.64554e-14 -132830)
(408817 75282.9 7.76786e-14 4944.05 1.35552e-15 102663)
(75636.7 83962.4 2.16396e-14 3923.4 1.013e-15 19740.5)
(131682 66037.1 -9.15195e-14 -1069.04 1.14974e-13 32407.6)
(-262618 57519.3 6.31453e-14 -16762.4 -6.71174e-14 -69319.9)
(-424343 109782 1.05356e-15 6998.12 8.45241e-14 -103552)
(-240452 57739.4 9.71855e-15 -15613.6 -6.78017e-14 -63535.1)
(-388511 105653 6.15336e-14 6152.75 -2.24932e-14 -94870.8)
(95637 48987.6 -3.87693e-14 -2935.5 1.20586e-14 23001.1)
(-45069.8 90147.5 -1.02121e-15 2432.02 -7.56441e-14 -10579.3)
(-29497.3 89333.5 9.37471e-14 2189.41 7.52125e-14 -6775.65)
(-19999.7 81046.4 4.82437e-14 500.172 -1.0508e-13 -4838.22)
(1.30816e+06 40107.8 2.80801e-14 3318.1 4.34857e-15 325405)
(-13660.8 90891.7 -1.06175e-13 -6195.57 -4.72079e-14 -4926.78)
(-51829.2 68245.2 5.23813e-14 -5502.62 -1.75452e-13 -14225.2)
(1.83214e+06 -50045.5 -1.39535e-14 -95121.9 -1.02234e-14 430990)
(297968 55108.4 5.58593e-14 -5039.06 -7.1668e-14 72681.5)
(-696580 94895.6 3.75682e-14 12487.8 1.0155e-14 -169737)
(-791900 59876.1 -6.10584e-14 1900.34 -2.67256e-14 -196015)
(-786678 28965.2 0 -8951.91 0 -197412)
(990206 18245.9 -5.50299e-14 5561.91 -2.61701e-14 247070)
(947907 68070.1 3.31319e-15 8818.53 6.55807e-14 237383)
(-31399.1 57195.8 -6.1965e-14 1396.91 5.0525e-14 -7444.16)
(-23898.7 57586.7 4.49567e-14 1736.48 -2.51425e-13 -5498.89)
(-628138 101907 -2.48858e-14 6871.6 -6.1504e-16 -154149)
(-845601 73628.5 0 10388.9 0 -207233)
(598608 48500.1 1.36398e-14 6481.64 3.36837e-14 150135)
(-1.55131e+06 90916.3 5.9592e-15 -6707.88 -1.89296e-14 -386576)
(52729.6 63654.7 0 12868.8 0 16276.3)
(847560 41564.1 -2.96216e-15 -1676.93 2.04499e-14 209881)
(642300 98779.8 -1.59297e-15 6355.32 7.79475e-17 160945)
(-401875 79878.7 1.1531e-13 4976.9 -1.48298e-14 -98478.5)
(-312276 55644.9 -1.12567e-14 -1308.35 8.1272e-14 -77806.6)
(-286461 76481 1.78225e-14 3528.75 -6.77754e-14 -70201.2)
(-224005 59129.8 -1.00743e-15 -1906.19 3.98192e-15 -56053.1)
(-322739 38346.6 4.16761e-14 933.353 6.15611e-14 -79846.5)
(-271601 43509.1 -7.29006e-14 4158.55 1.46771e-14 -66358)
(-330450 96216.5 0 1306.75 0 -81667.1)
(-372204 98380.8 -3.68907e-14 -449.79 3.20673e-14 -92463)
(-406055 102314 -3.01654e-15 -298.528 -3.44078e-15 -100825)
(109819 64013.8 -1.79429e-13 1402.35 -8.97221e-14 27596.2)
(-22154.4 77184.5 -3.98243e-14 -2400.94 7.92959e-14 -6092.68)
(792353 38885.3 -2.2524e-14 5139.32 6.41026e-14 197874)
(829279 52300.3 3.11782e-14 -5727.07 -6.05549e-14 204340)
(137711 68358.8 6.45867e-15 132.641 -4.4752e-14 34201.8)
(200834 61825.7 0 2312.04 0 50404.6)
(-442175 98944.5 4.63398e-14 -3136.54 -5.09806e-14 -110491)
(388836 61217.8 -8.85589e-14 4452.68 -1.10715e-15 97582.9)
(424580 88672.6 -3.87639e-14 5237.23 -2.39461e-15 106646)
(-154200 73376.3 -7.37542e-14 -1509.18 1.05735e-13 -38634.5)
(-131172 76404.7 4.30359e-14 -2122.52 2.52784e-15 -33073.1)
(-189593 79972 6.97789e-14 -226.637 2.48259e-14 -47098.1)
(-210584 69345.3 0 -1794.71 0 -52695.3)
(-925070 42802.4 2.06267e-14 -18.5972 -3.1517e-14 -229533)
(422073 70804.7 -3.37645e-14 -400.426 -1.33638e-13 104626)
(301282 69468.8 -1.54689e-14 -871.66 -2.21117e-15 74538)
(-102989 188165 -9.49951e-15 19138 -6.82394e-15 -20805.2)
(1.09554e+06 32845.6 -7.09357e-14 -8247.89 -4.25047e-14 269780)
(-1.28266e+06 11558 6.15114e-14 2226.21 3.6818e-14 -317702)
(-152218 174530 0 -6867.49 0 -39472.3)
(-153037 71941.4 2.57785e-14 2243.25 7.78372e-14 -37414.9)
(-129564 75777.7 -1.93899e-13 3888.92 -4.91967e-14 -31182.4)
(-222255 69621.4 8.36636e-14 1528.68 9.37125e-16 -54766.6)
(-191479 76046.7 0 3077.19 0 -46746.4)
(434246 58505.2 4.29364e-14 -3516.5 -6.91227e-14 106873)
(498599 80523.9 1.56655e-14 -3218.72 6.6427e-15 122914)
(403991 61817.4 -3.18857e-14 -7256.13 3.05363e-14 98438)
(471232 82508.6 3.39944e-14 -5267.84 9.40538e-14 115615)
(369521 61103.6 2.66546e-14 -6210.25 4.47557e-14 90144.9)
(430949 80196 -5.79451e-14 -4661.27 3.31245e-14 105771)
(341762 36982 2.63004e-14 395.537 9.93495e-14 84896.2)
(329798 22911.4 7.73413e-14 3180.81 1.65636e-13 82618.7)
(-662078 80669.2 -1.49264e-14 358.604 1.96384e-14 -164186)
(306235 75308 -8.01375e-14 -4056.31 -1.94613e-15 74976.6)
(-734979 58860 0 5997.78 0 -180875)
(1.27024e+06 83497.2 4.35728e-14 -11066.9 -2.74266e-14 312428)
(-637514 36769 8.07602e-14 2409.13 -1.3277e-13 -157582)
(-465430 41539.1 9.74991e-14 628.366 -6.55374e-14 -115327)
(-1.45387e+06 -687281 -5.59711e-15 232359 1.25326e-15 -303081)
(43223.2 72598 1.08887e-13 363.455 -2.86015e-14 10814.7)
(1.3487e+06 48007.6 -1.45547e-14 -3327.01 -7.33915e-16 333814)
(-651053 55072.6 -2.26283e-14 2248.2 -6.55789e-14 -160982)
(-469277 53545.5 1.41272e-13 1825.71 6.95394e-14 -115984)
(2.02457e+06 -12990.7 2.37433e-14 -4287.81 1.05719e-14 501274)
(-90593.2 64905.4 -1.56172e-14 -1079.27 6.26642e-14 -22745.8)
(1.39126e+06 14825.7 3.62497e-14 4142.62 -2.25408e-14 346228)
(-325458 56117.6 4.88635e-14 1571 -8.61627e-14 -80362.9)
(-1.15484e+06 83437.3 2.94221e-14 11863.9 -3.83021e-15 -283596)
(-1.08562e+06 54300.7 -1.79735e-14 -6731.28 -1.37368e-15 -271036)
(1.04934e+06 55797.4 -3.4044e-14 1451.93 2.22843e-14 260722)
(-132659 74711.6 -2.13561e-13 5541.45 -9.72344e-14 -31540.4)
(-3186.26 -36922.8 2.27752e-16 -57865.6 8.09193e-17 -15148.2)
(-16966.3 69460.6 0 3034.9 0 -3456.66)
(-1.92922e+06 -615925 9.19019e-15 244544 -2.53695e-15 -418001)
(1.44948e+06 -686339 1.08737e-14 -234395 3.42796e-15 301488)
(-918729 86628.2 3.79241e-14 -7893.84 -3.68155e-14 -229914)
(316380 54760.5 1.63218e-14 2639.53 6.30298e-14 79155.2)
(437488 49897.8 -5.25612e-14 3389.46 1.19627e-13 109391)
(128112 70915.3 1.05138e-13 -1462.98 3.13198e-14 31424.2)
(-238439 16492.6 6.09367e-14 285.038 -9.37234e-14 -59090.7)
(212028 90417.8 -5.0741e-14 -1307.79 4.6442e-14 52283.9)
(-108108 56942.3 1.49894e-14 879.625 2.29886e-14 -26605.5)
(-100569 101202 1.08242e-14 4011.05 3.14414e-14 -23958)
(-1.57916e+06 5784.91 -5.02713e-15 42827.1 1.19925e-14 -381196)
(12938.8 -21973 5.97627e-17 -38356.3 3.70858e-17 -6306.61)
(-537044 89679.2 -2.246e-16 6651.68 4.25257e-15 -131601)
(421451 51435.4 3.80178e-14 -2496.32 1.17884e-13 103951)
(1.64137e+06 -317634 9.62618e-16 -43724.4 1.25661e-15 396407)
(-48053.1 56433.4 -9.77913e-15 -7953.01 -7.60405e-14 -13896.2)
(-54060.2 92654.9 7.75916e-15 -3318.77 7.42407e-14 -14236.9)
(-30904.6 81062 -1.32816e-15 571.613 -1.13777e-13 -7526.24)
(-81284.6 71534.5 -2.11393e-14 2908.04 2.88316e-14 -19446.8)
(35844.7 79897.6 3.39483e-14 -1267.35 8.77525e-14 8579.35)
(23777.8 82448.3 -7.97368e-14 -491.207 -2.60394e-14 5777.87)
(-1.64645e+06 -315965 4.11987e-15 42267.2 -1.27298e-15 -398030)
(572099 86193.5 -3.12939e-14 1927.57 1.6951e-14 142428)
(-200133 69729.1 -2.13418e-13 94.8915 -6.05637e-14 -49633.6)
(668709 73457.9 1.11789e-13 5406.55 -1.89199e-13 167262)
(612609 71680.9 -1.35279e-15 4777.44 -7.24635e-14 153186)
(559920 68973.9 -2.06992e-13 2526.99 3.127e-14 139554)
(97647.4 42164 -1.04291e-13 4114.47 -3.90261e-14 25249.2)
(-1.32512e+06 31414.9 5.62896e-14 -3623.23 -5.46804e-14 -329689)
(414626 55565.5 1.13111e-13 -2298.3 1.22019e-14 102307)
(586697 57048.5 -5.12242e-14 -2246.84 -7.32955e-14 145014)
(-113987 69684.6 -1.8074e-13 -406.657 -3.04823e-14 -28383.4)
(851728 94549.3 1.19382e-14 -11215.7 1.72934e-14 208548)
(161941 54565.5 -7.31352e-14 -356.237 4.95514e-14 40092.5)
(-1.70801e+06 24121.8 -1.91453e-14 -2285.36 -7.10138e-15 -424359)
(49092.5 71416.5 -9.43119e-14 1906.14 -7.93676e-14 12653.8)
(-143470 75569.9 -1.87551e-13 1883.69 8.85923e-14 -35130.4)
(480092 59152.8 1.4195e-13 1718.27 -2.04682e-14 119547)
(439636 58731.7 1.32509e-13 1171.31 3.22424e-14 109373)
(401549 56855.7 -9.60056e-14 -694.044 2.6468e-14 99460.4)
(888082 45456.6 1.4351e-14 149.077 3.02553e-14 220388)
(191217 74846.9 -6.33043e-14 2802.15 -1.35715e-13 48140.2)
(-486166 63710.3 4.33482e-14 -7493.2 9.73377e-16 -122487)
(-382537 112725 2.64973e-14 3568.31 2.95741e-14 -94029.9)
(-212981 48223.2 0 1502.09 0 -52472.1)
(-670885 82964.7 -5.82354e-14 -7512.07 1.77297e-14 -168324)
(-733862 85425.4 -8.76889e-14 -8308.21 -5.80779e-15 -184147)
(-799791 89448.5 -8.75961e-14 -9452.57 4.22195e-14 -200790)
(378492 57019.4 1.79285e-15 6044.85 2.22901e-14 95411.4)
(259261 62238.6 2.81974e-14 4103.16 -3.53101e-14 65346.1)
(70091.8 9281.39 -8.1983e-14 3441.7 2.95783e-14 18245.2)
(134454 59254.6 0 -1845.29 0 32902.8)
(173207 48415.6 -9.59833e-14 1076.34 5.73005e-14 43243.3)
(1.98487e+06 -93241.4 -5.16038e-15 -264601 -2.49498e-15 426835)
(741576 40652.7 9.47546e-14 569.627 -9.72437e-14 184141)
(-568818 75249.5 0 842.366 0 -140926)
(-399907 68894.1 -4.69359e-14 7781.84 -2.06554e-15 -97294.3)
(319974 72816.3 2.50329e-14 -3276.6 -3.09641e-14 78579)
(-102281 84439.4 4.18104e-14 -2284.93 3.43082e-14 -25945)
(-13766.9 83778.8 1.2314e-13 -2313.34 -9.70613e-14 -3989.83)
(32797.6 60392.4 9.85258e-14 8424.64 -1.55981e-14 10228.1)
(36011.9 60663.2 -5.15898e-14 9189.31 -4.80684e-14 11215.3)
(-5095.39 105663 -2.58744e-15 -3114.98 -2.12258e-14 -2037.16)
(-8784.38 55758.9 -2.2987e-14 -826.778 7.73269e-14 -2384.72)
(-272.395 64335.4 -8.60568e-14 -1069.05 6.41409e-14 -332.841)
(11442.6 69131.5 8.21873e-14 -13151.3 -3.73467e-14 -423.963)
(142869 50188.5 -6.40537e-15 2326.81 -3.02327e-14 36026)
(-268784 108786 -1.51011e-15 1939.62 -1.46454e-14 -66209.5)
(84364 68611.5 2.06201e-13 831.853 -4.05861e-14 21138.8)
(11538.9 105617 8.67365e-15 -15835.9 1.24001e-14 -1066.16)
(-565094 105912 -2.16266e-14 -2845.11 -1.30032e-14 -140917)
(711092 50589.9 7.12738e-14 3875.6 6.36336e-14 177398)
(-304675 76328 -7.9361e-14 -234.366 2.59627e-14 -75654.3)
(-1.31607e+06 242482 -3.75835e-15 234955 2.25819e-15 -268246)
(-190884 46681.2 5.6497e-14 -2151.64 6.13722e-14 -47896.2)
(-313682 106711 0 2700.15 0 -77161)
(91709.3 68394 1.1003e-13 -670.573 -1.52026e-13 22588.6)
(141901 61747.6 5.82122e-15 -252.254 1.89097e-14 35145.8)
(1.44702e+06 -319860 -1.16567e-15 46239.2 2.04624e-16 370508)
(-1.98568e+06 11245.6 -1.59616e-14 11538.2 7.33911e-15 -489825)
(609815 56441.5 3.48682e-14 5022.3 2.93127e-14 152554)
(666087 56943.5 -3.54296e-14 5213.98 7.71269e-14 166563)
(-203332 75023.4 -2.61034e-13 2058 -9.32207e-14 -49940.2)
(140613 93285 4.60377e-14 9167.98 9.07816e-14 37163.8)
(-31761.3 66009.9 7.34374e-14 -3553.57 1.11789e-13 -8762.35)
(-820660 -533231 -9.96852e-16 62016.3 4.19848e-16 -188235)
(-1.92916e+06 67708.1 5.23522e-15 1891.32 6.75793e-15 -478195)
(1.71447e+06 35659.6 2.8453e-14 2624.67 -1.40408e-14 426045)
(-2.48986e+06 -41719 -7.39711e-15 -6849.24 -3.19218e-15 -619485)
(781855 50461.7 -3.18388e-14 -5462.22 -4.95294e-14 192639)