/*--------------------------------*- C++ -*----------------------------------*\
| =========                 |                                                 |
| \\      /  F ield         | OpenFOAM: The Open Source CFD Toolbox           |
|  \\    /   O peration     | Version:  2.3.1                                 |
|   \\  /    A nd           | Web:      www.OpenFOAM.org                      |
|    \\/     M anipulation  |                                                 |
\*---------------------------------------------------------------------------*/
FoamFile
{
    version     2.0;
    format      ascii;
    class       volScalarField;
    location    "0.37";
    object      k;
}
// * * * * * * * * * * * * * * * * * * * * * * * * * * * * * * * * * * * * * //

dimensions      [0 2 -2 0 0 0 0];

internalField   nonuniform List<scalar> 
9648
(
2.70191
2.70541
2.70411
2.70012
2.69278
2.6813
2.66607
2.64702
2.62399
2.59691
2.56581
2.53094
2.49271
2.45171
2.40863
2.36423
2.31926
2.27445
2.23041
2.18766
2.1466
2.10755
2.07074
2.0363
2.00433
1.97488
1.94793
1.92343
1.90128
1.8814
1.86369
1.84806
1.83446
1.82284
1.81313
1.80526
1.79909
1.79451
1.79142
1.78972
1.78941
1.79048
1.79288
1.79664
1.80172
1.80808
1.81577
1.82478
1.83515
1.8469
1.86008
1.87475
1.89095
1.90868
1.92795
1.94862
1.97039
1.99276
2.01526
2.0375
2.05912
1.73402
1.73463
1.7332
1.73105
1.7304
1.73398
1.74407
1.76179
1.78708
1.81997
1.86019
1.90708
1.95977
2.01726
2.07858
2.14279
2.20905
2.27656
2.34465
2.41276
2.48039
2.5472
2.61292
2.67741
2.74059
2.80247
2.86309
2.92247
2.98062
3.03761
3.09357
3.14858
3.20281
3.25647
3.30968
3.3624
3.41464
3.46638
3.51748
3.56803
3.61824
3.66828
3.71824
3.76798
3.81754
3.86672
3.91551
3.96409
4.01249
4.06061
4.10833
4.15556
4.20239
4.24841
4.29391
4.33861
4.38272
4.42554
4.46731
4.50809
4.54793
1.42535
1.47359
1.52502
1.58128
1.64459
1.71606
1.79546
1.88269
1.97711
2.07817
2.18466
2.29566
2.41
2.52653
2.64415
2.76184
2.87877
2.99412
3.10724
3.2176
3.32475
3.42841
3.52837
3.62457
3.71706
3.80597
3.89146
3.97367
4.05279
4.129
4.20244
4.27333
4.34198
4.40865
4.47361
4.53719
4.5993
4.65983
4.71882
4.77607
4.83199
4.88682
4.94072
4.99401
5.04641
5.09791
5.14842
5.19789
5.24626
5.29353
5.33973
5.38493
5.42932
5.47222
5.51455
5.55529
5.59519
5.63315
5.67041
5.70655
5.74162
1.34425
1.43945
1.54156
1.65093
1.76801
1.89306
2.02577
2.16535
2.31067
2.46057
2.61352
2.76824
2.9233
3.07755
3.22981
3.37906
3.52452
3.66553
3.80159
3.93233
4.05747
4.17678
4.29027
4.39803
4.50029
4.5973
4.68941
4.77697
4.86035
4.93981
5.0156
5.08794
5.15701
5.22327
5.28734
5.34955
5.41036
5.46969
5.52691
5.58238
5.63576
5.68755
5.73852
5.78847
5.83783
5.88634
5.93392
5.98062
6.02617
6.07065
6.11421
6.15654
6.19791
6.23811
6.27765
6.31597
6.35311
6.38905
6.42388
6.45762
6.49008
1.37622
1.51162
1.65722
1.81175
1.97451
2.1451
2.32259
2.50558
2.69261
2.88193
3.07184
3.26064
3.447
3.62967
3.80752
3.97945
4.14478
4.30307
4.45395
4.59731
4.73298
4.86088
4.98116
5.09401
5.19987
5.29925
5.39257
5.48044
5.56324
5.64139
5.71526
5.78493
5.85086
5.91352
5.97322
6.03103
6.08707
6.14111
6.19374
6.24396
6.29237
6.33928
6.38446
6.42883
6.47201
6.51442
6.55626
6.59719
6.63729
6.67614
6.71395
6.75066
6.78617
6.82056
6.85397
6.8865
6.91784
6.94807
6.97711
7.00484
7.03129
1.46054
1.63145
1.81561
2.01047
2.21401
2.42499
2.64183
2.86273
3.08563
3.30833
3.52892
3.74538
3.95654
4.16101
4.35812
4.54655
4.72558
4.89523
5.05507
5.2054
5.34625
5.47741
5.59943
5.71235
5.81706
5.91421
6.00445
6.0885
6.16664
6.23947
6.30741
6.37087
6.43047
6.48661
6.53986
6.59015
6.63822
6.68435
6.72783
6.77052
6.81147
6.85078
6.88943
6.92574
6.96082
6.99499
7.02855
7.06181
7.09427
7.1257
7.156
7.18512
7.21317
7.23997
7.26577
7.29053
7.31435
7.33713
7.35859
7.37851
7.39727
1.57592
1.77919
1.9987
2.23029
2.47055
2.71764
2.96926
3.2232
3.4772
3.72803
3.97419
4.21283
4.44324
4.66395
4.87543
5.07528
5.26308
5.43937
5.60335
5.75609
5.8979
6.02803
6.14786
6.25674
6.35629
6.4476
6.5311
6.60821
6.67846
6.74259
6.80176
6.85567
6.90603
6.95353
6.99734
7.03839
7.07685
7.11116
7.14456
7.17585
7.20632
7.23723
7.2661
7.29385
7.31888
7.34237
7.36601
7.38909
7.41208
7.43412
7.45504
7.47479
7.49344
7.51075
7.52679
7.54208
7.55655
7.57005
7.58202
7.59228
7.60137
1.70997
1.94273
2.19473
2.45981
2.73309
3.01178
3.29378
3.5766
3.85728
4.13186
4.39924
4.65514
4.89993
5.13139
5.35293
5.56003
5.75252
5.93201
6.09598
6.24691
6.3861
6.51122
6.62614
6.72733
6.81798
6.89991
6.97325
7.04065
7.10006
7.15298
7.2009
7.2425
7.28059
7.31584
7.34778
7.37681
7.40307
7.42569
7.44495
7.46344
7.48097
7.49812
7.51632
7.53211
7.54521
7.5569
7.56758
7.57871
7.58953
7.59977
7.60893
7.6169
7.62412
7.62956
7.63373
7.63737
7.63985
7.64237
7.6428
7.64094
7.63848
1.85353
2.11038
2.39185
2.6844
2.98839
3.29339
3.60018
3.90964
4.21076
4.50638
4.79
5.06163
5.31582
5.55347
5.77951
5.99068
6.18485
6.36433
6.52927
6.67515
6.80688
6.92457
7.03061
7.12481
7.20352
7.27199
7.33283
7.38782
7.43346
7.47302
7.50798
7.53669
7.56008
7.57933
7.59469
7.60949
7.62064
7.6285
7.63433
7.63633
7.63642
7.63611
7.63922
7.64121
7.64067
7.64009
7.634
7.63006
7.62467
7.61926
7.61189
7.60436
7.59737
7.58835
7.57819
7.56801
7.55453
7.54543
7.53159
7.51409
7.49806
2.07985
2.09956
2.11841
2.13636
2.15346
2.16986
2.18582
2.20168
2.21741
2.23224
2.24585
2.2589
2.27149
2.28383
2.29622
2.30926
2.32334
2.33877
2.35587
2.37511
2.39615
2.41859
2.44214
2.46639
2.49103
2.51608
2.54168
2.56754
2.59359
2.61988
2.64653
2.67343
2.70059
2.72815
2.75606
2.78429
2.81295
2.84211
2.87172
2.90171
2.93218
2.96323
2.99483
3.02695
3.05969
3.09288
3.12656
3.16084
3.19578
3.23124
3.26728
3.30398
3.34143
3.37943
3.41829
3.45795
3.4987
3.54026
3.58297
3.62696
3.67231
4.58688
4.62378
4.65975
4.69494
4.72908
4.76173
4.79245
4.8219
4.84909
4.87553
4.90023
4.92392
4.94652
4.9681
4.98854
5.00773
5.02577
5.04262
5.05833
5.07286
5.08628
5.09862
5.10974
5.11972
5.12857
5.13625
5.14265
5.1475
5.15091
5.15285
5.15332
5.15237
5.15004
5.14631
5.14123
5.13486
5.12717
5.11824
5.10806
5.09665
5.08405
5.07032
5.05553
5.03963
5.0226
5.00439
4.98488
4.96414
4.94208
4.91875
4.89409
4.86804
4.84077
4.81179
4.78185
4.75033
4.71788
4.68401
4.64977
4.61503
4.57995
5.77503
5.80735
5.83809
5.86791
5.8967
5.92486
5.95113
5.97607
5.99882
6.02028
6.0401
6.05869
6.07588
6.09202
6.10687
6.12039
6.13257
6.14341
6.15289
6.16099
6.16781
6.17328
6.17744
6.18027
6.18177
6.18193
6.18076
6.17823
6.1743
6.1689
6.16207
6.15375
6.14396
6.13275
6.12011
6.10608
6.09063
6.07381
6.0556
6.03605
6.01523
5.99322
5.97008
5.94584
5.92047
5.89391
5.86599
5.8367
5.80597
5.77379
5.74014
5.70476
5.66777
5.62901
5.58869
5.54651
5.5027
5.45751
5.41141
5.36448
5.31686
6.5215
6.55164
6.58048
6.60777
6.63383
6.65869
6.6821
6.70386
6.72399
6.74247
6.75935
6.77466
6.78842
6.80071
6.81141
6.82068
6.82848
6.83476
6.83951
6.84273
6.84447
6.84481
6.84374
6.84131
6.83745
6.83213
6.82533
6.81709
6.80744
6.79633
6.78371
6.76953
6.75379
6.73651
6.71775
6.69752
6.67577
6.65248
6.62764
6.60134
6.57368
6.54476
6.51479
6.48382
6.45192
6.41901
6.38489
6.3495
6.31279
6.27475
6.23524
6.19414
6.1514
6.10693
6.06067
6.01244
5.96241
5.91091
5.8584
5.80493
5.75092
7.05642
7.08038
7.10288
7.12379
7.14302
7.16066
7.17674
7.19121
7.2043
7.21604
7.22625
7.23496
7.2422
7.24785
7.25199
7.2547
7.25583
7.2554
7.25332
7.2496
7.24437
7.23772
7.22977
7.22056
7.20999
7.198
7.18463
7.16991
7.15393
7.1367
7.11816
7.09812
7.07657
7.05352
7.02911
7.00327
6.97591
6.947
6.91642
6.88425
6.85065
6.81577
6.77988
6.74323
6.70594
6.66804
6.62916
6.58931
6.54838
6.50652
6.46336
6.41869
6.3726
6.32481
6.27525
6.22343
6.16981
6.11452
6.05826
6.00099
5.94326
7.41468
7.43077
7.44527
7.45831
7.46961
7.47921
7.48722
7.49346
7.49809
7.5012
7.50295
7.50331
7.5022
7.49954
7.49533
7.48975
7.48274
7.47411
7.46369
7.45143
7.43758
7.42235
7.40593
7.38844
7.36971
7.34961
7.32818
7.3055
7.28186
7.25738
7.23205
7.20542
7.17752
7.14825
7.1179
7.08629
7.05319
7.01862
6.98232
6.94431
6.90475
6.86373
6.8217
6.7791
6.73625
6.69344
6.64986
6.60593
6.56124
6.51637
6.47052
6.42319
6.37485
6.32496
6.27354
6.21947
6.16366
6.10588
6.04761
5.98812
5.92828
7.60922
7.61578
7.62079
7.6242
7.62589
7.62582
7.62395
7.62056
7.61553
7.60867
7.60044
7.59109
7.58032
7.56801
7.55404
7.53898
7.52288
7.50515
7.48544
7.46351
7.43977
7.41474
7.38858
7.36172
7.33386
7.30455
7.2739
7.24182
7.20913
7.17619
7.14342
7.10967
7.0753
7.03975
7.00382
6.96696
6.92839
6.88848
6.84696
6.80375
6.75879
6.71191
6.66381
6.6152
6.56657
6.51903
6.47061
6.42285
6.37458
6.3277
6.28044
6.23134
6.18188
6.13096
6.07923
6.02384
5.96724
5.90807
5.84961
5.78943
5.72931
7.63462
7.62983
7.62337
7.61575
7.60641
7.59564
7.58275
7.56934
7.55445
7.53691
7.51802
7.49864
7.47775
7.45544
7.43076
7.40527
7.38011
7.35362
7.32516
7.29338
7.25897
7.22377
7.1873
7.1503
7.11321
7.07462
7.03458
6.99189
6.94831
6.90518
6.86446
6.82303
6.78254
6.7412
6.70114
6.66107
6.61803
6.57297
6.5271
6.48057
6.43181
6.38022
6.32697
6.27281
6.21842
6.16698
6.11344
6.06223
6.01024
5.96271
5.91608
5.86621
5.81685
5.76621
5.71605
5.66015
5.60431
5.54457
5.48809
5.42906
5.3711
7.4789
7.46037
7.43858
7.41779
7.39418
7.37281
7.34719
7.32419
7.30106
7.27506
7.24705
7.21947
7.18943
7.15926
7.12372
7.08581
7.05159
7.01854
6.98577
6.94816
6.90213
6.85852
6.81318
6.76539
6.71917
6.67269
6.62715
6.57564
6.51834
6.46235
6.4127
6.3623
6.31547
6.26876
6.22846
6.19024
6.14599
6.09538
6.04557
5.9988
5.95075
5.897
5.83977
5.78219
5.72322
5.66976
5.61027
5.55594
5.499
5.45353
5.41041
5.3603
5.31295
5.26494
5.21897
5.16315
5.10966
5.04961
4.9973
4.94164
4.88906
3.71902
3.76674
3.81574
3.86601
3.91758
3.9706
4.02497
4.08084
4.13794
4.19623
4.25585
4.31641
4.37786
4.44254
4.52297
4.5961
4.66824
4.74111
4.81475
4.88931
4.96481
5.04128
5.11862
5.19675
5.27549
5.35459
5.43393
5.51333
5.59259
5.67138
5.74959
5.82693
5.90298
5.97753
6.05023
6.12053
6.18796
6.25196
6.30857
6.3501
6.37853
6.39463
6.39835
6.38905
6.36571
6.32694
6.27085
6.19516
6.09716
5.97372
5.82107
5.63477
5.40984
5.13929
4.81963
4.25348
3.98933
3.85152
3.79569
3.77069
3.72279
4.54422
4.50815
4.47129
4.43376
4.39558
4.35743
4.31907
4.28126
4.24351
4.20621
4.17013
4.12884
4.08407
4.04189
3.99445
3.94893
3.90332
3.85761
3.81226
3.76755
3.72349
3.6798
3.63638
3.59319
3.55014
3.50727
3.46457
3.42214
3.38
3.33823
3.29693
3.25622
3.21624
3.17719
3.13934
3.10296
3.06848
3.03647
3.00747
2.98337
2.96144
2.94184
2.92486
2.91109
2.90144
2.89682
2.89822
2.90697
2.92452
2.95213
2.99105
3.04239
3.10732
3.18869
3.27431
3.40584
3.57531
3.83899
4.21325
4.7047
5.06784
5.26875
5.22014
5.17073
5.12024
5.06864
5.01644
4.96396
4.91166
4.85914
4.80637
4.75042
4.68654
4.62327
4.56326
4.50341
4.44432
4.38448
4.32389
4.26293
4.20205
4.14128
4.08037
4.01928
3.95799
3.8964
3.83453
3.77233
3.70983
3.64697
3.58376
3.52016
3.4562
3.39192
3.32735
3.26258
3.19769
3.1328
3.06802
3.00349
2.93946
2.87587
2.81239
2.74949
2.68804
2.62835
2.57096
2.51673
2.46685
2.42293
2.38709
2.36206
2.35133
2.35953
2.39225
2.45208
2.55061
2.69072
2.90226
3.22859
3.72066
4.34327
5.69652
5.64206
5.58694
5.5308
5.47324
5.41507
5.35662
5.29855
5.24023
5.18109
5.11529
5.04368
4.97461
4.90898
4.84455
4.78097
4.71697
4.65269
4.58825
4.52399
4.45982
4.3953
4.33056
4.26563
4.20039
4.13491
4.06913
4.00303
3.93652
3.86955
3.80209
3.73417
3.66581
3.59707
3.528
3.45869
3.38919
3.31955
3.2498
3.17994
3.10995
3.03976
2.96877
2.89681
2.82458
2.75219
2.67987
2.60804
2.53736
2.46887
2.40399
2.34481
2.29421
2.25593
2.23358
2.23316
2.26252
2.33877
2.49054
2.75998
3.18003
5.88511
5.82733
5.76913
5.71004
5.64904
5.58737
5.52534
5.46406
5.40243
5.3397
5.26887
5.19447
5.12334
5.05574
4.98934
4.9238
4.85806
4.79284
4.72793
4.66359
4.59942
4.53462
4.46965
4.40463
4.33929
4.27379
4.20799
4.1419
4.0753
4.00819
3.94053
3.87243
3.80396
3.73522
3.66629
3.59727
3.52826
3.4593
3.3904
3.32158
3.25283
3.18418
3.1155
3.04628
2.97623
2.90551
2.83419
2.76232
2.69007
2.61774
2.54574
2.47467
2.40544
2.33928
2.27769
2.22344
2.18231
2.16474
2.18713
2.27401
2.45614
5.86765
5.80818
5.74859
5.68836
5.62528
5.56151
5.49702
5.43402
5.37077
5.30682
5.2341
5.15978
5.08894
5.0221
4.95586
4.89047
4.82475
4.76062
4.6973
4.63507
4.5731
4.50995
4.44697
4.38429
4.32121
4.25814
4.19465
4.13092
4.06643
4.00139
3.9357
3.86973
3.80349
3.73726
3.67102
3.60498
3.53919
3.47377
3.40869
3.34402
3.27976
3.216
3.15271
3.08977
3.02675
2.96312
2.89887
2.8341
2.76883
2.70316
2.63718
2.57095
2.50447
2.43772
2.37056
2.30349
2.23877
2.18152
2.14042
2.12865
2.16488
5.66711
5.60734
5.54786
5.48859
5.42447
5.35989
5.29378
5.23068
5.16755
5.10499
5.03228
4.96005
4.89112
4.82743
4.76314
4.7
4.63576
4.57462
4.51455
4.45612
4.39798
4.33758
4.27827
4.22014
4.16123
4.10253
4.04295
3.98338
3.92248
3.86106
3.79876
3.73667
3.67448
3.61282
3.5513
3.49041
3.42995
3.37028
3.31125
3.25312
3.19576
3.13941
3.08398
3.02946
2.97561
2.92209
2.86807
2.81357
2.75874
2.70372
2.64857
2.59329
2.53771
2.4814
2.42376
2.36414
2.30258
2.24067
2.18205
2.13297
2.1032
5.30804
5.24899
5.19121
5.13552
5.07166
5.0079
4.94093
4.87968
4.81867
4.76027
4.68888
4.62001
4.55392
4.49554
4.43433
4.37536
4.31353
4.2571
4.20162
4.14791
4.09459
4.03711
3.98261
3.9315
3.87819
3.82494
3.76988
3.71572
3.65888
3.6018
3.54336
3.48654
3.42966
3.37437
3.31902
3.26493
3.21107
3.15872
3.10734
3.05769
3.00908
2.96215
2.91666
2.87232
2.82901
2.78677
2.74446
2.70163
2.65874
2.61604
2.57384
2.5321
2.49068
2.44909
2.4066
2.3623
2.31538
2.26564
2.21391
2.1624
2.11536
4.82612
4.76749
4.71349
4.66426
4.6023
4.54082
4.47344
4.4167
4.36032
4.3086
4.23962
4.17459
4.11122
4.06014
4.00226
3.9494
3.89029
3.84037
3.79033
3.74073
3.69227
3.63676
3.58809
3.54801
3.5007
3.45166
3.40027
3.35257
3.29865
3.24549
3.18982
3.14008
3.08901
3.04178
2.99294
2.9466
2.89866
2.85435
2.81156
2.77199
2.73349
2.69717
2.66284
2.62972
2.59666
2.56424
2.53226
2.49954
2.46839
2.43767
2.40981
2.38305
2.3581
2.33338
2.30873
2.28278
2.25491
2.2241
2.1903
2.15311
2.11395
3.63048
3.527
3.41458
3.29419
3.17165
3.05047
2.93348
2.8242
2.72579
2.64027
2.5685
2.5104
2.46501
2.43085
2.40611
2.38898
2.37774
2.3711
2.36801
2.36758
2.3692
2.37245
2.377
2.38272
2.3895
2.39726
2.40594
2.41552
2.426
2.43733
2.44944
2.46228
2.47575
2.48971
2.50401
2.51847
2.53287
2.54698
2.56056
2.57339
2.58523
2.59584
2.60509
2.61292
2.6193
2.62437
2.62832
2.63143
2.63404
2.63662
2.63953
2.64307
2.64746
2.65286
2.65917
2.66621
2.67364
2.68121
2.68841
2.69461
2.69934
5.0673
4.99757
4.87936
4.70658
4.51318
4.30194
4.07164
3.82878
3.58219
3.33999
3.10841
2.89379
2.69977
2.52749
2.37724
2.25025
2.14598
2.06168
1.99419
1.94089
1.89931
1.8672
1.84273
1.82446
1.81129
1.8024
1.79723
1.79542
1.79665
1.80066
1.80727
1.81621
1.82725
1.84006
1.85432
1.86966
1.88558
1.90165
1.9173
1.93193
1.94483
1.95522
1.96216
1.96474
1.96217
1.95382
1.9393
1.91876
1.89293
1.86327
1.83175
1.80074
1.77274
1.74978
1.73304
1.72309
1.71927
1.7204
1.72441
1.72917
1.73264
4.85615
5.22568
5.43538
5.45882
5.32901
5.13397
4.87671
4.57967
4.2617
3.93476
3.61079
3.30141
3.01397
2.75351
2.52311
2.32414
2.1551
2.01185
1.89175
1.79397
1.71614
1.65543
1.60883
1.57353
1.54714
1.52785
1.51438
1.50575
1.50122
1.50018
1.50215
1.50671
1.51335
1.52156
1.53082
1.54062
1.55045
1.55977
1.56798
1.57447
1.57859
1.57975
1.57736
1.57085
1.5597
1.54347
1.52187
1.49486
1.46276
1.42642
1.38742
1.34824
1.31206
1.2823
1.26194
1.25344
1.25769
1.27438
1.30187
1.33794
1.37999
3.71015
4.29958
4.86964
5.31923
5.55298
5.60473
5.49055
5.24513
4.93132
4.57154
4.1921
3.81834
3.46237
3.13517
2.84211
2.58324
2.35578
2.15821
1.98926
1.84825
1.73329
1.64219
1.57177
1.51836
1.47845
1.44924
1.42862
1.415
1.40709
1.40386
1.40458
1.40859
1.41518
1.4236
1.43312
1.44304
1.45265
1.46125
1.46811
1.47245
1.47352
1.47063
1.46311
1.45044
1.43215
1.40803
1.37807
1.34247
1.3017
1.25656
1.20844
1.15953
1.11302
1.0731
1.04468
1.03282
1.04052
1.06855
1.11562
1.17934
1.25674
2.75387
3.178
3.71572
4.31185
4.86535
5.29559
5.5485
5.59675
5.4734
5.20921
4.85053
4.45979
4.05753
3.66903
3.31082
2.98572
2.69529
2.43758
2.21408
2.02491
1.86812
1.74217
1.64384
1.56866
1.51196
1.46986
1.43954
1.41882
1.4059
1.39921
1.39776
1.40075
1.4073
1.41644
1.42727
1.43892
1.45053
1.46126
1.47023
1.47653
1.47923
1.47753
1.47065
1.45791
1.43873
1.41286
1.38023
1.34108
1.29576
1.24506
1.1902
1.13319
1.07703
1.02597
0.986185
0.965126
0.968547
1.00019
1.06046
1.14648
1.25338
2.27091
2.47051
2.78337
3.21453
3.73707
4.29642
4.81657
5.21479
5.44013
5.47815
5.3415
5.07313
4.70804
4.30069
3.89895
3.51238
3.1576
2.83665
2.54776
2.29696
2.08711
1.91758
1.78474
1.68258
1.60473
1.54591
1.50252
1.47184
1.4515
1.43926
1.43382
1.43423
1.43947
1.44834
1.45976
1.47271
1.48619
1.49923
1.51081
1.51991
1.52547
1.5266
1.52238
1.51205
1.49483
1.47042
1.43861
1.39962
1.35363
1.30134
1.24377
1.18282
1.12126
1.0631
1.01456
0.984094
0.979711
1.00875
1.07488
1.17626
1.30705
2.10636
2.16015
2.28518
2.50163
2.8215
3.24157
3.7349
4.24831
4.71396
5.06567
5.25647
5.27422
5.13569
4.87244
4.5294
4.13338
3.73738
3.35944
2.9967
2.6712
2.39267
2.16559
1.98745
1.84951
1.74329
1.66159
1.59999
1.55522
1.52421
1.50368
1.49185
1.48754
1.48963
1.49664
1.50729
1.52036
1.53471
1.54922
1.56276
1.57417
1.58227
1.58617
1.58479
1.57737
1.56286
1.54096
1.51133
1.47422
1.4296
1.37817
1.32081
1.25936
1.19644
1.13571
1.08303
1.04679
1.03644
1.06209
1.13103
1.24393
1.39506
2.07968
2.06542
2.0862
2.15881
2.30095
2.52739
2.84457
3.24285
3.69427
4.15049
4.55235
4.84734
5.00527
5.01348
4.88573
4.64493
4.32768
3.96223
3.55078
3.15364
2.79317
2.49294
2.25738
2.07375
1.93049
1.81811
1.73117
1.66631
1.62035
1.588
1.56688
1.55528
1.55204
1.55532
1.56356
1.57533
1.58928
1.60414
1.61861
1.6314
1.64129
1.64735
1.64845
1.64381
1.63211
1.61306
1.5862
1.55176
1.5096
1.46039
1.40496
1.34509
1.28319
1.2227
1.16932
1.13097
1.11758
1.14141
1.21278
1.33548
1.50446
2.07554
2.04234
2.02204
2.02468
2.06326
2.15244
2.30643
2.53493
2.83808
3.20445
3.60064
3.99094
4.33228
4.58897
4.73013
4.74623
4.63877
4.41357
4.10494
3.7108
3.28006
2.90648
2.60972
2.37304
2.18051
2.02578
1.90315
1.811
1.74441
1.69527
1.66115
1.63877
1.62732
1.6246
1.62851
1.6373
1.64946
1.66337
1.67765
1.69057
1.70142
1.70874
1.7118
1.7095
1.70061
1.68437
1.66085
1.6293
1.59039
1.54405
1.49182
1.43488
1.37571
1.31788
1.26616
1.22825
1.21445
1.23859
1.31236
1.44337
1.62621
0.29726
6.62285
6.31383
0.217402
0.362225
0.128143
0.00316466
2.46909
0.00337474
0.0233847
3.36564
1.08618
0.00316604
6.05187
0.112241
5.44774
0.00325904
2.5796
3.66944
0.00316296
0.21658
5.8834
6.39911
0.00329733
0.00332958
0.106037
0.00316464
0.514698
0.00324571
0.0034561
0.720129
0.00327325
0.0162923
2.50187
0.796856
3.44419
2.58147
1.57453
0.00316577
2.4244
1.89778
2.05904
0.00320974
4.72737
3.17645
0.284651
0.00362095
0.0152063
0.145512
1.1096
6.60688
7.80635
0.00311891
0.00405824
0.0371641
0.010755
0.00344631
0.686467
2.45081
7.49715
2.49294
0.00369016
0.140018
0.0320654
6.56221
0.354381
2.01237
1.76376
0.00430814
0.00321345
1.20524
2.54385
1.72606
0.0108219
0.0393116
4.0627
6.90867
3.25082
0.00311819
0.945441
0.00709955
2.42224
0.0106544
4.79963
0.00321827
1.07487
0.00335867
2.21577
0.0147532
0.00490677
0.120516
0.00311475
0.00377577
7.66567
5.54491
0.00358787
0.443551
0.304492
0.00602159
6.64175
0.154407
2.49997
0.74402
0.00311233
0.0031653
0.00311198
0.306539
0.125605
0.00323989
6.15916
6.83314
0.00925433
4.56785
1.50894
2.60428
2.72897
1.80424
0.00389858
0.0863598
0.00417805
0.00422137
3.43181
0.00719412
7.41959
7.73406
1.00082
0.00321532
1.03603
1.04335
0.00321069
0.034136
0.0336307
1.7133
0.0056359
3.051
0.00322098
0.00316101
7.70909
7.85786
0.00322931
0.165467
5.68877
0.10514
0.305508
1.56821
4.80587
0.04051
1.65953
0.0120746
7.09142
1.24279
0.0107596
2.79232
4.73738
6.36924
0.00330573
0.00326149
0.219803
0.00318075
1.98582
0.0300974
0.00509301
0.00319883
0.00322024
0.00323692
2.81929
1.80092
1.57586
0.00332269
6.78035
4.77301
3.15353
4.94203
0.0139061
3.69258
1.66792
1.91389
0.00323642
0.00566998
2.89848
3.10539
2.11108
3.75552
0.00321528
0.00351676
4.88589
0.0362637
0.572895
0.00323898
0.00362025
0.105582
0.00338892
7.80283
0.688111
0.00318217
0.259279
1.8118
5.4224
0.00447769
1.96653
0.0032182
0.00323331
5.0066
2.41357
7.30024
0.0045213
0.00338864
0.00761123
2.75043
2.24965
1.08751
5.05144
1.54269
6.95102
0.188882
4.3261
4.1273
1.99649
1.36787
2.31943
0.00486133
0.037102
0.00322504
0.00323353
1.84174
0.0182407
0.0202551
0.00564768
0.0130492
2.75
4.65973
0.0188566
5.98611
1.08978
0.391979
0.00318249
0.162763
2.77638
1.04332
0.00412925
1.20374
1.16258
0.179678
0.274769
7.30729
0.785543
0.487033
5.17526
0.00383143
0.00316572
0.00402488
0.0104503
1.76488
0.00336073
0.00642809
0.00316497
0.38724
4.1274
4.00098
2.76898
1.29715
1.4416
7.66798
0.00432887
2.11782
4.51806
0.00321042
1.9778
0.00321772
4.05897
0.38549
1.54365
0.00532485
0.00322107
1.88712
0.507347
0.00323912
0.00323534
0.00325039
0.00324342
0.363898
1.61487
2.99178
0.0146709
0.00324074
0.00316409
0.0031105
4.73737
0.229425
0.00445718
1.66689
0.0883763
0.0407592
0.00310824
0.26664
0.00323982
0.0509558
1.4696
4.68679
0.327421
0.0039206
0.0059643
3.23961
0.141325
1.94452
7.6176
0.00349698
0.00319772
0.00318644
5.83075
0.00330722
4.83251
0.00322261
1.911
1.25351
0.0269739
2.9277
3.9845
0.00466536
2.75273
2.51171
1.6513
4.7935
1.05396
7.86066
2.46996
4.01855
3.65799
4.52138
1.71717
0.160092
7.77633
7.38339
3.03893
2.14028
0.00394584
6.98983
2.73866
6.88566
0.0275794
0.00358103
0.00321518
0.0034194
0.175077
0.426285
0.721212
0.0932466
0.00317495
6.0922
0.003216
1.45666
1.94614
6.42164
2.63377
1.83894
0.00595565
0.00424963
0.0874424
2.79492
0.0103363
0.740131
5.19069
2.08099
4.13741
6.26576
3.14259
0.00345696
7.38789
5.52359
1.74983
0.0032347
6.4332
5.74876
0.00332993
1.98547
0.00323829
6.81003
5.62833
1.88469
4.18265
2.51319
5.7122
0.00328981
5.70435
0.00385474
3.66104
3.99233
1.92683
7.3631
0.731656
0.215595
0.555021
0.00423511
4.2822
0.137549
0.00812708
0.0050864
4.46896
0.00382284
4.35498
0.00319336
0.00323456
0.00597934
1.81253
0.105731
1.84885
0.00564169
4.24838
0.166212
6.75856
4.37647
2.65748
6.23121
0.00338189
7.36689
2.89237
0.00320924
3.92018
2.06592
0.00311519
0.00316823
3.41993
0.00645584
1.95728
0.0870351
2.35214
0.0268601
0.609591
2.66795
4.94864
2.42098
4.01931
3.71789
0.00394655
0.0215615
1.70618
1.70699
7.61576
6.47456
5.41675
0.0659883
5.15651
5.13205
0.498753
1.72951
2.87609
2.08069
0.00347806
4.12276
7.86347
0.0041525
4.42063
1.87913
2.90239
0.02428
0.0682886
6.21397
0.00596161
7.61334
0.00460946
0.258365
0.00320265
0.991257
2.29956
0.232793
0.0047922
0.00369445
2.70334
1.61658
0.0692732
0.410903
5.87856
4.0737
0.00449184
1.45454
1.66065
3.25098
1.50877
4.18281
1.97318
5.42654
3.23065
0.495329
0.9738
7.5042
1.92802
7.71602
6.11283
0.0338642
3.38451
2.86421
0.0033755
1.80702
1.60074
1.36662
0.0172875
4.9148
1.46392
0.700891
1.93065
0.00543444
0.00321615
0.0295629
2.31546
4.61626
2.63673
0.00322238
0.003189
0.00321384
1.72697
0.0275883
0.00321648
0.125331
4.58404
4.96557
0.0105464
0.0107743
0.00316084
0.00320394
0.00598135
1.7553
1.75069
1.67337
0.461866
7.61293
5.86823
0.00524428
3.38422
1.8548
1.95652
4.02686
7.45433
0.00345796
0.0104885
0.00323687
3.84174
0.245735
0.00316875
1.37369
0.164495
7.53417
0.00323883
7.76558
1.14976
0.0476824
6.5738
0.0032292
0.00319211
0.00405058
7.79172
3.24113
5.32583
5.00853
1.04683
1.78303
0.00313318
0.00602305
0.0873598
0.0126882
0.0251997
1.97376
2.17845
0.00322533
1.28561
1.86891
6.30365
7.78348
0.00822598
7.74725
0.00591592
0.0304636
3.56559
0.00319939
5.63074
0.003242
0.00336145
0.0221166
2.13798
0.631941
2.55502
1.89715
0.00366211
1.78059
4.62651
0.0430505
0.212074
0.846856
0.0033109
0.00326467
0.00691307
5.40205
0.53655
0.00335576
7.3728
5.96569
6.76103
0.0239123
2.07462
0.00419729
2.39752
0.164584
0.0922089
2.70261
1.69055
1.90779
6.15202
0.00327667
0.00313852
0.0104709
4.11877
4.6268
0.98526
0.0139084
0.00333918
0.00323562
0.00882863
0.0363194
0.00660185
2.22323
1.75797
0.0115267
1.56918
6.10425
0.00326895
2.40491
0.00321596
0.537445
0.00324491
0.0222169
2.44855
0.0201372
0.00320656
0.776647
7.89431
7.20091
0.00318956
0.00327034
0.393344
0.036095
0.00321769
4.41665
0.00369285
1.69987
7.87598
2.36664
1.69651
2.44653
3.72499
7.63276
0.00322718
0.00741095
0.0147277
4.2546
1.44017
6.54025
0.652196
0.361719
4.33435
3.6137
5.15415
0.684121
2.78291
0.0032239
0.362037
1.6583
2.51198
3.97858
1.96896
0.226323
2.51235
0.102904
0.00928075
1.72934
0.00323766
5.77232
0.00366726
0.379561
7.44963
2.72621
0.569106
0.00739781
0.762359
0.00329364
0.00319147
0.107632
0.0226332
1.78191
0.0153467
1.7574
0.00322244
0.0281234
0.00316605
4.53467
0.00507846
4.14074
2.50995
0.0220384
1.92931
7.58257
0.00325627
1.72463
4.42024
0.00335632
7.41563
0.0605843
0.00348168
0.00340317
7.32236
0.00317814
0.00428594
0.0879409
0.101134
7.16051
7.30338
0.00322149
0.00326887
1.08035
2.30473
0.0146417
0.263182
2.01708
0.00321914
0.00382578
0.00373494
6.06907
7.30716
0.49399
7.20844
0.0262618
1.60253
0.00332297
0.0148108
0.0250449
0.0361894
0.0032308
6.88297
0.00320146
0.0251486
0.00332048
0.204251
0.022565
0.0113957
0.447506
0.681395
2.29871
0.404757
1.06728
1.84193
5.10606
0.00343457
4.86982
7.7288
1.13208
4.01766
0.00327595
4.36754
3.95763
0.00321639
7.46534
2.36357
0.00760129
0.00807442
5.89191
5.68704
0.0528839
7.62866
7.39021
0.802468
7.35607
7.31912
4.9222
1.96811
1.69337
1.02305
7.30265
7.55265
0.0220146
7.45208
2.62223
4.37927
0.00342833
0.339931
0.377717
6.82618
5.96709
0.0202837
4.25982
6.44114
0.471641
0.0333921
0.383021
1.83445
0.00533948
1.87072
6.97289
0.0338722
6.7803
1.3709
4.47202
6.39603
0.00322208
0.00563844
1.06804
0.702933
0.0181367
0.00321977
0.190522
0.259076
0.00450075
0.0032366
4.22684
1.00141
3.11653
1.01367
0.00862145
0.00416675
0.0814518
3.41584
0.00345538
1.86907
1.67494
0.483244
2.30473
0.0039639
0.117132
0.0032025
0.379795
4.3273
0.00420744
0.119403
2.13911
5.84436
0.227168
3.97361
0.59577
0.159306
0.00391837
2.39733
7.79095
0.00321212
0.0032865
5.69655
0.0246119
0.00323582
3.8409
0.243702
1.93755
2.02475
1.48051
0.146853
1.72601
3.54172
5.86923
4.38562
0.00327443
5.59013
0.00389633
2.61453
0.00339928
0.00446768
2.14933
0.00653383
3.91176
0.0207367
0.0399948
1.85464
0.726544
0.0635202
0.00366608
6.32442
0.00363635
0.00315459
7.84119
5.92277
2.8086
1.94019
0.00342753
0.00310629
1.86928
5.69189
0.00319646
6.68609
1.69215
0.00324256
5.99739
0.00312558
0.35595
0.914992
1.36433
0.36152
1.59726
1.9606
0.00312262
7.32478
7.4694
0.00321513
0.0167255
1.94558
0.00313677
6.99487
5.47164
4.40617
0.00321796
0.00317036
3.50075
0.0408509
0.00349667
1.83744
1.72556
4.16098
0.00315574
0.00337611
0.0244255
0.0194263
0.00321822
0.00638994
5.1937
2.90139
0.00322252
1.34774
0.00321593
0.711817
0.00420319
0.00357996
2.2619
0.00327305
0.12244
0.0031758
2.98864
0.17148
1.73176
6.2788
4.39306
3.65602
0.826138
1.25522
0.00323558
0.94485
7.36201
4.06552
0.108122
0.00346297
5.30099
0.00321598
0.0302106
0.00315698
7.20565
0.782269
0.368394
6.48466
2.22358
0.485237
4.16103
0.719998
6.80075
4.51299
0.00330748
0.00327411
0.00819797
0.00324536
0.0228879
4.46803
0.00377295
7.17209
0.00600944
0.0717482
0.588682
4.71018
0.00485927
2.75218
0.0168538
3.15678
2.42278
6.98548
0.00339784
0.00383675
0.219458
3.64581
1.70528
3.66073
0.425575
1.03586
1.66072
0.0506871
1.04412
0.271333
1.70789
0.00328645
4.35575
0.423702
3.11001
0.0033594
3.02033
0.988184
0.00443645
1.64346
1.79314
0.0658558
0.00315272
0.00321871
4.86855
2.7868
1.42686
0.00320237
0.0176513
2.03584
6.32336
0.455042
0.0126436
0.00322946
5.60688
5.31616
2.1073
2.64329
0.00321222
3.51173
7.47931
0.00321154
0.00321858
1.24654
0.00405338
0.00986764
0.0326584
1.95027
0.00409616
2.23531
7.6987
0.00320753
0.00345879
0.0031694
0.00329976
3.74088
4.64363
7.81272
0.0291389
2.39699
2.23698
0.0876705
2.92007
0.00348062
1.71423
0.223943
2.09198
0.688749
1.65757
3.09483
0.0364855
0.00323966
5.91233
4.48807
4.65002
0.919627
1.77274
0.175693
1.64286
0.0092625
0.00482413
3.4153
5.58055
0.0215084
0.138992
0.00324521
0.0788776
1.90581
0.027608
1.03963
0.635264
3.79312
2.14676
0.44071
6.84387
5.45007
2.97715
1.64836
4.19666
3.58324
0.565317
2.64483
0.00574329
2.7782
2.92558
0.00320457
0.00314075
0.122823
0.0032273
0.00332866
3.04033
4.37765
0.00321904
3.27526
0.00321503
0.00319225
0.00321068
0.0032622
0.00592724
1.94454
2.76463
7.12056
0.00316271
0.00389254
0.969575
0.0035471
0.0330761
0.00324585
0.00362163
4.37204
0.00390212
0.0109711
2.80709
0.0104666
0.00322094
3.92919
0.00321512
0.00326591
0.305698
0.00359866
0.928542
0.00455947
0.0302145
0.00320469
0.00325155
7.54747
7.67298
2.76592
0.0266785
2.93701
1.57234
0.00471498
1.77875
4.19638
6.94033
4.58387
0.0031532
1.9693
2.54663
0.148766
1.75555
4.50731
0.175089
2.0617
0.259954
1.7348
0.0399554
1.02292
0.00323523
6.82548
0.00330074
1.81662
2.47864
0.00321611
0.316846
0.00729921
0.0181561
0.00317678
0.774503
0.00365615
0.00322026
2.53965
0.0138116
0.111946
6.88499
1.92145
0.00345559
0.00387195
2.4023
7.23304
0.00312182
0.00324598
0.071811
1.36946
5.55172
0.00656489
1.65524
0.00321823
0.00343864
0.00315262
0.0350913
0.998192
0.010095
6.52504
1.80849
7.2221
6.10875
0.0035122
7.37138
3.73186
0.00317923
0.00322645
0.00321823
0.00439959
0.00320265
3.78209
0.00320862
0.0032366
6.74794
0.327887
0.00774725
0.020632
1.96143
0.919388
0.00823488
0.00345498
6.33592
0.00324556
0.796896
0.0032601
0.00351839
5.9612
5.90948
0.00870983
0.00350904
0.346801
0.00320719
6.80476
0.0032532
5.6768
0.024937
0.731485
0.025745
0.370534
0.397208
1.51756
0.00324332
0.00355965
0.0115828
3.31954
0.120636
7.52561
0.00322053
0.00456989
0.00555467
7.19819
2.79661
3.05916
0.00691224
0.0089474
0.21218
0.00322479
1.16648
2.46386
0.0170446
5.91768
6.17253
1.83984
0.00532706
0.393273
2.85267
6.88843
1.81771
0.0188188
3.08758
0.0630307
5.32357
0.0922642
0.529654
2.6763
0.00324372
1.77703
0.00455308
0.0118666
0.00745335
0.0505369
0.00369378
1.28591
0.00322493
3.00272
0.0963014
0.00362078
0.262567
0.00323209
0.288023
0.118439
2.33434
0.465142
4.68406
0.244632
0.00321811
0.00318636
0.673879
0.0922464
2.86086
7.2386
0.00322538
3.8935
2.69172
0.0232758
2.02652
0.551312
2.36732
2.16075
0.0332395
0.0058805
7.19553
1.54364
5.86666
0.0032116