/*--------------------------------*- C++ -*----------------------------------*\
| =========                 |                                                 |
| \\      /  F ield         | OpenFOAM: The Open Source CFD Toolbox           |
|  \\    /   O peration     | Version:  2.3.1                                 |
|   \\  /    A nd           | Web:      www.OpenFOAM.org                      |
|    \\/     M anipulation  |                                                 |
\*---------------------------------------------------------------------------*/
FoamFile
{
    version     2.0;
    format      ascii;
    class       volScalarField;
    location    "0.37";
    object      nut;
}
// * * * * * * * * * * * * * * * * * * * * * * * * * * * * * * * * * * * * * //

dimensions      [0 2 -1 0 0 0 0];

internalField   nonuniform List<scalar> 
9648
(
0.000272479
0.000272609
0.000272535
0.000272356
0.000272014
0.000271427
0.000270643
0.000269677
0.00026851
0.000267122
0.000265508
0.000263705
0.000261712
0.000259541
0.000257245
0.000254871
0.000252445
0.000249991
0.000247551
0.000245168
0.000242854
0.000240632
0.000238525
0.000236535
0.000234665
0.000232933
0.00023134
0.000229885
0.000228555
0.000227358
0.000226287
0.000225335
0.000224504
0.000223795
0.000223192
0.000222703
0.000222315
0.000222032
0.000221841
0.000221733
0.000221726
0.000221803
0.000221952
0.000222192
0.000222504
0.000222878
0.00022334
0.000223893
0.000224535
0.000225249
0.000226047
0.000226948
0.000227926
0.000228985
0.000230135
0.000231375
0.00023267
0.000233962
0.00023526
0.000236562
0.00023785
0.00045373
0.000458826
0.000464377
0.000470492
0.000476831
0.000482719
0.000489717
0.000499257
0.00051154
0.000526522
0.000544288
0.000565141
0.000589041
0.000615869
0.00064548
0.000677816
0.000712658
0.000749671
0.000788533
0.000829053
0.000870856
0.00091367
0.000957299
0.00100148
0.00104595
0.0010906
0.00113531
0.00117991
0.0012242
0.00126809
0.00131159
0.00135463
0.00139717
0.00143932
0.00148096
0.00152194
0.00156221
0.00160174
0.00164035
0.00167803
0.001715
0.00175137
0.00178705
0.0018218
0.00185563
0.00188833
0.00191993
0.00195069
0.00198066
0.00200968
0.00203775
0.00206485
0.00209119
0.0021163
0.00214082
0.00216456
0.00218814
0.00221057
0.00223251
0.0022542
0.00227584
0.000778947
0.000821008
0.000861877
0.000900832
0.000940405
0.000982978
0.00102783
0.0010762
0.00112764
0.0011829
0.00124134
0.00130352
0.00136935
0.00143875
0.00151156
0.00158753
0.00166642
0.00174773
0.00183101
0.00191583
0.00200169
0.00208822
0.00217495
0.00226155
0.00234775
0.00243334
0.00251818
0.002602
0.00268474
0.00276628
0.00284648
0.00292533
0.0030029
0.00307927
0.00315451
0.0032289
0.00330216
0.00337387
0.00344392
0.003512
0.0035785
0.00364385
0.00370808
0.00377144
0.00383351
0.00389422
0.00395355
0.00401151
0.00406798
0.00412316
0.00417708
0.00422987
0.0042821
0.00433227
0.00438264
0.00443091
0.00447894
0.00452401
0.00456925
0.00461367
0.00465743
0.00124235
0.00132508
0.00140604
0.00148509
0.00156407
0.00164468
0.00172737
0.00181284
0.00190123
0.0019933
0.00208879
0.00218813
0.00229106
0.00239766
0.00250754
0.00262042
0.00273591
0.00285351
0.00297274
0.00309306
0.003214
0.00333497
0.00345559
0.00357549
0.00369438
0.00381199
0.00392826
0.00404313
0.00415663
0.00426858
0.00437874
0.00448684
0.0045927
0.00469663
0.00479968
0.00490223
0.00500428
0.00510546
0.00520363
0.0052993
0.00539248
0.00548367
0.00557446
0.00566415
0.00575305
0.00584101
0.00592749
0.00601259
0.00609574
0.00617718
0.00625758
0.00633599
0.00641321
0.00648861
0.00656383
0.00663693
0.00670802
0.00677715
0.00684473
0.00691072
0.00697417
0.00177907
0.00189459
0.00200964
0.00212335
0.00223665
0.00235119
0.00246799
0.00258757
0.00271062
0.00283759
0.00296849
0.00310332
0.00324201
0.00338438
0.00352993
0.00367811
0.00382838
0.00398034
0.0041334
0.00428712
0.00444091
0.00459425
0.00474662
0.00489765
0.00504706
0.00519474
0.00534056
0.00548474
0.00562733
0.0057681
0.00590685
0.00604285
0.00617591
0.00630681
0.00643591
0.00656494
0.006694
0.00682095
0.00694676
0.00706913
0.00718851
0.00730633
0.00742105
0.0075346
0.00764697
0.00775858
0.00786989
0.00797937
0.00808684
0.00819151
0.00829427
0.00839514
0.00849363
0.00859
0.00868461
0.00877758
0.00886766
0.00895542
0.0090409
0.00912352
0.00920321
0.00232547
0.00246508
0.00260887
0.00275421
0.0029007
0.00304918
0.00320064
0.00335579
0.00351492
0.0036783
0.0038458
0.00401707
0.00419209
0.00437039
0.00455164
0.0047351
0.00491984
0.00510572
0.00529194
0.00547815
0.00566386
0.00584835
0.00603127
0.00621202
0.00639054
0.00656672
0.00674072
0.00691263
0.00708231
0.00724989
0.00741486
0.00757713
0.00773686
0.0078936
0.00804874
0.00820169
0.00835221
0.00850253
0.00864923
0.00879603
0.00894215
0.0090837
0.0092232
0.00935667
0.00948717
0.00961825
0.00974906
0.00987905
0.0100064
0.0101305
0.0102515
0.0103698
0.0104855
0.0105982
0.0107086
0.0108159
0.0109202
0.0110221
0.0111207
0.0112154
0.0113073
0.00285456
0.00301393
0.00318571
0.00336339
0.0035447
0.00372934
0.00391793
0.00411094
0.00430846
0.00451008
0.00471579
0.00492468
0.0051366
0.00535109
0.00556847
0.00578734
0.00600663
0.00622633
0.00644532
0.00666339
0.0068804
0.00709525
0.00730781
0.00751701
0.00772305
0.00792635
0.00812689
0.00832507
0.00852023
0.00871183
0.00890074
0.00908647
0.00926988
0.00945256
0.00963203
0.00980723
0.00997919
0.0101427
0.0103074
0.010473
0.0106389
0.0108079
0.0109678
0.0111194
0.0112652
0.0114073
0.0115523
0.0116965
0.0118392
0.0119779
0.0121124
0.0122434
0.0123707
0.0124949
0.0126152
0.0127325
0.0128467
0.012957
0.0130633
0.0131655
0.0132639
0.00336105
0.00353822
0.00373854
0.00394984
0.00416818
0.00439036
0.00461768
0.00485046
0.00508748
0.00532895
0.0055741
0.00582176
0.00607089
0.00632098
0.0065738
0.00682817
0.00708231
0.0073363
0.00758813
0.00783706
0.00808465
0.00832919
0.00857137
0.00880831
0.00903992
0.00926834
0.00949343
0.00971647
0.0099355
0.0101502
0.0103607
0.0105658
0.0107688
0.0109717
0.0111738
0.0113722
0.0115611
0.0117433
0.0119173
0.0120931
0.0122775
0.0124611
0.0126421
0.0128114
0.0129684
0.0131202
0.0132706
0.0134232
0.013575
0.013722
0.0138641
0.0140015
0.0141361
0.0142663
0.0143917
0.0145129
0.0146302
0.0147446
0.0148541
0.0149579
0.0150569
0.00385085
0.00404179
0.00427049
0.00451217
0.00476943
0.00502757
0.00529209
0.00556619
0.00583965
0.00612176
0.00640496
0.0066949
0.00698092
0.00726588
0.00754907
0.00783803
0.00812654
0.00841514
0.0087045
0.00898137
0.00925712
0.00953209
0.00980442
0.010074
0.0103277
0.010579
0.0108259
0.0110709
0.0113147
0.0115517
0.0117866
0.0120115
0.0122227
0.0124381
0.0126594
0.0128761
0.0130879
0.01329
0.0134722
0.0136561
0.0138459
0.0140452
0.0142401
0.0144263
0.0146037
0.0147605
0.0149111
0.0150612
0.0152202
0.0153681
0.0155138
0.0156466
0.0157805
0.0159161
0.0160444
0.0161595
0.0162758
0.0163842
0.0164949
0.0165985
0.0166903
0.000239044
0.000240138
0.000241205
0.000242245
0.000243238
0.000244157
0.000245042
0.000245931
0.000246816
0.000247643
0.000248388
0.000249116
0.000249816
0.000250485
0.000251157
0.000251878
0.000252653
0.000253486
0.000254403
0.00025544
0.000256568
0.000257764
0.000259023
0.000260309
0.000261601
0.000262911
0.000264249
0.000265596
0.000266939
0.000268292
0.000269654
0.00027102
0.00027239
0.000273777
0.000275168
0.00027657
0.000277992
0.000279435
0.000280884
0.000282339
0.00028382
0.00028532
0.000286837
0.000288381
0.000289941
0.000291499
0.000293073
0.000294682
0.000296317
0.000297948
0.000299596
0.000301285
0.000302985
0.000304692
0.000306437
0.000308223
0.000310042
0.000311846
0.000313696
0.000315626
0.000317642
0.00229754
0.00231699
0.00233601
0.00235496
0.00237351
0.00239088
0.0024062
0.00242058
0.00243242
0.0024442
0.00245437
0.00246383
0.00247218
0.00247942
0.00248549
0.00249013
0.00249342
0.0024952
0.00249557
0.00249456
0.00249237
0.0024892
0.00248498
0.00247985
0.00247387
0.00246707
0.0024595
0.00245101
0.0024417
0.00243151
0.0024204
0.00240847
0.00239573
0.00238212
0.00236769
0.00235253
0.00233653
0.00231982
0.00230238
0.00228423
0.0022654
0.00224587
0.00222581
0.00220516
0.00218387
0.00216193
0.00213928
0.00211601
0.00209198
0.00206728
0.00204188
0.00201577
0.00198905
0.0019611
0.00193297
0.00190368
0.00187401
0.00184315
0.00181254
0.00178177
0.00175087
0.00469884
0.00473915
0.0047766
0.00481284
0.00484765
0.00488223
0.00491315
0.00494264
0.00496862
0.00499359
0.00501626
0.00503731
0.0050559
0.00507297
0.00508812
0.00510132
0.00511265
0.00512209
0.00512971
0.00513557
0.00513992
0.0051427
0.00514401
0.00514389
0.00514236
0.00513941
0.00513515
0.00512951
0.0051225
0.00511396
0.00510406
0.00509262
0.00507968
0.00506536
0.00504951
0.00503224
0.00501349
0.00499334
0.00497177
0.00494887
0.00492472
0.00489942
0.00487303
0.0048457
0.00481729
0.00478779
0.00475704
0.00472504
0.00469165
0.00465684
0.00462076
0.00458269
0.00454306
0.00450141
0.00445869
0.00441363
0.00436666
0.00431811
0.0042688
0.00421864
0.00416742
0.00703596
0.00709514
0.00715213
0.00720606
0.0072579
0.00730764
0.00735478
0.00739867
0.00743983
0.00747883
0.00751521
0.00754874
0.00757974
0.00760866
0.00763483
0.00765877
0.00768035
0.0076996
0.00771655
0.00773133
0.00774402
0.00775482
0.00776368
0.00777075
0.00777595
0.0077793
0.00778076
0.00778041
0.00777832
0.00777439
0.00776851
0.00776065
0.0077508
0.0077389
0.00772499
0.00770909
0.00769108
0.00767094
0.00764871
0.00762452
0.00759855
0.00757085
0.0075418
0.00751149
0.00748
0.00744724
0.00741302
0.00737723
0.00733981
0.0073005
0.0072594
0.00721604
0.00717017
0.00712176
0.0070711
0.00701763
0.00696108
0.00690238
0.00684222
0.00678014
0.00671672
0.0092798
0.00935412
0.00942541
0.00949338
0.00955772
0.00961931
0.00967806
0.00973278
0.00978411
0.00983298
0.00987856
0.00992114
0.00996108
0.00999803
0.0100322
0.010064
0.0100923
0.0101179
0.0101406
0.0101605
0.0101778
0.0101928
0.0102055
0.010216
0.0102243
0.0102302
0.010234
0.0102357
0.0102355
0.0102335
0.0102294
0.0102231
0.0102145
0.0102035
0.0101903
0.0101746
0.0101562
0.0101353
0.0101115
0.0100851
0.0100562
0.0100251
0.00999214
0.00995777
0.00992216
0.00988541
0.00984725
0.00980709
0.00976551
0.00972238
0.00967711
0.00962935
0.00957883
0.00952512
0.00946849
0.00940767
0.00934358
0.00927669
0.00920751
0.00913569
0.00906251
0.0113955
0.0114803
0.0115611
0.011639
0.0117126
0.0117823
0.0118486
0.0119102
0.0119682
0.0120225
0.0120738
0.0121217
0.0121663
0.0122077
0.0122457
0.0122805
0.0123118
0.0123398
0.0123643
0.0123851
0.0124025
0.0124171
0.0124289
0.0124382
0.0124448
0.0124486
0.0124497
0.0124485
0.0124452
0.0124404
0.012434
0.0124255
0.0124148
0.0124017
0.0123865
0.0123685
0.0123475
0.0123234
0.0122961
0.0122656
0.0122318
0.0121948
0.0121554
0.0121142
0.0120716
0.0120283
0.0119834
0.0119371
0.0118893
0.0118407
0.0117901
0.0117366
0.0116804
0.0116211
0.0115583
0.0114905
0.0114189
0.0113431
0.0112652
0.0111844
0.0111015
0.0133582
0.0134485
0.0135344
0.0136159
0.0136933
0.0137666
0.0138354
0.0138994
0.0139594
0.0140152
0.0140671
0.0141156
0.0141608
0.0142017
0.0142387
0.0142728
0.0143035
0.0143304
0.0143532
0.0143708
0.0143844
0.0143944
0.014401
0.0144048
0.0144055
0.0144028
0.0143966
0.0143868
0.0143747
0.0143614
0.0143476
0.014332
0.0143152
0.0142964
0.0142764
0.014254
0.0142279
0.0141985
0.0141658
0.0141298
0.0140901
0.0140461
0.0139984
0.0139482
0.0138964
0.0138445
0.0137902
0.0137349
0.0136782
0.0136224
0.0135652
0.0135044
0.0134417
0.013376
0.0133074
0.0132323
0.013153
0.0130685
0.0129824
0.0128926
0.0128005
0.0151516
0.0152413
0.0153259
0.0154051
0.0154795
0.0155486
0.0156135
0.015674
0.0157307
0.0157828
0.01583
0.015874
0.0159147
0.0159514
0.0159829
0.0160104
0.0160361
0.0160591
0.0160779
0.0160907
0.016097
0.0160996
0.0160984
0.0160933
0.0160852
0.0160732
0.0160572
0.0160353
0.0160086
0.0159799
0.0159527
0.0159238
0.0158953
0.0158655
0.0158375
0.0158092
0.0157758
0.0157376
0.0156968
0.0156545
0.015609
0.015559
0.0155031
0.0154436
0.0153823
0.0153214
0.015256
0.0151903
0.0151218
0.0150568
0.0149921
0.0149219
0.0148511
0.0147785
0.0147046
0.0146225
0.0145363
0.0144429
0.014349
0.0142511
0.0141514
0.0167832
0.0168675
0.0169481
0.0170152
0.0170803
0.0171318
0.0171854
0.0172267
0.0172703
0.0173161
0.0173542
0.017379
0.0174091
0.0174382
0.0174614
0.017476
0.0174862
0.0174968
0.0175097
0.0175177
0.0175144
0.0175093
0.0175027
0.0174873
0.0174676
0.0174439
0.0174188
0.0173895
0.0173477
0.017299
0.0172532
0.0172041
0.0171568
0.0171063
0.017063
0.017026
0.0169841
0.0169322
0.0168779
0.0168244
0.0167707
0.0167202
0.0166578
0.0165898
0.0165239
0.0164556
0.016384
0.0163076
0.0162284
0.0161513
0.0160778
0.0159958
0.0159115
0.0158327
0.0157507
0.0156653
0.0155718
0.0154732
0.0153703
0.0152663
0.0151585
0.000319656
0.000321652
0.000323727
0.00032588
0.000328081
0.000330286
0.000332525
0.000334829
0.000337175
0.000339546
0.000341937
0.000344373
0.000346825
0.000349367
0.000352507
0.000355358
0.000358149
0.000360929
0.000363709
0.000366516
0.000369333
0.000372165
0.000375019
0.000377876
0.00038072
0.000383562
0.000386399
0.00038922
0.000392008
0.000394765
0.00039748
0.000400143
0.000402741
0.000405277
0.000407726
0.000410082
0.000412338
0.000414474
0.000416341
0.000417698
0.000418635
0.000419165
0.000419286
0.000418995
0.000418236
0.000416945
0.000415079
0.000412576
0.000409313
0.000405137
0.000399913
0.000393476
0.000385537
0.00037576
0.000363877
0.000341857
0.000331083
0.000325282
0.00032289
0.000321836
0.000319832
0.00171943
0.00168795
0.00165594
0.00162373
0.00159132
0.001559
0.00152622
0.00149373
0.00146114
0.00142896
0.00139749
0.0013657
0.00133444
0.00130342
0.00126878
0.00123436
0.00120037
0.00116703
0.0011344
0.00110254
0.00107142
0.00104084
0.00101081
0.000981287
0.000952258
0.000923759
0.000895764
0.000868325
0.000841417
0.000815048
0.000789255
0.000764059
0.000739453
0.000715482
0.000692204
0.000669637
0.000647877
0.000626999
0.000606815
0.000584345
0.000561276
0.000539065
0.000517899
0.000497959
0.000479337
0.000462229
0.000446907
0.000433629
0.000422659
0.000414328
0.000408996
0.000407091
0.000409047
0.000415529
0.000424536
0.000446307
0.000480036
0.000534348
0.000617977
0.00073894
0.000865611
0.00411567
0.0040632
0.00400983
0.003955
0.00389892
0.00384188
0.00378382
0.00372519
0.00366596
0.00360671
0.00354575
0.00348485
0.00342656
0.00336819
0.0033071
0.00324359
0.00317872
0.00311365
0.0030487
0.00298419
0.00291997
0.00285569
0.00279136
0.00272698
0.00266243
0.00259779
0.002533
0.00246808
0.00240289
0.0023375
0.00227181
0.00220579
0.00213951
0.00207287
0.00200593
0.00193868
0.00187116
0.00180335
0.00173512
0.00166505
0.00159286
0.00150929
0.00141793
0.00132361
0.00122751
0.0011308
0.00103511
0.000941918
0.000853186
0.000770889
0.000697001
0.000633398
0.000581343
0.000542252
0.00051561
0.00050563
0.000515025
0.000548684
0.000615844
0.000730071
0.000892801
0.00665229
0.00658754
0.00652124
0.00645278
0.00638168
0.00630909
0.00623506
0.00616036
0.00608535
0.00600984
0.00593076
0.00585327
0.00577849
0.00570356
0.00562556
0.00554422
0.00546033
0.00537561
0.00529066
0.00520583
0.00512089
0.00503507
0.00494859
0.00486149
0.00477356
0.00468481
0.00459512
0.00450447
0.00441262
0.00431948
0.00422498
0.00412915
0.0040319
0.00393327
0.00383329
0.00373194
0.00362917
0.00352499
0.0034192
0.00331122
0.00320026
0.00308312
0.00295213
0.0028036
0.00264343
0.00247184
0.00228959
0.00209786
0.00189899
0.00169692
0.0014961
0.00130368
0.00112605
0.000970036
0.000839414
0.000739356
0.00067328
0.000641319
0.000645408
0.000692651
0.000792647
0.00898752
0.00891204
0.00883478
0.00875534
0.00867178
0.00858608
0.00849878
0.00841151
0.00832379
0.00823555
0.00814283
0.00805213
0.00796377
0.00787553
0.00778425
0.00768922
0.00759088
0.00749175
0.0073922
0.0072927
0.00719266
0.00709093
0.00698816
0.00688451
0.00677944
0.0066731
0.00656511
0.00645546
0.00634368
0.00622978
0.00611363
0.00599541
0.00587517
0.00575306
0.00562905
0.00550327
0.0053757
0.00524632
0.00511494
0.00498128
0.00484482
0.0047043
0.00455663
0.00439306
0.00421086
0.00401278
0.00379725
0.00356284
0.00330832
0.00303443
0.00274249
0.00243707
0.00212674
0.00182365
0.00154173
0.00129551
0.00109774
0.000951388
0.000854177
0.000805266
0.000808211
0.0110158
0.0109298
0.0108423
0.0107525
0.0106574
0.0105595
0.0104592
0.0103597
0.0102603
0.0101607
0.010056
0.00995316
0.00985232
0.00975249
0.00964922
0.00954231
0.00943175
0.00932115
0.0092101
0.00909915
0.00898715
0.00887227
0.0087565
0.00864005
0.00852161
0.00840148
0.00827894
0.00815411
0.00802617
0.00789541
0.00776171
0.00762575
0.00748763
0.00734774
0.00720593
0.0070625
0.0069174
0.00677071
0.00662228
0.006472
0.00631941
0.00616402
0.0060044
0.0058369
0.00565115
0.00544996
0.00523071
0.00499188
0.00473034
0.00444323
0.00412845
0.00378448
0.00341299
0.00302142
0.00262178
0.0022348
0.00188343
0.00158393
0.00134321
0.00116269
0.00104195
0.0127039
0.0126075
0.0125102
0.0124112
0.012305
0.0121951
0.0120818
0.0119705
0.01186
0.0117504
0.0116341
0.0115197
0.0114075
0.0112976
0.0111837
0.0110667
0.0109455
0.0108255
0.0107052
0.0105852
0.0104634
0.0103371
0.0102109
0.0100848
0.00995564
0.00982417
0.00968915
0.00955154
0.00940943
0.00926406
0.0091153
0.00896503
0.00881288
0.00865985
0.00850519
0.00834962
0.00819277
0.00803526
0.00787679
0.00771759
0.007557
0.00739482
0.0072303
0.0070615
0.00688435
0.00668827
0.00647643
0.0062468
0.0059967
0.0057232
0.00542245
0.00509048
0.00472458
0.00432313
0.00389053
0.00343801
0.00298506
0.00255513
0.00216715
0.00183379
0.00156274
0.0140447
0.0139375
0.0138309
0.0137238
0.0136077
0.0134866
0.013361
0.0132378
0.013117
0.0129981
0.0128712
0.0127463
0.0126242
0.012506
0.0123833
0.0122575
0.0121278
0.012
0.0118722
0.0117454
0.011615
0.0114783
0.0113441
0.0112111
0.0110726
0.0109304
0.0107836
0.0106343
0.0104785
0.0103195
0.0101572
0.00999588
0.00983309
0.00967117
0.00950784
0.00934491
0.00918114
0.00901894
0.00885721
0.00869692
0.00853619
0.00837543
0.00821345
0.00804909
0.00787945
0.00769705
0.00749802
0.00728299
0.00705067
0.00679898
0.00652533
0.00622564
0.00589495
0.00552899
0.00512511
0.00468468
0.00421612
0.00373374
0.00325677
0.00280405
0.00239319
0.015047
0.0149269
0.0148131
0.0146955
0.0145741
0.0144409
0.0143073
0.0141691
0.0140403
0.013911
0.0137775
0.013642
0.0135143
0.0133877
0.0132606
0.0131249
0.0129925
0.0128549
0.0127221
0.0125917
0.0124513
0.0123079
0.0121673
0.0120263
0.011879
0.0117234
0.0115666
0.0114034
0.0112344
0.0110615
0.0108893
0.0107203
0.01055
0.0103824
0.0102146
0.0100485
0.00988301
0.00972459
0.00956808
0.00941653
0.00926289
0.00911136
0.00895852
0.00880351
0.00864504
0.00847877
0.0082951
0.00809538
0.00788273
0.00766025
0.00741903
0.00716068
0.00687364
0.00655948
0.00620795
0.00582218
0.00539453
0.004936
0.00444964
0.00395057
0.00345906
0.000315841
0.000311259
0.000306248
0.000300824
0.000295206
0.000289503
0.000283884
0.000278547
0.00027366
0.000269335
0.00026564
0.000262627
0.00026025
0.000258433
0.000257109
0.000256202
0.000255608
0.000255248
0.000255074
0.000255052
0.000255138
0.000255312
0.000255564
0.000255874
0.000256233
0.000256647
0.000257115
0.000257632
0.000258191
0.000258796
0.000259439
0.000260117
0.000260825
0.00026156
0.000262305
0.000263057
0.00026381
0.000264549
0.000265251
0.000265908
0.000266521
0.000267068
0.000267543
0.000267954
0.000268285
0.000268534
0.000268728
0.000268893
0.000269035
0.000269159
0.000269299
0.000269489
0.00026971
0.000269976
0.000270294
0.000270664
0.000271047
0.000271403
0.000271744
0.000272067
0.000272347
0.000931657
0.00098767
0.00103226
0.00105943
0.00107055
0.0010706
0.00105727
0.00103126
0.000995076
0.000951054
0.000901431
0.00084957
0.000798076
0.000748969
0.000702681
0.000660758
0.000624689
0.000594696
0.000570356
0.000551119
0.000536224
0.000524884
0.000516362
0.000510079
0.000505576
0.000502525
0.000500684
0.000499867
0.000499925
0.000500726
0.00050215
0.000504077
0.000506372
0.000508889
0.000511492
0.000514041
0.000516377
0.00051836
0.000519826
0.00052062
0.00052059
0.000519586
0.000517468
0.000514109
0.000509426
0.000503394
0.000496069
0.000487626
0.000478348
0.000468679
0.000459173
0.000450449
0.000443096
0.000437565
0.000434175
0.000432959
0.000433762
0.000436218
0.000439915
0.000444314
0.000448975
0.00106365
0.00123568
0.00140405
0.00155827
0.00165891
0.00173731
0.00179109
0.00181531
0.00181334
0.00178888
0.00174301
0.00168017
0.00160449
0.00151959
0.00142768
0.00133332
0.00124276
0.00116036
0.00108762
0.00102669
0.000977855
0.000940276
0.000912381
0.000892366
0.000878585
0.000869766
0.000864945
0.000863349
0.000864339
0.000867366
0.000871997
0.000877734
0.00088407
0.00089051
0.000896543
0.000901717
0.000905571
0.000907668
0.000907573
0.000904904
0.000899343
0.000890679
0.000878788
0.00086369
0.000845446
0.000824308
0.000800607
0.000774835
0.000747594
0.000719781
0.000692603
0.000667546
0.000646427
0.000630981
0.000622837
0.000622952
0.000631633
0.000648524
0.000672815
0.000703357
0.00073889
0.000942335
0.00113601
0.00136226
0.00160119
0.0018185
0.00201434
0.00219344
0.0023244
0.00241322
0.0024715
0.00249673
0.00249103
0.00245937
0.00240374
0.0023258
0.00222885
0.00211707
0.00200171
0.00188877
0.00178447
0.00169338
0.00161871
0.00156102
0.00151898
0.00149032
0.00147292
0.00146492
0.00146477
0.001471
0.00148233
0.00149773
0.00151614
0.00153635
0.00155715
0.00157739
0.00159593
0.00161166
0.00162346
0.00163028
0.00163108
0.00162498
0.00161125
0.00158941
0.00155921
0.00152062
0.0014741
0.00142031
0.00136027
0.00129506
0.00122637
0.00115638
0.00108807
0.00102532
0.000973068
0.000936967
0.000921891
0.000929782
0.000960474
0.00101174
0.0010803
0.00115992
0.0008674
0.000986613
0.00116697
0.00140051
0.00166368
0.0019357
0.00220134
0.00243811
0.00264022
0.00281495
0.00294515
0.00302636
0.00307523
0.00309172
0.00307744
0.00303745
0.00297378
0.00288746
0.00279067
0.00269154
0.00259538
0.0025092
0.00243792
0.00238373
0.00234631
0.00232462
0.00231735
0.00232307
0.00233985
0.00236579
0.0023994
0.00243902
0.00248269
0.00252835
0.00257404
0.00261782
0.00265774
0.0026919
0.0027183
0.00273507
0.0027404
0.00273292
0.00271126
0.00267457
0.00262206
0.00255389
0.00247035
0.00237238
0.00226118
0.00213868
0.0020075
0.00187177
0.00173699
0.00161126
0.00150622
0.00143675
0.00140855
0.0014241
0.00147986
0.00156371
0.00166688
0.000982802
0.00098755
0.0010597
0.00120149
0.00140807
0.00166729
0.00196033
0.00226069
0.00254682
0.00280747
0.00303016
0.00321061
0.00335888
0.00346161
0.00352054
0.00355381
0.00356259
0.00354972
0.00352217
0.00348378
0.00344144
0.00339954
0.00336278
0.0033355
0.00331992
0.00331717
0.00332827
0.00335368
0.00339222
0.00344211
0.00350202
0.00357011
0.00364404
0.00372112
0.0037988
0.00387435
0.0039452
0.00400857
0.00406168
0.00410181
0.00412632
0.00413315
0.00412018
0.0040858
0.00402826
0.00394731
0.0038424
0.00371404
0.00356271
0.00339012
0.00319842
0.00299175
0.00277585
0.00255951
0.00235723
0.00218982
0.00207136
0.00201572
0.00202599
0.00209182
0.00219724
0.00135899
0.00122531
0.0011638
0.0011765
0.00126429
0.00142562
0.00165385
0.00193366
0.00224295
0.00255748
0.00285417
0.00311766
0.00334309
0.00352532
0.00366778
0.00378558
0.00386741
0.00392158
0.00396547
0.00400234
0.00404211
0.00408405
0.00412751
0.00417261
0.00422104
0.00427436
0.00433524
0.00440616
0.00448712
0.00457706
0.00467549
0.00478091
0.00489133
0.0050041
0.00511658
0.00522588
0.00532897
0.00542253
0.00550311
0.00556736
0.00561211
0.00563477
0.00563275
0.00560402
0.00554587
0.00545744
0.00533739
0.0051857
0.00500234
0.00478829
0.00454504
0.00427607
0.00398589
0.00368183
0.00337726
0.00309224
0.00285286
0.00268718
0.00261401
0.00263179
0.00272051
0.0020381
0.00174988
0.00153558
0.00139977
0.00134424
0.00136923
0.00147332
0.0016518
0.00189474
0.00218509
0.00249954
0.00281384
0.00310932
0.00337135
0.00359482
0.00378275
0.00393693
0.00406361
0.00418054
0.00427356
0.00437952
0.00449517
0.00461929
0.00475056
0.00488937
0.00503265
0.00517801
0.00532443
0.0054744
0.00562715
0.00578253
0.0059389
0.00609493
0.00624923
0.00639968
0.00654408
0.00667959
0.00680269
0.00690926
0.00699564
0.00705909
0.00709597
0.00710394
0.00708094
0.00702361
0.00692981
0.00679841
0.00662757
0.00641792
0.00616929
0.0058831
0.00556127
0.00520661
0.00482469
0.00442685
0.0040311
0.00366866
0.00338182
0.00320954
0.00316447
0.00322613
0.00298975
0.00256533
0.00220102
0.00190685
0.00169317
0.00156379
0.00151993
0.00155916
0.00167763
0.00186819
0.00211774
0.00240957
0.00272448
0.00304126
0.00334176
0.00361922
0.00385953
0.0040628
0.00423186
0.00437446
0.00454181
0.00470563
0.00487804
0.00506658
0.00527784
0.0055061
0.00574615
0.00599034
0.00623239
0.00647069
0.00670458
0.00693004
0.00714369
0.00734923
0.00754308
0.00772627
0.00789651
0.00805064
0.0081831
0.00828984
0.00837201
0.00842076
0.00843797
0.00841992
0.00836522
0.00826728
0.0081291
0.00794066
0.00771014
0.00743157
0.00711121
0.00674555
0.00633611
0.00589117
0.005415
0.00492369
0.0044538
0.00405983
0.00379391
0.00368631
0.00371627
0.0052657
0.018424
0.0187081
0.0018928
0.00544275
0.00720552
0.00124824
0.00610507
0.00129267
0.00336941
0.0105704
0.0151893
0.00124815
0.0133723
0.00675563
0.0195251
0.00126429
0.0065673
0.0100003
0.00124925
0.00188407
0.0132323
0.0182168
0.0012755
0.00128231
0.00481354
0.00124964
0.00306244
0.00126087
0.00131307
0.00754792
0.00124723
0.00274172
0.00861592
0.014317
0.0092732
0.00802648
0.0141761
0.00124554
0.0118852
0.00495624
0.0132144
0.00124811
0.0193074
0.00524951
0.0100902
0.00134702
0.00242602
0.00141328
0.0153869
0.0106154
0.0152713
0.00123906
0.00143378
0.00199391
0.000146123
0.00131072
0.00467939
0.0088348
0.0176708
0.00400898
0.00136035
0.00111104
0.00368998
0.0190805
0.00781953
0.00900992
0.00445442
0.00147941
0.00124292
0.0135997
0.0142616
0.00477995
0.000801756
0.00273384
0.0181521
0.0185446
0.0171388
0.00123929
0.0147082
0.00194719
0.0112231
0.000753437
0.0186825
0.00124283
0.0120853
0.00128855
0.0115631
0.00177364
0.00159146
0.00561751
0.00123877
0.00137957
0.0170502
0.0190547
0.00134089
0.0111139
0.00480059
0.00177681
0.0189996
0.0041659
0.0180109
0.00841564
0.0012383
0.001241
0.00123717
0.00595351
0.0067499
0.00126258
0.0194113
0.0187192
0.00161672
0.00794549
0.00744325
0.00535586
0.0120461
0.00993051
0.00140151
0.00602365
0.00142724
0.0013297
0.00558455
0.00162046
0.0170973
0.0128869
0.00324207
0.0012476
0.013416
0.0139242
0.00124763
0.00352399
0.0037751
0.00290332
0.00157035
0.0128519
0.00124735
0.00124088
0.0134167
0.0157202
0.00125561
0.003487
0.0192574
0.00432343
0.00920633
0.00801843
0.0172088
0.000467007
0.00865039
0.0025121
0.016301
0.0123184
0.000160505
0.0143058
0.0186117
0.0191396
0.00128285
0.00126853
0.00837379
0.00121319
0.00818955
0.000669445
0.00161964
0.00124096
0.00124925
0.00124296
0.0176823
0.00417205
0.00646422
0.00128347
0.0144383
0.00672057
0.0022169
0.0131116
0.0025394
0.00766875
0.00563964
0.0111964
0.00126111
0.00171818
0.00391336
0.0124059
0.013518
0.0172833
0.00125039
0.00132548
0.0089312
0.00398659
0.0118207
0.00124541
0.00134721
0.00579044
0.00129554
0.0163612
0.0105103
0.00120705
0.00877614
0.00326954
0.0184957
0.00151144
0.00630351
0.00125009
0.00125582
0.0207479
0.0157304
0.0158121
0.00151949
0.00129677
0.00182968
0.0159986
0.00567813
0.0108179
0.018491
0.0154301
0.0185934
0.00396179
0.019336
0.0183219
0.0131925
0.015766
0.0119071
0.00150383
0.00422793
0.00125382
0.00123969
0.0103126
0.00298748
0.00313901
0.00153922
0.00246432
0.0144596
0.00987371
0.00289572
0.018718
0.0141484
0.00523808
0.00124499
0.00451841
0.0179176
0.0133786
0.00144639
0.0104917
0.00346401
0.00340863
0.00261118
0.0175848
0.00732789
0.00427713
0.0194345
0.00138706
0.00124025
0.00142939
0.0023132
0.00938016
0.00129476
0.00158631
0.00124463
0.00770606
0.0202242
0.0183815
0.0136228
0.0124477
0.0164147
0.0161454
0.00148341
0.00801846
0.0184118
0.0012474
0.00426623
0.00124296
0.00439643
0.00763674
0.00412498
0.00166027
0.00124799
0.0159039
0.00305146
0.00124295
0.00125805
0.00126104
0.00126129
0.00998619
0.00652468
0.0178811
0.001793
0.00124289
0.00124306
0.00123815
0.0191748
0.00423432
0.00151305
0.0128362
0.00601838
0.00158498
0.00123654
0.00813871
0.00124267
0.00232086
0.00408944
0.00723043
0.00300484
0.00140475
0.00173649
0.016791
0.00505432
0.00263411
0.0160846
0.00131814
0.00124411
0.00124562
0.0193768
0.00127739
0.015379
0.00124657
0.0132141
0.0114389
0.00272827
0.00550284
0.00581935
0.00155171
0.0132354
0.0113837
0.00275302
0.0225754
0.0112898
0.0158363
0.0137349
0.0203755
0.00830576
0.0191336
0.00471374
0.00673219
0.0159967
0.0173832
0.0129002
0.0118415
0.0013888
0.0162365
0.00537665
0.0184035
0.00365306
0.00133727
0.00124807
0.00130232
0.0039932
0.0104035
0.00765867
0.00622289
0.00124763
0.0193771
0.0012475
0.00695089
0.0141985
0.0191298
0.0150072
0.016111
0.00167012
0.00147436
0.00151138
0.00811098
0.00221003
0.00610111
0.00931612
0.0104068
0.0182954
0.0181746
0.0146134
0.00131261
0.0172337
0.0190398
0.00284595
0.00125644
0.0190598
0.0193151
0.00128169
0.0111901
0.00125757
0.0105058
0.0165172
0.0109313
0.0191569
0.00499846
0.0194594
0.00127366
0.0195188
0.00139507
0.0171473
0.0176321
0.0113397
0.0173441
0.0130877
0.00843423
0.0107418
0.00147121
0.0037269
0.00109631
0.00206082
0.0012247
0.00701702
0.00138845
0.0183816
0.00124053
0.00125747
0.00176207
0.00925017
0.00518456
0.0138745
0.0015463
0.0192456
0.00796229
0.0186064
0.0061132
0.0163109
0.0102795
0.00129533
0.0173666
0.0178144
0.00125213
0.0175682
0.0147005
0.00123818
0.00124101
0.00883505
0.00183242
0.0130496
0.00151247
0.00648952
0.00368059
0.00954863
0.0158614
0.0183105
0.0158004
0.0175219
0.0176499
0.00138777
0.00123672
0.0087378
0.0121336
0.0156613
0.0110418
0.0185673
0.00460494
0.0191044
0.0190893
0.00658178
0.00295191
0.0159207
0.0147308
0.00131442
0.0181106
0.0144095
0.00145122
0.0192119
0.0166951
0.0159927
0.00346457
0.00467515
0.0129248
0.0016729
0.015838
0.00154108
0.00332413
0.00125155
0.0113983
0.00284848
0.00872269
0.00156963
0.00135982
0.00856798
0.00845644
0.00213028
0.00280247
0.0105504
0.00274157
0.00127403
0.0163463
0.00877179
0.0128607
0.0075705
0.00348788
0.0116806
0.0170796
0.0181092
0.00571733
0.0120771
0.016655
0.00613556
0.0150272
0.0193982
0.000383873
0.00592385
0.0119518
0.00129369
0.00319379
0.00769249
0.012794
0.00277957
0.0222364
0.00428832
0.01055
0.00627201