/*--------------------------------*- C++ -*----------------------------------*\
| =========                 |                                                 |
| \\      /  F ield         | OpenFOAM: The Open Source CFD Toolbox           |
|  \\    /   O peration     | Version:  2.3.1                                 |
|   \\  /    A nd           | Web:      www.OpenFOAM.org                      |
|    \\/     M anipulation  |                                                 |
\*---------------------------------------------------------------------------*/
FoamFile
{
    version     2.0;
    format      ascii;
    class       volScalarField;
    location    "250";
    object      p;
}
// * * * * * * * * * * * * * * * * * * * * * * * * * * * * * * * * * * * * * //

dimensions      [0 2 -2 0 0 0 0];

internalField   nonuniform List<scalar> 
10720
(
0.000269249
-80.6821
-175.229
-265.649
-346.246
-427.42
-497.033
-553.033
-600.146
-634.739
-658.956
-675.045
-684.25
-687.137
-684.133
-674.762
-660.23
-639.231
-613.004
-580.172
-541.835
-497.193
-448.554
-396.867
-345.672
-300.087
-259.024
-218.786
-179.061
-140.052
-101.553
-63.3998
-25.4702
12.489
50.7407
90.4279
131.724
180.591
227.109
83.5784
160.091
245.304
327.585
401.049
461.389
504.672
528.414
535.763
532.537
519.765
500.573
479.281
457.848
437.026
416.875
397.681
379.216
361.292
343.477
325.73
307.759
289.642
271.743
255.839
242.975
232.208
223.194
215.946
210.527
206.861
204.836
204.368
205.454
208.099
212.684
219.708
232.74
255.494
148
85.8903
17.4492
-53.8989
-126.008
-198.761
-268.153
-332.064
-390.024
-440.278
-482.92
-518.03
-545.442
-565.336
-577.629
-582.476
-580.536
-571.332
-555.472
-532.364
-502.655
-466.117
-424.545
-379.155
-333.126
-290.857
-251.837
-213.17
-174.654
-136.586
-98.8482
-61.3123
-23.8806
13.6829
51.6288
91.0819
132.202
180.992
226.792
204.558
259.213
314.848
370.262
421.189
464.897
498.163
518.522
526.649
524.614
514.12
498.171
479.597
459.999
440.226
420.664
401.639
383.143
365.072
347.163
329.346
311.437
293.515
275.959
260.159
247.013
235.885
226.49
218.861
213.062
209.029
206.674
205.913
206.739
209.165
213.577
220.467
233.418
255.187
171.487
115.794
54.1511
-13.0456
-81.6157
-150.752
-218.861
-283.053
-341.725
-394
-438.723
-475.466
-504.305
-525.701
-539.797
-546.885
-547.141
-540.447
-527.074
-506.842
-480.124
-447.019
-408.864
-366.994
-324.027
-283.578
-245.725
-208.214
-170.703
-133.46
-96.4048
-59.4219
-22.4313
14.7827
52.4571
91.6958
132.642
181.258
226.64
222.465
273.075
324.528
374.634
419.66
457.922
487.148
505.681
514.185
513.895
506.072
492.934
476.547
458.454
439.673
420.776
402.137
383.881
365.975
348.248
330.614
312.956
295.341
278.118
262.396
249.049
237.731
228.17
220.381
214.419
210.23
207.729
206.834
207.539
209.863
214.195
221.025
233.864
254.699
208.724
161.861
109.072
51.7384
-7.69588
-69.0506
-130.535
-190.228
-246.722
-298.897
-345.647
-386.326
-420.62
-448.413
-469.573
-483.929
-491.233
-491.373
-484.397
-470.265
-449.231
-421.578
-388.407
-351.117
-311.977
-274.072
-237.966
-202.001
-165.781
-129.58
-93.385
-57.1042
-20.6784
16.0856
53.4085
92.3626
133.07
181.387
226.374
251.16
292.605
334.938
376.917
415.076
448.148
474.099
491.336
500.194
501.414
495.909
485.369
471.386
455.298
438.086
420.361
402.535
384.83
367.294
349.853
332.453
315.046
297.707
280.771
265.154
251.679
240.19
230.441
222.442
216.252
211.835
209.11
208.008
208.528
210.698
214.907
221.634
234.289
254.196
223.478
181.72
134.447
82.6846
28.8374
-27.4463
-84.6666
-141.044
-195.477
-246.792
-293.823
-335.792
-372.087
-402.273
-426.04
-443.062
-453.179
-456.309
-452.43
-441.596
-423.975
-399.918
-370.328
-336.537
-300.501
-264.793
-230.22
-195.618
-160.582
-125.378
-90.0386
-54.4867
-18.6711
17.5878
54.4988
93.104
133.502
181.414
225.87
261.415
298.271
335.97
373.252
407.072
436.629
460.214
476.505
485.635
488.067
484.559
476.361
464.685
450.631
435.09
418.668
401.812
384.807
367.781
350.744
333.687
316.611
299.611
283.003
267.554
254.019
242.393
232.484
224.307
217.924
213.31
210.397
209.121
209.485
211.521
215.62
222.242
234.688
253.66
234.89
197.882
155.71
109.544
61.4383
10.7095
-41.2232
-92.9475
-143.643
-192.212
-237.648
-279.179
-316.095
-347.813
-373.894
-393.95
-407.707
-414.898
-415.297
-408.85
-395.627
-375.942
-350.55
-320.678
-288.041
-254.819
-221.995
-188.865
-155.09
-120.93
-86.4728
-51.6723
-16.4914
19.2327
55.6946
93.9007
133.924
181.315
225.126
268.481
300.949
334.354
367.595
397.854
424.582
446.267
461.765
471.047
474.419
472.543
466.356
456.788
444.723
430.928
415.965
400.271
384.164
367.825
351.333
334.73
318.061
301.441
285.177
269.928
256.383
244.652
234.609
226.268
219.697
214.886
211.777
210.316
210.508
212.395
216.365
222.863
235.055
253.078
240.666
207.249
169.046
127.17
83.5963
37.3655
-10.2498
-58.0072
-105.344
-151.266
-194.887
-235.494
-272.333
-304.744
-332.187
-354.168
-370.204
-379.987
-383.206
-379.793
-369.798
-353.507
-331.561
-305.053
-275.465
-244.613
-213.533
-181.879
-149.385
-116.293
-82.739
-48.7071
-14.1792
20.9877
56.9715
94.7382
134.325
181.078
224.15
271.021
300.248
330.437
360.56
388.037
412.502
432.651
447.445
456.765
460.856
460.287
455.787
448.08
437.867
425.787
412.326
397.889
382.8
367.274
351.44
335.386
319.196
303.009
287.124
272.119
258.626
246.836
236.688
228.207
221.465
216.466
213.168
211.525
211.547
213.285
217.121
223.481
235.379
252.455
243.858
213.518
178.734
140.628
101.058
58.9115
15.3673
-28.492
-72.2916
-115.176
-156.367
-195.262
-231.15
-263.362
-291.309
-314.436
-332.209
-344.269
-350.234
-349.903
-343.229
-330.411
-311.965
-288.834
-262.302
-233.899
-204.67
-174.562
-143.406
-111.436
-78.8274
-45.5984
-11.751
22.8362
58.3163
95.6089
134.701
180.708
222.947
271.449
297.938
325.425
352.956
378.133
400.709
419.568
433.717
442.979
447.604
448.064
444.954
438.852
430.312
419.855
407.883
394.754
380.775
366.169
351.098
335.686
320.051
304.352
288.882
274.164
260.778
248.974
238.752
230.153
223.255
218.078
214.595
212.771
212.621
214.203
217.893
224.098
235.66
251.793
244.993
217.209
185.304
150.367
114.186
75.5672
35.5775
-4.80395
-45.3587
-85.334
-124.072
-161.077
-195.693
-227.281
-255.252
-279.015
-297.992
-311.731
-319.795
-321.892
-317.927
-308.046
-292.66
-272.575
-248.883
-222.857
-195.492
-166.951
-137.163
-106.353
-74.728
-42.3393
-9.20648
24.7702
59.7201
96.5071
135.059
180.221
221.537
270.287
294.519
319.767
345.133
368.379
389.359
407.106
420.656
429.795
434.798
436.06
434.081
429.339
422.277
413.313
402.77
390.951
378.126
364.513
350.287
335.597
320.586
305.429
290.415
276.028
262.804
251.033
240.773
232.082
225.047
219.706
216.046
214.043
213.72
215.141
218.678
224.709
235.896
251.094
244.85
219.266
189.851
157.674
124.445
88.9337
52.1347
14.9295
-22.5763
-59.7162
-95.9483
-130.869
-163.889
-194.444
-221.96
-245.838
-265.495
-280.434
-290.206
-294.429
-292.934
-285.785
-273.28
-256.087
-235.125
-211.448
-185.98
-159.039
-130.65
-101.039
-70.4344
-38.9219
-6.5392
26.7926
61.1793
97.4266
135.4
179.632
219.955
268.177
290.482
313.818
337.336
358.928
378.53
395.3
408.281
417.253
422.51
424.39
423.323
419.719
413.941
406.323
397.119
386.574
374.915
362.339
349.02
335.118
320.793
306.229
291.715
277.702
264.695
253.006
242.744
233.989
226.84
221.348
217.519
215.342
214.844
216.101
219.473
225.314
236.089
250.359
243.822
220.139
192.887
163.111
132.459
99.6793
65.7074
31.3439
-3.37025
-37.8566
-71.6708
-104.497
-135.811
-165.115
-191.882
-215.54
-235.506
-251.257
-262.322
-268.266
-268.844
-264.059
-254.121
-239.564
-221.15
-199.74
-176.167
-150.842
-123.875
-95.4943
-65.9451
-35.343
-3.74518
28.9068
62.6947
98.3637
135.724
178.953
218.231
265.446
286.096
307.78
329.696
349.849
368.252
384.141
396.579
405.361
410.774
413.122
412.786
410.128
405.451
399.029
391.055
381.719
371.206
359.683
347.31
334.248
320.662
306.741
292.766
279.171
266.432
254.875
244.65
235.863
228.621
222.996
219.008
216.662
215.992
217.08
220.276
225.909
236.237
249.592
242.211
220.197
194.849
167.19
138.807
108.45
77.0048
45.2083
13.0447
-18.9709
-50.4735
-81.2229
-110.765
-138.673
-164.469
-187.617
-207.561
-223.775
-235.775
-243.112
-245.459
-242.76
-235.14
-223.009
-206.985
-187.762
-166.069
-142.369
-116.843
-89.7206
-61.2594
-31.6014
-0.822555
31.1143
64.2674
99.317
136.026
178.187
216.387
262.347
281.55
301.789
322.297
341.184
358.526
373.612
385.534
394.103
399.598
402.296
402.543
400.665
396.925
391.55
384.687
376.48
367.071
356.593
345.185
332.997
320.193
306.955
293.561
280.425
268.003
256.627
246.479
237.691
230.384
224.643
220.509
218
217.158
218.074
221.084
226.492
236.342
248.795
240.222
219.68
196.024
170.243
143.873
115.674
86.489
57.0072
27.1656
-2.57713
-31.9092
-60.6597
-88.4353
-114.877
-139.564
-162.008
-181.687
-198.087
-210.713
-219.131
-222.94
-222.03
-216.454
-206.516
-192.704
-175.563
-155.716
-133.639
-109.562
-83.721
-56.3774
-27.6955
2.23005
33.4163
65.8972
100.285
136.304
177.34
214.436
259.037
276.97
295.926
315.184
332.944
349.337
363.688
375.116
383.457
388.977
391.931
392.638
391.401
388.453
383.986
378.115
370.945
362.58
353.12
342.676
331.381
319.387
306.869
294.091
281.455
269.396
258.247
248.218
239.463
232.117
226.282
222.015
219.351
218.341
219.081
221.896
227.06
236.405
247.972
237.998
218.769
196.626
172.527
147.954
121.689
94.5348
67.1441
39.4137
11.7621
-15.5458
-42.392
-68.4425
-93.3947
-116.891
-138.492
-157.709
-174.061
-187.051
-196.269
-201.267
-201.879
-198.098
-190.134
-178.357
-163.187
-145.138
-124.67
-102.044
-77.5007
-51.3003
-23.6248
5.41413
35.8139
67.5844
101.268
136.553
176.415
212.387
255.634
272.434
290.247
308.381
325.131
340.662
354.334
365.294
373.396
378.898
382.034
383.101
382.387
380.103
376.42
371.425
365.196
357.805
349.318
339.821
329.422
318.255
306.483
294.353
282.252
270.599
259.724
249.855
241.168
233.811
227.904
223.521
220.711
219.537
220.099
222.709
227.612
236.427
247.126
235.638
217.591
196.812
174.227
151.269
126.744
101.425
75.9245
50.1185
24.3903
-1.03954
-26.0929
-50.4859
-73.9703
-96.2363
-116.899
-135.515
-151.634
-164.776
-174.55
-180.486
-182.368
-180.141
-173.93
-164.009
-150.686
-134.368
-115.483
-94.3028
-71.0667
-46.0314
-19.3903
8.73027
38.3076
69.3291
102.265
136.773
175.417
210.248
252.215
267.998
284.779
301.898
317.733
332.476
345.517
356.033
363.89
369.338
372.597
373.944
373.656
371.93
368.916
364.691
359.307
352.811
345.244
336.66
327.146
316.813
305.803
294.346
282.811
271.603
261.044
251.377
242.793
235.456
229.501
225.018
222.073
220.739
221.122
223.518
228.146
236.41
246.261
233.217
216.241
196.696
175.484
153.984
131.037
107.383
83.5978
59.5471
35.5831
11.8892
-11.4866
-34.3013
-56.354
-77.3852
-97.0558
-114.969
-130.712
-143.829
-153.943
-160.598
-163.523
-162.621
-157.955
-149.712
-138.105
-123.444
-106.104
-86.3547
-64.429
-40.5755
-14.9937
12.1776
40.8979
71.1319
103.278
136.962
174.353
208.03
248.834
263.697
279.541
295.735
310.737
324.754
337.207
347.3
354.91
360.279
363.614
365.176
365.232
363.969
361.529
357.973
353.342
347.661
340.949
333.237
324.584
315.079
304.84
294.074
283.132
272.402
262.2
252.772
244.327
237.042
231.063
226.499
223.432
221.945
222.147
224.322
228.658
236.356
245.38
230.786
214.785
196.365
176.406
156.23
134.719
112.577
90.3563
67.9097
45.5612
23.4712
1.66278
-19.6616
-40.3374
-60.1502
-78.8051
-95.9489
-111.209
-124.159
-134.435
-141.611
-145.371
-145.585
-142.263
-135.524
-125.497
-112.405
-96.5611
-78.2194
-57.6001
-34.9398
-10.4387
15.7552
43.5844
72.9924
104.305
137.123
173.229
205.741
245.528
259.555
274.543
289.888
304.127
317.471
329.37
339.063
346.425
351.696
355.069
356.793
357.127
356.251
354.296
351.321
347.355
342.411
336.488
329.596
321.772
313.077
303.606
293.542
283.213
272.991
263.181
254.031
245.76
238.556
232.58
227.956
224.78
223.148
223.17
225.116
229.147
236.269
244.488
228.383
213.274
195.888
177.072
158.108
137.905
117.147
96.3547
75.3772
54.514
33.9055
13.5513
-6.37232
-25.7379
-44.3647
-61.9997
-78.3351
-93.0316
-105.702
-115.99
-123.516
-127.926
-129.063
-126.9
-121.495
-112.911
-101.291
-86.8855
-69.919
-50.595
-29.1333
-5.73024
19.4605
46.3661
74.9102
105.348
137.258
172.054
203.395
242.322
255.583
269.784
284.348
297.884
310.601
321.98
331.289
338.407
343.565
346.949
348.792
349.349
348.792
347.249
344.775
341.395
337.11
331.908
325.781
318.743
310.833
302.121
292.761
283.058
273.368
263.981
255.144
247.08
239.99
234.044
229.381
226.111
224.342
224.186
225.897
229.612
236.15
243.59
226.033
211.745
195.31
177.548
159.693
140.693
121.202
101.721
82.0891
62.5922
43.3504
24.3477
5.73387
-12.3882
-29.8732
-46.5022
-62.0087
-76.0894
-88.392
-98.5762
-106.302
-111.198
-113.087
-111.906
-107.672
-100.394
-90.1448
-77.1099
-61.4784
-43.4305
-23.1669
-0.874911
23.2898
49.2413
76.8852
106.408
137.367
170.836
201.003
239.232
251.789
265.264
279.105
291.987
304.12
315.008
323.951
330.827
335.863
339.234
341.162
341.896
341.604
340.41
338.368
335.5
331.802
327.253
321.831
315.533
308.376
300.403
291.743
282.675
273.534
264.596
256.102
248.279
241.333
235.444
230.764
227.417
225.52
225.189
226.662
230.05
236.003
242.689
223.756
210.227
194.671
177.882
161.048
143.154
124.831
106.552
88.1597
69.921
51.9431
34.1942
16.8059
-0.143534
-16.5372
-32.1871
-46.8618
-60.294
-72.1635
-82.15
-89.9482
-95.1896
-97.6735
-97.3157
-94.099
-87.9925
-79.0074
-67.2686
-52.9238
-36.1264
-17.054
4.11893
27.2384
52.2077
78.9164
107.485
137.456
169.586
198.577
236.271
248.177
260.979
274.146
286.42
298.004
308.43
317.022
323.661
328.568
331.908
333.895
334.768
334.696
333.796
332.125
329.703
326.525
322.564
317.788
312.179
305.734
298.475
290.504
282.072
273.491
265.024
256.9
249.347
242.574
236.77
232.097
228.69
226.676
226.174
227.406
230.459
235.831
241.791
221.563
208.739
193.998
178.111
162.221
145.349
128.102
110.933
93.6832
76.6055
59.7937
43.2085
26.9614
11.1142
-4.24051
-18.9449
-32.7965
-45.5603
-56.9491
-66.667
-74.4323
-79.8963
-82.8383
-83.1576
-80.8157
-75.7491
-67.9206
-57.3975
-44.2842
-28.7042
-10.8098
9.24121
31.3001
55.2622
81.003
108.583
137.529
168.315
196.131
233.443
244.745
256.92
269.46
281.164
292.234
302.221
310.479
316.886
321.658
324.955
326.977
327.96
328.068
327.416
326.063
324.03
321.31
317.875
313.685
308.712
302.938
296.362
289.061
281.259
273.245
265.263
257.534
250.278
243.706
238.013
233.369
229.921
227.803
227.135
228.125
230.839
235.637
240.9
219.465
207.295
193.314
178.266
163.251
147.325
131.076
114.932
98.739
82.7338
67.0015
51.494
36.3109
21.4966
7.12325
-6.67206
-19.7188
-31.809
-42.686
-52.0796
-59.7266
-65.3089
-68.5893
-69.4544
-67.8548
-63.7038
-56.9238
-47.532
-35.589
-21.1875
-4.4516
14.4803
35.4677
58.4008
83.144
109.701
137.591
167.033
193.681
230.752
241.491
253.079
265.033
276.203
286.788
296.36
304.296
310.479
315.115
318.357
320.397
321.465
321.72
321.278
320.197
318.501
316.184
313.216
309.557
305.167
300.017
294.089
287.434
280.25
272.803
265.317
258
251.064
244.72
239.164
234.573
231.102
228.893
228.066
228.815
231.188
235.423
240.02
217.465
205.906
192.634
178.369
164.166
149.122
133.797
118.603
103.388
88.3779
73.6454
59.1396
44.9467
31.099
17.6518
4.72209
-7.54383
-18.9648
-29.3119
-38.3402
-45.8018
-51.4134
-54.9283
-56.2256
-55.2463
-51.8921
-46.0548
-37.7075
-26.8697
-13.6013
2.00166
19.8223
39.7323
61.619
85.3379
110.844
137.647
165.752
191.238
228.198
238.412
249.45
260.853
271.521
281.648
290.826
298.455
304.417
308.916
312.097
314.141
315.273
315.65
315.384
314.536
313.132
311.167
308.615
305.431
301.573
297
291.68
285.644
279.062
272.175
265.19
258.298
251.702
245.609
240.214
235.699
232.224
229.938
228.961
229.473
231.505
235.192
239.156
215.566
204.58
191.972
178.439
164.993
150.769
136.304
121.993
107.687
93.5974
79.7927
66.2168
52.947
40.0037
27.4287
15.3209
3.80569
-6.95685
-16.7655
-25.3991
-32.6247
-38.1927
-41.8529
-43.4809
-43.0126
-40.3457
-35.3495
-27.9592
-18.1582
-5.97217
8.52923
25.2534
44.0839
64.9107
87.5833
112.012
137.705
164.483
188.819
225.779
235.502
246.024
256.909
267.104
276.795
285.6
292.933
298.683
303.046
306.159
308.196
309.376
309.852
309.733
309.085
307.933
306.277
304.091
301.333
297.956
293.913
289.161
283.712
277.71
271.373
264.887
258.429
252.19
246.367
241.156
236.738
233.278
230.93
229.815
230.094
231.789
234.948
238.311
213.769
203.32
191.335
178.489
165.752
152.294
138.631
125.142
111.68
98.4461
85.5032
72.7925
60.3814
48.282
36.5266
25.1972
14.4014
4.27935
-4.99125
-13.2103
-20.1627
-25.6276
-29.3577
-31.2278
-31.1743
-29.0935
-24.8404
-18.3204
-9.48446
1.67251
15.1101
30.7556
48.5115
68.2705
89.8779
113.209
137.772
163.237
186.438
223.494
232.755
242.791
253.188
262.935
272.214
280.663
287.714
293.259
297.487
300.528
302.549
303.763
304.319
304.326
303.847
302.914
301.527
299.664
297.284
294.341
290.782
286.556
281.659
276.211
270.408
264.417
258.396
252.524
246.99
241.982
237.682
234.258
231.863
230.619
230.674
232.039
234.692
237.49
212.074
202.13
190.731
178.529
166.456
153.715
140.802
128.08
115.404
102.967
90.8253
78.9199
67.3096
55.9986
45.0116
34.4176
24.308
14.8044
6.06587
-1.72928
-8.3805
-13.6959
-17.4336
-19.4712
-19.7466
-18.1593
-14.5572
-8.82234
-0.878827
9.30662
21.7197
36.3127
53.003
71.6898
92.2206
114.438
137.856
162.029
184.112
221.34
230.165
239.743
249.678
259.001
267.89
275.999
282.781
288.127
292.222
295.189
297.188
298.425
299.046
299.157
298.824
298.079
296.926
295.347
293.303
290.749
287.629
283.887
279.505
274.584
269.296
263.788
258.204
252.707
247.474
242.688
238.525
235.153
232.727
231.369
231.21
232.253
234.426
236.695
210.479
201.011
190.165
178.569
167.119
155.05
142.84
130.833
118.892
107.198
95.8022
84.6464
73.7816
63.2078
52.9407
43.0398
33.5822
24.6738
16.4563
9.08772
2.75545
-2.37281
-6.06782
-8.20839
-8.73758
-7.56206
-4.52659
0.504355
7.62838
16.9023
28.3361
41.9048
57.545
75.1626
94.607
115.701
137.965
160.866
181.853
219.311
227.726
236.87
246.369
255.29
263.808
271.593
278.116
283.271
287.235
290.127
292.098
293.35
294.022
294.221
294.012
293.43
292.482
291.151
289.404
287.197
284.474
281.175
277.272
272.848
268.051
263.013
257.86
252.74
247.818
243.267
239.259
235.958
233.518
232.057
231.696
232.432
234.151
235.928
208.981
199.964
189.638
178.614
167.75
156.313
144.761
133.424
122.169
111.169
100.469
90.0115
79.843
69.9569
60.3649
51.1164
42.2764
33.9378
26.2261
19.2828
13.2786
8.36599
4.75339
2.5629
1.84437
2.68172
5.22967
9.63329
16.0088
24.4317
34.9351
47.5143
62.1229
78.6792
97.0359
117
138.106
159.763
179.674
217.404
225.432
234.166
243.25
251.79
259.955
267.431
273.706
278.676
282.513
285.329
287.269
288.527
289.241
289.514
289.411
288.969
288.198
287.085
285.6
283.701
281.335
278.44
274.979
271.018
266.688
262.102
257.37
252.627
248.022
243.718
239.88
236.666
234.227
232.68
232.13
232.573
233.869
235.191
207.579
198.987
189.154
178.67
168.358
157.514
146.581
135.873
125.26
114.908
104.859
95.0522
85.5324
76.2898
67.3294
58.6932
50.4371
42.6419
35.4186
28.8946
23.2233
18.5453
15.0479
12.8494
11.9963
12.5609
14.6912
18.5409
24.236
31.8692
41.4926
53.1201
66.7233
82.2301
99.5031
118.339
138.29
158.728
177.588
215.613
223.275
231.62
240.311
248.489
256.317
263.498
269.536
274.328
278.041
280.782
282.688
283.947
284.694
285.027
285.015
284.694
284.076
283.154
281.9
280.275
278.229
275.698
272.643
269.114
265.223
261.068
256.745
252.373
248.088
244.039
240.382
237.271
234.849
233.23
232.508
232.677
233.581
234.485
206.269
198.079
188.712
178.739
168.947
158.663
148.312
138.194
128.184
118.438
108.996
99.7991
90.8852
82.2432
73.8741
65.8132
58.1077
50.8291
44.0745
37.9589
32.6204
28.1896
24.8312
22.6614
21.7194
22.0663
23.8432
27.2054
32.2864
39.1907
47.9861
58.7031
71.3299
85.8068
102.005
119.72
138.523
157.773
175.607
213.935
221.249
229.226
237.542
245.376
252.883
259.783
265.592
270.214
273.807
276.473
278.342
279.598
280.37
280.755
280.82
280.603
280.119
279.362
278.311
276.928
275.167
272.966
270.281
267.15
263.67
259.924
255.994
251.985
248.017
244.229
240.764
237.768
235.378
233.703
232.827
232.741
233.285
233.811
205.047
197.238
188.313
178.824
169.523
159.767
149.965
140.401
130.956
121.779
112.905
104.278
95.93
87.8498
80.0341
72.5127
65.3258
58.5362
52.2304
46.5105
41.5013
37.3241
34.1226
32.0089
31.0159
31.1939
32.6737
35.6091
40.138
46.3727
54.393
64.244
75.928
89.3981
104.537
121.144
138.811
156.906
173.741
212.364
219.348
226.974
234.935
242.441
249.643
256.272
261.864
266.321
269.797
272.389
274.221
275.469
276.261
276.688
276.819
276.692
276.324
275.712
274.838
273.669
272.162
270.257
267.908
265.143
262.044
258.683
255.128
251.469
247.815
244.289
241.024
238.155
235.81
234.095
233.083
232.765
232.982
233.167
203.909
196.462
187.957
178.925
170.089
160.832
151.547
142.504
133.591
124.947
116.606
108.511
100.693
93.1379
85.84
78.8245
72.1257
65.7985
59.9198
54.5807
49.8945
45.9722
42.9405
40.9047
39.8915
39.9411
41.1732
43.7373
47.7723
53.3944
60.6924
69.723
80.5021
92.9942
107.096
122.612
139.163
156.134
172
210.895
217.566
224.859
232.481
239.673
246.584
252.955
258.338
262.637
266.001
268.52
270.314
271.552
272.357
272.82
273.007
272.957
272.689
272.203
271.484
270.504
269.221
267.581
265.536
263.106
260.36
257.357
254.157
250.835
247.487
244.222
241.161
238.428
236.142
234.403
233.274
232.748
232.672
232.553
202.853
195.749
187.642
179.045
170.648
161.863
153.065
144.515
136.1
127.958
120.115
112.519
105.196
98.1323
91.3194
84.7781
78.5381
72.6469
67.1735
62.1998
57.8271
54.1584
51.3037
49.3613
48.3527
48.308
49.3357
51.5786
55.1727
60.2368
66.8648
75.1228
85.037
96.5847
109.675
124.125
139.583
155.467
170.392
209.523
215.897
222.872
230.171
237.065
243.698
249.822
255.005
259.152
262.407
264.855
266.61
267.835
268.651
269.142
269.376
269.393
269.212
268.836
268.252
267.437
266.354
264.949
263.178
261.052
258.629
255.96
253.093
250.092
247.039
244.031
241.176
238.586
236.372
234.624
233.398
232.689
232.352
231.966
201.873
195.096
187.367
179.182
171.201
162.863
154.527
146.439
138.496
130.823
123.449
116.32
109.461
102.857
96.4969
90.3997
84.59
79.1094
74.0201
69.3946
65.3249
61.9051
59.2312
57.394
56.4089
56.2974
57.1575
59.1232
62.326
66.8833
72.8928
80.4258
89.5186
100.159
112.269
125.682
140.077
154.909
168.923
208.244
214.334
221.007
227.998
234.607
240.974
246.862
251.853
255.854
259.003
261.383
263.099
264.31
265.131
265.646
265.921
265.995
265.888
265.607
265.142
264.472
263.563
262.368
260.843
258.992
256.865
254.504
251.947
249.249
246.479
243.721
241.072
238.631
236.498
234.756
233.454
232.586
232.022
231.403
200.966
194.5
187.131
179.337
171.751
163.835
155.935
148.285
140.784
133.554
126.619
119.928
113.504
107.33
101.394
95.7128
90.3068
85.2126
80.4855
76.191
72.4118
69.2342
66.7409
65.016
64.0697
63.9145
64.638
66.3649
69.2211
73.3205
78.7604
85.6167
93.9328
103.706
114.873
127.282
140.646
154.464
167.599
207.052
212.872
219.257
225.954
232.291
238.404
244.066
248.873
252.734
255.781
258.093
259.77
260.966
261.79
262.324
262.633
262.756
262.714
262.515
262.153
261.609
260.855
259.846
258.539
256.937
255.079
253
250.73
248.316
245.815
243.299
240.853
238.564
236.521
234.798
233.439
232.438
231.679
230.861
200.129
193.958
186.931
179.51
172.298
164.782
157.294
150.057
142.974
136.161
129.639
123.358
117.341
111.569
106.031
100.738
95.7107
90.9793
86.5936
82.6125
79.1103
76.1665
73.8516
72.2433
71.3461
71.1654
71.7784
73.3007
75.8502
79.5363
84.454
90.6813
98.2667
107.216
117.479
128.924
141.293
154.136
166.422
205.942
211.506
217.616
224.032
230.11
235.98
241.425
246.055
249.782
252.731
254.978
256.616
257.794
258.619
259.169
259.506
259.67
259.684
259.556
259.283
258.85
258.23
257.385
256.274
254.895
253.28
251.458
249.453
247.303
245.055
242.771
240.523
238.387
236.441
234.751
233.353
232.245
231.322
230.337
199.357
193.467
186.766
179.699
172.842
165.706
158.608
151.761
145.072
138.651
132.517
126.622
120.986
115.591
110.424
105.495
100.822
96.4307
92.3659
88.6803
85.4415
82.7218
80.5813
79.0904
78.2494
78.0577
78.5824
79.9293
82.208
85.5216
89.9621
95.6072
102.509
110.68
120.083
130.604
142.019
153.927
165.395
204.911
210.23
216.078
222.226
228.055
233.692
238.93
243.391
246.989
249.844
252.026
253.627
254.787
255.61
256.171
256.532
256.732
256.793
256.727
256.531
256.194
255.693
254.992
254.054
252.874
251.478
249.889
248.127
246.22
244.209
242.145
240.088
238.104
236.261
234.615
233.197
232.005
230.949
229.827
198.646
193.025
186.634
179.903
173.383
166.607
159.879
153.401
147.083
141.031
135.262
129.729
124.451
119.408
114.588
110.001
105.658
101.586
97.8222
94.4153
91.4251
88.9186
86.9467
85.5726
84.7928
84.6005
85.0547
86.2513
88.2912
91.27
95.2757
100.384
106.648
114.088
122.676
132.319
142.823
153.837
164.518
203.953
209.039
214.637
220.528
226.12
231.535
236.574
240.873
244.346
247.11
249.23
250.793
251.935
252.754
253.324
253.705
253.934
254.037
254.023
253.894
253.64
253.241
252.667
251.883
250.88
249.68
248.302
246.759
245.077
243.286
241.429
239.555
237.722
235.984
234.392
232.971
231.718
230.557
229.327
197.994
192.627
186.532
180.121
173.922
167.487
161.109
154.979
149.013
143.308
137.882
132.689
127.746
123.033
118.539
114.27
110.237
106.462
102.981
99.8352
97.0798
94.775
92.9648
91.7049
90.9882
90.8035
91.2021
92.2697
94.0988
96.7773
100.388
105.002
110.675
117.431
125.253
134.064
143.702
153.864
163.791
203.065
207.929
213.287
218.934
224.299
229.501
234.349
238.492
241.846
244.522
246.582
248.108
249.23
250.044
250.62
251.017
251.272
251.408
251.44
251.368
251.186
250.877
250.414
249.764
248.919
247.894
246.704
245.361
243.883
242.295
240.631
238.932
237.244
235.615
234.085
232.677
231.384
230.144
228.832
197.395
192.273
186.459
180.352
174.457
168.346
162.3
156.5
150.865
145.488
140.385
135.511
130.881
126.478
122.287
118.316
114.572
111.076
107.858
104.958
102.423
100.308
98.6516
97.5017
96.8486
96.6777
97.0321
97.989
99.6318
102.041
105.293
109.456
114.583
120.702
127.806
135.834
144.653
154.006
163.21
202.242
206.893
212.024
217.437
222.585
227.583
232.248
236.242
239.48
242.071
244.073
245.562
246.665
247.472
248.052
248.461
248.737
248.903
248.973
248.95
248.83
248.599
248.232
247.701
246.994
246.125
245.104
243.941
242.648
241.245
239.76
238.226
236.68
235.16
233.699
232.316
231.004
229.709
228.339
196.848
191.957
186.412
180.595
174.989
169.185
163.453
157.965
152.643
147.575
142.775
138.201
133.866
129.752
125.846
122.152
118.678
115.442
112.47
109.798
107.47
105.533
104.022
102.978
102.387
102.234
102.553
103.415
104.893
107.061
109.989
113.739
118.364
123.894
130.329
137.624
145.671
154.258
162.773
201.48
205.929
210.842
216.031
220.971
225.774
230.264
234.114
237.243
239.752
241.697
243.15
244.232
245.031
245.613
246.032
246.325
246.515
246.618
246.637
246.57
246.406
246.123
245.695
245.111
244.379
243.508
242.505
241.38
240.146
238.826
237.446
236.035
234.623
233.237
231.891
230.577
229.25
227.845
196.349
191.679
186.389
180.848
175.516
170.004
164.57
159.377
154.35
149.573
145.059
140.766
136.707
132.864
129.223
125.789
122.567
119.573
116.831
114.372
112.237
110.467
109.092
108.147
107.617
107.483
107.775
108.555
109.887
111.839
114.473
117.848
122.013
127
132.815
139.426
146.751
154.616
162.473
200.776
205.032
209.737
214.711
219.453
224.069
228.391
232.103
235.125
237.555
239.445
240.863
241.924
242.714
243.296
243.722
244.029
244.24
244.37
244.424
244.403
244.296
244.085
243.748
243.271
242.66
241.922
241.062
240.087
239.006
237.838
236.6
235.317
234.012
232.705
231.405
230.105
228.766
227.344
195.894
191.435
186.388
181.109
176.038
170.803
165.651
160.737
155.989
151.487
147.241
143.213
139.413
135.823
132.43
129.238
126.251
123.482
120.954
118.693
116.737
115.122
113.876
113.024
112.552
112.439
112.709
113.416
114.62
116.379
118.748
121.782
125.527
130.015
135.258
141.235
147.886
155.072
162.306
200.126
204.198
208.703
213.473
218.025
222.462
226.623
230.202
233.122
235.476
237.312
238.694
239.735
240.515
241.095
241.526
241.844
242.071
242.224
242.309
242.325
242.267
242.12
241.86
241.476
240.972
240.352
239.618
238.777
237.834
236.803
235.698
234.536
233.334
232.108
230.863
229.59
228.256
226.835
195.48
191.222
186.406
181.378
176.554
171.583
166.697
162.047
157.563
153.319
149.326
145.546
141.988
138.636
135.475
132.508
129.74
127.18
124.85
122.775
120.985
119.514
118.386
117.621
117.204
117.111
117.364
118.009
119.098
120.683
122.814
125.54
128.903
132.935
137.652
143.044
149.07
155.62
162.263
199.526
203.422
207.738
212.312
216.682
220.947
224.954
228.406
231.227
233.507
235.29
236.638
237.658
238.427
239.004
239.438
239.764
240.005
240.176
240.286
240.335
240.319
240.224
240.032
239.73
239.318
238.801
238.18
237.457
236.638
235.731
234.747
233.698
232.597
231.453
230.269
229.034
227.72
226.316
195.105
191.038
186.443
181.653
177.064
172.342
167.71
163.309
159.073
155.074
151.318
147.771
144.44
141.309
138.365
135.609
133.043
130.679
128.533
126.628
124.992
123.655
122.636
121.952
121.586
121.514
121.752
122.342
123.329
124.759
126.676
129.122
132.139
135.756
139.992
144.847
150.293
156.251
162.337
198.973
202.701
206.836
211.223
215.419
219.52
223.378
226.708
229.434
231.642
233.375
234.689
235.687
236.445
237.017
237.452
237.784
238.035
238.222
238.352
238.428
238.447
238.398
238.264
238.032
237.701
237.274
236.751
236.134
235.425
234.63
233.757
232.813
231.807
230.745
229.626
228.439
227.158
225.783
194.765
190.881
186.496
181.931
177.566
173.081
168.688
164.524
160.522
156.753
153.221
149.892
146.774
143.85
141.107
138.547
136.17
133.987
132.012
130.265
128.772
127.558
126.64
126.03
125.711
125.657
125.883
126.425
127.321
128.612
130.336
132.532
135.235
138.475
142.274
146.636
151.549
156.956
162.519
198.464
202.032
205.993
210.202
214.232
218.175
221.891
225.103
227.738
229.877
231.56
232.841
233.817
234.562
235.128
235.563
235.899
236.158
236.357
236.504
236.603
236.651
236.641
236.556
236.385
236.124
235.775
235.338
234.813
234.202
233.508
232.735
231.889
230.974
229.992
228.941
227.809
226.57
225.236
194.459
190.748
186.563
182.213
178.06
173.799
169.634
165.692
161.912
158.359
155.037
151.913
148.994
146.264
143.71
141.331
139.13
137.114
135.297
133.696
132.334
131.234
130.408
129.867
129.59
129.555
129.77
130.269
131.084
132.25
133.801