/*--------------------------------*- C++ -*----------------------------------*\
| =========                 |                                                 |
| \\      /  F ield         | OpenFOAM: The Open Source CFD Toolbox           |
|  \\    /   O peration     | Version:  2.3.1                                 |
|   \\  /    A nd           | Web:      www.OpenFOAM.org                      |
|    \\/     M anipulation  |                                                 |
\*---------------------------------------------------------------------------*/
FoamFile
{
    version     2.0;
    format      ascii;
    class       volVectorField;
    location    "250";
    object      U;
}
// * * * * * * * * * * * * * * * * * * * * * * * * * * * * * * * * * * * * * //

dimensions      [0 1 -1 0 0 0 0];

internalField   nonuniform List<vector> 
10720
(
(-0.188877 31.6828 4.74371e-18)
(1.84156 33.9307 -4.43623e-18)
(4.31942 36.0657 0)
(7.11387 37.6342 -3.09852e-16)
(10.1542 38.7507 3.4132e-16)
(13.3667 39.3819 2.48179e-16)
(16.5855 39.425 3.79536e-16)
(19.717 38.932 0)
(22.6817 37.9772 0)
(25.4025 36.6001 0)
(27.857 34.9119 1.25198e-16)
(30.0026 32.9362 0)
(31.8366 30.7227 2.01664e-15)
(33.3767 28.3385 0)
(34.6181 25.819 0)
(35.5768 23.2219 0)
(36.2425 20.5736 -3.29757e-15)
(36.6211 17.9286 -4.94355e-15)
(36.6939 15.3103 4.34647e-15)
(36.4716 12.775 0)
(35.9344 10.3538 3.4165e-15)
(35.1182 8.11347 -6.55352e-15)
(34.0695 6.09937 3.17167e-15)
(32.8987 4.36778 -9.35447e-17)
(31.8074 2.96027 0)
(30.8805 1.82049 1.09254e-15)
(30.0177 0.858238 1.64507e-17)
(29.1175 0.031024 -4.16812e-16)
(28.1424 -0.683531 -1.36939e-15)
(27.089 -1.29924 -4.35476e-15)
(25.9606 -1.82178 1.57852e-15)
(24.7598 -2.25362 2.05753e-15)
(23.483 -2.59499 8.43463e-16)
(22.1199 -2.84579 -1.76321e-15)
(20.6182 -3.00042 3.57301e-15)
(18.9396 -3.05645 4.02587e-17)
(16.7602 -2.95546 -9.45501e-17)
(14.2401 -2.69835 -6.12473e-14)
(8.60079 -2.09902 9.23469e-14)
(-1.84574 29.2409 -5.48798e-18)
(-3.25071 26.4467 -2.29774e-17)
(-4.33334 23.2652 7.79066e-17)
(-4.94648 19.5049 -2.17829e-16)
(-4.92583 15.5853 -6.35256e-16)
(-4.20937 11.6204 1.02291e-15)
(-2.81329 7.86155 4.67055e-15)
(-0.895674 4.60938 2.6386e-15)
(1.23389 2.04036 0)
(3.38452 -0.107326 0)
(5.65827 -1.86808 4.47172e-15)
(7.87097 -3.12067 1.62313e-15)
(9.86842 -3.91086 -2.65395e-15)
(11.6242 -4.36369 2.22697e-15)
(13.1675 -4.59305 3.80882e-15)
(14.5326 -4.671 2.52935e-15)
(15.7473 -4.64973 3.38498e-15)
(16.8419 -4.56261 2.36693e-15)
(17.8472 -4.43316 0)
(18.7865 -4.26765 0)
(19.6786 -4.06974 -4.04429e-15)
(20.5356 -3.83112 -2.22696e-16)
(21.3608 -3.53798 3.53223e-15)
(22.1258 -3.16118 -3.00844e-15)
(22.7674 -2.69571 2.25896e-17)
(23.267 -2.17774 0)
(23.649 -1.63318 1.19185e-15)
(23.929 -1.07807 0)
(24.1122 -0.523647 0)
(24.2032 0.0189339 1.0342e-15)
(24.1935 0.539838 0)
(24.0737 1.03216 -3.94768e-15)
(23.8588 1.49055 -7.61757e-15)
(23.5661 1.91009 -3.79371e-14)
(23.1952 2.28694 1.52278e-14)
(22.7407 2.62173 -5.92996e-17)
(22.0844 2.90711 0)
(21.1716 3.10746 3.3086e-14)
(18.4963 3.27636 3.8074e-14)
(7.29582 27.6061 -1.67388e-17)
(9.43218 29.3238 1.13815e-17)
(11.9996 30.8398 0)
(14.9187 32.0488 0)
(18.0194 32.8985 -9.37332e-17)
(21.3071 33.329 -2.3805e-16)
(24.6558 33.3005 0)
(27.9224 32.8453 0)
(31.0501 31.98 5.02014e-16)
(33.9514 30.7664 0)
(36.564 29.2625 1.96661e-15)
(38.8937 27.5897 0)
(40.9292 25.7832 7.03786e-16)
(42.6657 23.8591 -6.94316e-16)
(44.075 21.8479 1.37719e-15)
(45.1458 19.7724 -2.74975e-15)
(45.8832 17.6454 2.99695e-15)
(46.2812 15.4952 2.66819e-15)
(46.3444 13.3338 2.59114e-15)
(46.0619 11.1974 1.55204e-16)
(45.4397 9.11534 -2.67193e-15)
(44.4764 7.1469 2.4773e-15)
(43.2039 5.33611 -1.37295e-16)
(41.6652 3.74325 0)
(39.9776 2.4194 0)
(38.2921 1.30818 0)
(36.6637 0.329254 8.31067e-17)
(35.0789 -0.529714 -1.65245e-17)
(33.5343 -1.27341 9.8994e-16)
(32.0206 -1.91009 3.67355e-17)
(30.5189 -2.44373 -2.89888e-17)
(29.0091 -2.8776 -5.29586e-17)
(27.4706 -3.21434 5.37018e-16)
(25.886 -3.45628 6.06893e-16)
(24.2102 -3.60251 2.56699e-17)
(22.4218 -3.65298 8.56763e-15)
(20.2378 -3.56212 0)
(17.8992 -3.33514 1.71977e-14)
(12.2932 -2.52361 4.83977e-14)
(5.45205 25.7529 2.29115e-17)
(3.81597 23.6681 -7.46708e-17)
(2.31171 21.204 -7.9723e-16)
(1.09362 18.3701 9.25008e-16)
(0.343077 15.256 0)
(0.155594 11.9881 -1.74286e-15)
(0.582414 8.74895 -1.19249e-15)
(1.58585 5.7943 -9.65403e-15)
(3.01183 3.27636 4.03811e-15)
(4.69403 1.13598 -3.59315e-15)
(6.53966 -0.559275 4.37005e-15)
(8.41879 -1.75564 -1.23666e-15)
(10.2121 -2.54116 0)
(11.8662 -3.03155 -8.98107e-16)
(13.3711 -3.31993 4.65332e-17)
(14.7361 -3.46336 -2.15563e-15)
(15.9728 -3.50956 0)
(17.1007 -3.48841 0)
(18.1423 -3.42184 -2.64015e-16)
(19.1196 -3.31116 2.52407e-16)
(20.0481 -3.15708 -3.36243e-15)
(20.9402 -2.94544 -4.05955e-16)
(21.7981 -2.65824 1.89664e-16)
(22.6003 -2.26059 2.68581e-15)
(23.2947 -1.7649 -2.50737e-15)
(23.8572 -1.23592 -2.20678e-15)
(24.3028 -0.701886 0)
(24.6435 -0.174115 0)
(24.8835 0.340816 0)
(25.023 0.834455 8.33455e-18)
(25.0801 1.29898 0)
(25.0723 1.72897 0)
(24.9929 2.12355 1.3015e-14)
(24.8332 2.48203 1.26686e-14)
(24.582 2.80625 -1.24581e-14)
(24.2472 3.10186 1.23953e-14)
(23.7289 3.36774 -2.46903e-14)
(23.2226 3.60123 -2.50569e-14)
(21.246 3.66242 -2.6425e-14)
(8.19812 25.386 -4.6115e-18)
(9.754 26.8979 -4.82927e-17)
(11.6181 28.3443 3.5461e-17)
(13.7342 29.6512 7.02341e-18)
(16.0373 30.6961 -8.59053e-17)
(18.5274 31.4539 3.49173e-16)
(21.1236 31.8885 -2.58911e-16)
(23.7452 31.966 -3.2753e-16)
(26.3353 31.6884 1.88697e-19)
(28.8359 31.073 -4.88065e-16)
(31.1956 30.1416 4.21583e-16)
(33.3852 28.922 -1.23214e-15)
(35.3824 27.4522 -5.67538e-16)
(37.1713 25.7707 0)
(38.7639 23.9045 -1.42751e-15)
(40.1653 21.8844 2.8434e-15)
(41.3657 19.7397 0)
(42.3408 17.5158 -5.26228e-15)
(43.0787 15.2421 -2.62598e-15)
(43.5491 12.9699 2.96934e-16)
(43.7378 10.7359 -2.94629e-16)
(43.622 8.60678 -1.27349e-16)
(43.2031 6.63103 -1.76655e-15)
(42.4901 4.86968 8.56283e-16)
(41.5403 3.36807 0)
(40.4379 2.07038 6.78219e-16)
(39.2096 0.907397 -7.62541e-17)
(37.8552 -0.121688 0)
(36.3969 -1.0147 8.37262e-16)
(34.8647 -1.77716 1.36987e-15)
(33.2797 -2.41318 -1.95534e-15)
(31.6539 -2.92779 -1.20633e-15)
(29.9871 -3.32675 -4.55374e-17)
(28.2717 -3.61494 6.1382e-16)
(26.4673 -3.7939 2.14732e-15)
(24.5526 -3.86198 -7.32688e-15)
(22.2656 -3.78187 0)
(19.8477 -3.5145 1.38463e-14)
(14.6688 -2.79601 -7.19671e-14)
(6.89973 23.7729 -2.88589e-17)
(5.73672 21.9862 -8.57929e-17)
(4.71855 19.8587 3.33752e-16)
(3.85082 17.4513 0)
(3.29322 14.8425 5.64289e-16)
(3.10004 12.0916 0)
(3.31595 9.31552 3.63713e-15)
(3.93789 6.70029 2.41301e-15)
(4.91126 4.37238 2.7496e-15)
(6.16836 2.34808 0)
(7.62374 0.684233 -4.279e-15)
(9.15963 -0.598578 -9.43356e-16)
(10.6831 -1.54928 4.28947e-15)
(12.1386 -2.23312 0)
(13.5023 -2.7062 -2.12583e-15)
(14.7693 -3.01426 -6.55529e-16)
(15.9419 -3.19772 2.91298e-15)
(17.0296 -3.28643 1.59494e-15)
(18.0475 -3.30218 4.78691e-16)
(19.0115 -3.2534 -2.41767e-16)
(19.9338 -3.14484 3.06655e-15)
(20.8233 -2.97017 0)
(21.6807 -2.71759 0)
(22.4877 -2.36672 2.17024e-17)
(23.2022 -1.93043 0)
(23.8012 -1.45534 4.40538e-15)
(24.2944 -0.960704 -6.52946e-17)
(24.6926 -0.45474 -4.8507e-16)
(24.9994 0.0544544 0)
(25.2166 0.556615 -8.8592e-16)
(25.3479 1.04276 1.73517e-15)
(25.3995 1.50719 0)
(25.3743 1.94485 -6.53333e-15)
(25.274 2.35047 0)
(25.0879 2.722 0)
(24.817 3.06012 3.89918e-17)
(24.3525 3.36486 3.46841e-17)
(23.8204 3.59709 2.50807e-14)
(22.0559 3.66766 5.12458e-14)
(10.8921 23.2429 -2.54869e-17)
(12.3358 24.5335 -3.53672e-17)
(14.0415 25.7685 4.70205e-17)
(15.9794 26.8732 4.29369e-17)
(18.0915 27.7567 0)
(20.3833 28.3986 0)
(22.7921 28.7582 -3.59804e-16)
(25.2509 28.8045 5.21089e-16)
(27.7101 28.5334 0)
(30.1119 27.9524 -6.94039e-16)
(32.4038 27.0798 -9.85607e-16)
(34.5465 25.9446 -8.97305e-16)
(36.5057 24.5845 1.14196e-15)
(38.2595 23.0342 1.04369e-15)
(39.7897 21.3281 0)
(41.0697 19.5075 1.65234e-15)
(42.0808 17.609 5.78924e-16)
(42.8243 15.6595 4.65334e-15)
(43.3026 13.6847 2.77482e-16)
(43.5237 11.7145 -2.75648e-16)
(43.4972 9.78108 2.25643e-15)
(43.2384 7.92963 -3.65934e-16)
(42.7737 6.20093 1.94473e-15)
(42.1361 4.63949 7.57297e-16)
(41.3769 3.27698 -4.27471e-17)
(40.5501 2.07519 -6.11718e-16)
(39.6558 0.978552 4.07058e-18)
(38.6593 -0.0171951 -4.08338e-18)
(37.5419 -0.9079 -7.97541e-16)
(36.2995 -1.69342 -1.66302e-17)
(34.9339 -2.36958 9.36766e-16)
(33.4526 -2.93221 -1.08607e-15)
(31.8635 -3.37916 -3.91669e-16)
(30.1727 -3.70954 5.10819e-17)
(28.3558 -3.92165 -1.9409e-15)
(26.4006 -4.00903 0)
(24.07 -3.93918 -9.31055e-15)
(21.5661 -3.6264 -1.20194e-14)
(16.6523 -2.95465 2.97595e-14)
(9.65424 21.8781 -4.23714e-17)
(8.52104 20.38 1.34472e-16)
(7.48934 18.5975 5.11838e-16)
(6.58431 16.562 0)
(5.94345 14.3438 -5.11082e-16)
(5.60889 11.9822 0)
(5.61833 9.56835 -3.07144e-15)
(5.97566 7.25879 -1.03411e-16)
(6.63981 5.14623 2.05909e-15)
(7.56831 3.25549 1.85944e-15)
(8.6976 1.64639 4.43526e-17)
(9.94057 0.346653 3.16846e-15)
(11.2269 -0.664583 -2.16287e-15)
(12.5036 -1.42669 6.83127e-16)
(13.738 -1.9803 2.4652e-15)
(14.9144 -2.3654 2.83443e-15)
(16.026 -2.61711 -2.63722e-15)
(17.0731 -2.76443 2.39719e-18)
(18.0632 -2.82932 0)
(19.0064 -2.82349 3.2759e-15)
(19.9114 -2.75221 1.82899e-16)
(20.784 -2.61197 -2.93332e-15)
(21.6239 -2.39357 0)
(22.4152 -2.08166 2.02348e-17)
(23.123 -1.68354 0)
(23.7243 -1.23664 -2.00221e-15)
(24.2246 -0.763587 0)
(24.6332 -0.276449 4.54519e-16)
(24.954 0.214455 -2.01246e-17)
(25.1895 0.698413 1.31808e-17)
(25.3439 1.16654 -1.56338e-15)
(25.4224 1.61137 -4.99382e-17)
(25.4288 2.02777 0)
(25.3657 2.41287 6.02765e-15)
(25.2245 2.76684 9.42749e-17)
(25.0061 3.09006 -1.19982e-14)
(24.6082 3.38451 4.84644e-14)
(24.1256 3.58493 9.19171e-17)
(22.5409 3.64394 0)
(12.3962 21.6109 -3.74507e-17)
(13.6186 22.757 -2.89237e-17)
(15.0724 23.8785 9.34684e-17)
(16.7166 24.9122 -2.3135e-16)
(18.5018 25.7737 3.82969e-17)
(20.4502 26.4553 -1.19769e-17)
(22.5098 26.919 1.38877e-16)
(24.6284 27.1304 0)
(26.7742 27.0802 6.92407e-16)
(28.8983 26.7643 3.98202e-16)
(30.9588 26.1861 0)
(32.9214 25.3584 8.65577e-16)
(34.7532 24.301 -4.59868e-16)
(36.4287 23.0343 1.23103e-15)
(37.9265 21.5803 0)
(39.2284 19.9612 -2.19905e-15)
(40.329 18.191 2.00644e-15)
(41.2112 16.3032 -1.74573e-16)
(41.8597 14.3345 0)
(42.2603 12.3308 2.1403e-15)
(42.4058 10.3386 -2.16948e-15)
(42.2984 8.41542 -1.05966e-16)
(41.9592 6.61351 -1.57366e-15)
(41.4262 4.9832 -1.41856e-15)
(40.7602 3.55862 0)
(40.0277 2.31054 0)
(39.252 1.18533 -1.28326e-16)
(38.4189 0.168823 -1.27558e-17)
(37.515 -0.741032 7.35358e-16)
(36.5297 -1.54878 -1.55306e-17)
(35.4459 -2.25427 1.54874e-17)
(34.2447 -2.85422 1.01397e-15)
(32.9079 -3.34438 0)
(31.4228 -3.71966 -1.25834e-15)
(29.7583 -3.97353 9.552e-18)
(27.9035 -4.09255 0)
(25.6443 -4.0454 -2.76278e-17)
(23.1534 -3.70749 0)
(18.4522 -3.05439 -2.58108e-14)
(11.3442 20.4056 5.71334e-17)
(10.3804 19.0962 -2.94832e-16)
(9.4822 17.5383 3.16909e-16)
(8.66466 15.7638 4.3566e-16)
(8.05042 13.8379 -1.76868e-15)
(7.671 11.7784 -2.1726e-15)
(7.56383 9.65597 2.63007e-15)
(7.74383 7.60084 -3.19239e-15)
(8.18895 5.68676 -1.59767e-15)
(8.87378 3.94213 -1.453e-15)
(9.74926 2.42052 2.78645e-15)
(10.7518 1.14857 -2.69318e-15)
(11.8281 0.116723 -1.23665e-15)
(12.9322 -0.698748 1.1979e-15)
(14.0307 -1.32326 -2.75304e-15)
(15.1035 -1.78686 5.13323e-16)
(16.1387 -2.11633 0)
(17.1306 -2.33529 -2.20186e-15)
(18.0806 -2.46259 8.18276e-16)
(18.9936 -2.5103 -3.39893e-15)
(19.8747 -2.48412 0)
(20.7268 -2.38291 2.54266e-15)
(21.548 -2.20042 2.2057e-15)
(22.3239 -1.92689 -2.01489e-15)
(23.0244 -1.56835 0)
(23.6273 -1.15593 -1.89191e-15)
(24.1334 -0.712932 0)
(24.5501 -0.251534 0)
(24.8807 0.218352 0)
(25.1273 0.686263 7.8054e-16)
(25.2937 1.14287 0)
(25.3849 1.58073 0)
(25.4047 1.99499 -5.8262e-15)
(25.3562 2.38125 -5.70464e-15)
(25.2321 2.73789 0)
(25.0346 3.06274 -1.13792e-14)
(24.6697 3.35702 6.3293e-17)
(24.2285 3.54165 0)
(22.8275 3.58956 -2.28141e-14)
(13.9036 20.176 5.43842e-17)
(15.0132 21.1918 -4.01507e-17)
(16.3279 22.1923 0)
(17.8097 23.1182 6.24623e-18)
(19.4112 23.8956 1.47396e-16)
(21.1643 24.5224 1.13359e-17)
(23.0235 24.9616 4.87254e-17)
(24.9463 25.1826 -2.60555e-16)
(26.9103 25.1731 -1.06527e-16)
(28.8747 24.9245 6.50193e-16)
(30.8024 24.4351 -2.46817e-16)
(32.6629 23.7104 5.91173e-16)
(34.4224 22.7632 2.94769e-16)
(36.0524 21.6099 1.54296e-16)
(37.5281 20.2704 0)
(38.8267 18.7684 -4.57566e-16)
(39.922 17.1391 -1.03026e-15)
(40.7932 15.4174 -3.68318e-15)
(41.4272 13.6336 1.05998e-15)
(41.8174 11.8187 -1.38363e-15)
(41.9614 10.0079 -2.12147e-16)
(41.8649 8.24338 0)
(41.5462 6.56904 1.41455e-15)
(41.0384 5.02802 8.77708e-17)
(40.3943 3.65299 -3.5924e-17)
(39.6727 2.43006 -4.81418e-16)
(38.9029 1.32019 1.05716e-16)
(38.0842 0.311946 2.01298e-16)
(37.2163 -0.594307 -6.89601e-16)
(36.3017 -1.40213 -2.86445e-17)
(35.336 -2.11337 7.91713e-16)
(34.3054 -2.727 8.62403e-16)
(33.1862 -3.24036 0)
(31.9483 -3.64801 -6.83437e-17)
(30.5365 -3.94061 1.90792e-15)
(28.9166 -4.0978 0)
(26.8685 -4.08535 1.65415e-14)
(24.5396 -3.74513 0)
(20.1053 -3.11861 2.33162e-14)
(12.9395 19.1124 -5.54303e-17)
(12.0529 17.9646 1.32213e-16)
(11.2127 16.5965 0)
(10.4349 15.0346 0)
(9.8284 13.3406 7.87823e-16)
(9.41472 11.5222 3.76326e-15)
(9.22839 9.63731 0)
(9.28459 7.79544 -2.56355e-15)
(9.5724 6.05922 -2.5152e-15)
(10.0751 4.45708 2.48346e-15)
(10.7526 3.03225 -6.08702e-17)
(11.5586 1.81017 1.1307e-15)
(12.4536 0.787535 2.58266e-17)
(13.4005 -0.0491212 3.1331e-15)
(14.3685 -0.714243 2.93868e-15)
(15.3372 -1.22884 -2.81682e-15)
(16.2919 -1.61275 4.27713e-16)
(17.2234 -1.88478 -8.1444e-16)
(18.1279 -2.06079 3.86821e-16)
(19.006 -2.15208 2.45992e-15)
(19.8592 -2.16472 3.31739e-16)
(20.6876 -2.09927 -2.90554e-16)
(21.4877 -1.95152 -1.90656e-15)
(22.2461 -1.71521 0)
(22.9365 -1.39544 1.15826e-16)
(23.5374 -1.0175 3.44405e-15)
(24.0464 -0.603789 -2.57201e-17)
(24.4684 -0.166936 2.54653e-17)
(24.8059 0.282614 0)
(25.0606 0.733753 -7.32063e-16)
(25.2357 1.17652 0)
(25.3359 1.60292 0)
(25.3646 2.00699 5.38571e-15)
(25.3248 2.38387 5.47595e-15)
(25.2095 2.73172 0)
(25.021 3.04689 1.05955e-14)
(24.6714 3.3303 -4.28572e-14)
(24.2469 3.49141 1.606e-16)
(22.9907 3.51589 2.09035e-14)
(15.1047 18.9597 6.70359e-18)
(16.1025 19.8725 -3.91465e-17)
(17.2851 20.7796 9.5262e-17)
(18.6128 21.6259 -9.3101e-17)
(20.0394 22.3454 -8.7017e-17)
(21.6028 22.9416 0)
(23.2619 23.3822 -3.60496e-18)
(24.9807 23.6386 1.93936e-17)
(26.7457 23.6994 -1.89288e-16)
(28.5219 23.5544 -3.82503e-16)
(30.2798 23.1976 0)
(31.9943 22.629 -1.03986e-15)
(33.6343 21.8548 -9.5994e-16)
(35.1729 20.8841 -2.35972e-15)
(36.5854 19.7307 0)
(37.8463 18.4127 -1.47456e-15)
(38.9345 16.9495 -1.55168e-15)
(39.8333 15.3602 1.71134e-15)
(40.525 13.6739 -1.67929e-15)
(40.9949 11.9276 1.50538e-15)
(41.2338 10.1625 1.83261e-16)
(41.2394 8.42723 -1.55087e-15)
(41.0229 6.76995 0)
(40.6103 5.23504 -1.25182e-15)
(40.0453 3.85421 7.28154e-17)
(39.3794 2.61984 5.0543e-16)
(38.6435 1.50019 0)
(37.8439 0.483352 -1.80157e-17)
(36.9854 -0.430583 2.80069e-17)
(36.0776 -1.24478 9.29892e-16)
(35.1269 -1.96161 -7.07011e-16)
(34.1343 -2.58142 -8.32787e-16)
(33.0925 -3.1038 2.09093e-16)
(31.9859 -3.52616 -5.98888e-17)
(30.7658 -3.84145 -1.84336e-15)
(29.393 -4.02844 -6.02771e-15)
(27.6354 -4.05176 -8.1144e-15)
(25.6144 -3.72603 1.48376e-16)
(21.5727 -3.1446 -7.61933e-17)
(14.2324 18.0066 2.52503e-17)
(13.4273 16.9847 2.58916e-16)
(12.652 15.7652 3.06202e-16)
(11.921 14.3722 -6.03725e-16)
(11.3333 12.8643 -2.21e-15)
(10.9044 11.2421 7.67529e-16)
(10.667 9.55301 1.96125e-15)
(10.6376 7.89112 5.41296e-15)
(10.8112 6.31243 2.15218e-15)
(11.176 4.84303 -2.04799e-15)
(11.6994 3.51722 -4.83239e-17)
(12.3466 2.35802 -1.01195e-15)
(13.0882 1.36434 0)
(13.8951 0.528608 -3.05925e-17)
(14.741 -0.156681 -1.79314e-15)
(15.6073 -0.705745 8.32466e-16)
(16.479 -1.13238 -8.14585e-16)
(17.3447 -1.45012 0)
(18.1977 -1.67111 1.40093e-15)
(19.0352 -1.80485 -2.61084e-15)
(19.8555 -1.85662 0)
(20.6564 -1.82765 2.24136e-15)
(21.4329 -1.71539 0)
(22.1721 -1.51612 -1.17206e-16)
(22.8506 -1.2345 1.15766e-16)
(23.4476 -0.891325 -1.63205e-15)
(23.9579 -0.507504 -2.67055e-17)
(24.3843 -0.0961959 -2.42621e-17)
(24.7282 0.331743 1.11934e-17)
(24.9906 0.764979 -7.14557e-16)
(25.1743 1.19319 -1.36773e-15)
(25.2833 1.60795 2.59908e-15)
(25.3204 2.00296 8.20845e-17)
(25.2886 2.37275 2.54981e-17)
(25.1808 2.71454 0)
(24.999 3.0226 1.58328e-16)
(24.6606 3.29668 1.96523e-14)
(24.2458 3.43693 -9.37573e-18)
(23.0992 3.43538 1.94696e-14)
(16.1659 17.8892 1.06404e-17)
(17.0806 18.7131 7.06785e-17)
(18.1634 19.5358 0)
(19.3749 20.3054 -2.83695e-17)
(20.6694 20.9626 -1.38041e-16)
(22.0881 21.515 0)
(23.5935 21.9324 4.34292e-17)
(25.1544 22.1894 2.07538e-16)
(26.7628 22.2758 -4.30287e-16)
(28.3901 22.1801 1.24298e-16)
(30.0113 21.8946 2.84e-16)
(31.6062 21.416 1.20151e-15)
(33.1476 20.7455 8.95734e-16)
(34.61 19.8877 1.19296e-15)
(35.969 18.8514 3.18041e-16)
(37.199 17.6503 1.0971e-15)
(38.2768 16.3019 1.50271e-15)
(39.1785 14.8331 1.37361e-15)
(39.8837 13.2739 -1.00893e-15)
(40.3782 11.6548 -3.138e-15)
(40.6533 10.0107 0)
(40.7079 8.38182 8.72077e-17)
(40.5515 6.81044 1.14788e-15)
(40.2066 5.33673 1.18939e-15)
(39.7088 3.99087 -6.57064e-17)
(39.1007 2.77301 -4.38636e-16)
(38.4107 1.6614 2.87065e-18)
(37.6469 0.646986 -1.95543e-16)
(36.8142 -0.268622 1.95094e-17)
(35.9217 -1.08649 -1.72855e-15)
(34.9773 -1.80787 -8.12052e-18)
(33.9868 -2.43241 -1.56033e-17)
(32.9518 -2.95935 -2.06485e-16)
(31.8719 -3.38677 -5.99338e-17)
(30.7204 -3.70984 1.85307e-15)
(29.4854 -3.90955 1.17076e-14)
(27.963 -3.95587 -7.85674e-15)
(26.2986 -3.64763 -9.16846e-15)
(22.7813 -3.12492 2.03121e-14)
(15.3612 17.0309 -1.05582e-16)
(14.6172 16.1145 -3.61433e-16)
(13.8918 15.0193 -2.52425e-16)
(13.1992 13.7663 -5.90684e-16)
(12.6299 12.412 1.29512e-15)
(12.1945 10.9526 -4.3279e-17)
(11.9232 9.42721 -5.12334e-15)
(11.8334 7.91868 -1.86173e-15)
(11.9234 6.47908 6.74545e-18)
(12.183 5.13038 0)
(12.5861 3.90043 -1.77501e-15)
(13.1052 2.80957 1.71869e-15)
(13.7183 1.85695 -1.69034e-15)
(14.4028 1.03791 -8.58437e-16)
(15.1373 0.349205 7.82871e-16)
(15.9062 -0.218617 7.74234e-16)
(16.6953 -0.674226 2.92937e-15)
(17.4929 -1.02657 -7.06998e-16)
(18.2908 -1.28429 -1.30542e-15)
(19.0836 -1.4547 0)
(19.8674 -1.54198 -2.26873e-15)
(20.6377 -1.54747 -1.84641e-15)
(21.3884 -1.46949 -1.25114e-17)
(22.1067 -1.30611 -2.34212e-16)
(22.7712 -1.06165 -1.04486e-16)
(23.362 -0.752977 1.72198e-15)
(23.8716 -0.399389 -4.67698e-17)
(24.3006 -0.0142738 4.11152e-16)
(24.6496 0.391261 9.80582e-17)
(24.919 0.805769 6.57994e-16)
(25.1105 1.2186 -9.70173e-18)
(25.2277 1.62084 -5.20285e-15)
(25.2731 2.00562 -4.88251e-15)
(25.2491 2.36675 -4.87532e-15)
(25.1489 2.70068 -1.50276e-16)
(24.9739 2.99993 7.34625e-17)
(24.6465 3.2629 -1.89062e-14)
(24.2426 3.38292 -1.8415e-14)
(23.1889 3.35579 -1.78899e-14)
(17.0809 16.9434 -3.81923e-17)
(17.9236 17.6916 -3.07137e-17)
(18.9201 18.4419 -1.88701e-16)
(20.0313 19.1457 6.67462e-16)
(21.2121 19.7486 -2.6951e-16)
(22.5049 20.2616 1.70322e-16)
(23.8753 20.6573 -1.41075e-16)
(25.2951 20.913 0)
(26.7611 21.0203 1.19477e-16)
(28.2484 20.9683 6.97477e-18)
(29.7367 20.7482 -2.08485e-16)
(31.2105 20.3553 -1.07018e-15)
(32.646 19.7879 -5.00215e-16)
(34.0205 19.0467 0)
(35.3113 18.1369 0)
(36.4937 17.0677 0)
(37.5435 15.8539 0)
(38.4392 14.5127 -1.33818e-15)
(39.1603 13.0669 1.32495e-15)
(39.6896 11.5455 1.29346e-15)
(40.0152 9.98347 -1.00117e-15)
(40.1321 8.42167 8.94813e-16)
(40.0457 6.90269 -8.98886e-16)
(39.7741 5.46646 -6.39366e-17)
(39.3469 4.14232 -2.6819e-17)
(38.8007 2.93436 4.44301e-16)
(38.1625 1.82737 8.75124e-17)
(37.4431 0.81411 0)
(36.6482 -0.103471 0)
(35.786 -0.925121 3.86446e-17)
(34.8634 -1.65134 0)
(33.8855 -2.28101 6.09802e-16)
(32.8548 -2.81267 -1.15532e-16)
(31.7748 -3.24368 7.10535e-16)
(30.6293 -3.56918 -3.52572e-15)
(29.4294 -3.77021 -5.64828e-15)
(28.0153 -3.82324 7.55713e-15)
(26.6167 -3.52029 1.79315e-14)
(23.6738 -3.05372 -1.95847e-14)
(16.3358 16.1649 0)
(15.6453 15.3367 1.0779e-16)
(14.9647 14.3455 4.72022e-16)
(14.3076 13.2101 -2.0538e-15)
(13.7582 11.9844 1.73034e-15)
(13.3229 10.6623 -1.35552e-15)
(13.0298 9.27545 -1.06818e-18)
(12.8971 7.89874 1.47825e-15)
(12.9253 6.58195 1.53122e-15)
(13.1044 5.34229 0)
(13.413 4.20275 7.62032e-16)
(13.829 3.18141 -2.32283e-15)
(14.3351 2.27673 3.79795e-15)
(14.914 1.48519 7.28276e-16)
(15.5488 0.805486 -1.47124e-15)
(16.2268 0.231587 -1.41788e-15)
(16.9358 -0.241579 -1.35593e-15)
(17.6648 -0.61927 0)
(18.4053 -0.906856 0)
(19.1504 -1.10918 0)
(19.8943 -1.22904 2.12862e-15)
(20.6313 -1.26729 0)
(21.3539 -1.22265 -1.62381e-15)
(22.0494 -1.09424 -2.21958e-16)
(22.698 -0.885907 -1.63392e-15)
(23.2804 -0.611457 -1.53318e-15)
(23.7874 -0.288345 0)
(24.2177 0.0700683 -3.46741e-16)
(24.5707 0.452565 -1.0374e-16)
(24.8461 0.847623 2.04959e-17)
(25.0451 1.24434 2.51198e-15)
(25.1702 1.63338 -1.66716e-17)
(25.2237 2.00739 4.75978e-15)
(25.2075 2.35957 -4.64192e-15)
(25.1149 2.68549 0)
(24.947 2.9759 -1.43474e-16)
(24.6313 3.22766 8.96742e-17)
(24.2402 3.32929 1.75089e-14)
(23.2724 3.2785 -1.25803e-16)
(17.8867 16.0962 3.97398e-17)
(18.669 16.7785 0)
(19.5933 17.4645 3.83853e-16)
(20.6206 18.1088 -3.42351e-16)
(21.7065 18.6612 1.1988e-16)
(22.8942 19.1347 -1.60291e-16)
(24.151 19.5043 8.44926e-17)
(25.4514 19.7503 4.38105e-17)
(26.7953 19.8654 0)
(28.161 19.8394 -1.47635e-16)
(29.5323 19.6638 -1.73144e-16)
(30.8971 19.3329 1.70065e-16)
(32.2349 18.843 8.54588e-16)
(33.5265 18.1921 3.98362e-16)
(34.751 17.382 -1.20162e-15)
(35.8847 16.4189 -9.00137e-16)
(36.9046 15.3132 7.20679e-16)
(37.7884 14.0801 5.53723e-16)
(38.5138 12.7422 -2.73472e-16)
(39.0622 11.326 2.7336e-16)
(39.4207 9.86262 7.1077e-16)
(39.583 8.38814 1.28308e-16)
(39.5521 6.94125 -1.15528e-16)
(39.3421 5.55927 -7.43784e-16)
(38.9775 4.27038 0)
(38.4885 3.08213 -3.58191e-16)
(37.9001 1.98616 -1.62382e-16)
(37.2249 0.978375 -1.35803e-16)
(36.4697 0.0617967 -4.47678e-16)
(35.6425 -0.761793 1.44454e-15)
(34.75 -1.4918 4.51489e-16)
(33.7965 -2.12638 -3.73173e-17)
(32.7831 -2.6631 3.87743e-17)
(31.7122 -3.09822 0)
(30.5685 -3.42606 1.7049e-15)
(29.3691 -3.62569 0)
(27.9791 -3.67783 0)
(26.6948 -3.36633 -8.70393e-15)
(24.2562 -2.93643 1.30907e-16)
(17.1917 15.3868 -1.29393e-16)
(16.5466 14.6343 3.93314e-16)
(15.9048 13.7321 7.75777e-18)
(15.2798 12.6972 4.64963e-16)
(14.7499 11.5811 -1.60655e-15)
(14.3189 10.3762 1.22064e-15)
(14.0122 9.108 4.84793e-17)
(13.8492 7.84604 -1.26309e-15)
(13.8313 6.63765 -1.25719e-15)
(13.9483 5.49588 -1.30727e-15)
(14.1825 4.44037 -2.65275e-15)
(14.5152 3.48713 0)
(14.9328 2.63347 -1.37722e-15)
(15.4214 1.87603 -2.7439e-17)
(15.9679 1.21454 0)
(16.5627 0.644686 -1.2782e-15)
(17.1957 0.164009 -6.21934e-16)
(17.8574 -0.230113 -6.02862e-16)
(18.5395 -0.540373 2.24482e-15)
(19.2349 -0.769218 2.1213e-15)
(19.9366 -0.917777 -2.44498e-16)
(20.6377 -0.986213 1.87866e-15)
(21.3301 -0.973237 4.33288e-16)
(22.0012 -0.878304 -2.1037e-16)
(22.6321 -0.704818 1.45132e-15)
(23.2039 -0.464065 9.42309e-17)
(23.7064 -0.171489 0)
(24.1364 0.159859 0)
(24.4923 0.51872 -1.97772e-17)
(24.7729 0.893614 5.81066e-17)
(24.9785 1.27346 -2.45874e-15)
(25.1112 1.64856 -1.61796e-17)
(25.1725 2.01105 4.78338e-15)
(25.1642 2.35354 4.45836e-15)
(25.0793 2.67073 1.39486e-16)
(24.919 2.95171 2.81554e-18)
(24.6157 3.19175 3.41521e-14)
(24.2385 3.27632 -1.66391e-14)
(23.353 3.20427 1.18188e-16)
(18.5982 15.3317 1.76498e-17)
(19.3281 15.9562 0)
(20.1897 16.5853 -1.88143e-16)
(21.1442 17.1765 0)
(22.1482 17.6834 2.20364e-16)
(23.2447 18.12 -2.14133e-16)
(24.4027 18.464 -1.30255e-16)
(25.5987 18.6978 -4.14125e-17)
(26.8344 18.8154 0)
(28.091 18.8078 -5.5055e-18)
(29.3552 18.6672 2.06214e-16)
(30.6182 18.3875 -4.28528e-16)
(31.8625 17.9638 -2.74206e-16)
(33.0715 17.3929 -2.7478e-16)
(34.2269 16.6742 7.65656e-16)
(35.307 15.8107 8.62114e-16)
(36.2897 14.8099 -9.48879e-16)
(37.1533 13.6841 -9.14088e-16)
(37.8763 12.4504 0)
(38.439 11.1319 2.42186e-16)
(38.8271 9.75714 -4.68179e-16)
(39.032 8.36012 1.16917e-16)
(39.0536 6.97787 5.09839e-18)
(38.9024 5.64615 1.74164e-15)
(38.5978 4.39203 -9.15478e-17)
(38.1647 3.22505 6.34964e-17)
(37.6256 2.14198 1.4664e-16)
(36.9943 1.14152 1.43668e-16)
(36.2787 0.22764 3.88245e-16)
(35.4869 -0.596463 -6.52806e-16)
(34.6261 -1.32914 -4.19596e-16)
(33.7009 -1.96786 -9.72577e-16)
(32.7121 -2.5094 9.60135e-17)
(31.6608 -2.94894 4.96612e-18)
(30.5307 -3.27986 -1.72679e-15)
(29.3369 -3.47863 1.27666e-16)
(27.9542 -3.52943 -9.16533e-17)
(26.6785 -3.20469 1.39973e-16)
(24.6014 -2.78539 -1.77912e-14)
(17.9472 14.6825 7.48563e-17)
(17.342 13.9952 -1.92512e-16)
(16.735 13.1701 3.73382e-16)
(16.1393 12.2221 0)
(15.6286 11.2009 9.68501e-16)
(15.2044 10.097 0)
(14.8905 8.93192 0)
(14.7062 7.77072 0)
(14.6534 6.65827 2.3019e-15)
(14.7225 5.60436 -1.15857e-15)
(14.8978 4.62621 1.24994e-15)
(15.1633 3.73815 0)
(15.5075 2.93629 0)
(15.9194 2.21683 -1.23466e-15)
(16.3887 1.57981 0)
(16.9082 1.02185 1.18826e-15)
(17.4704 0.541701 1.5085e-17)
(18.0672 0.13882 0)
(18.6914 -0.187331 -1.58766e-15)
(19.336 -0.437294 -2.49693e-15)
(19.9937 -0.610686 -1.86954e-15)
(20.657 -0.706625 -1.76001e-15)
(21.3175 -0.723357 3.30025e-15)
(21.9625 -0.660318 0)
(22.5738 -0.520328 1.38899e-15)
(23.1331 -0.312434 1.49741e-15)
(23.6292 -0.0502022 6.71689e-16)
(24.0574 0.253878 0)
(24.4148 0.588651 -7.74745e-17)
(24.6996 0.942744 -6.00433e-16)
(24.9113 1.30502 2.33393e-15)
(25.0511 1.66549 -1.56587e-17)
(25.1201 2.01579 -4.38985e-15)
(25.1195 2.34802 4.13095e-15)
(25.0426 2.65594 -1.28809e-18)
(24.8902 2.92716 1.29774e-16)
(24.6 3.15516 -3.27243e-14)
(24.2379 3.22429 1.56089e-14)
(23.4313 3.13367 2.93705e-14)
(19.2315 14.6364 1.36338e-17)
(19.9155 15.2098 -5.90398e-17)
(20.7221 15.7882 0)
(21.6132 16.3313 -3.11236e-16)
(22.5462 16.7965 0)
(23.5636 17.1984 0)
(24.6355 17.5169 1.7046e-17)
(25.7403 17.7361 -6.94238e-17)
(26.8809 17.8514 -6.78984e-17)
(28.0407 17.8549 1.36633e-16)
(29.2087 17.7396 1.42705e-16)
(30.3788 17.4994 2.46088e-16)
(31.536 17.1293 0)
(32.6666 16.6246 7.08694e-16)
(33.7544 15.983 -2.66737e-16)
(34.78 15.2056 0)
(35.7229 14.2971 7.06407e-16)
(36.562 13.2668 8.77236e-16)
(37.2765 12.129 0)
(37.8462 10.9046 8.09653e-16)
(38.2553 9.61891 -7.93665e-16)
(38.4943 8.30253 0)
(38.5607 6.98938 -9.24144e-17)
(38.4616 5.71292 -4.20538e-18)
(38.2122 4.49892 4.27512e-17)
(37.8323 3.35837 5.97118e-16)
(37.3417 2.29215 -4.05906e-18)
(36.754 1.30202 -1.29325e-17)
(36.0778 0.393271 -7.71784e-18)
(35.3215 -0.429601 2.06877e-17)
(34.4926 -1.16363 3.75694e-16)
(33.5961 -1.80547 8.00713e-16)
(32.6334 -2.35113 -3.13746e-17)
(31.6057 -2.79479 8.20834e-16)
(30.4971 -3.12908 1.53975e-15)
(29.3197 -3.32791 5.00769e-15)
(27.9576 -3.37834 6.62244e-15)
(26.66 -3.04508 -2.36984e-16)
(24.8073 -2.61651 1.67981e-14)
(18.619 14.0404 -1.52182e-16)
(18.0492 13.4103 -5.15666e-16)
(17.4734 12.6526 9.91041e-16)
(16.9048 11.7806 0)
(16.4129 10.8423 1.70805e-15)
(15.9971 9.82659 0)
(15.6803 8.75188 -9.57419e-16)
(15.4813 7.6799 3.83693e-15)
(15.4024 6.65262 -2.95025e-15)
(15.4341 5.67783 0)
(15.5626 4.7706 2.14765e-15)
(15.7736 3.94385 2.15178e-15)
(16.0571 3.19282 0)
(16.404 2.51327 -2.1927e-15)
(16.8062 1.90491 5.45312e-16)
(17.2586 1.36446 -5.45228e-16)
(17.7555 0.891412 5.40104e-16)
(18.2909 0.486422 1.01614e-15)
(18.8586 0.150448 -1.48933e-17)
(19.4523 -0.115428 1.37668e-15)
(20.0651 -0.309418 4.3859e-16)
(20.6892 -0.42961 -4.22833e-16)
(21.3162 -0.473714 -1.55904e-15)
(21.9336 -0.440697 1.47623e-15)
(22.5237 -0.332571 -1.22898e-15)
(23.0685 -0.156559 -1.50669e-15)
(23.5564 0.0756742 -6.38348e-16)
(23.9811 0.3524 -9.44697e-18)
(24.3388 0.662701 8.33489e-17)
(24.6268 0.995444 5.73742e-16)
(24.8438 1.3395 8.23161e-18)
(24.9902 1.68465 -1.5102e-17)
(25.0667 2.02209 4.40801e-15)
(25.0738 2.34341 -4.24534e-15)
(25.005 2.64147 1.30017e-16)
(24.8608 2.90249 -8.20729e-15)
(24.5846 3.11825 1.57567e-14)
(24.2384 3.17337 0)
(23.5072 3.06647 -2.81502e-14)
(19.7977 14.0004 3.08177e-17)
(20.441 14.5282 0)
(21.1988 15.0609 0)
(22.0339 15.5606 5.64966e-16)
(22.9044 15.9878 -1.91867e-17)
(23.852 16.3575 0)
(24.8481 16.6513 0)
(25.8722 16.8551 3.6525e-16)
(26.9283 16.9654 -4.2803e-17)
(28.0015 16.9755 -5.01262e-17)
(29.0826 16.879 -2.8914e-16)
(30.1675 16.6703 -1.58484e-16)
(31.2435 16.3444 2.60493e-16)
(32.2992 15.8962 -7.55847e-17)
(33.321 15.3221 0)
(34.2913 14.6217 0)
(35.1917 13.7973 -1.85553e-15)
(36.0021 12.856 -3.60715e-16)
(36.7027 11.8088 3.59958e-16)
(37.2737 10.6734 -7.8527e-16)
(37.6982 9.47212 1.46339e-15)
(37.9656 8.23298 6.74848e-16)
(38.0713 6.98721 -6.44508e-16)
(38.0193 5.76623 -7.34592e-16)
(37.8211 4.59443 1.11244e-16)
(37.492 3.48333 -5.69475e-16)
(37.0488 2.43689 -6.11048e-17)
(36.5046 1.45965 1.15775e-17)
(35.8682 0.558175 -1.15762e-17)
(35.1479 -0.261664 2.67949e-17)
(34.3512 -0.995657 -4.08195e-17)
(33.4838 -1.63955 -3.76761e-16)
(32.5474 -2.18847 -3.13103e-17)
(31.5441 -2.6357 5.02959e-17)
(30.4593 -2.97309 0)
(29.3038 -3.17256 -4.68469e-15)
(27.9749 -3.2227 -6.15917e-15)
(26.6687 -2.88845 0)
(24.9533 -2.44153 0)
(19.2198 13.4515 0)
(18.6814 12.8721 4.77673e-16)
(18.1342 12.1739 -1.52374e-15)
(17.5908 11.3691 -6.9374e-16)
(17.117 10.5038 -1.58572e-15)
(16.7107 9.56578 0)
(16.3941 8.57104 0)
(16.1856 7.57854 -1.72245e-15)
(16.087 6.62743 1.78553e-15)
(16.0896 5.72389 0)
(16.1808 4.88142 -9.48231e-16)
(16.3475 4.11192 -1.0062e-15)
(16.5807 3.41002 9.93522e-16)
(16.8727 2.77071 1.02601e-15)
(17.217 2.19324 -1.9909e-15)
(17.6098 1.6743 0)
(18.0475 1.21344 -4.79855e-16)
(18.5253 0.811946 1.15171e-17)
(19.0387 0.47163 2.26131e-15)
(19.5824 0.194751 -4.39747e-16)
(20.15 -0.0156802 4.27858e-16)
(20.734 -0.156818 -3.82494e-16)
(21.3263 -0.225684 5.56559e-16)
(21.9147 -0.220625 -2.97297e-15)
(22.4821 -0.142657 -1.17303e-15)
(23.0107 0.00270731 1.19475e-15)
(23.4884 0.205526 -7.82948e-17)
(23.9081 0.455014 0)
(24.2648 0.74065 -7.1519e-17)
(24.5549 1.0516 5.22097e-16)
(24.7764 1.37684 -1.04649e-15)
(24.929 1.70601 2.13058e-15)
(25.0125 2.02993 -8.49393e-15)
(25.0273 2.33972 8.40178e-15)
(24.9668 2.62735 -1.24697e-16)
(24.8312 2.87782 7.76897e-15)