/*--------------------------------*- C++ -*----------------------------------*\
| =========                 |                                                 |
| \\      /  F ield         | OpenFOAM: The Open Source CFD Toolbox           |
|  \\    /   O peration     | Version:  2.3.1                                 |
|   \\  /    A nd           | Web:      www.OpenFOAM.org                      |
|    \\/     M anipulation  |                                                 |
\*---------------------------------------------------------------------------*/
FoamFile
{
    version     2.0;
    format      ascii;
    class       volScalarField;
    location    "0.78";
    object      epsilon;
}
// * * * * * * * * * * * * * * * * * * * * * * * * * * * * * * * * * * * * * //

dimensions      [0 2 -3 0 0 0 0];

internalField   nonuniform List<scalar> 
1000
(
0.000894174
0.000925787
0.000926663
0.000926635
0.000926619
0.000926613
0.000926605
0.000926601
0.000926504
0.000923873
0.000926988
0.000934914
0.000935521
0.000935539
0.000935538
0.000935534
0.00093552
0.000935488
0.000934871
0.000925368
0.00092973
0.000937678
0.0009384
0.000938443
0.00093845
0.000938441
0.000938418
0.000938366
0.000937638
0.000927097
0.000931938
0.000940654
0.00094149
0.000941579
0.000941606
0.0009416
0.00094156
0.000941478
0.00094066
0.00092942
0.000934113
0.000944163
0.000945139
0.000945275
0.000945318
0.00094531
0.000945278
0.000945155
0.000944248
0.000931698
0.000926223
0.000932979
0.000933634
0.000933725
0.000933753
0.000933766
0.000933768
0.000933754
0.000933243
0.000925318
0.000933889
0.000620139
0.00060321
0.00060247
0.000602421
0.000602398
0.00060238
0.000602875
0.00061903
0.000932516
0.000936021
0.000600252
0.000581668
0.000580911
0.000580892
0.000580888
0.000580892
0.000581483
0.000599369
0.00093462
0.000938096
0.000599535
0.000580786
0.000580029
0.000580013
0.000580011
0.000580019
0.000580626
0.000598762
0.00093671
0.000940383
0.000601645
0.000582766
0.000582093
0.000582121
0.000582123
0.000582094
0.000582626
0.000600945
0.000939031
0.000928658
0.000934734
0.000935386
0.000935471
0.000935505
0.000935523
0.000935529
0.000935513
0.000934946
0.000926534
0.000935343
0.000602854
0.000584497
0.000583721
0.000583685
0.000583669
0.00058366
0.000584225
0.000601856
0.000934076
0.000937217
0.000582077
0.000561765
0.000560913
0.000560892
0.000560891
0.000560899
0.000561569
0.000581113
0.000935987
0.000939029
0.000581449
0.000560953
0.000560099
0.000560081
0.000560081
0.000560089
0.000560768
0.000580537
0.000937784
0.000941221
0.000582618
0.000561974
0.000561155
0.000561158
0.000561158
0.000561149
0.000561797
0.000581745
0.000939984
0.000929652
0.000935679
0.000936305
0.000936375
0.000936406
0.000936422
0.000936429
0.00093641
0.000935839
0.000927392
0.00093615
0.000600914
0.000582526
0.00058177
0.000581743
0.000581733
0.000581732
0.000582312
0.000600095
0.000934868
0.000937809
0.000581045
0.000560702
0.000559849
0.000559828
0.000559827
0.000559838
0.000560514
0.00058014
0.00093659
0.000939399
0.00058051
0.000560006
0.000559152
0.000559134
0.000559134
0.000559142
0.000559821
0.00057962
0.00093816
0.000941414
0.00058111
0.000560494
0.000559649
0.000559638
0.000559638
0.00055964
0.000560311
0.000580236
0.000940164
0.00093019
0.000936195
0.0009368
0.000936859
0.000936884
0.000936897
0.000936902
0.00093688
0.000936307
0.000927837
0.000936618
0.000599601
0.000581193
0.000580443
0.000580418
0.000580412
0.000580418
0.00058101
0.000598874
0.000935291
0.000938147
0.000580766
0.000560467
0.000559619
0.000559597
0.000559597
0.000559609
0.000560284
0.000579904
0.000936906
0.000939614
0.000580309
0.000559887
0.00055904
0.000559022
0.000559022
0.00055903
0.000559704
0.000579446
0.000938359
0.0009415
0.000580681
0.000560207
0.000559363
0.000559347
0.000559347
0.000559352
0.000560023
0.000579824
0.00094023
0.000930272
0.00093646
0.000937072
0.000937128
0.000937151
0.000937162
0.000937164
0.000937137
0.000936549
0.000927873
0.000936728
0.000598813
0.000580396
0.000579654
0.000579635
0.000579636
0.000579649
0.000580248
0.000598163
0.000935374
0.000938267
0.000580669
0.000560406
0.000559563
0.000559543
0.000559543
0.000559555
0.00056023
0.000579843
0.000937008
0.000939762
0.000580282
0.000559922
0.000559082
0.000559065
0.000559066
0.000559074
0.000559743
0.000579448
0.000938492
0.00094167
0.000580617
0.000560252
0.000559418
0.000559404
0.000559404
0.000559408
0.00056007
0.000579781
0.000940385
0.000929933
0.000936569
0.000937211
0.000937269
0.00093729
0.000937297
0.000937295
0.00093726
0.00093664
0.000927505
0.000936501
0.000598799
0.000580396
0.000579656
0.000579638
0.000579638
0.000579651
0.000580249
0.000598163
0.000935119
0.0009382
0.000580816
0.000560583
0.000559745
0.000559726
0.000559727
0.000559738
0.000560408
0.000580002
0.000936914
0.000939901
0.000580514
0.000560189
0.000559357
0.000559343
0.000559343
0.000559349
0.00056001
0.000579685
0.000938604
0.000942031
0.000581036
0.000560729
0.000559914
0.000559906
0.000559906
0.000559903
0.000560545
0.0005802
0.000940715
0.000929158
0.000936205
0.000936876
0.000936937
0.000936956
0.000936963
0.000936956
0.000936913
0.000936264
0.000926712
0.000935893
0.000599787
0.000581502
0.000580773
0.000580756
0.000580757
0.000580768
0.000581359
0.000599171
0.000934485
0.000937856
0.000582199
0.00056213
0.000561312
0.000561298
0.0005613
0.000561306
0.00056196
0.000581407
0.000936542
0.000939889
0.000582281
0.000562165
0.000561364
0.000561359
0.000561361
0.000561357
0.00056199
0.000581476
0.000938558
0.000942435
0.00058376
0.000563789
0.00056305
0.000563069
0.000563071
0.00056304
0.00056361
0.000582956
0.000941083
0.000927894
0.000934716
0.000935343
0.0009354
0.00093542
0.000935423
0.000935413
0.00093537
0.000934757
0.000925424
0.000934428
0.000620314
0.000603788
0.000603172
0.000603173
0.000603179
0.000603179
0.000603684
0.000619878
0.000932922
0.000936664
0.000605805
0.000587874
0.000587217
0.000587234
0.00058724
0.000587224
0.000587751
0.000605232
0.000935236
0.000939076
0.000608592
0.000590883
0.000590308
0.000590356
0.000590364
0.000590314
0.000590759
0.00060802
0.000937617
0.00094223
0.00061592
0.00059897
0.000598627
0.000598754
0.00059876
0.000598632
0.000598851
0.000615389
0.000940739
0.000924002
0.000924251
0.000924285
0.000924298
0.000924302
0.000924306
0.000924301
0.00092429
0.000924186
0.000921385
0.000925741
0.000932171
0.000932801
0.000932861
0.000932878
0.000932881
0.000932866
0.00093282
0.000932214
0.000923197
0.00092787
0.000934891
0.000935643
0.000935741
0.000935773
0.000935779
0.000935747
0.000935663
0.000934942
0.000925326
0.00093071
0.000937862
0.000938706
0.000938854
0.000938908
0.000938912
0.000938856
0.000938713
0.000937888
0.000928158
0.000935111
0.000942675
0.000943689
0.000943914
0.000943988
0.000943988
0.000943907
0.000943668
0.000942677
0.000932592
0.000945182
0.000956603
0.000958305
0.000958542
0.000958573
0.000958569
0.000958517
0.000958266
0.000956684
0.000942816
0.000975565
0.00108052
0.00109304
0.00108912
0.0010872
0.0010871
0.00108878
0.00109264
0.00108349
0.000974944
0.00130963
0.00267511
0.00282946
0.00275457
0.00272581
0.00272438
0.00274944
0.00282369
0.00271272
0.00132867
0.00400925
0.0156478
0.0172516
0.0169081
0.0167469
0.0167356
0.01687
0.0172135
0.0159152
0.00416158
0.0170974
0.0778487
0.0880796
0.0883888
0.0881979
0.0881517
0.088247
0.087962
0.0789535
0.0176854
0.000946841
0.000631434
0.000616113
0.00061613
0.000616329
0.000616333
0.000616134
0.000616011
0.000631047
0.000945369
0.000953019
0.000679876
0.000669724
0.00067051
0.000670672
0.000670664
0.000670495
0.000669676
0.000680258
0.000951745
0.000992693
0.00100017
0.00101688
0.00100875
0.00100559
0.00100544
0.00100817
0.00101649
0.00100653
0.000993371
0.00165136
0.00761275
0.00802266
0.00735802
0.0071222
0.00711595
0.00733639
0.00800721
0.00776529
0.00168599
0.0281508
0.201143
0.222324
0.222626
0.222149
0.222073
0.222403
0.222273
0.203723
0.0292648
0.000944951
0.00058659
0.000566984
0.00056639
0.000566459
0.00056646
0.00056638
0.000566809
0.00058582
0.000943645
0.000948421
0.000591777
0.000572913
0.000572439
0.000572492
0.000572492
0.000572429
0.00057275
0.000591146
0.000947197
0.000956551
0.000671258
0.0006619
0.000663224
0.000663653
0.000663651
0.000663224
0.000661946
0.000672226
0.000955747
0.00133979
0.00510886
0.00547018
0.00543985
0.00542269
0.00542153
0.005437
0.00547427
0.00518853
0.00135817
0.0298922
0.206885
0.222843
0.222724
0.222322
0.222287
0.222634
0.22303
0.209572
0.0310654
0.000943395
0.000581704
0.000561466
0.000560714
0.000560735
0.000560735
0.000560701
0.00056128
0.000580872
0.000942106
0.000946364
0.000581536
0.000561303
0.00056049
0.000560471
0.00056047
0.000560474
0.000561113
0.000580732
0.000945129
0.000951183
0.000638437
0.000623235
0.00062293
0.00062318
0.000623197
0.000622977
0.000623262
0.000638859
0.00095029
0.00130432
0.00514879
0.0055058
0.00552237
0.00552123
0.00552092
0.00552224
0.00551471
0.00522958
0.00132129
0.0323157
0.226089
0.24246
0.243049
0.242918
0.242905
0.243039
0.242827
0.229157
0.0336389
0.000942519
0.000580954
0.000560611
0.000559826
0.000559835
0.000559835
0.000559814
0.000560427
0.000580118
0.000941242
0.000945325
0.000580248
0.000559812
0.000558951
0.000558923
0.000558921
0.000558936
0.000559623
0.00057942
0.000944083
0.000948957
0.000628319
0.000612631
0.0006125
0.000612798
0.000612821
0.000612564
0.000612682
0.000628636
0.000947997
0.00131078
0.00551011
0.00590086
0.00594562
0.00595694
0.00595701
0.00594784
0.00591521
0.00560219
0.00132887
0.0335351
0.234119
0.250792
0.251741
0.251754
0.251753
0.251777
0.251252
0.237365
0.0349372
0.000942351
0.000581346
0.000560845
0.000560059
0.000560074
0.000560074
0.000560049
0.000560664
0.000580498
0.000941086
0.000945385
0.000580735
0.000559803
0.000558917
0.000558888
0.000558887
0.000558904
0.000559617
0.00057989
0.000944152
0.000949505
0.000633597
0.000619544
0.000620113
0.000620552
0.000620562
0.000620164
0.000619607
0.000634013
0.00094854
0.00153812
0.00731047
0.00795254
0.00815491
0.00822624
0.00822768
0.00816355
0.00798072
0.00743526
0.00156805
0.033945
0.232634
0.248928
0.249875
0.249907
0.24991
0.249932
0.249429
0.235888
0.0353897
0.000942764
0.000582642
0.000561944
0.000561182
0.000561215
0.000561216
0.000561177
0.00056177
0.000581794
0.000941534
0.000946215
0.000582404
0.000560728
0.000559839
0.000559818
0.00055982
0.000559832
0.000560551
0.000581555
0.000944976
0.000953633
0.000655823
0.000644333
0.000646984
0.000648231
0.000648263
0.000647127
0.000644575
0.000656554
0.000952808
0.00188533
0.00781888
0.0085499
0.0090048
0.00918045
0.0091846
0.00902479
0.00859232
0.00792659
0.00193029
0.0341107
0.223032
0.237985
0.238874
0.238935
0.23894
0.238955
0.23851
0.22611
0.0355764
0.000943785
0.000584965
0.000564103
0.000563365
0.000563413
0.000563417
0.000563365
0.000563943
0.000584132
0.000942569
0.000947082
0.000588095
0.000565921
0.000565231
0.000565284
0.000565288
0.000565237
0.000565763
0.000587286
0.000945825
0.000962355
0.000676923
0.000665246
0.000668917
0.000670655
0.000670704
0.000669103
0.000665532
0.000677508
0.000961653
0.00202395
0.00530083
0.00576897
0.00594516
0.00601635
0.00601802
0.00595345
0.00578899
0.00537318
0.00205939
0.0326151
0.190944
0.202624
0.203887
0.204216
0.204232
0.204006
0.203117
0.193329
0.0339366
0.000945004
0.000603399
0.000584027
0.000583344
0.00058338
0.000583383
0.000583349
0.000583893
0.000602726
0.000943711
0.000946691
0.000620862
0.000600984
0.000601008
0.000601289
0.000601301
0.000601037
0.000600908
0.000620352
0.000945328
0.000972348
0.000728827
0.000716182
0.000718625
0.000719851
0.000719881
0.00071874
0.000716352
0.000729302
0.000971581
0.00142899
0.00350276
0.0037617
0.00381384
0.00383252
0.00383265
0.00381597
0.00377002
0.00354592
0.00144565
0.024698
0.118233
0.124514
0.12553
0.125882
0.125897
0.125617
0.124803
0.119434
0.0254714
0.000939215
0.000952304
0.000953881
0.00095422
0.000954352
0.000954365
0.000954228
0.000953953
0.000952501
0.000936758
0.000936013
0.000956071
0.000958309
0.00095862
0.000958712
0.000958715
0.000958647
0.000958401
0.000956288
0.000933523
0.000977138
0.00100928
0.00101355
0.0010147
0.00101506
0.00101505
0.00101476
0.00101363
0.00100977
0.000975055
0.00112305
0.00140437
0.00145078
0.00145881
0.00146119
0.00146123
0.00145907
0.00145203
0.00141051
0.00112594
0.00840595
0.0181488
0.0188707
0.0190636
0.0191271
0.0191292
0.0190753
0.0189042
0.018274
0.00853598
)
;

boundaryField
{
    walls
    {
        type            epsilonWallFunction;
        value           nonuniform List<scalar> 
500
(
0.000894174
0.000894174
0.000894174
0.000925787
0.000925787
0.000926663
0.000926663
0.000926635
0.000926635
0.000926619
0.000926619
0.000926613
0.000926613
0.000926605
0.000926605
0.000926601
0.000926601
0.000926504
0.000926504
0.000923873
0.000923873
0.000923873
0.000926988
0.000926988
0.000934914
0.000935521
0.000935539
0.000935538
0.000935534
0.00093552
0.000935488
0.000934871
0.000925368
0.000925368
0.00092973
0.00092973
0.000937678
0.0009384
0.000938443
0.00093845
0.000938441
0.000938418
0.000938366
0.000937638
0.000927097
0.000927097
0.000931938
0.000931938
0.000940654
0.00094149
0.000941579
0.000941606
0.0009416
0.00094156
0.000941478
0.00094066
0.00092942
0.00092942
0.000934113
0.000934113
0.000944163
0.000945139
0.000945275
0.000945318
0.00094531
0.000945278
0.000945155
0.000944248
0.000931698
0.000931698
0.000926223
0.000926223
0.000932979
0.000933634
0.000933725
0.000933753
0.000933766
0.000933768
0.000933754
0.000933243
0.000925318
0.000925318
0.000933889
0.000932516
0.000936021
0.00093462
0.000938096
0.00093671
0.000940383
0.000939031
0.000928658
0.000928658
0.000934734
0.000935386
0.000935471
0.000935505
0.000935523
0.000935529
0.000935513
0.000934946
0.000926534
0.000926534
0.000935343
0.000934076
0.000937217
0.000935987
0.000939029
0.000937784
0.000941221
0.000939984
0.000929652
0.000929652
0.000935679
0.000936305
0.000936375
0.000936406
0.000936422
0.000936429
0.00093641
0.000935839
0.000927392
0.000927392
0.00093615
0.000934868
0.000937809
0.00093659
0.000939399
0.00093816
0.000941414
0.000940164
0.00093019
0.00093019
0.000936195
0.0009368
0.000936859
0.000936884
0.000936897
0.000936902
0.00093688
0.000936307
0.000927837
0.000927837
0.000936618
0.000935291
0.000938147
0.000936906
0.000939614
0.000938359
0.0009415
0.00094023
0.000930272
0.000930272
0.00093646
0.000937072
0.000937128
0.000937151
0.000937162
0.000937164
0.000937137
0.000936549
0.000927873
0.000927873
0.000936728
0.000935374
0.000938267
0.000937008
0.000939762
0.000938492
0.00094167
0.000940385
0.000929933
0.000929933
0.000936569
0.000937211
0.000937269
0.00093729
0.000937297
0.000937295
0.00093726
0.00093664
0.000927505
0.000927505
0.000936501
0.000935119
0.0009382
0.000936914
0.000939901
0.000938604
0.000942031
0.000940715
0.000929158
0.000929158
0.000936205
0.000936876
0.000936937
0.000936956
0.000936963
0.000936956
0.000936913
0.000936264
0.000926712
0.000926712
0.000935893
0.000934485
0.000937856
0.000936542
0.000939889
0.000938558
0.000942435
0.000941083
0.000927894
0.000927894
0.000934716
0.000935343
0.0009354
0.00093542
0.000935423
0.000935413
0.00093537
0.000934757
0.000925424
0.000925424
0.000934428
0.000932922
0.000936664
0.000935236
0.000939076
0.000937617
0.00094223
0.000940739
0.000924002
0.000924002
0.000924002
0.000924251
0.000924251
0.000924285
0.000924285
0.000924298
0.000924298
0.000924302
0.000924302
0.000924306
0.000924306
0.000924301
0.000924301
0.00092429
0.00092429
0.000924186
0.000924186
0.000921385
0.000921385
0.000921385
0.000925741
0.000925741
0.000932171
0.000932801
0.000932861
0.000932878
0.000932881
0.000932866
0.00093282
0.000932214
0.000923197
0.000923197
0.00092787
0.00092787
0.000934891
0.000935643
0.000935741
0.000935773
0.000935779
0.000935747
0.000935663
0.000934942
0.000925326
0.000925326
0.00093071
0.00093071
0.000937862
0.000938706
0.000938854
0.000938908
0.000938912
0.000938856
0.000938713
0.000937888
0.000928158
0.000928158
0.000935111
0.000935111
0.000942675
0.000943689
0.000943914
0.000943988
0.000943988
0.000943907
0.000943668
0.000942677
0.000932592
0.000932592
0.000945182
0.000945182
0.000956603
0.000958305
0.000958542
0.000958573
0.000958569
0.000958517
0.000958266
0.000956684
0.000942816
0.000942816
0.000975565
0.000975565
0.00108052
0.00109304
0.00108912
0.0010872
0.0010871
0.00108878
0.00109264
0.00108349
0.000974944
0.000974944
0.00130963
0.00130963
0.00267511
0.00282946
0.00275457
0.00272581
0.00272438
0.00274944
0.00282369
0.00271272
0.00132867
0.00132867
0.00400925
0.00400925
0.0156478
0.0172516
0.0169081
0.0167469
0.0167356
0.01687
0.0172135
0.0159152
0.00416158
0.00416158
0.0170974
0.0170974
0.0778487
0.0880796
0.0883888
0.0881979
0.0881517
0.088247
0.087962
0.0789535
0.0176854
0.0176854
0.000946841
0.000945369
0.000953019
0.000951745
0.000992693
0.000993371
0.00165136
0.00168599
0.0281508
0.0292648
0.000944951
0.000943645
0.000948421
0.000947197
0.000956551
0.000955747
0.00133979
0.00135817
0.0298922
0.0310654
0.000943395
0.000942106
0.000946364
0.000945129
0.000951183
0.00095029
0.00130432
0.00132129
0.0323157
0.0336389
0.000942519
0.000941242
0.000945325
0.000944083
0.000948957
0.000947997
0.00131078
0.00132887
0.0335351
0.0349372
0.000942351
0.000941086
0.000945385
0.000944152
0.000949505
0.00094854
0.00153812
0.00156805
0.033945
0.0353897
0.000942764
0.000941534
0.000946215
0.000944976
0.000953633
0.000952808
0.00188533
0.00193029
0.0341107
0.0355764
0.000943785
0.000942569
0.000947082
0.000945825
0.000962355
0.000961653
0.00202395
0.00205939
0.0326151
0.0339366
0.000945004
0.000943711
0.000946691
0.000945328
0.000972348
0.000971581
0.00142899
0.00144565
0.024698
0.0254714
0.000939215
0.000939215
0.000952304
0.000953881
0.00095422
0.000954352
0.000954365
0.000954228
0.000953953
0.000952501
0.000936758
0.000936758
0.000936013
0.000936013
0.000956071
0.000958309
0.00095862
0.000958712
0.000958715
0.000958647
0.000958401
0.000956288
0.000933523
0.000933523
0.000977138
0.000977138
0.00100928
0.00101355
0.0010147
0.00101506
0.00101505
0.00101476
0.00101363
0.00100977
0.000975055
0.000975055
0.00112305
0.00112305
0.00140437
0.00145078
0.00145881
0.00146119
0.00146123
0.00145907
0.00145203
0.00141051
0.00112594
0.00112594
0.00840595
0.00840595
0.0181488
0.0188707
0.0190636
0.0191271
0.0191292
0.0190753
0.0189042
0.018274
0.00853598
0.00853598
)
;
        Cmu             0.09;
        kappa           0.41;
        E               9.8;
    }
    lid
    {
        type            epsilonWallFunction;
        value           nonuniform List<scalar> 
100
(
0.0170974
0.0778487
0.0880796
0.0883888
0.0881979
0.0881517
0.088247
0.087962
0.0789535
0.0176854
0.0281508
0.201143
0.222324
0.222626
0.222149
0.222073
0.222403
0.222273
0.203723
0.0292648
0.0298922
0.206885
0.222843
0.222724
0.222322
0.222287
0.222634
0.22303
0.209572
0.0310654
0.0323157
0.226089
0.24246
0.243049
0.242918
0.242905
0.243039
0.242827
0.229157
0.0336389
0.0335351
0.234119
0.250792
0.251741
0.251754
0.251753
0.251777
0.251252
0.237365
0.0349372
0.033945
0.232634
0.248928
0.249875
0.249907
0.24991
0.249932
0.249429
0.235888
0.0353897
0.0341107
0.223032
0.237985
0.238874
0.238935
0.23894
0.238955
0.23851
0.22611
0.0355764
0.0326151
0.190944
0.202624
0.203887
0.204216
0.204232
0.204006
0.203117
0.193329
0.0339366
0.024698
0.118233
0.124514
0.12553
0.125882
0.125897
0.125617
0.124803
0.119434
0.0254714
0.00840595
0.0181488
0.0188707
0.0190636
0.0191271
0.0191292
0.0190753
0.0189042
0.018274
0.00853598
)
;
        Cmu             0.09;
        kappa           0.41;
        E               9.8;
    }
}


// ************************************************************************* //
