/*--------------------------------*- C++ -*----------------------------------*\
| =========                 |                                                 |
| \\      /  F ield         | OpenFOAM: The Open Source CFD Toolbox           |
|  \\    /   O peration     | Version:  2.3.1                                 |
|   \\  /    A nd           | Web:      www.OpenFOAM.org                      |
|    \\/     M anipulation  |                                                 |
\*---------------------------------------------------------------------------*/
FoamFile
{
    version     2.0;
    format      ascii;
    class       volVectorField;
    location    "1340";
    object      D;
}
// * * * * * * * * * * * * * * * * * * * * * * * * * * * * * * * * * * * * * //

dimensions      [0 1 0 0 0 0 0];

internalField   nonuniform List<vector> 
11800
(
(5.37643e-06 0.00015693 0)
(-6.87128e-06 0.00017456 0)
(3.84134e-06 5.40106e-05 0)
(-4.41085e-06 7.29794e-05 0)
(-6.28053e-06 0.000174269 0)
(-2.86814e-06 7.31195e-05 0)
(-1.06802e-06 0.000118383 0)
(-1.02128e-06 9.17432e-05 0)
(4.63247e-07 1.45982e-05 0)
(8.14543e-07 5.59778e-05 0)
(5.97355e-06 0.000156565 0)
(-5.5088e-06 6.2424e-05 0)
(-5.76678e-09 -4.5889e-09 0)
(3.41176e-06 5.36919e-05 0)
(-3.91531e-06 7.32803e-05 0)
(3.91441e-06 9.01558e-06 0)
(-6.11656e-07 0.000118045 0)
(-5.95336e-07 9.14215e-05 0)
(2.55754e-07 1.47574e-05 0)
(4.92963e-07 5.57067e-05 0)
(-3.37032e-06 7.2856e-05 0)
(-5.04969e-06 6.26666e-05 0)
(-8.76465e-07 3.23024e-06 0)
(-9.34958e-07 3.36217e-06 0)
(3.48211e-06 1.02808e-05 0)
(-1.39376e-06 5.32263e-06 0)
(-5.46131e-06 3.76703e-05 0)
(7.69143e-06 0.000106337 0)
(-4.89769e-06 2.87337e-05 0)
(-4.27028e-06 2.07841e-05 0)
(8.13001e-06 0.000133827 0)
(3.1653e-08 2.52253e-06 0)
(1.79227e-06 6.81941e-06 0)
(-4.19155e-06 0.000179067 0)
(3.33688e-06 0.000178271 0)
(-9.33021e-06 0.000142754 0)
(3.10608e-06 0.000178878 0)
(1.763e-06 7.00861e-06 0)
(-1.04448e-06 0.000124904 0)
(8.14332e-07 6.13451e-05 0)
(-5.36876e-06 3.80836e-05 0)
(-4.81943e-06 2.91049e-05 0)
(7.51364e-06 0.000105741 0)
(-4.2069e-06 2.1112e-05 0)
(7.94893e-06 0.000133202 0)
(3.73248e-06 9.08686e-06 0)
(9.94371e-07 3.81635e-06 0)
(1.10956e-06 3.75611e-06 0)
(-1.62253e-06 0.000125009 0)
(1.28373e-06 6.14293e-05 0)
(-8.90629e-06 9.29315e-05 0)
(-9.48145e-06 0.000119576 0)
(-9.04381e-07 0.000155281 0)
(4.63359e-08 2.39526e-06 0)
(-4.81016e-06 1.07108e-05 0)
(6.66593e-07 5.7034e-07 0)
(-1.16393e-05 0.000181489 0)
(-2.99416e-06 5.20418e-05 0)
(3.33192e-06 7.52262e-05 0)
(-2.18495e-06 5.00404e-05 0)
(1.32322e-06 1.80315e-06 0)
(-1.53035e-06 0.000155395 0)
(-2.60725e-06 5.19271e-05 0)
(2.90141e-06 7.53623e-05 0)
(3.26154e-06 1.01263e-05 0)
(-1.11103e-05 0.000160733 0)
(-9.23914e-06 9.25345e-05 0)
(-9.86916e-06 0.000119142 0)
(-1.10565e-05 0.0001812 0)
(-1.46185e-06 5.49312e-06 0)
(-3.74058e-06 0.000179563 0)
(-6.57621e-06 0.000178605 0)
(-6.76637e-06 0.000177979 0)
(-6.37294e-08 7.4054e-08 0)
(1.41305e-06 1.87956e-06 0)
(-8.79061e-06 0.000143147 0)
(4.2513e-06 1.41342e-05 0)
(-1.12901e-05 0.000161325 0)
(-8.99722e-06 0.000162666 0)
(-8.40825e-06 0.0001632 0)
(-4.58634e-06 1.05668e-05 0)
(6.42912e-07 6.3644e-05 0)
(6.13176e-06 0.000177225 0)
(5.46945e-06 0.000177333 0)
(-8.34767e-07 6.53686e-05 0)
(-4.0947e-06 2.33559e-05 0)
(7.34797e-06 0.000129059 0)
(-4.644e-06 3.16438e-05 0)
(-5.14093e-06 4.08993e-05 0)
(6.92825e-06 0.00010181 0)
(-2.37289e-07 0.000151979 0)
(1.90729e-06 6.48672e-06 0)
(-5.60268e-06 0.000163697 0)
(1.14783e-05 0.000182858 0)
(1.8085e-06 8.02308e-05 0)
(-1.53686e-09 -1.16821e-09 0)
(3.96196e-11 -2.47214e-10 0)
(1.53068e-09 -1.16339e-09 0)
(-1.55953e-07 0.000157158 0)
(-5.22898e-06 6.37725e-05 0)
(9.87372e-06 0.000182213 0)
(6.02457e-06 6.99146e-05 0)
(-2.32127e-06 9.42799e-06 0)
(-5.31891e-07 7.30602e-06 0)
(-3.57928e-07 0.0001735 0)
(6.16101e-07 1.52591e-05 0)
(-1.30245e-06 9.04314e-05 0)
(-1.34778e-06 0.000116935 0)
(2.04348e-06 3.56733e-06 0)
(4.63959e-06 3.16284e-05 0)
(4.09364e-06 2.33419e-05 0)
(5.13445e-06 4.08818e-05 0)
(-7.51677e-06 0.000129076 0)
(-7.09093e-06 0.000101831 0)
(1.06081e-06 5.4864e-05 0)
(1.61674e-06 3.25734e-06 0)
(1.09452e-05 0.000161381 0)
(-4.52669e-06 0.000165583 0)
(1.64728e-06 3.13973e-06 0)
(-7.90449e-07 5.6658e-05 0)
(-4.85643e-07 1.42192e-05 0)
(9.73079e-07 0.000119235 0)
(9.25823e-07 9.25091e-05 0)
(-1.42037e-06 0.000114444 0)
(-5.63895e-06 0.000164304 0)
(-5.26848e-07 0.000156676 0)
(-3.63511e-06 0.000173567 0)
(-8.72891e-07 0.000173103 0)
(-1.24908e-05 0.000187418 0)
(-1.29365e-05 0.00018697 0)
(-3.94531e-07 1.79916e-07 0)
(-1.75879e-06 4.21048e-06 0)
(7.5407e-06 0.0001253 0)
(-4.38621e-06 2.54928e-05 0)
(7.08619e-06 9.82703e-05 0)
(-4.93824e-06 3.40501e-05 0)
(-5.43778e-06 4.35506e-05 0)
(6.95501e-06 0.000125412 0)
(-4.04355e-06 2.54186e-05 0)
(6.53635e-06 9.83742e-05 0)
(-4.55368e-06 3.39685e-05 0)
(-5.01534e-06 4.34624e-05 0)
(-1.08923e-06 1.31865e-05 0)
(2.42258e-06 0.000121471 0)
(2.2665e-06 9.46708e-05 0)
(-1.99974e-06 5.84619e-05 0)
(9.51567e-06 6.40261e-05 0)
(-9.52078e-06 6.26627e-05 0)
(5.92464e-06 7.04097e-05 0)
(-7.41332e-07 7.74628e-06 0)
(-6.23158e-06 0.000151291 0)
(-6.17808e-06 0.000152078 0)
(2.98853e-06 0.000176927 0)
(-6.96481e-06 0.000142948 0)
(2.75454e-06 0.000101761 0)
(2.98212e-06 0.000128994 0)
(-7.76662e-06 0.000113958 0)
(-7.23495e-06 8.76526e-05 0)
(3.78778e-06 1.67855e-05 0)
(-6.04584e-07 0.000152539 0)
(2.22226e-06 3.62942e-06 0)
(-6.36815e-06 0.000143087 0)
(4.44961e-06 1.43348e-05 0)
(-2.92064e-06 4.25318e-05 0)
(-2.64649e-06 3.31181e-05 0)
(-2.34366e-06 2.46564e-05 0)
(3.8426e-06 9.95183e-05 0)
(4.08512e-06 0.000126633 0)
(-1.98002e-06 2.50482e-06 0)
(-3.50411e-06 1.616e-05 0)
(7.18131e-06 0.000115194 0)
(6.68353e-06 8.88155e-05 0)
(1.57744e-06 0.000116809 0)
(-1.06247e-05 0.000142102 0)
(-1.07315e-05 0.000142938 0)
(4.01218e-06 1.02971e-05 0)
(4.01534e-06 1.05766e-05 0)
(4.29532e-06 3.07331e-05 0)
(4.7635e-06 3.98928e-05 0)
(3.77898e-06 2.25481e-05 0)
(-6.66969e-06 0.000103173 0)
(-7.06226e-06 0.000130508 0)
(2.80295e-06 0.000101139 0)
(2.99908e-06 0.000128354 0)
(3.08648e-06 6.2422e-05 0)
(-1.52103e-06 5.83333e-05 0)
(-8.3174e-07 1.32534e-05 0)
(1.82551e-06 0.000121312 0)
(1.70681e-06 9.45215e-05 0)
(-2.45251e-06 0.00014926 0)
(-8.67057e-07 2.72677e-05 0)
(-9.71831e-07 3.60484e-05 0)
(-9.14808e-06 0.000159517 0)
(-2.75295e-07 6.37576e-06 0)
(-8.90829e-06 7.64111e-05 0)
(7.71058e-06 5.1165e-05 0)
(9.5878e-08 9.54496e-08 0)
(-5.49076e-06 0.000179349 0)
(1.08687e-05 0.000162019 0)
(-3.4368e-07 2.10322e-07 0)
(7.14583e-06 0.000169685 0)
(8.93704e-06 0.000145408 0)
(9.58807e-06 0.000145525 0)
(-3.18716e-07 0.000174365 0)
(-7.67778e-07 0.000174916 0)
(5.14942e-06 4.99601e-05 0)
(4.5446e-06 5.01764e-05 0)
(-6.08407e-06 7.76809e-05 0)
(-5.36457e-06 7.74155e-05 0)
(3.87043e-07 1.7662e-07 0)
(-1.06719e-06 9.26701e-06 0)
(-1.2078e-06 5.21081e-06 0)
(-2.87678e-08 1.09035e-08 0)
(3.64454e-06 6.15306e-06 0)
(-8.95287e-08 2.86221e-08 0)
(4.66528e-07 5.11958e-06 0)
(-6.22287e-06 0.000173462 0)
(-3.13555e-06 2.28076e-05 0)
(-3.55418e-06 3.10353e-05 0)
(-3.94045e-06 4.02302e-05 0)
(5.6564e-06 0.000129997 0)
(5.35298e-06 0.000102703 0)
(3.34568e-07 0.000121092 0)
(3.10155e-07 9.43134e-05 0)
(-1.81388e-07 1.33468e-05 0)
(-3.36709e-07 5.81639e-05 0)
(-1.31549e-07 2.191e-08 0)
(4.73439e-07 1.66211e-05 0)
(-9.71625e-07 8.78149e-05 0)
(-2.87754e-06 5.62282e-05 0)
(6.66921e-07 1.63816e-05 0)
(-1.35361e-06 8.82683e-05 0)
(-4.26528e-06 0.000164282 0)
(5.2783e-06 6.28665e-05 0)
(4.91639e-06 6.23962e-05 0)
(2.84994e-08 1.0814e-08 0)
(1.30729e-07 2.17908e-08 0)
(-8.234e-06 0.000153093 0)
(-7.92274e-06 0.00015373 0)
(-7.91474e-06 5.34586e-05 0)
(8.77369e-06 7.37537e-05 0)
(6.94697e-06 0.000130452 0)
(6.55689e-06 0.000103124 0)
(-3.80995e-06 2.25818e-05 0)
(-4.33439e-06 3.07691e-05 0)
(-4.80823e-06 3.99328e-05 0)
(-2.9012e-07 0.00015606 0)
(-3.24151e-06 1.54731e-05 0)
(6.78597e-06 0.000116603 0)
(6.32434e-06 9.01271e-05 0)
(4.20828e-06 6.35072e-05 0)
(3.49038e-06 0.000147323 0)
(5.50331e-06 0.000183074 0)
(5.99401e-07 5.04632e-06 0)
(-2.12247e-06 5.05412e-05 0)
(-1.02722e-08 1.89146e-06 0)
(8.88439e-08 2.84301e-08 0)
(1.98583e-06 5.32576e-05 0)
(1.70535e-06 5.27155e-05 0)
(-2.19926e-06 7.38893e-05 0)
(-1.88863e-06 7.44214e-05 0)
(3.88705e-06 4.02167e-05 0)
(3.50749e-06 3.10232e-05 0)
(3.08919e-06 2.28009e-05 0)
(-5.43429e-06 0.000102704 0)
(-5.75617e-06 0.000130015 0)
(-3.06673e-06 0.000179401 0)
(1.11609e-06 1.39909e-06 0)
(-3.27589e-08 0.000104264 0)
(-2.77076e-08 2.18545e-05 0)
(3.99136e-06 0.000173198 0)
(3.30168e-06 6.19816e-05 0)
(-1.28037e-05 0.000171175 0)
(3.79572e-06 6.39542e-05 0)
(1.60442e-07 1.21076e-07 0)
(1.04692e-05 0.000140377 0)
(1.05301e-05 0.000139603 0)
(-6.49072e-06 9.02399e-05 0)
(-6.96283e-06 0.000116719 0)
(-5.80236e-06 9.00183e-05 0)
(-6.22576e-06 0.000116483 0)
(3.24085e-06 1.5416e-05 0)
(2.90353e-06 1.55167e-05 0)
(3.11613e-06 8.30637e-05 0)
(3.71273e-06 8.29693e-05 0)
(3.36482e-06 0.000109008 0)
(4.01057e-06 0.000108906 0)
(-1.82082e-06 1.92688e-05 0)
(-2.16563e-06 1.933e-05 0)
(-3.94535e-07 8.7908e-06 0)
(1.9447e-06 5.64468e-06 0)
(1.82089e-06 5.45242e-06 0)
(1.86639e-06 4.14247e-06 0)
(2.97902e-06 0.000147945 0)
(-1.04547e-05 0.000140633 0)
(-1.05107e-05 0.000139829 0)
(4.13594e-06 1.14798e-05 0)
(4.05652e-06 1.1158e-05 0)
(8.34468e-06 6.40409e-05 0)
(8.4552e-06 6.47414e-05 0)
(-8.35021e-06 6.26155e-05 0)
(-8.39626e-06 6.1926e-05 0)
(3.69538e-06 0.000176811 0)
(-1.02623e-05 0.000179083 0)
(-9.86318e-06 0.000151164 0)
(2.48772e-06 2.87047e-06 0)
(-6.04147e-06 0.000176868 0)
(-5.39852e-06 0.00017627 0)
(2.52867e-06 8.39905e-05 0)
(-1.62193e-06 7.56795e-05 0)
(1.40014e-06 5.16541e-05 0)
(-7.16118e-06 6.4276e-05 0)
(6.9606e-06 6.23231e-05 0)
(-3.53899e-06 1.12867e-05 0)
(-1.07206e-07 6.94662e-08 0)
(5.62219e-07 2.37222e-06 0)
(6.12576e-07 5.50337e-05 0)
(-6.05446e-06 5.54119e-05 0)
(6.41471e-06 7.14454e-05 0)
(-3.50579e-06 5.05606e-05 0)
(4.0612e-06 7.69715e-05 0)
(2.02132e-06 0.000132445 0)
(2.80186e-06 0.000132166 0)
(-1.27287e-06 2.95004e-05 0)
(-1.74895e-06 2.96743e-05 0)
(-1.41727e-06 3.85341e-05 0)
(-1.94618e-06 3.87264e-05 0)
(3.2485e-07 1.51567e-05 0)
(-7.26237e-07 9.06294e-05 0)
(-7.32654e-07 0.000117159 0)
(-1.16788e-06 0.000170359 0)
(1.70619e-06 4.11674e-06 0)
(-3.52451e-07 7.37834e-05 0)
(-4.89011e-06 0.000174569 0)
(7.18541e-07 5.91233e-07 0)
(4.31898e-06 0.000104752 0)
(-2.46864e-06 2.16182e-05 0)
(-7.437e-06 7.45447e-05 0)
(-6.98734e-06 7.4182e-05 0)
(6.50331e-06 5.27241e-05 0)
(6.12754e-06 5.30372e-05 0)
(-7.30707e-06 0.000181938 0)
(-7.3871e-06 0.000181168 0)
(-1.28062e-06 8.84461e-06 0)
(-1.51676e-06 8.81143e-06 0)
(6.15663e-07 2.48479e-06 0)
(-1.47664e-06 2.57685e-06 0)
(3.14192e-07 7.73364e-05 0)
(2.19287e-06 1.56934e-05 0)
(1.84127e-06 1.5792e-05 0)
(-4.37387e-06 8.96338e-05 0)
(-3.67248e-06 8.94269e-05 0)
(-4.69368e-06 0.000116076 0)
(-3.94138e-06 0.000115855 0)
(-9.46564e-06 0.000146375 0)
(-8.76169e-06 0.000146432 0)
(-2.13877e-06 4.53573e-05 0)
(-1.98879e-06 3.5679e-05 0)
(-1.77372e-06 2.69383e-05 0)
(2.94887e-06 0.000136752 0)
(-5.47569e-07 0.000154569 0)
(6.25953e-06 6.22652e-05 0)
(5.92375e-06 6.27937e-05 0)
(2.72209e-06 0.000118632 0)
(2.61201e-06 9.19826e-05 0)
(-1.31485e-06 1.44878e-05 0)
(1.20651e-06 1.61905e-05 0)
(9.89471e-07 1.65005e-05 0)
(-2.17396e-06 0.000114422 0)
(-2.58006e-06 0.000115 0)
(-2.40101e-06 8.86416e-05 0)
(-1.96293e-06 8.80493e-05 0)
(-2.60058e-06 1.48631e-05 0)
(5.17068e-06 9.12903e-05 0)
(5.54168e-06 0.000117853 0)
(-7.44677e-08 7.13023e-07 0)
(9.29178e-06 7.08323e-05 0)
(-8.64223e-06 5.6134e-05 0)
(-4.26895e-08 6.63956e-07 0)
(-2.81565e-06 0.000130427 0)
(-3.29646e-06 0.000131131 0)
(-2.59235e-06 0.00010315 0)
(-3.0301e-06 0.000103818 0)
(1.67488e-06 2.21356e-05 0)
(1.43944e-06 2.25171e-05 0)
(1.96344e-06 3.03103e-05 0)
(1.68125e-06 3.0742e-05 0)
(2.17953e-06 3.94314e-05 0)
(1.86413e-06 3.99099e-05 0)
(1.03653e-05 0.000146651 0)
(1.05588e-05 0.000147384 0)
(-1.04943e-06 5.25301e-06 0)
(3.88019e-06 0.000105263 0)
(-2.20661e-06 2.13253e-05 0)
(3.56096e-06 1.69278e-05 0)
(-6.77502e-06 8.73688e-05 0)
(-7.28991e-06 0.000113637 0)
(-1.04397e-07 3.18785e-08 0)
(1.31415e-06 0.000152736 0)
(3.51977e-06 1.61621e-05 0)
(-6.86697e-06 8.88129e-05 0)
(-7.38426e-06 0.000115166 0)
(2.73172e-06 4.79939e-06 0)
(-5.16927e-06 0.000165348 0)
(3.39363e-06 1.29461e-05 0)
(-8.14167e-06 0.000136174 0)
(-1.84783e-06 7.02558e-06 0)
(-1.9701e-06 7.27961e-06 0)
(1.91524e-06 7.20405e-06 0)
(-9.14628e-07 7.36716e-05 0)
(-7.36544e-09 -5.41724e-09 0)
(-5.48708e-06 0.000180954 0)
(-9.35581e-08 3.75108e-08 0)
(1.03556e-07 3.16526e-08 0)
(-2.66702e-06 1.56661e-05 0)
(5.53147e-06 0.000116161 0)
(5.15262e-06 8.97122e-05 0)
(4.24425e-06 0.000152973 0)
(-1.23281e-05 0.000163954 0)
(1.56382e-06 6.9058e-05 0)
(-1.05495e-06 6.7292e-05 0)
(-3.04196e-07 7.34789e-06 0)
(-8.48115e-07 9.09868e-07 0)
(-5.31611e-09 -4.78514e-09 0)
(-3.14689e-06 5.10224e-05 0)
(3.63814e-06 7.64445e-05 0)
(2.89126e-07 1.02008e-07 0)
(-4.4218e-07 6.63228e-05 0)
(-4.1883e-07 6.5696e-05 0)
(-3.82523e-08 5.58918e-05 0)
(-9.01783e-08 1.46698e-05 0)
(1.06295e-07 9.15955e-05 0)
(9.14795e-08 0.000118274 0)
(-2.91785e-07 1.02901e-07 0)
(1.153e-06 7.93854e-06 0)
(-4.27658e-06 0.000133993 0)
(2.49017e-06 2.85817e-05 0)
(2.77685e-06 3.75108e-05 0)
(3.0339e-06 4.73481e-05 0)
(8.8827e-06 0.000173784 0)
(-3.4596e-06 1.4039e-05 0)
(7.62279e-06 0.000119718 0)
(7.12599e-06 9.30373e-05 0)
(-5.09027e-06 0.000160484 0)
(7.88601e-07 2.07661e-06 0)
(6.78127e-06 0.000157549 0)
(-1.57683e-06 2.5382e-06 0)
(4.74107e-06 0.000174466 0)
(-3.69101e-06 0.000134007 0)
(2.1411e-06 2.85699e-05 0)
(2.38763e-06 3.74984e-05 0)
(2.61026e-06 4.7332e-05 0)
(6.88629e-07 1.96935e-06 0)
(3.123e-06 0.000107875 0)
(-1.72068e-06 1.98758e-05 0)
(-5.96746e-07 7.90678e-06 0)
(-8.98173e-06 0.000158099 0)
(-3.4284e-06 4.26857e-05 0)
(-3.10767e-06 3.32587e-05 0)
(-2.75336e-06 2.47825e-05 0)
(4.49039e-06 9.93589e-05 0)
(4.77409e-06 0.000126462 0)
(1.22584e-05 0.000184044 0)
(7.11986e-06 0.000161798 0)
(7.89778e-06 0.000161524 0)
(1.08474e-07 7.78684e-08 0)
(4.50362e-06 5.07425e-05 0)
(-5.28105e-06 7.67491e-05 0)
(-2.33191e-06 5.14523e-05 0)
(2.64015e-06 7.59677e-05 0)
(-7.98512e-07 8.1695e-05 0)
(-6.11295e-07 0.000131263 0)
(3.55224e-07 3.93323e-05 0)
(3.20544e-07 3.02194e-05 0)
(3.77426e-09 2.14121e-05 0)
(-1.57121e-07 7.94386e-05 0)
(-8.7903e-08 0.000105073 0)
(5.59017e-06 0.000183798 0)
(3.2875e-07 8.14017e-06 0)
(-1.52811e-07 1.91907e-06 0)
(1.04869e-06 0.000111415 0)
(5.41787e-08 1.98378e-06 0)
(-8.92471e-07 6.10578e-06 0)
(2.15244e-06 2.13599e-05 0)
(-3.97066e-06 0.000105195 0)
(-8.53906e-08 9.76506e-08 0)
(-8.32159e-06 0.000158027 0)
(-7.37925e-07 1.4394e-05 0)
(1.44326e-06 0.000118893 0)
(1.43676e-06 9.21575e-05 0)
(2.03427e-07 4.8958e-08 0)
(-2.63169e-06 4.87888e-06 0)
(2.7627e-06 3.842e-05 0)
(2.48289e-06 2.93996e-05 0)
(-4.20621e-06 0.000132634 0)
(7.94365e-07 5.30022e-05 0)
(-5.64152e-06 0.000178654 0)
(-1.02606e-07 1.4414e-08 0)
(-3.42525e-06 7.58524e-06 0)
(2.22367e-06 4.21044e-06 0)
(-2.26666e-06 2.5347e-06 0)
(6.29915e-06 6.33797e-05 0)
(4.76062e-06 7.6764e-05 0)
(-4.17966e-06 5.0726e-05 0)
(2.88362e-07 2.11974e-05 0)
(-7.135e-07 7.97331e-05 0)
(-6.00647e-07 0.000105456 0)
(5.92745e-06 0.000155786 0)
(5.58243e-06 6.92788e-05 0)
(2.85521e-06 0.000180016 0)
(2.74936e-06 0.000180679 0)
(7.85056e-07 7.64148e-05 0)
(1.09459e-06 5.2614e-05 0)
(1.01961e-07 1.4337e-08 0)
(-8.04351e-06 0.000141483 0)
(3.0618e-06 1.07744e-05 0)
(1.04013e-08 1.57034e-07 0)
(1.50802e-06 0.000101712 0)
(1.97999e-06 0.000102057 0)
(2.94194e-09 1.39071e-08 0)
(-1.64195e-06 4.07764e-06 0)
(3.87513e-06 3.9048e-05 0)
(3.48764e-06 2.99681e-05 0)
(3.06239e-06 2.18375e-05 0)
(-5.50236e-06 0.000104271 0)
(-5.82044e-06 0.000131727 0)
(5.07845e-06 6.60093e-05 0)
(7.02537e-07 0.000152898 0)
(-3.29747e-06 0.000172109 0)
(-3.12383e-06 0.000173004 0)
(-3.4706e-07 0.000133351 0)
(-3.0241e-07 0.00013407 0)
(2.10922e-07 2.85081e-05 0)
(1.90376e-07 2.89214e-05 0)
(2.34459e-07 3.74316e-05 0)
(2.11307e-07 3.78915e-05 0)
(1.42643e-07 4.72606e-05 0)
(1.75351e-07 4.77489e-05 0)
(3.71716e-07 7.66641e-05 0)
(7.0636e-07 7.78667e-05 0)
(1.23914e-06 0.000117538 0)
(-3.53842e-07 8.14993e-05 0)
(-2.04758e-07 4.92513e-08 0)
(-2.28989e-07 1.83122e-06 0)
(2.74738e-06 0.000107315 0)
(-1.53091e-06 2.01783e-05 0)
(7.82808e-07 2.53135e-06 0)
(1.07897e-05 0.000174626 0)
(-8.57286e-07 0.000134645 0)
(5.10172e-07 2.81936e-05 0)
(5.68814e-07 3.70813e-05 0)
(5.53886e-07 4.68568e-05 0)
(-8.30404e-06 0.000147119 0)
(2.87378e-06 5.38404e-05 0)
(4.1867e-06 0.000185208 0)
(4.73906e-06 0.000184801 0)
(-8.86886e-07 6.29301e-06 0)
(-5.58024e-07 0.000103729 0)
(2.70682e-07 2.21604e-05 0)
(1.33049e-07 1.41231e-07 0)
(1.05871e-05 0.000179484 0)
(-1.61164e-07 3.21265e-06 0)
(-2.08066e-06 3.19137e-05 0)
(-2.30257e-06 4.12047e-05 0)
(-2.74997e-06 4.16275e-05 0)
(-2.4873e-06 3.22975e-05 0)
(-1.81467e-06 2.35777e-05 0)
(-2.19099e-06 2.39273e-05 0)
(3.49395e-06 0.000100734 0)
(3.71231e-06 0.000127929 0)
(1.63982e-06 2.29709e-06 0)
(-1.07259e-07 6.64376e-08 0)
(-9.20498e-06 0.00012219 0)
(-9.58209e-06 0.000179124 0)
(3.112e-06 7.78065e-05 0)
(-2.92053e-07 3.28647e-06 0)
(-5.00508e-06 0.000100555 0)
(-5.311e-06 0.000127733 0)
(2.92287e-06 2.40682e-05 0)
(3.30384e-06 3.24539e-05 0)
(3.64931e-06 4.17976e-05 0)
(4.56352e-06 0.000153473 0)
(1.04099e-05 0.000180113 0)
(-5.72331e-06 6.39369e-05 0)
(2.39826e-06 2.16119e-05 0)
(-4.3998e-06 0.000104748 0)
(2.97594e-06 7.83977e-05 0)
(-1.17673e-06 5.63184e-05 0)
(3.06128e-06 3.87398e-05 0)
(2.75327e-06 2.96884e-05 0)
(-4.63317e-06 0.000132165 0)
(-8.4942e-06 6.46522e-05 0)
(8.23802e-06 6.20497e-05 0)
(8.23544e-06 6.27254e-05 0)
(-8.38515e-06 6.39351e-05 0)
(-4.08904e-06 1.11531e-05 0)
(-4.20652e-06 1.14942e-05 0)
(-3.95707e-06 6.272e-05 0)
(-2.13486e-06 2.59529e-06 0)
(-6.38425e-06 6.31885e-05 0)
(-9.50759e-07 0.000147957 0)
(-8.77552e-07 1.07872e-06 0)
(6.45427e-06 3.73139e-05 0)
(5.78595e-06 2.84171e-05 0)
(-8.95834e-06 9.3723e-05 0)
(1.45047e-06 3.87647e-05 0)
(1.30495e-06 2.97082e-05 0)
(-2.24012e-06 0.000132106 0)
(3.11534e-06 9.64288e-06 0)
(4.92614e-06 7.61566e-05 0)
(-4.35103e-06 5.1258e-05 0)
(-2.51797e-06 2.88554e-06 0)
(2.49587e-06 0.000117999 0)
(2.3934e-06 9.14149e-05 0)
(-1.2206e-06 1.47689e-05 0)
(7.29887e-06 0.000111557 0)
(-3.76153e-06 1.79862e-05 0)
(6.76755e-06 8.54367e-05 0)
(-4.32654e-06 1.10067e-05 0)
(5.12171e-06 0.00017245 0)
(5.87911e-06 0.000172202 0)
(5.66685e-06 0.00013173 0)
(5.3832e-06 0.000104282 0)
(-3.08618e-06 2.18995e-05 0)
(-3.50032e-06 2.99662e-05 0)
(-3.89101e-06 3.90458e-05 0)
(-9.25267e-07 9.35842e-07 0)
(-4.55886e-06 0.000160323 0)
(4.92533e-06 0.00010315 0)
(-2.86801e-06 2.2544e-05 0)
(-5.62788e-07 7.21582e-07 0)
(4.18898e-06 0.000174354 0)
(1.11338e-06 9.39592e-07 0)
(9.24516e-07 7.13582e-07 0)
(2.3165e-06 3.37869e-06 0)
(5.07362e-06 0.000140644 0)
(-8.67684e-06 0.000144446 0)
(1.14761e-05 0.000174846 0)
(2.34454e-06 3.54959e-06 0)
(5.08072e-06 6.92585e-05 0)
(6.89511e-06 0.00014897 0)
(-1.11652e-05 0.000141002 0)
(4.30901e-06 1.10292e-05 0)
(-2.58917e-06 0.00014989 0)
(1.04457e-06 3.88825e-05 0)
(9.40238e-07 2.98141e-05 0)
(-1.63541e-06 0.000131929 0)
(-4.18516e-07 2.04844e-06 0)
(2.94503e-06 8.19905e-05 0)
(9.22216e-08 3.70219e-08 0)
(-3.62185e-06 7.51258e-06 0)
(-6.35798e-07 6.77005e-05 0)
(-1.61134e-06 1.35141e-05 0)
(-1.87316e-06 1.36016e-05 0)
(3.34385e-06 9.40006e-05 0)
(3.8867e-06 9.38296e-05 0)
(4.15559e-06 0.000120571 0)
(3.57501e-06 0.000120755 0)
(1.07065e-07 4.20616e-07 0)
(-3.44614e-08 5.09723e-06 0)
(-6.10443e-06 8.46613e-05 0)
(-6.58849e-06 0.000110722 0)
(3.35619e-06 1.84032e-05 0)
(-2.01341e-06 1.10552e-05 0)
(-1.16386e-06 0.000113779 0)
(-1.84361e-06 4.79597e-06 0)
(3.49844e-06 0.000172722 0)
(-2.91658e-06 5.78772e-05 0)
(-3.37529e-06 5.77348e-05 0)
(1.06183e-07 1.11844e-07 0)
(-1.94008e-06 5.98121e-05 0)
(-1.0188e-06 1.24506e-05 0)
(2.1824e-06 9.62519e-05 0)
(2.32895e-06 0.000123158 0)
(-2.68047e-06 0.000113797 0)
(-2.37125e-06 8.74745e-05 0)
(1.21538e-06 1.68093e-05 0)
(1.6542e-06 6.40959e-06 0)
(1.53666e-06 6.18027e-06 0)
(7.42492e-07 5.77125e-05 0)
(-1.01628e-06 0.000120528 0)
(-9.57449e-07 9.37734e-05 0)
(4.16139e-07 1.36053e-05 0)
(-9.56278e-07 2.32115e-05 0)
(-1.73589e-06 4.92821e-06 0)
(6.5459e-06 0.000176722 0)
(-6.46643e-06 0.000106676 0)
(5.01212e-06 5.10595e-05 0)
(-5.84653e-06 7.63956e-05 0)
(6.9798e-06 0.000149631 0)
(-6.60245e-06 4.70214e-05 0)
(-6.04905e-06 3.7208e-05 0)
(7.90896e-06 8.12022e-05 0)
(-5.41897e-06 2.83211e-05 0)
(-4.72447e-06 2.04356e-05 0)
(8.59501e-06 0.000107002 0)
(9.06723e-06 0.000134563 0)
(-2.39322e-06 0.000128872 0)
(-2.2593e-06 0.000101625 0)
(1.44259e-06 3.17114e-05 0)
(1.27424e-06 2.34066e-05 0)
(1.59563e-06 4.0982e-05 0)
(1.3781e-06 3.21578e-05 0)
(-2.27458e-06 0.000128163 0)
(1.52264e-06 4.1475e-05 0)
(1.21902e-06 2.38018e-05 0)
(-2.14613e-06 0.000100957 0)
(-1.2806e-06 0.000162804 0)
(-2.71478e-06 3.622e-06 0)
(-2.88186e-06 1.6652e-05 0)
(5.79884e-06 0.000114148 0)
(5.39101e-06 8.78391e-05 0)
(-1.80692e-06 2.23087e-05 0)
(3.11312e-06 0.000103538 0)
(8.60853e-06 0.000127716 0)
(8.10748e-06 0.000100546 0)
(-4.86631e-06 2.41298e-05 0)
(-5.50345e-06 3.25133e-05 0)
(-6.07988e-06 4.18558e-05 0)
(9.0675e-06 0.000139169 0)
(9.89988e-06 0.000138995 0)
(2.31277e-07 4.35882e-06 0)
(-9.55606e-07 6.66179e-05 0)
(-2.6059e-06 7.32809e-06 0)
(1.34891e-07 2.6305e-07 0)
(-2.55712e-06 9.27566e-06 0)
(-4.19081e-07 0.000148247 0)
(1.0088e-07 4.17396e-06 0)
(-2.04459e-06 7.12763e-05 0)
(8.25452e-06 9.37773e-05 0)
(-3.94823e-06 1.37116e-05 0)
(8.82311e-06 0.000120506 0)
(-9.02642e-09 -6.25128e-09 0)
(5.21825e-07 0.000111519 0)
(1.70728e-07 7.25908e-08 0)
(1.16384e-07 8.81366e-08 0)
(1.44638e-06 8.07051e-05 0)
(-1.95774e-07 1.62831e-07 0)
(6.69054e-06 0.000178026 0)
(4.73995e-07 0.000102029 0)
(-2.94921e-07 2.31423e-05 0)
(1.54121e-06 9.44033e-06 0)
(8.98814e-07 0.000101718 0)
(-5.57109e-07 2.33083e-05 0)
(-9.9063e-08 2.13237e-06 0)
(-6.49407e-06 3.72972e-05 0)
(-5.81909e-06 2.84031e-05 0)
(-5.07413e-06 2.0513e-05 0)
(-4.2531e-06 1.37438e-05 0)
(8.88814e-06 9.37422e-05 0)
(9.22044e-06 0.000106887 0)
(9.50055e-06 0.000120467 0)
(9.73052e-06 0.000134443 0)
(-4.35219e-06 0.000144865 0)
(-3.87179e-06 0.000171779 0)
(-1.24401e-05 0.000142265 0)
(4.70629e-06 1.05681e-05 0)
(2.79863e-06 0.000181971 0)
(3.26079e-06 0.000181197 0)
(8.54289e-07 9.95134e-05 0)
(9.25904e-07 0.000126643 0)
(-7.1821e-07 4.25805e-05 0)
(-6.50159e-07 3.316e-05 0)
(-5.74997e-07 2.46908e-05 0)
(-3.75541e-06 1.10365e-05 0)
(1.36052e-06 7.95391e-06 0)
(-4.93626e-06 4.45627e-05 0)
(6.35109e-06 9.69114e-05 0)
(-4.49104e-06 3.497e-05 0)
(-3.99919e-06 2.63113e-05 0)
(6.7678e-06 0.000123855 0)
(-2.85053e-06 1.22134e-05 0)
(6.84888e-06 0.00013794 0)
(1.14506e-06 6.38676e-05 0)
(-7.55743e-07 0.000153802 0)
(7.71118e-07 3.8999e-07 0)
(-5.59955e-07 0.000135344 0)
(3.32308e-07 2.77815e-05 0)
(3.70555e-07 3.66221e-05 0)
(3.37643e-07 4.63539e-05 0)
(2.11911e-06 0.000159256 0)
(-3.19893e-07 2.07329e-07 0)
(1.08823e-05 0.000156744 0)
(-1.6855e-06 6.76055e-05 0)
(-5.43302e-08 1.21082e-07 0)
(3.89083e-06 9.54359e-05 0)
(-1.8187e-06 1.28425e-05 0)
(4.15324e-06 0.000122286 0)
(9.28668e-08 7.44682e-08 0)
(-2.43113e-06 1.54488e-05 0)
(4.7263e-06 9.01219e-05 0)
(5.07177e-06 0.000116601 0)
(8.6049e-07 1.16174e-06 0)
(-3.39719e-06 5.91266e-05 0)
(6.84618e-07 6.31275e-05 0)
(-7.59173e-06 0.000167357 0)
(6.69089e-07 0.000100044 0)
(7.12871e-07 0.000127194 0)
(-6.10237e-07 4.21792e-05 0)
(-4.86346e-07 2.43689e-05 0)
(-5.51832e-07 3.27957e-05 0)
(1.10797e-06 6.43294e-05 0)
(-1.71875e-07 6.68381e-07 0)
(-1.53906e-07 2.24278e-06 0)
(2.9814e-07 0.000148009 0)
(7.49263e-06 6.90571e-05 0)
(-7.11287e-06 5.7737e-05 0)
(-5.33907e-06 0.000186997 0)
(-1.20865e-05 0.000123018 0)
(-1.13367e-05 9.61394e-05 0)
(-1.17432e-05 0.000109363 0)
(-1.08651e-05 8.34178e-05 0)
(6.14993e-06 1.92352e-05 0)
(7.09185e-06 2.6923e-05 0)
(7.94402e-06 3.56369e-05 0)
(8.71586e-06 4.52778e-05 0)
(1.20004e-05 0.000123017 0)
(1.16587e-05 0.000109363 0)
(-6.1918e-06 1.92378e-05 0)
(-7.14216e-06 2.69267e-05 0)
(1.12541e-05 9.61391e-05 0)
(-8.00287e-06 3.56395e-05 0)
(1.07863e-05 8.34168e-05 0)
(-8.7814e-06 4.5281e-05 0)
(-3.61631e-06 1.07328e-05 0)
(-1.90071e-06 0.00015348 0)
(-1.36533e-06 0.000153336 0)
(-1.6899e-06 0.000173511 0)
(2.72421e-06 0.000106019 0)
(-1.54637e-06 2.08933e-05 0)
(-5.71646e-07 8.64982e-07 0)
(-2.17739e-06 0.000183248 0)
(-2.43053e-06 4.06722e-05 0)
(-2.97254e-06 4.05221e-05 0)
(-2.19392e-06 3.14319e-05 0)
(-2.68252e-06 3.12971e-05 0)
(3.45142e-06 0.000129545 0)
(4.15187e-06 0.000129604 0)
(9.16541e-06 0.00012739 0)
(8.62951e-06 0.000100241 0)
(-5.19856e-06 2.43244e-05 0)
(-5.87499e-06 3.27307e-05 0)
(-6.48699e-06 4.20939e-05 0)
(-5.62785e-06 8.49535e-05 0)
(-6.07205e-06 0.000111038 0)
(3.07509e-06 1.82308e-05 0)
(-1.79285e-06 7.62705e-05 0)
(1.48428e-06 5.11446e-05 0)
(1.78254e-06 0.000133146 0)
(-1.11555e-06 2.90313e-05 0)
(-1.24379e-06 3.80132e-05 0)
(-1.34049e-06 4.77993e-05 0)
(3.4712e-06 5.05476e-05 0)
(2.93713e-06 5.06743e-05 0)
(-4.09782e-06 7.69532e-05 0)
(-3.47451e-06 7.6799e-05 0)
(-4.09711e-06 0.000181894 0)
(2.92454e-07 8.31257e-07 0)
(6.72332e-06 0.000156913 0)
(2.44556e-06 5.60167e-05 0)
(6.60701e-06 0.000109251 0)
(-3.52458e-06 1.91801e-05 0)
(6.11073e-06 8.32987e-05 0)
(-5.76814e-06 6.68961e-05 0)
(1.4304e-06 1.45878e-05 0)
(-3.20202e-06 0.000118384 0)
(-2.99252e-06 9.17854e-05 0)
(3.7261e-07 5.82337e-05 0)
(-5.22938e-07 9.43855e-05 0)
(-5.52684e-07 0.000121179 0)
(2.07953e-07 1.33124e-05 0)
(3.86288e-06 5.28547e-05 0)
(-4.4312e-06 7.43115e-05 0)
(-2.12277e-06 0.000162801 0)
(-9.70478e-06 0.000161268 0)
(1.71709e-06 7.0962e-05 0)
(4.35599e-06 7.1179e-05 0)
(-3.70326e-06 1.41814e-05 0)
(8.12431e-06 0.000119428 0)
(7.59282e-06 9.27667e-05 0)
(-4.22588e-07 1.82374e-06 0)
(-1.34147e-06 0.000136268 0)
(7.34185e-07 2.72341e-05 0)
(8.21118e-07 3.6011e-05 0)
(8.92827e-07 4.56915e-05 0)
(-2.05039e-06 6.72824e-05 0)
(-8.99816e-06 0.000161321 0)
(-2.68817e-06 2.7266e-05 0)
(-3.0106e-06 3.60429e-05 0)
(-3.29135e-06 4.57444e-05 0)
(4.53817e-06 0.000136221 0)
(9.01384e-09 1.2295e-08 0)
(5.65649e-06 6.63718e-05 0)
(6.91091e-08 5.42918e-06 0)
(-2.89687e-07 5.1927e-07 0)
(-5.98589e-07 2.35291e-06 0)
(-2.81364e-06 9.88263e-06 0)
(-2.96817e-07 1.09939e-07 0)
(1.12125e-06 3.07108e-05 0)
(9.92152e-07 2.25074e-05 0)
(1.24301e-06 3.98761e-05 0)
(-1.907e-06 0.000130471 0)
(-1.81185e-06 0.00010316 0)
(-5.57543e-06 5.52953e-05 0)
(5.94836e-06 7.15968e-05 0)
(-5.86991e-07 3.52599e-07 0)
(7.15081e-06 0.000172508 0)
(5.14763e-06 0.000154586 0)
(-1.10734e-05 0.000145649 0)
(4.10138e-06 7.06414e-05 0)
(1.45707e-06 7.65862e-05 0)
(-2.81387e-06 0.000183167 0)
(-7.82036e-06 8.0152e-05 0)
(-7.44073e-06 7.98063e-05 0)
(1.08676e-05 0.000183113 0)
(-9.07318e-07 0.000163601 0)
(-2.51784e-06 5.09427e-05 0)
(2.9356e-06 7.65711e-05 0)
(8.73473e-08 5.617e-06 0)
(1.4475e-06 2.00735e-06 0)
(2.9361e-07 1.08793e-07 0)
(2.58823e-06 8.14673e-05 0)
(9.57337e-06 0.000186825 0)
(-5.29811e-06 0.000130493 0)
(-5.00022e-06 0.000103156 0)
(2.82029e-06 2.25325e-05 0)
(3.55851e-06 3.98835e-05 0)
(3.20868e-06 3.07213e-05 0)
(-1.08065e-07 7.73003e-08 0)
(-4.29468e-07 0.000170187 0)
(4.94302e-06 7.1384e-05 0)
(-4.57847e-06 5.5571e-05 0)
(-7.92223e-06 0.000166118 0)
(-1.18223e-05 0.000123636 0)
(-1.14888e-05 0.00010996 0)
(-1.10957e-05 9.67172e-05 0)
(-1.06372e-05 8.39723e-05 0)
(5.96411e-06 1.89112e-05 0)
(6.88852e-06 2.65517e-05 0)
(7.72486e-06 3.52225e-05 0)
(8.48242e-06 4.48244e-05 0)
(1.1735e-05 0.000123632 0)
(1.14042e-05 0.00010996 0)
(-6.00527e-06 1.89151e-05 0)
(-6.93778e-06 2.65563e-05 0)
(1.10115e-05 9.67153e-05 0)
(-7.78255e-06 3.52262e-05 0)
(1.05574e-05 8.39689e-05 0)
(-8.54682e-06 4.48288e-05 0)
(-1.8509e-06 2.53251e-06 0)
(7.28852e-07 7.05469e-07 0)
(-9.76574e-07 1.8251e-06 0)
(4.39951e-06 7.00717e-05 0)
(-4.88783e-06 7.2105e-05 0)
(9.27454e-07 1.14899e-06 0)
(-1.45949e-07 2.4416e-08 0)
(-1.06495e-05 0.000145994 0)
(6.04153e-06 0.000184963 0)
(6.78467e-06 0.000185308 0)
(1.4508e-07 2.42933e-08 0)
(2.08015e-06 2.83564e-06 0)
(9.48298e-06 0.000168591 0)
(-3.6751e-06 7.9532e-05 0)
(-2.58008e-07 2.32514e-07 0)
(-5.81453e-07 9.25344e-07 0)
(-9.13862e-08 2.34476e-08 0)
(1.70051e-07 1.36043e-07 0)
(9.93468e-06 6.3711e-05 0)
(-9.97362e-06 6.29919e-05 0)
(3.04858e-06 4.83618e-05 0)
(-3.76728e-06 7.81107e-05 0)
(3.16422e-06 4.95748e-05 0)
(-1.78757e-07 3.02646e-06 0)
(-2.31694e-06 0.000123613 0)
(1.80389e-06 6.01981e-05 0)
(-1.30705e-06 0.000122297 0)
(-1.25564e-06 9.53761e-05 0)
(5.39786e-07 1.28498e-05 0)
(9.79033e-07 5.91317e-05 0)
(-4.09558e-06 7.91359e-05 0)
(2.21625e-06 3.0021e-06 0)
(3.41733e-06 4.87183e-05 0)
(1.23821e-06 7.10681e-05 0)
(9.52996e-06 0.000174026 0)
(-2.9712e-06 7.16405e-05 0)
(-3.4115e-06 7.2116e-05 0)
(-2.899e-06 6.3025e-06 0)
(-3.30768e-06 7.43531e-05 0)
(-2.83333e-06 7.38496e-05 0)
(2.91374e-06 5.27704e-05 0)
(2.55535e-06 5.32788e-05 0)
(-3.20776e-06 1.5129e-05 0)
(6.3355e-06 9.08036e-05 0)
(6.7931e-06 0.000117329 0)
(-9.11468e-07 1.03901e-06 0)
(-4.10372e-06 7.85159e-05 0)
(3.4403e-06 4.92493e-05 0)
(-2.61603e-06 0.00010045 0)
(-2.77488e-06 0.000127625 0)
(1.507e-06 2.41076e-05 0)
(1.87977e-06 4.18543e-05 0)
(1.70249e-06 3.25021e-05 0)
(-1.43238e-06 6.80241e-06 0)
(-8.49765e-06 0.000105809 0)
(-8.05451e-06 0.000105482 0)
(4.63961e-06 2.10849e-05 0)
(4.41143e-06 2.12649e-05 0)
(5.56883e-06 8.44197e-05 0)
(6.12627e-06 8.40132e-05 0)
(-3.15558e-06 1.85313e-05 0)
(-3.49173e-06 1.87718e-05 0)
(6.0134e-06 0.000110463 0)
(6.61832e-06 0.000110023 0)
(-2.46349e-06 0.000162213 0)
(4.80977e-06 0.000148342 0)
(4.87961e-06 0.000147661 0)
(-3.68242e-06 4.95797e-05 0)
(4.21494e-06 7.80917e-05 0)
(-1.27533e-05 0.000180458 0)
(-3.69445e-06 0.000144459 0)
(-3.54932e-06 0.000143793 0)
(1.28036e-06 9.82984e-06 0)
(1.31693e-06 9.58326e-06 0)
(1.09417e-05 0.000146035 0)
(-4.94679e-06 6.32447e-05 0)
(-4.25086e-06 6.32666e-05 0)
(1.08236e-05 0.000164566 0)
(-1.1017e-05 0.000173349 0)
(-1.10029e-05 0.000174164 0)
(-3.64698e-07 1.88624e-06 0)