/*--------------------------------*- C++ -*----------------------------------*\
| =========                 |                                                 |
| \\      /  F ield         | OpenFOAM: The Open Source CFD Toolbox           |
|  \\    /   O peration     | Version:  2.3.1                                 |
|   \\  /    A nd           | Web:      www.OpenFOAM.org                      |
|    \\/     M anipulation  |                                                 |
\*---------------------------------------------------------------------------*/
FoamFile
{
    version     2.0;
    format      ascii;
    class       volScalarField;
    location    "0.27";
    object      k;
}
// * * * * * * * * * * * * * * * * * * * * * * * * * * * * * * * * * * * * * //

dimensions      [0 2 -2 0 0 0 0];

internalField   nonuniform List<scalar> 
9648
(
2.69968
2.70481
2.70147
2.69552
2.6859
2.67221
2.65482
2.63348
2.6081
2.57864
2.54526
2.50829
2.46824
2.42577
2.38158
2.33646
2.29114
2.24631
2.20255
2.16033
2.12003
2.08189
2.0461
2.01277
1.98195
1.95366
1.92787
1.90452
1.88352
1.86476
1.84813
1.83356
1.82097
1.81032
1.80152
1.79449
1.78912
1.78533
1.78302
1.78212
1.78263
1.78449
1.78767
1.7922
1.79802
1.80514
1.81361
1.82343
1.83467
1.84733
1.86147
1.87716
1.89443
1.91324
1.93357
1.95519
1.97771
2.00055
2.02325
2.04547
2.06695
1.72832
1.72768
1.72504
1.72294
1.72342
1.72923
1.74234
1.76314
1.79153
1.82755
1.8707
1.92023
1.97517
2.03451
2.09723
2.1624
2.22917
2.29679
2.36467
2.4323
2.4993
2.56537
2.63032
2.694
2.75636
2.81743
2.87729
2.93597
2.99349
3.04993
3.10541
3.16001
3.21391
3.26728
3.32022
3.37266
3.42465
3.4762
3.52721
3.57776
3.62795
3.67799
3.72791
3.77763
3.82723
3.87648
3.92536
3.97401
4.02248
4.07069
4.11839
4.16562
4.21245
4.25845
4.30387
4.34846
4.39241
4.43501
4.47654
4.51706
4.55662
1.44887
1.49621
1.54825
1.60656
1.67249
1.74654
1.82845
1.91803
2.01455
2.11735
2.22518
2.33709
2.45193
2.56855
2.68584
2.8028
2.91861
3.03248
3.14382
3.25218
3.35721
3.4587
3.5565
3.65059
3.74106
3.82804
3.91174
3.99229
4.06989
4.14473
4.21694
4.28678
4.35456
4.42045
4.48465
4.54744
4.60873
4.66862
4.72707
4.784
4.83976
4.8944
4.94817
5.00123
5.05334
5.10458
5.15481
5.20407
5.25224
5.29935
5.34541
5.39044
5.43466
5.47737
5.5195
5.56002
5.59969
5.63742
5.67444
5.71033
5.74515
1.39773
1.49261
1.59557
1.70633
1.82502
1.95171
2.08582
2.22641
2.37226
2.52215
2.67458
2.82828
2.98185
3.13423
3.28426
3.43096
3.57359
3.71153
3.84433
3.97169
4.09344
4.20941
4.31968
4.42439
4.52379
4.61814
4.70781
4.79313
4.87444
4.95201
5.02614
5.09711
5.16511
5.23055
5.2938
5.35513
5.41505
5.4734
5.53005
5.5852
5.63846
5.69043
5.74131
5.79113
5.84025
5.88842
5.93577
5.98228
6.02772
6.07215
6.11565
6.1579
6.19916
6.23925
6.27866
6.31685
6.35385
6.38965
6.42432
6.45791
6.49022
1.45614
1.59193
1.73812
1.89333
2.05672
2.22774
2.40526
2.58772
2.77362
2.96118
3.14872
3.33461
3.5176
3.69655
3.87039
4.03809
4.19902
4.3528
4.49911
4.63792
4.76913
4.89275
5.00897
5.11804
5.22043
5.31662
5.40705
5.49227
5.57263
5.64859
5.72051
5.78858
5.85331
5.91497
5.97385
6.03083
6.08586
6.13927
6.19119
6.24102
6.28952
6.3364
6.38183
6.42626
6.46929
6.51156
6.55307
6.5938
6.63382
6.67267
6.71049
6.74719
6.78268
6.81701
6.85035
6.8828
6.91405
6.94418
6.9731
7.0007
7.02701
1.56435
1.7361
1.92065
2.11555
2.31873
2.52885
2.7442
2.9629
3.18289
3.40197
3.61831
3.82997
4.03591
4.23486
4.42625
4.60885
4.78202
4.94582
5.09989
5.2446
5.38004
5.50609
5.62333
5.73188
5.83261
5.92617
6.01316
6.09428
6.16981
6.24028
6.30621
6.36796
6.42608
6.48104
6.53321
6.5826
6.63027
6.6757
6.71902
6.76148
6.80198
6.84162
6.88025
6.91681
6.9523
6.98638
7.0199
7.05294
7.0853
7.11682
7.14719
7.1764
7.2045
7.2313
7.2571
7.28185
7.30563
7.32834
7.34971
7.36954
7.38819
1.70169
1.90619
2.12584
2.35674
2.5955
2.84031
3.08881
3.33878
3.58801
3.83332
4.07332
4.30528
4.52866
4.74212
4.94625
5.13876
5.3193
5.48849
5.6456
5.79174
5.92729
6.05157
6.166
6.26999
6.36517
6.45254
6.53251
6.60651
6.67402
6.73587
6.79303
6.84519
6.894
6.93992
6.98237
7.02274
7.06056
7.09543
7.12887
7.1598
7.1904
7.22054
7.24948
7.27782
7.30326
7.32748
7.35112
7.37409
7.39704
7.41913
7.44024
7.46014
7.47891
7.4963
7.51239
7.52772
7.54221
7.55568
7.56759
7.57778
7.58679
1.85613
2.0904
2.34214
2.60566
2.87616
3.15103
3.42822
3.70525
3.97931
4.24643
4.50574
4.75309
4.98908
5.21164
5.4243
5.62263
5.80655
5.97776
6.13379
6.27721
6.40936
6.52797
6.6369
6.73273
6.81868
6.89638
6.96598
7.03006
7.08668
7.13725
7.18319
7.22317
7.25967
7.29332
7.32393
7.35189
7.37837
7.40127
7.42115
7.44018
7.45703
7.47387
7.49151
7.50739
7.5216
7.53423
7.54546
7.55648
7.56721
7.57767
7.58706
7.59527
7.60266
7.60823
7.61252
7.61627
7.61883
7.62139
7.62181
7.61993
7.61746
2.01825
2.27666
2.55745
2.84744
3.14743
3.44701
3.7473
4.04926
4.34199
4.62831
4.90204
5.16329
5.40699
5.63408
5.84991
6.05095
6.23533
6.40552
6.56141
6.6989
6.82296
6.93345
7.03292
7.12118
7.1949
7.25888
7.31576
7.36725
7.40984
7.44695
7.47982
7.50679
7.52897
7.54711
7.56132
7.57521
7.58577
7.59378
7.60102
7.60369
7.60418
7.60347
7.60525
7.60696
7.60697
7.60767
7.60289
7.59928
7.59357
7.58835
7.58133
7.57404
7.56726
7.55847
7.54853
7.53849
7.52516
7.51623
7.5025
7.48513
7.46919
2.08746
2.10691
2.12549
2.14319
2.16009
2.17635
2.19225
2.20817
2.22345
2.23786
2.25111
2.26383
2.27613
2.28829
2.30055
2.31356
2.32772
2.34333
2.36072
2.3803
2.40168
2.42441
2.4482
2.47266
2.4975
2.52277
2.54853
2.57455
2.60077
2.62724
2.65407
2.68116
2.70851
2.73628
2.76439
2.79284
2.82172
2.8511
2.88095
2.91118
2.94189
2.9732
3.00507
3.03745
3.07047
3.10396
3.13792
3.17251
3.20776
3.24353
3.27989
3.3169
3.35469
3.39301
3.43221
3.4722
3.5133
3.55523
3.59832
3.64271
3.68849
4.59531
4.63194
4.66766
4.70252
4.73628
4.76853
4.79882
4.82785
4.85471
4.88083
4.90525
4.92869
4.95105
4.97241
4.99259
5.01151
5.0293
5.04593
5.06143
5.07578
5.08902
5.1012
5.11218
5.12203
5.13076
5.13829
5.1445
5.14918
5.15242
5.15421
5.15455
5.15346
5.15101
5.14717
5.14198
5.13552
5.12774
5.11874
5.10848
5.097
5.08434
5.07055
5.05571
5.03977
5.02271
5.00447
4.98493
4.96417
4.94209
4.91874
4.89406
4.86799
4.84069
4.81167
4.78169
4.75012
4.7176
4.68367
4.64939
4.61464
4.57959
5.77833
5.81045
5.84105
5.8707
5.89931
5.92729
5.95327
5.97768
6.00006
6.02121
6.0408
6.05919
6.07622
6.0922
6.10686
6.12018
6.13217
6.14283
6.15214
6.16008
6.16674
6.17207
6.17608
6.17879
6.18018
6.18024
6.179
6.17638
6.17236
6.16688
6.15999
6.15162
6.14178
6.13053
6.11786
6.10381
6.08835
6.07152
6.0533
6.03374
6.01292
5.99091
5.96778
5.94355
5.91819
5.89165
5.86376
5.83449
5.80378
5.77162
5.73798
5.70262
5.66564
5.62688
5.58655
5.54433
5.50047
5.45522
5.40906
5.3621
5.31449
6.52149
6.55141
6.58005
6.60716
6.63308
6.65782
6.6811
6.70241
6.72218
6.7404
6.75708
6.77218
6.78572
6.79779
6.80831
6.81741
6.82504
6.83117
6.83576
6.83883
6.84042
6.84062
6.83942
6.83687
6.8329
6.82747
6.82059
6.81229
6.80257
6.79141
6.77876
6.76455
6.7488
6.73152
6.71278
6.69257
6.67085
6.6476
6.62281
6.59655
6.56894
6.54009
6.51018
6.47928
6.44745
6.41462
6.38058
6.34528
6.30865
6.2707
6.23128
6.19026
6.14761
6.10322
6.05703
6.00884
5.95884
5.90734
5.85483
5.80138
5.74742
7.052
7.07577
7.09806
7.11876
7.13774
7.15514
7.17104
7.18544
7.19843
7.21003
7.22009
7.22867
7.23575
7.24126
7.24527
7.24787
7.24889
7.24835
7.24617
7.24235
7.23701
7.23028
7.22225
7.21297
7.20234
7.19031
7.1769
7.16216
7.14618
7.12895
7.11043
7.09042
7.06893
7.04595
7.02162
6.99588
6.96863
6.93983
6.90937
6.87733
6.84387
6.80911
6.77336
6.73685
6.69971
6.66196
6.62323
6.58353
6.54276
6.50106
6.45806
6.41354
6.36761
6.31999
6.27058
6.21889
6.16539
6.11017
6.05398
5.99676
5.93911
7.40547
7.4214
7.43574
7.4486
7.45971
7.46909
7.47687
7.483
7.48762
7.49071
7.4924
7.4927
7.49153
7.48881
7.48454
7.47893
7.47189
7.46322
7.45278
7.4405
7.42662
7.41138
7.39495
7.37748
7.35876
7.33869
7.31731
7.29468
7.2711
7.2467
7.22146
7.19493
7.16717
7.13804
7.10787
7.07645
7.04354
7.00917
6.97308
6.9353
6.89597
6.85517
6.81337
6.77101
6.72839
6.68582
6.64247
6.59876
6.5543
6.50967
6.46406
6.41696
6.36886
6.31919
6.26802
6.21417
6.15856
6.10095
6.04281
5.98344
5.92372
7.59454
7.60097
7.60583
7.60909
7.61061
7.61035
7.60829
7.60489
7.59989
7.59307
7.5849
7.57559
7.56488
7.55261
7.5387
7.5237
7.50768
7.49003
7.47043
7.44859
7.42494
7.40001
7.37396
7.34722
7.31949
7.29032
7.25982
7.22789
7.19535
7.16256
7.12997
7.09641
7.06226
7.02695
6.99129
6.95472
6.91643
6.87682
6.83559
6.79269
6.74807
6.70152
6.65375
6.60547
6.55717
6.50997
6.46186
6.4144
6.36643
6.31986
6.27291
6.22409
6.17493
6.12431
6.0729
6.0178
5.96149
5.90256
5.84433
5.78434
5.7244
7.61355
7.6087
7.60216
7.59445
7.58499
7.57409
7.56106
7.54774
7.53299
7.51561
7.49692
7.47773
7.45706
7.43496
7.41046
7.38517
7.36022
7.33397
7.30578
7.27426
7.2401
7.20517
7.16898
7.13224
7.09542
7.0571
7.01738
6.97499
6.93167
6.88879
6.84835
6.80717
6.76697
6.72594
6.68625
6.64657
6.60391
6.55921
6.51369
6.46755
6.41919
6.36803
6.3152
6.26146
6.20749
6.15651
6.10336
6.05252
6.00087
5.95371
5.90744
5.85789
5.80887
5.75856
5.70876
5.65318
5.59769
5.53825
5.48209
5.42333
5.36564
7.45014
7.43168
7.40999
7.38927
7.36575
7.3445
7.31904
7.29622
7.2733
7.24766
7.22007
7.19282
7.16326
7.13358
7.09841
7.06085
7.02694
6.99424
6.96199
6.92481
6.87921
6.83612
6.79131
6.74402
6.69819
6.65208
6.60707
6.55607
6.49921
6.44361
6.39441
6.34428
6.2978
6.25136
6.21153
6.17378
6.12997
6.07974
6.03031
5.98392
5.93628
5.88302
5.82624
5.76912
5.71066
5.65778
5.59874
5.54488
5.48824
5.44319
5.40045
5.35065
5.30363
5.25596
5.21036
5.15481
5.10166
5.04192
4.99001
4.93469
4.8825
3.73566
3.78387
3.83336
3.88411
3.93614
3.98958
4.04432
4.10047
4.15773
4.21609
4.27593
4.33636
4.39817
4.46361
4.54916
4.61953
4.69196
4.76519
4.83922
4.91419
4.99012
5.067
5.14472
5.22322
5.30228
5.38167
5.46125
5.54086
5.62028
5.69919
5.77748
5.85484
5.93086
6.00533
6.07788
6.14797
6.21513
6.27831
6.33286
6.37267
6.39952
6.41399
6.41598
6.40479
6.37938
6.33828
6.27959
6.20097
6.09968
5.97251
5.81566
5.62464
5.39439
5.11836
4.77195
4.22605
3.97523
3.8478
3.79794
3.77429
3.72264
4.54395
4.50803
4.47138
4.43409
4.39612
4.35814
4.31988
4.28209
4.24419
4.20667
4.17072
4.12636
4.0817
4.04006
3.99174
3.94757
3.90255
3.85736
3.81247
3.7681
3.72423
3.68062
3.63718
3.59391
3.55075
3.50774
3.46489
3.42231
3.38004
3.33815
3.29676
3.25601
3.21601
3.177
3.13923
3.10301
3.06876
3.03705
3.00867
2.98474
2.963
2.9436
2.92698
2.9137
2.90467
2.90081
2.90315
2.91301
2.93184
2.96091
3.00145
3.05455
3.1215
3.20416
3.29313
3.42818
3.60538
3.8787
4.26645
4.76774
5.08476
5.26646
5.21802
5.16885
5.11863
5.06728
5.01529
4.96294
4.91064
4.85787
4.80495
4.74616
4.68055
4.61838
4.55894
4.49966
4.44152
4.38223
4.32198
4.26128
4.20054
4.1398
4.07882
4.01759
3.95609
3.89424
3.83208
3.76959
3.7068
3.64365
3.58017
3.51633
3.45215
3.38768
3.32294
3.25802
3.193
3.128
3.06314
2.99856
2.93447
2.87081
2.80724
2.74444
2.68311
2.62358
2.56646
2.51262
2.46331
2.4202
2.38548
2.36194
2.35321
2.364
2.39973
2.46348
2.5665
2.71307
2.9342
3.27506
3.78738
4.40456
5.69313
5.63888
5.58408
5.5283
5.47111
5.41324
5.35501
5.29699
5.23839
5.17896
5.1097
5.03719
4.9694
4.9045
4.84095
4.77831
4.71493
4.65097
4.58669
4.52245
4.4582
4.39351
4.32853
4.26333
4.19778
4.13198
4.06587
3.99947
3.93266
3.86543
3.79774
3.72961
3.66106
3.59216
3.52294
3.45348
3.38385
3.31409
3.24421
3.17423
3.1041
3.03377
2.96247
2.89037
2.81801
2.74552
2.67313
2.60131
2.53074
2.46252
2.39812
2.33971
2.29026
2.25353
2.23333
2.23589
2.26959
2.35231
2.51387
2.79793
3.23
5.88109
5.82356
5.76572
5.70707
5.6465
5.58522
5.52348
5.4623
5.40038
5.33724
5.26348
5.18858
5.1186
5.0518
4.98635
4.92171
4.85658
4.79165
4.72681
4.66238
4.598
4.53292
4.46763
4.40225
4.33654
4.27067
4.20453
4.13813
4.07125
4.00389
3.93603
3.86776
3.79912
3.73025
3.66118
3.59205
3.52292
3.45385
3.38483
3.3159
3.24704
3.17827
3.10945
3.03995
2.96969
2.89879
2.82729
2.75527
2.6829
2.6105
2.5385
2.46751
2.39849
2.33269
2.27172
2.21862
2.17952
2.16531
2.19297
2.28797
2.48028
5.86324
5.80402
5.74482
5.6851
5.62251
5.55919
5.49504
5.43219
5.36872
5.30439
5.22952
5.15509
5.08529
5.01922
4.95386
4.88925
4.82406
4.76013
4.69677
4.63433
4.57203
4.50851
4.44511
4.382
4.3185
4.25504
4.1912
4.12717
4.06245
3.99721
3.93136
3.86525
3.79889
3.73255
3.66621
3.60007
3.53419
3.46867
3.40348
3.33871
3.27436
3.21049
3.1471
3.08403
3.02077
2.95691
2.89247
2.82751
2.76209
2.69628
2.63019
2.56385
2.49726
2.43041
2.36316
2.29619
2.23197
2.17594
2.13713
2.12919
2.17111
5.66234
5.60282
5.54373
5.485
5.42141
5.35734
5.29161
5.22874
5.16555
5.10269
5.02869
4.95677
4.88881
4.82581
4.76223
4.69969
4.63582
4.57476
4.51453
4.45576
4.39719
4.33635
4.27656
4.21794
4.15859
4.09951
4.03964
3.97984
3.91878
3.85723
3.79484
3.73266
3.67039
3.60866
3.54706
3.48609
3.42555
3.36579
3.30666
3.24843
3.19096
3.13451
3.07899
3.02437
2.97044
2.91668
2.86244
2.80776
2.75278
2.69763
2.64236
2.58696
2.53123
2.47472
2.41682
2.35692
2.29519
2.23339
2.17537
2.12769
2.10043
5.30273
5.2439
5.18648
5.13132
5.06799
5.00479
4.93826
4.87732
4.81645
4.7579
4.68606
4.61791
4.5527
4.49487
4.4341
4.37553
4.31392
4.25743
4.20165
4.1475
4.09369
4.03575
3.98076
3.92913
3.87543
3.8219
3.76668
3.71241
3.65553
3.59843
3.53998
3.48311
3.4262
3.37086
3.31547
3.26133
3.20741
3.15496
3.10347
3.0537
3.00497
2.95791
2.91231
2.86787
2.8245
2.7823
2.73973
2.69673
2.65372
2.61093
2.56865
2.52682
2.4853
2.44353
2.40079
2.35615
2.30887
2.25881
2.20692
2.1556
2.1093
4.81978
4.76134
4.70761
4.65888
4.59739
4.53653
4.46967
4.41324
4.35723
4.30566
4.237
4.17292
4.11027
4.05954
4.0017
3.94912
3.89012
3.84002
3.78954
3.73946
3.69055
3.63463
3.58549
3.54494
3.49735
3.44827
3.39694
3.34932
3.2955
3.24244
3.18682
3.13707
3.08602
3.03877
2.98994
2.94359
2.89558
2.85113
2.80823
2.76847
2.72981
2.69333
2.65889
2.62567
2.59251
2.56008
2.52812
2.49545
2.46429
2.43359
2.40573
2.37895
2.35393
2.32909
2.30424
2.278
2.24975
2.21852
2.18431
2.1468
2.10754
3.63074
3.52845
3.41779
3.30044
3.18191
3.06533
2.95318
2.84871
2.75468
2.6728
2.60376
2.54741
2.50285
2.46871
2.44339
2.42528
2.41281
2.40481
2.40031
2.39853
2.3989
2.401
2.40454
2.40937
2.41539
2.4225
2.43063
2.43975
2.44984
2.46084
2.47266
2.48524
2.49848
2.51219
2.52622
2.54036
2.55439
2.56806
2.58112
2.59335
2.60449
2.61432
2.62272
2.62963
2.63507
2.63919
2.64221
2.64443
2.64622
2.64804
2.65025
2.65312
2.65683
2.66154
2.66708
2.67326
2.67967
2.68606
2.69186
2.69649
2.69946
5.07382
4.99656
4.86973
4.69353
4.49975
4.29097
4.06553
3.83059
3.59408
3.3633
3.14364
2.94053
2.7567
2.5926
2.44839
2.32521
2.22242
2.13766
2.06846
2.01271
1.96835
1.93336
1.90607
1.88518
1.86968
1.85878
1.85187
1.84857
1.84853
1.85146
1.85712
1.86523
1.87549
1.88754
1.90098
1.91538
1.93023
1.94507
1.9593
1.97227
1.98326
1.99147
1.99596
1.99584
1.99037
1.97897
1.96137
1.93783
1.90926
1.87725
1.84389
1.81158
1.78273
1.75921
1.74195
1.7313
1.72633
1.72572
1.72726
1.72904
1.72964
4.90596
5.25945
5.44984
5.45109
5.3137
5.11565
4.85889
4.56808
4.2595
3.94438
3.63409
3.33902
3.06576
2.81848
2.5996
2.41001
2.24784
2.10889
1.99119
1.89416
1.81582
1.75369
1.70513
1.66762
1.63901
1.61761
1.60218
1.5918
1.58571
1.58329
1.58405
1.58751
1.59314
1.60033
1.60853
1.61716
1.62564
1.63337
1.6397
1.64397
1.64549
1.64364
1.63782
1.62745
1.61203
1.5912
1.56475
1.5328
1.49588
1.45513
1.41249
1.37077
1.33336
1.30367
1.28443
1.27759
1.28349
1.30136
1.32928
1.365
1.40546
3.76844
4.35942
4.92214
5.35062
5.56534
5.60261
5.47792
5.23104
4.92175
4.56989
4.20295
3.8433
3.50251
3.1908
2.9122
2.66617
2.44947
2.26056
2.09812
1.9616
1.84934
1.75939
1.68894
1.63467
1.59335
1.56242
1.53996
1.52451
1.51487
1.51002
1.50927
1.51195
1.51733
1.52459
1.53296
1.54167
1.54995
1.55702
1.56208
1.56431
1.56288
1.55706
1.54615
1.52958
1.50692
1.47798
1.4428
1.40173
1.35541
1.30492
1.25201
1.19934
1.15058
1.11029
1.0834
1.07442
1.08553
1.11688
1.1669
1.23285
1.31086
2.78953
3.22488
3.77061
4.36601
4.91141
5.32841
5.56653
5.60151
5.47096
5.20339
4.85068
4.46951
4.07959
3.70674
3.36432
3.05458
2.77849
2.53358
2.32068
2.1399
1.98935
1.86757
1.7716
1.69728
1.64037
1.5973
1.56551
1.54308
1.52834
1.51986
1.5167
1.5181
1.52319
1.53096
1.54047
1.5508
1.56101
1.57021
1.57743
1.5817
1.58204
1.57758
1.56748
1.55107
1.52774
1.49727
1.45965
1.41521
1.36446
1.30842
1.24861
1.1875
1.12863
1.07696
1.03918
1.02238
1.03135
1.06892
1.13445
1.22406
1.33262
2.28484
2.49399
2.81744
3.25791
3.78652
4.34691
4.86239
5.25086
5.4647
5.49196
5.34786
5.07758
4.71501
4.31963
3.93171
3.5604
3.22199
2.91641
2.6421
2.40423
2.20489
2.04326
1.9158
1.81675
1.74037
1.68172
1.63753
1.60547
1.58341
1.56933
1.562
1.56059
1.56412
1.57139
1.58129
1.59275
1.60471
1.61614
1.62596
1.63307
1.63633
1.63481
1.62754
1.61372
1.59256
1.56379
1.52723
1.48321
1.43203
1.37459
1.31222
1.2472
1.18289
1.12407
1.07775
1.05241
1.05557
1.09333
1.16747
1.27469
1.40896
2.10754
2.16697
2.29943
2.52467
2.85391
3.28269
3.7824
4.29813
4.76125
5.10591
5.28681
5.29494
5.14977
4.88517
4.54644
4.15891
3.77776
3.41472
3.06884
2.76049
2.4975
2.28331
2.11487
1.98375
1.88168
1.80196
1.74069
1.69523
1.66287
1.64062
1.62687
1.6206
1.62078
1.62596
1.63487
1.64627
1.65895
1.67174
1.68346
1.69288
1.69874
1.70008
1.6958
1.68506
1.66684
1.64082
1.60673
1.56486
1.51534
1.45905
1.39715
1.33186
1.26635
1.20505
1.15457
1.12399
1.12258
1.15936
1.23934
1.36097
1.5177
2.07517
2.06355
2.08836
2.16652
2.31576
2.55058
2.87676
3.28354
3.7415
4.20066
4.60087
4.8901
5.04033
5.04126
4.90896
4.66718
4.35281
3.99332
3.59576
3.21733
2.87668
2.59527
2.37466
2.2021
2.06653
1.959
1.87467
1.81053
1.76396
1.73032
1.70744
1.69384
1.68856
1.68982
1.69612
1.70599
1.7181
1.73109
1.74366
1.75443
1.76212
1.76572
1.76407
1.75633
1.74117
1.71829
1.6873
1.64846
1.60179
1.54809
1.48852
1.42514
1.36096
1.3002
1.24905
1.21661
1.21317
1.25008
1.33529
1.46961
1.6463
2.06938
2.03704
2.01845
2.02386
2.06654
2.16128
2.32227
2.55893
2.87075
3.24528
3.64754
4.04088
4.38212
4.63614
4.77317
4.78446
4.67187
4.44267
4.13446
3.74933
3.3367
2.98703
2.71003
2.489
2.30875
2.16284
2.04584
1.95671
1.89119
1.84166
1.80627
1.78204
1.76857
1.76369
1.76546
1.77212
1.78225
1.79409
1.80638
1.81722
1.82592
1.83086
1.83138
1.82621
1.81417
1.79444
1.76722
1.7317
1.68878
1.63842
1.58256
1.52258
1.46155
1.40382
1.35467
1.32298
1.31971
1.35827
1.44794
1.59316
1.78537
0.264706
6.48918
6.17186
0.226699
0.318509
0.123429
0.00318286
2.53562
0.00336061
0.0231735
3.47898
1.06152
0.00318216
6.16358
0.108022
5.40398
0.00325584
2.63252
3.77582
0.00320516
0.228056
6.00876
6.27734
0.00330864
0.00331736
0.105293
0.00320157
0.522511
0.00324254
0.00345337
0.62121
0.00351975
0.0162418
2.71164
0.775323
3.55804
2.71362
1.55915
0.00317339
2.695
1.89238
1.93471
0.00320533
4.67617
3.34721
0.276885
0.00363708
0.0148851
0.177968
1.08578
6.67982
7.74627
0.00316346
0.00408535
0.0384554
0.0502552
0.00344308
0.691136
2.58935
7.4043
2.61536
0.00366288
0.167422
0.031606
6.45092
0.299507
2.15926
1.83088
0.00433935
0.00321184
1.09177
2.53722
1.72165
0.0119535
0.0401046
4.27707
6.78461
3.23494
0.00314556
0.922679
0.00702181
2.6767
0.0117962
4.77784
0.00321684
1.06332
0.00334513
2.36365
0.0152029
0.00487943
0.116765
0.00314093
0.00376203
7.58112
5.44727
0.00357861
0.432293
0.259029
0.0060253
6.58872
0.127522
2.27231
0.74186
0.00313691
0.00317027
0.00315924
0.30501
0.123861
0.00324854
6.09256
6.78409
0.00952742
4.75088
1.61211
2.74452
2.92248
1.94014
0.00392255
0.0840518
0.00418564
0.00401701
3.60188
0.00687582
7.37996
7.6995
1.02692
0.00321029
1.00457
1.01082
0.00320631
0.0340957
0.0331714
1.7561
0.0055449
3.26192
0.00321473
0.00316681
7.66783
7.78927
0.00322145
0.139346
5.6062
0.105053
0.299628
1.66528
4.73009
0.0541218
1.76313
0.0119009
7.04873
1.26132
0.0482543
2.78738
4.71568
6.28931
0.00330292
0.00325895
0.213552
0.00345733
2.13417
0.0352296
0.00509023
0.00321056
0.00321379
0.00323632
2.79563
1.88574
1.57371
0.0033914
6.81559
4.89935
3.20798
4.97861
0.0140242
3.92074
1.83425
2.04499
0.00323146
0.00557745
3.01514
3.21706
1.98012
3.65701
0.00320776
0.0035134
5.07117
0.0357484
0.559936
0.00323387
0.00363276
0.103816
0.0034042
7.72434
0.666834
0.00344728
0.251154
1.88305
5.26263
0.00450238
2.11083
0.00321024
0.00322529
4.90489
2.3684
7.26658
0.00454641
0.00337771
0.00772203
2.69117
2.37885
1.08084
4.89632
1.40019
6.90638
0.191248
4.29037
4.0627
1.85947
1.34235
2.47523
0.00483375
0.036428
0.00321754
0.00349627
1.97744
0.0179777
0.0199048
0.00550548
0.0131596
2.74379
4.87215
0.0188367
5.84008
1.05692
0.297402
0.0031834
0.149189
2.73728
1.01305
0.00415873
1.00792
1.19712
0.18273
0.321673
7.268
0.785026
0.491892
5.13048
0.00383979
0.00317512
0.00399091
0.0105186
1.88732
0.00335792
0.00619914
0.00317103
0.38327
3.91406
4.18189
2.89216
1.31708
1.41304
7.61107
0.00435998
2.26386
4.52544
0.00320574
2.15661
0.00321621
4.09261
0.381608
1.70545
0.00524448
0.00321481
1.86688
0.514873
0.00323865
0.00322736
0.00324149
0.00324508
0.355148
1.61263
2.94964
0.0151085
0.00324038
0.00316876
0.00313867
4.70807
0.199706
0.0044109
1.6089
0.0867702
0.0425495
0.00315235
0.262119
0.00323961
0.0442991
1.46767
4.83743
0.391763
0.00395602
0.00595216
3.22347
0.134227
1.98674
7.56589
0.00348484
0.00319558
0.00318696
5.79549
0.00329781
4.71731
0.00321731
1.82683
1.31937
0.0273244
3.12193
4.04871
0.00461916
2.87534
2.7318
1.65736
4.70996
0.798351
7.79012
2.60979
3.79172
3.76248
4.47295
1.71268
0.155214
7.70898
7.33665
3.15048
2.27837
0.00406385
6.95751
2.93854
6.85198
0.0271687
0.00355768
0.00320986
0.00340356
0.176999
0.415545
0.619247
0.0907956
0.0031832
6.01965
0.00321097
1.55915
1.89739
6.37763
2.41647
1.79953
0.00590906
0.00423206
0.0918567
3.02778
0.0102566
0.740982
5.36044
2.2233
4.11818
6.14477
3.28171
0.00345353
7.34698
5.42406
1.74754
0.00322699
6.32564
5.66469
0.00331717
2.11237
0.00323021
6.86199
5.6855
2.00381
4.14679
2.70485
5.64618
0.00330023
5.64607
0.00382358
3.80943
3.97561
2.05656
7.32216
0.704378
0.21084
0.544523
0.00422354
4.35651
0.167923
0.0080299
0.0054103
4.62972
0.0037924
4.33671
0.00320481
0.00322881
0.00600035
1.81036
0.10203
1.80364
0.00551144
4.20874
0.160272
6.63007
4.5056
2.60784
6.33341
0.00340479
7.32885
2.8694
0.00320464
3.90323
2.02031
0.00315861
0.00317242
3.53094
0.00648582
1.77765
0.0912941
2.57498
0.026301
0.589079
2.61054
4.83574
2.3755
3.82199
3.65245
0.00407047
0.0226556
1.84202
1.57444
7.57458
6.56743
5.25713
0.0642034
5.085
5.05996
0.498075
1.77516
2.80925
2.03489
0.00355397
4.10453
7.80937
0.0041198
4.46535
1.85351
2.83435
0.023665
0.0663474
6.31818
0.00591895
7.56826
0.00458732
0.262466
0.00320454
0.982335
2.36323
0.227804
0.00477099
0.00373515
2.92851
1.71676
0.034554
0.418237
6.01761
4.1291
0.00472561
1.42288
1.76404
3.47713
1.60286
4.25358
2.10275
5.50134
3.20817
0.695547
0.854295
7.4641
1.92388
7.66693
6.06386
0.0459185
3.57229
3.06977
0.00339683
1.87422
1.71755
1.39287
0.017498
4.87508
1.46177
0.679788
1.92689
0.0054358
0.00321188
0.0253323
2.06858
4.44196
2.76761
0.00321839
0.00319627
0.00320856
1.8378
0.0282264
0.00321039
0.121461
4.43898
5.12562
0.0104558
0.0106528
0.00316994
0.0032049
0.00594388
1.75368
1.75007
1.5471
0.453602
7.51919
5.94773
0.00525844
3.18182
1.98494
2.0833
3.98821
7.437
0.00346862
0.0104202
0.00322913
3.92338
0.237484
0.00317207
1.34526
0.159701
7.47938
0.00323809
7.6827
1.11929
0.0446989
6.52225
0.00322347
0.00318781
0.00407268
7.7486
3.21989
5.26501
5.1291
0.863564
1.92089
0.00314633
0.00597918
0.09197
0.0105187
0.0247335
1.98364
2.32189
0.00321811
1.28431
2.01628
6.21471
7.74217
0.00804384
7.70777
0.00590405
0.0295986
3.79848
0.00319419
5.59516
0.00323838
0.00335196
0.0227358
2.27847
0.617677
2.58712
1.89217
0.00366975
1.90248
4.67204
0.0228781
0.224453
0.916445
0.0033017
0.00325658
0.00687923
5.37283
0.540285
0.00338689
7.27908
6.10116
6.70119
0.0175481
2.21545
0.00423184
2.35733
0.150395
0.089732
2.80184
1.83072
1.92627
6.10318
0.00328368
0.00314961
0.0102265
4.22401
4.51048
0.952618
0.0136992
0.00334007
0.00323024
0.00878251
0.12534
0.00652544
2.35575
1.93594
0.0116026
1.66713
6.02481
0.00326579
2.53633
0.0032169
0.507228
0.00324481
0.0218392
2.26465
0.0197908
0.00320512
0.749007
7.82971
7.09918
0.00319811
0.00326659
0.381999
0.143451
0.00321282
4.23834
0.00367774
1.84435
7.81808
2.34311
1.74256
2.47729
3.83203
7.59061
0.00322075
0.00740011
0.0151837
4.32242
1.46114
6.42597
0.459231
0.368396
4.37317
3.82986
4.99892
0.389479
2.61261
0.00321841
0.348813
1.81575
2.48979
4.01466
1.83751
0.196366
2.50493
0.102564
0.0103673
1.88801
0.00323036
5.77472
0.00367666
0.381572
7.41041
2.82877
0.550864
0.00730492
0.762037
0.00328793
0.00319022
0.103849
0.0222023
1.96296
0.0150321
1.87439
0.00321876
0.0274104
0.00317022
4.48635
0.00539071
4.22317
2.54448
0.0216227
1.93872
7.57114
0.00324775
1.72538
4.61089
0.0033754
7.37725
0.0643863
0.00354941
0.00340914
7.23819
0.00317926
0.00427914
0.0855053
0.101099
7.17504
7.25411
0.00322035
0.00326558
0.824086
2.26476
0.0144435
0.315241
1.99164
0.00321337
0.00379852
0.0037582
6.0227
7.26916
0.494156
7.18152
0.0257768
1.70583
0.003356
0.014457
0.0245574
0.036764
0.00322319
6.91549
0.00319949
0.0245337
0.00331851
0.101962
0.0221581
0.0100149
0.419396
0.67895
2.43771
0.377701
1.05981
1.97322
5.15544
0.00342458
5.06735
7.65953
1.13033
3.97647
0.00327984
4.45399
3.84092
0.00320914
7.46724
2.50026
0.00673141
0.0107063
5.85952
5.66824
0.0319734
7.57022
7.39979
0.785388
7.35716
7.21255
4.91011
2.11398
1.55465
1.0453
7.22716
7.45792
0.0216287
7.40088
2.49629
4.41264
0.00342825
0.337603
0.285256
6.79175
5.87514
0.0197768
4.33155
6.40727
0.479746
0.0347242
0.385078
1.96827
0.00528055
2.004
6.98985
0.0337173
6.74586
1.31293
4.41988
6.34206
0.00321688
0.00563805
1.03513
0.700895
0.0185629
0.0032144
0.192823
0.263322
0.00446374
0.00323635
4.37356
0.97379
3.02756
1.01271
0.00844406
0.00415229
0.04618
3.51966
0.00343798
1.82744
1.79559
0.47035
2.37138
0.00393251
0.11919
0.00319924
0.644856
4.2913
0.00397946
0.116691
2.28338
5.69844
0.22162
3.96848
0.596769
0.112402
0.00390843
2.34557
7.71368
0.00320713
0.00328219
5.6388
0.0239399
0.00323539
3.78133
0.316408
1.93852
2.15513
1.4779
0.14236
1.7046
3.60344
5.72422
4.55444
0.00326555
5.74676
0.00391724
2.32016
0.00345344
0.00436815
2.29472
0.00656317
3.96608
0.0205956
0.0391156
1.85158
0.727616
0.0889821
0.00364264
6.23593
0.00361362
0.00316341
7.76935
5.85119
2.78698
2.06247
0.00341714
0.003166
1.84222
5.63049
0.00319325
6.56065
1.68998
0.00323423
5.96694
0.0031614
0.361243
0.903439
1.33801
0.34851
1.59799
1.9838
0.00316235
7.25827
7.44022
0.00320849
0.0171907
2.07849
0.00316027
6.95977
5.55191
4.46523
0.00321069
0.00317304
3.66357
0.0426878
0.00349727
1.83579
1.7213
4.3081
0.00316311
0.00338848
0.0238679
0.0193999
0.00321133
0.00642334
5.16418
3.02965
0.00321685
1.29915
0.00321156
0.717091
0.00423141
0.00355866
2.22208
0.00327151
0.112026
0.00317724
2.88608
0.24363
1.67104
6.24533
4.45207
3.8909
0.802093
1.4586
0.00323538
0.913407
7.31569
4.12352
0.105206
0.00344473
5.24079
0.00321031
0.0349308
0.00316462
7.20825
0.789654
0.372771
6.3793
2.22035
0.48993
4.12199
0.721096
6.76875
4.50353
0.00329605
0.00330058
0.00815014
0.00337629
0.0226105
4.31187
0.00379249
7.05885
0.00600331
0.0500201
0.57061
4.91909
0.00490004
2.6936
0.0173247
2.98762
2.38248
7.00409
0.00345549
0.00386178
0.106817
3.64394
1.78187
3.64002
0.410269
0.977321
1.5777
0.0507121
0.943221
0.531488
1.85001
0.00328101
4.38953
0.406983
3.099
0.00335642
3.00998
0.990983
0.00421207
1.65026
1.76641
0.0639463
0.00317409
0.00321145
5.07186
2.78135
1.531
0.00320345
0.0173749
2.18189
6.28914
0.662041
0.012473
0.00321934
5.48364
5.24126
2.24814
2.60166
0.00320638
3.75041
7.46149
0.00321018
0.00321598
1.24633
0.00396422
0.00965552
0.0460382
1.94736
0.00413297
2.36995
7.64963
0.0032462
0.00347591
0.00317611
0.00329587
3.70253
4.68948
7.73626
0.0284748
2.33715
2.38054
0.0865525
2.87282
0.00355126
1.85843
0.218984
2.22155
0.686423
1.65649
3.33603
0.154176
0.00323762
5.8671
4.60576
4.79517
0.889841
1.89415
0.174594
1.46669
0.00915715
0.00477847
3.63755
5.51612
0.0226427
0.169003
0.00323741
0.0768317
1.86611
0.0282408
1.03973
0.350207
3.87655
2.29466
0.432287
6.852
5.42369
3.09228
1.61089
4.40272
3.65587
0.559945
2.62568
0.00526268
2.77112
2.90705
0.00320267
0.00316079
0.112009
0.00321976
0.00335181
3.15483
4.49687
0.00321625
3.38846
0.00320826
0.00319072
0.00321167
0.0032833
0.00587229
2.06814
2.62622
7.07807
0.00318304
0.00385658
0.941942
0.00353102
0.0329292
0.00324563
0.00364445
4.59779
0.00387285
0.0109182
2.92087
0.0103223
0.00321655
4.13833
0.00320994
0.00325732
0.637938
0.00358963
0.798793
0.0046078
0.029528
0.00320332
0.00325565
7.49141
7.64216
2.66428
0.0270283
3.17551
1.53621
0.00476231
1.89183
4.24468
6.90701
4.63152
0.00330205
1.7949
2.54384
0.143744
1.8828
4.53409
0.171297
2.19312
0.467754
1.86638
0.0522591
1.00689
0.00323435
6.70995
0.00341737
1.95445
2.43741
0.003213
0.309236
0.00716811
0.0141977
0.00318644
0.754238
0.00363265
0.00322717
2.68379
0.0422933
0.108003
6.85234
1.92068
0.00348242
0.00389517
2.36301
7.17478
0.00321972
0.00323863
0.0738247
1.36865
5.52705
0.00656935
1.61782
0.00321264
0.00342218
0.00316039
0.0344641
1.00461
0.0101202
6.59223
1.92931
7.16795
6.03062
0.00349616
7.32006
3.69363
0.0031817
0.00322602
0.00321824
0.00442374
0.00319946
4.02393
0.00320681
0.00323039
6.81938
0.317625
0.00760676
0.0161103
2.15819
0.912958
0.00929325
0.0034398
6.28486
0.00324537
0.886482
0.00326873
0.00349905
5.89203
5.76383
0.00863342
0.00356516
0.46613
0.00320471
6.86859
0.00326053
5.54946
0.0226684
0.733519
0.015664
0.375057
0.648411
1.5161
0.00324185
0.00353927
0.0113422
3.18459
0.113021
7.47647
0.00321336
0.00461783
0.00553167
7.14355
2.79362
3.15309
0.0069058
0.00901008
0.212085
0.00322049
1.50118
2.45599
0.016757
6.05483
6.14222
2.05553
0.00527268
0.38137
2.98832
6.80664
1.94579
0.0187089
3.32501
0.0861113
5.20473
0.0897189
0.511834
2.55002
0.00324361
1.89629
0.00457356
0.0115607
0.00663663
0.0486915
0.00366972
1.26796
0.00322331
3.16068
0.0942834
0.00363876
0.556547
0.00323212
0.276776
0.114481
2.46877
0.467376
4.83935
0.235478
0.00321441
0.00318605
0.375195
0.0887394
2.81368
7.18197
0.00322082
3.99254
2.65047
0.0226872
2.02329
0.615361
2.50506
2.31385
0.0350064
0.00583193
7.19718
1.54732
5.83862
0.00320893
1.75951