/*--------------------------------*- C++ -*----------------------------------*\
| =========                 |                                                 |
| \\      /  F ield         | OpenFOAM: The Open Source CFD Toolbox           |
|  \\    /   O peration     | Version:  2.3.1                                 |
|   \\  /    A nd           | Web:      www.OpenFOAM.org                      |
|    \\/     M anipulation  |                                                 |
\*---------------------------------------------------------------------------*/
FoamFile
{
    version     2.0;
    format      ascii;
    class       volScalarField;
    location    "0.9";
    object      p;
}
// * * * * * * * * * * * * * * * * * * * * * * * * * * * * * * * * * * * * * //

dimensions      [0 2 -2 0 0 0 0];

internalField   nonuniform List<scalar> 
1000
(
-0.0017708
-0.00163829
-0.00162936
-0.00161978
-0.00161163
-0.00160746
-0.00159622
-0.00158232
-0.00155853
-0.0015523
-0.00259893
-0.002561
-0.00256843
-0.00257232
-0.00257546
-0.00257135
-0.00256036
-0.00253952
-0.00252054
-0.00252497
-0.00463077
-0.004627
-0.00465401
-0.0046836
-0.00469886
-0.0046999
-0.00467474
-0.00464315
-0.00460981
-0.00460726
-0.00714928
-0.00714857
-0.00715724
-0.00717509
-0.00719076
-0.00718585
-0.00717037
-0.00714927
-0.00714012
-0.00713698
-0.0144395
-0.0145699
-0.0147277
-0.0148749
-0.0149564
-0.0149567
-0.0148856
-0.0147459
-0.0145877
-0.0144523
-0.000707083
-0.000696023
-0.00070009
-0.000700487
-0.000697844
-0.000693248
-0.000686254
-0.000669572
-0.000646946
-0.000629797
-0.00158378
-0.00158048
-0.0015922
-0.00160348
-0.00160651
-0.00160646
-0.00159346
-0.00157541
-0.00155291
-0.00154739
-0.00350106
-0.00352353
-0.00355585
-0.00358285
-0.00360263
-0.00359888
-0.00358054
-0.00354603
-0.0035154
-0.00349476
-0.0059993
-0.00605155
-0.0060787
-0.00610933
-0.006125
-0.0061268
-0.00610476
-0.00607926
-0.00604968
-0.0059935
-0.0126245
-0.0127769
-0.0129384
-0.0130934
-0.0131822
-0.0131815
-0.013112
-0.0129621
-0.0127995
-0.0126431
0.00117245
0.00116917
0.00116342
0.00115806
0.00115861
0.00115994
0.00116608
0.0011787
0.00119968
0.00121411
0.000411328
0.000401373
0.000388645
0.000378439
0.000372006
0.000374089
0.000381108
0.000399456
0.000416004
0.000426161
-0.00123555
-0.00126443
-0.00129545
-0.00132364
-0.00133658
-0.00133972
-0.00131878
-0.00129436
-0.00126257
-0.00123622
-0.00349834
-0.00357616
-0.00361769
-0.0036504
-0.00367826
-0.00367203
-0.00365837
-0.00361866
-0.00358186
-0.00350545
-0.00891602
-0.00908008
-0.00924381
-0.00940696
-0.00948929
-0.00950212
-0.00942278
-0.00927354
-0.00910376
-0.00893137
0.00381016
0.00380577
0.00380491
0.00380257
0.00380463
0.00380483
0.00380706
0.0038152
0.00382626
0.00383199
0.0032363
0.00323332
0.00322681
0.00322137
0.00321956
0.00321889
0.00322536
0.0032332
0.00324293
0.00324361
0.00201944
0.00199344
0.001971
0.0019573
0.00194469
0.00194883
0.00195686
0.00197631
0.00199225
0.00201452
0.000223079
0.00016926
0.000135346
0.000100699
8.74641e-05
8.1712e-05
0.000102161
0.000125451
0.000165026
0.000224065
-0.00360594
-0.00376098
-0.00390261
-0.00402858
-0.00410817
-0.00410743
-0.00405735
-0.00392343
-0.00378711
-0.0036278
0.00702439
0.00702723
0.00703296
0.00704078
0.00704448
0.00704686
0.00704478
0.00704266
0.00703912
0.00703254
0.00670548
0.00670696
0.00671234
0.00671912
0.00672396
0.00672523
0.00672373
0.00672185
0.00671498
0.00670948
0.00601825
0.00601448
0.00601284
0.0060149
0.00601713
0.00601719
0.00602068
0.00601677
0.00601892
0.00602485
0.0049563
0.00492201
0.00490746
0.00490309
0.00489224
0.00489807
0.00489491
0.00490682
0.00491916
0.00495825
0.00276801
0.00267712
0.00259897
0.00252347
0.00249562
0.00248375
0.00251563
0.00257267
0.00266358
0.0027609
0.0105553
0.0105691
0.0105908
0.0106091
0.0106236
0.0106248
0.0106178
0.0106019
0.0105802
0.0105574
0.0105369
0.0105554
0.0105786
0.0106042
0.0106184
0.010622
0.0106125
0.0105918
0.0105672
0.0105465
0.0104849
0.0105041
0.0105344
0.0105647
0.010583
0.0105854
0.0105691
0.0105454
0.0105143
0.0105012
0.0102906
0.0103204
0.0103517
0.0103805
0.0103988
0.010393
0.010382
0.010345
0.0103277
0.0103108
0.00979591
0.00978443
0.00979611
0.00982767
0.00982324
0.00983356
0.00980746
0.00979338
0.00978109
0.00978989
0.0140815
0.014117
0.0141537
0.014193
0.0142135
0.0142188
0.0142038
0.0141712
0.0141276
0.0140874
0.014404
0.0144406
0.0144916
0.0145386
0.0145687
0.0145721
0.0145502
0.0145108
0.0144577
0.0144207
0.015028
0.0150941
0.0151642
0.0152301
0.0152662
0.0152679
0.015238
0.015173
0.0151113
0.0150537
0.0158596
0.0159464
0.0160396
0.016129
0.0161735
0.0161764
0.0161254
0.0160441
0.0159531
0.0158775
0.0168908
0.0170209
0.0171487
0.0172706
0.017339
0.0173354
0.0172786
0.017145
0.0170454
0.0169198
0.0172527
0.0173027
0.0173646
0.0174212
0.0174557
0.0174615
0.0174364
0.017388
0.01732
0.0172658
0.0179076
0.0179813
0.018061
0.018136
0.0181792
0.0181836
0.0181528
0.0180821
0.0180045
0.0179364
0.0192596
0.0193646
0.0194887
0.0195978
0.0196578
0.0196637
0.0196025
0.0195042
0.0193789
0.0192807
0.0211654
0.021378
0.0215606
0.021724
0.0218129
0.0218128
0.0217352
0.0215554
0.0213978
0.0211921
0.0238195
0.024127
0.0244126
0.0246777
0.02481
0.0248236
0.0246807
0.0244422
0.024165
0.0238569
0.0196849
0.0197587
0.0198398
0.0199154
0.0199611
0.0199664
0.0199377
0.0198662
0.0197845
0.0197189
0.0206608
0.0207448
0.0208573
0.0209578
0.0210145
0.0210236
0.020973
0.0208841
0.0207698
0.0206927
0.0226488
0.0228293
0.0230055
0.0231587
0.0232475
0.0232465
0.0231768
0.0230096
0.0228507
0.0226825
0.0257211
0.026041
0.0263385
0.0265992
0.0267282
0.0267468
0.0265954
0.026359
0.0260578
0.0257357
0.0299117
0.0305848
0.0310968
0.0315221
0.0317436
0.0317372
0.0315519
0.0311221
0.0306704
0.029993
0.021026
0.021095
0.0211912
0.0212788
0.0213303
0.0213397
0.0212992
0.0212207
0.0211252
0.0210682
0.0222033
0.0223114
0.0224458
0.0225629
0.0226327
0.0226374
0.0225842
0.0224655
0.0223398
0.0222451
0.0247532
0.0249791
0.0252104
0.0254077
0.0255086
0.0255221
0.0254125
0.0252262
0.0249964
0.0247746
0.0288488
0.0294514
0.0298956
0.0302369
0.0304194
0.0304108
0.0302585
0.0299046
0.0295078
0.0289069
0.0351474
0.0365966
0.0374678
0.0380791
0.0383357
0.0383609
0.0380699
0.0375488
0.0366908
0.0352172
0.0437687
0.0475154
0.0491025
0.050062
0.0504557
0.0504187
0.0501272
0.0491482
0.0476914
0.0439668
0.0567498
0.0630731
0.0655155
0.0669936
0.0674878
0.0675328
0.0670077
0.0656265
0.0631811
0.0568696
0.0708188
0.088176
0.0937432
0.0961873
0.0969165
0.0969218
0.0962565
0.0937973
0.088452
0.0712515
0.106111
0.14212
0.154764
0.157413
0.158092
0.158094
0.157427
0.154916
0.142727
0.106881
0.013587
0.00204118
0.00156378
0.00165747
0.00188968
0.00187788
0.00163954
0.00162453
0.00201096
0.0135028
0.0339009
0.0351325
0.0359014
0.0365506
0.0368383
0.0368425
0.0365767
0.0359685
0.0352185
0.0339933
0.0404047
0.0414258
0.0423229
0.0432849
0.0437127
0.0437212
0.0433443
0.0423772
0.0414762
0.0405092
0.0347572
0.030622
0.0301262
0.0311565
0.0316459
0.0316751
0.0312107
0.0301588
0.0305314
0.0347555
0.0186422
0.00721736
0.00429871
0.00420162
0.00432177
0.00434417
0.00424911
0.00433874
0.00699058
0.0184027
0.00596449
-0.00685847
-0.0107641
-0.0119741
-0.0121813
-0.0121872
-0.0119853
-0.0107833
-0.00700218
0.00575003
0.0254631
0.0260664
0.0264574
0.0267921
0.0269605
0.026953
0.0268126
0.0264861
0.0261229
0.0255297
0.0298634
0.0305075
0.0309537
0.031411
0.0316005
0.0316172
0.0314304
0.0309991
0.0305451
0.0299141
0.0266358
0.0268934
0.0271014
0.0274229
0.027572
0.0275748
0.0274426
0.0271096
0.0268995
0.0266835
0.0316187
0.0313275
0.0312082
0.0314808
0.0315837
0.0315934
0.0315045
0.0312468
0.0313558
0.0316542
0.0169116
0.0130723
0.0117892
0.0113632
0.0112928
0.011286
0.0113644
0.0117846
0.0130453
0.0168588
0.0170759
0.0172535
0.017387
0.0175408
0.0175848
0.0176054
0.0175227
0.0174032
0.0172741
0.0170808
0.0185851
0.0187054
0.0187676
0.0188845
0.0189702
0.0189589
0.0189055
0.0187686
0.018721
0.0186083
0.0161156
0.0160361
0.01595
0.0160237
0.0160388
0.0160371
0.0160051
0.0159533
0.0160124
0.016086
0.019241
0.0182391
0.0178047
0.0180054
0.0181286
0.0181249
0.0180415
0.0178168
0.0182365
0.0192752
0.0142536
0.0132965
0.0130227
0.0130318
0.0130522
0.0130612
0.0130422
0.013015
0.0132736
0.0141991
0.00894375
0.00895832
0.00896926
0.00897298
0.00898583
0.00897757
0.00896681
0.00894759
0.00895236
0.00893945
0.00721848
0.00671953
0.00632659
0.00614137
0.00606142
0.00606491
0.00611811
0.00632742
0.00667765
0.00716152
0.00603192
0.00578702
0.00563183
0.00550038
0.00544147
0.00543225
0.00548813
0.00558762
0.00572506
0.00602049
0.0047922
0.000343262
-0.00132678
-0.00176388
-0.00192746
-0.00191501
-0.00175607
-0.00133851
0.000194796
0.00462646
0.00569507
0.00513101
0.00476968
0.00459581
0.00444794
0.00445101
0.00457135
0.00470502
0.00511286
0.00568686
0.00151934
0.00131288
0.00117136
0.00105995
0.000998441
0.000994678
0.00102632
0.00115663
0.00128484
0.0014851
-0.00443911
-0.00546886
-0.00610281
-0.00653606
-0.00668875
-0.00670844
-0.00654302
-0.0061271
-0.00553244
-0.00450778
-0.00309695
-0.00410382
-0.00458181
-0.00487406
-0.0049249
-0.00492629
-0.0048575
-0.00458709
-0.00417449
-0.00317663
-0.0141625
-0.0232551
-0.0259997
-0.0274246
-0.0278908
-0.0278824
-0.0274522
-0.0261033
-0.0235061
-0.0143723
-0.00343894
-0.00362188
-0.00397969
-0.00431286
-0.00481106
-0.0048667
-0.00443294
-0.004041
-0.00369197
-0.00360264
-0.00492853
-0.00518544
-0.00536633
-0.00554185
-0.00561993
-0.00564021
-0.00555399
-0.00538326
-0.00521262
-0.00493981
-0.0159078
-0.0173399
-0.0181637
-0.0187485
-0.0189553
-0.01895
-0.018736
-0.0181711
-0.0174053
-0.0159965
-0.0111529
-0.0124251
-0.0128993
-0.0131675
-0.012829
-0.0127896
-0.0130806
-0.0128827
-0.012438
-0.0111024
-0.0394339
-0.0501859
-0.0533309
-0.0556374
-0.0559144
-0.055932
-0.0556547
-0.053502
-0.0504467
-0.0398185
-0.00993253
-0.0100695
-0.0102197
-0.010247
-0.0113547
-0.0114221
-0.0104372
-0.0102401
-0.0102362
-0.0102798
-0.0098368
-0.0100967
-0.01024
-0.0104063
-0.0104883
-0.010493
-0.0104169
-0.0102494
-0.0101091
-0.00983313
-0.0261464
-0.0275229
-0.0283562
-0.0290261
-0.029305
-0.0293053
-0.0290025
-0.02835
-0.0276007
-0.0262072
-0.0165541
-0.0174238
-0.0176474
-0.0178156
-0.0177707
-0.0177377
-0.0177264
-0.0176091
-0.0173461
-0.0163009
-0.067281
-0.0762804
-0.0792441
-0.0816315
-0.0824936
-0.0825108
-0.0817235
-0.0793554
-0.0764202
-0.0668794
-0.00776509
-0.00458261
-0.00276844
-0.00202886
-0.00186196
-0.00190026
-0.00209327
-0.00282128
-0.00469055
-0.0089775
-0.0128746
-0.0130573
-0.013124
-0.0132434
-0.0133021
-0.0133054
-0.0132564
-0.0131332
-0.0130569
-0.0128521
-0.0332399
-0.0344054
-0.0351497
-0.0358053
-0.0361137
-0.036124
-0.0358168
-0.0351616
-0.0344489
-0.0332723
-0.0192313
-0.019041
-0.0186971
-0.0186894
-0.0186758
-0.0186725
-0.0186473
-0.0186479
-0.0189782
-0.0190916
-0.0851138
-0.0945028
-0.0974361
-0.0998963
-0.100861
-0.100871
-0.0999739
-0.0975621
-0.0946297
-0.0852453
0.00334747
0.0166689
0.0210325
0.0228124
0.0232796
0.0232777
0.022817
0.0210747
0.0168339
0.00329256
-0.0141159
-0.0141165
-0.0141001
-0.0141645
-0.0141982
-0.014205
-0.0141782
-0.0141087
-0.014101
-0.01408
-0.0362041
-0.0372188
-0.0378914
-0.038498
-0.0388016
-0.038821
-0.0385323
-0.03792
-0.0372416
-0.0362136
-0.0198497
-0.0189686
-0.0183949
-0.0182651
-0.0182495
-0.0182565
-0.0182533
-0.0183664
-0.0189065
-0.0197497
-0.093275
-0.102626
-0.105696
-0.108125
-0.10911
-0.109122
-0.108186
-0.105817
-0.102786
-0.0935079
0.0117995
0.0298115
0.0341874
0.0361478
0.0366256
0.0366493
0.0361904
0.0342529
0.0300309
0.0120328
)
;

boundaryField
{
    walls
    {
        type            zeroGradient;
    }
    lid
    {
        type            zeroGradient;
    }
}


// ************************************************************************* //
