/*--------------------------------*- C++ -*----------------------------------*\
| =========                 |                                                 |
| \\      /  F ield         | OpenFOAM: The Open Source CFD Toolbox           |
|  \\    /   O peration     | Version:  2.3.1                                 |
|   \\  /    A nd           | Web:      www.OpenFOAM.org                      |
|    \\/     M anipulation  |                                                 |
\*---------------------------------------------------------------------------*/
FoamFile
{
    version     2.0;
    format      ascii;
    class       volSymmTensorField;
    location    "3120";
    object      sigma;
}
// * * * * * * * * * * * * * * * * * * * * * * * * * * * * * * * * * * * * * //

dimensions      [1 -1 -2 0 0 0 0];

internalField   nonuniform List<symmTensor> 
11800
(
(135182 71181.3 6.52117e-14 -2636.32 3.45515e-14 32887.4)
(-67706.2 63900.5 1.00107e-13 -967.941 3.17568e-14 -17039.5)
(608329 88553.4 -1.64265e-15 1338.11 -7.25333e-14 151271)
(-529348 46826.3 0 -1025.97 0 -131596)
(-70036 61601 1.86776e-14 -5500.4 -5.27841e-14 -18742.1)
(-331455 91912.2 7.24928e-14 2359.42 3.80326e-14 -81655.3)
(-61423.7 88997 1.37019e-13 -605.145 -3.56379e-14 -15390.6)
(-86465.7 91618.2 -2.04081e-14 965.17 8.21304e-14 -21214.4)
(187819 48975 2.7354e-14 424.891 -1.86908e-14 46707.1)
(127517 96081.3 -7.03432e-14 600.189 -5.92647e-14 31788.4)
(156160 59353.5 -5.44006e-14 1398.8 4.65782e-14 39093.6)
(-767643 34386.8 -6.51128e-14 -5849.28 -2.95512e-14 -191919)
(21911.1 -31842.4 1.18847e-16 -59094 9.23647e-17 -9225.84)
(563652 47145.2 5.90559e-14 3528.92 -1.61681e-14 140729)
(-451379 86026.6 -4.9227e-14 6237.21 3.82781e-14 -110449)
(2.10736e+06 -6584.12 0 -7061.94 0 521128)
(-40182.3 70523.1 4.63679e-14 3688.02 4.09011e-15 -9054.96)
(-61897.6 64624.6 -2.6169e-14 7484.21 1.50338e-13 -13501.1)
(129697 109385 -2.68362e-14 -16814.4 1.90855e-14 28008.4)
(97015 58922 -9.36192e-14 -10732.9 -3.0287e-14 21408.3)
(-416174 53024.5 2.91533e-14 -1187.6 3.05575e-14 -103556)
(-671330 80870.3 4.66465e-14 3334.6 -2.71273e-14 -165743)
(-891481 104709 -2.36913e-14 11365.5 1.52536e-14 -218375)
(-818103 61626.8 2.39364e-16 538.647 4.12212e-15 -202854)
(1.71788e+06 77095.8 2.93504e-15 -7901.95 3.42661e-14 424279)
(-1.06205e+06 104090 -2.32527e-14 7934.16 -6.66492e-16 -261548)
(-1.11272e+06 54632.9 0 9874.18 0 -273639)
(548867 41853.3 -7.72741e-14 -5360.67 -4.66765e-14 134855)
(-1.21402e+06 55887.2 -1.34089e-14 10994 -6.43102e-14 -298495)
(-1.31623e+06 56655.9 1.78228e-14 12821.5 -2.77402e-14 -323402)
(361336 44549.9 -9.57484e-14 -1849.27 -1.71642e-13 89196.1)
(72081.8 58405.2 -1.55093e-14 2504.92 -1.28395e-14 18506.5)
(1.08105e+06 100149 -3.78746e-15 12331.1 -1.66153e-14 271290)
(-27070.1 75584.5 1.25233e-14 -1622.17 -9.37863e-14 -7119.14)
(18652.8 79597.3 -3.31158e-14 2639.66 -1.42189e-13 5283.1)
(-353275 33918.1 -8.69402e-14 -70.3286 -6.31687e-14 -87672.1)
(20347.7 80488 1.17619e-13 1884.94 -1.39919e-13 5516.37)
(1.15892e+06 58950.5 -1.39104e-14 6187.88 -5.96787e-14 289087)
(-41898.5 77556.5 0 -1973.93 0 -10885.6)
(92740.1 72381 -4.06094e-14 5372.43 7.56576e-14 24343.7)
(-1.16923e+06 41269.2 -7.22335e-14 -5843.34 -3.35831e-14 -291559)
(-1.27558e+06 40961.5 5.17652e-14 -6184.11 -2.97108e-14 -318032)
(576754 55564 -2.97947e-14 -1230.33 -9.92289e-14 142799)
(-1.38285e+06 41473.4 -9.89522e-15 -4747.33 -5.26263e-14 -344291)
(379749 55325.2 2.54508e-13 1316.08 -7.94116e-14 94550.1)
(1.97027e+06 49149.7 0 -7019.78 0 487121)
(852544 114320 -1.49777e-14 -3311.72 7.85243e-15 210712)
(1.01597e+06 43044 -2.64229e-14 -11054.3 -1.83733e-14 249340)
(-97498.5 80154.2 -1.009e-13 87.4771 -6.21802e-14 -24169.7)
(223999 76369.5 0 2154.66 0 56113.3)
(-796001 45768 -4.87564e-15 2514.81 5.17901e-14 -196880)
(-558095 43324.3 1.69188e-13 3574.5 1.983e-14 -137588)
(-11459 78839.2 9.48597e-14 662.559 5.90794e-14 -2678.81)
(41123.5 125541 -2.08389e-15 7789.21 1.81629e-14 12136.2)
(-2.26464e+06 4843.27 -3.20773e-15 -11802.4 -4.98707e-15 -564831)
(1.7848e+06 -78357.5 4.28038e-15 -81738.8 7.5935e-15 422564)
(-60774.1 21415.6 8.16725e-14 1851.22 3.03353e-14 -14620)
(-500938 90366.1 6.09689e-15 -5497.55 -5.06796e-14 -125657)
(401257 58068.1 -5.15824e-14 8379.65 7.55522e-14 101639)
(-355027 94751.5 4.23185e-14 -6921.76 -7.64001e-15 -89806.9)
(1.84323e+06 21582 -3.75252e-14 -13903.8 -1.30037e-14 453893)
(-48792.9 82721.1 4.01488e-14 774.676 -6.53557e-14 -11914.3)
(-394845 74384.2 -2.32142e-14 -2669.78 3.99236e-14 -98631.5)
(315128 74701.7 7.04036e-14 2846.26 -4.01676e-14 78896)
(1.69656e+06 12892.9 4.11066e-15 -801.089 -2.47146e-14 420753)
(-246379 33585.9 -1.14879e-13 2194.55 -1.38856e-13 -60587.2)
(-821208 20688.9 8.0843e-14 4202.39 2.69615e-14 -202716)
(-581990 23732.7 2.3369e-15 3979.49 -1.41912e-13 -143416)
(-62887.7 22995.3 0 -3282.22 0 -16418.1)
(-990219 58448.9 -1.82774e-15 10439.9 6.08809e-14 -243103)
(-21637.2 80368.9 -2.30133e-14 164.655 4.75219e-14 -5327.77)
(-49286.9 63288.1 -8.86575e-14 -3215.58 9.92051e-14 -13026.9)
(-43346.1 61814.6 6.218e-14 -2049.45 -3.8064e-14 -11263.6)
(-1.50471e+06 328434 -5.38036e-15 187015 4.87211e-15 -326947)
(1.82729e+06 67459.4 -1.43743e-15 -6316.62 -1.49399e-14 451820)
(-332054 50592.9 -8.54158e-14 4037.86 -6.21327e-14 -81387.5)
(1.77541e+06 13320.9 -3.14499e-14 3838.03 2.79846e-14 441467)
(-239467 21295.5 7.55231e-14 38.4481 -2.47834e-13 -59407.1)
(-177592 43129.4 1.42025e-14 734.318 -1.35558e-14 -43882.1)
(-168245 55835.8 1.44999e-13 2578.56 1.4543e-13 -41105.3)
(-2.28285e+06 -43649.3 1.16269e-14 9801.23 5.42804e-14 -563988)
(98854.4 53746.2 0 8294.87 0 26585.9)
(53275.8 65159.9 -1.50746e-13 1556.61 -5.94073e-14 13605)
(36871.3 69512.5 5.2264e-14 1456.8 -4.12589e-16 9509.97)
(-78075 61488.5 3.57919e-14 -8126.93 1.013e-13 -21388.4)
(-1.28193e+06 68883.6 -1.99571e-14 -6667.84 1.00926e-13 -319727)
(391179 50767.2 1.2165e-13 4034.73 -3.7844e-14 98060.5)
(-1.17964e+06 66869.9 0 -6631.04 0 -294337)
(-1.07978e+06 65464.3 -4.20071e-14 -5876.17 -4.30059e-14 -269373)
(579383 47762 5.57409e-14 5111.82 3.40498e-15 145025)
(-12388.1 78083 -1.96531e-13 -2789.25 -1.26069e-13 -3765.82)
(1.2793e+06 92537.1 0 -4285.61 0 316358)
(-105081 68726.4 -4.16959e-14 1850.58 -6.91431e-14 -25613.6)
(66959.3 17254.7 -2.40429e-14 4580.49 -3.48949e-14 17750.5)
(158673 68491.2 1.84562e-13 1279.19 3.30226e-15 39687.3)
(50699.7 -38240.4 -7.56456e-16 -107727 -5.60819e-16 -14149.7)
(-2686.44 10515 1.96881e-17 6315.1 -1.17134e-16 900.344)
(-51168.2 -37992.1 -4.78648e-16 107436 3.18959e-16 13961.2)
(-12404.9 79468.1 -6.11017e-14 -135.271 -8.89396e-16 -3111.48)
(-668742 51257.9 -1.49916e-14 -2662.84 5.98389e-14 -166589)
(47545.3 38200.8 3.35821e-14 -151.637 -9.39547e-14 11759.3)
(728225 57897.3 -7.26369e-14 -6787.44 -1.00516e-13 179003)
(-1.21311e+06 104452 4.89551e-15 -470.343 9.96068e-15 -301113)
(-398844 72085.7 -3.02171e-15 6275.94 9.54611e-15 -97404.2)
(-1234.32 84595.6 -9.42928e-15 -740.79 -4.69205e-14 -490.064)
(314447 95617.3 -1.95446e-14 2210.69 -3.38121e-14 78569.2)
(-149273 69737.2 -5.77357e-14 -502.001 1.27316e-13 -37162.3)
(-104616 73282.8 -1.9559e-13 -688.019 -9.43386e-14 -26128.1)
(1.81356e+06 20551.7 1.10442e-14 5038.91 2.3056e-14 451231)
(1.18787e+06 57310.2 1.7958e-14 4203.21 3.65009e-15 295778)
(1.29154e+06 58812.3 3.4415e-14 4954.68 4.79452e-14 321687)
(1.08782e+06 56356 1.25865e-13 3929.15 7.45865e-14 270884)
(-396203 52193.1 5.70047e-14 -3971.57 8.9029e-14 -99291.4)
(-586563 50810.3 -1.50777e-13 -4357.78 5.42068e-14 -146620)
(211672 62799.8 6.4378e-14 -125.979 -3.37501e-14 52488.9)
(1.63312e+06 34918.3 1.66534e-14 190.607 9.82387e-15 405258)
(229264 30868.7 -4.69717e-14 -3099.8 -1.84681e-13 56115.9)
(-72207 74032.3 -1.62871e-13 1020.61 1.52314e-13 -17662.8)
(1.52942e+06 72577.1 -1.91151e-14 1074.48 2.38128e-14 379746)
(-129985 99553.7 -5.28191e-14 -101.599 -1.4217e-14 -32277.2)
(-203968 43340.9 -3.63848e-14 3568.97 -1.5325e-14 -49723.1)
(63135.6 89064.1 1.16586e-13 -2726.36 -1.6692e-13 14988.8)
(89842 93942.9 -8.12619e-14 -1790.88 5.58954e-14 21847.3)
(-63988.2 73340.4 -2.36459e-14 3016.34 -3.48875e-14 -15128.4)
(-110625 65149.9 -1.48306e-13 -759.292 -1.15743e-13 -27636.7)
(-2837.81 78359.9 -1.42541e-13 -2510.71 -1.07275e-13 -1327.08)
(-34471 77798.8 -8.54564e-14 -1661.15 9.39002e-14 -8965.12)
(-7402.86 79348.1 -5.58669e-14 -2003.45 -5.32504e-14 -2333.9)
(8760.31 55236.5 2.6567e-15 37698.4 1.18991e-13 11527.3)
(-35789.8 7480.68 -3.98433e-16 -8253.3 5.65688e-14 -10928)
(-1.93111e+06 -310951 1.73522e-14 79283.1 -8.76921e-15 -459475)
(-1.38747e+06 70502.8 1.24939e-14 -10377.9 -1.90399e-15 -346834)
(427453 46292.9 6.43675e-14 3810.15 -6.27823e-14 107005)
(-1.27786e+06 71329.3 -4.97698e-14 773.541 3.12564e-14 -316871)
(618449 42249.8 -2.90048e-14 4325.32 8.78349e-14 154523)
(-1.17305e+06 68347.7 1.8989e-14 949.058 1.90751e-14 -290822)
(-1.07226e+06 66338.2 -1.09384e-13 1523.1 8.35924e-14 -265671)
(355747 64396 6.30342e-14 -3988.38 1.75694e-13 87278.4)
(-1.09312e+06 29526.3 6.79729e-14 7207.62 -9.34907e-14 -269438)
(518301 66824.4 7.82388e-14 -4870.35 -6.23e-14 127393)
(-1.00417e+06 30105.1 5.6261e-14 6396.51 -9.69296e-14 -247568)
(-918371 31621.4 -5.83418e-14 6438.2 -5.25229e-14 -226269)
(-516650 87513.6 4.3813e-15 16315.4 4.39638e-14 -124143)
(156682 73951.8 -3.14689e-14 -5703.67 -2.09643e-13 37460.7)
(223750 71128.2 -5.03054e-14 -7137.09 -1.45374e-13 53746.2)
(-327400 69369.2 -1.51439e-14 10308.4 8.72927e-14 -78676.8)
(1.32127e+06 43763.5 -9.59917e-14 1677.41 -3.23743e-14 328249)
(-1.36472e+06 -16701.8 9.23204e-14 -10947.4 2.85512e-14 -341330)
(766703 43003 6.49603e-14 -2526.14 -6.0504e-14 189608)
(-395434 44187 1.455e-15 7203.82 8.64062e-15 -96327.8)
(-180332 70750.9 -8.16062e-14 2410.8 -6.74396e-14 -44145.8)
(-188921 59307.9 6.98388e-14 -2186.31 -6.31936e-14 -47417.6)
(19777.5 78947.1 5.30904e-14 1636.76 9.6988e-14 5313.3)
(-268058 51691.6 -1.19397e-13 -225.127 1.23832e-13 -66566.4)
(228929 61527.8 -6.26024e-14 -4501.99 -6.61565e-14 55684.8)
(155039 70688.4 -5.73671e-14 2305.11 4.4225e-14 39040.3)
(-496590 57560.2 9.71048e-14 7324.46 -6.53735e-14 -121397)
(-694499 63208 3.53129e-14 2959.33 7.72574e-14 -171585)
(1.41535e+06 20736.6 2.18707e-14 1673 -2.95686e-16 351591)
(-6386.08 82684 2.78699e-14 -382.17 -1.35582e-13 -1679.34)
(2.06337e+06 76542.8 -2.55373e-14 -12839.9 -1.39181e-14 508779)
(-220720 63569.4 -1.03131e-13 1205.72 7.10727e-14 -54465.9)
(1.78642e+06 49266.5 0 -18141.7 0 438746)
(-509292 63841 3.04095e-14 -4859.06 1.269e-13 -127571)
(-556541 64124.3 -3.11758e-14 -5628.52 3.69943e-14 -139486)
(-604407 65589.4 -5.02637e-15 -6107.49 1.33884e-13 -151481)
(279386 70690.7 -7.64632e-14 855.487 1.881e-14 69533.5)
(189865 73021.4 -8.15631e-14 334.319 2.0141e-14 47192.4)
(-2.24955e+06 -17296.1 2.02612e-14 -8880.65 -1.15582e-14 -560363)
(-1.39119e+06 68550.4 -2.07706e-14 -8013.37 3.9202e-14 -347171)
(485782 49932.4 -8.14175e-14 4779.37 -4.7655e-14 121718)
(673703 46439.2 2.28779e-13 5263.41 -1.22975e-13 168465)
(76139.5 78570.2 4.47652e-14 -7639.38 -1.15755e-13 16996.3)
(-397659 36532.5 0 1708.72 0 -98243.3)
(-403331 21104.8 1.2243e-13 -1923.99 -6.22458e-14 -100552)
(1.96327e+06 54046.2 3.31081e-14 -14273.3 2.20895e-14 483586)
(2.01013e+06 -11449.7 2.74366e-14 12589.6 2.42582e-14 501878)
(1.05073e+06 24442.1 1.64971e-15 -946.697 5.79007e-14 260471)
(963209 26282.4 1.17703e-14 -544.562 1.40483e-13 238857)
(1.1415e+06 22558.1 2.99546e-14 -1919.19 -4.32859e-14 282754)
(-495242 68468.2 -7.38558e-14 4239.77 6.64623e-14 -121828)
(-329465 65420.8 -7.16485e-14 3028.16 7.85962e-14 -80995.5)
(215467 90749.2 0 1813.35 0 53911.7)
(146604 89005.2 -2.98358e-15 841.539 1.13932e-13 36584.2)
(469957 68532.5 -8.78764e-14 -303.078 7.1858e-14 116531)
(-198841 64915.4 -7.027e-14 2349.44 1.66647e-13 -48753.6)
(-312880 97465 -1.39682e-14 4043.24 6.17941e-14 -76628.7)
(96016.9 72024.2 -2.61014e-13 -827.928 -6.92735e-14 23618.3)
(136497 67940.9 -1.80574e-13 -908.64 7.5564e-14 33642.2)
(-84875.7 81865.5 -3.51921e-14 2094.68 -4.9201e-16 -20539.6)
(-237460 54878.3 -2.92084e-14 4974.08 -1.82429e-14 -57684.5)
(-217837 55592.6 1.92842e-14 4349.98 -3.2935e-14 -52970.4)
(-220398 42230.5 0 -545.827 0 -54820.6)
(-106453 101248 4.03023e-16 -4607.29 -3.84107e-14 -27556.2)
(-1.00605e+06 4319.72 8.55674e-14 -6573.85 -3.74682e-14 -251253)
(1.26383e+06 51926 -1.1131e-13 -5777.89 -1.11929e-14 312147)
(1.57926e+06 165738 6.66476e-15 -273558 3.37349e-15 323970)
(-37676.5 70042.5 2.33077e-14 -3201.06 -5.28401e-14 -10142.6)
(239453 25334.4 8.50513e-14 1992.08 -1.94207e-13 59907.4)
(-1.98054e+06 -245200 1.66642e-14 161062 -1.08022e-14 -451450)
(111320 56041.2 3.64013e-15 3735.55 9.87032e-14 28547.6)
(303704 39340.5 6.86675e-14 1393.71 -7.88377e-14 75701)
(335375 42910.3 9.58794e-14 -5001.73 -4.04583e-14 81972.3)
(-4310.68 81911.8 7.22155e-14 -76.118 -1.07124e-14 -1088.45)
(-4949.62 84566 7.61759e-14 -619.924 6.44312e-15 -1381.92)
(915163 32299.2 2.43601e-14 -4769.05 8.11303e-14 225887)
(758530 86457.5 3.10015e-14 6558.83 -7.47913e-15 189834)
(-689306 72094.6 0 6541.3 0 -169408)
(-589450 39932.5 -7.88027e-14 -9259.12 -4.92985e-14 -148552)
(1.92486e+06 -314130 -6.99005e-15 -81169.4 -4.73151e-15 457457)
(-586579 112358 -6.32938e-15 16338.5 7.39825e-14 -141488)
(-939881 39803.6 4.36628e-14 -2037.67 -2.57581e-14 -233709)
(-2.0081e+06 -808583 -1.88213e-14 421391 7.36037e-15 -393694)
(2.38811e+06 1991.88 0 32729 0 600660)
(-1.75874e+06 -749003 -6.12539e-15 198417 1.89405e-15 -387147)
(305539 112258 -4.1614e-14 -172.694 1.46877e-14 75767.6)
(-68602.9 66970.7 -7.36649e-15 -1497.66 1.03017e-13 -17393.4)
(-897000 81925.5 3.68065e-14 -7481.25 -4.05013e-14 -224420)
(-819050 81527.4 5.48225e-14 -6568.14 -6.84085e-15 -204853)
(-750046 79387.9 -6.24945e-14 -5910.57 2.42228e-15 -187568)
(266864 58763 5.46478e-14 3706.1 -1.52486e-13 67134)
(399569 55484.7 -1.37192e-13 4536.48 1.33386e-13 100267)
(39612.3 71062.8 -2.15634e-14 -7338.04 1.01217e-13 8007.89)
(56230.8 66294.8 5.10604e-14 -9752.73 6.54193e-14 11532.2)
(-130262 106152 -5.84675e-14 21435.2 1.5828e-14 -27002.1)
(-82088.9 62090.2 4.34728e-14 14064.4 -5.56118e-14 -16878.3)
(-1.10147e+06 -443445 -4.74619e-15 -27750.6 9.90257e-16 -280183)
(202317 107016 -3.31858e-14 15367.5 -1.17704e-13 54011.9)
(-100317 63883.7 -1.14034e-13 -8141.82 -5.21368e-14 -26910.8)
(-471083 99192.2 0 -1.85775 0 -116886)
(201982 60440.1 8.80353e-14 970.366 -3.5954e-14 50356.6)
(-99299.1 85991.3 0 -535.896 0 -24771.1)
(-74795.5 70149.9 -5.54605e-14 -626.548 -8.78612e-14 -18713.8)
(702081 71216.2 7.77514e-14 3974.24 -8.13074e-14 175187)
(721479 45692.5 1.18981e-13 -157.471 5.68309e-14 178974)
(2.00453e+06 -807342 -7.03764e-15 -420670 -2.32599e-15 392989)
(1.09929e+06 -443052 8.22438e-15 27748.4 2.25236e-15 279641)
(-221235 51484.4 1.69068e-14 1627.12 2.4063e-14 -54489.3)
(-236327 52635.8 -5.13612e-14 -2705.35 -1.05046e-13 -59308.7)
(-1.25282e+06 2013.39 -5.6611e-14 -5031.23 -1.29806e-14 -312098)
(1.01451e+06 48960 1.28103e-13 -3719.44 -3.34808e-14 250797)
(329473 66405.9 4.23188e-15 -2587.9 2.32714e-13 81106.8)
(494366 70356.9 7.90549e-14 -3442.1 8.59721e-14 121808)
(-1.14427e+06 22908.8 -2.06401e-15 -752.82 4.92865e-14 -284104)
(-1.05585e+06 26192.5 -5.00612e-14 -788.222 1.65529e-14 -262173)
(-967378 28259.6 -3.31609e-15 -828.445 7.77248e-14 -240232)
(-14600.6 83861.5 -1.2023e-13 -973.302 3.47811e-14 -3864.19)
(-1.24378e+06 24829.9 3.26009e-14 -2108.21 3.50604e-14 -309131)
(412909 66206.2 -8.10229e-14 -2686.31 3.97518e-14 101785)
(578090 69033.7 0 -3324.7 0 142611)
(545773 52798.1 3.08916e-14 -4070.72 7.37527e-14 134407)
(105525 69747.3 -1.01603e-13 1224.9 -2.68639e-13 26486.7)
(8821.83 73018.6 -8.90388e-14 -8435.87 -3.27531e-14 95.7647)
(452213 40321.6 -1.13799e-13 13978.6 2.0415e-14 115671)
(-381142 54538.9 -9.70212e-15 -1238.63 -7.84685e-14 -94876.3)
(59995.9 75030.2 1.32412e-15 -14731.7 1.65883e-14 11231)
(1.755e+06 -748440 -6.36944e-15 -198475 -1.59998e-15 386204)
(270128 75757.8 8.05735e-15 -2675.54 -1.48961e-13 66360.4)
(325709 73880.1 6.93385e-14 -112.364 2.35843e-14 80787.1)
(-214528 73437.4 0 -65.9136 0 -53245.1)
(-254736 82225.4 2.58561e-14 -6342.87 -7.19754e-14 -64779)
(750796 79049.8 0 7033.89 0 188033)
(819881 81452.1 4.58101e-14 7444.87 4.34802e-14 205276)
(889629 85201 -1.02652e-13 7781.21 -9.90846e-15 222666)
(-400451 52639 1.44813e-13 -5370.7 1.47111e-13 -100693)
(-270515 57392.2 7.60706e-15 -3888.37 -8.80296e-14 -68085)
(-14988.9 80448.4 8.56397e-14 145.225 4.56022e-14 -3683.01)
(1.80114e+06 14103 -1.3357e-14 -28100.4 -2.449e-14 439928)
(-11550.9 91710.6 -9.25514e-14 -5632.99 2.88383e-14 -4263.66)
(22348 47934.1 -8.87462e-14 10643 -5.52537e-14 8185.75)
(39651.2 76558.5 6.65461e-14 1083.5 -1.54462e-13 10107.1)
(425002 75137.9 7.09249e-14 109.81 7.49557e-14 105479)
(-168485 6155.62 -1.178e-13 -3076.49 5.77581e-15 -42567.8)
(561190 83831.2 0 -3570.72 0 138357)
(1.89825e+06 -78762.9 3.08252e-16 -265613 1.23764e-16 405090)
(425119 21610.5 6.79988e-14 6141.24 1.54643e-13 107004)
(408195 33151.1 3.08192e-14 -6137.61 1.67947e-14 99758.5)
(-611473 71315.3 1.01348e-14 5829.72 2.13947e-14 -150272)
(-435084 67466.7 -7.8933e-14 4598.15 2.52844e-14 -106812)
(-521241 45254.1 -1.6143e-13 -2062.86 -2.8246e-14 -129842)
(-373672 50014.7 8.14644e-15 -2621.26 -8.56712e-15 -93366.1)
(1.30242e+06 21011.1 -5.67785e-15 -3259.64 1.86607e-14 322348)
(1.07781e+06 90588.7 2.36012e-15 -727.732 -3.85868e-14 267246)
(308187 82443.2 1.42909e-14 -3577.27 8.45332e-15 75579.9)
(414737 68812.9 2.68245e-14 -60.8519 4.56417e-14 102890)
(227089 81922 7.46095e-14 -4161.17 5.31654e-14 55312.9)
(305041 69247.1 6.69071e-14 -2015.07 -1.05913e-14 75186.9)
(-589793 49968.9 -1.23681e-14 6020.35 3.10528e-14 -144846)
(-775299 77043.6 -3.43178e-14 2326.83 6.16763e-15 -191790)
(-178656 121110 3.81627e-14 -541.652 2.72552e-14 -44462.7)
(1.28262e+06 55156.1 4.26439e-14 5170.32 3.06168e-14 319528)
(1.39106e+06 55119.7 -9.24569e-15 22832.3 4.59735e-15 350816)
(1.65145e+06 56051.8 7.50542e-15 -1570.86 4.7307e-15 409367)
(114072 77718.2 -1.45173e-13 512.303 1.76297e-13 28430.8)
(-419601 22723.9 -8.99564e-14 -5220.54 -4.62521e-14 -105407)
(-405431 35807.4 -1.14143e-13 4508.24 7.63504e-14 -99477)
(1.92285e+06 -6790.94 0 12421.4 0 480181)
(1.92757e+06 60621.7 0 1001.98 0 478517)
(1.14029e+06 47634.1 1.76044e-14 -1844.83 8.40108e-14 282471)
(1.13132e+06 9067.86 5.63917e-14 4753.11 -1.58284e-13 281883)
(-1.17685e+06 11286.7 0 -8919.88 0 -294215)
(-1.14729e+06 47684.1 0 7944.17 0 -282695)
(33212.2 76092.7 -2.00044e-14 2674.61 5.73056e-14 8904.25)
(-82034.9 34368.6 2.14102e-13 -5018.09 -9.06327e-14 -21599.6)
(-312658 33779.2 -5.64514e-14 -3473.98 -2.083e-14 -78438.7)
(2.52663e+06 2866.11 0 51076.2 0 639580)
(-44701.9 67313.2 -1.41181e-13 -2308.08 -3.52677e-15 -11664.1)
(-52593.7 70098.5 -2.03347e-14 -5041.69 -1.13115e-13 -14300.5)
(273950 88589.8 -7.28564e-14 -6136.54 -4.99335e-14 66449.9)
(-216844 87155.2 -1.51838e-13 -6295.04 6.3588e-14 -55365.3)
(262307 53960.7 4.41363e-14 -7452.75 -4.56498e-14 63234.5)
(-1.0052e+06 45419.2 3.12469e-14 -9128.78 -6.36581e-14 -251675)
(1.01169e+06 49580.4 -1.29545e-14 -10429 -7.78479e-14 248434)
(-1.71737e+06 74719.1 1.35025e-14 -10473.3 -5.78918e-14 -428713)
(-2.05081e+06 -184849 7.1879e-15 381972 -5.18246e-15 -414073)
(713073 98404.4 -1.14295e-14 -14930.9 1.42091e-14 173223)
(79502.2 95645.9 -7.54498e-15 -4508.43 4.24627e-14 18607.5)
(-948441 78653.8 -3.78177e-14 -4409.23 -1.05869e-13 -236421)
(796784 27532.6 -4.91731e-14 9996.4 7.09056e-14 200179)
(-553257 48700.4 5.42782e-14 -9707.98 6.96063e-14 -139683)
(430747 77377.1 8.14412e-14 5269.83 1.42303e-15 108185)
(79992 85871.3 2.27022e-14 4414.39 1.06247e-15 20942.9)
(138474 67047.9 -9.60126e-14 -996.007 1.20595e-13 34111.2)
(-275571 57289.9 6.60902e-14 -17456.6 -7.02141e-14 -72706)
(-445656 112200 1.09461e-15 7377.89 8.84237e-14 -108746)
(-252535 57892.5 1.01796e-14 -16192.5 -7.09725e-14 -66676.7)
(-408365 108213 6.44349e-14 6559.37 -2.35474e-14 -99696.2)
(100856 48277.4 -4.05281e-14 -2875.27 1.25978e-14 24311)
(-47532.2 92890.6 -1.0702e-15 2517.26 -7.93162e-14 -11169.1)
(-31073.3 91889.5 9.83422e-14 2347.7 7.88857e-14 -7127.4)
(-20997.8 82907.3 5.06133e-14 609.432 -1.10221e-13 -5058.76)
(1.36828e+06 39615.3 2.93065e-14 4017.63 4.53794e-15 340495)
(-14166.2 93294.8 -1.11313e-13 -6308.55 -4.94809e-14 -5080.19)
(-54160.2 69466.8 5.49536e-14 -5224.16 -1.84035e-13 -14734.5)
(1.91196e+06 -54454.7 -1.45517e-14 -98717.2 -1.06375e-14 449902)
(313911 56139.4 5.85883e-14 -5056.85 -7.51613e-14 76632.9)
(-730949 96739.9 3.9292e-14 13316.9 1.06136e-14 -178059)
(-834248 61518 -6.40067e-14 1986.47 -2.80107e-14 -206501)
(-828746 28825.5 0 -9903.99 0 -208086)
(1.04278e+06 17330.6 -5.76631e-14 5383.81 -2.74191e-14 260072)
(998387 69683.8 3.4883e-15 8718.57 6.86974e-14 249883)
(-32681.3 58063.1 -6.50062e-14 1266.15 5.29956e-14 -7794.73)
(-24873.4 58466.5 4.71615e-14 1714.17 -2.63722e-13 -5746.27)
(-657157 104160 -2.59953e-14 7797.5 -6.39168e-16 -161119)
(-884935 74524.1 0 11290.2 0 -216769)
(625929 47614.9 1.42399e-14 7091.02 3.50965e-14 157065)
(-1.62063e+06 92599.1 6.2241e-15 -7594.77 -1.97258e-14 -403996)
(55975.9 65001.8 0 14135.5 0 17396.1)
(889004 40764.9 -3.09121e-15 -2823.07 2.1366e-14 219879)
(673740 100726 -1.66526e-15 5316.86 8.11583e-17 168488)
(-423287 82163 1.20926e-13 4624.6 -1.55496e-14 -103879)
(-328929 56545.5 -1.18087e-14 -2299 8.52144e-14 -82184.3)
(-301721 78656.8 1.86982e-14 3489.46 -7.10843e-14 -73997.3)
(-236127 60362.4 -1.05692e-15 -2331.26 4.17627e-15 -59166.3)
(-338721 38788.5 4.37218e-14 672.389 6.4575e-14 -83876.6)
(-285291 44059.1 -7.64792e-14 3724.24 1.53941e-14 -69862.4)
(-347570 99098.9 0 1039.24 0 -85981.3)
(-391148 100818 -3.86244e-14 -950.086 3.3562e-14 -97287.5)
(-426486 104352 -3.15612e-15 -1229.32 -3.59882e-15 -106125)
(115669 65601.8 -1.8824e-13 1402.33 -9.41152e-14 29047.8)
(-23238.8 78924.5 -4.17805e-14 -2380.9 8.3176e-14 -6356.77)
(834754 39280.2 -2.35936e-14 5092.94 6.71697e-14 208383)
(873799 53251.2 3.26644e-14 -6011.34 -6.34524e-14 215316)
(144936 69715.7 6.77493e-15 613.376 -4.69383e-14 36113.8)
(211657 63039.8 0 2447.3 0 53123.6)
(-462765 100722 4.84421e-14 -2304.4 -5.32636e-14 -115393)
(408127 61347.1 -9.25857e-14 4041.82 -1.16548e-15 102267)
(445584 90107.9 -4.05274e-14 4542.83 -2.50707e-15 111686)
(-162420 75274.4 -7.73693e-14 -1103.86 1.10898e-13 -40573.6)
(-138322 78528.3 4.51433e-14 -1945.27 2.65038e-15 -34803.1)
(-199628 82105.6 7.31757e-14 -651.416 2.60304e-14 -49693.5)
(-221721 70850.5 0 -2409.35 0 -55611.3)
(-969653 41894.9 2.15677e-14 -344.574 -3.29262e-14 -240676)
(444824 72467.2 -3.54219e-14 -703.123 -1.40127e-13 110195)
(317152 71039 -1.62273e-14 -1004.37 -2.31944e-15 78442.7)
(-106389 193153 -9.90898e-15 21319.6 -7.09507e-15 -21107.5)
(1.15435e+06 32681.5 -7.43705e-14 -8486.07 -4.45537e-14 284313)
(-1.35011e+06 10236.4 6.44431e-14 2077.19 3.8565e-14 -334474)
(-157747 178980 0 -5759.2 0 -40569.1)
(-160570 73665 2.70436e-14 2259.07 8.16437e-14 -39280.2)
(-135841 77651.5 -2.03414e-13 3839.68 -5.16041e-14 -32752.3)
(-233571 71632.6 8.77523e-14 1578.14 9.82356e-16 -57562.2)
(-201222 78428.1 0 3044.22 0 -49171.9)
(456445 58864.1 4.49001e-14 -3998.19 -7.2269e-14 112261)
(524201 81929.5 1.63876e-14 -3206.61 6.94647e-15 129269)
(424948 62383 -3.33677e-14 -8309.25 3.19455e-14 103376)
(495787 84296.8 3.55947e-14 -5810.61 9.84115e-14 121573)
(389097 62054.7 2.79173e-14 -7221.67 4.68559e-14 94751)
(453853 82249 -6.06738e-14 -5165.11 3.46753e-14 111328)
(359101 37518.3 2.75931e-14 192.099 1.04213e-13 89148)
(346504 22732 8.11402e-14 2839.96 1.73745e-13 86679.2)
(-691863 81567.7 -1.55854e-14 1085.92 2.04861e-14 -171396)
(322529 77327.2 -8.40583e-14 -4193.54 -2.04221e-15 78985.5)
(-771127 58877.2 0 6587.33 0 -189698)
(1.33321e+06 85033.4 4.55416e-14 -11551 -2.86535e-14 327931)
(-671338 36744.9 8.47042e-14 2543.64 -1.39207e-13 -165942)
(-489711 42092.9 1.02277e-13 681.102 -6.87387e-14 -121338)
(-1.51562e+06 -716531 -5.83217e-15 240573 1.30307e-15 -316364)
(45033.2 74137.6 1.14237e-13 282.718 -3.00011e-14 11243.8)
(1.41525e+06 47572.4 -1.52154e-14 -3195.4 -7.6883e-16 350360)
(-685581 55929.8 -2.3722e-14 2557.66 -6.87569e-14 -169472)
(-493780 54491.9 1.48186e-13 2074.43 7.29296e-14 -122002)
(2.11768e+06 -15256.9 2.47839e-14 -4363.24 1.10316e-14 524357)
(-95047.7 66180.5 -1.63842e-14 -1265.83 6.57313e-14 -23897.3)
(1.45886e+06 13318.4 3.78712e-14 4386.26 -2.35379e-14 363061)
(-341871 57332.8 5.12626e-14 1624.25 -9.03785e-14 -84422.2)
(-1.20821e+06 84780.5 3.07253e-14 12561.1 -4.00114e-15 -296665)
(-1.13568e+06 54227.5 -1.87692e-14 -6607.23 -1.43067e-15 -283424)
(1.09884e+06 55765.3 -3.55438e-14 1806.9 2.325e-14 273093)
(-139532 76214.4 -2.23894e-13 5595.61 -1.01917e-13 -33232.3)
(-3327.72 -38474.3 2.37316e-16 -60327.2 8.4382e-17 -15794.1)
(-17546.8 70798.1 0 3043.9 0 -3598.46)
(-2.0111e+06 -642548 9.57721e-15 253145 -2.64006e-15 -436185)
(1.51182e+06 -715953 1.1335e-14 -242131 3.56451e-15 315034)
(-962975 87973.4 3.96528e-14 -7695.97 -3.84703e-14 -240843)
(332887 55559.8 1.71238e-14 2976.26 6.6107e-14 83334.4)
(461136 50578.7 -5.51106e-14 3992.54 1.2543e-13 115408)
(134269 72552 1.103e-13 -1373.36 3.28513e-14 32974.2)
(-250234 15959.4 6.39264e-14 226.819 -9.83096e-14 -62031.8)
(223639 92920.3 -5.31871e-14 -1447.43 4.86723e-14 55130.2)
(-113764 57623.7 1.57122e-14 892.514 2.40922e-14 -28005.8)
(-104730 102974 1.13058e-14 4291.72 3.28118e-14 -24920.8)
(-1.64778e+06 3422.14 -5.2456e-15 43855.2 1.24757e-14 -397967)
(13477.3 -22894.7 6.2275e-17 -39985.4 3.86562e-17 -6577.18)
(-565027 92138.6 -2.35805e-16 7048.46 4.45434e-15 -138446)
(443896 51945 3.98699e-14 -2841.2 1.2357e-13 109435)
(1.71117e+06 -331572 1.00456e-15 -44855.7 1.30619e-15 413446)
(-50600.4 57126 -1.02503e-14 -8681.4 -7.96891e-14 -14709)
(-56932 95212.4 8.13265e-15 -4003.97 7.78008e-14 -15119.5)
(-32518.3 83141.7 -1.39175e-15 178.692 -1.19198e-13 -8024.11)
(-84522.3 71852.2 -2.20971e-14 3590.32 3.0121e-14 -20080.9)
(37719 82106.8 3.56031e-14 -1350.83 9.20134e-14 9023.69)
(24995 84654.6 -8.36459e-14 -372.753 -2.73109e-14 6109.28)
(-1.71589e+06 -329609 4.29173e-15 43355.3 -1.32533e-15 -414990)
(599496 87573.8 -3.26815e-14 2229.27 1.76904e-14 149300)
(-209948 71315.6 -2.23894e-13 -175.238 -6.3528e-14 -52135.7)
(703079 74272 1.16942e-13 4474.91 -1.97895e-13 175559)
(644835 72950.4 -1.43097e-15 4261.97 -7.58503e-14 161054)
(589826 70446.5 -2.16825e-13 2288.86 3.27332e-14 146916)
(102545 42433.5 -1.09411e-13 4067.56 -4.09368e-14 26452.7)
(-1.38878e+06 30590.1 5.88486e-14 -3626.26 -5.71289e-14 -345484)
(436387 56816.9 1.18655e-13 -2460.89 1.28003e-14 107666)
(618239 58384.3 -5.37289e-14 -2482.59 -7.68584e-14 152782)
(-119490 71208.1 -1.89617e-13 -386.935 -3.19739e-14 -29743.8)
(889986 95703.7 1.24598e-14 -12009.2 1.80159e-14 217844)
(170047 55511.5 -7.67261e-14 -137.418 5.1977e-14 42158.1)
(-1.78393e+06 22914 -1.99681e-14 -2492.28 -7.39455e-15 -443248)
(51532.9 72998.3 -9.89445e-14 1873.12 -8.32524e-14 13251.1)
(-150351 77454 -1.96755e-13 1706.95 9.29232e-14 -36881.5)
(504747 59191.5 1.48545e-13 545.684 -2.1392e-14 125373)
(462870 59209.4 1.38748e-13 554.447 3.37599e-14 114985)
(422987 57649.3 -1.00566e-13 -1274.31 2.7713e-14 104635)
(927935 44435.1 1.49812e-14 155.744 3.15159e-14 230278)
(201580 76898 -6.64077e-14 2920.86 -1.42337e-13 50740.9)
(-509725 63980.6 4.53341e-14 -7792.73 1.01575e-15 -128407)
(-400012 115135 2.76745e-14 3706.2 3.08665e-14 -98331.6)
(-223458 48715 0 1625.75 0 -55041.1)
(-705566 84887.1 -6.09933e-14 -7800.56 1.8567e-14 -177001)
(-771295 87347.9 -9.17904e-14 -8679.32 -6.07193e-15 -193527)
(-839787 90999.2 -9.16509e-14 -10019.8 4.41567e-14 -210854)
(398682 58084.8 1.88188e-15 6406.55 2.33753e-14 100511)
(272876 63376.5 2.95804e-14 4500.53 -3.70366e-14 68822.7)
(72628.9 8530.36 -8.60013e-14 3596.99 3.10253e-14 18913.2)
(141181 60631.1 0 -1807.19 0 34581.4)
(181686 49307.4 -1.00695e-13 1332.88 6.01062e-14 45410.8)
(2.0705e+06 -99494.4 -5.38034e-15 -272884 -2.59457e-15 446025)
(781097 40460.4 9.92525e-14 1265.85 -1.01849e-13 194120)
(-599147 77265.5 0 1167.46 0 -148371)
(-420658 70250.9 -4.91755e-14 8080.45 -2.16242e-15 -102369)
(337052 74267 2.62433e-14 -3647.17 -3.2456e-14 82724.5)
(-107612 87045.3 4.38396e-14 -2319.37 3.59678e-14 -27276.2)
(-14085.6 85859.8 1.29184e-13 -2498.43 -1.01807e-13 -4114.83)
(34895.9 61186.7 1.03171e-13 8784.12 -1.63278e-14 10837.9)
(38216 61092.7 -5.39965e-14 9521.22 -5.02916e-14 11844.6)
(-4729.55 108041 -2.70693e-15 -2762.84 -2.21909e-14 -1859.01)
(-9285.22 56744.3 -2.41026e-14 -839.866 8.10643e-14 -2512.24)
(-8.99966 65868 -9.0265e-14 -677.098 6.72683e-14 -170.235)
(12079.9 70339 8.62233e-14 -13466.6 -3.91741e-14 -344.06)
(149954 49607.7 -6.69334e-15 2198.67 -3.15554e-14 37752.2)
(-280325 110399 -1.57622e-15 1725.29 -1.52548e-14 -69126.3)
(88808.3 69853 2.16303e-13 1044.32 -4.25665e-14 22294.3)
(12500.4 107094 9.05095e-15 -16534 1.29168e-14 -1000.81)
(-590634 108093 -2.25805e-14 -2354.45 -1.3564e-14 -147132)
(746931 50394.9 7.45631e-14 3356.8 6.6536e-14 186162)
(-320486 78740.1 -8.32429e-14 -268.453 2.72298e-14 -79585.8)
(-1.37192e+06 249763 -3.91704e-15 243723 2.34933e-15 -279927)
(-199943 46985.2 5.92728e-14 -2081.47 6.43755e-14 -50126.5)
(-328099 108905 0 3647.56 0 -80502.9)
(96549.5 69844.5 1.15424e-13 -177.192 -1.59453e-13 23911.9)
(149469 63091.8 6.10548e-15 -394.188 1.98282e-14 36988.4)
(1.50856e+06 -333821 -1.21462e-15 48944 2.12392e-16 386449)
(-2.07613e+06 9923.78 -1.66616e-14 12230.3 7.65832e-15 -512097)
(641763 56908.7 3.65164e-14 3997.65 3.06886e-14 160226)
(700152 56853.6 -3.70619e-14 3838.09 8.06766e-14 174674)
(-213378 76831 -2.73845e-13 1709 -9.7783e-14 -52519.3)
(148290 95646.2 4.82406e-14 9535.97 9.50939e-14 39159.7)
(-33141.9 67245.1 7.70431e-14 -3350.47 1.17256e-13 -9054.5)
(-855443 -555757 -1.03879e-15 63796 4.37064e-16 -196424)
(-2.01925e+06 69110.6 5.46205e-15 1834.39 7.05135e-15 -500562)
(1.79332e+06 35260.9 2.96813e-14 3496.41 -1.46357e-14 445827)
(-2.60062e+06 -44685.5 -7.70915e-15 -7273.92 -3.32322e-15 -647072)
(823687 51204.9 -3.33794e-14 -6035.29 -5.19036e-14 202876)