/*--------------------------------*- C++ -*----------------------------------*\
| =========                 |                                                 |
| \\      /  F ield         | OpenFOAM: The Open Source CFD Toolbox           |
|  \\    /   O peration     | Version:  2.3.1                                 |
|   \\  /    A nd           | Web:      www.OpenFOAM.org                      |
|    \\/     M anipulation  |                                                 |
\*---------------------------------------------------------------------------*/
FoamFile
{
    version     2.0;
    format      ascii;
    class       volVectorField;
    location    "2480";
    object      D;
}
// * * * * * * * * * * * * * * * * * * * * * * * * * * * * * * * * * * * * * //

dimensions      [0 1 0 0 0 0 0];

internalField   nonuniform List<vector> 
11800
(
(8.02781e-06 0.000229548 0)
(-1.01667e-05 0.000255691 0)
(5.65947e-06 7.74722e-05 0)
(-6.46742e-06 0.000105305 0)
(-9.28919e-06 0.000255259 0)
(-4.19387e-06 0.000105511 0)
(-1.54888e-06 0.000172399 0)
(-1.4753e-06 0.000132976 0)
(6.7665e-07 2.04788e-05 0)
(1.22615e-06 8.03493e-05 0)
(8.91471e-06 0.000229006 0)
(-8.06234e-06 8.97981e-05 0)
(-7.97951e-09 -6.35186e-09 0)
(5.02937e-06 7.70058e-05 0)
(-5.73749e-06 0.000105748 0)
(5.55951e-06 1.25731e-05 0)
(-8.71524e-07 0.000171897 0)
(-8.44974e-07 0.0001325 0)
(3.80395e-07 2.07052e-05 0)
(7.54424e-07 7.99524e-05 0)
(-4.93382e-06 0.000105124 0)
(-7.38829e-06 9.01538e-05 0)
(-1.22509e-06 4.44962e-06 0)
(-1.30748e-06 4.6334e-06 0)
(4.95799e-06 1.4359e-05 0)
(-1.95779e-06 7.3729e-06 0)
(-7.9143e-06 5.36619e-05 0)
(1.14392e-05 0.00015456 0)
(-7.05792e-06 4.07345e-05 0)
(-6.11608e-06 2.93118e-05 0)
(1.21123e-05 0.000195289 0)
(4.97525e-08 3.46564e-06 0)
(2.54371e-06 9.47471e-06 0)
(-6.18618e-06 0.000262372 0)
(4.99778e-06 0.000261193 0)
(-1.38204e-05 0.000208524 0)
(4.65495e-06 0.000262092 0)
(2.50328e-06 9.74064e-06 0)
(-1.51452e-06 0.000182062 0)
(1.22872e-06 8.82135e-05 0)
(-7.78156e-06 5.42616e-05 0)
(-6.94657e-06 4.12697e-05 0)
(1.11751e-05 0.000153679 0)
(-6.02674e-06 2.97814e-05 0)
(1.18433e-05 0.000194362 0)
(5.30285e-06 1.26731e-05 0)
(1.4054e-06 5.26739e-06 0)
(1.56704e-06 5.18357e-06 0)
(-2.3727e-06 0.000182217 0)
(1.91838e-06 8.83372e-05 0)
(-1.31431e-05 0.000134734 0)
(-1.40322e-05 0.000174168 0)
(-1.30187e-06 0.000227103 0)
(7.01716e-08 3.28907e-06 0)
(-6.81968e-06 1.49697e-05 0)
(9.29581e-07 7.76746e-07 0)
(-1.72455e-05 0.000265962 0)
(-4.35309e-06 7.45934e-05 0)
(4.9483e-06 0.000108612 0)
(-3.16626e-06 7.16688e-05 0)
(1.85421e-06 2.47256e-06 0)
(-2.23193e-06 0.000227273 0)
(-3.78644e-06 7.44256e-05 0)
(4.31353e-06 0.000108812 0)
(4.64397e-06 1.41399e-05 0)
(-1.64642e-05 0.000235189 0)
(-1.36347e-05 0.000134148 0)
(-1.46067e-05 0.000173524 0)
(-1.63806e-05 0.000265533 0)
(-2.05429e-06 7.61186e-06 0)
(-5.51607e-06 0.000263107 0)
(-9.72828e-06 0.000261686 0)
(-1.00107e-05 0.000260759 0)
(-8.80024e-08 9.93107e-08 0)
(1.98006e-06 2.57854e-06 0)
(-1.30189e-05 0.000209107 0)
(6.08056e-06 1.98251e-05 0)
(-1.67311e-05 0.000236065 0)
(-1.33257e-05 0.000238054 0)
(-1.24506e-05 0.000238847 0)
(-6.50134e-06 1.47653e-05 0)
(9.7781e-07 9.15861e-05 0)
(9.14968e-06 0.000259642 0)
(8.16581e-06 0.000259802 0)
(-1.19486e-06 9.41173e-05 0)
(-5.87594e-06 3.29977e-05 0)
(1.09489e-05 0.000188222 0)
(-6.70351e-06 4.49343e-05 0)
(-7.46074e-06 5.835e-05 0)
(1.03028e-05 0.000147861 0)
(-3.10693e-07 0.000222207 0)
(2.70443e-06 9.00752e-06 0)
(-8.28223e-06 0.000239584 0)
(1.70881e-05 0.000267992 0)
(2.7048e-06 0.000115985 0)
(-2.12612e-09 -1.61686e-09 0)
(5.49197e-11 -3.4316e-10 0)
(2.12434e-09 -1.61561e-09 0)
(-1.90025e-07 0.000229887 0)
(-7.65419e-06 9.17765e-05 0)
(1.47063e-05 0.000267036 0)
(8.90588e-06 0.0001008 0)
(-3.2834e-06 1.31505e-05 0)
(-7.43142e-07 1.01571e-05 0)
(-4.91119e-07 0.000254118 0)
(8.95971e-07 2.14194e-05 0)
(-1.89088e-06 0.000131038 0)
(-1.96388e-06 0.000170253 0)
(2.87618e-06 4.92302e-06 0)
(6.74403e-06 4.4914e-05 0)
(5.9129e-06 3.29794e-05 0)
(7.50534e-06 5.8327e-05 0)
(-1.11235e-05 0.000188245 0)
(-1.04698e-05 0.000147893 0)
(1.58639e-06 7.87192e-05 0)
(2.27595e-06 4.48996e-06 0)
(1.62984e-05 0.000236147 0)
(-6.68369e-06 0.00024238 0)
(2.31786e-06 4.32642e-06 0)
(-1.12765e-06 8.13449e-05 0)
(-6.78837e-07 1.99397e-05 0)
(1.48042e-06 0.000173661 0)
(1.40591e-06 0.000134107 0)
(-2.0707e-06 0.000166564 0)
(-8.33618e-06 0.000240484 0)
(-7.4112e-07 0.000229171 0)
(-5.35961e-06 0.000254219 0)
(-1.25604e-06 0.00025353 0)
(-1.85069e-05 0.000274747 0)
(-1.91679e-05 0.000274084 0)
(-5.45993e-07 2.4652e-07 0)
(-2.46749e-06 5.81798e-06 0)
(1.1233e-05 0.000182649 0)
(-6.30518e-06 3.60676e-05 0)
(1.05317e-05 0.000142626 0)
(-7.13969e-06 4.8415e-05 0)
(-7.90273e-06 6.22073e-05 0)
(1.03636e-05 0.000182815 0)
(-5.81098e-06 3.59605e-05 0)
(9.71759e-06 0.000142779 0)
(-6.58173e-06 4.82965e-05 0)
(-7.28653e-06 6.20784e-05 0)
(-1.53967e-06 1.84725e-05 0)
(3.63247e-06 0.000176975 0)
(3.39112e-06 0.000137302 0)
(-2.9031e-06 8.39875e-05 0)
(1.40209e-05 9.21543e-05 0)
(-1.39561e-05 9.01527e-05 0)
(8.75995e-06 0.000101528 0)
(-1.03992e-06 1.07768e-05 0)
(-9.21763e-06 0.000221186 0)
(-9.13806e-06 0.000222353 0)
(4.48021e-06 0.0002592 0)
(-1.0307e-05 0.000208813 0)
(4.11808e-06 0.000147788 0)
(4.46596e-06 0.000188124 0)
(-1.14832e-05 0.000165846 0)
(-1.06615e-05 0.000126936 0)
(5.43677e-06 2.35985e-05 0)
(-8.56397e-07 0.000223037 0)
(3.127e-06 5.01017e-06 0)
(-9.42067e-06 0.000209019 0)
(6.36465e-06 2.01108e-05 0)
(-4.23018e-06 6.07223e-05 0)
(-3.81359e-06 4.7064e-05 0)
(-3.35828e-06 3.48632e-05 0)
(5.72859e-06 0.00014447 0)
(6.1029e-06 0.000184624 0)
(-2.76619e-06 3.44426e-06 0)
(-4.99646e-06 2.27051e-05 0)
(1.06918e-05 0.000167675 0)
(9.91936e-06 0.000128653 0)
(2.37732e-06 0.000170066 0)
(-1.57425e-05 0.000207558 0)
(-1.59011e-05 0.000208797 0)
(5.70969e-06 1.43837e-05 0)
(5.71661e-06 1.4779e-05 0)
(6.24149e-06 4.36203e-05 0)
(6.96133e-06 5.68894e-05 0)
(5.45613e-06 3.18399e-05 0)
(-9.84724e-06 0.000149877 0)
(-1.04497e-05 0.000190368 0)
(4.18943e-06 0.000146867 0)
(4.4908e-06 0.000187176 0)
(4.56828e-06 8.97939e-05 0)
(-2.2003e-06 8.37989e-05 0)
(-1.17242e-06 1.85674e-05 0)
(2.7459e-06 0.000176739 0)
(2.56237e-06 0.000137082 0)
(-3.60238e-06 0.000218174 0)
(-1.23074e-06 3.8619e-05 0)
(-1.38639e-06 5.13066e-05 0)
(-1.355e-05 0.000233386 0)
(-3.80101e-07 8.84918e-06 0)
(-1.31053e-05 0.000110361 0)
(1.13135e-05 7.33178e-05 0)
(1.33379e-07 1.28974e-07 0)
(-8.11614e-06 0.000262789 0)
(1.61846e-05 0.000237094 0)
(-4.76158e-07 2.8641e-07 0)
(1.06557e-05 0.000248462 0)
(1.33147e-05 0.000212463 0)
(1.42813e-05 0.000212637 0)
(-4.3293e-07 0.000255402 0)
(-1.09995e-06 0.000256217 0)
(7.56267e-06 7.15544e-05 0)
(6.67878e-06 7.18696e-05 0)
(-8.9431e-06 0.000112229 0)
(-7.88096e-06 0.000111837 0)
(5.37435e-07 2.42743e-07 0)
(-1.50354e-06 1.29218e-05 0)
(-1.69533e-06 7.21602e-06 0)
(-3.98327e-08 1.50201e-08 0)
(5.14881e-06 8.54455e-06 0)
(-1.23926e-07 3.94494e-08 0)
(6.66069e-07 7.08792e-06 0)
(-9.20362e-06 0.000254063 0)
(-4.49371e-06 3.22098e-05 0)
(-5.12366e-06 4.4054e-05 0)
(-5.71098e-06 5.73765e-05 0)
(8.43787e-06 0.000189612 0)
(7.96957e-06 0.000149183 0)
(5.32729e-07 0.000176413 0)
(4.94976e-07 0.000136774 0)
(-2.44694e-07 1.86998e-05 0)
(-4.62133e-07 8.35507e-05 0)
(-1.8189e-07 3.02527e-08 0)
(6.93664e-07 2.33597e-05 0)
(-1.40087e-06 0.000127174 0)
(-4.18827e-06 8.07161e-05 0)
(9.70265e-07 2.30182e-05 0)
(-1.96588e-06 0.000127844 0)
(-6.2954e-06 0.000240452 0)
(7.7905e-06 9.04476e-05 0)
(7.25748e-06 8.97571e-05 0)
(3.96012e-08 1.4942e-08 0)
(1.81347e-07 3.01704e-08 0)
(-1.21925e-05 0.000223858 0)
(-1.173e-05 0.000224804 0)
(-1.15625e-05 7.66692e-05 0)
(1.29672e-05 0.000106449 0)
(1.03543e-05 0.000190286 0)
(9.75417e-06 0.000149806 0)
(-5.46302e-06 3.18869e-05 0)
(-6.25202e-06 4.36705e-05 0)
(-6.97317e-06 5.69454e-05 0)
(-3.89389e-07 0.000228258 0)
(-4.61829e-06 2.17262e-05 0)
(1.01067e-05 0.000169762 0)
(9.39067e-06 0.00013059 0)
(6.21937e-06 9.1387e-05 0)
(5.22634e-06 0.000215302 0)
(8.21612e-06 0.000268313 0)
(8.53278e-07 6.98551e-06 0)
(-3.07532e-06 7.24003e-05 0)
(-9.90077e-09 2.59116e-06 0)
(1.23397e-07 3.93032e-08 0)
(2.93991e-06 7.63699e-05 0)
(2.52852e-06 7.55773e-05 0)
(-3.20827e-06 0.000106644 0)
(-2.75049e-06 0.000107427 0)
(5.68678e-06 5.73588e-05 0)
(5.10242e-06 4.40381e-05 0)
(4.46503e-06 3.22014e-05 0)
(-8.01613e-06 0.000149184 0)
(-8.51055e-06 0.000189636 0)
(-4.51494e-06 0.000262867 0)
(1.56213e-06 1.91444e-06 0)
(-1.20969e-08 0.000151492 0)
(-2.11414e-08 3.08415e-05 0)
(5.96999e-06 0.00025367 0)
(4.88391e-06 8.91478e-05 0)
(-1.89772e-05 0.000250672 0)
(5.61362e-06 9.20427e-05 0)
(2.23194e-07 1.64692e-07 0)
(1.55881e-05 0.000205002 0)
(1.56782e-05 0.000203855 0)
(-9.56527e-06 0.000130756 0)
(-1.02934e-05 0.000169934 0)
(-8.54677e-06 0.000130428 0)
(-9.19976e-06 0.000169584 0)
(4.64731e-06 2.16464e-05 0)
(4.16593e-06 2.17891e-05 0)
(4.63841e-06 0.000120163 0)
(5.51974e-06 0.000120024 0)
(5.02701e-06 0.000158516 0)
(5.98448e-06 0.000158363 0)
(-2.59542e-06 2.71403e-05 0)
(-3.09025e-06 2.72281e-05 0)
(-5.48718e-07 1.22492e-05 0)
(2.7523e-06 7.82605e-06 0)
(2.57671e-06 7.55633e-06 0)
(2.63243e-06 5.72449e-06 0)
(4.46678e-06 0.000216225 0)
(-1.54897e-05 0.000205379 0)
(-1.55725e-05 0.000204187 0)
(5.8954e-06 1.6058e-05 0)
(5.77995e-06 1.56021e-05 0)
(1.23005e-05 9.21745e-05 0)
(1.24658e-05 9.32025e-05 0)
(-1.22368e-05 9.00818e-05 0)
(-1.23019e-05 8.90705e-05 0)
(5.5303e-06 0.000259027 0)
(-1.52017e-05 0.000262396 0)
(-1.46122e-05 0.000220998 0)
(3.48806e-06 3.95625e-06 0)
(-8.93419e-06 0.000259112 0)
(-7.97923e-06 0.000258226 0)
(3.77131e-06 0.00012153 0)
(-2.35775e-06 0.000109279 0)
(2.08055e-06 7.40261e-05 0)
(-1.04953e-05 9.25172e-05 0)
(1.02605e-05 8.96521e-05 0)
(-5.02094e-06 1.57814e-05 0)
(-1.48391e-07 9.46405e-08 0)
(7.93481e-07 3.25775e-06 0)
(9.29472e-07 7.89674e-05 0)
(-8.84418e-06 7.9524e-05 0)
(9.48444e-06 0.000103051 0)
(-5.09943e-06 7.24293e-05 0)
(6.0261e-06 0.000111182 0)
(3.03961e-06 0.00019324 0)
(4.19901e-06 0.000192826 0)
(-1.81884e-06 4.18369e-05 0)
(-2.5079e-06 4.2088e-05 0)
(-2.03563e-06 5.49119e-05 0)
(-2.80542e-06 5.51913e-05 0)
(4.79542e-07 2.12734e-05 0)
(-1.03855e-06 0.00013133 0)
(-1.05103e-06 0.000170585 0)
(-1.69431e-06 0.000249462 0)
(2.40729e-06 5.68814e-06 0)
(-4.85439e-07 0.000106488 0)
(-7.22393e-06 0.000255704 0)
(1.00179e-06 8.05676e-07 0)
(6.43884e-06 0.000152215 0)
(-3.53107e-06 3.05038e-05 0)
(-1.09308e-05 0.000107611 0)
(-1.02671e-05 0.000107076 0)
(9.55402e-06 7.55942e-05 0)
(9.0051e-06 7.60513e-05 0)
(-1.08132e-05 0.000266627 0)
(-1.09322e-05 0.000265485 0)
(-1.80567e-06 1.23256e-05 0)
(-2.14049e-06 1.22791e-05 0)
(8.68783e-07 3.41397e-06 0)
(-2.06413e-06 3.54257e-06 0)
(4.98246e-07 0.000111719 0)
(3.151e-06 2.20394e-05 0)
(2.64866e-06 2.21793e-05 0)
(-6.43351e-06 0.00012986 0)
(-5.39595e-06 0.000129554 0)
(-6.92675e-06 0.000168982 0)
(-5.81073e-06 0.000168654 0)
(-1.40214e-05 0.000213895 0)
(-1.29759e-05 0.00021398 0)
(-3.09366e-06 6.48363e-05 0)
(-2.86329e-06 5.07715e-05 0)
(-2.53988e-06 3.81448e-05 0)
(4.41846e-06 0.000199625 0)
(-7.7179e-07 0.000226047 0)
(9.23039e-06 8.95662e-05 0)
(8.73871e-06 9.03414e-05 0)
(4.07617e-06 0.000172767 0)
(3.90059e-06 0.00013333 0)
(-1.86313e-06 2.0322e-05 0)
(1.74193e-06 2.27463e-05 0)
(1.43207e-06 2.3188e-05 0)
(-3.18846e-06 0.000166531 0)
(-3.79111e-06 0.000167387 0)
(-3.51499e-06 0.000128395 0)
(-2.8669e-06 0.00012752 0)
(-3.70048e-06 2.08571e-05 0)
(7.68597e-06 0.000132308 0)
(8.26126e-06 0.000171613 0)
(-1.01607e-07 9.67644e-07 0)
(1.37205e-05 0.000102152 0)
(-1.264e-05 8.05845e-05 0)
(-5.73738e-08 9.00412e-07 0)
(-4.14463e-06 0.000190248 0)
(-4.85857e-06 0.000191292 0)
(-3.80514e-06 0.000149843 0)
(-4.45392e-06 0.000150832 0)
(2.42806e-06 3.12454e-05 0)
(2.09033e-06 3.17924e-05 0)
(2.86506e-06 4.30068e-05 0)
(2.45752e-06 4.36298e-05 0)
(3.19894e-06 5.62158e-05 0)
(2.7408e-06 5.69107e-05 0)
(1.54356e-05 0.000214307 0)
(1.57233e-05 0.000215394 0)
(-1.47213e-06 7.27493e-06 0)
(5.78871e-06 0.00015297 0)
(-3.15365e-06 3.00839e-05 0)
(5.11317e-06 2.3801e-05 0)
(-9.98111e-06 0.000126517 0)
(-1.07759e-05 0.00016537 0)
(-1.44484e-07 4.39424e-08 0)
(1.99427e-06 0.00022333 0)
(5.04997e-06 2.27094e-05 0)
(-1.01195e-05 0.000128649 0)
(-1.09172e-05 0.000167634 0)
(3.85249e-06 6.64499e-06 0)
(-7.63835e-06 0.000242032 0)
(4.85076e-06 1.81354e-05 0)
(-1.20537e-05 0.000198766 0)
(-2.60412e-06 9.76379e-06 0)
(-2.77786e-06 1.01213e-05 0)
(2.71948e-06 1.00158e-05 0)
(-1.31425e-06 0.000106324 0)
(-1.01911e-08 -7.49846e-09 0)
(-8.11032e-06 0.000265168 0)
(-1.29533e-07 5.16032e-08 0)
(1.43804e-07 4.376e-08 0)
(-3.79808e-06 2.20002e-05 0)
(8.24499e-06 0.000169106 0)
(7.65689e-06 0.000129977 0)
(6.34647e-06 0.000223681 0)
(-1.82721e-05 0.000239963 0)
(2.33635e-06 9.9538e-05 0)
(-1.51953e-06 9.69424e-05 0)
(-4.20798e-07 1.0216e-05 0)
(-1.1796e-06 1.23996e-06 0)
(-7.35669e-09 -6.62361e-09 0)
(-4.57502e-06 7.31038e-05 0)
(5.40138e-06 0.000110406 0)
(4.01162e-07 1.40814e-07 0)
(-6.17428e-07 9.55186e-05 0)
(-5.83057e-07 9.4598e-05 0)
(-2.44619e-08 8.02232e-05 0)
(-1.13901e-07 2.05806e-05 0)
(1.93162e-07 0.000132757 0)
(1.72029e-07 0.000172238 0)
(-4.03524e-07 1.41613e-07 0)
(1.64386e-06 1.10486e-05 0)
(-6.31367e-06 0.000195534 0)
(3.62206e-06 4.0514e-05 0)
(4.06292e-06 5.34285e-05 0)
(4.46275e-06 6.77405e-05 0)
(1.32353e-05 0.000254539 0)
(-4.92296e-06 1.96863e-05 0)
(1.13512e-05 0.000174378 0)
(1.05821e-05 0.000134891 0)
(-7.52117e-06 0.00023482 0)
(1.10937e-06 2.84873e-06 0)
(1.01145e-05 0.000230465 0)
(-2.20398e-06 3.48921e-06 0)
(7.08382e-06 0.00025555 0)
(-5.44405e-06 0.000195555 0)
(3.11744e-06 4.04966e-05 0)
(3.49702e-06 5.34102e-05 0)
(3.84367e-06 6.77167e-05 0)
(9.69006e-07 2.70003e-06 0)
(4.66777e-06 0.000156838 0)
(-2.45278e-06 2.80083e-05 0)
(-8.35193e-07 1.10028e-05 0)
(-1.3303e-05 0.000231283 0)
(-4.97074e-06 6.09465e-05 0)
(-4.48266e-06 4.72679e-05 0)
(-3.94911e-06 3.50448e-05 0)
(6.68817e-06 0.000144235 0)
(7.12598e-06 0.000184372 0)
(1.82454e-05 0.00026975 0)
(1.06174e-05 0.000236766 0)
(1.17727e-05 0.00023636 0)
(1.50832e-07 1.06145e-07 0)
(6.62046e-06 7.26963e-05 0)
(-7.75651e-06 0.000110855 0)
(-3.38276e-06 7.37317e-05 0)
(3.92884e-06 0.000109703 0)
(-1.14451e-06 0.000118144 0)
(-8.71119e-07 0.000191488 0)
(5.43698e-07 5.60709e-05 0)
(4.87055e-07 4.28746e-05 0)
(2.39386e-08 3.02074e-05 0)
(-1.97207e-07 0.000114817 0)
(-9.37577e-08 0.00015269 0)
(8.34519e-06 0.000269386 0)
(4.76475e-07 1.13319e-05 0)
(-2.09525e-07 2.62927e-06 0)
(1.59259e-06 0.000162078 0)
(8.05288e-08 2.71895e-06 0)
(-1.25203e-06 8.47042e-06 0)
(3.11243e-06 3.0134e-05 0)
(-5.84841e-06 0.000152871 0)
(-1.17997e-07 1.31134e-07 0)
(-1.23223e-05 0.000231175 0)
(-1.03915e-06 2.01884e-05 0)
(2.17821e-06 0.000173155 0)
(2.16181e-06 0.000133588 0)
(2.8216e-07 6.77605e-08 0)
(-3.69756e-06 6.75448e-06 0)
(4.0449e-06 5.47479e-05 0)
(3.61408e-06 4.16932e-05 0)
(-6.20926e-06 0.000193519 0)
(1.19464e-06 7.59962e-05 0)
(-8.34007e-06 0.00026176 0)
(-1.41882e-07 1.9902e-08 0)
(-4.83512e-06 1.05545e-05 0)
(3.13432e-06 5.8204e-06 0)
(-3.16533e-06 3.48693e-06 0)
(9.29219e-06 9.12016e-05 0)
(7.05741e-06 0.000110877 0)
(-6.08576e-06 7.26715e-05 0)
(4.3293e-07 2.98999e-05 0)
(-1.0186e-06 0.000115251 0)
(-8.53743e-07 0.000153257 0)
(8.84621e-06 0.000227851 0)
(8.25334e-06 9.98647e-05 0)
(4.28229e-06 0.000263779 0)
(4.12503e-06 0.000264762 0)
(1.19256e-06 0.000110361 0)
(1.63405e-06 7.54287e-05 0)
(1.41449e-07 1.98477e-08 0)
(-1.19093e-05 0.00020664 0)
(4.365e-06 1.50562e-05 0)
(1.5063e-08 2.10057e-07 0)
(2.27091e-06 0.000147716 0)
(2.9704e-06 0.000148226 0)
(4.11944e-09 1.83729e-08 0)
(-2.30276e-06 5.63224e-06 0)
(5.66533e-06 5.56612e-05 0)
(5.06952e-06 4.2515e-05 0)
(4.42238e-06 3.08198e-05 0)
(-8.11829e-06 0.000151503 0)
(-8.6063e-06 0.000192174 0)
(7.50437e-06 9.50604e-05 0)
(1.08552e-06 0.000223569 0)
(-4.85798e-06 0.000252056 0)
(-4.60003e-06 0.000253384 0)
(-4.77945e-07 0.000194582 0)
(-4.11313e-07 0.000195649 0)
(3.27162e-07 4.04059e-05 0)
(2.97771e-07 4.10018e-05 0)
(3.66733e-07 5.3312e-05 0)
(3.33371e-07 5.39792e-05 0)
(2.37751e-07 6.76111e-05 0)
(2.85803e-07 6.83235e-05 0)
(5.82898e-07 0.000110729 0)
(1.07702e-06 0.0001125 0)
(1.87525e-06 0.000171147 0)
(-4.87792e-07 0.000117855 0)
(-2.83079e-07 6.7969e-08 0)
(-3.16289e-07 2.50776e-06 0)
(4.11041e-06 0.000156008 0)
(-2.18073e-06 2.84411e-05 0)
(1.10325e-06 3.47888e-06 0)
(1.60672e-05 0.000255788 0)
(-1.23523e-06 0.0001965 0)
(7.59374e-07 3.99527e-05 0)
(8.52419e-07 5.2804e-05 0)
(8.38339e-07 6.70222e-05 0)
(-1.22964e-05 0.000214998 0)
(4.24152e-06 7.72227e-05 0)
(6.26029e-06 0.000271476 0)
(7.08087e-06 0.000270873 0)
(-1.24439e-06 8.73329e-06 0)
(-7.90617e-07 0.0001507 0)
(4.08285e-07 3.12801e-05 0)
(1.85252e-07 1.90684e-07 0)
(1.57658e-05 0.000262991 0)
(-2.20352e-07 4.42479e-06 0)
(-2.99128e-06 4.53221e-05 0)
(-3.32737e-06 5.87919e-05 0)
(-3.97992e-06 5.9407e-05 0)
(-3.58126e-06 4.58772e-05 0)
(-2.59415e-06 3.33137e-05 0)
(-3.13681e-06 3.38159e-05 0)
(5.21302e-06 0.000146268 0)
(5.54988e-06 0.000186545 0)
(2.30019e-06 3.15702e-06 0)
(-1.48478e-07 9.06246e-08 0)
(-1.36243e-05 0.000178041 0)
(-1.41917e-05 0.000262456 0)
(4.62688e-06 0.000112412 0)
(-4.04248e-07 4.52756e-06 0)
(-7.3785e-06 0.000146004 0)
(-7.84901e-06 0.000186254 0)
(4.23072e-06 3.40203e-05 0)
(4.81263e-06 4.61052e-05 0)
(5.34555e-06 5.96566e-05 0)
(6.82061e-06 0.000224422 0)
(1.55025e-05 0.000263923 0)
(-8.38113e-06 9.20182e-05 0)
(3.46666e-06 3.04955e-05 0)
(-6.48431e-06 0.000152209 0)
(4.42671e-06 0.000113283 0)
(-1.6941e-06 8.08476e-05 0)
(4.48019e-06 5.52126e-05 0)
(4.0061e-06 4.21102e-05 0)
(-6.84331e-06 0.000192824 0)
(-1.24558e-05 9.30708e-05 0)
(1.21356e-05 8.92527e-05 0)
(1.21346e-05 9.0244e-05 0)
(-1.22929e-05 9.20181e-05 0)
(-5.80097e-06 1.55935e-05 0)
(-5.97018e-06 1.60771e-05 0)
(-5.78283e-06 9.02313e-05 0)
(-2.98271e-06 3.57037e-06 0)
(-9.35057e-06 9.09205e-05 0)
(-1.37157e-06 0.000216241 0)
(-1.22141e-06 1.47157e-06 0)
(9.40676e-06 5.3149e-05 0)
(8.38289e-06 4.02828e-05 0)
(-1.32218e-05 0.000135904 0)
(2.13682e-06 5.52469e-05 0)
(1.91097e-06 4.21372e-05 0)
(-3.28991e-06 0.000192737 0)
(4.43317e-06 1.34563e-05 0)
(7.30042e-06 0.000109983 0)
(-6.33772e-06 7.34489e-05 0)
(-3.51926e-06 3.97495e-06 0)
(3.74033e-06 0.000171829 0)
(3.57681e-06 0.000132491 0)
(-1.72886e-06 2.07218e-05 0)
(1.08631e-05 0.00016229 0)
(-5.37323e-06 2.53104e-05 0)
(1.00375e-05 0.000123666 0)
(-6.13679e-06 1.53869e-05 0)
(7.64912e-06 0.000252562 0)
(8.77429e-06 0.000252194 0)
(8.45388e-06 0.00019218 0)
(8.01591e-06 0.000151518 0)
(-4.41969e-06 3.09077e-05 0)
(-5.04245e-06 4.25106e-05 0)
(-5.63578e-06 5.56564e-05 0)
(-1.28684e-06 1.27597e-06 0)
(-6.73176e-06 0.00023458 0)
(7.33623e-06 0.000149844 0)
(-4.10797e-06 3.18314e-05 0)
(-7.82229e-07 9.80882e-07 0)
(6.26363e-06 0.000255384 0)
(1.55287e-06 1.28397e-06 0)
(1.28834e-06 9.74024e-07 0)
(3.25613e-06 4.66151e-06 0)
(7.57548e-06 0.000205397 0)
(-1.28499e-05 0.000211034 0)
(1.70863e-05 0.000256114 0)
(3.2972e-06 4.89951e-06 0)
(7.51466e-06 9.98344e-05 0)
(1.02834e-05 0.000217745 0)
(-1.65445e-05 0.000205927 0)
(6.13703e-06 1.54205e-05 0)
(-3.80536e-06 0.000219109 0)
(1.5464e-06 5.54179e-05 0)
(1.38342e-06 4.22898e-05 0)
(-2.39185e-06 0.000192474 0)
(-5.817e-07 2.80842e-06 0)
(4.38457e-06 0.00011858 0)
(1.28139e-07 5.10899e-08 0)
(-5.1119e-06 1.04528e-05 0)
(-9.02587e-07 9.75426e-05 0)
(-2.28492e-06 1.89382e-05 0)
(-2.65865e-06 1.90627e-05 0)
(4.98542e-06 0.000136312 0)
(5.78893e-06 0.00013606 0)
(6.20512e-06 0.000175641 0)
(5.34316e-06 0.000175912 0)
(1.50617e-07 5.68165e-07 0)
(-4.05892e-08 7.05635e-06 0)
(-8.98549e-06 0.000122521 0)
(-9.73324e-06 0.000161053 0)
(4.82796e-06 2.59064e-05 0)
(-2.85165e-06 1.5451e-05 0)
(-1.69001e-06 0.000165579 0)
(-2.58939e-06 6.63649e-06 0)
(5.23764e-06 0.000252965 0)
(-4.24783e-06 8.31313e-05 0)
(-4.9207e-06 8.29227e-05 0)
(1.47772e-07 1.50948e-07 0)
(-2.81658e-06 8.59664e-05 0)
(-1.4384e-06 1.74278e-05 0)
(3.26725e-06 0.00013964 0)
(3.49367e-06 0.000179474 0)
(-3.93946e-06 0.000165606 0)
(-3.47048e-06 0.000126672 0)
(1.75604e-06 2.36285e-05 0)
(2.3467e-06 8.89862e-06 0)
(2.17967e-06 8.57639e-06 0)
(1.12146e-06 8.28895e-05 0)
(-1.47229e-06 0.000175576 0)
(-1.38127e-06 0.000135976 0)
(6.08114e-07 1.90673e-05 0)
(-1.35766e-06 3.27879e-05 0)
(-2.43837e-06 6.82128e-06 0)
(9.76486e-06 0.000258897 0)
(-9.54914e-06 0.000155063 0)
(7.36539e-06 7.31598e-05 0)
(-8.58998e-06 0.000110335 0)
(1.04093e-05 0.000218725 0)
(-9.61607e-06 6.72667e-05 0)
(-8.76614e-06 5.29925e-05 0)
(1.17138e-05 0.000117421 0)
(-7.80876e-06 4.01408e-05 0)
(-6.76604e-06 2.88138e-05 0)
(1.27793e-05 0.000155546 0)
(1.3504e-05 0.00019638 0)
(-3.51735e-06 0.000187942 0)
(-3.31144e-06 0.000147587 0)
(2.11362e-06 4.50303e-05 0)
(1.85439e-06 3.30687e-05 0)
(2.35157e-06 5.8469e-05 0)
(2.02094e-06 4.56756e-05 0)
(-3.3412e-06 0.000186892 0)
(2.246e-06 5.91858e-05 0)
(1.77566e-06 3.36359e-05 0)
(-3.14366e-06 0.000146599 0)
(-1.86131e-06 0.000238259 0)
(-3.80244e-06 5e-06 0)
(-4.10867e-06 2.34054e-05 0)
(8.64027e-06 0.000166125 0)
(8.00661e-06 0.000127211 0)
(-2.58092e-06 3.14931e-05 0)
(4.65044e-06 0.000150417 0)
(1.28194e-05 0.000186231 0)
(1.20477e-05 0.000145993 0)
(-6.99002e-06 3.41098e-05 0)
(-7.95186e-06 4.61924e-05 0)
(-8.83176e-06 5.97419e-05 0)
(1.35063e-05 0.00020321 0)
(1.47422e-05 0.000202953 0)
(3.33109e-07 6.02375e-06 0)
(-1.37305e-06 9.59521e-05 0)
(-3.67659e-06 1.01907e-05 0)
(1.88564e-07 3.54388e-07 0)
(-3.61715e-06 1.29357e-05 0)
(-5.81599e-07 0.000216672 0)
(1.49197e-07 5.7654e-06 0)
(-2.97906e-06 0.0001028 0)
(1.22531e-05 0.000135985 0)
(-5.61753e-06 1.92222e-05 0)
(1.31327e-05 0.000175545 0)
(-1.2489e-08 -8.65315e-09 0)
(8.10896e-07 0.000162232 0)
(2.37188e-07 1.00019e-07 0)
(1.61849e-07 1.19943e-07 0)
(2.1704e-06 0.000116684 0)
(-2.7111e-07 2.2037e-07 0)
(9.9796e-06 0.000260829 0)
(7.38595e-07 0.000148184 0)
(-4.05357e-07 3.26885e-05 0)
(2.19934e-06 1.31672e-05 0)
(1.36813e-06 0.000147725 0)
(-7.82922e-07 3.29268e-05 0)
(-1.34018e-07 2.92461e-06 0)
(-9.41296e-06 5.31227e-05 0)
(-8.38688e-06 4.02599e-05 0)
(-7.26808e-06 2.89255e-05 0)
(-6.05195e-06 1.92687e-05 0)
(1.31905e-05 0.000135933 0)
(1.37062e-05 0.000155376 0)
(1.41377e-05 0.000175487 0)
(1.44888e-05 0.000196203 0)
(-6.42597e-06 0.000211656 0)
(-5.71117e-06 0.000251567 0)
(-1.84375e-05 0.000207799 0)
(6.6956e-06 1.47692e-05 0)
(4.19819e-06 0.000266677 0)
(4.88477e-06 0.000265529 0)
(1.3016e-06 0.000144462 0)
(1.41141e-06 0.000184638 0)
(-1.01948e-06 6.07929e-05 0)
(-9.1889e-07 4.71243e-05 0)
(-8.08926e-07 3.49123e-05 0)
(-5.32667e-06 1.54277e-05 0)
(1.9378e-06 1.10705e-05 0)
(-7.17486e-06 6.36804e-05 0)
(9.44132e-06 0.000140616 0)
(-6.49471e-06 4.97464e-05 0)
(-5.75063e-06 3.72442e-05 0)
(1.0085e-05 0.000180507 0)
(-4.04682e-06 1.70936e-05 0)
(1.02112e-05 0.000201388 0)
(1.71625e-06 9.19143e-05 0)
(-1.08102e-06 0.000224911 0)
(1.06925e-06 5.35206e-07 0)
(-7.93356e-07 0.000197537 0)
(5.0194e-07 3.9359e-05 0)
(5.63917e-07 5.21381e-05 0)
(5.2218e-07 6.62889e-05 0)
(3.18947e-06 0.000232997 0)
(-4.43234e-07 2.82016e-07 0)
(1.62053e-05 0.000229272 0)
(-2.44784e-06 9.74032e-05 0)
(-7.48568e-08 1.61853e-07 0)
(5.7965e-06 0.000138434 0)
(-2.5792e-06 1.79848e-05 0)
(6.20226e-06 0.000178182 0)
(1.2913e-07 1.01201e-07 0)
(-3.46021e-06 2.16905e-05 0)
(7.02685e-06 0.000130582 0)
(7.56308e-06 0.000169759 0)
(1.2044e-06 1.5867e-06 0)
(-4.95503e-06 8.49621e-05 0)
(1.03896e-06 9.08282e-05 0)
(-1.12365e-05 0.00024501 0)
(1.02734e-06 0.000145247 0)
(1.09511e-06 0.000185455 0)
(-8.62002e-07 6.02091e-05 0)
(-6.81108e-07 3.44498e-05 0)
(-7.76228e-07 4.65972e-05 0)
(1.662e-06 9.25922e-05 0)
(-2.37568e-07 9.06604e-07 0)
(-2.10799e-07 3.07761e-06 0)
(4.8394e-07 0.000216319 0)
(1.10653e-05 9.95403e-05 0)
(-1.04039e-05 8.29293e-05 0)
(-7.88937e-06 0.000274127 0)
(-1.78995e-05 0.000179269 0)
(-1.67468e-05 0.000139478 0)
(-1.7374e-05 0.000159042 0)
(-1.60152e-05 0.00012069 0)
(8.83513e-06 2.71022e-05 0)
(1.02556e-05 3.81337e-05 0)
(1.1558e-05 5.07208e-05 0)
(1.27482e-05 6.47312e-05 0)
(1.78489e-05 0.000179267 0)
(1.73239e-05 0.000159042 0)
(-8.86055e-06 2.71038e-05 0)
(-1.02855e-05 3.81361e-05 0)
(1.6697e-05 0.000139478 0)
(-1.1593e-05 5.07226e-05 0)
(1.59685e-05 0.000120689 0)
(-1.27872e-05 6.47332e-05 0)
(-5.12729e-06 1.49974e-05 0)
(-2.7821e-06 0.000224433 0)
(-1.98664e-06 0.000224219 0)
(-2.46971e-06 0.000254135 0)
(4.07529e-06 0.000154089 0)
(-2.20395e-06 2.94647e-05 0)
(-7.94907e-07 1.17716e-06 0)
(-3.19322e-06 0.000268571 0)
(-3.51309e-06 5.80178e-05 0)
(-4.30227e-06 5.77999e-05 0)
(-3.15467e-06 4.46258e-05 0)
(-3.86215e-06 4.44314e-05 0)
(5.16323e-06 0.000188941 0)
(6.2035e-06 0.000189029 0)
(1.36457e-05 0.000185748 0)
(1.28203e-05 0.000145542 0)
(-7.46923e-06 3.439e-05 0)
(-8.49104e-06 4.65074e-05 0)
(-9.42573e-06 6.00888e-05 0)
(-8.28175e-06 0.000122952 0)
(-8.96768e-06 0.000161521 0)
(4.42436e-06 2.56596e-05 0)
(-2.61011e-06 0.000110149 0)
(2.20311e-06 7.32819e-05 0)
(2.6852e-06 0.000194278 0)
(-1.59089e-06 4.11604e-05 0)
(-1.78286e-06 5.41558e-05 0)
(-1.92968e-06 6.83971e-05 0)
(5.10955e-06 7.2411e-05 0)
(4.32836e-06 7.25956e-05 0)
(-6.01115e-06 0.000111155 0)
(-5.09128e-06 0.000110928 0)
(-6.04525e-06 0.000266563 0)
(4.10778e-07 1.13048e-06 0)
(1.00284e-05 0.000229522 0)
(3.61781e-06 8.04071e-05 0)
(9.83478e-06 0.000158876 0)
(-5.03889e-06 2.70154e-05 0)
(9.06289e-06 0.000120511 0)
(-8.45408e-06 9.63631e-05 0)
(2.05803e-06 2.04648e-05 0)
(-4.7154e-06 0.000172401 0)
(-4.39194e-06 0.000133038 0)
(5.78891e-07 8.3653e-05 0)
(-7.3821e-07 0.00013688 0)
(-7.8427e-07 0.000176542 0)
(3.10722e-07 1.8651e-05 0)
(5.6882e-06 7.5782e-05 0)
(-6.49929e-06 0.000107266 0)
(-3.11246e-06 0.000238255 0)
(-1.43769e-05 0.000235981 0)
(2.56372e-06 0.000102337 0)
(6.45104e-06 0.000102658 0)
(-5.27109e-06 1.98894e-05 0)
(1.20951e-05 0.000173947 0)
(1.12722e-05 0.000134491 0)
(-5.87352e-07 2.4975e-06 0)
(-1.95371e-06 0.000198907 0)
(1.08178e-06 3.85707e-05 0)
(1.21782e-06 5.12525e-05 0)
(1.33231e-06 6.53235e-05 0)
(-2.98465e-06 9.69286e-05 0)
(-1.33271e-05 0.00023606 0)
(-3.86115e-06 3.86173e-05 0)
(-4.34826e-06 5.12995e-05 0)
(-4.77695e-06 6.54012e-05 0)
(6.77879e-06 0.000198838 0)
(1.25117e-08 1.64558e-08 0)
(8.35554e-06 9.55931e-05 0)
(1.05844e-07 7.52125e-06 0)
(-4.01852e-07 7.03268e-07 0)
(-8.34156e-07 3.23042e-06 0)
(-3.9837e-06 1.37935e-05 0)
(-4.10559e-07 1.51199e-07 0)
(1.64668e-06 4.35844e-05 0)
(1.44676e-06 3.1778e-05 0)
(1.83649e-06 5.68613e-05 0)
(-2.79533e-06 0.000190313 0)
(-2.64866e-06 0.000149857 0)
(-8.14165e-06 7.93529e-05 0)
(8.79773e-06 0.000103273 0)
(-8.13451e-07 4.80544e-07 0)
(1.06631e-05 0.000252648 0)
(7.688e-06 0.000226073 0)
(-1.64088e-05 0.000212818 0)
(6.07508e-06 0.000101867 0)
(2.18403e-06 0.000110614 0)
(-4.1388e-06 0.000268449 0)
(-1.1511e-05 0.000115872 0)
(-1.09499e-05 0.000115362 0)
(1.61816e-05 0.00026837 0)
(-1.30684e-06 0.000239441 0)
(-3.65435e-06 7.2987e-05 0)
(4.36525e-06 0.000110592 0)
(1.31783e-07 7.78452e-06 0)
(2.02929e-06 2.75527e-06 0)
(4.07467e-07 1.50083e-07 0)
(3.85709e-06 0.000117808 0)
(1.42599e-05 0.000273871 0)
(-7.83057e-06 0.000190346 0)
(-7.37323e-06 0.000149853 0)
(4.07704e-06 3.1816e-05 0)
(5.20737e-06 5.68743e-05 0)
(4.66872e-06 4.36017e-05 0)
(-1.49544e-07 1.04988e-07 0)
(-5.97392e-07 0.000249206 0)
(7.3162e-06 0.00010296 0)
(-6.68086e-06 7.97553e-05 0)
(-1.17277e-05 0.000243173 0)
(-1.75081e-05 0.000180185 0)
(-1.69977e-05 0.000159927 0)
(-1.63913e-05 0.000140333 0)
(-1.56804e-05 0.000121508 0)
(8.56626e-06 2.66387e-05 0)
(9.95954e-06 3.75987e-05 0)
(1.12371e-05 5.01199e-05 0)
(1.24049e-05 6.407e-05 0)
(1.74558e-05 0.000180179 0)
(1.69476e-05 0.000159927 0)
(-8.591e-06 2.6642e-05 0)
(-9.98826e-06 3.76025e-05 0)
(1.63394e-05 0.00014033 0)
(-1.12707e-05 5.01233e-05 0)
(1.56322e-05 0.000121504 0)
(-1.24423e-05 6.40739e-05 0)
(-2.58649e-06 3.48218e-06 0)
(1.01742e-06 9.61125e-07 0)
(-1.36224e-06 2.50032e-06 0)
(6.51323e-06 0.00010103 0)
(-7.16891e-06 0.000104019 0)
(1.29747e-06 1.56957e-06 0)
(-2.01779e-07 3.37161e-08 0)
(-1.57793e-05 0.00021333 0)
(9.0155e-06 0.000271112 0)
(1.01192e-05 0.000271623 0)
(2.01235e-07 3.36374e-08 0)
(2.92002e-06 3.90573e-06 0)
(1.41266e-05 0.00024684 0)
(-5.39017e-06 0.000114956 0)
(-3.57536e-07 3.14562e-07 0)
(-8.08688e-07 1.25993e-06 0)
(-1.26449e-07 3.23497e-08 0)
(2.36625e-07 1.84791e-07 0)
(1.46349e-05 9.16927e-05 0)
(-1.46226e-05 9.06363e-05 0)
(4.4866e-06 6.92196e-05 0)
(-5.52474e-06 0.000112861 0)
(4.65832e-06 7.09903e-05 0)
(-2.4517e-07 4.16573e-06 0)
(-3.40325e-06 0.000180148 0)
(2.68142e-06 8.65321e-05 0)
(-1.90407e-06 0.000178198 0)
(-1.82304e-06 0.000138345 0)
(7.83378e-07 1.79942e-05 0)
(1.46945e-06 8.49689e-05 0)
(-6.01051e-06 0.000114372 0)
(3.1118e-06 4.13753e-06 0)
(5.0265e-06 6.97401e-05 0)
(1.85824e-06 0.000102493 0)
(1.41967e-05 0.000254899 0)
(-4.34463e-06 0.000103335 0)
(-4.99379e-06 0.000104035 0)
(-4.0838e-06 8.75014e-06 0)
(-4.84282e-06 0.000107327 0)
(-4.14311e-06 0.000106586 0)
(4.29804e-06 7.5658e-05 0)
(3.7741e-06 7.64011e-05 0)
(-4.56862e-06 2.12364e-05 0)
(9.40839e-06 0.00013159 0)
(1.01179e-05 0.000170837 0)
(-1.26835e-06 1.41724e-06 0)
(-6.02179e-06 0.000113458 0)
(5.06134e-06 7.05152e-05 0)
(-3.83962e-06 0.000145848 0)
(-4.08409e-06 0.000186094 0)
(2.1912e-06 3.40753e-05 0)
(2.76709e-06 5.97376e-05 0)
(2.49177e-06 4.61736e-05 0)
(-2.01625e-06 9.44949e-06 0)
(-1.2559e-05 0.00015378 0)
(-1.19019e-05 0.000153296 0)
(6.68438e-06 2.97446e-05 0)
(6.35785e-06 3.0002e-05 0)
(8.26421e-06 0.000122165 0)
(9.08717e-06 0.000121565 0)
(-4.50738e-06 2.60877e-05 0)
(-4.99012e-06 2.64319e-05 0)
(8.95559e-06 0.00016067 0)
(9.85228e-06 0.000160018 0)
(-3.61865e-06 0.000237383 0)
(7.18624e-06 0.000216813 0)
(7.28989e-06 0.000215804 0)
(-5.35595e-06 7.0997e-05 0)
(6.25456e-06 0.000112833 0)
(-1.88991e-05 0.000264433 0)
(-5.44878e-06 0.000211054 0)
(-5.23322e-06 0.000210067 0)
(1.83042e-06 1.37172e-05 0)
(1.88154e-06 1.33688e-05 0)
(1.62913e-05 0.000213393 0)
(-7.23831e-06 9.10018e-05 0)
(-6.21555e-06 9.10334e-05 0)
(1.61174e-05 0.000240872 0)
(-1.6324e-05 0.000253897 0)
(-1.63029e-05 0.000255104 0)
(-5.06304e-07 2.58392e-06 0)