/*--------------------------------*- C++ -*----------------------------------*\
| =========                 |                                                 |
| \\      /  F ield         | OpenFOAM: The Open Source CFD Toolbox           |
|  \\    /   O peration     | Version:  2.3.1                                 |
|   \\  /    A nd           | Web:      www.OpenFOAM.org                      |
|    \\/     M anipulation  |                                                 |
\*---------------------------------------------------------------------------*/
FoamFile
{
    version     2.0;
    format      ascii;
    class       volSymmTensorField;
    location    "2480";
    object      sigma;
}
// * * * * * * * * * * * * * * * * * * * * * * * * * * * * * * * * * * * * * //

dimensions      [1 -1 -2 0 0 0 0];

internalField   nonuniform List<symmTensor> 
11800
(
(120272 67325.6 5.81557e-14 -2519.46 3.08249e-14 29216.7)
(-60973 61567.2 8.92751e-14 -1522.16 2.83349e-14 -15506.3)
(536626 82099.5 -1.44466e-15 1123.55 -6.49121e-14 133427)
(-467886 45630.8 0 172.677 0 -116049)
(-62960.9 59290.9 1.66569e-14 -6047.48 -4.70923e-14 -17122.4)
(-293402 85791.7 6.47657e-14 2594.32 3.3993e-14 -72155.2)
(-54326.5 83082.6 1.22217e-13 -725.333 -3.17987e-14 -13659.5)
(-76205.4 84914.7 -1.82131e-14 1138.34 7.33333e-14 -18625.7)
(166687 49337.5 2.46156e-14 439.786 -1.68401e-14 41467.6)
(112349 89063.1 -6.29094e-14 1251.11 -5.30239e-14 28186.4)
(139033 56894.4 -4.8515e-14 922.971 4.15546e-14 34725.9)
(-678750 34225.6 -5.82191e-14 -5121.79 -2.64369e-14 -169682)
(19874.6 -28876.6 1.07757e-16 -53550.3 8.37205e-17 -8355.61)
(497430 45763.8 5.28343e-14 3248.11 -1.44769e-14 124229)
(-399001 80272.5 -4.39723e-14 6651.61 3.42101e-14 -97350)
(1.88688e+06 -3272.87 0 -5602.58 0 466782)
(-35602.1 66818.5 4.13584e-14 3039.73 3.65026e-15 -8079.38)
(-54694.2 61203.7 -2.33539e-14 6377.59 1.34239e-13 -11988.3)
(114431 103447 -2.41496e-14 -15691 1.71932e-14 24499.4)
(85402.7 56158.2 -8.37288e-14 -8717.83 -2.70948e-14 19027.1)
(-368325 51334.8 2.6048e-14 -317.839 2.73121e-14 -91467.7)
(-593418 75508.6 4.16935e-14 2958.99 -2.42567e-14 -146505)
(-803548 99696.5 -2.14003e-14 9966.68 1.38088e-14 -196904)
(-737512 60686.4 2.17352e-16 139.691 3.73283e-15 -182957)
(1.53598e+06 72382.1 2.6054e-15 -6803.6 3.09093e-14 379420)
(-954992 98636.9 -2.09895e-14 6480.02 -6.10247e-16 -235345)
(-986165 51970.7 0 8500.61 0 -242578)
(485570 40164.7 -6.8939e-14 -5510.55 -4.16564e-14 119113)
(-1.07851e+06 53435.3 -1.2076e-14 9588.46 -5.77523e-14 -265221)
(-1.17259e+06 54270.3 1.59987e-14 10623.3 -2.49436e-14 -288307)
(321183 43048.1 -8.53902e-14 -1679.31 -1.53135e-13 79275.3)
(63888.5 58780.9 -1.40113e-14 2262.16 -1.16375e-14 16413.3)
(968706 94563.7 -3.40459e-15 11111.9 -1.50098e-14 243113)
(-24766.5 72268.3 1.117e-14 -1235.64 -8.36752e-14 -6451.65)
(16755 75669 -2.95311e-14 3110.05 -1.26858e-13 4928.92)
(-314637 33327.6 -7.75362e-14 1155.01 -5.63503e-14 -77781.3)
(18061.7 76289.8 1.04892e-13 2173.46 -1.24835e-13 5020.75)
(1.03855e+06 57822.3 -1.2502e-14 5476.37 -5.39088e-14 259043)
(-37363.3 73222.1 0 -2601.88 0 -9916.17)
(81412.1 68426.7 -3.63101e-14 4776.25 6.76719e-14 21385.1)
(-1.03625e+06 40247.7 -6.47527e-14 -5110.77 -3.01256e-14 -258382)
(-1.13315e+06 40294.1 4.64317e-14 -5371.42 -2.66657e-14 -282489)
(510045 52617.9 -2.65681e-14 -1968.06 -8.85619e-14 126064)
(-1.23205e+06 41186.8 -8.93151e-15 -5410.91 -4.73337e-14 -307040)
(337441 52762.5 2.26991e-13 1543.02 -7.08564e-14 84108.8)
(1.7632e+06 46874.7 0 -6486.86 0 435875)
(765752 107911 -1.35336e-14 -3157.64 7.11132e-15 189215)
(913184 43827.8 -2.38538e-14 -9908.87 -1.66231e-14 224121)
(-86233.9 75433.7 -8.99956e-14 -502.468 -5.54844e-14 -21521.1)
(197681 71791.4 0 2121.57 0 49575.1)
(-702774 42871 -4.33717e-15 2513.19 4.62382e-14 -173749)
(-493433 41053 1.50932e-13 4028.03 1.76983e-14 -121431)
(-10173 74954.1 8.45918e-14 235.326 5.27098e-14 -2465.73)
(36012.2 119223 -1.88719e-15 7084.3 1.64658e-14 10693.1)
(-2.02669e+06 5757.41 -2.92247e-15 -10512.7 -4.50339e-15 -505473)
(1.61302e+06 -66624.4 3.86546e-15 -74009.3 6.91629e-15 381859)
(-54783.4 22168.9 7.28471e-14 1802.17 2.70647e-14 -13145.7)
(-443340 84372.1 5.44383e-15 -4667.87 -4.53649e-14 -111160)
(354286 55747.6 -4.60879e-14 7491.68 6.75203e-14 89764.3)
(-315021 87713 3.78691e-14 -6502.94 -6.8372e-15 -79776.5)
(1.66158e+06 23679.1 -3.39464e-14 -12696.1 -1.17724e-14 409121)
(-43199 78423.6 3.58019e-14 698.496 -5.83073e-14 -10545.2)
(-349731 70158.5 -2.0763e-14 -2599.69 3.57354e-14 -87420.4)
(278084 70446.9 6.28925e-14 2292.85 -3.58978e-14 69567.1)
(1.51759e+06 15251 3.73187e-15 -185.471 -2.22989e-14 376500)
(-219399 33590.7 -1.02457e-13 2297.56 -1.23883e-13 -53867.3)
(-725427 20802 7.21679e-14 3443.18 2.40807e-14 -179139)
(-514874 23578.2 2.06404e-15 3994.65 -1.26632e-13 -126760)
(-56569.1 23819.1 0 -2998.42 0 -14779.9)
(-890416 57511.4 -1.62294e-15 8910.12 5.50468e-14 -218720)
(-20107.7 76586.5 -2.05235e-14 272.079 4.23984e-14 -4921.62)
(-44244.5 60880.5 -7.90672e-14 -3200.05 8.85108e-14 -11772)
(-39043.1 59340.2 5.54543e-14 -2636.94 -3.39593e-14 -10341.7)
(-1.3629e+06 303302 -4.8768e-15 173397 4.4491e-15 -295139)
(1.64653e+06 64737.2 -1.27709e-15 -6114.31 -1.35568e-14 407021)
(-295858 48343.4 -7.6175e-14 4889.97 -5.54256e-14 -72195)
(1.58474e+06 15162.2 -2.8345e-14 3513.04 2.52261e-14 394078)
(-213453 22297.5 6.73578e-14 276.995 -2.21113e-13 -52893.2)
(-158385 42765.8 1.26656e-14 1593.09 -1.20943e-14 -38903.2)
(-150616 54131.4 1.29301e-13 2901.6 1.2974e-13 -36650.8)
(-2.04424e+06 -37150.8 1.05524e-14 8349.36 4.89712e-14 -505146)
(87123.9 52033.9 0 7590.17 0 23500.5)
(47753.8 62236 -1.34434e-13 1181.92 -5.30015e-14 12142)
(32969.9 66354.5 4.66081e-14 1822.88 -3.68955e-16 8632.8)
(-69123 58903.4 3.19912e-14 -7122.05 9.05807e-14 -18918)
(-1.1411e+06 66422.5 -1.78581e-14 -6570.12 9.07331e-14 -284760)
(346669 48990.8 1.08503e-13 3521.05 -3.37689e-14 86889.3)
(-1.04714e+06 63421.8 0 -5661.57 0 -261220)
(-956682 62000.4 -3.76552e-14 -5109.73 -3.8554e-14 -238640)
(511880 46089.2 4.97374e-14 4592.61 3.0358e-15 128147)
(-11170 73909 -1.75256e-13 -2579.08 -1.1247e-13 -3411.42)
(1.14678e+06 87621.1 0 -3646.51 0 283635)
(-93722.7 65475.6 -3.71817e-14 1829.71 -6.16827e-14 -22800.5)
(61170 18550.1 -2.14466e-14 4253.46 -3.11343e-14 16232.9)
(139953 64299.5 1.64816e-13 654.451 2.94927e-15 34887.6)
(45984.7 -34682.1 -6.85913e-16 -97631.4 -5.0833e-16 -12814.6)
(-2436.62 9525.24 1.78446e-17 5718.74 -1.0611e-16 814.361)
(-46381.7 -34434.1 -4.33691e-16 97275.4 2.88825e-16 12627.8)
(-11157 75319.1 -5.44876e-14 -478.941 -7.94139e-16 -2887.1)
(-591077 49145.8 -1.3384e-14 -2381.32 5.35116e-14 -147249)
(43158.6 37872.6 2.99493e-14 -212.497 -8.38283e-14 10655.8)
(642644 55059.3 -6.48691e-14 -6193.08 -8.98412e-14 157916)
(-1.08687e+06 98226.1 4.41873e-15 99.5841 8.98953e-15 -269649)
(-358780 70272.4 -2.72381e-15 5740.98 8.62217e-15 -87596.1)
(-567.597 80001.4 -8.4096e-15 -612.02 -4.18613e-14 -292.687)
(279808 90970.9 -1.75757e-14 2280.76 -3.04529e-14 69991.9)
(-131568 65656.7 -5.15283e-14 -54.0402 1.13687e-13 -32658.1)
(-92394.8 69163.8 -1.74468e-13 -746.632 -8.41859e-14 -23110.3)
(1.6309e+06 21973 9.95408e-15 4034.3 2.08707e-14 405661)
(1.05222e+06 55227.1 1.61056e-14 3475.96 3.27181e-15 261939)
(1.14725e+06 56830.9 3.08743e-14 4230.28 4.30908e-14 285704)
(962008 53802.7 1.12708e-13 3649.3 6.68229e-14 239599)
(-351590 50225.8 5.08513e-14 -4170.04 7.94416e-14 -88271.2)
(-518825 48558.4 -1.34532e-13 -4140.14 4.83767e-14 -129758)
(186421 59521.8 5.75882e-14 311.308 -3.02058e-14 46332)
(1.46898e+06 35607.5 1.50416e-14 -182.589 8.8889e-15 364439)
(205108 30321.9 -4.18971e-14 -3189.93 -1.64756e-13 50099.9)
(-64087.5 70443.3 -1.45242e-13 1211.81 1.35888e-13 -15600.7)
(1.37566e+06 69485.6 -1.73094e-14 668.232 2.15796e-14 341494)
(-115080 92193.2 -4.7239e-14 341.867 -1.27201e-14 -28468.9)
(-183681 44156.6 -3.27407e-14 2356.45 -1.38096e-14 -44990.2)
(55785.3 83159.4 1.03993e-13 -3018.4 -1.48943e-13 13092.5)
(79193.9 86794.6 -7.25338e-14 -1498.05 4.99082e-14 19277.9)
(-56240.6 68871.6 -2.10955e-14 1802.81 -3.11348e-14 -13507.1)
(-98493.9 62189.5 -1.32253e-13 -292.015 -1.03255e-13 -24510.8)
(-2724.92 74461.6 -1.2711e-13 -2503.8 -9.57064e-14 -1297.35)
(-31188.1 74020.3 -7.62078e-14 -2552.72 8.37728e-14 -8371.77)
(-6332.27 75076.6 -4.98219e-14 -1776.29 -4.75083e-14 -2011.9)
(8065.81 53674.7 2.37131e-15 35306.9 1.062e-13 10761.6)
(-33441.1 9046.44 -3.65923e-16 -7700.8 5.05142e-14 -10208.2)
(-1.74989e+06 -280087 1.57345e-14 73367.6 -7.98366e-15 -415980)
(-1.24863e+06 67455.2 1.12854e-14 -9472.77 -1.71853e-15 -312160)
(379160 44518.5 5.74168e-14 3999.99 -5.60195e-14 95069.8)
(-1.13613e+06 67857 -4.46698e-14 1580.86 2.80768e-14 -281504)
(546510 40649.4 -2.59028e-14 4828.45 7.84133e-14 136798)
(-1.03999e+06 64110.7 1.70396e-14 1916.26 1.71157e-14 -257566)
(-949047 62040.1 -9.7917e-14 2166.71 7.48761e-14 -234940)
(315489 60885.1 5.62093e-14 -3037.43 1.56758e-13 77525.5)
(-972208 30943.9 6.09801e-14 7201.66 -8.40025e-14 -239438)
(458059 62604.8 6.98311e-14 -3407.5 -5.56217e-14 112808)
(-890808 30497.9 5.03968e-14 6214.46 -8.69534e-14 -219486)
(-813317 31653.8 -5.22711e-14 6213.79 -4.70675e-14 -200259)
(-463204 83355.6 3.95172e-15 13504.2 3.96174e-14 -111580)
(138275 69808.6 -2.80576e-14 -5701.31 -1.87054e-13 32894.3)
(197144 66669.4 -4.48823e-14 -6475.28 -1.29786e-13 47308.8)
(-289232 65054.1 -1.35283e-14 9389.78 7.80874e-14 -69434.6)
(1.16575e+06 41472.2 -8.5799e-14 1456.81 -2.89312e-14 289608)
(-1.20658e+06 -12222.3 8.25557e-14 -10038.2 2.55542e-14 -301867)
(676299 41995.7 5.80629e-14 -2936.5 -5.40899e-14 167075)
(-355791 45156.9 1.31251e-15 6293.81 7.80328e-15 -86717.4)
(-160965 67038.4 -7.27708e-14 2691.35 -6.01606e-14 -39270.9)
(-168569 57023.7 6.22782e-14 -1575.91 -5.63761e-14 -42216.3)
(17379.7 74907.3 4.73431e-14 1831.43 8.65281e-14 4766.66)
(-238836 49573.3 -1.06477e-13 438.794 1.10472e-13 -59151.1)
(201942 58295 -5.58525e-14 -4397.3 -5.90498e-14 49014.7)
(136468 67556.9 -5.11626e-14 1871.2 3.94589e-14 34324.8)
(-439449 54498 8.66193e-14 6983.07 -5.83364e-14 -107304)
(-613558 59594.3 3.15455e-14 2612.14 6.90011e-14 -151588)
(1.26143e+06 22877.5 1.96735e-14 1580.49 -2.73324e-16 313378)
(-5543.68 78157.1 2.48525e-14 -95.7597 -1.20958e-13 -1399.26)
(1.85516e+06 72270.3 -2.30693e-14 -11819.5 -1.25862e-14 457370)
(-196738 60308.8 -9.19713e-14 1359.83 6.34056e-14 -48477.4)
(1.59364e+06 46968.8 0 -16906.6 0 391219)
(-451581 61009.1 2.72609e-14 -3824.09 1.13712e-13 -112995)
(-494389 61564.5 -2.79448e-14 -4685.32 3.3191e-14 -123830)
(-538240 63769.9 -4.47745e-15 -4865.36 1.20322e-13 -134755)
(246285 66542.4 -6.82316e-14 709.913 1.67936e-14 61284.5)
(167285 69312.3 -7.27425e-14 2.35109 1.79714e-14 41507.3)
(-2.0284e+06 -12746.5 1.83226e-14 -8076.7 -1.04657e-14 -505291)
(-1.24211e+06 65817.8 -1.86588e-14 -7057.85 3.52968e-14 -309944)
(429449 48239.4 -7.26225e-14 4501.38 -4.25231e-14 107672)
(594071 44595 2.04264e-13 4357.18 -1.09837e-13 148482)
(67898.9 73884.3 3.99294e-14 -7194.58 -1.03292e-13 15062)
(-353551 35266 0 1749.01 0 -87289.2)
(-359186 21483.5 1.09192e-13 -999.479 -5.55326e-14 -89369.4)
(1.75554e+06 50959.8 2.98176e-14 -12658 1.99098e-14 432443)
(1.79807e+06 -7460.33 2.46984e-14 11566.8 2.18688e-14 449009)
(931373 26251.1 1.44254e-15 -607.782 5.19791e-14 230942)
(852301 27204.4 1.0467e-14 118.675 1.25928e-13 211503)
(1.01463e+06 24638.9 2.69406e-14 -1566.34 -3.89268e-14 251362)
(-437866 63937 -6.58918e-14 3876.56 5.93191e-14 -107682)
(-292263 61975.1 -6.39015e-14 2382.88 7.01269e-14 -71925.1)
(190209 84022.5 0 1747.39 0 47628.2)
(128892 83550.3 -2.66823e-15 848.776 1.01652e-13 32191.2)
(414952 64671.9 -7.85706e-14 -348.79 6.427e-14 102871)
(-176042 61451.1 -6.28207e-14 2028.75 1.49076e-13 -43176.2)
(-280795 92474.4 -1.25678e-14 3183.72 5.56847e-14 -68881)
(84986.8 68339.6 -2.32792e-13 -874.949 -6.18092e-14 20869.9)
(120571 64003.2 -1.61157e-13 -566.781 6.74669e-14 29775.4)
(-76260.4 76818.1 -3.13824e-14 1953.44 -4.38602e-16 -18437.1)
(-212213 54521.7 -2.62138e-14 4516.46 -1.63878e-14 -51533.8)
(-194270 54278.6 1.72819e-14 3648.17 -2.95386e-14 -47297.1)
(-197094 41879.5 0 -682.626 0 -49072.4)
(-96669.7 96159.6 3.65918e-16 -4500.16 -3.47061e-14 -25102.3)
(-887837 6406.03 7.64174e-14 -6552.13 -3.34642e-14 -221916)
(1.11654e+06 48643.4 -9.96081e-14 -4905.44 -9.99315e-15 275819)
(1.42841e+06 156123 6.03438e-15 -250497 3.05778e-15 292264)
(-34138.7 67101.5 2.07867e-14 -2816.14 -4.71442e-14 -9169.25)
(214374 25339.9 7.58483e-14 1645.11 -1.73251e-13 53598.7)
(-1.79371e+06 -218666 1.51003e-14 148206 -9.84971e-15 -408284)
(99549.5 54053.1 3.24683e-15 3700.02 8.80606e-14 25618.3)
(270025 37821.8 6.1246e-14 1833.3 -7.03351e-14 67453.5)
(297939 41002.9 8.55146e-14 -4561.53 -3.60949e-14 72792.9)
(-3886.16 77694 6.44006e-14 -53.0862 -9.55759e-15 -977.406)
(-4510.46 80038.7 6.79334e-14 -601.067 5.74859e-15 -1268.27)
(808435 32304.9 2.17609e-14 -5065.41 7.26351e-14 199332)
(669758 80567.4 2.7747e-14 4628.57 -6.6989e-15 167329)
(-608446 67134.9 0 5285.85 0 -149656)
(-520601 39109.1 -7.03915e-14 -8594.46 -4.40545e-14 -131304)
(1.74275e+06 -282721 -6.33015e-15 -75240.5 -4.31096e-15 413743)
(-526343 105708 -5.6866e-15 14323 6.67582e-14 -127043)
(-845600 41064.1 3.93992e-14 -2427.69 -2.32827e-14 -210413)
(-1.81956e+06 -732248 -1.70615e-14 384276 6.68773e-15 -356123)
(2.14261e+06 3066.84 0 29349.5 0 538906)
(-1.5937e+06 -678510 -5.55346e-15 181769 1.72113e-15 -350328)
(273437 106697 -3.75633e-14 19.1386 1.32898e-14 67849.9)
(-61554.3 63977.4 -6.56994e-15 -1936.34 9.19075e-14 -15753.3)
(-798649 78249.3 3.30447e-14 -6580.11 -3.64089e-14 -199794)
(-727303 76826.8 4.91746e-14 -5481.02 -6.13339e-15 -181819)
(-664752 74618.3 -5.59864e-14 -4977.41 2.16422e-15 -166173)
(236720 56482.2 4.87455e-14 3444.34 -1.36055e-13 59589.6)
(353128 53021.3 -1.22427e-13 4098.98 1.19066e-13 88635.4)
(35119.8 67083.5 -1.92336e-14 -6916.28 9.03141e-14 6997.87)
(49647.8 62279.7 4.55699e-14 -8829.71 5.84063e-14 10127.8)
(-117751 100306 -5.26262e-14 18394.3 1.42592e-14 -24652.4)
(-72748.6 58972.8 3.88724e-14 12778.6 -4.97512e-14 -14879.8)
(-998614 -402005 -4.30451e-15 -24616.3 8.99396e-16 -253884)
(179400 100773 -2.98252e-14 13707.7 -1.05967e-13 47913.8)
(-88742.8 60542.3 -1.01797e-13 -7371 -4.65618e-14 -23847.8)
(-416566 91832.6 0 242.66 0 -103298)
(179358 59195.3 7.91851e-14 1350.64 -3.23804e-14 44837.5)
(-87731.3 80070 0 -247.961 0 -21829.4)
(-66732.6 66594.5 -4.94572e-14 -342.28 -7.8382e-14 -16642.6)
(619441 66480.4 6.95365e-14 3835.39 -7.2723e-14 154648)
(636591 44064.2 1.06344e-13 -286.71 5.08116e-14 157880)
(1.81442e+06 -730266 -6.3745e-15 -384101 -2.11198e-15 354892)
(995752 -401244 7.45236e-15 24361.8 2.04515e-15 253111)
(-197632 49401.4 1.50772e-14 1376.29 2.14668e-14 -48694.9)
(-211301 50754.9 -4.58007e-14 -2506.52 -9.37124e-14 -53050.1)
(-1.10801e+06 4791.21 -5.06554e-14 -4834.63 -1.16302e-14 -276119)
(895338 46571.7 1.14461e-13 -3704.78 -2.99392e-14 221232)
(292110 63085.3 3.76003e-15 -2139.16 2.07637e-13 71947.7)
(436785 66073.9 7.05256e-14 -3098.87 7.67343e-14 107606)
(-1.01927e+06 25502.3 -1.82535e-15 -1486.88 4.43184e-14 -253271)
(-937901 27623.9 -4.48999e-14 -527.486 1.48507e-14 -232843)
(-857559 29271.8 -2.93469e-15 -655.78 6.9676e-14 -212941)
(-12742.5 79277.2 -1.07216e-13 -1012.11 3.10295e-14 -3412.79)
(-1.11142e+06 26674.9 2.93541e-14 -2017.9 3.15852e-14 -276267)
(364922 62369.2 -7.228e-14 -2250.9 3.54761e-14 89986.2)
(509454 64462 0 -3215.87 0 125608)
(481603 50837.7 2.75927e-14 -3442.84 6.59516e-14 118641)
(93450.6 65772.9 -9.06006e-14 1630.35 -2.39652e-13 23591.5)
(7499.85 69912.4 -7.94033e-14 -7951.52 -2.92233e-14 -112.071)
(405479 42159.8 -1.02714e-13 13030.5 1.84898e-14 103841)
(-337957 52166.6 -8.69263e-15 -1036.92 -7.02466e-14 -84111.2)
(53222.6 73814.3 1.19276e-15 -12655 1.50494e-14 10065.6)
(1.58867e+06 -677267 -5.77051e-15 -182420 -1.4541e-15 348918)
(238200 71376 7.23141e-15 -2585.35 -1.3333e-13 58460.8)
(287472 69877.2 6.20312e-14 -68.9849 2.11067e-14 71310.5)
(-190118 69599.6 0 488.231 0 -47051.1)
(-225707 77317.5 2.30914e-14 -5357.89 -6.4323e-14 -57331.9)
(663672 74085.5 0 6696.08 0 166332)
(726094 76865.8 4.10695e-14 6680.09 3.90191e-14 181816)
(789954 80647.6 -9.22067e-14 6798.79 -8.88721e-15 197690)
(-354654 50267.4 1.29228e-13 -4952.93 1.31317e-13 -89225.7)
(-240642 54949.9 6.78263e-15 -3706.96 -7.85442e-14 -60628)
(-13804.3 76457.1 7.63686e-14 638.192 4.06828e-14 -3266.77)
(1.62478e+06 16954.9 -1.20575e-14 -25508 -2.22324e-14 396811)
(-10662.5 84960 -8.2579e-14 -5164.65 2.57395e-14 -3927.05)
(19020.6 48158.8 -7.97182e-14 9756.56 -4.96818e-14 7140.2)
(35122.3 72978.2 5.93445e-14 859.665 -1.37807e-13 8927.86)
(375367 70530.4 6.33899e-14 -232.812 6.70327e-14 93078.5)
(-151087 7873.71 -1.05069e-13 -3001.2 5.15646e-15 -38232.3)
(495124 78801.8 0 -3074.38 0 122087)
(1.7168e+06 -66588.6 2.79144e-16 -244616 1.12363e-16 365279)
(377746 21625.2 6.06402e-14 5337.47 1.37956e-13 95050.7)
(362289 32061.6 2.74861e-14 -5595.43 1.49822e-14 88503)
(-540262 66376.7 9.05139e-15 5182.44 1.91047e-14 -132764)
(-384675 63278.9 -7.041e-14 3836.67 2.25585e-14 -94493.6)
(-460616 43851.5 -1.44102e-13 -1179.48 -2.52289e-14 -114581)
(-330351 48188.2 7.26614e-15 -2174.64 -7.64491e-15 -82506.4)
(1.16149e+06 23234.1 -5.12389e-15 -2939.99 1.6809e-14 287461)
(960821 85754 2.15075e-15 -133.211 -3.47539e-14 238366)
(271856 76881 1.2759e-14 -2874.87 7.54986e-15 66739.7)
(366098 64938.7 2.39431e-14 260.101 4.07668e-14 90900.8)
(200205 76579 6.65577e-14 -3985.12 4.74471e-14 48686.2)
(269506 65253.9 5.96917e-14 -2575.15 -9.45281e-15 66230.9)
(-526763 49895.9 -1.11095e-14 4960.57 2.79396e-14 -129470)
(-691863 73925.1 -3.08459e-14 1361.94 5.54307e-15 -171327)
(-161135 113727 3.43956e-14 -674.601 2.45989e-14 -40148.2)
(1.1507e+06 53899.5 3.84682e-14 4536.08 2.76649e-14 286638)
(1.24818e+06 54240.4 -8.35041e-15 20147.8 4.16018e-15 314699)
(1.48376e+06 54582.2 6.77555e-15 -2342.92 4.27833e-15 367570)
(101216 73032.9 -1.29465e-13 1210.01 1.57279e-13 25413.9)
(-372878 22824.4 -8.02338e-14 -4021.72 -4.12623e-14 -93516.4)
(-359800 34498.8 -1.01801e-13 4868.11 6.81159e-14 -88065.7)
(1.71922e+06 -3306.58 0 12062.4 0 429566)
(1.72279e+06 56998 0 1210.2 0 427759)
(1.00587e+06 45443.8 1.56899e-14 -1895.34 7.51284e-14 249105)
(998738 11499.6 5.04932e-14 4456.14 -1.41562e-13 248913)
(-1.04069e+06 12951.3 0 -8432.3 0 -260307)
(-1.01411e+06 45068.7 0 6957.14 0 -249896)
(29714.7 72210.1 -1.78394e-14 2909.32 5.11252e-14 8094.69)
(-74423.1 34843.7 1.90955e-13 -4849.32 -8.08664e-14 -19669.1)
(-279265 32866.1 -5.03454e-14 -3421.59 -1.85824e-14 -70140.2)
(2.27459e+06 4115.23 0 46419.4 0 575890)
(-40409.6 64598.7 -1.25907e-13 -3185.94 -3.15108e-15 -10816.9)
(-47068.5 67388.3 -1.81349e-14 -5284.27 -1.00924e-13 -12989.8)
(241521 82155.7 -6.50447e-14 -5203.52 -4.45958e-14 58635)
(-191917 81550.9 -1.35622e-13 -5227.69 5.68224e-14 -48915.6)
(231243 52253.8 3.94966e-14 -6978.7 -4.08678e-14 55644.4)
(-888488 43336.2 2.79056e-14 -7720.23 -5.69215e-14 -222367)
(892795 46925.9 -1.1542e-14 -8732.46 -6.96197e-14 219354)
(-1.53686e+06 70234.1 1.21116e-14 -9455.4 -5.21975e-14 -383673)
(-1.8576e+06 -164379 6.51579e-15 350573 -4.72796e-15 -373924)
(641516 94638 -1.03387e-14 -13486.4 1.28873e-14 155827)
(69755.5 88771 -6.75144e-15 -3879.11 3.79981e-14 16345.3)
(-838721 73430.9 -3.3874e-14 -4829.62 -9.4743e-14 -209302)
(702844 28346.2 -4.39578e-14 7830.7 6.3382e-14 176333)
(-490220 46767.1 4.8585e-14 -8814.68 6.23171e-14 -123821)
(380063 71974.5 7.27437e-14 4562.49 1.26677e-15 95433.5)
(69964.4 81294 2.02457e-14 3393.67 9.48024e-16 18201.6)
(122788 64546.2 -8.56262e-14 -1127.31 1.07599e-13 30186.6)
(-245541 56518.7 5.92827e-14 -15688.6 -6.30422e-14 -64816.3)
(-396410 105271 9.99729e-16 6439.76 7.93914e-14 -96759.6)
(-224492 56422.6 9.11371e-15 -14655.4 -6.36321e-14 -59337.3)
(-362488 101097 5.77285e-14 5569.88 -2.11065e-14 -88558.5)
(88919.9 48800.5 -3.64625e-14 -2777.39 1.1349e-14 21373.7)
(-41837.3 86140.5 -9.56953e-16 2339.54 -7.08244e-14 -9800.19)
(-27400.1 85776.9 8.77199e-14 2031.45 7.03929e-14 -6294.48)
(-18684.7 78528.6 4.51357e-14 376.046 -9.83368e-14 -4542.74)
(1.22949e+06 39890.4 2.64714e-14 3002.75 4.09702e-15 305806)
(-12886.9 87062.3 -9.94367e-14 -5809.96 -4.42219e-14 -4639.07)
(-48744.6 66573.8 4.90074e-14 -5816.11 -1.64193e-13 -13537.6)
(1.7276e+06 -45147.1 -1.3169e-14 -89932.3 -9.67124e-15 406338)
(277097 53532 5.22798e-14 -4925.13 -6.70846e-14 67531.4)
(-651371 91335.9 3.53073e-14 11625.8 9.55069e-15 -158734)
(-736303 57276.6 -5.71914e-14 1866.27 -2.50384e-14 -182229)
(-731651 28711.1 0 -8085.4 0 -183544)
(921101 18709.4 -5.15762e-14 5480.7 -2.45302e-14 229904)
(881473 65214.4 3.08331e-15 8471.23 6.14868e-14 220813)
(-29717.4 56032.5 -5.7976e-14 1569.61 4.72842e-14 -6984.03)
(-22616.1 56398 4.20649e-14 1771.68 -2.35296e-13 -5171.92)
(-589830 98236.4 -2.34306e-14 6321.36 -5.81604e-16 -144780)
(-793832 71683.6 0 9656.39 0 -194570)
(562852 48583.1 1.28524e-14 6051.25 3.18117e-14 141157)
(-1.46071e+06 87702.8 5.61227e-15 -6084.54 -1.7876e-14 -363941)
(48659.6 61377 0 11667.1 0 14968.3)
(792787 41567 -2.79299e-15 -1277.87 1.92434e-14 196389)
(600505 95153.9 -1.49816e-15 6240.57 7.3544e-17 150546)
(-373943 76473.1 1.07944e-13 5068.04 -1.38836e-14 -91525.3)
(-290675 54007.9 -1.0533e-14 -593.796 7.60969e-14 -72269.7)
(-266491 73405.8 1.66738e-14 3423.4 -6.34339e-14 -65272.3)
(-208162 57246.9 -9.42517e-16 -1530.23 3.72689e-15 -52029)
(-301814 37678.6 3.89929e-14 1204.94 5.76076e-14 -74587.2)
(-253718 42676.2 -6.82069e-14 4578.27 1.37362e-14 -61816.7)
(-308073 91741.3 0 1375.82 0 -76097.8)
(-347527 94250 -3.46167e-14 -271.177 3.01016e-14 -86295.7)
(-379704 98354.9 -2.83345e-15 -33.2765 -3.23292e-15 -94220.4)
(102166 61847 -1.67873e-13 1432.06 -8.3959e-14 25704.9)
(-20718.6 74821.8 -3.72583e-14 -2411.51 7.42061e-14 -5739.05)
(736622 37836.5 -2.11213e-14 4889.33 6.00755e-14 183984)
(770824 50488 2.9229e-14 -5447.71 -5.67502e-14 189905)
(128310 66397.3 6.04384e-15 -285.19 -4.18836e-14 31765.6)
(186612 59827.1 0 2124.89 0 46829.5)
(-414818 95520.7 4.35826e-14 -3113.41 -4.79779e-14 -103697)
(363237 60062.6 -8.32772e-14 4302.5 -1.03478e-15 91194.1)
(396618 85780.5 -3.6451e-14 5085.02 -2.24956e-15 99670.8)
(-143314 70626.5 -6.90125e-14 -1794.94 9.89622e-14 -36004.5)
(-121739 73385.6 4.02718e-14 -2220.01 2.36687e-15 -30756.7)
(-176573 76727.2 6.53235e-14 66.1328 2.32455e-14 -43794.9)
(-196164 66890.6 0 -1412.05 0 -49022.6)
(-866832 42652.2 1.93929e-14 18.0285 -2.96593e-14 -215074)
(392097 68102.1 -3.15904e-14 -192.647 -1.25121e-13 97239.5)
(280429 67177.5 -1.44742e-14 -763.264 -2.06915e-15 69390.7)
(-97907.1 180494 -8.96315e-15 17906.8 -6.45673e-15 -19849.7)
(1.01856e+06 32313.3 -6.64307e-14 -7791.45 -3.98135e-14 250791)
(-1.19424e+06 12347.5 5.76664e-14 2210.35 3.45227e-14 -295767)
(-144342 167656 0 -6649.79 0 -37464.1)
(-143125 69574.5 2.41191e-14 2290.72 7.28435e-14 -34943.8)
(-121326 73188.7 -1.81418e-13 3942.75 -4.60386e-14 -29125.2)
(-207427 66735.4 7.83008e-14 1468.43 8.77737e-16 -51102.6)
(-178742 72686.2 0 3040.41 0 -43595)
(405018 57189.1 4.03608e-14 -3170.09 -6.49844e-14 99706.6)
(465075 77824.7 1.47184e-14 -3075 6.2431e-15 114632)
(376233 60187.4 -2.99421e-14 -6567.35 2.86824e-14 91721.5)
(438946 79459.7 3.18954e-14 -4840.29 8.83276e-14 107711)
(343627 59160.7 2.49984e-14 -5462.11 4.19973e-14 83905.5)
(400845 76924 -5.43658e-14 -4204.43 3.1087e-14 98414.6)
(318987 36200.4 2.46047e-14 587.138 9.29698e-14 79292.7)
(307834 23061.1 7.23583e-14 3519.19 1.54999e-13 77253.1)
(-622691 78547.3 -1.40619e-14 236.8 1.85216e-14 -154444)
(284876 72432.4 -7.49948e-14 -3857.59 -1.82003e-15 69726.4)
(-687403 57744.7 0 5531.39 0 -169186)
(1.18764e+06 80336.8 4.09906e-14 -10455.2 -2.58105e-14 292084)
(-593149 36279.2 7.55872e-14 2238.96 -1.2432e-13 -146617)
(-433602 40619.9 9.12327e-14 522.041 -6.13371e-14 -107456)
(-1.37346e+06 -649253 -5.28902e-15 220034 1.18465e-15 -286187)
(40840.6 70502.6 1.01871e-13 438.901 -2.67653e-14 10242.3)
(1.26155e+06 47220.7 -1.36881e-14 -3173.87 -6.87735e-16 312228)
(-605689 53383.3 -2.11938e-14 2022.81 -6.14065e-14 -149782)
(-437113 52057 1.32204e-13 1550.89 6.50907e-14 -108072)
(1.90252e+06 -10934.9 2.23785e-14 -3964.68 9.96539e-15 471070)
(-84762.4 63181.4 -1.46111e-14 -858.788 5.8641e-14 -21244.4)
(1.30268e+06 15861.8 3.41229e-14 3917.67 -2.1228e-14 324193)
(-303899 54406.9 4.57167e-14 1578.64 -8.06322e-14 -75011.7)
(-1.08478e+06 80792.1 2.77131e-14 11160.4 -3.60602e-15 -266387)
(-1.01984e+06 53339.4 -1.69302e-14 -6431.43 -1.29739e-15 -254638)
(984420 54807.3 -3.20773e-14 1264.14 2.10115e-14 244568)
(-123743 72029 -2.00008e-13 5264.66 -9.10862e-14 -29396.8)
(-3012.05 -34887.1 2.15197e-16 -54669.2 7.64499e-17 -14311.9)
(-16204.7 67675.6 0 3025.4 0 -3270.06)
(-1.82235e+06 -581503 8.68299e-15 231831 -2.39781e-15 -394641)
(1.36863e+06 -648060 1.02695e-14 -221891 3.23961e-15 284530)
(-860439 83629.6 3.56567e-14 -7519.76 -3.46374e-14 -215358)
(294778 53455.8 1.52699e-14 2297.86 5.8992e-14 73710.6)
(406579 48535.2 -4.92173e-14 2890.88 1.1201e-13 101598)
(120064 68672.7 9.83685e-14 -1528.51 2.93106e-14 29411)
(-222958 17118.9 5.70153e-14 376.117 -8.77073e-14 -55227.1)
(196806 86452 -4.75326e-14 -1189.22 4.3513e-14 48536.5)
(-100649 55498.2 1.40413e-14 906.906 2.15396e-14 -24748.1)
(-95082.4 97964.2 1.01924e-14 3773.97 2.96352e-14 -22655.5)
(-1.48953e+06 7596.82 -4.74071e-15 40472.5 1.13463e-14 -359540)
(12224.4 -20761.2 5.64641e-17 -36237.4 3.50368e-17 -5958.11)
(-500317 85624 -2.09902e-16 6176.68 3.98747e-15 -122606)
(391957 50035.2 3.55887e-14 -2219.39 1.10417e-13 96701.7)
(1.55006e+06 -299837 9.07495e-16 -41495.3 1.18955e-15 374305)
(-44795.6 54968 -9.16118e-15 -7254.73 -7.12501e-14 -12914.7)
(-50485.4 88635.3 7.26917e-15 -2900.05 6.95655e-14 -13246)
(-28963.4 77699.1 -1.24449e-15 700.954 -1.06659e-13 -7012.48)
(-76804.7 69932.1 -1.9883e-14 2618.3 2.7134e-14 -18407.2)
(33369.8 76588.3 3.17777e-14 -1150.37 8.216e-14 7994.29)
(22216.9 79353.3 -7.46096e-14 -587.361 -2.43709e-14 5366.73)
(-1.55557e+06 -298374 3.89461e-15 40139.9 -1.20286e-15 -376010)
(536211 83583.7 -2.9474e-14 1724.01 1.59777e-14 133473)
(-187276 67517.9 -1.99677e-13 407.378 -5.6675e-14 -46365.8)
(623153 71186.5 1.05032e-13 5432.47 -1.77748e-13 155965)
(570088 69152 -1.25011e-15 4795.69 -6.80123e-14 142640)
(520576 66348.9 -1.94094e-13 2505.04 2.93445e-14 129787)
(91216.1 41765.1 -9.75741e-14 4163.09 -3.65198e-14 23665.5)
(-1.24153e+06 31470.5 5.2933e-14 -3492.35 -5.14572e-14 -308915)
(386083 53752.5 1.0584e-13 -2113.32 1.14168e-14 95270.6)
(545274 54920.5 -4.79388e-14 -2050.57 -6.86196e-14 134785)
(-106759 67622.9 -1.69097e-13 -432.414 -2.85256e-14 -26596.4)
(801345 91803.3 1.1254e-14 -10538.1 1.63353e-14 196215)
(151317 53267.5 -6.84253e-14 -609.207 4.63698e-14 37393.7)
(-1.60861e+06 24736 -1.80663e-14 -2171.26 -6.71278e-15 -399667)
(45883.1 69301.7 -8.82356e-14 1932.02 -7.42718e-14 11863.9)
(-134463 72962.4 -1.75477e-13 2056.79 8.29102e-14 -32852.6)
(447274 57880.4 1.33301e-13 1957.61 -1.92421e-14 111463)
(408957 57140.7 1.24327e-13 1339.39 3.02519e-14 101803)
(373239 55106.4 -9.00238e-14 -497.737 2.48302e-14 92484.7)
(835763 45673 1.35243e-14 181.972 2.85836e-14 207415)
(177625 71924.3 -5.92338e-14 2626.87 -1.27028e-13 44724)
(-455185 62281.9 4.07436e-14 -6995.54 9.1726e-16 -114676)
(-359652 108685 2.49532e-14 3385.39 2.78713e-14 -88397.1)
(-199224 47511.8 0 1361.72 0 -49093.6)
(-625318 79577.2 -5.46182e-14 -6930.02 1.66301e-14 -156874)
(-684676 82061.1 -8.23093e-14 -7653.58 -5.45971e-15 -171781)
(-747356 86275.9 -8.22777e-14 -8739.91 3.96705e-14 -187603)
(351990 55340.1 1.67605e-15 5569.98 2.08661e-14 88717.9)
(241435 60613.4 2.63834e-14 3673.95 -3.30452e-14 60816.4)
(66760.1 10253.5 -7.67124e-14 3229.6 2.76803e-14 17365.9)
(125643 57395.5 0 -1866.74 0 30711.3)
(162111 47192.8 -8.9803e-14 782.748 5.36203e-14 40417.3)
(1.87328e+06 -86064.2 -4.87196e-15 -251620 -2.35912e-15 402368)
(689994 39939.4 8.88552e-14 258.021 -9.11944e-14 171265)
(-528896 72072.3 0 656.555 0 -131067)
(-372745 66374.1 -4.39985e-14 7223.38 -1.93858e-15 -90693.3)
(297476 70200.5 2.34452e-14 -3075.38 -2.90045e-14 73046.7)
(-95232.9 80588.1 3.91489e-14 -2128.81 3.21297e-14 -24157.4)
(-13330.3 80906.2 1.15213e-13 -2021.05 -9.0836e-14 -3808.97)
(30028 58597.4 9.24322e-14 7886.92 -1.46388e-14 9407.45)
(33055.2 59213.4 -4.8433e-14 8586.07 -4.51458e-14 10332.1)
(-5366.66 101578 -2.43081e-15 -3147.88 -1.9956e-14 -2112.63)
(-8113.09 53986.9 -2.15237e-14 -764.63 7.24208e-14 -2202.74)
(-570.723 62061.7 -8.05372e-14 -1444.22 6.00375e-14 -499.947)
(10613.2 67530 7.68935e-14 -12727.3 -3.49498e-14 -524.554)
(133443 49995.6 -6.0275e-15 2268.75 -2.84898e-14 33672.9)
(-253752 105542 -1.42346e-15 1894.16 -1.38373e-14 -62490.9)
(78570.4 66723.5 1.92951e-13 613.483 -3.79879e-14 19647.1)
(10194.1 102545 8.17873e-15 -14896.2 1.17147e-14 -1166.69)
(-531302 102251 -2.03756e-14 -2786.03 -1.22623e-14 -132518)
(663827 49866.7 6.69595e-14 3899.26 5.98181e-14 165677)
(-283931 72975.3 -7.42693e-14 -171.914 2.43003e-14 -70491.7)
(-1.24292e+06 231900 -3.55013e-15 223192 2.13761e-15 -253015)
(-178978 46211.1 5.28561e-14 -2209.16 5.74325e-14 -44956.1)
(-294477 102791 0 2383.02 0 -72474.4)
(85476.6 66267.1 1.02956e-13 -1039.34 -1.42282e-13 20950.6)
(131899 59608.5 5.44835e-15 -199.399 1.77043e-14 32677.4)
(1.36671e+06 -302063 -1.10158e-15 43585.4 1.93803e-16 349923)
(-1.86701e+06 12056.2 -1.50436e-14 10751.7 6.91865e-15 -460574)
(567448 54909.6 3.27064e-14 5259.45 2.7506e-14 142100)
(620703 55763.9 -3.32896e-14 5412.08 7.24519e-14 155352)
(-190200 72492.8 -2.44231e-13 2423.44 -8.7236e-14 -46591.2)
(130485 89310.6 4.31484e-14 8429.57 8.51161e-14 34467.5)
(-29932.7 64342.9 6.87082e-14 -3773.69 1.04618e-13 -8363.23)
(-775417 -503878 -9.41909e-16 58681.4 3.96791e-16 -177837)
(-1.81112e+06 64850.6 4.93767e-15 1912.66 6.37094e-15 -448902)
(1.61132e+06 35207.2 2.6842e-14 2284.17 -1.32577e-14 400369)
(-2.34476e+06 -38618.8 -6.98784e-15 -6561.31 -3.01881e-15 -583412)
(726838 48805.1 -2.98181e-14 -4993.28 -4.64117e-14 179104)
(504733 44985.7 -4.93471e-14 -3859.1 1.81819e-13 124277)