/*--------------------------------*- C++ -*----------------------------------*\
| =========                 |                                                 |
| \\      /  F ield         | OpenFOAM: The Open Source CFD Toolbox           |
|  \\    /   O peration     | Version:  2.3.1                                 |
|   \\  /    A nd           | Web:      www.OpenFOAM.org                      |
|    \\/     M anipulation  |                                                 |
\*---------------------------------------------------------------------------*/
FoamFile
{
    version     2.0;
    format      ascii;
    class       volScalarField;
    location    "0.76";
    object      k;
}
// * * * * * * * * * * * * * * * * * * * * * * * * * * * * * * * * * * * * * //

dimensions      [0 2 -2 0 0 0 0];

internalField   nonuniform List<scalar> 
9648
(
2.70662
2.69618
2.69542
2.69077
2.68235
2.66962
2.65314
2.63277
2.60832
2.57975
2.5471
2.5106
2.47071
2.428
2.38317
2.337
2.29027
2.2437
2.19795
2.15358
2.11102
2.07062
2.03261
1.99716
1.96433
1.93415
1.90659
1.88162
1.85914
1.83906
1.8213
1.80574
1.79229
1.78084
1.7713
1.76357
1.75757
1.75323
1.75045
1.74919
1.7494
1.75102
1.75401
1.75835
1.76401
1.77098
1.77928
1.78895
1.79999
1.81242
1.82631
1.84169
1.85861
1.87704
1.897
1.9183
1.94064
1.9635
1.98642
2.00902
2.03098
1.75991
1.75561
1.75051
1.74466
1.74067
1.7405
1.7464
1.75942
1.7797
1.80747
1.8426
1.88461
1.93267
1.98581
2.04304
2.10337
2.1659
2.22982
2.29444
2.35924
2.42375
2.48766
2.55074
2.61283
2.67384
2.73374
2.79259
2.8504
2.9072
2.96309
3.01817
3.07249
3.12614
3.17923
3.23182
3.28394
3.3357
3.38718
3.43838
3.48925
3.53989
3.59038
3.64069
3.69077
3.74074
3.79042
3.83985
3.88912
3.93827
3.98716
4.03564
4.08366
4.13129
4.17814
4.22448
4.27003
4.315
4.35869
4.40135
4.44303
4.48379
1.45708
1.50595
1.55487
1.60784
1.66744
1.73429
1.80806
1.8888
1.97613
2.06979
2.16884
2.27256
2.37995
2.48993
2.60141
2.71333
2.82482
2.93501
3.04323
3.14896
3.25177
3.3514
3.44768
3.54054
3.63004
3.71625
3.79936
3.87945
3.95675
4.03143
4.10366
4.17368
4.24169
4.30779
4.37216
4.43498
4.49634
4.55641
4.61523
4.67291
4.72952
4.78512
4.83984
4.89368
4.94664
4.99871
5.04983
5.10009
5.14934
5.1976
5.24484
5.29109
5.33655
5.38054
5.42397
5.46585
5.50689
5.54605
5.58452
5.62188
5.6582
1.37775
1.47564
1.57721
1.68429
1.7978
1.91787
2.04423
2.17628
2.31318
2.45414
2.59797
2.74366
2.88999
3.03595
3.1804
3.32232
3.46089
3.59542
3.72536
3.85034
3.9701
4.08445
4.19341
4.29708
4.39571
4.48952
4.57882
4.6639
4.74505
4.82256
4.8968
4.96805
5.03659
5.10272
5.1666
5.22849
5.28858
5.34702
5.40395
5.45952
5.51385
5.56705
5.61921
5.67044
5.72073
5.77012
5.81863
5.86628
5.91299
5.95875
6.00369
6.04745
6.09026
6.13192
6.17292
6.21272
6.25136
6.28883
6.3252
6.3605
6.39452
1.40943
1.54892
1.69566
1.84914
2.0089
2.1746
2.34543
2.52024
2.69796
2.87723
3.05672
3.2351
3.41128
3.58419
3.7528
3.91604
4.07322
4.22386
4.36754
4.50417
4.63358
4.75572
4.87075
4.97892
5.08068
5.17649
5.26671
5.35182
5.43213
5.5081
5.58014
5.64863
5.71403
5.77659
5.83656
5.89427
5.94997
6.00377
6.05588
6.10646
6.15565
6.20359
6.25047
6.29636
6.34128
6.38529
6.42839
6.4706
6.51199
6.55234
6.5918
6.63024
6.66752
6.70367
6.73886
6.77316
6.80629
6.83831
6.86915
6.89867
6.92693
1.49232
1.66863
1.85548
2.0505
2.25179
2.45819
2.66831
2.88066
3.09361
3.30539
3.51454
3.71941
3.91915
4.11258
4.29918
4.47769
4.64741
4.80832
4.95998
5.10266
5.23642
5.36109
5.47723
5.58495
5.6851
5.77833
5.86516
5.94622
6.02174
6.09231
6.15853
6.22068
6.27948
6.33527
6.38818
6.43865
6.48709
6.5335
6.57817
6.62124
6.66275
6.70303
6.74225
6.78057
6.81793
6.85444
6.89023
6.92503
6.95909
6.99224
7.0244
7.05554
7.08564
7.1145
7.14237
7.16921
7.19509
7.21993
7.24344
7.26542
7.28624
1.60586
1.81563
2.03918
2.27214
2.51098
2.75397
2.99903
3.2443
3.48794
3.72725
3.96115
4.18727
4.40521
4.61378
4.81359
5.00239
5.17979
5.34633
5.50119
5.64542
5.77934
5.90227
6.01562
6.11879
6.21337
6.30035
6.38011
6.45393
6.52142
6.58342
6.64088
6.69367
6.74305
6.78939
6.83246
6.873
6.91181
6.94836
6.98332
7.01672
7.04836
7.0788
7.10828
7.13705
7.16472
7.19163
7.21792
7.24339
7.26828
7.29224
7.31529
7.33727
7.35825
7.37789
7.39628
7.41391
7.43074
7.44657
7.46087
7.47346
7.48487
1.73786
1.97804
2.23531
2.50293
2.77574
3.05099
3.32682
3.60109
3.87128
4.13397
4.38853
4.63121
4.86271
5.08113
5.28997
5.48496
5.66604
5.8348
5.98877
6.13038
6.26087
6.3781
6.48586
6.5808
6.66602
6.7432
6.81241
6.87615
6.9325
6.98297
7.02919
7.06965
7.10679
7.14104
7.17157
7.19953
7.22603
7.24974
7.27249
7.29395
7.3133
7.33132
7.34861
7.36544
7.38097
7.39609
7.41032
7.42402
7.43718
7.4497
7.46123
7.47173
7.48152
7.48956
7.49634
7.50259
7.50771
7.51287
7.51596
7.51678
7.517
1.87925
2.14433
2.4322
2.72848
3.03309
3.33551
3.63673
3.93813
4.22887
4.51266
4.78306
5.04114
5.28151
5.50561
5.71807
5.916
6.0978
6.26564
6.41977
6.55567
6.67782
6.78679
6.88486
6.97224
7.0451
7.10823
7.16455
7.21542
7.25726
7.29379
7.32633
7.3535
7.37617
7.39499
7.40967
7.42332
7.43291
7.44056
7.44864
7.45459
7.45869
7.46028
7.46379
7.46585
7.46649
7.46842
7.46662
7.46592
7.46307
7.46021
7.45559
7.45083
7.44658
7.4405
7.43333
7.42599
7.41541
7.40923
7.39851
7.38424
7.37131
2.05205
2.07212
2.09132
2.10965
2.12716
2.144
2.16042
2.17679
2.19287
2.20807
2.22209
2.23556
2.2486
2.26143
2.27433
2.28792
2.30257
2.3186
2.33632
2.35616
2.37779
2.40078
2.42485
2.44959
2.47472
2.50025
2.52634
2.55266
2.57917
2.60592
2.63303
2.66038
2.68799
2.716
2.74435
2.77302
2.80211
2.83169
2.86172
2.89212
2.92299
2.95444
2.98642
3.01892
3.05202
3.08558
3.11959
3.1542
3.18946
3.22521
3.26153
3.29848
3.33617
3.37438
3.41344
3.45328
3.49419
3.5359
3.57874
3.62285
3.66831
4.52368
4.56155
4.59852
4.63468
4.6698
4.70343
4.73512
4.76556
4.79379
4.82126
4.84702
4.87179
4.89549
4.91816
4.93971
4.95999
4.97913
4.9971
5.01393
5.02959
5.04414
5.0576
5.06986
5.08098
5.09097
5.09981
5.10734
5.11332
5.11786
5.12093
5.12254
5.12271
5.12151
5.1189
5.11493
5.10967
5.10307
5.09523
5.08612
5.07576
5.06421
5.0515
5.03772
5.02281
5.00676
4.9895
4.97092
4.95108
4.92989
4.9074
4.88353
4.85824
4.83167
4.80335
4.77401
4.74306
4.71111
4.67771
4.6439
4.60956
4.57484
5.69289
5.72651
5.7586
5.78978
5.81993
5.84947
5.8771
5.90336
5.92746
5.95028
5.97151
5.99153
6.01017
6.02777
6.04408
6.05905
6.07271
6.08502
6.09598
6.10558
6.11388
6.12086
6.12652
6.13086
6.13388
6.13554
6.1359
6.13489
6.13247
6.12859
6.12328
6.11648
6.10819
6.09849
6.08735
6.07481
6.06084
6.04548
6.02871
6.01058
5.99116
5.97052
5.94874
5.92584
5.90177
5.87649
5.84984
5.82177
5.79222
5.76119
5.72863
5.6943
5.6583
5.62046
5.58099
5.5396
5.4965
5.45196
5.40646
5.36008
5.31296
6.42753
6.45924
6.48968
6.51858
6.54629
6.57281
6.59789
6.62119
6.64293
6.66305
6.68161
6.69861
6.71406
6.72805
6.74048
6.75149
6.76103
6.76907
6.77558
6.78057
6.78409
6.7862
6.78693
6.7863
6.78423
6.78071
6.77572
6.76929
6.76145
6.75215
6.74135
6.72898
6.71505
6.69957
6.68262
6.66418
6.64421
6.62268
6.59959
6.57499
6.54901
6.52175
6.4934
6.46403
6.43369
6.40232
6.36971
6.3358
6.30051
6.26386
6.22569
6.18586
6.14433
6.10099
6.05578
6.0085
5.95935
5.90864
5.85685
5.80403
5.7506
6.95389
6.97965
7.00396
7.0267
7.04775
7.06721
7.08511
7.1015
7.11654
7.13022
7.14237
7.15305
7.16226
7.1699
7.17605
7.18079
7.18396
7.18559
7.18558
7.18394
7.18079
7.17624
7.1704
7.16329
7.15484
7.14497
7.13372
7.12111
7.10725
7.09213
7.0757
7.05776
7.03832
7.01738
6.99508
6.97133
6.94605
6.9192
6.89065
6.86047
6.82883
6.79585
6.76183
6.727
6.6915
6.65536
6.61819
6.58002
6.54072
6.50045
6.45881
6.4156
6.3709
6.32441
6.27605
6.22531
6.17268
6.11828
6.06281
6.00624
5.94914
7.3057
7.32383
7.34039
7.35548
7.36886
7.38052
7.39063
7.39901
7.40585
7.41119
7.41518
7.41781
7.41899
7.41863
7.41675
7.41354
7.40891
7.40268
7.39469
7.38488
7.37347
7.36071
7.34675
7.33174
7.31549
7.29787
7.27892
7.2587
7.23752
7.21547
7.19255
7.16832
7.14283
7.11597
7.08803
7.05883
7.02811
6.99588
6.96189
6.92615
6.88882
6.84995
6.81
6.76944
6.72857
6.6877
6.64601
6.6039
6.56099
6.51786
6.4737
6.42797
6.38117
6.3327
6.2826
6.22971
6.17494
6.1181
6.06065
6.0019
5.94269
7.49505
7.50392
7.51124
7.51697
7.52099
7.52327
7.52379
7.52287
7.52035
7.51606
7.51045
7.50373
7.49565
7.48603
7.47479
7.46247
7.44915
7.43424
7.4174
7.39836
7.37752
7.35539
7.33214
7.30819
7.28323
7.25683
7.22908
7.19988
7.17003
7.13986
7.10981
7.07874
7.04705
7.01418
6.98094
6.94678
6.91087
6.87357
6.83459
6.79389
6.7514
6.7069
6.66108
6.61466
6.56815
6.52269
6.47624
6.43039
6.38396
6.33889
6.29341
6.246
6.19816
6.14875
6.09841
6.04422
5.98868
5.93041
5.87276
5.81329
5.75378
7.51583
7.51371
7.50994
7.505
7.49835
7.4903
7.48017
7.46958
7.45759
7.44306
7.42726
7.411
7.39333
7.37425
7.35277
7.33048
7.30851
7.28529
7.2602
7.23184
7.20086
7.16911
7.13608
7.10246
7.06871
7.03347
6.99682
6.9575
6.91722
6.87728
6.83961
6.80106
6.7634
6.72488
6.68769
6.65054
6.6104
6.56813
6.52494
6.48105
6.4349
6.38586
6.33501
6.28311
6.23089
6.18161
6.13001
6.08068
6.03045
5.98469
5.9398
5.89162
5.84386
5.79474
5.74601
5.69123
5.63636
5.5774
5.52165
5.46323
5.40582
7.35546
7.34004
7.32164
7.304
7.28371
7.26564
7.24352
7.22372
7.20381
7.1814
7.15711
7.1331
7.10703
7.08095
7.04933
7.01523
6.98448
6.95494
6.92602
6.89233
6.85032
6.81078
6.7696
6.7258
6.68319
6.64026
6.59854
6.55093
6.49752
6.44533
6.39925
6.35174
6.30773
6.26364
6.22616
6.19084
6.14964
6.1019
6.05474
6.01048
5.96491
5.91384
5.85902
5.8036
5.7467
5.69545
5.63773
5.58509
5.52964
5.48568
5.4441
5.39558
5.34961
5.30308
5.25856
5.20368
5.15097
5.09143
5.03968
4.98443
4.93235
3.71513
3.76296
3.81204
3.86239
3.91402
3.96708
4.02148
4.07733
4.13438
4.19258
4.25205
4.31235
4.37355
4.43799
4.51889
4.59132
4.66326
4.73595
4.80944
4.88387
4.95928
5.03568
5.11298
5.1911
5.26985
5.34898
5.42838
5.50786
5.58723
5.66614
5.74451
5.82203
5.89827
5.97304
6.04597
6.11651
6.18419
6.24827
6.30444
6.34559
6.37363
6.38927
6.39244
6.38247
6.35833
6.3186
6.26137
6.18432
6.08473
5.95944
5.80466
5.61593
5.38827
5.11511
4.77625
4.22978
3.97638
3.84604
3.79391
3.76922
3.7184
4.53945
4.5037
4.46714
4.42988
4.39191
4.35391
4.31564
4.27785
4.24002
4.20252
4.16611
4.1239
4.07852
4.03579
3.9875
3.94146
3.8952
3.84882
3.8028
3.75741
3.71265
3.66824
3.62409
3.58015
3.53636
3.49275
3.44931
3.40615
3.36331
3.32085
3.27889
3.23755
3.19697
3.15738
3.11902
3.08221
3.04736
3.01505
2.98593
2.96161
2.93955
2.91992
2.90306
2.88959
2.88041
2.87648
2.87881
2.88874
2.90773
2.93707
2.97799
3.0316
3.09915
3.18271
3.27254
3.40813
3.58456
3.85563
4.2386
4.73497
5.06732
5.26531
5.21714
5.16815
5.11802
5.06672
5.01476
4.96243
4.91018
4.85758
4.80461
4.74797
4.68334
4.61953
4.55882
4.4982
4.43837
4.3777
4.31627
4.25447
4.19273
4.13108
4.06927
4.00725
3.94503
3.88249
3.81965
3.7565
3.69305
3.62924
3.56509
3.50058
3.43572
3.37057
3.30516
3.23958
3.17391
3.10827
3.04278
2.9776
2.91294
2.84877
2.78475
2.72142
2.6596
2.59963
2.54208
2.48784
2.43815
2.39466
2.35955
2.33564
2.32652
2.33692
2.37232
2.43584
2.53866
2.68462
2.9039
3.24067
3.74588
4.3648
5.69673
5.64276
5.5881
5.53237
5.47515
5.41723
5.35893
5.30089
5.24243
5.18301
5.11643
5.04415
4.97446
4.90802
4.84271
4.77821
4.71323
4.64793
4.58247
4.51717
4.45192
4.38629
4.32042
4.25434
4.18795
4.1213
4.05434
3.98708
3.9194
3.85128
3.78269
3.71367
3.64423
3.57444
3.50436
3.43406
3.36362
3.2931
3.22248
3.15181
3.08104
3.01012
2.9384
2.86581
2.793
2.72007
2.6473
2.57509
2.50416
2.43558
2.3708
2.31201
2.26213
2.22498
2.20437
2.20651
2.23958
2.32101
2.47994
2.7592
3.187
5.89154
5.83426
5.77652
5.71783
5.65715
5.5957
5.53378
5.47246
5.41061
5.34748
5.27585
5.20074
5.12885
5.06031
4.99286
4.92621
4.85929
4.79286
4.72673
4.66112
4.59564
4.52948
4.46314
4.39672
4.32996
4.26303
4.19579
4.12827
4.06023
3.9917
3.92264
3.85318
3.78336
3.71333
3.64313
3.5729
3.50271
3.43263
3.36265
3.2928
3.22308
3.1535
3.08395
3.01388
2.94306
2.87163
2.79966
2.72722
2.65446
2.58172
2.50941
2.43815
2.3689
2.3029
2.24178
2.18852
2.14913
2.13428
2.16058
2.25301
2.44166
5.88259
5.82359
5.76441
5.70456
5.64174
5.57813
5.51367
5.45053
5.38696
5.32251
5.24895
5.17384
5.1021
5.03415
4.96668
4.89996
4.83287
4.76732
4.70255
4.63884
4.57531
4.51056
4.44593
4.38158
4.31679
4.25199
4.18676
4.1213
4.05508
3.98832
3.92093
3.85329
3.78542
3.7176
3.64981
3.58227
3.51503
3.44821
3.38178
3.31583
3.25035
3.18543
3.12104
3.05706
2.99305
2.92849
2.86341
2.79787
2.73192
2.66566
2.59919
2.53256
2.46576
2.39879
2.33155
2.26464
2.20048
2.14435
2.10508
2.09605
2.13599
5.69204
5.63267
5.57352
5.51456
5.45061
5.38612
5.31993
5.25659
5.19302
5.12986
5.05628
4.98317
4.91321
4.84827
4.78255
4.71789
4.65206
4.58934
4.52764
4.46752
4.40763
4.34537
4.28417
4.22412
4.16321
4.10248
4.04088
3.97929
3.91636
3.85291
3.78861
3.72455
3.66044
3.5969
3.53352
3.47082
3.40859
3.34723
3.28657
3.22687
3.168
3.11021
3.05341
2.99757
2.94249
2.88779
2.83269
2.77721
2.7215
2.6657
2.60988
2.55402
2.49795
2.44125
2.38328
2.32347
2.2619
2.20027
2.14231
2.0944
2.06641
5.34309
5.28433
5.22677
5.17128
5.10746
5.04369
4.97653
4.91494
4.85334
4.79428
4.72196
4.65219
4.58498
4.52525
4.46243
4.40182
4.33826
4.28013
4.22289
4.16739
4.11217
4.05266
3.99611
3.94287
3.88731
3.8318
3.7745
3.71811
3.65898
3.59961
3.53892
3.47989
3.42084
3.36341
3.30591
3.2497
3.19378
3.13946
3.08617
3.03467
2.98424
2.93554
2.88835
2.84236
2.7975
2.75382
2.71013
2.66605
2.62203
2.57834
2.53526
2.49275
2.45066
2.40847
2.36548
2.32076
2.27354
2.22365
2.17199
2.12083
2.07449
4.86954
4.81103
4.7571
4.70801
4.64586
4.58427
4.51659
4.45941
4.40228
4.3499
4.27995
4.21407
4.14953
4.09713
4.0375
3.98301
3.92208
3.87044
3.81864
3.76731
3.71691
3.65934
3.60854
3.56621
3.51645
3.46506
3.41143
3.36141
3.305
3.24942
3.19139
3.13936
3.08597
3.03644
2.98515
2.93642
2.8862
2.83978
2.79489
2.75324
2.71249
2.67409
2.63766
2.60248
2.56747
2.53327
2.49962
2.46542
2.43286
2.40094
2.37196
2.3442
2.31827
2.29272
2.26733
2.24072
2.21228
2.18107
2.14703
2.10974
2.07074
3.62608
3.5231
3.41142
3.29223
3.17109
3.05123
2.93532
2.82683
2.72886
2.64345
2.57152
2.51309
2.46729
2.4327
2.40758
2.39014
2.37866
2.37183
2.36859
2.36804
2.36957
2.37275
2.37724
2.38292
2.38964
2.39733
2.40598
2.41552
2.42596
2.43724
2.44931
2.46212
2.47556
2.48949
2.50374
2.51816
2.5325
2.54653
2.56001
2.57273
2.58441
2.59483
2.60386
2.61141
2.61747
2.62217
2.62572
2.62841
2.63061
2.63282
2.63542
2.63875
2.64304
2.64851
2.65502
2.66244
2.6704
2.6787
2.68684
2.69422
2.70043
5.06113
4.9889
4.86843
4.69669
4.50579
4.29784
4.07094
3.83162
3.58816
3.34838
3.11835
2.90441
2.71031
2.53737
2.38608
2.2579
2.15241
2.06708
1.99881
1.94499
1.90313
1.87091
1.84642
1.82828
1.81541
1.80669
1.80191
1.80048
1.80215
1.80666
1.8138
1.82332
1.83498
1.84844
1.86339
1.87948
1.89622
1.91317
1.92976
1.94539
1.95934
1.97076
1.97874
1.98234
1.98072
1.97317
1.95925
1.93903
1.91325
1.88336
1.8514
1.81989
1.79147
1.76837
1.75192
1.74279
1.74027
1.74298
1.74824
1.75344
1.75721
4.87103
5.23226
5.43341
5.44797
5.31766
5.12421
4.86936
4.57616
4.26193
3.93826
3.61693
3.30931
3.02281
2.76251
2.53164
2.33174
2.16143
2.01681
1.89546
1.79666
1.71813
1.65699
1.61019
1.57486
1.54856
1.52958
1.51641
1.50817
1.50409
1.50355
1.50607
1.51121
1.51848
1.52734
1.53729
1.54779
1.55834
1.5684
1.57741
1.58473
1.58973
1.59185
1.59049
1.58504
1.57497
1.55983
1.53926
1.51315
1.48176
1.44582
1.40685
1.3673
1.33043
1.29986
1.27887
1.2703
1.27528
1.29358
1.32326
1.36185
1.40743
3.72261
4.31396
4.88181
5.32262
5.54954
5.59723
5.4809
5.23668
4.92551
4.56837
4.19201
3.82061
3.46633
3.14021
2.84748
2.58834
2.36012
2.16149
1.99136
1.8492
1.73328
1.64147
1.57062
1.51702
1.47708
1.44805
1.42769
1.41444
1.40698
1.40425
1.40551
1.4101
1.4173
1.42634
1.4365
1.44706
1.45732
1.46657
1.47408
1.47908
1.48082
1.47863
1.47185
1.45995
1.44247
1.4192
1.39009
1.35534
1.31534
1.27084
1.2231
1.17424
1.12735
1.08665
1.05723
1.04474
1.05277
1.08259
1.13308
1.20164
1.28484
2.7465
3.17757
3.72087
4.31858
4.87057
5.29724
5.54611
5.59074
5.46599
5.20107
4.84427
4.45542
4.0548
3.6681
3.31103
2.98647
2.69605
2.4379
2.21366
2.02358
1.86593
1.73926
1.64041
1.56491
1.50809
1.46607
1.43597
1.41561
1.40313
1.39696
1.39609
1.3997
1.4069
1.4167
1.42819
1.4405
1.45276
1.46413
1.47371
1.48061
1.48392
1.48283
1.47657
1.46447
1.44596
1.42078
1.38885
1.35041
1.30576
1.25565
1.2012
1.14433
1.08792
1.03621
0.995549
0.973753
0.976979
1.01006
1.07404
1.16602
1.28019
2.24672
2.4519
2.77092
3.20784
3.735
4.29712
4.81785
5.21453
5.43744
5.47292
5.33429
5.0651
4.69945
4.29381
3.89339
3.50776
3.15375
2.83289
2.5437
2.29248
2.08208
1.91201
1.77872
1.67623
1.59825
1.53949
1.49631
1.46599
1.44613
1.43447
1.42967
1.43078
1.43673
1.44633
1.45849
1.47215
1.48633
1.50003
1.51226
1.52198
1.52813
1.52985
1.52622
1.51649
1.49989
1.47612
1.44496
1.40662
1.36125
1.30952
1.25238
1.19163
1.12999
1.07144
1.02227
0.991116
0.986419
1.01651
1.08602
1.19334
1.33179
2.07207
2.12914
2.25829
2.47952
2.80457
3.22982
3.72774
4.24446
4.71173
5.0633
5.25253
5.26817
5.12765
4.8632
4.51985
4.12369
3.72887
3.35127
2.98848
2.66299
2.38422
2.15683
1.97836
1.8402
1.73388
1.65226
1.5909
1.54654
1.51608
1.49621
1.48513
1.48164
1.48455
1.49239
1.50386
1.51774
1.53284
1.54808
1.5623
1.57435
1.58306
1.58753
1.58673
1.57988
1.56596
1.54467
1.51566
1.47917
1.43516
1.38429
1.3274
1.26627
1.20346
1.14262
1.08955
1.05283
1.04226
1.0687
1.14045
1.25884
1.41757
2.03995
2.02734
2.0504
2.12594
2.27168
2.50232
2.82415
3.2272
3.68304
4.14275
4.54663
4.84205
4.99918
5.00597
4.8768
4.63491
4.31702
3.95099
3.53866
3.14187
2.78132
2.48105
2.24518
2.0612
1.91776
1.80542
1.71882
1.65447
1.60914
1.5776
1.55738
1.54676
1.54451
1.54877
1.55796
1.57064
1.58544
1.6011
1.61629
1.62976
1.64026
1.6469
1.64854
1.64445
1.6333
1.61482
1.58855
1.5547
1.51312
1.46449
1.40956
1.35009
1.28847
1.22814
1.17457
1.13598
1.12255
1.14706
1.22079
1.34837
1.52468
2.03271
2.00023
1.98105
1.98526
2.02595
2.11782
2.27508
2.50737
2.81473
3.18542
3.58563
3.97919
4.3228
4.58068
4.72211
4.73783
4.62942
4.4028
4.09244
3.69702
3.26528
2.89207
2.59487
2.35747
2.16446
2.00953
1.88713
1.79551
1.72971
1.68153
1.6485
1.6274
1.61714
1.61562
1.62064
1.63052
1.64363
1.65846
1.67352
1.68717
1.69863
1.70654
1.71009
1.70831
1.6999
1.68421
1.6612
1.63023
1.59185
1.54608
1.49436
1.43789
1.37913
1.32161
1.26997
1.23204
1.2184
1.24317
1.319
1.45428
1.64412
0.283884
6.49988
6.16883
0.225813
0.347257
0.126013
0.0031625
2.47007
0.00337822
0.0232889
3.34948
1.08268
0.00316421
6.12468
0.110439
5.38351
0.00326085
2.58224
3.65251
0.00315855
0.226598
5.96013
6.35555
0.00329971
0.00333245
0.105361
0.00316073
0.508066
0.0032472
0.00346081
0.727339
0.00324734
0.0162662
2.51277
0.789269
3.42555
2.5587
1.59266
0.00316543
2.5748
1.85056
1.94884
0.00320895
4.65879
3.223
0.280376
0.00360862
0.0151657
0.142046
1.10671
6.59646
7.60325
0.00310773
0.00405582
0.0372185
0.00879537
0.00345144
0.664132
2.4308
7.28327
2.47757
0.00369498
0.148561
0.0317109
6.33863
0.432667
1.99561
1.76871
0.00431969
0.00321285
1.20034
2.58299
1.67997
0.0143863
0.039108
4.02125
6.72451
3.30127
0.00310847
0.940137
0.00709707
2.57989
0.0107918
4.8239
0.00321771
1.08505
0.00336147
2.20541
0.0148785
0.00491269
0.11876
0.00310399
0.0037833
7.45659
5.34491
0.00359507
0.437952
0.306949
0.0060374
6.4869
0.200564
2.51863
0.747569
0.00309983
0.00316504
0.00309704
0.304623
0.124504
0.0032415
5.98887
6.68126
0.00934479
4.6208
1.5092
2.59672
2.71669
1.79624
0.00390641
0.0851594
0.00418111
0.00435956
3.4787
0.00727107
7.25957
7.56695
1.01115
0.00321407
1.03308
1.03809
0.00320973
0.0339671
0.0332473
1.68344
0.00566864
3.03613
0.00321942
0.00316038
7.51718
7.66254
0.00322903
0.166599
5.50294
0.104394
0.301866
1.56886
4.79533
0.0401204
1.65914
0.012072
7.07787
1.24148
0.00916035
2.83296
4.76372
6.16918
0.00330652
0.00326719
0.21593
0.0031147
1.967
0.0308913
0.00510643
0.0031988
0.00321876
0.00323665
2.85825
1.79647
1.53433
0.00332177
6.8177
4.78431
3.13232
4.92239
0.0139258
3.73722
1.6714
1.90746
0.00324
0.0056767
2.88094
3.09206
1.99713
3.60996
0.00321463
0.00352287
4.94269
0.0358392
0.567179
0.00323729
0.0036049
0.104508
0.00339255
7.6336
0.685744
0.00310333
0.254673
1.79321
5.3171
0.00448931
1.94776
0.00321708
0.00323254
4.98986
2.39737
7.2712
0.00453323
0.003394
0.00766429
2.69457
2.23053
1.0997
4.8825
1.55848
6.80701
0.1845
4.3321
4.033
1.89818
1.37146
2.3077
0.00488157
0.0368763
0.00322439
0.00320115
1.83382
0.0181084
0.0200879
0.00570518
0.0130725
2.79164
4.71931
0.0188187
5.83651
1.0853
0.392278
0.00318312
0.15706
2.79887
1.04082
0.00413917
1.21177
1.16823
0.174938
0.275484
7.15898
0.777986
0.47103
5.11908
0.00383924
0.00316148
0.00403209
0.0104751
1.76166
0.00336198
0.0064943
0.00316492
0.387987
4.0868
3.96283
2.75829
1.29303
1.4457
7.46272
0.00434072
2.09715
4.50913
0.00320933
2.00144
0.00321714
4.04581
0.386134
1.55262
0.00533102
0.00321948
1.9092
0.501918
0.0032389
0.00323584
0.00325022
0.00324569
0.359316
1.57293
3.005
0.0147831
0.00324057
0.0031643
0.00309821
4.74813
0.224688
0.00446532
1.62366
0.0875759
0.0411566
0.00309158
0.264728
0.0032397
0.0512402
1.42665
4.72315
0.316804
0.00391446
0.00596672
3.28839
0.138492
1.90799
7.41943
0.00350139
0.00319722
0.00318708
5.78292
0.00331061
4.8313
0.00322108
1.81983
1.23622
0.0269161
2.96981
3.96251
0.00467395
2.74218
2.67151
1.60793
4.69848
1.08234
7.67115
2.45827
3.96165
3.63784
4.47526
1.67114
0.157451
7.56848
7.20701
3.02704
2.13101
0.00395577
6.99221
2.77597
6.78936
0.0274793
0.00358506
0.00321395
0.00342281
0.171515
0.421492
0.732502
0.0919459
0.00317493
5.91405
0.00321471
1.45762
1.92499
6.30904
2.67803
1.85023
0.00596683
0.00425602
0.0898075
2.81752
0.010321
0.718796
5.24629
2.06832
4.18029
6.23359
3.2837
0.00346283
7.22632
5.32217
1.70399
0.00323414
6.21181
5.55687
0.00333206
1.9785
0.00323786
6.76617
5.73873
1.87977
4.19273
2.54796
5.5638
0.00329221
5.57385
0.00386148
3.63386
4.03896
1.92064
7.20429
0.721396
0.212832
0.552126
0.00424066
4.27126
0.145586
0.0081335
0.00509716
4.51038
0.00382906
4.39655
0.00319243
0.00323509
0.00599521
1.79491
0.104123
1.83264
0.00570439
4.24199
0.162844
6.57731
4.36021
2.63326
6.2504
0.00338478
7.21798
2.93216
0.00321097
3.9674
2.05043
0.00310251
0.00316814
3.4
0.00647662
1.96699
0.0890413
2.36567
0.0267224
0.605316
2.62279
5.04185
2.40776
4.07104
3.62905
0.003955
0.0219309
1.69858
1.62915
7.43462
6.4922
5.32837
0.0650392
5.00989
4.98282
0.496876
1.7
2.80362
2.06315
0.00347936
4.16754
7.6776
0.00416018
4.41272
1.89801
2.82521
0.0241127
0.0673079
6.2781
0.00597406
7.42696
0.00461679
0.2516
0.00320395
1.00056
2.2693
0.23007
0.00479742
0.0037021
2.71994
1.61636
0.080496
0.415815
5.9273
4.06159
0.00450743
1.45845
1.65996
3.24126
1.50996
4.17134
1.96689
5.52335
3.27409
0.491998
0.968879
7.33582
1.88242
7.51717
5.99914
0.0339903
3.43257
2.85561
0.00337838
1.78671
1.60018
1.36059
0.0173027
4.83689
1.42138
0.69859
1.8858
0.00544922
0.00321489
0.0417188
2.34436
4.60773
2.6145
0.00322107
0.00318961
0.00321518
1.72548
0.0275517
0.00321524
0.123482
4.59709
5.00983
0.0105129
0.0107343
0.00315555
0.00320519
0.00599496
1.74096
1.70507
1.59148
0.458158
7.41653
5.82583
0.00525782
3.3968
1.84881
1.95069
4.03211
7.29356
0.00346215
0.0104756
0.00323785
3.828
0.242996
0.0031692
1.37624
0.161815
7.33268
0.00323851
7.58774
1.1511
0.0471636
6.42691
0.00323161
0.00319486
0.00404882
7.61207
3.28565
5.20196
5.01406
1.05207
1.77412
0.00312662
0.00602405
0.0900613
0.013385
0.025102
1.93205
2.16377
0.00322438
1.24681
1.85101
6.09247
7.60632
0.00821795
7.56751
0.00591809
0.030246
3.60716
0.0032012
5.591
0.00324069
0.00336659
0.0221828
2.12884
0.626337
2.52474
1.85049
0.00366053
1.7772
4.61757
0.0507877
0.222406
0.858913
0.00331464
0.00326695
0.0069259
5.3901
0.518009
0.00335808
7.15459
6.0224
6.58321
0.0314488
2.05491
0.00420955
2.41643
0.158786
0.0908128
2.68493
1.68068
1.86652
6.03586
0.00327917
0.00313289
0.0104808
4.12618
4.43792
0.977157
0.0138348
0.00333446
0.00323877
0.00882848
0.0264274
0.00660114
2.20338
1.7733
0.011548
1.56945
5.91121
0.003271
2.39631
0.00321755
0.519434
0.00324483
0.0221372
2.41978
0.0200773
0.00320605
0.766871
7.72159
7.09165
0.00319001
0.00326458
0.38982
0.027374
0.00321634
4.3812
0.00370047
1.68736
7.68872
2.39999
1.66899
2.41517
3.7068
7.44751
0.00322897
0.00742788
0.0148633
4.23722
1.40753
6.32002
0.67045
0.364622
4.30622
3.65996
4.97377
0.708687
2.69431
0.00322232
0.358635
1.66099
2.54897
3.96504
1.86727
0.223647
2.54825
0.102281
0.00936883
1.73205
0.00323923
5.87733
0.003665
0.368422
7.28765
2.70762
0.566266
0.00740787
0.756252
0.00329877
0.00319165
0.105939
0.0224429
1.78755
0.015313
1.75507
0.00322127
0.0279035
0.0031664
4.48639
0.0050951
4.11113
2.47864
0.0218657
1.88759
7.51407
0.00325787
1.67913
4.47414
0.00335887
7.26029
0.0625609
0.00348456
0.00339515
7.23629
0.00317849
0.00429105
0.0866202
0.100489
7.05089
7.12568
0.00322104
0.00327055
1.09167
2.32132
0.0145598
0.26697
2.04053
0.00321764
0.00383244
0.00372444
5.96697
7.16365
0.490208
7.19287
0.0260051
1.60166
0.00332473
0.0147553
0.0248103
0.0360271
0.00322978
6.90993
0.00320087
0.0249921
0.00332238
0.233718
0.0223914
0.0146762
0.430191
0.683949
2.28836
0.388699
1.07969
1.83572
5.08841
0.00343835
4.94965
7.51792
1.13305
4.01337
0.00327872
4.34774
3.78422
0.00321568
7.37065
2.33975
0.00807839
0.0107059
5.85258
5.69389
0.0576516
7.42252
7.30351
0.798384
7.23455
7.11535
4.96105
1.94883
1.63654
1.03697
7.08519
7.35067
0.0218333
7.39121
2.48743
4.36816
0.00343267
0.339719
0.378111
6.72967
5.76154
0.0201909
4.24891
6.36971
0.474652
0.0336006
0.372125
1.82729
0.00534639
1.8637
6.85424
0.0336822
6.68779
1.32281
4.41016
6.24881
0.00322209
0.00565344
1.06414
0.70669
0.0181966
0.00321827
0.185844
0.251884
0.00450905
0.00323647
4.21072
1.00091
2.99944
1.01468
0.00860932
0.0041728
0.0892633
3.40045
0.00345925
1.86149
1.67353
0.477346
2.27526
0.00397013
0.114717
0.00320208
0.352957
4.33027
0.00435268
0.118019
2.12349
5.80015
0.224099
4.02069
0.584251
0.163047
0.003926
2.36497
7.62871
0.00321139
0.00328288
5.56996
0.024469
0.00323561
3.76227
0.252107
1.89503
2.01818
1.43704
0.144759
1.74401
3.52084
5.68666
4.43166
0.00327517
5.64401
0.00389306
2.58531
0.00340161
0.00452091
2.13078
0.00655485
3.89312
0.0206688
0.0396677
1.81131
0.706812
0.0638779
0.00367314
6.11473
0.00364248
0.0031535
7.64553
5.75346
2.85037
1.93447
0.00343417
0.00307222
1.88705
5.5548
0.00319885
6.58397
1.6511
0.00324226
5.95987
0.00311726
0.347194
0.920263
1.36751
0.35789
1.55328
1.97514
0.0031132
7.11732
7.42157
0.0032153
0.016812
1.9385
0.00313185
6.88643
5.57349
4.39494
0.00321754
0.00317078
3.5455
0.0413654
0.00350174
1.82677
1.67932
4.19386
0.00315397
0.00337978
0.0242851
0.019385
0.00321694
0.0064104
5.18856
2.88832
0.00322225
1.32025
0.00321467
0.689089
0.00421351
0.00358515
2.27709
0.00326698
0.119073
0.00317619
2.85777
0.179532
1.68162
6.21838
4.37928
3.69931
0.823488
1.25267
0.00323547
0.936749
7.18771
4.05348
0.106461
0.00346602
5.18204
0.00321462
0.0311444
0.00315625
7.07202
0.763247
0.357226
6.26222
2.18931
0.469535
4.16016
0.699005
6.71661
4.56042
0.00330977
0.00327504
0.00820345
0.00323365
0.0226803
4.29695
0.00377938
6.96961
0.006012
0.0740843
0.585506
4.78194
0.0048766
2.70128
0.0169526
3.05002
2.43913
6.87148
0.00339969
0.00384431
0.242529
3.68798
1.70426
3.70584
0.42211
1.03302
1.57989
0.0503944
0.996522
0.260506
1.69695
0.00328361
4.34422
0.414561
3.15724
0.0033651
3.06717
0.956314
0.00459938
1.60022
1.80762
0.0649232
0.00314961
0.00321787
4.93174
2.82906
1.41291
0.00320714
0.0175246
2.01487
6.25745
0.463827
0.0125805
0.00322461
5.39414
5.15586
2.09556
2.65492
0.00321305
3.54214
7.32019
0.00321102
0.00321769
1.22146
0.00410265
0.00985905
0.0330407
1.90773
0.00410812
2.22629
7.50056
0.00320556
0.0034631
0.00316822
0.00330593
3.7544
4.6349
7.62116
0.0289464
2.35036
2.21905
0.0868531
2.89743
0.00348298
1.7019
0.221262
2.085
0.690696
1.61255
3.12416
0.0281492
0.00323889
5.82174
4.46159
4.68051
0.913039
1.76962
0.174752
1.66592
0.00927274
0.00483148
3.45727
5.44082
0.0218999
0.136875
0.00324495
0.0777461
1.91936
0.0275786
1.0164
0.675671
3.77982
2.13878
0.4366
6.87252
5.44535
2.96542
1.65686
4.25044
3.55948
0.568416
2.68552
0.00610241
2.82117
2.97141
0.00320394
0.00313672
0.119785
0.00322646
0.00333069
3.02823
4.36196
0.00321993
3.25991
0.00321458
0.00319227
0.00321566
0.00326307
0.00594015
1.93824
2.62268
6.97439
0.0031602
0.00390516
0.968396
0.00355388
0.0328928
0.00324572
0.00361098
4.42953
0.00390832
0.0109353
2.79029
0.01047
0.00321961
3.98024
0.00321411
0.00326629
0.261579
0.00360554
0.921391
0.00457778
0.0299233
0.00320421
0.00325393
7.34477
7.50469
2.64339
0.0266247
2.96357
1.5706
0.00473394
1.77589
4.18017
6.84142
4.57369
0.00312608
1.96357
2.53899
0.146001
1.75124
4.4832
0.172924
2.05366
0.21621
1.72905
0.0394596
1.02671
0.00323486
6.60991
0.00329309
1.80777
2.49128
0.00321511
0.312627
0.00729714
0.0192582
0.0031766
0.767491
0.00366218
0.0032216
2.52642
0.00949121
0.10998
6.79327
1.87834
0.0034597
0.00387949
2.41695
7.04145
0.00309313
0.00324623
0.0711155
1.33519
5.548
0.00658172
1.66377
0.00321783
0.00344249
0.00314819
0.0346801
0.972091
0.0101137
6.5774
1.80474
7.03536
5.9198
0.0035184
7.32097
3.74343
0.00317938
0.00322624
0.00321814
0.00439997
0.0032025
3.82691
0.00320798
0.00323916
6.7533
0.324899
0.0077428
0.0216124
1.96915
0.928039
0.00827502
0.00345863
6.20169
0.00324544
0.815985
0.00326222
0.00352273
5.79488
5.73273
0.00870012
0.00351346
0.341955
0.0032064
6.79151
0.00325531
5.46579
0.0249718
0.707283
0.0323797
0.358927
0.370837
1.47956
0.00324271
0.00356523
0.0115432
3.15864
0.117629
7.3342
0.00321928
0.00458848
0.00555684
7.01359
2.8035
3.03942
0.00692821
0.00897726
0.209508
0.00322343
1.25502
2.50318
0.0169372
5.97973
6.12742
1.98985
0.00533571
0.387898
2.83628
6.67175
1.81265
0.018772
3.11835
0.06272
5.117
0.0908882
0.521906
2.53868
0.00324365
1.7741
0.00455427
0.0118387
0.00803453
0.0499203
0.00370076
1.29575
0.00322635
3.07476
0.0953215
0.0036129
0.24216
0.00323205
0.282818
0.116688
2.32415
0.451118
4.63981
0.241736
0.00321692
0.00319026
0.703244
0.0907798
2.84322
7.05118
0.003224
3.87912
2.70173
0.0231462
1.98381
0.595649
2.35684
2.15404
0.033859
0.00588236
7.05674
1.50134
5.84203
0.00321074
1.64979
0.00321533
1.26639
2.41853
7.49961
1.68892
1.90238
0.0108163