/*--------------------------------*- C++ -*----------------------------------*\
| =========                 |                                                 |
| \\      /  F ield         | OpenFOAM: The Open Source CFD Toolbox           |
|  \\    /   O peration     | Version:  2.3.1                                 |
|   \\  /    A nd           | Web:      www.OpenFOAM.org                      |
|    \\/     M anipulation  |                                                 |
\*---------------------------------------------------------------------------*/
FoamFile
{
    version     2.0;
    format      ascii;
    class       surfaceScalarField;
    location    "0.76";
    object      phi;
}
// * * * * * * * * * * * * * * * * * * * * * * * * * * * * * * * * * * * * * //

dimensions      [0 3 -1 0 0 0 0];

internalField   nonuniform List<scalar> 
15416
(
-0.000710678
-8.52866e-06
0.000713572
-0.000705679
-4.9967e-06
-0.00070292
-2.75631e-06
-0.00070149
-1.42748e-06
-0.000701371
-1.14757e-07
-0.000702844
1.47628e-06
-0.000706617
3.77738e-06
-0.000712942
6.32983e-06
-0.000722
9.06299e-06
-0.000734123
1.21291e-05
-0.000749723
1.56059e-05
-0.000769014
1.92974e-05
-0.000792129
2.31219e-05
-0.000819147
2.70259e-05
-0.000850161
3.10215e-05
-0.00088509
3.49373e-05
-0.000923746
3.86644e-05
-0.000965919
4.21829e-05
-0.00101147
4.55575e-05
-0.00106006
4.86035e-05
-0.00111144
5.13832e-05
-0.00116534
5.39085e-05
-0.0012214
5.60745e-05
-0.00127927
5.78754e-05
-0.0013387
5.94327e-05
-0.00139944
6.07493e-05
-0.0014612
6.17672e-05
-0.00152366
6.24665e-05
-0.0015866
6.29465e-05
-0.00164985
6.32488e-05
-0.00171311
6.32616e-05
-0.00177617
6.30684e-05
-0.00183895
6.27827e-05
-0.00190121
6.2259e-05
-0.00196275
6.15413e-05
-0.00202352
6.07729e-05
-0.00208342
5.9895e-05
-0.00214226
5.88366e-05
-0.00219982
5.75529e-05
-0.00225608
5.62542e-05
-0.00231102
5.49417e-05
-0.00236448
5.3453e-05
-0.00241634
5.18486e-05
-0.00246663
5.0291e-05
-0.0025151
4.84562e-05
-0.0025617
4.65978e-05
-0.00260656
4.485e-05
-0.00264968
4.31101e-05
-0.00269087
4.11845e-05
-0.00273005
3.91693e-05
-0.00276721
3.71527e-05
-0.00280252
3.53013e-05
-0.00283548
3.29524e-05
-0.00286655
3.10634e-05
-0.00289552
2.89664e-05
-0.00292276
2.72332e-05
-0.00294731
2.45503e-05
-0.00296961
2.22927e-05
-0.00299
2.03929e-05
-0.00300866
1.86556e-05
1.69502e-05
-0.00302561
-0.000411038
-6.78883e-06
0.000409299
-0.000412989
-3.04545e-06
-0.000417104
1.35994e-06
-0.000424235
5.70412e-06
-0.000435832
1.1484e-05
-0.000451169
1.68149e-05
-0.000470422
2.30315e-05
-0.000493397
2.93076e-05
-0.000520777
3.64447e-05
-0.000552099
4.34541e-05
-0.000587556
5.10658e-05
-0.000627008
5.87522e-05
-0.000670352
6.64697e-05
-0.000717466
7.41431e-05
-0.000768051
8.16106e-05
-0.000821972
8.88623e-05
-0.000878966
9.56625e-05
-0.00093882
0.000102041
-0.00100118
0.000107919
-0.00106583
0.000113265
-0.00113257
0.000118125
-0.00120095
0.000122291
-0.00127078
0.000125906
-0.00134184
0.000128937
-0.00141382
0.000131414
-0.00148647
0.000133409
-0.00155948
0.000134772
-0.00163277
0.000135764
-0.00170605
0.000136229
-0.00177899
0.000136194
-0.00185161
0.000135883
-0.00192374
0.000135199
-0.00199498
0.000134032
-0.00206532
0.0001326
-0.00213475
0.000130972
-0.00220288
0.000128906
-0.00226974
0.00012676
-0.0023352
0.000124297
-0.00239925
0.000121602
-0.00246167
0.000118683
-0.00252218
0.000115449
-0.00258105
0.000112322
-0.00263808
0.000108886
-0.00269302
0.000105231
-0.00274603
0.000101474
-0.00279694
9.75044e-05
-0.00284581
9.37191e-05
-0.0028922
8.95116e-05
-0.00293651
8.54915e-05
-0.00297868
8.13452e-05
-0.00301871
7.71764e-05
-0.00305689
7.34898e-05
-0.00309161
6.76736e-05
-0.00312564
6.50955e-05
-0.00315586
5.91811e-05
-0.00318453
5.59053e-05
-0.00320884
4.88687e-05
-0.003233
4.64468e-05
-0.00325487
4.22668e-05
-0.00327458
3.83633e-05
3.23134e-05
-0.00328994
-0.000267847
2.02874e-06
0.00025903
-0.000279243
8.35142e-06
-0.000294066
1.61839e-05
-0.000313191
2.48302e-05
-0.000335858
3.41524e-05
-0.000363017
4.3976e-05
-0.000394221
5.42372e-05
-0.000429768
6.48568e-05
-0.00046958
7.62599e-05
-0.000513769
8.76456e-05
-0.000562062
9.93627e-05
-0.000614085
0.000110778
-0.000669967
0.000122355
-0.000729327
0.000133507
-0.000791964
0.000144252
-0.000857594
0.000154496
-0.000925994
0.000164068
-0.000996888
0.000172939
-0.00106995
0.000180988
-0.00114502
0.000188342
-0.00122164
0.000194747
-0.00129973
0.00020038
-0.00137898
0.000205157
-0.00145912
0.000209089
-0.00153988
0.000212172
-0.001621
0.000214531
-0.00170232
0.000216096
-0.00178357
0.000217015
-0.00186446
0.000217126
-0.0019451
0.000216842
-0.00202503
0.000215809
-0.00210402
0.000214197
-0.00218228
0.000212297
-0.00225933
0.000209651
-0.00233508
0.000206721
-0.00240948
0.000203313
-0.00248237
0.000199652
-0.0025536
0.000195524
-0.00262311
0.000191123
-0.00269082
0.000186395
-0.00275677
0.000181396
-0.00282039
0.000175945
-0.00288207
0.000170564
-0.00294155
0.000164716
-0.00299883
0.000158758
-0.00305393
0.000152608
-0.00310661
0.000146394
-0.00315697
0.000139876
-0.00320476
0.000133282
-0.00325075
0.000127339
-0.00329303
0.000119461
-0.00333272
0.000113175
-0.00337077
0.000105729
-0.00340652
0.000100846
-0.00344012
9.27811e-05
-0.00346944
8.52179e-05
-0.0034986
7.80348e-05
-0.00352345
7.12888e-05
-0.00354606
6.48827e-05
-0.00356442
5.67152e-05
5.0567e-05
-0.00358267
-0.000197482
1.80938e-05
0.000181417
-0.000217516
2.83855e-05
-0.000241429
4.00977e-05
-0.000269362
5.27638e-05
-0.000301491
6.6282e-05
-0.000337997
8.04835e-05
-0.000378819
9.50604e-05
-0.000424344
0.000110383
-0.000474146
0.000126063
-0.00052834
0.000141842
-0.000586495
0.000157519
-0.000648807
0.000173092
-0.000714847
0.000188398
-0.000784194
0.000202857
-0.000856787
0.000216848
-0.00093227
0.000229983
-0.00101036
0.000242156
-0.00109074
0.000253326
-0.0011732
0.000263452
-0.00125732
0.000272466
-0.00134309
0.000280511
-0.00142998
0.000287281
-0.00151792
0.0002931
-0.00160658
0.000297745
-0.00169576
0.000301357
-0.00178505
0.000303821
-0.00187434
0.00030539
-0.00196343
0.000306114
-0.0020522
0.000305894
-0.00214016
0.000304802
-0.00222739
0.00030305
-0.00231378
0.000300583
-0.00239877
0.000297293
-0.00248258
0.00029347
-0.00256501
0.000289152
-0.00264589
0.000284193
-0.00272489
0.000278655
-0.00280218
0.000272822
-0.00287755
0.000266492
-0.00295102
0.000259869
-0.00302216
0.000252547
-0.00309137
0.000245159
-0.00315799
0.000237186
-0.00322238
0.000229106
-0.00328425
0.000220633
-0.0033436
0.000211964
-0.00340039
0.000203184
-0.00345491
0.000194395
-0.00350605
0.00018443
-0.00355465
0.00017594
-0.00360183
0.000166645
-0.0036449
0.000156251
-0.00368575
0.000146581
-0.00372247
0.000137566
-0.00375883
0.000129143
-0.00379105
0.000117437
-0.003821
0.000107993
-0.00384872
9.90071e-05
-0.00387224
8.84056e-05
-0.00389352
7.79945e-05
6.7659e-05
-0.00391061
-0.000164366
4.12148e-05
0.000141245
-0.000191223
5.52432e-05
-0.000222337
7.12114e-05
-0.000257905
8.83324e-05
-0.000298006
0.000106384
-0.000342879
0.000125357
-0.00039273
0.000144912
-0.00044704
0.000164693
-0.000506074
0.000185098
-0.000569461
0.00020523
-0.000637253
0.000225312
-0.000709143
0.000244984
-0.000784595
0.000263853
-0.000863653
0.000281916
-0.000946104
0.000299301
-0.00103093
0.000314813
-0.00111845
0.000329674
-0.0012082
0.000343085
-0.00129983
0.000355078
-0.00139316
0.000365805
-0.00148785
0.000375205
-0.00158379
0.00038322
-0.00168056
0.000389873
-0.0017779
0.000395088
-0.00187543
0.000398889
-0.00197322
0.000401612
-0.00207076
0.000402936
-0.0021679
0.000403259
-0.00226446
0.00040246
-0.00236033
0.000400673
-0.00245519
0.000397907
-0.00254879
0.000394191
-0.00264115
0.000389659
-0.00273209
0.000384417
-0.00282128
0.000378339
-0.00290865
0.000371573
-0.0029944
0.000364405
-0.00307797
0.0003564
-0.00315941
0.000347936
-0.0032385
0.000338964
-0.00331553
0.000329576
-0.00338997
0.000319611
-0.00346201
0.000309226
-0.00353138
0.00029848
-0.00359807
0.000287326
-0.0036627
0.0002766
-0.00372255
0.000263035
-0.00378033
0.000252174
-0.00383643
0.00024053
-0.00388855
0.000228064
-0.00393836
0.000216462
-0.00398597
0.000203859
-0.00402959
0.000190204
-0.00407095
0.000178926
-0.00410631
0.000164504
-0.00414121
0.000152346
-0.00417389
0.00014067
-0.00420238
0.000127498
-0.00422671
0.000112742
-0.00425079
0.000102073
8.75699e-05
-0.0042707
-0.000149752
7.06531e-05
0.000120313
-0.000183537
8.90284e-05
-0.000221779
0.000109453
-0.000265143
0.000131697
-0.000313588
0.000154828
-0.000366972
0.000178741
-0.000425347
0.000203288
-0.00048891
0.000228256
-0.000557148
0.000253337
-0.000630319
0.000278401
-0.000707906
0.0003029
-0.000789454
0.000326532
-0.000874985
0.000349384
-0.000963697
0.00037063
-0.00105539
0.000390998
-0.00115011
0.000409529
-0.00124733
0.000426899
-0.00134689
0.000442641
-0.00144809
0.000456286
-0.00155082
0.000468532
-0.00165499
0.000479383
-0.00176003
0.00048826
-0.00186596
0.000495802
-0.00197236
0.000501498
-0.00207899
0.000505522
-0.00218543
0.000508052
-0.00229163
0.000509134
-0.00239722
0.000508854
-0.0025021
0.000507343
-0.00260608
0.000504659
-0.00270892
0.000500746
-0.00281028
0.000495562
-0.00291022
0.000489603
-0.00300853
0.000482726
-0.00310487
0.00047469
-0.00319935
0.000466056
-0.00329163
0.000456689
-0.00338173
0.000446499
-0.00346961
0.000435823
-0.00355518
0.000424541
-0.00363795
0.000412349
-0.0037182
0.000399865
-0.00379558
0.000386609
-0.00386969
0.000372593
-0.00394124
0.000358875
-0.00401011
0.000345473
-0.00407691
0.000329845
-0.00413967
0.00031493
-0.00419843
0.0002993
-0.00425492
0.000284556
-0.00430742
0.000268958
-0.00435582
0.000252264
-0.00440376
0.000238148
-0.00444589
0.000221061
-0.0044876
0.000206218
-0.00452519
0.000189937
-0.00455663
0.000172112
-0.00458579
0.000156655
-0.00461474
0.000141694
-0.00463764
0.000124973
0.000108274
-0.00465834
-0.000148362
0.000106263
0.000112752
-0.000189153
0.00012982
-0.000235161
0.000155461
-0.000286778
0.000183313
-0.000343611
0.000211662
-0.000406122
0.000241252
-0.000473971
0.000271136
-0.000546924
0.000301209
-0.000625251
0.000331664
-0.000708052
0.000361202
-0.000795745
0.000390593
-0.000887724
0.000418512
-0.000983258
0.000444919
-0.0010821
0.000469477
-0.00118456
0.000493454
-0.00128972
0.000514685
-0.00139701
0.000534193
-0.00150661
0.000552242
-0.00161782
0.000567504
-0.00173068
0.000581388
-0.00184471
0.000593413
-0.00195961
0.000603161
-0.00207535
0.000611546
-0.00219139
0.000617541
-0.00230739
0.00062153
-0.00242321
0.000623873
-0.00253829
0.000624213
-0.00265293
0.000623498
-0.00276669
0.000621112
-0.00287911
0.00061708
-0.00299039
0.00061203
-0.00310007
0.000605251
-0.00320773
0.000597261
-0.0033137
0.000588706
-0.00341778
0.00057877
-0.0035194
0.000567681
-0.00361888
0.000556173
-0.00371583
0.000543451
-0.00381019
0.000530192
-0.00390193
0.00051629
-0.00399108
0.000501499
-0.00407661
0.000485396
-0.00415983
0.000469833
-0.00423986
0.000452629
-0.00431711
0.000436132
-0.00439034
0.000418708
-0.00445965
0.000399161
-0.00452654
0.00038182
-0.00459111
0.000363877
-0.00464993
0.000343371
-0.00470648
0.000325512
-0.00476075
0.000306535
-0.00480923
0.000286639
-0.00485562
0.000267452
-0.00489798
0.000248576
-0.00493611
0.000228066
-0.00497374
0.00020975
-0.00500528
0.000188195
-0.00503286
0.000169272
-0.00505647
0.000148582
0.000129668
-0.00507786
-0.000157634
0.000148196
0.0001157
-0.000205766
0.000177953
-0.000259757
0.000209452
-0.000320429
0.000243985
-0.000386734
0.000277967
-0.000458739
0.000313256
-0.000536601
0.000348997
-0.000619375
0.000383982
-0.000708158
0.000420446
-0.000801547
0.00045459
-0.000900489
0.000489533
-0.00100305
0.000521077
-0.00111027
0.000552135
-0.00121979
0.000578992
-0.0013327
0.000606368
-0.00144916
0.000631141
-0.00156753
0.000652561
-0.00168795
0.000672668
-0.00181047
0.000690027
-0.0019333
0.00070422
-0.00205813
0.000718246
-0.00218317
0.000728196
-0.00230963
0.000738016
-0.00243621
0.000744121
-0.00256218
0.000747501
-0.00268817
0.000749871
-0.00281267
0.000748709
-0.00293668
0.00074751
-0.00305989
0.000744326
-0.00318098
0.00073818
-0.00330136
0.000732409
-0.00341988
0.000723779
-0.00353568
0.000713061
-0.00364984
0.000702867
-0.00376214
0.000691084
-0.00387106
0.000676596
-0.00397788
0.000663002
-0.004082
0.000647578
-0.00418268
0.000630875
-0.00428103
0.000614638
-0.00437688
0.000597356
-0.00446981
0.000578337
-0.00455707
0.000557092
-0.00464356
0.000539125
-0.004725
0.000517573
-0.00480202
0.000495731
-0.00487868
0.000475835
-0.00494904
0.000452175
-0.00501581
0.000430652
-0.00507973
0.000407293
-0.00513852
0.000384306
-0.00519463
0.000362651
-0.00524677
0.000338779
-0.00529718
0.000317863
-0.00534198
0.000293385
-0.00538404
0.000270125
-0.00542012
0.00024583
-0.00545152
0.000219601
-0.00548125
0.000198994
-0.00550746
0.000174793
0.000151468
-0.00552925
-0.000175344
0.000127894
0.000195647
-0.000232037
0.000234648
-0.00029328
0.000270697
-0.000364473
0.000315179
-0.000440135
0.000353626
-0.000522648
0.00039577
-0.000611346
0.000437691
-0.000703388
0.000476022
-0.000805096
0.000522152
-0.000907952
0.000557441
-0.00102054
0.000602117
-0.00113316
0.000633699
-0.00125539
0.000674362
-0.00137364
0.000697234
-0.00149933
0.000732054
-0.00162856
0.000760368
-0.00175668
0.000780682
-0.00189058
0.000806574
-0.00202447
0.000823915
-0.00215759
0.000837332
-0.00229718
0.000857838
-0.00243086
0.000861876
-0.00256984
0.000876992
-0.00270804
0.00088232
-0.00284419
0.000883646
-0.00298281
0.000888494
-0.00311578
0.00088168
-0.00325031
0.000882047
-0.00338467
0.000878679
-0.0035137
0.000867214
-0.00364456
0.000863276
-0.00377217
0.000851382
-0.00389611
0.000837005
-0.00401888
0.00082564
-0.0041416
0.000813801
-0.00425602
0.000791018
-0.00437197
0.000778955
-0.0044834
0.000759008
-0.00458999
0.00073746
-0.00469702
0.000721671
-0.00479602
0.000696363
-0.00489573
0.000678046
-0.00498938
0.000650743
-0.00507968
0.000629428
-0.00516901
0.000606902
-0.00525082
0.000577551
-0.00533139
0.000556405
-0.00540489
0.000525679
-0.00547636
0.000502121
-0.00554167
0.0004726
-0.00560691
0.000449551
-0.00566511
0.00042085
-0.00572016
0.00039384
-0.00577137
0.000369069
-0.00582024
0.000342257
-0.00586122
0.000311102
-0.00590066
0.000285277
-0.00593363
0.000252571
-0.005964
0.000229368
-0.00599092
0.00020171
-0.00601219
0.000172742
-0.00303898
1.33645e-05
-0.00305055
1.15684e-05
-0.00306043
9.8838e-06
-0.00306844
8.01229e-06
-0.00307421
5.7664e-06
-0.00307736
3.15817e-06
-0.00307877
1.41068e-06
-0.00307809
-6.73073e-07
-0.00307543
-2.65867e-06
-0.00307035
-5.07689e-06
-0.00306338
-6.95739e-06
-0.00305439
-8.98924e-06
-0.00304335
-1.10346e-05
-0.00303025
-1.30948e-05
-0.00301539
-1.48483e-05
-0.0029987
-1.66856e-05
-0.00297999
-1.87033e-05
-0.00295923
-2.07433e-05
-0.00293679
-2.24401e-05
-0.00291247
-2.43134e-05
-0.00288636
-2.61005e-05
-0.00285863
-2.77188e-05
-0.00282916
-2.94583e-05
-0.00279787
-3.12865e-05
-0.00276494
-3.29204e-05
-0.00273064
-3.42939e-05
-0.00269466
-3.59718e-05
-0.00265702
-3.76284e-05
-0.00261785
-3.91638e-05
-0.0025773
-4.05411e-05
-0.00253527
-4.20284e-05
-0.00249179
-4.34717e-05
-0.00244707
-4.47163e-05
-0.00240103
-4.60283e-05
-0.00235367
-4.73549e-05
-0.00230515
-4.85135e-05
-0.00225554
-4.96054e-05
-0.00220481
-5.07306e-05
-0.00215287
-5.19294e-05
-0.00209991
-5.2964e-05
-0.00204604
-5.38583e-05
-0.00199125
-5.47919e-05
-0.00193553
-5.57121e-05
-0.00187907
-5.64641e-05
-0.0018217
-5.7362e-05
-0.00176353
-5.81734e-05
-0.00170472
-5.88057e-05
-0.00164536
-5.93534e-05
-0.00158534
-6.00218e-05
-0.00152475
-6.05899e-05
-0.00146371
-6.10391e-05
-0.00140234
-6.13742e-05
-0.00134044
-6.18933e-05
-0.00127832
-6.21168e-05
-0.00121597
-6.23548e-05
-0.00115359
-6.23813e-05
-0.00109091
-6.2673e-05
-0.00102819
-6.27278e-05
-0.000965583
-6.26032e-05
-0.000903181
-6.24027e-05
-6.21639e-05
-0.000841017
-0.00330515
2.85759e-05
-0.00331582
2.22371e-05
-0.00332447
1.85426e-05
-0.00333092
1.44563e-05
-0.00333724
1.20901e-05
-0.00333939
5.31042e-06
-0.00333998
2.00207e-06
-0.00333679
-3.85996e-06
-0.00333295
-6.49631e-06
-0.00332554
-1.24868e-05
-0.00331631
-1.61908e-05
-0.00330477
-2.05265e-05
-0.00329121
-2.45909e-05
-0.00327578
-2.85245e-05
-0.00325789
-3.27362e-05
-0.00323796
-3.66106e-05
-0.00321591
-4.07525e-05
-0.00319192
-4.47366e-05
-0.0031657
-4.86556e-05
-0.00313756
-5.24575e-05
-0.00310765
-5.60077e-05
-0.00307554
-5.98246e-05
-0.00304152
-6.34774e-05
-0.00300575
-6.70519e-05
-0.00296816
-7.05173e-05
-0.00292871
-7.37415e-05
-0.00288747
-7.72069e-05
-0.00284474
-8.03613e-05
-0.00280033
-8.35671e-05
-0.0027541
-8.67706e-05
-0.00270644
-8.96861e-05
-0.0026574
-9.25153e-05
-0.00260668
-9.54317e-05
-0.00255453
-9.81713e-05
-0.00250116
-0.000100723
-0.00244631
-0.000103371
-0.00239016
-0.000105748
-0.00233276
-0.000108127
-0.00227427
-0.000110426
-0.0022146
-0.000112632
-0.00215363
-0.000114819
-0.00209176
-0.00011666
-0.00202893
-0.000118542
-0.00196503
-0.000120364
-0.0019003
-0.000122089
-0.0018347
-0.000123778
-0.00176833
-0.000125169
-0.00170105
-0.00012664
-0.00163318
-0.000127885
-0.00156472
-0.000129049
-0.00149569
-0.000130071
-0.0014263
-0.000130762
-0.00135593
-0.000132258
-0.00128581
-0.000132234
-0.00121476
-0.000133405
-0.00114373
-0.000133413
-0.00107189
-0.000134513
-0.00100067
-0.00013395
-0.000929394
-0.000133875
-0.000858137
-0.000133659
-0.00013385
-0.00078645
-0.0035966
4.25086e-05
-0.00361062
3.62554e-05
-0.0036202
2.81212e-05
-0.00362752
2.17721e-05
-0.00363056
1.51285e-05
-0.00363376
8.51285e-06
-0.00363252
7.55116e-07
-0.00362927
-7.1092e-06
-0.00362369
-1.20779e-05
-0.00361645
-1.97231e-05
-0.00360675
-2.58915e-05
-0.00359333
-3.39501e-05
-0.00357818
-3.97462e-05
-0.00356042
-4.62832e-05
-0.00354036
-5.27955e-05
-0.00351791
-5.90706e-05
-0.00349328
-6.53747e-05
-0.00346646
-7.15584e-05
-0.00343739
-7.77316e-05
-0.00340636
-8.34902e-05
-0.00337283
-8.95354e-05
-0.0033374
-9.52559e-05
-0.00329994
-0.000100941
-0.00326048
-0.000106511
-0.00321898
-0.000112025
-0.00317546
-0.000117259
-0.00313014
-0.000122536
-0.00308291
-0.000127589
-0.00303373
-0.000132748
-0.00298312
-0.000137382
-0.00293063
-0.000142174
-0.00287635
-0.000146797
-0.00282078
-0.000151005
-0.00276351
-0.000155439
-0.0027047
-0.000159541
-0.00264447
-0.000163597
-0.0025828
-0.000167428
-0.0025197
-0.000171224
-0.00245532
-0.000174805
-0.00238971
-0.000178246
-0.00232302
-0.000181505
-0.00225494
-0.000184743
-0.00218591
-0.000187569
-0.00211581
-0.000190468
-0.00204475
-0.000193146
-0.00197282
-0.000195716
-0.00189995
-0.000198036
-0.00182628
-0.000200309
-0.00175179
-0.000202379
-0.00167694
-0.000203898
-0.0016008
-0.000206205
-0.00152408
-0.000207481
-0.00144723
-0.000209109
-0.00137001
-0.000209452
-0.00129251
-0.000210903
-0.0012141
-0.000211823
-0.00113629
-0.000212328
-0.00105778
-0.00021246
-0.000979299
-0.000212351
-0.00090041
-0.000212547
-0.000212085
-0.000822174
-0.00392745
5.93488e-05
-0.00394019
4.89928e-05
-0.00395066
3.85889e-05
-0.00395687
2.79905e-05
-0.00396092
1.9175e-05
-0.0039625
1.00962e-05
-0.00395977
-1.97943e-06
-0.00395711
-9.76687e-06
-0.00395045
-1.87393e-05
-0.00394173
-2.84418e-05
-0.00392877
-3.88567e-05
-0.00391462
-4.80969e-05
-0.00389796
-5.64058e-05
-0.00387789
-6.63528e-05
-0.00385564
-7.5049e-05
-0.00383085
-8.38596e-05
-0.00380357
-9.26565e-05
-0.00377377
-0.000101363
-0.00374174
-0.000109754
-0.00370705
-0.000118183
-0.00367042
-0.000126163
-0.00363128
-0.000134397
-0.00359006
-0.000142162
-0.00354663
-0.000149949
-0.00350117
-0.000157482
-0.00345334
-0.000165089
-0.0034035
-0.000172384
-0.00335171
-0.000179372
-0.00329813
-0.00018633
-0.00324231
-0.000193206
-0.0031848
-0.000199681
-0.00312565
-0.000205947
-0.00306448
-0.000212182
-0.00300178
-0.000218133
-0.0029375
-0.000223829
-0.00287165
-0.000229444
-0.00280406
-0.000235017
-0.00273509
-0.00024019
-0.00266471
-0.000245193
-0.00259306
-0.000249891
-0.00251993
-0.000254633
-0.00244583
-0.000258846
-0.00237034
-0.000263063
-0.00229384
-0.000266964
-0.00221623
-0.000270758
-0.00213758
-0.000274367
-0.00205797
-0.000277644
-0.00197765
-0.000280632
-0.00189615
-0.000283877
-0.00181393
-0.000286115
-0.00173166
-0.000288472
-0.00164808
-0.000291059
-0.00156414
-0.000293046
-0.00147914
-0.000294451
-0.00139463
-0.000295418
-0.0013093
-0.000297148
-0.00122388
-0.000297746
-0.00113851
-0.000297834
-0.00105263
-0.000298231
-0.000966939
-0.000298235
-0.000298055
-0.000880968
-0.0042864
7.50507e-05
-0.00429794
6.05247e-05
-0.00430923
4.98872e-05
-0.00431636
3.51155e-05
-0.00431929
2.21094e-05
-0.00431994
1.07456e-05
-0.00432071
-1.219e-06
-0.00431496
-1.55096e-05
-0.00430715
-2.65561e-05
-0.00429542
-4.01706e-05
-0.00428162
-5.26558e-05
-0.00426565
-6.40697e-05
-0.00424567
-7.63913e-05
-0.00422422
-8.77968e-05
-0.00420093
-9.83407e-05
-0.00417264
-0.000112153
-0.00414244
-0.000122864
-0.00410957
-0.000134232
-0.00407402
-0.000145302
-0.00403613
-0.000156076
-0.0039956
-0.000166698
-0.00395297
-0.000177029
-0.00390775
-0.00018738
-0.00386011
-0.000197591
-0.00380991
-0.000207687
-0.00375773
-0.000217265
-0.00370327
-0.000226845
-0.0036465
-0.000236145
-0.00358765
-0.00024518
-0.00352687
-0.000253986
-0.00346396
-0.000262596
-0.00339903
-0.000270876
-0.00333237
-0.000278849
-0.00326394
-0.000286558
-0.00319364
-0.000294136
-0.00312153
-0.000301555
-0.00304802
-0.000308521
-0.00297268
-0.000315529
-0.0028958
-0.000322077
-0.00281733
-0.000328361
-0.0027377
-0.000334262
-0.00265665
-0.000339901
-0.00257446
-0.00034525
-0.00249101
-0.00035041
-0.00240643
-0.000355339
-0.00232112
-0.00035968
-0.0022336
-0.00036516
-0.00214562
-0.000368613
-0.00205742
-0.000372076
-0.00196782
-0.000375717
-0.00187774
-0.000378551
-0.00178731
-0.000381488
-0.00169578
-0.000384573
-0.00160395
-0.000386282
-0.00151049
-0.000388884
-0.00141763
-0.000390002
-0.00132474
-0.000390638
-0.00123137
-0.000391204
-0.00113758
-0.000392013
-0.00104459
-0.000391228
-0.000391332
-0.00095131
-0.00467488
9.15871e-05
-0.00468923
7.48802e-05
-0.00469744
5.80915e-05
-0.00470545
4.31238e-05
-0.00471127
2.79316e-05
-0.00471096
1.04396e-05
-0.00470663
-5.55423e-06
-0.004702
-2.01374e-05
-0.00469143
-3.71238e-05
-0.00468069
-5.09125e-05
-0.00466593
-6.74228e-05
-0.00464717
-8.28288e-05
-0.00462631
-9.7251e-05
-0.00460153
-0.000112578
-0.00457275
-0.000127123
-0.00454208
-0.00014283
-0.00450882
-0.000156122
-0.00447308
-0.000169969
-0.00443403
-0.000184364
-0.00439221
-0.00019789
-0.00434793
-0.000210981
-0.00430075
-0.000224219
-0.00425106
-0.00023707
-0.00419887
-0.000249777
-0.00414423
-0.000262331
-0.00408689
-0.00027461
-0.00402735
-0.000286391
-0.00396532
-0.00029817
-0.003901
-0.000309504
-0.00383462
-0.000320367
-0.00376589
-0.000331327
-0.00369502
-0.000341749
-0.00362224
-0.000351633
-0.00354762
-0.000361178
-0.00347087
-0.000370886
-0.00339245
-0.000379978
-0.00331199
-0.000388986
-0.00322979
-0.000397726
-0.00314603
-0.000405838
-0.00306075
-0.000413643
-0.00297372
-0.000421292
-0.00288545
-0.000428167
-0.00279581
-0.000434889
-0.00270464
-0.000441587
-0.00261254
-0.000447431
-0.00251931
-0.000452917
-0.00242557
-0.000458893
-0.00233015
-0.000464036
-0.00223346
-0.000468767
-0.00213627
-0.000472908
-0.00203786
-0.000476962
-0.00193841
-0.000480937
-0.00183932
-0.000483656
-0.00173864
-0.000486962
-0.0016383
-0.000489224
-0.00153732
-0.000490982
-0.00143504
-0.000492918
-0.00133312
-0.000493121
-0.00123187
-0.000493264
-0.00112999
-0.000493108
-0.000492946
-0.00102838
-0.00509513
0.000108858
-0.00511021
8.9957e-05
-0.0051212
6.9088e-05
-0.00512808
4.9997e-05
-0.00512891
2.87609e-05
-0.00512963
1.11634e-05
-0.00512623
-8.95654e-06
-0.00511873
-2.76423e-05
-0.00510916
-4.66927e-05
-0.00509382
-6.62556e-05
-0.00507646
-8.47882e-05
-0.0050569
-0.000102389
-0.00503147
-0.000122677
-0.00500404
-0.000140012
-0.00497465
-0.000156521
-0.00494129
-0.00017619
-0.00490391
-0.000193502
-0.00486371
-0.000210172
-0.00482034
-0.000227734
-0.0047751
-0.000243135
-0.00472618
-0.000259904
-0.00467475
-0.000275653
-0.00462043
-0.00029139
-0.0045632
-0.000307006
-0.00450319
-0.000322344
-0.00444054
-0.000337266
-0.00437519
-0.000351745
-0.00430757
-0.000365791
-0.00423759
-0.00037949
-0.00416502
-0.000392929
-0.00409001
-0.000406341
-0.00401287
-0.000418897
-0.00393334
-0.000431158
-0.00385201
-0.000442515
-0.00376866
-0.000454229
-0.00368319
-0.000465455
-0.00359571
-0.000476467
-0.00350617
-0.000487271
-0.00341481
-0.000497195
-0.00332167
-0.000506782
-0.00322701
-0.000515958
-0.00313037
-0.000524803
-0.00303294
-0.000532322
-0.00293421
-0.00054032
-0.00283447
-0.000547171
-0.00273273
-0.000554653
-0.00262963
-0.000561994
-0.00252588
-0.00056779
-0.00242188
-0.000572761
-0.00231566
-0.000579125
-0.002209
-0.000583625
-0.00210216
-0.000587775
-0.00199346
-0.000592355
-0.00188466
-0.000595762
-0.00177474
-0.000599148
-0.00166435
-0.000601371
-0.00155444
-0.000602826
-0.00144387
-0.000603693
-0.00133288
-0.000604253
-0.00122202
-0.000603959
-0.000603562
-0.00111141
-0.00554714
0.00012674
-0.00556069
0.00010351
-0.00557046
7.88576e-05
-0.0055779
5.74328e-05
-0.00558156
3.2428e-05
-0.00557943
9.02286e-06
-0.0055753
-1.30871e-05
-0.0055648
-3.81382e-05
-0.00555231
-5.91909e-05
-0.00553644
-8.21262e-05
-0.00551848
-0.00010275
-0.00549461
-0.000126266
-0.00546839
-0.000148898
-0.00543848
-0.00016992
-0.00540325
-0.000191753
-0.00536739
-0.000212053
-0.00532764
-0.000233255
-0.00528192
-0.000255898
-0.00523574
-0.000273911
-0.00518464
-0.000294236
-0.00513034
-0.000314206
-0.00507408
-0.000331925
-0.00501503
-0.00035044
-0.00495228
-0.000369753
-0.00488663
-0.000388004
-0.00481801
-0.000405887
-0.00474665
-0.000423109
-0.00467266
-0.000439781
-0.00459613
-0.000456026
-0.0045171
-0.000471961
-0.00443518
-0.000488261
-0.00435126
-0.000502823
-0.00426467
-0.000517744
-0.00417671
-0.000530476
-0.00408607
-0.000544873
-0.00399321
-0.000558312
-0.00389825
-0.000571436
-0.00380073
-0.000584789
-0.00370098
-0.000596945
-0.00359975
-0.000608018
-0.00349689
-0.000618813
-0.00339223
-0.000629464
-0.00328538
-0.00063917
-0.00317869
-0.000647012
-0.0030698
-0.000656064
-0.0029587
-0.000665753
-0.00284832
-0.000672369
-0.00273514
-0.000680974
-0.00262171
-0.000686186
-0.00250736
-0.00069348
-0.00239095
-0.000700035
-0.00227475
-0.000703969
-0.00215724
-0.000709871
-0.00203984
-0.00071316
-0.00192001
-0.000718977
-0.0018008
-0.000720577
-0.00167996
-0.00072367
-0.00155983
-0.00072382
-0.00143946
-0.00072462
-0.00131963
-0.000723792
-0.000724101
-0.00119909
-0.00603067
0.000145216
-0.00604396
0.000116801
-0.0060542
8.90979e-05
-0.00605771
6.09391e-05
-0.00606002
3.474e-05
-0.00605858
7.58125e-06
-0.0060527
-1.89662e-05
-0.00604205
-4.87894e-05
-0.00602624
-7.50083e-05
-0.00600979
-9.85725e-05
-0.00598734
-0.000125205
-0.00596131
-0.000152297
-0.00593292
-0.000177284
-0.0058977
-0.000205146
-0.00586325
-0.000226205
-0.00582157
-0.000253734
-0.00577556
-0.00027927
-0.00572822
-0.000303247
-0.00567427
-0.000327858
-0.00561936
-0.000349148
-0.00556186
-0.000371706
-0.00549862
-0.000395172
-0.00543539
-0.000413666
-0.00536644
-0.000438713
-0.0052939
-0.000460537
-0.0052198
-0.000479992
-0.00514089
-0.000502023
-0.005061
-0.000519672
-0.00497563
-0.000541401
-0.00489163
-0.00055596
-0.00480025
-0.000579639
-0.00471047
-0.000592612
-0.00461455
-0.000613664
-0.00452088
-0.000624142
-0.00442285
-0.000642913
-0.00432174
-0.000659422
-0.00421993
-0.000673244
-0.00411312
-0.0006916
-0.00400426
-0.000705808
-0.00389591
-0.000716368
-0.00378216
-0.000732567
-0.00366701
-0.000744616
-0.00355313
-0.000753044
-0.00343442
-0.000765724
-0.00331975
-0.000770732
-0.00319727
-0.000788236
-0.00307854
-0.000791096
-0.00295382
-0.000805693
-0.00283326
-0.00080675
-0.00270938
-0.000817358
-0.00258263
-0.000826789
-0.00245899
-0.000827605
-0.00233004
-0.000838826
-0.0022044
-0.000838792
-0.00207181
-0.000851567
-0.00194424
-0.00084815
-0.00181026
-0.000857644
-0.00168399
-0.000850096
-0.00155062
-0.000857981
-0.00142306
-0.000851351
-0.00128893
-0.000858231
-0.000778657
-6.23596e-05
-0.000716654
-6.20037e-05
-0.000655024
-6.16298e-05
-0.000593805
-6.12191e-05
-0.000533056
-6.07489e-05
-0.000472826
-6.02304e-05
-0.00041337
-5.9456e-05
-0.000354736
-5.8633e-05
-0.000297135
-5.76009e-05
-0.000240702
-5.6433e-05
-0.000185284
-5.54176e-05
-0.000129034
-5.62491e-05
-7.10398e-05
-5.79939e-05
-1.18711e-05
-5.91678e-05
4.62083e-05
-5.80786e-05
0.000101629
-5.54194e-05
0.000154779
-5.3149e-05
0.000206174
-5.13937e-05
0.000255995
-4.98205e-05
0.000304254
-4.82571e-05
0.000350966
-4.671e-05
0.000396073
-4.51061e-05
0.000439508
-4.34325e-05
0.000481136
-4.16265e-05
0.000520899
-3.97613e-05
0.000558734
-3.78327e-05
0.000594522
-3.57852e-05
0.000628129
-3.36051e-05
0.000659441
-3.13095e-05
0.000688365
-2.89222e-05
0.000714704
-2.63362e-05
0.000738297
-2.35912e-05
0.000759023
-2.07231e-05
0.000776634
-1.76088e-05
0.000790913
-1.42765e-05
0.000801665
-1.07499e-05
0.000808631
-6.9643e-06
0.000811547
-2.91462e-06
0.000811046
5.02964e-07
0.000807012
4.03554e-06
0.000799535
7.47856e-06
0.000787951
1.1585e-05
0.000771747
1.62052e-05
0.000750494
2.12534e-05
0.000723558
2.69376e-05
0.000690308
3.32495e-05
0.000650126
4.01828e-05
0.000602271
4.78556e-05
0.000545885
5.63857e-05
0.000480203
6.56813e-05
0.000404504
7.56998e-05
0.000318224
8.62796e-05
0.00022079
9.74341e-05
0.000111371
0.000109419
-1.60039e-05
0.000127376
-0.000155935
0.000139931
-0.000285377
0.000129443
-0.000392733
0.000107357
-0.000474111
8.13783e-05
-0.00053491
6.07991e-05
5.09109e-05
-0.00058582
-0.000715385
-0.000133424
-0.000644014
-0.000133373
-0.000572861
-0.000132782
-0.000501963
-0.000132116
-0.000431682
-0.000131029
-0.000361518
-0.000130393
-0.00029189
-0.000129083
-0.000222655
-0.000127867
-0.000154143
-0.000126112
-8.61857e-05
-0.000124389
-1.78284e-05
-0.000123774
5.09319e-05
-0.000125008
0.000118603
-0.000125664
0.000185003
-0.000125567
0.000250685
-0.00012376
0.00031576
-0.000120493
0.000379756
-0.000117144
0.000442442
-0.000114078
0.000503733
-0.00011111
0.000563647
-0.00010817
0.00062219
-0.000105251
0.000679218
-0.000102132
0.000734706
-9.89186e-05
0.000788648
-9.55664e-05
0.00084094
-9.20507e-05
0.00089152
-8.84108e-05
0.000940258
-8.45201e-05
0.000987171
-8.05157e-05
0.00103211
-7.62476e-05
0.0010749
-7.17123e-05
0.00111557