/*--------------------------------*- C++ -*----------------------------------*\
| =========                 |                                                 |
| \\      /  F ield         | OpenFOAM: The Open Source CFD Toolbox           |
|  \\    /   O peration     | Version:  2.3.1                                 |
|   \\  /    A nd           | Web:      www.OpenFOAM.org                      |
|    \\/     M anipulation  |                                                 |
\*---------------------------------------------------------------------------*/
FoamFile
{
    version     2.0;
    format      ascii;
    class       volVectorField;
    location    "0.76";
    object      U;
}
// * * * * * * * * * * * * * * * * * * * * * * * * * * * * * * * * * * * * * //

dimensions      [0 1 -1 0 0 0 0];

internalField   nonuniform List<vector> 
9648
(
(0.151499 -4.84082 -4.47333e-22)
(0.279185 -4.79376 3.78571e-23)
(0.405635 -4.76527 0)
(0.52851 -4.73769 0)
(0.651526 -4.7163 7.32762e-21)
(0.775901 -4.70119 1.13511e-20)
(0.904225 -4.69624 -2.36928e-20)
(1.0385 -4.70303 -1.14488e-20)
(1.17997 -4.72277 1.14204e-20)
(1.32916 -4.75748 3.60505e-20)
(1.48819 -4.80881 -3.59006e-20)
(1.6589 -4.87782 -5.29486e-20)
(1.8433 -4.96519 2.82488e-19)
(2.0434 -5.07088 7.39087e-20)
(2.26092 -5.19413 -6.94638e-19)
(2.4971 -5.33372 0)
(2.75311 -5.48794 0)
(3.0298 -5.65476 1.28257e-19)
(3.32786 -5.83158 4.14088e-19)
(3.64736 -6.0156 -1.19338e-18)
(3.98833 -6.2042 -2.13758e-20)
(4.35061 -6.3943 3.29418e-19)
(4.73346 -6.583 3.90679e-19)
(5.13618 -6.76749 -1.77875e-18)
(5.55782 -6.94509 0)
(5.99735 -7.11317 1.06748e-18)
(6.45345 -7.26922 -1.11983e-18)
(6.92473 -7.41118 0)
(7.40975 -7.53685 0)
(7.90687 -7.64459 -6.81094e-19)
(8.41459 -7.7327 -1.50786e-18)
(8.93108 -7.79972 2.36856e-18)
(9.45474 -7.84454 0)
(9.98378 -7.86593 0)
(10.5164 -7.86323 1.81595e-18)
(11.0509 -7.83558 -1.95509e-18)
(11.5853 -7.78258 0)
(12.1183 -7.70394 4.1987e-18)
(12.6479 -7.59928 1.13282e-18)
(13.1723 -7.46849 -3.35357e-18)
(13.6896 -7.31161 6.35949e-20)
(14.1986 -7.12914 2.38644e-18)
(14.6974 -6.92096 -3.17085e-18)
(15.1843 -6.68762 6.37852e-19)
(15.6581 -6.4299 0)
(16.1174 -6.14794 0)
(16.5606 -5.84245 4.8117e-18)
(16.9866 -5.51423 7.04277e-19)
(17.3947 -5.16411 -2.17638e-18)
(17.7841 -4.79204 -7.32612e-19)
(18.1525 -4.39913 -7.6193e-19)
(18.4985 -3.98758 7.5723e-19)
(18.8218 -3.55903 3.91143e-19)
(19.1214 -3.11425 -3.89042e-19)
(19.3964 -2.65496 1.98566e-18)
(19.6462 -2.18224 -1.95504e-18)
(19.87 -1.69754 -2.17806e-20)
(20.0673 -1.20207 0)
(20.2377 -0.697303 -3.97059e-19)
(20.3808 -0.18489 -5.13475e-20)
(20.4965 0.333971 -4.86745e-20)
(-0.0785775 -2.5301 3.91907e-22)
(-0.000295803 -2.54103 0)
(0.0775205 -2.55834 0)
(0.154154 -2.588 1.63229e-21)
(0.235014 -2.63842 -3.28204e-21)
(0.325049 -2.712 -2.73447e-20)
(0.425719 -2.80578 0)
(0.538867 -2.9187 0)
(0.666266 -3.05145 -3.83901e-20)
(0.808562 -3.20402 0)
(0.96711 -3.37546 -9.7215e-20)
(1.14275 -3.56431 7.77061e-20)
(1.33641 -3.76929 -4.22718e-20)
(1.54905 -3.98876 0)
(1.78142 -4.22078 2.70204e-19)
(2.03382 -4.46324 1.61001e-19)
(2.30659 -4.7139 -1.58421e-19)
(2.59983 -4.97051 2.07557e-19)
(2.91374 -5.23054 -6.32888e-19)
(3.24806 -5.4915 5.0621e-19)
(3.60245 -5.75105 -5.61799e-19)
(3.97665 -6.00663 -3.03286e-19)
(4.36984 -6.25589 -3.11139e-19)
(4.78125 -6.49651 1.07215e-18)
(5.20995 -6.72626 3.71427e-19)
(5.65501 -6.94299 4.42496e-19)
(6.11528 -7.14469 -3.91865e-19)
(6.58947 -7.32959 0)
(7.07636 -7.49593 0)
(7.57439 -7.64233 0)
(8.08224 -7.76735 0)
(8.59825 -7.86978 0)
(9.12092 -7.94864 0)
(9.64873 -8.00294 0)
(10.1799 -8.03209 -8.15739e-19)
(10.7128 -8.03533 7.40612e-19)
(11.2459 -8.0124 8.17214e-19)
(11.7775 -7.96299 -4.15242e-18)
(12.306 -7.88679 -8.81456e-19)
(12.8297 -7.78375 2.71142e-18)
(13.347 -7.65402 1.90302e-18)
(13.8561 -7.49801 -1.96424e-18)
(14.3556 -7.31563 9.38149e-19)
(14.8438 -7.10758 9.89934e-19)
(15.3194 -6.87451 -1.05235e-18)
(15.7809 -6.61667 1.04305e-18)
(16.2268 -6.33491 -2.23629e-18)
(16.6559 -6.03006 0)
(17.0667 -5.70297 -5.71194e-19)
(17.4588 -5.3538 1.14785e-18)
(17.8312 -4.98352 -5.76805e-19)
(18.1827 -4.59385 0)
(18.5121 -4.18619 1.18556e-18)
(18.8186 -3.76135 0)
(19.1013 -3.32079 0)
(19.3594 -2.86569 2.80987e-18)
(19.5921 -2.39738 -1.26631e-18)
(19.7989 -1.91748 -3.08044e-19)
(19.9793 -1.42686 3.25129e-19)
(20.1329 -0.927254 0)
(20.2592 -0.419931 8.17443e-20)
(0.0419954 -1.47424 -5.51961e-22)
(0.105562 -1.52664 0)
(0.173652 -1.59428 7.67789e-22)
(0.246315 -1.68228 -3.33224e-22)
(0.326434 -1.78948 0)
(0.417603 -1.91509 2.16695e-20)
(0.521172 -2.06058 1.62585e-20)
(0.638752 -2.22494 0)
(0.772039 -2.4078 2.31578e-21)
(0.922707 -2.60775 4.01699e-20)
(1.09174 -2.82377 8.27877e-20)
(1.27977 -3.05401 -2.88396e-20)
(1.48738 -3.2967 0)
(1.7149 -3.54977 0)
(1.9626 -3.81112 2.04335e-19)
(2.23042 -4.07864 -1.31419e-19)
(2.51832 -4.35009 -1.41259e-19)
(2.82609 -4.62327 0)
(3.15348 -4.89592 5.48901e-19)
(3.50014 -5.16582 -5.70718e-19)
(3.86557 -5.43091 -4.27931e-19)
(4.24924 -5.68905 -4.72344e-19)
(4.65035 -5.9382 0)
(5.06802 -6.17639 -8.49702e-19)
(5.50129 -6.40169 -2.99136e-19)
(5.94918 -6.61225 3.56336e-19)
(6.41059 -6.80637 3.93917e-19)
(6.88431 -6.98251 0)
(7.36908 -7.13924 0)
(7.86351 -7.27532 0)
(8.36619 -7.38957 0)
(8.87563 -7.48098 0)
(9.39038 -7.54865 0)
(9.90891 -7.59186 0)
(10.4296 -7.61006 -1.79138e-18)
(10.951 -7.60273 5.95206e-19)
(11.4714 -7.56962 -6.569e-19)
(11.9894 -7.5105 3.30611e-18)
(12.5033 -7.42522 0)
(13.0116 -7.31386 1.407e-18)
(13.5127 -7.17661 1.45537e-18)
(14.005 -7.01379 7.21008e-19)
(14.4871 -6.82555 -8.26195e-19)
(14.9575 -6.61245 -1.5914e-18)
(15.4149 -6.37504 2.47978e-18)
(15.8578 -6.11387 -8.38912e-19)
(16.2851 -5.82972 -1.71113e-18)
(16.6954 -5.5234 0)
(17.0876 -5.19597 0)
(17.4606 -4.84845 -4.67106e-19)
(17.8135 -4.48185 -4.56605e-19)
(18.1453 -4.0971 -9.33991e-19)
(18.4555 -3.69532 -9.7764e-19)
(18.7427 -3.27795 0)
(19.0066 -2.84578 -9.66763e-19)
(19.2462 -2.40054 -1.00746e-18)
(19.4612 -1.94298 0)
(19.6507 -1.47531 1.63623e-20)
(19.8141 -0.99783 0)
(19.9514 -0.512296 0)
(20.0623 -0.0197452 -6.23766e-20)
(0.0212797 -0.961241 1.08134e-21)
(0.084848 -1.05107 -1.81206e-21)
(0.160253 -1.15726 2.20975e-21)
(0.245429 -1.28044 -8.60573e-22)
(0.341166 -1.42068 0)
(0.448384 -1.57803 -8.85416e-21)
(0.568889 -1.75271 -1.40299e-20)
(0.704142 -1.94421 0)
(0.85561 -2.15173 3.16179e-21)
(1.02418 -2.37414 -3.43391e-20)
(1.21071 -2.61005 7.80507e-20)
(1.41552 -2.85783 9.62241e-20)
(1.63895 -3.11549 0)
(1.88118 -3.38102 -7.83842e-20)
(2.1424 -3.65241 -1.66952e-19)
(2.42236 -3.92765 -8.92849e-20)
(2.7209 -4.20465 3.47546e-19)
(3.03778 -4.48133 -2.51945e-19)
(3.37261 -4.75564 2.83586e-19)
(3.72506 -5.02556 4.8485e-19)
(4.09471 -5.28927 7.03353e-19)
(4.48084 -5.54491 3.97803e-19)
(4.8828 -5.79067 1.91309e-19)
(5.29966 -6.02482 6.97705e-19)
(5.73055 -6.24557 2.29183e-19)
(6.17452 -6.45129 2.61269e-19)
(6.63053 -6.64044 3.08924e-19)
(7.09759 -6.81162 -9.24796e-19)
(7.57444 -6.96362 6.64494e-19)
(8.05979 -7.09527 7.51673e-19)
(8.55242 -7.20552 -1.53715e-18)
(9.05084 -7.29346 7.85121e-19)
(9.55371 -7.35825 -8.41591e-19)
(10.0597 -7.39924 4.19536e-19)
(10.5673 -7.41596 4.60121e-19)
(11.075 -7.40795 5.10902e-19)
(11.5814 -7.37492 -5.04466e-19)
(12.0851 -7.31674 -5.49994e-19)
(12.5844 -7.23329 -1.64841e-18)
(13.0781 -7.12466 -1.18965e-18)
(13.5645 -6.99109 -2.41187e-18)
(14.0423 -6.83281 -3.12475e-18)
(14.5098 -6.6501 1.28114e-18)
(14.9658 -6.44339 2.91351e-20)
(15.4091 -6.21322 -7.17663e-19)
(15.8383 -5.96015 -7.03824e-19)
(16.2521 -5.68485 4.25537e-18)
(16.6495 -5.38811 -7.13229e-19)
(17.0294 -5.07077 0)
(17.3907 -4.73375 0)
(17.7326 -4.37808 -7.16129e-19)
(18.054 -4.00493 3.20772e-20)
(18.3544 -3.61532 7.68398e-19)
(18.6327 -3.2104 0)
(18.8884 -2.79145 8.18282e-19)
(19.1205 -2.35981 0)
(19.3286 -1.91663 0)
(19.5121 -1.46287 6.23356e-19)
(19.6705 -1.00011 1.98211e-19)
(19.8037 -0.5298 -2.0197e-19)
(19.9112 -0.0534077 1.03344e-19)
(0.115904 -0.702634 4.70287e-23)
(0.180072 -0.813572 1.58299e-21)
(0.257956 -0.939413 -3.76659e-21)
(0.349135 -1.08134 -9.42181e-22)
(0.453584 -1.23978 -2.05539e-23)
(0.572263 -1.41451 3.37458e-21)
(0.706044 -1.60524 2.29416e-21)
(0.855795 -1.8111 -9.69498e-21)
(1.02263 -2.03122 3.43836e-20)
(1.20673 -2.26434 -5.03687e-20)
(1.40869 -2.50899 5.75227e-20)
(1.62826 -2.76348 -7.37138e-20)
(1.86565 -3.0258 -4.31162e-20)
(2.12068 -3.29399 0)
(2.39361 -3.56605 8.22791e-20)
(2.68387 -3.84029 7.87946e-20)
(2.99125 -4.11468 0)
(3.31548 -4.38727 1.97043e-19)
(3.65601 -4.65621 0)
(4.01266 -4.91954 -2.63599e-19)
(4.38501 -5.17571 2.88455e-19)
(4.77227 -5.42314 1.02893e-20)
(5.1739 -5.66014 -1.72129e-20)
(5.58885 -5.88525 2.93072e-20)
(6.01631 -6.09671 -8.17109e-19)
(6.45546 -6.29305 -4.70042e-19)
(6.90524 -6.47286 9.68214e-19)
(7.36488 -6.63482 1.05169e-18)
(7.83314 -6.77797 -5.69871e-19)
(8.30882 -6.90116 0)
(8.79079 -7.00346 0)
(9.27758 -7.08408 0)
(9.76802 -7.14212 7.23118e-19)
(10.2609 -7.17705 -2.98756e-18)
(10.7547 -7.18851 1.564e-18)
(11.2481 -7.17604 -7.95528e-19)
(11.7398 -7.13931 -1.71687e-18)
(12.2283 -7.07835 1.74183e-18)
(12.7123 -6.99299 4.02313e-20)
(13.1905 -6.88338 -9.8398e-19)
(13.6613 -6.74978 1.01668e-18)
(14.1233 -6.59242 1.05137e-18)
(14.5752 -6.41157 0)
(15.0157 -6.20757 -1.06768e-18)
(15.4435 -5.98099 0)
(15.8574 -5.73237 -1.70587e-18)
(16.2563 -5.46239 5.27246e-19)
(16.6391 -5.17177 0)
(17.0047 -4.86122 -6.18666e-19)
(17.3522 -4.53178 -1.47894e-20)
(17.6808 -4.18427 1.31797e-18)
(17.9895 -3.81986 -6.26199e-19)
(18.2777 -3.43965 -3.48237e-19)
(18.5446 -3.04475 6.37655e-19)
(18.7895 -2.63651 -4.84499e-21)
(19.0114 -2.21593 3.32479e-19)
(19.2099 -1.78432 1.60584e-19)
(19.3844 -1.3426 3.38899e-19)
(19.5347 -0.89202 -8.51288e-19)
(19.6605 -0.434073 3.41872e-19)
(19.7614 0.0296819 -4.37407e-20)
(0.202694 -0.562428 -4.95523e-22)
(0.279071 -0.687709 0)
(0.370079 -0.827536 5.06484e-21)
(0.475761 -0.982835 0)
(0.595344 -1.15372 -9.45289e-22)
(0.730072 -1.33965 2.1502e-21)
(0.880393 -1.5402 4.93955e-21)
(1.04688 -1.7542 1.9419e-20)
(1.23057 -1.98066 3.74425e-21)
(1.43096 -2.2184 5.70539e-21)
(1.64871 -2.46579 9.68504e-22)
(1.88288 -2.72134 -2.75667e-20)
(2.1338 -2.98297 4.21265e-20)
(2.40059 -3.24872 -1.28737e-19)
(2.68425 -3.51663 1.11565e-19)
(2.98371 -3.78557 -8.54648e-21)
(3.29853 -4.05329 -1.40068e-19)
(3.62881 -4.31809 -1.70246e-19)
(3.97355 -4.57831 0)
(4.3328 -4.83193 2.04051e-19)
(4.70648 -5.07774 8.38442e-21)
(5.0933 -5.31448 -5.33047e-19)
(5.49328 -5.54044 -2.33539e-20)
(5.9049 -5.75462 -2.89656e-19)
(6.32748 -5.9551 1.02546e-18)
(6.76033 -6.14054 3.55956e-20)
(7.20235 -6.30968 -3.8224e-19)
(7.65317 -6.46115 -4.1298e-20)
(8.11148 -6.5944 0)
(8.57604 -6.70827 0)
(9.04608 -6.8018 0)
(9.5199 -6.87454 0)
(9.99643 -6.92538 0)
(10.4749 -6.95377 5.75934e-20)
(10.9537 -6.9597 -6.70889e-19)
(11.4313 -6.94265 -3.92922e-20)
(11.907 -6.90208 2.92959e-20)
(12.3792 -6.83835 6.9289e-19)
(12.8465 -6.75115 1.58477e-18)
(13.308 -6.64064 -2.39065e-18)
(13.7621 -6.50734 1.66445e-18)
(14.2074 -6.35129 -8.40122e-19)
(14.6424 -6.17287 0)
(15.0662 -5.97212 9.33595e-19)
(15.4777 -5.74976 0)
(15.8754 -5.50632 9.82957e-19)
(16.2585 -5.24229 -1.00588e-18)
(16.6256 -4.95869 4.72423e-19)
(16.9761 -4.65583 5.04699e-19)
(17.309 -4.33477 -5.26657e-19)
(17.6235 -3.99636 3.78045e-20)
(17.9189 -3.64184 -1.07121e-20)
(18.1944 -3.27194 1.0712e-18)
(18.4494 -2.88811 -1.10243e-18)
(18.6832 -2.49157 -5.43879e-19)
(18.8947 -2.08361 -2.66268e-19)
(19.0833 -1.66503 -8.47001e-19)
(19.2486 -1.23666 0)
(19.3907 -0.799648 5.72042e-19)
(19.5092 -0.355816 -1.46846e-19)
(19.6038 0.0935742 0)
(0.309566 -0.491967 0)
(0.399851 -0.627138 0)
(0.505708 -0.777139 -2.45078e-21)
(0.628282 -0.942381 3.41881e-21)
(0.764708 -1.12234 -5.84655e-22)
(0.917222 -1.31588 -3.92018e-21)
(1.08536 -1.5225 2.95253e-21)
(1.269 -1.74066 -1.26445e-20)
(1.47039 -1.96958 -1.20092e-21)
(1.68684 -2.20807 3.92007e-20)
(1.92064 -2.45452 -7.68556e-20)
(2.16879 -2.70776 0)
(2.43293 -2.9654 0)
(2.71014 -3.22573 1.46152e-19)
(3.00399 -3.48627 9.52502e-20)
(3.31172 -3.74727 -2.1147e-19)
(3.63273 -4.00589 3.44589e-19)
(3.96827 -4.26058 1.45586e-19)
(4.3159 -4.51031 -2.91559e-19)
(4.67642 -4.75233 -1.77868e-19)
(5.05076 -4.98586 2.05462e-19)
(5.43575 -5.2105 -5.20604e-21)
(5.83343 -5.42376 0)
(6.24065 -5.62603 5.33618e-19)
(6.65716 -5.81457 -8.80684e-19)
(7.08294 -5.98805 2.9343e-19)
(7.51572 -6.14578 6.5008e-19)
(7.95685 -6.28566 -1.8118e-18)
(8.40433 -6.40821 3.69218e-19)
(8.85652 -6.51212 0)
(9.31391 -6.59602 0)
(9.77372 -6.66055 0)
(10.2351 -6.70377 5.08563e-19)
(10.6983 -6.72489 1.57513e-18)
(11.1613 -6.7248 -1.06562e-18)
(11.6218 -6.70313 5.88581e-19)
(12.0806 -6.65804 6.45418e-19)
(12.5353 -6.59124 -1.28045e-18)
(12.9847 -6.50193 0)
(13.4285 -6.38995 -1.31552e-18)
(13.8648 -6.25676 6.834e-19)
(14.2925 -6.10182 3.54916e-20)
(14.7095 -5.92599 -3.18662e-20)
(15.1156 -5.7283 7.53154e-19)
(15.5096 -5.51006 3.1835e-20)
(15.89 -5.2721 -2.40553e-18)
(16.2563 -5.01402 8.15124e-19)
(16.6068 -4.73766 -1.69323e-18)
(16.9412 -4.44243 0)
(17.2584 -4.13019 0)
(17.5581 -3.80088 1.78802e-18)
(17.839 -3.45673 -4.27092e-19)
(18.1008 -3.09761 -9.26406e-19)
(18.3432 -2.72485 -4.4519e-19)
(18.5653 -2.34055 1.42166e-18)
(18.7657 -1.94572 7.16971e-19)
(18.9437 -1.54063 2.47786e-19)
(19.099 -1.12647 -4.6758e-21)
(19.2321 -0.703355 -2.47884e-19)
(19.343 -0.273756 0)
(19.4307 0.1605 0)
(0.432489 -0.46592 4.95362e-22)
(0.540345 -0.607936 0)
(0.662562 -0.764936 0)
(0.804958 -0.937507 -1.83032e-21)
(0.958805 -1.12392 0)
(1.13021 -1.32216 -1.01116e-21)
(1.31652 -1.53185 3.08359e-21)
(1.51638 -1.75098 -6.61095e-21)
(1.73675 -1.97941 0)
(1.96786 -2.21592 -2.35567e-20)
(2.21872 -2.45883 3.95384e-21)
(2.47922 -2.7077 0)
(2.75731 -2.95937 0)
(3.04189 -3.21267 -6.12366e-20)
(3.3462 -3.46266 6.74175e-20)
(3.66188 -3.71438 -8.60096e-20)
(3.98711 -3.96251 -9.98137e-20)
(4.32783 -4.20545 0)
(4.67692 -4.44433 1.30402e-19)
(5.0371 -4.67348 -2.76026e-19)
(5.41279 -4.89332 -3.10642e-19)
(5.79357 -5.10558 -3.66043e-19)
(6.1892 -5.30458 -3.35219e-20)
(6.59106 -5.49509 -4.67822e-19)
(7.00044 -5.67129 4.48855e-19)
(7.41923 -5.83205 5.01699e-19)
(7.84065 -5.97849 -5.72357e-19)
(8.2717 -6.10542 3.18107e-20)
(8.70797 -6.21693 4.27845e-20)
(9.14584 -6.31095 -6.6255e-19)
(9.59036 -6.38424 0)
(10.0352 -6.44103 -8.08428e-19)
(10.4801 -6.47634 1.604e-18)
(10.9274 -6.48903 -4.52064e-20)
(11.3742 -6.4832 9.42702e-19)
(11.8154 -6.45814 -9.38245e-19)
(12.2572 -6.40724 1.03491e-18)
(12.6934 -6.33748 1.08e-18)
(13.1233 -6.24598 -2.13528e-18)
(13.5487 -6.13179 1.16867e-18)
(13.9657 -5.99916 1.14945e-18)
(14.3752 -5.84495 1.81607e-18)
(14.7724 -5.67215 -6.46562e-19)
(15.1598 -5.47641 0)
(15.5357 -5.26246 3.46852e-20)
(15.897 -5.031 7.02445e-19)
(16.2462 -4.77855 -6.82794e-19)
(16.5783 -4.51083 7.35281e-19)
(16.8956 -4.22322 0)
(17.1956 -3.92087 0)
(17.4796 -3.60064 -4.0285e-20)
(17.7451 -3.26794 7.89618e-19)
(17.9919 -2.91899 0)
(18.221 -2.55712 3.92131e-19)
(18.4309 -2.18626 3.95462e-19)
(18.6196 -1.8057 -8.05457e-19)
(18.7866 -1.41474 -3.95015e-19)
(18.9305 -1.0159 -2.09838e-19)
(19.0534 -0.606262 0)
(19.1564 -0.192009 0)
(19.2369 0.225628 2.51119e-20)
(0.571685 -0.468167 -1.36631e-21)
(0.703752 -0.613803 3.00977e-21)
(0.842039 -0.773246 -2.01832e-24)
(1.0108 -0.950897 -3.75699e-21)
(1.17849 -1.14024 6.0295e-21)
(1.36861 -1.34271 -3.07686e-21)
(1.57397 -1.5511 0)
(1.78624 -1.76702 1.43423e-21)
(2.03081 -1.99327 -9.5524e-21)
(2.27069 -2.22414 0)
(2.5444 -2.46216 4.95279e-20)
(2.80991 -2.70602 -3.21429e-20)
(3.10541 -2.95171 3.29496e-20)
(3.38982 -3.19813 4.3295e-20)
(3.70725 -3.43185 -5.82787e-20)
(4.03044 -3.6753 -7.22999e-20)
(4.35555 -3.91276 2.40293e-19)
(4.70572 -4.14051 -2.51349e-19)
(5.04955 -4.37118 0)
(5.40451 -4.58889 -9.20158e-21)
(5.78821 -4.79381 7.6275e-19)
(6.15657 -4.99626 -2.9751e-20)
(6.55769 -5.17579 -3.65868e-19)
(6.94794 -5.35768 7.00601e-19)
(7.34819 -5.52391 0)
(7.76322 -5.67205 -4.33384e-19)
(8.16683 -5.80886 -4.44436e-19)
(8.58953 -5.92131 9.87593e-19)
(9.01562 -6.02273 -6.67461e-21)
(9.43484 -6.10841 5.87915e-19)
(9.8691 -6.16848 -1.20324e-18)
(10.2949 -6.2202 1.91457e-18)
(10.7209 -6.2492 -1.37359e-18)
(11.1532 -6.25326 -1.44222e-18)
(11.5864 -6.24104 0)
(12.0033 -6.2133 8.22494e-19)
(12.4338 -6.15389 0)
(12.8477 -6.08434 -3.03499e-21)
(13.2556 -5.99248 9.76324e-19)
(13.6651 -5.87293 -1.81673e-18)
(14.0603 -5.74006 -6.73731e-21)
(14.4527 -5.58683 -2.01063e-18)
(14.8242 -5.41988 0)
(15.1919 -5.22728 -5.75697e-19)
(15.5504 -5.01911 2.20979e-18)
(15.8882 -4.79533 -5.61828e-19)
(16.2238 -4.54799 5.9528e-19)
(16.5336 -4.29 0)
(16.8358 -4.00902 6.12541e-19)
(17.1159 -3.71558 -1.84817e-18)
(17.3853 -3.40082 -2.57765e-20)
(17.6339 -3.07975 0)
(17.8626 -2.74372 6.3499e-19)
(18.0788 -2.39317 -1.90895e-20)
(18.2778 -2.03354 0)
(18.4519 -1.66585 3.57763e-19)
(18.6097 -1.2967 -3.24835e-19)
(18.7395 -0.91523 3.40517e-19)
(18.8505 -0.520179 3.37691e-19)
(18.9486 -0.117735 -1.69575e-19)
(19.0185 0.283958 -6.41415e-20)
(20.584 0.858382 1.51435e-19)
(20.643 1.38663 -5.1345e-20)
(20.674 1.91804 0)
(20.6769 2.45025 0)
(20.652 2.98154 8.15823e-19)
(20.5997 3.51078 1.1738e-18)
(20.5198 4.03611 -1.20861e-18)
(20.4128 4.55616 -3.98268e-19)
(20.2786 5.0695 3.98224e-19)
(20.1179 5.57506 7.79277e-19)
(19.9309 6.07219 -7.79765e-19)
(19.7179 6.55907 -7.58072e-19)
(19.4802 7.03464 3.7704e-18)
(19.2193 7.49764 7.33267e-19)
(18.9354 7.94668 -6.4706e-18)
(18.6291 8.38025 0)
(18.3014 8.79746 0)
(17.9534 9.19734 6.72966e-19)
(17.586 9.57936 1.98773e-18)
(17.1999 9.94216 -5.10932e-18)
(16.7967 10.2851 -7.4909e-20)
(16.3771 10.6077 1.17095e-18)
(15.9422 10.9088 1.20478e-18)
(15.4932 11.188 -4.49499e-18)
(15.0315 11.445 0)
(14.5581 11.6801 2.11115e-18)
(14.0732 11.8924 -1.95602e-18)
(13.5788 12.0803 0)
(13.0766 12.2435 0)
(12.5681 12.3816 -8.9618e-19)
(12.0546 12.4948 -1.63828e-18)
(11.5374 12.5826 2.33488e-18)
(11.0179 12.6453 0)
(10.4973 12.6829 0)
(9.97698 12.6953 1.17774e-18)
(9.4581 12.6827 -1.11956e-18)
(8.94202 12.6453 0)
(8.43003 12.5836 1.76374e-18)
(7.92313 12.4978 3.67351e-19)
(7.42261 12.3881 -1.01593e-18)
(6.92966 12.2552 3.5568e-20)
(6.44571 12.0996 4.27089e-19)
(5.97152 11.9221 -4.21984e-19)
(5.5083 11.723 7.37735e-20)
(5.05723 11.5031 0)
(4.61901 11.2634 0)
(4.19471 11.0043 -1.76858e-19)
(3.78523 10.7267 -3.77855e-20)
(3.39159 10.4317 2.23089e-19)
(3.01448 10.1204 9.26292e-20)
(2.65451 9.79361 1.44469e-19)
(2.31252 9.45216 -1.46356e-19)
(1.98926 9.09736 -9.79374e-20)
(1.68502 8.73039 9.9276e-20)
(1.40053 8.35218 -5.9259e-19)
(1.13617 7.96418 6.46417e-19)
(0.892389 7.5675 -1.3256e-21)
(0.669474 7.16366 0)
(0.467599 6.75371 1.64549e-19)
(0.287115 6.33874 2.23463e-20)
(0.1281 5.91999 2.36484e-20)
(20.3576 0.093372 -8.18189e-20)
(20.4276 0.610571 0)
(20.4698 1.12948 0)
(20.4848 1.6497 9.3929e-19)
(20.4722 2.16983 -6.28017e-19)
(20.4326 2.6886 -2.21312e-18)
(20.3659 3.20418 0)
(20.2723 3.7158 0)
(20.152 4.22162 -1.20473e-18)
(20.0051 4.72033 0)
(19.8319 5.2111 -1.765e-18)
(19.6332 5.69162 1.17095e-18)
(19.4104 6.16014 -5.81281e-19)
(19.1645 6.61654 0)
(18.8956 7.06027 2.2988e-18)
(18.6041 7.48999 1.07655e-18)
(18.2909 7.90453 -1.07871e-18)
(17.9571 8.30271 1.02596e-18)
(17.6034 8.68388 -3.03178e-18)
(17.2309 9.04686 2.04158e-18)
(16.8408 9.39051 -1.98264e-18)
(16.434 9.7144 -1.01084e-18)
(16.0118 10.0173 -9.14126e-19)
(15.5752 10.2985 2.65213e-18)
(15.1254 10.5573 8.4995e-19)
(14.6633 10.7935 7.77564e-19)
(14.19 11.0073 -7.02482e-19)
(13.7074 11.1978 0)
(13.2165 11.3642 0)
(12.7189 11.506 0)
(12.2156 11.6231 0)
(11.7081 11.7154 0)
(11.1978 11.7826 0)
(10.6858 11.825 0)
(10.1737 11.8422 -4.89684e-19)
(9.66247 11.8346 4.34533e-19)
(9.15364 11.8021 3.47794e-19)
(8.64835 11.7451 -1.68806e-18)
(8.14773 11.6639 -2.63218e-19)
(7.65312 11.5589 7.85261e-19)
(7.16573 11.4303 4.3182e-19)
(6.68692 11.2788 -3.43905e-19)
(6.21757 11.105 1.27343e-19)
(5.75902 10.9093 9.29902e-20)
(5.31236 10.6924 -6.3814e-21)
(4.8784 10.455 6.45305e-21)
(4.45821 10.1979 9.54372e-20)
(4.05277 9.92185 0)
(3.66311 9.62777 8.12365e-20)
(3.29002 9.31667 -1.84146e-19)
(2.93417 8.98941 1.03201e-19)
(2.59646 8.64689 0)
(2.27773 8.29023 -3.06893e-19)
(1.97824 7.92061 0)
(1.69891 7.53897 0)
(1.43997 7.14672 -9.52686e-19)
(1.20207 6.74505 4.59467e-19)
(0.985411 6.3354 1.26972e-19)
(0.790563 5.91876 -1.32831e-19)
(0.617832 5.4964 0)
(0.467454 5.06956 -3.74599e-20)
(20.1469 0.477665 6.24175e-20)
(20.2051 0.978659 0)
(20.2365 1.48012 -2.48993e-19)
(20.2403 1.98187 -1.64214e-20)
(20.2175 2.4825 0)
(20.1687 2.98148 1.99743e-18)
(20.0938 3.47813 9.75078e-19)
(19.9923 3.97172 0)
(19.8648 4.46012 3.22078e-20)
(19.7114 4.941 9.43601e-19)
(19.5333 5.41287 1.4333e-18)
(19.3315 5.87432 -4.71164e-19)
(19.1064 6.32367 0)
(18.8583 6.76023 0)
(18.5879 7.1835 1.73482e-18)
(18.2959 7.59258 -8.55874e-19)
(17.9834 7.98645 -8.01899e-19)
(17.6511 8.36415 0)
(17.3001 8.72491 2.42181e-18)
(16.9313 9.06774 -2.32365e-18)
(16.5459 9.39175 -1.48388e-18)
(16.1448 9.69623 -1.43572e-18)
(15.7292 9.98026 0)
(15.3002 10.2432 -2.05088e-18)
(14.8589 10.4843 -6.69142e-19)
(14.4064 10.703 6.11131e-19)
(13.9441 10.8988 6.01388e-19)
(13.4732 11.0716 0)
(12.9949 11.2211 0)
(12.5103 11.3467 0)
(12.0208 11.4485 0)
(11.5275 11.5263 0)
(11.0319 11.5799 0)
(10.5351 11.6095 0)
(10.0386 11.615 -1.04847e-18)
(9.5434 11.5964 3.35639e-19)
(9.05087 11.5539 -2.67322e-19)
(8.56211 11.4878 1.27302e-18)
(8.07828 11.3983 0)
(7.60057 11.286 3.56885e-19)
(7.13019 11.1511 2.90553e-19)
(6.66835 10.9942 1.24197e-19)
(6.21606 10.8159 -7.36492e-20)
(5.77449 10.6166 -9.16187e-20)
(5.34467 10.3971 2.54645e-20)
(4.92749 10.1578 1.69864e-22)
(4.52381 9.89967 1.05312e-19)
(4.1346 9.62338 0)
(3.76078 9.32992 0)
(3.40319 9.02012 8.11804e-20)
(3.06255 8.6949 9.78836e-20)
(2.73955 8.35518 2.1085e-19)
(2.43495 8.00192 2.41366e-19)
(2.14916 7.63624 0)
(1.8829 7.25903 3.00011e-19)
(1.63641 6.87174 3.30923e-19)
(1.4102 6.47543 0)
(1.20464 6.07158 -1.85837e-21)
(1.02027 5.6611 0)
(0.857319 5.24528 0)
(0.716054 4.82523 2.87011e-20)
(19.9929 0.428038 -1.0339e-19)
(20.0489 0.913007 2.0221e-19)
(20.0788 1.40081 -3.98663e-19)
(20.0826 1.8895 -2.14408e-19)
(20.0601 2.37755 0)
(20.0109 2.86387 -8.3024e-19)
(19.935 3.34802 -8.24104e-19)
(19.8339 3.82802 0)
(19.7084 4.3037 3.42157e-20)
(19.5588 4.77282 -7.96155e-19)
(19.3852 5.23339 1.50299e-18)
(19.1879 5.68446 1.47938e-18)
(18.9674 6.12489 0)
(18.7244 6.55344 -7.20722e-19)
(18.4596 6.96892 -1.43136e-18)
(18.174 7.37013 -7.05764e-19)
(17.8681 7.7562 2.06683e-18)
(17.5431 8.12626 -1.32772e-18)
(17.1997 8.47956 1.29167e-18)
(16.8391 8.81525 1.87484e-18)
(16.4622 9.13252 2.43387e-18)
(16.0703 9.43059 1.20299e-18)
(15.6642 9.70862 5.53695e-19)
(15.2451 9.96592 1.67326e-18)
(14.8139 10.202 5.12118e-19)
(14.3718 10.4163 5.12546e-19)
(13.9201 10.6084 4.64253e-19)
(13.4599 10.7779 -1.35177e-18)
(12.9924 10.9246 8.37952e-19)
(12.519 11.048 7.81705e-19)
(12.0407 11.148 -1.51664e-18)
(11.5587 11.2246 7.34865e-19)
(11.0745 11.2777 -6.39205e-19)
(10.5892 11.3072 3e-19)
(10.1042 11.3132 2.89665e-19)
(9.62055 11.2957 2.35049e-19)
(9.13954 11.2548 -2.36566e-19)
(8.66221 11.1908 -2.2277e-19)
(8.18968 11.104 -5.08569e-19)
(7.72317 10.9949 -2.94526e-19)
(7.26383 10.8638 -4.59021e-19)
(6.81278 10.7113 -4.24956e-19)
(6.37118 10.5379 1.21741e-19)
(5.94008 10.3441 7.15835e-21)
(5.52048 10.1304 -3.09332e-22)
(5.1133 9.89757 3.21654e-20)
(4.71924 9.64622 -2.72626e-19)
(4.33932 9.37719 5.87159e-20)
(3.97435 9.09145 0)
(3.62528 8.78974 0)
(3.29269 8.47292 1.49673e-19)
(2.9774 8.14205 7.01331e-22)
(2.68002 7.79795 -1.95976e-19)
(2.40102 7.44166 0)
(2.141 7.07399 -2.4327e-19)
(1.90014 6.69641 0)
(1.67901 6.31004 0)
(1.47783 5.91618 -2.33686e-19)
(1.29742 5.51594 -8.31663e-20)
(1.13774 5.11048 8.64143e-20)
(0.999362 4.70098 -4.58442e-20)
(19.8371 0.498124 1.87502e-21)
(19.8877 0.970043 -1.7494e-19)
(19.9129 1.44446 5.12636e-19)
(19.9127 1.91983 3.40069e-19)
(19.8871 2.39499 -5.00869e-19)
(19.8361 2.8686 3.35466e-19)
(19.7605 3.3386 -2.4443e-21)
(19.6603 3.80298 -6.492e-19)
(19.5354 4.26173 9.8861e-19)
(19.3871 4.714 -1.28759e-18)
(19.2158 5.15864 1.21154e-18)
(19.0216 5.59419 -1.2879e-18)
(18.8052 6.01955 -6.18659e-19)
(18.5671 6.43369 0)
(18.308 6.83525 6.36677e-19)
(18.0288 7.22305 5.43316e-19)
(17.73 7.59634 0)
(17.4126 7.95416 1.06975e-18)
(17.0774 8.29582 0)
(16.7255 8.62056 -1.05775e-18)
(16.358 8.92752 9.33871e-19)
(15.9759 9.2159 -4.05314e-20)
(15.5803 9.48483 -4.53714e-20)
(15.1722 9.73357 1.67457e-21)
(14.7524 9.96172 -1.75632e-18)
(14.322 10.1688 -7.98463e-19)
(13.8823 10.3544 1.56004e-18)
(13.4344 10.5182 1.44204e-18)
(12.9795 10.6598 -7.18936e-19)
(12.5189 10.7789 0)
(12.0535 10.8753 0)
(11.5845 10.949 0)
(11.1134 11 5.4723e-19)
(10.6412 11.0283 -1.91553e-18)
(10.1694 11.0337 8.88632e-19)
(9.69906 11.0163 -4.23529e-19)
(9.23121 10.9761 -6.76893e-19)
(8.76693 10.9135 6.35206e-19)
(8.30722 10.8288 2.12902e-20)
(7.85336 10.7225 -1.994e-19)
(7.40644 10.595 2.18898e-19)
(6.96754 10.4467 1.41628e-19)
(6.53788 10.2783 0)
(6.11847 10.0901 -3.81517e-20)
(5.71027 9.88282 0)
(5.31426 9.6567 7.95576e-20)
(4.93088 9.41272 -4.09507e-20)
(4.56116 9.15159 0)
(4.20576 8.8743 9.49302e-20)
(3.86598 8.58154 1.95026e-20)
(3.54207 8.27403 -2.48595e-19)
(3.23489 7.9529 1.45905e-19)
(2.94521 7.61892 9.59682e-20)
(2.67322 7.27306 -1.75866e-19)
(2.4198 6.91609 8.07608e-21)
(2.18452 6.5493 -1.06633e-19)
(1.96843 6.17394 -5.74488e-20)
(1.77142 5.79129 -1.27713e-19)
(1.59466 5.40246 3.38549e-19)
(1.43774 5.00855 -1.43964e-19)
(1.30177 4.6107 1.90593e-20)
(19.674 0.547331 3.68092e-20)
(19.7199 1.0043 0)
(19.7412 1.46334 -5.73674e-19)
(19.738 1.92329 0)
(19.7103 2.38281 2.8537e-19)
(19.6583 2.84054 8.34702e-19)
(19.5823 3.29506 5.47296e-19)
(19.4823 3.74574 1.10957e-18)
(19.3588 4.19075 9.67125e-21)
(19.2125 4.62925 -6.80461e-21)
(19.044 5.05979 -5.98986e-20)
(18.8535 5.48138 -5.2718e-19)
(18.6414 5.89298 5.08881e-19)
(18.4085 6.29364 -1.49165e-18)
(18.1555 6.68216 1.01181e-18)
(17.8832 7.05729 -4.84943e-20)
(17.5919 7.41824 -9.17078e-19)
(17.2824 7.76414 -9.39251e-19)
(16.9557 8.09446 0)
(16.6128 8.40862 8.40521e-19)
(16.2551 8.70562 -3.76656e-20)
(15.8834 8.9847 -1.65265e-18)
(15.4988 9.24494 -5.73586e-21)
(15.1022 9.48542 -6.85476e-19)
(14.6942 9.70597 2.0856e-18)
(14.276 9.90612 -3.4616e-20)
(13.8488 10.0855 -6.65564e-19)
(13.4136 10.244 -7.00971e-20)
(12.9719 10.381 0)
(12.5247 10.4963 0)
(12.0729 10.5894 0)
(11.6175 10.6608 0)
(11.16 10.7102 0)
(10.7014 10.7379 5.35114e-20)
(10.2436 10.7433 -3.44252e-19)
(9.78702 10.7266 3.90139e-20)
(9.33295 10.6878 5.27568e-20)
(8.88229 10.627 2.20545e-19)
(8.43583 10.545 4.1864e-19)
(7.99501 10.4421 -5.20561e-19)
(7.56094 10.3186 3.05448e-19)
(7.13448 10.1752 -9.39503e-20)
(6.71709 10.0124 0)
(6.30972 9.83058 3.32509e-20)
(5.91329 9.63044 0)
(5.52896 9.41182 -4.15292e-20)
(5.15645 9.17598 7.83404e-20)
(4.79739 8.92354 -5.40608e-20)
(4.45179 8.65569 -6.8155e-20)
(4.12161 8.37278 1.01974e-19)
(3.80665 8.07547 1.89051e-20)
(3.50778 7.76507 1.52657e-20)
(3.22601 7.44209 -2.80375e-19)
(2.9612 7.10762 3.19488e-19)
(2.71457 6.76204 1.74872e-19)
(2.48493 6.40698 9.14157e-20)
(2.27407 6.04343 3.04173e-19)
(2.0809 5.67292 0)
(1.90772 5.29635 -2.32625e-19)
(1.75337 4.91495 6.17872e-20)
(1.61969 4.52957 0)
(19.4951 0.598972 0)
(19.5358 1.04037 0)
(19.553 1.48377 2.48905e-19)
(19.5465 1.92777 -4.7671e-19)
(19.5166 2.37139 -2.45951e-19)
(19.4635 2.81334 -1.19397e-18)
(19.3873 3.25194 4.60764e-19)
(19.2878 3.68622 -9.52532e-19)
(19.1657 4.11576 1.54309e-20)
(19.0218 4.5393 1.34949e-18)
(18.8567 4.95487 -1.80095e-18)
(18.6703 5.36161 0)
(18.463 5.75845 0)
(18.2356 6.14513 1.70417e-18)
(17.9892 6.5202 8.234e-19)
(17.7244 6.88172 -1.67071e-18)
(17.4411 7.22956 2.39157e-18)
(17.1401 7.56282 7.60475e-19)
(16.8223 7.88114 -1.49041e-18)
(16.4888 8.18426 -7.47763e-19)
(16.1413 8.47072 6.89692e-19)
(15.7805 8.74013 -7.05176e-20)
(15.4075 8.99139 0)
(15.0233 9.22297 1.29063e-18)
(14.6277 9.43546 -1.82025e-18)
(14.2224 9.62833 5.86263e-19)
(13.8083 9.8011 1.0547e-18)
(13.3864 9.9541 -2.55984e-18)
(12.9588 10.0862 5.00796e-19)
(12.5257 10.1977 0)
(12.0886 10.2872 0)
(11.6473 10.3563 0)
(11.2044 10.4039 3.46737e-19)
(10.7601 10.4315 9.80848e-19)
(10.3173 10.4372 -5.78084e-19)
(9.87548 10.4214 2.51932e-19)
(9.43611 10.3843 2.41188e-19)
(9.00022 10.3254 -4.28891e-19)
(8.56774 10.2461 0)
(8.14061 10.1469 -2.39591e-19)
(7.72023 10.0276 1.24624e-19)
(7.30662 9.88924 1.39711e-20)
(6.90189 9.73237 9.75339e-21)
(6.5072 9.5574 2.86518e-20)
(6.12288 9.36519 -1.05564e-20)
(5.75137 9.15439 1.53488e-19)
(5.3901 8.92743 -6.54764e-20)
(5.04253 8.68411 2.22175e-19)
(4.70677 8.4266 0)
(4.38721 8.15447 0)
(4.0817 7.86802 -3.98714e-19)
(3.79129 7.56924 1.08366e-19)
(3.51839 7.25814 2.48672e-19)
(3.26085 6.93596 1.46818e-19)
(3.02214 6.6024 -4.62783e-19)
(2.79802 6.2597 -2.58929e-19)
(2.59297 5.90851 -9.52827e-20)
(2.40325 5.55104 -2.06074e-21)
(2.23439 5.18763 1.0206e-19)
(2.08216 4.81951 0)
(1.95128 4.44736 0)
(19.2949 0.647767 -2.51361e-20)
(19.3299 1.0725 0)
(19.3425 1.49939 0)
(19.3324 1.92677 2.11334e-19)
(19.3 2.35352 0)
(19.2459 2.77869 8.13783e-19)
(19.1703 3.20057 4.01169e-19)
(19.0717 3.61757 -7.87751e-19)
(18.9504 4.03153 0)
(18.8093 4.44033 -7.99317e-19)
(18.6489 4.83935 4.38909e-20)
(18.4671 5.23047 0)
(18.2656 5.61139 0)
(18.0439 5.98324 -7.44561e-19)
(17.8043 6.34501 6.87359e-19)
(17.5484 6.69174 -7.1175e-19)
(17.2738 7.02582 -6.93767e-19)
(16.9818 7.34612 0)
(16.6736 7.65134 6.55287e-19)
(16.3498 7.94293 -1.19472e-18)
(16.0134 8.21797 -1.154e-18)
(15.6642 8.47733 -1.18463e-18)
(15.3032 8.7199 -9.37919e-21)
(14.9331 8.94138 -9.77551e-19)
(14.5503 9.14533 1.03658e-18)
(14.1579 9.33086 9.34142e-19)
(13.7581 9.49605 -9.4776e-19)
(13.3497 9.64359 5.9209e-20)
(12.9371 9.77004 9.19468e-22)
(12.5181 9.87854 -7.91739e-19)
(12.0974 9.9631 0)
(11.6701 10.0308 -6.30919e-19)
(11.2433 10.0758 1.21524e-18)
(10.8131 10.1045 -4.57499e-20)
(10.3875 10.1109 5.19731e-19)
(9.96162 10.0961 -4.23078e-19)
(9.53804 10.0611 3.59338e-19)
(9.11896 10.0037 2.57441e-19)
(8.70117 9.92749 -5.66233e-19)
(8.28829 9.83216 2.37761e-19)
(7.88323 9.7172 1.51891e-19)
(7.4823 9.584 1.60423e-19)
(7.09028 9.43307 -3.43138e-20)
(6.70924 9.26515 0)