/*--------------------------------*- C++ -*----------------------------------*\
| =========                 |                                                 |
| \\      /  F ield         | OpenFOAM: The Open Source CFD Toolbox           |
|  \\    /   O peration     | Version:  2.3.1                                 |
|   \\  /    A nd           | Web:      www.OpenFOAM.org                      |
|    \\/     M anipulation  |                                                 |
\*---------------------------------------------------------------------------*/
FoamFile
{
    version     2.0;
    format      ascii;
    class       volScalarField;
    location    "0.3";
    object      p;
}
// * * * * * * * * * * * * * * * * * * * * * * * * * * * * * * * * * * * * * //

dimensions      [0 2 -2 0 0 0 0];

internalField   nonuniform List<scalar> 
768
(
-0.0608028
-0.0616905
-0.0632685
-0.064825
-0.0658849
-0.0664936
-0.0669044
-0.0672567
-0.0676427
-0.0682168
-0.0691715
-0.0704403
-0.0586356
-0.0612209
-0.0638139
-0.0654447
-0.0660156
-0.0657523
-0.0650684
-0.0641296
-0.0626789
-0.0610781
-0.0601268
-0.0602156
-0.0544831
-0.0575779
-0.0600928
-0.0614269
-0.0615709
-0.0607001
-0.0592278
-0.0576611
-0.0564027
-0.0557628
-0.0558348
-0.0564481
-0.047603
-0.0498861
-0.0513856
-0.052157
-0.0519306
-0.0509915
-0.0498601
-0.04903
-0.0487614
-0.0490605
-0.0498014
-0.0508229
-0.0396461
-0.04055
-0.041359
-0.0415539
-0.041268
-0.0408043
-0.0405103
-0.040627
-0.0412373
-0.0423205
-0.0438139
-0.0456073
-0.0324551
-0.0324346
-0.0324064
-0.0323199
-0.0322575
-0.0323306
-0.0326849
-0.033426
-0.0346106
-0.0362705
-0.0384108
-0.0409585
-0.0261894
-0.0254139
-0.0249394
-0.0247998
-0.0249767
-0.0254136
-0.0261331
-0.0272013
-0.0287155
-0.0307914
-0.0335302
-0.0369327
-0.0203699
-0.01917
-0.0185019
-0.0184119
-0.0188191
-0.0195317
-0.02048
-0.0217294
-0.0234466
-0.0258573
-0.0292
-0.0335964
-0.0146993
-0.0134218
-0.0126022
-0.0126712
-0.0133963
-0.0144219
-0.0155843
-0.016971
-0.018833
-0.021521
-0.0254424
-0.0308757
-0.00904312
-0.00805001
-0.00702014
-0.00733783
-0.008565
-0.0100062
-0.0114221
-0.0129625
-0.0149537
-0.0178467
-0.022218
-0.0285498
-0.00336998
-0.00238322
-0.00162744
-0.00237324
-0.00428848
-0.00627291
-0.00799733
-0.00972711
-0.011845
-0.0148593
-0.0194775
-0.026352
0.000916332
0.00367351
0.00344698
0.0018112
-0.000815963
-0.0032946
-0.00529931
-0.00723019
-0.00948005
-0.0125328
-0.0171415
-0.0240585
-0.0717138
-0.0726951
-0.0732309
-0.0729999
-0.0712048
-0.0681541
-0.0647008
-0.0619872
-0.061004
-0.0617062
-0.0628829
-0.063399
-0.0611101
-0.0621145
-0.0624291
-0.0618474
-0.0611
-0.0600456
-0.0588084
-0.0579317
-0.0580976
-0.0595205
-0.0612834
-0.0620508
-0.057309
-0.0581201
-0.0586193
-0.0585864
-0.0579833
-0.0571452
-0.0563421
-0.0558788
-0.0560732
-0.0572658
-0.0593947
-0.0610099
-0.0519452
-0.0529616
-0.0536943
-0.0540676
-0.0540468
-0.0537121
-0.0533322
-0.053196
-0.0534199
-0.0541611
-0.0562458
-0.0591999
-0.0475022
-0.04922
-0.0504949
-0.0511886
-0.0513107
-0.0510093
-0.0505782
-0.050358
-0.0504488
-0.0507714
-0.0524421
-0.0566499
-0.0436932
-0.0462492
-0.0482261
-0.0493561
-0.0495784
-0.0490517
-0.0481664
-0.0473994
-0.0470319
-0.0470204
-0.0482404
-0.0529614
-0.0407652
-0.0444982
-0.0474499
-0.0490988
-0.0492781
-0.0481628
-0.046326
-0.0444645
-0.0431341
-0.0425886
-0.043271
-0.0475336
-0.0388021
-0.0440556
-0.0482537
-0.0504902
-0.0504753
-0.0483455
-0.0449891
-0.041462
-0.0386324
-0.0371174
-0.0369911
-0.0402542
-0.0376118
-0.0446145
-0.0502345
-0.0530866
-0.0527323
-0.0492126
-0.043834
-0.0381283
-0.0332945
-0.0302105
-0.0289739
-0.0315118
-0.0367004
-0.0453501
-0.0523316
-0.055844
-0.0549896
-0.0499601
-0.0424324
-0.0343627
-0.0271875
-0.0218031
-0.0187981
-0.0200813
-0.0354343
-0.0452845
-0.0533273
-0.0572892
-0.0559357
-0.0496404
-0.0403661
-0.0303698
-0.0211043
-0.0131222
-0.00688533
-0.00352099
-0.0333357
-0.0435652
-0.0520336
-0.0561313
-0.0545108
-0.0475276
-0.0373728
-0.0264535
-0.0161857
-0.00671277
0.00272452
0.0141457
-0.0607887
-0.0616769
-0.0632558
-0.064813
-0.0658729
-0.0664809
-0.0668906
-0.0672418
-0.067627
-0.0682001
-0.0691529
-0.0704187
-0.0586224
-0.0612096
-0.0638044
-0.0654365
-0.0660078
-0.0657439
-0.0650585
-0.0641185
-0.0626668
-0.0610642
-0.0601094
-0.0601932
-0.0544686
-0.0575653
-0.0600821
-0.0614175
-0.0615622
-0.060691
-0.0592173
-0.0576482
-0.0563868
-0.0557433
-0.0558113
-0.0564203
-0.0475854
-0.0498694
-0.0513698
-0.0521423
-0.0519165
-0.0509771
-0.0498443
-0.0490121
-0.0487409
-0.0490371
-0.0497749
-0.0507928
-0.0396264
-0.0405304
-0.0413401
-0.0415357
-0.0412503
-0.0407862
-0.0404912
-0.0406064
-0.0412147
-0.0422954
-0.0437859
-0.0455757
-0.0324353
-0.0324148
-0.032387
-0.0323011
-0.032239
-0.0323118
-0.0326651
-0.0334047
-0.0345874
-0.0362448
-0.038382
-0.0409257
-0.0261705
-0.0253949
-0.0249209
-0.0247818
-0.0249588
-0.0253952
-0.0261136
-0.0271802
-0.0286923
-0.0307656
-0.033501
-0.0368989
-0.020352
-0.0191522
-0.0184845
-0.0183949
-0.0188021
-0.019514
-0.0204611
-0.0217087
-0.0234238
-0.0258316
-0.0291704
-0.0335614
-0.0146823
-0.0134051
-0.0125856
-0.012655
-0.01338
-0.0144049
-0.0155659
-0.0169508
-0.0188104
-0.0214953
-0.0254124
-0.0308397
-0.00902583
-0.00803346
-0.00700341
-0.00732163
-0.00854897
-0.00998934
-0.0114037
-0.0129423
-0.0149311
-0.0178209
-0.0221878
-0.0285134
-0.00335195
-0.00236427
-0.00160901
-0.00235624
-0.00427181
-0.00625547
-0.0079784
-0.00970629
-0.0118219
-0.0148331
-0.0194471
-0.0263159
0.000937868
0.00369488
0.0034666
0.00182863
-0.000798684
-0.00327629
-0.00527932
-0.00720822
-0.00945585
-0.0125058
-0.0171108
-0.024023
-0.0716879
-0.0726638
-0.0731938
-0.0729573
-0.0711579
-0.0681039
-0.0646489
-0.0619352
-0.0609533
-0.0616572
-0.062835
-0.0633513
-0.0610821
-0.0620812
-0.0623913
-0.0618053
-0.0610542
-0.0599971
-0.0587583
-0.0578813
-0.0580483
-0.059473
-0.0612371
-0.0620044
-0.0572769
-0.0580838
-0.0585794
-0.0585436
-0.0579379
-0.0570978
-0.0562935
-0.0558297
-0.056025
-0.0572197
-0.0593506
-0.0609661
-0.0519113
-0.0529241
-0.0536536
-0.0540243
-0.0540015
-0.0536655
-0.0532849
-0.0531487
-0.0533734
-0.0541168
-0.0562044
-0.059159
-0.0474666
-0.0491807
-0.0504525
-0.0511441
-0.0512648
-0.0509628
-0.050532
-0.0503126
-0.0504047
-0.0507296
-0.0524039
-0.0566131
-0.043656
-0.0462078
-0.0481813
-0.0493093
-0.0495309
-0.0490048
-0.0481209
-0.0473561
-0.0469908
-0.0469821
-0.0482061
-0.0529295
-0.0407261
-0.0444538
-0.0474015
-0.0490485
-0.049228
-0.0481146
-0.0462809
-0.0444228
-0.0430962
-0.0425543
-0.0432416
-0.0475072
-0.0387607
-0.0440076
-0.048201
-0.0504356
-0.0504219
-0.0482956
-0.0449439
-0.0414218
-0.0385971
-0.0370868
-0.036966
-0.0402325
-0.0375684
-0.0445634
-0.0501779
-0.053028
-0.0526761
-0.0491614
-0.0437889
-0.0380893
-0.033261
-0.0301819
-0.0289507
-0.0314899
-0.0366562
-0.0452977
-0.0522737
-0.0557845
-0.0549334
-0.0499096
-0.0423884
-0.0343245
-0.0271545
-0.0217752
-0.0187734
-0.020053
-0.0353909
-0.0452335
-0.0532715
-0.057233
-0.0558825
-0.0495925
-0.0403236
-0.0303317
-0.0210701
-0.0130918
-0.00685649
-0.00348425
-0.0332943
-0.0435178
-0.0519826
-0.0560802
-0.0544626
-0.0474833
-0.0373316
-0.0264139
-0.0161474
-0.00667596
0.00276055
0.0141887
0.00676355
0.00775219
0.0080184
0.00536075
0.00177094
-0.00118286
-0.00343008
-0.00550703
-0.0078252
-0.0108171
-0.0151738
-0.0216306
0.00729491
0.00592231
0.00572786
0.00456612
0.00238175
1.84657e-05
-0.00218979
-0.00437833
-0.00676304
-0.00965845
-0.0136108
-0.0192543
0.00646918
0.00540727
0.00490347
0.0040193
0.00236874
0.000331483
-0.00168722
-0.00375618
-0.00610499
-0.00892825
-0.0125202
-0.017308
0.00534972
0.00471674
0.00401068
0.00304504
0.00181238
0.000150235
-0.00166366
-0.00360347
-0.00582563
-0.00846588
-0.0116724
-0.0156756
-0.0303165
-0.0400159
-0.0481813
-0.052133
-0.0504457
-0.0435163
-0.0335377
-0.0228031
-0.0127206
-0.00362578
0.00427859
0.0100293
-0.0267812
-0.0352683
-0.0425229
-0.0460521
-0.0444714
-0.0383764
-0.0295525
-0.0198213
-0.0105256
-0.00236375
0.00401725
0.00792561
-0.0235016
-0.0305044
-0.0364969
-0.0394216
-0.0379301
-0.033295
-0.0261674
-0.017778
-0.00950285
-0.00215828
0.00335001
0.00635254
-0.0206397
-0.026334
-0.0313513
-0.033904
-0.031694
-0.0283384
-0.0226524
-0.015547
-0.00896563
-0.00303171
0.00174846
0.00455814
0.00678396
0.00777403
0.00804029
0.00538092
0.00178992
-0.00116353
-0.00340905
-0.00548384
-0.00779965
-0.0107888
-0.0151424
-0.0215956
0.00731768
0.00594634
0.00575088
0.00458648
0.00240107
3.89609e-05
-0.00216716
-0.00435357
-0.00673598
-0.00962884
-0.0135783
-0.0192191
0.00649105
0.00542895
0.0049254
0.00404095
0.00239039
0.000354038
-0.00166303
-0.00372985
-0.00607639
-0.00889723
-0.0124868
-0.0172723
0.00536951
0.00473619
0.00403119
0.00306786
0.0018365
0.000175382
-0.00163708
-0.00357511
-0.00579529
-0.0084335
-0.011638
-0.0156393
-0.0302773
-0.0399727
-0.0481358
-0.0520877
-0.0504023
-0.0434747
-0.0334965
-0.0227609
-0.0126765
-0.00357933
0.00432989
0.0100921
-0.0267432
-0.0352279
-0.0424812
-0.0460105
-0.0444305
-0.0383349
-0.0295092
-0.0197751
-0.0104753
-0.00230838
0.00407987
0.00799734
-0.023464
-0.0304649
-0.0364568
-0.039381
-0.0378881
-0.0332505
-0.0261201
-0.017727
-0.00944704
-0.00209627
0.00342007
0.00643108
-0.0206017
-0.0262946
-0.0313111
-0.0338631
-0.0316495
-0.0282907
-0.0226011
-0.0154908
-0.00890424
-0.00296493
0.00182238
0.00463959
)
;

boundaryField
{
    rotor
    {
        type            zeroGradient;
    }
    stator
    {
        type            zeroGradient;
    }
    AMI1
    {
        type            cyclicAMI;
        value           nonuniform List<scalar> 
48
(
0.00459941
0.00426097
0.00364692
0.00269031
0.00151521
-2.71895e-05
-0.00176578
-0.0036912
-0.00591777
-0.00854549
-0.0116781
-0.0154568
-0.0199634
-0.0250158
-0.02948
-0.0317102
-0.0294166
-0.0261595
-0.0208927
-0.0144349
-0.00844448
-0.0031688
0.00107164
0.00366773
0.00461844
0.00428013
0.00366728
0.00271321
0.00153972
-1.38458e-06
-0.00173846
-0.00366215
-0.00588687
-0.00851272
-0.0116435
-0.0154205
-0.0199256
-0.0249767
-0.0294398
-0.0316691
-0.0293716
-0.026111
-0.0208403
-0.0143776
-0.00838202
-0.00310088
0.00114603
0.00374874
)
;
    }
    AMI2
    {
        type            cyclicAMI;
        value           nonuniform 0();
    }
    front
    {
        type            empty;
    }
    back
    {
        type            empty;
    }
    procBoundary3to2
    {
        type            processor;
        value           nonuniform List<scalar> 8(0.00667522 0.00721182 0.00638252 0.00526069 0.0101118 0.00801753 0.00645126 0.00465848);
    }
}


// ************************************************************************* //
