/*--------------------------------*- C++ -*----------------------------------*\
| =========                 |                                                 |
| \\      /  F ield         | OpenFOAM: The Open Source CFD Toolbox           |
|  \\    /   O peration     | Version:  2.3.1                                 |
|   \\  /    A nd           | Web:      www.OpenFOAM.org                      |
|    \\/     M anipulation  |                                                 |
\*---------------------------------------------------------------------------*/
FoamFile
{
    version     2.0;
    format      ascii;
    class       volVectorField;
    location    "0.3";
    object      U;
}
// * * * * * * * * * * * * * * * * * * * * * * * * * * * * * * * * * * * * * //

dimensions      [0 1 -1 0 0 0 0];

internalField   nonuniform List<vector> 
768
(
(-0.119133 -0.0469283 -6.01053e-20)
(-0.0963171 -0.0451936 -5.92132e-20)
(-0.0789541 -0.0330345 0)
(-0.069595 -0.0198301 0)
(-0.0688619 -0.0102805 -7.62248e-21)
(-0.0767068 -0.00392833 1.08662e-19)
(-0.0906305 0.00457297 -9.55284e-20)
(-0.107992 0.0253582 3.29346e-19)
(-0.12901 0.0622308 -3.24495e-19)
(-0.153878 0.104127 -5.07281e-19)
(-0.178886 0.143071 5.86778e-19)
(-0.200811 0.175698 -8.20644e-21)
(-0.127595 -0.0931834 3.02556e-19)
(-0.10884 -0.0885384 -2.1392e-19)
(-0.108085 -0.0571963 3.28448e-19)
(-0.118551 -0.0211611 -2.82393e-20)
(-0.136095 0.0117549 -5.17036e-20)
(-0.161126 0.0445702 1.4437e-20)
(-0.192308 0.0827234 -1.58527e-19)
(-0.22335 0.123046 1.43645e-19)
(-0.249968 0.158948 7.96695e-21)
(-0.270607 0.184902 0)
(-0.28501 0.19975 -8.57359e-20)
(-0.294009 0.206084 -4.04519e-19)
(-0.147009 -0.111239 8.75642e-20)
(-0.150195 -0.0826173 -1.80759e-19)
(-0.174465 -0.0349435 -1.00005e-19)
(-0.201286 0.013141 7.40943e-20)
(-0.228793 0.0602169 -5.53107e-20)
(-0.255758 0.105447 -8.20456e-20)
(-0.277873 0.145617 1.53438e-19)
(-0.291817 0.176477 -4.4311e-20)
(-0.296985 0.196065 1.37367e-19)
(-0.295422 0.20569 -3.36344e-19)
(-0.290422 0.209156 6.80843e-19)
(-0.284856 0.210753 -2.80009e-19)
(-0.171718 -0.102889 0)
(-0.198588 -0.0621973 0)
(-0.232489 -0.00868903 7.36357e-20)
(-0.263073 0.0444774 3.46141e-20)
(-0.287362 0.0932008 -2.35854e-20)
(-0.302224 0.13354 0)
(-0.306658 0.162381 0)
(-0.302572 0.179569 -6.18705e-20)
(-0.293924 0.188132 -6.12912e-20)
(-0.285083 0.192442 -4.59038e-20)
(-0.279073 0.196034 1.13613e-19)
(-0.276763 0.200223 5.14676e-21)
(-0.192787 -0.081004 0)
(-0.2315 -0.0351025 0)
(-0.265308 0.0168167 -9.88618e-20)
(-0.290452 0.0652132 2.14072e-20)
(-0.303559 0.105389 5.87189e-21)
(-0.304687 0.134186 3.99194e-20)
(-0.296963 0.152019 -4.55788e-20)
(-0.285405 0.162569 0)
(-0.27474 0.170631 0)
(-0.267817 0.179552 1.94966e-19)
(-0.265331 0.190076 -9.4461e-20)
(-0.266619 0.200956 9.94232e-20)
(-0.207673 -0.0584259 1.60424e-19)
(-0.248438 -0.0109927 0)
(-0.27493 0.0357369 7.64001e-20)
(-0.29007 0.0753789 0)
(-0.292317 0.104571 0)
(-0.284933 0.123481 0)
(-0.273048 0.135942 0)
(-0.261608 0.146943 0)
(-0.253612 0.159928 -7.06324e-20)
(-0.250075 0.175574 -1.78494e-19)
(-0.250951 0.192448 4.29327e-19)
(-0.255871 0.208273 -2.67433e-19)
(-0.216122 -0.0436112 -1.27832e-19)
(-0.253625 0.00539002 0)
(-0.26965 0.0467822 -3.16744e-20)
(-0.275298 0.0775545 0)
(-0.270336 0.0977894 -2.94371e-21)
(-0.259689 0.110972 0)
(-0.248154 0.122612 -2.54043e-20)
(-0.238925 0.136912 0)
(-0.233273 0.155214 1.3321e-19)
(-0.231603 0.17648 -7.47717e-20)
(-0.23425 0.198494 1.31952e-19)
(-0.241498 0.218511 -1.47513e-20)
(-0.221171 -0.0421629 9.94965e-20)
(-0.252389 0.0131148 0)
(-0.257889 0.0500065 3.30815e-20)
(-0.256422 0.0742147 0)
(-0.247305 0.0887843 2.89269e-21)
(-0.236129 0.0996364 0)
(-0.225954 0.112451 4.70587e-20)
(-0.21804 0.130063 1.86458e-20)
(-0.212751 0.152528 0)
(-0.210666 0.178153 -5.84879e-20)
(-0.212803 0.204278 -1.63185e-20)
(-0.220159 0.227295 3.61739e-21)
(-0.231121 -0.0570731 0)
(-0.247014 0.010176 -2.17614e-20)
(-0.245946 0.0467991 -5.00276e-20)
(-0.238106 0.0669461 -9.78091e-21)
(-0.226642 0.079152 2.67656e-21)
(-0.21556 0.0898707 0)
(-0.20612 0.104035 -2.66901e-21)
(-0.19801 0.123851 7.22743e-21)
(-0.191137 0.148967 3.23704e-20)
(-0.186396 0.177402 -7.50882e-20)
(-0.185417 0.205969 -1.04487e-19)
(-0.189957 0.229885 1.13161e-19)
(-0.252227 -0.0844468 -2.53294e-20)
(-0.246386 -0.00805142 2.07272e-20)
(-0.237414 0.0361073 1.81854e-20)
(-0.222839 0.0567909 1.3555e-20)
(-0.20841 0.0692382 -2.48442e-21)
(-0.196961 0.0809559 0)
(-0.187556 0.0960647 -1.20973e-20)
(-0.178287 0.116751 -2.65684e-20)
(-0.168572 0.142864 -2.96273e-20)
(-0.159431 0.172237 6.82533e-20)
(-0.152923 0.200953 0)
(-0.151662 0.223236 1.00537e-20)
(-0.283659 -0.0976252 2.38138e-20)
(-0.256925 -0.0347795 0)
(-0.234783 0.0151812 0)
(-0.21131 0.0425879 -2.76158e-21)
(-0.191518 0.058799 -1.40818e-21)
(-0.178566 0.0721477 0)
(-0.169308 0.0875242 0)
(-0.159179 0.107851 1.39585e-20)
(-0.146363 0.133391 0)
(-0.131852 0.161772 0)
(-0.118211 0.188411 0)
(-0.108999 0.206922 1.77752e-20)
(-0.251294 -0.107213 -1.11651e-20)
(-0.270132 -0.0704483 -4.12204e-21)
(-0.247329 -0.0220055 -2.28034e-21)
(-0.213414 0.0168727 -7.82518e-22)
(-0.182963 0.044295 -9.38166e-23)
(-0.162681 0.0634909 0)
(-0.150349 0.0797541 1.92829e-21)
(-0.139495 0.0980948 1.56328e-21)
(-0.125248 0.120799 0)
(-0.106547 0.146166 0)
(-0.08583 0.169066 0)
(-0.0678486 0.182521 1.54664e-19)
(-0.217649 0.20071 -6.7039e-19)
(-0.2286 0.217995 6.48348e-19)
(-0.233399 0.228181 -2.36963e-19)
(-0.2313 0.231813 7.57365e-19)
(-0.221378 0.228529 1.07953e-19)
(-0.204634 0.218466 3.05157e-19)
(-0.182693 0.200974 -4.2468e-19)
(-0.156475 0.177993 0)
(-0.126174 0.153885 2.13042e-19)
(-0.0911144 0.13447 0)
(-0.0524737 0.123937 -5.10324e-19)
(-0.0253637 0.123137 5.12642e-19)
(-0.298419 0.207741 4.07357e-19)
(-0.298556 0.207769 -1.8003e-19)
(-0.294408 0.207641 -1.84529e-19)
(-0.286812 0.207661 -1.84914e-19)
(-0.278361 0.206737 0)
(-0.268854 0.201973 0)
(-0.257539 0.192488 3.21973e-19)
(-0.242371 0.178558 -8.15801e-19)
(-0.218527 0.162621 3.32228e-19)
(-0.177882 0.149016 -1.82092e-19)
(-0.114752 0.141097 0)
(-0.0456797 0.137064 -1.12529e-19)
(-0.280374 0.212988 0)
(-0.277488 0.215823 3.0021e-19)
(-0.275981 0.217465 -7.59022e-19)
(-0.275298 0.215982 4.50096e-19)
(-0.273977 0.211595 4.38324e-19)
(-0.272704 0.204785 -2.92118e-19)
(-0.272115 0.195875 -2.83129e-19)
(-0.271326 0.184948 4.26696e-19)
(-0.265086 0.172592 -5.96228e-21)
(-0.240242 0.161441 3.02646e-19)
(-0.177538 0.156289 -3.4718e-19)
(-0.0746247 0.156134 6.85028e-19)
(-0.277276 0.20436 -1.15358e-19)
(-0.278919 0.207314 -5.18593e-19)
(-0.280204 0.208569 4.06006e-19)
(-0.280522 0.208004 -2.6861e-19)
(-0.280116 0.204596 -6.51797e-19)
(-0.279208 0.19865 2.575e-19)
(-0.278982 0.191084 2.52087e-19)
(-0.28096 0.182729 -2.50189e-19)
(-0.284162 0.173661 -6.57922e-21)
(-0.278445 0.164874 -1.31938e-19)
(-0.23674 0.163305 4.24992e-19)
(-0.124014 0.173932 -4.98472e-19)
(-0.270554 0.210307 -1.08009e-19)
(-0.276016 0.216476 2.24039e-19)
(-0.281924 0.218293 -4.71355e-19)
(-0.287015 0.215446 3.62779e-19)
(-0.289989 0.209026 6.57504e-21)
(-0.290507 0.20016 4.50832e-19)
(-0.289122 0.190326 -1.44276e-21)
(-0.287801 0.181008 -6.92039e-21)
(-0.289208 0.172573 -1.13934e-19)
(-0.291948 0.164531 -2.25945e-19)
(-0.275592 0.164335 3.54786e-19)
(-0.178306 0.187585 -2.7333e-19)
(-0.26417 0.220722 1.83338e-19)
(-0.274664 0.227896 2.05792e-19)
(-0.285652 0.228886 9.4534e-21)
(-0.295388 0.22405 4.36517e-19)
(-0.302368 0.214511 0)
(-0.30537 0.202328 1.97135e-19)
(-0.304208 0.189725 -3.96695e-19)
(-0.3 0.178644 1.82752e-19)
(-0.295503 0.169986 -7.82825e-22)
(-0.29488 0.162657 -9.05276e-21)
(-0.293424 0.161564 -2.10033e-19)
(-0.225146 0.195024 2.27294e-19)
(-0.253075 0.233498 1.49173e-19)
(-0.267784 0.240802 0)
(-0.283684 0.239329 -2.018e-19)
(-0.298571 0.230131 -2.12347e-19)
(-0.310211 0.215902 2.01179e-19)
(-0.316692 0.199761 -1.91341e-19)
(-0.317187 0.184655 6.19118e-21)
(-0.31228 0.172615 -1.7836e-19)
(-0.303932 0.164614 0)
(-0.296543 0.159998 -1.75462e-19)
(-0.295942 0.158173 0)
(-0.256645 0.197758 -1.80326e-19)
(-0.233 0.242958 -4.45873e-19)
(-0.250381 0.247875 -1.7376e-19)
(-0.270245 0.241434 -1.97315e-19)
(-0.290053 0.226248 2.02234e-19)
(-0.306962 0.206616 -1.93645e-19)
(-0.318146 0.186801 0)
(-0.3218 0.170387 4.93744e-19)
(-0.318131 0.159347 -1.58669e-19)
(-0.308847 0.153986 -1.48537e-19)
(-0.297604 0.154732 -1.3847e-19)
(-0.290193 0.15517 1.38563e-19)
(-0.271564 0.197869 2.45126e-19)
(-0.20115 0.243606 1.44247e-19)
(-0.218668 0.243638 1.68758e-19)
(-0.240658 0.23033 1.94531e-19)
(-0.264766 0.208146 -2.08112e-19)
(-0.287405 0.183028 4.11035e-19)
(-0.30455 0.160543 -3.64059e-19)
(-0.313016 0.144629 -1.23444e-20)
(-0.31246 0.137097 -1.33503e-19)
(-0.304419 0.137132 0)
(-0.292764 0.145315 -1.06589e-19)
(-0.279772 0.152653 1.93258e-19)
(-0.271215 0.197512 5.73238e-20)
(-0.158019 0.232929 -1.15704e-19)
(-0.172734 0.226469 0)
(-0.19452 0.205218 4.11251e-19)
(-0.221926 0.17579 -4.46706e-19)
(-0.250232 0.14569 -6.25032e-19)
(-0.274148 0.12167 1.93069e-19)
(-0.288838 0.108016 2.73115e-20)
(-0.292961 0.106028 2.54002e-19)
(-0.287713 0.114162 1.62267e-19)
(-0.27659 0.13149 6.80928e-20)
(-0.2632 0.151581 -1.93288e-19)
(-0.251564 0.200322 -3.48331e-20)
(-0.107973 0.211024 -2.26131e-19)
(-0.117283 0.197755 4.2391e-19)
(-0.136919 0.169609 0)
(-0.16557 0.133749 -4.13884e-19)
(-0.19857 0.0993362 5.61845e-19)
(-0.229116 0.0747137 -3.41994e-19)
(-0.250773 0.0644154 -2.52595e-19)
(-0.26066 0.0686737 1.88541e-19)
(-0.259193 0.0852549 -2.28083e-19)
(-0.248416 0.112669 3.11909e-20)
(-0.232162 0.149128 2.46239e-21)
(-0.20338 0.206345 -1.76387e-20)
(-0.0580643 0.180374 -1.93527e-19)
(-0.0604749 0.160646 -7.71623e-21)
(-0.076433 0.126861 1.61335e-19)
(-0.104387 0.0864197 5.45836e-19)
(-0.139956 0.0495865 -1.31679e-20)
(-0.175567 0.0260092 1.35305e-19)
(-0.203522 0.0200002 0)
(-0.219445 0.0301493 1.39359e-19)
(-0.222436 0.0528254 0)
(-0.212506 0.0860026 0)
(-0.190866 0.132394 6.43038e-21)
(-0.123865 0.197266 -4.65313e-20)
(0.0469424 -0.119124 3.02207e-19)
(0.045214 -0.0962928 -2.35084e-19)
(0.033052 -0.0789172 -5.90649e-20)
(0.0198422 -0.0695505 0)
(0.0102871 -0.0688103 0)
(0.00393275 -0.0766531 1.39448e-19)
(-0.00456053 -0.0905783 -9.46462e-20)
(-0.0253255 -0.107942 0)
(-0.0621857 -0.128957 0)
(-0.104078 -0.153819 -2.45395e-19)
(-0.143023 -0.178822 4.8253e-19)
(-0.175653 -0.200745 -1.02858e-18)
(0.093216 -0.12758 2.04019e-19)
(0.0885719 -0.108814 0)
(0.057221 -0.108057 1.11899e-19)
(0.0211798 -0.118521 -1.4297e-19)
(-0.0117443 -0.136064 0)
(-0.0445565 -0.161084 0)
(-0.0827008 -0.192256 0)
(-0.123019 -0.223294 4.60401e-20)
(-0.158923 -0.249909 -8.45656e-20)
(-0.184883 -0.270547 8.78552e-20)
(-0.199737 -0.284949 0)
(-0.206073 -0.29395 2.39096e-19)
(0.111277 -0.147 -8.06355e-20)
(0.0826442 -0.150193 -1.89764e-19)
(0.0349645 -0.174473 1.93631e-19)
(-0.0131265 -0.201299 -2.33528e-20)
(-0.060203 -0.228799 3.45486e-20)
(-0.10543 -0.255756 1.91246e-20)
(-0.145599 -0.277863 0)
(-0.176461 -0.291803 -3.8024e-20)
(-0.196054 -0.296969 1.37333e-19)
(-0.205681 -0.295404 6.39882e-20)
(-0.209145 -0.290401 1.46122e-19)
(-0.210739 -0.28483 -1.41833e-19)
(0.102911 -0.171718 3.54853e-19)
(0.0622149 -0.198606 -7.70868e-20)
(0.00870676 -0.232517 1.39641e-19)
(-0.0444566 -0.263101 -6.85167e-20)
(-0.093175 -0.287385 8.85326e-21)
(-0.133512 -0.302242 -1.66938e-20)
(-0.162356 -0.306672 0)
(-0.179547 -0.302581 -5.1975e-20)
(-0.188114 -0.293929 1.46572e-22)
(-0.192424 -0.285081 -1.7676e-19)
(-0.196015 -0.279062 1.25698e-19)
(-0.200202 -0.276743 -1.15774e-19)
(0.0810093 -0.192791 9.90876e-20)
(0.0351083 -0.23152 -6.11737e-20)
(-0.0168027 -0.265333 -6.42387e-20)
(-0.0651873 -0.290475 7.13028e-20)
(-0.105355 -0.303578 5.86944e-21)
(-0.13415 -0.304704 5.01844e-20)
(-0.151985 -0.296977 -4.55592e-20)
(-0.16254 -0.285415 1.01207e-19)
(-0.170604 -0.274745 -4.19145e-20)
(-0.179525 -0.267817 0)
(-0.190047 -0.265322 1.10757e-19)
(-0.200925 -0.266602 -1.93799e-19)
(0.0584177 -0.207678 -1.74835e-20)
(0.0109888 -0.248449 0)
(-0.035726 -0.274942 2.80681e-20)
(-0.0753518 -0.290078 -5.68809e-20)
(-0.104535 -0.292324 0)
(-0.123443 -0.28494 -1.00276e-20)
(-0.135906 -0.273055 0)
(-0.14691 -0.261615 7.49058e-20)
(-0.159895 -0.253617 0)
(-0.17554 -0.250077 0)
(-0.192412 -0.250948 1.85768e-19)
(-0.208233 -0.25586 -7.85408e-20)
(0.0435973 -0.216118 -7.12068e-20)
(-0.00539825 -0.253627 0)
(-0.0467737 -0.269647 -4.24333e-21)
(-0.0775292 -0.275292 -4.02228e-20)
(-0.0977552 -0.270332 1.33529e-20)
(-0.110936 -0.259688 0)
(-0.122578 -0.248158 0)
(-0.13688 -0.238931 -3.30839e-20)
(-0.155181 -0.233281 -5.65528e-20)
(-0.176445 -0.231611 6.05775e-20)
(-0.198455 -0.234256 -5.62263e-20)
(-0.218469 -0.2415 1.60572e-19)
(0.0421559 -0.221162 -4.499e-20)
(-0.0131249 -0.252376 2.02957e-21)
(-0.0499986 -0.257875 2.64792e-20)
(-0.0741924 -0.25641 -1.93889e-20)
(-0.0887543 -0.247296 0)
(-0.0996055 -0.236127 0)
(-0.112422 -0.225958 3.22527e-21)
(-0.130035 -0.218049 -2.22813e-20)
(-0.1525 -0.212765 9.91235e-20)
(-0.178121 -0.210685 -5.84377e-20)
(-0.204241 -0.212824 1.26414e-19)
(-0.227255 -0.220179 1.42784e-19)
(0.0570837 -0.231108 0)
(-0.0101849 -0.246989 0)
(-0.0467977 -0.245926 1.13035e-20)
(-0.0669301 -0.23809 0)
(-0.079129 -0.226632 1.68954e-21)
(-0.0898472 -0.215558 -1.68787e-21)
(-0.104013 -0.206125 1.74825e-20)
(-0.123831 -0.198022 0)
(-0.148945 -0.191158 3.04367e-20)
(-0.177378 -0.186425 3.65884e-20)
(-0.205941 -0.185454 0)
(-0.229855 -0.189998 -1.13028e-19)
(0.0844691 -0.252212 6.91773e-21)
(0.0080452 -0.246363 1.00634e-20)
(-0.0361091 -0.237392 1.81547e-20)
(-0.0567831 -0.222823 0)
(-0.0692228 -0.208402 0)
(-0.0809394 -0.19696 0)
(-0.0960503 -0.187563 -1.08893e-20)
(-0.116739 -0.178302 1.07906e-20)
(-0.142852 -0.168596 -9.00106e-22)
(-0.172224 -0.159466 -3.99221e-20)
(-0.200938 -0.152971 0)
(-0.223222 -0.151722 7.84378e-21)
(0.0976691 -0.283642 -1.82869e-20)
(0.0347553 -0.256909 -1.75715e-20)
(-0.0151904 -0.234771 1.60747e-21)
(-0.0425903 -0.211296 0)
(-0.0587951 -0.191507 0)
(-0.0721396 -0.178563 5.96299e-21)
(-0.087516 -0.169315 1.4344e-21)
(-0.107845 -0.159195 -2.11931e-20)
(-0.133389 -0.146388 0)
(-0.161771 -0.131889 -8.46867e-21)
(-0.188411 -0.118264 7.18454e-20)
(-0.206925 -0.109069 1.89654e-19)
(0.107272 -0.251366 0)
(0.0704695 -0.270117 -1.82442e-20)
(0.0220275 -0.247342 -3.869e-21)
(-0.0168576 -0.213425 2.19925e-21)
(-0.0442879 -0.182965 9.74624e-23)
(-0.0634897 -0.162679 0)
(-0.0797554 -0.15035 6.76707e-21)
(-0.0980977 -0.139504 2.27481e-20)
(-0.120805 -0.125268 0)
(-0.146175 -0.106579 -4.04453e-20)
(-0.169079 -0.0858785 0)
(-0.182539 -0.0679151 -1.20954e-19)
(-0.20067 -0.217583 4.46237e-19)
(-0.217959 -0.228535 0)
(-0.228148 -0.233338 1.10767e-19)
(-0.231781 -0.231246 -4.36191e-19)
(-0.228496 -0.221333 -9.31743e-20)
(-0.218435 -0.204596 4.30261e-19)
(-0.200944 -0.182663 3.01329e-19)
(-0.177963 -0.156453 -4.25072e-19)
(-0.153858 -0.126156 -1.08987e-19)
(-0.134448 -0.0910981 0)
(-0.123924 -0.0524556 3.82984e-19)
(-0.123133 -0.0253512 -6.39486e-19)
(-0.207729 -0.298362 0)
(-0.207754 -0.298501 1.60338e-19)
(-0.207621 -0.294357 -1.72992e-19)
(-0.207637 -0.286763 3.40126e-19)
(-0.206714 -0.278315 -3.30415e-19)
(-0.20195 -0.268813 3.30819e-19)
(-0.192465 -0.257504 0)
(-0.178536 -0.242343 -3.26489e-19)
(-0.162601 -0.218503 5.06129e-19)
(-0.149004 -0.177857 -3.76318e-19)
(-0.141095 -0.114718 4.12182e-19)
(-0.137066 -0.0456444 4.53848e-19)
(-0.21297 -0.280342 -2.87866e-19)
(-0.215803 -0.277451 -1.54604e-19)
(-0.217445 -0.275941 -4.64742e-19)
(-0.215965 -0.275255 3.03749e-19)
(-0.211579 -0.273935 0)
(-0.204771 -0.272665 0)
(-0.195861 -0.272081 -2.82901e-19)
(-0.184935 -0.271298 1.45349e-19)
(-0.172581 -0.265063 -2.85339e-19)
(-0.161437 -0.240215 0)
(-0.156293 -0.177497 1.66676e-19)
(-0.156137 -0.0745795 -9.9689e-20)
(-0.204339 -0.277249 1.20461e-19)
(-0.207293 -0.278885 -1.3605e-19)
(-0.208549 -0.280165 -2.74301e-21)
(-0.207986 -0.280479 2.65349e-19)
(-0.204582 -0.280072 -2.60709e-19)
(-0.19864 -0.279166 5.07427e-19)
(-0.191078 -0.278944 0)
(-0.182725 -0.280929 3.78214e-19)
(-0.173659 -0.284139 -1.2122e-19)
(-0.164878 -0.278422 1.37002e-19)
(-0.163316 -0.2367 -1.32044e-19)
(-0.173937 -0.123961 -1.63152e-19)
(-0.210275 -0.270528 1.07924e-19)
(-0.216444 -0.275983 -3.42203e-19)
(-0.218265 -0.281882 -2.32037e-19)
(-0.215425 -0.286967 0)
(-0.209011 -0.289937 0)
(-0.200153 -0.290457 -2.33995e-19)
(-0.190325 -0.289076 -2.23406e-19)
(-0.181012 -0.287763 2.22214e-19)
(-0.172579 -0.28918 0)
(-0.164541 -0.291929 1.14814e-19)
(-0.164352 -0.275559 0)
(-0.187595 -0.178249 -2.8238e-19)
(-0.220682 -0.26415 1.95006e-19)
(-0.227857 -0.274632 9.85799e-21)
(-0.228855 -0.285611 2.2506e-19)
(-0.224028 -0.295337 -4.30641e-19)
(-0.214502 -0.302313 6.48668e-22)
(-0.202329 -0.305314 2.05882e-19)
(-0.189735 -0.304157 0)
(-0.178659 -0.299957 0)
(-0.170003 -0.295471 -3.80224e-19)
(-0.162672 -0.29486 1.93769e-19)
(-0.161587 -0.293404 2.09898e-19)
(-0.195037 -0.225094 1.47989e-20)
(-0.233454 -0.253067 1.5483e-20)
(-0.240765 -0.267765 -1.74995e-19)
(-0.239302 -0.283652 2.01602e-19)
(-0.230119 -0.298529 -2.01831e-19)
(-0.215905 -0.310159 0)
(-0.199778 -0.316637 1.89747e-19)
(-0.184681 -0.317136 -3.53769e-19)
(-0.172645 -0.312237 9.36627e-21)
(-0.164644 -0.3039 1.75709e-19)
(-0.160023 -0.296525 -3.23867e-19)
(-0.158201 -0.295934 1.88336e-19)
(-0.197772 -0.256605 -6.00932e-21)
(-0.242919 -0.233013 -2.90213e-19)
(-0.247846 -0.250384 1.80713e-19)
(-0.241421 -0.270235 1.23233e-20)
(-0.226256 -0.290029 2.04852e-19)
(-0.206644 -0.306925 -1.95826e-19)
(-0.186843 -0.318102 -1.81459e-19)
(-0.170436 -0.321756 3.33325e-19)
(-0.159397 -0.318093 1.58481e-19)
(-0.154031 -0.308821 0)
(-0.154768 -0.297592 1.48918e-19)
(-0.155203 -0.290198 2.94428e-19)
(-0.197882 -0.271542 -1.01348e-19)
(-0.243581 -0.20119 1.44091e-19)
(-0.243627 -0.218701 -3.51349e-19)
(-0.230343 -0.240679 -7.08957e-21)
(-0.208184 -0.264772 2.19123e-19)
(-0.183087 -0.287395 4.10618e-19)
(-0.160616 -0.30453 1.70626e-19)
(-0.144705 -0.31299 -3.2635e-19)
(-0.137168 -0.312436 1.29198e-19)
(-0.137192 -0.304403 0)
(-0.145363 -0.292761 -1.06491e-19)
(-0.152693 -0.279788 1.93073e-19)
(-0.19752 -0.271211 -1.30636e-19)
(-0.232922 -0.158084 0)
(-0.226481 -0.172798 -1.42807e-20)
(-0.205257 -0.194579 4.01303e-19)
(-0.17586 -0.22197 -6.68107e-19)
(-0.145781 -0.250257 -8.25171e-19)
(-0.12177 -0.274157 1.91088e-19)
(-0.108114 -0.288837 0)
(-0.106115 -0.292957 -1.23255e-19)
(-0.114233 -0.287711 0)
(-0.131546 -0.276601 -6.80085e-20)
(-0.151619 -0.263228 -1.23068e-20)
(-0.20032 -0.251581 0)
(-0.211037 -0.108054 -9.79248e-20)
(-0.197788 -0.117369 2.9121e-19)
(-0.16967 -0.137003 3.63504e-19)
(-0.133839 -0.165642 4.13555e-19)
(-0.0994461 -0.198622 5.61389e-19)
(-0.0748286 -0.229149 -4.88226e-19)
(-0.0645224 -0.250795 0)
(-0.0687657 -0.260674 0)
(-0.0853284 -0.259206 0)
(-0.112727 -0.248437 0)
(-0.149167 -0.232205 6.67938e-21)
(-0.206332 -0.203424 -1.77717e-20)
(-0.180404 -0.0581458 -3.76605e-19)
(-0.160696 -0.0605643 9.78541e-20)
(-0.126936 -0.0765214 -1.5761e-19)
(-0.086518 -0.104464 -5.41397e-19)
(-0.0496978 -0.140015 -1.65091e-19)
(-0.0261193 -0.17561 1.35189e-19)
(-0.0200989 -0.203554 0)
(-0.0302324 -0.21947 0)
(-0.0528917 -0.222459 8.20678e-20)
(-0.086055 -0.212534 5.68764e-21)
(-0.132429 -0.190916 -3.37034e-20)
(-0.197222 -0.123961 -4.66413e-20)
(-0.113828 -0.0595454 1.13183e-20)
(-0.125845 -0.0380939 0)
(-0.15054 -0.0229602 0)
(-0.168022 -0.00251168 2.72943e-21)
(-0.167064 0.0228957 -3.04262e-22)
(-0.154843 0.0472532 0)
(-0.139834 0.0683721 -9.71627e-21)
(-0.124369 0.0875974 -2.03082e-20)
(-0.106883 0.107311 2.07267e-20)
(-0.0851633 0.127782 2.84513e-20)
(-0.0595803 0.145227 0)
(-0.0344299 0.152913 1.09302e-19)
(-0.0945199 -0.0583159 -1.06387e-20)
(-0.0966106 -0.0262333 0)
(-0.0993425 0.00313457 1.49316e-20)
(-0.106487 0.0220573 5.97003e-21)
(-0.116293 0.0331247 3.60173e-22)
(-0.12352 0.0436153 0)
(-0.123177 0.0575509 -2.27501e-21)
(-0.113682 0.074249 1.5824e-20)
(-0.0961754 0.0918857 -8.61694e-21)
(-0.0719976 0.108605 -6.86194e-20)
(-0.0428526 0.120894 9.74435e-20)
(-0.0127623 0.123125 -1.03493e-19)
(-0.0782283 -0.0486049 1.55146e-20)
(-0.083421 -0.0255003 0)
(-0.0830468 -0.000953899 -1.11416e-20)
(-0.078875 0.0221677 -8.49612e-21)
(-0.075879 0.0384841 0)
(-0.0775198 0.0486524 0)
(-0.0822536 0.0566836 1.75203e-21)
(-0.0846084 0.0658598 -1.75095e-21)
(-0.0789806 0.0771357 0)
(-0.0626462 0.0888434 -2.70544e-20)
(-0.0367824 0.0967921 -3.81637e-20)
(-0.00632559 0.0952579 0)
(-0.0674061 -0.0438132 8.1997e-21)
(-0.0743136 -0.0238445 0)
(-0.0743263 -0.00435856 -9.21867e-21)
(-0.0697635 0.0153047 0)
(-0.0616525 0.0328253 -7.51252e-23)
(-0.0532333 0.046078 7.43777e-23)
(-0.0480267 0.0552658 1.58843e-21)
(-0.0462869 0.0621432 -1.58509e-21)
(-0.0448781 0.0684495 0)
(-0.039023 0.0745765 0)
(-0.0250572 0.0782362 0)
(-0.00351362 0.0744602 -7.25331e-20)
(-0.0163634 0.144835 0)
(-0.0113048 0.119735 0)
(-0.0221144 0.081885 -3.9306e-19)
(-0.0475797 0.0393005 3.29403e-21)
(-0.0832556 0.00292263 -4.05683e-19)
(-0.121373 -0.0173901 -1.03244e-19)
(-0.153848 -0.0184279 -1.38897e-19)
(-0.175088 -0.00342793 -8.809e-21)
(-0.182734 0.0223786 -4.71294e-20)
(-0.175132 0.054807 0)
(-0.151347 0.0897364 0)
(-0.0900006 0.117533 7.4311e-20)
(0.0116804 0.110218 4.83769e-20)
(0.0236911 0.0817383 7.83634e-20)
(0.0189733 0.0422151 3.48965e-19)
(-0.00238084 0.000215748 -1.18001e-19)
(-0.0362559 -0.0333211 1.37114e-19)
(-0.074428 -0.0491979 1.03382e-19)
(-0.109061 -0.0459476 1.55829e-19)
(-0.133829 -0.0282349 0)
(-0.145164 -0.00172713 5.01349e-20)
(-0.141681 0.0291596 -1.15595e-20)
(-0.122934 0.0608422 0)
(-0.0882823 0.0860179 -7.37255e-20)
(0.0214011 0.0797739 -1.85873e-19)
(0.0384042 0.0505233 6.49992e-20)
(0.0395168 0.0130607 1.65861e-19)
(0.0234213 -0.0247861 0)
(-0.00619841 -0.0540773 8.58413e-20)
(-0.0407828 -0.0662338 -8.42217e-20)
(-0.0739606 -0.0610421 0)
(-0.0995659 -0.0440668 0)
(-0.113029 -0.0196876 -9.17077e-20)
(-0.112908 0.00948808 1.24264e-20)
(-0.0997439 0.0396635 -1.48428e-21)
(-0.0750521 0.0645513 4.48137e-20)
(0.0200243 0.058809 9.29387e-20)
(0.0373387 0.0309606 0)
(0.0417924 -0.00299963 -1.59365e-19)
(0.0305544 -0.0351608 -1.49912e-19)
(0.00898648 -0.0593585 0)
(-0.0166976 -0.0695846 5.77858e-20)
(-0.0446251 -0.0648629 -1.006e-19)
(-0.0698144 -0.0513532 4.31563e-20)
(-0.0862824 -0.0324398 3.61133e-21)
(-0.0908376 -0.00659615 -1.48962e-21)
(-0.0830395 0.0234952 1.52642e-21)
(-0.0651697 0.0502268 -5.99558e-21)
(0.0595342 -0.113766 8.37853e-21)
(0.0380856 -0.125787 1.74228e-20)
(0.0229361 -0.150493 1.06075e-20)
(0.00250344 -0.167994 7.62253e-21)
(-0.0228866 -0.167067 -4.88017e-22)
(-0.0472439 -0.154861 0)
(-0.068371 -0.139851 -6.40038e-21)
(-0.0876048 -0.124384 -2.34392e-20)
(-0.107325 -0.106898 0)
(-0.127801 -0.0851844 0)
(-0.14525 -0.0596152 4.98925e-20)
(-0.152942 -0.0344817 -3.62459e-20)
(0.0583031 -0.0944561 -3.02816e-20)
(0.026238 -0.096564 -1.60919e-20)
(-0.00313847 -0.0993103 -6.06407e-21)
(-0.0220763 -0.106452 -1.05239e-20)
(-0.0331458 -0.116262 3.63482e-22)
(-0.0436257 -0.123511 7.39832e-22)
(-0.0575534 -0.123189 -7.3715e-22)
(-0.0742539 -0.113705 2.46004e-20)
(-0.091899 -0.0961959 0)
(-0.108627 -0.072015 5.51168e-20)
(-0.120922 -0.0428725 -2.99336e-20)
(-0.123158 -0.0127919 1.03318e-19)
(0.0485916 -0.078183 1.55686e-20)
(0.0254835 -0.0833858 1.61241e-21)
(0.000933191 -0.083028 0)
(-0.022188 -0.0788624 4.63229e-21)
(-0.0385044 -0.0758632 0)
(-0.0486708 -0.0775024 1.70641e-22)
(-0.0566979 -0.0822438 -1.73573e-21)
(-0.065871 -0.0846124 -1.80722e-20)
(-0.077149 -0.0789954 0)
(-0.0888629 -0.0626631 -9.40781e-20)
(-0.0968187 -0.0367973 8.62135e-20)
(-0.0952889 -0.00634049 4.95111e-20)
(0.0438038 -0.0673872 -1.4811e-20)
(0.0238333 -0.0743006 1.28773e-20)
(0.0043427 -0.0743192 0)
(-0.0153222 -0.0697625 -4.42156e-21)
(-0.0328431 -0.061653 4.71492e-22)
(-0.0460964 -0.0532311 -1.60898e-22)
(-0.0552849 -0.0480219 0)
(-0.0621627 -0.0462841 -2.19379e-23)
(-0.06847 -0.0448812 8.54891e-21)
(-0.0745999 -0.039032 -7.77146e-21)
(-0.0782634 -0.0250682 -5.7226e-20)
(-0.0744896 -0.0035238 0)
(-0.144875 -0.0164305 1.69445e-19)
(-0.119791 -0.0113804 -5.48265e-19)
(-0.0819595 -0.0221894 1.22953e-19)
(-0.0393894 -0.0476452 0)
(-0.00301614 -0.0833049 2.91006e-19)
(0.0173025 -0.121408 0)
(0.0183524 -0.153876 -1.6595e-19)
(0.00336519 -0.175112 0)
(-0.0224294 -0.182758 -1.50814e-20)
(-0.0548488 -0.17516 1.01838e-21)
(-0.0897742 -0.151392 1.88078e-20)
(-0.117583 -0.0901084 9.13011e-21)
(-0.110258 0.0116392 0)
(-0.0817879 0.0236423 2.88185e-19)
(-0.0422745 0.0189244 -1.90181e-19)
(-0.000279493 -0.00242122 1.09773e-19)
(0.0332594 -0.0362832 3.16944e-19)
(0.0491423 -0.0744453 -1.8795e-19)
(0.0459011 -0.109076 1.78539e-19)
(0.0281965 -0.133845 9.83399e-20)
(0.00169607 -0.145183 -9.5823e-20)
(-0.0291849 -0.141705 0)
(-0.0608629 -0.122963 -1.97409e-20)
(-0.0860502 -0.0883351 3.508e-20)
(-0.079808 0.0213828 1.58591e-20)
(-0.0505602 0.0383833 -6.49065e-20)
(-0.0130989 0.0394974 1.00331e-19)
(0.0247494 0.0234094 -3.00764e-19)
(0.0540452 -0.00620114 5.49213e-20)
(0.0662063 -0.0407801 -2.29755e-19)
(0.0610177 -0.0739587 0)
(0.0440469 -0.0995697 0)
(0.0196746 -0.113039 -4.37128e-20)
(-0.00949292 -0.112924 0)
(-0.0396638 -0.0997594 1.86941e-20)
(-0.0645579 -0.0750733 0)
(-0.0588382 0.0200154 3.81817e-20)
(-0.0309876 0.0373311 5.45525e-20)
(0.0029768 0.0417878 0)
(0.0351434 0.0305556 2.35108e-20)
(0.0593474 0.00899596 -3.61274e-19)
(0.069576 -0.0166821 7.16394e-20)
(0.0648508 -0.04461 4.29655e-20)
(0.0513402 -0.0698069 2.19386e-20)
(0.0324378 -0.0862838 3.629e-21)
(0.00661001 -0.0908457 -1.32626e-21)
(-0.0234735 -0.0830478 6.81158e-21)
(-0.0502064 -0.0651698 0)
)
;

boundaryField
{
    rotor
    {
        type            movingWallVelocity;
        value           nonuniform List<vector> 
96
(
(-0.120649 -0.0348811 -3.04734e-16)
(-0.122672 -0.0269156 3.04732e-16)
(-0.12417 -0.0188349 -3.04733e-16)
(-0.125136 -0.0106735 -3.04733e-16)
(-0.125566 -0.00246635 3.04733e-16)
(-0.125458 0.00575133 -3.04733e-16)
(-0.124813 0.0139444 -3.04734e-16)
(-0.123634 0.0220777 1.13568e-21)
(-0.121926 0.0301165 1.13568e-21)
(-0.119695 0.0380263 3.04733e-16)
(-0.116952 0.0457733 3.04733e-16)
(-0.113707 0.0533243 -6.09468e-16)
(-0.109976 0.060647 -3.04735e-16)
(-0.105774 0.0677099 3.04733e-16)
(-0.101119 0.0744829 3.04733e-16)
(-0.0960315 0.080937 -3.04731e-16)
(-0.0905324 0.0870445 2.27137e-21)
(-0.0846456 0.0927792 -6.09468e-16)
(-0.0783963 0.0981166 0)
(-0.0718113 0.103034 -3.04733e-16)
(-0.0649188 0.10751 -3.04733e-16)
(-0.0577483 0.111526 0)
(-0.0503306 0.115064 -3.04733e-16)
(-0.0426973 0.118109 -3.04733e-16)
(0.0348811 -0.120649 -6.09465e-16)
(0.0269156 -0.122672 3.04733e-16)
(0.0188349 -0.12417 -1.13568e-21)
(0.0106735 -0.125136 -3.04733e-16)
(0.00246635 -0.125566 0)
(-0.00575133 -0.125458 -3.04733e-16)
(-0.0139444 -0.124813 -3.04733e-16)
(-0.0220777 -0.123634 -3.04733e-16)
(-0.0301165 -0.121926 -6.09466e-16)
(-0.0380263 -0.119695 -2.27137e-21)
(-0.0457733 -0.116952 -6.09466e-16)
(-0.0533243 -0.113707 3.04733e-16)
(-0.060647 -0.109976 -6.09466e-16)
(-0.0677099 -0.105774 3.04733e-16)
(-0.0744829 -0.101119 2.27137e-21)
(-0.080937 -0.0960315 0)
(-0.0870445 -0.0905324 3.04731e-16)
(-0.0927792 -0.0846456 3.04733e-16)
(-0.0981166 -0.0783963 6.09464e-16)
(-0.103034 -0.0718113 3.04733e-16)
(-0.10751 -0.0649188 -2.27137e-21)
(-0.111526 -0.0577483 0)
(-0.115064 -0.0503306 6.09464e-16)
(-0.118109 -0.0426973 6.09466e-16)
(-0.127345 -0.0401222 0)
(-0.142327 -0.0448425 3.04733e-16)
(-0.157309 -0.0495628 0)
(-0.17229 -0.054283 3.04733e-16)
(-0.187272 -0.0590033 0)
(-0.202254 -0.0637236 -3.04733e-16)
(-0.217236 -0.0684438 -3.04733e-16)
(-0.232218 -0.0731641 -3.04733e-16)
(-0.247199 -0.0778844 0)
(-0.262181 -0.0826046 -3.04733e-16)
(-0.277163 -0.0873249 0)
(-0.292145 -0.0920452 -3.04733e-16)
(-0.127345 -0.0401222 3.04733e-16)
(-0.142327 -0.0448425 3.04733e-16)
(-0.157309 -0.0495628 3.04733e-16)
(-0.17229 -0.054283 3.04733e-16)
(-0.187272 -0.0590033 3.04733e-16)
(-0.202254 -0.0637236 -3.04733e-16)
(-0.217236 -0.0684438 0)
(-0.232218 -0.0731641 -5.28972e-34)
(-0.247199 -0.0778844 0)
(-0.262181 -0.0826046 0)
(-0.277163 -0.0873249 0)
(-0.292145 -0.0920452 -3.04733e-16)
(-0.0401222 0.127345 -3.04733e-16)
(-0.0448425 0.142327 -6.09466e-16)
(-0.0495628 0.157309 -3.04733e-16)
(-0.054283 0.17229 0)
(-0.0590033 0.187272 3.04733e-16)
(-0.0637236 0.202254 3.04733e-16)
(-0.0684438 0.217236 -3.04733e-16)
(-0.0731641 0.232218 -3.04733e-16)
(-0.0778844 0.247199 3.04733e-16)
(-0.0826046 0.262181 -1.76324e-33)
(-0.0873249 0.277163 3.04733e-16)
(-0.0920452 0.292145 -3.04733e-16)
(0.0401222 -0.127345 0)
(0.0448425 -0.142327 -2.35099e-34)
(0.0495628 -0.157309 0)
(0.054283 -0.17229 -3.04733e-16)
(0.0590033 -0.187272 -3.04733e-16)
(0.0637236 -0.202254 -3.04733e-16)
(0.0684438 -0.217236 -3.04733e-16)
(0.0731641 -0.232218 3.04733e-16)
(0.0778844 -0.247199 0)
(0.0826046 -0.262181 -1.05794e-33)
(0.0873249 -0.277163 -3.04733e-16)
(0.0920452 -0.292145 0)
)
;
    }
    stator
    {
        type            movingWallVelocity;
        value           nonuniform 0();
    }
    AMI1
    {
        type            cyclicAMI;
        value           nonuniform List<vector> 
48
(
(-0.0617261 -0.0431941 2.36972e-21)
(-0.0693091 -0.0243024 0)
(-0.0698585 -0.00607187 -5.04586e-21)
(-0.0659057 0.0113766 -1.65745e-21)
(-0.0588175 0.0270595 -1.87263e-22)
(-0.0500981 0.0399657 7.10786e-23)
(-0.0421269 0.0497676 -1.41712e-22)
(-0.0360412 0.0571287 -3.07072e-21)
(-0.0308715 0.0629764 5.97227e-21)
(-0.0239588 0.0675991 3.62365e-21)
(-0.0124801 0.0695695 1.5848e-20)
(0.00416318 0.0653509 -5.18931e-20)
(0.0228573 0.0511754 -4.2751e-20)
(0.0374457 0.0261388 -5.12509e-21)
(0.0416539 -0.00519734 9.60376e-21)
(0.0323495 -0.0354716 -9.97625e-21)
(0.0154265 -0.0597116 1.61637e-19)
(-0.003678 -0.0696841 1.42014e-19)
(-0.0293264 -0.0645162 -6.48522e-20)
(-0.0566526 -0.0515368 4.06517e-20)
(-0.0753912 -0.0349071 1.81821e-21)
(-0.0821326 -0.0111107 -5.13938e-22)
(-0.0771241 0.0183069 2.51339e-21)
(-0.0622559 0.0446014 2.18328e-21)
(0.0431851 -0.061723 -8.2787e-21)
(0.0242888 -0.0693088 8.33272e-21)
(0.00605451 -0.069859 -8.15457e-21)
(-0.011394 -0.0659073 -3.85667e-21)