/*--------------------------------*- C++ -*----------------------------------*\
| =========                 |                                                 |
| \\      /  F ield         | OpenFOAM: The Open Source CFD Toolbox           |
|  \\    /   O peration     | Version:  2.3.1                                 |
|   \\  /    A nd           | Web:      www.OpenFOAM.org                      |
|    \\/     M anipulation  |                                                 |
\*---------------------------------------------------------------------------*/
FoamFile
{
    version     2.0;
    format      ascii;
    class       volScalarField;
    location    "0.5";
    object      k;
}
// * * * * * * * * * * * * * * * * * * * * * * * * * * * * * * * * * * * * * //

dimensions      [0 2 -2 0 0 0 0];

internalField   nonuniform List<scalar> 
9648
(
2.71261
2.71279
2.71161
2.70737
2.69966
2.6878
2.67239
2.65322
2.63013
2.60304
2.57196
2.5371
2.49885
2.45777
2.41449
2.36975
2.32428
2.27878
2.23386
2.19009
2.14792
2.10769
2.06969
2.03405
2.0009
1.97025
1.94211
1.91641
1.8931
1.87211
1.85334
1.83672
1.82214
1.80954
1.7988
1.78985
1.7826
1.77699
1.77293
1.77037
1.76926
1.76956
1.77122
1.77422
1.77855
1.78418
1.79115
1.79949
1.80921
1.82035
1.83296
1.84709
1.86278
1.88004
1.89886
1.91909
1.94042
1.96234
1.98436
2.00609
2.02719
1.75994
1.76235
1.76201
1.76018
1.75917
1.76165
1.77014
1.78573
1.80854
1.83876
1.87628
1.92054
1.97073
2.02588
2.08501
2.14719
2.21149
2.27704
2.34308
2.40906
2.47457
2.53933
2.60314
2.66583
2.72728
2.78745
2.84636
2.90404
2.96047
3.0158
3.07015
3.1236
3.17626
3.22822
3.27957
3.33033
3.38062
3.43054
3.48008
3.52922
3.57804
3.62666
3.67502
3.72312
3.77105
3.81866
3.86597
3.9131
3.96008
4.00679
4.05312
4.09898
4.14445
4.18913
4.23331
4.27672
4.31955
4.36111
4.40165
4.44122
4.47988
1.44566
1.49927
1.55446
1.61313
1.67749
1.74869
1.8267
1.91172
2.00337
2.10137
2.20472
2.31262
2.42401
2.53779
2.6529
2.76827
2.883
2.99614
3.10691
3.21479
3.31944
3.42068
3.51839
3.61251
3.70304
3.78999
3.87351
3.95362
4.03062
4.10474
4.17621
4.24532
4.31225
4.37711
4.44003
4.50123
4.5608
4.61894
4.67574
4.73128
4.78565
4.83893
4.89123
4.9426
4.99302
5.0425
5.091
5.13861
5.18518
5.23072
5.27522
5.31872
5.36141
5.40262
5.44328
5.48237
5.52064
5.55702
5.59272
5.62732
5.66088
1.35687
1.45994
1.56837
1.68224
1.80199
1.92796
2.0601
2.19796
2.34076
2.4877
2.63751
2.78908
2.94112
3.09255
3.24221
3.38907
3.53224
3.6709
3.80444
3.93248
4.05486
4.17152
4.28255
4.38806
4.48818
4.58303
4.67282
4.75793
4.83867
4.91549
4.98887
5.05901
5.12631
5.19089
5.25296
5.3128
5.37064
5.42668
5.48108
5.53399
5.58553
5.63585
5.68504
5.73321
5.78038
5.8266
5.87189
5.91629
5.95972
6.00218
6.0438
6.08424
6.12372
6.16206
6.19975
6.23625
6.27161
6.30581
6.33892
6.37099
6.4018
1.3818
1.52649
1.68032
1.8413
2.00842
2.1813
2.35925
2.54126
2.72631
2.91303
3.10001
3.28582
3.46924
3.64914
3.82442
3.99394
4.15691
4.31276
4.46097
4.60148
4.73424
4.85933
4.97705
5.08754
5.19114
5.28808
5.3788
5.46373
5.54355
5.61878
5.6898
5.75713
5.82095
5.88162
5.93935
5.99454
6.04753
6.09847
6.14759
6.19502
6.24091
6.28545
6.32882
6.37112
6.41239
6.4527
6.49206
6.53051
6.56811
6.60465
6.6403
6.67494
6.70842
6.7408
6.77222
6.80279
6.8322
6.86055
6.88774
6.91365
6.93832
1.46033
1.64121
1.83491
2.03779
2.24726
2.46193
2.6804
2.90126
3.1229
3.34353
3.5616
3.77534
3.98377
4.1856
4.38022
4.56625
4.7429
4.91003
5.06712
5.21447
5.35228
5.48056
5.59993
5.71043
5.81263
5.90705
5.99413
6.07503
6.14997
6.21984
6.28514
6.34574
6.40267
6.45603
6.50616
6.55362
6.59889
6.64204
6.68327
6.72268
6.76038
6.79668
6.83185
6.86603
6.8992
6.93148
6.963
6.99351
7.02328
7.05214
7.08002
7.10689
7.13274
7.15739
7.18107
7.20375
7.22552
7.24629
7.26578
7.28378
7.30065
1.57094
1.78435
2.01427
2.25517
2.50277
2.75493
3.00944
3.26441
3.51803
3.7675
4.01168
4.248
4.47598
4.69424
4.90334
5.10083
5.28626
5.46005
5.62118
5.77087
5.90956
6.03673
6.15391
6.26021
6.35699
6.44504
6.52515
6.59863
6.66589
6.72733
6.78356
6.83466
6.8815
6.92496
6.96477
7.00178
7.03706
7.06997
7.10101
7.13022
7.15747
7.18339
7.20826
7.23237
7.25531
7.27745
7.29896
7.31964
7.33975
7.35895
7.37727
7.39453
7.41083
7.42583
7.43961
7.45269
7.465
7.47635
7.48623
7.49446
7.50156
1.70113
1.94392
2.2069
2.4823
2.76418
3.04925
3.33541
3.62042
3.90171
4.17573
4.4418
4.6959
4.93864
5.1679
5.3872
5.59206
5.78226
5.95923
6.12041
6.26822
6.40424
6.5264
6.63859
6.73702
6.82452
6.90294
6.9724
7.03648
7.09275
7.14266
7.18757
7.2256
7.25985
7.29075
7.31762
7.3418
7.36469
7.3843
7.40246
7.41915
7.43356
7.44651
7.4587
7.47036
7.48064
7.49049
7.49941
7.5078
7.51569
7.52299
7.52932
7.53469
7.53935
7.54228
7.544
7.54529
7.54546
7.54568
7.54386
7.53982
7.53528
1.84159
2.10832
2.40115
2.70487
3.01851
3.33118
3.64337
3.95618
4.25891
4.5549
4.83792
5.10839
5.36097
5.59676
5.82072
6.02979
6.22181
6.39885
6.56102
6.70393
6.83244
6.94715
7.05032
7.14159
7.21702
7.28153
7.33873
7.39058
7.43295
7.46849
7.499
7.52335
7.54321
7.55887
7.5699
7.57971
7.58527
7.58819
7.591
7.59155
7.59015
7.58622
7.58429
7.58091
7.57571
7.57198
7.56425
7.55779
7.549
7.54048
7.53
7.51977
7.5101
7.4982
7.48524
7.47258
7.45663
7.44509
7.42865
7.40869
7.39043
2.04739
2.06658
2.08489
2.10231
2.11889
2.13476
2.15018
2.16549
2.18072
2.19505
2.20816
2.22069
2.23274
2.24451
2.2563
2.26869
2.28206
2.29672
2.31303
2.33149
2.35186
2.37373
2.39679
2.4206
2.44485
2.46954
2.49478
2.52033
2.54608
2.57209
2.59847
2.62512
2.65205
2.6794
2.70712
2.73518
2.76368
2.7927
2.8222
2.85209
2.88248
2.91347
2.94503
2.97712
3.00986
3.04308
3.0768
3.11116
3.1462
3.18179
3.21799
3.25488
3.29256
3.33081
3.36997
3.40995
3.45106
3.49302
3.53616
3.5806
3.62641
4.51767
4.55344
4.58831
4.62243
4.65552
4.68715
4.71688
4.74536
4.77161
4.79711
4.82091
4.8437
4.86543
4.88614
4.90575
4.92412
4.94137
4.95746
4.97242
4.98624
4.99897
5.01064
5.02114
5.0305
5.03877
5.0459
5.05177
5.05615
5.05911
5.06064
5.06073
5.05943
5.05679
5.05278
5.04745
5.04088
5.03301
5.02396
5.01368
5.00221
4.98958
4.97585
4.9611
4.94526
4.92833
4.91024
4.89089
4.87035
4.84852
4.82546
4.8011
4.77539
4.74849
4.71993
4.69044
4.65944
4.62753
4.59426
4.56065
4.52657
4.49216
5.69282
5.7237
5.75303
5.78147
5.80891
5.83576
5.86076
5.88448
5.90603
5.92632
5.94499
5.96244
5.97851
5.99355
6.00736
6.01986
6.03106
6.04094
6.0495
6.05672
6.06268
6.06733
6.07068
6.07275
6.07352
6.07297
6.07113
6.06797
6.06344
6.05748
6.05014
6.04134
6.03112
6.01953
6.00655
5.99223
5.97654
5.95952
5.94117
5.92152
5.90065
5.87864
5.85554
5.83138
5.80612
5.7797
5.75198
5.72293
5.69247
5.66061
5.62733
5.59236
5.55582
5.51755
5.47777
5.43619
5.39303
5.34855
5.30321
5.25708
5.21029
6.43163
6.46019
6.4875
6.51329
6.53788
6.5613
6.5833
6.60374
6.62255
6.63975
6.65535
6.66942
6.68197
6.69308
6.70262
6.71076
6.71747
6.7227
6.72644
6.72868
6.72948
6.7289
6.72695
6.72367
6.71898
6.71288
6.70533
6.69638
6.68605
6.6743
6.66109
6.64635
6.63009
6.61235
6.59318
6.57258
6.55053
6.52699
6.50196
6.47552
6.44779
6.41886
6.38892
6.35803
6.32625
6.2935
6.25959
6.22446
6.18805
6.15036
6.11126
6.0706
6.02835
5.98442
5.93874
5.89115
5.84183
5.7911
5.73943
5.68685
5.63376
6.96172
6.98397
7.0048
7.02408
7.04171
7.05779
7.07232
7.08525
7.09687
7.10718
7.11599
7.12333
7.12923
7.13359
7.13645
7.13793
7.13787
7.13628
7.1331
7.12832
7.12206
7.11444
7.10554
7.09541
7.08396
7.07114
7.05697
7.0415
7.02482
7.00691
6.98773
6.9671
6.945
6.92146
6.89661
6.87038
6.84269
6.81352
6.78275
6.75045
6.7168
6.68193
6.64612
6.6096
6.57249
6.53481
6.4962
6.45667
6.41613
6.3747
6.33201
6.28786
6.24234
6.19517
6.14626
6.09515
6.04232
5.98787
5.93253
5.87624
5.81954
7.31621
7.33048
7.3432
7.35449
7.36409
7.372
7.37836
7.38299
7.38603
7.38758
7.38781
7.3867
7.38414
7.38008
7.3745
7.3676
7.3593
7.34942
7.33781
7.32444
7.30953
7.29329
7.27589
7.25746
7.23783
7.21689
7.19468
7.17127
7.14696
7.12184
7.09589
7.06869
7.04027
7.01054
6.97977
6.94781
6.91442
6.87962
6.84318
6.8051
6.76555
6.72462
6.68276
6.64041
6.59784
6.55536
6.51218
6.46868
6.42449
6.38017
6.33491
6.28823
6.24058
6.19141
6.14075
6.08749
6.03254
5.97571
5.91844
5.86003
5.80131
7.50747
7.51211
7.51524
7.5168
7.51668
7.51482
7.51121
7.50608
7.49934
7.49081
7.48096
7.47003
7.45773
7.44393
7.42853
7.41209
7.39463
7.37559
7.35465
7.33158
7.30678
7.28076
7.25366
7.2259
7.19719
7.16711
7.13577
7.10309
7.06986
7.03643
7.00319
6.96902
6.93426
6.89838
6.86217
6.82507
6.78634
6.74637
6.70485
6.66171
6.6169
6.57027
6.52253
6.47434
6.42619
6.37917
6.33133
6.28419
6.23661
6.19045
6.14395
6.09568
6.04708
5.99706
5.94624
5.89179
5.83617
5.77805
5.7207
5.6617
5.6028
7.52937
7.52259
7.51417
7.50464
7.49341
7.4808
7.46611
7.45089
7.43421
7.41492
7.39435
7.37334
7.35087
7.32704
7.30093
7.27411
7.24763
7.21985
7.19016
7.15727
7.12188
7.0858
7.04851
7.01075
6.97297
6.93377
6.89323
6.85018
6.80636
6.76307
6.72219
6.68065
6.64007
6.59868
6.5586
6.51853
6.4756
6.43076
6.38521
6.33903
6.29064
6.23957
6.18695
6.1335
6.07987
6.02922
5.97652
5.92618
5.87513
5.82855
5.7829
5.73409
5.68583
5.63631
5.58727
5.53248
5.47775
5.41918
5.36391
5.30616
5.2495
7.36899
7.34838
7.32445
7.30176
7.27625
7.25313
7.22571
7.20109
7.1763
7.14857
7.11895
7.08991
7.05839
7.0267
6.98981
6.95079
6.91559
6.88153
6.84774
6.80914
6.76235
6.71812
6.67213
6.62386
6.57727
6.53051
6.48484
6.43326
6.37617
6.32052
6.27127
6.22126
6.17487
6.12857
6.08874
6.05089
6.00711
5.95717
5.90817
5.86215
5.81485
5.7619
5.70569
5.64924
5.59135
5.53906
5.4807
5.42758
5.37179
5.32752
5.2856
5.23682
5.19083
5.14421
5.09966
5.04509
4.99287
4.93404
4.88303
4.82871
4.77752
3.67361
3.72186
3.7714
3.82225
3.87444
3.92812
3.98321
4.03984
4.09776
4.1569
4.21735
4.27867
4.34078
4.40622
4.48665
4.56181
4.63511
4.70909
4.78381
4.85942
4.93596
5.01347
5.09184
5.17101
5.25079
5.33093
5.4113
5.49172
5.57199
5.65177
5.73097
5.80926
5.88624
5.96169
6.03526
6.10638
6.17458
6.23922
6.29607
6.33773
6.36619
6.38222
6.38578
6.37624
6.35259
6.31344
6.25693
6.18075
6.08223
5.95822
5.80499
5.61811
5.39261
5.12177
4.79249
4.23953
3.98129
3.84726
3.79309
3.768
3.71839
4.45711
4.42173
4.38557
4.34874
4.31128
4.27389
4.23635
4.19942
4.16261
4.12629
4.09121
4.05128
4.0074
3.966
3.91982
3.875
3.83032
3.78555
3.74116
3.69745
3.65442
3.61181
3.56951
3.52748
3.48564
3.444
3.40256
3.36144
3.32064
3.28023
3.24034
3.20107
3.16257
3.12504
3.08874
3.05397
3.02113
2.99083
2.96365
2.94138
2.92138
2.90377
2.88887
2.87727
2.86987
2.86758
2.87142
2.88268
2.90282
2.93307
2.97467
3.0287
3.09636
3.18004
3.26894
3.40323
3.57666
3.84391
4.22188
4.71514
5.06222
5.16302
5.11525
5.0667
5.01706
4.96633
4.91504
4.86353
4.81227
4.76087
4.70926
4.65483
4.59227
4.52997
4.47106
4.41233
4.35426
4.29554
4.23611
4.17633
4.11664
4.0571
3.99746
3.93768
3.87773
3.8175
3.75702
3.69626
3.63521
3.57383
3.51211
3.45004
3.38763
3.32491
3.26193
3.19875
3.13547
3.0722
3.00905
2.94617
2.88379
2.82188
2.76013
2.69906
2.63949
2.58174
2.52639
2.47428
2.42665
2.38512
2.35183
2.32956
2.32183
2.3333
2.36947
2.43319
2.53571
2.68033
2.89687
3.229
3.72774
4.34826
5.58031
5.5268
5.47263
5.41745
5.36086
5.3037
5.24631
5.18938
5.13229
5.07447
5.01036
4.94007
4.8721
4.80772
4.74451
4.68211
4.61936
4.55638
4.49327
4.43037
4.3676
4.30451
4.24124
4.17781
4.1141
4.05018
3.98598
3.9215
3.85662
3.79131
3.72553
3.65931
3.59266
3.52565
3.45831
3.39073
3.32297
3.25508
3.18705
3.11893
3.05065
2.98218
2.9129
2.84268
2.7722
2.70158
2.63106
2.56106
2.49227
2.42576
2.36297
2.30603
2.25787
2.22226
2.20292
2.20591
2.23916
2.31981
2.47661
2.75203
3.17665
5.76244
5.70573
5.64859
5.59055
5.5306
5.47001
5.40912
5.34904
5.28871
5.22737
5.15824
5.0852
5.01528
4.94901
4.88391
4.81965
4.75522
4.69136
4.62787
4.56497
4.50229
4.43903
4.37563
4.3122
4.24848
4.18464
4.12053
4.05615
3.99129
3.92594
3.86007
3.79379
3.72713
3.66022
3.59312
3.52594
3.45876
3.39164
3.32457
3.25757
3.19063
3.12378
3.05689
2.98943
2.92114
2.85218
2.78259
2.71246
2.64192
2.57133
2.50107
2.43177
2.36438
2.30016
2.2407
2.1889
2.1506
2.13628
2.16236
2.25354
2.44022
5.74185
5.68356
5.62515
5.56607
5.50412
5.44149
5.37818
5.31641
5.25449
5.19195
5.12084
5.04789
4.97832
4.91283
4.84792
4.78383
4.71945
4.65667
4.59476
4.53398
4.47353
4.41194
4.35054
4.28947
4.22803
4.16664
4.10486
4.04286
3.98015
3.91691
3.85304
3.78891
3.72453
3.66017
3.5958
3.53164
3.46774
3.4042
3.341
3.27821
3.21582
3.15391
3.09247
3.03137
2.97016
2.90832
2.84585
2.78282
2.71928
2.65529
2.59097
2.52636
2.46147
2.39633
2.33081
2.26553
2.20281
2.14783
2.10933
2.10051
2.14007
5.54186
5.48339
5.42521
5.36719
5.30428
5.24089
5.17598
5.11411
5.05229
4.99108
4.91989
4.84897
4.7813
4.71893
4.65592
4.59404
4.53105
4.47119
4.41244
4.35539
4.2987
4.23978
4.18196
4.12535
4.068
4.01089
3.95295
3.89503
3.83583
3.77614
3.7156
3.65528
3.59489
3.53503
3.47534
3.41627
3.35766
3.29985
3.24268
3.18642
3.13091
3.07642
3.02285
2.97018
2.91819
2.86651
2.81432
2.76163
2.70858
2.65528
2.6018
2.54813
2.49409
2.43928
2.3831
2.32495
2.26493
2.20469
2.1479
2.10086
2.0734
5.18778
5.13011
5.07375
5.01942
4.95685
4.89431
4.82857
4.7685
4.7087
4.65154
4.58151
4.51387
4.44898
4.39181
4.33176
4.27391
4.21317
4.15783
4.1035
4.05101
3.99896
3.94278
3.88957
3.83975
3.78781
3.73595
3.6823
3.62959
3.57424
3.51869
3.46181
3.40656
3.35127
3.2976
3.24389
3.19147
3.13932
3.08868
3.03903
2.99113
2.94427
2.89911
2.85541
2.81287
2.7714
2.73102
2.69058
2.64961
2.60855
2.56762
2.52712
2.48701
2.44715
2.40703
2.36596
2.32301
2.27745
2.22908
2.17876
2.12877
2.08337
4.71589
4.65867
4.60618
4.55845
4.49779
4.43757
4.37141
4.31574
4.2604
4.20972
4.14193
4.07803
4.01579
3.96576
3.90883
3.85684
3.79854
3.74947
3.70034
3.65175
3.6043
3.54981
3.50209
3.46301
3.41673
3.36873
3.3184
3.2718
3.21901
3.16704
3.11258
3.06409
3.01425
2.96832
2.92077
2.87583
2.82929
2.78644
2.74509
2.707
2.67002
2.63528
2.60255
2.57112
2.5398
2.50916
2.47903
2.44816
2.4188
2.38981
2.3636
2.33844
2.31507
2.29185
2.26864
2.24407
2.21754
2.188
2.15544
2.11953
2.08165
3.62589
3.52238
3.4099
3.28954
3.16701
3.04575
2.92857
2.81909
2.72049
2.63486
2.56308
2.5051
2.45995
2.42611
2.40173
2.38498
2.37409
2.36776
2.36493
2.36472
2.36653
2.36993
2.37459
2.3804
2.38724
2.39502
2.40375
2.41337
2.42388
2.43524
2.44738
2.46027
2.47379
2.48782
2.50219
2.51674
2.53126
2.54552
2.55928
2.57233
2.58443
2.59534
2.60493
2.61312
2.61989
2.62538
2.62975
2.63326
2.63628
2.63925
2.64256
2.64651
2.65134
2.65726
2.66415
2.67185
2.68
2.68834
2.69632
2.70331
2.7088
5.05956
4.9894
4.87067
4.69871
4.50632
4.29585
4.06575
3.8227
3.57545
3.33223
3.09944
2.88363
2.68863
2.5157
2.36528
2.23861
2.13503
2.05155
1.98491
1.93239
1.89149
1.85997
1.83592
1.81781
1.80488
1.79586
1.79063
1.78864
1.78965
1.79342
1.79975
1.8084
1.81914
1.83167
1.84565
1.86069
1.87636
1.89223
1.90775
1.92234
1.9353
1.94589
1.95323
1.95639
1.95458
1.94715
1.93369
1.91427
1.88956
1.86091
1.83026
1.79998
1.77268
1.7506
1.73514
1.72711
1.72599
1.73059
1.73855
1.74733
1.75476
4.85794
5.22391
5.43027
5.45004
5.32032
5.12571
4.86844
4.57147
4.25302
3.9251
3.59986
3.28901
3.00011
2.73839
2.50711
2.30773
2.13876
1.99588
1.87649
1.77959
1.70269
1.64286
1.59702
1.56236
1.53631
1.51735
1.50398
1.49538
1.4908
1.48965
1.49149
1.49588
1.50235
1.51038
1.51947
1.52913
1.53885
1.54808
1.55627
1.56281
1.56708
1.5685
1.56648
1.5605
1.55004
1.53468
1.5141
1.48823
1.4573
1.42203
1.38385
1.34505
1.30875
1.27845
1.25747
1.24878
1.25386
1.27282
1.3042
1.34557
1.39398
3.71005
4.30097
4.87064
5.31656
5.5475
5.59745
5.4816
5.23541
4.92094
4.55998
4.17939
3.80415
3.44659
3.11791
2.82352
2.56362
2.33549
2.13778
1.96919
1.82883
1.71476
1.62465
1.55522
1.50277
1.46359
1.43503
1.41488
1.40161
1.39395
1.39088
1.3917
1.39577
1.4024
1.41084
1.42039
1.43036
1.44004
1.44876
1.45578
1.46036
1.46177
1.45933
1.4524
1.44047
1.42309
1.40005
1.37131
1.33708
1.29772
1.25395
1.20696
1.15872
1.11207
1.07094
1.04025
1.02557
1.03109
1.0587
1.10793
1.1766
1.26129
2.7426
3.17114
3.71254
4.31026
4.86363
5.29246
5.54329
5.58909
5.46386
5.19734
4.83722
4.44484
4.04066
3.65048
3.29051
2.96376
2.672
2.4135
2.18985
2.00091
1.84482
1.71987
1.62269
1.54872
1.4931
1.45199
1.42252
1.40251
1.39016
1.38393
1.38286
1.38616
1.39297
1.40234
1.41338
1.42524
1.43709
1.44808
1.45736
1.46404
1.46723
1.46613
1.45998
1.44816
1.43008
1.40551
1.37437
1.33688
1.29334
1.24447
1.1913
1.13561
1.08001
1.02824
0.985971
0.960728
0.959488
0.987609
1.04728
1.13661
1.25038
2.24979
2.45341
2.7705
3.20561
3.73137
4.29274
4.81342
5.21065
5.4341
5.4697
5.33044
5.05962
4.69159
4.2823
3.87838
3.4895
3.13283
2.81019
2.52003
2.26885
2.0593
1.89061
1.75894
1.65818
1.58168
1.52416
1.48199
1.45238
1.43295
1.4215
1.41673
1.41771
1.42343
1.43273
1.44455
1.45787
1.47173
1.48515
1.49717
1.50675
1.51289
1.51471
1.51132
1.502
1.486
1.46302
1.43287
1.39575
1.35182
1.30169
1.24627
1.18721
1.12692
1.06886
1.01852
0.983986
0.973918
0.997207
1.05998
1.16232
1.29862
2.07917
2.13589
2.26422
2.48426
2.80783
3.23146
3.72778
4.24312
4.70937
5.06032
5.24922
5.26445
5.12306
4.85696
4.5111
4.1117
3.71324
3.33262
2.96742
2.64048
2.36132
2.13446
1.95712
1.82032
1.71557
1.63545
1.57546
1.53213
1.50242
1.48303
1.4722
1.46877
1.47161
1.47928
1.49052
1.50415
1.51902
1.53406
1.54813
1.56013
1.5689
1.57356
1.57309
1.56674
1.55352
1.53315
1.50528
1.47017
1.42776
1.37871
1.32377
1.26458
1.20342
1.14343
1.08972
1.05004
1.03396
1.05273
1.11619
1.22773
1.38267
2.0495
2.03728
2.06039
2.13562
2.28068
2.51031
2.83078
3.23218
3.68618
4.14406
4.54634
4.84051
4.99659
5.00231
4.87169
4.62775
4.30722
3.93814
3.52232
3.12242
2.75971
2.45855
2.22297
2.04005
1.89804
1.78723
1.70203
1.63896
1.59473
1.56393
1.5442
1.53384
1.53167
1.53589
1.54498
1.55752
1.57218
1.58773
1.60288
1.61637
1.62702
1.63393
1.636
1.6325
1.62215
1.60468
1.57965
1.54729
1.50743
1.46073
1.40787
1.35048
1.29065
1.23136
1.1775
1.13637
1.11764
1.13418
1.19867
1.31806
1.48916
2.0446
2.01288
1.99418
1.99864
2.03926
2.13078
2.28736
2.51866
2.82462
3.19361
3.59185
3.98335
4.32487
4.58071
4.72009
4.73363
4.62303
4.39408
4.08117
3.6825
3.24686
2.8709
2.57265
2.33548
2.1435
1.98998
1.86912
1.77893
1.71429
1.66713
1.63482
1.61416
1.60417
1.60276
1.6078
1.61764
1.63073
1.64556
1.66068
1.67447
1.68619
1.69448
1.69856
1.69747
1.68996
1.67539
1.65371
1.62431
1.58772
1.54395
1.49435
1.43999
1.38305
1.32668
1.27489
1.23479
1.21612
1.23294
1.29905
1.42523
1.6088
0.299805
6.69868
6.37962
0.218208
0.36728
0.127082
0.00315841
2.46292
0.00338408
0.0233821
3.33414
1.08047
0.00316035
6.11247
0.111422
5.31251
0.00326222
2.56771
3.64
0.00315329
0.21711
5.93459
6.49031
0.00329563
0.00333748
0.105108
0.00315558
0.51838
0.00324848
0.00346327
0.735239
0.00324072
0.0163025
2.48062
0.792099
3.41182
2.54147
1.56005
0.00316332
2.57019
1.87173
2.05767
0.00320986
4.59666
3.20578
0.282619
0.0036092
0.0152965
0.132282
1.10382
6.68018
7.80506
0.00310524
0.00405769
0.0370746
0.00817884
0.00345431
0.682679
2.41386
7.51014
2.49259
0.00370468
0.138984
0.0320088
6.55857
0.464301
1.98032
1.77088
0.00430696
0.00321304
1.22323
2.49427
1.70531
0.0154379
0.0391503
3.98867
6.95663
3.19071
0.00310626
0.940867
0.00713267
2.56154
0.0105295
4.68302
0.00321787
1.06379
0.00336684
2.20771
0.0147208
0.00492756
0.119576
0.00310238
0.00379046
7.6797
5.48718
0.00360075
0.441518
0.311565
0.00603337
6.53707
0.221506
2.5614
0.726747
0.00309898
0.00316397
0.00309552
0.299973
0.125171
0.0032386
6.06161
6.72861
0.00924088
4.61385
1.51651
2.60954
2.70105
1.7837
0.00389622
0.08576
0.00419149
0.00437887
3.46663
0.00736842
7.32961
7.76244
1.00861
0.00321487
1.012
1.02446
0.00321058
0.0340837
0.0335659
1.71231
0.00571327
3.0091
0.00322034
0.00315906
7.69675
7.87993
0.00323117
0.169623
5.60847
0.103995
0.303999
1.57015
4.77927
0.0382683
1.65627
0.0121232
7.18595
1.23714
0.00862204
2.73515
4.62297
6.30104
0.00330607
0.00327091
0.216861
0.00311437
1.95145
0.0295668
0.00510347
0.00319676
0.00321981
0.00323672
2.772
1.80973
1.55124
0.00331271
6.86695
4.82584
3.14604
4.90782
0.0139365
3.69881
1.65756
1.89685
0.00324345
0.0057024
2.89354
3.07513
2.11615
3.68303
0.00321645
0.00352682
4.93096
0.0361525
0.570527
0.00323797
0.00360507
0.104986
0.00338659
7.85493
0.667415
0.00310426
0.255389
1.81449
5.493
0.0044782
1.93025
0.00321877
0.00323452
4.8163
2.3226
7.39271
0.00452185
0.0034
0.00761403
2.65228
2.21016
1.06885
5.0891
1.58042
6.8419
0.186238
4.20736
4.01198
2.01362
1.36057
2.30832
0.00490724
0.0371088
0.00322622
0.00319593
1.82138
0.0182481
0.0202624
0.00575763
0.0130793
2.69528
4.67958
0.0188792
6.0458
1.06948
0.397535
0.00318315
0.163136
2.70404
1.01907
0.00412709
1.18337
1.17179
0.178307
0.262129
7.20653
0.764315
0.484446
5.04134
0.00383463
0.00315924
0.00404565
0.0104695
1.75091
0.00336186
0.0065699
0.00316332
0.381747
3.9593
3.94062
2.74626
1.27934
1.43052
7.63779
0.0043279
2.08075
4.49358
0.0032102
1.9636
0.00321731
4.03427
0.379919
1.52501
0.00535352
0.00322041
1.86995
0.511318
0.00323896
0.00323845
0.00325274
0.00324558
0.362285
1.58859
2.90121
0.0146414
0.00324061
0.00316325
0.00309703
4.61841
0.233877
0.00448326
1.60563
0.0881466
0.0407037
0.00309071
0.264788
0.00323973
0.0522545
1.45719
4.74237
0.295807
0.00391712
0.00598246
3.18047
0.140503
1.94014
7.56807
0.00350545
0.00319765
0.00318721
5.69192
0.00331521
4.79284
0.00322176
1.86691
1.20148
0.026931
2.9377
3.95115
0.00469271
2.72882
2.6419
1.64063
4.61735
1.13501
7.89198
2.45604
3.85348
3.62584
4.3919
1.69692
0.158183
7.77603
7.30539
3.00995
2.13392
0.00393214
7.08388
2.73986
6.7551
0.0276144
0.00359358
0.00321483
0.0034292
0.172555
0.424683
0.734338
0.0925839
0.00317258
6.00094
0.00321549
1.46469
1.86859
6.29799
2.64942
1.78441
0.00599895
0.00426523
0.0876226
2.77026
0.0103786
0.72521
5.24482
2.05341
4.0432
6.35605
3.27878
0.00346643
7.29852
5.4696
1.73271
0.00323613
6.42131
5.6724
0.00333687
1.98161
0.00323998
6.87585
5.62099
1.87769
4.06891
2.51157
5.60231
0.00328849
5.58593
0.00387363
3.62068
3.90508
1.91075
7.27085
0.71918
0.214541
0.552274
0.00424791
4.27306
0.136817
0.00814951
0.00503876
4.52001
0.00384071
4.25305
0.00319025
0.00323688
0.00598777
1.7641
0.105236
1.77614
0.00575466
4.1266
0.164122
6.80689
4.35871
2.55643
6.30447
0.00337724
7.26738
2.8429
0.00321333
3.83571
1.98411
0.0031005
0.00316729
3.38588
0.00646737
1.98926
0.0872546
2.33034
0.0269039
0.590036
2.5698
4.95403
2.32937
4.06327
3.60821
0.00393123
0.0214821
1.68583
1.72837
7.5593
6.55079
5.49262
0.0657437
5.05319
5.03049
0.487106
1.72902
2.78227
1.99814
0.00346751
4.02905
7.88771
0.00416949
4.39496
1.86338
2.80889
0.0242955
0.0680981
6.28491
0.00600693
7.55578
0.00462941
0.257815
0.0032037
0.97995
2.29557
0.231745
0.00480986
0.00368989
2.67819
1.61695
0.0880756
0.415605
5.94564
4.06657
0.00446259
1.44155
1.65846
3.20041
1.51352
4.17473
1.95772
5.3624
3.16875
0.487823
0.989916
7.42327
1.89759
7.68663
5.98749
0.0318746
3.40982
2.83085
0.00337111
1.80874
1.60668
1.34006
0.0173114
4.72776
1.4508
0.679299
1.89944
0.00544532
0.00321545
0.0462031
2.39315
4.68937
2.59726
0.00322152
0.00318742
0.00321746
1.71919
0.0275145
0.00321635
0.124284
4.42788
5.02228
0.010576
0.0108018
0.00315328
0.00320522
0.00602887
1.70818
1.73425
1.6895
0.459615
7.64841
5.91829
0.00525024
3.43742
1.8378
1.94343
3.91136
7.47503
0.00345715
0.0105306
0.00324065
3.835
0.241217
0.00316857
1.3638
0.162521
7.47279
0.0032386
7.8124
1.11574
0.0480688
6.46426
0.00323464
0.00319817
0.00405083
7.81283
3.17936
5.20778
5.06291
1.03224
1.76134
0.00312451
0.00604771
0.0874454
0.0138856
0.0252421
1.95761
2.14791
0.00322604
1.27004
1.83496
6.24966
7.80637
0.00827295
7.76413
0.00593495
0.0304712
3.56479
0.00320434
5.49491
0.00324117
0.00337215
0.0220655
2.13195
0.629503
2.54258
1.87066
0.00365982
1.76707
4.61359
0.0555003
0.212041
0.850903
0.0033194
0.0032706
0.00692989
5.26857
0.532203
0.00335026
7.37743
6.03084
6.67248
0.0344291
2.03631
0.00419611
2.33601
0.165188
0.0914989
2.66336
1.6678
1.89615
6.02745
0.00327677
0.00313075
0.0105632
4.09707
4.5764
0.971294
0.0139314
0.00333217
0.00324212
0.00886809
0.0237308
0.0066342
2.18334
1.73975
0.0115478
1.57247
6.02834
0.00327238
2.38772
0.00321765
0.523666
0.00324485
0.0222587
2.49485
0.0201793
0.00320626
0.763188
7.93802
7.28238
0.00318741
0.0032617
0.384291
0.024657
0.003217
4.48761
0.00370865
1.67413
7.90149
2.33785
1.69691
2.43426
3.69625
7.57711
0.00323184
0.00743098
0.014691
4.22697
1.43836
6.54291
0.709772
0.365318
4.29552
3.62734
5.18712
0.750669
2.82266
0.00322303
0.352928
1.65243
2.47851
3.95262
1.97922
0.231083
2.46159
0.101997
0.00915294
1.7244
0.00324222
5.79869
0.00366397
0.373239
7.36164
2.72206
0.553005
0.0074317
0.742193
0.00330327
0.00319213
0.107137
0.022606
1.76619
0.0154384
1.74611
0.00322168
0.0281169
0.00316553
4.40524
0.00503669
4.09915
2.49799
0.0220908
1.91382
7.66135
0.00326126
1.70975
4.46019
0.00335225
7.32216
0.060472
0.00347261
0.0033936
7.40903
0.00317845
0.00429723
0.0872907
0.100133
7.20664
7.22488
0.00322116
0.00327063
1.13218
2.2395
0.0146598
0.255593
1.99829
0.00321848
0.00384374
0.00372595
5.9396
7.20285
0.482194
7.30145
0.0262104
1.60723
0.00331706
0.0148604
0.0250066
0.036045
0.00323148
6.97039
0.0032012
0.0251581
0.00332249
0.255696
0.0226198
0.015766
0.438267
0.665531
2.2882
0.397812
1.05043
1.82424
5.07416
0.00344169
4.85386
7.72477
1.10125
3.89859
0.00327765
4.33908
3.91299
0.00321736
7.52711
2.32181
0.0082754
0.0113752
5.75362
5.55197
0.0621102
7.59424
7.45331
0.799493
7.40073
7.35041
4.80664
1.93164
1.7218
1.02906
7.2651
7.58193
0.0220524
7.54123
2.60921
4.35973
0.00343228
0.33341
0.387721
6.69664
5.90858
0.0203251
4.25077
6.30398
0.47742
0.0333089
0.376226
1.81518
0.00537064
1.85188
7.00902
0.0338231
6.64921
1.32415
4.34478
6.28629
0.00322358
0.00565017
1.04596
0.687873
0.0181117
0.00321901
0.187997
0.258045
0.00451879
0.0032365
4.21186
0.97202
3.03705
0.986955
0.00866782
0.00418068
0.0965327
3.38473
0.00346618
1.79562
1.67974
0.481259
2.30115
0.00397935
0.116231
0.00320284
0.343008
4.20992
0.00436885
0.118963
2.10772
5.93173
0.225698
3.88505
0.581534
0.173194
0.00392847
2.30547
7.84718
0.00321245
0.00328037
5.57581
0.0246442
0.00323566
3.72805
0.244042
1.91669
2.00913
1.46357
0.145314
1.71238
3.50454
5.90841
4.43464
0.00327801
5.64999
0.00389415
2.53807
0.00339154
0.00454746
2.11465
0.00654586
3.87959
0.0207329
0.0399405
1.82338
0.711342
0.0615445
0.00368328
6.26486
0.00365213
0.00315129
7.86576
5.82747
2.76491
1.93307
0.00344054
0.00307394
1.85391
5.57716
0.00319988
6.76834
1.66312
0.00324453
5.85995
0.00311417
0.35616
0.907792
1.35717
0.352526
1.58566
1.95878
0.00311034
7.27675
7.5584
0.0032173
0.0166968
1.92723
0.00312838
6.86854
5.43116
4.39104
0.0032194
0.00317036
3.53953
0.0407886
0.00350094
1.78735
1.70793
4.21033
0.00315221
0.00337487
0.0244458
0.0194529
0.00321821
0.00640061
5.06565
2.87906
0.00322373
1.29532
0.00321525
0.708895
0.00420152
0.00359386
2.19804
0.00326447
0.123227
0.00317608
2.92733
0.173624
1.66798
6.14177
4.37256
3.65509
0.803376
1.21343
0.0032355
0.931534
7.28131
4.05855
0.107187
0.0034725
5.18099
0.00321553
0.0297043
0.00315433
7.23888
0.783558
0.367113
6.4678
2.17485
0.483145
4.04089
0.706427
6.66647
4.41048
0.00331426
0.00326842
0.00824056
0.00322689
0.0228696
4.49243
0.00377065
7.20519
0.00602732
0.0784635
0.573081
4.6777
0.00486099
2.65103
0.0168229
3.19694
2.35068
7.02513
0.0033897
0.00383402
0.263485
3.56286
1.7141
3.58298
0.41375
1.05079
1.62473
0.0504629
1.05871
0.253298
1.68392
0.00328152
4.33568
0.416994
3.0507
0.0033681
2.96354
0.979115
0.00462938
1.63331
1.77732
0.0656776
0.00314561
0.00321949
4.89387
2.73226
1.37378
0.00320954
0.0176606
1.99809
6.18655
0.460387
0.0126714
0.00322217
5.59117
5.21542
2.08078
2.55718
0.00321522
3.4728
7.50332
0.0032112
0.00321798
1.21712
0.00411768
0.0099182
0.0311224
1.91511
0.00409435
2.21291
7.66837
0.00319932
0.00345612
0.00316674
0.00331016
3.63521
4.63122
7.84511
0.029138
2.30894
2.20257
0.087206
2.81493
0.00347105
1.68871
0.222635
2.08041
0.672403
1.64342
3.07165
0.025448
0.00323914
5.77961
4.42039
4.70442
0.902211
1.77556
0.173225
1.66317
0.00930186
0.00485058
3.42048
5.46891
0.0214151
0.127866
0.00324703
0.0783393
1.87003
0.0275358
1.01562
0.716149
3.78683
2.14032
0.438584
6.93447
5.31736
2.95129
1.60318
4.22542
3.545
0.557406
2.60589
0.00619776
2.72473
2.87775
0.00320423
0.00313331
0.123833
0.00322819
0.00332374
3.01423
4.35893
0.00322102
3.24375
0.00321627
0.00319277
0.00321823
0.00325721
0.00594516
1.94069
2.7594
7.01507
0.00315597
0.00391366
0.942156
0.00356196
0.0330276
0.00324575
0.00361049
4.37332
0.00391836
0.0109945
2.80286
0.0105109
0.00322014
3.95271
0.00321509
0.00326889
0.244623
0.0036109
0.940994
0.00455934
0.0302747
0.00320442
0.00325282
7.49653
7.69679
2.71041
0.0266367
2.91832
1.51119
0.00471568
1.77186
4.16955
6.81086
4.5709
0.00312366
2.006
2.48101
0.147082
1.73939
4.46662
0.174276
2.05636
0.205639
1.71658
0.0374828
1.01726
0.00323495
6.83989
0.00328436
1.79495
2.40101
0.00321549
0.315184
0.00734089
0.0201698
0.00317382
0.770714
0.0036719
0.00321936
2.52481
0.00860739
0.110916
6.75299
1.89973
0.00345065
0.00386953
2.33123
7.16514
0.00309257
0.00324842
0.0716514
1.34332
5.41827
0.00657853
1.60949
0.00321924
0.00344923
0.00314624
0.0349716
0.998018
0.0101249
6.60375
1.81024
7.14481
6.02824
0.00352625
7.46241
3.62658
0.003179
0.0032263
0.00321815
0.00440398
0.00320335
3.75585
0.00320823
0.0032424
6.82678
0.32036
0.00778981
0.0226246
1.94302
0.903407
0.00809591
0.00346392
6.21993
0.00324547
0.813969
0.00325929
0.00353052
5.86249
5.9547
0.00874738
0.00350161
0.324323
0.00320675
6.88066
0.00325288
5.67387
0.0254513
0.721021
0.0354245
0.368704
0.360784
1.49019
0.0032429
0.00357386
0.0116227
3.30107
0.120675
7.46543
0.00322066
0.00456992
0.00557355
7.11755
2.72558
3.05489
0.00692886
0.00896737
0.20833
0.00322393
1.23686
2.42013
0.0170594
5.98085
6.0337
1.91008
0.00534979
0.385726
2.84934
6.84654
1.80165
0.0188204
3.07508
0.0601751
5.29772
0.0917302
0.519292
2.65747
0.00324366
1.76487
0.00456115
0.0119218
0.00822508
0.0503728
0.00371109
1.27744
0.00322723
3.07574
0.096031
0.00361264
0.232838
0.00323206
0.285472
0.117651
2.30937
0.456788
4.5953
0.240205
0.00321737
0.0031927
0.743791
0.0920437
2.75756
7.16987
0.00322455
3.8737
2.60386
0.0233234
1.98999
0.5517
2.35505
2.1535
0.0331325
0.00590639
7.22502
1.53397
5.72977
0.00321109
1.6558
0.00321621
1.30702