/*--------------------------------*- C++ -*----------------------------------*\
| =========                 |                                                 |
| \\      /  F ield         | OpenFOAM: The Open Source CFD Toolbox           |
|  \\    /   O peration     | Version:  2.3.1                                 |
|   \\  /    A nd           | Web:      www.OpenFOAM.org                      |
|    \\/     M anipulation  |                                                 |
\*---------------------------------------------------------------------------*/
FoamFile
{
    version     2.0;
    format      ascii;
    class       volScalarField;
    location    "0.5";
    object      p;
}
// * * * * * * * * * * * * * * * * * * * * * * * * * * * * * * * * * * * * * //

dimensions      [0 2 -2 0 0 0 0];

internalField   nonuniform List<scalar> 
9648
(
0.0240594
-0.214868
-0.505307
-0.859707
-1.29022
-1.8068
-2.42069
-3.14055
-3.97453
-4.94082
-6.05067
-7.31661
-8.75072
-10.3638
-12.166
-14.1687
-16.3794
-18.8067
-21.4548
-24.3299
-27.4373
-30.7743
-34.3402
-38.1264
-42.1263
-46.3294
-50.7244
-55.3047
-60.0541
-64.9705
-70.0329
-75.232
-80.5514
-85.9641
-91.4541
-96.9932
-102.565
-108.15
-113.722
-119.26
-124.743
-130.165
-135.485
-140.695
-145.784
-150.719
-155.488
-160.074
-164.482
-168.682
-172.634
-176.343
-179.812
-183.01
-185.938
-188.582
-190.928
-192.983
-194.722
-196.159
-197.281
0.596265
0.35267
0.0619183
-0.288974
-0.712209
-1.21158
-1.79939
-2.48985
-3.29499
-4.22451
-5.28962
-6.50151
-7.8708
-9.40794
-11.1243
-13.0303
-15.1324
-17.437
-19.95
-22.6763
-25.6211
-28.7848
-32.1636
-35.7499
-39.536
-43.5142
-47.675
-52.0104
-56.5057
-61.157
-65.9477
-70.8669
-75.9008
-81.0227
-86.2153
-91.4567
-96.728
-102.01
-107.279
-112.517
-117.704
-122.826
-127.856
-132.781
-137.583
-142.239
-146.736
-151.054
-155.182
-159.112
-162.836
-166.336
-169.599
-172.614
-175.366
-177.851
-180.05
-181.974
-183.6
-184.93
-185.949
0.415981
0.194175
-0.0720268
-0.393037
-0.776719
-1.24031
-1.79099
-2.44053
-3.19972
-4.08224
-5.09832
-6.25922
-7.5747
-9.05588
-10.7149
-12.5608
-14.6002
-16.8374
-19.2767
-21.9252
-24.7882
-27.8669
-31.1572
-34.6493
-38.3364
-42.2111
-46.2679
-50.4932
-54.8795
-59.4157
-64.0898
-68.8915
-73.8009
-78.7978
-83.863
-88.9782
-94.1255
-99.2839
-104.432
-109.551
-114.622
-119.628
-124.549
-129.367
-134.066
-138.625
-143.03
-147.265
-151.314
-155.164
-158.805
-162.226
-165.42
-168.364
-171.062
-173.492
-175.663
-177.542
-179.138
-180.448
-181.478
0.648934
0.423378
0.155437
-0.163173
-0.541303
-0.989751
-1.51912
-2.14101
-2.86742
-3.71098
-4.68282
-5.79289
-7.05168
-8.47118
-10.0656
-11.8429
-13.8059
-15.9575
-18.302
-20.8478
-23.6054
-26.574
-29.7443
-33.1071
-36.6548
-40.387
-44.2961
-48.3722
-52.5954
-56.9598
-61.4547
-66.0664
-70.7865
-75.5879
-80.4578
-85.3776
-90.3291
-95.29
-100.237
-105.156
-110.029
-114.838
-119.564
-124.19
-128.698
-133.071
-137.293
-141.35
-145.23
-148.917
-152.403
-155.676
-158.727
-161.542
-164.113
-166.429
-168.485
-170.269
-171.778
-173.008
-173.956
0.711504
0.518618
0.28214
-0.00643037
-0.354503
-0.771245
-1.26648
-1.85122
-2.53825
-3.33827
-4.2625
-5.31959
-6.52061
-7.87995
-9.41246
-11.1217
-13.0083
-15.0726
-17.319
-19.7656
-22.4223
-25.2822
-28.3356
-31.5665
-34.9781
-38.5731
-42.3475
-46.2751
-50.3403
-54.5259
-58.8232
-63.2407
-67.7602
-72.3749
-77.063
-81.8022
-86.573
-91.3454
-96.0985
-100.822
-105.501
-110.12
-114.659
-119.102
-123.43
-127.626
-131.677
-135.567
-139.285
-142.819
-146.159
-149.294
-152.217
-154.917
-157.381
-159.599
-161.562
-163.265
-164.709
-165.885
-166.79
0.802186
0.62578
0.409831
0.144774
-0.175927
-0.562559
-1.02455
-1.57302
-2.22133
-2.97836
-3.85594
-4.86071
-6.00746
-7.30809
-8.78139
-10.4246
-12.2314
-14.2045
-16.3536
-18.7012
-21.2614
-24.0153
-26.9457
-30.0435
-33.317
-36.7832
-40.4222
-44.2137
-48.0958
-52.0747
-56.154
-60.3359
-64.6611
-69.0896
-73.61
-78.18
-82.772
-87.3516
-91.8937
-96.4063
-100.879
-105.295
-109.635
-113.884
-118.02
-122.028
-125.896
-129.607
-133.152
-136.521
-139.704
-142.69
-145.474
-148.047
-150.395
-152.504
-154.365
-155.977
-157.343
-158.453
-159.303
0.893179
0.733899
0.53748
0.294262
-0.000692058
-0.358985
-0.789598
-1.30276
-1.91372
-2.62795
-3.46069
-4.41564
-5.50963
-6.75483
-8.17032
-9.74264
-11.4664
-13.3479
-15.3983
-17.6571
-20.1216
-22.76
-25.568
-28.5268
-31.6714
-35.0154
-38.5306
-42.1374
-45.8305
-49.5544
-53.3839
-57.3806
-61.5107
-65.8058
-70.1738
-74.5618
-78.9732
-83.3332
-87.6337
-91.9186
-96.1746
-100.387
-104.519
-108.565
-112.503
-116.315
-119.994
-123.517
-126.882
-130.076
-133.097
-135.925
-138.562
-141.005
-143.235
-145.232
-146.985
-148.496
-149.778
-150.825
-151.619
0.979148
0.837828
0.662991
0.440262
0.171538
-0.15997
-0.561814
-1.03728
-1.61342
-2.28341
-3.07483
-3.97832
-5.0328
-6.21154
-7.56945
-9.07143
-10.7014
-12.5011
-14.4717
-16.626
-19.0011
-21.5064
-24.1893
-27.0248
-30.0386
-33.274
-36.5971
-40.0358
-43.4463
-46.8931
-50.5452
-54.3794
-58.4254
-62.6104
-66.8365
-71.008
-75.2061
-79.2863
-83.2885
-87.3442
-91.3852
-95.409
-99.3167
-103.149
-106.901
-110.501
-113.999
-117.313
-120.5
-123.501
-126.368
-129.016
-131.489
-133.808
-135.933
-137.801
-139.447
-140.831
-142.032
-143.029
-143.756
1.067
0.934186
0.796206
0.578158
0.346426
0.0302139
-0.349023
-0.759477
-1.33372
-1.92378
-2.70941
-3.53094
-4.59779
-5.64645
-6.99007
-8.43093
-9.92687
-11.7053
-13.5707
-15.5962
-17.9465
-20.2192
-22.8511
-25.5447
-28.4083
-31.563
-34.6126
-37.8511
-41.038
-44.1661
-47.7815
-51.5842
-55.5322
-59.6434
-63.6815
-67.3496
-71.3809
-75.1465
-78.817
-82.7325
-86.5149
-90.446
-94.0496
-97.7411
-101.359
-104.634
-108.054
-111.054
-114.131
-116.827
-119.607
-121.977
-124.31
-126.583
-128.585
-130.262
-131.898
-133.058
-134.251
-135.201
-135.793
-198.065
-198.526
-198.668
-198.481
-197.986
-197.173
-196.045
-194.603
-192.836
-190.772
-188.386
-185.694
-182.729
-179.499
-175.993
-172.225
-168.202
-163.952
-159.466
-154.758
-149.861
-144.762
-139.485
-134.041
-128.459
-122.745
-116.887
-110.917
-104.842
-98.6959
-92.4791
-86.212
-79.9163
-73.5922
-67.2679
-60.9457
-54.6489
-48.3895
-42.1758
-36.0247
-29.9477
-23.9683
-18.0837
-12.3145
-6.67459
-1.16641
4.19423
9.39911
14.4331
19.2894
23.9632
28.4436
32.7194
36.7895
40.643
44.2751
47.6806
50.8541
53.7951
56.4992
58.966
-186.657
-187.032
-187.136
-186.936
-186.437
-185.645
-184.553
-183.165
-181.472
-179.481
-177.191
-174.613
-171.782
-168.706
-165.373
-161.785
-157.955
-153.899
-149.619
-145.131
-140.452
-135.586
-130.547
-125.348
-120.002
-114.521
-108.935
-103.249
-97.4674
-91.6095
-85.6872
-79.7161
-73.7111
-67.6844
-61.6521
-55.6237
-49.6153
-43.6408
-37.7117
-31.8405
-26.0408
-20.3283
-14.7104
-9.20049
-3.81103
1.45101
6.57439
11.5485
16.3616
21.0064
25.4762
29.7619
33.8541
37.7498
41.4394
44.9186
48.1801
51.222
54.0408
56.6339
58.9999
-182.21
-182.672
-182.791
-182.602
-182.124
-181.369
-180.295
-178.924
-177.235
-175.244
-172.987
-170.463
-167.664
-164.592
-161.269
-157.71
-153.919
-149.911
-145.692
-141.276
-136.675
-131.897
-126.954
-121.859
-116.621
-111.251
-105.768
-100.187
-94.5171
-88.7736
-82.97
-77.1211
-71.2405
-65.3421
-59.4389
-53.5427
-47.6666
-41.8236
-36.0266
-30.288
-24.6211
-19.039
-13.5516
-8.1709
-2.90722
2.23083
7.23256
12.0876
16.7858
21.3198
25.6813
29.8631
33.8572
37.659
41.2605
44.6566
47.8417
50.8122
53.5654
56.098
58.4102
-174.618
-175.005
-175.093
-174.889
-174.386
-173.569
-172.463
-171.133
-169.544
-167.691
-165.553
-163.151
-160.484
-157.56
-154.39
-150.982
-147.347
-143.496
-139.439
-135.19
-130.76
-126.159
-121.399
-116.489
-111.442
-106.268
-100.983
-95.601
-90.1336
-84.5937
-78.9941
-73.35
-67.6751
-61.9834
-56.2858
-50.5946
-44.9216
-39.2789
-33.6799
-28.1368
-22.6624
-17.269
-11.9673
-6.76814
-1.68123
3.28555
8.12091
12.8155
17.3582
21.744
25.9631
30.0086
33.8747
37.5552
41.0446
44.3351
47.4237
50.3043
52.9756
55.4337
57.6797
-167.419
-167.776
-167.854
-167.655
-167.174
-166.413
-165.401
-164.061
-162.469
-160.633
-158.54
-156.195
-153.601
-150.769
-147.701
-144.407
-140.892
-137.169
-133.247
-129.142
-124.865
-120.425
-115.832
-111.093
-106.222
-101.23
-96.1306
-90.9387
-85.665
-80.3218
-74.9194
-69.4753
-64.0019
-58.5148
-53.0218
-47.535
-42.0647
-36.6225
-31.2227
-25.8765
-20.596
-15.3944
-10.2813
-5.2674
-0.362012
4.43004
9.09347
13.6231
18.0049
22.2366
26.3079
30.2114
33.9431
37.4957
40.8668
44.0461
47.033
49.8172
52.4015
54.7795
56.9543
-159.89
-160.211
-160.263
-160.048
-159.565
-158.818
-157.809
-156.533
-154.998
-153.218
-151.193
-148.924
-146.417
-143.683
-140.726
-137.55
-134.162
-130.57
-126.787
-122.832
-118.713
-114.442
-110.023
-105.463
-100.775
-95.9696
-91.0607
-86.0664
-80.9935
-75.8539
-70.6539
-65.4161
-60.1496
-54.8758
-49.5948
-44.3201
-39.06
-33.8249
-28.6312
-23.4884
-18.4083
-13.4054
-8.48682
-3.66516
1.05141
5.66437
10.1511
14.5121
18.726
22.799
26.7169
30.4723
34.0652
37.4833
40.7334
43.7965
46.6785
49.362
51.8574
54.1501
56.2513
-152.159
-152.441
-152.468
-152.235
-151.751
-151.019
-150.029
-148.782
-147.293
-145.573
-143.619
-141.43
-139.01
-136.379
-133.538
-130.486
-127.227
-123.764
-120.123
-116.321
-112.365
-108.269
-104.033
-99.6559
-95.1563
-90.5401
-85.8271
-81.0362
-76.1706
-71.2391
-66.2441
-61.2155
-56.1603
-51.1078
-46.0454
-40.9917
-35.9502
-30.9279
-25.946
-21.0146
-16.1408
-11.3413
-6.6229
-1.99983
2.52183
6.95182
11.2582
15.4483
19.4893
23.3978
27.1566
30.7592
34.2074
37.4858
40.6125
43.5562
46.3336
48.9125
51.3152
53.5176
55.5432
-144.25
-144.482
-144.486
-144.226
-143.746
-143.028
-142.064
-140.825
-139.367
-137.723
-135.848
-133.734
-131.401
-128.876
-126.165
-123.238
-120.111
-116.773
-113.28
-109.638
-105.846
-101.932
-97.8951
-93.6985
-89.3906
-84.9675
-80.458
-75.8756
-71.2127
-66.4941
-61.6986
-56.8844
-52.0381
-47.2208
-42.3812
-37.5685
-32.766
-27.9485
-23.1791
-18.4782
-13.8063
-9.20977
-4.70497
-0.278719
4.0339
8.28584
12.4041
16.4293
20.283
24.0244
27.6151
31.0522
34.3605
37.4901
40.5024
43.3212
46.0004
48.4602
50.7702
52.8711
54.825
-136.242
-136.396
-136.387
-136.095
-135.625
-134.888
-133.969
-132.666
-131.282
-129.822
-127.954
-125.916
-123.636
-121.2
-118.719
-115.849
-112.848
-109.702
-106.332
-102.864
-99.1571
-95.405
-91.6648
-87.5554
-83.451
-79.2969
-74.9268
-70.5882
-66.0243
-61.6339
-56.9162
-52.438
-47.6904
-43.2074
-38.5526
-34.0095
-29.5055
-24.7785
-20.2279
-15.8047
-11.2542
-6.91002
-2.65642
1.65145
5.61144
9.82415
13.6195
17.5955
21.1263
24.7736
28.2133
31.3897
34.6737
37.5408
40.5734
43.1419
45.828
48.0218
50.3639
52.2652
54.2544
61.1969
63.1902
64.9467
66.4668
67.75
68.8003
69.6218
70.2196
70.5979
70.7629
70.7365
70.5616
70.2328
69.709
69.0131
68.1536
67.0957
65.8467
64.4287
62.8581
61.147
59.3058
57.3467
55.2807
53.1203
50.8781
48.5677
46.2031
43.7969
41.3645
38.9194
36.4765
34.0512
31.6571
29.311
27.0259
24.8167
22.6977
20.6918
18.8136
17.0893
15.5229
14.128
12.9243
11.926
11.1428
10.5839
10.2513
10.1394
10.2306
10.4919
10.8708
11.2906
11.6507
11.8435
11.1857
9.69931
8.18525
6.93882
6.00748
5.18996
61.1392
63.0524
64.7394
66.2005
67.4361
68.4481
69.24
69.8156
70.1793
70.3333
70.2913
70.1119
69.7973
69.2966
68.6201
67.7746
66.7419
65.5277
64.1497
62.6228
60.9586
59.1677
57.262
55.254
53.1552
50.9779
48.7343
46.4375
44.1001
41.736
39.3583
36.9813
34.6192
32.2859
29.9963
27.7645
25.605
23.5295
21.5442
19.6766
17.9346
16.3533
14.9418
13.7132
12.6793
11.8503
11.2347
10.8348
10.6456
10.6515
10.8222
11.1097
11.4404
11.718
11.7757
11.1534
9.84699
8.50337
7.43917
6.63909
5.81611
60.5009
62.3717
64.0222
65.4537
66.6657
67.661
68.4428
69.0151
69.3804
69.5359
69.5032
69.3475
69.0561
68.5767
67.9251
67.1098
66.119
64.957
63.6368
62.1717
60.5726
58.8501
57.016
55.0816
53.0579
50.9571
48.7909
46.5718
44.3119
42.0247
39.7232
37.4207
35.131
32.8676
30.6444
28.4752
26.3731
24.3502
22.4187
20.6001
18.9121
17.3677
15.9792
14.7576
13.714
12.8582
12.1969
11.7314
11.4562
11.3569
11.4046
11.5547
11.7347
11.8462
11.7187
11.0818
9.93866
8.71762
7.69187
6.85417
6.01932
59.7113
61.5311
63.1377
64.5338
65.7174
66.6925
67.46
68.0254
68.3872
68.5411
68.5232
68.3962
68.1287
67.6772
67.0549
66.2721
65.3233
64.2143
62.9535
61.5529
60.0226
58.372
56.6138
54.7584
52.8157
50.7988
48.7183
46.5865
44.4147
42.2164
40.0036
37.7896
35.587
33.4093
31.2693
29.1804
27.1551
25.206
23.3458
21.5908
19.9557
18.4529
17.093
15.8842
14.8366
13.9584
13.2535
12.7212
12.3546
12.139
12.0466
12.0354
12.0393
11.9678
11.6873
11.0447
10.0492
8.94938
7.9523
7.08575
6.26035
58.9208
60.6856
62.2442
63.6017
64.7529
65.7048
66.4541
67.0091
67.3636
67.5167
67.5154
67.4173
67.1717
66.7492
66.1573
65.4089
64.5012
63.4445
62.242
60.9059
59.4451
57.8667
56.186
54.4114
52.5516
50.6212
48.6287
46.5871
44.5057
42.3989
40.2771
38.1538
36.0402
33.9499
31.8942
29.8869
27.9393
26.0637
24.2714
22.5765
20.9912
19.5278
18.1959
17.0026
15.954
15.0555
14.3099
13.7139
13.2592
12.9303
12.7011
12.5326
12.369
12.1377
11.7474
11.1117
10.2358
9.25357
8.30256
7.42817
6.59871
58.1482
59.8566
61.3637
62.6825
63.7983
64.7265
65.4558
66.0003
66.3468
66.5039
66.5188
66.4474
66.2219
65.8286
65.2667
64.5549
63.6877
62.6834
61.5383
60.2667
58.8763
57.3695
55.7671
54.0748
52.298
50.4561
48.5524
46.6027
44.6123
42.5985
40.5683
38.5368
36.5122
34.5097
32.5381
30.6124
28.7418
26.9387
25.2117
23.5745
22.0367
20.6106
19.3037
18.122
17.0698
16.1483
15.3602
14.7007
14.1602
13.7244
13.3687
13.0593
12.7511
12.39
11.916
11.2805
10.4843
9.59699
8.70138
7.84058
7.01061
57.3671
59.0177
60.4705
61.7501
62.8293
63.7352
64.4448
64.9789
65.3182
65.4837
65.5143
65.4675
65.2619
64.8974
64.3655
63.6912
62.8651
61.9142
60.8249
59.6189
58.301
56.8663
55.3436
53.7341
52.0403
50.2893
48.476
46.6201
44.7214
42.8024
40.865
38.9266
36.991
35.0766
33.1884
31.3443
29.5507
27.8195
26.1556
24.574
23.0811
21.6903
20.4065
19.2342
18.1753
17.2311
16.402
15.6814
15.0597
14.526
14.0572
13.6259
13.1963
12.7301
12.188
11.5419
10.79
9.96789
9.12344
8.2875
7.46807
56.5644
58.1624
59.5531
60.7987
61.834
62.7228
63.4091
63.9364
64.2673
64.4493
64.4901
64.4693
64.2806
63.9472
63.4425
62.8087
62.0197
61.1308
60.0892
58.952
57.7116
56.3435
54.9104
53.3837
51.7654
50.113
48.3883
46.6318
44.8207
43.002
41.1558
39.3146
37.4657
35.6416
33.8321
32.0714
30.3534
28.6964
27.0914
25.5652
24.1109
22.7548
21.4916
20.3308
19.2646
18.2961
17.4317
16.6559
15.9593
15.3406
14.7727
14.2398
13.7088
13.1579
12.5572
11.8936
11.1605
10.3794
9.57085
8.76015
7.95752
55.7796
57.4336
58.6636
59.9809
60.8631
61.8121
62.3697
62.9838
63.2268
63.5229
63.475
63.5579
63.3076
63.0931
62.54
62.0189
61.1667
60.4422
59.3988
58.3382
57.21
55.8039
54.5306
53.1182
51.4899
50.0099
48.3049
46.7152
44.9205
43.2616
41.4445
39.7526
37.9439
36.2587
34.4737
32.8348
31.1499
29.6042
28.02
26.5838
25.1269
23.8321
22.5683
21.4294
20.3584
19.3494
18.4664
17.6389
16.8667
16.1926
15.5279
14.9236
14.2973
13.6865
13.0249
12.3495
11.6117
10.8652
10.0715
9.27277
8.49045
4.38582
3.65545
2.97084
2.27822
1.58367
0.928512
0.325796
-0.215263
-0.673479
-1.04125
-1.31513
-1.50072
-1.59985
-1.60745
-1.55246
-1.45773
-1.33695
-1.21033
-1.09226
-0.991587
-0.912401
-0.851919
-0.806446
-0.76347
-0.73471
-0.693085
-0.650177
-0.599212
-0.537095
-0.463483
-0.37523
-0.27161
-0.153113
-0.0194495
0.12603
0.283363
0.447778
0.615106
0.781766
0.9425
1.09246
1.22566
1.34176
1.43614
1.50533
1.5493
1.56698
1.55952
1.52765
1.47436
1.40353
1.31841
1.2219
1.1196
1.01276
0.904283
0.793627
0.678621
0.553914
0.410995
0.239308
4.97274
4.27968
3.65568
3.01028
2.34556
1.72178
1.1487
0.629063
0.189092
-0.160068
-0.414058
-0.570092
-0.628708
-0.60443
-0.530287
-0.427082
-0.306043
-0.183594
-0.072284
0.0201555
0.0911225
0.142754
0.174949
0.209385
0.223888
0.25374
0.281682
0.318185
0.364111
0.421648
0.492906
0.5791
0.680606
0.796959
0.926345
1.06583
1.21263
1.36322
1.5136
1.65981
1.79747
1.92205
2.02886
2.11482
2.17725
2.21494
2.2274
2.21477
2.1781
2.11964
2.04232
1.94945
1.84388
1.73142
1.61311
1.49326
1.37076
1.24692
1.11576
0.970286
0.800421
5.21295
4.5255
3.88994
3.19572
2.47847
1.83607
1.2418
0.685691
0.20813
-0.179702
-0.477368
-0.683816
-0.801786
-0.847293
-0.820343
-0.743636
-0.621186
-0.483627
-0.359853
-0.258799
-0.181721
-0.126512
-0.0800753
-0.0544793
-0.0168258
0.010328
0.0472205
0.0902596
0.142899
0.206681
0.283521
0.374585
0.480014
0.599029
0.730016
0.87062
1.01766
1.16749
1.31613
1.45922
1.59233
1.71139
1.81276
1.89312
1.94986
1.98175
1.98835
1.97055
1.92991
1.86917
1.79154
1.70111
1.60167
1.4969
1.38958
1.28186
1.17286
1.05944
0.935359
0.790457
0.615088
5.47883
4.78071
4.11453
3.40192
2.68623
2.04481
1.43375
0.853367
0.371798
-0.00882229
-0.304806
-0.505749
-0.607618
-0.625319
-0.564082
-0.440005
-0.298936
-0.183937
-0.0705383
0.0304549
0.110415
0.169493
0.212524
0.239448
0.267412
0.287341
0.31152
0.340764
0.377977
0.425365
0.485109
0.558863
0.64717
0.749285
0.863829
0.988495
1.12044
1.25633
1.39248
1.5249
1.64934
1.76199
1.85919
1.93803
1.99599
2.03194
2.0453
2.03684
2.00771
1.96043
1.8972
1.82144
1.73574
1.64295
1.54376
1.44009
1.33366
1.22519
1.11036
0.980191
0.832183
5.81399
5.0869
4.38708
3.66495
2.94791
2.28082
1.64251
1.0559
0.573663
0.179004
-0.143404
-0.360136
-0.47171
-0.506862
-0.471327
-0.383724
-0.275462
-0.14664
-0.0307801
0.0675913
0.142716
0.1984
0.239554
0.269884
0.297413
0.321289
0.346795
0.377294
0.414569
0.460212
0.516707
0.585764
0.667896
0.762441
0.868269
0.983265
1.10488
1.23018
1.3558
1.47817
1.59325
1.69776
1.78799
1.86158
1.91577
1.94967
1.96217
1.95423
1.92618
1.88047
1.81894
1.74498
1.66186
1.57254
1.47945
1.38818
1.29878
1.20583
1.10575
0.997072
0.868127
6.21302
5.4529
4.71956
3.9863
3.26345
2.57519
1.92083
1.3214
0.810908
0.384653
0.0476737
-0.173901
-0.304511
-0.363157
-0.336155
-0.246342
-0.131211
-0.0099681
0.100975
0.188224
0.251053
0.297889
0.331313
0.358095
0.379128
0.398357
0.417268
0.441292
0.471246
0.508157
0.555252
0.614312
0.68585
0.768997
0.86291
0.965496
1.07441
1.18706
1.30037
1.41126
1.51567
1.61113
1.69368
1.76197
1.81267
1.84582
1.8596
1.85594
1.83429
1.79771
1.7474
1.68705
1.61968
1.54883
1.4779
1.40403
1.3277
1.249
1.16298
1.0644
0.945793
6.66752
5.88935
5.13084
4.38429
3.65334
2.95446
2.29279
1.68569
1.15064
0.69726
0.336536
0.0833204
-0.0809237
-0.151865
-0.127111
-0.0496363
0.0547848
0.16556
0.266322
0.341106
0.386275
0.418461
0.439433
0.458391
0.470006
0.481793
0.491668
0.50824
0.529945
0.556317
0.593216
0.641369
0.701999
0.773359
0.855186
0.945163
1.04128
1.14119
1.24222
1.34188
1.43576
1.52238
1.59731
1.66049
1.7075
1.73989
1.75471
1.7551
1.73936
1.71151
1.6715
1.62355
1.56932
1.51102
1.4518
1.3929
1.33341
1.27198
1.20346
1.12209
1.01998
7.16435
6.3846
5.61752
4.8689
4.13404
3.43753
2.77871
2.17932
1.63858
1.17311
0.794209
0.513385
0.305944
0.206354
0.195735
0.238367
0.331218
0.411719
0.480585
0.53747
0.553237
0.562864
0.561989
0.572424
0.569999
0.574145
0.570776
0.579966
0.594055
0.606024
0.631271
0.668653
0.72045
0.780619
0.851533
0.929887
1.01414
1.10238
1.19244
1.28272
1.36692
1.44636
1.51377
1.57328
1.61582
1.64787
1.66232
1.6665
1.65442
1.63359
1.60001
1.56118
1.51803
1.47035
1.42282
1.3764
1.33102
1.28589
1.23414
1.17158
1.08692
7.69599
6.93528
6.16467
5.42013
4.68787
4.01203
3.36954
2.81464
2.28344
1.83622
1.47385
1.20961
0.927119
0.795999
0.752967
0.727639
0.781859
0.710501
0.715706
0.796107
0.749119
0.734513
0.687307
0.718956
0.677348
0.688716
0.646757
0.655121
0.673486
0.660966
0.661259
0.69688
0.746792
0.792212
0.854637
0.923008
0.994406
1.07507
1.15561
1.24555
1.31428
1.39797
1.44771
1.51572
1.54253
1.58393
1.58321
1.6053
1.58311
1.57664
1.53706
1.49999
1.46889
1.43058
1.39575
1.3587
1.32436
1.29674
1.25767
1.22027
1.14653
4.94774
-4.24512
-5.57102
14.8036
5.82363
19.3776
18.0673
10.7238
11.5411
29.1473
1.63058
23.6726
18.1767
2.68605
21.6768
-102.236
20.5887
12.0554
1.43409
17.5076
15.0256
3.04697
0.996606
20.1754
11.4461
17.1703
17.5732
9.46867
20.3386
6.8372
10.522
16.7334
28.4813
1.55635
22.9613
0.819366
0.72297
57.3937
18.7159
17.5459
7.77501
-2.79211
18.0588
-88.1548
0.458126
31.6055
11.5734
3.05537
16.2335
25.3091
-3.37902
-45.797
17.1691
9.51942
13.9486
16.2666
6.94281
7.61456
0.921691
-30.9837
3.83074
15.5155
17.1006
-8.13981
-25.6095
14.9115
0.808474
8.69893
18.9011
18.1284
15.4131
59.6476
6.60925
13.4337
13.3703
6.24773
-12.347
44.4454
17.2329
28.0565
-0.759173
16.5259
16.7335
-36.7302
18.0178
50.331
12.0123
1.70462
15.3389
1.59571
-13.822
17.2232
5.12957
-31.6113
-36.6167
5.62673
44.2012
10.0317
25.5153
-101.262
14.543
16.1661
25.1185
17.1148
18.1987
17.0652
15.1909
39.6876
19.8077
-77.7204
-108.89
15.9488
0.576431
1.40701
5.90806
2.05286
1.08877
19.559
-7.7136
11.3062
12.8747
0.226226
11.3076
-117.577
-26.0851
10.5418
15.3248
-47.2228
-35.0396
17.8638
21.3081
-7.96982
4.43583
10.9862
2.49644
10.7582
18.1073
-52.7994
-30.2733
11.6654
9.63454
-52.7039
14.9123
49.0785
1.49719
12.4329
16.6657
1.50887
31.7955
-0.631342
16.2985
16.2945
59.2314
-33.6561
-59.9411
8.84485
8.25744
-27.9143
16.6545
0.722718
16.6741
26.4316
17.5429
12.5166
14.932
13.0252
6.93455
9.74293
17.167
0.294362
-1.61652
1.54441
5.78507
17.4404
1.36159
1.39493
1.21438
8.84133
22.4288
1.88319
1.91036
-1.24367
-30.7621
9.68988
6.44769
0.831416
-10.4711
52.1462
9.78942
11.8713
25.4969
20.2727
-16.4397
-39.1823
16.6641
-31.7212
4.24966
0.434896
21.3501
0.77336
9.82124
15.0006
13.5545
-58.7341
-1.61954
20.8814
8.48149
16.1042
-45.4672
0.87165
41.3183
-5.6525
16.3871
-117.187
11.1245
-77.7502
-65.1475
1.77501
33.2644
1.76769
11.3808
40.1736
11.9971
16.7717
1.0904
-7.70002
-9.24878
11.7374
17.026
59.8465
1.33222
21.4685
-5.1253
-37.7816
13.6703
19.3301
3.19699
-57.3805
-46.7447
19.3324
13.4066
8.69667
10.9724
15.9921
-123.376
16.7318
8.38666
-98.62
23.9584
17.392
8.84101
23.7871
1.37518
8.4227
11.359
18.7176
25.398
15.3894
6.55645
1.98052
15.6991
9.39071
-63.9828
18.5872
0.68891
12.7879
17.5552
1.14538
17.5846
1.02566
24.0908
1.25747
22.817
11.3903
52.8651
9.9415
14.303
10.762
15.9942
20.7501
50.3381
9.78319
-72.0517
15.3125
14.8987
18.6909
17.136
-61.883
8.02772
7.92238
-26.0196
40.5195
14.4294
17.0631
35.1667
17.431
9.56787
5.0122
-0.632204
16.4087
10.9502
5.48747
48.5623
-3.73253
4.07297
-78.3355
21.8437
18.6749
19.4381
-100.669
9.7673
11.8391
11.4773
-12.3986
16.5308
14.2498
0.836395
1.28831
7.04156
1.94709
16.4546
3.57767
15.4355
15.0259
-26.2101
1.91578
15.6356
0.973148
-90.4915
6.48047
-27.1962
-44.3187
-100.932
2.16682
1.55271
16.8846
0.705247
0.910205
-124.147
35.0957
15.0433
14.7983
12.0057
11.6392
49.7956
11.3474
-9.38761
18.834
-70.4697
14.9763
1.40298
-45.3693
-113.741
10.7659
-61.9161
8.68551
2.73402
14.439
1.67546
2.43737
10.3159
0.503761
1.03717
-6.74009
0.977045
16.0704
6.76857
-113.633
-33.4941
3.91196
16.6095
-25.9843
-49.8136
12.666
1.64508
15.7416
-5.48382
7.17804
1.56131
-73.9383
0.930738
-79.5648
20.3015
-89.0386
11.2567
4.79565
20.916
1.27447
-117.129
-27.7604
47.4631
50.2355
3.26332
0.744487
17.1996
30.2985
16.7787
-0.192376
12.0603
-10.2784
17.4491
18.8345
22.0044
21.52
-7.61728
-46.6593
12.0608
-83.0888
0.25085
-11.0273
1.98099
-61.8502
-1.7786
18.8142
-123.97
9.5938
9.36543
23.2546
-52.8241
17.1498
18.29
1.48613
17.7704
10.0689
14.333
1.20649
35.9584
-26.0503
-51.5188
9.60667
-61.0281
9.20828
-54.2566
16.8682
15.688
0.976854
4.05568
-92.9392
-1.54561
1.64173
-10.796
-61.9325
-59.5228
18.3809
4.77624
-41.4221
-50.0028
17.1101
2.49622
-30.9591
22.8618
13.0191
36.4
-39.8777
-0.308692
-9.60474
0.528385
9.10669
-89.5857
2.32089
10.4979
19.912
47.1103
2.60203
44.0827
2.07449
17.4569
1.68542
1.52421
13.759
12.3295
0.292841
1.33418
16.8314
2.2972
1.50871
2.59952
1.48763
2.01465
1.42417
8.16675
4.73535
15.8436
15.7118
-110.607
10.1005
-66.7337
-106.865
16.2526
0.605749
2.26817
19.1531
3.8867
1.39115
16.3805
17.059
15.2961
5.3948
-37.4918
10.5656
26.5982
13.6447
13.9852
15.5684
5.50987
0.762516
13.5036
19.2803
9.55883
1.47988
13.9176
13.5857
-12.6626
12.8249
-0.187587
-3.36357
-4.24613
17.3162
20.0425
9.44162
22.5631
3.48652
2.86296
48.7735
-21.7441
-5.07139
21.9781
8.32204
1.26346
1.49871
-80.3276
-26.8289
20.9972
3.20368
10.3635
0.747575
-21.0331
18.7476
11.9789
-27.3102
-82.0617
12.7119
-17.257
-54.1725
4.66495
-105.196
9.31211
9.39826
9.11927
-31.1747
13.8425
-80.6975
-2.10955
13.1153
1.00172
17.3851
-0.299098
14.9234
12.8277
31.7722
2.93962
0.958296
14.8677
7.21077
0.7727
-45.8372
-29.7085
8.08263
-33.0653
4.78587
28.6778
1.56899
9.3599
-95.7142
9.90401
8.54313
14.4331
1.45414
52.1797
1.71993
8.2105
8.5444
1.4068
1.18398
13.635
15.621
16.0054
9.5472
10.2466
29.3005
-76.39
8.37749
17.876
-31.6726
0.686942
-86.8078
13.681
0.786362
17.7297
-55.3907
4.34303
-21.0337
0.949636
0.865218
2.85386
-105.976
20.5971
17.4471
6.60354
16.1055
-26.7519
-22.5054
-6.39696
10.02
9.08251
5.03445
16.3355
-0.242724
0.755601
16.2608
23.2938
1.47186
-58.8824
20.963
1.65946
20.5643
-8.24615
17.2768
36.4065
6.79337
29.5458
18.5476
-30.2179
-20.9148
-4.43028
19.1254
10.5819
-32.3982
16.1495
12.5332
4.60765
5.60757
0.791859
-29.9817
40.5061
3.9762
2.10512
1.01792
-89.1114
9.55989
23.4117
15.7113
1.01595
5.35708
-22.7913
14.4879
12.3529
6.09424
1.31964
-6.87501
15.2752
2.18605
10.9613
-20.9785
1.38988
39.0453
0.956365
0.20432
8.39903
57.3948
17.1112
16.7436
1.30538
10.2337
7.01611
8.86253
10.2499
-115.611
2.17153
-34.8492
30.585
17.6136
8.49344
19.3824
-6.17918
-10.8923
1.35128
3.98536
1.46623
12.9045
-2.608
18.6457
-88.6011
16.8008
6.68998
2.12827
-3.44443
2.94245
-6.7986
10.6422
3.39507
0.847944
19.2861
-120.633
15.3901
17.1381
10.7999
-4.09435
18.9659
3.86095
-21.3505
15.6612
-13.667
-97.1772
17.5198
8.89435
14.61
-63.3393
-6.48214
15.8494
42.7836
12.6016
9.09764
11.5924
-110.981
-125.98
16.5974
-1.26873
-11.9252
1.48967
17.845
6.92264
-11.4305
13.8268
15.3702
0.131555
18.5766
19.5966
8.53334
14.9042
-2.99791
13.3829
-5.49353
23.2367
1.73874
-4.36843
42.7608
1.17741
6.70673
21.946
4.15591
-44.7946
24.5808
-83.8675
20.9332
1.32858
-19.4579
10.1385
-9.469
0.790179
12.9255
13.1578
-93.7352
-40.1791
13.5361
-64.6873
-8.72681
53.6743
-15.8647
-19.9179
21.4343
0.776974
6.02628
11.8238
-55.7101
-22.6719
-4.68208
-4.08284
-6.50231
0.98001
22.6623
19.1592
13.4167
-121.711
-43.8825
27.5215
2.27854
-112.23
11.153
14.4428
10.4562
1.17536
4.79626
1.23789
-14.5915
21.4577
-121.303
-17.1442
-85.7591
-98.2095
18.8697
25.4059
-43.7552
26.2656
14.5761
12.2731
11.1149
10.399
26.098
17.9682
2.2976
-51.6223
-30.0201
24.6612
2.23979
3.53211
13.8413
1.47364
12.9272
-53.4685
1.32959
49.2372
3.83309
22.3063
11.6247
18.63
15.7698
-76.9636
13.1545
44.8016
0.974459
0.901452
32.2526
61.2513
12.7141
13.2873
25.1055
-50.526
-15.2167
17.3047
10.0402
-91.348
27.4706
17.4391
-62.9602
15.811
3.69435
1.42585
6.2884
-16.2576
53.7889
0.762
-8.44392
-0.230301
17.8338
0.409319
9.56274
14.9674
17.3369
12.2562
0.978713
17.3428
0.67243
30.2852
0.103192
11.4204
10.3885
16.7011
8.45429
-49.3262
9.79137
18.2178
-29.1461
-70.5743
34.0427
1.58162
7.52013
16.8481
34.3009
-84.4504
9.4741
-2.83247
11.1955
16.3464
-88.4508
17.3071
9.79178
50.0573
29.8155
-19.4703
4.37077
15.8644
17.2452
-65.8562
-4.29061
10.1475
14.9074
1.29101
17.6084
-127.826
7.36862
0.859073
10.5615
18.8304
0.118467
14.7246
23.0429
24.9795
4.62596
-0.505701
17.8776
20.7299
17.4651
20.3925
10.8003
18.2115
-70.6264
2.50772
18.1338
-25.5699
14.1226
7.25064
19.6858
11.6625
-62.295
10.7876
5.1414
18.948
-20.5787
16.7491
-24.6435
-104.286
1.67729
1.22083
-47.7097
16.2144
18.4721
-21.5377
-104.305
1.23674
-14.286
15.9165
-82.497
13.4074
16.624
18.3328
-17.9718
7.03854
9.58722
-28.5406
17.4888
8.63541
-85.0304
10.5651
-119.418
47.209
11.6843
18.2903
6.4159
16.8776
-9.15257
-6.18582
20.1598
-18.1191
5.78481
12.8985
-38.1136
4.63068
17.5991
-49.209
14.8969
1.93521
-67.5577
-13.6438
17.2602
19.3696
14.7952
62.3054
8.63632
-2.45606
-23.7957
15.6751
-11.6493
15.4898
5.42852
15.5732
0.830644
9.87415
0.699838
-14.0586
59.0067
7.3489
59.3735
7.05111
12.8225
4.05088
20.0111
-9.39681
17.9019
11.1366
1.47709
59.9123
16.872
9.11886
-8.50827
0.662126
-109.012
15.9082
-5.64888
10.5409
-21.5795
-61.4873
1.05157
-73.5259
9.5355
2.77589
-25.2535
18.3997
15.7839
14.1893
12.3528
21.4286
16.2746
12.8277
17.6829
1.26305
-67.2023
17.6894
20.3075
17.8129
7.96273
-73.1888
1.30719
-24.0339
15.7119
-43.3422
0.909459
25.0909
-67.3094
17.0848
0.782859
40.2214
1.46539
22.8742
4.15814
1.70893
16.0567
10.4731
-107.399
13.7777
-1.05631
-39.3038
1.4465
15.9201
11.1015
30.9611
2.78507
1.33082
-78.9797
15.912
16.5325
17.0352
-20.0814
-36.0888
14.0234
12.8024
15.1618
1.20992
1.63613
49.3653
0.532665
-65.8592
2.1768
-59.1484
0.623829
0.715314
32.3973
50.9777
13.0453
60.1901
45.4653
18.4034
17.6966
6.34185
14.5333
18.6175
2.29628
1.97687
19.7335
1.75769
10.2756
19.236
9.00885
18.5785
28.8381
1.55977
-5.43651
-120.655
17.9409
12.1154
-50.6872
7.70418
22.5017
14.0614
10.9731
2.20538
17.3864
-2.21825
1.74718
30.4211
12.8293
0.876384
16.8045
17.476
15.6909
5.76809
15.5701
17.0458
-3.55127
18.5788
20.6807
-76.1495
-28.2826
-18.4242
14.7708
1.5144
-50.6509
17.1163
1.56042
1.14878
-126.118
0.707255
16.8243
8.75999
31.546
-1.15525
1.25465
9.16904
46.4491
1.63685
16.1786
1.11719
16.6742
53.97
14.2296
-20.7558
16.8856
0.995768
-69.6088
15.7248
42.3628
4.13887
13.0894
18.8275
29.4566
10.9941
19.7923
2.0036
16.2362
10.6254
-123.298
4.44188
18.7016
20.027
-65.1653
-82.008
16.8762
18.19
12.5618
11.4431
-59.7096
24.6879
-58.9068
17.8746
11.3355
17.4674
-12.067
5.79366
17.5146
0.70187
1.46851
-89.0823
-62.2974
8.24057
-2.56986
-74.8282
18.3776
18.4785
18.5473
7.49924
18.9867
2.25708
18.2765
9.56029
-1.54666
-25.1307
2.41079
12.7681
1.44292
36.437
16.7614
19.6633
-103.989
15.6129
15.5961
20.1636
12.4925
-73.4559
-6.83709
1.66154
17.2714
17.084
17.7478
-3.89075
20.3154
-17.5899
8.42264
8.5161
13.5728
9.51762
15.6731
11.0508
10.6397
9.78537
-1.71055
-10.3326
2.81799
-86.3723
11.8976
16.8211
0.948913
-90.9935
41.384
2.28459
23.7796
16.0252
13.1939
11.8629
16.6546
60.8931
-8.28065
1.04313
-95.008
16.8846
27.9461
-37.1829
3.64603
-51.0713
1.31268
31.032
1.48873
16.7312
-22.6571
-13.2521
-38.2233
-8.43691
17.8647
1.47222
7.76343
22.5044
13.2935
19.5186
8.85955
56.7988
20.542
16.69
43.984
10.7801
15.7167
18.5439
20.3636
-10.595
1.30348
9.9169
11.6573
-16.5707
13.9345
9.3824