/*--------------------------------*- C++ -*----------------------------------*\
| =========                 |                                                 |
| \\      /  F ield         | OpenFOAM: The Open Source CFD Toolbox           |
|  \\    /   O peration     | Version:  2.3.1                                 |
|   \\  /    A nd           | Web:      www.OpenFOAM.org                      |
|    \\/     M anipulation  |                                                 |
\*---------------------------------------------------------------------------*/
FoamFile
{
    version     2.0;
    format      ascii;
    class       volScalarField;
    location    "0.26";
    object      epsilon;
}
// * * * * * * * * * * * * * * * * * * * * * * * * * * * * * * * * * * * * * //

dimensions      [0 2 -3 0 0 0 0];

internalField   nonuniform List<scalar> 
9648
(
2407.53
2415.34
2410.78
2402.47
2389.17
2370.82
2347.62
2319.14
2285.38
2246.5
2202.85
2154.7
2103.02
2048.82
1992.97
1936.4
1880.18
1825.23
1772.18
1721.47
1673.55
1628.65
1586.86
1548.28
1512.92
1480.65
1451.38
1425.04
1401.56
1380.75
1362.52
1346.68
1333.1
1321.6
1312.1
1304.49
1298.62
1294.48
1292.03
1291.18
1291.83
1293.95
1297.51
1302.46
1308.84
1316.72
1326.1
1336.93
1349.33
1363.44
1379.25
1396.74
1416.15
1437.42
1460.47
1485.01
1510.71
1537.1
1563.41
1589.12
1613.88
590.762
583.679
574.716
566.083
559.554
556.418
556.068
557.364
560.747
565.848
572.397
579.719
587.405
595.109
602.54
609.384
615.515
620.945
625.7
629.747
633.199
636.129
638.587
640.689
642.559
644.26
645.852
647.414
649.034
650.765
652.635
654.702
657.012
659.563
662.373
665.433
668.733
672.252
676.031
680.128
684.54
689.295
694.395
699.814
705.512
711.488
717.741
724.264
731.039
738.052
745.284
752.682
760.191
767.833
775.456
783.034
790.407
797.692
804.755
811.529
817.983
235.782
239.51
245.309
253.251
263.072
274.647
288.006
302.751
318.831
335.771
353.346
371.102
388.708
405.848
422.263
437.754
452.188
465.513
477.703
488.767
498.753
507.704
515.706
522.846
529.22
534.917
540.022
544.629
548.81
552.646
556.2
559.529
562.69
565.714
568.631
571.456
574.198
576.907
579.572
582.222
584.901
587.593
590.336
593.114
595.909
598.731
601.551
604.363
607.156
609.903
612.611
615.269
617.84
620.378
622.763
625.097
627.282
629.459
631.466
633.35
635.102
136.433
146.73
158.753
172.487
187.809
204.646
222.864
242.209
262.405
283.064
303.855
324.403
344.402
363.573
381.703
398.62
414.23
428.488
441.386
452.956
463.243
472.309
480.242
487.135
493.096
498.226
502.623
506.385
509.604
512.364
514.741
516.793
518.564
520.11
521.451
522.64
523.758
524.776
525.768
526.687
527.497
528.296
529.046
529.809
530.608
531.404
532.24
533.075
533.897
534.694
535.439
536.169
536.865
537.542
538.148
538.745
539.327
539.884
540.397
540.873
541.352
103.266
116.631
131.748
148.54
166.893
186.667
207.628
229.478
251.869
274.393
296.684
318.374
339.177
358.847
377.207
394.106
409.482
423.32
435.634
446.487
455.938
464.054
470.941
476.699
481.455
485.322
488.411
490.833
492.668
494.021
494.96
495.542
495.853
495.905
495.75
495.455
495.025
494.577
494.05
493.461
492.874
492.2
491.525
490.828
490.096
489.424
488.797
488.242
487.721
487.197
486.652
486.091
485.537
484.983
484.428
483.872
483.34
482.805
482.252
481.693
481.135
91.2312
106.64
123.943
142.999
163.594
185.518
208.453
232.036
255.865
279.493
302.545
324.645
345.548
365.024
382.971
399.222
413.748
426.586
437.759
447.382
455.529
462.256
467.708
471.969
475.205
477.549
479.115
480.025
480.353
480.181
479.617
478.722
477.565
476.232
474.705
473.016
471.279
469.386
467.514
465.669
463.787
462.05
460.265
458.445
456.63
454.772
453.041
451.436
449.916
448.446
446.976
445.509
444.058
442.626
441.208
439.834
438.494
437.163
435.826
434.493
433.15
87.9834
105.126
124.286
145.24
167.649
191.256
215.66
240.45
265.213
289.403
312.712
334.693
355.201
374.004
391.146
406.352
419.651
431.159
440.862
448.975
455.589
460.698
464.549
467.145
468.736
469.475
469.444
468.844
467.645
465.989
463.979
461.621
459.122
456.468
453.659
450.803
447.812
444.804
441.717
438.607
435.718
432.91
430.28
427.69
424.923
422.233
419.586
417.076
414.737
412.481
410.273
408.077
405.921
403.768
401.644
399.575
397.555
395.584
393.606
391.602
389.62
88.9008
107.612
128.429
151.026
174.907
199.785
225.248
250.848
276.154
300.495
323.681
345.096
364.816
382.529
398.623
412.525
424.344
434.35
442.334
448.74
453.696
457.016
459.229
460.04
459.913
458.994
457.345
455.253
452.559
449.445
446.079
442.371
438.539
434.625
430.606
426.565
422.648
418.507
414.365
410.29
406.169
402.421
398.918
395.463
392.053
388.631
385.214
381.936
378.828
375.892
373.013
370.171
367.37
364.554
361.79
359.12
356.476
353.942
351.365
348.745
346.216
91.7125
111.642
133.909
157.708
182.869
208.602
234.67
260.926
286.319
310.658
333.374
354.111
372.665
388.999
403.848
416.359
426.63
434.996
441.473
446.189
449.265
450.749
451.082
450.287
448.52
445.825
442.65
439.116
434.817
430.334
425.595
420.691
415.855
410.641
405.176
400.128
395.071
390.029
385.213
379.903
374.603
369.406
364.939
360.756
356.595
352.821
348.508
344.543
340.488
336.847
333.104
329.649
326.267
322.733
319.308
316.188
312.811
309.994
306.771
303.426
300.455
1637.87
1660.98
1682.97
1703.82
1723.76
1743.25
1762.43
1781.65
1800.03
1817.45
1833.62
1849.08
1864.09
1879.1
1894.29
1910.37
1927.93
1947.49
1969.41
1994.07
2021.11
2049.95
2080.19
2111.45
2143.42
2176.08
2209.48
2243.39
2277.78
2312.65
2348.2
2384.28
2420.93
2458.29
2496.38
2535.1
2574.55
2614.88
2656.14
2698.19
2741.05
2784.99
2829.96
2875.81
2922.87
2971
3020.09
3070.18
3121.48
3174.03
3227.76
3282.54
3338.94
3396.54
3455.72
3516.26
3578.9
3643.66
3710.53
3779.42
3850.44
824.104
830.324
836.352
842.119
847.658
853.096
858.59
863.999
869.416
874.592
879.739
884.8
889.894
895.014
900.165
905.4
910.739
916.221
921.833
927.542
933.305
939.06
944.789
950.47
956.088
961.612
966.974
972.162
977.17
982.021
986.732
991.276
995.674
999.946
1004.09
1008.1
1012.01
1015.8
1019.49
1023.06
1026.54
1029.94
1033.24
1036.45
1039.57
1042.6
1045.53
1048.34
1051.07
1053.71
1056.25
1058.67
1061
1063.38
1065.58
1067.87
1070.11
1072.58
1074.93
1077.36
1079.91
636.831
638.498
640.205
641.879
643.528
645.072
646.676
648.209
649.692
651.041
652.348
653.609
654.899
656.158
657.385
658.576
659.725
660.831
661.88
662.861
663.757
664.572
665.29
665.911
666.429
666.843
667.143
667.329
667.391
667.338
667.158
666.857
666.437
665.896
665.247
664.487
663.618
662.639
661.549
660.347
659.039
657.629
656.123
654.506
652.791
650.965
649.017
646.938
644.735
642.412
639.94
637.367
634.655
631.834
628.822
625.728
622.546
619.29
615.95
612.561
609.188
541.804
542.252
542.666
543.071
543.446
543.788
544.088
544.381
544.582
544.693
544.749
544.763
544.711
544.578
544.395
544.148
543.836
543.452
542.988
542.437
541.8
541.074
540.267
539.37
538.38
537.291
536.106
534.822
533.437
531.954
530.372
528.683
526.889
524.997
523.015
520.941
518.776
516.519
514.163
511.714
509.177
506.564
503.878
501.127
498.311
495.426
492.453
489.391
486.234
483
479.659
476.222
472.702
469.082
465.336
461.472
457.535
453.512
449.432
445.335
441.247
480.578
479.991
479.378
478.734
478.06
477.326
476.549
475.771
474.979
474.133
473.253
472.33
471.347
470.307
469.208
468.046
466.85
465.582
464.243
462.829
461.343
459.793
458.184
456.519
454.79
452.992
451.122
449.179
447.169
445.091
442.942
440.71
438.397
436.005
433.548
431.026
428.435
425.768
423.02
420.193
417.3
414.349
411.354
408.331
405.286
402.218
399.093
395.937
392.714
389.445
386.11
382.697
379.229
375.69
372.057
368.322
364.506
360.601
356.674
352.732
348.795
431.818
430.473
429.12
427.721
426.297
424.836
423.331
421.821
420.273
418.697
417.081
415.441
413.763
412.034
410.262
408.455
406.623
404.727
402.765
400.738
398.655
396.527
394.368
392.185
389.964
387.695
385.378
383.013
380.618
378.193
375.733
373.214
370.638
367.999
365.324
362.609
359.839
357.014
354.117
351.148
348.121
345.044
341.943
338.843
335.763
332.713
329.636
326.57
323.474
320.392
317.272
314.09
310.888
307.62
304.305
300.866
297.362
293.782
290.212
286.602
283.017
387.654
385.696
383.73
381.748
379.728
377.662
375.563
373.473
371.347
369.172
366.984
364.789
362.562
360.309
358.01
355.698
353.386
351.025
348.598
346.098
343.542
340.966
338.378
335.806
333.224
330.604
327.954
325.267
322.589
319.927
317.303
314.64
311.963
309.237
306.514
303.772
300.969
298.132
295.232
292.265
289.237
286.141
283.026
279.926
276.865
273.908
270.93
268.033
265.128
262.329
259.536
256.662
253.801
250.884
247.962
244.865
241.756
238.537
235.409
232.214
229.069
343.687
341.214
338.731
336.287
333.815
331.353
328.815
326.358
323.872
321.274
318.681
316.13
313.536
310.917
308.217
305.548
302.956
300.323
297.626
294.783
291.863
288.965
286.049
283.176
280.364
277.516
274.64
271.669
268.723
265.858
263.169
260.463
257.835
255.176
252.599
250.039
247.345
244.586
241.818
239.037
236.152
233.141
230.106
227.07
224.055
221.259
218.379
215.681
212.971
210.54
208.176
205.661
203.201
200.68
198.218
195.469
192.789
189.939
187.329
184.599
181.972
297.247
294.281
291.151
288.366
285.419
282.897
280.039
277.588
275.107
272.403
269.691
267.23
264.532
261.855
258.885
255.892
253.247
250.699
248.162
245.359
242.14
239.143
236.064
232.952
230.019
227.137
224.362
221.251
217.925
214.789
212.059
209.321
206.813
204.357
202.258
200.227
197.87
195.227
192.675
190.319
187.896
185.093
182.216
179.392
176.473
173.938
171.068
168.576
165.952
164.018
162.192
160.037
158.075
156.026
154.136
151.689
149.471
146.923
144.882
142.658
140.659
3924.68
4001.66
4080.7
4161.82
4245.42
4332.41
4422.19
4514.66
4609.48
4706.89
4807.63
4909.76
5015.45
5129.76
5276.17
5399.41
5526.82
5656.94
5789.6
5924.78
6062.77
6203.56
6346.76
6492.58
6640.75
6790.54
6941.67
7093.88
7246.97
7400.04
7553.01
7705.24
7855.85
8004.24
8149.86
8291.29
8427.42
8555.96
8667.65
8749.65
8804.89
8834.72
8838.87
8815.53
8763.07
8678.99
8559.22
8399.1
8194.3
7940.17
7630.46
7258.32
6818.54
6303.47
5685.64
4729.52
4310.13
4101.85
4021.38
3984.11
3903.88
1082.73
1085.67
1088.83
1092.06
1095.4
1098.98
1103.11
1107.65
1112.65
1117.93
1123.5
1125.63
1127.42
1130.95
1135.14
1140.89
1146.44
1151.92
1157.56
1163.44
1169.58
1175.99
1182.65
1189.57
1196.74
1204.13
1211.78
1219.72
1227.99
1236.65
1245.74
1255.33
1265.55
1276.5
1288.31
1301.21
1315.39
1331.19
1351.09
1381.43
1417.86
1456.86
1499.09
1544.68
1594.3
1648.27
1706.65
1769.72
1837.75
1910.27
1986.39
2064.45
2142.85
2220.53
2289.9
2355.37
2414.5
2501.72
2606.87
2715.01
2668.09
605.804
602.435
599.043
595.639
592.184
588.758
585.442
582.276
579.146
576.027
571.806
565.656
560.168
555.397
551.171
547.582
543.948
540.166
536.316
532.451
528.607
524.782
520.969
517.167
513.377
509.595
505.834
502.098
498.407
494.761
491.181
487.689
484.298
481.054
477.983
475.136
472.56
470.327
468.63
467.914
468.481
473.54
482.225
494.227
510.014
530.25
555.659
587.27
626.082
673.174
729.557
796.018
873.752
963.117
1063.94
1173.02
1281.22
1399.56
1544.66
1732.51
1921.2
437.173
433.121
429.08
425.029
420.935
416.842
412.795
408.834
404.815
400.711
395.288
389.163
383.694
378.701
374.119
369.88
365.686
361.464
357.219
352.986
348.769
344.552
340.343
336.147
331.96
327.795
323.652
319.534
315.443
311.383
307.355
303.366
299.428
295.552
291.747
288.034
284.433
280.961
277.648
274.556
271.775
269.626
268.889
269.795
272.3
276.753
283.623
293.568
307.44
326.267
351.468
384.37
426.636
479.391
543.301
616.409
694.502
779.056
878.464
1006.57
1166.64
344.886
341.05
337.245
333.426
329.541
325.656
321.781
317.973
314.1
310.104
305.022
299.723
294.951
290.555
286.426
282.522
278.68
274.893
271.138
267.433
263.759
260.069
256.394
252.742
249.104
245.493
241.91
238.355
234.821
231.311
227.824
224.368
220.948
217.572
214.25
210.993
207.812
204.717
201.718
198.834
196.093
193.56
191.379
189.937
189.254
189.403
190.609
193.178
197.545
204.256
214.112
228.127
247.507
273.519
307.186
348.637
396.449
450.126
511.939
587.497
683.129
279.436
275.987
272.579
269.177
265.637
262.102
258.549
255.1
251.594
248.002
243.56
239.126
235.091
231.388
227.834
224.437
221.075
217.832
214.658
211.568
208.519
205.429
202.37
199.353
196.346
193.379
190.431
187.517
184.609
181.718
178.838
175.987
173.163
170.382
167.647
164.97
162.358
159.819
157.356
154.981
152.707
150.557
148.571
146.844
145.62
144.788
144.475
144.802
145.98
148.289
152.101
157.946
166.503
178.549
194.966
216.326
242.751
274.295
311.568
356.222
411.374
225.842
222.82
219.85
216.94
213.772
210.635
207.427
204.41
201.357
198.307
194.528
190.889
187.528
184.519
181.533
178.683
175.803
173.12
170.511
168.009
165.554
163
160.524
158.134
155.736
153.392
151.044
148.739
146.409
144.094
141.768
139.482
137.22
135.011
132.84
130.73
128.674
126.689
124.768
122.93
121.174
119.526
117.993
116.612
115.466
114.653
114.114
113.913
114.155
114.974
116.56
119.167
123.119
128.851
136.841
147.588
161.51
178.929
200.305
226.415
258.536
179.088
176.49
173.985
171.642
168.865
166.163
163.294
160.768
158.221
155.802
152.628
149.683
146.899
144.554
142.075
139.779
137.339
135.206
133.121
131.132
129.206
127.089
125.131
123.37
121.538
119.755
117.916
116.164
114.32
112.497
110.626
108.846
107.079
105.401
103.737
102.149
100.584
99.0966
97.6655
96.3282
95.063
93.9064
92.86
91.9199
91.1212
90.5765
90.2071
90.0312
90.114
90.5269
91.3697
92.7652
94.8848
97.9274
102.145
107.828
115.274
124.823
136.842
151.83
170.446
138.088
135.85
133.828
132.132
129.743
127.504
124.931
122.975
120.968
119.22
116.572
114.204
111.851
110.148
108.056
106.333
104.241
102.67
101.042
99.4207
97.9412
96.1138
94.6236
93.5864
92.224
90.8488
89.3647
88.1253
86.6048
85.1567
83.5701
82.267
80.9082
79.7275
78.4689
77.3281
76.0975
75
73.9702
73.0683
72.2427
71.5169
70.9124
70.3936
69.9113
69.5422
69.361
69.29
69.4383
69.732
70.4108
71.3924
72.8835
74.8481
77.5012
80.8786
85.2738
90.7825
97.7999
106.591
117.509
3760.64
3603.77
3436.2
3260.99
3087.17
2919.81
2761.89
2617.3
2489.3
2379.58
2288.36
2214.52
2156.54
2112.41
2079.7
2056.13
2039.76
2029.16
2023.03
2020.27
2020.25
2022.45
2026.42
2032.06
2039.3
2047.92
2057.84
2069.01
2081.5
2095.15
2109.92
2125.73
2142.44
2159.79
2177.66
2195.72
2213.65
2231.14
2247.99
2263.85
2278.27
2291.07
2302.06
2311.1
2318.31
2323.99
2328.29
2331.47
2334.12
2337
2340.42
2344.57
2349.93
2356.63
2364.32
2372.67
2381.33
2390.2
2398.15
2404.17
2407.59
2472.13
2264.01
2061
1867.77
1699.43
1545.31
1404.15
1276.47
1162.11
1061.6
974.807
900.96
838.899
787.021
744.94
711.769
685.87
665.438
649.11
635.942
625.285
616.623
609.624
604.071
599.842
596.802
594.844
593.944
594.053
595.155
597.254
600.323
604.349
609.291
615.086
621.643
628.837
636.554
644.63
652.856
660.966
668.637
675.439
680.915
684.655
686.267
685.42
681.988
676.12
668.233
658.945
649.05
639.44
630.854
623.586
617.927
613.557
610.115
606.667
602.58
597.392
2006.24
1989.88
1883.69
1705.25
1523.25
1348.3
1179.63
1028.16
893.763
775.483
673.961
588.393
517.437
459.687
414.103
378.884
351.436
329.424
311.692
297.481
286.055
276.807
269.265
263.073
257.979
253.79
250.369
247.629
245.508
243.963
242.962
242.495
242.536
243.045
243.986
245.313
246.981
248.935
251.111
253.426
255.78
258.061
260.145
261.868
263.072
263.569
263.18
261.751
259.213
255.566
250.958
245.739
240.379
235.435
231.332
228.549
227.261
227.432
228.768
230.972
233.334
1332.86
1479.69
1575.42
1589.73
1517.91
1390.38
1220.83
1051.28
895.719
753.083
629.647
526.644
441.927
374.163
320.997
279.577
247.216
221.429
200.917
184.721
171.974
161.963
154.089
147.845
142.829
138.745
135.397
132.653
130.416
128.615
127.209
126.168
125.462
125.046
124.878
124.912
125.107
125.418
125.794
126.182
126.521
126.753
126.814
126.641
126.177
125.37
124.182
122.597
120.63
118.315
115.738
113.06
110.518
108.401
107.005
106.711
107.828
110.466
114.603
120.313
127.631
799.974
935.522
1078.66
1205.6
1286.47
1303.84
1252.99
1146.9
1010.4
856.521
711.207
586.723
480.043
393.296
324.608
270.282
227.649
194.134
167.74
147.129
131.166
118.932
109.605
102.45
96.8819
92.4737
88.9466
86.1076
83.8211
81.9777
80.5141
79.3934
78.5744
78.0074
77.6448
77.4426
77.3578
77.3476
77.3692
77.3757
77.3181
77.1503
76.8278
76.3101
75.5628
74.5628
73.3058
71.8036
70.0777
68.18
66.1926
64.2456
62.5371
61.3166
60.9046
61.5535
63.73
67.7349
73.7904
81.7958
91.6469
480.07
565.42
668.375
784.97
903.054
1004.9
1070.28
1083.7
1042.92
955.913
839.844
713.961
587.402
477.645
388.032
314.189
255.801
209.556
172.653
143.964
122.085
105.716
93.5926
84.5602
77.7227
72.4387
68.3126
65.0727
62.5236
60.5026
58.9155
57.7088
56.8291
56.2158
55.8146
55.5781
55.4609
55.4222
55.4205
55.4128
55.3548
55.2081
54.9335
54.4992
53.874
53.0428
52.0037
50.7726
49.3662
47.8273
46.2226
44.6621
43.3106
42.3984
42.2449
43.2624
45.8806
50.4952
57.3628
66.5
77.8233
298.391
348.217
410.344
486.27
575.107
672.23
767.729
847.424
896.784
905.098
870.097
799.171
704.566
600.515
498.809
403.08
324.499
260.356
207.01
165.233
133.408
110.019
93.1382
80.8478
71.7368
64.8397
59.5671
55.5233
52.4177
49.999
48.1241
46.7109
45.6888
44.9776
44.5114
44.2341
44.0961
44.0545
44.068
44.0945
44.091
44.0253
43.8592
43.5652
43.1095
42.4839
41.6835
40.7258
39.6181
38.4013
37.1282
35.8959
34.8492
34.1934
34.2385
35.4191
38.2092
43.1155
50.5188
60.5298
73.0715
193.648
222.648
259.009
304.355
360.026
426.295
501.491
580.666
655.874
716.253
751.136
754.018
725.05
668.729
593.981
509.152
424.282
344.536
270.211
210.485
163.342
129.019
104.799
87.4306
74.6923
65.1389
57.9248
52.5083
48.4605
45.3559
42.9782
41.1926
39.9063
39.0044
38.4034
38.0315
37.8308
37.7525
37.7543
37.7921
37.8224
37.8192
37.7438
37.5714
37.2621
36.8145
36.2177
35.4936
34.6402
33.6968
32.708
31.7634
30.9925
30.5821
30.8277
32.1642
35.1051
40.257
48.1353
58.9493
72.6161
131.224
148.256
169.55
196.371
229.783
270.839
319.957
376.668
438.533
501.51
557.664
600.835
624.57
626.034
603.561
559.345
499.307
427.794
354.281
280.246
212.364
163.47
129.221
104.565
86.1693
72.4034
62.0529
54.4517
48.9005
44.6809
41.4961
39.0987
37.379
36.1597
35.3304
34.7882
34.4654
34.2976
34.2458
34.2522
34.2809
34.3059
34.2921
34.2089
34.0165
33.7114
33.2875
32.7576
32.1222
31.4099
30.6709
29.9843
29.4788
29.3238
29.7972
31.3314
34.4597
39.8647
48.1454
59.6591
74.2187
1.24781
207.167
184.877
2.46874
1.77373
0.195167
0.000727944
90.7983
0.000789902
0.014495
98.3162
6.80926
0.000727885
253.155
0.159356
134.323
0.00075566
91.7879
122.179
0.000734449
2.53072
242.82
196.072
0.000770752
0.000775677
0.210591
0.000733349
8.13718
0.000751587
0.000815819
5.13759
0.00087486
0.00872626
74.8196
3.86537
116.644
77.6905
15.5774
0.000726313
46.4183
65.9148
26.2692
0.000742096
101.808
187.773
0.69888
0.000875488
0.00826923
1.62444
7.02993
374.966
353.369
0.000718947
0.0010401
0.0682603
0.306479
0.000812613
9.34221
64.4155
279.759
146.26
0.000893098
2.04384
0.0245827
197.441
1.6953
44.0232
64.7023
0.00114176
0.000747315
8.477
40.5738
56.696
0.0372583
0.0533521
89.1455
224.486
54.8486
0.000713621
5.31817
0.00229417
49.2191
0.0174739
109.288
0.000749613
8.5103
0.000785171
42.4045
0.0118525
0.00134946
0.220205
0.00071178
0.000923969
303.73
140.995
0.000859769
1.5464
1.39559
0.00184059
205.856
0.6756
28.0546
5.91947
0.000710167
0.000727832
0.000716707
1.42201
0.207997
0.000750942
172.517
221.438
0.00513006
250.82
30.7562
117.89
62.3305
32.5156
0.00098545
0.107198
0.00109469
0.00135005
204.708
0.00258458
286.59
412.452
28.7391
0.000744732
6.88921
6.75008
0.000742761
0.0299498
0.0264585
95.4032
0.00175799
72.8043
0.000747227
0.000726124
393.399
347.106
0.000746304
0.540809
147.512
0.232583
0.898166
30.162
116.033
0.444076
31.2414
0.00511839
274.408
11.3271
0.325058
48.7547
106.876
186.704
0.000763697
0.000753874
0.498658
0.000838971
47.2262
0.162893
0.00144105
0.000744786
0.000745808
0.000758413
39.785
72.4094
34.8166
0.000797147
288.227
317.086
411.633
166.331
0.00696658
175.266
52.3647
32.1798
0.000747083
0.00164476
201.119
72.25
26.9744
70.1851
0.000743084
0.000837343
254.335
0.0291351
2.43885
0.000756405
0.000872133
0.17072
0.000802853
328.184
3.83442
0.000829369
0.656987
94.9805
136.786
0.00120403
60.0494
0.000744331
0.000747762
106.542
32.072
300.262
0.00122115
0.000794383
0.00292712
40.7743
84.7428
9.77465
118.41
12.6958
230.924
0.843748
85.3629
81.143
24.5536
10.4469
45.1693
0.00139008
0.0286105
0.000745397
0.000862691
32.54
0.00981684
0.0114238
0.00176187
0.00632374
46.7548
211.548
0.0111027
165.73
7.25589
1.88914
0.000732619
0.450959
37.7125
7.02001
0.00107276
10.0874
36.2044
0.897097
2.93382
270.254
7.59634
5.18183
121.63
0.000955534
0.000728947
0.0010088
0.00430273
32.7761
0.000781928
0.00215868
0.000725973
1.74367
71.5574
84.2248
53.3273
12.2671
11.119
322.625
0.00114952
54.1601
98.8402
0.000742683
94.4897
0.000749261
333.437
1.74298
61.1925
0.00150388
0.000746878
19.8958
7.93187
0.000759501
0.000747737
0.000752365
0.000751332
1.16015
36.211
43.79
0.0115929
0.000760338
0.00072608
0.000710498
103.516
0.901928
0.0011653
18.221
0.114293
0.10507
0.000714057
0.778546
0.000760104
0.0783128
48.5046
286.79
3.77721
0.000992973
0.00183356
55.5696
0.322496
134.706
320.503
0.000831676
0.000739378
0.000734007
155.44
0.000769016
130.053
0.000748511
23.0618
12.929
0.0247468
154.862
242.458
0.00124585
54.1593
51.9265
91.633
90.7015
6.51083
344.757
43.1943
67.0754
145.538
93.9295
56.9016
0.327049
334.308
278.719
66.7335
38.3608
0.00105741
268.31
140.027
229.177
0.0183783
0.000856689
0.000744381
0.000804429
0.716071
1.5218
5.06567
0.121145
0.000729507
168.747
0.000745097
30.8558
22.8146
191.263
37.1872
18.2151
0.00187254
0.00109438
0.509029
98.5295
0.00429948
8.17666
273.057
40.5792
82.9699
188.498
60.2174
0.000816828
281.862
139.967
98.5723
0.000748039
190.099
150.188
0.000776136
34.8692
0.000749015
400.144
175.637
31.9454
80.5107
127.474
147.697
0.00076805
147.128
0.000949021
74.7092
80.2519
32.1701
278.162
3.50301
0.484671
2.53924
0.00109128
447.623
2.02381
0.00283778
0.0022118
270.267
0.000938132
91.5457
0.000742105
0.000747875
0.00183823
31.8454
0.182236
21.1014
0.00176181
82.5882
0.297755
213.848
285.415
37.488
347.46
0.000802614
278.197
41.5909
0.000740206
77.6564
24.979
0.000716996
0.000728978
120.312
0.00206163
23.3506
0.503621
88.7786
0.0171157
3.27908
38.6727
116.886
32.1268
77.4305
68.1241
0.00106028
0.0383024
33.2688
19.3119
329.258
347.982
136.007
0.0814025
122.167
121.089
3.41802
95.6262
44.7289
25.2868
0.000853781
83.2564
380.289
0.00105837
92.059
18.69
45.345
0.014775
0.0856809
275.386
0.00187597
325.143
0.00123154
1.89494
0.000738317
7.70465
173.985
0.545558
0.00130689
0.000918399
87.5769
30.3859
0.0869972
5.704
304.8
550.359
0.00161439
11.3386
30.8771
82.6906
29.6681
456.57
32.676
158.917
51.0446
5.13242
5.87935
300.92
54.8117
351.6
170.549
0.367916
189.224
69.3525
0.000800026
96.725
33.8892
13.364
0.00992412
98.0762
45.8245
3.96626
53.7629
0.00158544
0.000746118
0.0947695
24.5105
101.581
78.7232
0.000749238
0.000733912
0.000741737
32.0508
0.02904
0.0007441
0.234924
91.7439
286.609
0.0043428
0.00445609
0.000726587
0.000738725
0.00188679
29.8095
102.96
19.0007
1.87134
292.911
392.088
0.00150996
57.0797
31.8705
32.3206
74.7832
436.182
0.000824723
0.0044013
0.000747982
404.656
0.738772
0.000727974
10.214
0.341043
300.243
0.000759133
319.763
8.42093
0.0574717
200.405
0.00074535
0.000733893
0.00103566
401.227
52.2161
128.874
331.291
8.18341
32.9915
0.0007159
0.00181883
0.51351
0.00703821
0.0158844
181.243
45.8477
0.000745741
25.9195
51.9985
181.846
403.782
0.00283338
407.251
0.00181344
0.0209269
164.292
0.000736736
145.201
0.000758544
0.000785995
0.0223758
39.4404
2.869
328.695
62.5377
0.000888529
32.4693
506.597
0.0489009
2.47322
8.03851
0.000770052
0.000756031
0.00227812
134.491
5.67454
0.000796014
266.205
288.162
214.411
0.0525255
67.3489
0.00110153
29.3146
0.457288
0.127253
130.022
34.5491
154.055
172.72
0.000762953
0.000717617
0.00465414
76.3303
100.272
5.69623
0.00644562
0.000774132
0.000746978
0.00339374
0.59612
0.00206879
80.3727
23.3285
0.00500766
29.898
170.344
0.000758687
42.2942
0.000742453
2.99837
0.000762463
0.0128704
33.9018
0.0113332
0.000744275
3.90137
359.41
257.741
0.000734256
0.000749146
1.49175
0.736351
0.00074651
93.6092
0.000895374
37.2674
373.326
29.1653
91.4346
301.012
135.756
333.998
0.000744851
0.00248377
0.0119027
295.366
62.8283
196.395
3.25878
4.51657
102.686
183.009
122.31
2.15998
42.6943
0.00074914
1.43709
47.7414
32.5103
314.051
24.2594
0.875936
40.5534
0.205293
0.0139221
47.8852
0.000748034
175.967
0.000890632
2.8049
291.647
192.926
2.88414
0.0024475
7.20322
0.000764665
0.000735794
0.187683
0.0131736
60.85
0.00838541
32.6216
0.000749612
0.0183876
0.000726894
94.4258
0.00218526
90.3493
306.889
0.0138942
170.929
372.441
0.000753539
100.735
238.304
0.000792767
286.138
0.306039
0.000852748
0.000796298
276.846
0.00073192
0.00111209
0.11841
0.217718
432.705
268.61
0.000751234
0.000751833
6.29424
27.1055
0.00696774
2.87667
21.6419
0.000746205
0.000939664
0.000920554
167.61
269.994
3.46133
294.119
0.0167849
30.4287
0.000785526
0.00691222
0.0156296
0.0446297
0.000747425
299.238
0.000741463
0.0155213
0.000769301
0.435446
0.0143972
0.0251565
2.2543
5.11019
39.4946
1.93223
9.18059
31.9249
189.249
0.000811049
176.916
322.802
12.7642
74.5236
0.000762272
270.617
76.7747
0.000743472
410.399
72.5021
0.00297319
0.0332609
160.753
159.962
0.0705666
313.257
409.325
4.3184
430.935
259.146
127.132
57.6472
18.7887
28.531
261.807
286.279
0.0139016
306.123
38.8935
408.944
0.00081177
1.5833
1.76707
224.338
162.535
0.0113914
451.395
194.699
7.18439
0.0596774
2.84055
32.2094
0.00151258
32.2859
441.883
0.0292497
220.629
13.3259
92.3729
188.219
0.000744286
0.00167113
7.07769
5.32757
0.0138644
0.000746936
0.860875
1.8993
0.00118768
0.000758634
275.493
6.78817
50.879
10.727
0.00303478
0.00106505
0.133766
91.4095
0.000815879
21.0819
34.7384
1.79966
171.335
0.000989292
0.415862
0.000739667
3.2481
85.9788
0.00146856
0.180989
45.8953
161.283
0.492269
94.6426
5.2188
0.479751
0.000980174
32.2096
327.761
0.000742653
0.000755092
146.621
0.015166
0.000758142
71.788
2.90743
166.816
33.5029
38.8161
0.299248
16.8082
207.326
158.321
258.2
0.000759839
286.486
0.000977832
32.2781
0.000819023
0.00120717
50.5219
0.00209553
258.371
0.0120889
0.0313465
45.9625
7.8804
0.868039
0.000884665
182.815
0.000875123
0.000722973
340.46
159.589
40.0401
32.6142
0.000806891
0.000716918
18.6273
147.221
0.000729791
213.517
37.722
0.000750142
168.472
0.000719017
3.51283
6.31588
10.4035
1.43592
77.9648
21.7567
0.000719039
267.102
326.112
0.000742277
0.0141343
32.8692
0.000719755
237.808
166.066
408.343
0.000743273
0.000728689
214.91
0.10659
0.000835148
31.5272
81.8784
267.783
0.000724204
0.000797682
0.0152555
0.0115971
0.000744929
0.00203337
124.782
55.2621
0.000744827
12.6187
0.00074596
10.4142
0.00109956
0.000856522
26.4839
0.000750553
0.28892
0.000730923
47.328
3.1565
19.266
184.81
364.668
163.491
4.97604
17.0831
0.000758206
5.45065
276.209
536.198
0.152041
0.00081858
127.724
0.00074461
0.159769
0.000723738
441.74
15.6022
3.27222
193.339
52.7755
5.16708
79.2721
7.91551
223.092
112.579
0.00076889
0.000766991
0.00303742
0.000797581
0.0138233
94.8993
0.000938425
245.75
0.00185573
0.136497
2.90805
165.247
0.00137092
40.5826
0.0144151
52.1383
29.6469
438.531
0.000819495
0.000963483
0.442403
84.577
65.9921
64.6622
1.83407
7.21598
18.5378
0.063086
8.91755
4.00846
35.0983
0.000754965
396.368
1.3834
55.1488
0.000783843
52.2789
16.6616
0.0013834
90.8553
16.8528
0.0810624
0.000724719
0.000743879
217.185
47.5042
16.0762
0.000736261
0.00933597
57.1968
187.031
5.31556
0.00573657
0.000733877
143.9
128.53
40.2986
34.8833
0.000741457
114.739
434.216
0.000746614
0.000748671
18.7181
0.00104443
0.00372263
0.3759
47.9305
0.00106477
40.4805
342.189
0.000748229
0.000827234
0.000730208
0.000765792
65.4404
521.664
331.192
0.0199432
32.7681
52.5143
0.132022
43.6953
0.000853148
36.5217
0.524154
34.473
5.25438
83.6424
115.395
0.849154
0.000758564
158.572
89.8683
292.619
5.50617
34.5515
0.528988
17.4887
0.00345312
0.00130769
168.276
141.751
0.0385347
1.52372
0.000751388
0.0967755
19.0326
0.0291676
13.9447
1.86805
394.418
42.6643
1.72418
274.96
138.699
60.6001
15.0602
215.917
191.689
3.15126
37.3935
0.00203022
46.7188
44.5537
0.000743016
0.000720268
0.289035
0.000746189
0.000784526
61.6268
303.762
0.000743383
88.0842
0.000742864
0.000736309
0.000739203
0.000761387
0.00177851
33.7788
41.9844
248.399
0.00072781
0.000971186
6.42851
0.000845729
0.0282499
0.000762718
0.000877712
181.029
0.000968234
0.00463187
190.159
0.0041462
0.000748359
202.665
0.000743959
0.000757387
3.64783
0.000863214
5.24619
0.00125503
0.0231016
0.000743538
0.000754277
301.65
418.791
42.0184
0.0242991
124.218
15.5333
0.00131666
31.4149
312.176
233.915
481.607
0.000768992
23.9644
56.4382
0.25305
32.692
103.243
0.34513
36.1112
2.15362
32.7292
0.413824
7.24499
0.000757391
217.105
0.000810258
32.9983
31.3224
0.000747115
0.900081
0.00237589
0.0124111
0.000730329
3.77527
0.000881774
0.00074416
45.0929
0.185381
0.158866
229.509
154.767
0.000829242
0.000975765
29.5635
258.947
0.000736518
0.000751338
0.209562
24.3734
145.646
0.00208841
15.2874
0.000743692
0.000810529
0.000722806
0.0273447
24.601
0.00408623
277.629
34.2463
257.722
170.58
0.000834108
297.034
65.352
0.000733548
0.000753972
0.000750386
0.00116814
0.000739218
137.955
0.00074498
0.000747394
356.065
1.15306
0.0025896
0.0154936
69.3209
7.43409
0.0114443
0.0008168
184.398
0.000762639
7.54082
0.000757702
0.000836357
161.645
160.065
0.00328221
0.000857981
5.24689
0.000743665
373.543
0.000755204
147.419
0.0210359
8.69556
0.0355257
3.29533
3.47581
30.1502
0.000760525
0.000849711
0.00472877
57.0524
0.254571
301.527
0.000745062
0.00125871
0.00162526
255.601
61.8558
281.349
0.00224658
0.00352018
0.83496
0.000750239
24.268
37.3078
0.00856356
278.671
179.101
45.5811
0.00151467
1.39258
177.644
223.138
31.9275
0.010488
136.192
0.793704
130.693
0.139027
2.2006
40.1302
0.000761924
32.4208
0.00122959
0.00486928
0.0030731
0.045498
0.000894257
10.6447
0.000744905
48.3786
0.129347
0.000876413
4.01567
0.000756611
0.734168
0.215964
44.5862
3.90316
100.019
0.757805
0.000747485
0.000730509
2.01314
0.14908
42.0861
260.245
0.000750464
153.973