/*--------------------------------*- C++ -*----------------------------------*\
| =========                 |                                                 |
| \\      /  F ield         | OpenFOAM: The Open Source CFD Toolbox           |
|  \\    /   O peration     | Version:  2.3.1                                 |
|   \\  /    A nd           | Web:      www.OpenFOAM.org                      |
|    \\/     M anipulation  |                                                 |
\*---------------------------------------------------------------------------*/
FoamFile
{
    version     2.0;
    format      ascii;
    class       volScalarField;
    location    "0.26";
    object      p;
}
// * * * * * * * * * * * * * * * * * * * * * * * * * * * * * * * * * * * * * //

dimensions      [0 2 -2 0 0 0 0];

internalField   nonuniform List<scalar> 
9648
(
-0.0995026
-0.391968
-0.741378
-1.15133
-1.64288
-2.22877
-2.92108
-3.7232
-4.65078
-5.72006
-6.94153
-8.32782
-9.89131
-11.6424
-13.5897
-15.7427
-18.1085
-20.6949
-23.5045
-26.5408
-29.8078
-33.301
-37.0196
-40.9587
-45.1138
-49.4741
-54.026
-58.7549
-63.6381
-68.6651
-73.8188
-79.0887
-84.4678
-89.9341
-95.4714
-101.041
-106.622
-112.2
-117.748
-123.254
-128.698
-134.077
-139.364
-144.545
-149.597
-154.469
-159.144
-163.612
-167.892
-171.946
-175.761
-179.335
-182.666
-185.721
-188.501
-190.991
-193.178
-195.071
-196.646
-197.917
-198.869
0.445563
0.162924
-0.173253
-0.578759
-1.05856
-1.62222
-2.28287
-3.05735
-3.95262
-4.9802
-6.15133
-7.47777
-8.97041
-10.6393
-12.4936
-14.5416
-16.7903
-19.2458
-21.9122
-24.7927
-27.8892
-31.2003
-34.7238
-38.4558
-42.3912
-46.521
-50.8324
-55.3089
-59.9317
-64.6868
-69.561
-74.5446
-79.6316
-84.8075
-90.0517
-95.3307
-100.623
-105.907
-111.16
-116.366
-121.507
-126.581
-131.576
-136.475
-141.243
-145.839
-150.239
-154.437
-158.437
-162.25
-165.849
-169.221
-172.352
-175.232
-177.842
-180.181
-182.229
-183.999
-185.468
-186.638
-187.493
0.273326
0.0157565
-0.296065
-0.663449
-1.10446
-1.63213
-2.25436
-2.98392
-3.83153
-4.81051
-5.93125
-7.20549
-8.64369
-10.2554
-12.0496
-14.0342
-16.216
-18.6006
-21.1919
-23.9931
-27.0056
-30.2282
-33.6591
-37.2941
-41.1278
-45.1515
-49.3528
-53.7162
-58.224
-62.8631
-67.6193
-72.4813
-77.4398
-82.4805
-87.5835
-92.7311
-97.9113
-103.112
-108.299
-113.433
-118.484
-123.436
-128.292
-133.045
-137.668
-142.137
-146.434
-150.555
-154.493
-158.234
-161.761
-165.059
-168.124
-170.932
-173.49
-175.777
-177.802
-179.531
-180.976
-182.134
-183.014
0.499867
0.241085
-0.0658229
-0.429514
-0.860114
-1.36888
-1.96685
-2.66566
-3.47703
-4.41344
-5.48666
-6.70793
-8.08751
-9.63472
-11.359
-13.2676
-15.367
-17.6626
-20.158
-22.8562
-25.7582
-28.8626
-32.1676
-35.6685
-39.3596
-43.2314
-47.2723
-51.4702
-55.813
-60.2878
-64.8806
-69.5708
-74.3361
-79.1607
-84.0242
-88.9329
-93.9122
-98.9464
-104.013
-109.032
-113.937
-118.726
-123.377
-127.902
-132.282
-136.492
-140.558
-144.487
-148.27
-151.877
-155.272
-158.437
-161.366
-164.049
-166.482
-168.659
-170.573
-172.213
-173.576
-174.658
-175.461
0.579317
0.352716
0.0771076
-0.256406
-0.655956
-1.13168
-1.69395
-2.35363
-3.12308
-4.01336
-5.03709
-6.20407
-7.52475
-9.00738
-10.6623
-12.4954
-14.5134
-16.7215
-19.1218
-21.7177
-24.5104
-27.4972
-30.6777
-34.0452
-37.5939
-41.315
-45.1985
-49.2382
-53.4204
-57.7333
-62.1583
-66.6702
-71.257
-75.8919
-80.5604
-85.2725
-90.0262
-94.8411
-99.6678
-104.465
-109.227
-113.912
-118.505
-122.934
-127.12
-131.074
-134.856
-138.548
-142.159
-145.634
-148.915
-151.966
-154.78
-157.355
-159.686
-161.769
-163.594
-165.159
-166.463
-167.497
-168.261
0.680328
0.472859
0.220054
-0.0880922
-0.458869
-0.903201
-1.43073
-2.05221
-2.78067
-3.62582
-4.60151
-5.71558
-6.97921
-8.39773
-9.98472
-11.7436
-13.6807
-15.8019
-18.1061
-20.5983
-23.2803
-26.1471
-29.2015
-32.4329
-35.8378
-39.4089
-43.1386
-47.0228
-51.0435
-55.1721
-59.3966
-63.7035
-68.0949
-72.5887
-77.1497
-81.731
-86.3057
-90.7748
-95.184
-99.577
-104.016
-108.63
-113.266
-117.751
-121.895
-125.613
-129.102
-132.497
-135.868
-139.176
-142.319
-145.246
-147.942
-150.405
-152.631
-154.611
-156.34
-157.818
-159.048
-160.023
-160.737
0.785428
0.596831
0.365534
0.0807973
-0.262866
-0.677689
-1.17242
-1.7567
-2.44579
-3.2467
-4.17638
-5.23931
-6.44814
-7.80229
-9.3229
-11.0079
-12.8638
-14.8989
-17.1059
-19.4903
-22.0605
-24.8034
-27.7327
-30.8297
-34.0902
-37.5131
-41.0833
-44.8185
-48.6733
-52.6198
-56.633
-60.6905
-64.8613
-69.1779
-73.6436
-78.204
-82.6444
-86.9078
-90.8575
-94.6361
-98.6351
-102.939
-107.596
-112.239
-116.385
-120.047
-123.302
-126.397
-129.506
-132.589
-135.571
-138.353
-140.919
-143.269
-145.389
-147.268
-148.895
-150.278
-151.43
-152.347
-153.01
0.889613
0.720458
0.512528
0.249583
-0.0665966
-0.453469
-0.918126
-1.46299
-2.11595
-2.87057
-3.75885
-4.77053
-5.93361
-7.21534
-8.67256
-10.2863
-12.0564
-14.0128
-16.1204
-18.3857
-20.8525
-23.4598
-26.2756
-29.2442
-32.3543
-35.6304
-39.0217
-42.5914
-46.303
-50.0751
-53.9204
-57.7642
-61.6086
-65.6326
-69.923
-74.3249
-78.8758
-83.1149
-86.8519
-90.2696
-93.5201
-97.328
-101.644
-106.125
-110.405
-114.087
-117.333
-120.26
-123.113
-125.943
-128.729
-131.323
-133.731
-135.966
-137.992
-139.752
-141.283
-142.548
-143.625
-144.497
-145.099
0.999885
0.839695
0.672156
0.413551
0.136532
-0.234528
-0.676103
-1.15233
-1.80291
-2.47527
-3.36043
-4.28833
-5.46328
-6.60329
-8.03951
-9.60121
-11.242
-13.1654
-15.1531
-17.2648
-19.7119
-22.1
-24.8712
-27.6878
-30.6246
-33.8339
-36.944
-40.3679
-43.9505
-47.4945
-51.3149
-54.9606
-58.4968
-62.2095
-66.119
-70.031
-74.6081
-79.0784
-83.0672
-86.3936
-89.0445
-92.209
-95.6496
-99.7891
-103.855
-107.678
-111.386
-114.179
-116.792
-119.189
-121.86
-124.184
-126.451
-128.636
-130.537
-132.114
-133.643
-134.696
-135.775
-136.605
-137.08
-199.482
-199.78
-199.76
-199.413
-198.76
-197.791
-196.508
-194.908
-192.987
-190.773
-188.24
-185.406
-182.311
-178.952
-175.321
-171.432
-167.293
-162.932
-158.34
-153.533
-148.542
-143.354
-137.996
-132.478
-126.828
-121.045
-115.123
-109.099
-102.977
-96.7906
-90.5388
-84.2425
-77.9232
-71.5811
-65.2444
-58.9149
-52.6161
-46.3597
-40.154
-34.0157
-27.9562
-21.9987
-16.1405
-10.4018
-4.79644
0.67324
5.99162
11.1505
16.1351
20.9388
25.5568
29.9784
34.1929
38.1991
41.9867
45.5508
48.8865
51.9887
54.857
57.4874
59.8797
-188.037
-188.268
-188.22
-187.867
-187.218
-186.281
-185.042
-183.504
-181.66
-179.525
-177.095
-174.382
-171.437
-168.238
-164.783
-161.078
-157.136
-152.972
-148.591
-144.006
-139.235
-134.283
-129.165
-123.89
-118.475
-112.936
-107.295
-101.557
-95.729
-89.8306
-83.8734
-77.8729
-71.8441
-65.7988
-59.7531
-53.7165
-47.7049
-41.7319
-35.8091
-29.9489
-24.1646
-18.4718
-12.8778
-7.39584
-2.03818
3.1883
8.27244
13.2038
17.9708
22.5664
26.9839
31.2145
35.2491
39.0847
42.7122
46.1273
49.3232
52.2977
55.048
57.5713
59.8667
-183.598
-183.89
-183.856
-183.518
-182.897
-181.996
-180.77
-179.241
-177.4
-175.279
-172.893
-170.243
-167.304
-164.11
-160.673
-157.003
-153.106
-148.996
-144.68
-140.172
-135.484
-130.625
-125.606
-120.439
-115.134
-109.704
-104.167
-98.536
-92.8227
-87.0411
-81.2047
-75.3283
-69.4256
-63.5101
-57.5949
-51.6916
-45.8132
-39.9726
-34.1825
-28.4554
-22.8042
-17.2419
-11.7784
-6.4254
-1.19322
3.90972
8.87282
13.6859
18.3389
22.8247
27.1351
31.263
35.2008
38.9441
42.485
45.8188
48.94
51.8451
54.5317
56.9967
59.2405
-175.98
-176.216
-176.156
-175.803
-175.148
-174.183
-172.969
-171.512
-169.792
-167.797
-165.527
-162.999
-160.204
-157.161
-153.876
-150.358
-146.618
-142.667
-138.514
-134.175
-129.66
-124.98
-120.145
-115.166
-110.054
-104.821
-99.4822
-94.0514
-88.5409
-82.9633
-77.3311
-71.6597
-65.9625
-60.2535
-54.5435
-48.8445
-43.1685
-37.5272
-31.9342
-26.4013
-20.9412
-15.5661
-10.2866
-5.11342
-0.0561284
4.87757
9.67644
14.3313
18.8313
23.1712
27.3418
31.336
35.1485
38.7731
42.2047
45.4356
48.4633
51.2815
53.8892
56.2827
58.4634
-168.75
-168.966
-168.903
-168.564
-167.945
-167.047
-165.876
-164.417
-162.707
-160.745
-158.529
-156.064
-153.354
-150.408
-147.231
-143.832
-140.217
-136.397
-132.384
-128.193
-123.834
-119.318
-114.653
-109.848
-104.915
-99.866
-94.7151
-89.4766
-84.1615
-78.7821
-73.3485
-67.8781
-62.3831
-56.8793
-51.3742
-45.8799
-40.4066
-34.9657
-29.5715
-24.235
-18.968
-13.7838
-8.69173
-3.7025
1.17468
5.93528
10.564
15.0559
19.3969
23.5851
27.6101
31.4647
35.1452
38.6444
41.9603
45.0828
48.0116
50.7363
53.2601
55.5765
57.689
-161.189
-161.375
-161.293
-160.944
-160.329
-159.454
-158.314
-156.909
-155.252
-153.351
-151.208
-148.825
-146.206
-143.363
-140.302
-137.027
-133.542
-129.858
-125.988
-121.95
-117.753
-113.408
-108.921
-104.297
-99.5499
-94.6901
-89.7315
-84.6923
-79.5796
-74.4053
-69.1752
-63.9121
-58.6246
-53.3346
-48.0418
-42.7597
-37.4964
-32.2624
-27.0741
-21.9403
-16.8729
-11.8863
-6.98759
-2.18913
2.50068
7.08393
11.5378
15.8631
20.0383
24.0702
27.944
31.653
35.1973
38.5645
41.7621
44.7709
47.5978
50.2247
52.6627
54.8968
56.9388
-153.42
-153.573
-153.472
-153.112
-152.502
-151.646
-150.534
-149.166
-147.559
-145.723
-143.657
-141.358
-138.831
-136.098
-133.158
-130.01
-126.66
-123.109
-119.384
-115.503
-111.473
-107.307
-103.006
-98.5675
-94.0115
-89.3432
-84.5821
-79.7482
-74.8442
-69.8796
-64.8556
-59.8026
-54.7268
-49.6587
-44.5847
-39.5237
-34.4788
-29.4573
-24.4806
-19.5575
-14.6952
-9.91112
-5.21124
-0.609739
3.88664
8.2889
12.564
16.7208
20.7253
24.595
28.3123
31.871
35.2735
38.5034
41.5804
44.4725
47.1978
49.7231
52.0714
54.2182
56.1878
-145.468
-145.577
-145.458
-145.077
-144.478
-143.642
-142.563
-141.21
-139.641
-137.887
-135.903
-133.685
-131.251
-128.629
-125.824
-122.806
-119.591
-116.17
-112.597
-108.88
-105.017
-101.037
-96.9392
-92.6837
-88.3225
-83.8501
-79.294
-74.6703
-69.9696
-65.2198
-60.3958
-55.5588
-50.6918
-45.8597
-41.0088
-36.1889
-31.3829
-26.565
-21.8011
-17.1079
-12.4456
-7.86398
-3.37622
1.03071
5.31915
9.54589
13.6344
17.6286
21.4478
25.1532
28.7049
32.1006
35.3663
38.4497
41.4153
44.1849
46.8154
49.2244
51.4834
53.5316
55.4327
-137.408
-137.445
-137.316
-136.912
-136.327
-135.485
-134.45
-133.039
-131.554
-129.992
-128.017
-125.886
-123.507
-120.981
-118.412
-115.451
-112.368
-109.145
-105.698
-102.161
-98.3821
-94.5706
-90.7746
-86.6052
-82.4522
-78.2547
-73.8386
-69.461
-64.857
-60.4404
-55.6914
-51.195
-46.4238
-41.9297
-37.2624
-32.7127
-28.2064
-23.4745
-18.9311
-14.5154
-9.97068
-5.64231
-1.40436
2.8881
6.82249
11.0154
14.7801
18.7295
22.2257
25.8415
29.2447
32.3809
35.6271
38.4486
41.4392
43.9592
46.602
48.7463
51.0422
52.8925
54.8331
62.0355
63.9535
65.6346
67.0793
68.2876
69.264
70.0123
70.5376
70.844
70.9399
70.8573
70.6374
70.252
69.6622
68.9144
68.0008
66.8751
65.565
64.0922
62.4696
60.7086
58.8196
56.8148
54.7057
52.5049
50.2253
47.8804
45.4846
43.0502
40.5932
38.1267
35.6658
33.2261
30.8209
28.4673
26.1781
23.9684
21.8541
19.856
17.9911
16.2818
14.7347
13.3628
12.1858
11.2181
10.4689
9.9472
9.65442
9.5843
9.71804
10.0211
10.439
10.8925
11.279
11.475
10.8005
9.30105
7.78924
6.55801
5.64213
4.84021
61.935
63.7769
65.3926
66.7826
67.9473
68.8885
69.6102
70.1165
70.4113
70.4963
70.3983
70.1805
69.8152
69.2498
68.5187
67.6185
66.5235
65.2508
63.8194
62.2421
60.5296
58.6926
56.7434
54.6944
52.5573
50.3444
48.0681
45.7415
43.3774
40.9898
38.5918
36.1977
33.8219
31.4782
29.1815
26.9462
24.7865
22.7127
20.7346
18.8769
17.1489
15.5875
14.1979
12.9945
11.9893
11.1924
10.6119
10.2496
10.0999
10.1459
10.3562
10.6806
11.0431
11.3438
11.4066
10.7714
9.45486
8.11626
7.06883
6.27618
5.4628
61.2622
63.0638
64.6451
66.0076
67.151
68.0782
68.7924
69.2981
69.5964
69.6813
69.6023
69.4114
69.064
68.5236
67.8187
66.9505
65.9019
64.6843
63.3123
61.7982
60.1525
58.3855
56.5093
54.5354
52.4747
50.3395
48.1417
45.8937
43.6081
41.2981
38.9768
36.6578
34.3547
32.0811
29.8509
27.6779
25.5752
23.5547
21.6301
19.8221
18.1496
16.6208
15.2529
14.0554
13.0391
12.2136
11.5854
11.1552
10.9171
10.8554
10.9402
11.1248
11.3341
11.4664
11.3457
10.7026
9.55365
8.33783
7.32567
6.4957
5.67403
60.429
62.1825
63.7226
65.0526
66.1703
67.0801
67.7829
68.2842
68.5809
68.6651
68.6087
68.4508
68.1247
67.615
66.9401
66.1056
65.103
63.9416
62.6311
61.1834
59.6082
57.915
56.1166
54.2233
52.2453
50.1958
48.0852
45.9261
43.73
41.5102
39.2788
37.0493
34.8342
32.6471
30.5007
28.4085
26.3831
24.437
22.5836
20.8388
19.2175
17.7307
16.3899
15.2036
14.1816
13.3316
12.6573
12.1576
11.8248
11.6436
11.5848
11.6048
11.6352
11.5829
11.3114
10.6687
9.6722
8.57787
7.59226
6.73664
5.92683
59.5925
61.2941
62.7891
64.0835
65.1716
66.061
66.7483
67.2416
67.5328
67.6199
67.586
67.4595
67.155
66.6766
66.0332
65.2347
64.2764
63.1703
61.9205
60.5393
59.0356
57.4166
55.6975
53.887
51.9936
50.0324
48.0114
45.9442
43.8399
41.713
39.5738
37.4361
35.3108
33.2118
31.1504
29.1404
27.193
25.3207
23.535
21.8498
20.2774
18.8296
17.5161
16.3439
15.319
14.4468
13.7294
13.1633
12.7394
12.4417
12.2427
12.1023
11.9629
11.7501
11.3712
10.7406
9.86817
8.89282
7.95289
7.09155
6.27904
58.7757
60.4239
61.8704
63.129
64.1847
65.0534
65.7233
66.2086
66.4939
66.5911
66.5767
66.4764
66.194
65.7473
65.1356
64.3754
63.4603
62.4095
61.2194
59.9049
58.4736
56.928
55.2891
53.5628
51.7542
49.883
47.9525
45.9788
43.9668
41.9341
39.8877
37.8428
35.8073
33.7969
31.8201
29.892
28.0219
26.2223
24.5016
22.8737
21.3481
19.9368
18.6473
17.4854
16.4547
15.5578
14.7958
14.1636
13.6512
13.2436
12.9152
12.6313
12.3454
12.0025
11.5419
10.9155
10.127
9.24876
8.36517
7.51892
6.70694
57.9546
59.5481
60.9434
62.1659
63.1878
64.0371
64.6902
65.1678
65.4485
65.5611
65.564
65.4857
65.2262
64.811
64.2314
63.5111
62.6394
61.6445
60.5126
59.2657
57.9088
56.4371
54.8797
53.238
51.514
49.7353
47.8966
46.018
44.0989
42.1622
40.2096
38.2586
36.3129
34.3911
32.4981
30.652
28.8589
27.1311
25.4731
23.9004
22.4188
21.0418
19.7743
18.6204
17.5821
16.6595
15.8542
15.1586
14.5624
14.0542
13.6102
13.2022
12.7936
12.3454
11.8181
11.1841
10.4431
9.63267
8.80191
7.98202
7.18168
57.1177
58.6619
59.998
61.1897
62.1705
63.0058
63.6387
64.1131
64.3881
64.5239
64.5369
64.4813
64.2417
63.8607
63.3112
62.6338
61.8013
60.8711
59.7888
58.6126
57.3353
55.9315
54.4655
52.9082
51.2609
49.5822
47.8333
46.0555
44.2249
42.3895
40.5288
38.676
36.8172
34.9863
33.1721
31.4094
29.6918
28.038
26.4383
24.9204
23.4764
22.1332
20.8849
19.741
18.6936
17.7445
16.9018
16.1486
15.475
14.8794
14.3342
13.8228
13.3117
12.7786
12.1935
11.544
10.8244
10.0571
9.26409
8.47095
7.68839
56.3047
57.9095
59.0869
60.3548
61.1847
62.0845
62.5902
63.1571
63.3469
63.6017
63.5237
63.5698
63.2701
63.0145
62.4178
61.8569
60.9607
60.1993
59.116
58.019
56.8559
55.4137
54.1106
52.6694
51.0113
49.5071
47.7777
46.169
44.3546
42.6805
40.849
39.1467
37.3272
35.6365
33.8458
32.2052
30.52
28.9774
27.3972
25.9689
24.5211
23.2381
21.9874
20.8642
19.8102
18.819
17.9546
17.1478
16.3965
15.7431
15.0993
14.5147
13.9076
13.314
12.6689
12.0084
11.2862
10.5552
9.77855
8.99892
8.237
4.06182
3.36361
2.71455
2.0633
1.41712
0.813201
0.260963
-0.232239
-0.646527
-0.97579
-1.21678
-1.37406
-1.4482
-1.43687
-1.36837
-1.26524
-1.14179
-1.01781
-0.906961
-0.816272
-0.748059
-0.696543
-0.657662
-0.625747
-0.597546
-0.568509
-0.534472
-0.492879
-0.439323
-0.373006
-0.290459
-0.190819
-0.0746937
0.0580103
0.20367
0.361858
0.527802
0.696922
0.865269
1.02718
1.17735
1.30991
1.42433
1.51538
1.5796
1.617
1.62663
1.60985
1.56768
1.50344
1.42136
1.325
1.21746
1.10432
0.986765
0.867479
0.745135
0.615593
0.468737
0.291727
0.0916026
4.64629
3.98435
3.39293
2.78518
2.16668
1.59233
1.06793
0.594507
0.197267
-0.114551
-0.336767
-0.466075
-0.503622
-0.462497
-0.377505
-0.266447
-0.14174
-0.0202967
0.0857904
0.170132
0.232218
0.276033
0.306847
0.329812
0.347466
0.364525
0.384847
0.412282
0.449966
0.500385
0.566051
0.648318
0.747471
0.862844
0.992396
1.133
1.28142
1.43394
1.58625
1.7341
1.87281
1.99732
2.10273
2.18601
2.24429
2.27629
2.28156
2.26036
2.2139
2.14474
2.05615
1.95186
1.83508
1.71181
1.58309
1.45308
1.31984
1.18297
1.03447
0.867209
0.674567
4.89278
4.23531
3.62892
2.97121
2.30279
1.71131
1.16666
0.657934
0.225329
-0.123302
-0.387614
-0.565542
-0.66044
-0.688063
-0.646975
-0.562036
-0.438152
-0.30486
-0.189151
-0.0978926
-0.0308151
0.0167656
0.0504462
0.0759347
0.0989463
0.122866
0.150937
0.186349
0.231722
0.28917
0.360936
0.448306
0.551365
0.669157
0.799859
0.940891
1.08883
1.23978
1.38944
1.53319
1.66633
1.78453
1.88389
1.9609
2.01288
2.03859
2.03774
2.0114
1.96139
1.89075
1.80298
1.70235
1.59272
1.47758
1.35962
1.24127
1.12069
0.993101
0.848822
0.67667
0.483954
5.16908
4.49952
3.86277
3.18773
2.52005
1.9293
1.3662
0.832458
0.396205
0.0532535
-0.2116
-0.385383
-0.465864
-0.467678
-0.39558
-0.267355
-0.126224
-0.0126014
0.0948448
0.187607
0.25923
0.310898
0.346233
0.370092
0.386566
0.400264
0.415106
0.435375
0.464093
0.503962
0.557499
0.626498
0.711463
0.811478
0.924969
1.04938
1.18162
1.3181
1.45488
1.58769
1.71202
1.82383
1.91928
1.99528
2.04927
2.08011
2.08733
2.07184
2.03502
1.97963
1.90809
1.82399
1.72998
1.62892
1.52124
1.40874
1.29285
1.17064
1.03716
0.891215
0.71617
5.51743
4.81826
4.14939
3.46526
2.79422
2.17604
1.58515
1.04528
0.607185
0.247934
-0.0439724
-0.232378
-0.322191
-0.340838
-0.292279
-0.197293
-0.0870456
0.0376055
0.144973
0.234206
0.299743
0.346801
0.379925
0.404733
0.423335
0.440069
0.457436
0.479594
0.508646
0.546579
0.596285
0.659691
0.73737
0.828575
0.932069
1.04553
1.16621
1.29095
1.41616
1.53805
1.65232
1.7555
1.84368
1.91439
1.96476
1.99394
2.00084
1.98657
1.9516
1.8986
1.82961
1.74821
1.65756
1.55983
1.45645
1.3587
1.259
1.15517
1.04345
0.915449
0.76362
5.93225
5.19983
4.49835
3.80281
3.12378
2.48231
1.8745
1.32071
0.85262
0.4619
0.156594
-0.0370758
-0.146995
-0.188451
-0.14676
-0.0496371
0.0660793
0.182703
0.286527
0.364436
0.417675
0.455737
0.481242
0.500374
0.512552
0.523371
0.53377
0.549112
0.57053
0.599293
0.639104
0.691879
0.758231
0.837176
0.927871
1.02798
1.13505
1.24626
1.35835
1.46806
1.57109
1.6648
1.74506
1.81042
1.85744
1.88622
1.89493
1.8857
1.85808
1.81536
1.75895
1.69269
1.61972
1.54408
1.46952
1.38463
1.29833
1.20754
1.10641
0.989314
0.849261
6.40422
5.65349
4.92671
4.2169
3.52757
2.8732
2.25647
1.69332
1.19927
0.781873
0.453204
0.227893
0.0859387
0.0344629
0.0740959
0.158528
0.264085
0.370431
0.46202
0.526607
0.561121
0.583723
0.595765
0.606408
0.609929
0.613749
0.615052
0.6226
0.635575
0.653194
0.682216
0.723433
0.778165
0.844532
0.922328
1.00898
1.10242
1.20011
1.29925
1.39714
1.48918
1.57378
1.64627
1.70658
1.75008
1.7785
1.78882
1.78437
1.76354
1.73055
1.68554
1.63285
1.57414
1.51162
1.4475
1.38282
1.31512
1.2426
1.15926
1.05988
0.936748
6.91872
6.16608
5.42984
4.71669
4.02104
3.36651
2.75058
2.19348
1.69255
1.26303
0.916381
0.664118
0.480696
0.40193
0.407047
0.458065
0.553554
0.627596
0.686222
0.732938
0.736194
0.735453
0.72576
0.727838
0.716667
0.712207
0.699571
0.700079
0.706586
0.708952
0.725789
0.755649
0.801198
0.855641
0.921955
0.996207
1.07711
1.16248
1.25012
1.33819
1.42021
1.49745
1.56234
1.61911
1.65832
1.68681
1.69726
1.69729
1.68084
1.65563
1.6179
1.57516
1.52834
1.47746
1.42666
1.37614
1.32425
1.26982
1.20477
1.12545
1.02077
7.46668
6.73273
5.99072
5.28108
4.58515
3.94944
3.34742
2.83425
2.34144
1.93062
1.60012
1.36582
1.10646
0.997001
0.969795
0.951639
1.00991
0.933238
0.931388
1.00164
0.938224
0.913941
0.859007
0.883057
0.831181
0.834611
0.781545
0.782299
0.793263
0.770291
0.760254
0.788817
0.833222
0.871453
0.929358
0.992508
1.05995
1.13741
1.21533
1.303
1.36905
1.45082
1.49753
1.56339
1.58646
1.62508
1.62043
1.63927
1.6131
1.60283
1.55962
1.51878
1.48418
1.44446
1.407
1.36976
1.33052
1.29665
1.24445
1.1938
1.10039
4.68485
-4.78727
-6.10561
15.5906
5.55557
19.8791
18.2633
11.036
11.6983
29.0863
1.71642
24.4354
18.3608
2.90045
22.162
-102.578
20.7024
12.4325
1.50681
17.824
15.8525
3.32118
0.847411
20.325
11.603
17.1249
17.8766
9.6802
20.454
6.97898
10.1586
17.3113
28.4352
1.73239
23.7081
0.905375
0.817574
57.4267
18.8487
18.0747
7.61323
-3.14436
18.1735
-88.9897
0.276719
32.1388
11.4108
2.98073
16.7434
26.0741
-4.03006
-47.807
17.5286
9.53494
14.3595
16.9346
7.09822
7.6936
1.02278
-32.7991
3.83657
15.671
17.9439
-8.24088
-26.9492
14.415
0.900255
8.91981
19.0732
18.2374
15.2361
59.5582
6.56
12.5853
13.5973
6.74938
-13.3449
45.1576
17.458
28.8023
-0.606135
17.2282
17.3335
-35.6288
18.1239
50.0985
12.173
1.80419
15.8663
1.71298
-14.0764
17.4453
5.27431
-33.2726
-38.4249
5.77591
44.6097
9.73364
25.5482
-103.041
14.109
16.1646
24.7601
17.3068
18.2054
17.4882
15.0933
39.983
19.95
-80.0668
-110.55
16.4383
0.438646
1.43425
5.85481
2.25189
1.15916
19.7241
-7.34349
11.2159
12.4944
0.0193755
11.1835
-119.669
-28.1007
10.9768
15.4692
-47.0279
-34.5005
17.9769
21.2828
-8.09515
4.53423
10.908
2.77574
10.9824
18.1058
-55.5132
-32.3885
11.84
9.37526
-54.5495
14.9238
49.0387
1.52691
13.0795
17.2784
1.54267
31.9582
-0.867078
16.335
16.6971
59.1269
-32.5509
-61.0737
8.97287
8.4632
-27.8092
17.5874
0.820871
17.2975
26.4828
17.2696
12.6963
15.0827
14.0307
6.96284
9.59711
17.5874
0.181302
-2.13041
1.7185
5.87516
17.5402
1.41708
1.45615
1.27646
9.05555
22.6083
1.98178
1.99839
-1.55253
-31.9886
9.99002
6.60976
0.755464
-10.5658
52.3114
10.1198
11.6261
25.3379
20.4311
-18.0119
-39.6107
17.7146
-31.6616
4.25678
0.163512
21.4585
0.907955
10.1115
15.1521
13.8009
-59.5179
-2.00783
20.9998
8.65655
16.5727
-46.3857
1.02634
40.9472
-6.19829
16.4459
-118.687
11.2165
-77.2479
-66.4915
1.53199
34.0171
1.88694
11.258
40.1763
12.1717
17.447
1.15978
-7.70708
-9.3172
11.6166
17.1492
59.7772
1.47068
21.4633
-5.64259
-37.2834
13.4736
19.4318
2.96697
-56.8199
-46.6133
19.4979
13.1188
8.98275
11.1146
16.8284
-125.097
16.4933
8.47798
-98.9673
24.0494
17.2681
9.01129
23.8022
1.42545
8.5458
11.275
18.8403
25.1351
15.1763
7.03258
2.09406
15.9623
10.288
-66.5558
18.7742
0.787623
13.4351
17.6736
1.10129
17.7026
1.23767
23.8382
1.25146
22.987
11.5972
53.3039
10.1912
14.4589
10.9536
16.1365
20.8631
50.3791
9.62178
-71.8994
15.7909
15.049
18.7893
17.433
-61.019
7.75677
8.09834
-26.7797
40.7892
14.9217
17.4521
34.9237
17.5478
9.3929
5.10104
-0.981378
16.6761
10.873
5.48403
49.1914
-3.97731
4.21391
-81.5025
21.9612
18.7824
19.5391
-100.395
9.94278
12.5485
11.6804
-12.9891
16.3563
14.4148
0.741578
1.46085
7.21519
2.052
17.2876
3.71104
15.6022
14.9136
-28.2282
2.01587
15.4289
1.06583
-91.0552
6.44931
-27.2418
-46.5246
-103.814
2.27161
1.63824
17.3791
0.583632
0.838347
-124.419
35.2912
15.1958
14.9483
12.1665
11.7264
49.825
10.9569
-9.05432
18.9673
-72.1349
15.125
1.4381
-46.1574
-114.616
10.5349
-61.8241
8.65558
2.84006
15.0736
1.86458
2.39576
10.2988
0.39044
1.12595
-5.62333
0.876107
16.8117
6.93245
-115.747
-35.2226
3.95822
16.7433
-27.3208
-51.0802
12.8258
1.71472
15.8824
-6.34361
7.72984
1.6146
-73.394
0.859909
-81.4342
20.4461
-90.5206
11.4221
5.12281
21.9139
1.33711
-119.142
-27.196
47.4219
50.1056
3.36008
0.95424
18.0571
30.3414
17.3149
-0.50012
12.2331
-9.1465
17.1358
18.9573
22.0791
21.0457
-7.84199
-47.4198
11.887
-82.9013
0.774086
-11.9352
2.08872
-62.7398
-2.24769
19.0193
-125.762
10.6139
9.65602
24.2307
-53.6358
17.4729
18.3024
1.59899
17.9436
9.77026
14.9332
1.28343
35.9452
-26.5875
-52.5015
9.76975
-61.7612
9.19912
-55.5118
17.3872
16.2584
1.04514
3.83187
-94.1956
-1.98527
1.45524
-10.9642
-63.5883
-61.1509
18.1762
4.87471
-42.3856
-50.7984
17.5338
3.60379
-33.6677
22.9938
13.7107
37.1688
-40.8258
-0.0429637
-9.81167
0.54317
9.07517
-91.1121
2.43915
10.663
20.0224
46.8401
2.73762
44.3698
2.17959
17.7712
1.88624
1.55906
13.4929
12.8764
0.130498
1.5339
17.3543
3.18396
1.53961
2.90723
1.51655
2.23606
1.49011
8.76476
5.79192
16.3557
15.3307
-112.785
9.86829
-69.5551
-107.972
17.0024
0.462264
2.5096
19.3458
3.9019
1.44799
16.2571
17.1481
15.4996
5.47059
-37.9453
10.3195
26.6399
13.8075
13.3845
15.5863
5.48515
0.860613
13.6642
19.4167
9.81642
1.51856
14.1566
13.7463
-12.928
12.8638
-0.443162
-3.37445
-4.19037
17.1998
20.1501
9.37099
22.0878
3.54559
2.60475
48.6793
-23.2078
-5.97038
22.0669
8.25101
1.32478
1.56054
-80.0089
-28.9285
21.1305
3.15345
10.5607
0.952801
-21.3991
18.8237
12.8702
-27.3841
-86.2679
12.8925
-18.8478
-54.2907
4.49924
-106.788
9.54547
9.78815
9.15261
-33.8958
14.8723
-82.1249
-2.66887
12.7972
1.07162
17.4586
-0.209619
15.5871
12.6735
32.0066
3.03871
1.05149
15.0162
7.23313
0.89907
-48.1642
-32.1587
8.30606
-35.9389
4.79474
28.9914
1.66742
9.77115
-95.4143
10.226
8.71717
14.7978
1.53373
52.39
1.83739
8.04051
8.62547
1.45632
1.40367
13.533
16.4353
16.2956
9.72255
10.43
29.3492
-75.6136
8.4631
18.1591
-33.5322
0.627663
-89.6411
13.0791
0.927009
17.9776
-54.8587
4.12183
-21.0754
1.12469
0.945659
3.00411
-107.112
20.7233
17.467
6.52053
16.5916
-27.8881
-21.8119
-6.32992
10.0626
9.30098
5.00547
17.2742
-0.0991193
0.901809
16.3112
23.2879
1.49989
-60.1771
21.0741
1.75147
20.6792
-8.6239
17.3952
36.4012
6.60083
29.7734
18.6439
-29.7019
-22.7687
-5.05529
19.2671
10.5053
-32.7584
16.9035
12.7146
4.54691
5.76382
0.88577
-32.4265
41.2534
4.02843
2.22556
1.10371
-91.0566
9.78764
23.4545
16.2198
1.18982
5.487
-24.0647
14.2556
12.8468
6.37765
1.32065
-7.50066
14.7605
1.96702
11.1847
-21.4299
1.45171
39.8245
1.15931
-0.0810391
8.13897
57.1997
17.0839
17.3133
1.36776
10.4275
7.49559
8.92567
10.3075
-117.803
2.29889
-35.278
30.711
17.3666
8.69122
19.4871
-6.40868
-10.8215
1.4127
3.90294
1.51077
13.0801
-2.33821
18.7218
-89.1915
17.333
7.02135
2.26325
-3.52729
3.0411
-7.66248
10.8205
3.49335
0.760749
19.4768
-122.619
16.0713
17.5505
10.6979
-4.69317
19.0535
3.95967
-21.3714
15.6672
-15.0247
-100.383
17.6402
9.0301
14.4312
-63.0708
-6.43293
16.7428
43.4753
12.778
9.26396
11.4347
-111.84
-127.552
16.447
-1.5543
-11.9181
1.52133
18.1295
7.19389
-11.4037
13.986
15.5159
-0.0364675
18.685
19.9157
8.67036
14.5257
-3.10335
12.7098
-5.83546
22.9024
1.84488
-4.68047
42.4026
1.2359
6.7791
22.0602
4.64913
-47.2364
24.1689
-83.7864
21.0496
1.4346
-20.425
10.3826
-10.6025
0.906232
12.5587
12.2059
-93.1926
-38.9708
13.3398
-66.8676
-9.81877
53.9116
-17.2989
-21.2926
22.483
0.906906
5.80849
12.3431
-58.0285
-24.146
-4.7655
-4.66409
-6.99728
1.20362
22.7744
18.9685
13.1657
-122.018
-45.8989
27.7682
2.49472
-112.101
11.5744
14.8997
10.5045
1.24599
4.9653
1.30425
-16.1306
21.4072
-121.528
-17.7775
-86.5933
-99.8885
18.9925
25.4483
-43.3787
25.9203
14.8828
12.4598
11.2187
10.5476
26.2092
18.0752
2.37309
-51.8086
-31.1404
24.2777
2.40461
3.64367
13.7096
1.54734
13.0836
-54.1763
1.36768
49.5082
3.97797
22.4383
11.7832
18.7449
15.7784
-76.4833
12.6978
44.783
1.07206
0.798116
32.7484
61.4715
12.6398
13.0912
25.2052
-51.4431
-16.6132
17.4311
10.0653
-92.7803
27.76
17.5579
-64.1941
16.181
3.66439
1.4941
6.2993
-16.5449
54.1984
0.953955
-9.17688
-0.494054
17.9653
0.300902
9.55711
14.5652
17.7189
12.0232
1.08949
17.524
0.866497
30.2198
0.448391
11.171
10.3585
17.212
8.62499
-51.276
9.95319
18.3273
-31.0306
-72.3736
34.8921
1.64365
7.69672
17.438
35.0869
-86.0372
9.66031
-3.30905
10.9727
16.4886
-87.7835
17.599
9.94689
49.862
30.5892
-19.9307
4.51082
16.4341
17.5786
-67.6582
-4.87947
10.3779
15.3069
1.36186
17.8167
-128.403
7.95342
1.07474
10.7664
18.915
-0.123301
15.2523
23.1549
24.472
4.65718
-0.862948
17.8641
20.8705
17.7933
20.4127
11.021
18.3693
-69.8273
2.64128
18.261
-26.2709
14.2814
7.32543
19.8349
11.8189
-62.0779
10.6483
4.92301
19.0306
-21.5011
17.2696
-25.4023
-103.994
1.89253
1.31379
-47.8879
16.5262
18.5573
-20.9028
-106.799
1.43867
-13.9574
16.0683
-83.8775
13.5622
17.214
18.4321
-19.7209
7.09724
9.7127
-29.9767
17.0357
8.73375
-84.8279
10.5547
-119.415
47.9076
11.8486
18.5396
6.3539
17.371
-9.22131
-6.72147
20.3092
-19.4616
5.7604
12.7128
-38.4634
5.15341
17.8265
-50.193
15.3281
1.70409
-67.4076
-15.0992
17.6609
19.5473
14.5602
62.2692
8.74625
-1.35827
-24.275
15.6159
-12.2061
15.537
5.15576
16.441
0.912396
9.92208
0.9179
-13.4721
59.2606
7.52212
59.5919
7.12531
12.3426
4.192
20.8969
-9.56091
18.1114
11.3384
1.62731
59.8983
17.2807
9.3927
-8.50523
0.770815
-108.833
16.5369
-5.61478
10.4704
-22.8202
-63.3353
1.13701
-73.6495
9.82057
3.15098
-27.274
18.5018
15.9241
13.9465
12.0108
21.676
17.092
12.522
17.9471
1.34478
-69.9891
18.0008
20.4602
17.7199
8.16087
-72.7494
1.53185
-25.9056
16.0623
-44.2273
1.01088
24.9501
-68.1047
17.5098
0.871021
40.0247
1.53829
22.5636
4.26107
1.90181
16.7066
10.7335
-108.033
14.4177
-1.4545
-38.9141
1.51208
15.8568
10.7755
31.0936
2.93499
1.34687
-80.6607
16.5032
17.1926
17.1684
-20.0203
-35.3293
14.2888
12.6314
15.0931
1.41527
1.75104
49.3069
0.450513
-64.9065
2.28799
-58.9424
0.56138
0.867088
32.059
51.5442
12.6352
60.2093
46.1636
18.509
17.8996
6.10719
14.6822
18.8389
2.42154
2.06994
19.8456
1.84716
10.5112
19.339
9.29536
18.8013
28.9017
1.61286
-5.91289
-122.238
18.133
11.8097
-50.811
7.86912
22.443
14.2205
10.8671
2.44864
17.5441
-2.22552
1.77553
30.5683
13.0063
0.839003
16.9356
17.6064
15.7035
5.91119
15.6388
17.3551
-3.67787
18.6725
20.7992
-78.8088
-30.3757
-19.2408
14.9243
1.63071
-51.2654
17.3965
1.60898
1.34957
-126.492
0.932852
17.4252
8.49678
30.9436
-0.66584
1.31052
9.63353
46.4427
1.71405
16.6895
1.17886
17.3344
53.9129
14.3868
-22.0924
17.376
1.06467
-69.6612
15.8648
42.7714
4.33639
12.8666
18.9795
30.159
11.1532
19.9326
2.11799
16.922
11.1384
-123.47
4.4011
18.9184
20.1789
-65.05
-82.2972
17.4673
18.3138
12.856
11.267
-58.6742
24.7231
-58.7423
17.994
11.4992
17.4376
-12.0938
5.83809
17.6385
0.702124
1.53564
-91.612
-64.1392
8.40754
-3.0233
-74.4619
18.3909
18.564
18.5909
7.51742
19.1006
2.59646
18.3823
9.7639
-2.01893
-25.56
2.60139
12.5599
1.51473
36.0544
17.3073
19.7991
-105.374
15.7522
16.0694
20.3049
12.6505
-75.5094
-7.50806
1.64255
17.6404
17.4868
17.8679
-4.54206
20.4506
-18.6764
8.27508
8.57183
13.0733
9.6354
15.6407
10.8647
10.8925
9.95492
-1.51083
-10.9895
2.59947
-88.451
12.0746
17.1524
1.02118
-94.1397
40.8139
2.47292
23.8209
16.2582
13.2038
12.0559
17.6566
60.8732
-8.21906
1.06039
-94.4165
17.692
28.057
-37.2703
3.6735
-53.7001
1.3719
30.9781
1.57895
17.2673
-23.8615
-13.4773
-38.0484
-8.99188
17.9716
1.52125
7.77559
22.7621
12.7445
19.9221
9.02362
56.8299
20.6506
17.0813
43.9931
10.7145
16.4201
18.5926
20.9289
-10.839
1.38995
9.96459
12.4507
-16.9301
14.099
9.6514
14.9579
-3.53937