/*--------------------------------*- C++ -*----------------------------------*\
| =========                 |                                                 |
| \\      /  F ield         | OpenFOAM: The Open Source CFD Toolbox           |
|  \\    /   O peration     | Version:  2.3.1                                 |
|   \\  /    A nd           | Web:      www.OpenFOAM.org                      |
|    \\/     M anipulation  |                                                 |
\*---------------------------------------------------------------------------*/
FoamFile
{
    version     2.0;
    format      ascii;
    class       volVectorField;
    location    "0.26";
    object      U;
}
// * * * * * * * * * * * * * * * * * * * * * * * * * * * * * * * * * * * * * //

dimensions      [0 1 -1 0 0 0 0];

internalField   nonuniform List<vector> 
9648
(
(0.164467 -4.75771 -3.08888e-23)
(0.283114 -4.73659 -1.04165e-22)
(0.402237 -4.70951 0)
(0.523769 -4.6877 0)
(0.646016 -4.6707 1.11501e-20)
(0.770676 -4.6616 1.75926e-20)
(0.900355 -4.66406 -3.08489e-20)
(1.03704 -4.67904 -1.41493e-20)
(1.18076 -4.70821 1.41078e-20)
(1.33295 -4.75381 4.25025e-20)
(1.49589 -4.81712 -4.23025e-20)
(1.6714 -4.89889 -6.05228e-20)
(1.86141 -4.99943 3.21227e-19)
(2.06783 -5.11835 8.2623e-20)
(2.29224 -5.25456 -7.74275e-19)
(2.53573 -5.40652 0)
(2.79935 -5.57227 0)
(3.0838 -5.74957 1.39099e-19)
(3.38965 -5.93567 4.47383e-19)
(3.71689 -6.12773 -1.28422e-18)
(4.06544 -6.32309 -2.21091e-20)
(4.43508 -6.51869 3.52569e-19)
(4.82495 -6.71164 4.15318e-19)
(5.23431 -6.89918 -1.88121e-18)
(5.66215 -7.0787 0)
(6.10744 -7.24769 1.12137e-18)
(6.56888 -7.40382 -1.17371e-18)
(7.04509 -7.54517 0)
(7.53456 -7.66954 0)
(8.03552 -7.77523 -7.08848e-19)
(8.5464 -7.86057 -1.56311e-18)
(9.0653 -7.92406 2.45077e-18)
(9.59072 -7.96468 0)
(10.1211 -7.98145 0)
(10.6549 -7.97393 1.86863e-18)
(11.1906 -7.94142 -2.0082e-18)
(11.7258 -7.88331 0)
(12.2591 -7.79959 4.3003e-18)
(12.7885 -7.68977 1.15746e-18)
(13.3119 -7.55379 -3.42611e-18)
(13.8276 -7.39175 6.42558e-20)
(14.334 -7.20382 2.43178e-18)
(14.83 -6.99006 -3.22714e-18)
(15.314 -6.75134 6.49037e-19)
(15.7851 -6.48855 0)
(16.2421 -6.20189 0)
(16.6828 -5.89189 4.8827e-18)
(17.1059 -5.55899 7.14263e-19)
(17.5108 -5.20401 -2.20442e-18)
(17.8964 -4.82696 -7.41651e-19)
(18.2606 -4.42977 -7.70026e-19)
(18.6024 -4.01437 7.65392e-19)
(18.9215 -3.58227 3.94795e-19)
(19.2169 -3.13417 -3.92731e-19)
(19.4876 -2.67178 2.00241e-18)
(19.7331 -2.19617 -1.97081e-18)
(19.9525 -1.70881 -2.18748e-20)
(20.1453 -1.21091 0)
(20.3112 -0.703927 -3.99568e-19)
(20.4497 -0.189509 -5.1624e-20)
(20.5608 0.33116 -4.89157e-20)
(-0.0548462 -2.48507 1.2925e-22)
(0.0106996 -2.49514 0)
(0.0802059 -2.51847 0)
(0.155614 -2.56024 6.62644e-21)
(0.238522 -2.62353 -6.92377e-21)
(0.331326 -2.70878 -4.12171e-20)
(0.43557 -2.81429 0)
(0.553479 -2.93926 0)
(0.685767 -3.08503 -4.84539e-20)
(0.833211 -3.2503 0)
(0.99724 -3.43418 -1.15001e-19)
(1.17866 -3.63505 9.02987e-20)
(1.3783 -3.85149 -4.87034e-20)
(1.59707 -4.08169 0)
(1.83564 -4.32359 3.00377e-19)
(2.09428 -4.57501 1.77165e-19)
(2.37326 -4.83364 -1.74256e-19)
(2.67266 -5.09716 2.25056e-19)
(2.99264 -5.36303 -6.84936e-19)
(3.33292 -5.62878 5.43217e-19)
(3.69311 -5.89208 -5.99908e-19)
(4.0729 -6.15043 -3.22777e-19)
(4.47141 -6.40149 -3.3041e-19)
(4.88781 -6.64296 1.13226e-18)
(5.32116 -6.87271 3.91505e-19)
(5.77052 -7.08868 4.63543e-19)
(6.23479 -7.28905 -4.11354e-19)
(6.71272 -7.47213 0)
(7.20303 -7.63614 0)
(7.7041 -7.77965 0)
(8.21442 -7.90121 0)
(8.73223 -7.9996 0)
(9.25601 -8.07394 0)
(9.78451 -8.12341 0)
(10.3163 -8.14761 -8.37262e-19)
(10.85 -8.14543 7.6047e-19)
(11.3838 -8.1164 8.366e-19)
(11.916 -8.06028 -4.24856e-18)
(12.4446 -7.97716 -8.99841e-19)
(12.9675 -7.86771 2.76641e-18)
(13.4828 -7.7322 1.93844e-18)
(13.9892 -7.57107 -1.99855e-18)
(14.4856 -7.38409 9.5516e-19)
(14.9709 -7.17183 1.0063e-18)
(15.4438 -6.93481 -1.068e-18)
(15.9028 -6.67292 1.05878e-18)
(16.346 -6.38672 -2.26647e-18)
(16.7718 -6.07689 0)
(17.1791 -5.74456 -5.77617e-19)
(17.5676 -5.39026 1.16043e-18)
(17.9364 -5.01555 -5.82964e-19)
(18.2839 -4.62196 0)
(18.6093 -4.21069 1.19617e-18)
(18.9118 -3.78245 0)
(19.1904 -3.33867 0)
(19.4443 -2.88054 2.8298e-18)
(19.6727 -2.40937 -1.27463e-18)
(19.8751 -1.92688 -3.09815e-19)
(20.0512 -1.43389 3.26906e-19)
(20.2004 -0.93214 0)
(20.3221 -0.422948 8.21071e-20)
(0.0649336 -1.45378 -2.80832e-22)
(0.122086 -1.50963 0)
(0.186232 -1.58842 -5.42621e-22)
(0.258354 -1.68791 -3.83193e-22)
(0.340734 -1.80588 0)
(0.435202 -1.94327 3.53164e-20)
(0.542789 -2.10062 2.3567e-20)
(0.664892 -2.27685 0)
(0.803471 -2.47139 2.50839e-21)
(0.959769 -2.68264 4.92243e-20)
(1.13463 -2.90942 9.77203e-20)
(1.32858 -3.14976 -3.38014e-20)
(1.5421 -3.40179 0)
(1.77547 -3.66339 0)
(2.02893 -3.9324 2.28203e-19)
(2.30237 -4.20669 -1.44399e-19)
(2.59575 -4.48401 -1.54474e-19)
(2.90887 -4.76213 0)
(3.24148 -5.03881 5.91545e-19)
(3.5932 -5.31188 -6.13259e-19)
(3.96352 -5.57927 -4.57147e-19)
(4.35185 -5.83891 -5.022e-19)
(4.75736 -6.08876 0)
(5.17911 -6.32689 -8.96389e-19)
(5.61612 -6.55145 -3.14773e-19)
(6.06743 -6.76072 3.72625e-19)
(6.53199 -6.95309 4.1079e-19)
(7.00872 -7.12704 0)
(7.49636 -7.28102 0)
(7.99347 -7.41377 0)
(8.49843 -7.52419 0)
(9.00947 -7.61147 0)
(9.52499 -7.67505 0)
(10.0436 -7.71433 0)
(10.5639 -7.72857 -1.8366e-18)
(11.0849 -7.71634 6.09955e-19)
(11.6051 -7.6766 -6.71369e-19)
(12.1232 -7.60954 3.37777e-18)
(12.6377 -7.51566 0)
(13.1462 -7.39645 1.43557e-18)
(13.6468 -7.25291 1.48352e-18)
(14.1375 -7.08499 7.35376e-19)
(14.6169 -6.89307 -8.38241e-19)
(15.0843 -6.67716 -1.6164e-18)
(15.5383 -6.43729 2.51485e-18)
(15.9779 -6.17354 -8.504e-19)
(16.4017 -5.88569 -1.73174e-18)
(16.8086 -5.5746 0)
(17.1974 -5.24191 0)
(17.567 -4.88934 -4.714e-19)
(17.9165 -4.51821 -4.60559e-19)
(18.2448 -4.12952 -9.41861e-19)
(18.5512 -3.72421 -9.85168e-19)
(18.8346 -3.30359 0)
(19.0945 -2.86832 -9.73184e-19)
(19.3301 -2.42016 -1.01353e-18)
(19.541 -1.95983 0)
(19.7264 -1.48961 1.64165e-20)
(19.8856 -1.00976 0)
(20.0187 -0.522079 0)
(20.1255 -0.0276188 -6.26034e-20)
(0.0456455 -0.970573 5.97437e-22)
(0.109769 -1.06572 -7.56242e-22)
(0.184544 -1.17973 -1.44395e-22)
(0.27123 -1.31197 -2.14808e-21)
(0.369435 -1.46186 0)
(0.480229 -1.62942 -1.46737e-20)
(0.605044 -1.81451 -2.02934e-20)
(0.745059 -2.01638 0)
(0.901594 -2.23401 3.27828e-21)
(1.07538 -2.46612 -4.19939e-20)
(1.26716 -2.7112 9.40169e-20)
(1.4772 -2.96749 1.13102e-19)
(1.70577 -3.23294 0)
(1.953 -3.50551 -8.81246e-20)
(2.21909 -3.78316 -1.86629e-19)
(2.50377 -4.06387 -9.92061e-20)
(2.8069 -4.34552 3.79942e-19)
(3.12824 -4.62606 -2.73899e-19)
(3.4674 -4.90343 3.06205e-19)
(3.82406 -5.17565 5.19998e-19)
(4.19777 -5.44094 7.50947e-19)
(4.58776 -5.69747 4.22364e-19)
(4.99336 -5.94342 2.03154e-19)
(5.41356 -6.17713 7.35397e-19)
(5.8475 -6.39689 2.41342e-19)
(6.29422 -6.60112 2.7391e-19)
(6.7528 -6.78831 3.21884e-19)
(7.2223 -6.95697 -9.62963e-19)
(7.70153 -7.10588 6.89828e-19)
(8.18912 -7.23392 7.77234e-19)
(8.68374 -7.34025 -1.58772e-18)
(9.18378 -7.42423 8.1016e-19)
(9.68773 -7.48503 -8.65763e-19)
(10.1942 -7.52224 4.31349e-19)
(10.7015 -7.53491 4.71668e-19)
(11.2079 -7.5218 5.21718e-19)
(11.7125 -7.48281 -5.15264e-19)
(12.2141 -7.41762 -5.61289e-19)
(12.7124 -7.32717 -1.68113e-18)
(13.2061 -7.21188 -1.21234e-18)
(13.6929 -7.07115 -2.4564e-18)
(14.171 -6.90598 -3.17922e-18)
(14.6384 -6.71721 1.30231e-18)
(15.0931 -6.50627 2.86338e-20)
(15.5339 -6.27421 -7.26291e-19)
(15.9592 -6.01998 -7.11815e-19)
(16.3683 -5.74267 4.30167e-18)
(16.7612 -5.4422 -7.20636e-19)
(17.1371 -5.11981 0)
(17.4952 -4.77756 0)
(17.8341 -4.41707 -7.21845e-19)
(18.1525 -4.03975 3.22159e-20)
(18.4495 -3.64649 7.73679e-19)
(18.7242 -3.23827 0)
(18.976 -2.81627 8.22865e-19)
(19.2043 -2.38175 0)
(19.4084 -1.93589 0)
(19.588 -1.47964 6.25858e-19)
(19.7424 -1.01459 1.98885e-19)
(19.8715 -0.542211 -2.02633e-19)
(19.975 -0.0639693 1.03636e-19)
(0.138981 -0.735698 5.0972e-23)
(0.206069 -0.850887 6.59445e-22)
(0.286713 -0.98345 -8.47466e-22)
(0.381494 -1.13351 1.18711e-21)
(0.49015 -1.30074 -3.38296e-21)
(0.613552 -1.48461 5.94335e-21)
(0.752369 -1.68455 2.52385e-21)
(0.907298 -1.89948 -1.50252e-20)
(1.07933 -2.12833 4.38054e-20)
(1.26854 -2.36976 -6.31047e-20)
(1.47545 -2.62216 7.07577e-20)
(1.69979 -2.8838 -8.75239e-20)
(1.94175 -3.15262 -5.03184e-20)
(2.20115 -3.42664 0)
(2.47827 -3.70384 9.10284e-20)
(2.77253 -3.98252 8.73712e-20)
(3.08377 -4.26066 0)
(3.41174 -4.53629 2.15012e-19)
(3.7559 -4.80758 0)
(4.11606 -5.07262 -2.83e-19)
(4.4918 -5.32989 3.07952e-19)
(4.88228 -5.57782 1.04035e-20)
(5.28692 -5.81472 -1.77572e-20)
(5.70462 -6.03917 2.98506e-20)
(6.13461 -6.24943 -8.58535e-19)
(6.57608 -6.44405 -4.90995e-19)
(7.02804 -6.62157 1.00987e-18)
(7.48977 -6.78074 1.09339e-18)
(7.95992 -6.92071 -5.91058e-19)
(8.43716 -7.04062 0)
(8.92039 -7.13952 0)
(9.40822 -7.21632 0)
(9.89994 -7.27001 7.43173e-19)
(10.3944 -7.29975 -3.06368e-18)
(10.8893 -7.30536 1.60054e-18)
(11.3826 -7.28723 -8.13365e-19)
(11.8719 -7.24564 -1.7513e-18)
(12.3564 -7.18175 1.77564e-18)
(12.836 -7.09428 4.17832e-20)
(13.3104 -6.98106 -1.00141e-18)
(13.7799 -6.84099 1.03698e-18)
(14.243 -6.67364 1.06936e-18)
(14.6977 -6.48251 0)
(15.1412 -6.27114 -1.08591e-18)
(15.5697 -6.04118 0)
(15.9809 -5.79212 -1.72739e-18)
(16.3742 -5.52139 5.34117e-19)
(16.7507 -5.22835 0)
(17.1112 -4.91374 -6.2322e-19)
(17.4551 -4.57941 -1.45287e-20)
(17.7809 -4.22716 1.3273e-18)
(18.087 -3.85846 -6.30287e-19)
(18.3723 -3.4744 -3.49926e-19)
(18.6359 -3.07603 6.41444e-19)
(18.8772 -2.66462 -4.60856e-21)
(19.0955 -2.24112 3.34079e-19)
(19.2902 -1.80679 1.61292e-19)
(19.4609 -1.36257 3.40081e-19)
(19.6074 -0.909674 -8.5394e-19)
(19.7292 -0.449617 3.42771e-19)
(19.8263 0.0160386 -4.38374e-20)
(0.230067 -0.615027 -3.11896e-22)
(0.310941 -0.744598 0)
(0.406195 -0.890561 1.67328e-21)
(0.516541 -1.0532 0)
(0.641168 -1.23201 9.20598e-22)
(0.781182 -1.4261 8.30539e-21)
(0.936834 -1.63476 9.37807e-21)
(1.10858 -1.85662 2.89737e-20)
(1.29734 -2.09058 4.00382e-21)
(1.50255 -2.33536 6.14058e-21)
(1.72484 -2.58926 1.21271e-21)
(1.96326 -2.85077 -3.33475e-20)
(2.21818 -3.11778 4.86535e-20)
(2.48871 -3.38832 -1.48174e-19)
(2.77589 -3.66043 1.25452e-19)
(3.0787 -3.93297 -8.83934e-21)
(3.39673 -4.20368 -1.54696e-19)
(3.73011 -4.47087 -1.85667e-19)
(4.07783 -4.7329 0)
(4.43997 -4.98779 2.19931e-19)
(4.81644 -5.23433 8.45785e-21)
(5.20592 -5.47128 -5.66804e-19)
(5.60838 -5.6969 -2.38523e-20)
(6.02229 -5.91019 -3.05899e-19)
(6.44695 -6.10922 1.07647e-18)
(6.88173 -6.29262 3.58988e-20)
(7.32557 -6.4592 -3.99354e-19)
(7.77822 -6.60767 -4.20942e-20)
(8.23823 -6.73799 0)
(8.70405 -6.84901 0)
(9.17463 -6.93964 0)
(9.6485 -7.00891 0)
(10.1252 -7.05464 0)
(10.6048 -7.07654 5.87121e-20)
(11.0859 -7.07506 -6.86765e-19)
(11.5657 -7.05097 -3.91042e-20)
(12.0423 -7.00679 2.65235e-20)
(12.5119 -6.94237 7.09505e-19)
(12.9731 -6.85701 1.61023e-18)
(13.4268 -6.74739 -2.42338e-18)
(13.8733 -6.60878 1.68806e-18)
(14.316 -6.44268 -8.49266e-19)
(14.7543 -6.25163 0)
(15.1846 -6.04044 9.48716e-19)
(15.6022 -5.81323 0)
(16.0007 -5.56748 9.95302e-19)
(16.3793 -5.30221 -1.01577e-18)
(16.7394 -5.01676 4.77002e-19)
(17.083 -4.71059 5.08419e-19)
(17.4113 -4.38548 -5.29796e-19)
(17.7229 -4.04278 3.85331e-20)
(18.0158 -3.68411 -1.04563e-20)
(18.2887 -3.31034 1.0771e-18)
(18.5408 -2.92293 -1.10779e-18)
(18.7713 -2.52309 -5.46277e-19)
(18.9794 -2.11211 -2.6743e-19)
(19.1645 -1.69076 -8.50013e-19)
(19.3262 -1.25984 0)
(19.4646 -0.820494 5.73517e-19)
(19.5794 -0.374518 -1.47163e-19)
(19.6702 0.0768244 0)
(0.340745 -0.561372 0)
(0.437309 -0.70139 0)
(0.54899 -0.85738 -9.75899e-22)
(0.677357 -1.02941 2.31428e-22)
(0.819566 -1.21653 -2.42445e-21)
(0.977792 -1.41731 -1.31306e-20)
(1.15142 -1.63101 6.76267e-21)
(1.34024 -1.85593 -2.06849e-20)
(1.54649 -2.09119 -1.34597e-21)
(1.76741 -2.33559 5.27455e-20)
(2.00532 -2.58746 -9.6309e-20)
(2.25722 -2.84561 0)
(2.52479 -3.10765 0)
(2.80516 -3.37186 1.68616e-19)
(3.10196 -3.63578 1.07303e-19)
(3.41246 -3.89965 -2.35983e-19)
(3.73608 -4.16061 3.81915e-19)
(4.07414 -4.41714 1.58845e-19)
(4.42419 -4.66825 -3.17699e-19)
(4.78703 -4.91118 -1.91652e-19)
(5.16364 -5.14511 2.19546e-19)
(5.5508 -5.36968 -5.60437e-21)
(5.95053 -5.58232 0)
(6.35964 -5.78343 5.62712e-19)
(6.77784 -5.97026 -9.24445e-19)
(7.20506 -6.14156 3.07741e-19)
(7.63911 -6.29654 6.78759e-19)
(8.08173 -6.43343 -1.88546e-18)
(8.53094 -6.55294 3.83903e-19)
(8.98486 -6.65405 0)
(9.44325 -6.73533 0)
(9.90234 -6.79636 0)
(10.3619 -6.83517 5.21447e-19)
(10.8233 -6.85032 1.61318e-18)
(11.2863 -6.84232 -1.09167e-18)
(11.7504 -6.81339 6.03762e-19)
(12.2142 -6.76205 6.58639e-19)
(12.6734 -6.69353 -1.30672e-18)
(13.1223 -6.60657 0)
(13.5565 -6.49592 -1.32848e-18)
(13.9796 -6.36197 6.89148e-19)
(14.3957 -6.20009 3.9945e-20)
(14.8098 -6.01415 -3.60372e-20)
(15.2232 -5.80819 7.63717e-19)
(15.6265 -5.58284 3.21622e-20)
(16.0132 -5.33928 -2.44253e-18)
(16.3793 -5.07696 8.26443e-19)
(16.7233 -4.79708 -1.70731e-18)
(17.0501 -4.49883 0)
(17.3615 -4.18324 0)
(17.6576 -3.85032 1.79738e-18)
(17.9361 -3.50243 -4.29329e-19)
(18.1953 -3.13963 -9.30946e-19)
(18.4351 -2.76335 -4.46951e-19)
(18.6542 -2.37573 1.42724e-18)
(18.8514 -1.97779 7.19205e-19)
(19.0262 -1.56985 2.48363e-19)
(19.178 -1.15306 -4.77041e-21)
(19.3076 -0.727545 -2.48441e-19)
(19.4149 -0.295743 0)
(19.499 0.140521 0)
(0.468464 -0.550259 3.613e-22)
(0.583867 -0.697761 0)
(0.713081 -0.86079 0)
(0.862203 -1.03979 -4.68237e-22)
(1.02237 -1.23275 0)
(1.19979 -1.43741 5.15129e-21)
(1.39161 -1.65329 6.52183e-21)
(1.59647 -1.87821 -1.34431e-20)
(1.82146 -2.11199 0)
(2.0567 -2.35344 -3.15325e-20)
(2.31124 -2.60083 4.10668e-21)
(2.57501 -2.85373 0)
(2.85605 -3.10898 0)
(3.14326 -3.36539 -7.09588e-20)
(3.45002 -3.61803 7.73374e-20)
(3.76796 -3.87199 -9.65174e-20)
(4.09528 -4.12192 -1.1068e-19)
(4.43802 -4.36624 0)
(4.78904 -4.60614 1.41909e-19)
(5.15103 -4.83585 -2.98905e-19)
(5.52852 -5.05575 -3.33892e-19)
(5.91104 -5.26759 -3.90309e-19)
(6.30833 -5.46565 -3.41278e-20)
(6.71169 -5.65476 -4.92428e-19)
(7.12244 -5.82918 4.73089e-19)
(7.54222 -5.98773 5.25941e-19)
(7.96429 -6.13151 -5.97442e-19)
(8.39591 -6.25534 3.26645e-20)
(8.83359 -6.36353 4.34399e-20)
(9.27379 -6.45432 -6.88064e-19)
(9.72056 -6.52438 0)
(10.1663 -6.57825 -8.30422e-19)
(10.609 -6.61036 1.64689e-18)
(11.0509 -6.61867 -4.73621e-20)
(11.4926 -6.60716 9.65288e-19)
(11.932 -6.57425 -9.60276e-19)
(12.3807 -6.51523 1.06466e-18)
(12.8286 -6.43972 1.10853e-18)
(13.2676 -6.34479 -2.19125e-18)
(13.693 -6.23247 1.1818e-18)
(14.0948 -6.102 1.15635e-18)
(14.485 -5.94564 1.8193e-18)
(14.8698 -5.77052 -6.51828e-19)
(15.2554 -5.5699 0)
(15.6399 -5.34933 3.82905e-20)
(16.0118 -5.10698 7.13184e-19)
(16.3663 -4.84421 -6.92018e-19)
(16.6966 -4.57146 7.41467e-19)
(17.0072 -4.282 0)
(17.3008 -3.97709 0)
(17.5805 -3.65329 -4.04653e-20)
(17.843 -3.31679 7.93198e-19)
(18.0873 -2.96442 0)
(18.3138 -2.5993 3.9382e-19)
(18.5209 -2.22523 3.97013e-19)
(18.7066 -1.84153 -8.08021e-19)
(18.8705 -1.44765 -3.96124e-19)
(19.0111 -1.04607 -2.1035e-19)
(19.1307 -0.633949 0)
(19.2303 -0.217423 0)
(19.3073 0.202305 2.51489e-20)
(0.613773 -0.565641 -1.02467e-21)
(0.754146 -0.717279 1.98009e-21)
(0.900079 -0.882801 -2.11679e-23)
(1.07628 -1.06674 -1.38627e-21)
(1.25041 -1.26227 1.12544e-21)
(1.4467 -1.47047 -6.44921e-22)
(1.65745 -1.68443 0)
(1.87438 -1.90537 1.52415e-21)
(2.12335 -2.13616 -1.57837e-20)
(2.36695 -2.37129 0)
(2.64395 -2.61313 6.39308e-20)
(2.91226 -2.86044 -3.97316e-20)
(3.21029 -3.10907 4.04596e-20)
(3.49687 -3.35799 5.13611e-20)
(3.81631 -3.59373 -6.68347e-20)
(4.14135 -3.83895 -8.12829e-20)
(4.46809 -4.07776 2.67782e-19)
(4.81983 -4.30649 -2.78508e-19)
(5.16524 -4.53791 0)
(5.52158 -4.75584 -9.2421e-21)
(5.90667 -4.96041 8.21059e-19)
(6.27644 -5.16208 -3.04067e-20)
(6.67889 -5.34037 -3.86604e-19)
(7.07017 -5.52071 7.41399e-19)
(7.47132 -5.68526 0)
(7.88714 -5.83139 -4.54e-19)
(8.29123 -5.96546 -4.64555e-19)
(8.71381 -6.07478 1.02859e-18)
(9.13956 -6.17282 -6.68747e-21)
(9.56003 -6.25467 6.10354e-19)
(9.99766 -6.31109 -1.24547e-18)
(10.4268 -6.35943 1.97556e-18)
(10.8544 -6.38491 -1.41117e-18)
(11.2835 -6.38543 -1.47468e-18)
(11.7075 -6.36951 0)
(12.1144 -6.33734 8.41125e-19)
(12.5403 -6.27373 0)
(12.9625 -6.19648 -1.44476e-21)
(13.3905 -6.09592 9.97234e-19)
(13.8155 -5.97219 -1.86322e-18)
(14.2067 -5.83725 -8.47855e-21)
(14.5828 -5.68116 -2.01344e-18)
(14.9329 -5.51875 0)
(15.2865 -5.33394 -5.8136e-19)
(15.6392 -5.12593 2.22504e-18)
(15.9865 -4.88046 -5.66851e-19)
(16.3372 -4.61429 6.02717e-19)
(16.654 -4.35199 0)
(16.9514 -4.07216 6.16052e-19)
(17.2232 -3.77717 -1.85742e-18)
(17.4873 -3.45706 -2.55381e-20)
(17.7332 -3.13104 0)
(17.9596 -2.79214 6.37548e-19)
(18.1731 -2.43881 -1.91353e-20)
(18.3692 -2.07612 0)
(18.5403 -1.70508 3.58609e-19)
(18.6951 -1.33318 -3.25568e-19)
(18.8218 -0.948899 3.41364e-19)
(18.9296 -0.551396 3.38249e-19)
(19.0244 -0.146544 -1.69885e-19)
(19.0909 0.25739 -6.42295e-20)
(20.6435 0.857215 1.52132e-19)
(20.6978 1.38695 -5.15756e-20)
(20.7243 1.9194 0)
(20.7227 2.45242 0)
(20.6934 2.9843 8.18107e-19)
(20.6366 3.51386 1.17675e-18)
(20.5524 4.03923 -1.2108e-18)
(20.441 4.55899 -3.98689e-19)
(20.3024 5.07206 3.9869e-19)
(20.1374 5.5772 7.79394e-19)
(19.9462 6.07373 -7.79967e-19)
(19.729 6.55982 -7.57499e-19)
(19.4875 7.03446 3.76714e-18)
(19.2229 7.49617 7.3205e-19)
(18.9354 7.94373 -6.45892e-18)
(18.6256 8.37568 0)
(18.2944 8.79111 0)
(17.9432 9.18907 6.7052e-19)
(17.5726 9.56904 1.97986e-18)
(17.1835 9.92966 -5.0868e-18)
(16.7774 10.2703 -7.46099e-20)
(16.3552 10.5905 1.16476e-18)
(15.9177 10.8892 1.19776e-18)
(15.4664 11.1659 -4.46405e-18)
(15.0025 11.4205 0)
(14.5268 11.653 2.0935e-18)
(14.0399 11.8624 -1.93788e-18)
(13.5439 12.0472 0)
(13.0402 12.2073 0)
(12.5305 12.3423 -8.85817e-19)
(12.0159 12.4523 -1.61641e-18)
(11.4978 12.5369 2.30112e-18)
(10.9777 12.5964 0)
(10.4565 12.6308 0)
(9.93584 12.6399 1.15361e-18)
(9.41679 12.6241 -1.09435e-18)
(8.90072 12.5835 0)
(8.3889 12.5186 1.71169e-18)
(7.88237 12.4296 3.53919e-19)
(7.38237 12.3169 -9.75738e-19)
(6.89013 12.1809 3.50525e-20)
(6.40703 12.0224 3.99694e-19)
(5.93387 11.842 -3.86723e-19)
(5.47183 11.6399 6.66544e-20)
(5.02208 11.4173 0)
(4.58534 11.1749 0)
(4.16265 10.9132 -2.27093e-19)
(3.75493 10.6332 -4.50816e-20)
(3.36316 10.3359 2.44941e-19)
(2.98805 10.0224 9.99417e-20)
(2.63021 9.69347 1.5164e-19)
(2.29044 9.35006 -1.53635e-19)
(1.96951 8.99345 -1.01476e-19)
(1.6677 8.62482 1.02872e-19)
(1.38571 8.2451 -6.10119e-19)
(1.12394 7.85574 6.63632e-19)
(0.882815 7.45787 -1.22972e-21)
(0.662615 7.05301 0)
(0.463508 6.64222 1.67807e-19)
(0.285836 6.22659 2.27411e-20)
(0.129671 5.80733 2.40236e-20)
(20.4158 0.0917775 -8.21422e-20)
(20.4813 0.609904 0)
(20.5192 1.12985 0)
(20.5298 1.65097 9.41715e-19)
(20.5129 2.17178 -6.29429e-19)
(20.4691 2.69094 -2.21698e-18)
(20.3983 3.20677 0)
(20.3004 3.71834 0)
(20.1757 4.224 -1.20501e-18)
(20.0245 4.72241 0)
(19.8472 5.21254 -1.76376e-18)
(19.6445 5.69207 1.16976e-18)
(19.418 6.15934 -5.80615e-19)
(19.1685 6.61468 0)
(18.896 7.05722 2.29345e-18)
(18.601 7.48558 1.07324e-18)
(18.2843 7.89857 -1.07555e-18)
(17.9472 8.29502 1.0218e-18)
(17.5903 8.67431 -3.01915e-18)
(17.2147 9.03523 2.03187e-18)
(16.8218 9.37669 -1.97211e-18)
(16.4123 9.69825 -1.00527e-18)
(15.9874 9.99869 -9.0848e-19)
(15.5484 10.2773 2.63339e-18)
(15.0962 10.5335 8.43561e-19)
(14.6319 10.7672 7.70449e-19)
(14.1567 10.9783 -6.959e-19)
(13.6723 11.1659 0)
(13.1799 11.3293 0)
(12.6809 11.468 0)
(12.1763 11.582 0)
(11.6678 11.6711 0)
(11.1566 11.7351 0)
(10.6439 11.7743 0)
(10.1312 11.7883 -4.7952e-19)
(9.61971 11.7774 4.2493e-19)
(9.11071 11.7416 3.37806e-19)
(8.60543 11.6814 -1.63729e-18)
(8.105 11.597 -2.52873e-19)
(7.61075 11.4887 7.53466e-19)
(7.12389 11.357 4.10124e-19)
(6.64579 11.2024 -3.21922e-19)
(6.17731 11.0255 1.1663e-19)
(5.71979 10.8267 8.19884e-20)
(5.27432 10.6069 4.7025e-21)
(4.84171 10.3667 -4.75585e-21)
(4.42302 10.1068 1.18388e-19)
(4.01922 9.82807 0)
(3.63134 9.53139 8.68731e-20)
(3.26018 9.21781 -1.95503e-19)
(2.90638 8.88819 1.08926e-19)
(2.57084 8.54343 0)
(2.2544 8.18466 -3.18122e-19)
(1.95732 7.81307 0)
(1.68048 7.4296 0)
(1.42414 7.03566 -9.77711e-19)
(1.18893 6.63247 4.70536e-19)
(0.975029 6.22145 1.29607e-19)
(0.783013 5.80361 -1.35545e-19)
(0.613178 5.38023 0)
(0.465755 4.95254 -3.81139e-20)
(20.206 0.471291 6.26175e-20)
(20.2599 0.97325 0)
(20.2869 1.47571 -2.49564e-19)
(20.2865 1.97832 -1.644e-20)
(20.2596 2.47972 0)
(20.2067 2.97955 1.99954e-18)
(20.1277 3.4771 9.75643e-19)
(20.0221 3.97097 0)
(19.8902 4.45917 3.21423e-20)
(19.7329 4.93957 9.42825e-19)
(19.551 5.41086 1.43138e-18)
(19.3456 5.87146 -4.70524e-19)
(19.1168 6.31961 0)
(18.865 6.75507 0)
(18.591 7.1772 1.72988e-18)
(18.2956 7.58501 -8.52802e-19)
(17.9797 7.97746 -7.9868e-19)
(17.6443 8.35358 0)
(17.2901 8.71259 2.41041e-18)
(16.9184 9.05354 -2.312e-18)
(16.5301 9.37552 -1.47548e-18)
(16.1264 9.67784 -1.42679e-18)
(15.7083 9.95959 0)
(15.2769 10.2201 -2.03595e-18)
(14.8333 10.4587 -6.64001e-19)
(14.3788 10.6747 6.05431e-19)
(13.9147 10.8679 5.95377e-19)
(13.442 11.0379 0)
(12.9621 11.1845 0)
(12.4761 11.3072 0)
(11.9853 11.406 0)
(11.491 11.4808 0)
(10.9945 11.5314 0)
(10.497 11.5579 0)
(9.9999 11.5602 -1.02611e-18)
(9.50434 11.5385 3.28172e-19)
(9.01159 11.4929 -2.5955e-19)
(8.5228 11.4236 1.23384e-18)
(8.03908 11.331 0)
(7.56167 11.2155 3.40804e-19)
(7.09175 11.0776 2.74223e-19)
(6.63054 10.9177 1.16029e-19)
(6.17904 10.7364 -6.49938e-20)
(5.73842 10.5342 -7.46498e-20)
(5.30971 10.3117 -3.33455e-22)
(4.89377 10.0697 8.91338e-21)
(4.49149 9.80877 1.22739e-19)
(4.10383 9.52984 0)
(3.73169 9.23383 0)
(3.37591 8.92158 8.56163e-20)
(3.03722 8.59402 1.02247e-19)
(2.71627 8.25208 2.19721e-19)
(2.41384 7.89672 2.50382e-19)
(2.13033 7.52907 0)
(1.86646 7.15002 3.08821e-19)
(1.62244 6.76104 3.3982e-19)
(1.39879 6.36317 0)
(1.19586 5.95792 -1.9196e-21)
(1.01419 5.54619 0)
(0.854003 5.1293 0)
(0.715564 4.70834 2.92194e-20)
(20.0527 0.419147 -1.03641e-19)
(20.1046 0.905675 2.02621e-19)
(20.1304 1.39465 -3.99261e-19)
(20.1299 1.88427 -2.14596e-19)
(20.1032 2.37307 0)
(20.0496 2.86005 -8.30624e-19)
(19.9698 3.34469 -8.23944e-19)
(19.8651 3.82557 0)
(19.7358 4.30139 3.41213e-20)
(19.5823 4.77017 -7.9508e-19)
(19.4048 5.23024 1.50051e-18)
(19.2038 5.68069 1.47642e-18)
(18.9796 6.12041 0)
(18.733 6.54795 -7.18537e-19)
(18.4647 6.96225 -1.42682e-18)
(18.1757 7.36214 -7.03508e-19)
(17.8666 7.74676 2.05852e-18)
(17.5384 8.11521 -1.32198e-18)
(17.192 8.46677 1.28552e-18)
(16.8285 8.80059 1.86478e-18)
(16.4488 9.11586 2.4199e-18)
(16.0542 9.41181 1.1955e-18)
(15.6457 9.68761 5.50083e-19)
(15.2242 9.94257 1.66111e-18)
(14.7908 10.1762 5.08133e-19)
(14.3466 10.3879 5.08269e-19)
(13.893 10.5774 4.59548e-19)
(13.431 10.7442 -1.33775e-18)
(12.962 10.888 8.28238e-19)
(12.4871 11.0086 7.71336e-19)
(12.0076 11.1057 -1.4957e-18)
(11.5245 11.1793 7.24277e-19)
(11.0393 11.2294 -6.28256e-19)
(10.5533 11.2559 2.94528e-19)
(10.0677 11.2588 2.83917e-19)
(9.58366 11.2382 2.29017e-19)
(9.10239 11.1942 -2.30537e-19)
(8.62497 11.1271 -2.16432e-19)
(8.15251 11.0372 -4.89725e-19)
(7.68624 10.925 -2.81433e-19)
(7.22731 10.7909 -4.32701e-19)
(6.77683 10.6354 -3.91512e-19)
(6.33596 10.459 1.08196e-19)
(5.90574 10.2623 6.98568e-21)
(5.48718 10.0459 6.82032e-21)
(5.08119 9.8102 3.91933e-20)
(4.68846 9.55614 -3.15232e-19)
(4.31002 9.28449 6.58829e-20)
(3.94666 8.99621 0)
(3.59933 8.69207 0)
(3.2686 8.37291 1.56763e-19)
(2.95529 8.03983 5.68761e-22)
(2.66001 7.69363 -2.03244e-19)
(2.38322 7.33537 0)
(2.1255 6.96586 -2.50657e-19)
(1.88704 6.58657 0)
(1.6684 6.19863 0)
(1.46977 5.80335 -2.39108e-19)
(1.29198 5.40184 -8.49127e-20)
(1.13498 4.99527 8.81785e-20)
(0.999357 4.58482 -4.67211e-20)
(19.8981 0.486205 1.87681e-21)
(19.9447 0.959706 -1.75196e-19)
(19.9659 1.43547 5.13262e-19)
(19.9618 1.91198 3.40337e-19)
(19.9322 2.38804 -5.01147e-19)
(19.8774 2.86217 3.35387e-19)
(19.7977 3.33218 -2.64429e-21)
(19.6935 3.79684 -6.48696e-19)
(19.5649 4.25588 9.87039e-19)
(19.413 4.70822 -1.28547e-18)
(19.2379 5.15263 1.20914e-18)
(19.0401 5.58776 -1.28536e-18)
(18.8201 6.01254 -6.17236e-19)
(18.5784 6.42587 0)
(18.3159 6.82645 6.34458e-19)
(18.0334 7.21308 5.41137e-19)
(17.7314 7.58506 0)
(17.4108 7.9414 1.06502e-18)
(17.0726 8.28144 0)
(16.7177 8.60442 -1.05226e-18)
(16.3475 8.90948 9.28085e-19)
(15.9627 9.19585 -4.07123e-20)
(15.5647 9.46264 -4.51876e-20)
(15.1541 9.70914 1.35279e-21)
(14.7321 9.93493 -1.74277e-18)
(14.2996 10.1395 -7.91128e-19)
(13.858 10.3226 1.54527e-18)
(13.4083 10.4837 1.42658e-18)
(12.9518 10.6227 -7.10892e-19)
(12.4897 10.739 0)
(12.023 10.8326 0)
(11.553 10.9034 0)
(11.0808 10.9514 5.38146e-19)
(10.6078 10.9768 -1.87863e-18)
(10.1355 10.9792 8.69731e-19)
(9.66463 10.9587 -4.13971e-19)
(9.19647 10.9155 -6.5702e-19)
(8.73205 10.8499 6.15111e-19)
(8.27236 10.7622 2.10511e-20)
(7.81868 10.6529 -1.8871e-19)
(7.37211 10.5223 2.0793e-19)
(6.93372 10.3711 1.30481e-19)
(6.50472 10.1998 0)
(6.08613 10.0088 -2.68681e-20)
(5.67891 9.79867 0)
(5.28401 9.56982 9.7053e-20)
(4.9019 9.32317 -4.66456e-20)
(4.53358 9.05946 0)
(4.17972 8.77968 1.00996e-19)
(3.8416 8.48452 1.94784e-20)
(3.51948 8.17471 -2.61167e-19)
(3.2142 7.85139 1.52058e-19)
(2.92654 7.51534 9.91029e-20)
(2.65667 7.16753 -1.82129e-19)
(2.40547 6.80874 8.03077e-21)
(2.17251 6.44026 -1.09802e-19)
(1.95882 6.06333 -5.90141e-20)
(1.76428 5.67927 -1.30844e-19)
(1.59004 5.28917 3.46365e-19)
(1.43571 4.89416 -1.47064e-19)
(1.3024 4.49535 1.94455e-20)
(19.7367 0.532349 3.68626e-20)
(19.7787 0.990919 0)
(19.7962 1.45136 -5.74134e-19)
(19.7891 1.91252 0)
(19.7575 2.37306 2.85504e-19)
(19.7017 2.83162 8.34707e-19)
(19.6218 3.28682 5.4677e-19)
(19.518 3.73764 1.10817e-18)
(19.3908 4.18275 9.50167e-21)
(19.2409 4.62124 -7.10812e-21)
(19.0688 5.05159 -6.01108e-20)
(18.8746 5.47281 -5.26092e-19)
(18.659 5.88387 5.07379e-19)
(18.4226 6.28381 -1.48737e-18)
(18.1662 6.67144 1.00852e-18)
(17.8905 7.04549 -4.83797e-20)
(17.596 7.40521 -9.13435e-19)
(17.2834 7.74972 -9.35252e-19)
(16.9537 8.0785 0)
(16.6079 8.39097 8.36187e-19)
(16.2474 8.68615 -3.78176e-20)
(15.873 8.96329 -1.64282e-18)
(15.4859 9.22147 -5.43771e-21)
(15.0869 9.45977 -6.8038e-19)
(14.6766 9.67804 2.06893e-18)
(14.2564 9.8758 -3.50113e-20)
(13.8271 10.0527 -6.59767e-19)
(13.3902 10.2086 -6.97807e-20)
(12.9468 10.343 0)
(12.4981 10.4556 0)
(12.045 10.546 0)
(11.5884 10.6145 0)
(11.1299 10.661 0)
(10.6705 10.6858 5.31529e-20)
(10.212 10.6883 -3.36301e-19)
(9.75494 10.6686 3.92691e-20)
(9.30052 10.6268 5.2608e-20)
(8.84968 10.5631 2.12337e-19)
(8.40319 10.4781 4.01039e-19)
(7.9625 10.3723 -4.93928e-19)
(7.52873 10.2459 2.87198e-19)
(7.10274 10.0996 -8.47212e-20)
(6.68595 9.93391 0)
(6.27935 9.74934 2.34375e-20)
(5.88383 9.54645 0)
(5.50056 9.32515 -5.16971e-20)
(5.12925 9.0867 8.86699e-20)
(4.77152 8.83173 -5.91484e-20)
(4.42739 8.56144 -7.34071e-20)
(4.09881 8.27618 1.07294e-19)
(3.78557 7.97662 1.87002e-20)
(3.48853 7.66407 1.52407e-20)
(3.2087 7.33906 -2.91312e-19)
(2.94594 7.00269 3.30532e-19)
(2.70145 6.65533 1.80379e-19)
(2.47405 6.29861 9.41793e-20)
(2.26551 5.93354 3.12563e-19)
(2.07472 5.56163 0)
(1.90398 5.18381 -2.38202e-19)
(1.75211 4.80133 6.3185e-20)
(1.62101 4.41502 0)
(19.5597 0.580806 0)
(19.5967 1.02383 0)
(19.6102 1.46868 2.49064e-19)
(19.6 1.91393 -4.76811e-19)
(19.5663 2.35861 -2.45831e-19)
(19.5094 2.80144 -1.19357e-18)
(19.4294 3.24071 4.60293e-19)
(19.3262 3.67542 -9.51458e-19)
(19.2004 4.10518 1.55463e-20)
(19.0529 4.52878 1.34722e-18)
(18.8841 4.94423 -1.79731e-18)
(18.6941 5.35068 0)
(18.4834 5.74704 0)
(18.2525 6.13308 1.69938e-18)
(18.0026 6.50733 8.20599e-19)
(17.7345 6.86785 -1.66512e-18)
(17.448 7.21454 2.38296e-18)
(17.1439 7.54648 7.57135e-19)
(16.823 7.86331 -1.48404e-18)
(16.4866 8.16482 -7.44216e-19)
(16.1363 8.44951 6.85808e-19)
(15.7728 8.71705 -7.05804e-20)
(15.3973 8.96631 0)
(15.0106 9.19578 1.28201e-18)
(14.6127 9.40605 -1.80659e-18)
(14.2052 9.59658 5.81792e-19)
(13.7891 9.76691 1.0451e-18)
(13.3654 9.9174 -2.53435e-18)
(12.9361 10.0469 4.95694e-19)
(12.5014 10.1558 0)
(12.063 10.2425 0)
(11.6205 10.3089 0)
(11.1766 10.3537 3.40477e-19)
(10.7314 10.3784 9.61666e-19)
(10.288 10.3813 -5.65102e-19)
(9.84559 10.3626 2.45039e-19)
(9.40584 10.3226 2.33919e-19)
(8.96974 10.2608 -4.14324e-19)
(8.53719 10.1786 0)
(8.11016 10.0765 -2.24487e-19)
(7.69004 9.95438 1.16887e-19)
(7.27687 9.81323 1.38059e-20)
(6.87271 9.65358 9.9024e-21)
(6.47874 9.47587 2.02923e-20)
(6.09529 9.28098 -1.06899e-20)
(5.72478 9.06756 1.79789e-19)
(5.36465 8.83806 -7.44026e-20)
(5.01836 8.59228 2.40449e-19)
(4.68402 8.3324 0)
(4.366 8.05798 0)
(4.06215 7.76935 -4.17847e-19)
(3.7735 7.46848 1.13132e-19)
(3.50246 7.15542 2.58515e-19)
(3.2469 6.83141 1.51664e-19)
(3.01026 6.49613 -4.77772e-19)
(2.78831 6.15184 -2.66421e-19)
(2.58551 5.79918 -9.77924e-20)
(2.39808 5.44036 -2.02695e-21)
(2.23156 5.07575 1.04609e-19)
(2.08172 4.70659 0)
(1.9533 4.33356 0)
(19.3617 0.626284 -2.51655e-20)
(19.3931 1.0527 0)
(19.402 1.48106 0)
(19.3882 1.90977 2.11422e-19)
(19.3521 2.33764 0)
(19.2943 2.76379 8.13757e-19)
(19.215 3.18634 4.0068e-19)
(19.1126 3.60388 -7.86967e-19)
(18.9877 4.01815 0)
(18.8429 4.42706 -7.98086e-19)
(18.6789 4.82601 4.38716e-20)
(18.4936 5.21693 0)
(18.2884 5.59739 0)
(18.0633 5.96866 -7.42748e-19)
(17.8203 6.32968 6.85437e-19)
(17.5611 6.67546 -7.09645e-19)
(17.2832 7.00844 -6.91509e-19)
(16.988 7.32748 0)
(16.6768 7.63124 6.52715e-19)
(16.3501 7.92127 -1.18935e-18)
(16.0109 8.19458 -1.14831e-18)
(15.6588 8.45211 -1.17852e-18)
(15.2953 8.69273 -8.99535e-21)
(14.9226 8.91215 -9.70189e-19)
(14.5375 9.11393 1.02984e-18)
(14.1429 9.29718 9.26755e-19)
(13.7412 9.45994 -9.39849e-19)
(13.3309 9.60501 5.9064e-20)
(12.9165 9.72893 5.62151e-22)
(12.496 9.83484 -7.83041e-19)
(12.0738 9.91675 0)
(11.6453 9.98171 -6.2082e-19)
(11.2175 10.024 1.19509e-18)
(10.7864 10.0499 -4.55459e-20)
(10.3601 10.0535 5.085e-19)
(9.93369 10.0359 -4.11637e-19)
(9.50973 9.99804 3.47157e-19)
(9.09043 9.9379 2.44729e-19)
(8.67255 9.85882 -5.40943e-19)
(8.25973 9.7607 2.24396e-19)
(7.85493 9.643 1.38378e-19)
(7.4544 9.50708 1.39405e-19)