/*--------------------------------*- C++ -*----------------------------------*\
| =========                 |                                                 |
| \\      /  F ield         | OpenFOAM: The Open Source CFD Toolbox           |
|  \\    /   O peration     | Version:  2.3.1                                 |
|   \\  /    A nd           | Web:      www.OpenFOAM.org                      |
|    \\/     M anipulation  |                                                 |
\*---------------------------------------------------------------------------*/
FoamFile
{
    version     2.0;
    format      ascii;
    class       volScalarField;
    location    "0.4";
    object      k;
}
// * * * * * * * * * * * * * * * * * * * * * * * * * * * * * * * * * * * * * //

dimensions      [0 2 -2 0 0 0 0];

internalField   nonuniform List<scalar> 
9648
(
2.69552
2.69709
2.6957
2.6915
2.68398
2.67235
2.65692
2.63767
2.61443
2.58715
2.55588
2.52085
2.48251
2.44143
2.39831
2.35391
2.30901
2.26431
2.22045
2.17794
2.13718
2.09848
2.06205
2.02804
1.99653
1.96759
1.94123
1.91743
1.8961
1.87711
1.86032
1.84564
1.83297
1.82224
1.81336
1.80626
1.80085
1.79706
1.79481
1.79405
1.79473
1.79679
1.80021
1.80494
1.81096
1.81826
1.82685
1.83676
1.84802
1.86064
1.87466
1.89015
1.90714
1.92562
1.94561
1.96698
1.98947
2.01258
2.03589
2.05897
2.08148
1.73037
1.728
1.72413
1.71985
1.71745
1.71948
1.72815
1.74468
1.769
1.80115
1.84088
1.88753
1.94019
1.9978
2.05936
2.12391
2.19055
2.2585
2.32706
2.39569
2.46389
2.53128
2.59762
2.66275
2.72659
2.78926
2.85085
2.91143
2.97099
3.02955
3.08714
3.14379
3.19957
3.25466
3.30914
3.36307
3.4166
3.4698
3.52268
3.57521
3.62747
3.67956
3.73142
3.78303
3.83447
3.88559
3.9364
3.98702
4.0375
4.08769
4.13748
4.18679
4.2357
4.28383
4.33143
4.37825
4.42448
4.46941
4.5133
4.5562
4.59814
1.42642
1.47126
1.51904
1.57181
1.63197
1.70063
1.77753
1.86257
1.95514
2.05469
2.16004
2.27022
2.38404
2.50032
2.61791
2.73577
2.85302
2.9688
3.08242
3.19336
3.3012
3.40565
3.50643
3.60344
3.69676
3.78658
3.8732
3.95679
4.03751
4.11551
4.19089
4.26382
4.33455
4.40322
4.47001
4.53517
4.59877
4.661
4.72189
4.78157
4.84017
4.89769
4.95432
5.01004
5.06485
5.11871
5.17161
5.22361
5.27457
5.32451
5.37341
5.4213
5.4684
5.514
5.55905
5.60252
5.64515
5.68586
5.72585
5.76472
5.80251
1.34904
1.44025
1.53782
1.64266
1.75551
1.87666
2.00587
2.14237
2.28506
2.43276
2.58397
2.73735
2.89145
3.04508
3.19705
3.34629
3.49196
3.63332
3.76983
3.90118
4.02718
4.14751
4.26206
4.37076
4.47389
4.57195
4.66535
4.75448
4.83962
4.92092
4.99873
5.07332
5.14498
5.21406
5.28077
5.34534
5.408
5.46885
5.52809
5.58589
5.64237
5.69773
5.75196
5.80523
5.8575
5.90883
5.95924
6.00875
6.05729
6.10485
6.15155
6.19705
6.24158
6.28494
6.32763
6.3691
6.40939
6.44849
6.48645
6.52332
6.55889
1.38343
1.51445
1.65494
1.80419
1.96182
2.1276
2.30073
2.47985
2.66354
2.85005
3.03766
3.22466
3.40965
3.59137
3.76869
3.94044
4.10582
4.26431
4.41559
4.55966
4.69642
4.82562
4.94703
5.06075
5.16744
5.26789
5.36278
5.45259
5.53745
5.61768
5.69364
5.7657
5.83447
5.90025
5.96328
6.02395
6.08238
6.13873
6.19322
6.2461
6.29762
6.34782
6.39694
6.44495
6.49194
6.53795
6.58302
6.62716
6.67045
6.71268
6.75399
6.79426
6.83335
6.8713
6.90826
6.94432
6.97918
7.01293
7.04548
7.07669
7.10661
1.46899
1.63541
1.8141
2.00309
2.20079
2.4062
2.61792
2.83424
3.05314
3.27245
3.49026
3.70448
3.91389
4.11713
4.3135
4.50154
4.68045
4.85015
5.01033
5.16159
5.30382
5.43639
5.55949
5.67301
5.7783
5.87676
5.96903
6.05565
6.13651
6.2118
6.28212
6.3481
6.41043
6.46968
6.52597
6.57947
6.63081
6.67974
6.72682
6.77226
6.81612
6.85887
6.90037
6.94092
6.98038
7.01892
7.05669
7.09345
7.12945
7.16452
7.19859
7.23164
7.26362
7.29435
7.32408
7.35275
7.38046
7.40713
7.43246
7.45622
7.4788
1.58481
1.78362
1.99743
2.22273
2.45656
2.69744
2.94329
3.19201
3.44142
3.68833
3.93123
4.16722
4.39557
4.61479
4.82528
5.02455
5.212
5.38817
5.55263
5.70653
5.84989
5.98146
6.1019
6.21096
6.31122
6.40423
6.49059
6.57104
6.64435
6.71132
6.77312
6.82976
6.88309
6.93329
6.97978
7.02374
7.06545
7.10456
7.14194
7.17778
7.21197
7.24484
7.27676
7.30772
7.33751
7.36645
7.39475
7.42219
7.44905
7.47498
7.5
7.52394
7.54687
7.56846
7.58877
7.60832
7.62707
7.64484
7.66107
7.67556
7.68885
1.71869
1.9471
2.19328
2.45176
2.71817
2.99013
3.2658
3.54285
3.81841
4.08858
4.35225
4.60514
4.84753
5.07726
5.2976
5.50387
5.69578
5.87513
6.03967
6.19195
6.33274
6.45882
6.57386
6.67518
6.76693
6.85157
6.92849
6.99938
7.06178
7.11716
7.16771
7.21262
7.25418
7.29261
7.32721
7.3586
7.38802
7.4143
7.43986
7.46421
7.48631
7.50708
7.52664
7.54566
7.56332
7.58057
7.59689
7.61263
7.62786
7.64241
7.65599
7.66851
7.68031
7.69038
7.69918
7.70742
7.71451
7.72171
7.72686
7.72968
7.73185
1.86162
2.11434
2.38995
2.67571
2.97248
3.27031
3.57032
3.87353
4.16908
4.45986
4.73935
5.00757
5.25906
5.49476
5.71939
5.92947
6.12288
6.30214
6.46779
6.61501
6.74809
6.86614
6.97192
7.0665
7.14731
7.21934
7.28411
7.34192
7.38956
7.43129
7.46908
7.50167
7.52916
7.55247
7.57116
7.58836
7.60103
7.61184
7.62357
7.63313
7.64057
7.64508
7.65098
7.6552
7.65823
7.66245
7.66308
7.6646
7.66409
7.66341
7.66105
7.65832
7.65616
7.6523
7.64733
7.642
7.63345
7.62932
7.62086
7.6087
7.59772
2.10312
2.12376
2.14354
2.16243
2.18048
2.19784
2.21475
2.23158
2.24824
2.264
2.27855
2.29255
2.3061
2.31944
2.33285
2.34696
2.36216
2.37875
2.39702
2.41738
2.43945
2.46279
2.48716
2.51217
2.53753
2.56328
2.58956
2.61606
2.64273
2.66961
2.69683
2.72428
2.75195
2.78001
2.80838
2.83705
2.86612
2.89566
2.92563
2.95594
2.9867
3.01802
3.04986
3.08217
3.11509
3.14841
3.18216
3.21648
3.25141
3.2868
3.3227
3.3592
3.39639
3.43404
3.4725
3.51168
3.5519
3.59286
3.63492
3.67821
3.72283
4.63919
4.67816
4.71618
4.75342
4.78958
4.82425
4.85693
4.88833
4.91745
4.94578
4.97236
4.99791
5.02234
5.04572
5.06794
5.08887
5.10862
5.12716
5.14452
5.16067
5.17568
5.18956
5.2022
5.21367
5.22398
5.23309
5.24086
5.24706
5.25177
5.25497
5.25667
5.2569
5.25571
5.25307
5.24903
5.24366
5.23691
5.22889
5.21955
5.20893
5.19709
5.18406
5.16994
5.15466
5.13822
5.12054
5.1015
5.08118
5.05947
5.03641
5.01195
4.98601
4.95874
4.92965
4.8995
4.86767
4.8348
4.80041
4.7656
4.73022
4.69446
5.83863
5.87363
5.90703
5.93949
5.97089
6.00165
6.03046
6.05792
6.08314
6.10704
6.12929
6.15028
6.16983
6.1883
6.20545
6.2212
6.23558
6.24858
6.26016
6.27034
6.27917
6.28664
6.29275
6.2975
6.30088
6.30287
6.3035
6.30272
6.3005
6.29676
6.29154
6.28478
6.27649
6.26674
6.25549
6.2428
6.22862
6.213
6.19592
6.17743
6.1576
6.13653
6.11426
6.09085
6.06625
6.0404
6.01314
5.98444
5.95421
5.92246
5.88914
5.854
5.81713
5.77836
5.73789
5.69541
5.65116
5.60541
5.55865
5.51098
5.46255
6.59341
6.62662
6.65852
6.68883
6.71789
6.74573
6.77209
6.79673
6.81971
6.84102
6.86071
6.87878
6.89528
6.91026
6.92361
6.93549
6.94585
6.95465
6.96186
6.96749
6.97159
6.97425
6.97547
6.97529
6.97363
6.97047
6.96578
6.95961
6.95198
6.94284
6.93216
6.91985
6.90593
6.89041
6.87336
6.85477
6.83459
6.81279
6.78936
6.76437
6.73794
6.71016
6.68125
6.65128
6.62031
6.58828
6.55497
6.52031
6.48424
6.44677
6.40773
6.36698
6.32448
6.2801
6.23377
6.18527
6.13482
6.08272
6.02949
5.97518
5.92022
7.13521
7.16261
7.18855
7.21287
7.23549
7.25651
7.27592
7.29372
7.31011
7.3251
7.33853
7.35042
7.3608
7.36956
7.37675
7.38249
7.3866
7.38909
7.38988
7.38896
7.38647
7.38252
7.37723
7.37063
7.36262
7.35315
7.34222
7.32989
7.31624
7.3013
7.28499
7.26713
7.24771
7.22674
7.20434
7.18045
7.15495
7.12782
7.09891
7.06832
7.03617
7.00262
6.96795
6.93243
6.89619
6.85928
6.8213
6.78226
6.74205
6.70084
6.65822
6.61398
6.56819
6.52055
6.47095
6.41887
6.36479
6.30883
6.25175
6.19349
6.13466
7.50003
7.5199
7.5382
7.55501
7.57008
7.58342
7.59516
7.60511
7.61344
7.62023
7.62562
7.6296
7.63208
7.63297
7.63227
7.63018
7.62661
7.62138
7.61429
7.6053
7.59463
7.58253
7.56919
7.55475
7.539
7.52181
7.50321
7.48327
7.4623
7.44041
7.41762
7.39346
7.36799
7.34109
7.31307
7.28373
7.25279
7.22028
7.18592
7.14975
7.11189
7.07239
7.03172
6.99037
6.94866
6.90691
6.86428
6.82118
6.77722
6.73301
6.68773
6.64084
6.59283
6.5431
6.49165
6.43728
6.38092
6.32235
6.2631
6.20247
6.14134
7.70089
7.71161
7.72076
7.72832
7.73414
7.7382
7.74046
7.7412
7.74031
7.73758
7.73349
7.72825
7.72158
7.71332
7.70335
7.69227
7.68013
7.66633
7.65052
7.63239
7.61236
7.59095
7.56837
7.54504
7.52064
7.49471
7.46732
7.43838
7.4087
7.37863
7.34865
7.31759
7.28586
7.2529
7.21955
7.18523
7.14908
7.11144
7.07204
7.03087
6.98783
6.94264
6.89601
6.84868
6.80119
6.75474
6.70721
6.66021
6.61255
6.56622
6.51945
6.47071
6.4215
6.37068
6.31887
6.26305
6.20575
6.14557
6.08592
6.02437
5.96274
7.7326
7.73238
7.7305
7.7274
7.7226
7.71636
7.70801
7.69914
7.68883
7.67592
7.66166
7.64693
7.63072
7.61306
7.59289
7.57183
7.55107
7.52904
7.50507
7.47771
7.44759
7.41659
7.38426
7.35128
7.31813
7.28338
7.2471
7.20802
7.16782
7.12785
7.09011
7.0514
7.01354
6.97477
6.93732
6.89995
6.8595
6.81676
6.77298
6.7285
6.68172
6.63194
6.58014
6.52715
6.47381
6.42337
6.37053
6.31984
6.26817
6.2209
6.17451
6.12477
6.07541
6.02468
5.97432
5.91776
5.86095
5.79987
5.74188
5.68115
5.62141
7.58387
7.57037
7.5539
7.53802
7.51947
7.50299
7.48251
7.4642
7.44581
7.42497
7.40213
7.37944
7.35468
7.32998
7.29968
7.26663
7.23683
7.20832
7.18041
7.14777
7.10657
7.0677
7.0273
6.98409
6.94202
6.89955
6.85808
6.81076
6.75736
6.705
6.65859
6.61068
6.56609
6.52144
6.48329
6.44754
6.40593
6.35751
6.30941
6.26424
6.21782
6.16597
6.10998
6.05317
5.99498
5.94236
5.88325
5.82898
5.77193
5.7261
5.68274
5.63242
5.58448
5.5361
5.48968
5.43289
5.37802
5.31621
5.26194
5.20414
5.14946
3.76879
3.8157
3.86384
3.91321
3.96383
4.01584
4.06914
4.1239
4.17982
4.23688
4.29519
4.35448
4.41466
4.47795
4.55603
4.62738
4.69763
4.7687
4.84061
4.91349
4.98737
5.06227
5.13806
5.21469
5.29196
5.36963
5.44759
5.52565
5.60362
5.68118
5.75822
5.83445
5.90945
5.98302
6.05482
6.12429
6.19097
6.25437
6.31064
6.35194
6.38021
6.39621
6.39987
6.39051
6.36711
6.32822
6.27194
6.19595
6.09751
5.97343
5.81989
5.63242
5.40594
5.13354
4.8053
4.24344
3.98294
3.84798
3.79357
3.76832
3.71807
4.658
4.62118
4.58353
4.54516
4.50607
4.46692
4.42745
4.38844
4.34937
4.31063
4.27279
4.22982
4.18296
4.13862
4.08908
4.0412
3.99327
3.94526
3.89764
3.85067
3.80434
3.75834
3.71257
3.66699
3.62151
3.57616
3.53094
3.48597
3.44126
3.39689
3.35298
3.30965
3.26704
3.22535
3.18486
3.14585
3.10873
3.07409
3.04243
3.01569
2.99109
2.96883
2.94924
2.9329
2.92073
2.91366
2.91272
2.91924
2.9347
2.9604
2.99761
3.04748
3.11122
3.1914
3.27676
3.40826
3.57916
3.84527
4.22411
4.72055
5.06758
5.41356
5.36403
5.31368
5.26218
5.20949
5.1561
5.1023
5.04855
4.99447
4.93993
4.88234
4.8164
4.7505
4.68782
4.62521
4.56328
4.50062
4.43727
4.37359
4.31
4.24651
4.18282
4.11891
4.05474
3.99023
3.92538
3.86018
3.79464
3.72872
3.66243
3.59574
3.52869
3.46133
3.3937
3.32588
3.25796
3.19008
3.12233
3.05488
2.98795
2.9215
2.85513
2.78931
2.72495
2.66236
2.6021
2.54501
2.49231
2.44563
2.40709
2.37947
2.36631
2.37229
2.40297
2.46115
2.55842
2.69816
2.91081
3.24063
3.73956
4.3605
5.86478
5.80924
5.75298
5.69564
5.63679
5.5772
5.51719
5.45738
5.3972
5.33599
5.2684
5.19437
5.12226
5.05351
4.98582
4.91891
4.85162
4.78412
4.71651
4.64909
4.58173
4.51393
4.44585
4.37753
4.30885
4.23988
4.17056
4.10091
4.03081
3.96025
3.88919
3.81769
3.74577
3.6735
3.60094
3.52818
3.45528
3.38232
3.30928
3.23621
3.16306
3.08976
3.01572
2.94071
2.86548
2.79012
2.71488
2.64014
2.56661
2.49531
2.42767
2.36581
2.31262
2.27185
2.24714
2.24464
2.27249
2.34821
2.50101
2.77391
3.19732
6.07528
6.0162
5.95664
5.89612
5.83359
5.77025
5.70638
5.64307
5.57925
5.51411
5.44113
5.36396
5.28944
5.21829
5.14817
5.07885
5.00936
4.94049
4.87199
4.80405
4.7362
4.66761
4.5988
4.52988
4.46056
4.39103
4.32115
4.25097
4.18024
4.109
4.03722
3.96504
3.8925
3.81977
3.74688
3.67398
3.60115
3.52846
3.45589
3.38349
3.31123
3.23915
3.16712
3.09462
3.02135
2.94749
2.87309
2.79821
2.72301
2.64783
2.57304
2.49924
2.42736
2.35861
2.29448
2.23783
2.19459
2.17546
2.19715
2.2847
2.46877
6.07925
6.01822
5.957
5.89509
5.83021
5.76451
5.69789
5.63254
5.56675
5.50003
5.42473
5.34726
5.27268
5.20188
5.13148
5.06188
4.992
4.92382
4.85651
4.79026
4.72416
4.65672
4.5894
4.52232
4.45472
4.38707
4.31895
4.25058
4.18142
4.11172
4.04138
3.97081
3.90003
3.82933
3.75869
3.68834
3.61831
3.54875
3.47961
3.411
3.34288
3.27535
3.20839
3.14188
3.07536
3.00833
2.94079
2.87281
2.80445
2.73579
2.66694
2.59795
2.5288
2.45947
2.38978
2.32025
2.25321
2.1939
2.1512
2.13852
2.17478
5.89879
5.83718
5.77573
5.71448
5.64825
5.58146
5.51293
5.44718
5.38114
5.31542
5.23971
5.16394
5.09094
5.02294
4.95411
4.88639
4.81762
4.75214
4.68776
4.62497
4.5623
4.49715
4.43307
4.37009
4.30614
4.24233
4.17762
4.11292
4.04685
3.98027
3.91285
3.84572
3.77857
3.71204
3.64571
3.58009
3.515
3.45081
3.38738
3.32497
3.26341
3.20298
3.14357
3.08515
3.02752
2.97031
2.91273
2.85479
2.79665
2.73846
2.68031
2.62216
2.56386
2.50496
2.44481
2.38277
2.31887
2.25475
2.19412
2.14339
2.11249
5.55629
5.49505
5.43493
5.37691
5.31057
5.2443
5.17462
5.11043
5.04614
4.98428
4.90944
4.83674
4.76629
4.70338
4.63735
4.57359
4.507
4.44606
4.38607
4.32781
4.26968
4.20712
4.14754
4.09123
4.03243
3.97367
3.91311
3.85347
3.79106
3.72846
3.66457
3.60244
3.54032
3.47988
3.4194
3.36026
3.30146
3.24434
3.1883
3.13413
3.08104
3.02972
2.97995
2.9314
2.88398
2.83773
2.79157
2.74503
2.6986
2.65255
2.60719
2.56247
2.51825
2.474
2.429
2.38227
2.33303
2.28105
2.22722
2.17378
2.12507
5.08412
5.02295
4.96624
4.9143
4.84942
4.78511
4.71473
4.65483
4.59487
4.53954
4.46672
4.39764
4.32977
4.27416
4.21137
4.15372
4.08981
4.03535
3.98084
3.92673
3.87332
3.81262
3.75874
3.71324
3.66013
3.60537
3.54848
3.49517
3.43549
3.37668
3.31558
3.26052
3.20415
3.1517
3.09752
3.04593
2.99296
2.94388
2.8964
2.85222
2.80893
2.76801
2.7291
2.69141
2.6539
2.61722
2.58107
2.54443
2.50955
2.4754
2.44428
2.41448
2.38655
2.35908
2.33182
2.30338
2.27313
2.2401
2.20421
2.16499
2.124
3.62479
3.52023
3.40641
3.28461
3.16063
3.03804
2.9198
2.80967
2.71087
2.62546
2.55427
2.49713
2.45296
2.42011
2.39668
2.38074
2.37055
2.36478
2.36239
2.36249
2.3645
2.36801
2.37273
2.37853
2.38534
2.39305
2.40168
2.41117
2.42153
2.43271
2.44467
2.45735
2.47065
2.48443
2.49854
2.51282
2.52703
2.54095
2.55435
2.56702
2.5787
2.58918
2.59834
2.60611
2.61248
2.61761
2.62167
2.62495
2.62779
2.63063
2.63381
2.63759
2.64218
2.64771
2.65405
2.66104
2.66831
2.67566
2.68258
2.68849
2.69295
5.06504
4.99469
4.87459
4.70081
4.50577
4.29184
4.05764
3.81055
3.55966
3.31349
3.07872
2.86202
2.6672
2.49542
2.34702
2.22298
2.12226
2.0416
1.97761
1.92747
1.88861
1.85876
1.83618
1.81927
1.80739
1.79933
1.7949
1.79363
1.79527
1.79958
1.80638
1.81544
1.82651
1.8393
1.85346
1.86866
1.88441
1.90024
1.9156
1.92988
1.94239
1.95232
1.95878
1.9609
1.95794
1.94931
1.93473
1.91441
1.88917
1.86049
1.83031
1.80091
1.77458
1.75318
1.73763
1.72832
1.72447
1.72489
1.72746
1.73018
1.73128
4.87061
5.23685
5.4423
5.45829
5.32543
5.12666
4.86398
4.56173
4.23816
3.9057
3.57691
3.26363
2.97354
2.71182
2.48164
2.28429
2.11791
1.97798
1.86168
1.76782
1.69378
1.6365
1.59289
1.56018
1.53578
1.51826
1.50609
1.49852
1.4948
1.49437
1.4968
1.50167
1.50851
1.51682
1.52611
1.53586
1.54557
1.55471
1.56272
1.56895
1.5728
1.57366
1.57099
1.56419
1.55279
1.5364
1.51478
1.48794
1.45632
1.42085
1.38317
1.3458
1.31184
1.28451
1.26653
1.26002
1.26557
1.28264
1.3095
1.34397
1.38372
3.73054
4.32186
4.89151
5.33451
5.56154
5.60662
5.48397
5.23111
4.91039
4.54328
4.15785
3.77882
3.41873
3.0889
2.79451
2.53562
2.30933
2.11407
1.94831
1.81095
1.6999
1.61269
1.54594
1.49585
1.45881
1.43204
1.41343
1.40145
1.39486
1.39267
1.39417
1.39877
1.40579
1.41448
1.42416
1.43413
1.44371
1.45219
1.45886
1.46295
1.46371
1.46047
1.45259
1.43956
1.42093
1.39656
1.36643
1.33086
1.29034
1.24579
1.19868
1.15136
1.10713
1.07022
1.04539
1.03722
1.04811
1.07829
1.1261
1.18908
1.26449
2.76969
3.19792
3.73962
4.33665
4.88776
5.31242
5.55726
5.59561
5.46291
5.18806
4.82138
4.42352
4.01481
3.62192
3.26045
2.93344
2.64257
2.38585
2.16462
1.9785
1.82541
1.70345
1.60914
1.53779
1.48458
1.44558
1.41793
1.39947
1.38841
1.38325
1.38302
1.38697
1.39425
1.40392
1.41512
1.42699
1.43871
1.44943
1.45829
1.46439
1.46681
1.46477
1.45748
1.44431
1.42469
1.3984
1.36542
1.32603
1.28066
1.23017
1.17588
1.11998
1.06568
1.01745
0.981543
0.965146
0.973355
1.009
1.07167
1.15813
1.26359
2.282
2.48411
2.80068
3.23573
3.76113
4.32091
4.83804
5.2295
5.44576
5.47328
5.32576
5.04739
4.67179
4.25783
3.85042
3.45927
3.10214
2.78013
2.49163
2.24288
2.03618
1.87052
1.74185
1.64389
1.57004
1.51492
1.47483
1.44705
1.42916
1.41899
1.41525
1.41704
1.42337
1.43308
1.44513
1.45852
1.47229
1.48547
1.49707
1.50606
1.51141
1.51223
1.50763
1.49686
1.47917
1.45426
1.42199
1.38261
1.33635
1.284
1.22668
1.16644
1.10629
1.0505
1.00549
0.979783
0.980912
1.01525
1.08526
1.18828
1.31832
2.11524
2.16955
2.29626
2.51546
2.83876
3.26212
3.75739
4.2701
4.73179
5.07636
5.25757
5.26464
5.11518
4.84185
4.48993
4.08501
3.68426
3.30234
2.93723
2.61179
2.33498
2.11102
1.93678
1.80312
1.70129
1.62384
1.56618
1.52495
1.49703
1.47915
1.46957
1.46713
1.47072
1.47892
1.49049
1.50425
1.51909
1.5339
1.54759
1.55899
1.56696
1.5706
1.56888
1.56103
1.54603
1.52361
1.49345
1.45586
1.41085
1.3592
1.30189
1.24091
1.17908
1.12034
1.07077
1.03901
1.03429
1.06592
1.1398
1.25539
1.40648
2.0881
2.07309
2.09387
2.16738
2.31135
2.5404
2.86047
3.26107
3.71322
4.16767
4.56475
4.85223
5.00074
4.99867
4.86066
4.61004
4.28415
3.91078
3.49242
3.09245
2.73085
2.43219
2.19961
2.01988
1.88105
1.77326
1.69088
1.63025
1.58806
1.55903
1.54078
1.5316
1.53035
1.53523
1.54473
1.55747
1.57214
1.58749
1.60224
1.61513
1.62496
1.63082
1.63159
1.62653
1.61433
1.59472
1.56729
1.53231
1.48967
1.44013
1.38461
1.32503
1.26402
1.2053
1.15461
1.12037
1.11248
1.14257
1.21956
1.34576
1.51534
2.08391
2.04934
2.02811
2.03035
2.06924
2.15949
2.31525
2.54593
2.85112
3.21866
3.61426
4.00167
4.33763
4.58677
4.71889
4.72505
4.60761
4.37273
4.05528
3.65359
3.21625
2.84217
2.54651
2.31241
2.12376
1.97357
1.85588
1.76858
1.7065
1.66144
1.63089
1.61163
1.60273
1.60211
1.60768
1.61778
1.63091
1.64553
1.66025
1.67339
1.68424
1.69141
1.69415
1.69143
1.682
1.66519
1.64103
1.60889
1.56941
1.52265
1.47019
1.41341
1.35495
1.29865
1.24939
1.21528
1.20675
1.23713
1.3169
1.45201
1.63603
0.298529
6.54805
6.24359
0.218556
0.36214
0.129691
0.00316211
2.39281
0.00338124
0.0234616
3.33292
1.14339
0.00316358
6.00021
0.11356
5.64346
0.00326112
2.5004
3.63092
0.00315958
0.219115
5.83614
6.32489
0.00329591
0.00333535
0.108256
0.00316148
0.508004
0.00324766
0.00345597
0.716984
0.00325548
0.0163319
2.48508
0.829254
3.4002
2.53272
1.68387
0.00316419
2.6062
1.90143
2.0563
0.00321062
4.90897
3.16
0.289355
0.00361284
0.015277
0.12812
1.16991
6.53622
7.76458
0.00311379
0.00405367
0.0371606
0.00883652
0.00344666
0.681874
2.40981
7.44602
2.45047
0.00370025
0.146989
0.0323686
6.52464
0.41242
1.97939
1.70837
0.00430882
0.00321342
1.22011
2.72529
1.72558
0.0124775
0.0394651
4.03095
6.84098
3.49792
0.00311425
0.991691
0.00712817
2.63775
0.0106113
5.08044
0.0032182
1.147
0.00336481
2.1897
0.0147785
0.00491515
0.124001
0.00311071
0.00377971
7.61446
5.56239
0.00359105
0.453523
0.304989
0.00602854
6.72719
0.187793
2.58243
0.786072
0.00310794
0.0031643
0.00310549
0.317973
0.126746
0.00323872
6.22896
6.91941
0.00927762
4.53345
1.48698
2.52862
2.70133
1.78474
0.00389815
0.0874808
0.00417711
0.00426713
3.41057
0.00725433
7.48013
7.67102
0.976286
0.00321586
1.11878
1.1159
0.00321141
0.0343262
0.033957
1.69539
0.0056565
3.02173
0.00322143
0.00315971
7.67395
7.79875
0.00323193
0.166602
5.73504
0.107261
0.311559
1.54556
4.85199
0.0356674
1.63773
0.0121341
7.01297
1.24719
0.00895193
2.98332
5.01856
6.3961
0.0033032
0.00326477
0.225458
0.00314784
1.94779
0.0301829
0.00509795
0.00319706
0.00322104
0.00323687
3.04504
1.74913
1.58322
0.00331776
6.71133
4.72403
3.15957
4.89902
0.0139441
3.67848
1.66249
1.8955
0.00324064
0.00569506
2.86396
3.08597
2.10158
3.81057
0.00321726
0.00351842
4.84963
0.0366316
0.589232
0.00323888
0.00361066
0.107214
0.00338715
7.72661
0.74521
0.00314462
0.267617
1.78347
5.35838
0.00447791
1.91841
0.00321982
0.00323552
4.93642
2.5796
7.2196
0.00452182
0.00339467
0.00762833
2.88473
2.19148
1.16188
5.00124
1.56006
7.04691
0.190414
4.58592
4.2612
1.98006
1.45419
2.29324
0.00487063
0.0373446
0.00322719
0.00321309
1.82238
0.0183656
0.0204106
0.0056815
0.0130826
2.94241
4.63234
0.0189307
5.92042
1.16754
0.412476
0.00318285
0.164716
3.00056
1.1262
0.00412917
1.22579
1.13128
0.179477
0.268629
7.38795
0.814601
0.483816
5.37713
0.00383145
0.0031626
0.00403715
0.0104662
1.74668
0.00335833
0.00647455
0.00316373
0.405528
4.0933
3.97868
2.75459
1.28155
1.53724
7.64808
0.00432995
2.07536
4.5708
0.00321112
1.98512
0.00321766
4.00758
0.403387
1.55055
0.00534679
0.00322156
2.0248
0.500857
0.00323907
0.00323867
0.00325334
0.00324414
0.372165
1.62359
3.21937
0.0146926
0.00324071
0.00316327
0.00310599
5.0038
0.229352
0.00447314
1.75379
0.089212
0.0407583
0.00310133
0.274218
0.00323979
0.0515659
1.46291
4.64315
0.279835
0.00391446
0.00596605
3.47917
0.145271
1.93006
7.61347
0.00350194
0.00319812
0.00318692
6.04789
0.00331256
4.86898
0.00322275
1.95268
1.17784
0.0271204
2.92101
3.92405
0.00468186
2.73751
2.74538
1.64199
4.73799
1.10501
7.7954
2.45087
3.99466
3.60765
4.72559
1.71616
0.164703
7.73323
7.42389
3.02281
2.11548
0.00393776
6.91351
2.73607
7.04208
0.0277506
0.00359
0.00321584
0.00342639
0.176937
0.436831
0.719075
0.09449
0.00317334
6.15079
0.00321649
1.43616
2.08085
6.55922
2.61145
2.00653
0.0059641
0.00425394
0.0876634
2.78378
0.0103617
0.748213
5.14818
2.05609
4.41996
6.19353
3.35858
0.00345829
7.44723
5.53696
1.74466
0.00323693
6.40342
5.78809
0.00333552
1.96094
0.00324077
6.73748
5.58656
1.86252
4.44194
2.5134
5.80859
0.0032885
5.822
0.00386637
3.64688
4.26642
1.90842
7.42743
0.770938
0.218806
0.577451
0.00423749
4.26117
0.144279
0.00814568
0.00504738
4.43019
0.00383436
4.64321
0.00319109
0.00323682
0.00598497
1.87099
0.108379
1.98156
0.00567641
4.49239
0.168659
6.692
4.32308
2.82973
6.16699
0.00338009
7.445
3.12187
0.0032124
4.19223
2.21582
0.00310964
0.00316746
3.37275
0.00646381
1.9363
0.0871215
2.34834
0.0270283
0.655742
2.8127
4.90362
2.59289
3.97729
3.8467
0.00393668
0.021635
1.68649
1.68968
7.6317
6.40765
5.35096
0.0671593
5.24448
5.2161
0.519533
1.71036
2.99285
2.2285
0.00347214
4.40604
7.80147
0.00416315
4.47404
2.01985
3.01508
0.0244943
0.0695043
6.1578
0.00597017
7.62446
0.00461696
0.256568
0.00320297
1.05642
2.28241
0.235831
0.00479794
0.0036942
2.68825
1.5938
0.0795353
0.406674
5.82422
4.07636
0.00447197
1.55281
1.63835
3.22182
1.4862
4.16661
1.95478
5.38353
3.48131
0.478837
0.982783
7.54908
1.93806
7.69319
6.25217
0.0321535
3.36842
2.83684
0.00337361
1.78087
1.57912
1.3312
0.0173421
4.85328
1.4583
0.759129
1.94213
0.00543976
0.00321631
0.0363503
2.4043
4.56112
2.58908
0.00322232
0.00318769
0.003217
1.70643
0.0276744
0.00321746
0.129095
4.53202
4.92131
0.0105839
0.0108242
0.0031575
0.00320453
0.00599017
1.816
1.74509
1.66038
0.476272
7.54786
5.80578
0.00524812
3.34426
1.83648
1.9373
4.27987
7.39416
0.00345668
0.010512
0.00324048
3.82696
0.258691
0.00316836
1.46279
0.169328
7.53453
0.00323876
7.6923
1.25475
0.0481297
6.66987
0.00323316
0.00319534
0.00404651
7.73252
3.49149
5.44654
4.95627
1.07153
1.76255
0.00313021
0.00603643
0.0877437
0.0132078
0.0253667
1.97161
2.14954
0.00322709
1.28532
1.82632
6.31072
7.7232
0.00827704
7.6904
0.00591899
0.0307073
3.5534
0.00320249
5.85332
0.00324187
0.00336717
0.0221401
2.1126
0.651633
2.56114
1.90188
0.00365822
1.76205
4.60114
0.0496962
0.215288
0.86676
0.00331627
0.00326917
0.00692359
5.65434
0.534216
0.00335402
7.3253
5.91269
6.8158
0.0284651
2.02228
0.00419917
2.59859
0.166123
0.0939277
2.63782
1.66804
1.90162
6.28823
0.00327597
0.00313566
0.0105063
4.16976
4.64452
1.04409
0.0139936
0.00333541
0.0032398
0.00884217
0.0290844
0.00662686
2.16579
1.63276
0.0115478
1.54615
6.14187
0.00327106
2.38839
0.0032167
0.561541
0.00324489
0.0223386
2.41938
0.0202569
0.00320662
0.820211
7.82125
7.11996
0.00318801
0.00326713
0.417998
0.0297122
0.00321793
4.36262
0.00369909
1.67282
7.81285
2.55347
1.67666
2.45116
3.68063
7.64245
0.00323096
0.00742416
0.0147571
4.20013
1.42494
6.49851
0.684938
0.35833
4.32634
3.59917
5.10518
0.730838
2.75167
0.00322402
0.38557
1.64867
2.71179
3.92533
1.95814
0.226353
2.68587
0.104937
0.00920066
1.71707
0.00324153
5.72463
0.00366304
0.382625
7.50616
2.69649
0.612979
0.00742518
0.791637
0.00329838
0.0031922
0.110266
0.0228242
1.77963
0.0154133
1.73821
0.00322239
0.0283875
0.00316542
4.7358
0.00504645
4.13385
2.51452
0.022201
1.92622
7.5011
0.00326053
1.71769
4.38961
0.00335442
7.48257
0.0609909
0.00347724
0.00339836
7.24001
0.00317831
0.00428725
0.0895235
0.103112
7.0907
7.34458
0.00322142
0.00326681
1.10047
2.50347
0.0147299
0.264802
2.17025
0.00321959
0.00383642
0.00372713
6.22271
7.3949
0.51191
7.12944
0.0265011
1.57887
0.003321
0.0149202
0.0252701
0.0364116
0.00323261
6.81183
0.00320166
0.0253344
0.00331841
0.23615
0.0227268
0.013118
0.464149
0.718947
2.27739
0.418299
1.14203
1.82358
5.0457
0.00343854
4.84097
7.68595
1.19047
4.26039
0.00327607
4.30995
3.97532
0.00321823
7.38921
2.31106
0.00788412
0.0091409
6.11716
5.95658
0.0571479
7.61433
7.3137
0.836462
7.28668
7.2584
5.20309
1.92102
1.67249
0.997722
7.29123
7.49226
0.0221802
7.36912
2.62369
4.33767
0.00342953
0.355023
0.399034
6.98155
5.98228
0.0204236
4.24033
6.63025
0.465424
0.0334035
0.386754
1.81565
0.00535989
1.85209
6.90865
0.0340662
6.94134
1.43223
4.65428
6.49228
0.0032239
0.00564488
1.14869
0.742356
0.0181651
0.00322004
0.19179
0.257532
0.00451181
0.00323657
4.17276
1.09066
3.19063
1.06531
0.00867243
0.0041699
0.0888453
3.3908
0.00346292
2.01665
1.6522
0.494848
2.28626
0.00397407
0.11735
0.00320337
0.366043
4.57983
0.00425143
0.120619
2.10848
5.7753
0.230238
4.21365
0.609519
0.169479
0.0039229
2.54362
7.71316
0.00321322
0.00328323
5.81995
0.0247979
0.00323577
3.98211
0.25446
1.93762
2.00655
1.47852
0.151855
1.84989
3.47685
5.81274
4.34973
0.00327786
5.54155
0.00389177
2.63761
0.00339612
0.00449299
2.11238
0.00654222
3.85193
0.0207947
0.0403722
1.86765
0.735933
0.0575043
0.00367558
6.33913
0.00364583
0.00315272
7.78051
5.99018
3.03052
1.91798
0.0034333
0.00309213
2.00704
5.80068
0.00319568
6.60929
1.7045
0.0032452
6.22258
0.00312159
0.352541
0.970067
1.44919
0.384429
1.58834
1.92072
0.00311823
7.32608
7.38702
0.00321768
0.0167441
1.92714
0.00313377
7.13574
5.43012
4.37171
0.00322017
0.00317014
3.47647
0.0408771
0.00349781
1.90729
1.72079
4.12301
0.00315381
0.00337461
0.024606
0.0195077
0.00321932
0.00639722
5.44837
2.8872
0.00322426
1.43182
0.00321613
0.706142
0.00420296
0.00358884
2.45391
0.00326997
0.123477
0.0031759
3.03743
0.169594
1.81699
6.47913
4.34859
3.64268
0.894862
1.11461
0.00323556
0.999308
7.40639
4.06675
0.109705
0.00347019
5.42783
0.00321662
0.0304159
0.00315534
7.14161
0.773355
0.365795
6.45901
2.26503
0.481726
4.41065
0.72672
6.97244
4.78247
0.00331274
0.00327205
0.00820872
0.0032359
0.0230605
4.42917
0.00377205
7.11064
0.00601047
0.0759615
0.633484
4.68167
0.00486236
2.89553
0.0168731
3.12084
2.62892
6.91918
0.00339425
0.00383625
0.247634
3.86266
1.65552
3.93125
0.455465
1.04678
1.69729
0.0512633
1.03542
0.247681
1.68391
0.0032832
4.31301
0.436038
3.3312
0.00336039
3.23741
0.984671
0.0044987
1.63369
1.92493
0.0670048
0.00315003
0.0032205
4.83781
2.98173
1.31582
0.00320452
0.0177756
1.98908
6.51786
0.455818
0.0127126
0.00322702
5.58538
5.39364
2.08395
2.85767
0.00321504
3.48976
7.41689
0.00321153
0.00321853
1.27076
0.0040725
0.0099252
0.0317707
1.96819
0.00409786
2.21667
7.6823
0.00320457
0.003457
0.00316771
0.00330328
3.99368
4.62072
7.74743
0.0293673
2.52438
2.20108
0.0888601
3.1024
0.00347567
1.6879
0.228421
2.07241
0.725703
1.65042
3.08284
0.0298529
0.00323955
6.07998
4.50192
4.60562
0.981144
1.74827
0.180902
1.6296
0.00929807
0.00483894
3.40442
5.68396
0.0215943
0.12704
0.00324763
0.0801466
2.0635
0.0276821
1.05822
0.69143
3.7782
2.12092
0.453162
6.77195
5.70973
2.96349
1.79718
4.1724
3.51964
0.597355
2.84947
0.00591522
2.97555
3.15304
0.00320468
0.00313798
0.123601
0.00322922
0.00332679
3.02729
4.32778
0.00322065
3.24745
0.00321701
0.00319295
0.00321327
0.00326019
0.00593776
1.92039
2.7584
7.20972
0.00316008
0.00389585
1.05435
0.00355446
0.0332544
0.00324582
0.00361436
4.34867
0.0039129
0.0110049
2.77261
0.0105147
0.00322099
3.90906
0.00321601
0.00326904
0.270748
0.00360125
0.932507
0.00456293
0.0304945
0.00320477
0.00325156
7.54464
7.61327
2.81175
0.0268275
2.93137
1.70737
0.00471855
1.75718
4.14298
7.0927
4.55666
0.00313785
1.94667
2.64308
0.150851
1.73777
4.51953
0.177193
2.03746
0.230868
1.7166
0.035078
1.08076
0.00323515
6.77546
0.00329222
1.79624
2.68237
0.00321615
0.322251
0.00733815
0.0190554
0.00317494
0.806051
0.00366578
0.00321929
2.51992
0.0104138
0.1133
7.04688
1.92162
0.00345379
0.00387115
2.60113
7.25736
0.00310764
0.00324862
0.0716797
1.38319
5.81218
0.00657354
1.80281
0.00321985
0.00344594
0.00314985
0.0354663
0.98774
0.0101189
6.46188
1.78368
7.25519
6.15201
0.0035196
7.28919
3.97979
0.00317897
0.00322642
0.00321822
0.00439657
0.00320373
3.76262
0.00320865
0.00324072
6.67702
0.348282
0.00778927
0.0215514
1.95896
0.978906
0.0081134
0.00346107
6.44848
0.00324553
0.82586
0.00325908
0.00352659
6.03381
5.84941
0.00873009
0.00350625
0.28798
0.00320731
6.73192
0.00325238
5.64547
0.0251703
0.733011
0.0303475
0.368241
0.382858
1.53017
0.00324322
0.00356837
0.0116589
3.31948
0.122475
7.53816
0.00322184
0.00457379
0.00556195
7.23484
2.92395
3.04288
0.00692341
0.00896241
0.217351
0.00322474
1.2116
2.64357
0.0171615
5.86673
6.39043
2.07525
0.00534272
0.41313
2.80781
6.88196
1.79951
0.0188655
3.08131
0.0556099
5.31209
0.0942925
0.557866
2.6826
0.00324371
1.75801
0.0045511
0.0119459
0.00776597
0.0510272
0.00370366
1.36901
0.00322635
3.06107
0.0971609
0.00361494
0.229417
0.00323208
0.29294
0.121782
2.31465
0.469099
4.66712
0.257382
0.00321812
0.00318822
0.723439
0.0941378
3.04774
7.26807
0.00322538
3.79777
2.90463
0.0234763
2.04564
0.596157
2.34768
2.1352
0.0333359
0.00589476
7.13192
1.53412
6.10558
0.00321169
1.62743
0.0032173