/*--------------------------------*- C++ -*----------------------------------*\
| =========                 |                                                 |
| \\      /  F ield         | OpenFOAM: The Open Source CFD Toolbox           |
|  \\    /   O peration     | Version:  2.3.1                                 |
|   \\  /    A nd           | Web:      www.OpenFOAM.org                      |
|    \\/     M anipulation  |                                                 |
\*---------------------------------------------------------------------------*/
FoamFile
{
    version     2.0;
    format      ascii;
    class       volScalarField;
    location    "3000";
    object      sigmaEq;
}
// * * * * * * * * * * * * * * * * * * * * * * * * * * * * * * * * * * * * * //

dimensions      [1 -1 -2 0 0 0 0];

internalField   nonuniform List<scalar> 
11800
(
172537
125058
558165
474889
120917
335006
161979
175316
187156
199782
171174
677446
88330.8
502571
430642
1.87274e+06
127308
126889
228620
138601
378947
612470
819592
734016
1.53371e+06
964494
996474
495044
1.08718e+06
1.17905e+06
330363
120261
964613
132054
137598
318440
139277
1.02783e+06
138043
147629
1.03285e+06
1.1269e+06
520195
1.22285e+06
348414
1.75342e+06
783687
912395
162516
236623
710306
502083
136003
219567
1.99811e+06
1.65089e+06
66768.7
466055
362958
349353
1.64621e+06
148773
370415
305314
1.50395e+06
227468
730305
519564
66754
891692
139551
116572
112634
1.58338e+06
1.6301e+06
309800
1.57005e+06
215399
174764
179226
2.03174e+06
124015
121212
123663
124081
1.13634e+06
354173
1.0457e+06
957855
515312
134492
1.14831e+06
151332
63785.5
182815
150647
19521.5
150562
137025
596275
78534.4
656839
1.09016e+06
379960
145323
322657
178367
156062
1.60527e+06
1.05279e+06
1.14425e+06
964315
359083
523025
216414
1.4497e+06
212369
142833
1.36153e+06
206401
198770
163508
180339
139094
148539
134755
136940
136418
99086
29275.3
1.85194e+06
1.22884e+06
383761
1.13906e+06
548479
1.04588e+06
956938
336481
975029
475989
895329
819476
493694
191304
237226
320579
1.16965e+06
1.19925e+06
684215
364576
202271
194747
136641
253484
231588
182079
455843
626088
1.25277e+06
142166
1.84429e+06
224797
1.5985e+06
460766
501127
543142
274828
209528
1.98931e+06
1.23225e+06
434771
597339
153672
358956
357734
1.75269e+06
1.77181e+06
931492
853638
1.01278e+06
456718
314629
244987
199953
432399
210220
327137
150632
168610
160120
235078
219031
208143
197248
884635
1.12567e+06
1.63772e+06
124506
215284
1.92671e+06
136070
276207
309595
140839
145354
815270
682885
626765
519015
1.84933e+06
566364
834839
2.5193e+06
2.0927e+06
2.13674e+06
333471
129758
801597
733918
673551
254461
362911
128845
127760
226036
136254
1.2199e+06
249714
137908
450461
206928
171806
137387
629896
643099
2.51479e+06
1.2178e+06
216244
226361
1.10444e+06
904068
314957
456209
1.0134e+06
935308
856962
144602
1.10125e+06
384474
527259
494225
151283
126490
396894
349473
146255
2.13332e+06
274372
315352
228554
262515
672747
733559
795539
361901
256429
138928
1.61944e+06
157475
85643.6
136084
397644
147455
519497
1.89397e+06
373667
370355
558823
405209
466348
339810
1.15668e+06
967718
309583
385520
247824
296486
534243
701239
261842
1.13732e+06
1.22015e+06
1.46914e+06
167000
369783
367580
1.69415e+06
1.71011e+06
1.0132e+06
997088
1.03448e+06
1.02411e+06
133603
91361.2
280491
2.20282e+06
121937
128128
289986
240199
255689
885990
906418
1.51953e+06
2.13896e+06
665983
180440
846405
699135
489660
399882
162371
169094
252180
444776
234620
411340
125213
165540
160411
143748
1.21255e+06
161093
127468
1.77385e+06
297686
678321
746814
727491
918607
884457
104461
103433
615039
803269
556329
1.44127e+06
119122
792340
617260
403633
305700
301496
231826
307956
266660
352525
387175
418299
151498
136975
737475
782658
175466
214968
443888
373847
420892
192617
181045
225966
229818
862254
413100
306701
350271
1.02884e+06
1.19621e+06
336577
191705
181694
241634
225132
419611
487600
397100
466274
365495
429310
324195
307025
630305
317576
695520
1.19843e+06
599158
439860
1.95842e+06
133567
1.25874e+06
615913
448355
1.88127e+06
141086
1.28936e+06
319495
1.09054e+06
1.00633e+06
977641
183643
83151.7
123123
2.26221e+06
1.95592e+06
860792
307742
414333
173106
223567
255240
142457
202682
1.4958e+06
60371.5
529570
404855
1.65264e+06
106508
170835
146440
147709
145407
147149
1.65463e+06
550952
222726
631687
580837
533847
114363
1.22892e+06
400027
557685
161656
815382
178512
1.58145e+06
133024
189276
457688
421616
387989
826706
220103
459610
409144
216171
635640
692838
752906
362006
261970
63820.6
163809
181135
2.05459e+06
693867
547067
397382
327056
176390
147939
109279
110071
186881
98550.8
113426
123025
157529
315074
143462
187392
554170
664279
313933
1.46996e+06
193495
348688
147702
171454
1.42175e+06
1.8504e+06
572820
624042
231725
206565
118803
1.24536e+06
1.79548e+06
1.58914e+06
2.30302e+06
738203
515786
678606
118968
176933
163197
181022
672037
141738
139788
120778
171558
1.24347e+06
275764
1.24809e+06
755077
162548
207607
1.03723e+06
1.2946e+06
667912
728498
788361
358272
255088
608259
139226
140159
136915
156218
125231
182187
95718.9
175245
94815.1
172231
84598.2
168017
154102
160732
111601
1.42415e+06
223196
234031
522139
832952
116408
147305
127640
124441
111040
273289
392810
127886
126868
543303
117688
175502
1.54631e+06
78613.5
158056
480526
441890
463549
502908
516252
545446
254210
192771
1.78158e+06
2.21277e+06
453527
85209.2
323287
321008
345898
247205
738669
681756
625306
164533
82294
711775
667919
297980
330074
168764
568782
619078
218367
1.00115e+06
1.01333e+06
1.02525e+06
1.0167e+06
1.741e+06
1.70353e+06
532268
2.09403e+06
747635
134357
1.46508e+06
1.26869e+06
1.38355e+06
703553
286023
310041
177548
1.48444e+06
485814
614364
2.21558e+06
199501
242751
486000
467071
1.23013e+06
634125
1.83935e+06
133290
130213
253069
358881
797911
732010
671490
1.69606e+06
145835
366144
787907
1.20812e+06
130607
1.98809e+06
1.86005e+06
1.92041e+06
222946
302321
116569
1.96359e+06
557012
227905
384492
1.83412e+06
141952
230759
245623
138174
454312
275715
2.26026e+06
1.96548e+06
193901
556640
711540
272025
319857
240709
213570
606375
187472
547423
405778
1.04318e+06
916323
162904
1.20215e+06
138093
375080
460073
1.61584e+06
304256
412966
231846
193199
176542
205923
391113
912370
1.00563e+06
136616
132448
132914
176825
327321
1.21914e+06
112426
416023
749486
582914
212205
994013
1.10232e+06
712780
1.20252e+06
1.3064e+06
538182
354401
154408
180943
338183
360984
313705
345557
183986
318415
372783
220762
137634
2.2864e+06
974880
365514
491915
456424
222335
392864
571677
1.23794e+06
1.13812e+06
1.04156e+06
321458
379249
193972
204520
1.42301e+06
1.05749e+06
1.21119e+06
147847
192499
268234
625272
1.39786e+06
444183
89721.3
149530
2.08717e+06
1.96251e+06
233828
1.79758e+06
111181
155843
119161
677528
124556
215819
240961
1.24932e+06
1.36284e+06
1.47969e+06
1.60121e+06
716764
610832
508196
401990
184828
131914
394458
1.96214e+06
140816
137994
148645
142724
147906
153973
160176
1.52022e+06
768980
778742
457076
850363
926382
324624
1.08812e+06
260848
218534
146581
2.06315e+06
137777
163068
156561
162697
137344
1.8779e+06
262346
260801
1.0186e+06
327828
692206
249335
1.91282e+06
830458
412089
309738
1.2892e+06
457326
180432
152451
135979
132580
225358
249805
237924
171363
468752
154957
134635
803811
898819
118824
570892
819291
695781
942133
1.77332e+06
1.63601e+06
1.50089e+06
1.36772e+06
570463
694728
1.77767e+06
1.63987e+06
818196
1.50482e+06
941792
1.37105e+06
1.59383e+06
153011
132758
145054
232926
505420
1.1175e+06
139392
419848
571453
454803
622523
187626
239692
414128
603255
1.29877e+06
1.19394e+06
1.09238e+06
518077
385641
974363
200548
252371
163315
326070
302306
274513
556254
435808
447674
333330
131689
681880
188799
340495
420020
1.04501e+06
562988
658094
539067
197150
254121
180886
159771
152747
174297
585562
496222
140309
206427
223447
455428
1.36923e+06
445580
622791
481097
156208
214746
201824
185776
251890
184183
606206
557041
508079
201413
1.49955e+06
685071
214579
918646
617132
1.31607e+06
1.80703e+06
222991
248857
209259
146250
153305
726792
619074
1.88018e+06
129235
179984
342553
503205
221141
140139
733616
725606
61676.4
135845
355410
288684
92215.6
1.63985e+06
1.80551e+06
293336
121852
267739
373481
796298
670492
731611
2.06297e+06
135013
575676
647853
162429
593092
724202
853738
981245
1.85717e+06
1.71381e+06
1.57251e+06
1.43373e+06
592585
722969
1.86024e+06
1.71628e+06
851409
1.57531e+06
980190
1.4358e+06
1.74971e+06
1.50846e+06
1.13813e+06
473328
540245
1.50727e+06
1.12671e+06
329297
120913
115917
1.12492e+06
1.9855e+06
151169
407116
1.64623e+06
1.12283e+06
1.80767e+06
1.84318e+06
1.15993e+06
1.16381e+06
533528
424609
553657
245570
178155
296605
155657
186238
224003
191905
404791
1.92304e+06
553148
192526
117684
356755
383103
1.74485e+06
362498
327575
412422
438169
1.12827e+06
527580
382700
1.46441e+06
409762
531240
195192
164151
371993
320430
346569
864043
553505
536666
1.30576e+06
1.24927e+06
530560
559213
987019
1.0606e+06
396889
414995
136393
180296
188711
540113
420162
74611.1
161972
184986
634542
605247
325131
629523
487695
195531
121953
122587
509480
1.21733e+06
123703
1.80501e+06
259956
718747
659288
206993
258051
430281
147520
128446
1.52832e+06
382348
986721
908902
833340
306925
443478
162557
1.39657e+06
1.82092e+06
171859
144678
999936
363535
494165
854018
931516
1.02292e+06
311217
447767
61914.4
737318
378241
1.81305e+06
314407
1.04621e+06
857011
960908
140485
142134
143614
154678
153518
136117
1.50951e+06
463044
176328
206190
226536
255088
314347
349027
716733
694752
660588
638065
586389
606102
1.06872e+06
163906
138140
135329
178925
206130
147514
164386
1.26771e+06
258901
470877
395602
1.02153e+06
533602
189877
198565
440011
341771
605263
495753
1.22567e+06
1.07157e+06
986120
902833
502447
1.41435e+06
691969
1.42236e+06
250470
209962
270128
264429
185558
171459
183114
1.43812e+06
1.88635e+06
331146
115277
246599
554116
429159
123656
150884
248040
233937
238646
223144
291631
274807
209045
469700
521478
507925
564131
429795
478096
536950
131581
1.1538e+06
912614
485533
1.17545e+06
1.10492e+06
644622
1.88485e+06
353193
335539
380841
409267
188630
158162
171321
358844
143963
1.56445e+06
208697
141447
768981
59221.5
117793
1.56797e+06
180365
398682
1.27193e+06
581983
1.17007e+06
1.07103e+06
1.41412e+06
940409
153616
586342
469320
202788
1.32328e+06
599950
208404
1.09465e+06
996376
1.1933e+06
136703
139127
155057
2.27783e+06
271713
418740
510691
235224
139825
137672
404978
438406
175591
1.5702e+06
407600
1.56622e+06
239958
782093
137626
615631
737192
984663
393555
527759
632778
260059
2.21609e+06
163489
117267
140740
1.89739e+06
1.25093e+06
310554
454318
1.03411e+06
955938
876282
1.95319e+06
587686
476845
1.96619e+06
2.21798e+06
1.52295e+06
86995.8
524575
1.28614e+06
961680
521193
389605
958421
854852
396423
1.31473e+06
317508
265849
490738
431173
331022
1.54131e+06
2.33342e+06
124800
137740
163050
2.23654e+06
156929
181023
679390
520145
1.98425e+06
2.07818e+06
137028
587709
208122
197103
486299
210887
128080
525561
128167
145521
2.34411e+06
1.0106e+06
558951
419171
377354
272459
766010
705897
646305
208088
2.10197e+06
414069
373096
417476
1.76198e+06
712952
1.04222e+06
146217
228376
172135
788605
473792
631024
125550
271971
369410
786506
277862
182455
157324
308022
1.96018e+06
280914
377458
779106
1.26815e+06
1.79143e+06
1.19789e+06
822445
638739
755762
81573.7
227093
311515
664115
611466
561513
1.78974e+06
143516
183110
196447
196089
196499
192538
278829
137551
138052
639386
1.61213e+06
450258
999847
920119
843590
311580
1.82308e+06
574938
654017
781739
673735
1.11176e+06
1.78186e+06
539356
146385
701972
118367
826940
495847
903290
984247
354286
1.14939e+06
284423
2.42753e+06
829056
139616
1.65848e+06
2.43336e+06
2.09513e+06
492233
135735
931732
163862
152351
117608
266847
148069
150665
131560
135746
1.50324e+06
1.57787e+06
138085
1.04729e+06
171892
162727
136824
220657
1.06504e+06
1.07156e+06
247225
1.08414e+06
1.08773e+06
1.42155e+06
468818
177776
218894
296800
594477
646520
222487
59096.9
157077
718967
334816
812967
915032
1.00147e+06
1.09084e+06
559091
395987
297112
167268
145860
1.81815e+06
999094
129783
209211
884803
689817
373386
405097
190828
167804
310567
274356
115756
209359
147534
1.52288e+06
582551
1.42095e+06
138628
132331
2.43486e+06
134593
1.88689e+06
1.85867e+06
137863
859523
429906
1.49547e+06
151280
807744
936317
2.04108e+06
226756
146937
126620
462333
219142
295425
593627
542925
498048
149889
127135
170270
161740
1.04144e+06
1.14797e+06
784598
1.34479e+06
1.23316e+06
1.43201e+06
2.06013e+06
257167
657118
1.96214e+06
587423
1.85428e+06
866761
945465
1.0283e+06
454336
310802
386090
456166
1.7192e+06
160571
184377
267829
253555
235966
177463
351639
323879
303349
752929
763167
2.28553e+06
249329
122908
171321
1.8147e+06
521091
278868
268787
1.77239e+06
901052
622227
107265
193049
126505
887226
1.13256e+06
290733
1.29209e+06
179240
174233
2.35991e+06
1.54986e+06
1.89732e+06
363655
479554
845273
271809
661157
1.95933e+06
2.08699e+06
176859
203315
339411
279043
963426
1.07564e+06
734125
827042
2.17324e+06
2.01719e+06
258708
175703
106914
1.43238e+06
122533
1.88851e+06
382800
284034
1.01311e+06
321795
137948
1.76235e+06
203672
259379
107956
127570
1.31568e+06
445017
142157
709600
335798
188784
143834
130015
646578
130491
1.79254e+06
1.62553e+06
293973
789296
449070
139957
155105
1.39392e+06
171210
933924
240387
512650
1.06161e+06
1.21398e+06
1.71032e+06
186274
297229
1.87646e+06
236029
152372
139825
165190
131385
1.92974e+06
1.49386e+06
340731
465655
814307
807421
1.06788e+06
373828
510913
371228
536309
1.14719e+06
1.05537e+06
965910
1.52689e+06
710317
508647
1.49232e+06
512327
1.62321e+06
602448
658860
1.78436e+06
2.43251e+06
2.07489e+06
400902
402975
1.10528e+06
520909
380144
134201
337850
1.72323e+06
148792
171500
2.18459e+06
1.63048e+06
1.89128e+06
855070
1.06056e+06
1.07047e+06
923477
124982
116994
176623
119847
665316
724733
789249
365774
259058
572440
1.91679e+06
148271
198666
167024
154607
966811
874119
185281
1.70277e+06
1.93287e+06
1.11819e+06
911632
1.55136e+06
1.78698e+06
122206
857735
546432
1.18069e+06
159920
250808
268511
1.51378e+06
1.50797e+06
703292
348417
116166
138048
221570
464453
1.59006e+06
212714
1.21585e+06
148185
350326
241694
317013
545407
281575
435769
42315.7
12231.5
434967
2.27537e+06
196933
164516
167640
133402
124762
178550
185371
135920
139054
499389
134232
146005
178022
931833
1.15033e+06
826036
1.59829e+06
2.02337e+06
144731
197214
365583
163554
1.43125e+06
209504
2.11765e+06
226830
292874
566051
417032
225296
231234
536976
130840
152506
189260
124077
181276
121006
1.86459e+06
108930
153471
271480
124061
95040.5
1.80508e+06
199761
1.55925e+06
1.65155e+06
600639
393526
311095
449417
1.01334e+06
943104
864556
132894
1.12546e+06
591269
130524
1.92819e+06
137585
143332
353087
1.05651e+06
829475
921783
1.28117e+06
186437
144216
394515
582282
1.27734e+06
676533
1.3848e+06
488647
1.17457e+06
1.07533e+06
389591
1.37603e+06
482090
1.26428e+06
571901
1.1633e+06
1.0649e+06
666178
1.40822e+06
179144
573707
445794
147725
185342
1.5668e+06
959225
1.30154e+06
1.21009e+06
1.05601e+06
1.30949e+06
963742
368380
404217
597368
1.4469e+06
146681
2.17527e+06
178138
145673
1.64399e+06
193140
302453
600053
598650
1.77197e+06
114009
1.11605e+06
1.02822e+06
941721
344037
502667
2.17099e+06
362133
279158
646683
172456
676469
312011
336291
124543
196675
205681
177487
512976
124373
633099
340393
259376
855850
1.14142e+06
1.14773e+06
855432
421238
2.04326e+06
136782
137632
1.82948e+06
1.65878e+06
1.00496e+06
2.4214e+06
1.06516e+06
917471
962463
2.15333e+06
1.05364e+06
840614
1.91109e+06
412395
431249
629866
1.68002e+06
111898
1.44113e+06
172458
252654
385246
645135
703875
765365
374204
269437
441609
76074.1
81306
146315
153985
210075
173595
140834
193468
1.06065e+06
1.95661e+06
233158
176656
1.80339e+06
1.29017e+06
507841
687318
145562
152990
1.56531e+06
1.03934e+06
226392
821774
769890
1.03746e+06
130175
145676
154002
133073
1.21631e+06
1.97899e+06
1.93967e+06
1.31364e+06
2.104e+06
265867
123016
339979
1.03054e+06
943941
1.12027e+06
508275
346657
2.19785e+06
478762
601363
786664
258400
222261
920481
328536
169126
694209
264939
340599
2.04754e+06
349125
309331
1.08436e+06
999642
916526
461294
1.39369e+06
1.31078e+06
1.71742e+06
535897
555500
700120
1.4592e+06
686461
493525
1.29662e+06
250836
2.43092e+06
165068
1.85643e+06
492677
564096
134516
599104
1.14535e+06
143403
167880
162869
2.14701e+06
621980
568710
673487
332203
241803
309979
602183
1.40586e+06
608236
1.1878e+06
1.40723e+06
1.2968e+06
407198
1.31213e+06
994881
1.05417e+06
1.24806e+06
1.31335e+06
995747
1.06369e+06
1.25695e+06
726931
615845
47793.4
296950
183921
417573
614151
512115
711632
1.44259e+06
1.33242e+06
1.22497e+06
1.1212e+06
413073
1.15404e+06
566064
163030
114035
119896
204088
109769
490438
1.15809e+06
1.18573e+06
423917
1.97805e+06
168229
149551
1.54504e+06
1.91847e+06
99984.7
1.21482e+06
479024
646841
902882
515594
324242
149557
479517
695732
68849.4
139682
2.00373e+06
265956
202333
482264
442881
523121
339582
137837
143063
346894
1.21175e+06
1.88487e+06
2.18247e+06
331799
368459
1.55435e+06
1.40121e+06
1.82891e+06
119510
1.02626e+06
1.77976e+06
2.19482e+06
2.2654e+06
2.2065e+06
567375
989427
425448
2.07029e+06
1.5536e+06
633996
1.34924e+06
153215
138998
1.60609e+06
1.60791e+06
140073
435709
2.01055e+06
1.68135e+06
1.59637e+06
1.652e+06
2.27449e+06
1.54141e+06
1.98436e+06
1.72266e+06
154795
272990
1.26302e+06
615039
1.03874e+06
219623
146337
185232
171070
159496
206730
184762
427728
1.98811e+06
1.20793e+06
421270
580597
1.29391e+06
172997
601043
422462
2.32848e+06
321688
310443
579104
327621
536173
236677
187526
1.89487e+06
15550.1
151960
151646
31263.8
461270
505450
181769
199189
212595
150268
542681
525609
134021
2.01472e+06
1.72258e+06
607715
1.28929e+06
438206
130443
1.50476e+06
332628
2.00306e+06
545949
667345
787891
907733
1.73281e+06
1.60059e+06
1.46873e+06
1.34126e+06
545114
665297
1.73426e+06
1.60102e+06
784950
1.46962e+06
905254
1.34111e+06
302378
233678
567113
610315
537543
256346
212348
182719
148838
139907
156160
134558
140233
235870
931239
1.00036e+06
885426
496351
964867
1.06348e+06
1.66175e+06
698464
562485
1.78555e+06
596726
205173
126586
176027
147609
282363
258791
263016
145224
383826
301448
383298
783075
144406
208487
947149
154608
116198
143063
122502
1.39872e+06
170228
203777
654035
521774
261855
654761
217607
130537
119009
2.12217e+06
2.17699e+06
1.3002e+06
1.06345e+06
1.03638e+06
1.3215e+06
2.12729e+06
1.09688e+06
133915
707585
391516
301082
432729
209128
2.03204e+06
221290
1.18251e+06
1.09081e+06
999369
524955
357358
621399
361495
277018
2.05356e+06
235378
134031
673829
672597
303698
193331
233585
391341
809441
1.53318e+06
634228
505149
960597
1.24459e+06
336760
488596
1.06728e+06
981506
898936
506016
545510
891203
726288
1.02229e+06
543103
1.12508e+06
1.22698e+06
356295
1.33267e+06
2.40987e+06
1.70321e+06
119446
804425
879043
957298
296767
204553
1.45985e+06
252385
331397
414799
453087
193680
246384
201497
160262
1.37568e+06
1.05413e+06
1.10663e+06
1.32596e+06
314091
1.70661e+06
2.11568e+06
780504
140580
790081
862339
939489
888822
1.03848e+06
289295
1.65721e+06
726142
665816
608940
722673
262912
363136
212199
198046
454034
536893
493627
566155
618059
672215
409687
406120
582152
585025
1.18974e+06
1.18353e+06
999235
1.09259e+06
993685
1.08674e+06
592891
645900
233499
149637
168589
197691
1.20419e+06
756991
140566
1.20378e+06
997944
955484
1.23942e+06
201700
433521
1.56078e+06
655458
1.43703e+06
1.31684e+06
111274
259538
1.08182e+06
633557
449845
1.43259e+06
506396
73346.1
1.09014e+06
998957
1.1857e+06
529542
359587
1.48066e+06
563683
456535
1.95993e+06
565629
798610
193520
146594
329729
307787
281314
1.66722e+06
410993
281030
470387
431988
507847
255790
196974
1.1065e+06
1.24487e+06
201623
706759
152301
957420
1.91597e+06
1.20615e+06
580273
435873
1.04288e+06
530142
473387
390731
257861
164134
397660
197110
480215
195816
333841
143122
158393
2.00928e+06
400469
1.69676e+06
964749
1.04039e+06
561486
420985
1.00602e+06
1.82975e+06
121918
148244
152254
142978
363190
35133.8
11626.2
362520
759055
142253
798411
354335
251636
168075
528764
737534
1.55291e+06
131711
106349
168461
194211
417609
268649
1.04415e+06
930379
229670
151371
123844
2.03465e+06
759381
132879
298198
147525
2.32831e+06
1.88219e+06
297501
221351
815494
394877
558292
1.10367e+06
926037
1.01313e+06
2.17752e+06
1.73112e+06
147165
1.6282e+06
2.2035e+06
1.71364e+06
1.90218e+06
827026
172382
1.11777e+06
270735
171006
208538
406460
439492
323888
321772
734224
240901
167011
128094
1.07226e+06
1.29765e+06
1.41537e+06
1.53661e+06
1.64831e+06
731779
625033
516423
407441
257969
124445
512288
23792.4
251578
251101
12924.6
549896
275632
217239
92716.9
344323
391212
139498
356969
1.07702e+06
821167
566755
402030
459230
2.00638e+06
1.53863e+06
203769
659021
138569
148264
557861
657677
687187
1.36834e+06
393652
430584
144148
1.81292e+06
152336
316263
369331
344218
1.30281e+06
1.42047e+06
734998
800245
798805
556781
716409
1.35175e+06
1.28665e+06
1.2824e+06
439602
607737
115621
128210
119911
274455
132158
597557
1.23646e+06
1.09814e+06
1.34588e+06
981659
1.35623e+06
980403
668312
452209
1.18641e+06
868496
1.18868e+06
871440
289579
1.31948e+06
1.09911e+06
962726
1.25412e+06
1.11036e+06
1.36943e+06
995218
1.37006e+06
994387
1.25196e+06
2.3311e+06
501221
702515
1.49715e+06
553069
140047
150842
233784
23125.7
233331
20454.7
138619
424908
1.3163e+06
1.20574e+06
1.43101e+06
632783
439125
2.05876e+06
72917.6
133089
264613
900174
292154
806185
395695
2.09732e+06
2.11589e+06
1.27316e+06
152339
281932
1.42197e+06
748943
600660
414747
745259
682130
808993
284189
395708
2.15891e+06
507063
1.9188e+06
140210
138097
134678
139470
96326.7
1.8943e+06
155605
1.38795e+06
94219.5
1.01352e+06
1.30114e+06
155296
142064
199140
580641
209080
487101
447280
329578
357041
387037
168075
353747
476992
589886
397623
1.34583e+06
1.24059e+06
1.1363e+06
1.41805e+06
1.89746e+06
2.09459e+06
128064
126510
128565
138395
275486
162943
297164
2.10034e+06
2.14548e+06
2.1354e+06
1.64598e+06
64973.2
1.14166e+06
1.95397e+06
1.31692e+06
1.03717e+06
1.0597e+06
1.29971e+06
645077
578886
1.15484e+06
753934
1.3737e+06
105859
248075
314036
605208
249369
245255
280349
190724
219908
161324
187542
422025
425632
462244
459412
498686
499950
586567
580062
143403
141907
546907
355568
112814
208338
824514
1.37653e+06
143919
818764
1.77109e+06
543595
1.68206e+06
764427
216309
1.57876e+06
824884
693603
1.09884e+06
1.88616e+06
2.26659e+06
890998
373783
1.91034e+06
272513
201505
173130
428340
96571.2
805810
1.40193e+06
360380
548007
222948
138950
237430
2.05413e+06
364001
423509
409126
303997
870505
273448
217476
868828
191371
1.85642e+06
150843
1.09751e+06
403827
438323
1.72004e+06
1.45077e+06
875243
1.58446e+06
1.72233e+06
750134
1.86195e+06
627019
500980
1.44974e+06
1.58271e+06
1.86313e+06
1.72082e+06
502666
753287
878638
629017
1.89914e+06
190027
1.49115e+06
164556
118456
145830
8559.85
65144.1
812069
88727.1
1.43411e+06
293162
221054
549876
594672
504963
432063
278067
1.23666e+06
276726
296875
1.12378e+06
101350
436407
403708
400457
1.26507e+06
1.15915e+06
1.37487e+06
600690
520674
219325
372515
724578
1.4317e+06
75230.9
361131
216711
141216
473005
1.51924e+06
850192
732211
1.59819e+06
186390
871059
1.86391e+06
939888
1.73529e+06
158194
1.95183e+06
234809
1.30677e+06
463345
571982
141348
15046.8
150953
150606
25737.3
249701
1.34272e+06
190413
1.62947e+06
744619
268020
1.25284e+06
1.20285e+06
1.36997e+06
1.3155e+06
1.49059e+06
1.43172e+06
690375
667542
472166
457498
523844
354962
1.18886e+06
1.09698e+06
1.00475e+06
318347
373294
344342
174172
1.11164e+06
969433
96107.1
193295
145714
165935
175183
1.90088e+06
1.58375e+06
410750
1.34927e+06
1.23704e+06
1.46404e+06
126675
707615
1.28499e+06
1.33433e+06
142359
133542
1.54196e+06
494607
170740
279345
325845
302480
178264
525566
484529
447683
1.76003e+06
2.32669e+06
1.70632e+06
1.20528e+06
586727
424053
183304
199588
296669
214685
141347
127225
223466
640880
510604
138131
1.41219e+06
1.63142e+06
666204
587883
175028
169298
151293
159472
456781
1.53957e+06
1.17996e+06
907792
935574
1.11561e+06
135356
148550
222067
135184
136905
293709
2.40625e+06
1.90867e+06
148209
185322
799638
690146
480875
1.49491e+06
1.61606e+06
1.25698e+06
1.37368e+06
826821
424950
363332
394486
187102
231136
1.75946e+06
464365
1.11757e+06
86408.6
1.63357e+06
151097
633005
733771
2.40245e+06
136031
651786
161019
610216
169873
385995
1.18354e+06
536723
1.35097e+06
874971
1.47843e+06
1.60934e+06
757263
1.7433e+06
637726
519774
639523
520282
248584
756953
855717
1.11783e+06
140859
227624
1.39061e+06
605222
2.2004e+06
1.79282e+06
2.00921e+06
364179
1.56594e+06
740156
566842
277117
212465
2.14025e+06
1.11511e+06
133940
2.32943e+06
1.95647e+06
67933.7
672442
550653
86151.1
910878
723533
113305
183254
1.51713e+06
2.23785e+06
141100
777383
797757
1.61087e+06
1.56018e+06
565470
579589
566341
580581
144724
145957
145263
137048
108651
2.31302e+06
1.78921e+06
1.62255e+06
2.04641e+06
768307
407687
1.65527e+06
920912
1.0073e+06
1.09707e+06
79363.8
1.71175e+06
296496
1.2798e+06
1.83728e+06
543026
378925
2.33067e+06
614427
645152
452522
477599
1.22489e+06
1.18414e+06
211034
208744
116815
138554
398020
1.44676e+06
1.33211e+06
1.22076e+06
602915
2.30874e+06
144264
275906
127304
1.20584e+06
1.31817e+06
767440
1.4336e+06
656303
1.56517e+06
555718
1.47816e+06
1.24296e+06
1.35843e+06
1.59879e+06
446586
789980
681492
558169
136184
187389
198872
254318
472433
398757
433981
1.89442e+06
868965
1.06025e+06
1.75617e+06
208041
312906
138158
492821
685456
237682
329003
1.78308e+06
190443
133722
137509
140102
134502
88898.8
214582
162984
176283
1.52327e+06
1.80273e+06
161073
139412
175811
304675
659450
1.95514e+06
1.82008e+06
817223
143747
196636
1.54861e+06
144486
146067
2.37247e+06
911385
1.78431e+06
496069
1.20694e+06
755852
744626
209330
857532
1.2713e+06
609502
439030
176762
401957
140311
105397
126538
1.926e+06
1.11622e+06
1.13741e+06
1.88573e+06
296897
318724
167919
599292
151372
138570
150570
374938
300403
30565.1
299862
20943
138175
1.18708e+06
354551
512156
1.08729e+06
1.00003e+06
915020
186930
2.17609e+06
722946
411403
1.8628e+06
1.10066e+06
1.14613e+06
192946
18939.2
192549
19937.6
1.65253e+06
415764
682514
811276
747241
155187
1.78731e+06
411867
296943
945475
725912
133297
40794.4
1.30688e+06
269809
1.30913e+06
329670
436610
807426
896000
751610
166009
663351
273245
349823
171552
184353
631458
657962
219058
394990
141659
142845
1.05064e+06
523970
385393
152667
565402
14632.8
54744.1
564371
694567
561476
830207
985827
118679
2.17461e+06
2.26762e+06
282737
140874
155185
236369
261270
26995.6
260808
23280.1
1.13312e+06
386157
535101
2.11301e+06
2.14412e+06
1.8101e+06
1.65287e+06
969228
858700
821446
729433
1.79131e+06
257141
507369
185598
123541
137303
363719
508696
727412
2.06041e+06
2.08177e+06
261536
135515
678359
738730
250277
1.12481e+06
459347
377638
1.66292e+06
166807
154684
205101
1.09099e+06
1.09619e+06
1.16124e+06
736375
369899
515980
95921.8
96508.8
1.27611e+06
134811
1.12683e+06
145199
550277
894062
783591
1.3182e+06
1.54179e+06
143354
184031
417452
1.82899e+06
8906.1
110334
32724.1
110791
295244
273297
94694.4
2.00244e+06
35726.4
1.89842e+06
494303
47852.2
15437.5
493405
319959
160615
18478.4
160395
407068
1.77444e+06
409075
1.9746e+06
2.26262e+06
65868
641426
761696
701724
912787
436285
318273
984565
629351
109681
242672
381020
274331
677307
897548
252693
253694
2.17603e+06
773065
896774
837414
966235
1.38078e+06
130991
138190
1.15557e+06
1.40909e+06
478401
264713
304401
159572
318599
461976
147353
245770
353382
144554
100937
1.26174e+06
1.47673e+06
283172
623899
487174
498363
1.55187e+06
700986
305112
238201
599609
502402
126577
357706
1.41095e+06
1.79602e+06
474644
331949
835055
992195
912670
90273.2
137788
345717
247925
1.33857e+06
485454
110919
53471.8
81396
463495
326461
807938
959709
883076
142888
1.94742e+06
2.22129e+06
157097
154555
146648
142591
1.94339e+06
382765
285407
822453
2.40272e+06
1.93491e+06
541400
193149
502615
462707
284573
265163
303545
170751
151936
151764
409796
1.89594e+06
116531
1.03202e+06
1.11786e+06
1.78005e+06
1.28194e+06
1.25101e+06
476772
469941
640215
650377
303795
335022
290215
136531
135748
754174
245834
1.75878e+06
1.21155e+06
305878
134384
757177
2.25308e+06
132470
1.18254e+06
983449
933154
1.22149e+06
846818
362374
502214
1.12262e+06
199045
819579
354107
395179
204872
425779
251709
326665
897657
443612
192429
167252
220189
1.1425e+06
938237
208552
198696
188376
215132
140279
604998
464940
126988
441001
144216
253389
408150
2.05975e+06
1.81374e+06
1.23666e+06
355199
254523
794426
733945
673474
321534
322948
154114
1.11636e+06
155749
618598
808138
239626
216036
1.84037e+06
106649
361044
336290
164579
1.93683e+06
103570
139293
537388
634218
195183
184660
205602
149393
143807
1.23358e+06
116371
151840
18864.1
151583
1.23141e+06
1.16601e+06
2.2059e+06
1.3326e+06
1.67034e+06
144248
1.72711e+06
1.1732e+06
17064.9
123853
289253
221041
492203
535286
578916
760473
423719
1.77325e+06
1.03169e+06
1.12208e+06
181846
123603
120066
139079
152727
158388
242240
1.02717e+06
124024
2.21425e+06
544988
218477
1.14144e+06
743239
378652
526838
245105
212248
301680
456403
293439
607881
554737
219505
144893
775737
1.09486e+06
99077.5
106628
193688
114641
119151
1.67221e+06
434981
321210
932557
1.6158e+06
441958
315488
781394
666280
722839
610659
353692
256179
146341
10038
79432.7
747631
615878
876979
1.83754e+06
1.55342e+06
1.69382e+06
616030
745734
1.84282e+06
1.69786e+06
875671
1.55726e+06
205213
412004
342464
342220
132161
229872
203378
602680
290074
225647
274397
483070
1.34385e+06
663607
147044
240989
135788
148746
258893
400828
131504
135190
140015
973104
360002
478530
322817
422308
875696
744891
901045
721988
1.22539e+06
369870
211324
301461
777222
586759
277262
377971
539773
146090
305470
184045
177815
627659
630062
222790
791690
239654
258171
1.40444e+06
1.17488e+06
132780
154820
1.86336e+06
110347
188669
118323
236097
291912
954886
875948
798113
522903
529514
942192
215296
153162
142267
1.24779e+06