/*--------------------------------*- C++ -*----------------------------------*\
| =========                 |                                                 |
| \\      /  F ield         | OpenFOAM: The Open Source CFD Toolbox           |
|  \\    /   O peration     | Version:  2.4.0                                 |
|   \\  /    A nd           | Web:      www.OpenFOAM.org                      |
|    \\/     M anipulation  |                                                 |
\*---------------------------------------------------------------------------*/
FoamFile
{
    version     2.0;
    format      ascii;
    class       volScalarField;
    location    "0.2";
    object      p;
}
// * * * * * * * * * * * * * * * * * * * * * * * * * * * * * * * * * * * * * //

dimensions      [0 2 -2 0 0 0 0];

internalField   nonuniform List<scalar> 
121060
(
-85.2164
-90.2034
-92.9178
-95.2749
-97.4129
-99.3738
-101.303
-102.998
-104.402
-105.353
-106.186
-106.816
-90.0156
-92.1821
-93.445
-95.1973
-96.9428
-98.6472
-100.327
-101.891
-103.272
-104.249
-105.107
-105.765
-95.2545
-95.8844
-96.15
-97.14
-98.2241
-99.4196
-100.664
-101.839
-102.924
-103.782
-104.532
-105.09
-98.3388
-98.5662
-98.6095
-99.2141
-99.8522
-100.639
-101.497
-102.326
-103.114
-103.757
-104.327
-104.756
-100.392
-100.483
-100.513
-100.94
-101.335
-101.868
-102.452
-103.022
-103.574
-104.024
-104.425
-104.737
-102.277
-102.238
-102.223
-102.501
-102.732
-103.083
-103.462
-103.836
-104.201
-104.488
-104.737
-104.9
-104.131
-103.981
-103.905
-104.04
-104.13
-104.326
-104.536
-104.745
-104.946
-105.089
-105.206
-105.26
-105.911
-105.663
-105.543
-105.559
-105.532
-105.594
-105.656
-105.719
-105.777
-105.791
-105.788
-105.728
-107.531
-107.24
-107.094
-107.018
-106.9
-106.851
-106.789
-106.729
-106.662
-106.562
-106.452
-106.298
-109.063
-108.726
-108.558
-108.413
-108.223
-108.081
-107.918
-107.751
-107.576
-107.377
-107.169
-106.924
-110.52
-110.14
-109.947
-109.736
-109.489
-109.271
-109.026
-108.77
-108.505
-108.219
-107.93
-107.607
-111.875
-111.48
-111.273
-111.012
-110.716
-110.433
-110.11
-109.779
-109.437
-109.075
-108.711
-108.318
-113.194
-112.769
-112.544
-112.235
-111.896
-111.553
-111.171
-110.776
-110.365
-109.939
-109.512
-109.061
-114.469
-114.011
-113.764
-113.412
-113.035
-112.641
-112.207
-111.755
-111.285
-110.801
-110.313
-109.804
-115.662
-115.186
-114.923
-114.539
-114.133
-113.698
-113.218
-112.715
-112.192
-111.657
-111.116
-110.531
-116.78
-116.309
-116.04
-115.626
-115.192
-114.718
-114.196
-113.652
-113.087
-112.509
-111.935
-111.308
-117.914
-117.403
-117.113
-116.674
-116.215
-115.708
-115.152
-114.57
-113.964
-113.346
-112.737
-112.072
-118.943
-118.444
-118.151
-117.689
-117.21
-116.671
-116.084
-115.466
-114.824
-114.167
-113.524
-112.835
-120.008
-119.465
-119.154
-118.667
-118.168
-117.602
-116.986
-116.337
-115.664
-114.974
-114.293
-113.582
-120.959
-120.436
-120.121
-119.617
-119.097
-118.506
-117.866
-117.19
-116.489
-115.77
-115.062
-114.327
-121.93
-121.385
-121.055
-120.535
-120.001
-119.388
-118.724
-118.021
-117.295
-116.551
-115.813
-115.058
-122.884
-122.313
-121.969
-121.427
-120.876
-120.242
-119.559
-118.834
-118.085
-117.319
-116.558
-115.783
-123.769
-123.196
-122.848
-122.294
-121.73
-121.076
-120.373
-119.626
-118.857
-118.069
-117.282
-116.482
-124.645
-124.054
-123.7
-123.13
-122.553
-121.883
-121.164
-120.401
-119.613
-118.808
-118.007
-117.189
-125.456
-124.878
-124.519
-123.939
-123.35
-122.665
-121.932
-121.153
-120.349
-119.528
-118.709
-117.881
-126.291
-125.685
-125.315
-124.725
-124.128
-123.43
-122.683
-121.887
-121.068
-120.233
-119.401
-118.56
-127.066
-126.465
-126.094
-125.494
-124.883
-124.171
-123.413
-122.602
-121.768
-120.915
-120.062
-119.208
-127.843
-127.228
-126.852
-126.239
-125.619
-124.895
-124.124
-123.299
-122.451
-121.582
-120.708
-119.821
-128.573
-127.966
-127.584
-126.963
-126.336
-125.602
-124.819
-123.982
-123.121
-122.243
-121.365
-120.48
-129.338
-128.698
-128.305
-127.67
-127.035
-126.286
-125.492
-124.645
-123.774
-122.887
-122
-121.113
-130.055
-129.401
-129.001
-128.357
-127.711
-126.953
-126.151
-125.292
-124.411
-123.511
-122.608
-121.693
-130.692
-130.06
-129.664
-129.018
-128.365
-127.601
-126.789
-125.921
-125.03
-124.121
-123.214
-122.297
-131.344
-130.708
-130.311
-129.659
-129.002
-128.231
-127.41
-126.533
-125.632
-124.713
-123.794
-122.876
-132.042
-131.366
-130.956
-130.29
-129.624
-128.842
-128.013
-127.128
-126.217
-125.287
-124.353
-123.403
-132.62
-131.977
-131.57
-130.9
-130.229
-129.439
-128.602
-127.707
-126.789
-125.852
-124.913
-123.95
-133.281
-132.588
-132.169
-131.492
-130.812
-130.014
-129.173
-128.272
-127.348
-126.406
-125.471
-124.523
-133.837
-133.165
-132.747
-132.063
-131.379
-130.578
-129.728
-128.819
-127.889
-126.939
-125.992
-125.033
-134.394
-133.719
-133.303
-132.615
-131.928
-131.12
-130.265
-129.351
-128.414
-127.456
-126.502
-125.539
-134.934
-134.252
-133.844
-133.152
-132.461
-131.646
-130.786
-129.865
-128.921
-127.956
-126.992
-126.022
-135.478
-134.791
-134.368
-133.669
-132.973
-132.156
-131.291
-130.364
-129.414
-128.444
-127.477
-126.509
-135.977
-135.306
-134.882
-134.177
-133.477
-132.653
-131.78
-130.847
-129.892
-128.915
-127.937
-126.958
-136.528
-135.807
-135.381
-134.671
-133.965
-133.133
-132.256
-131.317
-130.356
-129.374
-128.393
-127.408
-137.023
-136.306
-135.871
-135.148
-134.436
-133.597
-132.715
-131.771
-130.805
-129.817
-128.828
-127.835
-137.464
-136.758
-136.316
-135.597
-134.883
-134.041
-133.157
-132.209
-131.238
-130.246
-129.257
-128.263
-137.877
-137.169
-136.751
-136.03
-135.315
-134.473
-133.585
-132.631
-131.656
-130.659
-129.661
-128.644
-138.293
-137.6
-137.175
-136.449
-135.733
-134.887
-133.994
-133.038
-132.06
-131.062
-130.072
-129.067
-138.766
-138.037
-137.594
-136.859
-136.137
-135.287
-134.391
-133.431
-132.449
-131.445
-130.445
-129.452
-139.148
-138.419
-137.988
-137.249
-136.524
-135.671
-134.772
-133.808
-132.824
-131.815
-130.805
-129.836
-139.515
-138.787
-138.351
-137.615
-136.892
-136.035
-135.135
-134.169
-133.183
-132.175
-131.159
-130.175
-139.85
-139.139
-138.714
-137.974
-137.246
-136.387
-135.484
-134.515
-133.527
-132.52
-131.505
-130.524
-140.22
-139.491
-139.062
-138.314
-137.584
-136.723
-135.817
-134.846
-133.853
-132.842
-131.819
-130.818
-140.571
-139.826
-139.395
-138.639
-137.908
-137.043
-136.133
-135.158
-134.16
-133.147
-132.123
-131.112
-140.86
-140.138
-139.701
-138.944
-138.213
-137.344
-136.432
-135.453
-134.451
-133.433
-132.406
-131.401
-141.195
-140.434
-139.996
-139.235
-138.502
-137.629
-136.715
-135.734
-134.728
-133.704
-132.665
-131.623
-141.401
-140.692
-140.271
-139.509
-138.776
-137.902
-136.986
-136.001
-134.991
-133.964
-132.928
-131.88
-141.721
-140.97
-140.528
-139.764
-139.03
-138.157
-137.24
-136.254
-135.244
-134.217
-133.184
-132.121
-141.948
-141.211
-140.783
-140.007
-139.275
-138.398
-137.479
-136.493
-135.484
-134.459
-133.442
-132.395
-142.185
-141.432
-141.011
-140.234
-139.502
-138.622
-137.704
-136.718
-135.708
-134.679
-133.662
-132.608
-142.404
-141.649
-141.222
-140.438
-139.709
-138.826
-137.907
-136.92
-135.91
-134.876
-133.857
-132.81
-142.573
-141.838
-141.411
-140.622
-139.895
-139.014
-138.097
-137.108
-136.097
-135.06
-134.035
-132.997
-142.794
-142.019
-141.592
-140.795
-140.073
-139.184
-138.268
-137.278
-136.269
-135.232
-134.209
-133.189
-142.896
-142.158
-141.738
-140.956
-140.233
-139.343
-138.426
-137.433
-136.423
-135.385
-134.354
-133.327
-142.997
-142.283
-141.861
-141.082
-140.364
-139.477
-138.567
-137.574
-136.565
-135.527
-134.495
-133.476
-143.171
-142.432
-141.987
-141.214
-140.485
-139.601
-138.688
-137.697
-136.688
-135.653
-134.618
-133.597
-143.326
-142.543
-142.105
-141.333
-140.595
-139.713
-138.795
-137.802
-136.794
-135.762
-134.732
-133.72
-143.33
-142.62
-142.185
-141.409
-140.68
-139.802
-138.884
-137.891
-136.882
-135.848
-134.814
-133.795
-143.444
-142.698
-142.241
-141.489
-140.749
-139.87
-138.954
-137.962
-136.951
-135.916
-134.875
-133.835
-143.473
-142.748
-142.293
-141.541
-140.799
-139.923
-139.006
-138.015
-137.005
-135.972
-134.94
-133.917
-143.515
-142.777
-142.332
-141.574
-140.831
-139.957
-139.04
-138.052
-137.042
-136.009
-134.975
-133.947
-143.538
-142.795
-142.339
-141.584
-140.842
-139.972
-139.056
-138.069
-137.06
-136.031
-135.001
-133.987
-143.522
-142.784
-142.326
-141.581
-140.839
-139.97
-139.056
-138.072
-137.064
-136.034
-134.999
-133.979
-143.449
-142.745
-142.293
-141.549
-140.812
-139.948
-139.037
-138.054
-137.048
-136.022
-134.993
-133.988
-143.417
-142.701
-142.251
-141.51
-140.771
-139.908
-138.998
-138.019
-137.015
-135.989
-134.957
-133.947
-143.368
-142.655
-142.187
-141.449
-140.713
-139.854
-138.944
-137.967
-136.963
-135.939
-134.908
-133.899
-143.264
-142.556
-142.105
-141.369
-140.631
-139.775
-138.87
-137.895
-136.892
-135.87
-134.836
-133.817
-143.205
-142.462
-142.008
-141.272
-140.538
-139.684
-138.779
-137.807
-136.806
-135.787
-134.757
-133.734
-143.026
-142.331
-141.886
-141.154
-140.422
-139.573
-138.671
-137.704
-136.705
-135.69
-134.671
-133.674
-142.86
-142.197
-141.741
-141.016
-140.287
-139.442
-138.544
-137.58
-136.585
-135.571
-134.545
-133.532
-142.777
-142.044
-141.59
-140.868
-140.141
-139.298
-138.402
-137.44
-136.447
-135.437
-134.419
-133.427
-142.566
-141.87
-141.417
-140.693
-139.966
-139.127
-138.235
-137.279
-136.291
-135.285
-134.267
-133.266
-142.371
-141.678
-141.224
-140.505
-139.781
-138.946
-138.058
-137.106
-136.121
-135.12
-134.111
-133.133
-142.162
-141.463
-141.009
-140.294
-139.57
-138.737
-137.853
-136.907
-135.927
-134.931
-133.922
-132.936
-141.911
-141.214
-140.762
-140.052
-139.337
-138.51
-137.628
-136.687
-135.711
-134.72
-133.716
-132.742
-141.612
-140.938
-140.495
-139.79
-139.079
-138.261
-137.386
-136.449
-135.476
-134.489
-133.484
-132.513
-141.359
-140.656
-140.215
-139.516
-138.805
-137.99
-137.122
-136.19
-135.223
-134.239
-133.233
-132.25
-140.983
-140.343
-139.906
-139.213
-138.509
-137.699
-136.836
-135.912
-134.951
-133.978
-132.992
-132.053
-140.717
-140.034
-139.589
-138.896
-138.197
-137.393
-136.534
-135.616
-134.662
-133.693
-132.704
-131.745
-140.372
-139.676
-139.242
-138.554
-137.857
-137.06
-136.209
-135.298
-134.347
-133.385
-132.404
-131.46
-139.942
-139.3
-138.867
-138.189
-137.5
-136.707
-135.86
-134.956
-134.013
-133.055
-132.073
-131.118
-139.553
-138.902
-138.47
-137.798
-137.116
-136.334
-135.496
-134.598
-133.658
-132.707
-131.731
-130.778
-139.145
-138.483
-138.057
-137.392
-136.714
-135.938
-135.108
-134.22
-133.29
-132.347
-131.381
-130.429
-138.674
-138.052
-137.628
-136.968
-136.294
-135.524
-134.701
-133.821
-132.902
-131.972
-131.03
-130.135
-138.235
-137.605
-137.179
-136.523
-135.854
-135.09
-134.273
-133.401
-132.49
-131.569
-130.628
-129.734
-137.772
-137.124
-136.699
-136.048
-135.385
-134.63
-133.821
-132.957
-132.052
-131.137
-130.198
-129.317
-137.263
-136.619
-136.196
-135.55
-134.892
-134.144
-133.344
-132.488
-131.591
-130.679
-129.729
-128.797
-136.71
-136.072
-135.663
-135.027
-134.376
-133.634
-132.841
-131.994
-131.108
-130.212
-129.293
-128.444
-136.104
-135.507
-135.101
-134.472
-133.83
-133.101
-132.319
-131.484
-130.607
-129.722
-128.807
-127.937
-135.531
-134.922
-134.52
-133.898
-133.263
-132.541
-131.769
-130.945
-130.079
-129.204
-128.301
-127.449
-134.934
-134.321
-133.916
-133.303
-132.674
-131.96
-131.198
-130.383
-129.526
-128.659
-127.76
-126.895
-134.288
-133.686
-133.287
-132.679
-132.059
-131.354
-130.599
-129.795
-128.948
-128.092
-127.206
-126.351
-133.583
-133.009
-132.62
-132.024
-131.415
-130.723
-129.979
-129.186
-128.351
-127.505
-126.629
-125.779
-132.904
-132.325
-131.937
-131.348
-130.746
-130.064
-129.333
-128.553
-127.73
-126.896
-126.032
-125.181
-132.201
-131.619
-131.233
-130.652
-130.057
-129.386
-128.667
-127.9
-127.092
-126.274
-125.437
-124.64
-131.446
-130.871
-130.492
-129.921
-129.336
-128.677
-127.97
-127.219
-126.427
-125.623
-124.794
-123.993
-130.634
-130.092
-129.725
-129.165
-128.592
-127.945
-127.252
-126.514
-125.736
-124.947
-124.135
-123.364
-129.841
-129.294
-128.929
-128.379
-127.816
-127.183
-126.503
-125.779
-125.017
-124.243
-123.44
-122.666
-129.019
-128.471
-128.109
-127.57
-127.017
-126.395
-125.73
-125.023
-124.277
-123.518
-122.733
-121.968
-128.14
-127.618
-127.263
-126.733
-126.191
-125.582
-124.93
-124.239
-123.51
-122.771
-122.009
-121.262
-127.278
-126.736
-126.382
-125.863
-125.333
-124.739
-124.105
-123.431
-122.721
-122.001
-121.262
-120.542
-126.315
-125.809
-125.469
-124.959
-124.442
-123.863
-123.246
-122.592
-121.903
-121.204
-120.489
-119.814
-125.337
-124.852
-124.524
-124.033
-123.528
-122.965
-122.364
-121.728
-121.059
-120.378
-119.672
-118.991
-124.397
-123.889
-123.554
-123.069
-122.578
-122.031
-121.45
-120.832
-120.185
-119.526
-118.848
-118.213
-123.353
-122.869
-122.55
-122.08
-121.603
-121.071
-120.507
-119.91
-119.282
-118.645
-117.984
-117.351
-122.299
-121.824
-121.511
-121.052
-120.588
-120.075
-119.531
-118.958
-118.355
-117.742
-117.104
-116.481
-121.206
-120.738
-120.432
-119.993
-119.546
-119.054
-118.53
-117.978
-117.401
-116.816
-116.213
-115.636
-120.059
-119.619
-119.326
-118.901
-118.471
-118
-117.5
-116.972
-116.421
-115.864
-115.291
-114.755
-118.909
-118.468
-118.181
-117.77
-117.358
-116.907
-116.434
-115.937
-115.416
-114.887
-114.335
-113.804
-117.722
-117.29
-117.011
-116.615
-116.22
-115.789
-115.338
-114.867
-114.377
-113.884
-113.376
-112.917
-116.47
-116.063
-115.798
-115.421
-115.047
-114.641
-114.217
-113.777
-113.319
-112.857
-112.377
-111.926
-115.21
-114.807
-114.548
-114.187
-113.833
-113.455
-113.06
-112.652
-112.232
-111.808
-111.367
-110.969
-113.909
-113.511
-113.262
-112.921
-112.589
-112.237
-111.876
-111.503
-111.121
-110.738
-110.334
-109.952
-112.553
-112.167
-111.931
-111.61
-111.304
-110.983
-110.655
-110.322
-109.983
-109.653
-109.319
-109.08
-111.134
-110.775
-110.558
-110.262
-109.982
-109.694
-109.405
-109.115
-108.821
-108.534
-108.229
-107.992
-109.7
-109.354
-109.148
-108.877
-108.626
-108.372
-108.122
-107.876
-107.63
-107.39
-107.122
-106.905
-108.212
-107.883
-107.693
-107.448
-107.233
-107.022
-106.818
-106.623
-106.429
-106.248
-106.045
-105.859
-106.704
-106.374
-106.198
-105.982
-105.8
-105.634
-105.484
-105.347
-105.22
-105.107
-104.991
-104.906
-105.097
-104.807
-104.655
-104.474
-104.336
-104.221
-104.13
-104.057
-104
-103.963
-103.924
-103.917
-103.482
-103.193
-103.063
-102.923
-102.836
-102.782
-102.76
-102.763
-102.78
-102.814
-102.838
-102.87
-101.78
-101.517
-101.415
-101.325
-101.303
-101.325
-101.385
-101.473
-101.577
-101.696
-101.809
-101.947
-100.02
-99.7795
-99.7178
-99.692
-99.7495
-99.8628
-100.021
-100.212
-100.417
-100.633
-100.838
-101.058
-98.1798
-97.9677
-97.9621
-98.0246
-98.1885
-98.4177
-98.6955
-99.0028
-99.3232
-99.6449
-99.9457
-100.256
-96.2219
-96.0633
-96.1472
-96.3379
-96.6459
-97.026
-97.4495
-97.8936
-98.3413
-98.7793
-99.1796
-99.5828
-94.1377
-94.0569
-94.2893
-94.6783
-95.1878
-95.7562
-96.3485
-96.9416
-97.5217
-98.0813
-98.5949
-99.1089
-91.8631
-91.9555
-92.4625
-93.1553
-93.9309
-94.7186
-95.4894
-96.23
-96.9332
-97.6041
-98.2004
-98.7201
-89.1666
-89.9194
-90.9745
-92.1153
-93.1818
-94.1619
-95.0764
-95.9309
-96.7109
-97.5045
-98.1655
-98.74
-18.704
-22.5839
-24.5587
-26.1326
-27.6441
-29.1454
-30.3276
-31.3219
-32.2341
-32.8949
-33.4188
-33.7418
-22.5382
-24.2585
-25.1522
-26.3967
-27.7108
-29.0162
-30.095
-31.0653
-31.9463
-32.6016
-33.1156
-33.4195
-26.7474
-27.2573
-27.4371
-28.1828
-29.0304
-29.9415
-30.7708
-31.5582
-32.2406
-32.7632
-33.1808
-33.4422
-29.439
-29.6397
-29.6648
-30.1361
-30.6418
-31.2325
-31.8007
-32.361
-32.8468
-33.2267
-33.5332
-33.7215
-31.4185
-31.5062
-31.5258
-31.8636
-32.1786
-32.568
-32.9443
-33.3215
-33.6475
-33.9016
-34.0955
-34.1947
-33.3089
-33.2827
-33.2708
-33.4938
-33.6768
-33.926
-34.1609
-34.3969
-34.5932
-34.7398
-34.8404
-34.8491
-35.2151
-35.0841
-35.0277
-35.1389
-35.2082
-35.3378
-35.4528
-35.569
-35.6527
-35.7004
-35.7141
-35.6519
-37.0882
-36.876
-36.7856
-36.8011
-36.7742
-36.7991
-36.808
-36.8179
-36.8008
-36.757
-36.6889
-36.5533
-38.9068
-38.6334
-38.5186
-38.4559
-38.3524
-38.2891
-38.2065
-38.1241
-38.0182
-37.8904
-37.742
-37.5488
-40.6791
-40.3592
-40.2246
-40.0964
-39.9312
-39.7943
-39.6349
-39.4736
-39.2912
-39.0918
-38.8743
-38.6079
-42.4208
-42.0654
-41.9126
-41.7279
-41.5118
-41.312
-41.0872
-40.8585
-40.6107
-40.3508
-40.0862
-39.7883
-44.1499
-43.7634
-43.5914
-43.3572
-43.0976
-42.8428
-42.5613
-42.2736
-41.967
-41.6474
-41.3261
-40.9975
-45.8648
-45.4564
-45.2661
-44.9887
-44.6912
-44.388
-44.0566
-43.7164
-43.3568
-42.9804
-42.5823
-42.1767
-47.5855
-47.1527
-46.9428
-46.6266
-46.2956
-45.9495
-45.5747
-45.1892
-44.7861
-44.3731
-43.9453
-43.5005
-49.3054
-48.853
-48.6248
-48.2744
-47.9137
-47.5295
-47.1169
-46.6919
-46.2505
-45.8028
-45.3438
-44.8332
-51.0301
-50.5615
-50.3159
-49.935
-49.5477
-49.1291
-48.6826
-48.2221
-47.745
-47.2624
-46.781
-46.2713
-52.773
-52.2847
-52.021
-51.6118
-51.1997
-50.7496
-50.2722
-49.7791
-49.2688
-48.7504
-48.2288
-47.6926
-54.5262
-54.0227
-53.7426
-53.3077
-52.8728
-52.3936
-51.8879
-51.3645
-50.8241
-50.2754
-49.7253
-49.1541
-56.3033
-55.7809
-55.4839
-55.0252
-54.5689
-54.0632
-53.5318
-52.9809
-52.4128
-51.8329
-51.2332
-50.5972
-58.0976
-57.5601
-57.248
-56.7674
-56.2909
-55.7612
-55.207
-54.6324
-54.0424
-53.4477
-52.847
-52.1893
-59.9208
-59.3641
-59.0365
-58.535
-58.0401
-57.4888
-56.9145
-56.3192
-55.7089
-55.0937
-54.46
-53.7142
-61.7663
-61.193
-60.8512
-60.3302
-59.8183
-59.247
-58.6546
-58.0408
-57.4132
-56.7876
-56.1865
-55.4447
-63.6382
-63.0484
-62.6932
-62.154
-61.6257
-61.0357
-60.4265
-59.7963
-59.1517
-58.5008
-57.8908
-57.2623
-65.5398
-64.9323
-64.5636
-64.0064
-63.4625
-62.8551
-62.2301
-61.5841
-60.9258
-60.2531
-59.6
-59.0167
-67.4716
-66.8447
-66.4629
-65.8885
-65.3298
-64.706
-64.0657
-63.4045
-62.7344
-62.0523
-61.3756
-60.7195
-69.4281
-68.7844
-68.3912
-67.8004
-67.2276
-66.5885
-65.9344
-65.2581
-64.5738
-63.8762
-63.1597
-62.4522
-71.4127
-70.7527
-70.3483
-69.7421
-69.1564
-68.5035
-67.8372
-67.1487
-66.4536
-65.7531
-65.0365
-64.2716
-73.4298
-72.7511
-72.3352
-71.7138
-71.116
-70.4509
-69.775
-69.0776
-68.375
-67.673
-66.9706
-66.18
-75.4768
-74.7775
-74.35
-73.7141
-73.1054
-72.4293
-71.7455
-71.0417
-70.3338
-69.6274
-68.9374
-68.2063
-77.544
-76.8275
-76.3904
-75.7407
-75.1221
-74.4363
-73.7457
-73.0366
-72.325
-71.6131
-70.9148
-70.1671
-79.6374
-78.9009
-78.454
-77.7913
-77.1635
-76.469
-75.7726
-75.0592
-74.3457
-73.6328
-72.9402
-72.2118
-81.7458
-80.9931
-80.538
-79.863
-79.2269
-78.5249
-77.8237
-77.1073
-76.3931
-75.6795
-74.9849
-74.2641
-83.8766
-83.1034
-82.6394
-81.9526
-81.3093
-80.6008
-79.896
-79.1778
-78.4646
-77.7538
-77.0612
-76.3426
-86.0148
-85.2259
-84.755
-84.0569
-83.4067
-82.6927
-81.9857
-81.2671
-80.5563
-79.8499
-79.1603
-78.4382
-88.165
-87.3585
-86.88
-86.171
-85.5153
-84.7967
-84.0888
-83.3714
-82.6645
-81.9653
-81.2901
-80.5685
-90.3259
-89.4977
-89.011
-88.2913
-87.6303
-86.9081
-86.2005
-85.4856
-84.7841
-84.0912
-83.4251
-82.7278
-92.4824
-91.6344
-91.1411
-90.4114
-89.7461
-89.0211
-88.3148
-87.6041
-86.9103
-86.2288
-85.5799
-84.8839
-94.6241
-93.761
-93.2631
-92.5243
-91.8557
-91.129
-90.4252
-89.7199
-89.0354
-88.3666
-87.7455
-87.1534
-96.7568
-95.8749
-95.3718
-94.6243
-93.9531
-93.2253
-92.5244
-91.824
-91.1463
-90.479
-89.8159
-89.0814
-98.8665
-97.9685
-97.4608
-96.7048
-96.0316
-95.3033
-94.6062
-93.9125
-93.2466
-92.6059
-92.0018
-91.2967
-100.953
-100.035
-99.5227
-98.7586
-98.0836
-97.3555
-96.6638
-95.9793
-95.3274
-94.7068
-94.1495
-93.5025
-103.002
-102.067
-101.55
-100.778
-100.101
-99.373
-98.6859
-98.0093
-97.367
-96.7522
-96.2011
-95.5416
-105.003
-104.053
-103.534
-102.754
-102.076
-101.347
-100.663
-99.9926
-99.3597
-98.755
-98.2326
-97.6572
-106.959
-105.991
-105.469
-104.68
-104
-103.27
-102.589
-101.923
-101.3
-100.704
-100.193
-99.6762
-108.854
-107.872
-107.346
-106.549
-105.866
-105.134
-104.455
-103.792
-103.175
-102.583
-102.063
-101.543
-110.693
-109.689
-109.16
-108.354
-107.668
-106.933
-106.255
-105.594
-104.982
-104.393
-103.856
-103.285
-112.443
-111.432
-110.903
-110.088
-109.399
-108.661
-107.984
-107.326
-106.722
-106.155
-105.663
-105.121
-114.136
-113.103
-112.57
-111.745
-111.053
-110.311
-109.634
-108.978
-108.38
-107.824
-107.358
-106.817
-115.733
-114.689
-114.155
-113.32
-112.623
-111.876
-111.196
-110.537
-109.937
-109.375
-108.908
-108.366
-117.247
-116.189
-115.654
-114.808
-114.105
-113.349
-112.664
-111.999
-111.393
-110.82
-110.348
-109.845
-118.682
-117.602
-117.064
-116.205
-115.495
-114.729
-114.036
-113.362
-112.75
-112.168
-111.684
-111.177
-120.006
-118.918
-118.38
-117.508
-116.791
-116.014
-115.311
-114.627
-114.006
-113.414
-112.918
-112.426
-121.242
-120.137
-119.602
-118.717
-117.991
-117.201
-116.487
-115.79
-115.159
-114.554
-114.04
-113.52
-122.391
-121.267
-120.732
-119.83
-119.095
-118.291
-117.565
-116.852
-116.205
-115.585
-115.052
-114.533
-123.43
-122.296
-121.767
-120.848
-120.104
-119.284
-118.543
-117.812
-117.149
-116.51
-115.955
-115.412
-124.366
-123.239
-122.709
-121.771
-121.018
-120.181
-119.424
-118.674
-117.99
-117.329
-116.745
-116.183
-125.225
-124.093
-123.562
-122.603
-121.84
-120.984
-120.21
-119.439
-118.734
-118.05
-117.439
-116.849
-125.996
-124.853
-124.329
-123.344
-122.572
-121.697
-120.906
-120.113
-119.385
-118.676
-118.034
-117.423
-126.676
-125.527
-125.007
-123.994
-123.219
-122.323
-121.514
-120.7
-119.949
-119.216
-118.548
-117.91
-127.283
-126.129
-125.597
-124.555
-123.785
-122.866
-122.041
-121.203
-120.428
-119.669
-118.967
-118.304
-127.807
-126.65
-126.101
-125.046
-124.281
-123.331
-122.49
-121.629
-120.829
-120.043
-119.308
-118.611
-128.244
-127.095
-126.523
-125.478
-124.704
-123.717
-122.868
-121.982
-121.159
-120.347
-119.581
-118.85
-128.618
-127.476
-126.873
-125.859
-125.035
-124.037
-123.185
-122.269
-121.425
-120.588
-119.795
-119.039
-128.919
-127.79
-127.168
-126.159
-125.307
-124.316
-123.431
-122.492
-121.633
-120.769
-119.945
-119.16
-129.16
-128.042
-127.41
-126.399
-125.528
-124.531
-123.622
-122.67
-121.783
-120.898
-120.046
-119.225
-129.356
-128.239
-127.598
-126.583
-125.698
-124.69
-123.764
-122.796
-121.889
-120.985
-120.116
-119.292
-129.495
-128.383
-127.736
-126.716
-125.819
-124.801
-123.859
-122.876
-121.951
-121.027
-120.131
-119.275
-129.58
-128.475
-127.825
-126.803
-125.896
-124.869
-123.913
-122.915
-121.973
-121.031
-120.115
-119.243
-129.626
-128.524
-127.872
-126.847
-125.931
-124.896
-123.927
-122.917
-121.958
-121
-120.064
-119.166
-129.626
-128.534
-127.88
-126.854
-125.93
-124.888
-123.907
-122.885
-121.912
-120.939
-119.985
-119.063
-129.61
-128.51
-127.853
-126.826
-125.896
-124.848
-123.857
-122.825
-121.839
-120.852
-119.884
-118.942
-129.54
-128.451
-127.796
-126.767
-125.831
-124.778
-123.779
-122.738
-121.742
-120.744
-119.764
-118.8
-129.452
-128.363
-127.708
-126.679
-125.739
-124.682
-123.675
-122.629
-121.624
-120.62
-119.638
-118.687
-129.332
-128.248
-127.593
-126.565
-125.621
-124.562
-123.549
-122.497
-121.486
-120.474
-119.484
-118.537
-129.188
-128.107
-127.453
-126.426
-125.48
-124.419
-123.4
-122.344
-121.325
-120.305
-119.297
-118.336
-129.009
-127.941
-127.289
-126.264
-125.316
-124.254
-123.232
-122.172
-121.147
-120.122
-119.105
-118.111
-128.824
-127.754
-127.104
-126.081
-125.133
-124.07
-123.045
-121.983
-120.954
-119.927
-118.915
-117.934
-128.61
-127.548
-126.899
-125.879
-124.93
-123.869
-122.841
-121.779
-120.748
-119.718
-118.699
-117.705
-128.375
-127.32
-126.674
-125.658
-124.71
-123.65
-122.622
-121.559
-120.527
-119.497
-118.482
-117.501
-128.124
-127.074
-126.431
-125.418
-124.472
-123.414
-122.386
-121.325
-120.292
-119.262
-118.242
-117.248
-127.855
-126.81
-126.169
-125.161
-124.216
-123.162
-122.134
-121.075
-120.044
-119.017
-118.005
-117.038
-127.557
-126.524
-125.888
-124.886
-123.944
-122.893
-121.867
-120.81
-119.78
-118.754
-117.735
-116.749
-127.249
-126.223
-125.59
-124.593
-123.655
-122.608
-121.583
-120.529
-119.5
-118.477
-117.466
-116.499
-126.927
-125.908
-125.277
-124.285
-123.35
-122.306
-121.285
-120.234
-119.206
-118.184
-117.167
-116.184
-126.588
-125.573
-124.946
-123.96
-123.028
-121.99
-120.971
-119.923
-118.898
-117.88
-116.867
-115.887
-126.227
-125.221
-124.598
-123.618
-122.691
-121.657
-120.642
-119.599
-118.578
-117.565
-116.558
-115.578
-125.845
-124.849
-124.231
-123.258
-122.336
-121.308
-120.297
-119.26
-118.244
-117.238
-116.242
-115.274
-125.454
-124.463
-123.847
-122.882
-121.964
-120.943
-119.937
-118.906
-117.895
-116.894
-115.906
-114.957
-125.035
-124.054
-123.444
-122.486
-121.575
-120.56
-119.558
-118.533
-117.526
-116.528
-115.537
-114.569
-124.597
-123.629
-123.024
-122.073
-121.167
-120.159
-119.163
-118.144
-117.142
-116.149
-115.164
-114.192
-124.151
-123.187
-122.585
-121.642
-120.742
-119.741
-118.751
-117.738
-116.743
-115.758
-114.789
-113.844
-123.684
-122.724
-122.127
-121.192
-120.298
-119.305
-118.321
-117.316
-116.327
-115.349
-114.385
-113.44
-123.186
-122.24
-121.648
-120.721
-119.834
-118.85
-117.872
-116.875
-115.893
-114.92
-113.958
-113.003
-122.674
-121.735
-121.147
-120.23
-119.35
-118.374
-117.404
-116.415
-115.442
-114.479
-113.536
-112.615
-122.132
-121.205
-120.625
-119.717
-118.845
-117.878
-116.916
-115.936
-114.971
-114.017
-113.08
-112.162
-121.57
-120.655
-120.08
-119.182
-118.319
-117.361
-116.408
-115.436
-114.48
-113.534
-112.606
-111.713
-120.995
-120.089
-119.517
-118.626
-117.77
-116.822
-115.877
-114.913
-113.966
-113.027
-112.1
-111.202
-120.403
-119.494
-118.927
-118.046
-117.199
-116.26
-115.323
-114.369
-113.431
-112.502
-111.585
-110.704
-119.762
-118.87
-118.311
-117.441
-116.603
-115.674
-114.748
-113.804
-112.876
-111.96
-111.052
-110.178
-119.093
-118.22
-117.669
-116.809
-115.981
-115.064
-114.148
-113.216
-112.3
-111.397
-110.51
-109.684
-118.422
-117.546
-116.999
-116.151
-115.334
-114.428
-113.524
-112.603
-111.696
-110.803
-109.913
-109.062
-117.704
-116.845
-116.305
-115.468
-114.66
-113.766
-112.873
-111.964
-111.068
-110.187
-109.312
-108.494
-116.953
-116.109
-115.578
-114.755
-113.957
-113.077
-112.195
-111.299
-110.416
-109.549
-108.683
-107.86
-116.187
-115.35
-114.825
-114.013
-113.228
-112.36
-111.491
-110.609
-109.739
-108.889
-108.045
-107.264
-115.384
-114.56
-114.041
-113.241
-112.467
-111.613
-110.759
-109.89
-109.034
-108.197
-107.36
-106.571
-114.555
-113.739
-113.227
-112.439
-111.677
-110.837
-109.995
-109.142
-108.299
-107.478
-106.66
-105.892
-113.678
-112.878
-112.377
-111.604
-110.854
-110.029
-109.202
-108.364
-107.536
-106.729
-105.923
-105.143
-112.785
-111.99
-111.493
-110.732
-109.997
-109.188
-108.377
-107.555
-106.743
-105.952
-105.17
-104.424
-111.847
-111.06
-110.573
-109.827
-109.105
-108.313
-107.519
-106.715
-105.921
-105.147
-104.38
-103.641
-110.846
-110.087
-109.613
-108.883
-108.178
-107.404
-106.627
-105.843
-105.068
-104.313
-103.569
-102.859
-109.825
-109.081
-108.616
-107.902
-107.214
-106.459
-105.702
-104.938
-104.184
-103.45
-102.727
-102.038
-108.786
-108.04
-107.58
-106.882
-106.21
-105.476
-104.74
-103.998
-103.266
-102.557
-101.863
-101.234
-107.678
-106.948
-106.501
-105.822
-105.167
-104.453
-103.739
-103.02
-102.311
-101.622
-100.938
-100.309
-106.521
-105.812
-105.376
-104.716
-104.081
-103.391
-102.699
-102.005
-101.32
-100.654
-99.9886
-99.3616
-105.318
-104.627
-104.205
-103.563
-102.95
-102.285
-101.62
-100.954
-100.297
-99.6614
-99.0299
-98.4259
-104.093
-103.403
-102.988
-102.367
-101.777
-101.138
-100.502
-99.8665
-99.2418
-98.6404
-98.0483
-97.4781
-102.776
-102.114
-101.717
-101.12
-100.555
-99.9454
-99.3408
-98.7395
-98.1503
-97.5862
-97.0402
-96.5391
-101.418
-100.773
-100.392
-99.8194
-99.281
-98.7041
-98.1338
-97.5686
-97.0165
-96.4881
-95.9705
-95.5181
-100.008
-99.381
-99.0138
-98.4661
-97.9552
-97.4116
-96.8779
-96.3516
-95.8399
-95.3521
-94.8687
-94.4078
-98.5477
-97.9292
-97.5758
-97.0542
-96.5744
-96.0672
-95.5731
-95.0895
-94.6223
-94.1812
-93.752
-93.3538
-96.9984
-96.4074
-96.0739
-95.5812
-95.1343
-94.6678
-94.2177
-93.7815
-93.3638
-92.9731
-92.5989
-92.2633
-95.399
-94.8192
-94.5023
-94.0428
-93.6328
-93.2109
-92.8101
-92.4256
-92.0611
-91.7205
-91.3882
-91.0873
-93.702
-93.1512
-92.8585
-92.4345
-92.066
-91.6943
-91.3475
-91.0218
-90.7177
-90.4382
-90.1685
-89.9354
-91.9416
-91.4112
-91.1405
-90.7549
-90.433
-90.1175
-89.8321
-89.5729
-89.3377
-89.1283
-88.9294
-88.7681
-90.1044
-89.5903
-89.3439
-89.0013
-88.7317
-88.4789
-88.2635
-88.0796
-87.9216
-87.7895
-87.6661
-87.5991
-88.1512
-87.6683
-87.4541
-87.1626
-86.954
-86.7747
-86.6403
-86.5423
-86.4716
-86.4248
-86.3748
-86.35
-86.1072
-85.6532
-85.4741
-85.2406
-85.103
-85.0088
-84.9679
-84.9688
-84.9987
-85.0518
-85.1023
-85.1607
-83.9643
-83.5331
-83.3938
-83.229
-83.1765
-83.1835
-83.2531
-83.3699
-83.5163
-83.6834
-83.8465
-83.9879
-81.6772
-81.2871
-81.2004
-81.1218
-81.1743
-81.3031
-81.5049
-81.7577
-82.0387
-82.3361
-82.6313
-82.9072
-79.2625
-78.9105
-78.8908
-78.9206
-79.1058
-79.3853
-79.7445
-80.1557
-80.5897
-81.0294
-81.4569
-81.8625
-76.6731
-76.3732
-76.4493
-76.6269
-76.9849
-77.4535
-78.0031
-78.5971
-79.2025
-79.7957
-80.3552
-80.872
-73.8732
-73.6515
-73.875
-74.265
-74.8577
-75.5639
-76.34
-77.1424
-77.9355
-78.6939
-79.396
-80.0474
-70.8017
-70.7144
-71.1881
-71.8964
-72.8075
-73.8094
-74.8458
-75.8741
-76.8628
-77.7902
-78.633
-79.3876
-67.3224
-67.5449
-68.4827
-69.6809
-71.0096
-72.3487
-73.6546
-74.9017
-76.0748
-77.1608
-78.1365
-79.0029
-63.0827
-64.4235
-66.2492
-68.1351
-69.8972
-71.5228
-73.0346
-74.4345
-75.7291
-76.9495
-77.9993
-78.898
-28.0062
-30.7696
-32.2617
-33.5071
-34.4814
-35.5161
-36.4446
-37.3501
-38.0791
-38.5025
-38.746
-38.8911
-30.789
-31.9521
-32.5382
-33.3509
-34.2205
-35.1679
-35.9936
-36.785
-37.4773
-37.9486
-38.2335
-38.3889
-33.7208
-34.042
-34.1337
-34.61
-35.1617
-35.8007
-36.3973
-36.9793
-37.4682
-37.8194
-38.052
-38.1813
-35.5286
-35.6565
-35.6654