/*--------------------------------*- C++ -*----------------------------------*\
| =========                 |                                                 |
| \\      /  F ield         | OpenFOAM: The Open Source CFD Toolbox           |
|  \\    /   O peration     | Version:  2.4.0                                 |
|   \\  /    A nd           | Web:      www.OpenFOAM.org                      |
|    \\/     M anipulation  |                                                 |
\*---------------------------------------------------------------------------*/
FoamFile
{
    version     2.0;
    format      ascii;
    class       surfaceScalarField;
    location    "0.2";
    object      phi;
}
// * * * * * * * * * * * * * * * * * * * * * * * * * * * * * * * * * * * * * //

dimensions      [0 3 -1 0 0 0 0];

internalField   nonuniform List<scalar> 
184635
(
-1.25665e-05
0.000108848
-9.62812e-05
-2.22245e-05
0.000129909
-0.000120251
-2.91196e-05
0.000152834
-0.000145939
-3.38357e-05
0.000180297
-0.000175581
-3.82201e-05
0.000202104
-0.00019772
-4.16147e-05
0.000226327
-0.000222932
-4.40404e-05
0.000246331
-0.000243905
-4.53898e-05
0.000262846
-0.000261497
-4.53808e-05
0.000274588
-0.000274597
-4.50921e-05
0.000282352
-0.00028264
-4.50677e-05
0.000288438
-0.000288462
0.000292697
-4.42422e-05
-0.000293523
-7.53883e-06
0.000116387
-1.51779e-05
0.000137548
-2.2416e-05
0.000160072
-2.76862e-05
0.000185567
-3.24395e-05
0.000206857
-3.58532e-05
0.000229741
-3.84329e-05
0.00024891
-3.98513e-05
0.000264264
-4.09031e-05
0.00027564
-4.14628e-05
0.000282911
-4.13618e-05
0.000288337
0.000292615
-4.12797e-05
-6.21959e-06
0.000122606
-1.24946e-05
0.000143823
-1.83898e-05
0.000165967
-2.34099e-05
0.000190587
-2.80157e-05
0.000211463
-3.16408e-05
0.000233366
-3.41767e-05
0.000251446
-3.61081e-05
0.000266195
-3.70919e-05
0.000276623
-3.75869e-05
0.000283406
-3.80992e-05
0.000288849
0.000292643
-3.81272e-05
-5.602e-06
0.000128208
-1.09479e-05
0.000149169
-1.63468e-05
0.000171366
-2.05288e-05
0.000194769
-2.47208e-05
0.000215655
-2.79441e-05
0.000236589
-3.03308e-05
0.000253833
-3.20975e-05
0.000267962
-3.34422e-05
0.000277968
-3.44652e-05
0.000284429
-3.49828e-05
0.000289367
0.000293149
-3.54893e-05
-4.59153e-06
0.0001328
-9.33334e-06
0.000153911
-1.41072e-05
0.00017614
-1.81421e-05
0.000198804
-2.19789e-05
0.000219492
-2.4896e-05
0.000239506
-2.75705e-05
0.000256507
-2.9553e-05
0.000269944
-3.06789e-05
0.000279094
-3.19302e-05
0.000285681
-3.24795e-05
0.000289916
0.000293423
-3.27535e-05
-4.02985e-06
0.00013683
-8.24771e-06
0.000158129
-1.24181e-05
0.000180311
-1.62077e-05
0.000202594
-1.94984e-05
0.000222783
-2.25843e-05
0.000242592
-2.50552e-05
0.000258978
-2.67943e-05
0.000271683
-2.79623e-05
0.000280262
-2.88532e-05
0.000286571
-2.99457e-05
0.000291008
0.000294207
-3.07295e-05
-3.4721e-06
0.000140302
-7.51041e-06
0.000162167
-1.12048e-05
0.000184005
-1.4702e-05
0.000206091
-1.7821e-05
0.000225902
-2.03502e-05
0.000245121
-2.26976e-05
0.000261326
-2.42826e-05
0.000273269
-2.58924e-05
0.000281871
-2.71599e-05
0.000287839
-2.78768e-05
0.000291725
0.00029481
-2.84794e-05
-3.23292e-06
0.000143535
-6.81825e-06
0.000165753
-1.01677e-05
0.000187355
-1.32343e-05
0.000209158
-1.62711e-05
0.000228938
-1.86241e-05
0.000247474
-2.06517e-05
0.000263353
-2.249e-05
0.000275107
-2.36667e-05
0.000283048
-2.47286e-05
0.000288901
-2.58222e-05
0.000292819
0.000295724
-2.67361e-05
-2.74388e-06
0.000146279
-5.91471e-06
0.000168924
-9.46423e-06
0.000190904
-1.21384e-05
0.000211832
-1.47833e-05
0.000231583
-1.73513e-05
0.000250042
-1.90704e-05
0.000265072
-2.06354e-05
0.000276672
-2.22222e-05
0.000284635
-2.30758e-05
0.000289755
-2.39611e-05
0.000293704
0.000296768
-2.50049e-05
-2.63788e-06
0.000148916
-5.69019e-06
0.000171976
-8.26199e-06
0.000193476
-1.11246e-05
0.000214694
-1.34837e-05
0.000233942
-1.57947e-05
0.000252353
-1.76037e-05
0.000266881
-1.93155e-05
0.000278384
-2.04447e-05
0.000285764
-2.18402e-05
0.00029115
-2.2637e-05
0.000294501
0.000297405
-2.32736e-05
-2.52739e-06
0.000151444
-5.14453e-06
0.000174593
-7.95192e-06
0.000196283
-1.04081e-05
0.000217151
-1.28843e-05
0.000236419
-1.4498e-05
0.000253967
-1.65208e-05
0.000268904
-1.78534e-05
0.000279716
-1.9279e-05
0.00028719
-2.03263e-05
0.000292198
-2.14537e-05
0.000295628
0.000298044
-2.20931e-05
-2.14036e-06
0.000153584
-4.8535e-06
0.000177306
-7.24869e-06
0.000198678
-9.4503e-06
0.000219352
-1.1577e-05
0.000238545
-1.36511e-05
0.000256041
-1.54839e-05
0.000270737
-1.68637e-05
0.000281096
-1.79301e-05
0.000288256
-1.88534e-05
0.000293121
-1.97562e-05
0.000296531
0.000299045
-2.07578e-05
-2.12892e-06
0.000155713
-4.39319e-06
0.000179571
-6.70103e-06
0.000200986
-9.01776e-06
0.000221669
-1.09389e-05
0.000240466
-1.30109e-05
0.000258113
-1.41427e-05
0.000271869
-1.56806e-05
0.000282634
-1.71473e-05
0.000289723
-1.8049e-05
0.000294023
-1.91626e-05
0.000297645
0.000299343
-1.94603e-05
-2.10372e-06
0.000157817
-3.98952e-06
0.000181456
-6.29637e-06
0.000203293
-8.22792e-06
0.000223601
-1.03932e-05
0.000242632
-1.19724e-05
0.000259692
-1.36562e-05
0.000273553
-1.48242e-05
0.000283802
-1.55924e-05
0.000290491
-1.68094e-05
0.00029524
-1.75756e-05
0.000298411
0.000300528
-1.87605e-05
-1.81589e-06
0.000159633
-4.0577e-06
0.000183698
-6.02075e-06
0.000205256
-7.93229e-06
0.000225512
-9.62562e-06
0.000244325
-1.11134e-05
0.00026118
-1.25093e-05
0.000274949
-1.3948e-05
0.000285241
-1.52477e-05
0.000291791
-1.61132e-05
0.000296105
-1.69912e-05
0.000299289
0.000301206
-1.76692e-05
-1.61085e-06
0.000161244
-3.4716e-06
0.000185559
-5.61634e-06
0.000207401
-7.33609e-06
0.000227232
-9.2146e-06
0.000246204
-1.07313e-05
0.000262697
-1.21912e-05
0.000276408
-1.30384e-05
0.000286088
-1.39709e-05
0.000292723
-1.52504e-05
0.000297384
-1.59882e-05
0.000300027
0.000302184
-1.69662e-05
-1.64105e-06
0.000162885
-3.58973e-06
0.000187508
-5.15957e-06
0.000208971
-7.05346e-06
0.000229126
-8.564e-06
0.000247714
-1.02124e-05
0.000264345
-1.11763e-05
0.000277372
-1.25335e-05
0.000287445
-1.3776e-05
0.000293966
-1.43504e-05
0.000297959
-1.54203e-05
0.000301097
0.000302824
-1.606e-05
-1.59633e-06
0.000164481
-3.33298e-06
0.000189244
-4.9041e-06
0.000210542
-6.5307e-06
0.000230752
-7.95723e-06
0.000249141
-9.31835e-06
0.000265706
-1.07668e-05
0.000278821
-1.17552e-05
0.000288433
-1.27307e-05
0.000294941
-1.37589e-05
0.000298987
-1.45641e-05
0.000301902
0.00030344
-1.51797e-05
-1.51225e-06
0.000165993
-2.96472e-06
0.000190697
-4.84449e-06
0.000212422
-6.31806e-06
0.000232226
-7.77634e-06
0.000250599
-8.9037e-06
0.000266834
-1.04077e-05
0.000280325
-1.1466e-05
0.000289492
-1.22155e-05
0.000295691
-1.30925e-05
0.000299864
-1.37925e-05
0.000302602
0.000304059
-1.44115e-05
-1.1866e-06
0.00016718
-2.74444e-06
0.000192255
-4.46484e-06
0.000214142
-5.86616e-06
0.000233627
-7.45313e-06
0.000252186
-8.71784e-06
0.000268098
-9.4345e-06
0.000281041
-1.06859e-05
0.000290743
-1.16112e-05
0.000296616
-1.23612e-05
0.000300614
-1.33839e-05
0.000303624
0.000304759
-1.40844e-05
-1.28343e-06
0.000168463
-2.92887e-06
0.0001939
-4.17748e-06
0.000215391
-5.79202e-06
0.000235242
-6.74019e-06
0.000253134
-8.16183e-06
0.00026952
-9.48872e-06
0.000282368
-1.0144e-05
0.000291398
-1.12901e-05
0.000297762
-1.20266e-05
0.000301351
-1.26983e-05
0.000304296
0.000305455
-1.33939e-05
-1.35003e-06
0.000169813
-2.51747e-06
0.000195067
-4.02681e-06
0.0002169
-5.38332e-06
0.000236598
-6.86679e-06
0.000254617
-7.72065e-06
0.000270374
-8.68219e-06
0.00028333
-9.87918e-06
0.000292595
-1.0659e-05
0.000298542
-1.13752e-05
0.000302067
-1.2121e-05
0.000305042
0.000306277
-1.29427e-05
-1.16355e-06
0.000170977
-2.66711e-06
0.000196571
-3.77725e-06
0.00021801
-4.98917e-06
0.00023781
-6.11347e-06
0.000255742
-7.44853e-06
0.000271709
-8.46995e-06
0.000284351
-9.30341e-06
0.000293429
-1.00628e-05
0.000299301
-1.12159e-05
0.00030322
-1.1867e-05
0.000305693
0.000306508
-1.20987e-05
-1.07019e-06
0.000172047
-2.25982e-06
0.000197761
-3.73185e-06
0.000219482
-4.89716e-06
0.000238976
-6.07172e-06
0.000256916
-7.05773e-06
0.000272695
-7.94891e-06
0.000285242
-8.75403e-06
0.000294234
-9.58763e-06
0.000300135
-1.02685e-05
0.000303901
-1.08904e-05
0.000306315
0.000307527
-1.19088e-05
-1.0852e-06
0.000173132
-2.25499e-06
0.00019893
-3.50049e-06
0.000220728
-4.61989e-06
0.000240095
-5.96024e-06
0.000258257
-6.91728e-06
0.000273652
-7.78459e-06
0.00028611
-8.66535e-06
0.000295115
-9.38537e-06
0.000300855
-1.00553e-05
0.000304571
-1.10314e-05
0.000307291
0.000308086
-1.15902e-05
-9.28027e-07
0.00017406
-2.33343e-06
0.000200336
-3.39079e-06
0.000221785
-4.54888e-06
0.000241253
-5.24894e-06
0.000258957
-6.56398e-06
0.000274967
-7.39688e-06
0.000286943
-8.15711e-06
0.000295875
-8.85609e-06
0.000301554
-9.85636e-06
0.000305571
-1.01825e-05
0.000307617
0.000308615
-1.07116e-05
-1.03678e-06
0.000175097
-2.09854e-06
0.000201398
-3.17621e-06
0.000222863
-4.21263e-06
0.000242289
-5.56297e-06
0.000260307
-6.12815e-06
0.000275532
-6.9363e-06
0.000287751
-8.01824e-06
0.000296957
-8.79646e-06
0.000302332
-9.07753e-06
0.000305852
-1.00153e-05
0.000308555
0.000309215
-1.06151e-05
-8.58308e-07
0.000175955
-1.86865e-06
0.000202408
-2.97153e-06
0.000223966
-4.25258e-06
0.00024357
-4.87424e-06
0.000260929
-6.04189e-06
0.0002767
-6.91947e-06
0.000288628
-7.29445e-06
0.000297332
-8.22285e-06
0.000303261
-8.94631e-06
0.000306576
-9.54279e-06
0.000309151
0.00030978
-1.0108e-05
-9.55806e-07
0.000176911
-1.95389e-06
0.000203406
-2.96429e-06
0.000224976
-3.92591e-06
0.000244532
-4.81756e-06
0.00026182
-5.3132e-06
0.000277195
-6.49007e-06
0.000289805
-7.19122e-06
0.000298033
-7.93667e-06
0.000304006
-8.54897e-06
0.000307188
-9.11406e-06
0.000309716
0.000310295
-9.62885e-06
-8.18557e-07
0.00017773
-1.74678e-06
0.000204334
-2.77493e-06
0.000226004
-3.68889e-06
0.000245446
-4.55082e-06
0.000262682
-5.75323e-06
0.000278398
-6.06836e-06
0.00029012
-7.09959e-06
0.000299064
-7.47372e-06
0.00030438
-8.4284e-06
0.000308143
-8.61748e-06
0.000309905
0.000311231
-9.55327e-06
-9.32929e-07
0.000178663
-1.62196e-06
0.000205023
-2.72556e-06
0.000227108
-3.3893e-06
0.00024611
-4.60186e-06
0.000263895
-4.95575e-06
0.000278752
-6.09262e-06
0.000291257
-6.40732e-06
0.000299379
-7.38377e-06
0.000305357
-7.61212e-06
0.000308371
-8.62109e-06
0.000310914
0.000311306
-8.69658e-06
-8.13045e-07
0.000179476
-1.66848e-06
0.000205879
-2.59834e-06
0.000228038
-3.44107e-06
0.000246953
-4.18162e-06
0.000264635
-5.00261e-06
0.000279573
-5.69414e-06
0.000291949
-6.42859e-06
0.000300113
-6.94933e-06
0.000305877
-7.60864e-06
0.00030903
-8.13486e-06
0.000311441
0.00031188
-8.70836e-06
-6.1958e-07
0.000180095
-1.72921e-06
0.000206988
-2.34421e-06
0.000228653
-3.4691e-06
0.000248077
-3.98814e-06
0.000265155
-4.69679e-06
0.000280281
-5.36408e-06
0.000292616
-5.9861e-06
0.000300735
-6.66564e-06
0.000306557
-7.21569e-06
0.00030958
-7.68882e-06
0.000311914
0.000312327
-8.13595e-06
-8.01525e-07
0.000180897
-1.32446e-06
0.000207511
-2.41708e-06
0.000229745
-2.93423e-06
0.000248595
-3.99199e-06
0.000266212
-4.7154e-06
0.000281005
-5.03448e-06
0.000292935
-6.02986e-06
0.000301731
-6.26361e-06
0.000306791
-7.19688e-06
0.000310514
-7.41925e-06
0.000312136
0.000313192
-8.28466e-06
-6.01657e-07
0.000181499
-1.4141e-06
0.000208324
-2.21766e-06
0.000230549
-2.98623e-06
0.000249363
-3.40187e-06
0.000266628
-4.41181e-06
0.000282015
-5.06273e-06
0.000293586
-5.67518e-06
0.000302343
-6.27383e-06
0.000307389
-6.47336e-06
0.000310713
-7.36932e-06
0.000313032
0.000313357
-7.53368e-06
-5.3715e-07
0.000182036
-1.51191e-06
0.000209298
-2.01064e-06
0.000231048
-2.76462e-06
0.000250117
-3.78604e-06
0.000267649
-4.11273e-06
0.000282341
-4.74737e-06
0.000294221
-5.34957e-06
0.000302946
-5.9159e-06
0.000307956
-6.46942e-06
0.000311267
-6.97487e-06
0.000313538
0.000313799
-7.41659e-06
-6.62236e-07
0.000182698
-1.36973e-06
0.000210006
-2.1097e-06
0.000231787
-2.82728e-06
0.000250835
-3.1902e-06
0.000268012
-3.82721e-06
0.000282978
-4.78551e-06
0.000295179
-5.01813e-06
0.000303178
-5.57932e-06
0.000308517
-6.10764e-06
0.000311795
-6.61835e-06
0.000314048
0.000314283
-7.10215e-06
-7.94396e-07
0.000183492
-1.20972e-06
0.000210421
-1.91758e-06
0.000232495
-2.61078e-06
0.000251528
-3.26163e-06
0.000268663
-3.88533e-06
0.000283602
-4.13324e-06
0.000295427
-4.70375e-06
0.000303749
-5.25229e-06
0.000309065
-6.13485e-06
0.000312678
-6.25787e-06
0.000314171
0.000314736
-6.7112e-06
-3.6329e-07
0.000183856
-1.03642e-06
0.000211094
-1.71404e-06
0.000233173
-2.38092e-06
0.000252195
-3.01362e-06
0.000269296
-3.61153e-06
0.0002842
-4.19152e-06
0.000296007
-4.74578e-06
0.000304303
-5.28676e-06
0.000309606
-5.43849e-06
0.000312829
-5.93386e-06
0.000314667
0.000315199
-6.39683e-06
-5.23424e-07
0.000184379
-1.1448e-06
0.000211716
-1.81547e-06
0.000233844
-2.46785e-06
0.000252847
-3.09303e-06
0.000269921
-3.33851e-06
0.000284446
-3.89571e-06
0.000296564
-4.44196e-06
0.000304849
-4.97002e-06
0.000310134
-5.47532e-06
0.000313335
-5.93791e-06
0.000315129
0.000315257
-5.99599e-06
-6.24226e-07
0.000185003
-9.95489e-07
0.000212087
-1.62931e-06
0.000234477
-2.25578e-06
0.000253474
-2.51764e-06
0.000270183
-3.41941e-06
0.000285347
-3.97005e-06
0.000297115
-4.14891e-06
0.000305028
-4.65883e-06
0.000310644
-5.15828e-06
0.000313834
-5.2601e-06
0.000315231
0.000316081
-6.08464e-06
-2.45589e-07
0.000185249
-1.09993e-06
0.000212941
-1.45308e-06
0.000234831
-2.05202e-06
0.000254073
-2.61624e-06
0.000270747
-3.16355e-06
0.000285895
-3.33715e-06
0.000297288
-4.21805e-06
0.000305909
-4.35197e-06
0.000310778
-4.83949e-06
0.000314322
-5.29764e-06
0.000315689
0.000316507
-5.72348e-06
-4.63049e-07
0.000185712
-7.42698e-07
0.000213221
-1.5879e-06
0.000235676
-1.84908e-06
0.000254334
-2.40017e-06
0.000271298
-2.91408e-06
0.000286409
-3.43025e-06
0.000297805
-3.57076e-06
0.000306049
-4.06663e-06
0.000311274
-4.5404e-06
0.000314796
-5.00625e-06
0.000316155
0.00031657
-5.06971e-06
-6.30222e-07
0.000186342
-1.13216e-06
0.000213723
-1.419e-06
0.000235963
-1.96889e-06
0.000254884
-2.49667e-06
0.000271826
-2.66363e-06
0.000286576
-3.15738e-06
0.000298298
-3.655e-06
0.000306547
-4.13591e-06
0.000311755
-4.23473e-06
0.000314895
-4.67496e-06
0.000316595
0.000316958
-5.06218e-06
-1.92102e-07
0.000186534
-7.13711e-07
0.000214245
-1.24374e-06
0.000236493
-1.77196e-06
0.000255412
-2.27443e-06
0.000272328
-2.41615e-06
0.000286717
-2.9009e-06
0.000298783
-3.37784e-06
0.000307024
-3.85651e-06
0.000312234
-4.31707e-06
0.000315355
-4.408e-06
0.000316686
0.000317423
-4.8734e-06
-3.05459e-07
0.00018684
-8.21694e-07
0.000214761
-1.05918e-06
0.00023673
-1.56777e-06
0.00025592
-2.04944e-06
0.00027281
-2.52551e-06
0.000287193
-2.99962e-06
0.000299257
-3.1067e-06
0.000307131
-3.57377e-06
0.000312701
-3.64398e-06
0.000315425
-4.43062e-06
0.000317473
0.00031745
-4.45722e-06
-5.38778e-07
0.000187379
-7.07077e-07
0.000214929
-1.2005e-06
0.000237224
-1.37789e-06
0.000256098
-1.83935e-06
0.000273272
-2.28725e-06
0.000287641
-2.38117e-06
0.000299351
-3.20561e-06
0.000307955
-3.28777e-06
0.000312783
-3.73588e-06
0.000315873
-4.15963e-06
0.000317897
0.000317875
-4.58534e-06
-1.41543e-07
0.00018752
-5.83664e-07
0.000215371
-1.04379e-06
0.000237684
-1.50758e-06
0.000256562
-1.62302e-06
0.000273387
-2.05275e-06
0.000288071
-2.49337e-06
0.000299792
-2.57148e-06
0.000308034
-3.01961e-06
0.000313231
-3.4552e-06
0.000316309
-3.50493e-06
0.000317946
0.000318255
-3.88415e-06
-2.99699e-07
0.00018782
-7.08407e-07
0.00021578
-1.17221e-06
0.000238148
-1.31427e-06
0.000256704
-1.74359e-06
0.000273816
-2.16777e-06
0.000288495
-2.23961e-06
0.000299863
-2.67889e-06
0.000308473
-3.11143e-06
0.000313664
-3.17002e-06
0.000316368
-3.57935e-06
0.000318356
0.000318675
-4.00009e-06
-1.58873e-07
0.000187979
-5.63397e-07
0.000216184
-7.07757e-07
0.000238292
-1.1307e-06
0.000257127
-1.5392e-06
0.000274225
-1.5917e-06
0.000288548
-2.35475e-06
0.000300627
-2.40954e-06
0.000308528
-2.45736e-06
0.000313711
-3.24928e-06
0.00031716
-3.2679e-06
0.000318374
0.000318647
-3.23942e-06
-3.26279e-07
0.000188305
-4.40641e-07
0.000216299
-8.46155e-07
0.000238697
-1.26285e-06
0.000257543
-1.3245e-06
0.000274286
-1.71259e-06
0.000288936
-1.74803e-06
0.000300662
-2.15769e-06
0.000308937
-2.56609e-06
0.00031412
-2.59364e-06
0.000317187
-2.99019e-06
0.000318771
0.000319035
-3.37803e-06
-2.39857e-07
0.000188545
-3.3064e-07
0.00021639
-7.04762e-07
0.000239072
-1.08148e-06
0.00025792
-1.12848e-06
0.000274333
-1.48933e-06
0.000289297
-1.87419e-06
0.000301047
-1.89656e-06
0.00030896
-2.30061e-06
0.000314524
-2.69152e-06
0.000317578
-2.69641e-06
0.000318776
0.000319398
-3.05988e-06
-1.22066e-07
0.000188667
-4.58595e-07
0.000216726
-5.44238e-07
0.000239157
-9.12264e-07
0.000258288
-1.26825e-06
0.000274689
-1.27423e-06
0.000289303
-1.63779e-06
0.00030141
-2.02722e-06
0.000309349
-2.04399e-06
0.000314541
-2.04953e-06
0.000317584
-2.79141e-06
0.000319518
0.000319335
-2.72847e-06
-8.22512e-08
0.000188749
-3.5853e-07
0.000217002
-7.06837e-07
0.000239505
-7.37233e-07
0.000258318
-1.07179e-06
0.000275024
-1.40612e-06
0.000289637
-1.40062e-06
0.000301405
-1.41057e-06
0.000309359
-1.79257e-06
0.000314923
-2.17304e-06
0.000317964
-2.17443e-06
0.000319519
0.000319716
-2.55514e-06
-1.64891e-07
0.000188914
-2.33643e-07
0.000217071
-5.52548e-07
0.000239824
-5.6715e-07
0.000258333
-8.81594e-07
0.000275338
-8.48871e-07
0.000289604
-1.18187e-06
0.000301738
-1.5462e-06
0.000309723
-1.92499e-06
0.000315302
-1.93139e-06
0.000317971
-2.30473e-06
0.000319892
0.000319678
-2.26681e-06
-1.09932e-07
0.000189024
-3.70751e-07
0.000217332
-3.99183e-07
0.000239853
-7.13534e-07
0.000258647
-6.84374e-07
0.000275309
-9.87773e-07
0.000289908
-9.59099e-07
0.000301709
-1.30672e-06
0.000310071
-1.30649e-06
0.000315301
-1.67403e-06
0.000318338
-1.68308e-06
0.000319902
0.000320082
-2.08722e-06
-1.44268e-08
0.000189038
-2.59846e-07
0.000217577
-2.52454e-07
0.000239845
-5.45654e-07
0.000258941
-4.93949e-07
0.000275258
-7.82446e-07
0.000290196
-1.09315e-06
0.00030202
-1.07229e-06
0.00031005
-1.4257e-06
0.000315655
-1.41041e-06
0.000318323
-1.75812e-06
0.000320249
0.000320019
-1.69506e-06
-1.8151e-07
0.00018922
-1.6256e-07
0.000217558
-4.34867e-07
0.000240118
-3.86037e-07
0.000258892
-6.5146e-07
0.000275523
-5.7355e-07
0.000290118
-5.02311e-07
0.000301949
-8.27468e-07
0.000310375
-8.00181e-07
0.000315627
-1.5207e-06
0.000319043
-1.4837e-06
0.000320212
0.000320374
-1.8385e-06
-1.09309e-07
0.000189329
-5.18359e-08
0.000217501
-2.89663e-07
0.000240356
-2.26963e-07
0.000258829
-4.67635e-07
0.000275764
-7.18525e-07
0.000290369
-6.4156e-07
0.000301872
-9.59502e-07
0.000310693
-9.2172e-07
0.00031559
-8.87222e-07
0.000319009
-8.38963e-07
0.000320164
0.000320707
-1.17198e-06
3.28088e-09
0.000189326
-1.9651e-07
0.000217701
-1.30532e-07
0.00024029
-3.7018e-07
0.000259069
-2.76735e-07
0.00027567
-1.60787e-07
0.000290253
-4.21565e-07
0.000302132
-3.52945e-07
0.000310625
-6.79254e-07
0.000315916
-6.3504e-07
0.000318965
-9.73544e-07
0.000320502
0.000320675
-9.41905e-07
2.54477e-08
0.0001893
1.62273e-07
0.000217564
-8.35014e-09
0.00024046
-2.19081e-07
0.000259279
-8.83957e-08
0.00027554
-3.07057e-07
0.000290472
-1.9761e-07
0.000302023
-4.90711e-07
0.000310918
-4.31647e-07
0.000315857
-7.5509e-07
0.000319288
-6.84832e-07
0.000320432
0.00032097
-9.78973e-07
1.47687e-07
0.000189153
1.50264e-08
0.000217697
1.34502e-07
0.000240341
2.68428e-07
0.000259146
9.45295e-08
0.000275713
2.50433e-07
0.000290316
-3.42378e-07
0.000302616
-2.50612e-07
0.000310826
-5.58714e-07
0.000316165
-4.98283e-07
0.000319228
-8.27799e-07
0.000320762
0.000320924
-7.82517e-07
5.02912e-08
0.000189103
-1.22263e-07
0.000217869
-4.32396e-09
0.000240223
-2.03205e-07
0.000259344
-5.06737e-08
0.000275561
1.03317e-07
0.000290162
2.43102e-07
0.000302476
3.56156e-07
0.000310713
6.46021e-08
0.000316456
1.33621e-07
0.000319159
-1.68852e-07
0.000321064
0.000320841
-8.50422e-08
1.20507e-07
0.000188982
2.78895e-07
0.000217711
1.27455e-07
0.000240374
2.7566e-07
0.000259196
1.23473e-07
0.000275713
-5.14191e-08
0.000290337
4.65293e-07
0.000301959
2.16839e-07
0.000310961
3.10663e-07
0.000316363
1.56042e-08
0.000319454
8.73749e-08
0.000320992
0.000321163
-2.34577e-07
-1.19435e-07
0.000189101
6.57957e-08
0.000217526
2.38691e-07
0.000240201
4.28525e-07
0.000259006
2.97868e-07
0.000275844
4.99606e-07
0.000290135
3.20271e-07
0.000302139
4.54065e-07
0.000310828
1.82365e-07
0.000316634
2.79763e-07
0.000319356
3.85337e-07
0.000320887
0.00032105
4.98229e-07
2.76491e-07
0.000188825
1.92936e-07
0.000217609
1.00783e-07
0.000240293
2.72997e-07
0.000258834
4.8091e-07
0.000275636
7.02732e-07
0.000289913
5.38623e-07
0.000302303
3.18456e-07
0.000311048
8.1608e-07
0.000316137
5.43631e-07
0.000319629
2.64085e-07
0.000321166
0.000320926
3.87989e-07
9.00317e-08
0.000188735
3.06041e-07
0.000217393
5.08119e-07
0.000240091
4.24662e-07
0.000258918
6.52242e-07
0.000275408
5.43848e-07
0.000290022
7.54169e-07
0.000302092
9.21615e-07
0.00031088
6.77501e-07
0.000316381
7.8969e-07
0.000319517
8.86741e-07
0.000321069
0.000321242
5.71269e-07
1.86364e-07
0.000188549
4.22338e-07
0.000217157
3.54531e-07
0.000240159
5.81845e-07
0.00025869
8.32974e-07
0.000275157
7.41259e-07
0.000290113
9.69237e-07
0.000301864
1.15336e-06
0.000310696
9.20393e-07
0.000316614
1.04798e-06
0.000319389
1.18027e-06
0.000320937
0.000321483
9.3925e-07
2.53299e-07
0.000188295
2.28093e-07
0.000217182
4.71148e-07
0.000239916
7.33539e-07
0.000258428
6.70911e-07
0.00027522
9.37775e-07
0.000289846
1.18585e-06
0.000301616
1.01159e-06
0.00031087
1.16754e-06
0.000316458
1.30665e-06
0.00031925
1.03926e-06
0.000321204
0.000321384
1.13752e-06
6.79733e-08
0.000188227
3.32665e-07
0.000216918
5.9956e-07
0.000239649
5.62442e-07
0.000258465
8.48204e-07
0.000274934
1.13425e-06
0.00028956
1.03724e-06
0.000301713
1.24744e-06
0.00031066
1.42091e-06
0.000316284
1.18483e-06
0.000319486
1.3325e-06
0.000321057
0.000320843
1.87415e-06
1.34022e-07
0.000188093
4.37498e-07
0.000216614
7.31492e-07
0.000239355
1.03771e-06
0.000258159
1.02151e-06
0.00027495
1.33246e-06
0.000289249
1.6208e-06
0.000301425
1.85495e-06
0.000310426
1.66424e-06
0.000316475
1.82517e-06
0.000319325
1.96333e-06
0.000320919
0.000321118
1.6878e-06
2.58765e-07
0.000187835
5.64171e-07
0.000216309
5.74772e-07
0.000239345
8.82037e-07
0.000257852
1.2012e-06
0.000274631
1.53406e-06
0.000288917
1.4706e-06
0.000301489
1.72045e-06
0.000310176
1.91806e-06
0.000316278
2.09182e-06
0.000319152
1.87604e-06
0.000321135
0.000320944
2.05062e-06
3.23815e-07
0.000187511
3.83634e-07
0.000216249
1.00265e-06
0.000238726
1.03657e-06
0.000257818
1.37887e-06
0.000274289
1.3797e-06
0.000288916
2.06125e-06
0.000300807
1.95687e-06
0.000310281
2.17002e-06
0.000316064
1.96899e-06
0.000319353
2.13792e-06
0.000320966
0.000320792
2.28982e-06
3.88757e-07
0.000187122
7.73899e-07
0.000215864
8.42314e-07
0.000238657
1.19533e-06
0.000257465
1.55788e-06
0.000273926
1.92988e-06
0.000288544
1.91182e-06
0.000300825
2.19222e-06
0.00031
2.42029e-06
0.000315836
2.6193e-06
0.000319154
2.80517e-06
0.00032078
0.000320988
2.60925e-06
2.72699e-07
0.000186849
6.11191e-07
0.000215525
9.72672e-07
0.000238296
1.02939e-06
0.000257408
1.40182e-06
0.000273554
1.78025e-06
0.000288165
2.13144e-06
0.000300474
2.42833e-06
0.000309703
2.28788e-06
0.000315977
2.49325e-06
0.000318948
2.67482e-06
0.000320598
0.000320816
2.84675e-06
2.94581e-07
0.000186555
7.07614e-07
0.000215112
8.07263e-07
0.000238196
1.50865e-06
0.000256706
1.91499e-06
0.000273147
1.97765e-06
0.000288103
2.35053e-06
0.000300101
2.29398e-06
0.00030976
2.92253e-06
0.000315348
2.75374e-06
0.000319117
2.94046e-06
0.000320411
0.000320666
3.09079e-06
3.90771e-07
0.000186164
5.36186e-07
0.000214967
1.23576e-06
0.000237497
1.34429e-06
0.000256598
1.76181e-06
0.00027273
2.18044e-06
0.000287684
2.57509e-06
0.000299706
2.90521e-06
0.00030943
2.79997e-06
0.000315453
3.41164e-06
0.000318505
3.2534e-06
0.00032057
0.000320426
3.49312e-06
5.16223e-07
0.000185648
9.45616e-07
0.000214537
1.08415e-06
0.000237358
1.50597e-06
0.000256176
1.94598e-06
0.00027229
2.38269e-06
0.000287247
2.43566e-06
0.000299653
3.15217e-06
0.000308713
3.43537e-06
0.00031517
3.29387e-06
0.000318647
3.49715e-06
0.000320366
0.000320273
3.65048e-06
3.31806e-07
0.000185316
7.71005e-07
0.000214098
1.21799e-06
0.000236911
1.98517e-06
0.000255409
2.12694e-06
0.000272148
2.5883e-06
0.000286786
3.02188e-06
0.00029922
3.02042e-06
0.000308715
3.31555e-06
0.000314875
3.56695e-06
0.000318396
3.80205e-06
0.000320131
0.000320413
3.66214e-06
4.07685e-07
0.000184908
8.70796e-07
0.000213635
1.34044e-06
0.000236441
1.50639e-06
0.000255243
1.97368e-06
0.000271681
2.44273e-06
0.000286317
2.88737e-06
0.000298775
3.26958e-06
0.000308332
3.58138e-06
0.000314563
3.84449e-06
0.000318133
4.06833e-06
0.000319908
0.000320237
4.24446e-06
4.75909e-07
0.000184432
9.72868e-07
0.000213138
1.47316e-06
0.000235941
1.97953e-06
0.000254737
2.49252e-06
0.000271168
3.00194e-06
0.000285807
3.48004e-06
0.000298297
3.89403e-06
0.000307918
4.23042e-06
0.000314227
4.13299e-06
0.00031823
4.39433e-06
0.000319646
0.000319974
4.65753e-06
5.29093e-07
0.000183903
1.0699e-06
0.000212597
1.6008e-06
0.00023541
2.13256e-06
0.000254205
2.33714e-06
0.000270963
2.86008e-06
0.000285284
3.35134e-06
0.000297806
3.77701e-06
0.000307493
4.12842e-06
0.000313875
4.80483e-06
0.000317554
4.68396e-06
0.000319767
0.000319752
4.90564e-06
5.84064e-07
0.000183319
8.87692e-07
0.000212294
1.44018e-06
0.000234858
1.98378e-06
0.000253661
2.85679e-06
0.00027009
3.06812e-06
0.000285073
3.58811e-06
0.000297286
4.03571e-06
0.000307045
4.40417e-06
0.000313507
4.33627e-06
0.000317622
5.0021e-06
0.000319101
0.000319484
5.27027e-06
4.75378e-07
0.000182844
1.28399e-06
0.000211485
1.57674e-06
0.000234565
2.15068e-06
0.000253087
2.72114e-06
0.00026952
3.63338e-06
0.000284161
3.82404e-06
0.000297095
4.29591e-06
0.000306573
4.68472e-06
0.000313118
5.01153e-06
0.000317295
5.30636e-06
0.000318806
0.0003192
5.58991e-06
5.09315e-07
0.000182334
1.12036e-06
0.000210874
2.00928e-06
0.000233676
2.31238e-06
0.000252784
2.9121e-06
0.00026892
3.50673e-06
0.000283566
4.06491e-06
0.000296537
4.55978e-06
0.000306078
4.96475e-06
0.000312713
5.29828e-06
0.000316961
5.57662e-06
0.000318528
0.000318998
5.77893e-06
6.47217e-07
0.000181687
1.24169e-06
0.00021028
1.57447e-06
0.000233343
2.48649e-06
0.000251872
3.10741e-06
0.000268299
3.38121e-06
0.000283292
4.31492e-06
0.000295603
4.83042e-06
0.000305563
4.88142e-06
0.000312662
5.61805e-06
0.000316225
5.95153e-06
0.000318195
0.000319031
5.91899e-06
6.81926e-07
0.000181005
1.34822e-06
0.000209613
2.00033e-06
0.000232691
2.65856e-06
0.000251214
3.30799e-06
0.00026765
3.95097e-06
0.00028265
4.56603e-06
0.000294988
5.10914e-06
0.00030502
5.5574e-06
0.000312214
5.93492e-06
0.000315847
6.25767e-06
0.000317872
0.000318769
6.51965e-06
5.15609e-07
0.00018049
1.187e-06
0.000208942
2.13841e-06
0.00023174
2.5142e-06
0.000250838
3.18252e-06
0.000266981
4.18423e-06
0.000281648
4.82008e-06
0.000294352
5.01779e-06
0.000304822
5.85998e-06
0.000311372
6.25651e-06
0.000315451
6.2317e-06
0.000317897
0.000318037
6.96371e-06
8.3623e-07
0.000179654
1.2994e-06
0.000208479
2.00352e-06
0.000231036
3.0061e-06
0.000249836
3.71319e-06
0.000266274
4.06779e-06
0.000281293
4.72321e-06
0.000293697
5.67325e-06
0.000303872
6.16327e-06
0.000310882
6.19427e-06
0.00031542
6.93083e-06
0.00031716
0.000317721
7.24712e-06
7.08011e-07
0.000178946
1.4265e-06
0.00020776
2.15696e-06
0.000230305
2.88197e-06
0.000249111
3.60186e-06
0.000265554
4.65329e-06
0.000280242
5.34239e-06
0.000293008
5.58947e-06
0.000303625
6.09651e-06
0.000310375
6.89547e-06
0.000314621
7.26128e-06
0.000316795
0.000317388
7.59415e-06
5.67337e-07
0.000178378
1.55475e-06
0.000206773
2.31396e-06
0.000229546
3.0691e-06
0.000248355
3.81811e-06
0.000264805
4.55548e-06
0.000279504
5.2594e-06
0.000292304
6.25573e-06
0.000302629
6.78852e-06
0.000309842
7.22582e-06
0.000314183
7.20857e-06
0.000316812
0.00031712
7.47604e-06
8.94144e-07
0.000177484
1.67886e-06
0.000205988
2.47162e-06
0.000228753
3.25834e-06
0.000247569
4.03626e-06
0.000264027
4.80449e-06
0.000278736
5.53825e-06
0.00029157
6.19765e-06
0.000301969
6.7522e-06
0.000309287
7.21693e-06
0.000313719
8.01426e-06
0.000316014
0.000316716
8.4188e-06
9.777e-07
0.000176506
1.80104e-06
0.000205165
2.62634e-06
0.000227928
3.44555e-06
0.00024675
4.25655e-06
0.000263216
5.05815e-06
0.000277935
5.82368e-06
0.000290805
6.51582e-06
0.000301277
7.10126e-06
0.000308702
7.97039e-06
0.00031285
8.39788e-06
0.000315587
0.000316353
8.76082e-06
8.17544e-07
0.000175689
1.65109e-06
0.000204331
2.49314e-06
0.000227086
3.33247e-06
0.00024591
4.4859e-06
0.000262063
5.3146e-06
0.000277106
6.11293e-06
0.000290006
6.83615e-06
0.000300554
7.82358e-06
0.000307715
7.96649e-06
0.000312707
8.43207e-06
0.000315121
0.000315867
8.9178e-06
8.68471e-07
0.00017482
1.75507e-06
0.000203445
2.64687e-06
0.000226194
3.82917e-06
0.000244728
4.39056e-06
0.000261502
5.58088e-06
0.000275916
6.40671e-06
0.00028918
7.52313e-06
0.000299437
7.79482e-06
0.000307443
8.32065e-06
0.000312181
9.12002e-06
0.000314322
0.000315603
9.38395e-06
7.32601e-07
0.000174088
1.88602e-06
0.000202291
3.0891e-06
0.000224991
3.72156e-06
0.000244095
4.94379e-06
0.000260279
5.5078e-06
0.000275352
6.70728e-06
0.000287981
7.12804e-06
0.000299017
8.1582e-06
0.000306413
9.08957e-06
0.00031125
9.21245e-06
0.000314199
0.000314705
1.01104e-05
1.06246e-06
0.000173025
2.01335e-06
0.00020134
2.69613e-06
0.000224308
3.93039e-06
0.000242861
4.86944e-06
0.00025934
6.12352e-06
0.000274097
7.01797e-06
0.000287086
7.83427e-06
0.0002982
8.53772e-06
0.000305709
9.12399e-06
0.000310663
9.99377e-06
0.000313329
0.000314684
1.00153e-05
9.34148e-07
0.000172091
1.90015e-06
0.000200374
3.14863e-06
0.00022306
4.14014e-06
0.00024187
5.11637e-06
0.000258364
6.07048e-06
0.000273143
6.9865e-06
0.00028617
8.19056e-06
0.000296996
8.92324e-06
0.000304977
9.53974e-06
0.000310047
1.00755e-05
0.000312794
0.000313801
1.09584e-05
9.97316e-07
0.000171094
2.02128e-06
0.00019935
3.32452e-06
0.000221756
4.35029e-06
0.000240844
5.36708e-06
0.000257347
6.36292e-06
0.000272147
7.66279e-06
0.000284871
8.54734e-06
0.000296112
9.31411e-06
0.00030421
9.95587e-06
0.000309405
1.04991e-05
0.00031225