/*--------------------------------*- C++ -*----------------------------------*\
| =========                 |                                                 |
| \\      /  F ield         | OpenFOAM: The Open Source CFD Toolbox           |
|  \\    /   O peration     | Version:  2.3.1                                 |
|   \\  /    A nd           | Web:      www.OpenFOAM.org                      |
|    \\/     M anipulation  |                                                 |
\*---------------------------------------------------------------------------*/
FoamFile
{
    version     2.0;
    format      ascii;
    class       surfaceScalarField;
    location    "0.7";
    object      meshPhi;
}
// * * * * * * * * * * * * * * * * * * * * * * * * * * * * * * * * * * * * * //

dimensions      [0 3 -1 0 0 0 0];

internalField   nonuniform List<scalar> 
5856
(
-0.000312263
3.84169e-09
-0.00031226
-1.92562e-09
-0.000312262
1.47685e-09
-0.000312265
8.0265e-10
-0.000312263
-3.83857e-09
-0.00031226
3.6061e-09
-0.000312261
2.043e-11
-0.000312258
-3.4552e-09
-0.000312259
3.15084e-10
-0.000312258
1.44438e-09
-0.000312261
-2.94971e-09
-4.69465e-10
-0.00031226
-0.000348993
-3.9032e-09
-0.000348995
-8.647e-10
-0.000348997
2.4765e-09
-0.000348997
7.8975e-10
-0.000348998
-2.04782e-09
-0.000348996
1.94552e-09
-0.000349
3.07352e-09
-0.000348997
-6.76808e-09
-0.000349003
7.22957e-09
-0.000348996
-4.48955e-09
-0.000348996
-3.06231e-09
-4.1705e-10
-0.000348996
-0.000385743
7.8771e-09
-0.000385741
-1.827e-09
-0.000385734
-4.4959e-09
-0.000385734
3.0965e-10
-0.000385736
-1.19237e-09
-0.000385731
-3.63878e-09
-0.000385733
4.0711e-09
-0.000385738
-3.2043e-09
-0.00038573
-8.0314e-10
-0.000385739
2.23162e-09
-0.000385742
-4.75107e-10
5.57164e-09
-0.000385749
-0.000422468
-5.28056e-09
-0.000422473
3.2798e-09
-0.000422472
-5.351e-09
-0.000422472
3.453e-10
-0.000422471
1.288e-10
-0.000422473
-8.3232e-10
-0.00042247
2.19419e-09
-0.000422466
-6.00257e-09
-0.000422478
1.00705e-08
-0.000422466
-8.0297e-09
-0.000422472
4.20862e-09
4.82403e-09
-0.000422469
-0.000459203
-4.9672e-09
-0.000459203
4.18975e-09
-0.000459207
-4.185e-11
-0.000459213
5.7051e-09
-0.00045921
-3.1368e-09
-0.000459213
-1.9347e-10
-0.000459209
-2.71532e-09
-0.000459214
-3.6918e-10
-0.000459202
-1.09987e-09
-0.000459215
5.34539e-09
-0.000459206
-5.852e-09
5.19167e-09
-0.000459205
-0.000495955
7.0857e-09
-0.000495946
-5.49725e-09
-0.000495945
-3.84605e-09
-0.000495948
8.2605e-09
-0.000495942
-7.5165e-09
-0.000495942
1.7884e-10
-0.000495941
-2.63395e-09
-0.000495938
-5.70646e-09
-0.000495951
1.20347e-08
-0.000495939
-6.48229e-09
-0.000495945
-5.11925e-10
3.90337e-09
-0.000495942
-0.000532668
-6.446e-10
-0.000532676
1.7628e-09
-0.000532681
4.27695e-09
-0.000532669
-2.0454e-09
-0.000532676
2.1695e-10
-0.000532683
7.86711e-09
-0.000532688
3.53806e-09
-0.000532689
-3.12759e-09
-0.000532674
-3.60496e-09
-0.00053269
7.04475e-09
-0.000532679
-1.25616e-08
1.43705e-08
-0.000532689
-0.000569421
-9.4731e-09
-0.000569429
9.8359e-09
-0.000569418
-7.46025e-09
-0.000569416
-7.5321e-09
-0.000569429
1.31235e-08
-0.000569415
-7.75872e-09
-0.000569416
4.10563e-09
-0.00056941
-9.40341e-09
-0.000569415
1.38948e-09
-0.000569413
5.86373e-09
-0.000569417
-6.64426e-09
1.33998e-08
-0.000569415
-0.000606157
8.7595e-10
-0.000606147
2.4597e-09
-0.000606154
-4.0065e-10
-0.000606158
-2.23215e-09
-0.000606138
-6.3354e-09
-0.00060615
2.36375e-09
-0.000606157
1.02629e-08
-0.000606163
-1.97023e-09
-0.000606158
-3.29393e-09
-0.000606148
-4.87299e-09
-0.000606151
-4.01138e-09
1.46877e-08
-0.000606151
-0.000642894
4.361e-10
-0.000642893
-9.222e-10
-0.000642892
-3.2025e-09
-0.000642896
2.1906e-09
-0.000642897
-7.2912e-09
-0.000642904
9.5403e-09
-0.000642888
-5.96836e-09
-0.000642883
-8.3664e-09
-0.0006429
1.29322e-08
-0.000642901
-4.17234e-09
-0.000642917
1.20959e-08
-1.41514e-08
-0.000642888
-0.00067961
-7.13965e-09
-0.00067962
8.72e-09
-0.000679627
5.03085e-09
-0.000679621
-3.44855e-09
-0.000679623
-6.9672e-09
-0.000679629
1.59891e-08
-0.000679624
-8.77806e-09
-0.000679637
8.90552e-09
-0.000679632
8.31919e-09
-0.000679621
-1.68136e-08
-0.000679624
1.65077e-08
-1.78348e-09
-0.000679639
-0.00071639
5.3565e-09
-0.000716367
-1.29288e-08
-0.000716375
1.41496e-08
-0.000716371
-8.28165e-09
-0.00071638
3.9975e-10
-0.000716356
-6.41305e-09
-0.000716374
9.31206e-09
-0.000716355
-1.07044e-08
-0.000716345
-9.69275e-10
-0.000716371
7.35022e-09
-0.000716363
9.15771e-09
-0.000716361
-4.55031e-09
-0.00031226
2.71655e-10
-0.000312265
7.47779e-09
-0.000312267
4.6872e-10
-0.000312266
1.67186e-09
-0.000312263
-7.33516e-09
-0.00031226
-1.01177e-09
-0.000312261
2.04435e-09
-0.000312266
4.01883e-09
-0.000312263
1.34471e-09
-0.000312265
-2.74842e-09
-0.000312262
6.58085e-10
-2.88398e-09
-0.000349003
8.01996e-09
-0.000349002
6.25984e-09
-0.000348997
-5.25991e-09
-0.000348988
-7.59987e-09
-0.000348998
1.57212e-09
-0.000348999
1.5402e-10
-0.000349004
6.91247e-09
-0.000348999
-5.63674e-10
-0.000348993
-5.58404e-09
-0.000348995
-1.18369e-09
-0.000348993
-2.50209e-09
5.70784e-09
-0.000385732
-8.82076e-09
-0.000385723
-4.64577e-09
-0.000385725
-2.79072e-09
-0.000385739
7.32762e-09
-0.000385743
5.0909e-09
-0.000385734
-7.63295e-09
-0.000385728
1.03601e-09
-0.000385731
8.09777e-10
-0.000385732
-5.17731e-09
-0.000385738
6.0558e-09
-0.000385742
2.14316e-09
-5.71941e-09
-0.000422469
-8.47891e-09
-0.000422476
2.56758e-09
-0.000422479
2.3272e-10
-0.000422478
7.06341e-09
-0.000422471
-2.25379e-09
-0.000422471
-8.63975e-09
-0.000422469
1.3966e-09
-0.000422467
-6.84975e-10
-0.00042248
8.36454e-09
-0.000422467
-8.17274e-09
-0.000422472
7.67849e-09
2.23212e-09
-0.000459215
1.25924e-09
-0.000459203
-9.25916e-09
-0.000459206
3.72108e-09
-0.000459196
-4.23084e-09
-0.000459198
1.53114e-09
-0.000459219
1.19656e-08
-0.000459209
-9.41757e-09
-0.000459213
2.49676e-09
-0.000459208
5.31571e-09
-0.000459208
-1.00423e-08
-0.000459209
8.06058e-09
-5.09412e-09
-0.000495943
2.81103e-09
-0.00049595
-7.1278e-10
-0.000495943
-4.0285e-09
-0.000495952
3.37031e-09
-0.000495943
-5.99265e-09
-0.000495944
1.2477e-08
-0.000495943
-9.605e-09
-0.000495951
1.0465e-08
-0.000495936
-9.18795e-09
-0.000495949
1.90728e-09
-0.000495946
6.52477e-09
-3.76265e-09
-0.000532677
-1.18188e-08
-0.000532676
-3.9532e-09
-0.000532691
1.24531e-08
-0.000532688
1.77388e-09
-0.000532694
-4.0986e-10
-0.00053268
4.1671e-10
-0.000532683
-7.23055e-09
-0.000532677
2.90429e-09
-0.000532683
-4.07484e-09
-0.000532676
-5.03333e-09
-0.000532683
1.30218e-08
-1.06847e-08
-0.000569426
7.963e-11
-0.000569425
-7.07985e-09
-0.000569417
4.13505e-09
-0.000569413
-2.77223e-09
-0.000569418
2.0205e-09
-0.000569416
2.728e-11
-0.000569428
3.35445e-09
-0.00056942
-4.53941e-09
-0.00056942
-3.57401e-09
-0.000569423
-1.513e-10
-0.000569403
-6.48531e-09
1.51979e-08
-0.000606151
1.7049e-09
-0.000606149
-8.68964e-09
-0.000606152
8.9676e-09
-0.000606151
-3.37514e-09
-0.000606142
-6.49173e-09
-0.000606156
1.60632e-08
-0.000606157
3.51491e-09
-0.000606148
-1.174e-08
-0.000606169
1.60537e-08
-0.000606155
-1.58081e-08
-0.000606156
-5.90034e-09
7.283e-09
-0.000642888
1.08662e-09
-0.000642897
-8.462e-10
-0.000642889
1.8222e-09
-0.000642887
-5.23893e-09
-0.000642891
-4.14703e-09
-0.000642878
1.80567e-09
-0.000642877
1.38036e-09
-0.000642898
9.37556e-09
-0.000642874
-7.62808e-09
-0.000642898
7.0351e-09
-0.000642899
-2.87811e-09
3.2331e-09
-0.000679639
5.1548e-10
-0.000679635
-4.4833e-09
-0.000679627
-8.9401e-09
-0.000679637
5.03779e-09
-0.000679641
1.4694e-09
-0.000679626
-1.15113e-08
-0.00067963
5.37652e-09
-0.000679622
-6.70456e-10
-0.000679629
-7.43975e-10
-0.000679623
-8.14385e-10
-0.000679632
8.01693e-09
-1.22354e-08
-0.000716361
3.17644e-09
-0.000716356
-6.3928e-09
-0.000716362
-4.0293e-09
-0.000716373
1.7405e-08
-0.000716363
-8.98929e-09
-0.000716367
-9.90321e-09
-0.000716363
1.91988e-09
-0.000716372
9.84611e-09
-0.000716366
-5.88528e-09
-0.000716357
-1.0293e-08
-0.000716369
2.07778e-08
-2.0378e-09
-0.000312263
3.84169e-09
-0.00031226
-1.92562e-09
-0.000312262
1.47685e-09
-0.000312265
8.0265e-10
-0.000312263
-3.83857e-09
-0.00031226
3.6061e-09
-0.000312261
2.043e-11
-0.000312258
-3.4552e-09
-0.000312259
3.15084e-10
-0.000312258
1.44438e-09
-0.000312261
-2.94971e-09
-4.69465e-10
-0.00031226
-0.000348993
-3.9032e-09
-0.000348995
-8.647e-10
-0.000348997
2.4765e-09
-0.000348997
7.8975e-10
-0.000348998
-2.04782e-09
-0.000348996
1.94552e-09
-0.000349
3.07352e-09
-0.000348997
-6.76808e-09
-0.000349003
7.22957e-09
-0.000348996
-4.48955e-09
-0.000348996
-3.06231e-09
-4.1705e-10
-0.000348996
-0.000385743
7.8771e-09
-0.000385741
-1.827e-09
-0.000385734
-4.4959e-09
-0.000385734
3.0965e-10
-0.000385736
-1.19237e-09
-0.000385731
-3.63878e-09
-0.000385733
4.0711e-09
-0.000385738
-3.2043e-09
-0.00038573
-8.0314e-10
-0.000385739
2.23162e-09
-0.000385742
-4.75107e-10
5.57164e-09
-0.000385749
-0.000422468
-5.28056e-09
-0.000422473
3.2798e-09
-0.000422472
-5.351e-09
-0.000422472
3.453e-10
-0.000422471
1.288e-10
-0.000422473
-8.3232e-10
-0.00042247
2.19419e-09
-0.000422466
-6.00257e-09
-0.000422478
1.00705e-08
-0.000422466
-8.0297e-09
-0.000422472
4.20862e-09
4.82403e-09
-0.000422469
-0.000459203
-4.9672e-09
-0.000459203
4.18975e-09
-0.000459207
-4.185e-11
-0.000459213
5.7051e-09
-0.00045921
-3.1368e-09
-0.000459213
-1.9347e-10
-0.000459209
-2.71532e-09
-0.000459214
-3.6918e-10
-0.000459202
-1.09987e-09
-0.000459215
5.34539e-09
-0.000459206
-5.852e-09
5.19167e-09
-0.000459205
-0.000495955
7.0857e-09
-0.000495946
-5.49725e-09
-0.000495945
-3.84605e-09
-0.000495948
8.2605e-09
-0.000495942
-7.5165e-09
-0.000495942
1.7884e-10
-0.000495941
-2.63395e-09
-0.000495938
-5.70646e-09
-0.000495951
1.20347e-08
-0.000495939
-6.48229e-09
-0.000495945
-5.11925e-10
3.90337e-09
-0.000495942
-0.000532668
-6.446e-10
-0.000532676
1.7628e-09
-0.000532681
4.27695e-09
-0.000532669
-2.0454e-09
-0.000532676
2.1695e-10
-0.000532683
7.86711e-09
-0.000532688
3.53806e-09
-0.000532689
-3.12759e-09
-0.000532674
-3.60496e-09
-0.00053269
7.04475e-09
-0.000532679
-1.25616e-08
1.43705e-08
-0.000532689
-0.000569421
-9.4731e-09
-0.000569429
9.8359e-09
-0.000569418
-7.46025e-09
-0.000569416
-7.5321e-09
-0.000569429
1.31235e-08
-0.000569415
-7.75872e-09
-0.000569416
4.10563e-09
-0.00056941
-9.40341e-09
-0.000569415
1.38948e-09
-0.000569413
5.86373e-09
-0.000569417
-6.64426e-09
1.33998e-08
-0.000569415
-0.000606157
8.7595e-10
-0.000606147
2.4597e-09
-0.000606154
-4.0065e-10
-0.000606158
-2.23215e-09
-0.000606138
-6.3354e-09
-0.00060615
2.36375e-09
-0.000606157
1.02629e-08
-0.000606163
-1.97023e-09
-0.000606158
-3.29393e-09
-0.000606148
-4.87299e-09
-0.000606151
-4.01138e-09
1.46877e-08
-0.000606151
-0.000642894
4.361e-10
-0.000642893
-9.222e-10
-0.000642892
-3.2025e-09
-0.000642896
2.1906e-09
-0.000642897
-7.2912e-09
-0.000642904
9.5403e-09
-0.000642888
-5.96836e-09
-0.000642883
-8.3664e-09
-0.0006429
1.29322e-08
-0.000642901
-4.17234e-09
-0.000642917
1.20959e-08
-1.41514e-08
-0.000642888
-0.00067961
-7.13965e-09
-0.00067962
8.72e-09
-0.000679627
5.03085e-09
-0.000679621
-3.44855e-09
-0.000679623
-6.9672e-09
-0.000679629
1.59891e-08
-0.000679624
-8.77806e-09
-0.000679637
8.90552e-09
-0.000679632
8.31919e-09
-0.000679621
-1.68136e-08
-0.000679624
1.65077e-08
-1.78348e-09
-0.000679639
-0.00071639
5.3565e-09
-0.000716367
-1.29288e-08
-0.000716375
1.41496e-08
-0.000716371
-8.28165e-09
-0.00071638
3.9975e-10
-0.000716356
-6.41305e-09
-0.000716374
9.31206e-09
-0.000716355
-1.07044e-08
-0.000716345
-9.69275e-10
-0.000716371
7.35022e-09
-0.000716363
9.15771e-09
-0.000716361
-4.55031e-09
-0.00031226
2.71655e-10
-0.000312265
7.47779e-09
-0.000312267
4.6872e-10
-0.000312266
1.67186e-09
-0.000312263
-7.33516e-09
-0.00031226
-1.01177e-09
-0.000312261
2.04435e-09
-0.000312266
4.01883e-09
-0.000312263
1.34471e-09
-0.000312265
-2.74842e-09
-0.000312262
6.58085e-10
-2.88398e-09
-0.000349003
8.01996e-09
-0.000349002
6.25984e-09
-0.000348997
-5.25991e-09
-0.000348988
-7.59987e-09
-0.000348998
1.57212e-09
-0.000348999
1.5402e-10
-0.000349004
6.91247e-09
-0.000348999
-5.63674e-10
-0.000348993
-5.58404e-09
-0.000348995
-1.18369e-09
-0.000348993
-2.50209e-09
5.70784e-09
-0.000385732
-8.82076e-09
-0.000385723
-4.64577e-09
-0.000385725
-2.79072e-09
-0.000385739
7.32762e-09
-0.000385743
5.0909e-09
-0.000385734
-7.63295e-09
-0.000385728
1.03601e-09
-0.000385731
8.09777e-10
-0.000385732
-5.17731e-09
-0.000385738
6.0558e-09
-0.000385742
2.14316e-09
-5.71941e-09
-0.000422469
-8.47891e-09
-0.000422476
2.56758e-09
-0.000422479
2.3272e-10
-0.000422478
7.06341e-09
-0.000422471
-2.25379e-09
-0.000422471
-8.63975e-09
-0.000422469
1.3966e-09
-0.000422467
-6.84975e-10
-0.00042248
8.36454e-09
-0.000422467
-8.17274e-09
-0.000422472
7.67849e-09
2.23212e-09
-0.000459215
1.25924e-09
-0.000459203
-9.25916e-09
-0.000459206
3.72108e-09
-0.000459196
-4.23084e-09
-0.000459198
1.53114e-09
-0.000459219
1.19656e-08
-0.000459209
-9.41757e-09
-0.000459213
2.49676e-09
-0.000459208
5.31571e-09
-0.000459208
-1.00423e-08
-0.000459209
8.06058e-09
-5.09412e-09
-0.000495943
2.81103e-09
-0.00049595
-7.1278e-10
-0.000495943
-4.0285e-09
-0.000495952
3.37031e-09
-0.000495943
-5.99265e-09
-0.000495944
1.2477e-08
-0.000495943
-9.605e-09
-0.000495951
1.0465e-08
-0.000495936
-9.18795e-09
-0.000495949
1.90728e-09
-0.000495946
6.52477e-09
-3.76265e-09
-0.000532677
-1.18188e-08
-0.000532676
-3.9532e-09
-0.000532691
1.24531e-08
-0.000532688
1.77388e-09
-0.000532694
-4.0986e-10
-0.00053268
4.1671e-10
-0.000532683
-7.19675e-09
-0.000532677
2.87017e-09
-0.000532683
-4.07484e-09
-0.000532676
-5.03333e-09
-0.000532683
1.30218e-08
-1.06847e-08
-0.000569426
7.963e-11
-0.000569425
-7.07985e-09
-0.000569417
4.13505e-09
-0.000569413
-2.77223e-09
-0.000569418
2.0205e-09
-0.000569416
2.728e-11
-0.000569428
3.35445e-09
-0.00056942
-4.53941e-09
-0.00056942
-3.57401e-09
-0.000569423
-1.513e-10
-0.000569403
-6.48531e-09
1.51979e-08
-0.000606151
1.7049e-09
-0.000606149
-8.68964e-09
-0.000606152
8.9676e-09
-0.000606151
-3.37514e-09
-0.000606142
-6.49173e-09
-0.000606156
1.60632e-08
-0.000606157
3.51491e-09
-0.000606148
-1.174e-08
-0.000606169
1.60537e-08
-0.000606155
-1.58081e-08
-0.000606156
-5.90034e-09
7.283e-09
-0.000642888
1.08662e-09
-0.000642897
-8.462e-10
-0.000642889
1.8222e-09
-0.000642887
-5.23893e-09
-0.000642891
-4.14703e-09
-0.000642878
1.80567e-09
-0.000642877
1.38036e-09
-0.000642898
9.37556e-09
-0.000642874
-7.62808e-09
-0.000642898
7.0351e-09
-0.000642899
-2.87811e-09
3.2331e-09
-0.000679639
5.1548e-10
-0.000679635
-4.4833e-09
-0.000679627
-8.9401e-09
-0.000679637
5.03779e-09
-0.000679641
1.4694e-09
-0.000679626
-1.15113e-08
-0.00067963
5.37652e-09
-0.000679622
-6.70456e-10
-0.000679629
-7.43975e-10
-0.000679623
-8.14385e-10
-0.000679632
8.01693e-09
-1.22354e-08
-0.000716361
3.17644e-09
-0.000716356
-6.3928e-09
-0.000716362
-4.0293e-09
-0.000716373
1.7405e-08
-0.000716363
-8.98929e-09
-0.000716367
-9.90321e-09
-0.000716363
1.91988e-09
-0.000716372
9.84611e-09
-0.000716366
-5.88528e-09
-0.000716357
-1.0293e-08
-0.000716369
2.07778e-08
-2.0378e-09
-0.000312263
3.84169e-09
-0.00031226
-1.92562e-09
-0.000312262
1.47685e-09
-0.000312265
8.0265e-10
-0.000312263
-3.83857e-09
-0.00031226
3.6061e-09
-0.000312261
2.043e-11
-0.000312258
-3.4552e-09
-0.000312259
3.15084e-10
-0.000312258
1.44438e-09
-0.000312261
-2.94971e-09
-4.69465e-10
-0.00031226
-0.000348993
-3.9032e-09
-0.000348995
-8.647e-10
-0.000348997
2.4765e-09
-0.000348997
7.8975e-10
-0.000348998
-2.04782e-09
-0.000348996
1.94552e-09
-0.000349
3.07352e-09
-0.000348997
-6.76808e-09
-0.000349003
7.22957e-09
-0.000348996
-4.48955e-09
-0.000348996
-3.06231e-09
-4.1705e-10
-0.000348996
-0.000385743
7.8771e-09
-0.000385741
-1.827e-09
-0.000385734
-4.4959e-09
-0.000385734
3.0965e-10
-0.000385736
-1.19237e-09
-0.000385731
-3.63878e-09
-0.000385733
4.0711e-09
-0.000385738
-3.2043e-09
-0.00038573
-8.0314e-10
-0.000385739
2.23162e-09
-0.000385742
-4.75107e-10
5.57164e-09
-0.000385749
-0.000422468
-5.28056e-09
-0.000422473
3.2798e-09
-0.000422472
-5.351e-09
-0.000422472
3.453e-10
-0.000422471
1.288e-10
-0.000422473
-8.3232e-10
-0.00042247
2.19419e-09
-0.000422466
-6.00257e-09
-0.000422478
1.00705e-08
-0.000422466
-8.0297e-09
-0.000422472
4.20862e-09
4.82403e-09
-0.000422469
-0.000459203
-4.9672e-09
-0.000459203
4.18975e-09
-0.000459207
-4.185e-11
-0.000459213
5.7051e-09
-0.00045921
-3.1368e-09
-0.000459213
-1.9347e-10
-0.000459209
-2.71532e-09
-0.000459214
-3.6918e-10
-0.000459202
-1.09987e-09
-0.000459215
5.31693e-09
-0.000459206
-5.8241e-09
5.19167e-09
-0.000459205
-0.000495955
7.0857e-09
-0.000495946
-5.49725e-09
-0.000495945
-3.84605e-09
-0.000495948
8.2605e-09
-0.000495942
-7.5165e-09
-0.000495942
1.7884e-10
-0.000495941
-2.63395e-09
-0.000495938
-5.70646e-09
-0.000495951
1.20347e-08
-0.000495939
-6.48229e-09
-0.000495945
-5.11925e-10
3.90337e-09
-0.000495942
-0.000532668
-6.446e-10
-0.000532676
1.7628e-09
-0.000532681
4.27695e-09
-0.000532669
-2.0454e-09
-0.000532676
2.1695e-10
-0.000532683
7.86711e-09
-0.000532688
3.53806e-09
-0.000532689
-3.12759e-09
-0.000532674
-3.60496e-09
-0.00053269
7.04475e-09
-0.000532679
-1.25616e-08
1.43705e-08
-0.000532689
-0.000569421
-9.4731e-09
-0.000569429
9.8359e-09
-0.000569418
-7.46025e-09
-0.000569416
-7.5321e-09
-0.000569429
1.31235e-08
-0.000569415
-7.75872e-09
-0.000569416
4.10563e-09
-0.00056941
-9.40341e-09
-0.000569415
9.7106e-10
-0.000569413
6.29243e-09
-0.000569417
-6.64426e-09
1.33998e-08
-0.000569415
-0.000606157
8.7595e-10
-0.000606147
2.4597e-09
-0.000606154
-4.0065e-10
-0.000606158
-2.23215e-09
-0.000606138
-6.3354e-09
-0.00060615
2.36375e-09
-0.000606157
1.02629e-08
-0.000606163
-1.97023e-09
-0.000606159
-3.29393e-09
-0.000606148
-4.87299e-09
-0.000606151
-4.01138e-09
1.46877e-08
-0.000606151
-0.000642894
4.361e-10
-0.000642893
-9.222e-10
-0.000642892
-3.2025e-09
-0.000642896
2.1906e-09
-0.000642897
-7.2912e-09
-0.000642904
9.5403e-09
-0.000642888
-5.96836e-09
-0.000642883
-8.3664e-09
-0.0006429
1.29322e-08
-0.000642901
-4.17234e-09
-0.000642917
1.20959e-08
-1.41514e-08
-0.000642888
-0.00067961
-7.13965e-09
-0.00067962
8.72e-09
-0.000679627
5.03085e-09
-0.000679621
-3.44855e-09
-0.000679623
-6.9672e-09
-0.000679629
1.59891e-08
-0.000679624
-8.77806e-09
-0.000679637
8.90552e-09
-0.000679632
8.31919e-09
-0.000679621
-1.68136e-08
-0.000679624
1.65077e-08
-1.78348e-09
-0.000679639
-0.00071639
5.3565e-09
-0.000716367
-1.29288e-08
-0.000716375
1.41496e-08
-0.000716371
-8.28165e-09
-0.00071638
3.9975e-10
-0.000716356
-6.41305e-09
-0.000716374
9.31206e-09
-0.000716355
-1.07044e-08
-0.000716345
-9.69275e-10
-0.000716371
7.35022e-09
-0.000716363
9.15771e-09
-0.000716361
-4.55031e-09
-0.00031226
2.71655e-10
-0.000312265
7.47779e-09
-0.000312267
4.6872e-10
-0.000312265
1.67186e-09
-0.000312263
-7.33516e-09
-0.00031226
-1.01177e-09
-0.000312261
2.04435e-09
-0.000312266
4.01883e-09
-0.000312263
1.34471e-09
-0.000312265
-2.74842e-09
-0.000312262
6.58085e-10
-2.88398e-09
-0.000349003
8.01996e-09
-0.000349002
6.25984e-09
-0.000348997
-5.25991e-09
-0.000348988
-7.59987e-09
-0.000348998
1.57212e-09
-0.000348999
1.5402e-10
-0.000349004
6.91247e-09
-0.000348999
-5.63674e-10
-0.000348993
-5.58404e-09
-0.000348995
-1.18369e-09
-0.000348993
-2.50209e-09
5.70784e-09
-0.000385732
-8.82076e-09
-0.000385723
-4.64577e-09
-0.000385725
-2.79072e-09
-0.000385739
7.32762e-09
-0.000385743
5.0909e-09
-0.000385734
-7.63295e-09
-0.000385728
1.03601e-09
-0.000385731
8.09777e-10
-0.000385732
-5.17731e-09
-0.000385738
6.0558e-09
-0.000385742
2.14316e-09
-5.71941e-09
-0.000422469
-8.47891e-09
-0.000422476
2.56758e-09
-0.000422479
2.3272e-10
-0.000422478
7.06341e-09
-0.000422471
-2.25379e-09
-0.000422471
-8.63975e-09
-0.000422469
1.3966e-09
-0.000422467
-6.84975e-10
-0.00042248
8.36454e-09
-0.000422467
-8.17274e-09
-0.000422472
7.67849e-09
2.23212e-09
-0.000459215
1.25924e-09
-0.000459203
-9.25916e-09
-0.000459206
3.72108e-09
-0.000459196
-4.23084e-09
-0.000459198
1.53114e-09
-0.000459219
1.19656e-08
-0.000459209
-9.41757e-09
-0.000459213
2.49676e-09
-0.000459208
5.31571e-09
-0.000459208
-1.00423e-08
-0.000459209
8.06058e-09
-5.09412e-09
-0.000495943
2.81103e-09
-0.00049595
-7.1278e-10
-0.000495943
-4.0285e-09
-0.000495952
3.37031e-09
-0.000495943
-5.99265e-09
-0.000495944
1.2477e-08
-0.000495943
-9.605e-09
-0.000495951
1.0465e-08
-0.000495936
-9.18795e-09
-0.000495949
1.90728e-09
-0.000495946
6.52477e-09
-3.76265e-09
-0.000532677
-1.18188e-08
-0.000532676
-3.9532e-09
-0.000532691
1.24531e-08
-0.000532688
1.77388e-09
-0.000532694
-2.35195e-10
-0.00053268
2.0685e-10
-0.000532683
-7.19675e-09
-0.000532677
2.87017e-09
-0.000532683
-4.07484e-09
-0.000532676
-5.03333e-09
-0.000532683
1.30218e-08
-1.06847e-08
-0.000569426
7.963e-11
-0.000569425
-7.07985e-09
-0.000569417
4.13505e-09
-0.000569413
-2.77223e-09
-0.000569418
2.0205e-09
-0.000569416
2.728e-11
-0.000569428
3.35445e-09
-0.00056942
-4.53941e-09
-0.00056942
-3.57401e-09
-0.000569423
-1.513e-10
-0.000569403
-6.48531e-09
1.51979e-08
-0.000606151
1.7049e-09
-0.000606149
-8.68964e-09
-0.000606152
8.9676e-09
-0.000606151
-3.37514e-09
-0.000606142
-6.49173e-09
-0.000606156
1.60632e-08
-0.000606157
3.51491e-09
-0.000606148
-1.174e-08
-0.000606169
1.60537e-08
-0.000606155
-1.58081e-08
-0.000606156
-5.90034e-09
7.283e-09
-0.000642888
1.08662e-09
-0.000642897
-8.462e-10
-0.000642889
1.8222e-09
-0.000642887
-5.23893e-09
-0.000642891
-4.14703e-09
-0.000642878
1.80567e-09
-0.000642877
1.42092e-09
-0.000642898
9.33461e-09
-0.000642874
-7.62808e-09
-0.000642898
7.0351e-09
-0.000642899
-2.87811e-09
3.2331e-09
-0.000679639
5.1548e-10
-0.000679635
-4.4833e-09
-0.000679627
-8.9401e-09
-0.000679637
5.03779e-09
-0.000679641
1.4694e-09
-0.000679626
-1.15113e-08
-0.00067963
5.37652e-09
-0.000679622
-6.70456e-10
-0.000679629
-7.43975e-10
-0.000679623
-8.14385e-10
-0.000679632
8.01693e-09
-1.22354e-08
-0.000716361
3.17644e-09
-0.000716356
-6.3928e-09
-0.000716362
-4.0293e-09
-0.000716373
1.7405e-08
-0.000716363
-8.98929e-09
-0.000716367
-9.90321e-09
-0.000716363
1.91988e-09
-0.000716372
9.84611e-09
-0.000716366
-5.88528e-09
-0.000716357
-1.0293e-08
-0.000716369
2.07778e-08
-2.0378e-09
-0.000312263
3.84169e-09
-0.00031226
-1.92562e-09
-0.000312262
1.47685e-09
-0.000312265
8.0265e-10
-0.000312263
-3.83857e-09
-0.00031226
3.6061e-09
-0.000312261
2.043e-11
-0.000312258
-3.4552e-09
-0.000312259
3.15084e-10
-0.000312258
1.44438e-09
-0.000312261
-2.94971e-09
-4.69465e-10
-0.00031226
-0.000348993
-3.9032e-09
-0.000348995
-8.647e-10
-0.000348997
2.4765e-09
-0.000348997
7.8975e-10
-0.000348998
-2.04782e-09
-0.000348996
1.94552e-09
-0.000349
3.07352e-09
-0.000348997
-6.76808e-09
-0.000349003
7.22957e-09
-0.000348996
-4.48955e-09
-0.000348996
-3.06231e-09
-4.1705e-10
-0.000348996
-0.000385743
7.8771e-09
-0.000385741
-1.827e-09
-0.000385734
-4.4959e-09
-0.000385734
3.0965e-10
-0.000385736
-1.19237e-09
-0.000385731
-3.63878e-09
-0.000385733
4.0711e-09
-0.000385738
-3.2043e-09
-0.00038573
-8.0314e-10
-0.000385739
2.23162e-09
-0.000385742
-4.75107e-10
5.57164e-09
-0.000385749
-0.000422468
-5.28056e-09
-0.000422473
3.2798e-09
-0.000422472
-5.351e-09
-0.000422472
3.453e-10
-0.000422471
1.288e-10
-0.000422473
-8.3232e-10
-0.00042247
2.19419e-09
-0.000422466
-6.00257e-09
-0.000422478
1.00705e-08
-0.000422466
-8.0297e-09
-0.000422472
4.20862e-09
4.82403e-09
-0.000422469
-0.000459203
-4.9672e-09
-0.000459203
4.18975e-09
-0.000459207
-4.185e-11
-0.000459213
5.7051e-09
-0.00045921
-3.1368e-09
-0.000459213
-1.9347e-10
-0.000459209
-2.71532e-09
-0.000459214
-3.6918e-10
-0.000459202
-1.09987e-09
-0.000459215
5.34539e-09
-0.000459206
-5.852e-09
5.19167e-09
-0.000459205
-0.000495955
7.0857e-09
-0.000495946
-5.49725e-09
-0.000495945
-3.84605e-09
-0.000495948
8.2605e-09
-0.000495942
-7.5165e-09
-0.000495942
1.7884e-10
-0.000495941
-2.63395e-09
-0.000495938
-5.70646e-09
-0.000495951
1.20347e-08
-0.000495939
-6.48229e-09
-0.000495945
-5.11925e-10
3.90337e-09
-0.000495942
-0.000532668
-6.446e-10
-0.000532676
1.7628e-09
-0.000532681
4.27695e-09
-0.000532669
-2.0454e-09
-0.000532676
2.1695e-10
-0.000532683
7.86711e-09
-0.000532688
3.53806e-09
-0.000532689
-3.12759e-09
-0.000532674
-3.60496e-09
-0.00053269
7.04475e-09
-0.000532679
-1.25616e-08
1.43705e-08
-0.000532689
-0.000569421
-9.4731e-09
-0.000569429
9.8359e-09
-0.000569418
-7.46025e-09
-0.000569416
-7.5321e-09
-0.000569429
1.31235e-08
-0.000569415
-7.75872e-09
-0.000569416
4.10563e-09
-0.00056941
-9.40341e-09
-0.000569415
9.7106e-10
-0.000569413
6.29243e-09
-0.000569417
-6.64426e-09
1.33998e-08
-0.000569415
-0.000606157
8.7595e-10
-0.000606147
2.4597e-09
-0.000606154
-4.0065e-10
-0.000606158
-2.23215e-09
-0.000606138
-6.3354e-09
-0.00060615
2.36375e-09
-0.000606157
1.02629e-08
-0.000606163
-1.97023e-09
-0.000606159
-3.29393e-09
-0.000606148
-4.87299e-09
-0.000606151
-4.01138e-09
1.46877e-08
-0.000606151
-0.000642894
4.361e-10
-0.000642893
-9.222e-10
-0.000642892
-3.2025e-09
-0.000642896
2.1906e-09
-0.000642897
-7.2912e-09
-0.000642904
9.5403e-09
-0.000642888
-5.96836e-09
-0.000642883
-8.3664e-09
-0.0006429
1.29322e-08
-0.000642901
-4.17234e-09
-0.000642917
1.20959e-08
-1.41514e-08
-0.000642888
-0.00067961
-7.13965e-09
-0.00067962
8.72e-09
-0.000679627
5.03085e-09
-0.000679621
-3.44855e-09
-0.000679623
-6.9672e-09
-0.000679629
1.59891e-08
-0.000679624
-8.77806e-09
-0.000679637
8.90552e-09
-0.000679632
8.31919e-09
-0.000679621
-1.68136e-08
-0.000679624
1.65077e-08
-1.78348e-09
-0.000679639
-0.00071639
5.3565e-09
-0.000716367
-1.29288e-08
-0.000716375
1.41496e-08
-0.000716371
-8.28165e-09
-0.00071638
3.9975e-10
-0.000716356
-6.41305e-09
-0.000716374
9.31206e-09
-0.000716355
-1.07044e-08
-0.000716345
-9.69275e-10
-0.000716371
7.35022e-09
-0.000716363
9.15771e-09
-0.000716361
-4.55031e-09
-0.00031226
2.71655e-10
-0.000312265
7.47779e-09
-0.000312267
4.6872e-10
-0.000312266
1.67186e-09
-0.000312263
-7.33516e-09
-0.00031226
-1.01177e-09
-0.000312261
2.04435e-09
-0.000312266
4.01883e-09
-0.000312263
1.34471e-09
-0.000312265
-2.74842e-09
-0.000312262
6.58085e-10
-2.88398e-09
-0.000349003
8.01996e-09
-0.000349002
6.25984e-09
-0.000348997
-5.25991e-09
-0.000348988
-7.59987e-09
-0.000348998
1.57212e-09
-0.000348999
1.5402e-10
-0.000349004
6.91247e-09
-0.000348999
-5.63674e-10
-0.000348993
-5.58404e-09
-0.000348995
-1.18369e-09
-0.000348993
-2.50209e-09
5.70784e-09
-0.000385732
-8.82076e-09
-0.000385723
-4.64577e-09
-0.000385725
-2.79072e-09
-0.000385739
7.32762e-09
-0.000385743
5.0909e-09
-0.000385734
-7.63295e-09
-0.000385728
1.03601e-09
-0.000385731
8.09777e-10
-0.000385732
-5.17731e-09
-0.000385738
6.0558e-09
-0.000385742
2.14316e-09
-5.71941e-09
-0.000422469
-8.47891e-09
-0.000422476
2.56758e-09
-0.000422479
2.3272e-10
-0.000422478
7.06341e-09
-0.000422471
-2.25379e-09
-0.000422471
-8.63975e-09
-0.000422469
1.3966e-09
-0.000422467
-6.84975e-10
-0.00042248
8.36454e-09
-0.000422467
-8.17274e-09
-0.000422472
7.67849e-09
2.23212e-09
-0.000459215
1.25924e-09
-0.000459203
-9.25916e-09
-0.000459206
3.72108e-09
-0.000459196
-4.23084e-09
-0.000459198
1.53114e-09
-0.000459219
1.19656e-08
-0.000459209
-9.41757e-09
-0.000459213
2.49676e-09
-0.000459208
5.31571e-09
-0.000459208
-1.00423e-08
-0.000459209
8.06058e-09
-5.09412e-09
-0.000495943
2.81103e-09
-0.00049595
-7.1278e-10
-0.000495943
-4.0285e-09
-0.000495952
3.37031e-09
-0.000495943
-5.99265e-09
-0.000495944
1.2477e-08
-0.000495943
-9.605e-09
-0.000495951
1.0465e-08
-0.000495936
-9.18795e-09
-0.000495949
1.90728e-09
-0.000495946
6.52477e-09
-3.76265e-09
-0.000532677
-1.18188e-08
-0.000532676
-3.9532e-09
-0.000532691
1.24531e-08
-0.000532688
1.77388e-09
-0.000532694
-4.0986e-10
-0.00053268
4.1671e-10
-0.000532683
-7.19675e-09
-0.000532677
2.87017e-09
-0.000532683
-4.07484e-09
-0.000532676
-5.03333e-09
-0.000532683
1.30218e-08
-1.06847e-08
-0.000569426
7.963e-11
-0.000569425
-7.07985e-09
-0.000569417
4.13505e-09
-0.000569413
-2.77223e-09
-0.000569418
2.0205e-09
-0.000569416
2.728e-11
-0.000569428
3.35445e-09
-0.00056942
-4.53941e-09
-0.00056942
-3.57401e-09
-0.000569423
-1.513e-10
-0.000569403
-6.48531e-09
1.51979e-08
-0.000606151
1.7049e-09
-0.000606149
-8.68964e-09
-0.000606152
8.9676e-09
-0.000606151
-3.37514e-09
-0.000606142
-6.49173e-09
-0.000606156
1.60632e-08
-0.000606157
3.51491e-09
-0.000606148
-1.174e-08
-0.000606169
1.60537e-08
-0.000606155
-1.58081e-08
-0.000606156
-5.90034e-09
7.283e-09
-0.000642888
1.08662e-09
-0.000642897
-8.462e-10
-0.000642889
1.8222e-09
-0.000642887
-5.23893e-09
-0.000642891
-4.14703e-09
-0.000642878
1.80567e-09
-0.000642877
1.38036e-09
-0.000642898
9.37556e-09
-0.000642874
-7.62808e-09
-0.000642898
7.0351e-09
-0.000642899
-2.87811e-09
3.2331e-09
-0.000679639
5.1548e-10
-0.000679635
-4.4833e-09
-0.000679627
-8.9401e-09
-0.000679637
5.03779e-09
-0.000679641
1.4694e-09
-0.000679626
-1.15113e-08
-0.00067963
5.37652e-09
-0.000679622
-6.70456e-10
-0.000679629
-7.43975e-10
-0.000679623
-8.14385e-10
-0.000679632
8.01693e-09
-1.22354e-08
-0.000716361
3.17644e-09
-0.000716356
-6.3928e-09
-0.000716362
-4.0293e-09
-0.000716373
1.7405e-08
-0.000716363
-8.98929e-09
-0.000716367
-9.90321e-09
-0.000716363
1.91988e-09
-0.000716372
9.84611e-09
-0.000716366
-5.88528e-09
-0.000716357
-1.0293e-08
-0.000716369
2.07778e-08
-2.0378e-09
-0.000753105
1.65607e-08
0.000753092
-0.000753105
-1.62034e-08
-0.00075309
-1.0872e-09
-0.000753097
-1.5672e-09
-0.000753094
3.725e-10
-0.000753102
1.6056e-09
-0.00075309
-2.28861e-09
-0.000753113
8.06906e-09
-0.000753112
-3.2148e-09
-0.000753098
-4.96798e-09
-0.000753101
1.45741e-08
-7.30931e-09
-0.000753097
-0.000789819
-6.78855e-09
0.000789842
-0.000789841
4.1106e-09
-0.000789851
8.7732e-09
-0.000789843
-7.626e-09
-0.000789845
3.3004e-09
-0.000789838
-5.1962e-09
-0.000789847
8.0115e-09
-0.000789844
4.67318e-09
-0.000789843
-4.49214e-09
-0.000789846
-5.07688e-09
-0.000789833
1.12032e-09
-7.36273e-09
-0.000789834
-0.000826593
8.3101e-09
0.000826575
-0.000826576
-8.1416e-09
-0.000826562
-5.7439e-09
-0.000826569
-2.87105e-09
-0.000826568
5.4545e-10
-0.00082658
6.2832e-09
-0.000826571
-4.275e-09
-0.000826564
-3.8362e-09
-0.00082657
2.82866e-09
-0.000826565
-7.42872e-09
-0.000826574
1.06344e-08
5.21294e-09