/*--------------------------------*- C++ -*----------------------------------*\
| =========                 |                                                 |
| \\      /  F ield         | OpenFOAM: The Open Source CFD Toolbox           |
|  \\    /   O peration     | Version:  2.3.1                                 |
|   \\  /    A nd           | Web:      www.OpenFOAM.org                      |
|    \\/     M anipulation  |                                                 |
\*---------------------------------------------------------------------------*/
FoamFile
{
    version     2.0;
    format      ascii;
    class       volScalarField;
    location    "0.7";
    object      p;
}
// * * * * * * * * * * * * * * * * * * * * * * * * * * * * * * * * * * * * * //

dimensions      [0 2 -2 0 0 0 0];

internalField   nonuniform List<scalar> 
3072
(
-0.0523703
-0.0523287
-0.0524814
-0.0528244
-0.0531741
-0.053366
-0.053457
-0.0535351
-0.0536892
-0.0539616
-0.0542408
-0.0543283
-0.0492078
-0.0496195
-0.0502726
-0.0508956
-0.0512597
-0.05132
-0.050931
-0.0503476
-0.0498761
-0.0495658
-0.0491995
-0.0485623
-0.0471976
-0.0482916
-0.0497422
-0.0509139
-0.0514355
-0.0511262
-0.0502116
-0.0490364
-0.0479768
-0.0470592
-0.0460552
-0.0451115
-0.0443694
-0.0463629
-0.0484697
-0.0499769
-0.0505667
-0.0501936
-0.049093
-0.0476947
-0.0463243
-0.0449908
-0.0437603
-0.0430459
-0.0409448
-0.043554
-0.0460007
-0.0476926
-0.0483779
-0.0480467
-0.0469933
-0.0456723
-0.0442221
-0.0426054
-0.041313
-0.040978
-0.0366985
-0.0393748
-0.0418621
-0.0436303
-0.044411
-0.0442821
-0.0435454
-0.0425287
-0.0411293
-0.0393723
-0.038211
-0.0384151
-0.0316584
-0.033947
-0.0361959
-0.0378447
-0.0386623
-0.0387739
-0.038424
-0.0377109
-0.0363987
-0.0347345
-0.0340025
-0.0348971
-0.0260755
-0.0277021
-0.0294099
-0.0306501
-0.0313507
-0.0315694
-0.0314583
-0.0309644
-0.0299085
-0.0287576
-0.0287818
-0.0303735
-0.0203686
-0.0212036
-0.0221237
-0.0226208
-0.0229499
-0.0230894
-0.0231117
-0.022948
-0.022557
-0.0224276
-0.0234563
-0.0256495
-0.014784
-0.0148033
-0.0145151
-0.0143939
-0.0142411
-0.0142581
-0.0145154
-0.0149831
-0.015693
-0.016944
-0.0190921
-0.0218663
-0.00932363
-0.00864833
-0.00755691
-0.00676707
-0.00611701
-0.00610427
-0.00676986
-0.00808834
-0.0100765
-0.0127796
-0.0161215
-0.0196012
-0.00563722
-0.00362195
-0.00178029
-0.000331959
0.000722937
0.000595249
-0.000553354
-0.00270608
-0.00585492
-0.00986882
-0.0143739
-0.0186257
-0.0540715
-0.05344
-0.0525511
-0.0515274
-0.0502329
-0.0482185
-0.0459224
-0.0442681
-0.0438878
-0.0445325
-0.0452555
-0.0454918
-0.0475428
-0.04633
-0.0452942
-0.0442543
-0.0428415
-0.0415794
-0.0405482
-0.0400471
-0.0404671
-0.0417475
-0.0430565
-0.0436049
-0.0444986
-0.0440748
-0.0435069
-0.0425833
-0.0413262
-0.0399083
-0.0387531
-0.0381011
-0.0381341
-0.0390468
-0.0407761
-0.0420978
-0.0428509
-0.0425398
-0.0416364
-0.0402131
-0.0386311
-0.037159
-0.0360164
-0.0353744
-0.0352299
-0.035564
-0.0370893
-0.0397167
-0.0412059
-0.0409958
-0.0398824
-0.0380917
-0.0360623
-0.034202
-0.0327905
-0.0319839
-0.0317521
-0.0318786
-0.0330309
-0.0366879
-0.0391935
-0.0391802
-0.0378593
-0.0356159
-0.033069
-0.0307717
-0.0290064
-0.0279039
-0.0274927
-0.027664
-0.0287421
-0.0326758
-0.0362395
-0.0364003
-0.0349478
-0.0324215
-0.029566
-0.0269735
-0.024881
-0.0234089
-0.0226377
-0.0226659
-0.023638
-0.0272789
-0.0321605
-0.0325146
-0.0311687
-0.0287363
-0.0258735
-0.0230901
-0.0206515
-0.0187248
-0.017429
-0.0169715
-0.0174565
-0.0204147
-0.0277378
-0.0283869
-0.0273906
-0.0251992
-0.0223609
-0.0193496
-0.0165019
-0.0140368
-0.0120857
-0.0108547
-0.0104882
-0.0123809
-0.0242137
-0.0251036
-0.0243764
-0.0222551
-0.0192376
-0.0158826
-0.0126003
-0.0095906
-0.00690551
-0.00468965
-0.00313205
-0.00358986
-0.0222431
-0.0230949
-0.0223754
-0.0199403
-0.0165152
-0.0127905
-0.00917403
-0.0057663
-0.00244933
0.000876399
0.00419447
0.00589103
-0.0215844
-0.0225494
-0.0210382
-0.0180003
-0.0141508
-0.0101869
-0.00644723
-0.00292921
0.000596867
0.00450189
0.00955283
0.0152185
-0.052305
-0.0522635
-0.0524165
-0.0527598
-0.0531103
-0.0533032
-0.0533955
-0.0534752
-0.0536309
-0.0539048
-0.0541852
-0.0542739
-0.0491413
-0.0495529
-0.0502059
-0.0508292
-0.0511939
-0.0512551
-0.0508676
-0.0502862
-0.0498168
-0.0495082
-0.0491435
-0.0485083
-0.0471309
-0.0482241
-0.0496744
-0.0508464
-0.0513683
-0.0510598
-0.0501466
-0.0489736
-0.0479166
-0.0470015
-0.0460004
-0.0450604
-0.0443024
-0.0462953
-0.0484026
-0.0499102
-0.0505
-0.0501272
-0.0490279
-0.0476318
-0.0462643
-0.0449341
-0.0437076
-0.0429967
-0.0408785
-0.0434881
-0.045936
-0.0476282
-0.0483131
-0.0479818
-0.0469295
-0.045611
-0.044164
-0.0425511
-0.041263
-0.0409305
-0.0366336
-0.0393116
-0.0418002
-0.0435686
-0.0443484
-0.0442194
-0.043484
-0.0424701
-0.0410742
-0.0393216
-0.0381652
-0.038371
-0.0315954
-0.0338864
-0.036137
-0.0377855
-0.0386024
-0.0387138
-0.0383653
-0.0376549
-0.0363464
-0.034688
-0.0339627
-0.0348597
-0.0260139
-0.0276434
-0.0293532
-0.0305937
-0.0312936
-0.0315119
-0.0314017
-0.0309102
-0.0298585
-0.0287156
-0.0287495
-0.0303457
-0.0203078
-0.0211455
-0.0220673
-0.0225654
-0.0228944
-0.0230335
-0.0230563
-0.0228946
-0.0225088
-0.0223898
-0.0234309
-0.0256317
-0.0147226
-0.0147439
-0.0144573
-0.0143366
-0.0141846
-0.0142018
-0.0144598
-0.01493
-0.0156463
-0.0169087
-0.0190706
-0.0218548
-0.00926089
-0.00858544
-0.00749482
-0.00670529
-0.00605703
-0.00604564
-0.00671307
-0.0080352
-0.0100305
-0.012745
-0.0161005
-0.0195911
-0.00558071
-0.00355627
-0.00171509
-0.000263529
0.00078743
0.000657381
-0.000494486
-0.00265205
-0.0058085
-0.00983325
-0.0143508
-0.0186137
-0.0540186
-0.0533901
-0.0525062
-0.0514891
-0.0502019
-0.0481942
-0.0459024
-0.0442493
-0.0438682
-0.0445121
-0.0452353
-0.0454724
-0.0474916
-0.046283
-0.045253
-0.0442194
-0.0428124
-0.0415551
-0.0405274
-0.0400277
-0.0404473
-0.0417271
-0.0430367
-0.0435861
-0.0444513
-0.0440311
-0.0434669
-0.0425475
-0.0412951
-0.0398816
-0.0387303
-0.0380809
-0.038115
-0.0390274
-0.0407563
-0.0420784
-0.0428037
-0.042494
-0.041593
-0.0401736
-0.0385966
-0.0371295
-0.0359914
-0.0353528
-0.0352105
-0.0355452
-0.03707
-0.0396975
-0.0411581
-0.0409474
-0.0398356
-0.0380491
-0.0360257
-0.0341717
-0.0327654
-0.0319625
-0.0317331
-0.0318606
-0.0330125
-0.0366688
-0.039147
-0.039131
-0.0378105
-0.0355719
-0.0330324
-0.0307428
-0.0289833
-0.0278846
-0.0274756
-0.0276474
-0.0287245
-0.032657
-0.0361985
-0.0363549
-0.034902
-0.0323806
-0.0295333
-0.0269485
-0.0248614
-0.0233929
-0.0226232
-0.0226514
-0.0236217
-0.0272604
-0.0321297
-0.0324787
-0.0311321
-0.0287038
-0.0258478
-0.0230702
-0.0206359
-0.0187118
-0.0174172
-0.0169595
-0.0174422
-0.0203976
-0.0277194
-0.0283646
-0.0273669
-0.0251773
-0.0223425
-0.0193347
-0.0164898
-0.0140267
-0.0120766
-0.0108455
-0.0104773
-0.0123684
-0.0242048
-0.0250929
-0.0243637
-0.0222419
-0.0192254
-0.0158722
-0.0125919
-0.00958388
-0.00689978
-0.00468404
-0.00312584
-0.0035849
-0.0222385
-0.0230909
-0.0223702
-0.0199339
-0.0165085
-0.0127848
-0.00917002
-0.00576398
-0.00244818
0.000877049
0.00419411
0.00588742
-0.0215803
-0.0225487
-0.0210378
-0.017999
-0.0141493
-0.0101862
-0.00644825
-0.00293217
0.000592055
0.00449566
0.0095439
0.0152038
-0.0524497
-0.0524083
-0.0525619
-0.052906
-0.0532567
-0.0534488
-0.0535394
-0.0536165
-0.0537689
-0.0540388
-0.0543157
-0.0544022
-0.0492876
-0.0497005
-0.0503556
-0.0509805
-0.0513459
-0.0514061
-0.0510163
-0.0504315
-0.0499579
-0.0496453
-0.0492771
-0.0486399
-0.0472764
-0.0483732
-0.0498271
-0.0510012
-0.0515239
-0.0512154
-0.050301
-0.0491259
-0.048066
-0.0471494
-0.0461465
-0.0452003
-0.0444464
-0.0464441
-0.0485552
-0.0500652
-0.0506561
-0.0502838
-0.0491849
-0.047789
-0.0464215
-0.0450906
-0.0438585
-0.0431368
-0.0410182
-0.043632
-0.0460836
-0.0477799
-0.0484643
-0.0481332
-0.0470825
-0.0457665
-0.0443226
-0.0427088
-0.0414094
-0.0410624
-0.0367656
-0.0394453
-0.0419378
-0.0437192
-0.0444895
-0.0443596
-0.0436264
-0.0426165
-0.041225
-0.0394699
-0.0382972
-0.0384856
-0.0317168
-0.0340053
-0.0362514
-0.0378886
-0.0387193
-0.0388361
-0.0384917
-0.0377858
-0.0364817
-0.0348195
-0.0340752
-0.0349518
-0.026125
-0.0277498
-0.0294526
-0.0306905
-0.0313959
-0.0316184
-0.0315122
-0.0310257
-0.0299796
-0.0288345
-0.0288496
-0.0304225
-0.0204106
-0.021242
-0.022149
-0.022656
-0.0229882
-0.023131
-0.0231594
-0.0230062
-0.0226303
-0.0225132
-0.0235381
-0.0257123
-0.014821
-0.0148391
-0.0145603
-0.0144302
-0.0142773
-0.0142995
-0.0145675
-0.0150521
-0.0157839
-0.0170535
-0.0192029
-0.0219585
-0.00935655
-0.00867987
-0.00759081
-0.00680142
-0.00615275
-0.0061498
-0.00683235
-0.00817457
-0.0101903
-0.012916
-0.0162628
-0.0197261
-0.00566851
-0.00363512
-0.00179333
-0.000365732
0.000687495
0.000544048
-0.000627136
-0.00280896
-0.0059894
-0.0100289
-0.0145425
-0.0187801
-0.0541462
-0.0535176
-0.0526319
-0.0516109
-0.0503204
-0.0483149
-0.0460289
-0.0443825
-0.0440047
-0.0446469
-0.0453664
-0.0456015
-0.0476253
-0.0464192
-0.0453861
-0.0443476
-0.0429371
-0.0416778
-0.0406513
-0.0401552
-0.0405781
-0.0418575
-0.0431632
-0.0437106
-0.0445841
-0.044161
-0.0435972
-0.0426786
-0.0414264
-0.040011
-0.0388571
-0.0382064
-0.038241
-0.0391549
-0.0408832
-0.0422023
-0.0429377
-0.0426315
-0.0417364
-0.040318
-0.0387376
-0.0372647
-0.0361209
-0.035478
-0.0353338
-0.0356692
-0.0371943
-0.0398178
-0.0412877
-0.0410863
-0.0399824
-0.0381964
-0.0361673
-0.0343052
-0.0328921
-0.0320849
-0.031854
-0.0319824
-0.0331345
-0.0367879
-0.039261
-0.0392578
-0.0379483
-0.0357115
-0.0331662
-0.0308683
-0.0291029
-0.028002
-0.0275937
-0.0277688
-0.0288489
-0.0327792
-0.0362883
-0.0364579
-0.0350184
-0.032502
-0.0296515
-0.027062
-0.0249729
-0.0235056
-0.02274
-0.022774
-0.0237512
-0.0273909
-0.0321979
-0.0325557
-0.0312221
-0.0288021
-0.0259482
-0.0231715
-0.0207404
-0.0188223
-0.0175357
-0.0170866
-0.017579
-0.0205388
-0.0277825
-0.0284274
-0.0274383
-0.0252568
-0.0224275
-0.0194253
-0.0165889
-0.014137
-0.0121995
-0.0109806
-0.0106245
-0.0125188
-0.0242825
-0.0251575
-0.0244275
-0.022308
-0.0192963
-0.0159521
-0.0126854
-0.00969431
-0.00702807
-0.00482893
-0.00328449
-0.00374413
-0.0223403
-0.0231663
-0.0224323
-0.0199889
-0.0165662
-0.0128539
-0.00925671
-0.00587251
-0.00257935
0.0007255
0.00402806
0.00571935
-0.0217069
-0.0226421
-0.0210988
-0.0180455
-0.0141977
-0.0102471
-0.00652802
-0.00303597
0.000463944
0.00434704
0.0093824
0.0150378
-0.0524891
-0.0524479
-0.0526013
-0.0529448
-0.0532945
-0.0534859
-0.0535761
-0.0536533
-0.0538061
-0.0540766
-0.0543541
-0.0544412
-0.0493271
-0.0497398
-0.0503938
-0.0510174
-0.0513817
-0.0514413
-0.0510515
-0.0504673
-0.0499944
-0.0496824
-0.049314
-0.048675
-0.0473149
-0.048411
-0.0498629
-0.0510351
-0.0515564
-0.0512473
-0.0503329
-0.0491581
-0.0480984
-0.0471806
-0.046175
-0.0452242
-0.0444836
-0.0464794
-0.0485873
-0.050095
-0.0506844
-0.0503111
-0.0492116
-0.0478156
-0.0464473
-0.045114
-0.0438776
-0.0431492
-0.0410535
-0.0436641
-0.046112
-0.0478057
-0.0484883
-0.048156
-0.0471043
-0.0457872
-0.0443412
-0.042724
-0.0414202
-0.0410667
-0.0367994
-0.0394753
-0.0419642
-0.043743
-0.0445107
-0.0443788
-0.0436439
-0.0426316
-0.0412369
-0.0394785
-0.0383025
-0.0384868
-0.0317503
-0.0340349
-0.0362773
-0.0379112
-0.0387393
-0.0388533
-0.0385057
-0.0377963
-0.0364887
-0.0348239
-0.0340781
-0.0349544
-0.0261602
-0.0277813
-0.0294799
-0.0307154
-0.0314176
-0.031636
-0.0315252
-0.031034
-0.0299836
-0.0288352
-0.0288499
-0.0304262
-0.0204491
-0.0212776
-0.0221777
-0.0226867
-0.0230153
-0.0231525
-0.0231742
-0.0230137
-0.0226305
-0.0225074
-0.0235315
-0.0257119
-0.0148644
-0.0148845
-0.0146107
-0.0144728
-0.0143136
-0.0143277
-0.0145855
-0.0150583
-0.0157777
-0.0170372
-0.0191845
-0.021948
-0.00940615
-0.00873187
-0.00764586
-0.00685319
-0.00619886
-0.00618542
-0.0068537
-0.00817867
-0.0101764
-0.0128878
-0.0162305
-0.0197016
-0.00570533
-0.00369561
-0.00186236
-0.00042798
0.000631172
0.000501812
-0.000651024
-0.00281075
-0.00596818
-0.00998896
-0.014495
-0.0187393
-0.0541844
-0.0535512
-0.0526562
-0.0516228
-0.0503192
-0.0483011
-0.0460042
-0.0443496
-0.0439675
-0.0446091
-0.0453301
-0.0455663
-0.0476553
-0.0464397
-0.0453949
-0.0443449
-0.0429247
-0.0416569
-0.0406232
-0.0401215
-0.0405413
-0.0418207
-0.0431286
-0.0436774
-0.0446002
-0.0441665
-0.0435916
-0.042664
-0.0414051
-0.0399849
-0.0388274
-0.0381739
-0.0382065
-0.0391201
-0.0408499
-0.0421711
-0.0429406
-0.0426229
-0.0417178
-0.0402934
-0.0387097
-0.0372352
-0.0360902
-0.0354462
-0.0353008
-0.035636
-0.0371627
-0.039789
-0.0412827
-0.0410705
-0.0399581
-0.0381678
-0.0361375
-0.0342753
-0.0328619
-0.0320536
-0.0318211
-0.0319483
-0.0331021
-0.0367585
-0.0392557
-0.0392437
-0.0379265
-0.0356855
-0.0331391
-0.0308411
-0.0290745
-0.027971
-0.0275594
-0.0277316
-0.0288116
-0.0327446
-0.0362889
-0.0364526
-0.0350058
-0.032484
-0.0296311
-0.0270394
-0.0249464
-0.0234738
-0.0227025
-0.0227313
-0.0237059
-0.0273464
-0.0322048
-0.0325605
-0.0312205
-0.0287942
-0.0259354
-0.0231534
-0.020715
-0.018788
-0.0174922
-0.0170351
-0.0175221
-0.02048
-0.02779
-0.0284373
-0.0274444
-0.0252573
-0.0224217
-0.0194113
-0.0165636
-0.0140984
-0.0121476
-0.010917
-0.0105516
-0.0124406
-0.0242834
-0.0251662
-0.0244376
-0.0223159
-0.0192979
-0.0159426
-0.0126603
-0.00965096
-0.00696671
-0.00475195
-0.00319458
-0.00364559
-0.0223306
-0.0231706
-0.0224447
-0.0200039
-0.0165752
-0.012849
-0.00923249
-0.00582544
-0.00250986
0.000813541
0.00413063
0.00582985
-0.0216847
-0.0226383
-0.0211129
-0.0180656
-0.0142109
-0.0102448
-0.00650475
-0.00298729
0.000537523
0.00444008
0.00948919
0.0151483
0.00121668
0.00230646
0.0043376
0.00586603
0.00570783
0.00506254
0.0035008
0.000784317
-0.00315962
-0.00811411
-0.0134712
-0.0182171
0.00484459
0.00327448
0.00414444
0.00593997
0.00701338
0.00687861
0.00532209
0.00234621
-0.00194997
-0.00725367
-0.0128192
-0.0174922
0.00537504
0.00419248
0.0047842
0.0060919
0.00675443
0.00646544
0.00510449
0.00237844
-0.00174377
-0.00681352
-0.0119557
-0.0160053
0.00566568
0.00486544
0.00499252
0.00554754
0.00576684
0.00545374
0.00433954
0.00200278
-0.00160186
-0.00599648
-0.0103523
-0.0137611
-0.0211385
-0.0215601
-0.0195465
-0.0160708
-0.0120526
-0.00812168
-0.00450858
-0.0011551
0.00211516
0.00542426
0.0084263
0.00906847
-0.0199988
-0.0198784
-0.0175583
-0.0140231
-0.0101846
-0.0065551
-0.00326423
-0.000241194
0.00259864
0.00523392
0.0071996
0.0079588
-0.0177025
-0.0172888
-0.0152259
-0.0121123
-0.00870841
-0.00548318
-0.00256442
0.000105704
0.00256898
0.00474782
0.00631063
0.0068852
-0.0144065
-0.0138224
-0.0124651
-0.0103127
-0.00773615
-0.00505576
-0.00250563
-0.000131715
0.00206496
0.00400658
0.00545439
0.00612221
0.0012802
0.00236486
0.00439546
0.00592754
0.00577413
0.00512758
0.00356229
0.000840452
-0.00311115
-0.00807577
-0.0134442
-0.0182012
0.00490151
0.00333009
0.00420237
0.00600139
0.00707864
0.00694336
0.00538399
0.00240359
-0.00189941
-0.00721246
-0.0127883
-0.0174717
0.00542925
0.00425218
0.00484524
0.00615441
0.00681871
0.00652896
0.00516526
0.00243512
-0.00169306
-0.00677146
-0.0119233
-0.0159811
0.00572078
0.00492825
0.00505429
0.0056093
0.00582859
0.00551378
0.00439643
0.00205592
-0.00155367
-0.00595649
-0.0103214
-0.0137307
-0.0211326
-0.0215598
-0.0195484
-0.0160731
-0.0120551
-0.00812557
-0.0045146
-0.00116367
0.00210383
0.00540996
0.00840569
0.00903433
-0.0199894
-0.0198773
-0.0175611
-0.0140275
-0.0101902
-0.00656269
-0.00327454
-0.000254731
0.00258137
0.00521183
0.00716984
0.00791614
-0.0176922
-0.0172869
-0.0152289
-0.0121183
-0.00871658
-0.00549368
-0.00257804
8.82742e-05
0.00254701
0.00472012
0.00627485
0.00683878
-0.0143967
-0.0138194
-0.012467
-0.0103186
-0.00774573
-0.00506857
-0.00252202
-0.000152363
0.00203925
0.0039747
0.00541475
0.00607358
0.00121357
0.00229592
0.00432551
0.00585438
0.00567229
0.00500543
0.00341718
0.00066846
-0.00331012
-0.00829301
-0.0136617
-0.0183946
0.00483843
0.00325921
0.00412919
0.00592695
0.00697997
0.00681782
0.00523097
0.00222254
-0.0021078
-0.00744035
-0.0130194
-0.017684
0.00537117
0.00418307
0.0047689
0.00606971
0.00671505
0.00640319
0.00501405
0.00225536
-0.00190035
-0.00699799
-0.0121556
-0.0162041
0.00566404
0.00485826
0.0049757
0.00552041
0.0057243
0.0053906
0.00425035
0.00188287
-0.00175356
-0.00617549
-0.0105503
-0.0139869
-0.0212765
-0.021661
-0.0196105
-0.0161181
-0.0121021
-0.00818328
-0.00458826
-0.00125977
0.00198468
0.00527462
0.00826781
0.00891288
-0.0201559
-0.0199842
-0.0176298
-0.0140809
-0.0102447
-0.00662403
-0.00334452
-0.000339539
0.00247675
0.0050927
0.00704812
0.00780974
-0.0178543
-0.0174011
-0.0153122
-0.0121867
-0.00878357
-0.00556519
-0.0026521
8.25003e-06
0.00245666
0.0046131
0.0061622
0.00673996
-0.0145601
-0.0139498
-0.0125749
-0.0104118
-0.0078298
-0.00515273
-0.00260885
-0.000240901
0.00194328
0.00385821
0.00529643
0.00597223
0.00114118
0.00223409
0.00425837
0.00578072
0.00561022
0.00495923
0.00339167
0.000668455
-0.00328256
-0.00824211
-0.0135993
-0.0183378
0.00476452
0.00319574
0.00406133
0.00585124
0.00691298
0.00677051
0.00520759
0.00222543
-0.00207636
-0.00738335
-0.012948
-0.0176151
0.00529072
0.00410993
0.0046983
0.00600035
0.0066542
0.00635803
0.00499063
0.00225868
-0.00186803
-0.00694007
-0.0120821
-0.0161295
0.00558107
0.00478199
0.00490676
0.00545813
0.00567135
0.00535191
0.00423146
0.00188877
-0.00172017
-0.00611749
-0.0104752
-0.0138949
-0.0212444
-0.0216519
-0.0196232
-0.0161371
-0.0121134
-0.00817994
-0.00456588
-0.00121251
0.00205698
0.0053643
0.00836657
0.00901086
-0.0201076
-0.0199698
-0.0176357
-0.0140909
-0.0102468
-0.00661439
-0.00332196
-0.000298389
0.00254117
0.00517569
0.00714085
0.00790075
-0.0178072
-0.0173792
-0.0153048
-0.0121821
-0.00877217
-0.00554342
-0.0026225
4.86757e-05
0.00251216
0.00469075
0.00625351
0.00683
-0.0145078
-0.013913
-0.0125469
-0.0103864
-0.00780297
-0.00511791
-0.00256436
-0.000188599
0.00200906
0.00395093
0.00539841
0.00606602
-2.08134e-05
0.00185017
0.00347554
0.00469604
0.00531546
0.00524828
0.00503063
0.00507228
0.00512134
0.00493816
0.00442101
0.00320193
-6.43095e-05
0.00158815
0.0030146
0.00409075
0.00470009
0.00483819
0.00485701
0.0049328
0.00490212
0.00458617
0.00399666
0.00287412
-0.000153681
0.00131328
0.00257998
0.00355722
0.00417542
0.00445524
0.00458656
0.0046767
0.00460553
0.00419199
0.00351289
0.00254414
-0.000241586
0.00106991
0.00221185
0.00311419
0.0037325
0.00408673
0.00428542
0.00438959
0.00431775
0.00389842
0.0031773
0.00244059
0.000725676
-0.00253849
-0.00609469
-0.00931455
-0.0115162
-0.0116033
-0.0110933
-0.00996367
-0.00831584
-0.00632122
-0.00417881
-0.00201427
0.000403359
-0.00248434
-0.00533807
-0.00779402
-0.00943003
-0.00981449
-0.00951827
-0.00862405
-0.00725362
-0.00555735
-0.00370285
-0.00180354
-0.000143506
-0.00252403
-0.00473152
-0.00664382
-0.00796199
-0.00843186
-0.00826008
-0.00754471
-0.0064041
-0.0049674
-0.00335921
-0.0016727
-0.000956217
-0.00274765
-0.00442413
-0.00590882
-0.00697693
-0.00741011
-0.00729105
-0.00670131
-0.00573397
-0.00449738
-0.00311262
-0.00156293
4.37695e-05
0.00193618
0.00357087
0.0047898
0.00540349
0.00532691
0.0051154
0.00515966
0.00521184
0.00503314
0.00452109
0.0033073
1.0428e-05
0.00167538
0.00310437
0.00417914
0.00478499
0.0049192
0.00494146
0.00502008
0.00499256
0.00468066
0.00409569
0.00297779
-7.6108e-05
0.00139681
0.0026657
0.0036422
0.00425894
0.00453762
0.00467114
0.00476387
0.00469566
0.00428564
0.00361057
0.00264549
-0.000163104
0.00115135
0.00229474
0.00319702
0.0038151
0.00416954
0.00436998
0.00447651
0.00440736
0.00399098
0.00327322
0.0025384
0.000836295
-0.00242522
-0.00597957
-0.00919805
-0.0114003
-0.0115037
-0.0110039
-0.00988214
-0.00824089
-0.00625209
-0.00411421
-0.00195378
0.000512531
-0.00237337
-0.00522663
-0.00768305
-0.00932168
-0.00971588
-0.00942827
-0.00854119
-0.0071768
-0.00548575
-0.00363525
-0.00174122
-3.53285e-05
-0.0024148
-0.00462241
-0.00653599
-0.0078574
-0.00833438
-0.00816977
-0.00746077
-0.00632559
-0.00489333
-0.00328812
-0.00160969
-0.000848223
-0.00264018
-0.00431708
-0.00580332
-0.00687461
-0.007313
-0.00720056
-0.0066166
-0.00565413
-0.00442111
-0.00303597
-0.0015021
0.000101974
0.00199318
0.00362755
0.00484714
0.00546312
0.00539797
0.00517871
0.00522259
0.00527376
0.00509364
0.00457869
0.0033606
7.037e-05
0.00173426
0.00316312
0.00423882
0.00484731
0.00498838
0.00500597
0.00508267
0.00505402
0.00474068
0.00415263
0.00302958
-1.48033e-05
0.0014573
0.00272606
0.00370334
0.00432201
0.0046037
0.00473524
0.00482621
0.00475677
0.00434551
0.00366761
0.00269596
-0.00010072
0.00121322
0.0023564
0.00325917
0.00387847
0.00423438
0.00443362
0.00453859
0.00446825
0.00405085
0.00333105
0.00258843
0.00088501
-0.00238348
-0.00594606
-0.00917129
-0.0113789
-0.0114935
-0.0110006
-0.00988389
-0.00824683
-0.00626236
-0.00412849
-0.00197236
0.000559073
-0.00233433
-0.00519518
-0.0076582
-0.00930279
-0.00970501
-0.00942402
-0.00854227
-0.00718255
-0.00549609
-0.00364997
-0.00176072
8.95304e-06
-0.00237821
-0.00459245
-0.00651224
-0.00783964
-0.00832345
-0.00816507
-0.00746149
-0.00633123
-0.00490376
-0.00330322
-0.00163011
-0.000806416
-0.00260628
-0.00428886
-0.00578074
-0.00685774
-0.00730226
-0.00719578
-0.00661724
-0.00565984
-0.00443172
-0.00305116
-0.00152362
7.85775e-05
0.00196416
0.00359196
0.0048039
0.00541128
0.0053329
0.00510698
0.00514082
0.0051809
0.00498692
0.00445456
0.00321421
4.57677e-05
0.0017039
0.00312617
0.00419429
0.00479397
0.00492377
0.00493365
0.00500088
0.00496147
0.00463568
0.00403271
0.00288986
-4.0493e-05
0.00142576
0.0026879
0.00365771
0.00426791
0.00453997
0.00466311
0.00474489
0.0046653
0.00424281
0.00355235
0.00256589
-0.000127331
0.00118071
0.00231732
0.00321276
0.00382396
0.00417107
0.00436199
0.00445824
0.00437855
0.00395124
0.00322088
0.0024723
0.000710949
-0.00257715
-0.00615278
-0.0093849
-0.011589
-0.0116578
-0.0111373
-0.0100022
-0.00835385
-0.00635779
-0.00422415
-0.00207479
0.000387861
-0.0025208
-0.00539054
-0.00785606
-0.00949361
-0.0098694
-0.00956582
-0.00866726
-0.00729573
-0.00559959
-0.00375238
-0.0018702
-0.00016237
-0.00255846
-0.00477885
-0.00669956
-0.00801995
-0.00848589
-0.00830963
-0.00759128
-0.00644958
-0.00501271
-0.00340788
-0.00174619
-0.0009858
-0.00278149
-0.00446832
-0.00596042
-0.00703124
-0.00746284
-0.00734161
-0.00675012
-0.00578186
-0.00454399
-0.00315074
-0.00164845
-0.000319361
0.000867252
0.00191007
0.00275344
0.00336571
0.00376095
0.0040006
0.00412124
0.00407635
0.00375525
0.00317972
0.00286408
-0.000382236
0.000703016
0.00166622
0.00246145
0.00306369
0.00348102
0.00374852
0.00388919
0.00387987
0.00366903
0.0032988
0.00305441
-0.00043235
0.000570524
0.0014691
0.00222434
0.0028147
0.00324172
0.00353054
0.00369172
0.0037176
0.00359089
0.0033381
0.003157
-0.000472003
0.000463603
0.00130945
0.00203134
0.00260969
0.00304279
0.00334519
0.00352475
0.00358175
0.00351776
0.00334097
0.00324821
-0.000503431
0.000377449
0.00118044
0.00187457
0.00244162
0.00287737
0.00318991
0.0033854
0.00346855
0.00344698
0.00333546
0.00325989
-0.000528617
0.000308317
0.0010767
0.00174814
0.00230512
0.00274168
0.00306196
0.00327095
0.00337569
0.00338623
0.00332411
0.00327448
-0.000548714
0.000253381
0.000994221
0.00164739
0.00219588
0.00263239
0.00295864
0.0031788
0.00330099
0.00333651
0.00331035
0.00327769
-0.000564286
0.000210441
0.000929859
0.00156881
0.00211044
0.00254662
0.00287748
0.00310662
0.00324259
0.00329737
0.00329626
0.00327691
-0.000576107
0.000177828
0.000881186
0.00150948
0.00204592
0.00248181
0.00281623
0.00305236
0.00319885
0.00326806
0.00328418
0.00327493
-0.000584938
0.000154016
0.000846017
0.00146696
0.00199991
0.00243577
0.00277294
0.00301426
0.00316837
0.00324781
0.00327537
0.00327327
-0.000591612
0.000137813
0.000822851
0.00143936
0.00197044
0.0024066
0.002746
0.00299092
0.00315008
0.003236
0.00327054
0.00327277
-0.000596414
0.000129102
0.000811103
0.00142574
0.00195582
0.00239305
0.00273374
0.00298057
0.00314227
0.00323128
0.00326907
0.00327338
-0.00189187
-0.00306624
-0.00428587
-0.00542105
-0.00627041
-0.00662919
-0.00653537
-0.00603186
-0.00519389
-0.00411088
-0.00287592
-0.00151194
-0.00250039
-0.00331629
-0.00421056
-0.0050808
-0.00574797
-0.00602841
-0.00594329
-0.00549868
-0.00475773
-0.00379425
-0.00268477
-0.00146469
-0.00292832
-0.0034853
-0.00416725
-0.00483919
-0.00535836
-0.00557051
-0.00547786
-0.00507237
-0.00440464
-0.00353494
-0.0025277
-0.00142334
-0.00322281
-0.00361616
-0.00414092
-0.00466193
-0.00506441
-0.00522957
-0.00511167
-0.00473144
-0.00411922
-0.00332349
-0.00239884
-0.00138803
-0.00343104
-0.00371507
-0.00412194
-0.00452809
-0.00483863
-0.00495936
-0.00482198
-0.00445936
-0.00388956
-0.00315223
-0.00229442
-0.00135852
-0.00357764
-0.00378815
-0.00410667
-0.00442546
-0.00466337
-0.00473857
-0.00459261
-0.00424336
-0.00370629
-0.00301492
-0.00221073
-0.00133436
-0.00368089
-0.00384111
-0.00409377
-0.00434643
-0.00452795
-0.00456606
-0.00441301
-0.00407387
-0.00356202
-0.00290656
-0.0021447
-0.00131482
-0.00375273
-0.00387854
-0.00408273
-0.00428598
-0.00442486
-0.00443457
-0.00427521
-0.00394357
-0.00345099
-0.00282318
-0.00209407
-0.00129968
-0.00380125
-0.00390376
-0.00407334
-0.00424077
-0.0043486
-0.00433764
-0.00417305
-0.00384689
-0.00336868
-0.00276159
-0.0020571
-0.00128884
-0.00383191
-0.0039192
-0.00406547
-0.0042084
-0.00429509
-0.00427156
-0.00410172
-0.00377946
-0.00331153
-0.00271925
-0.00203245
-0.00128225
-0.00384846
-0.00392657
-0.00405889
-0.00418692
-0.00426087
-0.00422854
-0.00405706
-0.00373765
-0.00327657
-0.002694
-0.00201909
-0.00127844
-0.003854
-0.00392827
-0.00405422
-0.00417524
-0.00424244
-0.00420698
-0.00403541
-0.00371794
-0.00326067
-0.00268324
-0.00201572
-0.0012764
-0.000241847
0.000946818
0.00199093
0.00283476
0.00344754
0.00384349
0.00408499
0.00420784
0.00416535
0.00384665
0.00327366
0.00296007
-0.000306472
0.000780932
0.00174557
0.0025417
0.00314489
0.00356273
0.00383268
0.00397545
0.00396827
0.00375946
0.00339152
0.00314915
-0.000358251
0.000646957
0.00154728
0.00230381
0.00289556
0.0033246
0.00361462
0.00377765
0.00380545
0.00368051
0.00342966
0.0032514
-0.000399664
0.000538658
0.00138665
0.0021102
0.00269019
0.00312519
0.00342906
0.00361035
0.00366909
0.00360655
0.00343114
0.003337
-0.000432417
0.00045142
0.00125678
0.00195289
0.00252175
0.00295938
0.00327353
0.0034707
0.00355546
0.00353521
0.00342468
0.00334875
-0.00045827
0.000381524
0.00115242
0.00182601
0.00238495
0.00282341
0.00314536
0.00335598
0.00346223
0.00347399
0.0034127
0.00336302
-0.000478904
0.000325969
0.00106945
0.0017249
0.00227544
0.00271393
0.00304185
0.0032636
0.00338723
0.0034239
0.00339848
0.00336596
-0.000495337
0.000282469
0.00100464
0.00164597
0.0021898
0.00262798
0.00296053
0.00319123
0.00332858
0.00338448
0.00338406
0.00336495
-0.000508212
0.000249223
0.000955554
0.0015864
0.00212509
0.002563
0.00289916
0.00313682
0.00328466
0.00335496
0.00337174
0.00336277
-0.000517991
0.000224936
0.000920125
0.00154369
0.00207896
0.00251686
0.00285578
0.00309863
0.00325406
0.00333455
0.00336277
0.00336097
-0.000525976
0.000208276
0.000896775
0.00151599
0.00204938
0.00248758
0.00282878
0.00307524
0.0032357
0.00332264
0.00335785
0.00336039
-0.000530724
0.00019939
0.000884976
0.00150228
0.00203477
0.002474
0.0028165
0.00306488
0.00322786
0.00331788
0.00335634
0.00336096
-0.00178458
-0.00296046
-0.0041806
-0.0053175
-0.00616994
-0.00653282
-0.00644497
-0.00594667
-0.00511315
-0.00403358
-0.00280046
-0.00144721
-0.00239468
-0.00321165
-0.00410677
-0.00497887
-0.00564913
-0.00593305
-0.00585325
-0.00541323
-0.00467641
-0.00371638
-0.0026096
-0.00139754
-0.00282395
-0.00338169
-0.0040647
-0.00473861
-0.00526104
-0.00547872
-0.00538846
-0.00498683
-0.00432298
-0.00345675
-0.00245258
-0.00135442
-0.00311948
-0.00351351
-0.00403942
-0.00456239
-0.00496803
-0.00513895
-0.00502259
-0.0046459
-0.00403737
-0.00324509
-0.00232373
-0.00131785
-0.00332859
-0.00361324
-0.00402128
-0.00442933
-0.00474257
-0.00486611
-0.00473277
-0.00437379
-0.00380759
-0.00307368
-0.0022192
-0.00128745
-0.00347592
-0.00368701
-0.0040067
-0.00432731
-0.00456762
-0.00464509
-0.00450335
-0.00415778
-0.00362425
-0.00293626
-0.00213529
-0.00126247
-0.00357976
-0.00374054
-0.00399436
-0.00424876
-0.00443253
-0.00447303
-0.00432381
-0.00398828
-0.00347995
-0.00282784
-0.00206907
-0.00124226
-0.00365207
-0.00377842
-0.00398375
-0.0041887
-0.00432974
-0.00434194
-0.00418612
-0.00385801
-0.00336891
-0.00274445
-0.00201836
-0.00122656
-0.00370094
-0.00380399
-0.00397469
-0.00414378
-0.00425374
-0.00424517
-0.00408405
-0.00376136
-0.00328663
-0.00268291
-0.00198148
-0.0012154
-0.00373185
-0.00381968
-0.00396705
-0.00411162
-0.00420043
-0.00417945
-0.00401282
-0.00369396
-0.00322952
-0.00264069
-0.00195712
-0.00120841
-0.00374856
-0.0038272
-0.00396062
-0.00409027
-0.00416634
-0.0041366
-0.00396822
-0.00365218
-0.00319459
-0.00261559
-0.00194434
-0.00120407
-0.00375417
-0.00382898
-0.00395602
-0.00407865
-0.00414797
-0.0041151
-0.0039466
-0.00363249
-0.00317871
-0.00260497
-0.00194204
-0.00120078
-0.00017788
0.00101
0.00205366
0.00289765
0.00351109
0.00390776
0.00414819
0.00426964
0.00422593
0.00390622
0.00333166
0.00301394
-0.000240956
0.000845303
0.00180921
0.00260515
0.00320857
0.00362712
0.00389554
0.00403703
0.00402858
0.00381856
0.00344964
0.00320536
-0.000291371
0.000712386
0.0016117
0.00236773
0.0029592
0.00338726
0.00367709
0.00383909
0.00386564
0.00373934
0.00348812
0.00330974
-0.000331557
0.000605007
0.00145173
0.0021745
0.00275391
0.00318803
0.00349137
0.00367171
0.00372927
0.00366526
0.0034896
0.00339219
-0.000363339
0.000518541
0.00132245
0.00201754
0.00258562
0.00302235
0.0033358
0.00353203
0.00361569
0.00359423
0.00348314
0.00340549
-0.000388595
0.000449245
0.00121859
0.00189097
0.00244895
0.00288648
0.00320763
0.00341732
0.00352254
0.00353326
0.00347131
0.00342048
-0.000408746
0.00039415
0.00113602
0.00179012
0.00233957
0.00277706
0.00310414
0.00332498
0.00344762
0.00348335
0.00345729
0.00342398
-0.000424756
0.000351012
0.00107152
0.00171142
0.00225406
0.00269119
0.00302285
0.00325265
0.00338906
0.00344409
0.00344306
0.00342336
-0.000437084
0.000318124
0.00102269
0.00165204
0.00218946
0.00262629
0.0029615
0.00319828