/*--------------------------------*- C++ -*----------------------------------*\
| =========                 |                                                 |
| \\      /  F ield         | OpenFOAM: The Open Source CFD Toolbox           |
|  \\    /   O peration     | Version:  2.3.1                                 |
|   \\  /    A nd           | Web:      www.OpenFOAM.org                      |
|    \\/     M anipulation  |                                                 |
\*---------------------------------------------------------------------------*/
FoamFile
{
    version     2.0;
    format      ascii;
    class       volScalarField;
    location    "0.05";
    object      p;
}
// * * * * * * * * * * * * * * * * * * * * * * * * * * * * * * * * * * * * * //

dimensions      [0 2 -2 0 0 0 0];

internalField   nonuniform List<scalar> 
15166
(
-6.15858
-11.7007
-14.7122
-17.0895
-19.073
-20.7503
-22.2385
-23.5289
-24.6415
-25.4945
-26.2667
-26.8797
-11.4464
-14.2539
-15.7265
-17.5278
-19.1982
-20.7023
-22.0654
-23.2848
-24.3503
-25.223
-25.9978
-26.6333
-17.2316
-18.2207
-18.4919
-19.5078
-20.57
-21.6474
-22.6998
-23.6771
-24.5668
-25.3357
-26.02
-26.596
-20.5816
-21.0314
-20.9928
-21.6058
-22.2319
-22.9439
-23.6909
-24.4193
-25.1094
-25.7298
-26.2907
-26.7647
-22.7017
-22.9756
-22.9197
-23.3624
-23.7583
-24.2449
-24.7726
-25.3046
-25.8233
-26.3035
-26.7466
-27.136
-24.5672
-24.6916
-24.6058
-24.9158
-25.1624
-25.498
-25.8674
-26.2479
-26.6267
-26.9849
-27.3199
-27.6208
-26.362
-26.3541
-26.2177
-26.3979
-26.5192
-26.7293
-26.9678
-27.2221
-27.4812
-27.7302
-27.9629
-28.167
-28.0245
-27.92
-27.7455
-27.8171
-27.8359
-27.9382
-28.0647
-28.2104
-28.3654
-28.5182
-28.662
-28.7839
-29.5369
-29.3598
-29.163
-29.1514
-29.0921
-29.1069
-29.141
-29.1953
-29.2616
-29.3315
-29.3994
-29.457
-30.9223
-30.6868
-30.4759
-30.3989
-30.2801
-30.2248
-30.1837
-30.1625
-30.1541
-30.1523
-30.1509
-30.1414
-32.2053
-31.9222
-31.7007
-31.57
-31.404
-31.2911
-31.1883
-31.1039
-31.0319
-30.9687
-30.9081
-30.8296
-33.4051
-33.0813
-32.8511
-32.6745
-32.4697
-32.3084
-32.154
-32.0163
-31.8903
-31.7748
-31.668
-31.5548
-34.5299
-34.1722
-33.935
-33.7191
-33.4819
-33.2792
-33.0811
-32.898
-32.7256
-32.5634
-32.412
-32.2636
-35.5885
-35.2014
-34.9586
-34.7089
-34.4443
-34.2062
-33.9707
-33.7479
-33.5343
-33.3283
-33.1215
-32.9027
-36.5879
-36.1753
-35.9277
-35.6483
-35.3605
-35.0919
-34.8244
-34.5678
-34.3198
-34.0829
-33.8595
-33.6214
-37.5337
-37.0989
-36.847
-36.5418
-36.234
-35.9389
-35.644
-35.3584
-35.0802
-34.8112
-34.5567
-34.3105
-38.4309
-37.9768
-37.7211
-37.3929
-37.0677
-36.7493
-36.4304
-36.1192
-35.8146
-35.5175
-35.2311
-34.9605
-39.2848
-38.8129
-38.5534
-38.2045
-37.8639
-37.525
-37.185
-36.8514
-36.524
-36.204
-35.8928
-35.5965
-40.0974
-39.61
-39.347
-38.9796
-38.6255
-38.2682
-37.9096
-37.5559
-37.208
-36.8676
-36.5356
-36.214
-40.8725
-40.3711
-40.1047
-39.7205
-39.3542
-38.9803
-38.6049
-38.2332
-37.8665
-37.5073
-37.1576
-36.8213
-41.6125
-41.0983
-40.8287
-40.4293
-40.052
-39.6631
-39.2725
-38.8844
-38.5005
-38.123
-37.7545
-37.4064
-42.319
-41.7937
-41.5212
-41.1078
-40.7204
-40.318
-39.9137
-39.5105
-39.1108
-38.7158
-38.3245
-37.9452
-42.9977
-42.4604
-42.1842
-41.7579
-41.3615
-40.9466
-40.53
-40.1135
-39.7002
-39.2925
-38.89
-38.4975
-43.6459
-43.0977
-42.819
-42.381
-41.9762
-41.5502
-41.1225
-40.6943
-40.2691
-39.8494
-39.4347
-39.0266
-44.26
-43.7068
-43.4264
-42.978
-42.5657
-42.1296
-41.6919
-41.253
-40.8166
-40.3856
-39.96
-39.5348
-44.8548
-44.2922
-44.0086
-43.5502
-43.1311
-42.6858
-42.239
-41.7902
-41.3435
-40.9016
-40.4653
-40.031
-45.4239
-44.8526
-44.567
-44.0991
-43.6736
-43.2196
-42.7644
-42.3065
-41.8505
-41.3994
-40.9557
-40.5111
-45.9691
-45.3895
-45.1018
-44.6253
-44.1939
-43.7319
-43.2688
-42.8024
-42.3375
-41.8762
-41.4208
-40.9674
-46.485
-45.904
-45.6144
-45.1296
-44.6927
-44.2233
-43.753
-43.2789
-42.806
-42.3363
-41.8711
-41.4043
-46.9796
-46.3976
-46.1052
-45.6127
-45.1708
-44.6947
-44.2178
-43.7367
-43.2568
-42.7805
-42.3104
-41.8336
-47.4562
-46.8708
-46.5745
-46.0753
-45.6289
-45.1465
-44.6636
-44.176
-43.6895
-43.2064
-42.7299
-42.2492
-47.9169
-47.3241
-47.0245
-46.5185
-46.0676
-45.5791
-45.0906
-44.5969
-44.1042
-43.6145
-43.1324
-42.6453
-48.346
-47.7545
-47.4537
-46.9418
-46.4868
-45.9929
-45.4992
-44.9999
-44.5012
-44.0049
-43.515
-43.0244
-48.7637
-48.1674
-47.8633
-47.3459
-46.8873
-46.3884
-45.8899
-45.3855
-44.8817
-44.3803
-43.8855
-43.3896
-49.1616
-48.5606
-48.2549
-47.7317
-47.2696
-46.766
-46.263
-45.754
-45.2456
-44.7398
-44.2404
-43.7431
-49.5356
-48.9343
-48.6277
-48.0993
-47.634
-47.1259
-46.6187
-46.1052
-45.5926
-45.0828
-44.5807
-44.0806
-49.8936
-49.29
-48.9829
-48.4489
-47.9806
-47.4683
-46.9571
-46.4391
-45.9216
-45.406
-44.8958
-44.391
-50.2395
-49.6295
-49.3209
-48.7812
-48.3101
-47.7936
-47.2784
-46.7561
-46.234
-45.713
-45.1941
-44.672
-50.5577
-49.9487
-49.6413
-49.096
-48.6225
-48.1022
-47.5836
-47.0574
-46.5315
-46.0069
-45.4834
-44.9369
-50.8677
-50.2524
-49.9447
-49.3935
-48.918
-48.3944
-47.8729
-47.3438
-46.8152
-46.2903
-45.7783
-45.2549
-51.1537
-50.5383
-50.2302
-49.6737
-49.1971
-48.6704
-48.1462
-47.6144
-47.0825
-46.5513
-46.0263
-45.5086
-51.4241
-50.8096
-50.4978
-49.937
-49.4597
-48.9301
-48.4034
-47.8687
-47.3343
-46.8011
-46.2737
-45.7417
-51.6831
-51.0653
-50.7493
-50.1846
-49.7063
-49.1738
-48.6447
-48.1075
-47.5705
-47.0348
-46.5048
-45.9678
-51.9162
-51.3027
-50.9856
-50.4156
-49.9372
-49.4019
-48.8707
-48.3309
-47.7913
-47.2531
-46.7218
-46.186
-52.1417
-51.5254
-51.2061
-50.6305
-50.1525
-49.6145
-49.0813
-48.5392
-47.9972
-47.456
-46.9211
-46.3853
-52.344
-51.7294
-51.4096
-50.8299
-50.3531
-49.8119
-49.2767
-48.7325
-48.1885
-47.6456
-47.1106
-46.5816
-52.5321
-51.9177
-51.5954
-51.0157
-50.539
-49.9942
-49.4572
-48.9108
-48.3645
-47.8186
-47.277
-46.7404
-52.7024
-52.0902
-51.7657
-51.1851
-50.7095
-50.161
-49.6225
-49.0742
-48.5261
-47.9789
-47.437
-46.9044
-52.8616
-52.2496
-51.9202
-51.3399
-50.8649
-50.3119
-49.7727
-49.2229
-48.6733
-48.1243
-47.5786
-47.0391
-53.0046
-52.3959
-52.0564
-51.485
-51.0034
-50.4461
-49.9083
-49.3572
-48.8062
-48.2563
-47.7111
-47.1756
-53.1274
-52.5235
-52.1801
-51.6137
-51.1225
-50.5689
-50.0309
-49.4773
-48.9247
-48.3727
-47.8228
-47.2776
-53.2391
-52.6368
-52.2899
-51.7256
-51.2298
-50.6797
-50.1376
-49.5829
-49.0294
-48.476
-47.924
-47.365
-53.3345
-52.734
-52.3851
-51.8213
-51.3238
-50.7742
-50.2305
-49.6755
-49.1217
-48.5693
-48.0232
-47.4757
-53.4112
-52.8151
-52.465
-51.9024
-51.4034
-50.8536
-50.3092
-49.754
-49.1998
-48.6467
-48.0998
-47.5497
-53.4761
-52.8829
-52.5307
-51.9684
-51.4684
-50.9186
-50.3734
-49.8177
-49.2626
-48.7079
-48.1595
-47.6116
-53.5245
-52.936
-52.5818
-52.0199
-51.5189
-50.9691
-50.4232
-49.8672
-49.3113
-48.7552
-48.2036
-47.6539
-53.5632
-52.9734
-52.618
-52.0567
-51.5551
-51.0054
-50.4591
-49.903
-49.3471
-48.7914
-48.2409
-47.6967
-53.5769
-52.9958
-52.6394
-52.0789
-51.5768
-51.0274
-50.4811
-49.9253
-49.3697
-48.8141
-48.2614
-47.7084
-53.5859
-53.0031
-52.646
-52.0865
-51.5842
-51.0352
-50.489
-49.9337
-49.3788
-48.8255
-48.2808
-47.7494
-53.5734
-52.9949
-52.6378
-52.0792
-51.5769
-51.0285
-50.4826
-49.9276
-49.3727
-48.818
-48.2666
-47.7258
-53.547
-52.9725
-52.6152
-52.0579
-51.5555
-51.0075
-50.4616
-49.9066
-49.3514
-48.7964
-48.2438
-47.6939
-53.5108
-52.9383
-52.5793
-52.0227
-51.5202
-50.9726
-50.4269
-49.872
-49.3166
-48.7614
-48.2081
-47.6491
-53.459
-52.8874
-52.5286
-51.973
-51.4707
-50.9238
-50.3787
-49.8245
-49.2698
-48.7159
-48.1675
-47.6244
-53.3877
-52.8209
-52.463
-51.909
-51.4072
-50.8613
-50.317
-49.7639
-49.2103
-48.6569
-48.1064
-47.5567
-53.3048
-52.7404
-52.3828
-51.8305
-51.3295
-50.7849
-50.2417
-49.6899
-49.1377
-48.5864
-48.0404
-47.4992
-53.2052
-52.6455
-52.2886
-51.738
-51.2379
-50.6945
-50.1525
-49.6021
-49.0512
-48.5011
-47.9547
-47.4103
-53.0928
-52.5377
-52.1806
-51.6315
-51.1322
-50.5901
-50.0493
-49.5003
-48.9507
-48.4023
-47.8597
-47.3261
-52.9727
-52.4155
-52.0581
-51.5107
-51.0124
-50.4716
-49.932
-49.3843
-48.836
-48.2879
-47.743
-47.2052
-52.8241
-52.2754
-51.9202
-51.3753
-50.8782
-50.3391
-49.8009
-49.2547
-48.7078
-48.1616
-47.6202
-47.0961
-52.6671
-52.1224
-51.7684
-51.2256
-50.7299
-50.1924
-49.656
-49.1112
-48.566
-48.0211
-47.4782
-46.9495
-52.4981
-51.9571
-51.6028
-51.0623
-50.5677
-50.0319
-49.4972
-48.9541
-48.4106
-47.8679
-47.3279
-46.8106
-52.315
-51.7756
-51.423
-50.8849
-50.3918
-49.8576
-49.3244
-48.7833
-48.2415
-47.7003
-47.1594
-46.6329
-52.1177
-51.582
-51.2289
-50.693
-50.2015
-49.6695
-49.1381
-48.5988
-48.0585
-47.5191
-46.9793
-46.4508
-51.8981
-51.3697
-51.0199
-50.4874
-49.9976
-49.4678
-48.9385
-48.4013
-47.8633
-47.3267
-46.7923
-46.2754
-51.6666
-51.1438
-50.7963
-50.2669
-49.7794
-49.2522
-48.7252
-48.1905
-47.6547
-47.12
-46.5851
-46.0597
-51.43
-50.9092
-50.5608
-50.0335
-49.5476
-49.0229
-48.4983
-47.9662
-47.4332
-46.9016
-46.3728
-45.8617
-51.1731
-50.6568
-50.3101
-49.7861
-49.3024
-48.7799
-48.258
-47.7286
-47.1982
-46.6688
-46.1396
-45.6212
-50.9018
-50.3884
-50.0443
-49.5239
-49.0428
-48.5231
-48.0037
-47.4773
-46.95
-46.4243
-45.901
-45.3962
-50.6147
-50.1072
-49.7644
-49.2473
-48.7687
-48.2519
-47.7357
-47.2123
-46.6882
-46.1657
-45.6436
-45.1325
-50.3086
-49.8089
-49.4692
-48.9562
-48.4803
-47.9667
-47.4535
-46.9332
-46.4126
-45.894
-45.3795
-44.8877
-49.9936
-49.498
-49.1601
-48.651
-48.1777
-47.6674
-47.1572
-46.6398
-46.1219
-45.6053
-45.0885
-44.5891
-49.6655
-49.1738
-48.8377
-48.3321
-47.8616
-47.3543
-46.8469
-46.3324
-45.817
-45.3022
-44.7851
-44.2752
-49.3212
-48.8341
-48.5
-47.9986
-47.5311
-47.0273
-46.523
-46.0123
-45.5007
-44.9906
-44.4817
-43.982
-48.9607
-48.4792
-48.1477
-47.6507
-47.1864
-46.6863
-46.186
-45.6794
-45.1724
-44.6679
-44.1683
-43.6898
-48.5845
-48.1092
-47.7806
-47.2882
-46.8275
-46.3313
-45.8349
-45.3323
-44.8289
-44.3268
-43.8251
-43.3364
-48.1921
-47.725
-47.3995
-46.9117
-46.4544
-45.962
-45.4692
-44.9706
-44.471
-43.9728
-43.4767
-43.0025
-47.7943
-47.3286
-47.0044
-46.5213
-46.0672
-45.5786
-45.09
-44.5951
-44.0996
-43.605
-43.1097
-42.6229
-47.3752
-46.9156
-46.5942
-46.1161
-45.6657
-45.1815
-44.6968
-44.2065
-43.7156
-43.227
-42.7418
-42.2817
-46.9393
-46.4863
-46.1685
-45.6957
-45.2497
-44.77
-44.29
-43.8043
-43.3179
-42.8341
-42.3525
-41.9003
-46.4886
-46.0427
-45.7287
-45.2613
-44.8194
-44.3444
-43.8689
-43.3876
-42.9055
-42.4251
-41.9448
-41.4961
-46.0244
-45.5843
-45.2737
-44.8118
-44.3743
-43.9043
-43.4335
-42.9567
-42.4789
-42.0018
-41.5188
-41.044
-45.5458
-45.1118
-44.8047
-44.3486
-43.9156
-43.4505
-42.9849
-42.5136
-42.0422
-41.5743
-41.1102
-40.6866
-45.0535
-44.6264
-44.3217
-43.8712
-43.4427
-42.9828
-42.5226
-42.057
-41.5917
-41.1293
-40.6646
-40.2214
-44.5477
-44.124
-43.8233
-43.379
-42.9553
-42.5009
-42.0457
-41.5856
-41.1256
-40.6677
-40.2087
-39.7758
-44.0189
-43.6058
-43.3097
-42.8716
-42.4529
-42.0042
-41.5544
-41.1001
-40.6456
-40.1934
-39.7395
-39.3008
-43.4845
-43.0744
-42.781
-42.349
-41.9359
-41.4928
-41.049
-40.6008
-40.1527
-39.7079
-39.2657
-38.8531
-42.9329
-42.528
-42.2378
-41.812
-41.404
-40.9671
-40.5293
-40.0874
-39.6452
-39.2054
-38.7633
-38.3339
-42.3538
-41.9605
-41.6772
-41.259
-40.8572
-40.4268
-39.9951
-39.5597
-39.1242
-38.6917
-38.2603
-37.8562
-41.7719
-41.3833
-41.1024
-40.6909
-40.2952
-39.8716
-39.4467
-39.018
-38.59
-38.1649
-37.7391
-37.3279
-41.1698
-40.7888
-40.5127
-40.1083
-39.7191
-39.302
-38.8839
-38.4625
-38.0419
-37.6251
-37.2126
-36.8324
-40.5552
-40.1793
-39.9072
-39.5099
-39.1271
-38.7173
-38.3061
-37.892
-37.4783
-37.067
-36.6539
-36.2607
-39.9182
-39.5517
-39.2853
-38.8963
-38.5202
-38.1176
-37.7137
-37.3068
-36.9003
-36.4965
-36.0903
-35.6978
-39.2674
-38.909
-38.6481
-38.2673
-37.8981
-37.5034
-37.1074
-36.7085
-36.3107
-35.9173
-35.5275
-35.1602
-38.6071
-38.2531
-37.9961
-37.6232
-37.2612
-36.8743
-36.4866
-36.0961
-35.7071
-35.3223
-34.9404
-34.5856
-37.9259
-37.5808
-37.3289
-36.9636
-36.6091
-36.2303
-35.8506
-35.4685
-35.0878
-34.7102
-34.3314
-33.9686
-37.2301
-36.8913
-36.6449
-36.2885
-35.9417
-35.5714
-35.1997
-34.8265
-34.455
-34.0876
-33.7233
-33.3877
-36.515
-36.1858
-35.9446
-35.5971
-35.2583
-34.897
-34.5344
-34.1704
-33.808
-33.4496
-33.0908
-32.7464
-35.7876
-35.4644
-35.2279
-34.8896
-34.5595
-34.2075
-33.8546
-33.5004
-33.1477
-32.7992
-32.4514
-32.1224
-35.0424
-34.7255
-34.4955
-34.1667
-33.8454
-33.5031
-33.1602
-32.8167
-32.4751
-32.1386
-31.8059
-31.4997
-34.2762
-33.9698
-33.7461
-33.427
-33.1151
-32.7837
-32.4513
-32.1185
-31.7881
-31.4627
-31.1376
-30.8278
-33.4967
-33.1977
-32.9806
-32.6718
-32.3697
-32.049
-31.7278
-31.4063
-31.0877
-30.7745
-30.4652
-30.186
-32.6982
-32.4086
-32.1986
-31.9002
-31.6081
-31.2988
-30.9894
-30.6799
-30.3737
-30.0721
-29.7698
-29.487
-31.8892
-31.6059
-31.4013
-31.1133
-30.8316
-30.5338
-30.2365
-29.9398
-29.6468
-29.36
-29.0754
-28.8183
-31.0609
-30.7854
-30.5865
-30.3097
-30.039
-29.754
-29.469
-29.1855
-28.9065
-28.6347
-28.3676
-28.1204
-30.2117
-29.9466
-29.7562
-29.4906
-29.2312
-28.9586
-28.6868
-28.4166
-28.1506
-27.8898
-27.6291
-27.3791
-29.3535
-29.0925
-28.9079
-28.654
-28.4066
-28.1475
-27.8899
-27.6342
-27.383
-27.1381
-26.8984
-26.6894
-28.4687
-28.2188
-28.0431
-27.8017
-27.5669
-27.322
-27.0794
-26.8394
-26.6044
-26.376
-26.1493
-25.9374
-27.5711
-27.3296
-27.1611
-26.9325
-26.7113
-26.4821
-26.2555
-26.0326
-25.8147
-25.6044
-25.399
-25.2227
-26.6553
-26.425
-26.2644
-26.0486
-25.8411
-25.6275
-25.4176
-25.2127
-25.0139
-24.822
-24.6326
-24.4653
-25.7294
-25.5038
-25.3505
-25.1482
-24.9558
-24.7592
-24.5673
-24.3808
-24.2015
-24.0303
-23.8635
-23.7259
-24.7823
-24.565
-24.4207
-24.2322
-24.055
-23.8763
-23.7039
-23.5373
-23.378
-23.2274
-23.0808
-22.9457
-23.8136
-23.6079
-23.4734
-23.3005
-23.1398
-22.9803
-22.8281
-22.6828
-22.5447
-22.4139
-22.2852
-22.1679
-22.8343
-22.6372
-22.5111
-22.3535
-22.2111
-22.072
-21.9421
-21.8206
-21.7073
-21.6033
-21.5078
-21.4504
-21.841
-21.6504
-21.5338
-21.3925
-21.269
-21.1524
-21.0467
-20.9509
-20.8641
-20.7857
-20.7095
-20.6486
-20.8258
-20.6462
-20.5406
-20.4174
-20.3146
-20.2223
-20.1432
-20.075
-20.0166
-19.9666
-19.9203
-19.9038
-19.7983
-19.6281
-19.533
-19.4282
-19.3484
-19.2831
-19.233
-19.1958
-19.1687
-19.1495
-19.1305
-19.1234
-18.7577
-18.5949
-18.512
-18.4282
-18.3733
-18.338
-18.3206
-18.3176
-18.3256
-18.3417
-18.3598
-18.3941
-17.6982
-17.5461
-17.4768
-17.4163
-17.3901
-17.3885
-17.4081
-17.444
-17.4914
-17.5471
-17.6056
-17.6786
-16.6278
-16.4842
-16.4298
-16.396
-16.4027
-16.4397
-16.5014
-16.5802
-16.6703
-16.7673
-16.8658
-16.9822
-15.5394
-15.4078
-15.3717
-15.3693
-15.4157
-15.4978
-15.6073
-15.7344
-15.8706
-16.0095
-16.1419
-16.277
-14.4393
-14.3176
-14.3047
-14.342
-14.437
-14.5736
-14.7385
-14.9198
-15.1074
-15.2938
-15.4718
-15.6585
-13.3198
-13.2128
-13.2329
-13.3246
-13.4831
-13.6856
-13.9145
-14.1551
-14.3969
-14.6326
-14.8528
-15.0639
-12.1752
-12.0905
-12.1664
-12.3383
-12.5803
-12.8612
-13.161
-13.4644
-13.7611
-14.0445
-14.3065
-14.5511
-10.994
-10.9596
-11.1381
-11.4316
-11.7809
-12.1492
-12.5183
-12.8781
-13.2249
-13.552
-13.8474
-14.1063
-9.73959
-9.9131
-10.3072
-10.7808
-11.2405
-11.675
-12.0924
-12.4891
-12.867
-13.2353
-13.5443
-13.8279
-0.274463
8.68374
-10.6265
-19.0175
-19.5961
-5.15254
-2.99108
29.7621
-42.2699
-33.5884
-27.1106
-12.6525
15.5623
-30.6689
1.0899
-5.9316
-30.7246
-26.0455
-25.4399
-5.70496
26.8616
25.607
17.2033
-14.8666
0.694589
-11.129
23.7024
0.253787
-37.725
-37.0612
-39.0487
25.9698
8.57923
-26.9274
15.7091
17.7705
30.1825
-29.9346
31.1766
-12.6339
2.04439
-1.45632
21.6046
-0.511929
31.8499
25.3945
17.9145
17.8918
31.7895
26.8301
18.4327
29.5481
29.7933
1.40806
-28.0926
8.39723
11.0717
-1.80316
-30.6184
0.658402
23.4981
25.5836
1.4496
-1.81878
17.2195
8.6593
-15.6526
29.4168
11.4506
-33.0905
-28.1865
13.2918
31.1256
-14.3243
-14.3138
2.36491
-41.8357
-1.46753
9.75971
27.9354
5.07964
-1.70278
30.6368
31.1559
3.18496
-38.442
-15.4726
0.90467
-34.691
31.9181
24.2815
-39.1077
-0.114679
7.00929
31.7612
-3.73564
0.235037
-2.04249
-0.45255
-14.0572
-19.3287
14.5042
5.0821
7.93883
-1.47178
31.0984
2.36098
30.0209
-14.2069
0.313403
13.3533
-1.78988
29.2472
-6.7225
1.58199
15.8339
-17.6394
-6.29534
-40.1301
-28.5947
-12.8073
-17.8216
-34.785
15.2518
-17.3772
-30.4613
-1.87598
6.61677
16.0089
1.01092
30.2739
1.32886
21.4031
7.91152
22.9562
9.5747
32.2323
-33.4083
29.9392
9.14073
-16.2806
25.6975
26.3633
0.318135
29.7016
-28.5228
30.4133
-9.06653
-43.9381
4.83658
0.238898
16.6983
-1.48239
6.79317
21.4546
2.97534
30.2362
-1.2451
-34.923
-12.7043
-18.9546
-5.59492
-27.669
-13.6784
23.4343
23.6281
26.3005
32.396
11.7412
1.34471
-29.9112
-18.441
-28.1491
-16.4798
-0.970333
-38.91
1.79479
31.0021
24.1713
-35.9671
25.9123
-24.0631
-7.30636
31.6127
5.75262
29.1493
3.20464
-1.45525
30.4773
1.5202
-35.4334
-1.58427
27.5404
-5.35337
30.063
8.92395
23.2067
28.1045
2.18907
-46.2969
-42.9279
31.0484
31.7044
29.0362
31.3617
13.6457
-7.76836
-32.8651
-14.6172
-15.67
6.4186
-43.7885
31.0202
32.2024
1.791
30.0062
-10.3204
-13.4953
-47.6916
29.4157
31.0605
-43.2499
31.9323
-2.84205
-2.78052
-30.167
-38.9146
-1.5929
-43.1428
16.8475
30.0848
-16.413
-2.01245
-13.7669
-13.6946
26.674
28.8896
-42.3133
-2.141
31.1446
-30.0063
18.8972
-28.5327
-34.6206
26.8112
4.74143
20.058
5.44852
-30.8611
30.1741
-34.1042
-14.3894
-36.7635
-55.9365
27.0767
-29.9164
-0.387611
30.907
-37.1886
31.76
-14.9964
26.3942
15.7472
-8.36283
-16.4743
26.829
-44.0206
30.1281
-3.90213
-4.3818
-0.0612199
17.4708
-38.6562
31.5421
31.3771
-37.568
21.628
31.4749
32.3833
31.2178
28.5116
22.9262
32.021
31.7223
-25.4135
23.7744
-31.9432
31.6428
-46.1597
27.1982
31.194
-35.1969
32.5555
32.5919
29.3917
27.7599
26.4988
29.3413
21.9404
31.6846
28.1204
-1.12055
-10.2821
-28.1989
21.593
-41.7902
32.4445
1.46321
14.3025
15.9233
-21.1975
32.4238
3.15713
-46.7191
31.1042
21.3689
32.4599
-31.2969
1.856
23.4078
19.371
-36.7243
-15.5449
67.0743
31.9538
-30.6406
-25.8604
-2.01198
2.34384
32.4406
-4.3629
0.527412
-37.0786
-1.98843
2.39033
3.92214
-1.47521
14.6129
2.01474
6.13249
0.366998
30.4993
0.196189
26.0803
11.1114
29.8912
30.0203
-35.3671
-46.6756
-13.1836
-0.121146
-3.61925
13.3367
24.8916
32.5901
-1.05022
-23.5715
31.9043
-43.5739
-36.1885
28.7605
32.0102
-45.5369
-47.1155
20.7467
-21.2506
-2.90553
0.388085
-1.69145
1.87849
-24.9164
29.0547
31.619
-44.056
-34.4535
27.5314
31.4329
-44.1914
3.28461
-34.0384
-12.7245
-9.84014
-1.23504
30.6054
-52.1474
23.9463
-0.761288
18.334
27.5315
17.7338
3.24104
-36.6262
-33.7951
29.6601
29.2324
-2.78558
-42.5809
-2.45478
-31.508
-26.4486
11.6902
-13.0397
-13.7587
12.8224
-31.2983
25.8043
-44.0355
-39.1231
30.057
30.1385
-1.91004
-0.725271
1.47572
-46.0245
12.2696
24.2431
-48.2558
28.1576
27.1166
3.13311
0.20955
29.5935
1.54034
-2.56171
29.2328
0.496968
-20.9776
-44.1564
32.1676
0.504812
-11.925
-10.9179
-27.3951
28.4934
-27.9637
1.79883
-30.6909
-36.7796
26.2948
-4.5127
32.5641
31.067
11.3783
30.6952
7.725
-14.7777
-5.96445
30.2876
25.8158
1.95391
-29.5603
28.7674
29.5385
10.0408
-38.4193
25.3063
8.92594
32.7284
31.8249
-25.3568
24.2711
-7.16863
19.9808
-2.43994
-45.0743
-27.9581
1.98857
27.889
22.302
29.2821
-24.5603
30.3396
15.1625
0.693811
-28.5358
-44.0472
29.5276
1.82804
30.6044
-13.545
0.116209
30.0552
31.7175
-22.4903
-19.6281
28.9259
30.9267
-5.52496
-16.2246
-41.382
-18.2448
0.729656
27.5049
-44.2311
-12.963
29.4101
-24.113
-1.39204
30.6894
32.1482
-39.3953
28.3696
31.9693
2.21263
23.6168
32.1129
18.6831
-42.8889
29.9179
-29.6477
27.7098
-37.4252
-14.1818
-31.7253
1.879
-18.7334
30.1515
-36.8388
-14.2822
20.7985
14.1944
-12.9332
1.1213
30.324
-0.514306
5.52496
-15.0759
32.0018
28.944
-31.5753
32.4071
-18.2525
-17.8054
-28.7408
-1.98886
24.6613
-44.3705
-25.4956
29.1215
-37.1459
-6.61395
-13.9165
-21.1529
-36.4195
-39.7028
-1.59464
-22.7956
1.7985
18.4279
10.0914
13.1433
-17.6771
27.2775
30.855
-24.771
24.9168
24.5221
-15.7864
0.098684
-0.00456772
11.6192
-14.4291
29.5771
-32.9989
-23.1647
-25.9359
30.5331
0.378601
16.7638
26.9705
9.83246
-46.4401
23.8507
28.6477
29.2612
10.7392
0.336664
-6.17023
-2.3387
-34.9202
-28.164
29.4247
-40.791
3.89751
-39.5779
23.2651
29.5279
26.4156
-37.0126
0.104911
-29.2905
1.16176
24.711
-14.9869
30.9314
-30.6336
-0.0444633
-40.2143
-39.5149
30.955
1.67927
-0.877724
-27.0454
-17.6778
10.3186
6.96994
7.48244
-14.5804
-6.95763
6.87764
27.9855
-25.9029
-31.1652
-1.62528
0.816192
-38.3671
32.1565
31.1745
31.0583
9.57053
27.0893
-6.70975
-30.5936
25.0605
-1.67928
11.5649
25.4509
1.41906
12.7299
32.1067
-42.7967
-47.1146
3.12661
-14.4558
27.8219
-44.6413
16.1412
21.4074
28.315
-1.70822
30.6346
27.9426
19.3414
-21.8521
-10.6637
-0.488672
-43.0481
-46.8242
30.2688
-46.7992
4.06775
2.54772
-39.6009
-30.932
9.31464
1.8143
-37.565
-0.92539
-35.8252
28.6673
-24.7199
1.86139
-42.4882
-0.0928199
31.4491
-30.0475
31.9559
16.5018
24.6317
-42.9691
-0.947844
13.5019
-44.1991
30.4854
-35.3236
-3.7041
-34.8138
-17.7034
-4.58418
2.16882
23.442
-15.6099
30.1671
3.77377
-23.5423
32.3914
31.6421
-31.2214
20.8476
-30.4219
31.8614
24.8208
30.9797
-1.89599
11.8704
-1.48558
1.34492
28.9844
2.00013
32.3006
-9.86158
-35.1981
1.28521
26.2231
31.6639
-28.614
-5.57975
-26.7046
18.3322
-39.988
-15.6141
-25.9821
-38.3974
-1.6381
0.839802
31.2378
19.9465
31.4062
26.2955
3.52624
32.4691
32.5619
31.3778
-30.8579
-20.74
31.3858
-0.3869
-1.08828
-43.2082
31.0218
1.20735
13.07
-30.2278
8.15628
-2.08
-34.6752
1.8785
-21.5307
-43.8058
5.74452
30.1415
-1.38926
19.8109
29.2765
1.34369
-7.63703
-1.06698
6.76148
-8.89209
-39.8056
-32.0251
25.064
28.4268
1.77917
-14.5622
-0.460361
0.726825
-20.6581
12.3567
28.9691
14.228
-37.4868
-2.54635
-89.0524
-0.80142
-11.4742
26.9261
28.6945
-1.44565
30.4151
-22.568
26.7545
-12.1097
-41.3321
-37.0397
28.7224
-21.6691
-15.5341
13.241
7.2106
25.5595
-44.4411
-14.3793
27.3464
0.0603952
31.1695
-6.88239
-36.9082
-42.8339
-20.8344
-14.3972
-41.805
-20.9511
5.7341
32.3532
27.8431
-11.781
8.82835
-2.91416
30.5949
-28.9845
-4.65804
-35.0728
-28.5609
22.5094
22.7616
-42.5528
-10.4396
25.5836
-12.6944
-34.5251
-35.1578
0.275897
-40.4627
-14.9758
30.8551
30.2312
29.2062
-0.22516
-9.72043
-3.0625
1.65447
2.21306
29.7319
21.8953
19.9851
-29.5698
0.586832
-37.706
10.4253
20.8217
1.7493
-30.638
-4.40891
23.4682
-40.6708
21.3638
25.8698
27.3963
-1.81755
21.9928
-29.9196
9.02597
12.3158
30.1347
-30.0269
25.5636
11.0853
-11.3069
-13.8682
25.1531
-20.5068
-28.6735
29.6339
0.481839
-46.4395
15.7028
10.8804
-9.03535
-44.7628
26.0395
-0.263046
1.04791
-42.1259
28.7538
-44.7564
1.24186
-35.3685
-34.7784
31.798
6.01553
29.8126
-29.9857
6.06601
28.3418
-1.65168
-46.4249
32.2822
32.2112
32.4367
2.94329
1.85906
10.1035
-34.2586
-36.6561
-31.7581
0.234732
-13.5475
3.5914
11.3346
-30.0273
22.7737
25.3326
26.5876
17.133
29.4969
30.5718
-29.6993
0.139536
32.4062
-31.9664
30.4342
1.11935
-35.5068
-3.77585
1.855
4.44047
28.5443
-17.3195
-10.2088
25.5198
-41.6167
-3.98817
3.5484
12.9418
18.7231
-11.9083
23.6282
2.41807
-2.74026
-11.9753
12.6057
-13.7576
-39.4997
30.2493
-15.9539
20.084
-33.4636
25.1465
26.98
30.6285
-39.7031
29.5893
1.51163
27.1306
-9.41591
-2.46273
-40.4327
28.7423
16.984
24.6005
-7.00793
-37.6277
-29.0823
-0.538082
32.2893
2.5422
30.4318
-31.3431
28.9268
-2.07332
-43.2524
31.9577
-35.2986
28.6111
31.2257
-11.7768
-26.9995
19.755
1.87611
14.1608
32.3763
-1.08341
-43.172
28.1618
-2.0394
-15.9566
9.64818
29.5453
32.0026
-29.6463
30.2365
29.3338
-12.2593
29.2619
25.8109
29.3911
29.1363
2.6495
-1.47716
-30.0119
-5.83451
-28.7958
30.3307
-1.02566
-36.3857
29.469
-1.96692
29.1059
21.014
26.5224
29.8078
18.8146
-38.7426
-30.0103
29.565
-30.8498
-17.8471
23.1812
31.0268
-39.6823
-26.5906
-37.8721
-21.9468
-16.2038
27.6664
-9.91139
-18.3398
-30.7273
-0.29912
-32.9036
29.9113
12.7753
1.5982
-3.66843
-3.55665
30.3825
-1.89401
27.7699
-0.0255093
30.1964
-7.21483
3.08302
-42.2396
30.3609
1.72033
28.4265
31.9997
-24.9834
26.4004
-14.4099
30.8341
-1.80874
29.0894
20.8919
2.68005
9.25481
32.4844
29.3253
-0.160273
2.17536
30.5153
2.78794
27.0258
-27.4393
-30.5308
29.6973
-17.9564
14.3487
-86.3051
-38.2696
31.8967
-40.8947
-40.3372
2.11667
27.8967
-39.5781
-37.6814
2.27106
25.6529
-0.998867
-6.20258
29.5547
-10.6547
-13.1995
5.78019
-14.4523
-47.8818
12.4484
-0.888962
21.3699
0.240728
9.6788
22.5043
-50.1055
23.6264
5.07234
-2.69295
-45.1322
25.9317
4.83363
7.70517
23.8298
20.1941
31.8249
32.0423
-15.5362
-1.17143
-14.1532
2.44225
35.6133
25.9424
-68.9291
28.3859
-26.5821
1.36735
-46.4984
-0.194559
2.53074
10.2139
28.0576
30.5061
-44.3241
2.43981
-17.2365
-1.58038
22.9445
-44.4895
0.932763
29.3223
2.49515
1.10114
5.2877
12.4213
-14.1679
-36.8248
-18.6901
2.75716
-2.32237
27.5605
29.1715
29.9096
-41.6918
26.0613
28.3719
2.66017
10.6438
-33.4605
27.5025
-14.8065
12.4962
1.2521
32.1363
-1.87128
30.5956
28.3385
-7.95812
-8.04834
31.6355
-16.7571
21.2869
1.59442
-29.3675
-33.7197
30.0982
-2.78336
-16.4181
-34.4542
-36.6735
20.4554
-33.853
1.7884
1.39029
0.4661
-17.3321
32.0691
-41.9265
0.176969
32.4167
-40.5244
25.0971
25.0824
-15.7345
12.4254
1.51657
20.0533
29.2783
30.0408
-0.849899
-33.3569
-2.03699
-15.1043
-17.3574
-42.2991
18.9485
-36.2184
-38.0204
8.00444
8.76436
3.2207
-1.42338
5.84832
-13.3308
-6.38423
0.944091
-37.3996
31.7797
-6.80732
29.827
-24.1585
3.26678
1.74271
-48.1485
30.2544
-30.7843
-13.1151
21.5092
29.1742
-25.6629
16.3097
-38.9433
30.3023
27.849
32.2401
22.4487
31.9779
28.3654
-15.4908
30.5184
3.46455
31.0912
8.30035
26.0167
-22.5454
28.349
-25.7161
11.516
32.3086
13.613
32.0084
31.7619
32.1158
-28.0383
-4.04476
7.65139
1.94579
-19.299
-29.479
1.785
-31.806
2.38482
13.5298
27.5642
29.7018
-41.4312
-18.4851
18.9154
-40.7978
-7.89229
32.299
-2.41166
30.4242
-45.4189
0.776639
-18.8507
-3.8945
17.2993
27.2958
26.1556
24.7649
29.8668
-2.07267
17.0775
29.4687
-41.115
7.14265
17.7141
28.179
30.1955
-17.9638
30.6602
-20.6761
-5.2439
-13.6956
1.18067
-7.66675
31.0035
-34.4502
29.1843
28.7191
-25.2365
-25.6587
24.4705
1.27268
31.0407
1.0159
3.30083
-0.790688
11.1705
27.1013
27.6508
-33.9811
28.5143
27.1482
5.90799
3.22873
24.6281
25.9094
18.9647
28.9406
-18.1782
31.9048
-0.953208
32.0239
0.45074
6.6227
1.7942
-28.5024
-12.3201
27.7558
-26.6148
-39.8013
-41.83
2.78571
-32.6219
31.8002
32.1007
0.0495949
-9.57309
24.2965
31.2563
-30.7696
30.523
-1.58771
-35.3352
2.83058
26.5496
-14.4557
28.1461
13.2578
-12.6826
-0.50823
49.6076
-0.728901
-38.6522
14.8945
3.03913
13.8763
29.6201
-1.16926
-0.424951
-2.16317
12.7361
31.3698
-22.5853
-3.1609
30.3493
24.5239
31.9643
1.85014
32.5152
22.1359
23.4577
-22.114
31.8037
-12.139
32.6087
-11.238
25.6712
26.8735
31.5502
-0.580992
25.1441
30.4745
30.6117
7.11636
0.631079
30.1395
19.6868
1.62148
-4.90394
-46.1681
0.788747
-36.7762
-43.6906
27.9798
30.719
-27.4912
24.1963
-28.6077
-36.4027
-25.3088
-14.1337
-35.5597
32.4878
26.4434
-1.25421
31.8445
-5.18007
-0.648425
2.68432
2.39876
1.75086
3.91716
-25.4272
-80.5882
-23.5164
8.58532
-37.1577
28.2166
-3.19099
29.7644
23.9703
-18.4039
26.2797
-37.4935
32.1978
23.5144
18.5094
-1.72367
2.1081
15.3975
17.9918
31.9572
31.4066
-37.8373
27.0068
29.9291
-7.86897
26.7349
31.7568
-0.942321
30.883
-31.4496
3.74524
-18.5076
9.56894
-18.687
29.7863
-26.5902
-19.7201
6.36273
-27.4345
4.84612
-9.4724
1.1519
-19.0407
-38.0817
-20.6962
-0.476128
-1.26751
21.3224
30.1959
-34.6093
30.0455
-23.9148
31.0938
30.0764
2.40806
31.8539
-1.06091
-29.7438
26.5338
-27.2062
20.0171
-46.0595
-16.3617
30.449
32.074
-46.9276
28.389
-16.4914
32.2808
-31.9288
19.2082
-31.7145
32.1248
10.9645
-2.93808
-39.9512
-31.1313
1.55879
-0.0151507
-5.89008
-4.98258
31.9748
-0.794638
29.0547
29.0102
27.3845
-37.7624
2.69784
-32.6125
29.3465
32.3293
30.4267
30.787
-37.9608
-4.43225
1.5256
3.86645
-24.0939
2.66569
30.5482
30.0932
5.83574
-18.0166
-34.4931
31.9027
28.8129
1.7455
28.5564
-26.9836
7.85266
11.2047
31.6159
29.726
-10.5485
22.8285
-1.06385
4.50272
32.4536
6.57613
-16.3423
2.27397
31.1583
-8.35405
22.8253
-45.2141
11.2145
-24.4877
-30.0246
1.16922
3.20607
-11.1405
0.688629
29.549
31.8085
31.0811
-1.37715
18.4738
-27.8093
1.49617
-14.0098
-17.1641
-0.165852
1.95645
13.9347
-11.3997
1.02524
25.8592
3.72413
-39.6339
-6.09257
-6.89718
-22.9402
21.24
12.1728
18.3442
-45.8756
10.8695
-1.53599
31.0526
29.4602
-38.3173
-1.17994
32.5026
29.6647
-3.81139
30.1759
-25.5306
-23.1038
5.20752
25.5868
-9.9644
29.0408
-42.2269
-32.9161
11.7652
-22.4338
-1.27763
31.8219
-1.66301
-9.56856
12.6162
28.3449
-25.34
-37.6031
13.9529
-12.5547
0.49413
-31.1831
-9.59314
2.97236
-3.84295
31.8559
30.4138
24.5457
8.54402
27.3876
-5.552
1.46914
2.04554
-38.3737
-18.0195
-31.1814
23.882
31.1329
31.3584
-21.5826
12.8578
2.57739
-1.03524
27.6471
-36.4237
-32.4666
-17.372
3.84035
-14.3322
19.8949
31.8942
31.6801
-25.8905
31.6682
-39.7765
-0.534338
3.86597
-22.0796
30.525
-40.0498
22.2096
32.1913
7.73991
-43.2449
-2.42681
27.2203
16.9549
16.9677
-1.2959
18.403
14.1942
-37.0102
-32.7035
-0.820595
28.8369
-2.85563
30.4835
-36.0495
-1.44536
20.4499
-0.256863
28.3532
-24.583
26.1062
-1.45139
28.5935
32.0581
30.3908
-31.1827
19.4073
-28.6195
3.70168
-14.824
32.3906
-45.7985
-13.4734
-7.31836
-3.75793
31.8932
6.8258
-14.9096
1.29929
-11.448
1.76814
7.11041
-0.0984588
-2.77041
-20.2057
-13.5983
1.14982
-38.9548
-17.0341
-20.5243
-36.7632
-7.93462
-2.22954
32.0731
-6.79858
0.791697
-29.6588
7.19229
-37.4795
21.2531
-12.6952
10.9924
-0.752936
-6.40117
-18.8252
16.0694
-35.8145
-12.7471
-10.3448
-27.1545
31.201
-36.2386
4.13235
-0.174762
-32.5346
-8.61092
11.6226
17.4971
1.39455
-30.5867
5.19217
-28.6946
-34.5876
28.2604
-2.01666
31.9358
1.12422
-10.9843
27.5168
1.60592
31.7112
-19.4772
1.58112
27.4315
1.42966
7.96868
12.6774
3.76865
-24.0969
28.1339
-42.4095
-26.9522
-43.4882
6.26111
29.0517
28.5728
-40.2064
-13.825
1.88729
-49.4927
21.2919
-37.3295
6.16582
-18.5153
0.155327
-1.76743
27.269
-17.1362
29.9104
-28.6863
28.8031
-2.61124
1.78158
3.94994
21.9178
6.1809
-22.9877
-1.67212
-20.2093
29.8974
16.0564
-11.1232
-28.9302
0.154851
25.3642
0.848632
1.74492
29.7484
-39.2415
-21.9278
14.1908
-1.8746
-34.0578
-7.84271
30.4637