/*--------------------------------*- C++ -*----------------------------------*\
| =========                 |                                                 |
| \\      /  F ield         | OpenFOAM: The Open Source CFD Toolbox           |
|  \\    /   O peration     | Version:  2.3.1                                 |
|   \\  /    A nd           | Web:      www.OpenFOAM.org                      |
|    \\/     M anipulation  |                                                 |
\*---------------------------------------------------------------------------*/
FoamFile
{
    version     2.0;
    format      ascii;
    class       surfaceScalarField;
    location    "0.05";
    object      phi;
}
// * * * * * * * * * * * * * * * * * * * * * * * * * * * * * * * * * * * * * //

dimensions      [0 3 -1 0 0 0 0];

internalField   nonuniform List<scalar> 
23326
(
-1.31663e-05
0.00011771
-0.000104543
-2.24018e-05
0.000131973
-0.000122737
-2.80957e-05
0.000144755
-0.000139061
-3.17853e-05
0.000158737
-0.000155048
-3.48915e-05
0.000169761
-0.000166655
-3.7104e-05
0.000180437
-0.000178224
-3.86641e-05
0.000189414
-0.000187853
-3.95369e-05
0.000196568
-0.000195695
-4.00658e-05
0.000201792
-0.000201263
-4.02796e-05
0.000205705
-0.000205491
-4.03804e-05
0.000208557
-0.000208456
0.000210575
-4.04204e-05
-0.000210535
-7.24007e-06
0.00012495
-1.42103e-05
0.000138943
-2.04023e-05
0.000150947
-2.50259e-05
0.000163361
-2.87792e-05
0.000173515
-3.15729e-05
0.00018323
-3.35735e-05
0.000191414
-3.49552e-05
0.00019795
-3.589e-05
0.000202727
-3.65152e-05
0.00020633
-3.6918e-05
0.000208959
0.000210837
-3.71806e-05
-5.81316e-06
0.000130763
-1.12348e-05
0.000144364
-1.63682e-05
0.000156081
-2.06046e-05
0.000167597
-2.42508e-05
0.000177161
-2.71273e-05
0.000186107
-2.93084e-05
0.000193595
-3.09145e-05
0.000199556
-3.21388e-05
0.000203951
-3.30443e-05
0.000207235
-3.36988e-05
0.000209614
0.00021139
-3.42512e-05
-4.88372e-06
0.000135647
-9.54853e-06
0.000149029
-1.39374e-05
0.00016047
-1.76607e-05
0.00017132
-2.09625e-05
0.000180462
-2.36774e-05
0.000188821
-2.58743e-05
0.000195792
-2.75682e-05
0.00020125
-2.89029e-05
0.000205286
-2.99798e-05
0.000208312
-3.08307e-05
0.000210465
0.000212125
-3.15655e-05
-3.97822e-06
0.000139625
-8.09515e-06
0.000153146
-1.19978e-05
0.000164372
-1.53691e-05
0.000174691
-1.83667e-05
0.00018346
-2.09321e-05
0.000191387
-2.30259e-05
0.000197886
-2.47218e-05
0.000202945
-2.6141e-05
0.000206705
-2.72585e-05
0.00020943
-2.82469e-05
0.000211453
0.00021295
-2.90724e-05
-3.29244e-06
0.000142917
-6.92105e-06
0.000156775
-1.04056e-05
0.000167857
-1.34763e-05
0.000177762
-1.62721e-05
0.000186256
-1.86269e-05
0.000193742
-2.0628e-05
0.000199887
-2.2318e-05
0.000204635
-2.37003e-05
0.000208087
-2.48909e-05
0.00021062
-2.59155e-05
0.000212478
0.000213857
-2.68221e-05
-2.81779e-06
0.000145735
-6.03611e-06
0.000159993
-9.15516e-06
0.000170976
-1.19679e-05
0.000180575
-1.44954e-05
0.000188783
-1.67174e-05
0.000195964
-1.86151e-05
0.000201784
-2.02145e-05
0.000206235
-2.16077e-05
0.00020948
-2.2818e-05
0.000211831
-2.38955e-05
0.000213555
0.000214829
-2.48674e-05
-2.46458e-06
0.0001482
-5.35369e-06
0.000162882
-8.16045e-06
0.000173782
-1.06906e-05
0.000183105
-1.30326e-05
0.000191125
-1.50989e-05
0.00019803
-1.68947e-05
0.00020358
-1.84226e-05
0.000207763
-1.97924e-05
0.00021085
-2.10044e-05
0.000213043
-2.20773e-05
0.000214628
0.000215806
-2.30546e-05
-2.18388e-06
0.000150383
-4.8046e-06
0.000165503
-7.3518e-06
0.00017633
-9.69078e-06
0.000185444
-1.18305e-05
0.000193265
-1.3726e-05
0.000199925
-1.54146e-05
0.000205269
-1.69098e-05
0.000209258
-1.82117e-05
0.000212152
-1.93854e-05
0.000214216
-2.04512e-05
0.000215694
0.000216834
-2.1479e-05
-1.94752e-06
0.000152331
-4.33339e-06
0.000167889
-6.666e-06
0.000178662
-8.81221e-06
0.00018759
-1.08104e-05
0.000195263
-1.25798e-05
0.000201695
-1.41461e-05
0.000206835
-1.55403e-05
0.000210652
-1.68216e-05
0.000213433
-1.79694e-05
0.000215364
-1.90256e-05
0.00021675
0.000217801
-1.99931e-05
-1.75139e-06
0.000154082
-3.94515e-06
0.000170082
-6.08634e-06
0.000180803
-8.07226e-06
0.000189576
-9.90935e-06
0.0001971
-1.15588e-05
0.000203344
-1.30381e-05
0.000208314
-1.43654e-05
0.00021198
-1.55779e-05
0.000214646
-1.66922e-05
0.000216478
-1.77621e-05
0.00021782
0.000218751
-1.87118e-05
-1.57881e-06
0.000155661
-3.59549e-06
0.000172099
-5.57178e-06
0.00018278
-7.44207e-06
0.000191447
-9.127e-06
0.000198785
-1.06755e-05
0.000204893
-1.20678e-05
0.000209707
-1.33309e-05
0.000213243
-1.44911e-05
0.000215806
-1.55704e-05
0.000217558
-1.65463e-05
0.000218796
0.000219699
-1.74946e-05
-1.43376e-06
0.000157095
-3.29439e-06
0.00017396
-5.13688e-06
0.000184622
-6.8624e-06
0.000193172
-8.46352e-06
0.000200386
-9.91496e-06
0.000206344
-1.1206e-05
0.000210998
-1.24114e-05
0.000214448
-1.35001e-05
0.000216895
-1.45311e-05
0.000218589
-1.54894e-05
0.000219754
0.00022054
-1.63297e-05
-1.30889e-06
0.000158404
-3.05526e-06
0.000175706
-4.7576e-06
0.000186324
-6.35521e-06
0.00019477
-7.85385e-06
0.000201885
-9.19634e-06
0.000207687
-1.04466e-05
0.000212248
-1.15682e-05
0.00021557
-1.26382e-05
0.000217965
-1.36549e-05
0.000219606
-1.46101e-05
0.000220709
0.000221504
-1.55743e-05
-1.1934e-06
0.000159597
-2.80477e-06
0.000177317
-4.42163e-06
0.000187941
-5.92241e-06
0.00019627
-7.30885e-06
0.000203271
-8.60043e-06
0.000208978
-9.75896e-06
0.000213406
-1.0858e-05
0.000216669
-1.18324e-05
0.000218939
-1.27732e-05
0.000220546
-1.36805e-05
0.000221617
0.000222332
-1.45085e-05
-1.09314e-06
0.00016069
-2.60284e-06
0.000178827
-4.10436e-06
0.000189443
-5.51098e-06
0.000197677
-6.82085e-06
0.000204581
-8.01814e-06
0.000210176
-9.1209e-06
0.000214509
-1.01378e-05
0.000217686
-1.11264e-05
0.000219928
-1.20628e-05
0.000221483
-1.29299e-05
0.000222484
0.000223139
-1.37365e-05
-1.00394e-06
0.000161694
-2.40163e-06
0.000180225
-3.80974e-06
0.000190851
-5.14391e-06
0.000199011
-6.37813e-06
0.000205815
-7.5125e-06
0.00021131
-8.55829e-06
0.000215555
-9.56245e-06
0.00021869
-1.04801e-05
0.000220845
-1.13351e-05
0.000222338
-1.21744e-05
0.000223323
0.000223941
-1.29774e-05
-9.11093e-07
0.000162605
-2.23348e-06
0.000181547
-3.57002e-06
0.000192188
-4.82987e-06
0.000200271
-5.99901e-06
0.000206985
-7.07949e-06
0.00021239
-8.07261e-06
0.000216548
-8.95243e-06
0.000219569
-9.83867e-06
0.000221732
-1.06826e-05
0.000223182
-1.14912e-05
0.000224132
0.000224715
-1.22648e-05
-8.41296e-07
0.000163447
-2.08612e-06
0.000182792
-3.32512e-06
0.000193427
-4.51914e-06
0.000201465
-5.60316e-06
0.000208069
-6.62681e-06
0.000213414
-7.55375e-06
0.000217475
-8.4714e-06
0.000220487
-9.29198e-06
0.000222552
-1.01032e-05
0.000223993
-1.08597e-05
0.000224888
0.000225469
-1.16138e-05
-7.77932e-07
0.000164225
-1.92913e-06
0.000183943
-3.12555e-06
0.000194623
-4.23556e-06
0.000202575
-5.29256e-06
0.000209126
-6.24215e-06
0.000214364
-7.14913e-06
0.000218382
-7.97643e-06
0.000221314
-8.78937e-06
0.000223365
-9.51508e-06
0.000224719
-1.02626e-05
0.000225636
0.000226162
-1.09549e-05
-7.20478e-07
0.000164945
-1.80522e-06
0.000185028
-2.91819e-06
0.000195736
-3.97573e-06
0.000203633
-4.95083e-06
0.000210101
-5.8807e-06
0.000215294
-6.72176e-06
0.000219223
-7.51659e-06
0.000222109
-8.27104e-06
0.00022412
-9.02089e-06
0.000225468
-9.71091e-06
0.000226326
0.00022684
-1.03893e-05
-6.41918e-07
0.000165587
-1.66776e-06
0.000186054
-2.72816e-06
0.000196796
-3.75322e-06
0.000204658
-4.68509e-06
0.000211033
-5.52504e-06
0.000216134
-6.32953e-06
0.000220028
-7.08947e-06
0.000222869
-7.84354e-06
0.000224874
-8.54624e-06
0.000226171
-9.23292e-06
0.000227012
0.000227492
-9.88457e-06
-6.00122e-07
0.000166187
-1.56622e-06
0.00018702
-2.57174e-06
0.000197802
-3.50301e-06
0.000205589
-4.39382e-06
0.000211923
-5.21496e-06
0.000216955
-5.98831e-06
0.000220801
-6.71545e-06
0.000223596
-7.41555e-06
0.000225574
-8.09429e-06
0.00022685
-8.74521e-06
0.000227663
0.000228125
-9.37877e-06
-5.3812e-07
0.000166725
-1.44914e-06
0.000187931
-2.40521e-06
0.000198758
-3.29176e-06
0.000206476
-4.13914e-06
0.000212771
-4.92706e-06
0.000217743
-5.66524e-06
0.000221539
-6.36609e-06
0.000224297
-7.01498e-06
0.000226223
-7.63664e-06
0.000227472
-8.27362e-06
0.0002283
0.000228737
-8.88579e-06
-4.93105e-07
0.000167218
-1.33583e-06
0.000188774
-2.24716e-06
0.000199669
-3.11742e-06
0.000207346
-3.90184e-06
0.000213555
-4.6558e-06
0.000218497
-5.33686e-06
0.00022222
-5.98578e-06
0.000224946
-6.63112e-06
0.000226868
-7.26183e-06
0.000228102
-7.84319e-06
0.000228882
0.000229342
-8.44767e-06
-4.6137e-07
0.00016768
-1.25434e-06
0.000189567
-2.09948e-06
0.000200514
-2.931e-06
0.000208177
-3.68001e-06
0.000214304
-4.37575e-06
0.000219192
-5.02788e-06
0.000222872
-5.67241e-06
0.000225591
-6.27195e-06
0.000227467
-6.84924e-06
0.00022868
-7.44661e-06
0.000229479
0.000229894
-7.99816e-06
-4.03128e-07
0.000168083
-1.15266e-06
0.000190316
-1.95726e-06
0.000201319
-2.72668e-06
0.000208947
-3.46762e-06
0.000215045
-4.13313e-06
0.000219858
-4.75811e-06
0.000223497
-5.35322e-06
0.000226186
-5.92641e-06
0.000228041
-6.50895e-06
0.000229262
-7.01873e-06
0.000229989
0.000230419
-7.54372e-06
-3.51044e-07
0.000168434
-1.08364e-06
0.000191049
-1.84844e-06
0.000202084
-2.56097e-06
0.000209659
-3.24217e-06
0.000215726
-3.88127e-06
0.000220497
-4.50475e-06
0.000224121
-5.0494e-06
0.00022673
-5.60147e-06
0.000228593
-6.13938e-06
0.0002298
-6.69289e-06
0.000230542
0.000230903
-7.17791e-06
-3.24878e-07
0.000168759
-9.90521e-07
0.000191714
-1.69887e-06
0.000202792
-2.424e-06
0.000210384
-3.05444e-06
0.000216357
-3.66199e-06
0.000221104
-4.20991e-06
0.000224669
-4.78882e-06
0.000227309
-5.29114e-06
0.000229095
-5.81302e-06
0.000230322
-6.29514e-06
0.000231024
0.000231435
-6.82616e-06
-2.74676e-07
0.000169034
-8.83995e-07
0.000192324
-1.60149e-06
0.00020351
-2.24735e-06
0.00021103
-2.87277e-06
0.000216982
-3.43035e-06
0.000221662
-3.98164e-06
0.00022522
-4.48022e-06
0.000227808
-4.99397e-06
0.000229609
-5.46367e-06
0.000230792
-5.98014e-06
0.000231541
0.000231892
-6.43729e-06
-2.50511e-07
0.000169284
-8.45021e-07
0.000192918
-1.46048e-06
0.000204125
-2.10211e-06
0.000211672
-2.67244e-06
0.000217553
-3.2318e-06
0.000222221
-3.73559e-06
0.000225724
-4.2426e-06
0.000228315
-4.70505e-06
0.000230071
-5.18642e-06
0.000231273
-5.60599e-06
0.00023196
0.000232351
-6.06537e-06
-2.17158e-07
0.000169501
-7.45412e-07
0.000193447
-1.37571e-06
0.000204756
-1.93728e-06
0.000212234
-2.50948e-06
0.000218125
-3.01841e-06
0.00022273
-3.52341e-06
0.000226229
-3.95568e-06
0.000228747
-4.43082e-06
0.000230546
-4.86584e-06
0.000231708
-5.31605e-06
0.000232411
0.00023274
-5.70544e-06
-1.89224e-07
0.00016969
-6.68013e-07
0.000193925
-1.2439e-06
0.000205331
-1.82911e-06
0.000212819
-2.35052e-06
0.000218646
-2.8368e-06
0.000223217
-3.26877e-06
0.000226661
-3.73673e-06
0.000229215
-4.16314e-06
0.000230973
-4.58334e-06
0.000232128
-4.99783e-06
0.000232825
0.000233144
-5.40175e-06
-1.29547e-07
0.00016982
-6.1904e-07
0.000194415
-1.16678e-06
0.000205879
-1.6751e-06
0.000213327
-2.17232e-06
0.000219143
-2.63643e-06
0.000223681
-3.07547e-06
0.0002271
-3.49578e-06
0.000229635
-3.90664e-06
0.000231384
-4.28207e-06
0.000232504
-4.67869e-06
0.000233222
0.000233566
-5.10039e-06
-1.40597e-07
0.000169961
-5.49719e-07
0.000194824
-1.04346e-06
0.000206373
-1.57718e-06
0.000213861
-2.02365e-06
0.00021959
-2.43979e-06
0.000224097
-2.8591e-06
0.000227519
-3.26408e-06
0.00023004
-3.6277e-06
0.000231747
-4.01424e-06
0.00023289
-4.39727e-06
0.000233605
0.000233914
-4.74545e-06
-7.7284e-08
0.000170038
-4.82698e-07
0.000195229
-9.7318e-07
0.000206863
-1.40511e-06
0.000214293
-1.85668e-06
0.000220041
-2.27888e-06
0.000224519
-2.67748e-06
0.000227918
-3.03475e-06
0.000230398
-3.38157e-06
0.000232094
-3.74752e-06
0.000233256
-4.07394e-06
0.000233931
0.000234266
-4.42616e-06
-6.21102e-08
0.0001701
-4.13819e-07
0.000195581
-8.56177e-07
0.000207306
-1.31483e-06
0.000214751
-1.71889e-06
0.000220445
-2.09441e-06
0.000224895
-2.44857e-06
0.000228272
-2.78689e-06
0.000230736
-3.14651e-06
0.000232454
-3.4968e-06
0.000233606
-3.81438e-06
0.000234249
0.000234567
-4.11541e-06
-3.42774e-08
0.000170134
-3.54011e-07
0.000195901
-7.6694e-07
0.000207719
-1.17775e-06
0.000215162
-1.56064e-06
0.000220828
-1.94268e-06
0.000225277
-2.28087e-06
0.00022861
-2.60489e-06
0.00023106
-2.91966e-06
0.000232769
-3.23121e-06
0.000233918
-3.53816e-06
0.000234556
0.000234865
-3.83543e-06
1.18841e-09
0.000170133
-2.91808e-07
0.000196194
-6.81647e-07
0.000208108
-1.07001e-06
0.000215551
-1.43277e-06
0.000221191
-1.74358e-06
0.000225587
-2.08971e-06
0.000228956
-2.39851e-06
0.000231369
-2.70129e-06
0.000233071
-2.9752e-06
0.000234192
-3.28969e-06
0.00023487
0.000235207
-3.63176e-06
2.50488e-08
0.000170108
-2.36575e-07
0.000196455
-6.00098e-07
0.000208472
-9.65045e-07
0.000215916
-1.3081e-06
0.000221534
-1.62796e-06
0.000225907
-1.90352e-06
0.000229232
-2.1682e-06
0.000231634
-2.45307e-06
0.000233356
-2.73064e-06
0.000234469
-2.98779e-06
0.000235127
0.00023545
-3.23126e-06
3.32223e-08
0.000170075
-1.80455e-07
0.000196669
-5.18479e-07
0.00020881
-8.36709e-07
0.000216234
-1.15992e-06
0.000221857
-1.43347e-06
0.000226181
-1.71951e-06
0.000229518
-1.99602e-06
0.00023191
-2.23988e-06
0.0002336
-2.51196e-06
0.000234742
-2.76125e-06
0.000235377
0.000235717
-3.02808e-06
6.38632e-08
0.000170011
-1.20313e-07
0.000196853
-4.09932e-07
0.0002091
-7.35556e-07
0.000216559
-1.01288e-06
0.000222135
-1.29817e-06
0.000226466
-1.53976e-06
0.000229759
-1.77247e-06
0.000232143
-2.03003e-06
0.000233858
-2.25459e-06
0.000234966
-2.50383e-06
0.000235626
0.000235938
-2.72443e-06
8.5902e-08
0.000169925
-9.09972e-08
0.00019703
-3.59717e-07
0.000209368
-6.3687e-07
0.000216837
-8.96753e-07
0.000222395
-1.13636e-06
0.000226706
-1.36302e-06
0.000229986
-1.60946e-06
0.000232389
-1.82303e-06
0.000234071
-2.03527e-06
0.000235178
-2.24788e-06
0.000235839
0.000236147
-2.45701e-06
1.17806e-07
0.000169807
-1.20358e-08
0.00019716
-2.56061e-07
0.000209612
-5.12941e-07
0.000217093
-7.55033e-07
0.000222637
-9.78177e-07
0.000226929
-1.18926e-06
0.000230197
-1.39307e-06
0.000232593
-1.5933e-06
0.000234271
-1.79158e-06
0.000235377
-1.98574e-06
0.000236033
0.000236338
-2.17711e-06
1.39829e-07
0.000169667
3.88702e-08
0.000197261
-1.79322e-07
0.000209831
-4.17033e-07
0.000217331
-6.42398e-07
0.000222862
-8.23504e-07
0.00022711
-1.01905e-06
0.000230393
-1.2085e-06
0.000232783
-1.39528e-06
0.000234458
-1.58139e-06
0.000235563
-1.77039e-06
0.000236222
0.000236534
-1.96594e-06
1.44069e-07
0.000169523
8.88593e-08
0.000197316
-1.02588e-07
0.000210022
-2.97941e-07
0.000217526
-5.06014e-07
0.00022307
-6.97993e-07
0.000227302
-8.79242e-07
0.000230574
-1.02648e-06
0.00023293
-1.19862e-06
0.00023463
-1.34107e-06
0.000235705
-1.5044e-06
0.000236385
0.000236657
-1.62737e-06
1.90606e-07
0.000169333
1.35849e-07
0.000197371
-8.84797e-09
0.000210167
-2.08391e-07
0.000217726
-3.72718e-07
0.000223235
-5.48307e-07
0.000227478
-6.86868e-07
0.000230713
-8.48013e-07
0.000233091
-9.79545e-07
0.000234762
-1.14005e-06
0.000235866
-1.27729e-06
0.000236522
0.000236832
-1.45239e-06
1.95546e-07
0.000169137
1.82181e-07
0.000197384
3.34588e-08
0.000210315
-1.21346e-07
0.000217881
-2.69028e-07
0.000223382
-4.01471e-07
0.00022761
-5.53006e-07
0.000230864
-6.72435e-07
0.00023321
-7.90803e-07
0.00023488
-9.08892e-07
0.000235984
-1.05215e-06
0.000236666
0.000236937
-1.15689e-06
2.17901e-07
0.000168919
2.01632e-07
0.000197401
1.27543e-07
0.00021039
-1.34822e-08
0.000218022
-1.67962e-07
0.000223537
-2.83317e-07
0.000227725
-3.65135e-07
0.000230946
-4.99162e-07
0.000233344
-6.04684e-07
0.000234986
-7.11858e-07
0.000236091
-8.23956e-07
0.000236778
0.000237059
-9.46416e-07
2.41435e-07
0.000168678
2.76231e-07
0.000197366
1.92066e-07
0.000210474
7.42573e-08
0.00021814
-4.56826e-09
0.000223616
-1.36697e-07
0.000227858
-2.34239e-07
0.000231043
-2.99362e-07
0.000233409
-3.91728e-07
0.000235078
-5.12514e-07
0.000236212
-5.7279e-07
0.000236838
0.000237136
-6.49766e-07
2.45613e-07
0.000168432
3.22345e-07
0.000197289
2.58892e-07
0.000210537
1.60106e-07
0.000218238
6.41239e-08
0.000223712
1.44722e-09
0.00022792
-7.9141e-08
0.000231124
-1.58541e-07
0.000233489
-2.10687e-07
0.00023513
-2.6496e-07
0.000236266
-3.50863e-07
0.000236924
0.000237217
-4.32059e-07
2.89208e-07
0.000168143
3.67187e-07
0.000197211
3.4847e-07
0.000210556
2.68729e-07
0.000218318
2.15785e-07
0.000223764
1.43915e-07
0.000227992
1.03726e-07
0.000231164
3.63534e-08
0.000233556
-3.36363e-08
0.0002352
-1.08282e-07
0.000236341
-1.65191e-07
0.000236981
0.000237326
-2.74528e-07
2.89198e-07
0.000167854
4.1182e-07
0.000197089
3.88435e-07
0.000210579
3.51664e-07
0.000218355
3.14572e-07
0.000223802
2.83741e-07
0.000228023
2.29568e-07
0.000231218
2.03752e-07
0.000233582
1.47806e-07
0.000235256
1.17746e-07
0.000236371
8.77333e-08
0.000237011
0.000237348
6.58304e-08
3.15841e-07
0.000167538
4.58291e-07
0.000196946
4.78359e-07
0.000210559
4.6026e-07
0.000218373
4.11209e-07
0.000223851
3.95272e-07
0.000228039
3.83154e-07
0.000231231
3.71363e-07
0.000233594
3.57075e-07
0.00023527
3.40864e-07
0.000236387
2.93264e-07
0.000237058
0.000237377
2.6434e-07
3.38405e-07
0.0001672
5.02192e-07
0.000196782
5.43534e-07
0.000210518
5.41711e-07
0.000218375
5.35458e-07
0.000223857
5.34433e-07
0.00022804
5.36179e-07
0.000231229
5.36776e-07
0.000233593
5.36126e-07
0.000235271
5.30805e-07
0.000236392
5.2442e-07
0.000237065
0.000237382
5.19431e-07
3.61104e-07
0.000166839
5.47134e-07
0.000196596
6.07116e-07
0.000210458
6.23112e-07
0.000218359
6.59308e-07
0.000223821
6.7182e-07
0.000228027
6.86945e-07
0.000231214
7.00738e-07
0.000233579
7.38216e-07
0.000235234
7.4278e-07
0.000236388
7.40181e-07
0.000237067
0.000237395
7.27926e-07
3.61205e-07
0.000166477
5.90101e-07
0.000196367
6.70747e-07
0.000210377
7.30561e-07
0.000218299
7.54563e-07
0.000223797
7.81832e-07
0.000228
8.38094e-07
0.000231157
8.92623e-07
0.000233525
8.86623e-07
0.00023524
9.32132e-07
0.000236342
9.47517e-07
0.000237052
0.000237344
9.98095e-07
4.06293e-07
0.000166071
6.33614e-07
0.00019614
7.59688e-07
0.000210251
8.11102e-07
0.000218248
8.51531e-07
0.000223756
9.48103e-07
0.000227904
9.9031e-07
0.000231115
1.02867e-06
0.000233487
1.09097e-06
0.000235177
1.11704e-06
0.000236316
1.18226e-06
0.000236987
0.00023737
1.15664e-06
4.07373e-07
0.000165664
6.79507e-07
0.000195868
8.2477e-07
0.000210106
9.1841e-07
0.000218154
1.00148e-06
0.000223673
1.03068e-06
0.000227874
1.11323e-06
0.000231033
1.19561e-06
0.000233404
1.27148e-06
0.000235102
1.3456e-06
0.000236242
1.39696e-06
0.000236935
0.000237275
1.4921e-06
4.30464e-07
0.000165233
6.9938e-07
0.000195599
8.63135e-07
0.000209942
9.74038e-07
0.000218043
1.07187e-06
0.000223575
1.19718e-06
0.000227749
1.295e-06
0.000230935
1.3889e-06
0.00023331
1.48073e-06
0.00023501
1.56365e-06
0.000236159
1.63851e-06
0.000236861
0.000237205
1.70775e-06
4.39659e-07
0.000164794
7.70195e-07
0.000195269
9.53962e-07
0.000209758
1.08227e-06
0.000217915
1.19713e-06
0.000223461
1.30779e-06
0.000227638
1.41857e-06
0.000230824
1.52601e-06
0.000233203
1.655e-06
0.000234881
1.75161e-06
0.000236063
1.8439e-06
0.000236768
0.000237111
1.93883e-06
4.80086e-07
0.000164314
8.14417e-07
0.000194934
1.01934e-06
0.000209554
1.19133e-06
0.000217743
1.31876e-06
0.000223333
1.44488e-06
0.000227512
1.59647e-06
0.000230673
1.71592e-06
0.000233084
1.80058e-06
0.000234796
1.93349e-06
0.00023593
2.0242e-06
0.000236678
0.000237016
2.11836e-06
4.82947e-07
0.000163831
8.59517e-07
0.000194558
1.0823e-06
0.000209331
1.24563e-06
0.00021758
1.41624e-06
0.000223162
1.58346e-06
0.000227345
1.7187e-06
0.000230537
1.87833e-06
0.000232924
2.03111e-06
0.000234643
2.12049e-06
0.00023584
2.26394e-06
0.000236534
0.000236892
2.38806e-06
5.0679e-07
0.000163324
8.7904e-07
0.000194185
1.17518e-06
0.000209035
1.3546e-06
0.0002174
1.54104e-06
0.000222976
1.69345e-06
0.000227193
1.87292e-06
0.000230358
2.01725e-06
0.00023278
2.17987e-06
0.000234481
2.33458e-06
0.000235686
2.47462e-06
0.000236394
0.000236803
2.5634e-06
5.13285e-07
0.000162811
9.50555e-07
0.000193748
1.21459e-06
0.000208771
1.43814e-06
0.000217177
1.63991e-06
0.000222774
1.83529e-06
0.000226997
2.02675e-06
0.000230166
2.21007e-06
0.000232596
2.36126e-06
0.00023433
2.55687e-06
0.00023549
2.69493e-06
0.000236256
0.00023661
2.88829e-06
5.39708e-07
0.000162271
9.74776e-07
0.000193313
1.28118e-06
0.000208464
1.55052e-06
0.000216907
1.73924e-06
0.000222586
1.97822e-06
0.000226758
2.15373e-06
0.000229991
2.34598e-06
0.000232404
2.5786e-06
0.000234097
2.72676e-06
0.000235342
2.91627e-06
0.000236067
0.000236498
3.02859e-06
5.72901e-07
0.000161698
1.02316e-06
0.000192863
1.37075e-06
0.000208117
1.61682e-06
0.000216661
1.87004e-06
0.000222332
2.08608e-06
0.000226542
2.31995e-06
0.000229757
2.55926e-06
0.000232165
2.73986e-06
0.000233916
2.95448e-06
0.000235127
3.14388e-06
0.000235877
0.000236276
3.36616e-06
5.7767e-07
0.00016112
1.05668e-06
0.000192384
1.4257e-06
0.000207748
1.70565e-06
0.000216381
1.97462e-06
0.000222063
2.21115e-06
0.000226306
2.46955e-06
0.000229499
2.69193e-06
0.000231942
2.93301e-06
0.000233675
3.16449e-06
0.000234896
3.35224e-06
0.000235689
0.000236091
3.53725e-06
5.97961e-07
0.000160522
1.11345e-06
0.000191868
1.48478e-06
0.000207376
1.82638e-06
0.00021604
2.09305e-06
0.000221797
2.36771e-06
0.000226031
2.61615e-06
0.00022925
2.90331e-06
0.000231655
3.10136e-06
0.000233477
3.34687e-06
0.00023465
3.58624e-06
0.00023545
0.000235844
3.83271e-06
6.1709e-07
0.000159905
1.15569e-06
0.00019133
1.56599e-06
0.000206966
1.87909e-06
0.000215727
2.18152e-06
0.000221494
2.50172e-06
0.000225711
2.75894e-06
0.000228993
3.03614e-06
0.000231378
3.30242e-06
0.000233211
3.55868e-06
0.000234394
3.7961e-06
0.000235213
0.000235654
3.98646e-06
6.5389e-07
0.000159251
1.1906e-06
0.000190793
1.64941e-06
0.000206507
2.0036e-06
0.000215372
2.29936e-06
0.000221199
2.60736e-06
0.000225403
2.93171e-06
0.000228669
3.22221e-06
0.000231088
3.50149e-06
0.000232932
3.77151e-06
0.000234124
4.0346e-06
0.00023495
0.000235385
4.3037e-06
6.30436e-07
0.000158621
1.25275e-06
0.000190171
1.7064e-06
0.000206054
2.0797e-06
0.000214999
2.44271e-06
0.000220836
2.73851e-06
0.000225107
3.07887e-06
0.000228328
3.38248e-06
0.000230784
3.70172e-06
0.000232613
3.95644e-06
0.00023387
4.25426e-06
0.000234652
0.00023513
4.50921e-06
7.00426e-07
0.00015792
1.25962e-06
0.000189611
1.73685e-06
0.000205576
2.15439e-06
0.000214582
2.53497e-06
0.000220455
2.89893e-06
0.000224743
3.22566e-06
0.000228002
3.5417e-06
0.000230468
3.87379e-06
0.000232281
4.19245e-06
0.000233551
4.4679e-06
0.000234376
0.000234878
4.72004e-06
6.84775e-07
0.000157236
1.37558e-06
0.000188921
1.87404e-06
0.000205078
2.31163e-06
0.000214144
2.68244e-06
0.000220084
3.06156e-06
0.000224364
3.40218e-06
0.000227661
3.75908e-06
0.000230111
4.07647e-06
0.000231963
4.41004e-06
0.000233217
4.70795e-06
0.000234079
0.00023452
5.06605e-06
7.04763e-07
0.000156531
1.364e-06
0.000188261
1.90377e-06
0.000204538
2.33256e-06
0.000213715
2.77512e-06
0.000219642
3.14181e-06
0.000223998
3.55032e-06
0.000227253
3.89278e-06
0.000229769
4.25003e-06
0.000231606
4.56531e-06
0.000232902
4.88906e-06
0.000233755
0.000234232
5.17685e-06
7.62105e-07
0.000155769
1.42959e-06
0.000187594
1.99355e-06
0.000203974
2.46751e-06
0.000213241
2.86702e-06
0.000219242
3.30716e-06
0.000223557
3.67562e-06
0.000226884
4.05882e-06
0.000229385
4.45671e-06
0.000231208
4.81454e-06
0.000232544
5.19572e-06
0.000233374
0.000233905
5.52225e-06
7.57629e-07
0.000155011
1.46345e-06
0.000186888
2.04914e-06
0.000203388
2.57514e-06
0.000212715
3.02237e-06
0.000218795
3.44206e-06
0.000223138
3.88518e-06
0.000226441
4.28234e-06
0.000228988
4.63794e-06
0.000230853
5.00554e-06
0.000232177
5.35408e-06
0.000233025
0.000233563
5.69643e-06
7.48675e-07
0.000154262
1.50473e-06
0.000186132
2.13633e-06
0.000202757
2.65153e-06
0.0002122
3.14245e-06
0.000218304
3.59014e-06
0.00022269
4.00916e-06
0.000226022
4.4204e-06
0.000228577
4.85122e-06
0.000230422
5.26123e-06
0.000231767
5.63388e-06
0.000232653
0.000233188
6.00944e-06
8.10945e-07
0.000153451
1.56757e-06
0.000185375
2.20004e-06
0.000202124
2.76117e-06
0.000211639
3.24391e-06
0.000217821
3.72805e-06
0.000222206
4.16848e-06
0.000225582
4.65639e-06
0.000228089
5.03334e-06
0.000230045
5.46278e-06
0.000231337
5.86392e-06
0.000232252
0.000232854
6.19716e-06
8.19571e-07
0.000152632
1.60341e-06
0.000184592
2.29105e-06
0.000201437
2.83773e-06
0.000211092
3.37409e-06
0.000217285
3.87476e-06
0.000221705
4.33056e-06
0.000225126
4.79971e-06
0.00022762
5.28949e-06
0.000229555
5.69535e-06
0.000230932
6.10312e-06
0.000231844
0.000232379
6.57823e-06
8.33851e-07
0.000151798
1.68157e-06
0.000183744
2.34863e-06
0.00020077
2.9604e-06
0.00021048
3.50646e-06
0.000216739
4.02368e-06
0.000221188
4.52163e-06
0.000224628
4.9785e-06
0.000227163
5.4748e-06
0.000229059
5.93755e-06
0.000230469
6.37683e-06
0.000231405
0.000232011
6.74509e-06
8.62712e-07
0.000150935
1.69233e-06
0.000182914
2.45141e-06
0.00020001
3.07529e-06
0.000209857
3.666e-06
0.000216148
4.13585e-06
0.000220718
4.68699e-06
0.000224077
5.18429e-06
0.000226666
5.66459e-06
0.000228578
6.1262e-06
0.000230007
6.56523e-06
0.000230966
0.000231536
7.04055e-06
8.78938e-07
0.000150056
1.7355e-06
0.000182058
2.50811e-06
0.000199238
3.15319e-06
0.000209211
3.73721e-06
0.000215564
4.3257e-06
0.00022013
4.85524e-06
0.000223547
5.39373e-06
0.000226127
5.86029e-06
0.000228112
6.36242e-06
0.000229505
6.81645e-06
0.000230512
0.000231114
7.23807e-06
9.02428e-07
0.000149154
1.80305e-06
0.000181157
2.57752e-06
0.000198463
3.26982e-06
0.000208519
3.88761e-06
0.000214946
4.48189e-06
0.000219535
5.05445e-06
0.000222975
5.58251e-06
0.000225599
6.12039e-06
0.000227574
6.58846e-06
0.000229037
7.14168e-06
0.000229959
0.000230623
7.63304e-06
9.28525e-07
0.000148225
1.85025e-06
0.000180235
2.64891e-06
0.000197665
3.40364e-06
0.000207764
4.01317e-06
0.000214337
4.59965e-06
0.000218949
5.23011e-06
0.000222344
5.77389e-06
0.000225056
6.29955e-06
0.000227048
6.86031e-06
0.000228477
7.34364e-06
0.000229475
0.000230183
7.78403e-06
9.58825e-07
0.000147267
1.90472e-06
0.000179289
2.78561e-06
0.000196784
3.45981e-06
0.00020709
4.12871e-06
0.000213668
4.80095e-06
0.000218277
5.33931e-06
0.000221806
5.99421e-06
0.000224401
6.56161e-06
0.000226481
7.12577e-06
0.000227912
7.62161e-06
0.000228979
0.000229636
8.16789e-06
9.74668e-07
0.000146292
1.95571e-06
0.000178308
2.84402e-06
0.000195896
3.58151e-06
0.000206353
4.31421e-06
0.000212935
4.92149e-06
0.000217669
5.58746e-06
0.00022114
6.16344e-06
0.000223825
6.74455e-06
0.0002259
7.30508e-06
0.000227352
7.836e-06
0.000228449
0.000229116
8.35668e-06
9.96567e-07
0.000145295
2.00247e-06
0.000177302
2.8946e-06
0.000195003
3.74767e-06
0.0002055
4.41759e-06
0.000212265
5.1298e-06
0.000216957
5.77117e-06
0.000220499
6.34642e-06
0.000223249
6.98814e-06
0.000225258
7.56681e-06
0.000226773
8.17191e-06
0.000227843
0.00022861
8.67811e-06
1.01777e-06
0.000144278
2.05427e-06
0.000176266
2.99438e-06
0.000194063
3.80695e-06
0.000204687
4.58486e-06
0.000211487
5.29941e-06
0.000216243
5.95908e-06
0.000219839
6.59494e-06
0.000222614
7.21115e-06
0.000224642
7.83468e-06
0.00022615
8.41213e-06
0.000227266
0.00022802
9.00137e-06
1.04177e-06
0.000143236
2.14584e-06
0.000175162
3.1093e-06
0.0001931
3.95502e-06
0.000203841
4.73733e-06
0.000210705
5.44612e-06
0.000215534
6.14984e-06
0.000219135
6.84845e-06
0.000221915
7.5068e-06
0.000223984
8.11815e-06
0.000225538
8.74133e-06
0.000226643
0.000227413
9.34889e-06
1.06471e-06
0.000142171
2.15861e-06
0.000174068
3.15392e-06
0.000192105
4.04126e-06
0.000202954
4.82105e-06
0.000209925
5.62144e-06
0.000214734
6.31657e-06
0.00021844
7.01148e-06
0.00022122
7.68178e-06
0.000223314
8.29743e-06
0.000224923
8.8961e-06
0.000226044
0.000226905
9.40433e-06
1.08493e-06
0.000141086
2.2112e-06
0.000172942
3.28388e-06
0.000191032
4.1961e-06
0.000202042
5.02449e-06
0.000209097
5.77506e-06
0.000213983
6.51496e-06
0.0002177
7.25431e-06
0.000220481
7.96476e-06
0.000222603
8.63228e-06
0.000224255
9.26428e-06
0.000225412
0.000226213
9.95542e-06
1.14537e-06
0.000139941
2.30229e-06
0.000171785
3.36829e-06
0.000189966
4.30804e-06
0.000201102
5.16074e-06
0.000208244
5.95868e-06
0.000213185
6.74467e-06
0.000216914
7.49996e-06
0.000219726
8.1605e-06
0.000221943
8.89326e-06
0.000223523
9.54713e-06
0.000224758
0.000225562
1.01982e-05
1.12236e-06
0.000138818
2.35456e-06
0.000170553
3.45214e-06
0.000188868
4.42996e-06
0.000200124
5.37415e-06
0.0002073
6.14559e-06
0.000212414
6.9503e-06
0.00021611
7.72818e-06
0.000218948
8.45306e-06
0.000221218
9.15328e-06
0.000222823
9.85607e-06
0.000224056
0.000224888
1.05308e-05
1.1867e-06
0.000137632
2.40611e-06
0.000169333
3.54059e-06
0.000187734
4.59561e-06
0.000199069
5.44429e-06
0.000206451
6.36144e-06
0.000211497
7.18915e-06
0.000215282
7.93455e-06
0.000218202
8.70299e-06
0.000220449
9.44522e-06
0.00022208
1.01506e-05
0.00022335
0.000224234
1.08039e-05
1.19871e-06
0.000136433
2.45647e-06
0.000168075
3.62522e-06
0.000186565
4.66787e-06
0.000198027
5.66832e-06
0.000205451
6.53305e-06
0.000210632
7.38229e-06
0.000214433
8.19955e-06
0.000217385
9.01335e-06
0.000219636
9.75183e-06
0.000221342
1.05006e-05
0.000222601
0.000223472
1.12633e-05
1.24994e-06
0.000135183
2.54867e-06
0.000166777
3.75934e-06
0.000185354
4.83998e-06
0.000196946
5.81744e-06
0.000204474
6.73454e-06
0.000209715
7.63267e-06
0.000213535
8.46966e-06
0.000216548
9.27694e-06
0.000218828
1.00545e-05
0.000220564
1.07954e-05
0.000221861
0.000222821
1.14461e-05
1.23868e-06
0.000133944
2.60449e-06
0.000165411
3.84891e-06
0.00018411
4.96538e-06
0.00019583
6.02821e-06
0.000203411
6.96783e-06
0.000208775
7.81042e-06
0.000212692
8.721e-06
0.000215638
9.52166e-06
0.000218028
1.03186e-05
0.000219767
1.10924e-05
0.000221087
0.000221993
1.19204e-05
1.33355e-06
0.000132611
2.65759e-06
0.000164087
3.94086e-06
0.000182827
5.14598e-06
0.000194624
6.1402e-06
0.000202416
7.1616e-06
0.000207754
8.07425e-06
0.000211779
8.95484e-06
0.000214757
9.82758e-06
0.000217155
1.06962e-05
0.000218899
1.14731e-05
0.00022031
0.000221311
1.21549e-05
1.31402e-06
0.000131297
2.75612e-06
0.000162645
4.08231e-06
0.000181501
5.27554e-06
0.000193431
6.4077e-06
0.000201284
7.3609e-06
0.000206801
8.37264e-06