/*--------------------------------*- C++ -*----------------------------------*\
| =========                 |                                                 |
| \\      /  F ield         | OpenFOAM: The Open Source CFD Toolbox           |
|  \\    /   O peration     | Version:  2.3.1                                 |
|   \\  /    A nd           | Web:      www.OpenFOAM.org                      |
|    \\/     M anipulation  |                                                 |
\*---------------------------------------------------------------------------*/
FoamFile
{
    version     2.0;
    format      ascii;
    class       volVectorField;
    location    "0.89";
    object      U;
}
// * * * * * * * * * * * * * * * * * * * * * * * * * * * * * * * * * * * * * //

dimensions      [0 1 -1 0 0 0 0];

internalField   nonuniform List<vector> 
1000
(
(-0.0022007 0.00279497 0.000328185)
(-0.00248291 0.00256981 0.000264482)
(-0.00252308 0.00256122 0.00013882)
(-0.00255947 0.00254584 0.000128417)
(-0.0025669 0.00255218 4.75316e-05)
(-0.00257139 0.00254923 -5.95958e-06)
(-0.00257124 0.002539 -5.47018e-05)
(-0.00257058 0.00252327 -7.67133e-05)
(-0.00257131 0.00250725 -6.27195e-05)
(-0.00257248 0.00249682 -2.53227e-05)
(-0.00275032 0.00771519 8.68707e-05)
(-0.00287629 0.0076194 0.000103736)
(-0.00289608 0.00768747 0.000141091)
(-0.00291303 0.00771207 0.000124467)
(-0.00291918 0.00774461 5.37269e-05)
(-0.00292195 0.00774218 -1.73974e-05)
(-0.00292093 0.00770951 -7.89716e-05)
(-0.00291922 0.00765303 -0.000106548)
(-0.00291242 0.00759216 -7.23423e-05)
(-0.00283394 0.00753595 -2.59265e-05)
(-0.00334013 0.0130641 0.000114709)
(-0.00347048 0.0131838 0.000203839)
(-0.0034881 0.013288 0.000230347)
(-0.00350051 0.0133728 0.000185192)
(-0.00350699 0.0134274 7.82727e-05)
(-0.00350908 0.0134278 -4.04612e-05)
(-0.00350651 0.0133759 -0.000143376)
(-0.003503 0.0132822 -0.000194284)
(-0.00349243 0.0131857 -0.000153262)
(-0.00339051 0.0130532 -6.91346e-05)
(-0.00425825 0.0226263 0.000123839)
(-0.00436109 0.0230593 0.000293408)
(-0.0043645 0.0234462 0.000332069)
(-0.00436785 0.0237572 0.000263844)
(-0.00437205 0.0239254 0.000108664)
(-0.00437347 0.0239314 -6.87958e-05)
(-0.00437206 0.0237766 -0.000224532)
(-0.00437298 0.0234733 -0.000298701)
(-0.00437251 0.0231026 -0.000264216)
(-0.00427721 0.0226551 -0.000103949)
(-0.0063647 0.0213078 0.000577313)
(-0.0065834 0.0216035 0.000970615)
(-0.00663219 0.0216904 0.000929454)
(-0.00665972 0.0218305 0.000662621)
(-0.00667674 0.0219041 0.000251797)
(-0.00667855 0.0219061 -0.000188857)
(-0.00666497 0.0218371 -0.000600052)
(-0.00664158 0.021696 -0.000869712)
(-0.00659681 0.0216135 -0.000920001)
(-0.00638116 0.0213155 -0.000553341)
(-0.00707331 0.00228855 7.38288e-05)
(-0.00726815 0.00235472 8.50508e-05)
(-0.00727375 0.00238364 9.55531e-05)
(-0.00731805 0.00238902 9.32674e-05)
(-0.00732787 0.00239716 3.96906e-05)
(-0.0073337 0.00239596 -8.99005e-06)
(-0.0073299 0.00238609 -5.38849e-05)
(-0.00732258 0.00236987 -7.77542e-05)
(-0.00731501 0.00234635 -8.15032e-05)
(-0.00727268 0.00225637 -3.75163e-05)
(-0.00796322 0.00679354 5.6633e-05)
(-0.00809763 0.00694082 0.000101153)
(-0.00811354 0.00702699 0.000128748)
(-0.00813917 0.00707433 0.00010966)
(-0.00815078 0.00710704 4.88874e-05)
(-0.00815477 0.00710664 -1.77568e-05)
(-0.00814875 0.00707546 -7.67552e-05)
(-0.00813832 0.00701978 -0.000106901)
(-0.00811976 0.00695108 -9.59624e-05)
(-0.00799437 0.00680498 -4.16113e-05)
(-0.00943759 0.0117659 0.000106504)
(-0.00961574 0.0119586 0.000205256)
(-0.00964805 0.012081 0.000220233)
(-0.00967779 0.0121789 0.000172467)
(-0.00969479 0.0122354 7.30047e-05)
(-0.00969825 0.0122366 -3.89216e-05)
(-0.00968748 0.0121836 -0.000138152)
(-0.00966918 0.0120847 -0.00019212)
(-0.00964061 0.0119728 -0.000182292)
(-0.00948731 0.0117874 -8.77217e-05)
(-0.0117324 0.0198338 0.00018217)
(-0.0119025 0.0202184 0.000375371)
(-0.0119237 0.0205708 0.000350178)
(-0.0119467 0.0208639 0.000264251)
(-0.0119634 0.0210206 0.000106732)
(-0.0119664 0.0210264 -6.90764e-05)
(-0.0119551 0.0208824 -0.000228022)
(-0.011939 0.0206 -0.000318751)
(-0.0119206 0.0202642 -0.000352632)
(-0.0117563 0.0198881 -0.000169632)
(-0.0169359 0.0189716 0.000546212)
(-0.0172474 0.0197425 0.000948798)
(-0.0173669 0.0199594 0.000875559)
(-0.0174606 0.0201537 0.000621434)
(-0.0175153 0.0202474 0.000234883)
(-0.0175198 0.0202499 -0.000176608)
(-0.0174739 0.0201622 -0.00056374)
(-0.0173893 0.019971 -0.000820339)
(-0.0172778 0.0197646 -0.00090348)
(-0.0169727 0.0189937 -0.000525947)
(-0.0113788 0.00183737 8.59346e-05)
(-0.0114804 0.00188549 0.000125294)
(-0.0114918 0.00190404 9.22407e-05)
(-0.0115269 0.00191153 7.59491e-05)
(-0.0115423 0.00191814 3.31982e-05)
(-0.0115466 0.00191749 -7.58063e-06)
(-0.0115369 0.00190934 -4.40493e-05)
(-0.0115177 0.0018954 -6.50936e-05)
(-0.0114937 0.00187493 -7.43027e-05)
(-0.0113907 0.00179707 -3.6342e-05)
(-0.0124602 0.0054467 6.37953e-05)
(-0.0125647 0.00555186 0.000113905)
(-0.0125939 0.00561524 0.000113838)
(-0.0126293 0.00565651 9.11521e-05)
(-0.0126493 0.00568271 4.07055e-05)
(-0.0126533 0.00568267 -1.45082e-05)
(-0.0126398 0.00565624 -6.34386e-05)
(-0.0126144 0.00560852 -9.03547e-05)
(-0.0125828 0.00554749 -8.9556e-05)
(-0.0124723 0.00541066 -4.21191e-05)
(-0.0146283 0.00937443 9.77763e-05)
(-0.0147601 0.0095509 0.000189921)
(-0.014812 0.0096629 0.000188742)
(-0.0148629 0.00975251 0.000143746)
(-0.0148931 0.00980247 6.04744e-05)
(-0.0148974 0.00980351 -3.24828e-05)
(-0.0148749 0.00975586 -0.000115817)
(-0.0148333 0.00966571 -0.000164042)
(-0.0147847 0.00955801 -0.000167784)
(-0.0146582 0.00937466 -8.35401e-05)
(-0.0179847 0.0152595 0.000177347)
(-0.018164 0.0156364 0.000353147)
(-0.0182325 0.0159379 0.00031453)
(-0.0182989 0.0161829 0.000230584)
(-0.0183391 0.0163124 9.17648e-05)
(-0.0183436 0.016317 -6.06421e-05)
(-0.0183118 0.0161974 -0.000200472)
(-0.0182537 0.0159613 -0.000287338)
(-0.0181902 0.0156719 -0.000332322)
(-0.0180134 0.0153003 -0.000167183)
(-0.0245747 0.0149939 0.00047695)
(-0.0248633 0.0157229 0.000834944)
(-0.0250572 0.0159748 0.000739469)
(-0.0252305 0.0161721 0.000517512)
(-0.025328 0.0162658 0.000194154)
(-0.0253349 0.0162681 -0.000147126)
(-0.0252514 0.0161798 -0.000470767)
(-0.0250915 0.0159866 -0.000694095)
(-0.0249093 0.0157456 -0.000798104)
(-0.0246298 0.0150174 -0.000461167)
(-0.0143284 0.00120653 3.89814e-05)
(-0.0145071 0.00124652 6.28306e-05)
(-0.0145506 0.00125925 5.3045e-05)
(-0.0145961 0.00126633 4.31328e-05)
(-0.0146203 0.00127099 2.01301e-05)
(-0.0146249 0.00127069 -3.52691e-06)
(-0.0146093 0.00126518 -2.50626e-05)
(-0.0145788 0.0012559 -3.82234e-05)
(-0.0145402 0.00124265 -4.58577e-05)
(-0.0143985 0.00119557 -2.31173e-05)
(-0.0156795 0.00360889 3.37898e-05)
(-0.015834 0.00368939 6.59966e-05)
(-0.0158873 0.00373281 6.96588e-05)
(-0.0159381 0.0037637 5.5531e-05)
(-0.015968 0.00378187 2.55212e-05)
(-0.0159727 0.00378188 -8.02892e-06)
(-0.0159516 0.00376377 -3.80301e-05)
(-0.0159116 0.00373094 -5.48525e-05)
(-0.015863 0.00368919 -5.32969e-05)
(-0.0157195 0.00360201 -2.41122e-05)
(-0.0182989 0.00624541 5.86057e-05)
(-0.018474 0.00637116 0.000119761)
(-0.0185558 0.00645494 0.000122037)
(-0.0186305 0.00652192 9.24459e-05)
(-0.0186747 0.00655827 3.9077e-05)
(-0.0186798 0.00655902 -2.0504e-05)
(-0.0186454 0.00652415 -7.43265e-05)
(-0.018581 0.00645793 -0.000106211)
(-0.018506 0.00637697 -0.000107098)
(-0.0183379 0.00625019 -5.129e-05)
(-0.0223244 0.00988742 0.000119306)
(-0.0225766 0.0101611 0.000242282)
(-0.0227009 0.0103761 0.000219365)
(-0.022812 0.0105467 0.000158612)
(-0.0228764 0.0106361 6.2624e-05)
(-0.0228822 0.0106391 -4.17947e-05)
(-0.022829 0.010556 -0.000138507)
(-0.0227286 0.0103918 -0.000201035)
(-0.0226127 0.010185 -0.000228766)
(-0.022365 0.00991589 -0.000113064)
(-0.0292087 0.00997721 0.000321987)
(-0.0296326 0.0104966 0.000578372)
(-0.0299113 0.010719 0.00050893)
(-0.0301514 0.0108808 0.000351776)
(-0.0302842 0.0109578 0.000131149)
(-0.030293 0.0109594 -0.000100267)
(-0.0301775 0.0108864 -0.000320974)
(-0.0299543 0.0107285 -0.00047875)
(-0.029691 0.0105145 -0.000554441)
(-0.0292775 0.00999671 -0.000312264)
(-0.0160693 0.000513203 1.09454e-05)
(-0.016241 0.0005281 1.3996e-05)
(-0.0162957 0.000532425 7.58715e-06)
(-0.0163456 0.000534609 6.41663e-06)
(-0.0163752 0.000536006 4.3683e-06)
(-0.0163796 0.000535719 3.46422e-06)
(-0.0163586 0.000533734 1.9453e-06)
(-0.0163186 0.000530418 -1.60158e-07)
(-0.0162689 0.000525531 -5.72369e-06)
(-0.0161071 0.000508156 -4.28477e-06)
(-0.0175348 0.00155493 8.65126e-06)
(-0.0176994 0.00158505 1.42018e-05)
(-0.0177674 0.00160168 1.30971e-05)
(-0.0178291 0.00161325 1.05834e-05)
(-0.0178664 0.00161976 6.2097e-06)
(-0.0178711 0.00161955 1.985e-06)
(-0.0178431 0.00161239 -2.43164e-06)
(-0.0177906 0.00159968 -5.9481e-06)
(-0.0177284 0.0015829 -7.76309e-06)
(-0.0175686 0.0015497 -4.10334e-06)
(-0.0203955 0.00273024 1.84482e-05)
(-0.0205897 0.00278363 3.57128e-05)
(-0.0206945 0.00282157 3.39668e-05)
(-0.0207888 0.00285064 2.48487e-05)
(-0.0208447 0.00286605 1.12405e-05)
(-0.0208502 0.00286599 -3.20041e-06)
(-0.020805 0.00285065 -1.70244e-05)
(-0.0207208 0.00282136 -2.69403e-05)
(-0.0206235 0.0027841 -3.01908e-05)
(-0.0204336 0.00273 -1.52337e-05)
(-0.0247697 0.0043465 4.69625e-05)
(-0.0250621 0.00447635 9.32415e-05)
(-0.0252325 0.00458101 7.95034e-05)
(-0.025382 0.00466049 5.48531e-05)
(-0.0254676 0.00470133 2.1555e-05)
(-0.0254741 0.00470231 -1.31808e-05)
(-0.0254014 0.00466373 -4.66326e-05)
(-0.025264 0.00458666 -7.19154e-05)
(-0.0251038 0.00448532 -8.75311e-05)
(-0.024816 0.00435735 -4.4279e-05)
(-0.0314952 0.00450609 0.000144199)
(-0.0319915 0.00476568 0.000258244)
(-0.0323317 0.00490177 0.000217955)
(-0.0326196 0.00499391 0.000144533)
(-0.032778 0.00503727 5.28114e-05)
(-0.0327875 0.00503789 -4.05388e-05)
(-0.0326481 0.00499611 -0.000132043)
(-0.0323789 0.00490607 -0.00020538)
(-0.032056 0.00477408 -0.000248467)
(-0.0315693 0.0045154 -0.000140244)
(-0.0163467 -0.000222285 -1.67591e-05)
(-0.0165222 -0.000237013 -4.21092e-05)
(-0.0165861 -0.0002432 -4.69359e-05)
(-0.0166419 -0.000248349 -3.62239e-05)
(-0.0166754 -0.000251386 -1.38262e-05)
(-0.0166795 -0.000251736 1.30629e-05)
(-0.0166543 -0.000249508 3.58303e-05)
(-0.0166068 -0.000245208 4.69255e-05)
(-0.0165489 -0.00023978 4.32183e-05)
(-0.016379 -0.00022584 1.85783e-05)
(-0.0178757 -0.000631438 -1.95011e-05)
(-0.0180509 -0.000658956 -4.88961e-05)
(-0.0181322 -0.00067505 -5.61151e-05)
(-0.0182042 -0.000689288 -4.34354e-05)
(-0.0182475 -0.000697468 -1.65527e-05)
(-0.0182521 -0.000698258 1.52889e-05)
(-0.018218 -0.000691603 4.23807e-05)
(-0.0181547 -0.000679125 5.54503e-05)
(-0.0180798 -0.000664293 4.90508e-05)
(-0.0179083 -0.000638113 2.05133e-05)
(-0.0208653 -0.000988817 -2.87261e-05)
(-0.0210812 -0.00102109 -6.78008e-05)
(-0.0212092 -0.00104381 -7.53377e-05)
(-0.0213223 -0.00106502 -5.79426e-05)
(-0.0213884 -0.00107708 -2.22906e-05)
(-0.0213939 -0.00107805 1.92649e-05)
(-0.0213388 -0.00106813 5.51006e-05)
(-0.021236 -0.00104885 7.3015e-05)
(-0.0211162 -0.00102786 6.64899e-05)
(-0.0209041 -0.000996586 2.87385e-05)
(-0.0254465 -0.00121218 -4.33055e-05)
(-0.0257845 -0.00124534 -9.51946e-05)
(-0.0260008 -0.00126653 -0.000100339)
(-0.0261869 -0.00128962 -7.68622e-05)
(-0.0262917 -0.00130265 -2.95666e-05)
(-0.0262986 -0.00130376 2.43831e-05)
(-0.0262077 -0.00129266 7.1874e-05)
(-0.0260347 -0.0012717 9.59996e-05)
(-0.0258299 -0.00125215 9.207e-05)
(-0.0254971 -0.00121967 4.24705e-05)
(-0.032046 -0.00121147 -5.37656e-05)
(-0.0326139 -0.00123329 -0.000112767)
(-0.0330111 -0.00122482 -0.000121168)
(-0.033343 -0.00122912 -9.48853e-05)
(-0.033523 -0.00123157 -3.66818e-05)
(-0.0335327 -0.00123236 2.95097e-05)
(-0.0333725 -0.00123085 8.79575e-05)
(-0.03306 -0.00122774 0.000114895)
(-0.0326816 -0.00123741 0.000108455)
(-0.0321231 -0.00121537 5.23503e-05)
(-0.0151166 -0.000977548 -4.52826e-05)
(-0.0152848 -0.00102695 -0.000102603)
(-0.015353 -0.00104672 -0.000107317)
(-0.0154115 -0.00106172 -8.27421e-05)
(-0.0154464 -0.00107037 -3.32985e-05)
(-0.0154502 -0.00107095 2.45278e-05)
(-0.0154227 -0.00106337 7.4562e-05)
(-0.0153712 -0.00104957 0.000100723)
(-0.0153084 -0.00103096 9.85523e-05)
(-0.0151435 -0.00098183 4.43401e-05)
(-0.016638 -0.0028794 -5.30638e-05)
(-0.0168201 -0.00297646 -0.000123614)
(-0.0169122 -0.00303365 -0.000136199)
(-0.0169916 -0.00308049 -0.000104676)
(-0.0170383 -0.00310677 -4.17535e-05)
(-0.0170426 -0.00310815 3.14551e-05)
(-0.0170044 -0.00308489 9.49377e-05)
(-0.0169329 -0.00304091 0.000128053)
(-0.0168472 -0.00298666 0.000118324)
(-0.016668 -0.00289072 5.14612e-05)
(-0.0196621 -0.00484283 -8.91041e-05)
(-0.019906 -0.0049819 -0.000196409)
(-0.0200585 -0.00508318 -0.000205598)
(-0.0201889 -0.00516891 -0.000154613)
(-0.020263 -0.00521516 -6.04009e-05)
(-0.0202683 -0.00521747 4.64182e-05)
(-0.0202047 -0.00517575 0.000141162)
(-0.0200844 -0.0050947 0.000193863)
(-0.0199405 -0.00499806 0.000188162)
(-0.0197002 -0.00486097 8.62783e-05)
(-0.0244018 -0.00683029 -0.000162239)
(-0.0248135 -0.00705617 -0.000335663)
(-0.025085 -0.00722102 -0.000323679)
(-0.0253101 -0.00735989 -0.0002368)
(-0.0254326 -0.00743284 -9.02735e-05)
(-0.0254395 -0.00743599 7.09459e-05)
(-0.025331 -0.00736969 0.000217949)
(-0.0251195 -0.00723747 0.000306196)
(-0.0248613 -0.00708003 0.000323212)
(-0.0244552 -0.00685763 0.000157832)
(-0.0310994 -0.00745455 -0.000291793)
(-0.0318213 -0.00783536 -0.000555514)
(-0.0323051 -0.00800064 -0.000513001)
(-0.0326946 -0.00813441 -0.000367735)
(-0.0328981 -0.00819697 -0.00013683)
(-0.0329075 -0.00819912 0.000109894)
(-0.0327237 -0.00814152 0.000340928)
(-0.0323541 -0.00801273 0.000486966)
(-0.0318919 -0.0078565 0.000535697)
(-0.0311797 -0.00747653 0.000284855)
(-0.012371 -0.00171312 -7.33209e-05)
(-0.0125105 -0.00180586 -0.000163811)
(-0.0125743 -0.001843 -0.000169102)
(-0.0126286 -0.00187039 -0.000129568)
(-0.012661 -0.00188575 -5.25977e-05)
(-0.012664 -0.00188646 3.68583e-05)
(-0.0126378 -0.00187284 0.000114729)
(-0.0125892 -0.00184699 0.000156732)
(-0.0125301 -0.00181177 0.000155686)
(-0.0123928 -0.00171921 7.06077e-05)
(-0.013768 -0.00509905 -9.56563e-05)
(-0.0139396 -0.00528302 -0.000211595)
(-0.0140335 -0.00539231 -0.000223514)
(-0.0141117 -0.00547963 -0.000169487)
(-0.0141569 -0.00552721 -6.76094e-05)
(-0.0141606 -0.00552943 4.92558e-05)
(-0.0141225 -0.00548627 0.000151978)
(-0.0140511 -0.00540361 0.00020853)
(-0.0139631 -0.00529908 0.000201293)
(-0.0137937 -0.00511668 9.20173e-05)
(-0.0166438 -0.00875574 -0.000171952)
(-0.016905 -0.0090384 -0.000359329)
(-0.017074 -0.0092431 -0.000356767)
(-0.0172119 -0.00941048 -0.000262519)
(-0.0172876 -0.00949844 -0.000101666)
(-0.0172922 -0.00950197 7.74996e-05)
(-0.0172258 -0.00942167 0.000239107)
(-0.0170971 -0.00926195 0.000335632)
(-0.0169369 -0.00906595 0.000344488)
(-0.0166791 -0.0087869 0.000166581)
(-0.0213729 -0.0126454 -0.000336165)
(-0.0218736 -0.0131444 -0.000659599)
(-0.0221997 -0.0134934 -0.000597958)
(-0.0224551 -0.0137742 -0.000425127)
(-0.0225876 -0.0139161 -0.00015904)
(-0.0225939 -0.0139213 0.000126073)
(-0.0224742 -0.0137905 0.000392345)
(-0.0222324 -0.0135216 0.000566487)
(-0.0219212 -0.0131872 0.000636384)
(-0.0214264 -0.0126949 0.000328063)
(-0.0283041 -0.0146297 -0.000645252)
(-0.0293259 -0.0155957 -0.00116685)
(-0.0299396 -0.0160364 -0.000995767)
(-0.0303971 -0.0163703 -0.000687407)
(-0.03062 -0.0165188 -0.000249172)
(-0.0306281 -0.0165227 0.000203566)
(-0.0304235 -0.0163841 0.000640834)
(-0.0299863 -0.0160609 0.000947589)
(-0.0294005 -0.0156433 0.00112988)
(-0.0283881 -0.0146813 0.000632607)
(-0.00816419 -0.00235691 -9.19503e-05)
(-0.00824356 -0.00247892 -0.000209287)
(-0.00828934 -0.00253293 -0.000221167)
(-0.00832848 -0.00257316 -0.000169184)
(-0.00835203 -0.00259513 -6.87383e-05)
(-0.00835406 -0.00259622 4.77135e-05)
(-0.00833455 -0.00257615 0.000149245)
(-0.00829915 -0.00253823 0.000204364)
(-0.00825661 -0.00248656 0.00019785)
(-0.00817894 -0.00236492 8.78953e-05)
(-0.00925013 -0.00708774 -0.000126935)
(-0.00945232 -0.00733842 -0.000282866)
(-0.00953746 -0.00750294 -0.000302367)
(-0.0095998 -0.00763363 -0.000227363)
(-0.00963505 -0.00770333 -9.03522e-05)
(-0.00963754 -0.00770613 6.57857e-05)
(-0.00960725 -0.00764254 0.000203845)
(-0.00954985 -0.00751802 0.000281809)
(-0.00946961 -0.00736052 0.000268542)
(-0.00926868 -0.00711237 0.000121601)
(-0.0116365 -0.0124502 -0.000253244)
(-0.011981 -0.0128881 -0.000520538)
(-0.0121522 -0.0132174 -0.000507716)
(-0.0122739 -0.0134794 -0.000367286)
(-0.0123372 -0.0136128 -0.00014037)
(-0.0123404 -0.0136177 0.000108036)
(-0.0122839 -0.0134946 0.00033553)
(-0.0121694 -0.0132439 0.000478303)
(-0.0120069 -0.0129282 0.000499078)
(-0.0116646 -0.0124961 0.000245504)
(-0.0159843 -0.0184779 -0.000544298)
(-0.0167122 -0.0193622 -0.00103527)
(-0.0170815 -0.0199561 -0.000901745)
(-0.0173292 -0.0204109 -0.0006237)
(-0.0174468 -0.0206298 -0.000228625)
(-0.0174511 -0.0206365 0.000184116)
(-0.0173433 -0.0204331 0.000578519)
(-0.0171077 -0.0199958 0.000855834)
(-0.0167563 -0.0194276 0.00100102)
(-0.016033 -0.0185536 0.000532481)
(-0.0234011 -0.0233027 -0.00116333)
(-0.0252047 -0.0252605 -0.00201663)
(-0.0259966 -0.0261654 -0.00157826)
(-0.0264814 -0.0268257 -0.00104412)
(-0.0266844 -0.0271021 -0.000366274)
(-0.0266897 -0.0271079 0.00030513)
(-0.0265002 -0.0268487 0.000979142)
(-0.0260349 -0.0262077 0.00150437)
(-0.0252863 -0.0253521 0.00195821)
(-0.0234901 -0.0234051 0.00114512)
(-0.00295221 -0.00278073 -9.4269e-05)
(-0.00296615 -0.00283946 -0.00021898)
(-0.00298227 -0.00289861 -0.000248205)
(-0.0029968 -0.00294702 -0.00019012)
(-0.00300567 -0.00297327 -7.74187e-05)
(-0.00300652 -0.00297428 5.3733e-05)
(-0.00299906 -0.00295041 0.000167692)
(-0.00298607 -0.0029043 0.00022912)
(-0.00297112 -0.00284783 0.000205741)
(-0.00295799 -0.00279037 8.92962e-05)
(-0.00340076 -0.00847662 -0.000144778)
(-0.00351755 -0.00872211 -0.000318771)
(-0.00355678 -0.0089326 -0.000353183)
(-0.00358235 -0.00909825 -0.000263094)
(-0.00359668 -0.00918375 -0.000103966)
(-0.00359758 -0.009187 7.62475e-05)
(-0.0035854 -0.00910822 0.000236359)
(-0.00356174 -0.00895014 0.000329442)
(-0.00352494 -0.00874863 0.000301579)
(-0.00340841 -0.00850723 0.000138296)
(-0.00446596 -0.0154164 -0.000334935)
(-0.00467646 -0.0161113 -0.000656314)
(-0.00476351 -0.0165888 -0.000628144)
(-0.00481853 -0.0169383 -0.000442686)
(-0.00484567 -0.0171071 -0.000166548)
(-0.00484715 -0.0171124 0.000129777)
(-0.00482237 -0.0169559 0.000406043)
(-0.00477089 -0.0166211 0.000592402)
(-0.00468817 -0.0161646 0.000629805)
(-0.00447828 -0.0154777 0.000325546)
(-0.00662459 -0.0243731 -0.000842396)
(-0.00709418 -0.0261809 -0.00147872)
(-0.00730286 -0.0271484 -0.00119116)
(-0.00742484 -0.0277902 -0.000784893)
(-0.00747864 -0.02807 -0.000278995)
(-0.00748002 -0.0280771 0.000228274)
(-0.00743077 -0.027815 0.00073098)
(-0.00731441 -0.0271974 0.00113102)
(-0.00711677 -0.0262794 0.00143207)
(-0.00664894 -0.0244843 0.000827766)
(-0.010995 -0.0362961 -0.00222057)
(-0.0123854 -0.0414011 -0.00348617)
(-0.012915 -0.043281 -0.0022682)
(-0.0131852 -0.0443594 -0.00137248)
(-0.0132822 -0.0447385 -0.000454706)
(-0.0132842 -0.0447441 0.000386089)
(-0.0131921 -0.0443853 0.00129353)
(-0.0129336 -0.0433423 0.0021563)
(-0.0124366 -0.0415866 0.00339638)
(-0.0110484 -0.0365037 0.00219869)
(-0.0211847 -0.0575524 -0.00608104)
(-0.025395 -0.0690659 -0.00869049)
(-0.0267541 -0.0724286 -0.00421541)
(-0.0273531 -0.073988 -0.00225701)
(-0.0275203 -0.0744418 -0.000665871)
(-0.0275211 -0.0744459 0.000583518)
(-0.0273618 -0.0740134 0.00214647)
(-0.0267873 -0.0725038 0.00399156)
(-0.0255236 -0.0694039 0.00849762)
(-0.0213286 -0.0579113 0.00604664)
(-0.0371358 -0.07398 -0.0138689)
(-0.0442001 -0.113909 -0.0182114)
(-0.0467578 -0.1211 -0.00710444)
(-0.0478998 -0.121947 -0.00333778)
(-0.048126 -0.121727 -0.000890504)
(-0.0481238 -0.121702 0.000795483)
(-0.0479039 -0.121881 0.00319196)
(-0.0468028 -0.121092 0.00670959)
(-0.0443777 -0.114664 0.0178496)
(-0.0373719 -0.0748101 0.0138228)
(-0.0587136 -0.143626 -0.0337547)
(-0.0519019 -0.21951 -0.0351931)
(-0.0563826 -0.23092 -0.010113)
(-0.0602119 -0.228014 -0.00325839)
(-0.061229 -0.226721 -0.000631524)
(-0.061242 -0.226673 0.000597201)
(-0.0602872 -0.227846 0.00313021)
(-0.0565543 -0.230807 0.00953401)
(-0.0519013 -0.220715 0.0345161)
(-0.0589663 -0.144971 0.0335613)
(-0.00847961 -0.1025 -0.0357803)
(0.0614831 -0.25844 -0.0254769)
(0.0604005 -0.265309 -0.00810364)
(0.0552048 -0.253684 -0.0015807)
(0.0533975 -0.249517 -0.000361045)
(0.0533611 -0.249414 0.000343461)
(0.055037 -0.253277 0.0014967)
(0.060173 -0.264869 0.00782213)
(0.0621354 -0.259898 0.0250139)
(-0.00749488 -0.104891 0.0353887)
(0.245067 -0.37058 0.0307712)
(0.339933 -0.568567 0.0312213)
(0.355224 -0.586181 0.00869488)
(0.355773 -0.581259 0.00281251)
(0.355336 -0.579026 0.000471097)
(0.355299 -0.578963 -0.000450091)
(0.355664 -0.581045 -0.00270153)
(0.355259 -0.586107 -0.00814948)
(0.34124 -0.57018 -0.0306213)
(0.247021 -0.373988 -0.0304913)
(-0.0369666 -0.0349728 -0.00246958)
(-0.0417247 -0.0378615 -0.00394693)
(-0.0434197 -0.0393713 -0.00249874)
(-0.044372 -0.0405313 -0.00155745)
(-0.0447107 -0.0410129 -0.000508266)
(-0.0447166 -0.0410252 0.000435364)
(-0.0443981 -0.0405745 0.00147548)
(-0.0434808 -0.0394483 0.00238211)
(-0.0418945 -0.0380124 0.00385114)
(-0.0371592 -0.035158 0.0024467)
(-0.0566774 -0.016466 -0.00469195)
(-0.0658439 -0.0216482 -0.00707109)
(-0.0686988 -0.0223746 -0.00435395)
(-0.0701682 -0.0230131 -0.00268535)
(-0.0706066 -0.0231021 -0.000854381)
(-0.0706101 -0.0230986 0.000739116)
(-0.0701913 -0.0230163 0.00255597)
(-0.0687674 -0.0223758 0.00416629)
(-0.0661027 -0.0217389 0.00690318)
(-0.0569667 -0.016564 0.00464347)
(-0.0828271 -0.0341298 -0.00511707)
(-0.10747 -0.0453664 -0.0071126)
(-0.113159 -0.0480025 -0.00304969)
(-0.115453 -0.0495491 -0.00190132)
(-0.115907 -0.0500104 -0.000494007)
(-0.115906 -0.0500261 0.000432758)
(-0.115465 -0.0496008 0.0018322)
(-0.113256 -0.0481067 0.00290211)
(-0.107979 -0.045633 0.00694711)
(-0.0834989 -0.0344723 0.00507751)
(-0.151266 0.037936 -0.0112588)
(-0.165137 0.0240562 -0.00840214)
(-0.177076 0.0255085 -0.00499999)
(-0.182942 0.030258 -0.00354392)
(-0.184658 0.0318475 -0.0011244)
(-0.184664 0.0318847 0.000948265)
(-0.183002 0.0304057 0.00337704)
(-0.177226 0.0257052 0.00489303)
(-0.165523 0.0240723 0.00824016)
(-0.1521 0.0380128 0.011124)
(0.244161 -0.00702871 0.01994)
(0.371642 -0.0870108 0.0217945)
(0.386906 -0.0871455 0.00719709)
(0.387908 -0.082983 0.00239107)
(0.387604 -0.0814515 0.00042364)
(0.387577 -0.0814517 -0.000398474)
(0.387845 -0.0829931 -0.00228972)
(0.387021 -0.0872944 -0.00684493)
(0.372969 -0.0874867 -0.0214086)
(0.24667 -0.00819156 -0.0198055)
(-0.0371249 -0.0225104 -0.00116637)
(-0.0394152 -0.0237649 -0.00196128)
(-0.0404946 -0.0245282 -0.00137811)
(-0.041269 -0.0251581 -0.000906741)
(-0.0416098 -0.0254465 -0.000310667)
(-0.0416195 -0.0254561 0.000260184)
(-0.0413035 -0.0251901 0.000853292)
(-0.040557 -0.0245828 0.00131239)
(-0.0395343 -0.0238558 0.00190916)
(-0.0372577 -0.0226242 0.00115289)
(-0.0523383 -0.00723671 -0.00226664)
(-0.0559593 -0.009022 -0.00351184)
(-0.0578136 -0.00903942 -0.00249153)
(-0.0591808 -0.00908764 -0.00163691)
(-0.0597615 -0.00903449 -0.000555531)
(-0.059776 -0.00903019 0.000467358)
(-0.0592319 -0.0090801 0.00154366)
(-0.0579069 -0.00902499 0.00237994)
(-0.0561388 -0.00903198 0.00341594)
(-0.0525508 -0.00724694 0.00223446)
(-0.0475964 -0.025052 -0.00182266)
(-0.0528116 -0.0277947 -0.00263064)
(-0.0541235 -0.0283718 -0.00116839)
(-0.0553858 -0.0291368 -0.000770112)
(-0.0557957 -0.029404 -0.000213679)
(-0.0558037 -0.029419 0.000181818)
(-0.0554247 -0.0291872 0.000735326)
(-0.0541866 -0.0284538 0.00109939)
(-0.0529687 -0.0279177 0.00255388)
(-0.0477779 -0.0252308 0.00179901)
(-0.0657369 0.0299075 -0.00620625)
(-0.0623393 0.0373428 -0.00703985)
(-0.0658684 0.0407136 -0.00381542)
(-0.0690662 0.0430859 -0.00264747)
(-0.0702373 0.0437761 -0.000844936)
(-0.0702634 0.0437905 0.000689608)
(-0.0691607 0.0431516 0.00248793)
(-0.0660135 0.0408473 0.00364986)
(-0.0624345 0.0376131 0.00686882)
(-0.0659411 0.0303071 0.00612533)
(0.234282 0.0232395 0.00745147)
(0.345668 0.0123268 0.00740891)
(0.357217 0.0164075 0.00224924)
(0.357927 0.0180707 0.000650455)
(0.357752 0.0185045 6.81723e-05)
(0.357741 0.0184841 -6.28879e-05)
(0.357918 0.0180004 -0.000614253)
(0.357414 0.0162478 -0.00213978)
(0.346944 0.0121768 -0.00728634)
(0.236496 0.0230183 -0.00739634)
(-0.0377472 -0.0116315 -0.000445089)
(-0.0391387 -0.0120825 -0.000803247)
(-0.0398586 -0.0124009 -0.000621842)
(-0.0404087 -0.0126908 -0.000432785)
(-0.0406742 -0.0128339 -0.000154703)
(-0.0406841 -0.0128404 0.000126213)
(-0.0404413 -0.0127112 0.000404043)
(-0.0399143 -0.0124345 0.000590304)
(-0.0392298 -0.0121321 0.000779554)
(-0.0378476 -0.011694 0.000438565)
(-0.0524814 -0.00279763 -0.000908094)
(-0.0546571 -0.00327409 -0.00147329)
(-0.0560144 -0.00313279 -0.00117205)
(-0.0570682 -0.00307174 -0.000818251)
(-0.0575675 -0.00302076 -0.000291734)
(-0.0575845 -0.00301784 0.000237137)
(-0.0571231 -0.00306572 0.000763288)
(-0.0561103 -0.00312001 0.00111453)
(-0.054813 -0.00326414 0.00142474)
(-0.0526668 -0.00278182 0.000890213)
(-0.04423 -0.013518 -0.000394676)
(-0.0468256 -0.0149029 -0.00062012)
(-0.0475769 -0.0153064 -0.000317623)
(-0.0481885 -0.0158511 -0.000281234)
(-0.048416 -0.0160765 -8.9188e-05)
(-0.048422 -0.0160894 7.19289e-05)
(-0.0482139 -0.015893 0.00026541)
(-0.0476194 -0.0153741 0.000295311)
(-0.0469217 -0.0149944 0.000596479)
(-0.044338 -0.0136564 0.000386887)
(-0.0630207 0.00884395 -0.0027387)
(-0.0567178 0.0121221 -0.00367798)
(-0.0581204 0.0133052 -0.00220241)
(-0.0598872 0.0140359 -0.00162256)
(-0.0606091 0.0142295 -0.000543554)
(-0.0606334 0.014236 0.000431281)
(-0.0599687 0.0140645 0.0015095)
(-0.0582435 0.0133673 0.00209239)
(-0.0568095 0.0122492 0.00356033)
(-0.0631231 0.00900436 0.00267571)
(0.221783 0.00303473 0.00174921)
(0.333048 -0.00396423 0.00142633)
(0.344092 -0.00341036 0.000227648)
(0.345326 -0.00349521 -7.69444e-05)
(0.345426 -0.00357122 -6.55051e-05)
(0.345426 -0.00358327 6.55554e-05)
(0.345351 -0.00354627 8.9446e-05)
(0.344332 -0.00352036 -0.000201336)
(0.334323 -0.0041017 -0.00140253)
(0.224064 0.00274965 -0.00173358)
(-0.0373743 -0.0014712 -3.93918e-05)
(-0.0383522 -0.00131894 -8.63291e-05)
(-0.0388654 -0.00124557 -9.57561e-05)
(-0.0392739 -0.00123673 -8.3617e-05)
(-0.0394828 -0.00124178 -3.27429e-05)
(-0.0394924 -0.00124413 2.50909e-05)
(-0.0393038 -0.00124414 7.65254e-05)
(-0.0389154 -0.0012555 8.89421e-05)
(-0.0384267 -0.00132803 8.14062e-05)
(-0.0374558 -0.00148415 3.80282e-05)
(-0.0530142 0.000320751 5.73867e-05)
(-0.0548582 0.000547957 7.09536e-05)
(-0.0560721 0.000743306 -5.86393e-05)
(-0.0570173 0.000845506 -0.00010074)
(-0.0574827 0.000892134 -4.73061e-05)
(-0.0575011 0.000893619 2.98666e-05)
(-0.0570762 0.000849456 8.56194e-05)
(-0.0561731 0.000752328 4.9711e-05)
(-0.0550138 0.000563686 -7.86307e-05)
(-0.0531992 0.000338603 -6.22398e-05)
(-0.0432697 -0.00367794 0.000332519)
(-0.0449134 -0.00220545 0.000471625)
(-0.045458 -0.0018273 0.000226071)
(-0.0459128 -0.0018833 7.35347e-05)
(-0.0461036 -0.00195904 1.7863e-05)
(-0.04611 -0.00196845 -1.94871e-05)
(-0.0459369 -0.00191086 -7.23265e-05)
(-0.0454979 -0.00186649 -0.00021998)
(-0.0449866 -0.00222277 -0.000469419)
(-0.0433477 -0.00373645 -0.000334511)
(-0.062208 0.000517541 0.00125971)
(-0.0586464 0.0011795 0.00162532)
(-0.0606414 0.00137791 0.000166958)
(-0.0624491 0.00141985 -0.000279393)
(-0.0631609 0.00140751 -0.00014505)
(-0.0631864 0.00140888 8.96555e-05)
(-0.0625306 0.00142618 0.000232453)
(-0.0607703 0.00139513 -0.000169343)
(-0.0588094 0.00121075 -0.00165243)
(-0.0623567 0.000549314 -0.00130207)
(0.220241 -0.00933733 -0.000349191)
(0.330937 -0.00753222 -0.000640176)
(0.341881 -0.0077675 -0.000428286)
(0.343324 -0.00868533 -0.000325389)
(0.343561 -0.00908046 -0.000102803)
(0.343566 -0.00909168 9.92902e-05)
(0.343366 -0.00874115 0.000325669)
(0.342141 -0.00786206 0.000421511)
(0.332231 -0.00759245 0.000634037)
(0.22256 -0.00960092 0.000365383)
(-0.0359518 0.00920955 0.000246455)
(-0.0367844 0.0100358 0.000442654)
(-0.037168 0.0105232 0.000305826)
(-0.0374829 0.0108376 0.000190551)
(-0.0376476 0.0109754 6.56526e-05)
(-0.0376565 0.0109776 -5.4405e-05)
(-0.0375096 0.0108463 -0.000178644)
(-0.0372119 0.0105411 -0.000292325)
(-0.0368479 0.0100732 -0.000432274)
(-0.0360215 0.00925344 -0.000242978)
(-0.0544673 0.0035219 0.00104633)
(-0.0563495 0.00438657 0.00162034)
(-0.0575195 0.00467009 0.00101935)
(-0.0584381 0.00481211 0.000587507)
(-0.0588931 0.00485675 0.000189295)
(-0.0589125 0.00485689 -0.000166729)
(-0.0585001 0.00481398 -0.000559743)
(-0.0576253 0.00467702 -0.000978355)
(-0.0565109 0.00440719 -0.00158629)
(-0.0546675 0.00354067 -0.00103752)
(-0.0424809 0.00819419 0.000940669)
(-0.0440167 0.0145288 0.0014036)
(-0.0444113 0.0161253 0.000702563)
(-0.044762 0.0167681 0.000370938)
(-0.0449094 0.0168974 0.000108995)
(-0.0449159 0.0168928 -9.57153e-05)
(-0.0447845 0.0167608 -0.000352551)
(-0.044447 0.0161299 -0.000672038)
(-0.0440806 0.0146376 -0.00138119)
(-0.0425514 0.0082743 -0.000937685)
(-0.0672701 -0.00306237 0.00688518)
(-0.0688682 -0.0031477 0.00897784)
(-0.0709885 -0.00336835 0.00300857)
(-0.0726131 -0.00371523 0.00119966)
(-0.0732592 -0.00386795 0.000269381)
(-0.0732847 -0.00387055 -0.000262634)
(-0.0726876 -0.00372508 -0.00116883)
(-0.0711228 -0.00337708 -0.00286038)
(-0.0691021 -0.00315973 -0.00887406)
(-0.0675205 -0.00309137 -0.00689631)
(0.228951 -0.0234829 -0.00276734)
(0.338596 -0.0031582 -0.00313624)
(0.350213 -0.00250996 -0.00142999)
(0.352511 -0.0046469 -0.000794251)
(0.353145 -0.00561941 -0.000218761)
(0.35316 -0.00564429 0.000205147)
(0.352589 -0.0047508 0.000775312)
(0.350536 -0.00262581 0.00137575)
(0.339939 -0.00299568 0.00308641)
(0.231443 -0.0236202 0.00278669)
(-0.0327931 0.021487 0.000471612)
(-0.033521 0.0230563 0.000851269)
(-0.0337614 0.0239655 0.000596997)
(-0.0339765 0.024606 0.000397526)
(-0.0340905 0.0248974 0.000141374)
(-0.034098 0.0249049 -0.000113267)
(-0.0339988 0.024632 -0.000369518)
(-0.0337965 0.0240144 -0.000567064)
(-0.0335711 0.0231446 -0.000827635)