/*--------------------------------*- C++ -*----------------------------------*\
| =========                 |                                                 |
| \\      /  F ield         | OpenFOAM: The Open Source CFD Toolbox           |
|  \\    /   O peration     | Version:  2.3.1                                 |
|   \\  /    A nd           | Web:      www.OpenFOAM.org                      |
|    \\/     M anipulation  |                                                 |
\*---------------------------------------------------------------------------*/
FoamFile
{
    version     2.0;
    format      ascii;
    class       volVectorField;
    location    "2860";
    object      D;
}
// * * * * * * * * * * * * * * * * * * * * * * * * * * * * * * * * * * * * * //

dimensions      [0 1 0 0 0 0 0];

internalField   nonuniform List<vector> 
11800
(
(8.6466e-06 0.000246488 0)
(-1.09358e-05 0.000274618 0)
(6.08374e-06 8.29419e-05 0)
(-6.94731e-06 0.000112843 0)
(-9.99136e-06 0.000274154 0)
(-4.50323e-06 0.000113064 0)
(-1.6611e-06 0.000184998 0)
(-1.58125e-06 0.000142591 0)
(7.26437e-07 2.18485e-05 0)
(1.32222e-06 8.60313e-05 0)
(9.60113e-06 0.000245905 0)
(-8.65818e-06 9.61805e-05 0)
(-8.49582e-09 -6.76323e-09 0)
(5.40685e-06 8.24409e-05 0)
(-6.1627e-06 0.000113319 0)
(5.94327e-06 1.34014e-05 0)
(-9.32173e-07 0.000184458 0)
(-9.03227e-07 0.00014208 0)
(4.09475e-07 2.20907e-05 0)
(8.15455e-07 8.56049e-05 0)
(-5.29867e-06 0.000112648 0)
(-7.93398e-06 9.65625e-05 0)
(-1.30639e-06 4.73312e-06 0)
(-1.39435e-06 4.92897e-06 0)
(5.30229e-06 1.53086e-05 0)
(-2.08934e-06 7.84994e-06 0)
(-8.48664e-06 5.73892e-05 0)
(1.23138e-05 0.000165808 0)
(-7.56193e-06 4.35312e-05 0)
(-6.5467e-06 3.12986e-05 0)
(1.30417e-05 0.000209626 0)
(5.39799e-08 3.68481e-06 0)
(2.71901e-06 1.00927e-05 0)
(-6.6517e-06 0.000281806 0)
(5.38541e-06 0.000280538 0)
(-1.48683e-05 0.000223867 0)
(5.01643e-06 0.000281505 0)
(2.67598e-06 1.03765e-05 0)
(-1.62422e-06 0.000195394 0)
(1.32544e-06 9.44779e-05 0)
(-8.34452e-06 5.80324e-05 0)
(-7.44286e-06 4.41046e-05 0)
(1.20295e-05 0.000164859 0)
(-6.45131e-06 3.18012e-05 0)
(1.27522e-05 0.000208629 0)
(5.66918e-06 1.3508e-05 0)
(1.50127e-06 5.60484e-06 0)
(1.67375e-06 5.51553e-06 0)
(-2.54777e-06 0.000195561 0)
(2.06649e-06 9.46107e-05 0)
(-1.41319e-05 0.000144483 0)
(-1.50942e-05 0.000186901 0)
(-1.39464e-06 0.000243858 0)
(7.57361e-08 3.49676e-06 0)
(-7.28844e-06 1.59614e-05 0)
(9.90855e-07 8.24605e-07 0)
(-1.85539e-05 0.000285668 0)
(-4.67017e-06 7.98508e-05 0)
(5.32551e-06 0.000116397 0)
(-3.39522e-06 7.67108e-05 0)
(1.978e-06 2.62807e-06 0)
(-2.39567e-06 0.00024404 0)
(-4.06157e-06 7.96706e-05 0)
(4.64307e-06 0.000116612 0)
(4.96646e-06 1.50745e-05 0)
(-1.77137e-05 0.000252557 0)
(-1.46605e-05 0.000143852 0)
(-1.57123e-05 0.000186209 0)
(-1.76231e-05 0.000285208 0)
(-2.19247e-06 8.10484e-06 0)
(-5.93045e-06 0.000282597 0)
(-1.04639e-05 0.000281069 0)
(-1.07679e-05 0.000280071 0)
(-9.36463e-08 1.05143e-07 0)
(2.11225e-06 2.74092e-06 0)
(-1.40057e-05 0.000224494 0)
(6.5073e-06 2.11506e-05 0)
(-1.8001e-05 0.0002535 0)
(-1.43359e-05 0.00025564 0)
(-1.33941e-05 0.000256494 0)
(-6.94805e-06 1.5743e-05 0)
(1.05597e-06 9.81009e-05 0)
(9.85401e-06 0.000278869 0)
(8.7951e-06 0.000279042 0)
(-1.27887e-06 0.00010082 0)
(-6.29152e-06 3.52442e-05 0)
(1.17893e-05 0.000202022 0)
(-7.18401e-06 4.80316e-05 0)
(-8.002e-06 6.24176e-05 0)
(1.10903e-05 0.000158602 0)
(-3.27825e-07 0.00023859 0)
(2.89038e-06 9.59419e-06 0)
(-8.90759e-06 0.000257287 0)
(1.83974e-05 0.000287853 0)
(2.91397e-06 0.000124322 0)
(-2.26361e-09 -1.72153e-09 0)
(5.8502e-11 -3.65545e-10 0)
(2.26288e-09 -1.72108e-09 0)
(-1.97977e-07 0.000246853 0)
(-8.22009e-06 9.83058e-05 0)
(1.58341e-05 0.000286825 0)
(9.57825e-06 0.000108001 0)
(-3.50785e-06 1.40172e-05 0)
(-7.92422e-07 1.08207e-05 0)
(-5.22205e-07 0.000272926 0)
(9.61264e-07 2.28543e-05 0)
(-2.02819e-06 0.000140507 0)
(-2.10766e-06 0.000182689 0)
(3.0704e-06 5.23828e-06 0)
(7.23506e-06 4.80102e-05 0)
(6.33735e-06 3.5225e-05 0)
(8.05856e-06 6.23933e-05 0)
(-1.19653e-05 0.000202047 0)
(-1.12583e-05 0.000158636 0)
(1.70905e-06 8.42806e-05 0)
(2.42969e-06 4.77655e-06 0)
(1.75477e-05 0.000253589 0)
(-7.1871e-06 0.000260296 0)
(2.47426e-06 4.60232e-06 0)
(-1.20631e-06 8.71004e-05 0)
(-7.23908e-07 2.12721e-05 0)
(1.59882e-06 0.000186356 0)
(1.51795e-06 0.000143808 0)
(-2.22247e-06 0.00017872 0)
(-8.96567e-06 0.000258255 0)
(-7.91128e-07 0.000246083 0)
(-5.76208e-06 0.000273034 0)
(-1.34546e-06 0.000272292 0)
(-1.9911e-05 0.00029512 0)
(-2.06223e-05 0.000294407 0)
(-5.81282e-07 2.62008e-07 0)
(-2.63278e-06 6.19187e-06 0)
(1.20947e-05 0.000196026 0)
(-6.7529e-06 3.85317e-05 0)
(1.13358e-05 0.000152971 0)
(-7.65332e-06 5.17629e-05 0)
(-8.47787e-06 6.65561e-05 0)
(1.11591e-05 0.000196204 0)
(-6.22334e-06 3.84169e-05 0)
(1.046e-05 0.000153135 0)
(-7.0549e-06 5.16358e-05 0)
(-7.81645e-06 6.64178e-05 0)
(-1.64475e-06 1.97037e-05 0)
(3.91483e-06 0.000189921 0)
(3.65358e-06 0.000147245 0)
(-3.11389e-06 8.99387e-05 0)
(1.50722e-05 9.87125e-05 0)
(-1.4991e-05 9.65621e-05 0)
(9.42159e-06 0.000108783 0)
(-1.10958e-06 1.14823e-05 0)
(-9.91452e-06 0.000237491 0)
(-9.82887e-06 0.000238747 0)
(4.82834e-06 0.000278394 0)
(-1.1087e-05 0.000224178 0)
(4.43629e-06 0.000158523 0)
(4.81226e-06 0.000201916 0)
(-1.23506e-05 0.000177948 0)
(-1.14612e-05 0.000136097 0)
(5.82146e-06 2.51856e-05 0)
(-9.15166e-07 0.000239483 0)
(3.33802e-06 5.33127e-06 0)
(-1.01331e-05 0.000224399 0)
(6.81141e-06 2.14562e-05 0)
(-4.53572e-06 6.49624e-05 0)
(-4.08589e-06 5.03142e-05 0)
(-3.595e-06 3.72415e-05 0)
(6.16873e-06 0.000154954 0)
(6.57381e-06 0.000198151 0)
(-2.94948e-06 3.6626e-06 0)
(-5.34462e-06 2.42297e-05 0)
(1.15111e-05 0.000179916 0)
(1.06745e-05 0.000137944 0)
(2.564e-06 0.000182488 0)
(-1.69369e-05 0.000222826 0)
(-1.71076e-05 0.00022416 0)
(6.10569e-06 1.53353e-05 0)
(6.11348e-06 1.57576e-05 0)
(6.6956e-06 4.66236e-05 0)
(7.47417e-06 6.08511e-05 0)
(5.84742e-06 3.40049e-05 0)
(-1.05888e-05 0.00016077 0)
(-1.12402e-05 0.00020433 0)
(4.513e-06 0.000157532 0)
(4.83894e-06 0.000200896 0)
(4.91408e-06 9.61757e-05 0)
(-2.35879e-06 8.9736e-05 0)
(-1.2519e-06 1.98051e-05 0)
(2.96069e-06 0.000189667 0)
(2.76204e-06 0.000147007 0)
(-3.87074e-06 0.00023425 0)
(-1.31558e-06 4.12642e-05 0)
(-1.48309e-06 5.48628e-05 0)
(-1.45773e-05 0.000250618 0)
(-4.04548e-07 9.4248e-06 0)
(-1.40846e-05 0.000118277 0)
(1.21542e-05 7.84822e-05 0)
(1.42105e-07 1.36724e-07 0)
(-8.72886e-06 0.000282255 0)
(1.74253e-05 0.000254608 0)
(-5.07023e-07 3.04064e-07 0)
(1.14749e-05 0.000266839 0)
(1.43363e-05 0.000228105 0)
(1.53767e-05 0.000228292 0)
(-4.59587e-07 0.000274307 0)
(-1.17747e-06 0.000275184 0)
(8.1258e-06 7.65885e-05 0)
(7.1768e-06 7.69267e-05 0)
(-9.61027e-06 0.000120285 0)
(-8.46817e-06 0.000119864 0)
(5.72461e-07 2.58123e-07 0)
(-1.60533e-06 1.37727e-05 0)
(-1.80904e-06 7.68256e-06 0)
(-4.24113e-08 1.59795e-08 0)
(5.49968e-06 9.10112e-06 0)
(-1.31944e-07 4.19732e-08 0)
(7.12621e-07 7.54586e-06 0)
(-9.89928e-06 0.000272866 0)
(-4.81058e-06 3.44005e-05 0)
(-5.48983e-06 4.70879e-05 0)
(-6.12409e-06 6.13731e-05 0)
(9.087e-06 0.000203517 0)
(8.58022e-06 0.000160023 0)
(5.78973e-07 0.000189316 0)
(5.3811e-07 0.000146676 0)
(-2.59462e-07 1.99466e-05 0)
(-4.91381e-07 8.94695e-05 0)
(-1.93626e-07 3.22029e-08 0)
(7.45041e-07 2.49295e-05 0)
(-1.50103e-06 0.000136353 0)
(-4.4941e-06 8.64251e-05 0)
(1.04103e-06 2.45642e-05 0)
(-2.10875e-06 0.000137073 0)
(-6.76919e-06 0.000258221 0)
(8.37674e-06 9.68782e-05 0)
(7.80379e-06 9.61364e-05 0)
(4.21874e-08 1.5905e-08 0)
(1.93146e-07 3.21316e-08 0)
(-1.31163e-05 0.000240366 0)
(-1.26185e-05 0.000241384 0)
(-1.24136e-05 8.20803e-05 0)
(1.39458e-05 0.000114073 0)
(1.11495e-05 0.000204243 0)
(1.05003e-05 0.000160694 0)
(-5.84869e-06 3.4055e-05 0)
(-6.69942e-06 4.66771e-05 0)
(-7.4783e-06 6.09108e-05 0)
(-4.12557e-07 0.0002451 0)
(-4.93948e-06 2.31828e-05 0)
(1.08817e-05 0.000182161 0)
(1.01062e-05 0.000140026 0)
(6.68867e-06 9.78873e-05 0)
(5.63148e-06 0.00023116 0)
(8.84925e-06 0.000288198 0)
(9.12503e-07 7.43666e-06 0)
(-3.29764e-06 7.74962e-05 0)
(-9.81218e-09 2.75367e-06 0)
(1.31449e-07 4.18402e-08 0)
(3.16256e-06 8.1758e-05 0)
(2.72063e-06 8.0907e-05 0)
(-3.44372e-06 0.000114281 0)
(-2.9516e-06 0.000115123 0)
(6.10674e-06 6.13544e-05 0)
(5.47458e-06 4.70712e-05 0)
(4.78602e-06 3.43917e-05 0)
(-8.61866e-06 0.000160024 0)
(-9.15337e-06 0.000203544 0)
(-4.85293e-06 0.000282339 0)
(1.6661e-06 2.03411e-06 0)
(-7.27445e-09 0.000162507 0)
(-1.96074e-08 3.29354e-05 0)
(6.43178e-06 0.000272443 0)
(5.25314e-06 9.54817e-05 0)
(-2.0418e-05 0.000269218 0)
(6.03785e-06 9.85917e-05 0)
(2.37804e-07 1.74795e-07 0)
(1.67828e-05 0.000220076 0)
(1.68797e-05 0.000218842 0)
(-1.02828e-05 0.000140204 0)
(-1.10707e-05 0.000182346 0)
(-9.18722e-06 0.000139852 0)
(-9.89382e-06 0.00018197 0)
(4.97543e-06 2.30977e-05 0)
(4.46043e-06 2.32502e-05 0)
(4.99365e-06 0.000128814 0)
(5.94143e-06 0.000128665 0)
(5.41493e-06 0.000170062 0)
(6.44514e-06 0.000169899 0)
(-2.77614e-06 2.89741e-05 0)
(-3.30596e-06 2.90681e-05 0)
(-5.84678e-07 1.30544e-05 0)
(2.94067e-06 8.33363e-06 0)
(2.75301e-06 8.04587e-06 0)
(2.81111e-06 6.09246e-06 0)
(4.81399e-06 0.000232153 0)
(-1.66647e-05 0.000220482 0)
(-1.67538e-05 0.0002192 0)
(6.30586e-06 1.71241e-05 0)
(6.182e-06 1.6637e-05 0)
(1.32236e-05 9.8734e-05 0)
(1.34016e-05 9.98384e-05 0)
(-1.31437e-05 9.64856e-05 0)
(-1.32132e-05 9.53993e-05 0)
(5.95855e-06 0.000278208 0)
(-1.63545e-05 0.000281832 0)
(-1.57205e-05 0.000237288 0)
(3.72131e-06 4.20869e-06 0)
(-9.6093e-06 0.000278299 0)
(-8.58152e-06 0.000277346 0)
(4.0613e-06 0.000130284 0)
(-2.52945e-06 0.000117114 0)
(2.23934e-06 7.92416e-05 0)
(-1.12733e-05 9.91018e-05 0)
(1.10305e-05 9.60239e-05 0)
(-5.36665e-06 1.68281e-05 0)
(-1.57981e-07 1.00482e-07 0)
(8.47413e-07 3.46352e-06 0)
(1.00344e-06 8.45471e-05 0)
(-9.49513e-06 8.51454e-05 0)
(1.02008e-05 0.000110421 0)
(-5.47128e-06 7.75274e-05 0)
(6.48464e-06 0.00011916 0)
(3.27726e-06 0.000207421 0)
(4.52507e-06 0.000206975 0)
(-1.94621e-06 4.47118e-05 0)
(-2.68496e-06 4.49809e-05 0)
(-2.17989e-06 5.87292e-05 0)
(-3.0059e-06 5.9029e-05 0)
(5.15633e-07 2.26982e-05 0)
(-1.11142e-06 0.000140822 0)
(-1.12534e-06 0.000183046 0)
(-1.81718e-06 0.000267916 0)
(2.57081e-06 6.05363e-06 0)
(-5.16458e-07 0.000114114 0)
(-7.7686e-06 0.000274632 0)
(1.06779e-06 8.55406e-07 0)
(6.93356e-06 0.000163284 0)
(-3.77894e-06 3.25741e-05 0)
(-1.17461e-05 0.000115321 0)
(-1.10324e-05 0.000114747 0)
(1.02659e-05 8.09258e-05 0)
(9.67657e-06 8.14165e-05 0)
(-1.16315e-05 0.000286385 0)
(-1.17596e-05 0.000285156 0)
(-1.92815e-06 1.31361e-05 0)
(-2.286e-06 1.30864e-05 0)
(9.27814e-07 3.62989e-06 0)
(-2.20111e-06 3.76701e-06 0)
(5.41208e-07 0.000119736 0)
(3.37452e-06 2.35176e-05 0)
(2.83701e-06 2.36672e-05 0)
(-6.91416e-06 0.000139241 0)
(-5.79814e-06 0.000138912 0)
(-7.4479e-06 0.000181321 0)
(-6.24699e-06 0.000180969 0)
(-1.50846e-05 0.000229645 0)
(-1.39595e-05 0.000229737 0)
(-3.31645e-06 6.9377e-05 0)
(-3.06731e-06 5.42891e-05 0)
(-2.71862e-06 4.07562e-05 0)
(4.76144e-06 0.000214291 0)
(-8.2412e-07 0.000242721 0)
(9.92366e-06 9.59315e-05 0)
(9.39559e-06 9.67642e-05 0)
(4.39218e-06 0.000185394 0)
(4.20131e-06 0.000142972 0)
(-1.99103e-06 2.1681e-05 0)
(1.86684e-06 2.42735e-05 0)
(1.53532e-06 2.47458e-05 0)
(-3.42522e-06 0.000178685 0)
(-4.07374e-06 0.000179606 0)
(-3.77494e-06 0.000137665 0)
(-3.07785e-06 0.000136725 0)
(-3.95708e-06 2.22533e-05 0)
(8.27296e-06 0.000141874 0)
(8.89595e-06 0.000184152 0)
(-1.07942e-07 1.02665e-06 0)
(1.4754e-05 0.000109455 0)
(-1.35728e-05 8.62848e-05 0)
(-6.08056e-08 9.55196e-07 0)
(-4.45479e-06 0.000204202 0)
(-5.22314e-06 0.000205324 0)
(-4.08817e-06 0.000160733 0)
(-4.78619e-06 0.000161797 0)
(2.60378e-06 3.33679e-05 0)
(2.24219e-06 3.39535e-05 0)
(3.07545e-06 4.59656e-05 0)
(2.63867e-06 4.66332e-05 0)
(3.43683e-06 6.01279e-05 0)
(2.94538e-06 6.08734e-05 0)
(1.66189e-05 0.000230089 0)
(1.69286e-05 0.000231259 0)
(-1.57072e-06 7.74535e-06 0)
(6.23411e-06 0.000164097 0)
(-3.3746e-06 3.21246e-05 0)
(5.47529e-06 2.54021e-05 0)
(-1.07293e-05 0.000135646 0)
(-1.15894e-05 0.000177436 0)
(-1.53828e-07 4.67553e-08 0)
(2.153e-06 0.000239798 0)
(5.40696e-06 2.42346e-05 0)
(-1.08785e-05 0.000137939 0)
(-1.17417e-05 0.000179872 0)
(4.11391e-06 7.07437e-06 0)
(-8.2146e-06 0.000259921 0)
(5.1907e-06 1.9344e-05 0)
(-1.29667e-05 0.000213366 0)
(-2.78054e-06 1.04011e-05 0)
(-2.96629e-06 1.07827e-05 0)
(2.90709e-06 1.06702e-05 0)
(-1.40749e-06 0.000113937 0)
(-1.08504e-08 -7.98408e-09 0)
(-8.72255e-06 0.000284815 0)
(-1.37916e-07 5.4885e-08 0)
(1.53182e-07 4.6586e-08 0)
(-4.06194e-06 2.34757e-05 0)
(8.87826e-06 0.000181455 0)
(8.2413e-06 0.000139367 0)
(6.83709e-06 0.000240176 0)
(-1.96594e-05 0.000257695 0)
(2.51664e-06 0.000106645 0)
(-1.62792e-06 0.000103856 0)
(-4.47996e-07 1.08836e-05 0)
(-1.25687e-06 1.31655e-06 0)
(-7.83283e-09 -7.05267e-09 0)
(-4.90825e-06 7.82516e-05 0)
(5.81286e-06 0.000118325 0)
(4.27259e-07 1.4986e-07 0)
(-6.58305e-07 0.000102326 0)
(-6.21362e-07 0.000101337 0)
(-2.12243e-08 8.58957e-05 0)
(-1.19434e-07 2.19574e-05 0)
(2.13438e-07 0.000142357 0)
(1.90826e-07 0.000184824 0)
(-4.29561e-07 1.50631e-07 0)
(1.75837e-06 1.17726e-05 0)
(-6.7891e-06 0.000209888 0)
(3.88616e-06 4.32946e-05 0)
(4.36301e-06 5.71385e-05 0)
(4.79619e-06 7.24942e-05 0)
(1.42511e-05 0.000273378 0)
(-5.26435e-06 2.10017e-05 0)
(1.22213e-05 0.000187127 0)
(1.13886e-05 0.000144651 0)
(-8.0885e-06 0.000252161 0)
(1.18417e-06 3.02811e-06 0)
(1.08924e-05 0.000247475 0)
(-2.3502e-06 3.71023e-06 0)
(7.63058e-06 0.000274466 0)
(-5.85318e-06 0.000209911 0)
(3.34525e-06 4.32759e-05 0)
(3.75589e-06 5.71189e-05 0)
(4.1315e-06 7.24687e-05 0)
(1.03438e-06 2.86976e-06 0)
(5.02828e-06 0.000168257 0)
(-2.62358e-06 2.9903e-05 0)
(-8.90812e-07 1.17236e-05 0)
(-1.43115e-05 0.000248355 0)
(-5.3306e-06 6.52031e-05 0)
(-4.80346e-06 5.05328e-05 0)
(-4.2281e-06 3.7436e-05 0)
(7.20107e-06 0.000154701 0)
(7.67486e-06 0.000197879 0)
(1.96427e-05 0.000289744 0)
(1.14337e-05 0.000254255 0)
(1.26771e-05 0.000253818 0)
(1.60694e-07 1.12699e-07 0)
(7.11443e-06 7.78142e-05 0)
(-8.33416e-06 0.000118808 0)
(-3.62795e-06 7.89255e-05 0)
(4.22958e-06 0.00011757 0)
(-1.22524e-06 0.000126643 0)
(-9.31759e-07 0.000205536 0)
(5.87699e-07 5.99724e-05 0)
(5.25931e-07 4.58238e-05 0)
(2.86466e-08 3.22567e-05 0)
(-2.06554e-07 0.000123067 0)
(-9.51235e-08 0.000163795 0)
(8.98816e-06 0.000289353 0)
(5.10946e-07 1.20749e-05 0)
(-2.22745e-07 2.79424e-06 0)
(1.71952e-06 0.000173894 0)
(8.66755e-08 2.88973e-06 0)
(-1.3359e-06 9.0207e-06 0)
(3.3364e-06 3.21783e-05 0)
(-6.28662e-06 0.00016399 0)
(-1.25582e-07 1.38868e-07 0)
(-1.32559e-05 0.000248239 0)
(-1.10942e-06 2.1538e-05 0)
(2.34973e-06 0.000185811 0)
(2.33101e-06 0.00014325 0)
(3.00505e-07 7.21527e-08 0)
(-3.94616e-06 7.19084e-06 0)
(4.34409e-06 5.85536e-05 0)
(3.87803e-06 4.45581e-05 0)
(-6.67674e-06 0.000207721 0)
(1.28806e-06 8.13568e-05 0)
(-8.96987e-06 0.000281148 0)
(-1.51039e-07 2.11859e-08 0)
(-5.16398e-06 1.12456e-05 0)
(3.34672e-06 6.19488e-06 0)
(-3.37485e-06 3.70825e-06 0)
(9.99063e-06 9.76884e-05 0)
(7.5934e-06 0.000118832 0)
(-6.53051e-06 7.77875e-05 0)
(4.66664e-07 3.19275e-05 0)
(-1.08979e-06 0.000123534 0)
(-9.12808e-07 0.000164405 0)
(9.5274e-06 0.000244662 0)
(8.87662e-06 0.000106996 0)
(4.61535e-06 0.000283321 0)
(4.44609e-06 0.000284378 0)
(1.28767e-06 0.000118277 0)
(1.75996e-06 8.07475e-05 0)
(1.50655e-07 2.11387e-08 0)
(-1.28116e-05 0.000221839 0)
(4.66902e-06 1.60533e-05 0)
(1.61484e-08 2.22284e-07 0)
(2.44895e-06 0.000158445 0)
(3.20153e-06 0.000158994 0)
(4.39289e-09 1.93993e-08 0)
(-2.45687e-06 5.99382e-06 0)
(6.08307e-06 5.95335e-05 0)
(5.43863e-06 4.54389e-05 0)
(4.73968e-06 3.29127e-05 0)
(-8.72877e-06 0.000162518 0)
(-9.25647e-06 0.000206274 0)
(8.07048e-06 0.000101834 0)
(1.1749e-06 0.000240055 0)
(-5.22218e-06 0.000270707 0)
(-4.94455e-06 0.000272135 0)
(-5.08492e-07 0.000208865 0)
(-4.36731e-07 0.000210013 0)
(3.54304e-07 4.31785e-05 0)
(3.22851e-07 4.38169e-05 0)
(3.97619e-07 5.70133e-05 0)
(3.61874e-07 5.77288e-05 0)
(2.59969e-07 7.2355e-05 0)
(3.11602e-07 7.31197e-05 0)
(6.32191e-07 0.000118672 0)
(1.16352e-06 0.000120576 0)
(2.02371e-06 0.00018365 0)
(-5.19045e-07 0.000126333 0)
(-3.01332e-07 7.23378e-08 0)
(-3.36642e-07 2.66488e-06 0)
(4.42851e-06 0.000167364 0)
(-2.33234e-06 3.03662e-05 0)
(1.17798e-06 3.69908e-06 0)
(1.72989e-05 0.000274722 0)
(-1.32343e-06 0.000210929 0)
(8.17536e-07 4.2693e-05 0)
(9.18614e-07 5.64685e-05 0)
(9.04739e-07 7.1723e-05 0)
(-1.32281e-05 0.000230832 0)
(4.56069e-06 8.26738e-05 0)
(6.74423e-06 0.000291602 0)
(7.62742e-06 0.000290953 0)
(-1.32778e-06 9.30119e-06 0)
(-8.44897e-07 0.000161655 0)
(4.40392e-07 3.3405e-05 0)
(1.97403e-07 2.02117e-07 0)
(1.69744e-05 0.000282472 0)
(-2.34152e-07 4.70659e-06 0)
(-3.20373e-06 4.8447e-05 0)
(-3.56647e-06 6.28913e-05 0)
(-4.26689e-06 6.35513e-05 0)
(-3.83649e-06 4.9042e-05 0)
(-2.77601e-06 3.55822e-05 0)
(-3.35748e-06 3.612e-05 0)
(5.6142e-06 0.000156888 0)
(5.97873e-06 0.000200217 0)
(2.45417e-06 3.35686e-06 0)
(-1.58077e-07 9.62398e-08 0)
(-1.46556e-05 0.000191068 0)
(-1.52676e-05 0.000281896 0)
(4.98041e-06 0.000120481 0)
(-4.30411e-07 4.8161e-06 0)
(-7.93238e-06 0.000156604 0)
(-8.44133e-06 0.000199904 0)
(4.53586e-06 3.63392e-05 0)
(5.16469e-06 4.92867e-05 0)
(5.74136e-06 6.38194e-05 0)
(7.34738e-06 0.000240973 0)
(1.66911e-05 0.000283476 0)
(-9.00131e-06 9.85655e-05 0)
(3.71593e-06 3.25653e-05 0)
(-6.97077e-06 0.000163278 0)
(4.76527e-06 0.000121418 0)
(-1.81481e-06 8.65663e-05 0)
(4.81129e-06 5.90521e-05 0)
(4.29844e-06 4.5005e-05 0)
(-7.35911e-06 0.000206973 0)
(-1.33802e-05 9.96968e-05 0)
(1.3045e-05 9.55951e-05 0)
(1.30445e-05 9.66601e-05 0)
(-1.32047e-05 9.85659e-05 0)
(-6.20032e-06 1.66276e-05 0)
(-6.3816e-06 1.71443e-05 0)
(-6.20885e-06 9.66456e-05 0)
(-3.18039e-06 3.79701e-06 0)
(-1.00427e-05 9.73863e-05 0)
(-1.46979e-06 0.00023217 0)
(-1.30157e-06 1.56273e-06 0)
(1.00957e-05 5.68397e-05 0)
(8.9888e-06 4.30479e-05 0)
(-1.42168e-05 0.000145741 0)
(2.297e-06 5.90887e-05 0)
(2.0524e-06 4.50336e-05 0)
(-3.53491e-06 0.000206879 0)
(4.74059e-06 1.43442e-05 0)
(7.85448e-06 0.00011787 0)
(-6.80127e-06 7.86221e-05 0)
(-3.75272e-06 4.22821e-06 0)
(4.03076e-06 0.000184385 0)
(3.85298e-06 0.00014207 0)
(-1.84743e-06 2.21084e-05 0)
(1.16949e-05 0.000174122 0)
(-5.74923e-06 2.70166e-05 0)
(1.08006e-05 0.000132581 0)
(-6.55908e-06 1.6407e-05 0)
(8.23898e-06 0.000271251 0)
(9.44997e-06 0.000270855 0)
(9.10432e-06 0.00020628 0)
(8.63032e-06 0.000162535 0)
(-4.73081e-06 3.30065e-05 0)
(-5.40224e-06 4.5434e-05 0)
(-6.04287e-06 5.95281e-05 0)
(-1.37112e-06 1.35489e-06 0)
(-7.23889e-06 0.000251903 0)
(7.89887e-06 0.000160734 0)
(-4.39726e-06 3.39954e-05 0)
(-8.33384e-07 1.041e-06 0)
(6.74782e-06 0.000274288 0)
(1.65528e-06 1.3639e-06 0)
(1.37311e-06 1.03445e-06 0)
(3.47528e-06 4.95981e-06 0)
(8.15937e-06 0.000220501 0)
(-1.38238e-05 0.000226567 0)
(1.83956e-05 0.000275073 0)
(3.51939e-06 5.21343e-06 0)
(8.08265e-06 0.000106964 0)
(1.10742e-05 0.000233788 0)
(-1.77999e-05 0.000221071 0)
(6.56348e-06 1.64431e-05 0)
(-4.0892e-06 0.000235256 0)
(1.66351e-06 5.9272e-05 0)
(1.48685e-06 4.51971e-05 0)
(-2.56839e-06 0.000206597 0)
(-6.19747e-07 2.98497e-06 0)
(4.72051e-06 0.000127113 0)
(1.36505e-07 5.4369e-08 0)
(-5.45946e-06 1.11372e-05 0)
(-9.64827e-07 0.000104501 0)
(-2.44206e-06 2.02016e-05 0)
(-2.84191e-06 2.03347e-05 0)
(5.36852e-06 0.00014618 0)
(6.23285e-06 0.000145908 0)
(6.68344e-06 0.000188486 0)
(5.7558e-06 0.000188778 0)
(1.60755e-07 6.0231e-07 0)
(-4.20118e-08 7.51215e-06 0)
(-9.65782e-06 0.00013135 0)
(-1.04671e-05 0.000172792 0)
(5.17131e-06 2.76544e-05 0)
(-3.04719e-06 1.64746e-05 0)
(-1.8128e-06 0.000177661 0)
(-2.76333e-06 7.06466e-06 0)
(5.64354e-06 0.000271685 0)
(-4.55846e-06 8.9019e-05 0)
(-5.2813e-06 8.87951e-05 0)
(1.5745e-07 1.59987e-07 0)
(-3.02109e-06 9.20641e-05 0)
(-1.53629e-06 1.8587e-05 0)
(3.52042e-06 0.000149758 0)
(3.76549e-06 0.00019261 0)
(-4.23328e-06 0.00017769 0)
(-3.727e-06 0.000135812 0)
(1.88218e-06 2.5217e-05 0)
(2.50824e-06 9.4779e-06 0)
(2.32966e-06 9.134e-06 0)
(1.20991e-06 8.87593e-05 0)
(-1.57872e-06 0.000188416 0)
(-1.48017e-06 0.000145818 0)
(6.52903e-07 2.03394e-05 0)
(-1.45131e-06 3.50192e-05 0)
(-2.60221e-06 7.2617e-06 0)
(1.05161e-05 0.000278067 0)
(-1.02686e-05 0.000166348 0)
(7.91453e-06 7.83119e-05 0)
(-9.23018e-06 0.000118249 0)
(1.12097e-05 0.000234843 0)
(-1.03192e-05 7.19862e-05 0)
(-9.40008e-06 5.66715e-05 0)
(1.26016e-05 0.000125866 0)
(-8.36632e-06 4.28952e-05 0)
(-7.24233e-06 3.07658e-05 0)
(1.37558e-05 0.000166868 0)
(1.45395e-05 0.0002108 0)
(-3.7797e-06 0.000201721 0)
(-3.55699e-06 0.000158307 0)
(2.27021e-06 4.81343e-05 0)
(1.98975e-06 3.532e-05 0)
(2.52798e-06 6.2545e-05 0)
(2.17095e-06 4.8826e-05 0)
(-3.59013e-06 0.000200591 0)
(2.4148e-06 6.3314e-05 0)
(1.90553e-06 3.59274e-05 0)
(-3.37645e-06 0.000157243 0)
(-1.99683e-06 0.000255861 0)
(-4.05606e-06 5.32047e-06 0)
(-4.39488e-06 2.49786e-05 0)
(9.30339e-06 0.000178249 0)
(8.617e-06 0.000136393 0)
(-2.7615e-06 3.3633e-05 0)
(5.00921e-06 0.00016135 0)
(1.38021e-05 0.00019988 0)
(1.29672e-05 0.000156592 0)
(-7.4855e-06 3.64353e-05 0)
(-8.5231e-06 4.93804e-05 0)
(-9.47383e-06 6.3911e-05 0)
(1.45422e-05 0.000218149 0)
(1.58723e-05 0.000217872 0)
(3.56869e-07 6.41102e-06 0)
(-1.47045e-06 0.000102792 0)
(-3.92633e-06 1.0857e-05 0)
(2.0106e-07 3.75502e-07 0)
(-3.86443e-06 1.37879e-05 0)
(-6.19529e-07 0.000232633 0)
(1.60473e-07 6.13555e-06 0)
(-3.19712e-06 0.00011015 0)
(1.31862e-05 0.000145828 0)
(-6.00695e-06 2.05058e-05 0)
(1.41384e-05 0.000188383 0)
(-1.32969e-08 -9.21359e-09 0)
(8.78358e-07 0.00017406 0)
(2.52668e-07 1.06407e-07 0)
(1.72433e-07 1.2731e-07 0)
(2.33936e-06 0.000125074 0)
(-2.88658e-07 2.33692e-07 0)
(1.07472e-05 0.000280147 0)
(8.00345e-07 0.000158949 0)
(-4.31121e-07 3.49129e-05 0)
(2.35288e-06 1.40349e-05 0)
(1.47766e-06 0.000158455 0)
(-8.35607e-07 3.51679e-05 0)
(-1.42163e-07 3.10867e-06 0)
(-1.0094e-05 5.68112e-05 0)
(-8.98597e-06 4.30229e-05 0)
(-7.77993e-06 3.08854e-05 0)
(-6.4716e-06 2.05555e-05 0)
(1.41945e-05 0.000145772 0)
(1.47531e-05 0.000166685 0)
(1.52199e-05 0.00018832 0)
(1.55993e-05 0.000210609 0)
(-6.90995e-06 0.000227236 0)
(-6.14046e-06 0.000270181 0)
(-1.98372e-05 0.000223086 0)
(7.15967e-06 1.57475e-05 0)
(4.52483e-06 0.000286439 0)
(5.26378e-06 0.000285204 0)
(1.40599e-06 0.000154945 0)
(1.52472e-06 0.000198166 0)
(-1.08976e-06 6.50382e-05 0)
(-9.81571e-07 5.03788e-05 0)
(-8.63502e-07 3.7294e-05 0)
(-5.69321e-06 1.64502e-05 0)
(2.07248e-06 1.1796e-05 0)
(-7.69719e-06 6.81368e-05 0)
(1.01625e-05 0.000150809 0)
(-6.9622e-06 5.31902e-05 0)
(-6.15926e-06 3.97918e-05 0)
(1.08591e-05 0.000193722 0)
(-4.3259e-06 1.82301e-05 0)
(1.09959e-05 0.000216188 0)
(1.84956e-06 9.84535e-05 0)
(-1.15693e-06 0.000241499 0)
(1.13868e-06 5.68948e-07 0)
(-8.47829e-07 0.000212045 0)
(5.41535e-07 4.20569e-05 0)
(6.09056e-07 5.57544e-05 0)
(5.65266e-07 7.09359e-05 0)
(3.43928e-06 0.000250199 0)
(-4.71969e-07 2.99338e-07 0)
(1.74476e-05 0.000246191 0)
(-2.62572e-06 0.000104351 0)
(-7.96301e-08 1.71252e-07 0)
(6.24123e-06 0.000148461 0)
(-2.75662e-06 1.91824e-05 0)
(6.68046e-06 0.00019122 0)
(1.3757e-07 1.07391e-07 0)
(-3.70028e-06 2.31444e-05 0)
(7.56373e-06 0.000140017 0)
(8.14449e-06 0.000182157 0)
(1.28455e-06 1.68534e-06 0)
(-5.31853e-06 9.09856e-05 0)
(1.12167e-06 9.72868e-05 0)
(-1.20872e-05 0.000263126 0)
(1.11094e-06 0.00015579 0)
(1.18432e-06 0.000199045 0)
(-9.20726e-07 6.44117e-05 0)
(-7.26547e-07 3.67987e-05 0)
(-8.28564e-07 4.98137e-05 0)
(1.7913e-06 9.91818e-05 0)
(-2.5289e-07 9.61797e-07 0)
(-2.2406e-07 3.27157e-06 0)
(5.27302e-07 0.000232254 0)
(1.1899e-05 0.000106648 0)
(-1.11718e-05 8.88027e-05 0)
(-8.48457e-06 0.000294454 0)
(-1.92561e-05 0.00019239 0)
(-1.80094e-05 0.000149586 0)
(-1.86881e-05 0.000170629 0)
(-1.7217e-05 0.000129382 0)
(9.46156e-06 2.89351e-05 0)
(1.09938e-05 4.07461e-05 0)
(1.24013e-05 5.42364e-05 0)
(1.36891e-05 6.92658e-05 0)
(1.92138e-05 0.000192387 0)
(1.8646e-05 0.000170629 0)
(-9.48314e-06 2.89364e-05 0)
(-1.10189e-05 4.07482e-05 0)
(1.79672e-05 0.000149585 0)
(-1.24306e-05 5.4238e-05 0)
(1.71778e-05 0.000129381 0)
(-1.37218e-05 6.92676e-05 0)
(-5.47976e-06 1.59905e-05 0)
(-2.9878e-06 0.000240985 0)
(-2.13164e-06 0.000240755 0)
(-2.65171e-06 0.000272944 0)
(4.39059e-06 0.0001653 0)
(-2.35737e-06 3.14617e-05 0)
(-8.46957e-07 1.24956e-06 0)
(-3.4303e-06 0.000288476 0)
(-3.76567e-06 6.20608e-05 0)
(-4.61253e-06 6.18272e-05 0)
(-3.37881e-06 4.77007e-05 0)
(-4.13737e-06 4.74923e-05 0)
(5.56273e-06 0.000202795 0)
(6.68231e-06 0.00020289 0)
(1.46913e-05 0.000199361 0)
(1.37983e-05 0.000156107 0)
(-7.99898e-06 3.67354e-05 0)
(-9.10139e-06 4.97181e-05 0)
(-1.01114e-05 6.42833e-05 0)
(-8.90107e-06 0.000131813 0)
(-9.64344e-06 0.000173296 0)
(4.73914e-06 2.73903e-05 0)
(-2.80081e-06 0.000118049 0)
(2.37088e-06 7.84426e-05 0)
(2.89587e-06 0.000208538 0)
(-1.70178e-06 4.39869e-05 0)
(-1.90863e-06 5.79184e-05 0)
(-2.06714e-06 7.31988e-05 0)
(5.49188e-06 7.75078e-05 0)
(4.65302e-06 7.7706e-05 0)
(-6.45763e-06 0.000119131 0)
(-5.46856e-06 0.000118886 0)
(-6.49992e-06 0.000286315 0)
(4.38357e-07 1.19986e-06 0)
(1.07997e-05 0.00024646 0)
(3.89138e-06 8.60934e-05 0)
(1.05881e-05 0.000170449 0)
(-5.39218e-06 2.88409e-05 0)
(9.75182e-06 0.000129189 0)
(-9.08082e-06 0.000103234 0)
(2.20445e-06 2.18337e-05 0)
(-5.06859e-06 0.000185 0)
(-4.71852e-06 0.000142659 0)
(6.27047e-07 8.95793e-05 0)
(-7.88444e-07 0.000146791 0)
(-8.3832e-07 0.000189455 0)
(3.34699e-07 1.98944e-05 0)
(6.11415e-06 8.1127e-05 0)
(-6.98188e-06 0.00011495 0)
(-3.34344e-06 0.000255857 0)
(-1.54673e-05 0.00025341 0)
(2.7613e-06 0.000109653 0)
(6.93994e-06 0.000109998 0)
(-5.63685e-06 2.12189e-05 0)
(1.30218e-05 0.000186663 0)
(1.21309e-05 0.000144222 0)
(-6.25767e-07 2.65398e-06 0)
(-2.09659e-06 0.000213518 0)
(1.16289e-06 4.12125e-05 0)
(1.3104e-06 5.48048e-05 0)
(1.43488e-06 6.98998e-05 0)
(-3.20265e-06 0.000103841 0)
(-1.43374e-05 0.000253495 0)
(-4.13481e-06 4.12625e-05 0)
(-4.66035e-06 5.48554e-05 0)
(-5.12358e-06 6.99833e-05 0)
(7.30171e-06 0.000213444 0)
(1.33242e-08 1.7415e-08 0)
(8.98539e-06 0.000102406 0)
(1.14419e-07 8.00802e-06 0)
(-4.27997e-07 7.45876e-07 0)
(-8.89078e-07 3.43432e-06 0)
(-4.25665e-06 1.47042e-05 0)
(-4.37063e-07 1.60807e-07 0)
(1.76931e-06 4.65846e-05 0)
(1.55283e-06 3.39381e-05 0)
(1.97499e-06 6.08203e-05 0)
(-3.00266e-06 0.000204271 0)
(-2.84394e-06 0.000160748 0)
(-8.74044e-06 8.49616e-05 0)
(9.46265e-06 0.00011066 0)
(-8.66212e-07 5.10238e-07 0)
(1.14828e-05 0.000271344 0)
(8.28088e-06 0.000242749 0)
(-1.76539e-05 0.000228486 0)
(6.53567e-06 0.000109148 0)
(2.35368e-06 0.000118549 0)
(-4.44802e-06 0.000288345 0)
(-1.23723e-05 0.000124202 0)
(-1.17688e-05 0.000123653 0)
(1.74218e-05 0.00028826 0)
(-1.40009e-06 0.000257133 0)
(-3.91953e-06 7.81261e-05 0)
(4.69888e-06 0.000118525 0)
(1.42155e-07 8.28886e-06 0)
(2.16493e-06 2.92904e-06 0)
(4.33987e-07 1.59704e-07 0)
(4.1532e-06 0.000126283 0)
(1.53537e-05 0.000294178 0)
(-8.42159e-06 0.000204306 0)
(-7.92702e-06 0.000160744 0)
(4.37025e-06 3.39791e-05 0)
(5.59213e-06 6.08346e-05 0)
(5.00941e-06 4.66034e-05 0)
(-1.592e-07 1.11406e-07 0)
(-6.36583e-07 0.00026764 0)
(7.87e-06 0.000110322 0)
(-7.17142e-06 8.53935e-05 0)
(-1.26158e-05 0.000261149 0)
(-1.88351e-05 0.000193375 0)
(-1.82833e-05 0.000171581 0)
(-1.76271e-05 0.000150504 0)
(-1.68573e-05 0.000130261 0)
(9.17332e-06 2.8439e-05 0)
(1.0676e-05 4.01729e-05 0)
(1.20566e-05 5.3592e-05 0)
(1.33201e-05 6.85563e-05 0)
(1.8791e-05 0.000193368 0)
(1.82413e-05 0.00017158 0)
(-9.19422e-06 2.84422e-05 0)
(-1.06999e-05 4.01766e-05 0)
(1.75827e-05 0.000150501 0)
(-1.20845e-05 5.35953e-05 0)
(1.68165e-05 0.000130257 0)
(-1.33513e-05 6.856e-05 0)
(-2.758e-06 3.70289e-06 0)
(1.08466e-06 1.02042e-06 0)
(-1.45216e-06 2.65714e-06 0)
(7.00649e-06 0.000108248 0)
(-7.70121e-06 0.000111461 0)
(1.38371e-06 1.66719e-06 0)
(-2.14795e-07 3.58903e-08 0)
(-1.69765e-05 0.000229037 0)
(9.70959e-06 0.000291211 0)
(1.08974e-05 0.00029176 0)
(2.14324e-07 3.58242e-08 0)
(3.11587e-06 4.15449e-06 0)
(1.52104e-05 0.000265094 0)
(-5.79039e-06 0.000123216 0)
(-3.80724e-07 3.33556e-07 0)
(-8.61665e-07 1.33753e-06 0)
(-1.34623e-07 3.44274e-08 0)
(2.52125e-07 1.96077e-07 0)
(1.57316e-05 9.82168e-05 0)
(-1.57074e-05 9.70817e-05 0)
(4.82218e-06 7.40818e-05 0)
(-5.93485e-06 0.000120964 0)
(5.00699e-06 7.59826e-05 0)
(-2.60653e-07 4.43057e-06 0)
(-3.65678e-06 0.000193335 0)
(2.88621e-06 9.26718e-05 0)
(-2.0434e-06 0.000191237 0)
(-1.95545e-06 0.000148366 0)
(8.40208e-07 1.91924e-05 0)
(1.58391e-06 9.09927e-05 0)
(-6.45737e-06 0.000122588 0)
(3.32064e-06 4.40151e-06 0)
(5.40202e-06 7.46406e-05 0)
(2.00295e-06 0.000109821 0)
(1.52858e-05 0.000273766 0)
(-4.66511e-06 0.000110726 0)
(-5.36301e-06 0.000111478 0)
(-4.36015e-06 9.31977e-06 0)
(-5.20104e-06 0.000115015 0)
(-4.44874e-06 0.000114219 0)
(4.62107e-06 8.09938e-05 0)
(4.0585e-06 8.17916e-05 0)
(-4.88609e-06 2.2659e-05 0)
(1.01255e-05 0.000141101 0)
(1.08939e-05 0.000183317 0)
(-1.35154e-06 1.505e-06 0)
(-6.46938e-06 0.000121606 0)
(5.43962e-06 7.54726e-05 0)
(-4.12517e-06 0.000156436 0)
(-4.38964e-06 0.000199732 0)
(2.35083e-06 3.63978e-05 0)
(2.97416e-06 6.39061e-05 0)
(2.67596e-06 4.93598e-05 0)
(-2.15245e-06 1.00656e-05 0)
(-1.35068e-05 0.000164968 0)
(-1.27997e-05 0.000164447 0)
(7.16144e-06 3.17622e-05 0)
(6.81196e-06 3.20377e-05 0)
(8.89322e-06 0.000130967 0)
(9.77813e-06 0.000130322 0)
(-4.82275e-06 2.78481e-05 0)
(-5.33969e-06 2.82164e-05 0)
(9.64222e-06 0.00017238 0)
(1.0607e-05 0.000171678 0)
(-3.88824e-06 0.000254919 0)
(7.74086e-06 0.000232786 0)
(7.85241e-06 0.000231699 0)
(-5.74644e-06 7.59897e-05 0)
(6.73054e-06 0.000120934 0)
(-2.03334e-05 0.000284024 0)
(-5.85821e-06 0.000226588 0)
(-5.62621e-06 0.000225526 0)
(1.95874e-06 1.46223e-05 0)
(2.01326e-06 1.42502e-05 0)
(1.75398e-05 0.000229106 0)
(-7.77302e-06 9.74734e-05 0)
(-6.67399e-06 9.75073e-05 0)
(1.73529e-05 0.000258673 0)
(-1.75626e-05 0.000272687 0)
(-1.75399e-05 0.000273986 0)
(-5.39319e-07 2.74597e-06 0)