/*--------------------------------*- C++ -*----------------------------------*\
| =========                 |                                                 |
| \\      /  F ield         | OpenFOAM: The Open Source CFD Toolbox           |
|  \\    /   O peration     | Version:  2.3.1                                 |
|   \\  /    A nd           | Web:      www.OpenFOAM.org                      |
|    \\/     M anipulation  |                                                 |
\*---------------------------------------------------------------------------*/
FoamFile
{
    version     2.0;
    format      ascii;
    class       volSymmTensorField;
    location    "3820";
    object      sigma;
}
// * * * * * * * * * * * * * * * * * * * * * * * * * * * * * * * * * * * * * //

dimensions      [1 -1 -2 0 0 0 0];

internalField   nonuniform List<symmTensor> 
11800
(
(147201 74381 7.09018e-14 -2756.15 3.7557e-14 35839.8)
(-73140.3 65865.6 1.08843e-13 -526.431 3.45166e-14 -18278.2)
(666171 94506.7 -1.80249e-15 1414.23 -7.86851e-14 165642)
(-578591 48801.6 0 -1313.78 0 -143886)
(-75774 63547.5 2.03071e-14 -5133.41 -5.73744e-14 -20074.8)
(-362087 97777.3 7.87236e-14 2265.15 4.12935e-14 -89279.1)
(-67222.7 94049.3 1.48956e-13 -666.109 -3.87341e-14 -16844.6)
(-94694 97532.8 -2.21781e-14 918.113 8.92283e-14 -23267.7)
(204863 50042.4 2.95616e-14 465.464 -2.01883e-14 50946.2)
(140093 102463 -7.63377e-14 831.17 -6.43e-14 34966.1)
(169962 61444.4 -5.91469e-14 1724.08 5.06297e-14 42598.7)
(-839294 35371.9 -7.06714e-14 -6200.29 -3.20647e-14 -209784)
(23571 -34239 1.27797e-16 -63518.3 9.93073e-17 -9911.74)
(617113 49126.9 6.40727e-14 3796.97 -1.75336e-14 154060)
(-493332 91615.6 -5.3464e-14 6530.23 4.15632e-14 -120785)
(2.28541e+06 -7962.13 0 -7442.28 0 565209)
(-43924.4 73781.3 5.04076e-14 4126.97 4.44503e-15 -9874.55)
(-67761.6 67906.4 -2.8439e-14 8197.4 1.63327e-13 -14779.1)
(141623 115654 -2.90021e-14 -18645.1 2.06152e-14 30513.4)
(106719 61787.6 -1.01595e-13 -11626.7 -3.28607e-14 23594.2)
(-454590 55323.6 3.16573e-14 -1543.48 3.31772e-14 -113176)
(-734159 86098.5 5.06404e-14 3762.47 -2.9445e-14 -181226)
(-962801 110225 -2.55378e-14 11895.9 1.6425e-14 -235939)
(-883530 63692.6 2.56919e-16 213.857 4.43813e-15 -219169)
(1.86481e+06 81959.9 3.20115e-15 -8225.58 3.69814e-14 460655)
(-1.14885e+06 109808 -2.50767e-14 8077.83 -7.15284e-16 -283048)
(-1.21495e+06 57905.2 0 10672.8 0 -298806)
(599774 43508.8 -8.39955e-14 -5533.78 -5.07267e-14 147443)
(-1.32347e+06 59163.2 -1.44833e-14 11719.3 -6.96109e-14 -325472)
(-1.43247e+06 59663.6 1.92937e-14 13625.1 -2.99994e-14 -352044)
(393699 45932.3 -1.04101e-13 -2022.94 -1.86569e-13 97182.8)
(78719.8 59747.4 -1.67163e-14 2676.91 -1.38183e-14 20196.2)
(1.17172e+06 105855 -4.09616e-15 13500.3 -1.79152e-14 294077)
(-28923.4 78316 1.36147e-14 -1919.62 -1.01941e-13 -7652.78)
(20216.2 82818.8 -3.60066e-14 2321.22 -1.54554e-13 5591.98)
(-384371 34534.4 -9.45237e-14 -889.126 -6.86676e-14 -95590.9)
(22218.7 83921.7 1.27882e-13 1713.11 -1.52084e-13 5937.98)
(1.25605e+06 61080.1 -1.50464e-14 6710.42 -6.43515e-14 313317)
(-45663.8 81351.4 0 -1712.48 0 -11755)
(101811 76491 -4.40764e-14 5981.27 8.21051e-14 26745.4)
(-1.27653e+06 43053.8 -7.82652e-14 -6458.03 -3.63756e-14 -318336)
(-1.3905e+06 42576.9 5.60656e-14 -6874.2 -3.21708e-14 -346718)
(630410 58270.9 -3.23965e-14 -962.178 -1.07834e-13 156179)
(-1.505e+06 42961.3 -1.06718e-14 -5617.43 -5.69063e-14 -374815)
(413855 57535.5 2.76699e-13 1125.86 -8.63117e-14 102965)
(2.13711e+06 52288.1 0 -7607.86 0 528372)
(922550 120471 -1.61417e-14 -3545.19 8.45285e-15 228024)
(1.09889e+06 43534.4 -2.8494e-14 -12006.2 -1.9792e-14 269677)
(-106666 84224.7 -1.09694e-13 409.167 -6.75817e-14 -26364.5)
(245235 80861.3 0 2434.67 0 61451.8)
(-871204 48443.8 -5.30993e-15 2555.42 5.62688e-14 -215529)
(-610229 45375.9 1.8391e-13 3330.11 2.15487e-14 -150584)
(-12509.6 82082.2 1.0314e-13 993.022 6.42167e-14 -2857.49)
(45313.1 132208 -2.24225e-15 8457.15 1.95442e-14 13341.5)
(-2.45637e+06 5149.07 -3.43768e-15 -12692.5 -5.38267e-15 -612625)
(1.92332e+06 -86706.1 4.61516e-15 -88073.4 8.1483e-15 455362)
(-65622.5 20849.5 8.87894e-14 1879.61 3.29728e-14 -15815.9)
(-547351 96254.6 6.62353e-15 -5999.83 -5.49714e-14 -137298)
(439128 60866.6 -5.6013e-14 9225.03 8.20364e-14 111246)
(-387341 101238 4.59063e-14 -7412.47 -8.28781e-15 -97946.3)
(1.98956e+06 21341.5 -4.0408e-14 -15291.5 -1.40056e-14 489856)
(-53290.4 86293.6 4.36543e-14 906.554 -7.10403e-14 -12997.5)
(-431285 78733.4 -2.51908e-14 -2759.08 4.33051e-14 -107695)
(344959 79000.7 7.64603e-14 3372.46 -4.36146e-14 86428.1)
(1.84111e+06 12120.8 4.41575e-15 -854.386 -2.66695e-14 456604)
(-268155 33710.9 -1.24897e-13 2102.13 -1.50931e-13 -66013.2)
(-898551 20983 8.78384e-14 4628.37 2.9286e-14 -221800)
(-636165 24120.8 2.55717e-15 3950.07 -1.54238e-13 -156865)
(-68001.2 22385.1 0 -3521.26 0 -17746.2)
(-1.07104e+06 60572.5 -1.99411e-15 11054.9 6.56118e-14 -263004)
(-22874.6 83461.4 -2.50212e-14 82.2657 5.16538e-14 -5655.24)
(-53368.4 65295.3 -9.63913e-14 -3261.53 1.0783e-13 -14051)
(-46845.7 63877.2 6.76038e-14 -1640.73 -4.13743e-14 -12030.5)
(-1.61813e+06 350229 -5.78523e-15 200027 5.22442e-15 -351861)
(1.97293e+06 71106.1 -1.5674e-15 -6997.36 -1.60658e-14 487788)
(-361170 52542 -9.28677e-14 3527.75 -6.75417e-14 -88738.3)
(1.92903e+06 12950.4 -3.3953e-14 3957.08 3.02151e-14 479613)
(-260487 20613.5 8.21079e-14 -204.731 -2.69385e-13 -64682.9)
(-193081 43533.8 1.54419e-14 76.1692 -1.47346e-14 -47888.5)
(-182449 57304 1.57658e-13 2360.24 1.58083e-13 -44683.8)
(-2.4752e+06 -47716.5 1.2493e-14 10840 5.85764e-14 -611457)
(108409 55995.3 0 9050.8 0 29144.1)
(57723.3 67565.3 -1.639e-13 1836.6 -6.45733e-14 14778)
(40038.4 72109.7 5.6825e-14 1203.21 -4.47838e-16 10232.9)
(-85220.8 64361.8 3.88568e-14 -8783.38 1.09952e-13 -23324.4)
(-1.39584e+06 73044 -2.16495e-14 -7737.23 1.09179e-13 -348257)
(427082 52429.7 1.32252e-13 4443.23 -4.1131e-14 107070)
(-1.28646e+06 71042.8 0 -7306.39 0 -321009)
(-1.17904e+06 69622.6 -4.55157e-14 -6528.96 -4.66034e-14 -294163)
(633920 49620.1 6.0582e-14 5588.71 3.70278e-15 158675)
(-13384.1 81555.4 -2.13688e-13 -2986.81 -1.37037e-13 -4061.95)
(1.38634e+06 97660.9 0 -4411.28 0 342884)
(-114236 71417.1 -4.53363e-14 1872.85 -7.51598e-14 -27879.6)
(71637 16238 -2.61366e-14 4853.89 -3.79277e-14 18978.9)
(173578 72465.6 2.00486e-13 1348.71 3.5898e-15 43402.9)
(54531.1 -41121.5 -8.13401e-16 -115800 -6.02915e-16 -15202.2)
(-2891.12 11311.3 2.11842e-17 6793.26 -1.26007e-16 968.2)
(-55069.9 -40880.5 -5.14955e-16 115536 3.43029e-16 15002.9)
(-13409.9 82924 -6.64355e-14 159.984 -9.66185e-16 -3287.57)
(-731410 53956.6 -1.6288e-14 -2795.82 6.49476e-14 -182171)
(51095.5 38502.3 3.65117e-14 -83.8731 -1.02121e-13 12657)
(797231 60881.6 -7.89006e-14 -7352.58 -1.09131e-13 195985)
(-1.31466e+06 110907 5.27984e-15 -515.591 1.0747e-14 -326321)
(-430989 74749.6 -3.26173e-15 6794.28 1.02942e-14 -105251)
(-1768.57 88384 -1.02516e-14 -820.235 -5.10006e-14 -642.335)
(342498 100777 -2.11318e-14 2550.55 -3.65294e-14 85613.7)
(-163483 73581 -6.27411e-14 -693.086 1.38313e-13 -40735.5)
(-114544 76893 -2.12623e-13 -793.214 -1.02529e-13 -28617.4)
(1.96048e+06 20513.5 1.19228e-14 4980.04 2.48282e-14 487671)
(1.29723e+06 60492.8 1.94514e-14 4601.01 3.95598e-15 323011)
(1.40785e+06 61768.5 3.72697e-14 5373.51 5.18702e-14 350649)
(1.18932e+06 59610.3 1.36473e-13 4278.37 8.08571e-14 296155)
(-432308 54070.9 6.19666e-14 -4060.94 9.6763e-14 -108272)
(-641262 53014.7 -1.63877e-13 -4615.88 5.89099e-14 -160255)
(232325 66152 6.98529e-14 132.904 -3.66124e-14 57677.5)
(1.76526e+06 35334.1 1.79528e-14 -188.614 1.05826e-14 437950)
(248729 31386.8 -5.1064e-14 -3049.5 -2.0075e-13 60958)
(-78736.6 77017 -1.77088e-13 912.912 1.65561e-13 -19309.6)
(1.6533e+06 76294.5 -2.05701e-14 1038.18 2.56251e-14 410476)
(-141817 106215 -5.73186e-14 -64.2088 -1.54245e-14 -35203.6)
(-220688 43851.4 -3.93227e-14 3382.48 -1.65537e-14 -53917.9)
(68960.8 94068.1 1.26741e-13 -2731.55 -1.8142e-13 16432.8)
(98490.8 100150 -8.83e-14 -1938.39 6.07262e-14 23956.6)
(-70398.5 77290.1 -2.57025e-14 3622.09 -3.79151e-14 -16568.6)
(-120393 67611.7 -1.61252e-13 -1106.42 -1.25815e-13 -30146.5)
(-2925.12 81608.5 -1.54985e-13 -2486.47 -1.16605e-13 -1342.73)
(-37147.1 80931.7 -9.29147e-14 -996.918 1.02068e-13 -9464.31)
(-8260.69 82868.6 -6.07417e-14 -2174.24 -5.78813e-14 -2589.12)
(9314.5 56492.4 2.88682e-15 39618.2 1.29306e-13 12141.2)
(-37689.6 6218.72 -4.24683e-16 -8702.52 6.14514e-14 -11510.8)
(-2.07636e+06 -334910 1.86542e-14 85852.9 -9.41875e-15 -493885)
(-1.49957e+06 73848.7 1.34679e-14 -11469.7 -2.05329e-15 -374920)
(466462 47912.5 6.99726e-14 3790.32 -6.82372e-14 116679)
(-1.39178e+06 75702.6 -5.3881e-14 931.866 3.38296e-14 -345097)
(676690 43952.5 -3.1506e-14 4419.95 9.54362e-14 168997)
(-1.28004e+06 72765.8 2.05607e-14 1135.97 2.06568e-14 -317323)
(-1.17144e+06 70745 -1.18629e-13 1582.62 9.06328e-14 -290265)
(388263 67418.9 6.8538e-14 -4654.98 1.90967e-13 95181)
(-1.19019e+06 29917.2 7.36099e-14 8158.91 -1.01167e-13 -293285)
(567081 70621.8 8.50185e-14 -5626.59 -6.76888e-14 139308)
(-1.09541e+06 30856.3 6.09893e-14 7162 -1.04989e-13 -270017)
(-1.00296e+06 32645.9 -6.32364e-14 7050.84 -5.69277e-14 -247106)
(-560333 91760.6 4.72729e-15 17049.6 4.74774e-14 -134800)
(171417 77424.6 -3.42197e-14 -5976.69 -2.27862e-13 41049)
(245190 75082.8 -5.46786e-14 -7731.18 -1.5795e-13 58918.4)
(-358069 73289 -1.64467e-14 11412.8 9.47204e-14 -86012.5)
(1.44668e+06 46622.8 -1.0421e-13 1911.77 -3.51537e-14 359424)
(-1.49237e+06 -19430.5 1.00194e-13 -11918.8 3.09714e-14 -373244)
(839395 44690.1 7.0522e-14 -2784.68 -6.56805e-14 207580)
(-427445 44665.9 1.5699e-15 7629.85 9.31879e-15 -104165)
(-195918 73832.2 -8.87313e-14 2265.91 -7.33099e-14 -48048.9)
(-205313 61249.4 7.59358e-14 -2622.13 -6.86921e-14 -51592.9)
(21730 82261 5.77251e-14 1516.32 1.05424e-13 5767.88)
(-291596 53502.1 -1.29816e-13 -694.852 1.34606e-13 -72523.3)
(250718 64440.4 -6.80456e-14 -4580.8 -7.18893e-14 61071.7)
(170005 73399.4 -6.23705e-14 2591.56 4.80691e-14 42824.8)
(-542603 60316.5 1.0556e-13 7784.23 -7.10505e-14 -132699)
(-759791 66804 3.83508e-14 3226.67 8.39203e-14 -187719)
(1.5395e+06 20519.9 2.36419e-14 1814.11 -3.14099e-16 382431)
(-7065.54 86451.8 3.03031e-14 -591.547 -1.47377e-13 -1899.88)
(2.23125e+06 81419.4 -2.75262e-14 -13668.7 -1.49982e-14 550227)
(-240063 66310.6 -1.12131e-13 1068.59 7.72563e-14 -59299.4)
(1.94154e+06 52235.1 0 -19937.4 0 476788)
(-555693 67175.8 3.29486e-14 -5485.08 1.3755e-13 -139240)
(-606610 67221.8 -3.37809e-14 -6295.26 4.00665e-14 -152074)
(-657464 68502.4 -5.4682e-15 -6497.42 1.44851e-13 -164742)
(306140 74422.8 -8.3101e-14 996.65 2.04367e-14 76206.8)
(208051 76198.6 -8.8676e-14 481.513 2.18906e-14 51741.3)
(-2.42754e+06 -19606.6 2.18227e-14 -9215.01 -1.24453e-14 -604610)
(-1.5112e+06 72351.5 -2.24725e-14 -8799.77 4.23625e-14 -377144)
(531271 51631.5 -8.85099e-14 5014.82 -5.1795e-14 133063)
(737897 48454.6 2.48548e-13 5746.1 -1.33574e-13 184513)
(82715.9 82623.3 4.8665e-14 -8156.42 -1.25808e-13 18499.7)
(-433227 37743.9 0 1702.57 0 -107070)
(-438909 20923.3 1.33105e-13 -2600.41 -6.76604e-14 -109547)
(2.13098e+06 57541.2 3.57608e-14 -15069.2 2.38505e-14 524999)
(2.18116e+06 -13459.7 2.96438e-14 13594.3 2.61907e-14 544564)
(1.14714e+06 24653.8 1.81723e-15 -1089.83 6.26889e-14 284358)
(1.05286e+06 26725.5 1.28217e-14 -634.814 1.52241e-13 261078)
(1.24381e+06 22284.3 3.23844e-14 -2185.29 -4.68108e-14 308073)
(-541504 72445.2 -8.0278e-14 4592.65 7.22248e-14 -133219)
(-359545 68484.1 -7.78957e-14 3358.36 8.54276e-14 -88377.1)
(235915 96497.6 0 2003.94 0 59032.6)
(160884 93601.6 -3.23783e-15 792.452 1.23837e-13 40115.2)
(514345 72261.4 -9.53801e-14 -192.076 7.79821e-14 127572)
(-217138 68305.6 -7.62768e-14 2795.1 1.80828e-13 -53182.9)
(-338964 102610 -1.50975e-14 4168.02 6.67344e-14 -83069.6)
(104878 75204.2 -2.83772e-13 -866.866 -7.52947e-14 25807.4)
(149417 71516.8 -1.96232e-13 -985.704 8.20977e-14 36828.8)
(-91821.5 86027.9 -3.82643e-14 2182.94 -5.35115e-16 -22241.1)
(-257622 56839.2 -3.16228e-14 5675.05 -1.97429e-14 -62513.1)
(-236896 57890.2 2.08987e-14 4914.16 -3.56792e-14 -57559.4)
(-239217 42624.6 0 -488.727 0 -59475.8)
(-114584 106198 4.33193e-16 -5259.03 -4.14072e-14 -29735.4)
(-1.10165e+06 3299.35 9.29454e-14 -7079.61 -4.0698e-14 -275098)
(1.38269e+06 55575.4 -1.20745e-13 -6190.35 -1.216e-14 341538)
(1.70081e+06 175609 7.17232e-15 -292107 3.62434e-15 349529)
(-40534.7 72467.4 2.53407e-14 -3517.94 -5.74337e-14 -10930.4)
(259666 25399.2 9.24728e-14 2255.9 -2.11107e-13 64988)
(-2.13027e+06 -265509 1.79233e-14 173495 -1.15894e-14 -485515)
(120844 57736.9 3.95733e-15 3826.81 1.07286e-13 30933.3)
(330914 40689.3 7.46524e-14 1139.54 -8.56954e-14 82389.3)
(365574 44567.5 1.04238e-13 -5350.46 -4.39774e-14 89378.7)
(-4662.77 85400.5 7.85175e-14 -89.4425 -1.16438e-14 -1179.12)
(-5313.61 88306 8.28229e-14 -635.761 7.00325e-15 -1476.16)
(1.00093e+06 33380.1 2.64555e-14 -5279.78 8.79915e-14 247040)
(829651 92462.9 3.36255e-14 7035.97 -8.10806e-15 207599)
(-754695 76660.5 0 7277.45 0 -185450)
(-645188 41222.5 -8.5585e-14 -10109.1 -5.35312e-14 -162592)
(2.0708e+06 -338321 -7.52142e-15 -88016 -5.08043e-15 491969)
(-635326 118603 -6.84788e-15 17525.8 7.9824e-14 -153289)
(-1.01626e+06 40109.2 4.70999e-14 -2467.44 -2.7761e-14 -252767)
(-2.15922e+06 -869469 -2.02383e-14 453312 7.91479e-15 -423271)
(2.58595e+06 2176.35 0 35331.5 0 650393)
(-1.89094e+06 -805299 -6.58597e-15 213926 2.0375e-15 -416102)
(331465 118219 -4.4879e-14 -59.991 1.58236e-14 82228.2)
(-74297.3 69455.4 -8.00886e-15 -1161.92 1.11977e-13 -18723)
(-976307 86727.8 3.98392e-14 -8214.4 -4.3813e-14 -244280)
(-893006 86554.8 5.93763e-14 -7227.35 -7.41304e-15 -223366)
(-818802 84430.7 -6.77419e-14 -6517.23 2.63107e-15 -204778)
(291184 60809.5 5.94075e-14 3939.15 -1.65739e-13 73226)
(437087 57841.3 -1.49097e-13 4946.6 1.44938e-13 109678)
(43180.2 74540.9 -2.34423e-14 -7793.18 1.10012e-13 8780.24)
(61558 69971.4 5.5488e-14 -10475.9 7.10772e-14 12674.5)
(-140717 112175 -6.31763e-14 22884.9 1.70928e-14 -29236.4)
(-89434.6 65326.6 4.71822e-14 15525.1 -6.0343e-14 -18338.5)
(-1.18398e+06 -476540 -5.1018e-15 -29312.9 1.06601e-15 -301044)
(220801 113108 -3.5895e-14 16805.3 -1.27191e-13 58955)
(-109656 67088.2 -1.23901e-13 -8778.16 -5.66352e-14 -29386)
(-514983 106059 0 167.571 0 -127736)
(220526 62476.2 9.51706e-14 1439.45 -3.88473e-14 55074)
(-108507 91243.9 0 -505.994 0 -27048.2)
(-81274.8 73090.3 -6.03016e-14 -800.68 -9.55059e-14 -20364.6)
(768935 75820.2 8.43748e-14 4465.02 -8.82375e-14 191896)
(789980 47707.1 1.29171e-13 -47.8711 6.16889e-14 195998)
(2.15631e+06 -868346 -7.57147e-15 -453607 -2.50461e-15 422475)
(1.18216e+06 -476270 8.8456e-15 29101.5 2.4264e-15 300539)
(-240262 53249.7 1.83822e-14 1846.05 2.61568e-14 -59155.9)
(-256502 54235.1 -5.58453e-14 -2855.12 -1.14186e-13 -64351.7)
(-1.36973e+06 763.846 -6.14129e-14 -5355.98 -1.40714e-14 -341187)
(1.11048e+06 51709.1 1.39102e-13 -3951.23 -3.63387e-14 274553)
(359610 69301 4.61238e-15 -2931.2 2.52941e-13 88499.2)
(540841 74252.7 8.5933e-14 -3718.74 9.3425e-14 133271)
(-1.24544e+06 22788 -2.25668e-15 -1128.72 5.33084e-14 -309299)
(-1.15096e+06 26472.4 -5.42224e-14 -822.166 1.79292e-14 -285780)
(-1.05596e+06 28806.8 -3.62382e-15 -913.422 8.42286e-14 -262231)
(-16102.2 87674.9 -1.30724e-13 -928.256 3.7807e-14 -4225.6)
(-1.35046e+06 24694.6 3.52187e-14 -2161.76 3.78723e-14 -335614)
(451642 69563.9 -8.80732e-14 -2998.69 4.32009e-14 111317)
(633438 73211.6 0 -3557.62 0 156286)
(597652 55119.1 3.35519e-14 -4419.95 8.00492e-14 147193)
(115272 73038.2 -1.10475e-13 917.945 -2.92016e-13 28829.1)
(9884.2 75551 -9.6809e-14 -8833.12 -3.55997e-14 260.795)
(490143 40476.2 -1.22733e-13 15379.9 2.19878e-14 125431)
(-415905 57236.1 -1.05161e-14 -1189.45 -8.51056e-14 -103490)
(65840.3 77688.2 1.4303e-15 -15552.2 1.78429e-14 12477.5)
(1.88768e+06 -804893 -6.85152e-15 -214847 -1.72436e-15 415064)
(295844 80363.7 8.72378e-15 -2630.1 -1.61584e-13 72752.2)
(356571 78253.1 7.52304e-14 242.557 2.5584e-14 88532.6)
(-234114 77442.5 0 -327.334 0 -58169.7)
(-278083 87062.5 2.80853e-14 -7059.5 -7.81528e-14 -70749.7)
(821222 84111 0 7683.04 0 205668)
(895605 86504.6 4.96321e-14 8206.99 4.70851e-14 224254)
(969973 90174.7 -1.11074e-13 8516.69 -1.0734e-14 242783)
(-437399 54891.4 1.57381e-13 -5741.91 1.59853e-13 -109952)
(-294679 59596.9 8.27193e-15 -4199.83 -9.56805e-14 -74158)
(-15935.1 83710.7 9.31161e-14 -225.951 4.95694e-14 -4009.89)
(1.94311e+06 12964 -1.44041e-14 -30695.2 -2.63271e-14 474509)
(-12257.9 97497.5 -1.00593e-13 -5995.81 3.13382e-14 -4529.12)
(25102.5 49010.2 -9.6025e-14 11786.8 -5.9756e-14 9153)
(43299.9 79520.5 7.23536e-14 1252.53 -1.67893e-13 11054.4)
(464975 79528 7.70008e-14 296.947 8.13505e-14 115443)
(-182521 4837.46 -1.28066e-13 -3151.44 6.27535e-15 -46069)
(614625 88789.3 0 -3794.39 0 151559)
(2.04329e+06 -87003.7 3.31697e-16 -285451 1.33323e-16 436156)
(463335 21720.5 7.3933e-14 6806.48 1.68102e-13 116652)
(445232 34166.2 3.3507e-14 -6558.51 1.82566e-14 108844)
(-668979 75758.4 1.10084e-14 6199.03 2.32423e-14 -164449)
(-475812 71105.4 -8.5806e-14 5119.97 2.7483e-14 -116788)
(-570032 46967.4 -1.75402e-13 -2508.59 -3.06792e-14 -142059)
(-408612 51805 8.85632e-15 -2892.84 -9.31107e-15 -102103)
(1.41594e+06 20468.3 -6.12446e-15 -3743.57 2.01583e-14 350394)
(1.17245e+06 95946.2 2.52877e-15 -385.925 -4.16888e-14 290812)
(337538 87458.7 1.55263e-14 -3996.38 9.18224e-15 82758.6)
(454045 72473.7 2.9148e-14 -141.732 4.95751e-14 112623)
(248774 86606.5 8.11024e-14 -4310.41 5.77784e-14 60656.4)
(333605 72849.3 7.27254e-14 -1791.08 -1.15093e-14 82329.8)
(-640721 51512.2 -1.33827e-14 6478.67 3.35709e-14 -157368)
(-842875 81063.8 -3.71166e-14 2220.96 6.6708e-15 -208583)
(-192905 127874 4.11998e-14 -740.319 2.94039e-14 -48047.4)
(1.38891e+06 57411.8 4.60093e-14 5457.1 3.30086e-14 345970)
(1.50602e+06 57223.2 -9.96714e-15 24386 4.95134e-15 379725)
(1.78619e+06 58381.6 8.0937e-15 -2220.02 5.09825e-15 442640)
(124455 81577.5 -1.5784e-13 -5.41221 1.91635e-13 30878.6)
(-457248 22805.6 -9.77968e-14 -6084.04 -5.02763e-14 -114962)
(-442205 37041.8 -1.24096e-13 4302.27 8.29923e-14 -108652)
(2.08736e+06 -8381.65 0 13543.6 0 521277)
(2.09298e+06 64675.5 0 1569.33 0 519701)
(1.24872e+06 50520.3 1.91481e-14 -1851.51 9.1183e-14 309373)
(1.23833e+06 8292.15 6.11469e-14 5147.46 -1.71788e-13 308531)
(-1.28686e+06 10890.3 0 -9769.82 0 -321721)
(-1.2548e+06 50764.4 0 8530.14 0 -309225)
(36058 79273.2 -2.17503e-14 2541.89 6.22899e-14 9577.41)
(-88184.1 34071.1 2.32767e-13 -5158.28 -9.85091e-14 -23160.1)
(-339603 34591.5 -6.13755e-14 -3549.6 -2.26426e-14 -85143.2)
(2.73031e+06 3637.72 0 55328.6 0 691173)
(-48200.2 69588.7 -1.53497e-13 -1683.82 -3.8301e-15 -12377.2)
(-57085.4 72386.2 -2.21086e-14 -4909.27 -1.22946e-13 -15382.1)
(300139 94300.7 -7.91555e-14 -6770.97 -5.42401e-14 72790.5)
(-236934 92605.4 -1.64914e-13 -6994.36 6.90508e-14 -60523.7)
(287205 56470.9 4.78774e-14 -7894.83 -4.95119e-14 69302.5)
(-1.09924e+06 47874.4 3.39413e-14 -9951.8 -6.90961e-14 -275214)
(1.1078e+06 52468.2 -1.40936e-14 -11219 -8.44888e-14 272085)
(-1.86305e+06 79316.1 1.46243e-14 -11537.4 -6.24953e-14 -465123)
(-2.20584e+06 -200537 7.72921e-15 409068 -5.55632e-15 -445816)
(770863 103076 -1.23081e-14 -16149.6 1.5286e-14 187260)
(87533.4 102025 -8.18472e-15 -4722.29 4.6067e-14 20547.1)
(-1.03736e+06 83731.2 -4.09967e-14 -4897.82 -1.14852e-13 -258604)
(872183 27655.7 -5.33786e-14 10886.7 7.69767e-14 219108)
(-604108 51039.5 5.88687e-14 -10516.4 7.54906e-14 -152501)
(471613 82458.8 8.84542e-14 5780.62 1.54929e-15 118451)
(88023.6 89792.4 2.46832e-14 5075.74 1.15489e-15 23099.8)
(151102 69295 -1.04388e-13 -945.226 1.31079e-13 37256.9)
(-299917 59581.9 7.15791e-14 -19105.1 -7.60138e-14 -79155.8)
(-485340 119508 1.17103e-15 8233.25 9.57292e-14 -118380)
(-275321 60503.8 1.10393e-14 -17700.3 -7.69048e-14 -72704.6)
(-445345 115487 6.98419e-14 7445.56 -2.55206e-14 -108652)
(110295 49268.2 -4.38057e-14 -3292.48 1.36074e-14 26549.6)
(-52134.6 98862 -1.16152e-15 2627.81 -8.6168e-14 -12283.6)
(-34079 97092.9 1.06908e-13 2531.95 8.57366e-14 -7827.46)
(-22871.5 86544.4 5.50304e-14 770.589 -1.19805e-13 -5483.69)
(1.47992e+06 40477.4 3.15919e-14 3995.72 4.89768e-15 368191)
(-15359.2 99188.9 -1.2089e-13 -7044.81 -5.37274e-14 -5558.89)
(-58566.1 71893.5 5.97488e-14 -4821.24 -2.00038e-13 -15727.7)
(2.06036e+06 -60846.2 -1.56661e-14 -106474 -1.14276e-14 484799)
(343549 58529.1 6.36755e-14 -5287.26 -8.16762e-14 83929.5)
(-795315 102537 4.25044e-14 14374.2 1.14741e-14 -193767)
(-913334 65506 -6.95022e-14 1965.33 -3.04095e-14 -226129)
(-906854 29464.1 0 -10843.1 0 -227699)
(1.14113e+06 17156.7 -6.2571e-14 5734.15 -2.97504e-14 284559)
(1.09301e+06 74223.6 3.81528e-15 9579.84 7.4519e-14 273576)
(-35072.2 59732 -7.06755e-14 1020.07 5.76015e-14 -8449.04)
(-26700.3 60178.9 5.12715e-14 1659.8 -2.86647e-13 -6213.06)
(-711802 109810 -2.80629e-14 8066.04 -6.87999e-16 -174611)
(-958659 77767.9 0 11979.7 0 -234890)
(676687 48200.1 1.53589e-14 7416.69 3.77681e-14 169740)
(-1.74909e+06 97830.4 6.71654e-15 -8058.2 -2.12284e-14 -435984)
(61610.7 68574.6 0 15482.9 0 19128.5)
(967167 41431.1 -3.33148e-15 -2533.37 2.30834e-14 239345)
(733589 106572 -1.79998e-15 6632.97 8.75609e-17 183664)
(-462876 87279.3 1.31395e-13 4783.03 -1.68959e-14 -113662)
(-359443 59181.3 -1.28371e-14 -2859.18 9.25719e-14 -89894.6)
(-330078 83191.3 2.03307e-14 3763 -7.72558e-14 -80965.3)
(-258608 63237.5 -1.14917e-15 -2721.69 4.53879e-15 -64841.1)
(-368435 39809.8 4.75352e-14 345.098 7.01942e-14 -91330.6)
(-310656 45332.8 -8.315e-14 3249.47 1.67317e-14 -76273.8)
(-379324 105894 0 1158.29 0 -93830.7)
(-426084 107283 -4.18558e-14 -827.48 3.63589e-14 -105925)
(-463565 110830 -3.41632e-15 -857.266 -3.89455e-15 -115233)
(126531 68744.6 -2.04664e-13 1337.76 -1.02306e-13 31726.8)
(-25289.8 82347.6 -4.54273e-14 -2379.17 9.04103e-14 -6865.24)
(914071 41112.5 -2.55868e-14 5690.54 7.28954e-14 228212)
(956952 56190.8 3.54342e-14 -6331.83 -6.88619e-14 235868)
(158238 72634.1 7.36449e-15 1038.95 -5.10154e-14 39519.9)
(231894 66155.6 0 2721.53 0 58212.9)
(-501903 106294 5.23596e-14 -3208.56 -5.75349e-14 -125328)
(444756 63615.1 -1.00091e-13 4794.18 -1.26511e-15 111542)
(485664 94862.5 -4.38138e-14 5596.44 -2.71119e-15 121892)
(-177979 79374.5 -8.41084e-14 -890.922 1.20525e-13 -44381.2)
(-151781 82992.2 4.90717e-14 -1912.78 2.87935e-15 -38134.4)
(-218023 87017.5 7.95075e-14 -863.059 2.82768e-14 -54310.2)
(-242070 74663 0 -2621.01 0 -60712.7)
(-1.0522e+06 43014.2 2.33205e-14 -80.4827 -3.55722e-14 -261093)
(487549 76676.9 -3.8512e-14 -846.399 -1.52236e-13 120761)
(346827 74467.1 -1.76411e-14 -1106.83 -2.52131e-15 85780.2)
(-114101 204804 -1.06702e-14 21792.8 -7.62496e-15 -22903.6)
(1.26368e+06 33954.2 -8.07723e-14 -9236.57 -4.83808e-14 311253)
(-1.47574e+06 9765.34 6.99069e-14 2265.44 4.18292e-14 -365599)
(-169441 189425 0 -7377.17 0 -43872.1)
(-174682 77110.1 2.94019e-14 2139.14 8.87415e-14 -42811.4)
(-147552 81432.9 -2.21153e-13 3772.9 -5.6093e-14 -35674.5)
(-254633 75904.1 9.5374e-14 1659.31 1.0668e-15 -62768)
(-219293 83367 0 3157.65 0 -53627.6)
(498084 61269.3 4.85596e-14 -4274.71 -7.81567e-14 122524)
(571806 86301.7 1.77334e-14 -3534.76 7.51502e-15 141000)
(464620 65261.6 -3.61295e-14 -8749.51 3.45835e-14 113111)
(541735 89048.5 3.85777e-14 -6197.92 1.06555e-13 132878)
(426078 65244 3.02709e-14 -7843.93 5.07779e-14 103772)
(496690 87236.4 -6.57604e-14 -5659.74 3.75728e-14 121835)
(391499 38694.2 3.00031e-14 -21.6036 1.13281e-13 97133.6)
(377763 22590.3 8.82222e-14 2444.64 1.88864e-13 94337.1)
(-748106 85185.8 -1.68136e-14 601.358 2.20757e-14 -185471)
(352881 81567 -9.13671e-14 -4490.37 -2.22149e-15 86442.7)
(-838879 61164 0 7012.57 0 -206403)
(1.45062e+06 90282.9 4.92104e-14 -12398.1 -3.09542e-14 356852)
(-734411 37803.2 9.20559e-14 2777.66 -1.5122e-13 -181533)
(-534943 43538.5 1.11182e-13 860.834 -7.47092e-14 -132517)
(-1.62936e+06 -770283 -6.26951e-15 259275 1.4031e-15 -339945)
(48426.1 77176.8 1.24209e-13 200.05 -3.2611e-14 12065.1)
(1.53898e+06 49611.9 -1.64466e-14 -3671.27 -8.34746e-16 380941)
(-750139 58730.9 -2.57605e-14 2733.71 -7.46893e-14 -185446)
(-539525 56792.5 1.61075e-13 2425.06 7.92535e-14 -133266)
(2.29105e+06 -17573.7 2.67227e-14 -5002.58 1.18957e-14 567214)
(-103327 68670.6 -1.78141e-14 -1560.77 7.14495e-14 -26024.7)
(1.58468e+06 12450.2 4.08931e-14 4628.93 -2.54064e-14 394340)
(-372540 59858.2 5.5735e-14 1554.37 -9.82393e-14 -92049.1)
(-1.30782e+06 89104.3 3.31533e-14 13387.1 -4.31957e-15 -321176)
(-1.22926e+06 56295.7 -2.02514e-14 -7388.96 -1.54016e-15 -306838)
(1.19109e+06 57852.9 -3.83377e-14 1856.09 2.50623e-14 295994)
(-152129 80504.5 -2.43155e-13 6150.06 -1.10659e-13 -36220.4)
(-3566.28 -41367.2 2.55161e-16 -64844 9.06754e-17 -16974)
(-18629.7 73354.7 0 3055.82 0 -3864.2)
(-2.16243e+06 -691076 1.02973e-14 272285 -2.84069e-15 -468984)
(1.6259e+06 -769874 1.21923e-14 -261732 3.83914e-15 338477)
(-1.04603e+06 93058.4 4.28747e-14 -8714.69 -4.15702e-14 -261703)
(363554 57602.1 1.86188e-14 3381.61 7.18467e-14 91044.1)
(504988 52840 -5.98627e-14 4476.53 1.36259e-13 126409)
(145689 75817.6 1.19921e-13 -1320.62 3.57072e-14 35820.6)
(-272245 15130.2 6.94996e-14 86.9619 -1.0686e-13 -67527.9)
(245272 99009.4 -5.77466e-14 -1568.09 5.28373e-14 60467.9)
(-124405 60012.4 1.70595e-14 814.874 2.61524e-14 -30665.2)
(-112536 108143 1.22035e-14 4520.42 3.53835e-14 -26800.9)
(-1.77482e+06 1729.45 -5.65245e-15 48003.4 1.34017e-14 -428458)
(14498.5 -24618.6 6.69645e-17 -42982.5 4.15598e-17 -7067.47)
(-617249 98446.8 -2.56695e-16 7684.71 4.83137e-15 -151245)
(485860 54440.9 4.3322e-14 -3097.58 1.34187e-13 119783)
(1.84061e+06 -356491 1.08289e-15 -48606.6 1.40275e-15 444632)
(-55172.8 59549.6 -1.11284e-14 -9473.61 -8.64998e-14 -16040.1)
(-61864.9 101353 8.82905e-15 -4222.67 8.44483e-14 -16397.7)
(-35144 88316.8 -1.51086e-15 286.197 -1.2932e-13 -8648.92)
(-91072.1 74907.8 -2.3882e-14 3525.14 3.25372e-14 -21722.2)
(41244.4 87090.9 3.8688e-14 -1529.05 9.99639e-14 9854.17)
(27185.1 89200.6 -9.09328e-14 -284.635 -2.96826e-14 6674.55)
(-1.84478e+06 -354376 4.61146e-15 46919.1 -1.42604e-15 -446085)
(650463 91780.4 -3.52672e-14 2371.2 1.90753e-14 161981)
(-228211 74559.4 -2.43423e-13 -584.588 -6.9055e-14 -56768.9)
(768244 78299 1.26542e-13 5365.05 -2.14196e-13 191948)
(705494 77096.1 -1.57717e-15 4738.89 -8.21814e-14 176223)
(645857 74610.3 -2.35154e-13 2582.61 3.54737e-14 160891)
(111695 43033.2 -1.18957e-13 4011.87 -4.44989e-14 28709.1)
(-1.50766e+06 31183.2 6.36178e-14 -3908.81 -6.1716e-14 -375050)
(476964 59520.7 1.28989e-13 -2700.78 1.39161e-14 117674)
(677172 61668 -5.83981e-14 -2671.25 -8.35053e-14 167357)
(-129770 74188.1 -2.06164e-13 -353 -3.47549e-14 -32286.2)
(961758 100438 1.34318e-14 -12686.7 1.93837e-14 235484)
(185140 57403.4 -8.34201e-14 194.687 5.6499e-14 45985.3)
(-1.925e+06 22675.5 -2.15007e-14 -2526.02 -7.94913e-15 -478258)
(56102.6 76030.6 -1.0758e-13 1852.23 -9.04948e-14 14379.8)
(-163138 81266.1 -2.13914e-13 1506.57 1.01e-13 -40104.1)
(551797 61812.9 1.60835e-13 1211.44 -2.31446e-14 137213)
(506651 62101.1 1.50375e-13 806.478 3.65881e-14 125911)
(463387 60579.9 -1.09067e-13 -1111.08 3.0044e-14 114700)
(1.00233e+06 44878.4 1.6156e-14 72.0437 3.39028e-14 248717)
(220907 81211.9 -7.21928e-14 3186.54 -1.54686e-13 55602.2)
(-553807 66704.6 4.90349e-14 -8577.21 1.09586e-15 -139539)
(-432491 121426 2.98684e-14 3960.28 3.32906e-14 -106327)
(-243022 49779.6 0 1808.55 0 -59849.8)
(-770399 90258.4 -6.61335e-14 -8796.54 2.01305e-14 -193334)
(-841279 92658.7 -9.94348e-14 -9751.61 -6.5677e-15 -211158)
(-914289 96243.3 -9.92083e-14 -11020.8 4.7784e-14 -229588)
(436370 60661.1 2.0479e-15 7078.72 2.53995e-14 110029)
(298192 65783.7 3.21584e-14 5033.38 -4.02559e-14 75236.3)
(77370.1 7157.56 -9.34921e-14 3905.08 3.37228e-14 20166)
(153694 63315.3 0 -1800.45 0 37688)
(197438 51087.1 -1.09479e-13 1714.74 6.53366e-14 49413.9)
(2.22839e+06 -109014 -5.7898e-15 -292890 -2.79141e-15 480237)
(854195 42126.4 1.07636e-13 1241.16 -1.10451e-13 212251)
(-656028 82133.6 0 1245.03 0 -162465)
(-459219 74300.7 -5.33498e-14 9002.4 -2.34271e-15 -111708)
(369103 78467.1 2.84996e-14 -3712.53 -3.52428e-14 90660.7)
(-117683 92803.1 4.7622e-14 -2628.84 3.90651e-14 -29851.8)
(-14719.7 90054 1.40451e-13 -2951.52 -1.10655e-13 -4384.59)
(38844.2 64206.8 1.11831e-13 9600.3 -1.76923e-14 12020.1)
(42471.9 63709.7 -5.84826e-14 10511.3 -5.44487e-14 13146.2)
(-4520.57 114454 -2.92939e-15 -3031.6 -2.39976e-14 -1873.85)
(-10266.4 59578.3 -2.61821e-14 -965.59 8.80391e-14 -2786.88)
(377.439 69282.3 -9.81095e-14 -254.028 7.31009e-14 30.6207)
(13254.7 72625.4 9.37471e-14 -14076.4 -4.25807e-14 -203.869)
(163461 50494.4 -7.23039e-15 2449.26 -3.40368e-14 41165.6)
(-301595 115757 -1.69926e-15 2044.14 -1.64085e-14 -74324.7)
(97015.5 72719.7 2.35134e-13 1307.3 -4.62596e-14 24395.9)
(14501 112220 9.75405e-15 -17889.8 1.38954e-14 -840.85)
(-638902 113797 -2.43578e-14 -2988.28 -1.46203e-14 -159266)
(814330 52050.8 8.06938e-14 3827.07 7.19628e-14 203001)
(-349978 83630.2 -9.04792e-14 -370.041 2.95927e-14 -86928.5)
(-1.47574e+06 265410 -4.21282e-15 260550 2.5211e-15 -301513)
(-216884 47710.6 6.44472e-14 -2026.3 6.9975e-14 -54316.1)
(-355615 115147 0 3374.45 0 -87397.9)
(105319 73033.8 1.25479e-13 129.055 -1.73303e-13 26163.8)
(163743 66385.8 6.63541e-15 -365.272 2.15419e-14 40537.3)
(1.62224e+06 -358695 -1.30559e-15 51995.5 2.28178e-16 415412)
(-2.24481e+06 9381.26 -1.79657e-14 13256.6 8.25682e-15 -553694)
(702368 59686.2 3.95886e-14 4505.41 3.32571e-14 175390)
(765242 59407 -4.01017e-14 4797.61 8.73328e-14 191062)
(-232010 80552 -2.97726e-13 1265.22 -1.06289e-13 -57252.5)
(162723 101861 5.23464e-14 10800.7 1.03151e-13 43054.7)
(-35756.5 69646.7 8.37645e-14 -3075.9 1.27449e-13 -9635.09)
(-919389 -597292 -1.11676e-15 69327 4.70183e-16 -210918)
(-2.18687e+06 73856.5 5.88477e-15 1844.11 7.60257e-15 -542150)
(1.93966e+06 36548.1 3.19697e-14 3356.4 -1.57497e-14 482102)
(-2.80665e+06 -48571.8 -8.29039e-15 -7464.34 -3.57035e-15 -698238)
(902017 54014.1 -3.62512e-14 -6484.26 -5.63364e-14 222200)