/*--------------------------------*- C++ -*----------------------------------*\
| =========                 |                                                 |
| \\      /  F ield         | OpenFOAM: The Open Source CFD Toolbox           |
|  \\    /   O peration     | Version:  2.3.1                                 |
|   \\  /    A nd           | Web:      www.OpenFOAM.org                      |
|    \\/     M anipulation  |                                                 |
\*---------------------------------------------------------------------------*/
FoamFile
{
    version     2.0;
    format      ascii;
    class       volScalarField;
    location    "0.46";
    object      k;
}
// * * * * * * * * * * * * * * * * * * * * * * * * * * * * * * * * * * * * * //

dimensions      [0 2 -2 0 0 0 0];

internalField   nonuniform List<scalar> 
1000
(
0.00262931
0.00268475
0.00268549
0.00268539
0.00268535
0.00268534
0.00268532
0.00268532
0.00268524
0.00268027
0.00268569
0.00269068
0.00269088
0.00269084
0.00269081
0.0026908
0.00269078
0.00269077
0.00269047
0.00268118
0.00268757
0.00269215
0.00269241
0.00269238
0.00269236
0.00269233
0.00269231
0.0026923
0.00269197
0.0026823
0.00268882
0.00269378
0.00269411
0.0026941
0.00269409
0.00269407
0.00269404
0.00269403
0.00269369
0.00268383
0.00269079
0.00269642
0.00269683
0.0026969
0.00269691
0.00269688
0.00269688
0.00269681
0.00269649
0.00268605
0.00268437
0.00268966
0.00269016
0.00269026
0.0026903
0.00269032
0.00269032
0.00269032
0.00269005
0.00268131
0.00269043
0.00291777
0.00292943
0.00292995
0.00293
0.00293001
0.00293002
0.00292983
0.00292086
0.00268767
0.00269185
0.00293046
0.00294276
0.00294325
0.00294327
0.00294326
0.00294326
0.00294305
0.00293346
0.00268908
0.00269322
0.00293139
0.00294366
0.00294414
0.00294416
0.00294415
0.00294414
0.00294394
0.00293432
0.00269052
0.00269516
0.0029323
0.00294459
0.0029451
0.00294511
0.00294511
0.00294511
0.00294488
0.00293525
0.00269257
0.00268651
0.00269084
0.00269129
0.00269139
0.00269145
0.00269147
0.00269149
0.00269149
0.0026912
0.0026822
0.00269132
0.00292958
0.00294187
0.0029424
0.00294244
0.00294245
0.00294246
0.00294226
0.00293271
0.00268884
0.0026926
0.00294276
0.0029559
0.00295643
0.00295645
0.00295645
0.00295645
0.00295622
0.002946
0.00269014
0.0026939
0.00294363
0.00295677
0.00295729
0.00295731
0.0029573
0.0029573
0.00295707
0.00294682
0.00269142
0.00269561
0.00294416
0.0029573
0.00295783
0.00295785
0.00295784
0.00295784
0.00295759
0.00294735
0.00269317
0.0026874
0.00269158
0.00269196
0.00269204
0.00269208
0.00269211
0.00269213
0.00269213
0.00269184
0.00268282
0.00269194
0.00293054
0.00294277
0.00294327
0.00294331
0.00294332
0.00294333
0.00294312
0.00293354
0.00268941
0.00269306
0.00294341
0.00295654
0.00295707
0.00295709
0.00295709
0.00295709
0.00295686
0.00294662
0.00269062
0.00269423
0.00294423
0.00295738
0.0029579
0.00295792
0.00295792
0.00295792
0.00295768
0.00294742
0.00269176
0.00269576
0.00294462
0.00295775
0.00295828
0.00295829
0.00295829
0.00295828
0.00295804
0.00294778
0.00269327
0.00268787
0.00269199
0.00269233
0.00269238
0.00269242
0.00269244
0.00269246
0.00269246
0.00269217
0.00268314
0.00269231
0.002931
0.00294319
0.00294369
0.00294372
0.00294372
0.00294373
0.00294352
0.00293393
0.0026897
0.00269333
0.00294354
0.00295664
0.00295717
0.00295719
0.00295719
0.00295719
0.00295695
0.00294672
0.00269085
0.00269443
0.00294432
0.00295744
0.00295797
0.00295799
0.00295799
0.00295799
0.00295774
0.00294749
0.00269192
0.00269583
0.00294467
0.00295776
0.00295829
0.00295831
0.0029583
0.0029583
0.00295805
0.0029478
0.00269329
0.00268797
0.00269215
0.00269247
0.00269251
0.00269254
0.00269256
0.00269258
0.00269257
0.00269228
0.00268316
0.00269244
0.0029313
0.00294347
0.00294396
0.00294398
0.00294399
0.00294399
0.00294377
0.00293417
0.00268977
0.00269347
0.00294367
0.00295675
0.00295728
0.0029573
0.00295731
0.00295731
0.00295706
0.00294683
0.00269095
0.0026946
0.00294446
0.00295756
0.00295809
0.00295812
0.00295812
0.00295812
0.00295786
0.00294761
0.00269206
0.00269604
0.00294482
0.00295788
0.00295842
0.00295844
0.00295844
0.00295843
0.00295817
0.00294792
0.00269346
0.00268777
0.0026921
0.00269242
0.00269246
0.00269248
0.00269249
0.0026925
0.00269249
0.0026922
0.00268291
0.00269235
0.00293143
0.00294359
0.00294408
0.0029441
0.0029441
0.0029441
0.00294388
0.00293428
0.00268964
0.00269353
0.00294383
0.00295691
0.00295744
0.00295747
0.00295747
0.00295747
0.00295722
0.00294698
0.00269096
0.00269484
0.0029447
0.0029578
0.00295834
0.00295836
0.00295837
0.00295836
0.0029581
0.00294784
0.00269225
0.00269647
0.00294515
0.00295821
0.00295875
0.00295877
0.00295878
0.00295876
0.00295849
0.00294822
0.00269383
0.00268725
0.00269172
0.00269205
0.00269208
0.00269209
0.0026921
0.00269211
0.0026921
0.0026918
0.00268236
0.00269198
0.00293125
0.0029434
0.00294389
0.00294391
0.00294392
0.00294392
0.0029437
0.0029341
0.00268923
0.00269339
0.0029437
0.00295675
0.00295729
0.00295732
0.00295733
0.00295732
0.00295707
0.00294683
0.00269078
0.00269495
0.00294466
0.00295773
0.00295828
0.00295831
0.00295831
0.00295831
0.00295804
0.00294777
0.0026923
0.00269694
0.00294523
0.00295827
0.00295882
0.00295884
0.00295885
0.00295882
0.00295854
0.00294824
0.00269422
0.00268638
0.00269073
0.00269104
0.00269107
0.00269108
0.00269109
0.00269109
0.00269108
0.00269079
0.00268143
0.00269111
0.00292125
0.00293278
0.00293323
0.00293325
0.00293326
0.00293326
0.00293304
0.00292388
0.00268824
0.00269274
0.00293291
0.00294526
0.00294576
0.00294579
0.00294579
0.00294579
0.00294555
0.0029358
0.00268998
0.00269459
0.00293352
0.00294585
0.00294637
0.00294639
0.0029464
0.00294639
0.00294613
0.00293635
0.00269177
0.00269701
0.00293343
0.00294567
0.00294616
0.00294618
0.00294619
0.00294615
0.00294589
0.00293613
0.00269411
0.00268046
0.00268057
0.00268059
0.0026806
0.0026806
0.00268061
0.00268061
0.0026806
0.00268052
0.00267525
0.00268172
0.00268755
0.00268799
0.00268802
0.00268804
0.00268804
0.00268804
0.00268802
0.00268765
0.00267662
0.00268329
0.00268953
0.00269003
0.00269009
0.0026901
0.00269012
0.0026901
0.00269006
0.00268963
0.00267819
0.00268535
0.00269161
0.00269214
0.00269222
0.00269225
0.00269225
0.00269222
0.00269215
0.00269166
0.0026802
0.00268839
0.00269463
0.00269523
0.00269531
0.00269535
0.00269535
0.0026953
0.00269518
0.00269461
0.00268325
0.00269764
0.00270215
0.0027027
0.0027028
0.00270284
0.00270282
0.00270278
0.00270264
0.00270196
0.00269263
0.00270663
0.00271356
0.00271422
0.00271431
0.00271428
0.00271428
0.00271434
0.00271413
0.00271365
0.00270199
0.00275731
0.002818
0.00281859
0.00281684
0.00281621
0.00281624
0.0028167
0.00281851
0.00281951
0.00275467
0.00336658
0.00421436
0.00422183
0.00420007
0.00419242
0.00419186
0.00419845
0.00421896
0.00423279
0.00339328
0.00772958
0.0123214
0.0126481
0.0126585
0.0126578
0.0126554
0.0126498
0.0126332
0.0123918
0.00784925
0.00269913
0.00292996
0.00294177
0.00294224
0.00294224
0.00294223
0.00294223
0.00294192
0.00293249
0.00269623
0.00270307
0.00293546
0.00294801
0.00294864
0.00294866
0.00294867
0.00294863
0.00294825
0.00293818
0.00270034
0.00271334
0.00301336
0.00303418
0.00303717
0.00303792
0.00303794
0.00303725
0.00303475
0.00301733
0.00271104
0.00288922
0.00352447
0.003562
0.00356274
0.00356276
0.00356264
0.0035625
0.00356236
0.00353805
0.00289758
0.010067
0.0237872
0.0244504
0.0244064
0.024381
0.0243763
0.0243913
0.0244336
0.0240047
0.0103057
0.00269759
0.00294455
0.00295758
0.00295812
0.00295815
0.00295814
0.00295812
0.0029578
0.00294752
0.00269493
0.0026997
0.00294552
0.00295869
0.00295927
0.0029593
0.0029593
0.00295927
0.00295895
0.00294861
0.00269719
0.00270274
0.00296827
0.00298478
0.00298623
0.00298649
0.00298649
0.00298626
0.00298521
0.00297202
0.00270041
0.00282785
0.00355248
0.00360061
0.00360554
0.00360667
0.00360664
0.00360553
0.00360184
0.00356766
0.00283425
0.0104146
0.0243556
0.0249235
0.0249094
0.0248953
0.0248928
0.0249024
0.0249269
0.0245857
0.0106674
0.00269639
0.00294441
0.00295752
0.00295805
0.00295807
0.00295807
0.00295805
0.00295777
0.00294745
0.00269378
0.00269779
0.00294441
0.00295752
0.00295806
0.00295807
0.00295807
0.00295805
0.00295778
0.0029475
0.00269526
0.00269951
0.0029523
0.00296625
0.00296694
0.002967
0.00296699
0.00296695
0.00296657
0.00295573
0.0026971
0.00281728
0.00348977
0.00353094
0.00353411
0.00353472
0.00353472
0.00353414
0.00353222
0.00350463
0.00282318
0.0106308
0.0250599
0.0256457
0.0256545
0.0256486
0.0256475
0.0256521
0.0256601
0.0253089
0.0108979
0.00269565
0.00294395
0.00295707
0.0029576
0.00295762
0.00295761
0.0029576
0.00295734
0.00294704
0.00269308
0.00269689
0.00294385
0.00295695
0.00295747
0.00295749
0.00295748
0.00295747
0.00295722
0.00294696
0.00269436
0.00269849
0.00294991
0.00296349
0.00296406
0.00296408
0.00296408
0.00296407
0.0029638
0.00295328
0.00269605
0.00281528
0.00347156
0.00350965
0.00351201
0.0035124
0.00351241
0.00351208
0.00351093
0.00348625
0.00282107
0.0107217
0.0253525
0.0259518
0.0259723
0.0259711
0.0259708
0.0259726
0.0259717
0.0256102
0.0109951
0.00269543
0.0029438
0.00295697
0.0029575
0.00295751
0.0029575
0.00295749
0.00295725
0.00294693
0.00269289
0.00269682
0.00294386
0.00295703
0.00295757
0.00295758
0.00295758
0.00295757
0.00295732
0.00294703
0.00269431
0.00269883
0.00295048
0.00296423
0.00296485
0.00296489
0.00296489
0.00296487
0.00296458
0.00295388
0.00269635
0.00284154
0.00353244
0.00357798
0.00358376
0.00358553
0.0035856
0.00358409
0.00357984
0.00354877
0.00284892
0.010745
0.0253908
0.0259904
0.026014
0.0260143
0.0260143
0.0260154
0.0260126
0.0256517
0.0110219
0.00269558
0.00294395
0.00295718
0.00295773
0.00295775
0.00295774
0.00295773
0.00295748
0.00294714
0.00269312
0.00269743
0.00294437
0.00295771
0.0029583
0.00295832
0.00295832
0.0029583
0.00295805
0.00294758
0.00269491
0.0027003
0.00295476
0.00296937
0.00297023
0.00297037
0.00297036
0.00297027
0.0029697
0.0029583
0.00269783
0.00291268
0.00369681
0.00376384
0.00377857
0.00378364
0.00378383
0.00377936
0.00376698
0.00371661
0.00292389
0.0107346
0.0252507
0.0258368
0.025859
0.0258596
0.0258596
0.0258613
0.0258609
0.0255135
0.0110169
0.00269596
0.00294423
0.00295756
0.00295816
0.00295817
0.00295818
0.00295816
0.00295791
0.0029475
0.00269354
0.00269835
0.0029459
0.00295964
0.0029603
0.00296035
0.00296034
0.00296032
0.00295997
0.00294918
0.00269582
0.00270377
0.00297574
0.00299377
0.00299559
0.00299598
0.00299599
0.00299559
0.00299425
0.0029796
0.00270122
0.00304676
0.00390694
0.00401055
0.00404265
0.00405391
0.0040543
0.00404426
0.00401527
0.00392811
0.00306383
0.0106788
0.0247539
0.025307
0.0253281
0.0253293
0.0253293
0.0253316
0.0253349
0.0250127
0.010971
0.00269625
0.00293561
0.00294845
0.00294906
0.00294909
0.00294908
0.00294909
0.00294882
0.00293876
0.00269376
0.00269947
0.00294454
0.00295902
0.00295988
0.00296
0.00296
0.00295989
0.00295939
0.00294775
0.00269676
0.00271093
0.00303091
0.00305463
0.00305815
0.00305919
0.0030592
0.0030582
0.00305523
0.0030351
0.00270854
0.00300857
0.00360102
0.00367391
0.00368505
0.00368822
0.00368821
0.00368557
0.00367612
0.00361562
0.00301699
0.0102081
0.0222237
0.0227105
0.0227644
0.0227819
0.0227829
0.0227709
0.02274
0.022424
0.0104696
0.00268883
0.00269797
0.0026989
0.00269901
0.00269905
0.00269908
0.00269897
0.00269898
0.00269819
0.0026839
0.00269269
0.00270457
0.00270571
0.00270587
0.00270593
0.00270588
0.00270589
0.00270574
0.00270463
0.0026877
0.00271475
0.00273558
0.00273791
0.00273838
0.00273846
0.00273844
0.00273845
0.00273786
0.00273594
0.00271013
0.00279331
0.00289982
0.0029145
0.00291745
0.00291835
0.00291847
0.00291759
0.00291518
0.00290329
0.00279196
0.00686585
0.00956956
0.00970134
0.00972852
0.0097375
0.0097378
0.00973095
0.00970909
0.00961122
0.00694403
)
;

boundaryField
{
    walls
    {
        type            kqRWallFunction;
        value           nonuniform List<scalar> 
500
(
0.00262931
0.00262931
0.00262931
0.00268475
0.00268475
0.00268549
0.00268549
0.00268539
0.00268539
0.00268535
0.00268535
0.00268534
0.00268534
0.00268532
0.00268532
0.00268532
0.00268532
0.00268524
0.00268524
0.00268027
0.00268027
0.00268027
0.00268569
0.00268569
0.00269068
0.00269088
0.00269084
0.00269081
0.0026908
0.00269078
0.00269077
0.00269047
0.00268118
0.00268118
0.00268757
0.00268757
0.00269215
0.00269241
0.00269238
0.00269236
0.00269233
0.00269231
0.0026923
0.00269197
0.0026823
0.0026823
0.00268882
0.00268882
0.00269378
0.00269411
0.0026941
0.00269409
0.00269407
0.00269404
0.00269403
0.00269369
0.00268383
0.00268383
0.00269079
0.00269079
0.00269642
0.00269683
0.0026969
0.00269691
0.00269688
0.00269688
0.00269681
0.00269649
0.00268605
0.00268605
0.00268437
0.00268437
0.00268966
0.00269016
0.00269026
0.0026903
0.00269032
0.00269032
0.00269032
0.00269005
0.00268131
0.00268131
0.00269043
0.00268767
0.00269185
0.00268908
0.00269322
0.00269052
0.00269516
0.00269257
0.00268651
0.00268651
0.00269084
0.00269129
0.00269139
0.00269145
0.00269147
0.00269149
0.00269149
0.0026912
0.0026822
0.0026822
0.00269132
0.00268884
0.0026926
0.00269014
0.0026939
0.00269142
0.00269561
0.00269317
0.0026874
0.0026874
0.00269158
0.00269196
0.00269204
0.00269208
0.00269211
0.00269213
0.00269213
0.00269184
0.00268282
0.00268282
0.00269194
0.00268941
0.00269306
0.00269062
0.00269423
0.00269176
0.00269576
0.00269327
0.00268787
0.00268787
0.00269199
0.00269233
0.00269238
0.00269242
0.00269244
0.00269246
0.00269246
0.00269217
0.00268314
0.00268314
0.00269231
0.0026897
0.00269333
0.00269085
0.00269443
0.00269192
0.00269583
0.00269329
0.00268797
0.00268797
0.00269215
0.00269247
0.00269251
0.00269254
0.00269256
0.00269258
0.00269257
0.00269228
0.00268316
0.00268316
0.00269244
0.00268977
0.00269347
0.00269095
0.0026946
0.00269206
0.00269604
0.00269346
0.00268777
0.00268777
0.0026921
0.00269242
0.00269246
0.00269248
0.00269249
0.0026925
0.00269249
0.0026922
0.00268291
0.00268291
0.00269235
0.00268964
0.00269353
0.00269096
0.00269484
0.00269225
0.00269647
0.00269383
0.00268725
0.00268725
0.00269172
0.00269205
0.00269208
0.00269209
0.0026921
0.00269211
0.0026921
0.0026918
0.00268236
0.00268236
0.00269198
0.00268923
0.00269339
0.00269078
0.00269495
0.0026923
0.00269694
0.00269422
0.00268638
0.00268638
0.00269073
0.00269104
0.00269107
0.00269108
0.00269109
0.00269109
0.00269108
0.00269079
0.00268143
0.00268143
0.00269111
0.00268824
0.00269274
0.00268998
0.00269459
0.00269177
0.00269701
0.00269411
0.00268046
0.00268046
0.00268046
0.00268057
0.00268057
0.00268059
0.00268059
0.0026806
0.0026806
0.0026806
0.0026806
0.00268061
0.00268061
0.00268061
0.00268061
0.0026806
0.0026806
0.00268052
0.00268052
0.00267525
0.00267525
0.00267525
0.00268172
0.00268172
0.00268755
0.00268799
0.00268802
0.00268804
0.00268804
0.00268804
0.00268802
0.00268765
0.00267662
0.00267662
0.00268329
0.00268329
0.00268953
0.00269003
0.00269009
0.0026901
0.00269012
0.0026901
0.00269006
0.00268963
0.00267819
0.00267819
0.00268535
0.00268535
0.00269161
0.00269214
0.00269222
0.00269225
0.00269225
0.00269222
0.00269215
0.00269166
0.0026802
0.0026802
0.00268839
0.00268839
0.00269463
0.00269523
0.00269531
0.00269535
0.00269535
0.0026953
0.00269518
0.00269461
0.00268325
0.00268325
0.00269764
0.00269764
0.00270215
0.0027027
0.0027028
0.00270284
0.00270282
0.00270278
0.00270264
0.00270196
0.00269263
0.00269263
0.00270663
0.00270663
0.00271356
0.00271422
0.00271431
0.00271428
0.00271428
0.00271434
0.00271413
0.00271365
0.00270199
0.00270199
0.00275731
0.00275731
0.002818
0.00281859
0.00281684
0.00281621
0.00281624
0.0028167
0.00281851
0.00281951
0.00275467
0.00275467
0.00336658
0.00336658
0.00421436
0.00422183
0.00420007
0.00419242
0.00419186
0.00419845
0.00421896
0.00423279
0.00339328
0.00339328
0.00772958
0.00772958
0.0123214
0.0126481
0.0126585
0.0126578
0.0126554
0.0126498
0.0126332
0.0123918
0.00784925
0.00784925
0.00269913
0.00269623
0.00270307
0.00270034
0.00271334
0.00271104
0.00288922
0.00289758
0.010067
0.0103057
0.00269759
0.00269493
0.0026997
0.00269719
0.00270274
0.00270041
0.00282785
0.00283425
0.0104146
0.0106674
0.00269639
0.00269378
0.00269779
0.00269526
0.00269951
0.0026971
0.00281728
0.00282318
0.0106308
0.0108979
0.00269565
0.00269308
0.00269689
0.00269436
0.00269849
0.00269605
0.00281528
0.00282107
0.0107217
0.0109951
0.00269543
0.00269289
0.00269682
0.00269431
0.00269883
0.00269635
0.00284154
0.00284892
0.010745
0.0110219
0.00269558
0.00269312
0.00269743
0.00269491
0.0027003
0.00269783
0.00291268
0.00292389
0.0107346
0.0110169
0.00269596
0.00269354
0.00269835
0.00269582
0.00270377
0.00270122
0.00304676
0.00306383
0.0106788
0.010971
0.00269625
0.00269376
0.00269947
0.00269676
0.00271093
0.00270854
0.00300857
0.00301699
0.0102081
0.0104696
0.00268883
0.00268883
0.00269797
0.0026989
0.00269901
0.00269905
0.00269908
0.00269897
0.00269898
0.00269819
0.0026839
0.0026839
0.00269269
0.00269269
0.00270457
0.00270571
0.00270587
0.00270593
0.00270588
0.00270589
0.00270574
0.00270463
0.0026877
0.0026877
0.00271475
0.00271475
0.00273558
0.00273791
0.00273838
0.00273846
0.00273844
0.00273845
0.00273786
0.00273594
0.00271013
0.00271013
0.00279331
0.00279331
0.00289982
0.0029145
0.00291745
0.00291835
0.00291847
0.00291759
0.00291518
0.00290329
0.00279196
0.00279196
0.00686585
0.00686585
0.00956956
0.00970134
0.00972852
0.0097375
0.0097378
0.00973095
0.00970909
0.00961122
0.00694403
0.00694403
)
;
    }
    lid
    {
        type            kqRWallFunction;
        value           nonuniform List<scalar> 
100
(
0.00772958
0.0123214
0.0126481
0.0126585
0.0126578
0.0126554
0.0126498
0.0126332
0.0123918
0.00784925
0.010067
0.0237872
0.0244504
0.0244064
0.024381
0.0243763
0.0243913
0.0244336
0.0240047
0.0103057
0.0104146
0.0243556
0.0249235
0.0249094
0.0248953
0.0248928
0.0249024
0.0249269
0.0245857
0.0106674
0.0106308
0.0250599
0.0256457
0.0256545
0.0256486
0.0256475
0.0256521
0.0256601
0.0253089
0.0108979
0.0107217
0.0253525
0.0259518
0.0259723
0.0259711
0.0259708
0.0259726
0.0259717
0.0256102
0.0109951
0.010745
0.0253908
0.0259904
0.026014
0.0260143
0.0260143
0.0260154
0.0260126
0.0256517
0.0110219
0.0107346
0.0252507
0.0258368
0.025859
0.0258596
0.0258596
0.0258613
0.0258609
0.0255135
0.0110169
0.0106788
0.0247539
0.025307
0.0253281
0.0253293
0.0253293
0.0253316
0.0253349
0.0250127
0.010971
0.0102081
0.0222237
0.0227105
0.0227644
0.0227819
0.0227829
0.0227709
0.02274
0.022424
0.0104696
0.00686585
0.00956956
0.00970134
0.00972852
0.0097375
0.0097378
0.00973095
0.00970909
0.00961122
0.00694403
)
;
    }
}


// ************************************************************************* //
