/*--------------------------------*- C++ -*----------------------------------*\
| =========                 |                                                 |
| \\      /  F ield         | OpenFOAM: The Open Source CFD Toolbox           |
|  \\    /   O peration     | Version:  2.3.1                                 |
|   \\  /    A nd           | Web:      www.OpenFOAM.org                      |
|    \\/     M anipulation  |                                                 |
\*---------------------------------------------------------------------------*/
FoamFile
{
    version     2.0;
    format      ascii;
    class       volScalarField;
    location    "0.46";
    object      nut;
}
// * * * * * * * * * * * * * * * * * * * * * * * * * * * * * * * * * * * * * //

dimensions      [0 2 -1 0 0 0 0];

internalField   nonuniform List<scalar> 
1000
(
0.000568057
0.000574615
0.000574711
0.0005747
0.000574697
0.000574695
0.000574694
0.000574694
0.000574683
0.000574151
0.00057474
0.000575425
0.000575457
0.000575453
0.000575451
0.00057545
0.000575448
0.000575447
0.000575404
0.000574274
0.000574989
0.00057563
0.00057567
0.000575667
0.000575666
0.000575663
0.00057566
0.000575659
0.000575611
0.000574423
0.000575158
0.000575855
0.000575903
0.000575904
0.000575903
0.0005759
0.000575897
0.000575895
0.000575846
0.000574626
0.00057542
0.000576209
0.00057627
0.00057628
0.000576282
0.000576278
0.000576278
0.000576269
0.000576219
0.000574915
0.000574579
0.000575286
0.000575351
0.000575363
0.000575368
0.00057537
0.000575371
0.000575371
0.000575332
0.000574285
0.000575385
0.00111209
0.00114878
0.00115015
0.00115029
0.00115036
0.00115039
0.00114983
0.00111703
0.00057509
0.000575572
0.00115217
0.00119265
0.00119394
0.00119397
0.00119398
0.00119397
0.0011933
0.00115655
0.000575277
0.000575753
0.00115388
0.00119433
0.0011956
0.00119563
0.00119562
0.00119562
0.00119494
0.00115798
0.000575464
0.000576004
0.00115419
0.00119472
0.00119599
0.00119602
0.00119602
0.00119601
0.00119532
0.00115818
0.000575727
0.000574855
0.000575443
0.000575502
0.000575514
0.00057552
0.000575523
0.000575525
0.000575525
0.000575483
0.000574399
0.000575504
0.00114895
0.00118923
0.00119062
0.00119072
0.00119077
0.0011908
0.00119015
0.00115372
0.000575239
0.000575672
0.00119211
0.00123737
0.00123882
0.00123886
0.00123886
0.00123886
0.00123809
0.00119707
0.00057541
0.000575839
0.00119371
0.00123907
0.00124051
0.00124055
0.00124054
0.00124053
0.00123976
0.00119853
0.000575576
0.00057606
0.00119376
0.00123912
0.00124057
0.00124061
0.0012406
0.00124059
0.00123981
0.0011985
0.0005758
0.000574965
0.000575537
0.000575589
0.000575597
0.000575603
0.000575606
0.000575607
0.000575608
0.000575566
0.000574479
0.000575583
0.00115166
0.00119181
0.00119312
0.0011932
0.00119323
0.00119325
0.00119259
0.00115593
0.000575313
0.000575729
0.00119364
0.00123891
0.00124035
0.00124039
0.00124039
0.00124039
0.00123961
0.00119846
0.000575469
0.00057588
0.0011951
0.00124049
0.00124194
0.00124198
0.00124197
0.00124197
0.00124119
0.00119986
0.000575616
0.000576074
0.00119512
0.0012405
0.00124194
0.00124198
0.00124197
0.00124196
0.00124118
0.00119983
0.000575808
0.000575024
0.000575589
0.000575636
0.000575642
0.000575646
0.000575649
0.00057565
0.00057565
0.000575609
0.00057452
0.00057563
0.00115315
0.00119325
0.00119452
0.00119458
0.0011946
0.00119461
0.00119394
0.00115716
0.00057535
0.000575763
0.00119391
0.00123908
0.00124052
0.00124055
0.00124055
0.00124055
0.00123977
0.00119861
0.000575499
0.000575902
0.00119525
0.00124055
0.00124199
0.00124203
0.00124203
0.00124202
0.00124124
0.00119994
0.000575635
0.000576081
0.00119529
0.00124054
0.00124198
0.00124202
0.00124201
0.00124201
0.00124122
0.00119994
0.00057581
0.000575036
0.000575609
0.000575655
0.00057566
0.000575664
0.000575666
0.000575667
0.000575666
0.000575624
0.000574524
0.000575644
0.00115404
0.00119412
0.00119536
0.00119539
0.0011954
0.00119539
0.00119471
0.00115786
0.000575359
0.00057578
0.00119406
0.00123916
0.00124059
0.00124063
0.00124063
0.00124062
0.00123984
0.00119868
0.000575511
0.000575923
0.00119534
0.00124056
0.001242
0.00124203
0.00124203
0.00124202
0.00124124
0.00119996
0.000575651
0.000576104
0.00119538
0.00124054
0.00124197
0.001242
0.001242
0.00124199
0.00124121
0.00119996
0.000575829
0.000575009
0.000575605
0.000575651
0.000575655
0.000575658
0.000575659
0.000575661
0.000575659
0.000575617
0.00057449
0.000575631
0.00115417
0.0011942
0.00119545
0.00119548
0.00119548
0.00119548
0.00119479
0.00115794
0.00057534
0.000575784
0.00119411
0.00123915
0.00124059
0.00124063
0.00124063
0.00124062
0.00123984
0.00119869
0.000575509
0.000575949
0.00119537
0.00124053
0.00124197
0.00124201
0.00124201
0.001242
0.00124122
0.00119996
0.000575671
0.000576154
0.00119539
0.00124049
0.00124192
0.00124196
0.00124196
0.00124195
0.00124116
0.00119995
0.000575872
0.000574941
0.000575559
0.000575605
0.000575609
0.000575611
0.000575612
0.000575613
0.000575611
0.000575568
0.000574418
0.000575582
0.00115343
0.00119336
0.0011946
0.00119463
0.00119463
0.00119463
0.00119395
0.00115717
0.000575286
0.000575763
0.00119317
0.00123807
0.0012395
0.00123953
0.00123954
0.00123953
0.00123875
0.00119771
0.000575483
0.00057596
0.00119431
0.00123931
0.00124074
0.00124078
0.00124078
0.00124077
0.00123999
0.00119886
0.000575675
0.000576209
0.00119411
0.00123898
0.0012404
0.00124043
0.00124043
0.00124042
0.00123964
0.0011986
0.000575918
0.000574826
0.000575427
0.000575472
0.000575475
0.000575477
0.000575478
0.000575478
0.000575476
0.000575434
0.000574299
0.000575464
0.00111652
0.00115243
0.00115352
0.00115354
0.00115353
0.00115352
0.00115291
0.00111957
0.000575153
0.000575673
0.00115125
0.00119128
0.00119251
0.00119253
0.00119252
0.00119252
0.00119183
0.00115496
0.000575375
0.000575906
0.00115036
0.00119023
0.00119144
0.00119144
0.00119144
0.00119144
0.00119078
0.00115404
0.000575601
0.000576211
0.00114647
0.00118572
0.00118685
0.00118684
0.00118683
0.00118685
0.00118624
0.00115002
0.000575897
0.000574173
0.000574189
0.000574191
0.000574193
0.000574193
0.000574194
0.000574194
0.000574193
0.000574182
0.000573615
0.000574335
0.00057507
0.000575127
0.000575132
0.000575134
0.000575135
0.000575134
0.000575131
0.00057508
0.00057379
0.000574535
0.000575323
0.000575389
0.000575396
0.000575399
0.0005754
0.000575398
0.000575392
0.000575333
0.000573989
0.000574796
0.000575588
0.000575659
0.000575669
0.000575673
0.000575674
0.00057567
0.00057566
0.000575592
0.000574246
0.000575188
0.000575979
0.000576058
0.000576071
0.000576076
0.000576076
0.000576069
0.000576053
0.000575976
0.000574639
0.000576266
0.000576891
0.00057697
0.000576986
0.00057699
0.000576989
0.000576984
0.000576963
0.000576871
0.000575732
0.000577421
0.000578482
0.000578577
0.000578585
0.00057858
0.00057858
0.000578587
0.000578567
0.000578494
0.000576933
0.000585328
0.000596236
0.000596344
0.000596014
0.000595895
0.000595895
0.00059599
0.000596318
0.000596508
0.000585183
0.000670741
0.000786157
0.000788391
0.00078553
0.000784489
0.000784418
0.00078529
0.000788
0.000788429
0.00067433
0.0010578
0.00140269
0.0014269
0.00142759
0.00142749
0.00142732
0.001427
0.00142594
0.0014073
0.00106667
0.000576499
0.00113485
0.0011722
0.00117317
0.00117311
0.0011731
0.00117316
0.00117266
0.00113811
0.000576186
0.000577003
0.00111967
0.00115501
0.00115584
0.00115576
0.00115576
0.00115584
0.00115547
0.00112272
0.00057671
0.000578528
0.00109708
0.00112972
0.00113087
0.00113098
0.00113099
0.00113089
0.0011302
0.00109972
0.000578301
0.000603983
0.000965769
0.000979426
0.000979716
0.000979767
0.000979768
0.000979736
0.000979567
0.000966232
0.000605173
0.00122206
0.0020105
0.00204465
0.00204215
0.00204071
0.00204047
0.00204139
0.0020438
0.00201996
0.00123708
0.000576318
0.00119277
0.00123751
0.00123891
0.00123894
0.00123894
0.00123893
0.00123816
0.00119721
0.000576034
0.000576598
0.00119164
0.0012362
0.00123759
0.00123762
0.00123762
0.00123761
0.00123686
0.0011961
0.00057633
0.000577048
0.00119244
0.00123716
0.00123872
0.0012388
0.0012388
0.00123875
0.00123786
0.00119693
0.000576808
0.000594918
0.00105886
0.00108217
0.00108378
0.00108413
0.00108414
0.00108383
0.00108253
0.00106008
0.000595809
0.00124559
0.00203109
0.00205863
0.00205774
0.00205695
0.00205683
0.0020574
0.00205875
0.00204081
0.00126114
0.000576174
0.00119542
0.0012407
0.00124214
0.00124218
0.00124218
0.00124217
0.00124137
0.00119999
0.000575895
0.000576363
0.00119541
0.0012407
0.00124215
0.00124218
0.00124218
0.00124217
0.00124138
0.0012
0.000576093
0.000576618
0.00119623
0.00124154
0.00124303
0.00124308
0.00124308
0.00124306
0.00124224
0.00120087
0.000576367
0.000593411
0.00104732
0.00106943
0.0010706
0.00107081
0.00107082
0.00107063
0.00106975
0.00104853
0.00059424
0.00126187
0.00206792
0.0020957
0.00209605
0.00209572
0.00209567
0.00209593
0.00209633
0.00207838
0.00127823
0.000576086
0.0011955
0.00124087
0.00124232
0.00124236
0.00124235
0.00124234
0.00124155
0.0012001
0.000575812
0.000576251
0.0011955
0.00124089
0.00124233
0.00124237
0.00124237
0.00124236
0.00124157
0.00120011
0.000575981
0.000576487
0.00119606
0.00124136
0.00124282
0.00124286
0.00124286
0.00124285
0.00124206
0.00120071
0.00057623
0.000593128
0.00104034
0.00106136
0.00106223
0.00106234
0.00106234
0.00106224
0.00106164
0.00104146
0.000593942
0.00126898
0.0020836
0.00211183
0.00211282
0.00211275
0.00211274
0.00211283
0.00211273
0.00209442
0.00128572
0.000576062
0.00119539
0.0012409
0.00124236
0.00124239
0.00124239
0.00124238
0.00124159
0.00120006
0.000575791
0.000576244
0.00119538
0.00124096
0.00124242
0.00124246
0.00124246
0.00124245
0.00124165
0.00120005
0.000575975
0.000576527
0.00119579
0.00124134
0.00124281
0.00124284
0.00124284
0.00124283
0.00124204
0.00120046
0.000576265
0.000597568
0.00100532
0.0010209
0.00101986
0.00101924
0.00101921
0.00101977
0.00102088
0.00100569
0.000598632
0.00127089
0.00208555
0.00211375
0.00211489
0.0021149
0.0021149
0.00211496
0.00211475
0.00209651
0.00128787
0.000576084
0.0011952
0.00124092
0.0012424
0.00124243
0.00124243
0.00124242
0.00124162
0.00119993
0.000575822
0.00057632
0.00119511
0.00124112
0.00124262
0.00124266
0.00124266
0.00124264
0.00124183
0.00119981
0.00057605
0.000576725
0.00119555
0.00124183
0.00124334
0.00124339
0.00124338
0.00124337
0.00124251
0.00120025
0.000576465
0.000608791
0.000947646
0.000956276
0.000952998
0.000951565
0.00095152
0.000952791
0.000955967
0.000947227
0.000610424
0.00127058
0.00207827
0.00210585
0.0021069
0.00210692
0.00210693
0.00210702
0.00210695
0.00208934
0.001288
0.000576134
0.0011943
0.00124024
0.00124174
0.00124178
0.00124178
0.00124176
0.00124096
0.00119907
0.000575877
0.00057644
0.00119414
0.00124087
0.00124242
0.00124247
0.00124246
0.00124244
0.00124157
0.00119887
0.000576169
0.000577215
0.00119754
0.00124581
0.00124754
0.00124763
0.00124763
0.00124755
0.00124653
0.0012023
0.000576953
0.000627869
0.000921309
0.00092691
0.000920972
0.000918645
0.000918567
0.000920677
0.00092645
0.000921476
0.0006302
0.00126715
0.00205085
0.00207692
0.00207793
0.002078
0.00207801
0.00207812
0.00207822
0.00206178
0.00128524
0.000576175
0.00115776
0.00119969
0.00120106
0.0012011
0.0012011
0.00120109
0.00120033
0.00116188
0.000575908
0.000576557
0.00115914
0.00120281
0.0012043
0.00120437
0.00120436
0.00120431
0.00120346
0.00116325
0.000576267
0.000578246
0.00117478
0.00122286
0.00122501
0.00122528
0.00122528
0.00122502
0.00122356
0.00117902
0.000578002
0.000616002
0.0010466
0.00108208
0.00108277
0.00108263
0.0010826
0.00108282
0.00108257
0.00104811
0.000616887
0.00123087
0.00190897
0.00193202
0.00193463
0.0019357
0.00193576
0.00193495
0.00193342
0.00191764
0.00124709
0.000575293
0.000576496
0.00057662
0.000576637
0.000576643
0.000576646
0.000576634
0.00057663
0.000576524
0.000574766
0.000575679
0.000577253
0.000577402
0.000577422
0.000577429
0.000577424
0.000577424
0.000577407
0.000577265
0.000575145
0.000578881
0.000581636
0.000581968
0.000582041
0.000582058
0.000582056
0.000582049
0.000581966
0.000581683
0.000578397
0.000589627
0.000604246
0.000606286
0.00060668
0.000606804
0.000606816
0.0006067
0.000606373
0.000604686
0.00058958
0.000975378
0.00117554
0.00118491
0.00118706
0.00118779
0.00118782
0.00118724
0.00118547
0.00117819
0.000980986
)
;

boundaryField
{
    walls
    {
        type            nutkWallFunction;
        Cmu             0.09;
        kappa           0.41;
        E               9.8;
        value           nonuniform List<scalar> 
500
(
6.9666e-05
6.9666e-05
6.9666e-05
7.03855e-05
7.03855e-05
7.03951e-05
7.03951e-05
7.03938e-05
7.03938e-05
7.03933e-05
7.03933e-05
7.0393e-05
7.0393e-05
7.03928e-05
7.03928e-05
7.03928e-05
7.03928e-05
7.03917e-05
7.03917e-05
7.03276e-05
7.03276e-05
7.03276e-05
7.03975e-05
7.03975e-05
7.0462e-05
7.04645e-05
7.0464e-05
7.04636e-05
7.04635e-05
7.04632e-05
7.04631e-05
7.04592e-05
7.03394e-05
7.03394e-05
7.04218e-05
7.04218e-05
7.04809e-05
7.04842e-05
7.04838e-05
7.04835e-05
7.04832e-05
7.04829e-05
7.04828e-05
7.04786e-05
7.03538e-05
7.03538e-05
7.04379e-05
7.04379e-05
7.05019e-05
7.05061e-05
7.0506e-05
7.05058e-05
7.05055e-05
7.05052e-05
7.05051e-05
7.05007e-05
7.03736e-05
7.03736e-05
7.04633e-05
7.04633e-05
7.05359e-05
7.05411e-05
7.0542e-05
7.05421e-05
7.05417e-05
7.05418e-05
7.05409e-05
7.05367e-05
7.04022e-05
7.04022e-05
7.03805e-05
7.03805e-05
7.04488e-05
7.04552e-05
7.04565e-05
7.0457e-05
7.04573e-05
7.04573e-05
7.04573e-05
7.04538e-05
7.0341e-05
7.0341e-05
7.04588e-05
7.04231e-05
7.0477e-05
7.04414e-05
7.04947e-05
7.04599e-05
7.05196e-05
7.04863e-05
7.04082e-05
7.04082e-05
7.0464e-05
7.04698e-05
7.04711e-05
7.04718e-05
7.04721e-05
7.04723e-05
7.04724e-05
7.04686e-05
7.03526e-05
7.03526e-05
7.04701e-05
7.04382e-05
7.04866e-05
7.0455e-05
7.05034e-05
7.04715e-05
7.05255e-05
7.04941e-05
7.04197e-05
7.04197e-05
7.04735e-05
7.04785e-05
7.04794e-05
7.048e-05
7.04804e-05
7.04806e-05
7.04806e-05
7.04769e-05
7.03606e-05
7.03606e-05
7.04782e-05
7.04456e-05
7.04926e-05
7.04611e-05
7.05077e-05
7.04758e-05
7.05273e-05
7.04952e-05
7.04257e-05
7.04257e-05
7.04788e-05
7.04832e-05
7.04839e-05
7.04844e-05
7.04846e-05
7.04848e-05
7.04848e-05
7.04811e-05
7.03647e-05
7.03647e-05
7.0483e-05
7.04494e-05
7.04961e-05
7.04641e-05
7.05102e-05
7.04778e-05
7.05283e-05
7.04956e-05
7.0427e-05
7.0427e-05
7.04808e-05
7.0485e-05
7.04856e-05
7.04859e-05
7.04862e-05
7.04863e-05
7.04863e-05
7.04825e-05
7.0365e-05
7.0365e-05
7.04846e-05
7.04502e-05
7.04979e-05
7.04655e-05
7.05124e-05
7.04797e-05
7.05309e-05
7.04978e-05
7.04245e-05
7.04245e-05
7.04802e-05
7.04844e-05
7.04848e-05
7.04851e-05
7.04852e-05
7.04854e-05
7.04853e-05
7.04815e-05
7.03617e-05
7.03617e-05
7.04834e-05
7.04485e-05
7.04987e-05
7.04656e-05
7.05155e-05
7.04822e-05
7.05365e-05
7.05025e-05
7.04178e-05
7.04178e-05
7.04754e-05
7.04795e-05
7.048e-05
7.04801e-05
7.04803e-05
7.04804e-05
7.04802e-05
7.04764e-05
7.03546e-05
7.03546e-05
7.04787e-05
7.04432e-05
7.04968e-05
7.04632e-05
7.0517e-05
7.04828e-05
7.05425e-05
7.05075e-05
7.04064e-05
7.04064e-05
7.04626e-05
7.04666e-05
7.04669e-05
7.04671e-05
7.04672e-05
7.04672e-05
7.04671e-05
7.04633e-05
7.03426e-05
7.03426e-05
7.04675e-05
7.04304e-05
7.04884e-05
7.04529e-05
7.05123e-05
7.0476e-05
7.05435e-05
7.05061e-05
7.033e-05
7.033e-05
7.033e-05
7.03315e-05
7.03315e-05
7.03317e-05
7.03317e-05
7.03319e-05
7.03319e-05
7.03319e-05
7.03319e-05
7.0332e-05
7.0332e-05
7.0332e-05
7.0332e-05
7.03319e-05
7.03319e-05
7.03309e-05
7.03309e-05
7.02627e-05
7.02627e-05
7.02627e-05
7.03464e-05
7.03464e-05
7.04216e-05
7.04272e-05
7.04277e-05
7.04279e-05
7.04279e-05
7.04279e-05
7.04276e-05
7.04229e-05
7.02805e-05
7.02805e-05
7.03667e-05
7.03667e-05
7.04472e-05
7.04536e-05
7.04543e-05
7.04545e-05
7.04547e-05
7.04545e-05
7.04539e-05
7.04484e-05
7.03007e-05
7.03007e-05
7.03932e-05
7.03932e-05
7.04739e-05
7.04808e-05
7.04817e-05
7.04821e-05
7.04822e-05
7.04818e-05
7.04809e-05
7.04745e-05
7.03267e-05
7.03267e-05
7.04324e-05
7.04324e-05
7.05129e-05
7.05205e-05
7.05216e-05
7.0522e-05
7.0522e-05
7.05214e-05
7.05199e-05
7.05126e-05
7.03661e-05
7.03661e-05
7.05516e-05
7.05516e-05
7.06095e-05
7.06167e-05
7.06179e-05
7.06184e-05
7.06182e-05
7.06177e-05
7.06158e-05
7.06071e-05
7.04871e-05
7.04871e-05
7.06671e-05
7.06671e-05
7.07561e-05
7.07646e-05
7.07657e-05
7.07653e-05
7.07654e-05
7.07661e-05
7.07633e-05
7.07572e-05
7.06076e-05
7.06076e-05
7.13147e-05
7.13147e-05
7.20815e-05
7.20889e-05
7.20669e-05
7.2059e-05
7.20594e-05
7.20651e-05
7.20878e-05
7.21004e-05
7.12811e-05
7.12811e-05
7.86304e-05
7.86304e-05
8.76718e-05
8.77467e-05
8.75283e-05
8.74513e-05
8.74457e-05
8.7512e-05
8.77179e-05
8.78566e-05
7.89333e-05
7.89333e-05
0.000117111
0.000117111
0.000145807
0.000147601
0.000147658
0.000147655
0.000147641
0.000147611
0.000147521
0.000146196
0.000117964
0.000117964
7.05708e-05
7.05334e-05
7.06214e-05
7.05863e-05
7.07532e-05
7.07238e-05
7.29697e-05
7.30731e-05
0.000132636
0.000134103
7.05508e-05
7.05166e-05
7.05781e-05
7.05457e-05
7.06172e-05
7.05872e-05
7.2205e-05
7.22852e-05
0.000134767
0.000136291
7.05355e-05
7.05018e-05
7.05535e-05
7.0521e-05
7.05756e-05
7.05447e-05
7.20724e-05
7.21466e-05
0.000136072
0.000137664
7.0526e-05
7.04928e-05
7.05419e-05
7.05094e-05
7.05625e-05
7.05311e-05
7.20473e-05
7.212e-05
0.000136616
0.000138238
7.05232e-05
7.04904e-05
7.0541e-05
7.05086e-05
7.05669e-05
7.0535e-05
7.23764e-05
7.24686e-05
0.000136755
0.000138396
7.0525e-05
7.04934e-05
7.05489e-05
7.05164e-05
7.05857e-05
7.0554e-05
7.32595e-05
7.33975e-05
0.000136693
0.000138367
7.05299e-05
7.04988e-05
7.05607e-05
7.05281e-05
7.06304e-05
7.05976e-05
7.48918e-05
7.50967e-05
0.00013636
0.000138096
7.05336e-05
7.05016e-05
7.05751e-05
7.05402e-05
7.07224e-05
7.06917e-05
7.44311e-05
7.4533e-05
0.000133506
0.0001351
7.04381e-05
7.04381e-05
7.05558e-05
7.05677e-05
7.05692e-05
7.05697e-05
7.05701e-05
7.05687e-05
7.05688e-05
7.05587e-05
7.03744e-05
7.03744e-05
7.04878e-05
7.04878e-05
7.06406e-05
7.06554e-05
7.06574e-05
7.06582e-05
7.06575e-05
7.06576e-05
7.06557e-05
7.06415e-05
7.04235e-05
7.04235e-05
7.07714e-05
7.07714e-05
7.10379e-05
7.10677e-05
7.10736e-05
7.10747e-05
7.10744e-05
7.10745e-05
7.10669e-05
7.10424e-05
7.0712e-05
7.0712e-05
7.17706e-05
7.17706e-05
7.31009e-05
7.32819e-05
7.33184e-05
7.33294e-05
7.33309e-05
7.33201e-05
7.32904e-05
7.31436e-05
7.17536e-05
7.17536e-05
0.000110719
0.000110719
0.000129515
0.00013035
0.000130522
0.000130578
0.00013058
0.000130537
0.000130399
0.000129779
0.000111316
0.000111316
)
;
    }
    lid
    {
        type            nutkWallFunction;
        Cmu             0.09;
        kappa           0.41;
        E               9.8;
        value           nonuniform List<scalar> 
100
(
0.000117111
0.000145807
0.000147601
0.000147658
0.000147655
0.000147641
0.000147611
0.000147521
0.000146196
0.000117964
0.000132636
0.000197936
0.000200468
0.000200301
0.000200205
0.000200187
0.000200244
0.000200404
0.000198771
0.000134103
0.000134767
0.000200108
0.00020225
0.000202198
0.000202145
0.000202135
0.000202171
0.000202263
0.00020098
0.000136291
0.000136072
0.000202761
0.000204936
0.000204968
0.000204947
0.000204943
0.00020496
0.000204989
0.000203689
0.000137664
0.000136616
0.000203851
0.000206062
0.000206137
0.000206132
0.000206131
0.000206138
0.000206135
0.000204805
0.000138238
0.000136755
0.000203993
0.000206203
0.00020629
0.000206291
0.000206291
0.000206295
0.000206284
0.000204958
0.000138396
0.000136693
0.000203472
0.00020564
0.000205721
0.000205723
0.000205723
0.00020573
0.000205728
0.000204447
0.000138367
0.00013636
0.000201614
0.000203682
0.00020376
0.000203765
0.000203765
0.000203773
0.000203785
0.000202584
0.000138096
0.000133506
0.00019181
0.000193743
0.000193955
0.000194024
0.000194028
0.000193981
0.000193859
0.000192608
0.0001351
0.000110719
0.000129515
0.00013035
0.000130522
0.000130578
0.00013058
0.000130537
0.000130399
0.000129779
0.000111316
)
;
    }
}


// ************************************************************************* //
