/*--------------------------------*- C++ -*----------------------------------*\
| =========                 |                                                 |
| \\      /  F ield         | OpenFOAM: The Open Source CFD Toolbox           |
|  \\    /   O peration     | Version:  2.3.1                                 |
|   \\  /    A nd           | Web:      www.OpenFOAM.org                      |
|    \\/     M anipulation  |                                                 |
\*---------------------------------------------------------------------------*/
FoamFile
{
    version     2.0;
    format      ascii;
    class       surfaceScalarField;
    location    "0.5";
    object      phi;
}
// * * * * * * * * * * * * * * * * * * * * * * * * * * * * * * * * * * * * * //

dimensions      [0 3 -1 0 0 0 0];

internalField   nonuniform List<scalar> 
1460
(
1.0065e-07
-1.0065e-07
5.50843e-07
-4.50194e-07
1.07535e-06
-5.2451e-07
1.514e-06
-4.38642e-07
1.78258e-06
-2.68582e-07
1.85405e-06
-7.14687e-08
1.70586e-06
1.48183e-07
1.39776e-06
3.081e-07
1.04386e-06
3.53905e-07
7.59687e-07
2.84171e-07
6.08507e-07
1.51179e-07
9.44746e-08
5.14033e-07
3.29176e-07
-4.29826e-07
8.29072e-07
-9.50089e-07
1.28517e-06
-9.80604e-07
1.6174e-06
-7.70877e-07
1.80745e-06
-4.58632e-07
1.85353e-06
-1.17551e-07
1.74771e-06
2.54004e-07
1.49942e-06
5.56387e-07
1.13269e-06
7.20637e-07
7.10358e-07
7.06505e-07
2.33469e-07
6.28068e-07
6.27487e-07
-2.99543e-07
3.31787e-07
-7.61613e-07
6.10422e-07
-1.22872e-06
7.65945e-07
-1.13613e-06
8.5754e-07
-8.62472e-07
8.94346e-07
-4.95438e-07
8.34126e-07
-5.73308e-08
7.11098e-07
3.77032e-07
5.10257e-07
7.57228e-07
2.1332e-07
1.01757e-06
-2.21437e-07
1.14126e-06
-8.09554e-07
1.21618e-06
1.23097e-06
-1.41304e-06
8.62764e-08
-8.47889e-07
8.56067e-09
-1.15101e-06
-1.12403e-07
-1.01516e-06
-2.01336e-07
-7.73539e-07
-2.77851e-07
-4.18923e-07
-3.55936e-07
2.07544e-08
-4.47548e-07
4.68644e-07
-5.89301e-07
8.98981e-07
-8.2415e-07
1.25242e-06
-1.18856e-06
1.50567e-06
-1.63081e-06
1.65843e-06
1.68481e-06
-2.08465e-06
-2.35753e-07
-6.12137e-07
-6.09042e-07
-7.77719e-07
-9.36352e-07
-6.87855e-07
-1.17045e-06
-5.39446e-07
-1.32298e-06
-2.6639e-07
-1.39456e-06
9.23337e-08
-1.42484e-06
4.98925e-07
-1.45799e-06
9.32133e-07
-1.52724e-06
1.32167e-06
-1.63619e-06
1.61463e-06
-1.76035e-06
1.78258e-06
1.84168e-06
-1.91721e-06
-4.73293e-07
-1.38844e-07
-1.03048e-06
-2.20527e-07
-1.50368e-06
-2.1466e-07
-1.82823e-06
-2.14897e-07
-1.99212e-06
-1.02495e-07
-2.00211e-06
1.0232e-07
-1.92203e-06
4.18849e-07
-1.78284e-06
7.92942e-07
-1.60972e-06
1.14855e-06
-1.41645e-06
1.42135e-06
-1.22149e-06
1.58763e-06
1.68596e-06
-1.06578e-06
-5.56067e-07
4.17224e-07
-1.16373e-06
3.87137e-07
-1.64653e-06
2.68142e-07
-1.93945e-06
7.80162e-08
-2.02179e-06
-2.01508e-08
-1.94503e-06
2.55569e-08
-1.74232e-06
2.16141e-07
-1.44786e-06
4.98477e-07
-1.08978e-06
7.90472e-07
-6.96911e-07
1.02849e-06
-3.03818e-07
1.19453e-06
1.32278e-06
5.93608e-08
-5.56256e-07
9.7348e-07
-1.1078e-06
9.38678e-07
-1.47193e-06
6.32273e-07
-1.59745e-06
2.0354e-07
-1.51016e-06
-1.07445e-07
-1.28404e-06
-2.00561e-07
-9.7106e-07
-9.68405e-08
-5.91396e-07
1.18813e-07
-1.62552e-07
3.61628e-07
2.8782e-07
5.78117e-07
7.34387e-07
7.47967e-07
8.92966e-07
1.1642e-06
-5.76753e-07
1.55023e-06
-1.09542e-06
1.45735e-06
-1.30386e-06
8.40709e-07
-1.18259e-06
8.22719e-08
-8.21041e-07
-4.68994e-07
-3.63087e-07
-6.58515e-07
1.03597e-07
-5.63525e-07
5.53304e-07
-3.30893e-07
9.77566e-07
-6.2634e-08
1.38483e-06
1.70855e-07
1.77886e-06
3.53933e-07
5.07112e-07
2.16472e-06
-5.80363e-07
2.1306e-06
-9.39931e-07
1.81692e-06
-8.6539e-07
7.66168e-07
-4.68227e-07
-3.14892e-07
8.11272e-08
-1.01835e-06
6.48431e-07
-1.22582e-06
1.17629e-06
-1.09138e-06
1.65053e-06
-8.05138e-07
2.07846e-06
-4.90562e-07
2.46373e-06
-2.14418e-07
2.8023e-06
1.53655e-08
1.952e-07
3.11421e-06
-5.45886e-08
2.18518e-06
1.38068e-07
1.62426e-06
6.81833e-07
2.22402e-07
1.29022e-06
-9.23275e-07
1.81801e-06
-1.54614e-06
2.21772e-06
-1.62552e-06
2.52909e-06
-1.40276e-06
2.80875e-06
-1.08479e-06
3.09617e-06
-7.77985e-07
3.39606e-06
-5.14305e-07
3.70026e-06
-2.88833e-07
-9.23894e-08
3.98785e-06
1.11605e-06
1.06913e-06
2.2417e-06
4.98605e-07
3.13108e-06
-6.6697e-07
3.69741e-06
-1.4896e-06
3.96076e-06
-1.8095e-06
4.07045e-06
-1.73521e-06
4.13612e-06
-1.46842e-06
4.2122e-06
-1.16087e-06
4.31895e-06
-8.84739e-07
4.46089e-06
-6.56249e-07
4.63658e-06
-4.64515e-07
4.83589e-06
-2.91703e-07
4.10529e-07
1.03504e-07
3.09783e-07
1.00746e-07
2.63615e-07
4.61678e-08
3.14252e-07
-5.0637e-08
5.18472e-07
-2.0422e-07
8.00076e-07
-2.81604e-07
1.04859e-06
-2.48517e-07
1.18278e-06
-1.34187e-07
1.12606e-06
5.67195e-08
8.35972e-07
2.90089e-07
3.88596e-07
4.47376e-07
3.88596e-07
-7.80949e-07
5.8491e-07
-1.10878e-06
4.28578e-07
-1.27634e-06
2.13723e-07
-1.29933e-06
-2.76448e-08
-1.2364e-06
-2.67149e-07
-1.02788e-06
-4.90121e-07
-6.73321e-07
-6.03079e-07
-2.66516e-07
-5.40992e-07
5.53501e-08
-2.65146e-07
1.95808e-07
1.49631e-07
1.19112e-07
5.24072e-07
5.07708e-07
-1.95286e-06
1.12474e-06
-2.45636e-06
9.32077e-07
-2.91812e-06
6.75476e-07
-3.27744e-06
3.31678e-07
-3.46308e-06
-8.15037e-08
-3.40046e-06
-5.52746e-07
-3.04024e-06
-9.63303e-07
-2.37652e-06
-1.20471e-06
-1.50042e-06
-1.14125e-06
-6.62982e-07
-6.87809e-07
-1.5236e-07
1.34487e-08
3.55349e-07
-2.5755e-06
1.61559e-06
-3.12994e-06
1.48651e-06
-3.70994e-06
1.25548e-06
-4.2487e-06
8.70441e-07
-4.65435e-06
3.24149e-07
-4.85433e-06
-3.52763e-07
-4.74523e-06
-1.07241e-06
-4.21186e-06
-1.73808e-06
-3.17721e-06
-2.1759e-06
-1.73971e-06
-2.1253e-06
-4.05855e-07
-1.32041e-06
-5.05065e-08
-2.15623e-06
1.85461e-06
-2.49518e-06
1.82547e-06
-2.92265e-06
1.68294e-06
-3.41099e-06
1.35879e-06
-3.90695e-06
8.20103e-07
-4.33728e-06
7.7567e-08
-4.61633e-06
-7.93355e-07
-4.61729e-06
-1.73712e-06
-4.12795e-06
-2.66524e-06
-2.92553e-06
-3.32772e-06
-1.1336e-06
-3.11234e-06
-1.1841e-06
-9.84836e-07
1.77366e-06
-9.94585e-07
1.83522e-06
-1.10568e-06
1.79403e-06
-1.32153e-06
1.57464e-06
-1.64195e-06
1.14052e-06
-2.07198e-06
5.07603e-07
-2.56185e-06
-3.03491e-07
-3.02896e-06
-1.27001e-06
-3.31195e-06
-2.38225e-06
-3.05454e-06
-3.58513e-06
-1.78527e-06
-4.38161e-06
-2.96938e-06
3.78752e-07
1.45427e-06
6.35178e-07
1.57879e-06
7.91409e-07
1.6378e-06
8.07748e-07
1.5583e-06
6.62826e-07
1.28544e-06
3.66755e-07
8.03674e-07
-7.6522e-08
1.39786e-07
-6.28915e-07
-7.17621e-07
-1.24287e-06
-1.76829e-06
-1.75366e-06
-3.07434e-06
-1.54307e-06
-4.5922e-06
-4.51245e-06
1.57695e-06
1.04153e-06
1.95939e-06
1.19635e-06
2.27066e-06
1.32653e-06
2.45126e-06
1.3777e-06
2.44617e-06
1.29054e-06
2.22903e-06
1.02081e-06
1.82501e-06
5.43804e-07
1.26782e-06
-1.60429e-07
6.52013e-07
-1.15249e-06
-1.18565e-08
-2.41048e-06
-5.74752e-07
-4.0293e-06
-5.0872e-06
2.55067e-06
6.55577e-07
2.93441e-06
8.12601e-07
3.2899e-06
9.71047e-07
3.56479e-06
1.1028e-06
3.69313e-06
1.1622e-06
3.61981e-06
1.09413e-06
3.31967e-06
8.43949e-07
2.80959e-06
3.49651e-07
2.11733e-06
-4.60232e-07
1.35084e-06
-1.64398e-06
4.78347e-07
-3.15681e-06
-4.60886e-06
3.41923e-06
3.50558e-07
3.73006e-06
5.01769e-07
4.04248e-06
6.58628e-07
4.32797e-06
8.17312e-07
4.53418e-06
9.55999e-07
4.59732e-06
1.03098e-06
4.46096e-06
9.80304e-07
4.08406e-06
7.2656e-07
3.42832e-06
1.95508e-07
2.50275e-06
-7.18416e-07
1.35977e-06
-2.01383e-06
-3.24908e-06
4.25103e-06
8.73696e-08
4.49626e-06
2.56538e-07
4.73543e-06
4.19463e-07
4.96948e-06
5.83261e-07
5.177e-06
7.4848e-07
5.31208e-06
8.95901e-07
5.31058e-06
9.81805e-07
5.09613e-06
9.4101e-07
4.58346e-06
7.08177e-07
3.65061e-06
2.14438e-07
2.19018e-06
-5.53405e-07
-1.0589e-06
5.04432e-06
-1.21062e-07
5.24611e-06
5.47436e-08
5.43576e-06
2.29815e-07
5.61437e-06
4.04654e-07
5.78104e-06
5.81804e-07
5.92043e-06
7.56512e-07
5.99205e-06
9.10187e-07
5.92594e-06
1.00712e-06
5.61941e-06
1.01471e-06
4.85522e-06
9.78626e-07
3.26436e-06
1.03745e-06
2.20546e-06
1.01697e-07
-1.01697e-07
5.5266e-07
-4.50962e-07
1.07775e-06
-5.25089e-07
1.51708e-06
-4.39331e-07
1.78655e-06
-2.69474e-07
1.85898e-06
-7.24274e-08
1.71172e-06
1.47262e-07
1.40371e-06
3.0801e-07
1.04877e-06
3.54939e-07
7.62749e-07
2.86021e-07
6.10091e-07
1.52658e-07
9.44643e-08
5.15626e-07
3.29555e-07
-4.31252e-07
8.29693e-07
-9.511e-07
1.28591e-06
-9.8131e-07
1.61858e-06
-7.72001e-07
1.80954e-06
-4.60431e-07
1.85678e-06
-1.19663e-07
1.75249e-06
2.51549e-07
1.50552e-06
5.54979e-07
1.13943e-06
7.21028e-07
7.17123e-07
7.08331e-07
2.40784e-07
6.28997e-07
6.27078e-07
-2.9183e-07
3.31388e-07
-7.6264e-07
6.09239e-07
-1.22895e-06
7.64229e-07
-1.1363e-06
8.55887e-07
-8.6366e-07
8.93261e-07
-4.97805e-07
8.35277e-07
-6.16789e-08
7.13593e-07
3.73233e-07
5.14286e-07
7.54285e-07
2.19042e-07
1.01627e-06
-2.13524e-07
1.1409e-06
-8.00085e-07
1.21556e-06
1.231e-06
-1.404e-06
8.5429e-08
-8.48069e-07
6.7245e-09
-1.15025e-06
-1.14721e-07
-1.01485e-06
-2.0347e-07
-7.74911e-07
-2.78964e-07
-4.2231e-07
-3.56843e-07
1.61995e-08
-4.46997e-07
4.63388e-07
-5.86952e-07
8.9424e-07
-8.19534e-07
1.24885e-06
-1.18184e-06
1.50321e-06
-1.62347e-06
1.65719e-06
1.68492e-06
-2.07739e-06
-2.36447e-07
-6.11621e-07
-6.10289e-07
-7.76405e-07
-9.37913e-07
-6.8723e-07
-1.17205e-06
-5.40778e-07
-1.32409e-06
-2.70263e-07
-1.39512e-06
8.72313e-08
-1.42439e-06
4.92648e-07
-1.45611e-06
9.25969e-07
-1.52394e-06
1.31668e-06
-1.63217e-06
1.61143e-06
-1.75639e-06
1.78141e-06
1.84187e-06
-1.91334e-06
-4.73542e-07
-1.38079e-07
-1.03085e-06
-2.19096e-07
-1.5039e-06
-2.14184e-07
-1.82789e-06
-2.16779e-07
-1.99207e-06
-1.06092e-07
-2.00129e-06
9.64537e-08
-1.92055e-06
4.11911e-07
-1.78087e-06
7.86286e-07
-1.60758e-06
1.1434e-06
-1.41458e-06
1.41844e-06
-1.22008e-06
1.5869e-06
1.68659e-06
-1.0648e-06
-5.56266e-07
4.18187e-07
-1.16378e-06
3.88419e-07
-1.64586e-06
2.67898e-07
-1.93808e-06
7.54389e-08
-2.01938e-06
-2.47953e-08
-1.94228e-06
1.93611e-08
-1.73951e-06
2.09134e-07
-1.44541e-06
4.92192e-07
-1.08797e-06
7.85954e-07
-6.95804e-07
1.02627e-06
-3.03323e-07
1.19442e-06
1.32409e-06
5.91848e-08
-5.56962e-07
9.75149e-07
-1.1089e-06
9.40355e-07
-1.47216e-06
6.31163e-07
-1.59613e-06
1.99408e-07
-1.50718e-06
-1.13744e-07
-1.28045e-06
-2.07369e-07
-9.67167e-07
-1.04153e-07
-5.88364e-07
1.13389e-07
-1.60408e-07
3.57998e-07
2.89166e-07
5.76694e-07
7.35082e-07
7.48505e-07
8.94933e-07
1.16423e-06
-5.77654e-07
1.5528e-06
-1.09739e-06
1.46009e-06
-1.30511e-06
8.38878e-07
-1.18293e-06
7.72299e-08
-8.19493e-07
-4.7718e-07
-3.59968e-07
-6.66894e-07
1.06738e-07
-5.70859e-07
5.56225e-07
-3.36097e-07
9.80046e-07
-6.58236e-08
1.38659e-06
1.70148e-07
1.78002e-06
3.55078e-07
5.09622e-07
2.16533e-06
-5.79787e-07
2.13259e-06
-9.38734e-07
1.81904e-06
-8.62734e-07
7.62877e-07
-4.63575e-07
-3.21929e-07
8.57404e-08
-1.02649e-06
6.52289e-07
-1.23344e-06
1.17918e-06
-1.09775e-06
1.65284e-06
-8.09757e-07
2.08026e-06
-4.93243e-07
2.46534e-06
-2.14933e-07
2.80366e-06
1.67595e-08
1.98024e-07
3.11525e-06
-5.3885e-08
2.18648e-06
1.40808e-07
1.62435e-06
6.86277e-07
2.17408e-07
1.29513e-06
-9.30784e-07
1.82241e-06
-1.55377e-06
2.22128e-06
-1.63232e-06
2.53175e-06
-1.40822e-06
2.81054e-06
-1.08854e-06
3.09722e-06
-7.79928e-07
3.39685e-06
-5.14556e-07
3.70104e-06
-2.87436e-07
-8.96548e-08
3.98872e-06
1.11586e-06
1.07062e-06
2.24367e-06
4.96537e-07
3.13403e-06
-6.72957e-07
3.69921e-06
-1.49596e-06
3.96113e-06
-1.81569e-06
4.06992e-06
-1.74111e-06
4.13514e-06
-1.47343e-06
4.21102e-06
-1.16443e-06
4.31769e-06
-8.86597e-07
4.45958e-06
-6.56447e-07
4.63539e-06
-4.63248e-07
4.83501e-06
-2.8927e-07
4.12268e-07
1.03359e-07
3.11627e-07
1.0064e-07
2.65386e-07
4.62413e-08
3.15762e-07
-5.03762e-08
5.19761e-07
-2.03999e-07
8.01478e-07
-2.81716e-07
1.05035e-06
-2.4887e-07
1.1848e-06
-1.34451e-07
1.12816e-06
5.66398e-08
8.37641e-07
2.90518e-07
3.89406e-07
4.48235e-07
3.89406e-07
-7.73946e-07
5.85475e-07
-1.10279e-06
4.29482e-07
-1.27094e-06
2.14394e-07
-1.29406e-06
-2.72526e-08
-1.23116e-06
-2.66907e-07
-1.02282e-06
-4.90047e-07
-6.68635e-07
-6.0306e-07
-2.62376e-07
-5.4071e-07
5.85455e-08
-2.64281e-07
1.97911e-07
1.51153e-07
1.2004e-07
5.26106e-07
5.09445e-07
-1.94408e-06
1.12555e-06
-2.44746e-06
9.32868e-07
-2.9092e-06
6.76129e-07
-3.26873e-06
3.32281e-07
-3.45461e-06
-8.103e-08
-3.39239e-06
-5.52263e-07
-3.03284e-06
-9.62617e-07
-2.37021e-06
-1.20334e-06
-1.49587e-06
-1.13862e-06
-6.60886e-07
-6.83831e-07
-1.52031e-07
1.72516e-08
3.57414e-07
-2.568e-06
1.61616e-06
-3.12231e-06
1.48718e-06
-3.70252e-06
1.25634e-06
-4.24167e-06
8.71428e-07
-4.64779e-06
3.25086e-07
-4.84809e-06
-3.51954e-07
-4.73912e-06
-1.07159e-06
-4.20573e-06
-1.73673e-06
-3.17133e-06
-2.17302e-06
-1.73522e-06
-2.11994e-06
-4.04422e-07
-1.31355e-06
-4.70075e-08
-2.15253e-06
1.85534e-06
-2.49203e-06
1.82668e-06
-2.92036e-06
1.68467e-06
-3.40973e-06
1.3608e-06
-3.90673e-06
8.22083e-07
-4.33782e-06
7.91402e-08
-4.61698e-06
-7.92435e-07
-4.61712e-06
-1.73658e-06
-4.12599e-06
-2.66416e-06
-2.92168e-06
-3.32425e-06
-1.13026e-06
-3.10497e-06
-1.17727e-06
-9.84564e-07
1.77511e-06
-9.95356e-07
1.83748e-06
-1.10772e-06
1.79703e-06
-1.32499e-06
1.57807e-06
-1.64682e-06
1.14391e-06
-2.078e-06
5.1032e-07
-2.56857e-06
-3.01859e-07
-3.03569e-06
-1.26946e-06
-3.31715e-06
-2.38269e-06
-3.05617e-06
-3.58523e-06
-1.7836e-06
-4.37754e-06
-2.96087e-06
3.77677e-07
1.45661e-06
6.33063e-07
1.58209e-06
7.88166e-07
1.64193e-06
8.03339e-07
1.5629e-06
6.57332e-07
1.28991e-06
3.60359e-07
8.07293e-07
-8.36236e-08
1.42123e-07
-6.36646e-07
-7.16438e-07
-1.25089e-06
-1.76845e-06
-1.76019e-06
-3.07593e-06
-1.54535e-06
-4.59238e-06
-4.50622e-06
1.57628e-06
1.04457e-06
1.95804e-06
1.20033e-06
2.26866e-06
1.33131e-06
2.44859e-06
1.38297e-06
2.44272e-06
1.29578e-06
2.22466e-06
1.02535e-06
1.81974e-06
5.47048e-07
1.26204e-06
-1.58741e-07
6.46084e-07
-1.1525e-06
-1.77982e-08
-2.41205e-06
-5.78885e-07
-4.03129e-06
-5.08511e-06
2.55082e-06
6.5908e-07
2.93426e-06
8.16889e-07
3.28959e-06
9.75988e-07
3.56436e-06
1.1082e-06
3.69244e-06
1.16769e-06
3.61859e-06
1.0992e-06
3.31758e-06
8.48059e-07
2.80657e-06
3.52274e-07
2.1137e-06
-4.59628e-07
1.34711e-06
-1.64546e-06
4.7522e-07
-3.1594e-06
-4.60988e-06
3.41996e-06
3.54375e-07
3.73061e-06
5.06234e-07
4.04308e-06
6.63519e-07
4.32882e-06
8.22466e-07
4.53531e-06
9.61204e-07
4.59858e-06
1.03593e-06
4.46202e-06
9.84617e-07
4.0845e-06
7.29796e-07
3.42777e-06
1.97099e-07
2.50124e-06
-7.18934e-07
1.35818e-06
-2.01634e-06
-3.2517e-06
4.25189e-06
9.12032e-08
4.49707e-06
2.61051e-07
4.7363e-06
4.24294e-07
4.97063e-06
5.88133e-07
5.17866e-06
7.53171e-07
5.31437e-06
9.00229e-07
5.31338e-06
9.856e-07
5.09909e-06
9.44086e-07
4.58591e-06
7.10289e-07
3.65168e-06
2.15295e-07
2.18965e-06
-5.54312e-07
-1.06205e-06
5.04388e-06
-1.17667e-07
5.24616e-06
5.87696e-08
5.43621e-06
2.34243e-07
5.61524e-06
4.09104e-07
5.7825e-06
5.85916e-07
5.92269e-06
7.6004e-07
5.99527e-06
9.1302e-07
5.93006e-06
1.00929e-06
5.62395e-06
1.0164e-06
4.85935e-06
9.79896e-07
3.26702e-06
1.03802e-06
2.20497e-06
6.06427e-06
1.32783e-06
6.28288e-06
2.79995e-07
6.27352e-06
-6.57607e-07
6.07957e-06
-1.29565e-06
5.82096e-06
-1.5509e-06
5.60628e-06
-1.52053e-06
5.48431e-06
-1.34645e-06
5.45718e-06
-1.13374e-06
5.50665e-06
-9.34209e-07
5.60997e-06
-7.59573e-07
5.74588e-06
-6.00425e-07
-4.38984e-07
5.89316e-06
8.00501e-06
1.12316e-06
7.93298e-06
3.52021e-07
7.66906e-06
-3.93686e-07
7.31728e-06
-9.43871e-07
6.98378e-06
-1.2174e-06
6.72974e-06
-1.26648e-06
6.57664e-06
-1.19336e-06
6.5191e-06
-1.0762e-06
6.53766e-06
-9.52774e-07
6.60777e-06
-8.29682e-07
6.70905e-06
-7.01701e-07
-5.55953e-07
6.82602e-06
8.68258e-06
9.0819e-07
8.65795e-06
3.76655e-07
8.46207e-06
-1.97815e-07
8.19805e-06
-6.79845e-07
7.92824e-06
-9.47588e-07
7.70311e-06
-1.04135e-06
7.54727e-06
-1.03752e-06
7.46776e-06
-9.96696e-07
7.45866e-06
-9.43671e-07
7.50432e-06
-8.75343e-07
7.58628e-06
-7.83663e-07
-6.54274e-07
7.6846e-06
9.1298e-06
9.1471e-06
9.0183e-06
8.85719e-06
8.67239e-06
8.50831e-06
8.37914e-06
8.28844e-06
8.23084e-06
8.21053e-06
8.25794e-06
8.38021e-06
6.03015e-06
-2.58047e-07
6.1425e-06
-5.7603e-08
6.2389e-06
1.33411e-07
6.32903e-06
3.14523e-07
6.42074e-06
4.90096e-07
6.51577e-06
6.61487e-07
6.59821e-06
8.27738e-07
6.62596e-06
9.79374e-07
6.53769e-06
1.10298e-06
6.2936e-06
1.22271e-06
5.99565e-06
1.33541e-06
1.88261e-06
6.3185e-06
6.93804e-06
-3.70072e-07
7.0208e-06
-1.40355e-07
7.0787e-06
7.55109e-08
7.11083e-06
2.82387e-07
7.12898e-06
4.71953e-07
7.15258e-06
6.37882e-07
7.19427e-06
7.86046e-07
7.24843e-06
9.2522e-07
7.29417e-06
1.05724e-06
7.33192e-06
1.18497e-06
7.39444e-06
1.27289e-06
1.48231e-06
7.79474e-06
7.77362e-06
-4.59088e-07
7.82279e-06
-1.89525e-07
7.86997e-06
2.83282e-08
7.89095e-06
2.61411e-07
7.88355e-06
4.79355e-07
7.85921e-06
6.62215e-07
7.84413e-06
8.01126e-07
7.8612e-06
9.08156e-07
7.9173e-06
1.00114e-06
8.01405e-06
1.08823e-06
8.14704e-06
1.13989e-06
1.16835e-06
8.461e-06
8.5092e-06
8.52464e-06
8.55896e-06
8.57582e-06
8.58216e-06
8.5645e-06
8.53564e-06
8.52133e-06
8.54216e-06
8.61283e-06
8.73598e-06
8.94568e-06
6.06478e-06
1.32435e-06
6.28669e-06
2.7462e-07
6.27575e-06
-6.62019e-07
6.08021e-06
-1.30041e-06
5.82044e-06
-1.55593e-06
5.6047e-06
-1.52537e-06
5.48176e-06
-1.3505e-06
5.45387e-06
-1.13654e-06
5.50286e-06
-9.35586e-07
5.606e-06
-7.59585e-07
5.74212e-06
-5.99365e-07
-4.37003e-07
5.88985e-06
8.00099e-06
1.11809e-06
7.9309e-06
3.44707e-07
7.66885e-06
-3.99971e-07
7.31755e-06
-9.49112e-07
6.98344e-06
-1.22181e-06
6.72821e-06
-1.27013e-06
6.57369e-06
-1.19598e-06
6.51485e-06
-1.07771e-06
6.53253e-06
-9.53264e-07
6.60231e-06
-8.29365e-07
6.70373e-06
-7.00788e-07
-5.54514e-07
6.82125e-06
8.67627e-06
9.02817e-07
8.65245e-06
3.68528e-07
8.45951e-06
-2.07034e-07
8.19659e-06
-6.86188e-07
7.92678e-06
-9.52006e-07
7.70078e-06
-1.04413e-06
7.54356e-06
-1.03876e-06
7.46269e-06
-9.96835e-07
7.45261e-06
-9.43183e-07
7.49787e-06
-8.74625e-07
7.58003e-06
-7.8295e-07
-6.53537e-07
7.67906e-06
9.12071e-06
9.13928e-06
9.01606e-06
8.85609e-06
8.67136e-06
8.5062e-06
8.37555e-06
8.28368e-06
8.22537e-06
8.20477e-06
8.25237e-06
8.37524e-06
6.02741e-06
-2.55225e-07
6.14062e-06
-5.44411e-08
6.23794e-06
1.36925e-07
6.32896e-06
3.18075e-07
6.42154e-06
4.9334e-07
6.51749e-06
6.64085e-07
6.60107e-06
8.29446e-07
6.63015e-06
9.80213e-07
6.54323e-06
1.10331e-06
6.30011e-06
1.22302e-06
6.00201e-06
1.33611e-06
1.88431e-06
6.93417e-06
-3.68153e-07
7.01785e-06
-1.38116e-07
7.07673e-06
7.80394e-08
7.10988e-06
2.84931e-07
7.12902e-06
4.74195e-07
7.15364e-06
6.39467e-07
7.19647e-06
7.86617e-07
7.25202e-06
9.24666e-07
7.29941e-06
1.05592e-06
7.33873e-06
1.18371e-06
7.40222e-06
1.27262e-06
1.48449e-06
7.76903e-06
-4.58129e-07
7.81915e-06
-1.88233e-07
7.86727e-06
2.99177e-08
7.88922e-06
2.6298e-07
7.88281e-06
4.8061e-07
7.85951e-06
6.62767e-07
7.84557e-06
8.00558e-07
7.86396e-06
9.06269e-07
7.92172e-06
9.98166e-07
8.02041e-06
1.08502e-06
8.15508e-06
1.13795e-06
1.16964e-06
8.50497e-06
8.52117e-06
8.55614e-06
8.57374e-06
8.58085e-06
8.56409e-06
8.53641e-06
8.52356e-06
8.54625e-06
8.61956e-06
8.7458e-06
)
;

boundaryField
{
    rotor
    {
        type            calculated;
        value           nonuniform List<scalar> 
96
(
5.90662e-24
-3.61959e-25
1.41009e-23
5.60415e-23
2.64568e-23
-1.08179e-23
-3.22601e-23
-1.44899e-22
-1.09085e-23
-3.98209e-23
6.94443e-23
-4.96437e-23
6.59159e-23
-1.02945e-22
-9.40144e-23
1.63252e-22
-4.41766e-23
9.19721e-23
-1.57034e-23
9.76201e-23
-2.36004e-23
4.27289e-23
8.85349e-24
-1.10248e-23
7.45755e-24
-1.73578e-23
-1.23302e-23
8.70996e-23
3.19757e-23
-6.44037e-23
-9.2347e-23
-2.17225e-22
3.67578e-23
-3.11355e-23
-1.62024e-22
4.16184e-24
1.69637e-22
-1.14332e-22
-2.76848e-23
4.25998e-23
4.76016e-23
5.27587e-23
-3.7094e-23
-1.04689e-23
-5.28232e-23
-7.5015e-23
-1.61946e-23
1.34416e-23
0
4.23516e-22
0
0
-8.47033e-22
-8.47033e-22
-8.47033e-22
0
-8.47033e-22
-8.47033e-22
-8.47033e-22
-1.69407e-21
0
0
0
-8.47033e-22
0
8.47033e-22
0
8.47033e-22
0
8.47033e-22
-8.47033e-22
1.69407e-21
4.23516e-22
-4.23516e-22
8.47033e-22
8.47033e-22
-8.47033e-22
0
0
0
-8.47033e-22
-8.47033e-22
8.47033e-22
-1.69407e-21
8.47033e-22
0
0
0
8.47033e-22
0
0
8.47033e-22
0
1.69407e-21
0
1.69407e-21
)
;
    }
    stator
    {
        type            calculated;
        value           nonuniform 0();
    }
    AMI1
    {
        type            cyclicAMI;
        value           nonuniform List<scalar> 
48
(
7.33807e-07
3.59354e-07
-6.90193e-08
-5.18732e-07
-7.6279e-07
-8.7727e-07
-9.08344e-07
-9.05994e-07
-8.86074e-07
-8.55035e-07
-8.31072e-07
-7.76544e-07
-5.88074e-07
-2.04968e-07
-5.98972e-09
2.44552e-07
4.73007e-07
6.79884e-07
8.29981e-07
9.22471e-07
9.80306e-07
1.01755e-06
1.01674e-06
9.58655e-07
7.27788e-07
3.49954e-07
-8.38132e-08
-5.26219e-07
-7.67273e-07
-8.78974e-07
-9.08109e-07
-9.04969e-07
-8.84868e-07
-8.54032e-07
-8.30547e-07
-7.76406e-07
-5.87861e-07
-2.04428e-07
-5.05535e-09
2.45378e-07
4.73503e-07
6.79526e-07
8.28235e-07
9.19121e-07
9.75483e-07
1.01171e-06
1.0117e-06
9.57881e-07
)
;
    }
    AMI2
    {
        type            cyclicAMI;
        value           nonuniform 0();
    }
    front
    {
        type            empty;
        value           nonuniform 0();
    }
    back
    {
        type            empty;
        value           nonuniform 0();
    }
    procBoundary2to3
    {
        type            processor;
        value           nonuniform List<scalar> 8(-6.32297e-06 -7.80034e-06 -8.46761e-06 -8.95542e-06 6.32267e-06 7.80204e-06 8.46993e-06 8.95755e-06);
    }
}


// ************************************************************************* //
