/*--------------------------------*- C++ -*----------------------------------*\
| =========                 |                                                 |
| \\      /  F ield         | OpenFOAM: The Open Source CFD Toolbox           |
|  \\    /   O peration     | Version:  2.3.1                                 |
|   \\  /    A nd           | Web:      www.OpenFOAM.org                      |
|    \\/     M anipulation  |                                                 |
\*---------------------------------------------------------------------------*/
FoamFile
{
    version     2.0;
    format      ascii;
    class       volVectorField;
    location    "0.5";
    object      U;
}
// * * * * * * * * * * * * * * * * * * * * * * * * * * * * * * * * * * * * * //

dimensions      [0 1 -1 0 0 0 0];

internalField   nonuniform List<vector> 
768
(
(-0.131364 0.0134816 1.11841e-20)
(-0.120584 0.00682293 2.22995e-20)
(-0.102457 0.00310497 0)
(-0.0829097 0.00518454 1.27197e-19)
(-0.0663484 0.0116289 -4.17813e-20)
(-0.054843 0.0211905 -3.33555e-19)
(-0.0505736 0.0333721 4.18305e-19)
(-0.0537975 0.0470649 2.42653e-19)
(-0.0619211 0.0601449 -5.78439e-19)
(-0.0708707 0.0699801 3.25822e-19)
(-0.0773503 0.0747612 -6.61287e-19)
(-0.0802236 0.0774983 4.89032e-19)
(-0.147328 -0.0150227 -9.89543e-21)
(-0.131747 -0.0403477 7.60941e-20)
(-0.115588 -0.0418036 -7.31886e-20)
(-0.100509 -0.0284497 7.98697e-20)
(-0.08659 -0.00844724 8.30317e-20)
(-0.075145 0.014246 -4.77757e-19)
(-0.065849 0.0374458 8.02075e-20)
(-0.0608074 0.0593274 0)
(-0.0630332 0.0772602 4.22399e-19)
(-0.0736385 0.0883731 -1.57129e-20)
(-0.0891146 0.096833 -4.17013e-19)
(-0.0982095 0.116072 -1.42767e-19)
(-0.166623 -0.0325831 7.94318e-21)
(-0.152619 -0.0553234 0)
(-0.147351 -0.0437502 -6.79946e-20)
(-0.142025 -0.0191769 2.24149e-19)
(-0.133807 0.00978121 -3.08513e-19)
(-0.123626 0.0411324 0)
(-0.113295 0.0712658 1.56079e-19)
(-0.103933 0.0976473 0)
(-0.0993209 0.118447 0)
(-0.103192 0.135381 -2.43161e-19)
(-0.110263 0.157598 3.56219e-19)
(-0.115919 0.183056 2.0099e-19)
(-0.190437 -0.0407837 -3.62975e-20)
(-0.183967 -0.0485437 2.85463e-20)
(-0.192684 -0.0268057 6.53735e-20)
(-0.194928 0.000808894 4.85798e-21)
(-0.190989 0.0325941 2.14422e-19)
(-0.181228 0.0669936 -1.4902e-19)
(-0.168107 0.1021 0)
(-0.154156 0.133767 -2.46303e-19)
(-0.142523 0.161414 -8.31667e-20)
(-0.135595 0.187295 2.08994e-20)
(-0.131639 0.212544 1.84075e-19)
(-0.130286 0.233448 -1.38176e-19)
(-0.211347 -0.0303962 -1.11464e-20)
(-0.216951 -0.0255842 5.04978e-20)
(-0.234023 -0.00266382 -9.75145e-20)
(-0.242101 0.0250895 1.67712e-19)
(-0.241946 0.0580511 -2.3114e-19)
(-0.233445 0.0938065 2.23389e-19)
(-0.218397 0.129568 -2.17329e-19)
(-0.199515 0.163311 1.82977e-19)
(-0.17989 0.193305 -2.32233e-19)
(-0.16193 0.218519 0)
(-0.146417 0.237639 0)
(-0.133675 0.25116 2.35328e-19)
(-0.228949 -0.009772 1.99541e-20)
(-0.24386 0.00207615 -3.75149e-20)
(-0.265536 0.0244833 4.43476e-20)
(-0.277837 0.0491005 7.51404e-20)
(-0.280109 0.0781289 0)
(-0.271721 0.110433 8.67943e-20)
(-0.254467 0.143289 -1.54427e-19)
(-0.231177 0.174201 -1.09525e-19)
(-0.204732 0.200225 -6.25165e-20)
(-0.17797 0.219291 1.05527e-19)
(-0.152717 0.230975 1.28359e-20)
(-0.129575 0.237741 -1.52224e-19)
(-0.243182 0.0138833 -2.56462e-20)
(-0.261555 0.0301263 5.16769e-20)
(-0.282915 0.0492139 0)
(-0.294447 0.0674736 -7.0964e-20)
(-0.295739 0.088698 0)
(-0.286717 0.113233 6.61934e-20)
(-0.268563 0.139288 -9.06095e-20)
(-0.243303 0.163911 1.19873e-19)
(-0.213812 0.183842 2.18336e-19)
(-0.183036 0.197058 -4.18854e-20)
(-0.153141 0.203694 1.0093e-19)
(-0.124854 0.206169 -4.22983e-20)
(-0.255726 0.0353982 0)
(-0.274163 0.0534889 0)
(-0.290836 0.0672404 0)
(-0.296967 0.0769566 -4.46521e-20)
(-0.293329 0.0885462 3.85203e-20)
(-0.281042 0.103717 0)
(-0.261886 0.121797 0)
(-0.237073 0.139899 3.43975e-20)
(-0.208485 0.155001 -5.96031e-20)
(-0.178498 0.164993 3.26628e-20)
(-0.149103 0.16986 -1.0381e-20)
(-0.120897 0.171208 -1.76688e-20)
(-0.268012 0.0564374 -2.31766e-20)
(-0.289162 0.0745008 3.3226e-20)
(-0.3011 0.0803578 -2.18294e-20)
(-0.300247 0.0787841 4.27503e-20)
(-0.28886 0.0793584 -3.69387e-20)
(-0.269358 0.0861526 0)
(-0.24525 0.0983065 2.43334e-20)
(-0.219053 0.112064 -1.72066e-20)
(-0.192232 0.124208 -4.22942e-20)
(-0.165674 0.133024 1.49304e-20)
(-0.139987 0.138346 0)
(-0.115284 0.140683 7.89859e-21)
(-0.281144 0.0706261 1.062e-20)
(-0.303439 0.0880366 -1.83296e-20)
(-0.304543 0.08137 5.40528e-20)
(-0.293652 0.066218 6.10398e-20)
(-0.276595 0.057453 -1.86521e-20)
(-0.254983 0.0602986 -4.04953e-21)
(-0.229597 0.0710324 -2.18536e-20)
(-0.202432 0.0845775 -4.24187e-22)
(-0.175506 0.0969683 4.19174e-21)
(-0.150168 0.106149 -1.2411e-20)
(-0.127195 0.112039 3.76479e-22)
(-0.106368 0.115367 -5.85598e-21)
(-0.281566 0.0958888 -8.26653e-21)
(-0.289712 0.0976739 8.41624e-21)
(-0.267333 0.0665592 -3.45555e-20)
(-0.245132 0.0353729 -5.61438e-20)
(-0.228598 0.022322 0)
(-0.213227 0.026693 3.17504e-20)
(-0.196548 0.04069 8.12288e-23)
(-0.178546 0.0571051 2.27486e-20)
(-0.159299 0.0716623 -7.78845e-21)
(-0.139082 0.0826446 1.73933e-20)
(-0.11878 0.0898215 -1.18065e-20)
(-0.0992749 0.0940081 1.1681e-20)
(-0.280841 0.0480259 0)
(-0.239124 0.0506223 0)
(-0.192956 0.0202002 0)
(-0.168093 -0.00475157 0)
(-0.159936 -0.011117 -8.15164e-21)
(-0.155867 -0.00165998 -2.6222e-21)
(-0.149805 0.0153057 -5.29274e-21)
(-0.141056 0.0332099 -1.84922e-20)
(-0.130263 0.0487619 1.03285e-20)
(-0.117943 0.0608645 -1.44363e-20)
(-0.104417 0.0695627 -4.40198e-20)
(-0.0900256 0.075322 -2.89501e-20)
(-0.0773427 0.0849401 -3.29019e-19)
(-0.0687015 0.0977294 1.75224e-19)
(-0.0607525 0.107588 0)
(-0.057091 0.108373 0)
(-0.056112 0.103584 3.49168e-19)
(-0.0513456 0.0960091 -6.86111e-19)
(-0.0424976 0.0884942 5.17753e-19)
(-0.0304585 0.0837807 -4.08088e-20)
(-0.0167066 0.0836265 -1.77599e-19)
(-0.00323708 0.0916055 1.77091e-19)
(0.00959926 0.107615 -1.34854e-19)
(0.0178186 0.123499 0)
(-0.103438 0.138766 -2.59313e-19)
(-0.110552 0.152862 1.65286e-20)
(-0.116559 0.159605 -2.75756e-21)
(-0.117947 0.163399 2.52642e-19)
(-0.115066 0.167242 6.87254e-20)
(-0.107636 0.168067 -1.55461e-19)
(-0.0920178 0.164981 2.2062e-19)
(-0.0672023 0.159136 0)
(-0.0348965 0.151195 0)
(-0.00236966 0.139687 -4.30547e-20)
(0.0224221 0.138517 2.04291e-20)
(0.0276425 0.140973 0)
(-0.122989 0.203633 -7.16111e-21)
(-0.130672 0.220508 -8.63568e-20)
(-0.137869 0.236987 2.62768e-19)
(-0.145095 0.251411 -1.79414e-19)
(-0.151254 0.261242 0)
(-0.152679 0.266223 9.90777e-20)
(-0.144794 0.264036 -4.95262e-20)
(-0.12297 0.253159 0)
(-0.0842309 0.231919 5.72555e-20)
(-0.0329037 0.202368 -3.76193e-21)
(0.0127059 0.174137 1.00348e-19)
(0.0236215 0.157961 0)
(-0.131676 0.250896 0)
(-0.135523 0.26913 0)
(-0.142806 0.288219 -7.10955e-20)
(-0.153798 0.305604 -6.1464e-20)
(-0.167017 0.319424 0)
(-0.179915 0.328489 0)
(-0.188544 0.33137 -8.29318e-20)
(-0.186112 0.324879 7.59268e-20)
(-0.164437 0.304288 -8.52632e-20)
(-0.116892 0.266388 3.72573e-20)
(-0.0477462 0.2151 -5.47092e-20)
(0.00714316 0.171642 -3.30654e-24)
(-0.123548 0.263328 -2.07973e-19)
(-0.117033 0.276856 1.48863e-20)
(-0.116305 0.290742 0)
(-0.123152 0.303746 -4.07516e-20)
(-0.137987 0.315514 -5.66457e-20)
(-0.159019 0.325928 1.37011e-19)
(-0.182049 0.334532 -1.30066e-19)
(-0.202928 0.340139 -4.1571e-21)
(-0.213177 0.336649 -3.02267e-20)
(-0.197651 0.315849 -3.47698e-20)
(-0.135679 0.271989 -1.89499e-20)
(-0.0246046 0.207904 -9.69805e-21)
(-0.108589 0.243449 -5.41425e-20)
(-0.0910891 0.249357 1.55575e-19)
(-0.0799613 0.254482 -6.67109e-20)
(-0.078002 0.258427 1.01306e-19)
(-0.0861837 0.261615 5.82373e-20)
(-0.103959 0.266292 1.30233e-19)
(-0.130732 0.276286 -5.91174e-20)
(-0.162629 0.289774 -6.19455e-20)
(-0.197482 0.304079 0)
(-0.224918 0.310554 2.45766e-20)
(-0.212957 0.300391 -2.50908e-20)
(-0.101849 0.25962 8.25123e-21)
(-0.0979875 0.207152 1.40521e-19)
(-0.0734908 0.207038 -8.3777e-21)
(-0.0542954 0.20535 6.39093e-20)
(-0.0440812 0.202672 -5.5337e-20)
(-0.0451305 0.200596 7.14945e-20)
(-0.0573867 0.201644 -1.94625e-19)
(-0.0783654 0.206693 5.16229e-20)
(-0.107036 0.219509 5.62514e-20)
(-0.143552 0.238302 4.54304e-20)
(-0.190189 0.258525 2.11575e-20)
(-0.233088 0.278588 -2.00267e-20)
(-0.17833 0.28431 0)
(-0.0935629 0.170442 6.31546e-21)
(-0.0673706 0.167735 -4.53897e-20)
(-0.0443346 0.162996 -5.59431e-20)
(-0.0278834 0.157123 1.2797e-19)
(-0.0212807 0.152237 -1.07644e-19)
(-0.026133 0.151259 1.28489e-19)
(-0.042002 0.1563 -9.93334e-20)
(-0.0681618 0.168226 3.82693e-20)
(-0.10081 0.186159 -7.42046e-20)
(-0.140721 0.20644 2.5402e-20)
(-0.197769 0.234078 0)
(-0.211578 0.278819 -2.37652e-21)
(-0.0910997 0.140637 1.29871e-20)
(-0.067198 0.138307 6.45796e-22)
(-0.044472 0.133679 2.16183e-20)
(-0.0251729 0.127422 0)
(-0.0123417 0.121341 -2.37153e-20)
(-0.00868552 0.118143 -4.75196e-20)
(-0.0156501 0.120717 5.42126e-20)
(-0.033944 0.130439 0)
(-0.0635846 0.148 2.74798e-20)
(-0.10391 0.171858 -1.6759e-20)
(-0.151494 0.20183 -7.22171e-21)
(-0.195727 0.2611 1.93947e-21)
(-0.0866219 0.116637 8.70565e-21)
(-0.0670405 0.115956 3.77068e-21)
(-0.0474672 0.113214 1.08295e-20)
(-0.0288029 0.108585 -1.26124e-20)
(-0.0130413 0.103058 1.51041e-20)
(-0.00287019 0.0985684 1.8287e-20)
(-0.000955142 0.0978859 1.1155e-20)
(-0.00937401 0.103485 -2.62566e-20)
(-0.0298369 0.118023 -7.18743e-21)
(-0.063146 0.142532 -3.84687e-21)
(-0.108379 0.180803 -8.6515e-21)
(-0.147654 0.244328 -2.76933e-21)
(-0.0811506 0.0962265 -2.08253e-20)
(-0.06426 0.0969663 1.68996e-20)
(-0.0480574 0.0962299 -1.06979e-20)
(-0.0321544 0.0939342 1.10447e-20)
(-0.0169627 0.0903119 -1.07315e-20)
(-0.00404227 0.0862588 -9.50924e-21)
(0.0040747 0.0837212 9.48192e-21)
(0.00459099 0.085427 1.10082e-20)
(-0.00477466 0.095579 8.74969e-22)
(-0.0252503 0.117059 -7.27356e-21)
(-0.0555993 0.158944 3.43642e-22)
(-0.0779727 0.226304 1.21173e-20)
(-0.0751669 0.0787749 -2.60799e-20)
(-0.0603648 0.0805582 6.24089e-21)
(-0.0461143 0.0810749 8.1622e-21)
(-0.03242 0.0805109 -7.32179e-21)
(-0.0191246 0.0788919 -1.53148e-21)
(-0.00653999 0.0763417 -1.4292e-21)
(0.00407322 0.0736893 9.34648e-22)
(0.0106204 0.0728334 2.45213e-21)
(0.0111107 0.0778026 5.22189e-21)
(0.00569737 0.0933539 9.99359e-21)
(-0.000515461 0.132475 0)
(0.0202309 0.196223 0)
(0.0134425 0.131351 -1.11714e-20)
(0.00676996 0.120531 0)
(0.00304566 0.102381 0)
(0.00511107 0.0828156 0)
(0.0115335 0.0662307 -8.53928e-20)
(0.0210724 0.0547021 -4.16969e-19)
(0.0332389 0.0503926 2.50302e-19)
(0.0469412 0.0535838 8.30725e-20)
(0.0600554 0.0617074 2.4205e-19)
(0.0699426 0.0707001 -7.41826e-19)
(0.0747734 0.0772313 4.92673e-19)
(0.0775089 0.0801399 -1.5725e-19)
(-0.0151076 0.147332 1.92893e-20)
(-0.0404261 0.131729 0)
(-0.0418614 0.115568 -3.74438e-20)
(-0.0285172 0.100487 0)
(-0.00854534 0.0865578 7.6696e-20)
(0.0141139 0.0750858 -8.15356e-20)
(0.0372966 0.0657524 1.59315e-19)
(0.0591847 0.0606404 -7.42739e-20)
(0.0771633 0.0627787 2.78008e-19)
(0.0883434 0.0733129 -1.52792e-19)
(0.0967487 0.0888125 -5.60448e-19)
(0.115818 0.098036 2.72996e-19)
(-0.0326613 0.166642 -5.00348e-20)
(-0.0553533 0.152641 3.22364e-20)
(-0.0437521 0.147412 1.02498e-19)
(-0.0192125 0.142106 7.26002e-20)
(0.0096903 0.133902 8.10631e-20)
(0.0409719 0.123701 2.40973e-19)
(0.0710793 0.113318 -3.21766e-19)
(0.0974865 0.103884 0)
(0.118339 0.0991568 0)
(0.135245 0.102921 3.71707e-19)
(0.157342 0.110003 -4.51386e-19)
(0.182788 0.115663 4.60983e-22)
(-0.040809 0.190458 -6.07407e-21)
(-0.0485099 0.184002 -6.10458e-20)
(-0.026779 0.192766 -6.41287e-20)
(0.000759654 0.195023 -2.09407e-19)
(0.0324698 0.191111 2.16038e-19)
(0.0668026 0.181362 0)
(0.101897 0.168229 -1.30753e-20)
(0.133574 0.154204 0)
(0.161228 0.142469 2.17123e-19)
(0.187072 0.13545 -2.10843e-19)
(0.212311 0.131451 3.37893e-19)
(0.233257 0.130064 -2.45293e-19)
(-0.0303772 0.211349 -2.29782e-20)
(-0.025525 0.216977 -3.90065e-21)
(-0.00263024 0.234065 1.04034e-19)
(0.0250459 0.242172 0)
(0.0579163 0.242054 1.03431e-20)
(0.0935865 0.233574 -2.15687e-19)
(0.129318 0.218528 9.04936e-20)
(0.163055 0.199605 -3.83087e-19)
(0.193063 0.179913 3.38334e-19)
(0.21831 0.161884 -1.56448e-19)
(0.237493 0.146321 4.88952e-20)
(0.251062 0.133554 -1.11557e-20)
(-0.00974402 0.228946 -1.9061e-20)
(0.00213735 0.243865 -1.8756e-21)
(0.0245083 0.265535 0)
(0.0490317 0.277846 0)
(0.0779531 0.280159 8.45189e-20)
(0.110174 0.271805 1.73947e-19)
(0.142986 0.254558 1.41628e-19)
(0.173905 0.231259 -2.48878e-19)
(0.199981 0.204783 -1.06051e-19)
(0.219131 0.177979 9.25514e-20)
(0.230903 0.152688 1.70274e-19)
(0.237723 0.129527 -6.64187e-20)
(0.0139159 0.243174 8.24776e-22)
(0.0301792 0.26156 -3.28787e-20)
(0.0492147 0.282904 3.20797e-20)
(0.0673725 0.294425 6.1834e-20)
(0.0884835 0.295719 -1.30937e-19)
(0.112941 0.286713 0)
(0.138961 0.268587 0)
(0.163613 0.243341 1.70449e-19)
(0.18362 0.213849 1.04731e-20)
(0.196935 0.183051 -8.72894e-20)
(0.203661 0.153129 -5.27915e-20)
(0.206193 0.124822 1.68728e-20)
(0.0354414 0.255714 5.94406e-22)
(0.0535432 0.27421 -2.65066e-20)
(0.067225 0.290878 7.44937e-20)
(0.0768365 0.296974 0)
(0.0883188 0.293305 4.03328e-20)
(0.103421 0.281 -1.07458e-19)
(0.12149 0.261851 1.43747e-20)
(0.139628 0.23706 2.98238e-20)
(0.154806 0.208484 1.8336e-20)
(0.164892 0.178488 -5.41724e-20)
(0.16984 0.149071 3.95497e-21)
(0.171246 0.120843 3.62076e-20)
(0.0565207 0.267983 6.20899e-21)
(0.0745984 0.28923 0)
(0.0803346 0.301197 -4.52412e-20)
(0.0786046 0.30033 0)
(0.0790885 0.288911 5.54334e-20)
(0.0858455 0.269369 -4.01131e-20)
(0.0980233 0.245235 4.09773e-20)
(0.111835 0.219029 1.21528e-20)
(0.124053 0.192199 2.6298e-20)
(0.132946 0.16563 -7.90244e-21)
(0.138335 0.139925 -2.28216e-21)
(0.14072 0.115203 5.23218e-21)
(0.0706872 0.281094 -3.68473e-22)
(0.0881061 0.303437 -8.48603e-21)
(0.0812402 0.304497 1.87514e-20)
(0.0659111 0.293551 -2.73789e-20)
(0.0570958 0.276497 -7.47006e-21)
(0.0599569 0.254925 -1.82296e-20)
(0.0707408 0.229582 -8.13439e-21)
(0.0843628 0.202435 -2.54756e-21)
(0.0968392 0.175494 3.37888e-21)
(0.106095 0.150125 1.94219e-20)
(0.11204 0.127118 7.03105e-21)
(0.115405 0.106266 1.73286e-20)
(0.0959308 0.281597 -7.57108e-22)
(0.0977159 0.28967 -8.34321e-21)
(0.0663799 0.267214 0)
(0.0350685 0.244996 2.18552e-20)
(0.0219986 0.228493 -8.98994e-21)
(0.0264063 0.213161 -3.14762e-20)
(0.0404604 0.196514 8.06248e-21)
(0.0569435 0.178533 1.54846e-20)
(0.0715686 0.159295 0)
(0.0826127 0.139067 -1.76932e-20)
(0.0898353 0.118733 -2.81941e-20)
(0.0940517 0.0991885 -1.73859e-20)
(0.0481265 0.281001 -6.73376e-21)
(0.050559 0.239085 6.61479e-21)
(0.0199894 0.192863 0)
(-0.00498639 0.16804 -3.87539e-20)
(-0.0113301 0.159957 7.98916e-21)
(-0.00183712 0.155939 2.49215e-21)
(0.0151765 0.149901 0)
(0.0331358 0.141148 1.45244e-20)
(0.0487425 0.130334 -4.90371e-20)
(0.0608946 0.117987 -1.38416e-21)
(0.0696311 0.104429 1.1478e-20)
(0.0754126 0.0900017 0)
(0.0848881 0.0773074 -4.85553e-19)
(0.0976324 0.0687047 -1.94956e-22)
(0.10751 0.0607336 2.51355e-19)
(0.108332 0.0570319 0)
(0.103548 0.0560498 0)
(0.0959667 0.051303 0)
(0.0884394 0.0424697 1.76453e-19)
(0.0837117 0.0304344 -3.96611e-19)
(0.0835494 0.0166754 8.84436e-20)
(0.0915343 0.00319391 8.83686e-20)
(0.107566 -0.00964418 -1.3512e-19)
(0.123484 -0.0178468 1.10031e-20)
(0.138542 0.103238 1.38203e-19)
(0.152698 0.110348 3.70886e-19)
(0.159449 0.116393 -5.03491e-19)
(0.16322 0.117827 2.53067e-19)
(0.167045 0.114968 2.70955e-19)
(0.167869 0.107573 -1.14881e-19)
(0.16479 0.0919905 -2.9286e-19)
(0.158961 0.0671966 0)
(0.15106 0.0348873 8.73927e-20)
(0.139597 0.00233256 0)
(0.138459 -0.0224979 6.00712e-20)
(0.140957 -0.0277199 -5.87773e-20)
(0.203404 0.122713 1.94988e-19)
(0.220263 0.130414 -1.40352e-20)
(0.236713 0.137634 0)
(0.251126 0.144879 -1.86618e-19)
(0.260947 0.151067 4.65248e-19)
(0.265928 0.152523 -8.57697e-20)
(0.263758 0.144659 0)
(0.252919 0.122836 0)
(0.231735 0.0840786 -5.746e-20)
(0.202258 0.032734 -1.26561e-19)
(0.174104 -0.0128604 6.8947e-20)
(0.157958 -0.0237374 8.52685e-21)
(0.250707 0.131448 -1.25313e-19)
(0.268914 0.135303 5.884e-20)
(0.28799 0.142599 -2.60455e-19)
(0.305376 0.153611 1.29993e-19)
(0.319202 0.166856 6.95103e-20)
(0.328275 0.179771 -1.41974e-19)
(0.331165 0.188402 0)
(0.324683 0.185938 -7.61878e-20)
(0.304102 0.16419 8.55857e-20)
(0.26622 0.116561 4.94706e-20)
(0.214978 0.0474212 2.33927e-20)
(0.171632 -0.00727761 -1.27677e-20)
(0.263236 0.123422 9.72224e-20)
(0.276773 0.11691 0)
(0.290685 0.116191 1.04801e-19)
(0.303719 0.123055 -2.03884e-19)
(0.315517 0.137915 -1.26977e-19)
(0.325959 0.158978 1.89339e-19)
(0.334576 0.182027 4.15967e-21)
(0.340173 0.202886 7.12711e-20)
(0.336646 0.213051 -9.99365e-20)
(0.315783 0.197373 6.14461e-20)
(0.271849 0.135281 -7.16475e-20)
(0.207785 0.024376 3.2012e-20)
(0.243461 0.108534 -8.80619e-20)
(0.24941 0.0910324 -1.29458e-19)
(0.254586 0.0799074 -6.69094e-20)
(0.25858 0.0779575 2.01595e-19)
(0.261813 0.0861604 -3.08634e-21)
(0.266529 0.103972 -3.11252e-19)
(0.276544 0.130786 2.54831e-19)
(0.290039 0.162717 0)
(0.304319 0.197559 0)
(0.310728 0.22487 -2.769e-20)
(0.300429 0.212643 2.21799e-20)
(0.259495 0.10144 1.86073e-24)
(0.207223 0.0979433 7.25419e-20)
(0.20716 0.0734361 2.28216e-20)
(0.205525 0.0542321 8.10317e-20)
(0.202892 0.044018 7.03498e-20)
(0.200851 0.0450829 -1.70488e-19)
(0.201918 0.0573737 1.13099e-19)
(0.20697 0.0783847 -6.40054e-20)
(0.219804 0.107089 0)
(0.238602 0.143663 0)
(0.258817 0.190329 0)
(0.278827 0.233054 -1.12044e-20)
(0.284296 0.177987 -5.89079e-21)
(0.170525 0.0934909 -4.49512e-20)
(0.167859 0.0672802 5.32259e-21)
(0.163156 0.0442244 6.52436e-21)
(0.157309 0.0277603 1.65217e-20)
(0.15244 0.0211626 0)
(0.151472 0.0260459 0)
(0.156522 0.041967 -6.23499e-20)
(0.168459 0.0681885 0)
(0.186389 0.100865 0)
(0.206646 0.14083 -1.58738e-20)
(0.234339 0.197898 1.48598e-20)
(0.278881 0.211432 -1.87816e-21)
(0.14071 0.0910004 -2.18052e-21)
(0.138406 0.0670781 0)
(0.133794 0.0443279 2.9764e-20)
(0.127542 0.0250073 -2.82837e-21)
(0.121458 0.012169 -2.61135e-20)
(0.118253 0.00853003 -1.00092e-20)
(0.120829 0.015539 9.63234e-20)
(0.130562 0.0338981 -2.20665e-20)
(0.148137 0.0636115 2.21134e-20)
(0.17199 0.103988 0)
(0.20199 0.151584 1.63643e-21)
(0.26115 0.195738 -4.6212e-21)
(0.1167 0.0865035 -3.63777e-21)
(0.116033 0.0669075 -2.44044e-21)
(0.113296 0.0473162 1.11868e-21)
(0.10866 0.0286313 -7.36389e-21)
(0.103113 0.0128544 -1.16753e-20)
(0.0985988 0.00268352 -2.82739e-20)
(0.0978961 0.000790711 -1.14171e-20)
(0.103486 0.00925645 1.16883e-20)
(0.118034 0.0297938 -7.86121e-21)
(0.142568 0.0631883 0)
(0.180879 0.108481 -5.89237e-21)
(0.244314 0.147715 -2.22408e-22)
(0.0962885 0.0810324 0)
(0.0970363 0.0641221 0)
(0.0962978 0.0479073 -2.30389e-21)
(0.093989 0.0319941 0)
(0.0903411 0.016793 1.78138e-20)
(0.0862519 0.00386789 5.85419e-21)
(0.0836748 -0.00424266 6.14707e-21)
(0.0853472 -0.00473513 0)
(0.0954847 0.00467902 1.22829e-20)
(0.116989 0.0252238 0)
(0.158933 0.0556456 1.30872e-21)
(0.226283 0.0780526 -6.54854e-21)
(0.0788728 0.0751022 0)
(0.0806502 0.0602636 2.89623e-20)
(0.0811524 0.0459883 -7.68564e-21)
(0.0805669 0.0322811 0)
(0.0789178 0.0189817 -7.51232e-21)
(0.0763273 0.00639809 -4.47074e-21)
(0.0736259 -0.0042102 -6.39205e-21)
(0.0727177 -0.0107472 -3.48667e-21)
(0.0776454 -0.0112186 -4.67385e-21)
(0.0931861 -0.00576719 0)
(0.132337 0.000509136 3.13767e-20)
(0.19607 -0.0201544 7.39107e-21)
(-0.0792779 0.0427267 3.45585e-21)
(-0.0720988 0.0135318 -3.54522e-21)
(-0.0691115 -0.0134132 0)
(-0.0797445 -0.0278414 0)
(-0.0952348 -0.0262934 0)
(-0.106306 -0.0137978 -9.10577e-21)
(-0.110352 0.00263728 2.73893e-22)
(-0.108539 0.0182852 1.558e-20)
(-0.10269 0.0310741 -1.00048e-20)
(-0.0942465 0.0406666 2.63494e-20)
(-0.084179 0.0475779 2.74507e-20)
(-0.0731691 0.0525868 -1.6748e-21)
(-0.0210603 0.0345521 3.33432e-21)
(-0.0150265 0.0116117 -5.83681e-21)
(-0.0238715 -0.00941743 -6.69887e-21)
(-0.0421366 -0.0210782 -1.88718e-20)
(-0.0606886 -0.0212236 -3.97538e-21)
(-0.0740316 -0.0134704 1.30753e-20)
(-0.0810401 -0.00247814 -1.10008e-20)
(-0.082576 0.00851732 5.02681e-21)
(-0.0799772 0.0179063 0)
(-0.0745682 0.0252832 1.26542e-20)
(-0.0674004 0.0309068 -1.26757e-20)
(-0.0589305 0.0353681 5.31893e-20)
(-0.00944651 0.0267423 -1.2776e-21)
(-0.00326551 0.0107907 1.65327e-20)
(-0.00947421 -0.0058261 0)
(-0.0234221 -0.0170293 4.89257e-21)
(-0.038153 -0.0195315 -1.60921e-20)
(-0.0499227 -0.0152256 4.38624e-22)
(-0.0575019 -0.0076579 -4.41341e-22)
(-0.0609917 0.000346553 7.56822e-21)
(-0.0609585 0.00733547 -7.59552e-21)
(-0.0580207 0.0129865 0)
(-0.0528883 0.0174033 1.22166e-20)
(-0.0463094 0.0208997 -6.22191e-20)
(-0.00649008 0.0219705 0)
(-0.00110431 0.00999076 -6.30448e-21)
(-0.00455937 -0.00265553 -6.14946e-21)
(-0.013699 -0.0115264 1.3722e-20)
(-0.0236602 -0.0147419 1.10701e-20)
(-0.0324887 -0.0134406 -5.65062e-22)
(-0.0392183 -0.00970008 3.38609e-22)
(-0.0436888 -0.00510285 6.43584e-21)
(-0.0462236 -0.000331183 2.94597e-20)
(-0.0469728 0.00459119 -8.4632e-21)
(-0.0451149 0.00909675 0)
(-0.0393004 0.0120172 2.35398e-20)
(-0.0618045 0.0565256 2.41562e-20)
(-0.0506474 0.0600185 -1.98886e-20)
(-0.0399372 0.0630055 0)
(-0.0293077 0.0652466 1.43902e-20)
(-0.0185343 0.0664503 -8.83091e-21)
(-0.00766013 0.0663249 4.9218e-21)
(0.00284261 0.0649277 -9.32463e-22)
(0.0119413 0.0631274 0)
(0.0184177 0.0631351 0)
(0.0237206 0.0674918 0)
(0.030612 0.0764845 0)
(0.0673116 0.0819518 0)
(-0.0492591 0.0394151 1.20625e-20)
(-0.039093 0.0434988 -1.53391e-21)
(-0.0297717 0.0470829 -3.11777e-20)
(-0.0212178 0.0502857 -7.37676e-21)
(-0.0132664 0.0531033 7.33231e-21)
(-0.00540259 0.0551246 0)
(0.00284204 0.055735 1.32026e-20)
(0.0113883 0.0546251 4.54046e-21)
(0.0196253 0.0523903 -1.47953e-20)
(0.0276981 0.0495968 -3.96023e-21)
(0.0352683 0.0469173 3.94356e-21)
(0.0487723 0.03758 -1.50584e-21)
(-0.0386798 0.0243397 2.56434e-20)
(-0.0301926 0.0288355 1.04911e-20)
(-0.0222762 0.0327058 8.98507e-21)
(-0.0140796 0.0361166 2.70179e-20)
(-0.0065281 0.0393967 -8.37599e-21)
(-5.92281e-05 0.0424172 -1.50348e-20)
(0.0057325 0.0445715 -1.25197e-20)
(0.0116114 0.0450357 -1.5916e-20)
(0.0179433 0.043366 1.88776e-20)
(0.0245465 0.0392733 0)
(0.0298562 0.0334379 0)
(0.0338016 0.0233266 1.44244e-21)
(-0.030351 0.0139818 2.2643e-20)
(-0.0224034 0.017847 9.62903e-21)
(-0.015781 0.0225873 -9.66851e-21)
(-0.00847014 0.0260406 -2.63704e-20)
(-0.00116478 0.0287158 8.65203e-21)
(0.005314 0.0310419 -1.32789e-21)
(0.0105521 0.0330197 0)
(0.0148741 0.0340517 3.43747e-20)
(0.0188168 0.0333812 -2.05995e-20)
(0.0226712 0.0304106 0)
(0.0255971 0.0250648 0)
(0.0270775 0.0168449 1.36567e-21)
(0.0427303 0.0793867 3.37136e-21)
(0.0134978 0.0719296 -1.30635e-20)
(-0.0135235 0.0690173 2.70151e-20)
(-0.0279839 0.0797303 3.38833e-20)
(-0.0264462 0.0952705 0)
(-0.0139348 0.106397 0)
(0.00254385 0.110486 5.86766e-21)
(0.0182531 0.108693 -2.25022e-20)
(0.0311068 0.102841 3.60093e-20)
(0.0407557 0.0943783 -9.4232e-23)
(0.0477072 0.0842785 -1.45606e-20)
(0.0527364 0.0732281 0)
(0.034407 0.0212641 0)
(0.0114191 0.0151762 -6.54096e-21)
(-0.00958045 0.0239479 -9.69905e-21)
(-0.0212166 0.042156 -1.83514e-20)
(-0.0213501 0.0607133 -1.04226e-20)
(-0.013571 0.0741012 0)
(-0.00252874 0.0811608 0)
(0.00853087 0.0827364 0)
(0.0179834 0.0801571 0)
(0.0254114 0.0747449 0)
(0.0310672 0.0675539 2.66187e-20)
(0.0355423 0.0590481 0)
(0.0265272 0.00973446 0)
(0.0105459 0.00354134 -6.25413e-21)
(-0.0060327 0.0096726 0)
(-0.0171721 0.0235294 1.74819e-20)
(-0.0196255 0.0382281 9.90605e-21)
(-0.0152732 0.050012 4.82961e-21)
(-0.00764856 0.0576276 -4.39439e-21)
(0.00041629 0.0611567 1.64974e-20)
(0.00745885 0.0611506 0)
(0.0131486 0.0582203 1.15157e-20)
(0.0175852 0.0530747 -1.15304e-20)
(0.0210841 0.0464654 2.51109e-20)
(0.0219325 0.00690811 -6.71612e-23)
(0.00990883 0.00146688 5.97871e-21)
(-0.00278725 0.00477825 -1.13391e-20)
(-0.0116682 0.0137903 0)
(-0.0148525 0.023717 0)
(-0.0134853 0.0325642 -1.05858e-21)
(-0.00966585 0.039329 3.53161e-21)
(-0.00500406 0.0438307 -4.77038e-21)
(-0.000190605 0.046383 -1.53364e-20)
(0.00475423 0.0471377 0)
(0.00926664 0.0452741 0)
(0.0121823 0.0394386 -2.37796e-20)
(0.0566774 0.0618223 0)
(0.0601605 0.0506224 -4.29332e-20)
(0.0631235 0.0398712 0)
(0.0653285 0.0292136 0)
(0.0664898 0.0184287 -1.40616e-20)
(0.0663178 0.00755651 1.16997e-20)
(0.0648682 -0.00293667 5.74753e-22)
(0.0630086 -0.0120252 3.28673e-21)
(0.0629547 -0.0184962 0)
(0.0672634 -0.0237927 5.96206e-21)
(0.0762176 -0.0306803 -9.09888e-21)
(0.0817038 -0.0673626 -9.45292e-21)
(0.0395856 0.0493347 -2.62892e-20)
(0.0436519 0.0391229 3.2177e-20)
(0.0472113 0.0297604 -1.93885e-20)
(0.0503807 0.0211757 8.82896e-21)
(0.0531565 0.0132054 1.60324e-20)
(0.0551301 0.00533794 -8.33483e-21)
(0.0556878 -0.0028958 -8.62146e-21)
(0.0545195 -0.0114258 1.06519e-20)
(0.0522193 -0.0196528 -9.86262e-21)
(0.0493602 -0.0277295 0)
(0.0466183 -0.0353047 -1.97725e-20)
(0.0372527 -0.0488429 3.29706e-21)
(0.0245136 0.0387942 1.058e-20)
(0.0289906 0.0302629 -1.17074e-20)
(0.0328387 0.0223071 0)
(0.0362192 0.0140831 -1.01039e-20)
(0.0394605 0.00651464 -8.23724e-21)
(0.0424355 4.17408e-05 -6.79077e-21)
(0.0445384 -0.00573884 6.76787e-21)
(0.0449466 -0.0115968 -2.65597e-20)
(0.0432165 -0.0179117 4.7849e-21)
(0.0390548 -0.0245181 0)
(0.0331459 -0.0298673 6.7686e-21)
(0.022972 -0.0338988 -2.34627e-21)
(0.014137 0.0304566 2.43834e-20)
(0.0179886 0.0224738 9.61267e-21)
(0.0227145 0.0158174 -2.98573e-20)
(0.0261489 0.00848189 8.87809e-21)
(0.0287953 0.0011631 7.78997e-22)
(0.0310832 -0.00531666 -7.50165e-21)
(0.0330117 -0.0105445 -1.45551e-20)
(0.0339836 -0.0148474 2.91904e-20)
(0.0332452 -0.018768 7.24261e-22)
(0.0301903 -0.02261 0)
(0.0247292 -0.0255409 -3.62052e-21)
(0.0163855 -0.0270502 -3.19434e-22)
)
;

boundaryField
{
    rotor
    {
        type            movingWallVelocity;
        value           nonuniform List<vector> 
96
(
(-0.12552 0.00410819 -2.60209e-16)
(-0.124983 0.0123088 6.64999e-22)
(-0.12391 0.0204567 -2.60209e-16)
(-0.122307 0.028517 2.6021e-16)
(-0.12018 0.0364553 2.60207e-16)
(-0.117538 0.0442374 0)
(-0.114394 0.05183 0)
(-0.110759 0.0592007 -2.66e-21)
(-0.10665 0.066318 -2.60211e-16)
(-0.102084 0.0731512 0)
(-0.0970811 0.0796712 0)
(-0.0916625 0.08585 0)
(-0.0858513 0.0916612 -2.60209e-16)
(-0.0796726 0.0970799 -2.60209e-16)
(-0.0731527 0.102083 -2.60209e-16)
(-0.0663195 0.106649 2.60209e-16)
(-0.0592024 0.110758 -5.20414e-16)
(-0.0518317 0.114393 0)
(-0.0442391 0.117538 -2.60209e-16)
(-0.036457 0.12018 -1.33e-21)
(-0.0285188 0.122307 0)
(-0.0204586 0.12391 2.6021e-16)
(-0.0123106 0.124983 -2.60209e-16)
(-0.00411003 0.12552 -2.60209e-16)
(0.00410819 0.12552 0)
(0.0123088 0.124983 0)
(0.0204567 0.12391 -2.60209e-16)
(0.0285171 0.122307 0)
(0.0364553 0.12018 0)
(0.0442374 0.117538 -5.2042e-16)
(0.05183 0.114394 -2.60211e-16)
(0.0592007 0.110759 0)
(0.066318 0.10665 -2.60211e-16)
(0.0731512 0.102084 -2.60211e-16)
(0.0796712 0.0970811 0)
(0.08585 0.0916625 2.60209e-16)
(0.0916612 0.0858513 -2.60209e-16)
(0.0970799 0.0796726 0)
(0.102083 0.0731527 5.20414e-16)
(0.106649 0.0663195 -2.60209e-16)
(0.110758 0.0592024 -2.60209e-16)
(0.114393 0.0518317 0)
(0.117538 0.0442391 0)
(0.12018 0.036457 -2.6021e-16)
(0.122307 0.0285188 2.60209e-16)
(0.12391 0.0204586 -2.60209e-16)
(0.124983 0.0123106 -2.60209e-16)
(0.12552 0.00411003 0)
(-0.133508 0.00139717 0)
(-0.149215 0.00156154 0)
(-0.164922 0.00172591 -5.20417e-16)
(-0.180629 0.00189029 0)
(-0.196336 0.00205466 -5.20417e-16)
(-0.212043 0.00221903 -2.60209e-16)
(-0.227749 0.0023834 1.25556e-38)
(-0.243456 0.00254778 0)
(-0.259163 0.00271215 0)
(-0.27487 0.00287652 -1.0762e-38)
(-0.290577 0.0030409 -2.60209e-16)
(-0.306284 0.00320527 2.60209e-16)
(0.00139717 0.133508 -2.60209e-16)
(0.00156154 0.149215 0)
(0.00172591 0.164922 0)
(0.00189029 0.180629 -2.60209e-16)
(0.00205466 0.196336 2.60209e-16)
(0.00221903 0.212043 0)
(0.00238341 0.227749 0)
(0.00254778 0.243456 2.60209e-16)
(0.00271215 0.259163 0)
(0.00287652 0.27487 -5.20417e-16)
(0.0030409 0.290577 2.60209e-16)
(0.00320527 0.306284 0)
(0.00139717 0.133508 0)
(0.00156154 0.149215 0)
(0.00172591 0.164922 -2.60209e-16)
(0.00189029 0.180629 -2.60209e-16)
(0.00205466 0.196336 2.60209e-16)
(0.00221903 0.212043 0)
(0.00238341 0.227749 -2.60209e-16)
(0.00254778 0.243456 2.60209e-16)
(0.00271215 0.259163 -2.60209e-16)
(0.00287652 0.27487 0)
(0.0030409 0.290577 2.60209e-16)
(0.00320527 0.306284 -2.60209e-16)
(0.133508 -0.00139717 0)
(0.149215 -0.00156154 2.60209e-16)
(0.164922 -0.00172591 0)
(0.180629 -0.00189029 -3.58732e-39)
(0.196336 -0.00205466 2.60209e-16)
(0.212043 -0.00221903 7.17465e-39)
(0.227749 -0.00238341 -2.60209e-16)
(0.243456 -0.00254778 1.0762e-38)
(0.259163 -0.00271215 2.60209e-16)
(0.27487 -0.00287652 0)
(0.290577 -0.0030409 2.60209e-16)
(0.306284 -0.00320527 2.60209e-16)
)
;
    }
    stator
    {
        type            movingWallVelocity;
        value           nonuniform 0();
    }
    AMI1
    {
        type            cyclicAMI;
        value           nonuniform List<vector> 
48
(
(-0.0044949 0.0213585 -3.27286e-22)
(0.000830711 0.0108285 -3.17418e-21)
(-0.00150865 -0.000794419 -8.47043e-21)
(-0.00951352 -0.00914476 1.26626e-20)
(-0.0181006 -0.0126801 5.57418e-21)
(-0.0256638 -0.0129286 6.77906e-22)
(-0.0317435 -0.0109832 -1.69159e-21)
(-0.0361488 -0.00774645 1.42678e-20)
(-0.0392302 -0.00361198 1.9542e-20)
(-0.0420633 0.00221113 -1.90511e-20)
(-0.0450009 0.0085736 -5.48107e-21)
(-0.0433629 0.0104689 -1.40058e-20)
(-0.0314548 0.00783538 -1.63556e-20)
(-0.0179355 0.0131603 1.08738e-20)
(-0.0160055 0.0213734 -1.09194e-20)
(-0.00932785 0.023935 -1.32775e-20)
(-0.00239384 0.0260382 4.35607e-21)
(0.00474216 0.0275674 2.3498e-20)
(0.0110852 0.0285165 -2.82956e-21)
(0.0162049 0.0287544 2.42159e-20)
(0.0202524 0.0278868 -1.03705e-20)
(0.0235491 0.0253274 -4.94331e-21)
(0.0257669 0.0206871 -2.32598e-21)
(0.026223 0.013508 1.52377e-21)
(0.0212543 0.0048135 7.91572e-24)
(0.0105816 -0.000550671 1.51969e-21)
(-0.00104021 0.00166781 -1.27912e-20)
(-0.00932564 0.00957055 -7.95192e-25)
(-0.0128093 0.0181043 7.69575e-21)
(-0.0129769 0.0257025 -7.29574e-22)
(-0.0109494 0.0318288 4.26909e-21)
(-0.0076602 0.0362653 -2.40148e-21)
(-0.00349722 0.0393608 1.42321e-21)