/*--------------------------------*- C++ -*----------------------------------*\
| =========                 |                                                 |
| \\      /  F ield         | OpenFOAM: The Open Source CFD Toolbox           |
|  \\    /   O peration     | Version:  2.3.1                                 |
|   \\  /    A nd           | Web:      www.OpenFOAM.org                      |
|    \\/     M anipulation  |                                                 |
\*---------------------------------------------------------------------------*/
FoamFile
{
    version     2.0;
    format      ascii;
    class       volScalarField;
    location    "0.81";
    object      nut;
}
// * * * * * * * * * * * * * * * * * * * * * * * * * * * * * * * * * * * * * //

dimensions      [0 2 -1 0 0 0 0];

internalField   nonuniform List<scalar> 
1000
(
0.000533343
0.000539497
0.000539688
0.000539684
0.000539681
0.00053968
0.000539678
0.000539677
0.000539656
0.000539138
0.000539772
0.00054161
0.00054176
0.000541767
0.000541767
0.000541766
0.000541763
0.000541755
0.000541606
0.000539496
0.000540406
0.000542273
0.000542452
0.000542464
0.000542467
0.000542465
0.00054246
0.000542447
0.000542269
0.000539904
0.000540946
0.000542995
0.000543201
0.000543225
0.000543232
0.000543231
0.000543222
0.0005432
0.000542999
0.000540465
0.000541373
0.000543752
0.000543992
0.000544024
0.000544034
0.000544033
0.000544026
0.000543997
0.000543772
0.000540912
0.000539631
0.000541132
0.000541282
0.000541301
0.000541307
0.00054131
0.00054131
0.000541306
0.000541185
0.000539479
0.000541339
0.00104451
0.00109256
0.001095
0.00109517
0.00109524
0.00109527
0.00109367
0.00104878
0.000541078
0.000541837
0.0011022
0.00115932
0.00116211
0.00116222
0.00116223
0.00116218
0.00116009
0.00110631
0.000541571
0.000542331
0.00110626
0.00116421
0.00116704
0.00116715
0.00116715
0.00116709
0.00116493
0.00111012
0.000542068
0.000542812
0.00110813
0.00116724
0.00117025
0.00117041
0.00117041
0.00117031
0.00116797
0.00111192
0.000542556
0.000540172
0.000541543
0.000541695
0.000541713
0.00054172
0.000541723
0.000541724
0.00054172
0.000541585
0.000539765
0.000541683
0.00109332
0.00114903
0.0011518
0.00115195
0.001152
0.00115201
0.00115006
0.00109772
0.00054144
0.000542121
0.00115747
0.00122456
0.00122792
0.00122804
0.00122805
0.00122799
0.00122545
0.00116225
0.000541888
0.000542546
0.00116142
0.00122949
0.00123291
0.00123304
0.00123304
0.00123297
0.00123035
0.00116607
0.000542311
0.000543035
0.0011618
0.00123068
0.00123421
0.00123436
0.00123436
0.00123427
0.00123154
0.00116639
0.000542801
0.0005404
0.000541763
0.00054191
0.000541926
0.000541932
0.000541935
0.000541936
0.000541931
0.000541795
0.000539968
0.000541872
0.00109902
0.00115525
0.00115798
0.0011581
0.00115813
0.00115813
0.00115612
0.00110297
0.000541627
0.000542261
0.00116073
0.00122818
0.00123155
0.00123167
0.00123168
0.00123162
0.00122905
0.00116535
0.00054203
0.000542631
0.00116426
0.00123259
0.00123602
0.00123615
0.00123615
0.00123608
0.00123344
0.00116886
0.000542397
0.000543096
0.00116433
0.0012331
0.00123658
0.00123671
0.00123671
0.00123663
0.00123395
0.00116888
0.00054286
0.000540524
0.000541884
0.000542027
0.00054204
0.000542046
0.000542048
0.000542049
0.000542043
0.000541906
0.000540074
0.000541981
0.00110275
0.00115929
0.00116202
0.00116214
0.00116216
0.00116213
0.00116007
0.00110645
0.000541728
0.00054234
0.00116147
0.00122882
0.00123217
0.00123229
0.00123229
0.00123223
0.00122966
0.00116597
0.000542105
0.000542682
0.00116462
0.00123268
0.00123608
0.00123621
0.00123621
0.00123614
0.00123352
0.00116914
0.000542444
0.000543123
0.00116476
0.00123297
0.00123639
0.00123652
0.00123652
0.00123644
0.00123381
0.00116924
0.000542884
0.000540543
0.000541949
0.000542095
0.000542108
0.000542113
0.000542115
0.000542115
0.000542108
0.000541967
0.000540083
0.000542007
0.00110516
0.00116191
0.00116463
0.00116473
0.00116473
0.00116468
0.00116259
0.00110865
0.000541749
0.000542368
0.00116191
0.00122917
0.00123252
0.00123264
0.00123264
0.00123257
0.00123
0.0011663
0.000542129
0.000542716
0.00116484
0.0012327
0.00123608
0.00123621
0.00123621
0.00123614
0.00123353
0.00116926
0.000542476
0.000543163
0.00116512
0.00123296
0.00123634
0.00123647
0.00123647
0.0012364
0.00123378
0.00116951
0.00054292
0.000540462
0.000541985
0.00054214
0.000542154
0.000542159
0.00054216
0.000542159
0.00054215
0.000542
0.000539997
0.000541953
0.00110553
0.00116229
0.001165
0.0011651
0.0011651
0.00116505
0.00116295
0.00110898
0.000541689
0.000542351
0.00116191
0.00122908
0.00123242
0.00123254
0.00123254
0.00123248
0.00122991
0.00116625
0.000542107
0.000542747
0.00116476
0.0012325
0.00123588
0.00123601
0.00123601
0.00123594
0.00123333
0.00116915
0.000542502
0.000543243
0.00116503
0.00123273
0.00123611
0.00123624
0.00123624
0.00123616
0.00123355
0.00116939
0.000542995
0.00054028
0.00054191
0.000542073
0.000542088
0.000542093
0.000542094
0.000542092
0.000542081
0.000541922
0.000539811
0.000541808
0.00110283
0.00115905
0.00116173
0.00116183
0.00116183
0.00116178
0.0011597
0.00110621
0.000541539
0.000542268
0.00115795
0.00122425
0.00122753
0.00122764
0.00122764
0.00122758
0.00122505
0.00116219
0.000542018
0.000542743
0.00115995
0.0012266
0.00122988
0.00122999
0.00122999
0.00122994
0.0012274
0.00116421
0.000542491
0.000543333
0.00115878
0.001225
0.00122824
0.00122834
0.00122834
0.00122829
0.00122578
0.00116297
0.000543077
0.000539982
0.000541562
0.000541714
0.000541729
0.000541733
0.000541734
0.000541731
0.00054172
0.00054157
0.000539508
0.00054146
0.00104588
0.00109302
0.00109515
0.00109519
0.00109518
0.00109516
0.00109349
0.00104849
0.000541171
0.000541984
0.00108861
0.00114281
0.00114528
0.0011453
0.00114529
0.00114529
0.00114339
0.00109182
0.00054171
0.000542549
0.00108378
0.00113705
0.00113935
0.0011393
0.00113929
0.00113935
0.0011376
0.00108693
0.00054227
0.000543284
0.00107094
0.0011216
0.00112355
0.00112341
0.0011234
0.00112354
0.0011221
0.00107385
0.000542999
0.000539169
0.000539231
0.00053924
0.000539243
0.000539244
0.000539245
0.000539244
0.000539241
0.000539217
0.000538664
0.00053958
0.000541
0.000541147
0.000541162
0.000541166
0.000541167
0.000541163
0.000541151
0.000541009
0.000539091
0.000540085
0.000541641
0.000541817
0.000541842
0.00054185
0.000541851
0.000541843
0.000541822
0.000541651
0.000539598
0.000540762
0.000542352
0.000542552
0.00054259
0.000542603
0.000542604
0.00054259
0.000542554
0.000542357
0.000540274
0.000541813
0.000543551
0.000543801
0.00054386
0.000543878
0.000543878
0.000543858
0.000543797
0.000543554
0.000541335
0.0005443
0.000548071
0.000548679
0.000548709
0.000548697
0.000548695
0.000548699
0.000548668
0.000548134
0.000543876
0.000554554
0.000594714
0.000600221
0.000598574
0.000597785
0.000597743
0.000598437
0.000600089
0.000595843
0.00055478
0.000644574
0.000912907
0.000941792
0.000931101
0.000926664
0.000926441
0.000930334
0.000941086
0.000918509
0.000649603
0.000991764
0.00166566
0.00173626
0.00172592
0.00172022
0.00171982
0.00172462
0.00173527
0.00167558
0.00100584
0.00158505
0.00274409
0.00287683
0.0028823
0.0028802
0.00287972
0.00288087
0.00287604
0.00275713
0.00160405
0.000544436
0.00104234
0.00108729
0.00108846
0.00108816
0.00108815
0.00108844
0.00108768
0.0010448
0.000544157
0.000546138
0.00100999
0.00104904
0.00105039
0.00105022
0.00105022
0.00105039
0.00104942
0.00101207
0.000545923
0.000558089
0.000943028
0.000972594
0.000984494
0.000987745
0.000987815
0.000984789
0.000973271
0.000943049
0.000558514
0.000698899
0.000686296
0.000703712
0.000710908
0.000713939
0.000713925
0.000710967
0.000703866
0.000688727
0.000705032
0.0018737
0.00366937
0.00380817
0.00381262
0.00381042
0.00381004
0.00381155
0.00380837
0.00368424
0.00189801
0.000543977
0.00115498
0.00122028
0.00122342
0.0012235
0.0012235
0.00122346
0.00122103
0.00115906
0.000543731
0.000544823
0.00114583
0.00120858
0.00121134
0.0012113
0.0012113
0.00121138
0.0012093
0.00114972
0.000544595
0.000547029
0.00110926
0.00116246
0.00116747
0.00116835
0.00116838
0.0011676
0.0011632
0.00111196
0.00054692
0.000636013
0.000635309
0.000643644
0.000647494
0.000648743
0.000648762
0.000647598
0.000643872
0.000635883
0.000639699
0.00190932
0.0037108
0.00381539
0.00381578
0.0038135
0.00381333
0.00381538
0.00381677
0.00372602
0.00193382
0.000543601
0.00116551
0.00123345
0.00123691
0.00123706
0.00123706
0.00123696
0.00123428
0.00116987
0.000543359
0.000544348
0.00116291
0.00123011
0.00123341
0.0012335
0.0012335
0.00123346
0.00123092
0.00116721
0.000544117
0.000545688
0.00109911
0.0011522
0.00115533
0.00115531
0.00115529
0.00115532
0.00115271
0.00110169
0.00054555
0.000628399
0.000597782
0.000603702
0.000605192
0.000605665
0.000605676
0.000605241
0.000603847
0.000598318
0.000631844
0.00196641
0.00382708
0.00392823
0.00393277
0.00393221
0.00393216
0.0039328
0.00393044
0.00384333
0.00199264
0.000543386
0.00116592
0.00123416
0.00123764
0.00123779
0.00123779
0.00123769
0.001235
0.00117034
0.000543146
0.000544111
0.00116427
0.00123211
0.00123548
0.00123558
0.00123558
0.00123553
0.00123294
0.00116864
0.000543879
0.000545112
0.00110366
0.00115707
0.00115914
0.00115877
0.00115873
0.00115907
0.00115745
0.00110623
0.000544959
0.000632883
0.00057309
0.000577574
0.000577667
0.000577629
0.000577632
0.000577661
0.000577616
0.000573612
0.000636739
0.00199336
0.00386837
0.00396863
0.00397491
0.00397509
0.00397509
0.00397515
0.00397122
0.00388504
0.00202042
0.000543345
0.00116563
0.00123453
0.00123807
0.00123824
0.00123824
0.00123813
0.00123539
0.00117013
0.000543108
0.00054413
0.00116274
0.00123231
0.0012358
0.00123592
0.00123591
0.00123585
0.00123316
0.00116721
0.0005439
0.000545284
0.00109645
0.00114703
0.001148
0.00114744
0.00114743
0.00114796
0.00114742
0.00109891
0.000545134
0.000680597
0.000567638
0.000575666
0.000576763
0.000577175
0.000577185
0.000576809
0.000575865
0.000568797
0.000686153
0.00200287
0.00385206
0.00394968
0.00395584
0.00395611
0.00395613
0.0039562
0.00395247
0.00386868
0.00203042
0.000543449
0.00116557
0.00123545
0.0012391
0.00123929
0.00123929
0.00123916
0.00123633
0.00117016
0.000543218
0.000544309
0.00116038
0.00123277
0.0012365
0.00123662
0.00123662
0.00123655
0.00123365
0.00116496
0.00054408
0.000546409
0.00109135
0.00114091
0.00113989
0.0011385
0.00113846
0.00113975
0.00114115
0.00109384
0.000546297
0.00073555
0.000596758
0.000609445
0.000611691
0.000612749
0.000612777
0.000611795
0.00060975
0.000598216
0.000742155
0.00200395
0.00377564
0.0038663
0.00387233
0.00387288
0.00387293
0.00387282
0.00386922
0.00379139
0.0020312
0.000543709
0.00116382
0.0012343
0.00123805
0.00123825
0.00123825
0.00123811
0.0012352
0.00116845
0.000543482
0.000544475
0.00115908
0.00123542
0.00123968
0.00123989
0.00123989
0.00123974
0.00123634
0.00116383
0.000544243
0.000548424
0.00113775
0.00119709
0.00119819
0.00119737
0.00119734
0.0011981
0.00119761
0.00114129
0.000548333
0.000733141
0.000625736
0.000638218
0.000640798
0.000641689
0.000641711
0.000640871
0.000638457
0.000626209
0.000736856
0.00195562
0.00352673
0.00360247
0.0036117
0.00361431
0.00361442
0.00361247
0.00360536
0.00353956
0.00197965
0.000544019
0.00111243
0.00117369
0.00117689
0.00117706
0.00117706
0.00117695
0.00117446
0.00111629
0.000543777
0.000544317
0.00112071
0.0011921
0.00119674
0.00119719
0.0011972
0.00119681
0.00119299
0.00112501
0.000544065
0.000550397
0.00115219
0.00121646
0.00122101
0.00122162
0.00122162
0.00122107
0.00121726
0.00115588
0.000550282
0.000644081
0.000674475
0.000694434
0.000693923
0.000693119
0.000693094
0.000693836
0.000694491
0.000674909
0.000646917
0.00174376
0.00295526
0.00301078
0.00301967
0.00302271
0.00302283
0.00302036
0.00301302
0.00296414
0.00175985
0.000542825
0.000545808
0.000546178
0.000546259
0.000546291
0.000546293
0.000546262
0.000546194
0.000545851
0.000542363
0.000541875
0.000546625
0.00054718
0.00054726
0.000547283
0.000547285
0.000547268
0.000547202
0.000546678
0.000541407
0.000551113
0.000558353
0.000559314
0.00055957
0.000559652
0.000559652
0.000559583
0.000559334
0.000558457
0.00055074
0.000583619
0.000640057
0.000648925
0.000650378
0.000650794
0.000650796
0.000650417
0.000649135
0.000641108
0.000584295
0.00118496
0.00155676
0.00157984
0.00158597
0.00158793
0.001588
0.00158631
0.00158081
0.00156031
0.00119078
)
;

boundaryField
{
    walls
    {
        type            nutkWallFunction;
        Cmu             0.09;
        kappa           0.41;
        E               9.8;
        value           nonuniform List<scalar> 
500
(
6.49554e-05
6.49554e-05
6.49554e-05
6.5702e-05
6.5702e-05
6.57239e-05
6.57239e-05
6.57234e-05
6.57234e-05
6.5723e-05
6.5723e-05
6.57229e-05
6.57229e-05
6.57227e-05
6.57227e-05
6.57226e-05
6.57226e-05
6.57201e-05
6.57201e-05
6.5658e-05
6.5658e-05
6.5658e-05
6.57329e-05
6.57329e-05
6.59389e-05
6.59553e-05
6.59559e-05
6.5956e-05
6.59559e-05
6.59555e-05
6.59546e-05
6.59382e-05
6.56977e-05
6.56977e-05
6.58041e-05
6.58041e-05
6.60121e-05
6.60316e-05
6.60328e-05
6.60331e-05
6.60329e-05
6.60323e-05
6.60309e-05
6.60114e-05
6.57431e-05
6.57431e-05
6.58634e-05
6.58634e-05
6.60913e-05
6.61138e-05
6.61163e-05
6.61171e-05
6.61169e-05
6.61159e-05
6.61136e-05
6.60917e-05
6.5805e-05
6.5805e-05
6.59146e-05
6.59146e-05
6.61783e-05
6.62044e-05
6.6208e-05
6.62091e-05
6.6209e-05
6.62082e-05
6.62049e-05
6.61805e-05
6.58587e-05
6.58587e-05
6.57156e-05
6.57156e-05
6.58868e-05
6.59036e-05
6.59059e-05
6.59066e-05
6.59069e-05
6.59069e-05
6.59065e-05
6.58931e-05
6.5696e-05
6.5696e-05
6.59101e-05
6.58784e-05
6.59657e-05
6.59333e-05
6.60203e-05
6.59883e-05
6.60763e-05
6.60451e-05
6.57773e-05
6.57773e-05
6.59326e-05
6.59495e-05
6.59517e-05
6.59525e-05
6.59529e-05
6.5953e-05
6.59525e-05
6.59376e-05
6.57279e-05
6.57279e-05
6.59483e-05
6.59189e-05
6.59971e-05
6.59688e-05
6.60444e-05
6.60158e-05
6.60998e-05
6.60714e-05
6.5803e-05
6.5803e-05
6.59572e-05
6.59735e-05
6.59753e-05
6.5976e-05
6.59764e-05
6.59765e-05
6.5976e-05
6.59609e-05
6.57505e-05
6.57505e-05
6.59693e-05
6.59397e-05
6.60126e-05
6.59845e-05
6.60539e-05
6.60254e-05
6.61059e-05
6.60772e-05
6.58169e-05
6.58169e-05
6.59706e-05
6.59865e-05
6.5988e-05
6.59886e-05
6.59889e-05
6.5989e-05
6.59884e-05
6.59732e-05
6.57622e-05
6.57622e-05
6.59815e-05
6.59508e-05
6.60215e-05
6.59929e-05
6.60595e-05
6.60307e-05
6.61086e-05
6.60795e-05
6.5819e-05
6.5819e-05
6.59777e-05
6.59938e-05
6.59953e-05
6.59959e-05
6.59961e-05
6.59962e-05
6.59954e-05
6.59798e-05
6.57632e-05
6.57632e-05
6.59844e-05
6.59531e-05
6.60245e-05
6.59955e-05
6.60634e-05
6.60342e-05
6.6113e-05
6.60835e-05
6.581e-05
6.581e-05
6.59813e-05
6.59983e-05
6.59998e-05
6.60004e-05
6.60006e-05
6.60005e-05
6.59995e-05
6.5983e-05
6.57536e-05
6.57536e-05
6.59784e-05
6.59464e-05
6.60227e-05
6.5993e-05
6.60669e-05
6.6037e-05
6.61221e-05
6.60919e-05
6.57897e-05
6.57897e-05
6.59724e-05
6.59903e-05
6.5992e-05
6.59925e-05
6.59927e-05
6.59924e-05
6.59912e-05
6.59739e-05
6.57328e-05
6.57328e-05
6.59624e-05
6.59298e-05
6.60136e-05
6.59833e-05
6.60665e-05
6.60358e-05
6.61323e-05
6.61013e-05
6.57565e-05
6.57565e-05
6.59336e-05
6.59503e-05
6.59519e-05
6.59524e-05
6.59525e-05
6.59522e-05
6.5951e-05
6.59346e-05
6.5699e-05
6.5699e-05
6.59238e-05
6.58888e-05
6.59821e-05
6.5949e-05
6.6045e-05
6.60112e-05
6.61268e-05
6.60924e-05
6.56614e-05
6.56614e-05
6.56614e-05
6.56682e-05
6.56682e-05
6.56691e-05
6.56691e-05
6.56694e-05
6.56694e-05
6.56696e-05
6.56696e-05
6.56696e-05
6.56696e-05
6.56695e-05
6.56695e-05
6.56692e-05
6.56692e-05
6.56665e-05
6.56665e-05
6.56002e-05
6.56002e-05
6.56002e-05
6.57072e-05
6.57072e-05
6.58696e-05
6.5886e-05
6.58876e-05
6.58881e-05
6.58881e-05
6.58877e-05
6.58864e-05
6.58706e-05
6.56479e-05
6.56479e-05
6.57633e-05
6.57633e-05
6.59408e-05
6.59605e-05
6.59631e-05
6.5964e-05
6.59641e-05
6.59633e-05
6.59609e-05
6.5942e-05
6.57041e-05
6.57041e-05
6.58383e-05
6.58383e-05
6.60192e-05
6.60414e-05
6.60455e-05
6.6047e-05
6.60471e-05
6.60455e-05
6.60416e-05
6.60199e-05
6.5779e-05
6.5779e-05
6.59545e-05
6.59545e-05
6.61491e-05
6.61763e-05
6.61826e-05
6.61846e-05
6.61846e-05
6.61824e-05
6.61759e-05
6.61493e-05
6.58964e-05
6.58964e-05
6.62245e-05
6.62245e-05
6.65887e-05
6.66455e-05
6.66501e-05
6.66497e-05
6.66495e-05
6.66492e-05
6.66444e-05
6.65935e-05
6.61717e-05
6.61717e-05
6.72093e-05
6.72093e-05
7.08362e-05
7.13034e-05
7.11612e-05
7.10927e-05
7.1089e-05
7.11492e-05
7.12911e-05
7.0937e-05
6.72173e-05
6.72173e-05
7.6149e-05
7.6149e-05
0.00010175
0.000104274
0.000103244
0.000102827
0.000102806
0.000103171
0.000104202
0.000102285
7.66309e-05
7.66309e-05
0.000112579
0.000112579
0.000178435
0.000184783
0.000183703
0.000183147
0.000183108
0.000183574
0.000184672
0.000179402
0.000114017
0.000114017
0.000175786
0.000175786
0.000286703
0.000298681
0.000299113
0.000298913
0.000298867
0.000298972
0.000298586
0.000287949
0.000177696
0.000177696
6.62517e-05
6.62179e-05
6.64279e-05
6.64004e-05
6.76194e-05
6.76539e-05
8.23063e-05
8.29433e-05
0.000205167
0.000207628
6.62015e-05
6.61716e-05
6.62938e-05
6.62659e-05
6.6524e-05
6.65084e-05
7.58788e-05
7.62682e-05
0.000208867
0.000211347
6.61603e-05
6.61308e-05
6.62409e-05
6.62127e-05
6.638e-05
6.63615e-05
7.5091e-05
7.54563e-05
0.000214331
0.000216977
6.61368e-05
6.61076e-05
6.62144e-05
6.61861e-05
6.63184e-05
6.62983e-05
7.54233e-05
7.58234e-05
0.000216935
0.000219664
6.61324e-05
6.61034e-05
6.62163e-05
6.61882e-05
6.63354e-05
6.63155e-05
8.03017e-05
8.08811e-05
0.000217829
0.000220612
6.61436e-05
6.61154e-05
6.62369e-05
6.62088e-05
6.6453e-05
6.64371e-05
8.62502e-05
8.69611e-05
0.000218045
0.000220825
6.61716e-05
6.61438e-05
6.62569e-05
6.62285e-05
6.66779e-05
6.66647e-05
8.70112e-05
8.74671e-05
0.000214026
0.00021654
6.6205e-05
6.61755e-05
6.62423e-05
6.62115e-05
6.69115e-05
6.68962e-05
7.71268e-05
7.74416e-05
0.000194202
0.000195943
6.60653e-05
6.60653e-05
6.64002e-05
6.64411e-05
6.645e-05
6.64535e-05
6.64538e-05
6.64503e-05
6.64429e-05
6.6405e-05
6.60089e-05
6.60089e-05
6.5968e-05
6.5968e-05
6.64933e-05
6.65533e-05
6.65618e-05
6.65643e-05
6.65645e-05
6.65626e-05
6.65557e-05
6.64991e-05
6.59109e-05
6.59109e-05
6.70082e-05
6.70082e-05
6.78123e-05
6.79186e-05
6.79469e-05
6.7956e-05
6.79559e-05
6.79484e-05
6.79206e-05
6.78241e-05
6.69624e-05
6.69624e-05
7.05737e-05
7.05737e-05
7.66759e-05
7.76157e-05
7.77722e-05
7.78176e-05
7.78181e-05
7.77767e-05
7.76391e-05
7.67929e-05
7.06452e-05
7.06452e-05
0.000136983
0.000136983
0.000175552
0.000177843
0.000178448
0.000178644
0.00017865
0.000178483
0.000177942
0.000175924
0.000137625
0.000137625
)
;
    }
    lid
    {
        type            nutkWallFunction;
        Cmu             0.09;
        kappa           0.41;
        E               9.8;
        value           nonuniform List<scalar> 
100
(
0.000175786
0.000286703
0.000298681
0.000299113
0.000298913
0.000298867
0.000298972
0.000298586
0.000287949
0.000177696
0.000205167
0.000377809
0.000390267
0.000390575
0.000390349
0.000390311
0.000390467
0.000390266
0.000379237
0.000207628
0.000208867
0.000381413
0.000390753
0.000390745
0.000390531
0.000390514
0.000390703
0.00039087
0.000382872
0.000211347
0.000214331
0.000392134
0.000401145
0.000401512
0.000401453
0.000401448
0.000401512
0.000401342
0.000393692
0.000216977
0.000216935
0.000396153
0.000405091
0.000405624
0.000405636
0.000405636
0.000405645
0.000405326
0.000397756
0.000219664
0.000217829
0.00039497
0.000403708
0.000404235
0.000404256
0.000404258
0.000404266
0.000403962
0.000396576
0.000220612
0.000218045
0.000388754
0.000396944
0.000397458
0.000397501
0.000397504
0.000397502
0.000397215
0.000390297
0.000220825
0.000214026
0.000367663
0.000374658
0.000375465
0.000375686
0.000375696
0.000375535
0.000374934
0.000368958
0.00021654
0.000194202
0.000314827
0.000320064
0.000320899
0.000321186
0.000321197
0.000320966
0.000320285
0.000315738
0.000195943
0.000136983
0.000175552
0.000177843
0.000178448
0.000178644
0.00017865
0.000178483
0.000177942
0.000175924
0.000137625
)
;
    }
}


// ************************************************************************* //
