/*--------------------------------*- C++ -*----------------------------------*\
| =========                 |                                                 |
| \\      /  F ield         | OpenFOAM: The Open Source CFD Toolbox           |
|  \\    /   O peration     | Version:  2.3.1                                 |
|   \\  /    A nd           | Web:      www.OpenFOAM.org                      |
|    \\/     M anipulation  |                                                 |
\*---------------------------------------------------------------------------*/
FoamFile
{
    version     2.0;
    format      ascii;
    class       volScalarField;
    location    "0.81";
    object      p;
}
// * * * * * * * * * * * * * * * * * * * * * * * * * * * * * * * * * * * * * //

dimensions      [0 2 -2 0 0 0 0];

internalField   nonuniform List<scalar> 
1000
(
-0.00216766
-0.00206687
-0.00208726
-0.00209417
-0.00210038
-0.00210304
-0.00209402
-0.0020802
-0.00207016
-0.00207402
-0.00298025
-0.00295707
-0.00298325
-0.00300398
-0.00301667
-0.00301835
-0.00300455
-0.00298357
-0.002968
-0.00297271
-0.00487433
-0.00488726
-0.00492845
-0.00496988
-0.00499312
-0.00499301
-0.00496791
-0.0049304
-0.00489282
-0.00487733
-0.00744823
-0.00745359
-0.00747528
-0.00750749
-0.00752736
-0.00752501
-0.00750385
-0.00747317
-0.0074487
-0.00743454
-0.0143581
-0.0145316
-0.0147276
-0.0149036
-0.0150011
-0.0150035
-0.0149196
-0.0147514
-0.0145561
-0.0143843
-0.00119989
-0.00120015
-0.00121959
-0.00123405
-0.00124199
-0.00124409
-0.00123556
-0.00122122
-0.00121077
-0.00120561
-0.00202791
-0.00203606
-0.00206108
-0.00208442
-0.00209764
-0.00209903
-0.00208534
-0.00206472
-0.00204816
-0.00204164
-0.00379552
-0.00382683
-0.00387011
-0.00391033
-0.00393319
-0.00393225
-0.00390884
-0.00387159
-0.00383405
-0.0038027
-0.00628886
-0.00634579
-0.00638768
-0.00643031
-0.00645348
-0.00645186
-0.00642738
-0.00638859
-0.00634496
-0.0062816
-0.0124222
-0.0126118
-0.0128086
-0.0129879
-0.0130848
-0.0130875
-0.0130052
-0.0128332
-0.0126376
-0.0124489
0.000534791
0.000526387
0.000513612
0.000499081
0.000491275
0.000489761
0.00049689
0.000508923
0.000517538
0.000523434
-0.000165394
-0.000179507
-0.000200297
-0.000221065
-0.000232892
-0.000233734
-0.000222273
-0.000204195
-0.000190339
-0.000179624
-0.00164582
-0.00168229
-0.00172267
-0.00175857
-0.00177806
-0.00177753
-0.00175657
-0.00172502
-0.00168959
-0.00165335
-0.00383336
-0.00390986
-0.00396276
-0.00401042
-0.00403642
-0.00403344
-0.00401104
-0.00396401
-0.00391237
-0.00383362
-0.00866326
-0.00886409
-0.0090568
-0.00922651
-0.00931388
-0.00932143
-0.00923948
-0.00907946
-0.00888918
-0.00868508
0.00297121
0.00296613
0.00296063
0.00295301
0.00294905
0.0029482
0.00295253
0.00295914
0.00296226
0.00296405
0.00246612
0.00245844
0.0024459
0.00243344
0.00242607
0.00242595
0.00243366
0.00244443
0.00245231
0.00245785
0.00140137
0.00137462
0.00134608
0.00132213
0.00130866
0.00131005
0.0013239
0.00134641
0.00137036
0.00139822
-0.000242752
-0.000300782
-0.000347859
-0.000387659
-0.000407034
-0.000406445
-0.000385583
-0.000349965
-0.00030243
-0.000240366
-0.00351064
-0.00368209
-0.00383449
-0.00396117
-0.00402801
-0.00402755
-0.00397354
-0.00384866
-0.00370257
-0.00353165
0.00592925
0.00592955
0.00593277
0.00593509
0.00593631
0.00593698
0.00593636
0.00593412
0.00592878
0.00592494
0.00566839
0.00566754
0.00566679
0.0056663
0.00566638
0.00566663
0.00566799
0.00566815
0.0056664
0.00566747
0.00511217
0.00510215
0.00509214
0.00508515
0.00508129
0.00508275
0.00508738
0.00509392
0.00510352
0.00511742
0.00421108
0.00417967
0.0041555
0.00413796
0.00412901
0.00413072
0.00413875
0.0041574
0.00418137
0.00421506
0.0024873
0.0023937
0.00230908
0.00224441
0.00221436
0.00221224
0.0022434
0.00230156
0.00238321
0.00247531
0.00914988
0.00916226
0.00917824
0.00919319
0.00920281
0.00920368
0.00919678
0.00918238
0.0091664
0.00915411
0.00917179
0.00918277
0.00919875
0.00921455
0.00922334
0.00922524
0.00921687
0.00920285
0.00918777
0.00918098
0.00919217
0.00920554
0.00922214
0.00923801
0.00924859
0.00924851
0.0092402
0.00922546
0.00921293
0.0092064
0.00914012
0.00915515
0.00917024
0.00918644
0.00919532
0.00919606
0.00918787
0.00917357
0.00916305
0.00914965
0.00891497
0.00891429
0.00891897
0.00893558
0.00894243
0.00894621
0.00893847
0.00892674
0.00891837
0.00890951
0.0123417
0.012368
0.0123992
0.0124297
0.0124471
0.0124499
0.0124338
0.0124061
0.012376
0.0123556
0.0126622
0.0126911
0.0127282
0.0127629
0.0127841
0.0127848
0.0127664
0.0127337
0.012702
0.0126814
0.0132967
0.0133398
0.0133904
0.0134365
0.0134609
0.0134627
0.0134365
0.0133942
0.0133512
0.0133142
0.0141654
0.0142405
0.0143109
0.0143765
0.0144129
0.0144113
0.0143797
0.0143175
0.014252
0.014177
0.0153425
0.01546
0.0155742
0.015684
0.0157406
0.0157465
0.015695
0.0155906
0.0154822
0.0153543
0.0151797
0.0152219
0.0152707
0.0153163
0.0153441
0.0153459
0.0153217
0.0152787
0.0152363
0.015204
0.015796
0.0158467
0.0159079
0.0159647
0.0159965
0.0159989
0.0159676
0.0159148
0.0158619
0.0158221
0.0170437
0.0171302
0.0172224
0.0173038
0.0173502
0.017349
0.0173053
0.0172269
0.0171443
0.0170626
0.0188782
0.019043
0.0191905
0.0193208
0.0193866
0.019391
0.0193246
0.0191996
0.0190621
0.0188913
0.0214615
0.0217487
0.0220003
0.0222235
0.0223416
0.0223451
0.0222409
0.022031
0.0217859
0.0214934
0.0173449
0.0173982
0.0174618
0.0175218
0.0175565
0.0175592
0.0175273
0.017472
0.0174175
0.0173795
0.0182166
0.0182828
0.0183674
0.0184436
0.018488
0.0184891
0.0184472
0.0183756
0.0183027
0.0182471
0.0200214
0.0201515
0.0202874
0.0204069
0.0204707
0.020472
0.0204089
0.0202934
0.0201698
0.0200435
0.0228067
0.0230787
0.0233183
0.0235213
0.0236274
0.0236295
0.0235286
0.0233379
0.0231067
0.0228283
0.0267391
0.0272905
0.0277195
0.0280725
0.0282454
0.0282535
0.028095
0.0277588
0.027354
0.0267977
0.0185191
0.0185711
0.0186447
0.0187117
0.0187517
0.0187535
0.0187171
0.0186559
0.0185949
0.0185569
0.0195662
0.0196412
0.0197425
0.0198325
0.0198834
0.0198847
0.0198364
0.019752
0.0196634
0.0195979
0.0218126
0.0219856
0.0221639
0.0223132
0.022393
0.0223943
0.0223167
0.0221754
0.0220092
0.0218365
0.0254765
0.0259251
0.026271
0.0265414
0.0266755
0.0266779
0.0265545
0.0262966
0.0259722
0.0255214
0.0310812
0.0321944
0.0328772
0.0333604
0.0335785
0.0335866
0.0333788
0.0329375
0.0322742
0.0311559
0.0385541
0.0416471
0.0429249
0.0437244
0.0440292
0.0440286
0.043763
0.0429736
0.0417716
0.0387009
0.0516213
0.0567466
0.0587261
0.0599186
0.0603344
0.060358
0.0599422
0.0587935
0.0568154
0.0517087
0.0625484
0.0780427
0.0823541
0.0842671
0.0847673
0.0847645
0.0843105
0.0823516
0.0782751
0.0629004
0.0977646
0.12918
0.139593
0.141718
0.142251
0.14225
0.141704
0.139681
0.129714
0.0984131
0.0103513
-0.00243051
-0.00362047
-0.00383814
-0.00362735
-0.00364374
-0.00385514
-0.00360392
-0.00256535
0.0101532
0.0302387
0.0313687
0.0320214
0.0325436
0.032776
0.0327801
0.0325721
0.0320715
0.0314235
0.0303039
0.0380822
0.0394669
0.0403788
0.0412156
0.0415801
0.0415951
0.0412583
0.0404086
0.0395135
0.0381542
0.0336072
0.032224
0.0322962
0.0331194
0.0334629
0.0334774
0.0331457
0.0323123
0.0321603
0.0335722
0.0228496
0.0161167
0.0142421
0.0146535
0.0149499
0.0149632
0.0146909
0.0142576
0.0159751
0.0226926
0.00740574
-0.00423924
-0.00726856
-0.00827051
-0.00833788
-0.00834315
-0.00827936
-0.00730071
-0.00438656
0.00718632
0.0230484
0.0236129
0.0239613
0.0242471
0.0243828
0.0243884
0.0242628
0.0239888
0.0236529
0.0230825
0.0285271
0.0292585
0.0297315
0.030163
0.0303629
0.0303682
0.0301859
0.0297665
0.029282
0.028558
0.0253344
0.0260596
0.0263171
0.0266253
0.0267569
0.0267553
0.026634
0.0263118
0.0260606
0.0253391
0.0319515
0.0319024
0.031912
0.032337
0.0325176
0.0325291
0.0323565
0.0319444
0.0319436
0.0320103
0.0173872
0.0136186
0.0126148
0.0122518
0.0122317
0.0122216
0.0122469
0.0126139
0.0135931
0.0173399
0.0157205
0.0159152
0.0160497
0.0161791
0.0162362
0.0162476
0.0161845
0.0160676
0.0159332
0.0157201
0.0182556
0.0184839
0.0186478
0.018826
0.0189231
0.0189195
0.0188374
0.018656
0.0184913
0.0182662
0.0160366
0.0161703
0.0161857
0.0162732
0.016313
0.0163186
0.0162595
0.0161734
0.0161476
0.016016
0.0207495
0.0210449
0.0211737
0.0215618
0.0217553
0.021748
0.0215982
0.0212025
0.0210637
0.0208184
0.0151385
0.014427
0.014355
0.0143917
0.0144608
0.0144639
0.0144058
0.0143638
0.014421
0.0151179
0.00851747
0.00849082
0.00846925
0.00847121
0.00848088
0.00847693
0.00848065
0.00846842
0.00848504
0.00850495
0.00775353
0.00748665
0.00736053
0.00730804
0.00728013
0.00729393
0.00728784
0.00735073
0.00746062
0.00771713
0.00714141
0.00673743
0.00647881
0.0063747
0.00634821
0.00632873
0.00636782
0.00644296
0.00668324
0.00713257
0.00740733
0.00555904
0.00500143
0.00485397
0.00484074
0.00488185
0.00483814
0.00498845
0.00547927
0.00740742
0.00778045
0.00744894
0.00730978
0.0073303
0.00735576
0.00735174
0.00735869
0.00730297
0.00741012
0.00777321
0.00180398
0.00160237
0.00147968
0.00139383
0.00135091
0.00135628
0.00138235
0.00147117
0.00158302
0.00177718
-0.00315174
-0.00396153
-0.00442839
-0.00473095
-0.00486014
-0.00487667
-0.00474746
-0.0044634
-0.0040128
-0.00319187
-0.00130054
-0.00211801
-0.00250462
-0.00278394
-0.00290009
-0.00289093
-0.00281758
-0.00254672
-0.00214519
-0.00133124
-0.00901214
-0.0154956
-0.0174083
-0.0181833
-0.0183299
-0.0183465
-0.0181771
-0.0174556
-0.0156726
-0.00912438
-0.000544914
-0.000399589
-0.000487173
-0.00050434
-0.000551156
-0.000530166
-0.000537345
-0.000514884
-0.000434925
-0.000606973
-0.00417331
-0.00446893
-0.00464701
-0.00478895
-0.00485245
-0.00486495
-0.0047955
-0.00466477
-0.00449102
-0.00418286
-0.0142268
-0.0155676
-0.016298
-0.0168176
-0.0170704
-0.0170701
-0.0168453
-0.0163372
-0.0156276
-0.0143027
-0.00908368
-0.0101399
-0.0105861
-0.0110071
-0.011158
-0.011179
-0.0110103
-0.0106122
-0.0101453
-0.00909726
-0.0318043
-0.0436991
-0.0466857
-0.0485806
-0.0489282
-0.048899
-0.0486371
-0.0468466
-0.0438256
-0.0321843
-0.00715505
-0.00515153
-0.00484621
-0.00453944
-0.0047122
-0.00475474
-0.00457949
-0.00479312
-0.00529276
-0.00713384
-0.00885764
-0.00916505
-0.00931893
-0.00946659
-0.00954209
-0.00954454
-0.00947764
-0.00933153
-0.00918182
-0.00887188
-0.0246842
-0.0261244
-0.0269356
-0.027568
-0.0278783
-0.0278856
-0.0275781
-0.0269762
-0.0261967
-0.0247871
-0.0151153
-0.0157732
-0.0159512
-0.0162082
-0.0163389
-0.0163279
-0.0162119
-0.0159535
-0.0157675
-0.0151479
-0.0595547
-0.0697151
-0.0727291
-0.0751218
-0.0759578
-0.0759991
-0.0752029
-0.0728768
-0.0699832
-0.0601269
-0.00737466
-0.00502676
-0.00375104
-0.00307675
-0.00291798
-0.00292066
-0.00307722
-0.00369927
-0.00491168
-0.00715051
-0.0118399
-0.0120527
-0.0121341
-0.0122504
-0.0123093
-0.012315
-0.0122668
-0.0121492
-0.0120628
-0.011845
-0.0325162
-0.0337848
-0.0345485
-0.0352071
-0.0355375
-0.0355525
-0.0352394
-0.0345944
-0.0338523
-0.0326129
-0.0180668
-0.017975
-0.01776
-0.0178421
-0.0179056
-0.0179127
-0.0178415
-0.0177512
-0.0179523
-0.0180621
-0.0805579
-0.0903188
-0.0932269
-0.0956633
-0.0966016
-0.0966204
-0.0957447
-0.0933603
-0.0905372
-0.0809335
0.000278787
0.0111789
0.0146077
0.0160363
0.0163533
0.0163616
0.0160803
0.0146849
0.0114091
0.000550429
-0.0130761
-0.0131091
-0.0131156
-0.013188
-0.0132281
-0.0132367
-0.0132061
-0.0131321
-0.0131104
-0.0130745
-0.0361738
-0.0372808
-0.0379844
-0.0386073
-0.0389294
-0.0389489
-0.0386494
-0.0380377
-0.037342
-0.0362537
-0.0188002
-0.0180811
-0.0176563
-0.01761
-0.0176365
-0.0176436
-0.0176042
-0.0176562
-0.0180523
-0.0187756
-0.0901033
-0.0993617
-0.102246
-0.104596
-0.105544
-0.105555
-0.104655
-0.102368
-0.0995674
-0.0904092
0.00695735
0.022939
0.0265695
0.0281704
0.0284862
0.0285152
0.0282281
0.0266401
0.0231848
0.00729399
)
;

boundaryField
{
    walls
    {
        type            zeroGradient;
    }
    lid
    {
        type            zeroGradient;
    }
}


// ************************************************************************* //
