/*--------------------------------*- C++ -*----------------------------------*\
| =========                 |                                                 |
| \\      /  F ield         | OpenFOAM: The Open Source CFD Toolbox           |
|  \\    /   O peration     | Version:  2.3.1                                 |
|   \\  /    A nd           | Web:      www.OpenFOAM.org                      |
|    \\/     M anipulation  |                                                 |
\*---------------------------------------------------------------------------*/
FoamFile
{
    version     2.0;
    format      ascii;
    class       surfaceScalarField;
    location    "0.81";
    object      phi;
}
// * * * * * * * * * * * * * * * * * * * * * * * * * * * * * * * * * * * * * //

dimensions      [0 3 -1 0 0 0 0];

internalField   nonuniform List<scalar> 
2700
(
2.93568e-06
4.37623e-05
-4.02115e-05
2.50765e-06
4.24605e-05
-4.20302e-05
1.35206e-06
4.28569e-05
-4.16985e-05
8.42445e-07
4.27492e-05
-4.22358e-05
2.58241e-07
4.29072e-05
-4.23188e-05
-2.33384e-07
4.2875e-05
-4.23792e-05
-5.55855e-07
4.26968e-05
-4.2371e-05
-6.14252e-07
4.2409e-05
-4.23479e-05
-3.75835e-07
4.21031e-05
-4.2336e-05
4.18873e-05
-4.22588e-05
8.60929e-07
8.93899e-05
-4.649e-05
1.28765e-06
8.91783e-05
-4.71466e-05
1.26847e-06
9.00625e-05
-4.71875e-05
8.3047e-07
9.05901e-05
-4.74034e-05
2.12047e-07
9.1003e-05
-4.74778e-05
-3.98328e-07
9.09965e-05
-4.75121e-05
-8.07444e-07
9.05906e-05
-4.74868e-05
-8.2031e-07
8.98661e-05
-4.74457e-05
-4.03018e-07
8.9047e-05
-4.73624e-05
8.81263e-05
-4.66435e-05
1.39885e-06
0.000143346
-5.53644e-05
1.99435e-06
0.000145159
-5.65841e-05
1.91875e-06
0.000146884
-5.67546e-05
1.19581e-06
0.000148249
-5.69443e-05
2.02303e-07
0.000149035
-5.70474e-05
-7.87581e-07
0.00014905
-5.70745e-05
-1.48667e-06
0.000148301
-5.70205e-05
-1.57344e-06
0.000146882
-5.69378e-05
-9.68798e-07
0.000145235
-5.68004e-05
0.000143069
-5.59188e-05
2.11983e-06
0.000211909
-7.06836e-05
3.06483e-06
0.000215787
-7.15762e-05
2.92444e-06
0.000218664
-7.1642e-05
1.78506e-06
0.000221144
-7.17592e-05
2.06998e-07
0.000222465
-7.18572e-05
-1.37297e-06
0.000222506
-7.18785e-05
-2.52841e-06
0.000221275
-7.18207e-05
-2.72557e-06
0.00021884
-7.17603e-05
-1.86569e-06
0.000216089
-7.17141e-05
0.000212117
-7.09084e-05
7.29283e-06
-0.000103714
0.00030837
8.5441e-06
-0.000105908
0.000320487
7.12573e-06
-0.000106701
0.000326827
4.00485e-06
-0.000107277
0.000331588
2.91257e-07
-0.000107616
0.000333845
-3.41935e-06
-0.000107646
0.000333914
-6.54547e-06
-0.000107366
0.000331821
-8.0197e-06
-0.000106855
0.000327222
-6.924e-06
-0.000106118
0.000321164
-0.000103977
0.000309221
6.87462e-07
3.76441e-05
-7.85415e-05
8.70193e-07
3.85333e-05
-8.07452e-05
9.01887e-07
3.90816e-05
-8.08097e-05
6.11531e-07
3.92439e-05
-8.11863e-05
1.8611e-07
3.94078e-05
-8.12976e-05
-2.44043e-07
3.93976e-05
-8.13429e-05
-5.53132e-07
3.92308e-05
-8.12904e-05
-6.66506e-07
3.89479e-05
-8.11796e-05
-5.32676e-07
3.85843e-05
-8.10488e-05
3.76792e-05
-8.04666e-05
6.63036e-07
7.86733e-05
-8.81847e-05
1.04953e-06
8.01437e-05
-8.91445e-05
1.1069e-06
8.11332e-05
-8.92967e-05
7.28913e-07
8.17902e-05
-8.95719e-05
1.76911e-07
8.21929e-05
-8.97105e-05
-3.87536e-07
8.21963e-05
-8.97474e-05
-7.9008e-07
8.18125e-05
-8.96668e-05
-8.85986e-07
8.11121e-05
-8.9515e-05
-6.12297e-07
8.02667e-05
-8.9318e-05
7.88572e-05
-8.84357e-05
1.42148e-06
0.000126395
-0.000104511
1.88685e-06
0.00012877
-0.000105681
1.77358e-06
0.000130508
-0.000106021
1.10005e-06
0.000131889
-0.000106374
1.79364e-07
0.000132645
-0.000106585
-7.48126e-07
0.000132664
-0.00010662
-1.4369e-06
0.000131952
-0.000106477
-1.63562e-06
0.000130585
-0.000106216
-1.22366e-06
0.00012895
-0.000105901
0.000126569
-0.000104859
2.7046e-06
0.000183948
-0.00013094
3.26553e-06
0.00018899
-0.000132353
2.89375e-06
0.000192044
-0.000132803
1.72255e-06
0.000194562
-0.000133257
1.9206e-07
0.000195865
-0.000133541
-1.34518e-06
0.000195905
-0.000133579
-2.53952e-06
0.000194695
-0.000133363
-2.98129e-06
0.000192255
-0.000132983
-2.51567e-06
0.000189349
-0.000132573
0.000184358
-0.000131206
7.01384e-06
-0.000182088
0.000255355
8.04056e-06
-0.00018463
0.000266731
6.6186e-06
-0.000186095
0.000272911
3.69746e-06
-0.000187358
0.000277617
2.66636e-07
-0.000188074
0.000279808
-3.16087e-06
-0.000188128
0.000279874
-6.09069e-06
-0.000187523
0.000277838
-7.56429e-06
-0.000186367
0.0002733
-6.69583e-06
-0.000184998
0.000267415
-0.000182531
0.000256266
1.01735e-06
3.02478e-05
-0.000109808
9.72962e-07
3.06256e-05
-0.000111327
8.04187e-07
3.09492e-05
-0.00011159
4.97683e-07
3.11029e-05
-0.000111982
1.45944e-07
3.12254e-05
-0.00011217
-1.99458e-07
3.12198e-05
-0.000112216
-4.55161e-07
3.10831e-05
-0.000112118
-5.67921e-07
3.08465e-05
-0.000111913
-4.93168e-07
3.05349e-05
-0.000111655
2.97218e-05
-0.00011068
8.11988e-07
6.19985e-05
-0.000120749
9.96978e-07
6.31312e-05
-0.000121837
9.42297e-07
6.38916e-05
-0.000122185
6.0072e-07
6.44467e-05
-0.000122574
1.43935e-07
6.47694e-05
-0.000122798
-3.14887e-07
6.47725e-05
-0.000122842
-6.53108e-07
6.44539e-05
-0.000122701
-7.6289e-07
6.38686e-05
-0.000122427
-5.84621e-07
6.31405e-05
-0.000122102
6.18416e-05
-0.000121142
1.31406e-06
9.80185e-05
-0.000141849
1.63273e-06
0.000100198
-0.000143068
1.47268e-06
0.000101671
-0.000143641
9.01058e-07
0.000102833
-0.000144191
1.45342e-07
0.000103458
-0.000144518
-6.14361e-07
0.000103472
-0.000144563
-1.19411e-06
0.00010288
-0.000144324
-1.40423e-06
0.000101733
-0.000143871
-1.12407e-06
0.000100311
-0.000143353
9.80793e-05
-0.000142224
2.48932e-06
0.000139923
-0.000175322
2.88896e-06
0.000144525
-0.00017707
2.47449e-06
0.000147267
-0.000177971
1.44934e-06
0.000149417
-0.000178801
1.55555e-07
0.000150511
-0.000179289
-1.14028e-06
0.000150545
-0.000179338
-2.18241e-06
0.000149521
-0.000178948
-2.64405e-06
0.000147442
-0.000178212
-2.32629e-06
0.000144814
-0.000177382
0.000140245
-0.000175687
6.00954e-06
-0.000232067
0.000183938
6.66634e-06
-0.000235303
0.000194597
5.38711e-06
-0.000237484
0.000199995
2.98136e-06
-0.00023935
0.000203877
2.12266e-07
-0.000240381
0.000205657
-2.55575e-06
-0.000240455
0.000205703
-4.96433e-06
-0.000239568
0.000204044
-6.27884e-06
-0.000237847
0.000200298
-5.7616e-06
-0.000235796
0.000195154
-0.000232652
0.00018465
4.95662e-07
1.96148e-05
-0.000129924
5.11845e-07
1.99959e-05
-0.000131344
4.65494e-07
2.02029e-05
-0.000131751
3.00146e-07
2.03308e-05
-0.000132152
9.622e-08
2.0413e-05
-0.000132382
-1.06485e-07
2.041e-05
-0.000132428
-2.62339e-07
2.03197e-05
-0.000132286
-3.38834e-07
2.01641e-05
-0.000132004
-3.06666e-07
1.99632e-05
-0.000131652
1.94792e-05
-0.000130469
4.5915e-07
4.04283e-05
-0.000142027
6.00886e-07
4.12158e-05
-0.000143203
5.77835e-07
4.17217e-05
-0.000143685
3.74747e-07
4.21083e-05
-0.000144152
9.78526e-08
4.23242e-05
-0.000144437
-1.8168e-07
4.23253e-05
-0.000144483
-3.91095e-07
4.21112e-05
-0.000144288
-4.58521e-07
4.17168e-05
-0.000143917
-3.3804e-07
4.12248e-05
-0.000143488
4.03945e-05
-0.000142401
7.97823e-07
6.34525e-05
-0.000165672
1.03786e-06
6.49149e-05
-0.000167008
9.39374e-07
6.59353e-05
-0.000167757
5.77411e-07
6.67346e-05
-0.000168455
9.82123e-08
6.71575e-05
-0.000168873
-3.83498e-07
6.71666e-05
-0.000168923
-7.56421e-07
6.67611e-05
-0.000168602
-8.88857e-07
6.59776e-05
-0.000167999
-6.90957e-07
6.49889e-05
-0.000167317
6.3516e-05
-0.000166039
1.63946e-06
8.8961e-05
-0.00020246
1.95266e-06
9.20542e-05
-0.000204506
1.66092e-06
9.40341e-05
-0.000205761
9.65652e-07
9.55261e-05
-0.000206881
1.0511e-07
9.62789e-05
-0.000207528
-7.59563e-07
9.62968e-05
-0.000207587
-1.4639e-06
9.55903e-05
-0.000207051
-1.78849e-06
9.41459e-05
-0.000206039
-1.5361e-06
9.22432e-05
-0.000204872
8.9179e-05
-0.000202875
3.95277e-06
-0.000258113
0.000111109
4.41655e-06
-0.000261883
0.000118224
3.53866e-06
-0.000264505
0.000121993
1.94752e-06
-0.000266705
0.000124541
1.37348e-07
-0.000267919
0.000125691
-1.66766e-06
-0.000267999
0.00012572
-3.26433e-06
-0.000266948
0.000124631
-4.16326e-06
-0.000264907
0.000122173
-3.7977e-06
-0.000262434
0.00011857
-0.000258748
0.000111521
1.45354e-07
8.02458e-06
-0.000138103
1.19598e-07
8.15761e-06
-0.000139486
1.01055e-07
8.22549e-06
-0.000139968
7.29053e-08
8.26636e-06
-0.000140399
5.03731e-08
8.29103e-06
-0.000140661
2.79645e-08
8.28781e-06
-0.000140702
2.18195e-09
8.25511e-06
-0.000140525
-2.75024e-08
8.19985e-06
-0.000140182
-5.10298e-08
8.12635e-06
-0.000139763
7.95234e-06
-0.00013848
1.22298e-07
1.66685e-05
-0.000150803
1.42035e-07
1.69628e-05
-0.000152038
1.35542e-07
1.71571e-05
-0.00015262
9.64299e-08
1.73016e-05
-0.000153158
5.10058e-08
1.73792e-05
-0.000153488
3.23827e-09
1.73762e-05
-0.000153533
-3.86868e-08
1.72917e-05
-0.000153291
-6.37989e-08
1.71381e-05
-0.000152838
-5.71513e-08
1.69408e-05
-0.000152318
1.66237e-05
-0.000151138
2.47645e-07
2.64053e-05
-0.000175662
3.05888e-07
2.70128e-05
-0.000177121
2.69191e-07
2.746e-05
-0.000178027
1.69068e-07
2.77976e-05
-0.000178854
4.78336e-08
2.79716e-05
-0.000179348
-7.51842e-08
2.79709e-05
-0.000179398
-1.8049e-07
2.77971e-05
-0.000179004
-2.33807e-07
2.74589e-05
-0.00017827
-1.96749e-07
2.70183e-05
-0.000177436
2.64057e-05
-0.000176021
6.175e-07
3.71615e-05
-0.000213822
7.10097e-07
3.85471e-05
-0.000216121
5.78017e-07
3.95105e-05
-0.000217665
3.30426e-07
4.0201e-05
-0.00021902
4.62217e-08
4.05387e-05
-0.000219798
-2.38001e-07
4.05435e-05
-0.000219858
-4.91416e-07
4.02143e-05
-0.000219202
-6.36064e-07
3.95408e-05
-0.00021796
-5.71684e-07
3.86063e-05
-0.000216512
3.72314e-05
-0.000214261
1.66138e-06
-0.00026783
4.52537e-05
1.81341e-06
-0.000271896
4.84554e-05
1.39626e-06
-0.000274815
5.02902e-05
7.46713e-07
-0.000277253
5.1448e-05
5.65663e-08
-0.000278591
5.196e-05
-6.35097e-07
-0.000278676
5.19603e-05
-1.28113e-06
-0.000277502
5.14712e-05
-1.70726e-06
-0.000275229
5.03392e-05
-1.59801e-06
-0.000272464
4.85736e-05
-0.000268472
4.53918e-05
-2.23464e-07
-4.17643e-06
-0.000133718
-3.29875e-07
-4.34049e-06
-0.000135054
-3.04974e-07
-4.43216e-06
-0.000135575
-1.78567e-07
-4.51215e-06
-0.000136029
9.60976e-09
-4.55925e-06
-0.000136304
1.99224e-07
-4.56492e-06
-0.000136343
3.29761e-07
-4.52856e-06
-0.000136141
3.54385e-07
-4.46148e-06
-0.00013576
2.52255e-07
-4.38077e-06
-0.000135294
-4.23465e-06
-0.000134006
-2.62696e-07
-8.21662e-06
-0.000146515
-3.9895e-07
-8.46776e-06
-0.000147789
-3.75459e-07
-8.64191e-06
-0.000148448
-2.199e-07
-8.79687e-06
-0.000149043
6.68347e-09
-8.88708e-06
-0.000149402
2.35284e-07
-8.89623e-06
-0.000149443
3.91921e-07
-8.82475e-06
-0.000149166
4.15279e-07
-8.6886e-06
-0.000148648
2.80038e-07
-8.53145e-06
-0.000148048
-8.29487e-06
-0.00014681
-3.89881e-07
-1.17159e-05
-0.000171782
-5.62545e-07
-1.20342e-05
-0.000173391
-5.22703e-07
-1.2261e-05
-0.000174455
-3.076e-07
-1.24714e-05
-0.000175403
-1.45339e-09
-1.25911e-05
-0.000175956
3.03893e-07
-1.26026e-05
-0.000176005
5.19996e-07
-1.25058e-05
-0.000175547
5.60441e-07
-1.23177e-05
-0.00017469
3.91386e-07
-1.21107e-05
-0.000173698
-1.18027e-05
-0.000172125
-5.85333e-07
-1.41133e-05
-0.000210839
-7.91758e-07
-1.44383e-05
-0.000213504
-7.24159e-07
-1.46121e-05
-0.000215375
-4.26016e-07
-1.48096e-05
-0.000216975
-1.36549e-08
-1.49236e-05
-0.000217871
3.98025e-07
-1.49371e-05
-0.000217931
6.98459e-07
-1.48456e-05
-0.000217157
7.6833e-07
-1.46712e-05
-0.000215673
5.73382e-07
-1.45152e-05
-0.000213906
-1.41954e-05
-0.000211288
-7.69315e-07
-0.000264894
-1.62525e-05
-1.03182e-06
-0.000269613
-1.6434e-05
-9.57727e-07
-0.000272984
-1.64915e-05
-5.65738e-07
-0.000275746
-1.66791e-05
-2.76432e-08
-0.000277234
-1.67983e-05
5.13678e-07
-0.000277313
-1.68109e-05
9.06564e-07
-0.000275994
-1.67258e-05
9.89872e-07
-0.000273396
-1.65587e-05
7.46686e-07
-0.000270189
-1.65186e-05
-0.000265546
-1.63518e-05
-6.01161e-07
-1.65336e-05
-0.000116602
-8.12286e-07
-1.70616e-05
-0.000117801
-7.40679e-07
-1.73499e-05
-0.000118317
-4.47424e-07
-1.75824e-05
-0.00011876
-2.79833e-08
-1.77174e-05
-0.000119028
3.94526e-07
-1.77254e-05
-0.000119059
6.96356e-07
-1.76085e-05
-0.000118854
7.80949e-07
-1.73931e-05
-0.000118469
5.89479e-07
-1.71237e-05
-0.000118
-1.66054e-05
-0.000116828
-7.11234e-07
-3.35766e-05
-0.000128779
-1.02098e-06
-3.44827e-05
-0.000130078
-9.47456e-07
-3.51056e-05
-0.000130784
-5.70078e-07
-3.56238e-05
-0.000131398
-3.42264e-08
-3.59117e-05
-0.000131761
5.03613e-07
-3.59284e-05
-0.000131797
8.89563e-07
-3.56734e-05
-0.000131505
9.76446e-07
-3.51893e-05
-0.000130957
6.88944e-07
-3.46006e-05
-0.000130305
-3.3709e-05
-0.000129031
-1.17219e-06
-5.07502e-05
-0.00015345
-1.59321e-06
-5.21884e-05
-0.000155277
-1.43776e-06
-5.32325e-05
-0.000156496
-8.48008e-07
-5.40963e-05
-0.000157532
-5.09294e-08
-5.456e-05
-0.000158118
7.48727e-07
-5.45832e-05
-0.000158161
1.34573e-06
-5.41687e-05
-0.000157663
1.51715e-06
-5.33545e-05
-0.00015671
1.12975e-06
-5.23619e-05
-0.000155563
-5.09444e-05
-0.000153768
-2.09862e-06
-6.65793e-05
-0.000192911
-2.62352e-06
-6.89424e-05
-0.000196231
-2.27234e-06
-7.0462e-05
-0.000198501
-1.307e-06
-7.16984e-05
-0.000200346
-7.47649e-08
-7.23323e-05
-0.000201337
1.15726e-06
-7.23615e-05
-0.000201394
2.1293e-06
-7.17904e-05
-0.000200517
2.49868e-06
-7.06168e-05
-0.000198788
2.0286e-06
-6.91737e-05
-0.000196633
-6.68371e-05
-0.000193359
-3.67197e-06
-0.000249257
-7.85472e-05
-4.33374e-06
-0.000255627
-8.22643e-05
-3.63173e-06
-0.000259791
-8.43578e-05
-2.03538e-06
-0.000263019
-8.60284e-05
-1.08546e-07
-0.000264668
-8.68291e-05
1.81467e-06
-0.000264742
-8.68657e-05
3.4152e-06
-0.000263251
-8.6137e-05
4.13497e-06
-0.000260193
-8.45476e-05
3.56082e-06
-0.000256221
-8.25593e-05
-0.000249929
-7.88857e-05
-9.71384e-07
-2.84966e-05
-8.7155e-05
-1.29317e-06
-2.95042e-05
-8.79981e-05
-1.17219e-06
-3.00419e-05
-8.84198e-05
-7.10483e-07
-3.04634e-05
-8.87832e-05
-5.94073e-08
-3.06993e-05
-8.90036e-05
5.95685e-07
-3.07117e-05
-8.90268e-05
1.07168e-06
-3.05005e-05
-8.88521e-05
1.21644e-06
-3.01049e-05
-8.85309e-05
9.30806e-07
-2.95949e-05
-8.81452e-05
-2.85959e-05
-8.73204e-05
-1.24753e-06
-5.85661e-05
-9.74849e-05
-1.7039e-06
-6.03118e-05
-9.88354e-05
-1.54884e-06
-6.15032e-05
-9.95006e-05
-9.27622e-07
-6.24644e-05
-0.000100041
-7.03959e-08
-6.29851e-05
-0.000100355
7.9113e-07
-6.30092e-05
-0.000100382
1.42564e-06
-6.25393e-05
-0.000100122
1.60663e-06
-6.16307e-05
-9.9633e-05
1.19325e-06
-6.04949e-05
-9.90141e-05
-5.87697e-05
-9.76798e-05
-2.18561e-06
-9.05028e-05
-0.00011934
-2.80471e-06
-9.35062e-05
-0.000121483
-2.45565e-06
-9.5624e-05
-0.000122741
-1.43047e-06
-9.73106e-05
-0.00012373
-9.45309e-08
-9.81853e-05
-0.000124271
1.24343e-06
-9.82218e-05
-0.000124305
2.2807e-06
-9.74244e-05
-0.000123834
2.65757e-06
-9.58205e-05
-0.000122915
2.10245e-06
-9.37974e-05
-0.000121727
-9.08296e-05
-0.000119608
-4.16871e-06
-0.00012256
-0.000156698
-4.89977e-06
-0.000128038
-0.000160983
-4.08908e-06
-0.000131408
-0.000163546
-2.30012e-06
-0.000134006
-0.00016546
-1.32071e-07
-0.000135278
-0.000166435
2.03429e-06
-0.000135324
-0.000166481
3.82946e-06
-0.000134155
-0.000165602
4.66443e-06
-0.000131672
-0.000163796
4.03944e-06
-0.000128458
-0.000161358
-0.000123036
-0.000157116
-7.74501e-06
-0.000214606
-0.000149474
-8.50086e-06
-0.000224078
-0.00015886
-6.79818e-06
-0.000229177
-0.000163758
-3.69205e-06
-0.000232748
-0.000167423
-1.85212e-07
-0.000234424
-0.000169068
3.31307e-06
-0.000234482
-0.000169119
6.40796e-06
-0.000232943
-0.000167601
8.12116e-06
-0.000229534
-0.000164072
7.53669e-06
-0.000224692
-0.000159426
-0.000215296
-0.000150133
-1.22188e-06
-3.89468e-05
-4.70113e-05
-1.67402e-06
-4.02718e-05
-4.7299e-05
-1.52912e-06
-4.10599e-05
-4.7531e-05
-9.27985e-07
-4.16763e-05
-4.77349e-05
-8.28443e-08
-4.20145e-05
-4.78612e-05
7.67855e-07
-4.20301e-05
-4.78734e-05
1.38648e-06
-4.17241e-05
-4.77709e-05
1.56361e-06
-4.11421e-05
-4.75899e-05
1.16011e-06
-4.03911e-05
-4.7378e-05
-3.90782e-05
-4.71025e-05
-1.64669e-06
-8.12169e-05
-5.35877e-05
-2.28748e-06
-8.37301e-05
-5.47609e-05
-2.07734e-06
-8.55564e-05
-5.52374e-05
-1.23929e-06
-8.70032e-05
-5.55766e-05
-9.69812e-08
-8.77654e-05
-5.57702e-05
1.0498e-06
-8.77969e-05
-5.5785e-05
1.90451e-06
-8.71021e-05
-5.56214e-05
2.14784e-06
-8.57276e-05
-5.53127e-05
1.5669e-06
-8.39827e-05
-5.48675e-05
-8.15003e-05
-5.37017e-05
-3.15122e-06
-0.000128927
-6.84989e-05
-3.98767e-06
-0.000133802
-7.05938e-05
-3.438e-06
-0.00013727
-7.15983e-05
-1.97568e-06
-0.000139935
-7.22846e-05
-1.28673e-07
-0.000141267
-7.26388e-05
1.7191e-06
-0.000141315
-7.26584e-05
3.19401e-06
-0.000140088
-7.23437e-05
3.7765e-06
-0.000137546
-7.17035e-05
3.03179e-06
-0.000134228
-7.07541e-05
-0.000129412
-6.86721e-05
-6.53058e-06
-0.000182372
-9.67235e-05
-7.41804e-06
-0.000192588
-0.000101342
-6.00955e-06
-0.000198666
-0.000103594
-3.30303e-06
-0.000203108
-0.000105032
-1.79523e-07
-0.000205165
-0.0001057
2.93947e-06
-0.000205226
-0.000105725
5.64048e-06
-0.000203318
-0.000105116
7.07028e-06
-0.000199051
-0.000103754
6.33945e-06
-0.000193267
-0.000101623
-0.000183152
-9.70344e-05
-1.33625e-05
-0.000148487
-0.000235182
-1.36494e-05
-0.000160845
-0.000255582
-1.03908e-05
-0.000165963
-0.000265202
-5.429e-06
-0.000168891
-0.000271996
-2.45915e-07
-0.000170065
-0.000274774
4.91055e-06
-0.000170096
-0.000274841
9.83064e-06
-0.000168998
-0.000272244
1.30508e-05
-0.000166205
-0.000265673
1.30453e-05
-0.000161391
-0.000256578
-0.000149082
-0.000236345
-1.23411e-06
-4.57928e-05
-1.82437e-06
-4.6726e-05
-1.70923e-06
-4.76637e-05
-1.0419e-06
-4.84205e-05
-9.39986e-08
-4.88268e-05
8.5963e-07
-4.88438e-05
1.54598e-06
-4.84736e-05
1.69578e-06
-4.77561e-05
1.16043e-06
-4.6862e-05
-4.59496e-05
-1.81132e-06
-9.75838e-05
-2.61355e-06
-0.0001007
-2.39691e-06
-0.000103134
-1.42385e-06
-0.000104987
-1.09916e-07
-0.000105927
1.20774e-06
-0.000105962
2.19745e-06
-0.000105099
2.44808e-06
-0.000103336
1.71544e-06
-0.000101012
-9.79405e-05
-3.94314e-06
-0.000162146
-4.89362e-06
-0.000170361
-4.14613e-06
-0.000175499
-2.34173e-06
-0.000179096
-1.4659e-07
-0.000180782
2.04816e-06
-0.000180834
3.8576e-06
-0.000179273
4.63448e-06
-0.000175835
3.79631e-06
-0.000170945
-0.000162816
-9.33419e-06
-0.00024956
-9.85355e-06
-0.00027121
-7.60407e-06
-0.000281379
-4.03269e-06
-0.000287737
-2.01774e-07
-0.000290347
3.61065e-06
-0.000290411
7.15297e-06
-0.000287964
9.37962e-06
-0.000281858
9.08486e-06
-0.000272284
-0.000250774
-2.29283e-05
-0.000375124
-2.02402e-05
-0.000434805
-1.38845e-05
-0.000453761
-6.77634e-06
-0.000463801
-2.75535e-07
-0.000466981
6.18216e-06
-0.000467019
1.31555e-05
-0.000464015
1.93726e-05
-0.000454315
2.24795e-05
-0.000436829
-0.000377379
-6.09166e-05
-0.00056996
0.000255649
-4.40424e-05
-0.000744404
0.000292632
-2.43099e-05
-0.00077865
0.000305038
-1.05488e-05
-0.00078909
0.000311398
-3.23336e-07
-0.000790812
0.00031349
9.76638e-06
-0.000790777
0.00031352
2.3172e-05
-0.00078907
0.000311553
4.23163e-05
-0.000779042
0.000305452
5.99973e-05
-0.000748476
0.000293933
-0.000574554
0.000257137
-0.00012979
-0.000858995
0.000418685
-8.77077e-05
-0.00127689
0.000490298
-4.03631e-05
-0.00133789
0.000511771
-1.59987e-05
-0.00133483
0.000521259
-4.1316e-07
-0.00133004
0.000523496
1.4966e-05
-0.00132977
0.000523496
3.8426e-05
-0.001334
0.000521328
8.45159e-05
-0.0013374
0.000512193
0.000128123
-0.00128441
0.000492295
-0.000867478
0.00042096
-0.000318258
-0.00121194
0.000671218
-0.000166058
-0.00224971
0.000820495
-4.77941e-05
-0.00232505
0.000868834
-1.27622e-05
-0.00226179
0.000891822
-9.5562e-08
-0.00223899
0.000896198
1.21913e-05
-0.00223834
0.000896185
4.5288e-05
-0.00225919
0.000891986
0.000160349
-0.00232228
0.000869865
0.000314478
-0.00226267
0.000823969
-0.00122949
0.0006765
-0.00033608
-0.00184881
0.000972751
-0.000136426
-0.00327618
0.000826696
-3.7546e-05
-0.00333844
0.000914355
-8.36026e-06
-0.00325613
0.000965013
-8.49622e-08
-0.00322682
0.000979407
7.9517e-06
-0.00322605
0.000979514
3.5895e-05
-0.00325311
0.000965882
0.000132193
-0.00333513
0.000916324
0.000331697
-0.00328918
0.000827006
-0.00187226
0.00097438
0.00034626
-0.00219516
0.00018076
-0.00311082
5.70573e-05
-0.00321489
1.62354e-05
-0.00321546
1.38074e-07
-0.00321087
-1.55203e-05
-0.00321055
-5.42611e-05
-0.00321454
-0.000174584
-0.00321491
-0.000341637
-0.00312225
-0.00221394
-2.74762e-05
-0.00025035
0.000298248
-2.34594e-05
-0.000288858
0.00032183
-1.58577e-05
-0.000299503
0.000331675
-7.61236e-06
-0.000307048
0.000338131
-2.87551e-07
-0.000309478
0.000340791
6.97566e-06
-0.000309522
0.000340863
1.50899e-05
-0.000307274
0.000338389
2.25489e-05
-0.000299893
0.000332185
2.6993e-05
-0.000290065
0.000322928
-0.000251717
0.000299477
-5.29854e-05
-0.000219941
0.000441176
-4.55016e-05
-0.000291773
0.000485653
-2.99325e-05
-0.000307044
0.00050367
-1.40986e-05
-0.000316985
0.00051527
-4.82113e-07
-0.000319429
0.000519738
1.30235e-05
-0.000319464
0.000519828
2.85951e-05
-0.000317205
0.00051563
4.39004e-05
-0.000307462
0.000504395
5.20234e-05
-0.000293349
0.000487396
-0.000221967
0.000443201
-5.39161e-05
1.69311e-05
0.000488105
-4.16877e-05
-7.6333e-05
0.000592779
-1.87769e-05
-7.44326e-05
0.000613229
-7.22907e-06
-6.11204e-05
0.000624323
-1.9106e-07
-5.70914e-05
0.000626724
6.75319e-06
-5.70436e-05
0.00062674
1.78054e-05
-6.08161e-05
0.000624483
4.04079e-05
-7.40284e-05
0.000613744
5.29825e-05
-7.71988e-05
0.000595224
1.62829e-05
0.000491144
-0.000117502
0.000239089
0.000868006
-9.64988e-05
-0.000196222
0.000925523
-5.50463e-05
-0.000184741
0.000983149
-2.47224e-05
-0.000143295
0.0010168
-8.39875e-07
-0.000129027
0.0010274
2.28816e-05
-0.00012882
0.00102752
5.2967e-05
-0.00014251
0.00101743
9.50921e-05
-0.000184198
0.000984359
0.000115479
-0.000198328
0.000927662
0.00023388
0.000872189
0.000226023
-0.00218217
0.00012584
-0.00320693
4.35324e-05
-0.00331739
1.28252e-05
-0.00332812
1.4475e-07
-0.00332728
-1.21828e-05
-0.0033271
-4.15351e-05
-0.00332776
-0.000122021
-0.00331868
-0.000223435
-0.00321923
-0.00220354
-1.34364e-05
-0.000150255
0.000312433
-1.23525e-05
-0.000163696
0.000325572
-9.06212e-06
-0.000167534
0.000332146
-4.61378e-06
-0.000170689
0.000336927
-2.03301e-07
-0.000171862
0.000339158
4.17596e-06
-0.0001719
0.000339235
8.58885e-06
-0.000170832
0.000337195
1.1842e-05
-0.00016777
0.00033262
1.31729e-05
-0.000164219
0.000326395
-0.000150836
0.000313346
-2.65612e-05
-0.000125061
0.000442503
-2.44749e-05
-0.000144741
0.000464613
-1.79544e-05
-0.000147387
0.000476998
-9.08614e-06
-0.000150426
0.000486138
-3.80887e-07
-0.000151184
0.000490338
8.28523e-06
-0.000151213
0.000490477
1.70658e-05
-0.000150575
0.000486587
2.35282e-05
-0.000147622
0.000477806
2.59912e-05
-0.000145291
0.000466013
-0.000125823
0.000444151
-1.98017e-05
3.79568e-06
0.00037902
-1.32818e-05
2.45541e-05
0.000416946
-6.9952e-06
3.40487e-05
0.000425486
-3.05639e-06
3.89923e-05
0.000430947
-1.08932e-07
4.01229e-05
0.000432463
2.81173e-06
4.01009e-05
0.000432483
6.60125e-06
3.90152e-05
0.00043111
1.27279e-05
3.41874e-05
0.000425811
1.94913e-05
2.50485e-05
0.000418067
4.6592e-06
0.00038012
-6.76071e-05
0.000307106
0.000632211
-5.21128e-05
0.000312261
0.000622246
-3.28082e-05
0.000350664
0.000647161
-1.58935e-05
0.000371592
0.000667226
-6.99617e-07
0.000377604
0.000674652
1.43948e-05
0.000377611
0.000674861
3.11212e-05
0.000371683
0.000667966
5.04901e-05
0.000350706
0.000648398
6.61553e-05
0.000313222
0.000623745
0.000308516
0.000634407
8.37488e-05
-0.00195889
4.38352e-05
-0.00285481
1.44414e-05
-0.00293739
3.68814e-06
-0.00294583
4.87718e-08
-0.00294609
-3.45803e-06
-0.00294605
-1.3709e-05
-0.00294588
-4.26362e-05
-0.0029391
-8.28628e-05
-0.00286583
-0.00197793
-5.43546e-06
-7.71709e-05
0.000316516
-5.4445e-06
-8.14769e-05
0.000324825
-4.31562e-06
-8.26965e-05
0.000329388
-2.32119e-06
-8.39636e-05
0.000332908
-1.20759e-07
-8.45239e-05
0.000334677
2.07759e-06
-8.4546e-05
0.00033476
4.06542e-06
-8.40616e-05
0.000333159
5.20107e-06
-8.28393e-05
0.000329821
5.31356e-06
-8.17181e-05
0.000325488
-7.74452e-05
0.00031724
-1.13615e-05
-6.30808e-05
0.000439803
-1.1432e-05
-7.18928e-05
0.000455155
-9.01185e-06
-7.34101e-05
0.000465353
-4.81338e-06
-7.5063e-05
0.000473101
-2.3538e-07
-7.56084e-05
0.000476926
4.32222e-06
-7.56474e-05
0.000477076
8.50966e-06
-7.51731e-05
0.000473594
1.09395e-05
-7.36017e-05
0.000466208
1.10614e-05
-7.22359e-05
0.000456461
-6.35379e-05
0.000441328
-4.70624e-06
-3.9802e-05
0.000360422
-3.4654e-06
-3.15832e-05
0.000375436
-2.45295e-06
-2.87149e-05
0.000379825
-1.32445e-06
-2.83482e-05
0.000383168
-7.22656e-08
-2.87844e-05
0.000384425
1.1856e-06
-2.88169e-05
0.000384466
2.29427e-06
-2.84647e-05
0.000383334
3.28628e-06
-2.88184e-05
0.00038009
4.6061e-06
-3.1502e-05
0.000376056
-3.98679e-05
0.000361008
-3.52076e-05
8.81257e-05
0.000539405
-2.76728e-05
7.18801e-05
0.000511203
-1.86833e-05
8.17438e-05
0.000527667
-9.29378e-06
8.66416e-05
0.000542803
-4.78711e-07
8.7952e-05
0.000549071
8.27e-06
8.79389e-05
0.000549293
1.75765e-05
8.66174e-05
0.000543551
2.66416e-05
8.16115e-05
0.000528869
3.42934e-05
7.19195e-05
0.000512586
8.78881e-05
0.000540862
1.94992e-05
-0.00189034
8.74177e-06
-0.00277225
1.79287e-06
-0.00284875
-6.34864e-08
-0.00285741
1.55098e-08
-0.0028583
1.48895e-07
-0.00285831
-1.56093e-06
-0.00285763
-8.46477e-06
-0.00285064
-1.92965e-05
-0.00278316
-0.00190939
-6.61797e-07
-1.16808e-05
0.000312665
-8.72995e-07
-1.05642e-05
0.000319243
-8.85887e-07
-9.71799e-06
0.000322713
-5.47438e-07
-9.50334e-06
0.000325476
-3.39073e-08
-9.45801e-06
0.000326926
4.73154e-07
-9.4771e-06
0.000327003
8.25386e-07
-9.54213e-06
0.000325723
8.23782e-07
-9.7695e-06
0.00032312
6.36421e-07
-1.05951e-05
0.00031983
-1.17322e-05
0.000313309
-4.16973e-07
-1.95186e-05
0.00044811
-1.18456e-06
-1.77425e-05
0.000463222
-1.4991e-06
-1.70677e-05
0.00047314
-9.91223e-07
-1.73601e-05
0.000480598
-8.15406e-08
-1.76086e-05
0.000484294
8.44136e-07
-1.76296e-05
0.000484457
1.36497e-06
-1.74483e-05
0.000481109
1.09911e-06
-1.71962e-05
0.000474028
3.57954e-07
-1.78377e-05
0.000464578
-1.97372e-05
0.000449708
2.76437e-06
-2.14007e-05
0.000359541
1.8242e-06
-1.25978e-05
0.000371311
5.77243e-07
-1.07466e-05
0.00037483
3.55881e-08
-1.11856e-05
0.000377641
-2.07248e-08
-1.17867e-05
0.00037878
-8.66816e-08
-1.18495e-05
0.00037883
-5.74609e-07
-1.13383e-05
0.000377831
-1.77601e-06
-1.09594e-05
0.000375156
-2.77027e-06
-1.26426e-05
0.000371867
-2.16407e-05
0.000360103
3.83497e-06
-2.37078e-05
0.000537821
-8.00115e-07
-2.97811e-05
0.000532939
-3.73945e-06
-3.16572e-05
0.000551517
-2.84042e-06
-3.41988e-05
0.000564864
-2.48809e-07
-3.52245e-05
0.000569841
2.35768e-06
-3.52288e-05
0.000570041
3.33762e-06
-3.43221e-05
0.000565477
4.81794e-07
-3.1893e-05
0.000552626
-4.32189e-06
-3.01093e-05
0.000534768
-2.45709e-05
0.00053937
-2.37863e-06
-0.00191182
-3.74334e-06
-0.00280071
-3.03231e-06
-0.00288124
-1.69423e-06
-0.00289304
-1.68888e-08
-0.0028953
1.66086e-06
-0.00289534
3.01723e-06
-0.00289338
3.73855e-06
-0.00288334
2.41251e-06
-0.00281204
-0.00193164
2.78351e-06
5.71294e-05
0.000298095
2.55466e-06
6.38366e-05
0.000304203
1.77212e-06
6.70197e-05
0.000306884
8.77944e-07
6.8855e-05
0.000309101
4.39019e-08
6.95751e-05
0.000310273
-7.83602e-07
6.95865e-05
0.000310347
-1.67021e-06
6.88889e-05
0.000309323
-2.44637e-06
6.71129e-05
0.000307246
-2.72285e-06
6.40783e-05
0.00030472
5.7377e-05
0.000298663
1.0659e-05
2.74817e-05
0.000467164
8.87978e-06
4.46526e-05
0.00048435
5.72971e-06
4.88354e-05
0.000494631
2.68154e-06
5.0318e-05
0.000502379
8.97052e-08
5.04783e-05
0.00050619
-2.48195e-06
5.04348e-05
0.000506362
-5.48135e-06
5.02737e-05
0.000502925
-8.55593e-06
4.88008e-05
0.000495578
-1.05038e-05
4.49037e-05
0.000485837
2.76028e-05
0.000469009
8.95485e-06
2.51436e-05
0.00035304
6.18257e-06
5.26209e-05
0.000366128
3.16705e-06
5.85038e-05
0.000368335
1.23136e-06
5.94636e-05
0.000370537
3.49323e-08
5.91398e-05
0.000371412
-1.13562e-06
5.91174e-05
0.000371471
-3.01504e-06
5.93215e-05
0.000370723
-5.98443e-06
5.84083e-05
0.000368639
-8.86389e-06
5.30334e-05
0.000366598
2.52172e-05
0.000353616
5.96436e-05
-0.000135787
0.000638855
3.23714e-05
-9.26802e-05
0.000705535
1.17251e-05
-9.83674e-05
0.00072889
3.60559e-06
-0.000109026
0.000741393
6.66767e-10
-0.000113122
0.000745631
-3.56263e-06
-0.000113231
0.000745793
-1.12786e-05
-0.000109465
0.000741953
-3.14578e-05
-9.90701e-05
0.00073014
-5.95687e-05
-9.28697e-05
0.000708706
-0.00013736
0.000642222
-2.46592e-05
-0.00202299
-1.78195e-05
-0.00290039
-8.90593e-06
-0.00298862
-3.67057e-06
-0.00300741
-6.69839e-08
-0.00301216
3.53957e-06
-0.00301225
8.59846e-06
-0.00300801
1.74119e-05
-0.00299128
2.45937e-05
-0.00291225
-0.00204446
5.78628e-06
0.00013978
0.000263717
5.35174e-06
0.000154168
0.000268829
3.93931e-06
0.0001601
0.00027032
2.04812e-06
0.000163878
0.000271806
1.19747e-07
0.000165438
0.000272616
-1.80472e-06
0.000165465
0.000272676
-3.68939e-06
0.000164014
0.000271987
-5.11335e-06
0.00016037
0.000270599
-5.64667e-06
0.00015474
0.000269223
0.000140455
0.000264152
2.38117e-05
0.000104378
0.000478952
1.989e-05
0.000149589
0.00049298
1.34169e-05
0.000159481
0.000501933
6.50067e-06
0.00016408
0.000509304
2.61378e-07
0.000165081
0.00051299
-5.9265e-06
0.00016509
0.00051316
-1.27506e-05
0.000164097
0.000509839
-1.91031e-05
0.000159665
0.000502848
-2.33298e-05
0.000150549
0.000494359
0.000105387
0.000480839
1.55531e-05
0.000120522
0.000321263
1.03654e-05
0.000191208
0.000329832
5.5021e-06
0.000204832
0.000327897
2.28201e-06
0.000209648
0.000328299
1.06479e-07
0.000210294
0.000328501
-2.06427e-06
0.00021024
0.000328547
-5.17887e-06
0.000209627
0.000328447
-1.0033e-05
0.000205099
0.000328043
-1.5315e-05
0.000192461
0.000330045
0.000122008
0.000321625
0.000148327
-0.000244021
0.000855083
8.30514e-05
-1.13039e-05
0.000973138
3.33037e-05
-1.03062e-05
0.000993678
1.18496e-05
-3.59753e-05
0.00100833
2.6619e-07
-4.74868e-05
0.00101481
-1.11192e-05
-4.77468e-05
0.00101507
-3.1722e-05
-3.72184e-05
0.00100919
-8.04304e-05
-1.12478e-05
0.000995121
-0.000146594
-9.40237e-06
0.000976511
-0.000243673
0.000861235
-6.85769e-05
-0.00219857
-4.5207e-05
-0.00293517
-2.05878e-05
-0.0030237
-7.69894e-06
-0.00305644
-1.23491e-07
-0.00306736
7.32543e-06
-0.00306761
1.96226e-05
-0.00305763
4.38598e-05
-0.00302692
6.78047e-05
-0.0029457
-0.00222036
7.85333e-06
0.000237862