/*--------------------------------*- C++ -*----------------------------------*\
| =========                 |                                                 |
| \\      /  F ield         | OpenFOAM: The Open Source CFD Toolbox           |
|  \\    /   O peration     | Version:  2.3.1                                 |
|   \\  /    A nd           | Web:      www.OpenFOAM.org                      |
|    \\/     M anipulation  |                                                 |
\*---------------------------------------------------------------------------*/
FoamFile
{
    version     2.0;
    format      ascii;
    class       volScalarField;
    location    "0.35";
    object      p;
}
// * * * * * * * * * * * * * * * * * * * * * * * * * * * * * * * * * * * * * //

dimensions      [0 2 -2 0 0 0 0];

internalField   nonuniform List<scalar> 
9648
(
-0.0591926
-0.318325
-0.629185
-0.997189
-1.44186
-1.97492
-2.60801
-3.3497
-4.20768
-5.19987
-6.33746
-7.63336
-9.10019
-10.7487
-12.5879
-14.628
-16.8766
-19.3422
-22.0283
-24.9393
-28.08
-31.447
-35.0405
-38.8563
-42.8909
-47.1348
-51.576
-56.201
-60.9879
-65.9262
-70.9988
-76.1951
-81.5079
-86.9166
-92.407
-97.942
-103.501
-109.067
-114.614
-120.128
-125.587
-130.987
-136.3
-141.514
-146.609
-151.537
-156.276
-160.813
-165.169
-169.318
-173.226
-176.897
-180.33
-183.491
-186.381
-188.985
-191.289
-193.301
-194.997
-196.39
-197.47
0.494717
0.24053
-0.0635933
-0.426381
-0.864588
-1.3806
-1.98708
-2.69879
-3.52767
-4.48262
-5.57476
-6.81597
-8.21735
-9.78931
-11.5415
-13.4829
-15.6209
-17.9623
-20.512
-23.274
-26.2513
-29.4431
-32.8483
-36.4638
-40.2851
-44.3046
-48.5111
-52.8894
-57.4211
-62.0924
-66.8899
-71.8035
-76.8273
-81.948
-87.1473
-92.3936
-97.6647
-102.938
-108.191
-113.405
-118.563
-123.657
-128.678
-133.608
-138.418
-143.067
-147.531
-151.801
-155.879
-159.766
-163.451
-166.915
-170.144
-173.124
-175.84
-178.287
-180.447
-182.331
-183.915
-185.205
-186.184
0.311908
0.0798071
-0.19902
-0.533628
-0.930616
-1.40982
-1.97866
-2.64891
-3.431
-4.3381
-5.38067
-6.57065
-7.91875
-9.43483
-11.1285
-13.008
-15.0809
-17.3532
-19.8298
-22.5147
-25.4099
-28.5154
-31.83
-35.3504
-39.0721
-42.9876
-47.0859
-51.3525
-55.7705
-60.3266
-65.0068
-69.7997
-74.6966
-79.6844
-84.7448
-89.8586
-95.0126
-100.195
-105.374
-110.514
-115.583
-120.56
-125.448
-130.235
-134.902
-139.422
-143.776
-147.964
-151.975
-155.794
-159.406
-162.794
-165.953
-168.861
-171.521
-173.913
-176.045
-177.885
-179.442
-180.713
-181.704
0.54252
0.308535
0.0300034
-0.300867
-0.693066
-1.15768
-1.70558
-2.34825
-3.09716
-3.96465
-4.96255
-6.10237
-7.39467
-8.84924
-10.476
-12.2826
-14.2764
-16.4633
-18.8474
-21.4327
-24.2212
-27.2122
-30.405
-33.7958
-37.3795
-41.1479
-45.0902
-49.195
-53.4505
-57.8439
-62.3626
-66.9868
-71.6959
-76.4749
-81.3008
-86.1766
-91.1225
-96.1274
-101.177
-106.196
-111.12
-115.94
-120.629
-125.198
-129.63
-133.897
-138.02
-142.008
-145.856
-149.536
-153.013
-156.266
-159.288
-162.067
-164.601
-166.88
-168.899
-170.646
-172.118
-173.311
-174.224
0.603198
0.401827
0.155311
-0.144869
-0.506615
-0.939378
-1.45302
-2.05817
-2.76694
-3.59026
-4.5408
-5.6286
-6.86447
-8.25712
-9.81731
-11.5516
-13.467
-15.5695
-17.8619
-20.3484
-23.0311
-25.9086
-28.9813
-32.2435
-35.6898
-39.3123
-43.1013
-47.0509
-51.1477
-55.3814
-59.7347
-64.1843
-68.7192
-73.312
-77.947
-82.6264
-87.3486
-92.1367
-96.943
-101.734
-106.501
-111.199
-115.82
-120.298
-124.553
-128.581
-132.431
-136.18
-139.847
-143.387
-146.743
-149.877
-152.781
-155.45
-157.878
-160.06
-161.986
-163.654
-165.062
-166.203
-167.073
0.695525
0.51067
0.284691
0.00789771
-0.326747
-0.729688
-1.21024
-1.77889
-2.44843
-3.22853
-4.13304
-5.17016
-6.35142
-7.68269
-9.17785
-10.8409
-12.6787
-14.6976
-16.8974
-19.284
-21.8604
-24.6226
-27.5746
-30.706
-34.0134
-37.4902
-41.1283
-44.9248
-48.8629
-52.9165
-57.0755
-61.3254
-65.6671
-70.117
-74.639
-79.1915
-83.7475
-88.2115
-92.6248
-97.0097
-101.433
-106.019
-110.639
-115.161
-119.385
-123.206
-126.788
-130.247
-133.672
-137.036
-140.246
-143.251
-146.031
-148.583
-150.902
-152.978
-154.805
-156.382
-157.714
-158.79
-159.607
0.79042
0.622964
0.41668
0.161545
-0.147718
-0.522793
-0.972237
-1.50551
-2.13748
-2.87533
-3.73587
-4.72409
-5.85302
-7.12281
-8.55456
-10.1469
-11.9069
-13.843
-15.9494
-18.2328
-20.7024
-23.3465
-26.1785
-29.1803
-32.3473
-35.6784
-39.1598
-42.8083
-46.5823
-50.4599
-54.4165
-58.428
-62.554
-66.8188
-71.2337
-75.751
-80.1809
-84.4746
-88.46
-92.2734
-96.2539
-100.482
-105.072
-109.703
-113.925
-117.713
-121.082
-124.261
-127.428
-130.564
-133.606
-136.458
-139.102
-141.536
-143.745
-145.716
-147.437
-148.916
-150.165
-151.179
-151.94
0.882478
0.733428
0.548962
0.314409
0.0310235
-0.317591
-0.738423
-1.23434
-1.83183
-2.52555
-3.34653
-4.28581
-5.37105
-6.57191
-7.94331
-9.46747
-11.1454
-13.0062
-15.0175
-17.1873
-19.5588
-22.0725
-24.7952
-27.6715
-30.6915
-33.88
-37.1842
-40.6673
-44.299
-48.0049
-51.8037
-55.6152
-59.4251
-63.3988
-67.62
-71.9563
-76.4738
-80.7255
-84.5526
-88.0733
-91.3662
-95.1123
-99.3067
-103.723
-108.041
-111.825
-115.19
-118.213
-121.144
-124.034
-126.877
-129.535
-132.015
-134.328
-136.438
-138.285
-139.906
-141.261
-142.431
-143.397
-144.093
0.978295
0.83842
0.691204
0.461814
0.215146
-0.118122
-0.516579
-0.948061
-1.5427
-2.15814
-2.97598
-3.83509
-4.93172
-5.99692
-7.35003
-8.82405
-10.3781
-12.208
-14.1032
-16.1265
-18.4811
-20.7807
-23.4593
-26.1866
-29.0395
-32.167
-35.1971
-38.5358
-42.0375
-45.5176
-49.2916
-52.9121
-56.4307
-60.104
-63.9577
-67.7804
-72.259
-76.6908
-80.764
-84.2844
-87.0931
-90.2693
-93.607
-97.6408
-101.646
-105.486
-109.287
-112.214
-114.944
-117.397
-120.117
-122.502
-124.841
-127.098
-129.079
-130.737
-132.352
-133.489
-134.655
-135.576
-136.138
-198.213
-198.633
-198.736
-198.511
-197.98
-197.132
-195.97
-194.494
-192.694
-190.598
-188.182
-185.461
-182.471
-179.216
-175.686
-171.895
-167.851
-163.581
-159.076
-154.351
-149.438
-144.325
-139.035
-133.581
-127.99
-122.269
-116.401
-110.425
-104.346
-98.1975
-91.9796
-85.7128
-79.4186
-73.0971
-66.7766
-60.4592
-54.1681
-47.9153
-41.709
-35.5661
-29.498
-23.5281
-17.6538
-11.8953
-6.26674
-0.770436
4.5778
9.76971
14.7902
19.6325
24.2919
28.7574
33.0182
37.0729
40.9109
44.5274
47.9172
51.075
54.0002
56.6885
59.1396
-186.853
-187.191
-187.258
-187.022
-186.488
-185.663
-184.538
-183.119
-181.393
-179.371
-177.052
-174.446
-171.593
-168.493
-165.136
-161.525
-157.674
-153.597
-149.299
-144.793
-140.098
-135.217
-130.166
-124.955
-119.599
-114.109
-108.517
-102.825
-97.0385
-91.1772
-85.2528
-79.2808
-73.2761
-67.2508
-61.221
-55.1961
-49.1921
-43.2229
-37.2998
-31.4354
-25.6431
-19.9388
-14.3296
-8.82904
-3.44946
1.8022
6.91465
11.8773
16.6784
21.3107
25.7676
30.04
34.1185
38.0002
41.6758
45.1408
48.3881
51.4157
54.2202
56.7988
59.1504
-182.399
-182.822
-182.905
-182.681
-182.169
-181.381
-180.275
-178.873
-177.148
-175.131
-172.849
-170.3
-167.472
-164.376
-161.032
-157.452
-153.642
-149.615
-145.38
-140.948
-136.333
-131.542
-126.588
-121.482
-116.235
-110.857
-105.368
-99.7816
-94.1083
-88.3625
-82.5577
-76.7088
-70.8294
-64.9332
-59.0333
-53.1412
-47.2702
-41.433
-35.6425
-29.9112
-24.2521
-18.6785
-13.2001
-7.82886
-2.57522
2.55233
7.54307
12.3867
17.0729
21.5946
25.9433
30.1119
34.0926
37.8808
41.4685
44.8508
48.0221
50.9788
53.7181
56.2368
58.5352
-174.851
-175.203
-175.257
-175.019
-174.483
-173.634
-172.502
-171.145
-169.531
-167.648
-165.483
-163.055
-160.361
-157.414
-154.221
-150.793
-147.138
-143.268
-139.194
-134.929
-130.484
-125.871
-121.099
-116.179
-111.122
-105.94
-100.648
-95.2603
-89.7886
-84.2457
-78.6442
-72.9995
-67.325
-61.6348
-55.9397
-50.2518
-44.5831
-38.9453
-33.352
-27.8152
-22.3476
-16.9617
-11.668
-6.4774
-1.39953
3.55778
8.38318
13.0674
17.5993
21.9738
26.1812
30.2145
34.0683
37.7361
41.2128
44.4904
47.5663
50.4341
53.0927
55.538
57.7713
-167.668
-167.992
-168.036
-167.806
-167.294
-166.503
-165.462
-164.092
-162.477
-160.615
-158.498
-156.129
-153.513
-150.659
-147.571
-144.257
-140.724
-136.983
-133.046
-128.926
-124.635
-120.183
-115.579
-110.831
-105.951
-100.951
-95.8455
-90.6484
-85.3707
-80.0248
-74.6208
-69.1762
-63.7032
-58.2176
-52.7271
-47.2436
-41.7774
-36.3399
-30.9455
-25.6054
-20.3313
-15.1368
-10.0312
-5.02524
-0.128356
4.65488
9.30903
13.8291
18.2008
22.4221
26.4825
30.3747
34.0948
37.6355
40.9947
44.162
47.1371
49.9095
52.4821
54.8483
57.0113
-160.161
-160.451
-160.472
-160.227
-159.715
-158.94
-157.901
-156.6
-155.041
-153.237
-151.188
-148.897
-146.368
-143.614
-140.638
-137.444
-134.038
-130.429
-126.632
-122.662
-118.53
-114.248
-109.819
-105.249
-100.553
-95.7403
-90.8251
-85.8257
-80.7489
-75.6067
-70.405
-65.1667
-59.9004
-54.628
-49.3493
-44.0776
-38.8212
-33.5906
-28.4022
-23.2649
-18.1908
-13.1944
-8.28274
-3.46838
1.24027
5.84518
10.3234
14.6756
18.8803
22.9438
26.8515
30.5964
34.1786
37.5855
40.8246
43.8764
46.7476
49.4201
51.9048
54.1866
56.2771
-152.449
-152.701
-152.699
-152.438
-151.927
-151.168
-150.152
-148.881
-147.368
-145.624
-143.648
-141.438
-138.998
-136.347
-133.489
-130.419
-127.144
-123.665
-120.009
-116.194
-112.226
-108.12
-103.874
-99.4879
-94.9803
-90.3569
-85.6372
-80.8413
-75.9715
-71.0376
-66.0408
-61.0116
-55.9561
-50.905
-45.8445
-40.7935
-35.7552
-30.737
-25.7602
-20.8338
-15.9652
-11.1717
-6.45956
-1.84294
2.67137
7.09429
11.3927
15.5753
19.6077
23.5077
27.2573
30.8502
34.2887
37.5566
40.6731
43.6062
46.3738
48.9426
51.3355
53.5279
55.5438
-144.556
-144.759
-144.735
-144.449
-143.943
-143.2
-142.212
-140.95
-139.471
-137.804
-135.908
-133.773
-131.421
-128.878
-126.151
-123.207
-120.064
-116.711
-113.204
-109.549
-105.745
-101.822
-97.7765
-93.5706
-89.2552
-84.8252
-80.3082
-75.7209
-71.0529
-66.3323
-61.5341
-56.7199
-51.8722
-47.0562
-42.2179
-37.4077
-32.6081
-27.7934
-23.0293
-18.333
-13.6647
-9.07419
-4.57477
-0.1536
4.15185
8.39828
12.5089
16.5279
20.3737
24.1078
27.6901
31.1182
34.4182
37.5376
40.541
43.3495
46.0202
48.4704
50.772
52.8633
54.8086
-136.559
-136.684
-136.648
-136.331
-135.836
-135.076
-134.133
-132.809
-131.408
-129.929
-128.038
-125.982
-123.683
-121.232
-118.736
-115.846
-112.83
-109.67
-106.287
-102.808
-99.0859
-95.3276
-91.582
-87.4593
-83.3486
-79.1897
-74.8123
-70.4695
-65.8961
-61.5064
-56.7823
-52.3073
-47.554
-43.0745
-38.4193
-33.8795
-29.3797
-24.6501
-20.1061
-15.688
-11.1372
-6.8
-2.55137
1.75487
5.70501
9.91718
13.7023
17.6766
21.1974
24.8406
28.2726
31.4387
34.718
37.5732
40.6009
43.157
45.8387
48.0206
50.358
52.2481
54.2316
61.3547
63.3325
65.0734
66.5782
67.8462
68.8818
69.689
70.2725
70.6368
70.7885
70.7508
70.5667
70.2265
69.6884
68.9835
68.1156
67.0445
65.7841
64.3563
62.7765
61.0564
59.2063
57.2388
55.1646
52.9961
50.7463
48.4284
46.0566
43.6434
41.2043
38.7526
36.3033
33.8719
31.4717
29.1198
26.8291
24.6146
22.4903
20.4793
18.5953
16.8664
15.2949
13.8948
12.686
11.6832
10.8959
10.3338
9.9991
9.88693
9.98014
10.2464
10.634
11.0665
11.4431
11.6894
11.08
9.59639
8.06977
6.8041
5.86516
5.05154
61.2753
63.1742
64.847
66.2942
67.516
68.5143
69.2926
69.8549
70.2055
70.3465
70.2937
70.1065
69.7819
69.2678
68.5817
67.7275
66.6832
65.4583
64.071
62.5354
60.8627
59.0637
57.1501
55.1344
53.0284
50.844
48.5937
46.2904
43.9467
41.5765
39.193
36.8104
34.4429
32.1043
29.8097
27.573
25.409
23.3293
21.3396
19.4681
17.7221
16.1348
14.7185
13.4854
12.4472
11.6144
10.9957
10.5939
10.4042
10.4117
10.5867
10.8818
11.2244
11.5213
11.6205
11.0373
9.73576
8.37837
7.29518
6.49667
5.68089
60.6121
62.4692
64.1061
65.5242
66.7231
67.7055
68.4745
69.0344
69.3873
69.5299
69.4885
69.3259
69.0238
68.5323
67.8715
67.048
66.047
64.8753
63.5464
62.073
60.466
58.7359
56.8944
54.953
52.9226
50.8154
48.643
46.4179
44.1523
41.8596
39.5527
37.2451
34.9504
32.6823
30.4545
28.2808
26.1745
24.1476
22.2121
20.3894
18.696
17.1484
15.7563
14.5311
13.4843
12.6257
11.9623
11.4958
11.221
11.124
11.1767
11.3349
11.5277
11.6592
11.5636
10.9564
9.8207
8.59058
7.55206
6.71632
5.88411
59.7901
61.5972
63.1911
64.5747
65.7461
66.7093
67.465
68.0188
68.369
68.5105
68.4857
68.353
68.0749
67.6126
66.9816
66.1907
65.233
64.1154
62.8466
61.4384
59.9008
58.2434
56.4786
54.6169
52.6682
50.6456
48.5596
46.4225
44.2458
42.0426
39.8252
37.6067
35.3999
33.2182
31.0742
28.9816
26.9528
25.0003
23.1368
21.3784
19.7398
18.2343
16.8717
15.6601
14.6102
13.7302
13.0243
12.492
12.1267
11.9143
11.8274
11.8247
11.8412
11.7877
11.5314
10.911
9.92453
8.82141
7.81746
6.95092
6.12689
58.9661
60.7192
62.266
63.6121
64.7519
65.6928
66.4313
66.9756
67.3191
67.4607
67.4539
67.3511
67.0953
66.6631
66.0628
65.3068
64.3912
63.3268
62.117
60.774
59.3066
57.722
56.0354
54.2553
52.3902
50.4549
48.4576
46.4115
44.3259
42.2151
40.0894
37.9625
35.8454
33.7518
31.6931
29.6829
27.7324
25.8543
24.0595
22.3621
20.7744
19.309
17.9751
16.7801
15.7301
14.831
14.0853
13.4904
13.0379
12.7131
12.4899
12.33
12.1782
11.9622
11.5903
10.9716
10.1049
9.12394
8.17093
7.29697
6.46952
58.1631
59.8608
61.357
62.6653
63.7706
64.6888
65.4079
65.9426
66.2788
66.4255
66.4357
66.3603
66.1252
65.7232
65.1534
64.4343
63.5599
62.5488
61.3969
60.1189
58.7226
57.2101
55.6025
53.9053
52.1238
50.2776
48.3698
46.4164
44.4224
42.4054
40.3719
38.3377
36.3102
34.3053
32.3313
30.4035
28.5308
26.7259
24.9971
23.3583
21.819
20.3916
19.0837
17.9012
16.8484
15.9273
15.1402
14.4826
13.9452
13.514
13.1646
12.8636
12.566
12.2178
11.7582
11.136
10.3488
9.46556
8.5715
7.7129
6.88635
57.3575
58.9984
60.4412
61.7112
62.7807
63.6774
64.3775
64.9026
65.2323
65.3883
65.4147
65.3644
65.1498
64.7774
64.238
63.5571
62.7241
61.767
60.6713
59.4593
58.1359
56.6959
55.1685
53.5548
51.8566
50.1019
48.2849
46.4259
44.5241
42.6024
40.6625
38.7218
36.784
34.8678
32.9778
31.1322
29.3371
27.6047
25.9396
24.3572
22.8635
21.4722
20.1881
19.0159
17.9577
17.0141
16.1867
15.4687
14.8507
14.3219
13.8594
13.436
13.0159
12.5607
12.0301
11.395
10.6515
9.83509
8.99461
8.16262
7.34796
56.5381
58.1277
59.509
60.7462
61.772
62.6527
63.3302
63.8494
64.1713
64.3451
64.3808
64.357
64.1599
63.8193
63.3076
62.6675
61.8717
60.9772
59.9292
58.7863
57.5409
56.1673
54.7301
53.1996
51.5768
49.9212
48.193
46.4341
44.6199
42.7992
40.9505
39.1077
37.2566
35.4315
33.6203
31.8587
30.1395
28.4819
26.876
25.3498
23.895
22.5392
21.2762
20.116
19.0511
18.0838
17.2217
16.4491
15.7563
15.1427
14.5809
14.0554
13.5328
12.9912
12.4001
11.7458
11.0207
10.246
9.44295
8.63752
7.8407
55.7446
57.3938
58.6128
59.925
60.796
61.7398
62.2871
62.8961
63.129
63.4208
63.3624
63.4451
63.1853
62.9664
62.4049
61.8794
61.0179
60.2903
59.2393
58.1733
57.0413
55.6271
54.3515
52.9363
51.3007
49.8194
48.1092
46.5192
44.7198
43.0604
41.2396
39.5476
37.7352
36.0507
34.2627
32.6243
30.9372
29.3922
27.8062
26.3714
24.9133
23.6201
22.3563
21.2187
20.1496
19.1416
18.2615
17.438
16.6692
16.0003
15.3412
14.7438
14.1248
13.5222
12.8688
12.2016
11.4713
10.7317
9.94448
9.15179
8.37605
4.25015
3.52552
2.8529
2.1751
1.49388
0.851
0.259659
-0.271928
-0.723427
-1.08638
-1.35654
-1.53948
-1.63861
-1.64618
-1.5903
-1.49585
-1.37696
-1.25263
-1.13803
-1.0414
-0.965992
-0.90662
-0.859825
-0.820688
-0.785833
-0.750747
-0.711447
-0.665536
-0.608685
-0.540188
-0.456581
-0.356971
-0.24181
-0.110674
0.0328984
0.187837
0.351086
0.518016
0.684881
0.846316
0.997336
1.13204
1.25008
1.34628
1.41717
1.46263
1.48152
1.47492
1.44354
1.39037
1.31933
1.23375
1.13657
1.03341
0.925453
0.815453
0.703082
0.586663
0.457378
0.303346
0.125187
4.83438
4.14433
3.53173
2.90189
2.25004
1.63817
1.07649
0.566608
0.133275
-0.211422
-0.462712
-0.617714
-0.67589
-0.652902
-0.576012
-0.471611
-0.350873
-0.229743
-0.121072
-0.0320592
0.0360315
0.0866489
0.124303
0.152278
0.17542
0.197996
0.223341
0.255014
0.295983
0.348631
0.41542
0.49772
0.595903
0.709448
0.836646
0.97511
1.12097
1.27117
1.42172
1.56865
1.7075
1.83351
1.94185
2.02953
2.09361
2.13274
2.14629
2.13432
2.09781
2.03903
1.961
1.86712
1.7604
1.64671
1.52712
1.40588
1.28175
1.15541
1.02087
0.871111
0.699024
5.07602
4.39167
3.77004
3.09203
2.38559
1.75505
1.17332
0.62839
0.157959
-0.224667
-0.518714
-0.723378
-0.839904
-0.883619
-0.85832
-0.783793
-0.666063
-0.529945
-0.408707
-0.310401
-0.235603
-0.180375
-0.139252
-0.105589
-0.0759784
-0.0466151
-0.0140529
0.0249735
0.0730905
0.132396
0.20512
0.292581
0.39495
0.511392
0.640247
0.779242
0.925276
1.0747
1.22348
1.36721
1.5014
1.62189
1.7249
1.80698
1.86538
1.89879
1.90669
1.88992
1.84997
1.78957
1.71195
1.62117
1.52103
1.41521
1.30639
1.19672
1.08537
0.969183
0.841593
0.692496
0.513312
5.34601
4.6526
3.99972
3.30135
2.59664
1.96639
1.36868
0.79941
0.323132
-0.052992
-0.345691
-0.546159
-0.648266
-0.666635
-0.607637
-0.484261
-0.339914
-0.225862
-0.116132
-0.0182059
0.0600417
0.118717
0.160931
0.191525
0.214568
0.234503
0.254946
0.27998
0.312512
0.35519
0.410514
0.480321
0.56522
0.664468
0.776699
0.899606
1.03034
1.1656
1.30167
1.43452
1.55985
1.67372
1.7724
1.85282
1.91237
1.94978
1.96441
1.95692
1.92842
1.88142
1.81806
1.7418
1.65519
1.56109
1.46027
1.35475
1.24619
1.13508
1.01717
0.883142
0.731086
5.68744
4.96616
4.27783
3.56857
2.86314
2.20771
1.58214
1.00507
0.52776
0.138527
-0.180388
-0.397514
-0.509065
-0.543842
-0.509224
-0.422258
-0.315795
-0.190447
-0.079018
0.0182249
0.0918672
0.146795
0.187364
0.219122
0.244292
0.267161
0.290037
0.317072
0.350356
0.391806
0.444233
0.509545
0.58835
0.680024
0.783487
0.896635
1.01694
1.14147
1.26686
1.3895
1.50529
1.61084
1.70237
1.77739
1.83302
1.86829
1.882
1.87504
1.84771
1.80249
1.74123
1.66741
1.58433
1.49488
1.40126
1.30833
1.21625
1.11959
1.01462
0.90054
0.766184
6.09314
5.33964
4.6164
3.89487
3.18374
2.5073
1.86483
1.27463
0.770072
0.349103
0.0144573
-0.207513
-0.337106
-0.395301
-0.370213
-0.281904
-0.168586
-0.0502883
0.0598183
0.143724
0.204281
0.249917
0.282832
0.309196
0.328572
0.346175
0.362554
0.383271
0.409476
0.442359
0.485508
0.540876
0.609103
0.689341
0.780841
0.881493
0.989011
1.10079
1.21375
1.32478
1.42977
1.52613
1.60985
1.67943
1.73146
1.7659
1.78083
1.77815
1.7573
1.72132
1.67146
1.61145
1.54427
1.47333
1.40167
1.32648
1.24773
1.16542
1.07466
0.970599
0.846016
6.55314
5.78231
5.03336
4.29773
3.57806
2.89056
2.23997
1.64216
1.11397
0.665854
0.307823
0.055383
-0.107866
-0.179441
-0.156747
-0.0801508
0.0226105
0.129573
0.227583
0.299654
0.342249
0.372811
0.39234
0.410486
0.421153
0.431421
0.438804
0.452293
0.470628
0.493155
0.526214
0.570765
0.628116
0.696564
0.775955
0.863932
0.958578
1.05755
1.15816
1.25785
1.35221
1.43964
1.51564
1.58002
1.62829
1.6619
1.67785
1.67922
1.66432
1.63713
1.59768
1.55022
1.49638
1.43828
1.37874
1.31885
1.25711
1.19224
1.11908
1.03223
0.924084
7.05412
6.28213
5.52428
4.78597
4.06183
3.37602
2.72749
2.13716
1.60371
1.144
0.768801
0.490033
0.283813
0.18411
0.172424
0.213994
0.30417
0.380153
0.445919
0.499973
0.512466
0.52035
0.517478
0.526636
0.522669
0.52501
0.519309
0.525706
0.537167
0.545228
0.566744
0.600556
0.649204
0.706424
0.774938
0.851196
0.93394
1.02118
1.11077
1.20099
1.28562
1.3658
1.43425
1.4949
1.53868
1.57194
1.58754
1.59273
1.58155
1.56144
1.52856
1.49039
1.44778
1.40056
1.35316
1.30633
1.25915
1.21094
1.15495
1.08721
0.996826
7.58855
6.83578
6.07397
5.33909
4.61668
3.95087
3.31773
2.77139
2.24734
1.80656
1.44858
1.1878
0.907451
0.777726
0.734808
0.708468
0.760565
0.684461
0.685781
0.762101
0.712571
0.696638
0.646078
0.676362
0.632113
0.642064
0.596908
0.603329
0.619069
0.60229
0.598455
0.630719
0.677985
0.720007
0.780381
0.846188
0.916127
0.995712
1.07591
1.16557
1.23491
1.31917
1.37012
1.43917
1.46729
1.50991
1.51048
1.53363
1.51251
1.50676
1.46812
1.43198
1.40136
1.36379
1.32953
1.2932
1.25772
1.22774
1.18488
1.14294
1.06388
4.76667
-4.41543
-5.73915
14.9984
5.64587
19.413
18.3929
10.6685
11.4389
29.1243
1.52979
23.7854
18.4944
2.74308
21.7108
-102.399
20.6381
12.0219
1.32891
17.8974
15.227
3.12248
0.964858
20.3243
11.3378
17.1326
17.9678
9.42689
20.3928
6.557
10.3104
17.2819
28.4648
1.56182
23.0673
0.728224
0.653793
57.366
18.9823
17.7153
7.68513
-2.91444
18.0853
-88.4055
0.337716
31.6601
10.8586
2.83522
16.4192
25.4266
-3.62771
-46.036
17.8076
9.1206
14.0455
16.9384
6.66993
7.56441
0.855483
-31.4863
3.70482
15.4644
17.3548
-8.31212
-25.88
14.5146
0.740855
8.64161
19.0053
18.2072
15.3515
59.5558
6.54383
12.4349
13.4057
6.29422
-12.6564
44.4852
17.9007
28.1738
-0.864087
16.7577
16.9714
-36.6453
18.0891
50.2533
11.9202
1.65945
15.5029
1.43369
-14.0066
17.9453
4.93623
-31.894
-37.3198
5.42359
44.2405
9.81155
25.5361
-101.806
14.1197
16.1458
24.9853
17.9569
18.5304
17.8072
15.1256
39.7004
19.9763
-78.6027
-109.355
16.1245
0.482542
1.34788
5.74838
2.04358
1.01185
19.6716
-7.72134
10.7744
11.7675
0.102671
10.9112
-118.146
-26.7156
10.5588
15.281
-47.2568
-35.0034
17.8881
21.2914
-8.14634
4.3522
10.5574
2.506
10.5649
18.4607
-53.53
-30.9682
11.534
9.41005
-53.297
14.8845
49.0388
1.43115
12.5453
16.9076
1.44044
31.7884
-0.707243
16.2967
16.9145
59.1166
-33.5688
-59.624
8.4316
7.99737
-27.9913
17.5623
0.660241
16.8999
26.4577
17.9882
12.4029
14.8828
13.1608
6.79686
9.65238
17.4971
0.257307
-1.84134
1.52619
5.66099
17.4666
1.33398
1.34915
1.13714
8.62438
22.4099
1.80599
1.80648
-1.35248
-31.1985
9.4306
6.21472
0.763477
-10.6346
52.1488
9.51795
11.0866
25.4351
20.4141
-17.0114
-39.3801
17.6905
-31.806
4.13339
0.373296
21.4189
0.723656
9.57409
14.9485
13.5319
-58.9888
-1.7592
20.9585
8.33382
16.2835
-45.6972
0.828018
41.2004
-5.81956
16.4036
-117.62
11.1019
-77.7528
-65.6025
1.68454
33.3852
1.72639
10.8833
40.1459
11.8759
17.377
1.01329
-7.84725
-9.40593
11.2499
17.0611
59.7421
1.36122
21.4609
-5.28512
-37.7571
13.4923
19.4906
3.01356
-57.3317
-46.7904
19.4376
13.229
8.67275
10.9571
16.2509
-123.841
16.6205
8.33957
-98.7708
24.0156
17.9883
8.75043
23.7978
1.29895
8.04552
10.9369
18.985
25.3026
15.2134
6.59049
1.88883
15.7662
9.53306
-64.6908
18.6993
0.62553
12.9327
17.5712
1.06473
17.6299
0.998075
23.995
1.1874
22.8004
11.2287
52.918
9.91015
14.2345
10.6117
15.9564
20.8492
50.3161
9.68878
-72.0984
15.4629
14.8487
18.9588
17.9281
-61.8114
7.82211
7.84256
-26.2596
40.5289
14.5531
17.8651
35.0855
17.4774
9.3214
4.97672
-0.800702
16.5203
10.4182
5.22928
48.5994
-3.91467
4.0193
-79.3339
21.8578
18.7643
19.5852
-100.718
9.62749
11.9671
11.316
-12.6037
16.4714
14.2778
0.750032
1.24747
6.95624
1.85418
16.7072
3.55032
15.3808
14.9136
-26.8921
1.84342
15.4821
0.894056
-90.7042
6.41864
-27.3269
-44.7901
-102.17
2.06888
1.49857
17.1521
0.663619
0.832146
-124.282
35.0927
14.9863
14.7411
11.9171
11.619
49.7705
11.128
-9.40639
19.0819
-70.7697
14.9244
1.3457
-45.5801
-114.029
10.6395
-61.9993
8.36489
2.54592
14.5891
1.68964
2.21859
10.2615
0.427349
0.961875
-6.64625
0.966682
16.2712
6.52251
-114.22
-34.1544
3.87387
16.5841
-26.2542
-49.8533
12.5805
1.58581
15.6983
-5.78663
7.36453
1.49468
-73.94
0.850511
-80.2397
20.4478
-89.476
11.1789
4.7724
20.9842
1.19915
-117.688
-27.7203
47.4216
50.1843
3.0588
0.722264
17.4493
30.2991
17.0482
-0.351529
11.9927
-10.1898
17.9133
18.8597
22.0474
21.3287
-7.80061
-46.8896
11.5511
-83.1217
0.281703
-11.3116
1.89577
-62.1312
-1.96973
18.9932
-124.442
9.72509
9.08341
23.3209
-53.0772
17.84
18.605
1.4052
17.8473
9.92194
14.4769
1.18445
35.9339
-26.2707
-51.7973
9.65963
-61.2663
9.19703
-54.6478
17.1446
15.8702
0.900233
3.95819
-92.4503
-1.73224
1.61057
-10.9707
-62.4381
-59.9844
18.2874
4.6898
-41.6478
-50.2307
17.4197
2.59705
-32.2017
22.8568
13.1848
36.5155
-40.0774
-0.349345
-9.78866
0.536415
8.7695
-89.4466
2.15675
10.4782
20.049
47.0242
2.54648
44.0957
1.8946
17.6547
1.70108
1.45865
13.323
12.4023
0.200711
1.31697
17.0987
2.43057
1.44087
2.6239
1.4229
2.00164
1.3446
8.34628
4.86841
16.2042
15.6132
-111.076
9.98776
-67.5162
-107.2
16.5989
0.503806
2.27741
19.3204
3.78056
1.3413
16.3629
17.0774
15.2556
5.35597
-37.6959
10.4486
26.6198
13.5572
13.2794
15.5612
5.53024
0.695427
13.4115
19.4891
9.30594
1.40898
13.9652
13.499
-12.8488
12.74
-0.328338
-3.53851
-4.39251
17.9632
20.1684
9.09948
22.3762
3.45195
2.75574
48.7292
-22.1096
-5.40412
22.0306
8.2856
1.1856
1.42391
-80.3666
-27.4256
21.1158
2.97878
10.2046
0.725506
-21.2334
18.993
12.1244
-27.458
-84.1767
12.592
-17.8232
-54.2865
4.45075
-105.649
9.09842
8.91146
8.74142
-32.3934
13.9725
-81.1043
-2.34694
12.9179
0.924241
17.9993
-0.460384
15.0931
12.3566
31.7711
2.90996
0.884879
14.8113
7.15924
0.72042
-46.9192
-30.6885
8.03165
-34.3552
4.5395
28.6846
1.55256
8.90959
-95.7616
9.64177
8.38473
14.5278
1.40344
52.191
1.69261
8.1156
8.17248
1.33103
1.16451
13.1539
15.8351
16.1296
9.3966
10.0968
29.3074
-76.3441
8.33468
18.109
-32.2095
0.645252
-88.0262
12.8981
0.738206
17.8668
-55.3462
4.15905
-21.159
0.911161
0.793829
2.83091
-106.304
20.7296
18.0318
6.33956
16.2257
-27.0457
-22.4328
-6.52534
9.48519
8.87211
4.79174
17.1048
-0.354919
0.708294
16.2388
23.2979
1.4074
-58.8114
21.0161
1.57658
20.6736
-8.4217
17.3157
36.3818
6.70773
29.5414
18.6567
-30.1908
-21.5861
-4.6457
19.3473
9.90867
-32.5885
16.7862
12.4128
4.61422
5.44759
0.726221
-30.9957
40.595
3.89558
2.07854
0.920723
-89.2855
9.35552
23.4337
15.8808
0.976224
5.29614
-23.108
14.3006
12.4201
6.03895
1.26152
-7.06656
14.9927
2.10776
10.7752
-21.1889
1.34538
39.1367
0.926824
0.0982209
8.18764
57.2783
17.0798
16.9849
1.26555
10.0621
7.18842
8.47397
10.2151
-116.187
2.10128
-35.0514
30.5809
17.5021
8.29888
19.4965
-6.36218
-11.0017
1.3074
3.75885
1.39223
12.7941
-2.64767
18.9079
-88.8039
17.0672
6.66847
2.1044
-3.63084
2.91352
-7.10146
10.502
3.36436
0.769513
19.456
-121.16
15.5809
17.4241
10.1671
-4.30028
19.1722
3.64729
-21.4705
15.6351
-14.0351
-98.7026
17.5653
8.47604
14.4123
-63.3635
-6.61752
16.1341
42.8758
12.4874
9.00334
10.9376
-111.278
-126.404
16.5198
-1.36576
-12.0572
1.42665
18.0952
6.88722
-11.5567
13.847
15.3242
0.0675852
18.6709
19.5948
8.14938
14.3946
-3.18887
12.5298
-5.66306
23.1038
1.67294
-4.53373
42.6444
1.09872
6.57638
21.9676
4.29334
-45.5494
24.4262
-83.9311
21.0435
1.271
-19.746
9.91791
-9.81558
0.733851
12.3005
12.0003
-93.7114
-40.0684
13.1124
-65.1432
-9.0747
53.6963
-16.2477
-20.3187
21.4916
0.725658
5.92302
11.8573
-56.2668
-23.0363
-4.86271
-4.28164
-6.66017
0.956283
22.7294
19.0733
13.2041
-121.85
-44.7101
27.5172
2.26577
-112.304
11.1802
14.5603
10.4207
1.09921
4.70578
1.15734
-15.0529
21.4323
-121.441
-17.3687
-86.0343
-98.7218
18.9038
25.4322
-43.757
26.1394
14.6564
12.1439
11.0952
10.3776
26.1019
18.0486
2.20112
-51.7563
-30.4032
24.5197
2.15317
3.3332
13.4546
1.36181
12.8513
-53.7055
1.27658
49.2558
3.76749
22.2948
11.6206
18.6836
16.0722
-76.9432
11.9312
44.7651
0.905238
0.894113
32.2987
61.1685
12.6506
13.0304
25.1304
-50.7876
-15.7083
17.3037
9.48225
-91.7767
27.472
17.4846
-63.3585
15.9935
3.64546
1.34522
6.23676
-16.4453
53.8376
0.716279
-8.67348
-0.361005
17.8194
0.339833
9.13755
14.7609
17.612
11.5994
0.917447
17.4157
0.633631
30.2585
0.0883207
11.3023
10.3276
16.8909
8.34614
-49.9809
9.6922
18.5575
-29.66
-71.0237
34.1413
1.51502
7.35543
17.9108
34.4218
-84.928
8.97115
-2.97989
11.0818
16.3171
-88.4005
17.8939
9.75857
49.9924
29.9386
-19.683
4.33922
15.9823
17.8429
-66.0832
-4.49167
9.94255
15.0236
1.21219
18.0799
-128.02
7.55124
0.835441
10.3777
19.0688
-0.020652
14.863
23.1039
24.7874
4.58213
-0.685295
18.2847
20.8595
17.4625
20.3924
10.6145
18.2836
-70.5668
2.42503
18.1498
-25.7997
14.0494
7.19504
19.7801
11.5763
-62.3247
10.0869
4.93993
19.1629
-20.8883
16.9218
-24.8708
-104.32
1.65398
1.22248
-47.8413
16.2705
18.6132
-21.4766
-105.193
1.21976
-14.3061
15.8705
-82.8902
13.3136
16.838
18.6527
-18.515
6.9555
9.55157
-28.871
17.2971
8.58861
-85.1066
10.514
-119.504
47.1995
11.5786
18.5249
6.146
17.361
-9.31564
-6.35092
20.2712
-18.5466
5.51673
12.6041
-38.3036
4.76416
17.7121
-49.4749
15.021
1.86317
-67.6105
-14.0775
17.5505
19.4933
14.321
62.183
8.52095
-2.322
-24.0085
15.6166
-11.8583
15.4809
5.28803
15.9375
0.759905
9.33086
0.671535
-14.0153
58.9615
7.06968
59.3244
7.01156
11.8439
4.0195
20.1496
-9.57415
18.2771
10.982
1.51507
59.8194
16.9642
8.72462
-8.64895
0.602524
-109.074
16.2397
-5.79669
9.84268
-21.9624
-62.1077
0.973932
-73.6665
9.27411
2.84892
-25.8342
18.4988
15.7587
14.0725
11.5302
21.4151
16.6246
12.6873
17.8341
1.17922
-68.0242
18.025
20.4403
18.2354
7.725
-73.188
1.29005
-24.6387
15.7124
-43.579
0.843904
25.0355
-67.5737
17.3805
0.714785
40.1511
1.39375
22.7539
4.12357
1.73067
16.6409
10.2538
-107.615
13.8982
-1.23592
-39.3035
1.39647
15.8717
10.9245
30.9551
2.66634
1.28024
-79.5585
16.1072
16.7667
17.0176
-20.1819
-36.0012
14.0812
12.705
15.1124
1.18967
1.59693
49.3268
0.50452
-65.7785
2.07927
-59.2027
0.57047
0.66479
32.2882
51.028
12.2648
60.1046
45.5251
18.4945
18.1333
6.13392
14.4687
18.8168
2.19917
1.90477
19.793
1.65573
10.0697
19.3431
8.66746
18.8054
28.8447
1.49726
-5.58612
-121.113
18.2853
11.333
-50.8028
7.56349
22.4752
13.9854
10.3685
2.2606
17.3479
-2.39923
1.65522
30.4129
12.7176
0.819484
16.795
17.4553
16.0037
5.54952
15.5914
17.1986
-3.73925
18.6972
20.8019
-76.6563
-28.921
-18.6932
14.7988
1.50145
-50.8716
17.2524
1.49175
1.11901
-126.274
0.68542
17.5109
8.62747
31.3347
-1.13349
1.17697
9.18919
46.4137
1.57775
16.8347
1.03905
16.9218
53.9331
14.1589
-21.1372
17.3169
0.918706
-69.7211
15.6961
42.3994
4.06434
12.6493
19.0785
29.56
10.9081
19.9664
1.93552
17.116
10.6711
-123.414
4.38649
18.8746
20.1336
-65.2211
-80.9017
17.7006
18.1896
12.6
11.3424
-59.5976
24.7095
-58.9928
17.8794
11.2432
18.0511
-12.211
5.71831
17.5554
0.705756
1.41685
-89.6414
-62.7902
8.10733
-2.72845
-74.8496
18.6698
18.6174
18.764
7.18414
19.0421
2.336
18.3581
9.36593
-1.74902
-25.338
2.33451
12.3851
1.40272
36.3154
17.0098
19.6513
-104.393
15.5865
15.7669
20.317
12.4153
-74.1481
-7.04687
1.44882
17.5285
17.1777
17.7908
-4.12996
20.462
-17.9277
8.16723
8.47507
12.8609
9.48251
16.0307
10.9489
10.4296
9.68479
-1.78295
-10.5473
2.62686
-87.0019
11.7604
16.9791
0.763924
-92.2146
41.1794
2.25264
23.8058
16.1049
13.1593
11.7154
16.9395
60.8253
-8.40348
1.02995
-94.9572
17.1546
27.9486
-37.2994
3.52978
-52.2165
1.23492
31.0084
1.46709
16.9214
-23.0318
-13.4346
-38.2816
-8.6207
17.9385
1.39773
7.4484
22.4936
12.5175
19.534
8.7562
56.7754
20.6186
16.785
43.9533
10.2256
16.058
18.7585
20.4162
-10.78
1.21702
9.87893
11.8081
-16.7646