/*--------------------------------*- C++ -*----------------------------------*\
| =========                 |                                                 |
| \\      /  F ield         | OpenFOAM: The Open Source CFD Toolbox           |
|  \\    /   O peration     | Version:  2.3.1                                 |
|   \\  /    A nd           | Web:      www.OpenFOAM.org                      |
|    \\/     M anipulation  |                                                 |
\*---------------------------------------------------------------------------*/
FoamFile
{
    version     2.0;
    format      ascii;
    class       volScalarField;
    location    "0.8";
    object      epsilon;
}
// * * * * * * * * * * * * * * * * * * * * * * * * * * * * * * * * * * * * * //

dimensions      [0 2 -3 0 0 0 0];

internalField   nonuniform List<scalar> 
15166
(
1077.72
1003.62
1000.25
1063.99
1106.6
1135.61
1106.49
1023.39
922.596
805.885
688.735
589.594
1078.29
882.506
931.156
1001.44
1045.91
1069.27
1037.38
960.091
864.424
756.769
649.261
551.05
1090.35
787.87
864.75
940.357
987.173
1006.85
974.585
902.607
812.612
712.859
612.962
518.037
1106.22
716.753
805.499
883.596
931.675
948.698
917.299
850.325
766.05
673.225
579.453
486.919
1123.5
663.254
753.851
832.187
880.324
895.18
865.133
802.784
723.967
637.284
548.836
460.046
1142.23
622.13
708.577
785.717
833.074
846.123
817.591
759.479
685.763
604.517
520.742
435.224
1162.55
589.969
668.605
743.558
789.572
801.11
774.142
719.932
650.902
574.494
494.746
411.508
1184.08
564.598
633.192
705.213
749.493
759.759
734.329
683.695
618.96
546.894
470.83
390.688
1206.62
544.514
601.755
670.283
712.553
721.719
697.758
650.384
589.585
521.451
448.792
371.66
1229.85
528.605
573.767
638.393
678.478
686.672
664.086
619.695
562.481
497.935
428.514
354.776
1253.53
516.039
548.781
609.202
647.004
654.323
633.009
591.338
537.409
476.159
409.802
339.244
1277.55
506.175
526.405
582.42
617.887
624.41
604.262
565.071
514.151
455.962
392.648
325.949
1301.73
498.52
506.319
557.781
590.902
596.687
577.606
540.678
492.526
437.197
376.865
314.016
1325.95
492.685
488.242
535.07
565.854
570.949
552.837
517.981
472.372
419.705
362.072
301.391
1350.05
488.353
471.939
514.09
542.568
547.005
529.775
496.811
453.56
403.399
348.392
290.862
1374.01
485.276
457.202
494.674
520.882
524.695
508.266
477.039
435.957
388.143
335.655
280.97
1397.67
483.244
443.855
476.672
500.658
503.868
488.164
458.527
419.462
373.86
323.741
271.515
1421.06
482.087
431.746
459.958
481.767
484.391
469.341
441.177
403.986
360.46
312.571
262.642
1444.07
481.659
420.741
444.41
464.097
466.15
451.696
424.877
389.436
347.865
302.102
254.479
1466.58
481.848
410.724
429.93
447.546
449.04
435.121
409.548
375.734
336.014
292.261
246.773
1488.55
482.544
401.593
416.424
432.023
432.966
419.531
395.11
362.818
324.832
282.959
239.267
1510.03
483.674
393.258
403.814
417.443
417.848
404.849
381.492
350.62
314.267
274.142
232.09
1531.03
485.15
385.638
392.022
403.737
403.608
391
368.629
339.088
304.267
265.744
224.96
1551.28
486.933
378.667
380.988
390.837
390.178
377.922
356.463
328.172
294.79
257.754
218.286
1570.97
488.973
372.283
370.65
378.683
377.5
365.559
344.95
317.825
285.788
250.137
211.858
1589.95
491.199
366.428
360.957
367.219
365.518
353.859
334.036
308.006
277.234
242.884
205.861
1608.26
493.589
361.055
351.857
356.396
354.181
342.772
323.682
298.677
269.091
235.978
200.139
1625.93
496.105
356.118
343.308
346.171
343.445
332.255
313.849
289.804
261.338
229.397
194.802
1642.86
498.735
351.583
335.271
336.499
333.268
322.273
304.497
281.358
253.948
223.14
189.811
1659.15
501.472
347.41
327.707
327.346
323.611
312.786
295.602
273.31
246.901
217.159
184.875
1674.75
504.247
343.566
320.584
318.674
314.441
303.763
287.127
265.635
240.17
211.458
180.284
1689.48
507.089
340.024
313.87
310.454
305.726
295.173
279.052
258.309
233.741
205.997
175.776
1703.35
509.97
336.765
307.538
302.656
297.437
286.993
271.347
251.311
227.593
200.783
171.603
1716.77
512.848
333.757
301.563
295.255
289.549
279.194
263.991
244.623
221.713
195.791
167.506
1729.24
515.727
330.989
295.92
288.224
282.036
271.753
256.965
238.229
216.083
191.015
163.685
1740.92
518.613
328.434
290.589
281.541
274.875
264.648
250.248
232.107
210.689
186.432
159.888
1752.07
521.482
326.082
285.546
275.184
268.045
257.863
243.824
226.243
205.516
182.032
156.292
1762.32
524.333
323.913
280.775
269.136
261.527
251.374
237.671
220.622
200.555
177.818
152.967
1771.92
527.164
321.915
276.258
263.376
255.304
245.167
231.777
215.231
195.796
173.774
149.691
1780.85
529.962
320.074
271.98
257.888
249.357
239.228
226.131
210.061
191.227
169.906
146.689
1788.82
532.754
318.378
267.929
252.66
243.675
233.54
220.715
205.097
186.834
166.165
143.49
1796.15
535.651
316.826
264.091
247.677
238.24
228.092
215.52
200.328
182.61
162.538
140.268
1802.58
538.554
315.401
260.453
242.924
233.042
222.869
210.532
195.745
178.544
159.05
137.424
1808.41
541.523
314.13
257.009
238.391
228.065
217.86
205.742
191.338
174.63
155.684
134.568
1813.51
544.407
313.026
253.752
234.062
223.3
213.054
201.141
187.099
170.859
152.444
131.969
1817.81
547.114
312.064
250.682
229.93
218.733
208.44
196.717
183.019
167.225
149.312
129.269
1821.35
549.874
311.221
247.796
225.987
214.359
204.011
192.463
179.09
163.721
146.301
126.893
1824.35
552.458
310.49
245.067
222.225
210.169
199.756
188.368
175.304
160.342
143.391
124.446
1826.58
554.957
309.828
242.497
218.639
206.153
195.665
184.426
171.653
157.08
140.586
122.22
1828.09
557.383
309.283
240.072
215.217
202.302
191.731
180.628
168.132
153.929
137.868
119.912
1828.88
559.649
308.818
237.784
211.953
198.608
187.948
176.969
164.732
150.885
135.249
117.843
1829.05
561.963
308.43
235.633
208.842
195.066
184.311
173.443
161.452
147.943
132.721
115.83
1828.58
564.089
308.111
233.598
205.874
191.67
180.812
170.044
158.287
145.101
130.265
113.687
1827.36
566.169
307.857
231.688
203.045
188.411
177.444
166.767
155.229
142.354
127.893
111.763
1825.64
568.172
307.664
229.89
200.346
185.286
174.204
163.607
152.276
139.697
125.6
109.925
1823.35
570.096
307.529
228.197
197.772
182.289
171.086
160.56
149.423
137.128
123.393
108.229
1820.29
571.83
307.444
226.607
195.32
179.414
168.085
157.62
146.668
134.644
121.255
106.486
1816.7
573.621
307.414
225.122
192.982
176.657
165.197
154.785
144.005
132.243
119.192
104.881
1812.59
575.211
307.433
223.729
190.758
174.015
162.417
152.048
141.433
129.92
117.178
103.037
1807.7
576.743
307.473
222.417
188.635
171.479
159.742
149.409
138.947
127.671
115.226
101.419
1802.36
578.131
307.584
221.199
186.617
169.049
157.166
146.861
136.542
125.494
113.342
99.9481
1796.51
579.539
307.737
220.064
184.7
166.72
154.687
144.403
134.218
123.386
111.525
98.5655
1790.06
580.766
307.927
219.009
182.872
164.488
152.302
142.031
131.972
121.349
109.765
97.1308
1782.97
581.937
308.13
218.038
181.14
162.351
150.006
139.742
129.8
119.376
108.063
95.7853
1775.37
582.957
308.4
217.134
179.496
160.305
147.799
137.534
127.701
117.467
106.411
94.3868
1767.13
583.942
308.679
216.301
177.94
158.346
145.676
135.404
125.672
115.621
104.81
93.0892
1758.77
584.888
308.998
215.548
176.464
156.474
143.635
133.35
123.712
113.832
103.253
91.7489
1749.18
585.666
309.341
214.855
175.069
154.684
141.672
131.369
121.817
112.1
101.745
90.5365
1739.59
586.388
309.726
214.23
173.755
152.975
139.788
129.46
119.987
110.424
100.284
89.3267
1729.67
586.998
310.143
213.672
172.513
151.341
137.978
127.618
118.217
108.802
98.8709
88.2074
1718.84
587.603
310.578
213.185
171.349
149.784
136.239
125.844
116.508
107.234
97.4997
87.0469
1707.62
587.909
311.051
212.754
170.256
148.302
134.571
124.135
114.857
105.714
96.1707
85.9863
1695.86
588.368
311.519
212.368
169.23
146.891
132.973
122.489
113.262
104.246
94.8886
84.9547
1683.67
588.59
312.092
212.075
168.287
145.555
131.444
120.906
111.724
102.826
93.6452
83.9165
1670.97
588.721
312.617
211.821
167.398
144.284
129.978
119.383
110.239
101.452
92.4394
82.9346
1658.26
588.925
313.197
211.634
166.583
143.079
128.577
117.918
108.806
100.124
91.2691
81.9057
1644.63
588.895
313.785
211.498
165.836
141.944
127.239
116.512
107.427
98.8402
90.1333
80.9539
1630.23
588.661
314.386
211.424
165.152
140.874
125.963
115.162
106.097
97.6011
89.0329
79.9919
1615.84
588.543
315.038
211.405
164.534
139.867
124.748
113.868
104.818
96.4041
87.9679
79.1037
1601.23
588.258
315.703
211.448
163.977
138.923
123.592
112.627
103.587
95.2501
86.9342
78.1739
1585.72
587.865
316.413
211.544
163.486
138.044
122.495
111.441
102.402
94.1352
85.9348
77.3331
1569.95
587.398
317.107
211.704
163.063
137.229
121.455
110.307
101.264
93.0589
84.9697
76.554
1553.77
586.807
317.815
211.91
162.697
136.471
120.474
109.226
100.174
92.024
84.0409
75.769
1537.12
586.133
318.57
212.17
162.397
135.776
119.552
108.198
99.1302
91.0302
83.142
74.9527
1520.08
585.388
319.343
212.487
162.164
135.143
118.684
107.221
98.1306
90.0732
82.2753
74.2179
1503.02
584.566
320.144
212.883
161.985
134.569
117.873
106.292
97.1759
89.1564
81.4392
73.4577
1485.16
583.594
320.957
213.323
161.874
134.06
117.118
105.415
96.2644
88.2749
80.6333
72.7959
1466.96
582.522
321.786
213.81
161.836
133.611
116.421
104.589
95.3968
87.4334
79.8611
72.0951
1448.37
581.346
322.634
214.362
161.853
133.226
115.782
103.813
94.5746
86.6294
79.1184
71.4237
1429.39
580.085
323.54
214.988
161.943
132.905
115.197
103.088
93.797
85.8628
78.3995
70.7016
1410.04
578.703
324.414
215.652
162.092
132.639
114.668
102.41
93.0606
85.131
77.7173
70.1974
1390.32
577.201
325.305
216.394
162.316
132.444
114.196
101.784
92.3713
84.4427
77.0774
69.6405
1370.64
575.709
326.254
217.196
162.607
132.312
113.783
101.211
91.7259
83.7893
76.4677
69.1443
1349.88
573.935
327.203
218.055
162.968
132.252
113.43
100.689
91.1252
83.1755
75.8913
68.638
1329.51
572.186
328.163
218.975
163.406
132.249
113.138
100.221
90.5689
82.6001
75.3484
68.1785
1308.46
570.243
329.121
219.95
163.905
132.322
112.905
99.8045
90.0599
82.0666
74.8382
67.6884
1287.09
568.276
330.135
221.011
164.488
132.463
112.736
99.4435
89.5976
81.5706
74.3586
67.2763
1265.36
566.072
331.145
222.132
165.147
132.681
112.632
99.1355
89.1823
81.1149
73.913
66.8504
1243.7
563.935
332.166
223.316
165.891
132.967
112.593
98.8852
88.8145
80.7007
73.5026
66.4872
1221.4
561.507
333.22
224.586
166.715
133.339
112.621
98.696
88.4988
80.3299
73.1266
66.0917
1198.79
559.017
334.269
225.916
167.619
133.782
112.72
98.5646
88.232
80.0007
72.7829
65.7827
1175.87
556.385
335.318
227.334
168.618
134.313
112.89
98.493
88.0172
79.7146
72.4813
65.5239
1152.69
553.595
336.404
228.817
169.704
134.927
113.139
98.4894
87.8598
79.479
72.2217
65.2512
1129.24
550.718
337.478
230.367
170.888
135.635
113.464
98.5513
87.7593
79.2908
72.0003
65.01
1105.86
547.766
338.588
232.008
172.166
136.439
113.869
98.6835
87.7161
79.1501
71.82
64.8551
1081.92
544.612
339.683
233.742
173.552
137.337
114.361
98.8868
87.7336
79.0641
71.688
64.7022
1058.03
541.377
340.808
235.546
175.036
138.332
114.945
99.1681
87.8153
79.0278
71.5959
64.626
1033.63
537.909
341.906
237.422
176.634
139.439
115.622
99.5314
87.9665
79.0516
71.5578
64.5831
1008.66
534.258
343.024
239.42
178.344
140.663
116.402
99.9777
88.1881
79.1361
71.5683
64.5536
984.031
530.614
344.17
241.475
180.18
142.002
117.288
100.512
88.4852
79.2811
71.6289
64.5814
958.973
526.755
345.295
243.658
182.151
143.472
118.285
101.148
88.8645
79.4951
71.7464
64.6243
933.675
522.7
346.428
245.921
184.244
145.07
119.403
101.884
89.3288
79.7829
71.9293
64.7686
908.496
518.568
347.538
248.289
186.483
146.822
120.647
102.731
89.8881
80.1518
72.1878
64.9646
882.898
514.213
348.652
250.746
188.871
148.718
122.033
103.692
90.543
80.5974
72.4981
65.1173
857.103
509.657
349.8
253.341
191.419
150.776
123.559
104.779
91.2998
81.125
72.8747
65.394
831.18
504.985
350.874
256.02
194.115
152.995
125.239
105.996
92.1663
81.7471
73.3366
65.7272
805.101
500.117
351.982
258.823
196.989
155.408
127.085
107.359
93.1556
82.4715
73.8772
66.1551
779.161
495.136
353.06
261.727
200.046
158.01
129.121
108.883
94.2835
83.3099
74.5197
66.6621
753.154
489.918
354.151
264.784
203.304
160.825
131.348
110.576
95.5555
84.2755
75.2743
67.302
726.611
484.435
355.178
267.947
206.767
163.869
133.798
112.464
96.9863
85.375
76.1459
68.0115
700.137
478.837
356.198
271.266
210.441
167.156
136.473
114.554
98.5912
86.6107
77.1127
68.7178
673.865
473.062
357.205
274.709
214.363
170.711
139.403
116.863
100.385
88.0055
78.2163
69.627
647.616
467.061
358.187
278.305
218.539
174.555
142.614
119.428
102.396
89.5875
79.4896
70.6711
620.946
460.824
359.134
282.081
222.981
178.715
146.142
122.268
104.642
91.3641
80.9092
71.8517
594.572
454.423
360.073
286.015
227.736
183.227
150.005
125.42
107.153
93.3603
82.5206
73.1635
568.312
447.799
360.996
290.15
232.813
188.126
154.254
128.914
109.961
95.6024
84.3274
74.6697
541.737
440.964
361.916
294.525
238.285
193.468
158.947
132.812
113.113
98.135
86.3844
76.3859
515.468
433.948
362.878
299.158
244.187
199.314
164.13
137.161
116.655
100.999
88.713
78.294
489.187
426.772
363.92
304.142
250.602
205.739
169.891
142.026
120.638
104.227
91.3407
80.4358
463.062
419.47
365.147
309.572
257.634
212.858
176.31
147.479
125.126
107.864
94.2961
82.8798
436.89
412.175
366.72
315.643
265.463
220.791
183.513
153.622
130.193
111.983
97.6573
85.649
410.807
405.182
369.043
322.686
274.342
229.745
191.64
160.567
135.92
116.637
101.444
88.7873
384.572
399.296
372.847
331.241
284.597
239.923
200.822
168.407
142.402
121.89
105.697
92.2154
358.177
397.474
380.242
342.613
296.922
251.755
211.376
177.406
149.812
127.881
110.498
96.0403
328.052
400.066
389.137
355.338
309.502
263.679
222.046
186.801
157.584
134.283
115.659
100.322
204.089
0.00127441
6.61769
4.94884
4.91198
12.0028
11.4401
81.1004
45.1605
26.4326
7.60894
0.00269739
0.0225726
574.718
12.1847
0.000851397
481.443
0.218374
0.207455
0.000828388
2.43328
5.66625
0.255375
0.0183571
209.857
6.57497
4.01593
16.2408
16.9304
48.3733
14.6178
364.472
0.00108589
7.42517
0.0211521
2.32597
87.3125
12.6937
29.7373
0.00290816
0.239162
0.000794187
0.119464
23.9631
23.6686
5.45043
0.0575867
0.0148362
23.9213
2.39964
2.27283
77.6352
18.4156
0.000749082
215.543
0.00118114
0.00428363
0.000793149
12.7285
11.311
3.50665
378.967
0.000746608
0.00894723
0.71402
0.00121407
75.9466
17.997
321.659
18.7692
185.48
0.0485436
28.3991
43.4678
0.0188437
0.000739237
41.2156
0.000696187
0.0790863
11.206
0.211302
0.000699393
75.3503
20.5114
0.0084513
70.1882
75.0848
0.000739954
5.19595
25.7361
19.5227
26.1257
0.000741583
0.000984347
53.6131
0.000751866
15.2006
0.00909661
0.000728964
76.8283
144.546
1.15134
0.000785221
0.00114027
0.000707795
68.0713
66.1529
101.278
19.274
0.0283865
0.527111
0.000709766
8.2874
0.000913662
0.000734491
8.35025
0.010855
1.92838
69.2544
0.649426
120.103
0.0204744
176.396
0.995414
0.320171
53.3352
0.00104705
1333.1
0.0233483
0.000742466
123.043
0.000758846
87.3226
0.00114264
4.19362
0.00146183
28.4059
13.2092
8.70772
0.0017623
0.00877364
2.76332
14.175
0.128726
31.2679
198.491
17.2479
0.00121802
61.6777
21.7514
0.585712
8.01253
0.000693019
0.265997
0.616613
0.000716845
12.5465
0.00072704
89.0489
0.00234149
0.0178407
0.000857527
0.326192
0.00608342
2.60502
0.191017
314.81
30.1564
18.4522
0.000686872
205.681
47.3624
217.145
0.00947202
0.000680104
18.5025
0.00070594
20.4644
0.723526
34.7372
330.643
3.28962
0.0834683
26.3602
0.000796767
13.4499
0.000724079
0.000721553
30.1126
0.000736009
9.21561
0.000697711
199.403
0.00130534
16.1363
14.1847
10.8616
4.55661
0.000709812
409.894
63.8309
19.751
54.8029
9.17209
20.1026
0.142261
0.18114
1.48668
39.2778
1.55947
139.739
52.6009
48.1488
34.2889
0.000722341
15.4567
0.00601981
11.2042
426.911
20.9695
20.2817
64.0557
24.5867
0.000718588
0.000731013
55.5834
70.264
0.000758436
1485.37
0.0228412
167.473
0.297631
0.000704642
89.041
10.2826
12.1995
11.7484
70.5067
34.7481
20.4975
0.50765
0.39386
32.6441
95.4651
196.148
132.798
82.9045
0.000837442
44.8987
16.2079
17.2012
43.1342
5.54322
4010.18
21.7494
1.83416
4.02927
19.1565
14.5
24.6069
1.55312
12.6807
0.00757997
0.174995
577.556
13.1496
58.4018
48.479
8.02184
164.45
10.7473
0.0432523
174.611
87.619
85.5333
186.189
30.0788
105.965
29.1215
27.2092
178.813
29.674
26.812
21.0097
25.2635
11.0091
12.5189
82.2573
86.0487
1.95074
26.811
170.927
99.5039
98.8978
16.1903
191.455
0.677894
85.1602
0.0705454
54.5247
6.57848
1.01917
336.84
214.351
0.569159
54.0396
32.9335
0.00073701
0.690751
0.522512
0.708804
40.7766
0.000720436
97.9475
20.0141
0.0941334
93.3654
43.0648
0.000721189
442.735
0.0292788
14.5197
10.741
9247.98
50.2903
42.6495
18.4743
0.000714317
0.000717295
39.9757
13.4945
0.000683283
11.0566
0.000703652
0.000717383
0.000740062
0.000705937
0.231964
0.000725323
0.00175281
123.1
49.8673
0.000755471
19.1175
0.00381974
75.8047
147.327
90.5739
1101.6
15.0727
0.000659341
0.000744368
0.095232
0.710613
96.1965
0.000682236
0.178217
24.5163
51.5241
5.43958
27.6968
25.1728
71.2756
1008.96
2.59283
4.97148
0.000883416
0.000735548
1.61035
4.12662
0.242995
28.1263
50.7704
5051.78
175.038
2.94462
22.8834
65.9965
0.000734758
8.93488
49.8422
0.00151419
0.000714546
51.8797
3771.26
81.0708
0.00068545
0.0499559
3.97403
0.0156112
0.000730484
53.17
6.86704
17.5987
16.0693
0.000919415
920.987
0.000714644
1.66841
18.8635
0.0020459
0.0046939
92.7676
0.00319559
45.4685
313.835
85.4375
26.1228
41.2516
98.9832
0.000714963
0.000689677
0.000729242
74.8545
0.0843558
315.269
5355.16
4.53367
59.7353
0.000724198
0.0435446
14.4787
0.000689968
0.000725726
97.5169
0.00067985
1.72343
55.12
27.6809
0.000667646
0.00255822
0.259375
0.239522
10.976
0.407614
0.000700725
809.895
54.1685
0.813658
0.0054478
33.3626
88.955
0.00234466
15.3591
0.00225213
65.2073
0.00084404
12.7222
1.03224
0.000705393
77.0726
11.106
172.089
0.00351783
10.036
2.70048
0.00146973
89.4758
51.1019
2.51824
210.769
0.0152322
0.0467356
0.0048826
117.011
31.6529
0.202608
2.45291
4.17139
171.025
0.830769
83.3539
1148.54
0.000673691
211.044
56.3858
10.4205
0.000697367
19.7028
94.476
0.15167
84.5115
23.3661
2.42125
0.326836
30.045
120.683
0.000863279
0.0103592
55.2974
0.0328104
0.00190384
240.856
1087.31
0.0331503
22.7768
52.1738
0.631984
46.2223
26.9824
52.1212
19.3118
24.4692
0.000738999
0.189249
44.9571
18.593
116.653
21.7098
98.1365
175.884
991.205
75.0594
2.5785
0.000727144
216.711
91.0625
46.2586
10.3924
1.11736
0.149639
11.1614
0.000731123
17.0702
0.00073215
35.6881
10.688
92.1675
29.3692
78.0543
111.048
119.956
29.7007
221.002
0.000734523
0.340663
58.1066
1424.33
7.72925
23.9188
0.000875362
0.019439
6.20058
118.189
18.2095
0.000699182
0.0653798
0.000708429
0.0541448
19.8448
0.0280705
66.1419
2.82844
72.083
0.446118
0.442322
298.249
658.814
0.000740135
0.000740699
5.49786
186.018
17.5798
13.2297
3.2716
30.8995
19.4986
0.00066485
0.752098
12.235
0.0013433
77.4912
12.8392
26.9352
17.4183
0.00564444
0.000664668
0.0148126
0.000713661
26.9407
20.3157
122.756
22.9304
0.000731614
139.393
0.123251
118.659
1.79538
194.089
0.0306652
0.508112
0.000685121
38.9051
566.815
19.5397
4.60084
0.000657609
104.448
44.929
50.5646
0.000700563
0.620862
56.7706
26.897
0.0018721
1071.13
0.000918095
59.1328
28.9787
0.000879834
2.05196
0.141198
1.09081
0.00070051
0.000741847
75.5071
36.4471
19.7848
54.0704
0.00135234
1.92141
0.220833
44.7522
8.30497
0.00100863
1.57322
403.338
0.000689
0.00289091
26.2942
130.868
88.4922
0.000720255
696.122
23.8525
115.772
0.0201939
2.51921
144.833
0.000735713
101.368
2.47769
18.1087
7.84866
45.3257
7.97877
94.3618
96.8889
15.9419
4967.25
0.000746673
0.000719185
142.829
47.3006
0.00130357
0.000723311
9.37559
0.000745337
51.9782
52.5763
1.13886
0.000701393
39.915
0.405085
21.4497
66.6099
25.595
0.267036
2.35776
118.993
0.000738987
2.36776
61.5376
21.5152
18.1861
0.00232538
10.709
2.74464
2789.49
0.000711224
2.56627
35.7501
18.345
0.000771087
0.166367
28.7979
55.73
77.3467
0.0607295
205.021
31.8893
0.30398
31.5699
0.000712602
0.00246721
9.09709
0.000684435
26.5396
0.000726288
115.093
0.00454596
57.1749
0.000732343
0.924501
51.9269
127.019
7.5884
31.0893
0.388082
241.805
0.00778809
0.155574
18.402
0.000697686
0.000745103
27.9533
0.38321
94.847
25.9061
0.000758644
90.811
105.902
81.2722
7.20529
170.468
95.8212
0.000740884
2399.22
4212.4
49.7603
0.000759723
0.00435889
273.531
54.2205
0.00070467
90.8867
0.000698266
0.111493
303.597
0.000851926
16.9051
0.00072004
0.0642317
121.432
0.000762143
0.00101787
0.000734967
0.000938576
0.0137164
1018.32
51.4724
0.309752
11.3895
0.000726474
49.2963
0.000729748
8.99183
1.82524
0.0157949
4.44008
0.00628677
73.9536
0.000725041
10698.8
4.25271
30.2334
208.298
4.79194
0.000697113
26.0421
180.199
1.99014
49.7085
58.365
184.815
23.1182
0.0364549
28.6091
0.174933
0.00103708
0.292448
4116.65
155.079
1.03304
0.029266
20.6415
0.00092433
9.40849
52.2746
174.549
64.4397
60.5231
0.0301315
0.00176371
32.5427
24.3998
0.0490953
42.7602
0.000720327
120.914
218.987
0.000766954
176.406
48.8616
1.15436
0.152754
140.093
0.0155341
0.316808
13.4109
3.00443
2.84586
0.000752868
27.1357
0.111472
150.17
28.1057
79.8937
6.18387
0.00223541
39.2259
0.000730491
0.000724029
10.5809
0.14955
1.72226
211.99
0.000669084
72.7586
0.148705
0.0586054
0.000791279
166.396
8.12321
0.348383
40.6884
0.0585569
309.412
3.96199
0.000716372
236.619
270.711
0.00159329
0.00318276
77.655
26.5947
0.418685
233.406
0.0277712
2.02092
0.246078
0.391635
32.0616
94.3404
0.000736747
96.2
22.0609
0.0073549
1.2929
1498.04
15.9813
0.000731446
0.00068358
35.4568
23.5296
66.9767
0.000683102
34.3286
2.89305
32.2541
0.000926317
167.474
46.6529
0.00156367
16.4325
0.00074096
86.8719
32.1847
28.3428
40.2225
0.000716166
0.000718333
9.82913
110.4
5.68059
37.9985
0.000665296
0.0436189
0.000734272
0.00194279
39.7942
0.0887106
0.348109
0.917341
21.7521
152.294
24.7978
65.6865
0.000728963
29.424
37.8985
20.6601
0.000738997
44.135
0.00073533
0.000726962
0.158976
20.7583
0.0161937
336.767
35.1094
328.375
0.000762577
0.00132089
0.0372648
110.277
4.60565
145.811
0.000725841
0.000715973
0.0019618
0.00296932
139.769
44.86
83.1165
0.308846
0.0360327
3.86433
3.79043
57.2958
15.298
61.2801
18.9407
0.000690189
182.59
0.00155585
1.83355
62.1388
26.2518
1.3102
0.619605
0.000943321
106.323
7.47891
20.0293
28.5108
0.000722606
67.2862
43.0427
171.596
0.00440724
59.1357
47.6227
56.6687
191.117
22.0782
55.8492
0.277514
814.122
4.28473
0.188824
121.15
0.000729539
94.0519
173.507
0.000703883
35.8348
0.00130996
102.239
102.352
1.77332
18.8105
106.396
97.4795
13.3803
0.943478
50.2275
9.34913
0.00560338
0.00069651
24.6832
0.086212
19.5033
58.1463
4.48942
53.9309
105.074
0.000717039
15.9814
461.706
243.563
10.3981
99.7518
18.2203
208.574
97.3439
1.65224
0.0159489
0.221749
68.1245
84.0307
0.222196
53.8694
59.9025
53.0034
11.0927
2.07406
10.6433
32.9937
0.000738547
238.742
88.8097
1.51877
0.000738418
26.8071
15.5614
17.1628
0.000720235
149.682
0.000728796
12.0523
0.180631
0.000733694
39.4118
81.5265
0.000701061
50.5276
27.9134
24.8522
12.7045
40.4068
15.4362
40.7522
52.8685
1.7175
0.000708693
0.00128167
33.6914
5.62512
0.126425
0.000738557
84.1894
0.00185356
0.977083
0.250784
10.8761
8.66929
0.0645083
0.523456
394.632
173.189
24.336
1421.42
56.9485
0.000706103
51.5615
18.0419
182.304
0.000709436
5.48317
0.000737103
0.000866613
17.458
4.00066
0.0327354
0.000802667
56.9963
3020.58
0.00246934
0.00072892
1.63797
9.51194
0.0158722
0.0871889
3169.28
0.553659
0.000795803
0.000727664
66.8466
20.773
0.306564
0.0668049
64.2435
193.172
29.5413
103.473
35.2962
0.000730545
16.6221
0.000723076
130.356
15.4918
2935.96
6.15456
0.146539
0.000951908
97.3604
0.000739878
0.000712134
0.00176183
13.7147
18.5059
61.6877
0.000719014
16.6914
0.000727254
529.707
61.7502
0.000744625
126.183
6.27578
0.000729066
0.000766879
0.0263528
139.715
5.6488
0.0173903
0.000727497
0.000709723
134.684
91.5318
20.8816
34.5876
0.474694
34.4938
0.000718456
0.00406395
6.88906
209.964
48.1346
0.00325741
0.000731396
33.2606
0.000727523
87.9405
140.606
7.23349
0.0382063
91.8397
16.6098
3.15465
0.000727966
7.44171
95.068
85.2052
0.00217337
0.0221229
31.8242
3012.28
0.0536051
4.56426
0.000703037
0.000689909
0.000740627
0.0102669
31.9862
69.9622
0.0416902
99.6763
22.5752
419.997
8.16147
0.0109769
0.00276806
0.00617786
2.59045
48.0764
20.1534
0.000753059
96.3221
0.000716165
0.00631937
65.6612
49.72
0.0266895
5.32452
9.829
0.00104964
0.740416
2.52797
0.000722277
0.000931253
146.963
0.000888902
0.000753606
110.968
25.2429
3163.54
8.83023
1375.5
0.000851905
0.00070029
3520.46
17.3003
1.17938
3.72167
0.0572905
18.5504
1.02493
986.628
47.0431
66.6522
143.513
104.545
1.0563
27.194
99.3811
0.00693335
80.7341
0.000980921
37.0334
6.32222
0.736029
7.88671
6.9891
3.50005
2.0393
39.2247
61.0173
45.064
28.7072
50.2176
36.1618
6.28125
0.00109218
0.000724307
0.236992
252.389
0.000725512
80.088
0.000705567
0.00379307
189.951
112.721
45.049
74.9531
979.745
77.5637
19.09
40.2792
0.000724389
16.7221
74.4961
0.000760093
198.599
0.00253941
719.436
250.266
294.8
14.1517
84.1489
4.53405
0.501116
16.0452
94.3984
20.5338
12.2252
5.38863
77.2855
0.13577
124.336
335.527
0.00368002
34.5772
0.000739834
0.000988045
17.5249
133.349
168.944
14.6291
0.612705
0.218594
0.320299
0.000848488
22.8514
0.000847973
154.813
0.000803081
0.120893
258.612
5.554
2.89849
192.114
157.849
0.00194695
0.000740096
0.194297
13.6204
0.166093
112.997
0.0371943
25.7626
5.13133
27.1025
56.1336
0.000867468
0.000719444
130.489
0.722728
5.57547
56.307
29.2693
38.8181
0.00388997
164.644
56.1528
90.4929
0.000828361
1.28801
24.7623
79.1432
1.00388
14.0355
0.000737703
11.8607
0.000710647
221.849
0.00436208
34.7296
0.172582
10.1455
0.000761946
1961.39
0.000739093
142.753
0.0160699
0.000727374
0.00678365
14.5697
0.000729275
0.000733365
10.3295
0.0268848
20.4682
0.0634369
0.000772376
22.413
6.44904
39.6929
0.000782261
111.689
4.55507
351.893
37.5106
29.9436
57.4796
93.0149
4.63553
299.271
249.185
98.3265
0.000753326
2.42129
25.6178
18.2159
0.00128569
0.0163379
20.6327
482.283
0.000735472
1.66515
105.137
0.000675629
57.8768
66.84
182.226
73.3773
52.5653
12.3109
0.341805
202.367
9.27841
73.8004
51.7813
52.4075
0.4891
0.000727257
34.1889
0.00182387
0.000750513
0.000711671
177.894
0.00072755
0.000913193
18.3863
9466.48
2.85514
2.58866
52.7467
11.1671
0.000728511
42.3179
223.837
0.0161878
4.73964
55.7993
49.03
0.282536
0.0208534
0.000717028
0.00072621
0.0173091
0.0416929
25.2442
21.2208
88.1924
14.1341
13.9378
0.000995504
197.961
28.2684
0.00074783
23.104
826.996
0.000734651
6.95866
119.794
43.7472
91.741
0.717475
143.969
0.000856753
0.925204
0.000773861
0.0019877
0.000746828
63.3826
18.149
0.0967105
0.000739345
0.000686729
188.251
28.6448
2.73458
19.9818
6.24291
36.3338
18.4272
24.4777
26.5616
0.000732268
0.482339
0.879188
0.353954
19.0572
77.2034
49.579
84.075
27.8185
88.0991
161.596
95.3765
46.5646
32.1644
0.13153
56.7891
29.6188
0.0202638
79.5661
53.9151
10.9301
0.00069945
0.000742731
0.000873467
0.00118269
49.9011
0.00067443
109.754
50.5034
229.907
28.9519
0.00072644
12.4741
15.8882
58.0825
15.3692
29.4782
13.7348
0.000754702
0.000742226
0.00345309
0.176013
0.000710774
84.5299
13.9612
1.74276
47.6618
15.0693
39.0288
118.306
0.000728216
19.0925
30.9788
0.000944619
0.0907734
52.8285
168.853
20.2816
4.75175
0.000753929
33.6854
39.6361
0.000959507
0.011621
0.000722848
39.7523
0.00116595
0.517959
112.711
0.763673
0.0999097
21.808
2877.59
0.000758172
30.2138
0.000675457
10.2403
23.0477
22.287
17.079
60.867
31.7206
58.2629
189.001
45.3541
0.000732409
0.000718148
0.0475287
0.206895
53.1995
4.5481
0.000730225
164.412
2.89837
0.00301842
52.3429
0.0545833
0.00287149
0.0322899
74.2089
0.00203753
0.000734265
21.3526
83.4569
25.1437
1.62658
53.9656
8.24951
0.000737461
16.8038
0.14614
0.0685527
0.000791112
34.6983
20.0474
5.51038
139.123
94.6199
16.4154
2.90028
0.000725723
25.858
0.000726208
223.156
0.00407551
33.4124
0.157986
53.6962
0.00810721
0.00356633
4.54878
3.74152
386.585
0.000853167
1.89433
46.3901
91.2244
6.40699
114.718
1.32769
0.000812304
0.000744797
58.1959
24.6038
313.175
2.24705
0.164459
54.9291
21.0959
59.5228
0.0668335
0.00072599
0.000734803
1.27416
767.887
18.6068
105.982
0.000842797
0.00453228
1.10957
48.9155
22.8251
45.0743
57.9198
60.8546
0.000741921
0.000735549
179.034
135.889
61.5935
427.114
48.0779
0.0161028
132.993
0.000724673
226.238
0.0177352
0.0210123
0.00072721
0.0347079
0.17306
53.6965
48.43
0.000754517
116.311
0.000719039
82.8557
148.523
0.000718105
0.470241
0.0007544
16.4692
0.324109
5.61878
0.000691775
13.187
90.9351
13.1429
45.1296
1.24021
60.6263
1.58097
62.6714
33.3869
84.0331
30.8134
0.000955106
0.000736192
27.2197
0.480855
61.6522
0.000731901
123.351
0.000724324
0.00131046
0.250974
0.000720462
273.634
97.672
0.000762186
21.877
2.57113
0.175173
33.1995
0.00188092
0.000708279
42.9999
9.1571
0.0205803
46.5981
2371.86
108.394
1.62936
183.01
0.225342
0.000735777
0.00090053
0.0276563
1.55174
57.7074
140.771
312.55
52.4265
55.042
10.6062
1.98003
37.3456
154.175
56.1192
0.0352205
0.0854648
13.0683
83.8765
0.000793217
1.00353
17.5312
192.49
0.000726907
49.0898
0.000680748
0.00644356
129.558
0.000790495
65.187
1155.59
0.000738013
175.249
0.000870223
8.89696
0.00652843
0.00103379
47.5318
16.2043
64.6366
8.46943
79.5655
350.453
105.554
5.9606
36.6803
20.3435
0.000705297
162.901
0.0565421
88.6088
4.03136
10.5361
0.0347015
0.00108869
167.198
116.643
12.6438
48.3878
18.0947
0.0103111
0.000694836
0.000744478
1.65772
75.3322
17.2542
0.00070393
1167.96
20.4524
0.00960897
0.14179
20.1878
0.000664272
0.392133
0.000762217
0.000723747
21.4315
30.0439
0.0546546
0.00624154
0.000708808
29.0793
1.77424
20.7294
0.00231511
0.0321784
0.0073823
61.1691
103.268
1.23314
0.000729312
160.24
0.000780825
0.0337235
0.00416218
0.00141259
34.8224
64.8526
0.000725239
49.9837
0.000748745
0.000696272
0.000880839
53.4435
15.4255
53.2224
42.4433
20.0771
61.8958
0.0442246
0.00072878
0.00706973
0.00161845
2.86904
0.000713547
61.6081
11.7277
0.0330885
101.132
0.353803
22.3095
1.8789
0.00184176
125.489
56.7815
20.1906
0.00724462
0.146528
214.858
0.000732765
8.92477
57.7623
0.000724659
0.708873
0.00279792
19.5267
0.000691665
81.5043
37.2714
1.71726
0.430813
94.1658
365.902
4.71913
125.549