/*--------------------------------*- C++ -*----------------------------------*\
| =========                 |                                                 |
| \\      /  F ield         | OpenFOAM: The Open Source CFD Toolbox           |
|  \\    /   O peration     | Version:  2.3.1                                 |
|   \\  /    A nd           | Web:      www.OpenFOAM.org                      |
|    \\/     M anipulation  |                                                 |
\*---------------------------------------------------------------------------*/
FoamFile
{
    version     2.0;
    format      ascii;
    class       volScalarField;
    location    "0.8";
    object      k;
}
// * * * * * * * * * * * * * * * * * * * * * * * * * * * * * * * * * * * * * //

dimensions      [0 2 -2 0 0 0 0];

internalField   nonuniform List<scalar> 
15166
(
1.07915
1.32443
1.70738
2.10977
2.42107
2.73164
2.95355
3.08646
3.13277
3.11036
3.02679
2.9153
1.07952
1.29577
1.71123
2.10199
2.41268
2.70209
2.90351
3.01965
3.05552
3.0282
2.94588
2.82557
1.08757
1.26418
1.69583
2.07995
2.38995
2.66271
2.84854
2.95205
2.98074
2.95002
2.86781
2.74424
1.0981
1.23882
1.6742
2.05151
2.35867
2.61732
2.79078
2.88475
2.90834
2.87524
2.79229
2.66387
1.10949
1.21974
1.65107
2.02088
2.32316
2.56918
2.73223
2.81869
2.8385
2.80375
2.72031
2.5912
1.1218
1.20522
1.62757
1.98939
2.28548
2.52
2.67404
2.75441
2.77132
2.73535
2.65146
2.52112
1.13506
1.1942
1.60433
1.95769
2.24665
2.4707
2.61683
2.69214
2.70673
2.66982
2.5852
2.45188
1.14906
1.18601
1.58186
1.92623
2.20746
2.42187
2.56097
2.632
2.64471
2.60711
2.52221
2.38957
1.16359
1.18016
1.56052
1.89545
2.16851
2.37395
2.5067
2.57402
2.58518
2.54711
2.46226
2.33042
1.17847
1.1762
1.54042
1.86553
2.13019
2.32725
2.45419
2.51823
2.52807
2.48975
2.40546
2.2762
1.19355
1.17378
1.52159
1.83658
2.09272
2.28191
2.40349
2.46459
2.4733
2.43498
2.35175
2.22601
1.20874
1.17259
1.50397
1.80867
2.05624
2.23802
2.35461
2.41303
2.42079
2.38272
2.30134
2.18145
1.22394
1.17238
1.48754
1.78177
2.02086
2.1956
2.30753
2.36348
2.37043
2.33285
2.25377
2.1398
1.23906
1.173
1.47222
1.75591
1.9866
2.15466
2.2622
2.31586
2.32213
2.28515
2.20786
2.09433
1.25405
1.17421
1.45793
1.73107
1.95348
2.11517
2.21858
2.2701
2.27581
2.23957
2.16445
2.05569
1.26884
1.17593
1.44455
1.70721
1.92151
2.07711
2.17659
2.22612
2.23134
2.19592
2.12306
2.01818
1.28338
1.178
1.43202
1.6843
1.89066
2.04042
2.13618
2.18383
2.18864
2.15411
2.08343
1.98172
1.29765
1.18035
1.42028
1.66233
1.86092
2.00508
2.09728
2.14314
2.14761
2.11399
2.04543
1.94653
1.31159
1.18291
1.40923
1.64122
1.83224
1.97101
2.05981
2.10399
2.10817
2.07549
2.00907
1.91359
1.3252
1.18558
1.39883
1.62095
1.8046
1.93818
2.02371
2.06628
2.07021
2.0385
1.9742
1.88198
1.33843
1.18834
1.38899
1.60148
1.77794
1.90652
1.98892
2.02995
2.03366
2.00289
1.94054
1.85043
1.35129
1.19112
1.37967
1.58278
1.75224
1.87598
1.95537
1.99493
1.99844
1.96858
1.90799
1.81972
1.36374
1.1939
1.37082
1.56477
1.72746
1.84652
1.92301
1.96115
1.96448
1.93548
1.87643
1.78939
1.37578
1.19665
1.36239
1.54746
1.70355
1.81809
1.89178
1.92855
1.93171
1.90351
1.84585
1.76015
1.38739
1.19935
1.35434
1.53081
1.68049
1.79066
1.86164
1.89708
1.90006
1.87259
1.81624
1.73199
1.39856
1.20197
1.34662
1.51477
1.65824
1.76416
1.83252
1.86668
1.86947
1.84269
1.78758
1.70495
1.4093
1.2045
1.33922
1.4993
1.63675
1.73856
1.80438
1.83729
1.83989
1.81376
1.75992
1.67927
1.41961
1.20696
1.33211
1.48437
1.616
1.71382
1.77718
1.80887
1.81127
1.78576
1.73323
1.65507
1.42945
1.20932
1.32524
1.46999
1.59594
1.68991
1.75087
1.78136
1.78356
1.75866
1.70748
1.63156
1.43887
1.21157
1.31861
1.45608
1.57657
1.66677
1.72541
1.75474
1.75673
1.73243
1.68252
1.60842
1.44782
1.21374
1.31217
1.44264
1.55782
1.64439
1.70076
1.72896
1.73074
1.70701
1.65837
1.58617
1.4563
1.2158
1.30594
1.42962
1.53969
1.62272
1.67689
1.70398
1.70555
1.68237
1.63495
1.56442
1.46432
1.21776
1.29988
1.41704
1.52214
1.60174
1.65377
1.67976
1.68112
1.65847
1.61224
1.54353
1.47194
1.21962
1.294
1.40485
1.50515
1.58143
1.63137
1.65629
1.65743
1.6353
1.59022
1.52314
1.47906
1.22137
1.28827
1.39304
1.4887
1.56174
1.60965
1.63352
1.63444
1.61281
1.56885
1.50348
1.48578
1.22304
1.28269
1.38157
1.47275
1.54266
1.58859
1.61143
1.61213
1.59097
1.54811
1.48429
1.49205
1.2246
1.27724
1.37044
1.45728
1.52415
1.56815
1.58998
1.59045
1.56975
1.52799
1.46603
1.4979
1.22608
1.27192
1.35963
1.44227
1.5062
1.54831
1.56916
1.56939
1.54914
1.50847
1.44843
1.50333
1.22748
1.26672
1.34912
1.42771
1.48877
1.52905
1.54893
1.54893
1.52913
1.48952
1.43099
1.50833
1.2288
1.26164
1.3389
1.41358
1.47186
1.51035
1.52927
1.52905
1.50968
1.47116
1.41464
1.51288
1.23005
1.25667
1.32896
1.39986
1.45544
1.49219
1.51017
1.50972
1.49075
1.45312
1.39694
1.51699
1.2312
1.2518
1.31929
1.38653
1.43949
1.47454
1.4916
1.49091
1.47231
1.43544
1.3796
1.52066
1.23226
1.24704
1.30989
1.37358
1.42399
1.45738
1.47354
1.47261
1.45434
1.41824
1.36366
1.52391
1.23321
1.24238
1.30073
1.361
1.40892
1.4407
1.45597
1.4548
1.43684
1.40146
1.34791
1.52674
1.23402
1.23782
1.29183
1.34876
1.39427
1.42448
1.43888
1.43745
1.41978
1.38514
1.33294
1.52916
1.2347
1.23336
1.28318
1.33685
1.38002
1.4087
1.42224
1.42056
1.40315
1.36921
1.31786
1.53117
1.23528
1.22901
1.27474
1.32524
1.36617
1.39334
1.40604
1.4041
1.38695
1.35372
1.30388
1.53278
1.23571
1.22475
1.26653
1.31395
1.35269
1.37839
1.39026
1.38806
1.37114
1.33862
1.28986
1.53401
1.23604
1.22057
1.25852
1.30296
1.33957
1.36383
1.37488
1.37241
1.35572
1.32391
1.27658
1.53486
1.23628
1.21647
1.25071
1.29226
1.32678
1.34965
1.35989
1.35714
1.34067
1.30953
1.26311
1.53532
1.23642
1.21243
1.24309
1.28185
1.31434
1.33583
1.34528
1.34224
1.32597
1.29549
1.25029
1.53542
1.23651
1.20847
1.23565
1.27171
1.30221
1.32237
1.33103
1.32771
1.31163
1.28181
1.23784
1.53515
1.2365
1.20457
1.2284
1.26184
1.29041
1.30924
1.31713
1.31353
1.29763
1.26842
1.22516
1.53451
1.23644
1.20075
1.22131
1.25221
1.2789
1.29646
1.30359
1.2997
1.28396
1.25537
1.21337
1.53353
1.2363
1.19699
1.21439
1.24283
1.26769
1.28399
1.29037
1.28619
1.27061
1.24266
1.202
1.5322
1.23607
1.1933
1.20763
1.23368
1.25676
1.27184
1.27748
1.27301
1.25759
1.23029
1.19101
1.53052
1.23577
1.18967
1.20103
1.22476
1.24611
1.25999
1.2649
1.26015
1.24487
1.21819
1.17994
1.5285
1.23543
1.18611
1.19458
1.21606
1.23573
1.24844
1.25264
1.24759
1.23247
1.20639
1.16918
1.52616
1.235
1.18262
1.18828
1.20757
1.2256
1.23718
1.24067
1.23534
1.22035
1.19479
1.15791
1.52347
1.23453
1.1792
1.18213
1.1993
1.21573
1.22619
1.229
1.22338
1.2085
1.18344
1.14743
1.52046
1.23399
1.17585
1.17612
1.19122
1.2061
1.21547
1.2176
1.2117
1.19693
1.17239
1.13757
1.51713
1.23339
1.17256
1.17025
1.18333
1.1967
1.20501
1.20647
1.20029
1.18563
1.16162
1.12801
1.51348
1.23273
1.16935
1.16452
1.17564
1.18753
1.19481
1.19562
1.18916
1.1746
1.1511
1.11836
1.50951
1.23204
1.1662
1.15893
1.16814
1.1786
1.18486
1.18503
1.17829
1.16382
1.14081
1.10894
1.50523
1.23129
1.16313
1.15348
1.16083
1.16988
1.17515
1.1747
1.16768
1.15329
1.13074
1.09947
1.50063
1.23052
1.16012
1.14817
1.15369
1.16138
1.16568
1.16462
1.15732
1.14301
1.12088
1.09035
1.49573
1.22968
1.15719
1.14298
1.14673
1.15308
1.15645
1.15478
1.14721
1.13297
1.11122
1.08122
1.49052
1.2288
1.15434
1.13793
1.13995
1.145
1.14744
1.14519
1.13734
1.12315
1.10178
1.07252
1.485
1.22791
1.15157
1.13302
1.13333
1.13712
1.13866
1.13582
1.12771
1.11356
1.09255
1.06396
1.4792
1.22695
1.14888
1.12824
1.12689
1.12943
1.13009
1.12668
1.1183
1.10419
1.08353
1.05571
1.47309
1.22596
1.14626
1.12359
1.12062
1.12193
1.12173
1.11777
1.10912
1.09504
1.07471
1.04741
1.46668
1.22491
1.14371
1.11907
1.11451
1.11463
1.11359
1.10908
1.10016
1.08609
1.06607
1.03942
1.45999
1.22385
1.14125
1.11469
1.10856
1.10752
1.10564
1.10059
1.09141
1.07736
1.05765
1.03162
1.45299
1.22277
1.1389
1.11045
1.10279
1.10059
1.09791
1.09233
1.08288
1.06884
1.04941
1.02392
1.4457
1.22164
1.1366
1.10634
1.09717
1.09385
1.09037
1.08427
1.07456
1.06051
1.04135
1.01643
1.43815
1.22046
1.13439
1.10236
1.09171
1.08729
1.08302
1.07641
1.06644
1.05238
1.03347
1.00888
1.4303
1.21923
1.13227
1.09852
1.08642
1.08091
1.07587
1.06876
1.05853
1.04445
1.02574
1.00152
1.42215
1.21798
1.13023
1.09482
1.0813
1.07471
1.06892
1.06131
1.05081
1.03671
1.01819
0.99425
1.41373
1.21672
1.1283
1.09126
1.07633
1.06869
1.06215
1.05405
1.04329
1.02916
1.01081
0.987214
1.40503
1.21541
1.12645
1.08784
1.07153
1.06284
1.05557
1.04699
1.03597
1.02179
1.00359
0.980203
1.39604
1.21407
1.12469
1.08457
1.0669
1.05718
1.04918
1.04012
1.02884
1.0146
0.99653
0.973521
1.38677
1.21268
1.12302
1.08144
1.06243
1.05169
1.04297
1.03343
1.02189
1.00758
0.989634
0.967034
1.37723
1.21125
1.12144
1.07845
1.05812
1.04638
1.03695
1.02694
1.01513
1.00075
0.982927
0.96062
1.36741
1.20979
1.11997
1.07561
1.05399
1.04125
1.03111
1.02064
1.00857
0.994115
0.976388
0.954257
1.35731
1.20831
1.1186
1.07293
1.05002
1.0363
1.02546
1.01453
1.00219
0.987646
0.970006
0.948168
1.34694
1.20677
1.11733
1.0704
1.04623
1.03153
1.01999
1.0086
0.995991
0.98136
0.96379
0.942083
1.3363
1.20516
1.11614
1.06803
1.04261
1.02694
1.01471
1.00285
0.989977
0.975241
0.957723
0.936341
1.32538
1.20353
1.11506
1.06581
1.03918
1.02253
1.00962
0.9973
0.98415
0.969316
0.951855
0.93063
1.31418
1.20186
1.11408
1.06377
1.03592
1.01832
1.00471
0.991936
0.97851
0.963569
0.946152
0.925117
1.3027
1.20016
1.11321
1.06189
1.03286
1.01429
0.999997
0.986757
0.973053
0.957992
0.940582
0.91944
1.29095
1.19841
1.11244
1.06017
1.02997
1.01045
0.99547
0.981764
0.967777
0.952589
0.935201
0.914565
1.27893
1.19662
1.11177
1.05863
1.02729
1.00681
0.991141
0.976969
0.962705
0.947405
0.930068
0.909689
1.26665
1.19473
1.11121
1.05727
1.0248
1.00337
0.98701
0.97237
0.95782
0.942388
0.925074
0.904926
1.25408
1.19284
1.11076
1.05609
1.02251
1.00014
0.983081
0.967968
0.953127
0.937558
0.920259
0.900212
1.24125
1.19085
1.11041
1.05509
1.02043
0.997113
0.979356
0.963768
0.948629
0.932915
0.915607
0.895635
1.22815
1.18879
1.11016
1.05427
1.01855
0.994302
0.97584
0.959771
0.944333
0.928473
0.911144
0.891127
1.21477
1.18667
1.11005
1.05366
1.0169
0.991711
0.97254
0.955984
0.940234
0.924207
0.906822
0.886858
1.2011
1.18454
1.11004
1.05325
1.01548
0.989349
0.969461
0.952405
0.93634
0.920144
0.902706
0.882712
1.18719
1.18226
1.11014
1.05304
1.0143
0.987219
0.966607
0.949045
0.932655
0.916276
0.89876
0.878768
1.17298
1.17994
1.11035
1.05304
1.01335
0.985335
0.963989
0.945913
0.929189
0.91262
0.895033
0.874952
1.1585
1.17753
1.11068
1.05326
1.01265
0.983697
0.961608
0.943006
0.925932
0.909157
0.891472
0.871457
1.14373
1.17509
1.11113
1.0537
1.01222
0.982322
0.959478
0.940334
0.922902
0.905915
0.888133
0.868138
1.12869
1.17258
1.11169
1.05437
1.01205
0.981216
0.957612
0.937918
0.92012
0.902919
0.885039
0.864952
1.11338
1.16994
1.11237
1.05526
1.01216
0.980393
0.956015
0.935754
0.917579
0.900149
0.882166
0.862061
1.0978
1.16717
1.11317
1.05641
1.01255
0.979865
0.954694
0.933852
0.915283
0.89761
0.879514
0.859476
1.08193
1.16434
1.11408
1.0578
1.01325
0.97964
0.953666
0.932226
0.913248
0.895335
0.877133
0.857017
1.06579
1.16137
1.11511
1.05945
1.01425
0.97973
0.952945
0.930889
0.91148
0.893293
0.874935
0.854825
1.04936
1.15831
1.11625
1.06137
1.01559
0.980161
0.952546
0.929858
0.910003
0.891535
0.87302
0.852804
1.03264
1.15524
1.11752
1.06357
1.01726
0.980946
0.952491
0.929146
0.908826
0.890063
0.871373
0.851036
1.01564
1.15194
1.11892
1.06605
1.0193
0.982102
0.952796
0.928767
0.907959
0.888868
0.869958
0.849445
0.998351
1.14858
1.12046
1.06884
1.02172
0.983656
0.953481
0.928751
0.90743
0.887994
0.86887
0.848192
0.980771
1.14513
1.1221
1.07192
1.02453
0.985621
0.954569
0.929114
0.907258
0.887464
0.868124
0.847354
0.962921
1.14141
1.12387
1.07533
1.02776
0.988033
0.956084
0.929883
0.907475
0.887324
0.867792
0.846808
0.944775
1.13764
1.12576
1.07905
1.03141
0.990898
0.958049
0.931064
0.908069
0.887505
0.867674
0.846149
0.926338
1.13376
1.12775
1.08313
1.03552
0.994249
0.96048
0.932681
0.909054
0.888032
0.867869
0.845999
0.907624
1.12963
1.1299
1.08754
1.0401
0.998111
0.963415
0.934772
0.910482
0.888988
0.868518
0.84637
0.8886
1.12544
1.13216
1.09234
1.04519
1.00254
0.9669
0.937381
0.912386
0.890376
0.869517
0.847044
0.869287
1.12096
1.13459
1.09752
1.05082
1.00756
0.970984
0.940556
0.914825
0.892275
0.871055
0.848369
0.849677
1.11633
1.1371
1.10311
1.05702
1.01322
0.975706
0.944337
0.917832
0.894719
0.873129
0.850271
0.829798
1.11162
1.13975
1.10911
1.06384
1.01956
0.981118
0.948782
0.92145
0.89774
0.875761
0.852513
0.80962
1.10664
1.14254
1.11556
1.0713
1.02663
0.987259
0.953914
0.925696
0.901285
0.878738
0.854688
0.789131
1.10143
1.14548
1.12248
1.07944
1.0345
0.994203
0.959802
0.93064
0.905474
0.882353
0.85788
0.768356
1.09595
1.14856
1.12989
1.08833
1.04323
1.00203
0.966544
0.936389
0.910439
0.886787
0.862019
0.747304
1.09044
1.15177
1.13785
1.09803
1.05289
1.01083
0.974213
0.942979
0.916145
0.891783
0.866441
0.725934
1.08454
1.15517
1.14638
1.1086
1.0636
1.0207
0.982905
0.950521
0.922713
0.897603
0.871584
0.704266
1.07837
1.15876
1.15557
1.12014
1.07545
1.03175
0.992738
0.959111
0.93021
0.904201
0.877489
0.682317
1.07217
1.16256
1.16545
1.13278
1.08859
1.04415
1.00388
0.968912
0.938814
0.91185
0.884424
0.660031
1.06555
1.16668
1.17617
1.14665
1.10319
1.05806
1.01648
0.980059
0.948643
0.920583
0.892101
0.637428
1.05875
1.17117
1.18786
1.16196
1.11946
1.07369
1.03071
0.992682
0.959774
0.930489
0.901061
0.61445
1.05172
1.17619
1.20082
1.17895
1.13766
1.09128
1.04678
1.00695
0.972317
0.941573
0.910983
0.5911
1.04468
1.18213
1.21538
1.19807
1.15815
1.11113
1.06494
1.02308
0.9865
0.95418
0.922421
0.567261
1.03781
1.18956
1.23223
1.21982
1.18133
1.13354
1.08545
1.04125
1.00242
0.96822
0.935014
0.542868
1.03237
1.19968
1.25231
1.24484
1.20761
1.15878
1.10845
1.06161
1.02016
0.983716
0.948596
0.517795
1.03186
1.21574
1.27802
1.27441
1.23783
1.18756
1.13471
1.08474
1.04018
1.00095
0.963599
0.488283
1.03317
1.23062
1.30432
1.30263
1.26675
1.21531
1.16112
1.10812
1.06115
1.01908
0.980034
1.04069
0.00468008
0.347417
0.321803
0.32074
0.28891
0.279332
0.646843
0.830967
0.777928
0.567789
0.00777926
0.0326161
3.01863
0.277067
0.00354998
2.83099
0.110619
0.107654
0.00348339
0.140585
0.176122
0.14482
0.0269067
1.05616
0.346505
0.160017
0.375053
0.604656
0.812986
0.538078
1.16682
0.00420061
0.558277
0.0311395
0.16594
0.387303
0.470851
0.39305
0.00818294
0.0704798
0.0033773
0.0716734
0.531589
0.268449
0.173096
0.0608483
0.0248531
0.271386
0.140032
0.164096
0.634586
0.262998
0.00321463
1.98787
0.00444691
0.0106635
0.00337424
0.471549
0.266434
0.155739
1.19157
0.0032091
0.0168826
0.183599
0.0045328
0.888886
0.252362
1.53223
0.689195
1.884
0.0535756
0.383405
0.729125
0.0273707
0.00323014
0.797589
0.00309478
0.0702103
0.241063
0.103478
0.00310386
0.405745
0.295304
0.0163656
1.11908
0.884533
0.00319468
0.390995
0.23779
0.3538
0.653802
0.00319826
0.00392207
0.456863
0.00326193
0.362493
0.012842
0.00317208
0.899043
1.10871
0.203696
0.00335325
0.00434061
0.00312134
0.514838
0.512246
0.689486
0.533172
0.00886249
0.0944761
0.00312705
0.202572
0.00372681
0.00318215
0.219924
0.019524
0.219992
1.09332
0.176127
1.02449
0.0293422
1.69984
0.1997
0.125668
1.29234
0.00405451
1.96535
0.0323847
0.00320012
0.231678
0.00323636
0.23319
0.00434539
0.162788
0.00514924
0.233314
0.595959
0.208028
0.00585719
0.0170208
0.145385
0.269573
0.0254535
0.174606
1.89732
0.298921
0.00454291
0.983105
0.374164
0.0640823
0.214047
0.00309227
0.114722
0.156548
0.00314728
0.248543
0.003202
1.27998
0.00708528
0.027042
0.00356927
0.128084
0.0132883
0.149779
0.0844459
0.984658
0.291704
0.335188
0.00307307
1.88824
0.758516
1.99265
0.0179158
0.00305944
0.574583
0.00311686
0.305935
0.138027
0.719699
1.00917
0.438051
0.0629263
0.37121
0.0033904
0.262746
0.00317802
0.00315336
0.17535
0.00318555
0.48762
0.00310671
0.936801
0.0047575
0.284102
0.296509
0.27177
0.165145
0.00312702
3.17554
1.01996
0.318216
0.413987
0.217262
0.324907
0.105015
0.0915472
0.228933
0.703497
0.21698
0.288253
0.900079
0.500565
0.396575
0.00315442
0.283577
0.0129681
0.427437
3.25235
0.210309
0.294667
1.0211
0.338902
0.00315697
0.0031882
1.30873
1.11839
0.00327021
4.20619
0.0324075
0.312489
0.121387
0.00311783
0.947472
0.414201
0.253647
0.246315
1.07899
0.656999
0.322201
0.154774
0.161399
1.25518
1.68695
0.375292
0.281819
0.227992
0.00350597
1.39594
0.289876
0.650696
0.72684
0.378958
3.95175
0.236706
0.240417
0.210437
0.310505
0.578065
0.341717
0.216422
0.258169
0.0157559
0.0899668
0.683917
0.261859
0.922067
0.506963
0.361388
1.49128
0.288101
0.0502879
1.63946
0.209098
0.208349
1.69585
0.242287
0.260472
0.301822
0.203603
0.866182
0.238757
0.37266
0.331606
0.614215
0.273145
0.474498
0.207983
1.12081
0.128591
0.201679
1.66873
0.226326
0.224879
0.283013
0.91984
0.119714
0.206075
0.0677739
0.480367
0.183644
0.106139
1.36667
2.05756
0.154299
0.954107
0.323524
0.00318779
0.201466
0.166119
0.211164
0.288921
0.00315766
1.18633
0.320044
0.0673974
0.225815
0.762335
0.00315194
0.63877
0.0388433
0.579575
0.422671
4.92983
0.503347
0.758445
0.539098
0.00313881
0.00316297
0.285048
0.447193
0.0030775
0.517295
0.00311578
0.0031623
0.00322465
0.00311707
0.140398
0.0031637
0.00580786
1.03855
0.5123
0.003229
0.334973
0.00987163
0.19585
0.295646
1.28833
4.14643
0.481123
0.00301096
0.00323876
0.0819583
0.134224
0.208969
0.0030643
0.0988735
0.315841
0.878568
0.377779
0.177648
0.273299
1.02608
4.08658
0.157121
0.325535
0.0036491
0.00318514
0.159084
0.258135
0.116373
0.173463
0.505849
2.744
1.69548
0.143827
0.343371
1.01421
0.00319835
0.419835
0.753639
0.00527049
0.00316292
0.520382
3.8273
0.73498
0.0030802
0.0489278
0.154767
0.025673
0.00319885
0.83339
0.38269
0.277379
0.282031
0.00374825
3.81431
0.00314286
0.235828
0.544824
0.0064907
0.0111336
0.962716
0.00879742
1.40936
0.767076
1.15118
0.653582
0.172244
0.681602
0.00313953
0.00309426
0.00317226
1.03845
0.0754681
1.2625
2.76262
0.164714
0.592064
0.00317912
0.0109259
0.274334
0.00308087
0.00317183
0.703334
0.00306837
0.22793
0.916447
0.371907
0.00302994
0.00749525
0.110588
0.116053
0.237032
0.144972
0.00310504
3.3435
0.836835
0.109496
0.0123935
0.327389
0.199604
0.00711826
0.279664
0.00690465
0.846246
0.0035282
0.250307
0.133135
0.00311625
1.30277
0.238425
0.322182
0.00930169
0.471293
0.144122
0.00516827
0.217478
0.490097
0.352346
1.10893
0.0240648
0.0509003
0.0115464
1.31216
0.676434
0.0630454
0.137582
0.163219
0.33492
0.182166
0.511035
1.1034
0.00304567
2.04945
0.914978
0.22664
0.00309809
0.267646
0.963219
0.0255401
0.436742
0.348871
0.256774
0.126719
0.177136
0.25943
0.00358645
0.0189259
0.875662
0.0391545
0.00438481
0.923018
4.08773
0.0395621
0.19989
0.788978
0.0904682
0.491435
0.259217
0.843752
0.321202
0.29098
0.00323008
0.0851843
0.447598
0.382344
1.3329
0.214166
1.42372
0.937611
3.75207
0.888723
0.310539
0.00316689
1.26404
0.204165
0.801708
0.416481
0.163775
0.0844168
0.426547
0.00321466
0.297439
0.00317781
0.340869
0.421634
0.213241
0.17507
1.27229
0.241275
1.04347
0.642772
1.97777
0.00321794
0.123862
0.933259
2.44928
0.196093
0.71755
0.0036172
0.028247
0.350279
1.85834
0.592225
0.00310244
0.0582263
0.00312257
0.0586922
0.351311
0.037585
0.846821
0.142974
0.589652
0.15584
0.125202
1.23016
0.709045
0.00319514
0.00319639
0.257769
1.21775
0.275639
0.598505
0.441262
0.667501
0.266633
0.00302343
0.187563
0.253729
0.00485937
1.04937
0.265187
0.176374
0.274333
0.0127532
0.00302464
0.0237201
0.00313934
0.647198
0.817787
0.709547
0.638187
0.00319306
1.47826
0.089887
0.74295
0.135473
1.73235
0.00867553
0.154665
0.00307428
0.497145
0.716709
0.315652
0.409609
0.00300691
1.30177
0.805992
0.510931
0.00311652
0.0709162
0.813963
0.617963
0.00610456
2.17326
0.00373911
0.805239
0.614638
0.0036302
0.131744
0.0877323
0.202517
0.00310546
0.00319887
1.15776
0.431724
0.322118
0.526604
0.00488084
0.128051
0.0982814
0.768967
0.208425
0.00395862
0.209067
1.20891
0.00307799
0.00821257
0.28631
0.635126
1.11622
0.0031581
0.729483
0.221375
1.30865
0.0298751
0.151752
0.816499
0.00319986
0.199384
0.137925
0.376256
0.383363
0.726071
0.276567
1.21708
1.17702
0.282367
2.70765
0.00323658
0.00315036
1.49711
0.783648
0.00475882
0.00315674
0.473409
0.00320625
0.823772
0.540441
0.248055
0.00311694
0.80821
0.0530296
0.29141
1.21613
0.235411
0.148535
0.145234
1.34686
0.0031921
0.28556
0.98162
0.234542
0.557311
0.00673606
0.533444
0.263317
2.03174
0.00313014
0.148922
0.68375
0.305788
0.00332103
0.0952978
0.342185
0.439233
1.26975
0.0592643
1.87646
0.406351
0.0928395
0.404965
0.00313422
0.00737526
0.363052
0.00306756
0.1753
0.00316529
0.244709
0.0107785
0.839629
0.00321719
0.110645
0.49397
1.61077
0.356925
0.669931
0.163594
2.44858
0.0156034
0.093494
0.571848
0.00309936
0.00320601
0.380335
0.156046
0.248862
0.390768
0.00328419
0.216262
0.218749
0.20101
0.492364
1.14825
0.200076
0.00319667
1.88295
2.42479
0.506895
0.00323832
0.0108347
2.0939
0.260428
0.00311983
1.29445
0.00310059
0.0804683
2.74576
0.00354817
0.291541
0.00314941
0.0566212
0.751429
0.00324368
0.00401705
0.00318308
0.00379997
0.0216799
3.81125
0.805138
0.0939083
0.242143
0.00316397
0.765554
0.00317339
0.248064
0.232752
0.0247987
0.159763
0.0139108
1.15107
0.00318443
4.32687
0.218275
0.629209
0.351569
0.163028
0.00309676
0.1934
1.09774
0.129337
0.752514
0.886094
1.6938
0.349812
0.0419616
0.627892
0.084076
0.00406576
0.1067
2.47089
1.1489
0.120013
0.00846502
0.2975
0.00375591
0.443721
0.872051
1.08653
0.84295
0.896338
0.0372002
0.00583192
0.325983
0.224511
0.0483648
0.2695
0.00316116
0.261376
1.96579
0.00330254
1.69703
0.783297
0.114533
0.101938
1.45073
0.0236548
0.101415
0.457683
0.310686
0.294132
0.00322322
0.673994
0.0763062
0.27138
0.383126
0.199044
0.223024
0.00685735
0.688991
0.00317337
0.00316055
0.228472
0.104964
0.160166
1.91869
0.00303327
1.14083
0.06461
0.0578785
0.00338881
1.72241
0.363859
0.0899666
0.78461
0.0598017
1.16009
0.154624
0.00314252
1.19384
2.08942
0.00546387
0.00876338
0.203566
1.03762
0.0993745
1.32474
0.0352598
0.233511
0.104148
0.156977
0.681002
0.203264
0.00318776
1.17583
0.328876
0.0151642
0.197113
4.25596
0.276463
0.00317662
0.00307079
0.764155
0.184078
1.01366
0.00306549
0.715154
0.295959
0.408496
0.00376694
0.314002
0.777355
0.00538487
0.258583
0.00321639
1.1234
0.2111
0.345392
0.262362
0.00314612
0.00314548
0.345557
1.40591
0.385968
0.732502
0.003028
0.0454083
0.0032083
0.00626191
1.15986
0.074217
0.0971203
0.124892
0.325377
0.305708
0.356476
1.21028
0.00317283
0.304339
0.732069
0.245567
0.00319247
0.94318
0.00320555
0.00316624
0.0885918
0.211994
0.0251615
1.36394
0.203236
2.80228
0.00328522
0.00476031
0.0397766
0.903272
0.306058
0.96274
0.00316826
0.00314853
0.00629163
0.00835916
1.10576
0.805845
0.640757
0.123542
0.0448948
0.315545
0.164208
0.578071
0.275874
0.879555
0.312612
0.00308098
0.332979
0.00536886
0.194636
0.889085
0.184412
0.231717
0.133299
0.00380966
1.34384
0.51635
0.489079
0.314535
0.00315936
0.588638
0.762555
0.334202
0.00825241
0.913112
0.479541
0.838573
0.328768
0.336684
0.590117
0.120062
0.861579
0.258606
0.0979665
0.236259
0.00317894
1.21452
0.862555
0.00311821
0.68468
0.00477401
0.538049
0.204622
0.237267
0.266693
0.73072
0.95317
0.262308
0.131368
0.174756
0.219548
0.0125464
0.00310407
1.02787
0.0615858
0.93802
0.549805
0.224621
0.834625
0.54498
0.00314509
0.278253
1.53429
1.06108
0.226809
0.239316
0.570709
1.89724
0.190821
0.234675
0.0249312
0.0837576
0.546908
1.19626
0.111638
0.842163
0.821304
0.785944
0.23983
0.231321
0.425504
0.692698
0.00319155
1.94169
0.669912
0.205008
0.00319069
0.592503
0.47447
0.294877
0.00317438
0.591408
0.00317258
0.243212
0.0912315
0.00319457
0.823321
0.347652
0.00310567
0.531878
0.373563
0.60889
0.258809
0.519387
0.279644
0.705968
0.169206
0.157382
0.00312932
0.00470827
0.343427
0.173405
0.0243273
0.00322964
0.354899
0.00604328
0.119782
0.118556
0.445743
0.207248
0.057497
0.0943231
0.549423
1.63707
0.329533
4.11883
0.870181
0.00311845
0.54108
0.58906
1.67751
0.00312663
0.173385
0.00318786
0.00359159
0.277284
0.28979
0.0391309
0.00340826
0.806078
3.72619
0.00739238
0.00317653
0.12932
0.263038
0.0240203
0.0740499
3.85303
0.140585
0.00339061
0.00317761
0.969206
0.262622
0.135716
0.0592919
0.651858
1.13166
0.392039
0.247356
0.67953
0.00317322
0.502303
0.00315978
0.231097
0.274221
5.38266
0.178326
0.0898064
0.00382908
1.18567
0.0031945
0.00313404
0.00585736
0.272527
0.287289
0.977125
0.00314931
0.507698
0.00317251
0.692933
0.977256
0.00320493
0.72539
0.225063
0.00317312
0.00330209
0.0319691
1.10732
0.383682
0.0264351
0.0031745
0.0031327
0.848849
0.685866
0.327466
0.753957
0.117758
0.438707
0.00314897
0.0103098
0.382895
0.810795
0.759505
0.00887597
0.00317631
0.397866
0.00319772
0.203649
0.805842
0.35395
0.043141
0.20087
0.50643
0.157239
0.00316975
0.513344
1.33287
0.648222
0.00644091
0.030607
0.690381
3.69256
0.0548482
0.373708
0.00311028
0.00308662
0.00321468
0.0187779
0.401774
1.07556
0.0106793
0.220963
0.633965
1.23462
0.206222
0.0197128
0.00796649
0.00758007
0.158535
0.171373
0.23679
0.00322348
1.34463
0.00314333
0.0136506
0.844371
0.853028
0.0364524
0.372724
0.468142
0.00409995
0.130324
0.255674
0.0031548
0.00378137
1.12395
0.00365649
0.0032248
0.707213
0.235374
2.09315
0.209264
2.41316
0.00356026
0.00311458
3.24579
0.296052
0.225236
0.498432
0.060403
0.232638
0.1965
1.0213
0.814682
0.588457
0.58217
0.233364
0.111225
0.321594
0.72851
0.0146491
0.351355
0.00392248
0.439656
0.366683
0.107068
0.384332
0.188558
0.413343
0.207941
0.262182
1.11065
0.459679
0.215612
0.317319
0.710836
0.326198
0.00421339
0.00315953
0.110999
2.22847
0.00316167
1.78894
0.00312465
0.00989772
0.340468
0.221509
0.820588
0.680628
0.90295
1.14002
0.522641
0.386285
0.00316723
0.290831
1.05825
0.00323919
1.24781
0.00714263
1.70952
0.94077
1.13402
0.274175
0.206241
0.283962
0.0918502
0.284533
1.23621
0.360737
0.780231
0.169826
0.203107
0.0853786
0.231787
0.954715
0.00955247
0.666487
0.00319427
0.00393388
0.300202
1.51841
0.338434
0.273872
0.164438
0.110683
0.121761
0.0034692
0.341079
0.00346723
0.706366
0.00341834
0.0580691
0.943397
0.171792
0.3063
0.334159
0.318439
0.00623957
0.00321491
0.0992454
0.266846
0.114828
0.517126
0.0424976
0.366002
0.240404
0.374547
0.791935
0.00359434
0.00314781
1.68917
0.226572
0.172015
0.811088
0.688264
0.817707
0.00987911
1.68539
0.335799
0.213181
0.00347802
0.196949
0.403711
0.205465
0.20774
0.266035
0.0032306
0.472961
0.00313414
0.628393
0.010674
0.439935
0.118067
0.409634
0.00324326
6.54569
0.00319251
1.51064
0.0256328
0.00317523
0.0145933
0.274994
0.0031708
0.00318046
0.396911
0.0328103
0.327492
0.0569863
0.00332665
0.21898
0.186483
0.445028
0.00334123
0.224019
0.189937
1.35632
0.707289
0.394665
0.415609
0.215745
0.306641
0.778719
0.832229
0.211252
0.00322413
0.145044
0.362393
0.306285
0.0047178
0.0085609
0.234324
1.57404
0.00318406
0.206294
1.2355
0.00305009
0.849724
0.935899
0.357313
0.594761
0.796961
0.259128
0.13005
2.59089
0.411582
0.885358
0.821867
0.222435
0.10751
0.0031663
0.42048
0.00587451
0.00321786
0.00313426
0.300478
0.00316628
0.00373379
0.537768
4.05838
0.406948
0.212646
0.833911
0.239593
0.00318233
0.165935
1.14395
0.0252624
0.164363
1.01908
0.313006
0.125607
0.0312131
0.00314371
0.00316818
0.027299
0.0449182
0.302829
0.299997
1.23638
0.267413
0.268778
0.00395548
0.50337
0.213622
0.0032118
0.342804
3.37885
0.00320851
0.362731
1.0168
0.739473
0.656234
0.189876
1.10327
0.00356307
0.210226
0.00331898
0.0063366
0.00320971
0.835219
0.568568
0.0741378
0.00319328
0.00307303
1.11331
0.386833
0.289222
0.235308
0.354567
0.435311
0.306092
0.349969
0.35004
0.0031772
0.15118
0.123617
0.136323
0.385294
1.05927
0.767813
0.590836
0.363233
1.11615
0.826558
0.963131
0.416028
0.881468
0.0647115
0.82536
0.393181
0.028119
1.01267
0.85589
0.447202
0.00311412
0.00320084
0.00361082
0.00444257
0.472239
0.00304521
0.49435
0.165092
0.996386
0.766836
0.00317142
0.474267
0.283351
0.186884
0.276007
0.390346
0.552735
0.00326543
0.00319927
0.0091122
0.100528
0.00313252
0.637535
0.267334
0.253038
0.760424
0.514617
0.441397
0.532105
0.00316787
0.319243
0.669129
0.00381457
0.078944
0.409228
0.315015
0.537616
0.193285
0.00325607
0.375573
0.35845
0.00385279
0.0204918
0.0031579
0.178789
0.00440684
0.143966
1.28757
0.111601
0.073515
1.00144
1.81235
0.00326947
0.628953
0.00305227
0.224976
0.346937
0.2478
0.484199
0.691017
0.676932
0.802331
1.22352
0.746824
0.00317862
0.00314518
0.0531817
0.101386
0.6066
0.172313
0.00319371
1.58822
0.253978
0.00825333
0.788513
0.0587043
0.00816872
0.0403912
0.997793
0.00646965
0.003195
0.258381
0.205953
0.640867
0.118251
0.226225
0.202942
0.00321397
0.291333
0.0902771
0.0600328
0.00337582
0.202593
0.534387
0.173663
1.44932
1.33534
0.316587
0.413412
0.00316339
0.35972
0.00319511
2.73031
0.0103364
0.430729
0.0942379
0.84042
0.0163767
0.00933717
0.248377
0.307771
1.30282
0.00356466
0.212141
0.482243
0.609097
0.185545
0.999392
0.120686
0.00343511
0.00320506
0.479166
0.635618
1.06301
0.289456
0.0848845
0.530374
0.328533
0.819075
0.0460116
0.00316921
0.00318277
0.122287
0.707429
0.689922
0.993088
0.00353341
0.0109607
0.167983
0.452396
0.268483
0.759181
0.349926
0.879209
0.00319888
0.00320958
1.13662
0.275257
0.885353
2.87798
0.36
0.0246361
1.41152
0.00318408
1.02331
0.0277214
0.0308296
0.00317113
0.0418009
0.0845682
0.837369
0.794282
0.00322673
0.758406
0.00316013
0.601095
1.56608
0.00314505
0.157375
0.00322657
0.259039
0.127541
0.174708
0.00308787
0.262057
0.211772
0.257336
1.02366
0.170226
1.22477
0.217517
0.833554
0.237363
1.11762
0.638019
0.00384251
0.00320865
0.37546
0.195129
0.823715
0.00317726
2.11179
0.00315893
0.00478216
0.0389341
0.00316026
1.14234
0.974589
0.00324379
0.665466
0.256682
0.102527
0.709356
0.00608349
0.0031292
0.422968
0.385979
0.00977411
0.776456
6.66906
1.35832
0.15534
1.19733
0.104347
0.00318524
0.00368816
0.0351783
0.13707
0.844319
1.0901
1.31562
0.795694
0.53163
0.509196
0.257832
0.652046
1.9438
0.591107
0.0430505
0.0783231
0.278802
1.50664
0.00338242
0.194293
0.655474
0.33347
0.00317286
0.42395
0.00305912
0.0138654
0.843746
0.0033876
0.298125
1.84995
0.00318984
0.352639
0.00351441
0.337265
0.0141159
0.00406731
0.767091
0.255193
0.915559
0.399758
1.12067
1.64652
0.489663
0.175872
0.752186
0.38851
0.0031157
0.577476
0.0585333