/*--------------------------------*- C++ -*----------------------------------*\
| =========                 |                                                 |
| \\      /  F ield         | OpenFOAM: The Open Source CFD Toolbox           |
|  \\    /   O peration     | Version:  2.3.1                                 |
|   \\  /    A nd           | Web:      www.OpenFOAM.org                      |
|    \\/     M anipulation  |                                                 |
\*---------------------------------------------------------------------------*/
FoamFile
{
    version     2.0;
    format      ascii;
    class       volVectorField;
    location    "0.8";
    object      U;
}
// * * * * * * * * * * * * * * * * * * * * * * * * * * * * * * * * * * * * * //

dimensions      [0 1 -1 0 0 0 0];

internalField   nonuniform List<vector> 
15166
(
(5.97422 0.560278 3.19203e-19)
(7.18697 1.03434 1.59836e-18)
(8.26918 0.902186 -8.93889e-19)
(9.3012 0.956318 8.01623e-19)
(10.0961 1.02019 8.23899e-19)
(10.8727 1.0749 4.34204e-19)
(11.5267 1.17334 -8.59387e-19)
(12.0688 1.23912 8.32875e-19)
(12.4641 1.3335 -4.22475e-19)
(12.771 1.39301 1.67121e-18)
(12.9969 1.44849 -1.22747e-18)
(13.1506 1.50679 1.2216e-18)
(6.66617 1.02641 4.88942e-19)
(7.60226 1.42487 5.23974e-20)
(8.55504 1.20938 2.74451e-20)
(9.47676 1.22947 4.56044e-19)
(10.2372 1.24935 -3.95971e-19)
(10.9649 1.2758 0)
(11.5822 1.33744 4.24962e-19)
(12.0879 1.3834 1.45216e-21)
(12.4665 1.44386 4.18243e-19)
(12.7601 1.4857 -8.43231e-19)
(12.9764 1.52577 1.6564e-18)
(13.1343 1.56473 -1.23407e-18)
(7.20865 1.25742 -4.63295e-19)
(8.03757 1.56821 -2.47771e-18)
(8.8993 1.37644 4.88068e-19)
(9.72188 1.41048 -9.25187e-19)
(10.4312 1.41718 -1.65906e-20)
(11.1022 1.43285 8.83893e-19)
(11.6751 1.47247 -1.26943e-18)
(12.1419 1.5034 -4.35642e-19)
(12.4973 1.54163 8.31507e-19)
(12.7724 1.56904 5.99312e-21)
(12.9766 1.59532 -1.2377e-18)
(13.1301 1.62014 1.6226e-18)
(7.51485 1.37413 0)
(8.35035 1.62662 -1.08469e-18)
(9.18098 1.47819 2.54383e-18)
(9.94663 1.5264 -1.44496e-18)
(10.6197 1.53135 9.2516e-19)
(11.2453 1.54614 1.36563e-18)
(11.7792 1.57484 -4.23883e-19)
(12.2125 1.59689 4.35658e-19)
(12.5453 1.62124 -8.51447e-19)
(12.8023 1.63804 8.41136e-19)
(12.9949 1.65301 4.17365e-19)
(13.1437 1.6662 8.27332e-19)
(7.72617 1.44766 -6.25605e-19)
(8.592 1.66234 -5.80134e-19)
(9.40718 1.55334 -1.57511e-18)
(10.1387 1.60716 1.48585e-18)
(10.7878 1.61247 -4.70661e-19)
(11.3801 1.62868 -4.55973e-19)
(11.8831 1.65153 -4.44735e-19)
(12.2893 1.66821 4.51076e-19)
(12.6024 1.68386 -4.29746e-19)
(12.8434 1.69338 -4.23383e-19)
(13.0255 1.70081 -1.26295e-18)
(13.1674 1.70723 -4.66369e-21)
(7.9139 1.4991 1.23982e-18)
(8.80889 1.68488 1.17538e-18)
(9.60754 1.60961 -1.0992e-18)
(10.3124 1.66481 2.0758e-18)
(10.9415 1.67173 -1.98423e-18)
(11.5069 1.68948 9.50122e-19)
(11.9844 1.70869 0)
(12.3682 1.72178 9.05074e-19)
(12.6644 1.73172 -1.76263e-18)
(12.8915 1.73611 8.61655e-19)
(13.0638 1.7381 0)
(13.1987 1.73925 1.25602e-18)
(8.08669 1.53346 -6.74627e-19)
(9.01008 1.69516 6.20925e-19)
(9.79241 1.64855 0)
(10.4749 1.7036 0)
(11.0855 1.71334 5.19072e-19)
(11.6276 1.73271 4.97771e-19)
(12.0832 1.74969 -9.51096e-19)
(12.4478 1.76034 1.38423e-18)
(12.7291 1.76639 4.54184e-19)
(12.9443 1.76693 0)
(13.1082 1.76447 4.35616e-19)
(13.2379 1.76136 0)
(8.24123 1.55405 -1.36319e-18)
(9.19336 1.69574 1.25587e-18)
(9.9619 1.6731 5.74804e-19)
(10.6262 1.7271 5.61916e-19)
(11.2202 1.74018 -2.61918e-18)
(11.7422 1.76108 5.09676e-19)
(12.1787 1.77685 0)
(12.5269 1.786 -4.65756e-19)
(12.7952 1.78951 4.64866e-19)
(13.0001 1.78741 2.74887e-21)
(13.1566 1.78199 -8.70965e-19)
(13.2799 1.77628 8.59052e-19)
(8.37873 1.56381 1.40273e-18)
(9.35924 1.68907 -1.2913e-18)
(10.1164 1.68647 5.90205e-19)
(10.766 1.73876 -1.69078e-18)
(11.3454 1.7551 2.15657e-18)
(11.8501 1.77724 -2.06495e-18)
(12.2702 1.79243 9.94127e-19)
(12.6043 1.8007 0)
(12.8615 1.80263 4.72847e-19)
(13.0574 1.79883 0)
(13.2073 1.79136 9.01334e-19)
(13.3252 1.78319 -4.37028e-19)
(8.50236 1.56506 1.44243e-18)
(9.51036 1.67687 0)
(10.258 1.69106 6.23323e-19)
(10.8953 1.74123 5.8815e-19)
(11.4617 1.76048 5.58716e-19)
(11.9515 1.7835 5.34408e-19)
(12.3574 1.79843 0)
(12.6793 1.80623 0)
(12.9269 1.8072 -1.4274e-18)
(13.1153 1.8023 2.33108e-18)
(13.2593 1.79356 -9.02412e-19)
(13.3721 1.78522 -1.3397e-18)
(8.61487 1.55961 1.47181e-18)
(9.64924 1.66032 -2.01501e-18)
(10.3888 1.6885 1.89452e-18)
(11.0154 1.73633 -1.77376e-18)
(11.57 1.75807 -5.56737e-19)
(12.0466 1.78164 -5.33089e-19)
(12.4402 1.79647 1.03617e-18)
(12.7516 1.80402 -1.0042e-18)
(12.9909 1.80445 -1.46317e-18)
(13.1727 1.79891 -4.67502e-19)
(13.3118 1.78904 1.85656e-18)
(13.4197 1.77933 -8.93859e-19)
(8.71795 1.54861 -1.50779e-18)
(9.7776 1.64006 -2.05042e-18)
(10.5103 1.67992 -3.18169e-19)
(11.1275 1.72533 1.21245e-18)
(11.6712 1.74915 8.56964e-19)
(12.1362 1.77301 -2.20042e-18)
(12.5189 1.78782 2.11567e-18)
(12.8211 1.79525 -3.87026e-21)
(13.053 1.79547 -1.49105e-18)
(13.2292 1.78981 9.65993e-19)
(13.3635 1.77978 -4.66342e-19)
(13.4667 1.76922 9.05421e-19)
(8.81278 1.53302 -1.14863e-18)
(9.89659 1.6167 -3.5364e-19)
(10.6235 1.66624 3.22629e-19)
(11.2322 1.7092 0)
(11.766 1.73472 2.89693e-19)
(12.2206 1.75864 -2.82785e-19)
(12.5935 1.77345 0)
(12.8876 1.78083 0)
(13.1131 1.78099 2.5419e-19)
(13.2839 1.7754 0)
(13.4131 1.76578 0)
(13.5105 1.75534 -9.15834e-19)
(8.90031 1.51356 -3.86957e-19)
(10.0074 1.59065 3.5199e-19)
(10.7294 1.64819 0)
(11.3303 1.68873 0)
(11.855 1.71556 1.18766e-18)
(12.3001 1.73936 -8.60666e-19)
(12.6645 1.7541 1.09238e-18)
(12.9513 1.76139 -1.06077e-18)
(13.1711 1.76135 7.67923e-19)
(13.3375 1.7553 -5.68444e-21)
(13.4632 1.74482 -1.93853e-18)
(13.5579 1.73718 1.17936e-18)
(8.98131 1.49081 -1.59015e-18)
(10.1107 1.56222 0)
(10.8287 1.62635 1.34317e-18)
(11.4225 1.66452 -1.59648e-18)
(11.9387 1.69235 0)
(12.3753 1.71586 2.91882e-19)
(12.7319 1.73053 1.10943e-18)
(13.0124 1.73777 -2.4198e-18)
(13.2272 1.73786 2.08209e-18)
(13.3897 1.73215 -1.01451e-18)
(13.5123 1.7217 9.81296e-19)
(13.6039 1.70847 -1.19477e-18)
(9.05644 1.46525 3.48064e-21)
(10.2073 1.53171 7.35642e-19)
(10.9221 1.60124 0)
(11.5093 1.63709 3.19721e-19)
(12.0175 1.66562 0)
(12.4463 1.68876 8.79715e-19)
(12.7959 1.70333 -7.8086e-21)
(13.0707 1.71054 -8.23988e-19)
(13.2811 1.71074 0)
(13.4399 1.70536 -2.58312e-19)
(13.5592 1.69537 2.51266e-19)
(13.648 1.68078 0)
(9.12629 1.43728 4.02395e-19)
(10.2977 1.49935 -1.1195e-18)
(11.0099 1.57323 1.03882e-18)
(11.591 1.60683 -4.57242e-21)
(12.0919 1.63582 3.09111e-19)
(12.5135 1.65848 -2.9782e-19)
(12.8567 1.67293 0)
(13.1264 1.68008 0)
(13.3329 1.68038 1.06752e-18)
(13.4885 1.6752 -7.85965e-19)
(13.6046 1.66573 -5.05985e-19)
(13.6901 1.65215 -2.45544e-19)
(9.19122 1.40716 4.11458e-19)
(10.3826 1.46524 3.72747e-19)
(11.0927 1.54264 -3.47706e-19)
(11.6681 1.57407 6.59443e-19)
(12.1621 1.60329 -1.57333e-18)
(12.5772 1.62542 3.06277e-19)
(12.9146 1.63971 0)
(13.1796 1.64683 5.58377e-19)
(13.3825 1.64724 -5.45103e-19)
(13.5353 1.64228 -7.90416e-19)
(13.6489 1.63323 2.58661e-19)
(13.7321 1.62086 7.4378e-19)
(9.25168 1.37518 0)
(10.4623 1.42959 0)
(11.1709 1.50976 0)
(11.741 1.53908 3.37053e-19)
(12.2284 1.56837 0)
(12.6374 1.58991 6.08632e-19)
(12.9695 1.604 -8.86147e-19)
(13.2304 1.61108 0)
(13.43 1.61169 -5.47655e-19)
(13.5803 1.60706 5.3276e-19)
(13.6917 1.59844 0)
(13.7731 1.58635 0)
(9.30802 1.34156 2.12262e-18)
(10.5372 1.3925 -1.53822e-18)
(11.2448 1.47481 7.18576e-19)
(11.8098 1.50211 -1.0105e-18)
(12.2912 1.5313 1.29023e-18)
(12.6945 1.55221 -9.25304e-19)
(13.0217 1.56608 8.92921e-19)
(13.2787 1.57311 2.83134e-19)
(13.4754 1.57392 -1.11311e-18)
(13.6232 1.5697 8.11228e-19)
(13.7325 1.56171 0)
(13.8119 1.54928 0)
(9.36049 1.30647 -1.71739e-18)
(10.6077 1.35408 0)
(11.3147 1.43802 0)
(11.8748 1.46334 -6.8126e-19)
(12.3505 1.49228 6.5459e-19)
(12.7486 1.51252 -9.32885e-19)
(13.0713 1.52612 5.11037e-21)
(13.3247 1.53308 8.72432e-19)
(13.5187 1.53403 5.60499e-19)
(13.6642 1.53009 -5.48977e-19)
(13.7713 1.5226 -2.67091e-19)
(13.8486 1.50988 0)
(9.40926 1.2701 -1.29996e-18)
(10.674 1.31446 1.18169e-18)
(11.3807 1.39955 0)
(11.9364 1.42294 -6.87768e-19)
(12.4066 1.45151 9.92265e-19)
(12.7998 1.47105 0)
(13.1183 1.48433 0)
(13.3685 1.49115 2.95269e-19)
(13.5601 1.49215 5.66483e-19)
(13.7036 1.48831 -5.54975e-19)
(13.8092 1.48098 5.3709e-19)
(13.8853 1.47006 0)
(9.45479 1.23247 -4.26354e-21)
(10.7365 1.27359 -1.18801e-18)
(11.4432 1.35952 0)
(11.9946 1.38105 1.04426e-18)
(12.4598 1.40917 -9.98056e-19)
(12.8483 1.42796 3.20482e-19)
(13.163 1.44091 3.08624e-19)
(13.4103 1.44759 -8.8581e-19)
(13.5996 1.4487 5.77502e-19)
(13.7415 1.44515 -2.80492e-19)
(13.8457 1.43822 2.68464e-21)
(13.9207 1.42848 0)
(9.49662 1.19365 -8.79875e-19)
(10.7951 1.23161 8.01713e-19)
(11.5023 1.31812 0)
(12.0497 1.33781 -3.49575e-19)
(12.5101 1.3654 0)
(12.8943 1.38344 -3.20089e-19)
(13.2055 1.39604 3.08928e-21)
(13.45 1.40259 3.00992e-19)
(13.6373 1.40379 -2.91652e-19)
(13.7776 1.40047 -2.69138e-21)
(13.8806 1.39373 -2.53442e-21)
(13.9547 1.38522 -1.07126e-18)
(9.5354 1.15414 -4.4806e-19)
(10.8502 1.18894 -8.02068e-19)
(11.5582 1.27554 7.51779e-19)
(12.1019 1.29338 3.55941e-19)
(12.5577 1.32036 0)
(12.9378 1.33763 3.26044e-19)
(13.2457 1.34987 -6.25399e-19)
(13.4877 1.35626 -5.99024e-19)
(13.6731 1.35755 8.80398e-19)
(13.8121 1.35448 -2.57913e-21)
(13.914 1.34798 -2.47194e-21)
(13.9872 1.33991 2.68968e-19)
(9.57167 1.1137 4.4298e-19)
(10.9021 1.14524 -8.14571e-19)
(11.611 1.23177 -3.79423e-19)
(12.1513 1.24784 -3.553e-19)
(12.6027 1.27416 -3.42381e-19)
(12.979 1.29066 3.25774e-19)
(13.2838 1.30251 -1.26448e-18)
(13.5235 1.30873 2.91984e-21)
(13.7072 1.31009 0)
(13.8449 1.30725 8.57364e-19)
(13.9461 1.30099 -2.8312e-19)
(14.0189 1.2939 -2.71765e-19)
(9.605 1.07241 -4.55016e-19)
(10.9508 1.10066 0)
(11.661 1.18696 3.15231e-21)
(12.198 1.20127 3.61128e-19)
(12.6453 1.22688 6.86764e-19)
(13.018 1.24261 3.254e-19)
(13.3198 1.25406 -1.27449e-18)
(13.5574 1.26012 3.12005e-19)
(13.7396 1.26159 8.98385e-19)
(13.8762 1.25909 0)
(13.9765 1.2532 0)
(14.0489 1.24599 0)
(9.63536 1.03026 1.82574e-18)
(10.9964 1.05521 -8.19847e-19)
(11.7082 1.14118 7.71365e-19)
(12.242 1.15377 -3.60543e-19)
(12.6854 1.17863 6.97389e-19)
(13.0547 1.19357 9.92243e-19)
(13.3539 1.20461 -9.62415e-19)
(13.5894 1.2105 5.93571e-21)
(13.7702 1.21202 1.20433e-18)
(13.9057 1.20977 -8.7975e-19)
(14.0052 1.20439 2.84963e-19)
(14.0768 1.19799 -5.44868e-19)
(9.66309 0.98763 -4.57812e-19)
(11.0391 1.00924 -4.15258e-19)
(11.7526 1.09459 -3.84051e-19)
(12.2837 1.1054 -7.25708e-19)
(12.7233 1.12948 -3.40769e-19)
(13.0894 1.14363 3.36311e-19)
(13.386 1.15423 3.18455e-19)
(13.6197 1.15993 -9.35488e-19)
(13.7992 1.16147 3.06901e-19)
(13.9338 1.15936 5.88297e-19)
(14.0327 1.15415 -2.85073e-19)
(14.1035 1.14933 -2.79686e-19)
(9.68829 0.944421 -9.20684e-19)
(11.0789 0.962674 1.66948e-18)
(11.7945 1.04724 0)
(12.3229 1.05625 0)
(12.7591 1.07951 0)
(13.122 1.09285 6.73411e-19)
(13.4162 1.10302 6.49788e-19)
(13.6482 1.10853 -3.13275e-19)
(13.8265 1.11011 3.06028e-19)
(13.9604 1.10823 2.05207e-21)
(14.0588 1.10325 -5.73538e-19)
(14.1292 1.09874 5.60791e-19)
(9.71135 0.900928 9.31202e-19)
(11.1164 0.915625 -2.072e-19)
(11.8339 0.999064 -1.95757e-19)
(12.3598 1.00635 0)
(12.7927 1.02879 0)
(13.1527 1.04131 -3.3766e-19)
(13.4446 1.05105 3.25005e-19)
(13.6751 1.05637 -6.36115e-19)
(13.8523 1.05799 3.05066e-19)
(13.9855 1.05632 -8.97213e-19)
(14.0834 1.05162 0)
(14.1536 1.04766 -2.81507e-19)
(9.73176 0.856938 -1.86889e-18)
(11.1511 0.867904 6.36721e-19)
(11.8709 0.9501 1.95547e-19)
(12.3945 0.955735 -5.52482e-19)
(12.8242 0.977356 7.11991e-19)
(13.1814 0.989079 0)
(13.4713 0.998388 6.54877e-19)
(13.7003 1.00351 -6.40174e-19)
(13.8765 1.00516 0)
(14.009 1.00374 0)
(14.1065 0.999399 0)
(14.1763 0.994876 5.60415e-19)
(9.74983 0.812943 0)
(11.183 0.820046 0)
(11.9054 0.900574 -3.92711e-19)
(12.427 0.904511 1.6969e-21)
(12.8537 0.925296 0)
(13.2083 0.936223 -6.82243e-19)
(13.4962 0.945089 1.48971e-18)
(13.7238 0.949994 -4.83378e-19)
(13.8992 0.951628 -6.18818e-19)
(14.0312 0.95035 1.57702e-19)
(14.1282 0.946275 6.05036e-21)
(14.1976 0.942045 5.77286e-19)
(9.76585 0.768541 4.71181e-19)
(11.2127 0.771544 -2.1434e-19)
(11.9377 0.850426 1.98746e-19)
(12.4574 0.852752 -1.8624e-19)
(12.8812 0.872676 8.95813e-19)
(13.2333 0.882801 -1.734e-19)
(13.5194 0.891219 -4.97093e-19)
(13.7458 0.895913 -3.1906e-19)
(13.9204 0.897558 3.14361e-19)
(14.0519 0.896483 -3.04089e-19)
(14.1487 0.892793 1.48344e-19)
(14.2178 0.888587 -1.4153e-19)
(9.77982 0.723711 7.12111e-19)
(11.2398 0.722522 -6.42908e-19)
(11.9677 0.799744 -1.98603e-19)
(12.4857 0.800451 1.88622e-19)
(12.9068 0.819533 -5.37666e-19)
(13.2565 0.828867 5.19825e-19)
(13.5408 0.836841 -3.22524e-21)
(13.7661 0.84134 -1.64029e-19)
(13.94 0.843022 -3.1297e-19)
(14.0712 0.842142 4.59942e-19)
(14.1678 0.83879 1.47663e-19)
(14.2369 0.835115 -4.38246e-19)
(9.79126 0.678736 2.39691e-19)
(11.2645 0.67325 0)
(11.9955 0.748617 -2.00512e-19)
(12.5119 0.747679 9.28137e-22)
(12.9305 0.765902 0)
(13.2779 0.774449 1.74355e-19)
(13.5606 0.78199 0)
(13.7848 0.786315 0)
(13.9581 0.78807 0)
(14.0889 0.7875 0)
(14.1853 0.784656 -2.97731e-19)
(14.2546 0.780796 5.80743e-19)
(9.80114 0.633554 -4.8034e-19)
(11.2869 0.623656 0)
(12.0212 0.697058 4.01717e-19)
(12.5362 0.694426 -1.89307e-19)
(12.9523 0.71182 -3.61329e-19)
(13.2975 0.719585 1.76735e-19)
(13.5786 0.726684 -3.36013e-19)
(13.8018 0.7308 3.28834e-19)
(13.9745 0.732566 -3.16164e-19)
(14.1049 0.732213 3.16386e-21)
(14.201 0.72998 1.53788e-19)
(14.2701 0.727306 2.91534e-19)
(9.80881 0.587881 0)
(11.307 0.57349 -2.16945e-19)
(12.0447 0.645017 -2.01229e-19)
(12.5584 0.640702 0)
(12.9723 0.657301 -3.62769e-19)
(13.3155 0.664275 7.01592e-19)
(13.5951 0.670921 -3.40726e-19)
(13.8173 0.674799 0)
(13.9894 0.6765 0)
(14.1195 0.676147 -1.55532e-19)
(14.2154 0.673943 -1.50781e-19)
(14.2837 0.673949 0)
(9.8144 0.542234 4.81899e-19)
(11.3249 0.523329 -4.21893e-21)
(12.0661 0.59266 -2.93522e-21)
(12.5788 0.586559 -3.37301e-21)
(12.9905 0.602398 -5.50577e-19)
(13.3317 0.608582 0)
(13.6099 0.614758 0)
(13.8313 0.618386 0)
(14.0031 0.620018 0)
(14.1331 0.619632 1.55609e-19)
(14.2294 0.616877 -1.49788e-19)
(14.2987 0.618735 2.94546e-21)
(9.81819 0.496137 -6.05496e-19)
(11.3406 0.472695 6.56e-19)
(12.0855 0.539916 4.04405e-19)
(12.5972 0.53201 -3.85395e-19)
(13.0069 0.547161 9.12526e-20)
(13.3463 0.552564 0)
(13.6232 0.558307 3.40022e-19)
(13.8439 0.561733 -3.31007e-21)
(14.0153 0.563462 -3.23537e-19)
(14.1452 0.563592 0)
(14.2414 0.561597 -2.28528e-19)
(14.3105 0.558213 0)
(9.82002 0.449938 2.05229e-21)
(11.3542 0.42195 4.39741e-19)
(12.1028 0.486856 1.02049e-19)
(12.6137 0.477131 2.86851e-19)
(13.0216 0.491653 -2.77863e-19)
(13.3592 0.496262 0)
(13.635 0.501559 3.41212e-19)
(13.8549 0.50475 -3.32623e-21)
(14.0259 0.506411 -2.43853e-19)
(14.1557 0.50659 0)
(14.2518 0.504976 1.53046e-19)
(14.3212 0.505104 0)
(9.82053 0.403768 1.21355e-21)
(11.3656 0.370932 3.30418e-19)
(12.1181 0.433333 -1.02037e-19)
(12.6284 0.422006 1.92962e-19)
(13.0346 0.435928 0)
(13.3705 0.439697 0)
(13.6451 0.444545 -8.6121e-20)
(13.8644 0.447494 -8.35346e-20)
(14.0352 0.44911 -8.09369e-20)
(14.165 0.449421 -7.89876e-20)
(14.2613 0.448039 -1.5258e-19)
(14.3309 0.448523 1.4892e-19)
(9.81916 0.357343 -1.22541e-19)
(11.3748 0.319396 -1.09856e-19)
(12.1315 0.379362 2.04011e-19)
(12.6413 0.36665 -4.83665e-19)
(13.0459 0.379988 1.85915e-19)
(13.3803 0.3829 0)
(13.6538 0.387298 8.61351e-20)
(13.8725 0.390004 8.35577e-20)
(14.0431 0.391596 -1.61807e-19)
(14.1729 0.392028 2.38138e-19)
(14.2694 0.390794 1.53536e-19)
(14.3392 0.391358 -1.51191e-19)
(9.81607 0.311186 0)
(11.3817 0.268006 0)
(12.1428 0.325055 1.02872e-19)
(12.6524 0.311036 0)
(13.0556 0.323907 -9.29016e-20)
(13.3884 0.325888 8.94936e-20)
(13.6609 0.329841 1.72127e-19)
(13.8791 0.332308 -2.52664e-19)
(14.0495 0.333879 0)
(14.1794 0.334495 -7.9482e-20)
(14.276 0.333639 7.66136e-20)
(14.3461 0.333478 -2.25085e-19)
(9.8114 0.264833 6.17452e-20)
(11.3865 0.216226 2.20472e-19)
(12.1519 0.270463 -3.09401e-19)
(12.6618 0.255324 0)
(13.0637 0.267643 4.63487e-20)
(13.395 0.268647 8.88502e-20)
(13.6666 0.272188 -3.46808e-19)
(13.8843 0.27441 4.20551e-19)
(14.0546 0.275933 -1.64417e-19)
(14.1846 0.276629 1.19377e-19)
(14.2814 0.275988 0)
(14.3518 0.275651 7.57731e-20)
(9.80493 0.218593 -6.17654e-20)
(11.3895 0.164382 0)
(12.159 0.215799 -5.1065e-20)
(12.6694 0.199685 9.78629e-20)
(13.0702 0.211185 1.39311e-19)
(13.4 0.211133 -9.02202e-20)
(13.6707 0.214361 -4.34817e-20)
(13.888 0.216363 4.21998e-20)
(14.0582 0.217872 8.15703e-20)
(14.1883 0.218789 -1.20118e-19)
(14.2854 0.218787 -3.8911e-20)
(14.3564 0.217489 -3.75875e-20)
(9.79685 0.172418 -9.22894e-20)
(11.3906 0.112334 1.39275e-19)
(12.1642 0.161146 -7.74908e-20)
(12.6753 0.144057 1.21563e-19)
(13.0747 0.154371 -2.10039e-19)
(13.4035 0.153437 1.79918e-19)
(13.6734 0.156446 -6.57712e-20)
(13.8903 0.158164 4.18632e-20)
(14.0604 0.159602 -1.64351e-19)
(14.1907 0.160525 6.04129e-20)
(14.288 0.160715 3.89404e-20)
(14.359 0.159572 3.81129e-20)
(9.78728 0.126579 -9.27748e-20)
(11.3898 0.0600914 2.80818e-20)
(12.1675 0.106477 2.58581e-20)
(12.6795 0.0882701 -2.4405e-20)
(13.0776 0.097294 -2.31641e-20)
(13.4054 0.095851 4.52476e-20)
(13.6745 0.0983827 2.17819e-20)
(13.8911 0.0998352 0)
(14.0613 0.10125 0)
(14.1918 0.102325 2.00238e-20)
(14.2895 0.103052 0)
(14.3611 0.102132 0)
(9.77626 0.0808072 -1.55433e-20)
(11.3872 0.00762545 1.38724e-20)
(12.1693 0.0517694 7.13594e-22)
(12.6818 0.0324026 -1.2664e-20)
(13.079 0.0400721 0)
(13.4059 0.0381978 0)
(13.6742 0.0402144 1.15366e-20)
(13.8905 0.0414029 -2.1178e-20)
(14.0607 0.0427779 1.03526e-20)
(14.1915 0.0439041 6.27124e-22)
(14.2895 0.0447915 0)
(14.3614 0.0444163 0)
(9.7634 0.035218 4.67018e-20)
(11.3826 -0.0449271 2.77744e-20)
(12.1692 -0.00308796 -1.38505e-20)
(12.6824 -0.0235067 3.82241e-22)
(13.0789 -0.0171703 -1.17061e-20)
(13.4047 -0.0195455 1.12792e-20)
(13.6725 -0.0180481 -1.16022e-20)
(13.8885 -0.017093 -3.16881e-20)
(14.0587 -0.0157567 -1.00991e-20)
(14.1898 -0.0144726 9.51256e-21)
(14.2882 -0.0130852 -9.78205e-21)
(14.3606 -0.012887 0)
(9.74902 -0.0100915 4.64533e-20)
(11.3762 -0.0972599 -8.37578e-20)
(12.1673 -0.0579123 1.31308e-20)
(12.6813 -0.0794813 -2.42775e-20)
(13.0772 -0.07443 3.5551e-20)
(13.4021 -0.0773297 3.4061e-20)
(13.6692 -0.076366 1.09187e-20)
(13.8851 -0.0756703 1.06003e-20)
(14.0554 -0.0744377 1.03113e-20)
(14.1867 -0.0732067 3.01299e-20)
(14.2854 -0.0718796 -9.78998e-21)
(14.3574 -0.0707886 5.72811e-20)
(9.73323 -0.0553327 -6.17923e-20)
(11.3677 -0.149571 -8.28385e-20)
(12.1637 -0.11272 1.30182e-19)
(12.6786 -0.135495 -2.44984e-20)
(13.074 -0.131685 -1.16693e-19)
(13.398 -0.135137 1.80538e-19)
(13.6646 -0.134694 -4.41205e-20)
(13.8803 -0.134267 0)
(14.0508 -0.133157 4.12735e-20)
(14.1826 -0.131969 -2.00919e-20)
(14.282 -0.130915 1.95765e-20)
(14.3552 -0.128448 -1.91326e-20)
(9.71566 -0.100413 -1.255e-19)
(11.3576 -0.201755 -5.53096e-22)
(12.1583 -0.167497 0)
(12.6742 -0.191519 -9.76272e-20)
(13.0692 -0.188882 9.41367e-20)
(13.3924 -0.192899 0)
(13.6585 -0.192963 -2.74563e-24)
(13.8741 -0.192763 0)
(14.0449 -0.191675 -4.12759e-20)
(14.1772 -0.190223 0)
(14.2773 -0.188816 0)
(14.3518 -0.186002 -7.505e-20)
(9.69658 -0.14506 6.24918e-20)
(11.3456 -0.253576 5.52282e-20)
(12.1511 -0.222183 -4.15614e-19)
(12.6681 -0.247502 3.92296e-19)
(13.0628 -0.24602 -1.88257e-19)
(13.3854 -0.250611 0)
(13.651 -0.251158 -4.36999e-20)
(13.8665 -0.251187 0)
(14.0376 -0.250161 0)
(14.1703 -0.248595 0)
(14.2709 -0.24705 0)
(14.3457 -0.244395 -1.50767e-19)
(9.67616 -0.189459 1.24972e-19)
(11.3319 -0.30525 2.23488e-19)
(12.1421 -0.276815 0)
(12.6604 -0.303425 2.933e-19)
(13.0549 -0.30307 -9.45426e-20)
(13.3769 -0.308257 0)
(13.6421 -0.309287 -8.65285e-20)
(13.8575 -0.309567 8.65013e-20)
(14.0288 -0.308632 1.65889e-19)
(14.1619 -0.306964 2.40264e-19)
(14.2631 -0.305036 -1.57453e-19)
(14.3384 -0.302821 7.54013e-20)
(9.65442 -0.233581 -5.00159e-19)
(11.3163 -0.356709 -1.11789e-19)
(12.1313 -0.331351 1.03933e-19)
(12.651 -0.359266 -8.28288e-23)
(13.0455 -0.360013 -9.36953e-20)
(13.3668 -0.365815 9.01484e-20)
(13.6317 -0.367336 8.64123e-20)
(13.8472 -0.367881 -2.55206e-19)
(14.0188 -0.36707 0)
(14.1524 -0.365436 -2.40172e-19)
(14.2541 -0.36343 3.13075e-19)
(14.3297 -0.361246 -3.06048e-19)
(9.63093 -0.277741 2.50087e-19)
(11.299 -0.408203 2.22797e-19)
(12.1188 -0.385749 -2.08635e-19)
(12.6401 -0.414998 -9.80422e-20)
(13.0345 -0.416838 1.86334e-19)
(13.3553 -0.423256 -9.18814e-20)
(13.6199 -0.42525 -8.81425e-20)
(13.8354 -0.426051 8.46584e-20)
(14.0074 -0.425344 0)
(14.1416 -0.423629 0)
(14.2439 -0.421237 0)
(14.3202 -0.418845 7.76276e-22)
(9.60593 -0.321277 -2.50024e-19)
(11.2797 -0.45913 0)
(12.1045 -0.439958 -1.43128e-22)
(12.6274 -0.470587 0)
(13.0219 -0.473507 9.3455e-20)
(13.3424 -0.480531 -3.58456e-19)
(13.6067 -0.482996 2.63105e-19)
(13.8223 -0.484055 -8.46824e-20)
(13.9947 -0.483464 0)
(14.1296 -0.481835 -3.19137e-19)
(14.2328 -0.479786 3.14244e-19)
(14.3098 -0.477538 -7.67011e-20)
(9.57958 -0.364844 -3.74841e-19)
(11.2587 -0.51006 2.23021e-19)
(12.0885 -0.493963 -3.11375e-19)
(12.613 -0.52599 1.95523e-19)
(13.0078 -0.529993 -2.8017e-19)
(13.3279 -0.537638 0)
(13.5921 -0.540541 0)
(13.8078 -0.541809 3.36407e-19)
(13.9806 -0.541203 -4.94984e-19)
(14.1161 -0.539187 -1.58723e-19)
(14.2203 -0.536218 1.57925e-19)
(14.2997 -0.534589 0)
(9.55145 -0.40801 0)
(11.2359 -0.560595 -1.30487e-21)
(12.0707 -0.54773 -2.08542e-19)
(12.5971 -0.581202 -1.65788e-21)
(12.9922 -0.58627 -1.88091e-19)
(13.312 -0.594533 5.36991e-19)
(13.5759 -0.597889 -3.49393e-19)
(13.7918 -0.599396 1.67278e-19)
(13.965 -0.598882 -1.65776e-19)
(14.101 -0.596858 1.5818e-19)
(14.2057 -0.593628 -1.57381e-19)
(14.2855 -0.590143 2.99415e-19)
(9.52214 -0.450802 7.48448e-19)
(11.2116 -0.61076 2.23013e-19)
(12.0512 -0.601239 0)
(12.5795 -0.636201 3.90498e-19)
(12.975 -0.642355 3.71e-19)
(13.2946 -0.651254 -1.8295e-19)
(13.5584 -0.655079 -3.48831e-19)
(13.7744 -0.656858 3.66478e-22)
(13.948 -0.656479 0)
(14.0846 -0.65453 0)
(14.19 -0.651223 0)
(14.2699 -0.647008 0)
(9.49153 -0.493369 -7.48276e-19)
(11.1853 -0.660742 -2.2224e-19)
(12.0299 -0.654582 0)
(12.5603 -0.691001 -1.95217e-19)
(12.9562 -0.698237 -1.85819e-19)
(13.2757 -0.707782 -1.77545e-19)
(13.5394 -0.712082 3.39052e-21)
(13.7556 -0.714154 8.41193e-19)
(13.9297 -0.713929 -3.29013e-19)
(14.0671 -0.712069 0)
(14.1733 -0.709047 3.09e-19)
(14.2538 -0.705052 -3.04354e-19)
(9.45914 -0.53572 -2.4941e-19)
(11.1573 -0.710479 1.30741e-21)
(12.0068 -0.707641 2.08188e-19)
(12.5394 -0.745569 0)
(12.936 -0.75387 1.70584e-21)
(13.2554 -0.764058 3.5857e-19)
(13.5191 -0.768832 -3.44085e-19)
(13.7355 -0.771182 5.05006e-19)
(13.9101 -0.771063 0)
(14.0483 -0.769097 0)
(14.1554 -0.765695 0)
(14.2371 -0.761905 4.47317e-19)
(9.42517 -0.577595 -9.94687e-19)
(11.1274 -0.759709 -6.64504e-19)
(11.982 -0.760325 6.20438e-19)
(12.5169 -0.799827 0)
(12.9142 -0.80922 -3.70695e-19)
(13.2336 -0.820058 -1.78543e-19)
(13.4973 -0.825294 0)
(13.714 -0.827927 3.3277e-19)
(13.8893 -0.82796 -3.27568e-19)
(14.0282 -0.826079 0)
(14.1362 -0.822829 0)
(14.2185 -0.818406 -1.50998e-19)
(9.3898 -0.619146 9.90737e-19)
(11.096 -0.808588 -2.23881e-19)
(11.9554 -0.812673 -2.044e-19)
(12.4927 -0.853761 1.95999e-19)
(12.8908 -0.86425 1.85242e-19)
(13.2104 -0.875735 -5.31592e-19)
(13.4742 -0.881435 3.45829e-19)
(13.6912 -0.884342 -3.34056e-19)
(13.867 -0.884489 -3.23389e-19)
(14.0068 -0.882511 3.1828e-19)
(14.1158 -0.878972 0)
(14.1995 -0.874459 -1.48597e-19)
(9.35295 -0.6602 4.92424e-19)
(11.0627 -0.856956 -6.65412e-19)
(11.9271 -0.864644 -2.058e-19)
(12.4669 -0.907355 1.1576e-18)
(12.8659 -0.918947 -7.41204e-19)
(13.1856 -0.931082 1.77712e-19)
(13.4496 -0.937242 6.83057e-19)
(13.667 -0.940426 -5.02769e-19)
(13.8434 -0.940697 1.61796e-19)
(13.984 -0.938737 0)
(14.094 -0.935252 0)
(14.1786 -0.930931 1.49795e-19)
(9.31509 -0.70084 -9.22231e-22)
(11.0277 -0.904857 0)
(11.897 -0.916275 6.11622e-19)
(12.4394 -0.960611 -9.69009e-19)
(12.8394 -0.973285 -7.32683e-19)
(13.1594 -0.98609 7.10974e-19)
(13.4235 -0.992696 5.10272e-19)
(13.6413 -0.996129 -8.33546e-19)
(13.8184 -0.996528 -1.6188e-19)
(13.9599 -0.994448 -7.83356e-19)
(14.0708 -0.990473 4.63731e-19)
(14.157 -0.986732 0)
(9.27518 -0.741381 -2.47249e-19)
(10.9909 -0.95269 0)
(11.8651 -0.967564 1.01903e-18)
(12.4102 -1.01351 -1.54009e-18)
(12.8113 -1.02729 3.70917e-19)
(13.1317 -1.04073 -3.52042e-19)
(13.3961 -1.0478 1.70907e-19)
(13.6143 -1.0515 4.94336e-19)
(13.792 -1.05207 -6.4753e-19)
(13.9343 -1.05011 1.57179e-19)
(14.0463 -1.04618 4.56273e-19)
(14.133 -1.04325 -5.97608e-19)
(9.23356 -0.781041 4.91147e-19)
(10.9522 -0.999628 4.37769e-19)
(11.8315 -1.01829 8.12039e-19)
(12.3793 -1.06594 -1.53602e-18)
(12.7817 -1.08086 1.10161e-18)
(13.1025 -1.09497 -3.47516e-19)
(13.3671 -1.1025 3.44023e-19)
(13.5858 -1.10649 3.30649e-19)
(13.7643 -1.10716 0)
(13.9076 -1.10515 0)
(14.0206 -1.10064 -3.00991e-19)
(14.1087 -1.09786 6.31125e-21)
(9.19101 -0.820286 -2.2674e-21)
(10.912 -1.04606 -2.00869e-21)
(11.796 -1.06856 0)
(12.3468 -1.11796 -3.80306e-19)
(12.7505 -1.13404 1.09617e-18)
(13.0718 -1.14881 -3.49591e-19)
(13.3368 -1.1568 -6.72558e-19)
(13.5559 -1.1611 3.32823e-19)
(13.7352 -1.1619 3.17219e-19)
(13.8793 -1.16 -9.36953e-19)
(13.9934 -1.15544 0)
(14.082 -1.1535 -2.95299e-19)
(9.14697 -0.859109 -2.3885e-21)
(10.8699 -1.09202 4.32283e-19)
(11.7589 -1.11843 -4.08696e-19)
(12.3126 -1.16952 -1.14203e-18)
(12.7177 -1.18678 -3.5769e-19)
(13.0396 -1.20224 1.39951e-18)
(13.305 -1.21068 1.64916e-21)
(13.5246 -1.21526 1.59967e-21)
(13.7046 -1.21617 3.19271e-19)
(13.8498 -1.21424 3.11025e-19)
(13.9649 -1.20912 0)
(14.0554 -1.20593 8.7428e-19)
(9.10148 -0.897573 -4.8908e-19)
(10.8263 -1.13759 -4.33358e-19)
(11.7199 -1.16776 -4.04901e-19)
(12.2767 -1.22063 -3.77835e-19)
(12.6833 -1.23907 7.27153e-19)
(13.0058 -1.25525 -1.04074e-18)
(13.2717 -1.26415 3.43459e-19)
(13.4919 -1.26903 6.57084e-19)
(13.6727 -1.27012 0)
(13.8187 -1.26837 3.06518e-19)
(13.9349 -1.26353 -1.20381e-18)
(14.0255 -1.26053 5.91444e-19)
(9.05413 -0.935461 4.83465e-19)
(10.7805 -1.18262 -4.35829e-19)
(11.6792 -1.21668 -1.20219e-18)
(12.2391 -1.27128 3.46331e-21)
(12.6474 -1.29088 0)
(12.9707 -1.30775 -3.45352e-19)
(13.237 -1.31716 -3.33722e-19)
(13.4579 -1.32236 3.25543e-19)
(13.6395 -1.32365 0)
(13.7866 -1.32199 3.08384e-19)
(13.904 -1.3173 5.96382e-19)
(13.9962 -1.3139 -6.40341e-21)
(9.00505 -0.972541 4.85979e-19)
(10.7331 -1.22672 0)
(11.6364 -1.26483 8.00477e-19)
(12.1997 -1.3213 -3.79606e-19)
(12.6097 -1.34215 -3.58112e-19)
(12.9339 -1.35973 1.03222e-18)
(13.2009 -1.36963 -9.98448e-19)
(13.4224 -1.37514 9.71838e-19)
(13.6049 -1.37659 0)
(13.7531 -1.3749 -3.03829e-19)
(13.8718 -1.36997 8.97e-19)
(13.9655 -1.36628 2.88686e-19)
(8.95511 -1.00904 -9.65063e-19)
(10.6841 -1.27019 4.28198e-19)
(11.5921 -1.31241 -3.565e-21)
(12.1587 -1.37081 -7.54247e-19)
(12.5706 -1.3929 7.14876e-19)
(12.8957 -1.41118 0)
(13.1633 -1.42159 -3.30468e-19)
(13.3856 -1.42742 -3.22477e-19)
(13.569 -1.42907 0)
(13.7183 -1.42752 3.00431e-19)
(13.8382 -1.42282 -8.94045e-19)
(13.9331 -1.4193 -2.90032e-19)
(8.9039 -1.04516 0)
(10.6332 -1.31322 2.70803e-21)
(11.5459 -1.3595 1.18988e-18)
(12.116 -1.41976 -6.59813e-21)
(12.5298 -1.44312 -1.78009e-18)
(12.8559 -1.4621 1.36591e-18)
(13.1243 -1.47299 -1.31732e-18)
(13.3473 -1.47913 6.42989e-19)
(13.5316 -1.48093 0)
(13.682 -1.47932 0)
(13.8033 -1.47424 -2.932e-19)
(13.9004 -1.47051 5.72129e-19)
(8.85075 -1.08066 0)
(10.5805 -1.35557 2.84707e-21)
(11.4979 -1.40598 -1.18142e-18)
(12.0715 -1.46811 7.47622e-19)
(12.4874 -1.49271 0)
(12.8146 -1.51246 6.76333e-19)
(13.0837 -1.52383 -3.30168e-19)
(13.3076 -1.53028 0)
(13.4929 -1.53231 -6.15595e-19)
(13.6444 -1.53091 6.05624e-19)
(13.767 -1.5262 -2.9452e-19)
(13.865 -1.52285 0)
(8.79594 -1.11557 9.52998e-19)
(10.5262 -1.39733 4.25177e-19)
(11.448 -1.45172 7.87008e-19)
(12.0252 -1.51581 0)
(12.4433 -1.54169 7.01214e-19)
(12.7717 -1.56219 -3.43178e-19)
(13.0417 -1.57407 -6.55761e-19)
(13.2664 -1.58085 0)
(13.4528 -1.58305 3.06472e-19)
(13.6056 -1.58161 0)
(13.7296 -1.57658 0)
(13.8297 -1.57271 0)
(8.73946 -1.14963 4.71881e-19)
(10.4697 -1.43824 -8.47195e-19)
(11.3962 -1.49678 -3.92936e-19)
(11.9772 -1.56285 0)
(12.3975 -1.59003 6.97493e-19)
(12.7273 -1.6113 -3.38007e-19)
(12.9982 -1.62367 -6.45523e-19)
(13.2238 -1.63078 9.45436e-19)
(13.4112 -1.63318 -9.15087e-19)
(13.5653 -1.63191 8.95037e-19)
(13.6907 -1.62723 -8.66162e-19)
(13.7918 -1.62389 6.33343e-21)
(8.68164 -1.18287 1.88316e-18)
(10.4115 -1.47815 -4.24765e-19)
(11.3426 -1.54105 0)
(11.9273 -1.60915 1.09417e-18)
(12.3501 -1.63772 -6.27067e-21)
(12.6813 -1.65974 -6.7137e-19)
(12.9532 -1.67262 -3.21126e-19)
(13.1798 -1.68006 -2.38968e-21)
(13.3682 -1.68257 6.04478e-19)
(13.5236 -1.68123 -5.9689e-19)
(13.6506 -1.67606 1.14963e-18)
(13.7542 -1.67255 -1.11418e-18)
(8.62254 -1.21555 -9.38485e-19)
(10.3517 -1.51737 -4.18746e-19)
(11.287 -1.58459 -3.8555e-19)
(11.8757 -1.65473 -2.90775e-21)
(12.301 -1.68469 -3.44958e-19)
(12.6337 -1.7075 -6.6101e-19)
(12.9066 -1.72091 6.463e-19)
(13.1342 -1.72872 -2.47968e-21)
(13.3238 -1.73146 0)
(13.4803 -1.73028 -8.79532e-19)
(13.6085 -1.72506 5.7324e-19)
(13.7129 -1.72082 0)
(8.56185 -1.24756 4.7272e-19)
(10.2899 -1.5559 8.32994e-19)
(11.2297 -1.62737 1.15269e-18)
(11.8222 -1.69957 -1.0908e-18)
(12.2502 -1.73094 -3.39633e-19)
(12.5844 -1.75458 9.91263e-19)
(12.8586 -1.76858 3.19491e-19)
(13.0872 -1.77675 -3.09645e-19)
(13.2779 -1.7798 -1.19271e-18)
(13.4358 -1.77897 1.1729e-18)
(13.5654 -1.77433 -2.85331e-19)
(13.6708 -1.77011 -1.10781e-18)
(8.49944 -1.27881 -9.23914e-19)
(10.2263 -1.59362 1.64962e-18)
(11.1704 -1.66939 -3.86459e-19)
(11.767 -1.74366 3.58015e-19)
(12.1977 -1.77647 3.40398e-19)
(12.5337 -1.80091 -2.84099e-21)
(12.8091 -1.81549 9.434e-19)
(13.0388 -1.82402 -1.23091e-18)
(13.2308 -1.82733 0)
(13.3902 -1.82663 2.88372e-19)
(13.5217 -1.82223 0)
(13.6293 -1.81835 2.7455e-19)
(8.43534 -1.30922 -1.83653e-18)
(10.1608 -1.6304 1.64515e-18)
(11.1092 -1.71053 -3.81613e-19)
(11.7099 -1.78691 -3.58816e-19)