/*--------------------------------*- C++ -*----------------------------------*\
| =========                 |                                                 |
| \\      /  F ield         | OpenFOAM: The Open Source CFD Toolbox           |
|  \\    /   O peration     | Version:  2.3.1                                 |
|   \\  /    A nd           | Web:      www.OpenFOAM.org                      |
|    \\/     M anipulation  |                                                 |
\*---------------------------------------------------------------------------*/
FoamFile
{
    version     2.0;
    format      ascii;
    class       volSymmTensorField;
    location    "1480";
    object      sigma;
}
// * * * * * * * * * * * * * * * * * * * * * * * * * * * * * * * * * * * * * //

dimensions      [1 -1 -2 0 0 0 0];

internalField   nonuniform List<symmTensor> 
11800
(
(86258.4 58488.4 4.20509e-14 -2193.62 2.23192e-14 20858.2)
(-45605.7 56199.9 6.45515e-14 -2791.75 2.05246e-14 -12008.4)
(372987 66723.8 -9.92467e-16 942.142 -4.75117e-14 92779.4)
(-328097 41888.5 0 2118.13 0 -80881.9)
(-46767.7 53974.4 1.20448e-14 -7207.07 -3.41011e-14 -13392.2)
(-206630 70933.6 4.71294e-14 3045.83 2.47696e-14 -50513.4)
(-37989.6 69319.1 8.84319e-14 -739.417 -2.30362e-14 -9609.45)
(-52873.4 69144.6 -1.32033e-14 1441.6 5.32511e-14 -12761.3)
(118445 48883.2 1.83659e-14 382.477 -1.26111e-14 29483.5)
(77157.5 72415.8 -4.59418e-14 1662.35 -3.87783e-14 19556.8)
(99958.1 51228.8 -3.50817e-14 -63.5375 3.00887e-14 24785.9)
(-475881 33108.1 -4.24849e-14 -3810.24 -1.93272e-14 -119021)
(15188.6 -22094.9 8.24266e-17 -40992.6 6.40502e-17 -6402.49)
(346216 41842 3.86338e-14 2670.21 -1.06156e-14 86565.8)
(-279875 66213 -3.19794e-14 6890.4 2.49206e-14 -67733)
(1.38327e+06 3021.91 0 -3425.38 0 342369)
(-25058.4 58123.8 2.99247e-14 1688.08 2.64609e-15 -5798.66)
(-38196 52923.1 -1.69288e-14 4098.12 9.74889e-14 -8460.36)
(80180.2 88470.5 -1.80181e-14 -11908.5 1.28712e-14 16939.6)
(58356 49316.7 -6.11542e-14 -5081.99 -1.98103e-14 13218.4)
(-259361 46580.5 1.89604e-14 1285.43 1.99022e-14 -64033.7)
(-415593 62463.8 3.03887e-14 1865.84 -1.77019e-14 -102654)
(-602102 86625.6 -1.6172e-14 7691.92 1.05049e-14 -147485)
(-552768 57130 1.67472e-16 265.973 2.84206e-15 -137087)
(1.12047e+06 60622.4 1.85253e-15 -4947.73 2.32396e-14 276785)
(-709988 84873.9 -1.58252e-14 4491.01 -4.77707e-16 -175048)
(-697079 44850.2 0 5688.22 0 -171548)
(341354 36046.2 -4.99149e-14 -5437.77 -3.01964e-14 83347.6)
(-768973 46631.4 -9.03415e-15 6901.29 -4.27722e-14 -189085)
(-844228 47887.3 1.1835e-14 6754.72 -1.8557e-14 -207794)
(229586 39488.2 -6.1749e-14 -1233.63 -1.10893e-13 56658.9)
(45100.3 57920.5 -1.05933e-14 1699.34 -8.88417e-15 11611.9)
(712192 80592.2 -2.53073e-15 8131.97 -1.13403e-14 178727)
(-19515 64669.8 8.08113e-15 -371.006 -6.05974e-14 -4934.12)
(12372.1 66685.9 -2.13492e-14 4121.85 -9.18642e-14 4092.49)
(-226556 31864.5 -5.60725e-14 3735.48 -4.07877e-14 -55286.4)
(12805.1 66696.4 7.58453e-14 2766.24 -9.04074e-14 3863.57)
(763620 54081.2 -9.28659e-15 3856.14 -4.07202e-14 190426)
(-26834.4 63032.5 0 -3696.21 0 -7575.25)
(55795.1 58530.9 -2.64967e-14 3368.43 4.94377e-14 14679.7)
(-732549 37057.4 -4.76785e-14 -3274.42 -2.22295e-14 -182573)
(-807829 37818.4 3.42583e-14 -3236.43 -1.97119e-14 -201242)
(358038 45590.1 -1.92041e-14 -3207.27 -6.42123e-14 88040.7)
(-887127 39344.2 -6.73266e-15 -5127.48 -3.52418e-14 -221386)
(240945 46821.1 1.64186e-13 2128.46 -5.13295e-14 60311.3)
(1.29087e+06 40395.5 0 -4990.32 0 319053)
(567592 92331 -1.0238e-14 -2600.28 5.4173e-15 140186)
(678484 44538.3 -1.79902e-14 -7281.41 -1.26212e-14 166539)
(-60386.4 64413.8 -6.51069e-14 -1655.85 -4.02e-14 -15393.9)
(137685 60594.8 0 1800.11 0 34609.2)
(-489999 35987.4 -3.10813e-15 2470.37 3.3565e-14 -120966)
(-345858 35695.5 1.09265e-13 4979.62 1.28331e-14 -84578.8)
(-7210.89 66027.9 6.11565e-14 -725.183 3.81712e-14 -1969.1)
(24201.5 103205 -1.43866e-15 5272.97 1.25795e-14 7313.22)
(-1.48387e+06 6907.07 -2.27116e-15 -7824.72 -3.39438e-15 -370120)
(1.2208e+06 -40910.7 2.91785e-15 -56269.2 5.362e-15 288943)
(-41076.6 23875.4 5.27041e-14 1720.56 1.96e-14 -9765.04)
(-311944 69675.8 3.95325e-15 -3045.17 -3.32287e-14 -78155.3)
(247102 49527.6 -3.3547e-14 5206.15 4.91806e-14 62602.9)
(-223679 70838.5 2.77137e-14 -5509.78 -5.00421e-15 -56866.4)
(1.24722e+06 26946.3 -2.57819e-14 -9400.98 -8.95206e-15 307128)
(-30449.4 68558.7 2.58802e-14 404.71 -4.22197e-14 -7454.69)
(-246726 59633.4 -1.51682e-14 -2601.4 2.61721e-14 -61863.1)
(193562 59879.6 4.57491e-14 658.836 -2.61476e-14 48190)
(1.10884e+06 19546.8 2.86781e-15 858.969 -1.67786e-14 275339)
(-157776 33510.5 -7.41046e-14 2585.81 -8.97085e-14 -38505.8)
(-506716 20729.1 5.23676e-14 1925.93 1.75042e-14 -125249)
(-361590 22992 1.44096e-15 4145.84 -9.17512e-14 -88689.2)
(-42109.9 25671.6 0 -2325.76 0 -11025.4)
(-662132 53980 -1.15356e-15 6208.29 4.17039e-14 -162748)
(-16604.3 67939.9 -1.48406e-14 514.74 3.07043e-14 -3992.16)
(-32716.5 55344.2 -5.71783e-14 -3123.65 6.4102e-14 -8892.66)
(-29178 53645.3 4.01035e-14 -3892.12 -2.45906e-14 -8205.37)
(-1.04034e+06 244333 -3.72945e-15 140019 3.47171e-15 -223388)
(1.23413e+06 56985 -9.10285e-16 -4972.93 -1.03891e-14 304979)
(-213373 43098.3 -5.50838e-14 6614.49 -4.01172e-14 -51300.9)
(1.14974e+06 18343.9 -2.12584e-14 3016.19 1.89246e-14 286023)
(-153983 24499.8 4.87209e-14 944.38 -1.60122e-13 -37972.1)
(-114526 41859.8 9.1578e-15 3547.05 -8.75854e-15 -27536.1)
(-110393 50188.1 9.34722e-14 3607.61 9.39309e-14 -26495.5)
(-1.49981e+06 -23381.9 8.09955e-15 5136.13 3.68395e-14 -370860)
(60200.5 47340.7 0 5776.8 0 16370.3)
(35162.8 55549.3 -9.72041e-14 364.764 -3.83808e-14 8815.12)
(24040.3 59131.8 3.3699e-14 2627.77 -2.69327e-16 6616.89)
(-48830.6 52295.8 2.3316e-14 -5006.51 6.6107e-14 -13358.1)
(-819133 58401.4 -1.30676e-14 -4866.16 6.74326e-14 -204451)
(245080 44733.1 7.84953e-14 2359.57 -2.44671e-14 61394.9)
(-744769 54182.3 0 -3613.7 0 -185689)
(-675792 52700.6 -2.77231e-14 -3373.71 -2.83853e-14 -168515)
(357628 41759.9 3.6035e-14 3343.72 2.19305e-15 89564.4)
(-8364.99 64322.9 -1.26698e-13 -2057.35 -8.14307e-14 -2585.99)
(844099 75200.9 0 -2672.35 0 208775)
(-67815 58029.2 -2.68782e-14 1769.21 -4.46548e-14 -16387.3)
(47947.1 21511.1 -1.55208e-14 3493.65 -2.2551e-14 12763.5)
(97519.3 54172.6 1.19746e-13 -175.334 2.13978e-15 24153)
(35159.7 -26533.2 -5.2474e-16 -74725.5 -3.88988e-16 -9817.06)
(-1859.66 7270.13 1.36169e-17 4363.3 -8.0984e-17 621.205)
(-35366.1 -26269.7 -3.30934e-16 74272.7 2.20506e-16 9653.52)
(-8308.84 65777.6 -3.93914e-14 -1296.13 -5.76786e-16 -2383.19)
(-413743 43353.3 -9.71449e-15 -1915.14 3.90637e-14 -103133)
(33131 37120.8 2.16577e-14 -367.614 -6.07157e-14 8129.25)
(447290 47979.4 -4.71397e-14 -4787.87 -6.54708e-14 109794)
(-799093 82539.4 3.33058e-15 1060.88 6.76969e-15 -198008)
(-267588 64986.6 -2.04422e-15 4560.62 6.51052e-15 -65262.5)
(956.72 69464.5 -6.08231e-15 -343.357 -3.03139e-14 152.188)
(200573 79052.6 -1.30824e-14 1896.11 -2.27781e-14 50236.6)
(-91273.9 55827.3 -3.73609e-14 773.515 8.25748e-14 -22455)
(-64375.5 59491.8 -1.26259e-13 -623.947 -6.10094e-14 -16127.7)
(1.21453e+06 24137.5 7.46697e-15 2669.67 1.58731e-14 302013)
(742641 49008 1.1878e-14 2077.88 2.40751e-15 184780)
(818024 51085.8 2.27932e-14 2888.44 3.20012e-14 203685)
(674840 46852.7 8.26787e-14 2960.8 4.90931e-14 168176)
(-249550 45454.3 3.68073e-14 -4231.42 5.75565e-14 -62968.4)
(-364125 43118.2 -9.74539e-14 -3555.59 3.50686e-14 -91229)
(128264 51393.2 4.20912e-14 300.31 -2.21111e-14 31899.5)
(1.09467e+06 36345.8 1.13628e-14 -128.935 6.74992e-15 271579)
(150012 29042.6 -3.03149e-14 -3367.45 -1.1928e-13 36385.4)
(-45589.1 62208.9 -1.05003e-13 1580.24 9.83963e-14 -10919.5)
(1.02485e+06 61219.7 -1.31889e-14 230.785 1.64713e-14 254343)
(-81370.9 74787.7 -3.45028e-14 861.842 -9.30349e-15 -19975.9)
(-136843 45026.4 -2.44237e-14 1273.49 -1.03432e-14 -33637.6)
(39200.6 69492.6 7.52496e-14 -3287.01 -1.07911e-13 8910.88)
(54771.1 70122.6 -5.26128e-14 -954.433 3.62405e-14 13353)
(-38282.4 58330.3 -1.52746e-14 -383.117 -2.25682e-14 -9593.7)
(-70835.5 55403.5 -9.56137e-14 736.609 -7.47509e-14 -17393)
(-2469.02 65506.1 -9.18908e-14 -2539.11 -6.9302e-14 -1242.62)
(-23652.3 65343.5 -5.50988e-14 -4530.88 6.06579e-14 -6992.81)
(-3893.79 65289.1 -3.60248e-14 -1257.38 -3.44022e-14 -1278.11)
(6491.88 50125.9 1.71996e-15 29865.7 7.70055e-14 9021.05)
(-28070.6 12636.4 -2.91676e-16 -6428.62 3.66954e-14 -8559.95)
(-1.3374e+06 -210628 1.20453e-14 57497.8 -6.17229e-15 -317569)
(-931547 59629 8.5277e-15 -6948.14 -1.29564e-15 -232860)
(268860 40337.2 4.15525e-14 4291.04 -4.05831e-14 67774.4)
(-813123 58464.9 -3.30311e-14 2675.55 2.08111e-14 -201089)
(381992 36640.4 -1.88231e-14 5345.21 5.6906e-14 96106.3)
(-736687 53566.3 1.25903e-14 2976.36 1.26423e-14 -182049)
(-668081 51361.8 -7.17459e-14 2954.42 5.49703e-14 -165031)
(223547 52741.1 4.06319e-14 -952.626 1.13535e-13 55230.1)
(-696842 32789.5 4.50222e-14 6239.57 -6.23236e-14 -171353)
(320284 52658.7 5.06416e-14 -549.535 -4.03761e-14 79332.7)
(-632231 30456 3.70122e-14 5163.84 -6.41694e-14 -155588)
(-573681 30735.7 -3.84157e-14 5236.46 -3.46108e-14 -141043)
(-340283 73106.8 2.9721e-15 9298.62 2.96891e-14 -82124)
(96465.1 60292.1 -2.0272e-14 -5264.94 -1.35493e-13 22628.6)
(136460 56198.1 -3.25045e-14 -4859.33 -9.42036e-14 32652.9)
(-202309 54891.1 -9.84091e-15 6775.45 5.7073e-14 -48515.9)
(810900 35291.7 -6.25359e-14 890.582 -2.10699e-14 201422)
(-845405 -2785.1 6.02691e-14 -7549.56 1.87101e-14 -211635)
(470289 38849.2 4.23204e-14 -3080.04 -3.94466e-14 115924)
(-265245 46151.9 9.87246e-16 4677.26 5.88921e-15 -64652.1)
(-116817 58518.4 -5.26046e-14 3231.5 -4.35469e-14 -28182.9)
(-122152 51753.5 4.5022e-14 -250.758 -4.08152e-14 -30370.7)
(11879.8 65667.1 3.42254e-14 2239.2 6.26542e-14 3503.22)
(-172193 44690.1 -7.69872e-14 1872.85 7.99795e-14 -42259.8)
(140272 50682.8 -4.04463e-14 -4227.95 -4.2828e-14 33755.3)
(94088.8 60262.5 -3.70013e-14 950.144 2.85802e-14 23581.1)
(-309160 47279.4 6.26874e-14 5979.62 -4.22729e-14 -75225.1)
(-428840 50703.4 2.29468e-14 1827.31 5.01521e-14 -105950)
(910054 26321.9 1.46592e-14 1332.17 -2.21985e-16 226133)
(-3607.52 67746.6 1.79657e-14 543.759 -8.75792e-14 -760.181)
(1.37997e+06 61033.7 -1.74376e-14 -9599.02 -9.54047e-15 340017)
(-142005 52807.6 -6.64993e-14 1746.44 4.59057e-14 -34801)
(1.15406e+06 40690.4 0 -13094.6 0 283096)
(-320113 53494.5 2.00739e-14 -1760.21 8.35959e-14 -79863.3)
(-352586 54732.2 -2.05705e-14 -2581.84 2.45054e-14 -88124.3)
(-387685 58220.6 -3.22621e-15 -2854.89 8.93393e-14 -96900.8)
(170605 56734 -4.9444e-14 309.445 1.21908e-14 42407.5)
(115767 60699.5 -5.26104e-14 -614.662 1.30196e-14 28571.5)
(-1.52434e+06 -3719.6 1.39e-14 -6928.99 -7.96538e-15 -379939)
(-902340 58063.2 -1.38403e-14 -5052.44 2.63723e-14 -225143)
(300760 44067.8 -5.25486e-14 3836.78 -3.08085e-14 75576.7)
(412317 39924.4 1.4831e-13 2558.13 -7.98473e-14 102939)
(49205.2 62930.1 2.88917e-14 -5942.6 -7.48439e-14 10734.3)
(-252897 32188.6 0 1819.01 0 -62297.4)
(-258467 22263.8 7.89773e-14 1049.1 -4.02096e-14 -63870.7)
(1.28114e+06 43004.6 2.23076e-14 -9584.59 1.4932e-14 315499)
(1.31399e+06 476.992 1.84492e-14 9019.33 1.64097e-14 328266)
(658648 28634.8 9.68688e-16 80.2813 3.84502e-14 163444)
(598855 28156.9 7.49129e-15 1198.92 9.26879e-14 148886)
(725086 28070.4 2.00619e-14 -670.417 -2.89686e-14 179742)
(-306952 53364.2 -4.77147e-14 2961.63 4.30136e-14 -75426.3)
(-207231 53822 -4.622e-14 1236.24 5.07952e-14 -51111.4)
(132403 68399.5 0 1352.13 0 33187.5)
(88472 70928.5 -1.94855e-15 926.876 7.36215e-14 22181.7)
(289329 55338.5 -5.73311e-14 -592.428 4.69462e-14 71641.4)
(-124194 53042.7 -4.58186e-14 972.734 1.08961e-13 -30573.8)
(-207283 80005.2 -9.37139e-15 1923.87 4.1727e-14 -50953.8)
(59877.1 59752.1 -1.68378e-13 -856.036 -4.47705e-14 14644.3)
(84096.1 54670.4 -1.16839e-13 -78.2876 4.89815e-14 20846.5)
(-56611.3 65247.2 -2.26871e-14 1680.21 -3.16636e-16 -13629.5)
(-154945 52079.1 -1.93792e-14 2877.47 -1.21502e-14 -37731.1)
(-140378 50153.3 1.27117e-14 1948.04 -2.17816e-14 -34347.3)
(-143857 41000.3 0 -889.445 0 -35914.5)
(-73975.8 83756.6 2.80717e-16 -3496.77 -2.62419e-14 -19222.5)
(-617684 10563.3 5.55337e-14 -5886.61 -2.4325e-14 -154721)
(780262 40214.2 -7.28998e-14 -3257.46 -7.25541e-15 192791)
(1.08394e+06 132050 4.59662e-15 -198141 2.34178e-15 219784)
(-26054.3 60365.8 1.50327e-14 -1923.75 -3.41435e-14 -6941.93)
(157163 25328.3 5.48431e-14 875.104 -1.25421e-13 39212.5)
(-1.36838e+06 -159217 1.15332e-14 116460 -7.65563e-15 -310628)
(72632.7 49467.7 2.34907e-15 3535.43 6.37693e-14 18898.9)
(193073 34265 4.4307e-14 2677.29 -5.09277e-14 48569.5)
(212483 36569.7 6.18582e-14 -3594.34 -2.61355e-14 51829.5)
(-2882.89 68017.7 4.6564e-14 14.7255 -6.92173e-15 -711.649)
(-3475.84 69656.9 4.91205e-14 -533.676 4.16333e-15 -994.842)
(565255 31227.3 1.58292e-14 -4787.22 5.32345e-14 139063)
(467834 65820.4 2.03192e-14 1635.86 -4.91868e-15 116485)
(-423679 55330 0 2650.83 0 -104466)
(-363140 36686.4 -5.1194e-14 -6719.12 -3.20819e-14 -91769.5)
(1.32819e+06 -212255 -4.82452e-15 -58959.8 -3.34114e-15 314921)
(-388671 89769.7 -4.21912e-15 10129.5 5.02546e-14 -93923.9)
(-629893 42681.8 2.96684e-14 -2327.92 -1.76276e-14 -156867)
(-1.39021e+06 -558726 -1.30473e-14 297487 5.14003e-15 -271128)
(1.5825e+06 4615.1 0 21888.3 0 398081)
(-1.21801e+06 -518191 -4.24879e-15 141382 1.32195e-15 -267132)
(200198 92575.5 -2.83191e-14 201.519 1.00908e-14 49723.2)
(-45456.6 57117.2 -4.75187e-15 -2922.05 6.65506e-14 -12003.7)
(-574158 67968 2.44596e-14 -4388.92 -2.70568e-14 -143549)
(-517929 64971 3.6284e-14 -3301.51 -4.51675e-15 -129328)
(-470149 62584.9 -4.11327e-14 -3120.34 1.57418e-15 -117428)
(167914 51117.5 3.5274e-14 2814.45 -9.85499e-14 42361.3)
(247013 47087 -8.87284e-14 3043.01 8.63786e-14 62044)
(24964.2 57730.2 -1.39158e-14 -5779.99 6.54262e-14 4759.98)
(34566.1 52729.7 3.3038e-14 -6785.98 4.23975e-14 6892.81)
(-88667.3 85611.4 -3.92956e-14 12809.2 1.06801e-14 -18821.9)
(-51754.9 51232.9 2.83726e-14 9244.58 -3.63696e-14 -10547.7)
(-764391 -307777 -3.29717e-15 -18812 6.88437e-16 -194329)
(127056 85593.4 -2.21557e-14 9631.39 -7.9159e-14 33915)
(-62367.9 52459.8 -7.38688e-14 -5683.44 -3.38351e-14 -16884.9)
(-292197 74147.7 0 260.153 0 -72435.4)
(127214 55427.7 5.89858e-14 1018.69 -2.42102e-14 31817.1)
(-61570 66123 0 -16.3007 0 -15280.8)
(-48374 58446.8 -3.57553e-14 222.701 -5.67463e-14 -11947.3)
(430465 54911.9 5.0788e-14 2946.59 -5.31218e-14 107538)
(442735 39691.3 7.75016e-14 -661.847 3.70694e-14 109687)
(1.38245e+06 -555770 -4.86219e-15 -296426 -1.6162e-15 269466)
(760320 -306447 5.69216e-15 18696.4 1.56279e-15 193290)
(-143783 44616 1.09014e-14 776.619 1.55411e-14 -35482.9)
(-154207 46429.6 -3.31094e-14 -2071.95 -6.78445e-14 -38775.9)
(-777295 10226.8 -3.70626e-14 -4168.04 -8.54608e-15 -193897)
(623570 40348.5 8.3325e-14 -3387.6 -2.18542e-14 153880)
(206851 55336.9 2.68327e-15 -1122.64 1.50397e-13 51045.4)
(305311 55879.7 5.10582e-14 -2274.73 5.56465e-14 75189.4)
(-733374 29330 -1.2802e-15 -1688.68 3.29627e-14 -182384)
(-668636 29570.1 -3.31202e-14 -122.925 1.0962e-14 -165933)
(-606854 30276.6 -2.06387e-15 -340.33 5.12922e-14 -150657)
(-8488.38 68744.6 -7.75148e-14 -1117.65 2.24663e-14 -2383.45)
(-809473 29642.7 2.19434e-14 -2072.31 2.36447e-14 -201361)
(255341 53380.3 -5.2325e-14 -1349.35 2.57158e-14 63020.6)
(352767 53581.2 0 -2862.41 0 86818.3)
(334919 45709.9 2.00629e-14 -2178.4 4.81411e-14 82559.8)
(65890.6 56680.7 -6.54894e-14 2565.41 -1.73491e-13 16985.3)
(4496.18 62821.2 -5.74112e-14 -6822.35 -2.11669e-14 -577.168)
(298471 44686.9 -7.74196e-14 10048 1.40729e-14 76549.7)
(-239506 45988.9 -6.38873e-15 -1023.6 -5.14739e-14 -59680.3)
(37209.6 69241.7 8.92396e-16 -8997.23 1.15226e-14 7000.06)
(1.21096e+06 -515982 -4.40475e-15 -141276 -1.11209e-15 265410)
(165355 60392.1 5.34542e-15 -2703.04 -9.76361e-14 40357.2)
(200163 59665.9 4.53535e-14 -681.496 1.54512e-14 49495.5)
(-134564 59956.3 0 1537.71 0 -33006.6)
(-159575 65288.7 1.67817e-14 -3213.1 -4.68508e-14 -40391.2)
(464628 61710.8 0 5586.25 0 116670)
(511911 65002.1 3.02504e-14 4797.39 2.88292e-14 128206)
(562550 69062.3 -6.83661e-14 4688.27 -6.55405e-15 140743)
(-250133 44594.9 9.36554e-14 -3983.66 9.52629e-14 -63051.6)
(-172334 49158.5 4.90088e-15 -3010.33 -5.6893e-14 -43506.6)
(-11108 67328.7 5.52082e-14 1742.35 2.94548e-14 -2323.8)
(1.22268e+06 22329.2 -9.09297e-15 -18777.6 -1.70632e-14 298713)
(-8663.59 69250 -5.98176e-14 -4153.8 1.86657e-14 -3180.25)
(11383.8 47503.9 -5.91134e-14 7170.04 -3.69566e-14 4603.58)
(24796.6 64775 4.29075e-14 374.877 -9.97933e-14 6245.55)
(262103 59413.9 4.61919e-14 -1004.39 4.89439e-14 64783.9)
(-111379 11772.1 -7.60119e-14 -2808.18 3.7429e-15 -28332.2)
(344049 66528.3 0 -2170.23 0 84827)
(1.30411e+06 -40394.9 2.12726e-16 -193495 8.59311e-17 275565)
(269604 21571 4.38448e-14 3443.15 9.98688e-14 67748.5)
(257494 29469.5 1.98787e-14 -4398.85 1.08451e-14 62798.1)
(-377626 54701.7 6.57867e-15 3940.65 1.3877e-14 -92718.9)
(-269504 53496.7 -5.09569e-14 2234.19 1.63368e-14 -66315.1)
(-322403 40124.7 -1.04554e-13 539.299 -1.83425e-14 -79860.8)
(-231457 43741.4 5.25694e-15 -1251.11 -5.5398e-15 -57739.6)
(840038 27144.2 -3.85955e-15 -1812.76 1.25785e-14 207981)
(693429 73363.6 1.67319e-15 333.718 -2.5995e-14 172137)
(188873 63765.2 9.26245e-15 -1450.89 5.4875e-15 46503.1)
(254950 55683 1.73666e-14 752.851 2.96385e-14 63445.1)
(138828 64008.2 4.81804e-14 -3627.45 3.43941e-14 33546)
(188546 55760.3 4.32235e-14 -3579.6 -6.85442e-15 45894)
(-382743 48294.7 -8.23728e-15 3112.9 2.08268e-14 -94193.9)
(-501019 65366.7 -2.29224e-14 366.028 4.11879e-15 -124222)
(-121019 96198.2 2.57976e-14 -678.906 1.853e-14 -30195.8)
(849839 49803.4 2.89396e-14 3572.92 2.09151e-14 211749)
(922533 50811.1 -6.30754e-15 15007.5 3.16134e-15 232623)
(1.1017e+06 50121.7 5.10992e-15 -2324.37 3.24267e-15 272778)
(71868.8 62318.6 -9.36142e-14 2779.4 1.13873e-13 18521.7)
(-266296 22906.3 -5.80429e-14 -1396.93 -2.98733e-14 -66420.1)
(-255695 31349.4 -7.36322e-14 5621.78 4.93203e-14 -62048.1)
(1.25408e+06 3489.4 0 10428.8 0 313751)
(1.25502e+06 47619.8 0 885.789 0 311615)
(699006 39283.4 1.13206e-14 -2077.39 5.48455e-14 172922)
(695982 15792.7 3.70319e-14 3474.94 -1.03374e-13 173549)
(-729550 15843.3 0 -6602.16 0 -182654)
(-709946 38167.9 0 5076.13 0 -174893)
(21702 63331.8 -1.28979e-14 3395.67 3.7019e-14 6227.23)
(-57034.5 35871.7 1.38126e-13 -4467.34 -5.85752e-14 -15259.9)
(-203034 30762.1 -3.64089e-14 -3265.49 -1.34526e-14 -51187.2)
(1.69852e+06 5225.28 0 34927.2 0 430104)
(-30558.9 58345.7 -9.10483e-14 -5083.98 -2.29318e-15 -8843.72)
(-34395.2 61131.3 -1.31141e-14 -5752.85 -7.31005e-14 -9961.56)
(167472 67038.5 -4.72153e-14 -3220.48 -3.24111e-14 40754)
(-135004 67872.3 -9.86102e-14 -2991.4 4.13735e-14 -34239.5)
(160593 47275.3 2.8907e-14 -5979.56 -2.99474e-14 38362.6)
(-622154 37912.9 2.02791e-14 -4849.77 -4.15404e-14 -155572)
(621085 40149.7 -8.31811e-15 -5760.18 -5.08341e-14 152674)
(-1.12463e+06 59101.4 8.93634e-15 -6752.34 -3.919e-14 -280720)
(-1.41728e+06 -118320 4.98227e-15 277245 -3.684e-15 -282865)
(478032 84396 -7.85031e-15 -9970.64 9.85967e-15 116135)
(47160.1 72286.6 -4.94059e-15 -2938.11 2.78039e-14 10972.4)
(-587600 60773.1 -2.48747e-14 -4654.27 -6.93387e-14 -146950)
(489020 29486.4 -3.20541e-14 4066.61 4.62069e-14 122345)
(-346354 41619.9 3.5591e-14 -6762.4 4.56741e-14 -87615.3)
(264386 58902.3 5.2893e-14 3025.33 9.09813e-16 66350.3)
(47158.3 70658.7 1.4639e-14 1281.62 6.86648e-16 12018.9)
(87019.1 58643.1 -6.19202e-14 -1376.24 7.79328e-14 21249.7)
(-176768 53078.3 4.37456e-14 -11291.6 -4.66569e-14 -46661.4)
(-284084 87712.3 7.83224e-16 4094.87 5.87541e-14 -69471)
(-160210 51647.8 6.68049e-15 -10790.3 -4.68653e-14 -42428.7)
(-257862 83286.3 4.2423e-14 3061.49 -1.553e-14 -63221.2)
(61981.7 48675.7 -2.71838e-14 -2135.03 8.49651e-15 14849.2)
(-28831.4 70250.1 -6.98426e-16 2008.95 -5.1439e-14 -6655.2)
(-18934 71579.1 6.34755e-14 1423.16 5.10066e-14 -4344.79)
(-13392.3 68466.6 3.26339e-14 -110.939 -7.12128e-14 -3350.44)
(913007 39505 2.00009e-14 1771.2 3.08551e-15 226975)
(-9710.38 72035.8 -7.23298e-14 -4221.06 -3.22129e-14 -3456.67)
(-36321.7 59910.9 3.54356e-14 -7076.56 -1.18905e-13 -10768)
(1.30706e+06 -24981.1 -1.00131e-14 -69009.4 -7.45434e-15 307186)
(193170 47355.8 3.78811e-14 -4449.99 -4.86489e-14 46825.2)
(-469365 77576.8 2.62135e-14 8314.08 7.12079e-15 -114396)
(-512633 47123.1 -4.1636e-14 1720.86 -1.82525e-14 -126768)
(-510397 28019.8 0 -4739.52 0 -127816)
(643089 20976.9 -3.76838e-14 5257.91 -1.7935e-14 160868)
(614157 54141.4 2.15826e-15 7163.75 4.50226e-14 154162)
(-22948.8 51393.8 -4.19302e-14 2278.44 3.42486e-14 -5128.74)
(-17447.5 51657.4 3.04323e-14 1931.68 -1.70415e-13 -3849.78)
(-435719 83885.1 -1.75773e-14 4031.79 -4.47474e-16 -107110)
(-585539 64264.2 0 6744.13 0 -143611)
(419029 49516.6 9.68465e-15 4510.66 2.42916e-14 105089)
(-1.0965e+06 75225.4 4.21766e-15 -3531.05 -1.36431e-14 -272939)
(32345.5 52481.9 0 6832.4 0 9720.83)
(572378 42196.5 -2.11269e-15 342.774 1.43932e-14 142104)
(432296 81176.1 -1.11679e-15 5887.63 5.5863e-17 108722)
(-261651 63010.4 7.83134e-14 5396.34 -1.00777e-14 -63581.9)
(-203868 47661.6 -7.622e-15 2279.59 5.52821e-14 -50018.1)
(-186175 61157.4 1.20534e-14 2939.14 -4.59705e-14 -45464.5)
(-144442 49789.6 -6.81414e-16 -36.9007 2.70109e-15 -35848.2)
(-217678 35059.5 2.81997e-14 2290.51 4.17047e-14 -53442)
(-181839 39388.6 -4.93265e-14 6235.09 9.95156e-15 -43570.8)
(-218063 74161.5 0 1565.87 0 -53717.3)
(-248275 78179.5 -2.54696e-14 443.547 2.21969e-14 -61492)
(-273957 83033.4 -2.09692e-15 889.879 -2.39718e-15 -67753.5)
(71412.6 53202.7 -1.21387e-13 1569.76 -6.07774e-14 18108.4)
(-14928.3 65394 -2.69368e-14 -2448.71 5.37326e-14 -4311.59)
(512360 33910.4 -1.54789e-14 3717.35 4.38784e-14 128049)
(535589 43506.7 2.13885e-14 -4454.3 -4.14482e-14 131785)
(90528.8 58616.1 4.37515e-15 -1897.57 -3.03459e-14 21991.2)
(129350 52016.9 0 1319.36 0 32421.6)
(-304710 82379 3.24922e-14 -2788.44 -3.59079e-14 -76296.7)
(260139 56005.1 -6.20318e-14 3664.28 -7.43668e-16 65454.9)
(283997 74724 -2.71475e-14 4326.97 -1.66666e-15 71538.9)
(-99469 59678.6 -4.99385e-14 -2863 7.17183e-14 -25390.6)
(-83757.7 61367.4 2.91531e-14 -2551.5 1.7193e-15 -21415.1)
(-124297 63917.9 4.74016e-14 1236.93 1.68888e-14 -30533.8)
(-138268 57255.2 0 52.6489 0 -34294.1)
(-632798 42617.9 1.44305e-14 -52.356 -2.21907e-14 -157023)
(271359 57395.6 -2.28444e-14 515.409 -9.08633e-14 67457.7)
(196500 58049 -1.04728e-14 -388.301 -1.49788e-15 48659.4)
(-77284.3 149974 -6.80684e-15 13071.9 -4.98192e-15 -15932.4)
(709049 30514.8 -4.83099e-14 -5868.29 -2.89897e-14 174473)
(-838479 15981.2 4.21999e-14 2281.63 2.5292e-14 -207478)
(-112518 140378 0 -5699.22 0 -29332)
(-103229 60162.6 1.74443e-14 2527.93 5.2757e-14 -24986)
(-88174 62875.9 -1.31213e-13 4183.1 -3.33351e-14 -20839.8)
(-147825 55293.6 5.67283e-14 1195.77 6.3892e-16 -36381.7)
(-127537 59326.9 0 2873.87 0 -30931.5)
(287446 52400.4 3.00008e-14 -1691.13 -4.83448e-14 70901.7)
(330213 67518.4 1.09085e-14 -2548.62 4.63641e-15 81300.2)
(264481 54106.1 -2.21241e-14 -3860.56 2.12276e-14 64665.3)
(309090 67720.5 2.34517e-14 -3128.78 6.53015e-14 75915.1)
(239420 51764.7 1.83361e-14 -2446.75 3.09042e-14 58797.8)
(279756 64210.9 -3.99678e-14 -2363.18 2.28932e-14 68826.8)
(227357 33124 1.77839e-14 1315.5 6.73079e-14 56738.3)
(219453 23724.3 5.23142e-14 4836.51 1.12211e-13 55650.8)
(-464164 70528.9 -1.05848e-14 -165.918 1.40332e-14 -115210)
(198978 61027.8 -5.43081e-14 -3044.29 -1.31279e-15 48615.2)
(-495849 53847 0 3883.69 0 -122067)
(855365 68220.7 3.06042e-14 -7918.56 -1.9314e-14 210269)
(-414701 34567.5 5.47787e-14 1560.02 -9.03335e-14 -102509)
(-305596 37056.1 6.60261e-14 75.7575 -4.44421e-14 -75805.7)
(-1.05004e+06 -496235 -4.05008e-15 170639 9.08697e-16 -218198)
(31259.6 62148.8 7.36467e-14 739.744 -1.93794e-14 7939.68)
(911077 44704.1 -1.02025e-14 -2390.19 -5.0185e-16 225464)
(-423172 46854.4 -1.54235e-14 1173.91 -4.46249e-14 -104706)
(-307723 46210.3 9.57249e-14 459.501 4.71966e-14 -76238.4)
(1.41154e+06 -2149.7 1.68889e-14 -2806.19 7.52776e-15 349535)
(-61319 56315.3 -1.05641e-14 22.4633 4.24579e-14 -15208.9)
(946458 20637.1 2.55676e-14 3143.82 -1.59509e-14 235616)
(-217156 47607.6 3.30584e-14 1670.27 -5.83864e-14 -53466.4)
(-802947 70660.3 2.0839e-14 8397.57 -2.70486e-15 -197144)
(-755228 50026.6 -1.27335e-14 -5185 -9.90833e-16 -188674)
(723118 51349.8 -2.41671e-14 350.237 1.58954e-14 179507)
(-87964.6 61604.6 -1.45489e-13 4039.77 -6.63596e-14 -20823.5)
(-2324.01 -26696.2 1.64684e-16 -41849.3 5.85507e-17 -10960.3)
(-13139 60540.3 0 2997.01 0 -2516.44)
(-1.39247e+06 -442887 6.64339e-15 181056 -1.83866e-15 -300577)
(1.04369e+06 -494139 7.84029e-15 -171380 2.48176e-15 216437)
(-625954 72111 2.65362e-14 -6226.62 -2.58797e-14 -156857)
(207911 48286.8 1.10386e-14 912.399 4.27505e-14 51813.3)
(282256 43235 -3.57665e-14 840.391 8.13729e-14 70241.9)
(87721.1 59720.4 7.1137e-14 -1758.97 2.12287e-14 21328.9)
(-160679 19691.6 4.12415e-14 761.787 -6.35079e-14 -39678.8)
(135594 70835.1 -3.4627e-14 -790.062 3.17327e-14 33447.5)
(-70560.8 50050.3 1.02278e-14 1166.36 1.57117e-14 -17218.2)
(-73017.2 85499.2 7.65122e-15 2870.96 2.23755e-14 -17404.7)
(-1.12915e+06 15318.7 -3.58879e-15 30740.1 8.75243e-15 -272538)
(9341 -15882.7 4.31913e-17 -27736.2 2.68086e-17 -4564.23)
(-352588 69672.6 -1.50776e-16 4178.48 2.92131e-15 -86447.4)
(273302 44624.7 2.58176e-14 -1143 8.03838e-14 67528.2)
(1.18271e+06 -228098 6.85587e-16 -32641.7 9.20921e-16 285356)
(-31690 49439.5 -6.67545e-15 -4435.39 -5.1984e-14 -8963.45)
(-36166.1 72811 5.29803e-15 -1224.94 5.0763e-14 -9277.48)
(-21254.5 64605 -9.07471e-16 1171.35 -7.80294e-14 -4983.04)
(-58686.8 64087.2 -1.483e-14 1574.94 2.03096e-14 -14170.6)
(23382.5 63509.8 2.30464e-14 -672.11 5.96661e-14 5634.9)
(15969.9 67015.7 -5.3985e-14 -955.937 -1.76598e-14 3725.26)
(-1.18994e+06 -227462 2.98865e-15 31689.4 -9.20888e-16 -287385)
(391868 73604.8 -2.21535e-14 1025.78 1.20657e-14 97485)
(-135563 58705.3 -1.44403e-13 1660.12 -4.10334e-14 -33224.1)
(439772 62580.5 7.78526e-14 5565.17 -1.31706e-13 110497)
(399021 59447.4 -8.36799e-16 4981.05 -5.01125e-14 100241)
(362323 56211.4 -1.42211e-13 2482 2.16019e-14 90515.5)
(65351.9 40222.2 -7.05568e-14 4383.93 -2.64385e-14 17302.9)
(-905194 32229.4 3.94313e-14 -3063.59 -3.84985e-14 -225357)
(271279 46553.1 7.65914e-14 -1399.12 8.25915e-15 66962.7)
(378580 46541.2 -3.47233e-14 -1401.72 -4.98126e-14 93585.7)
(-77675 59394.7 -1.22263e-13 -544.389 -2.06552e-14 -19407.8)
(598611 81243.7 8.50185e-15 -7641.77 1.24861e-14 146631)
(108588 48123 -4.94793e-14 -1611.37 3.35719e-14 26543)
(-1.20898e+06 27644.2 -1.37263e-14 -1670.01 -5.15159e-15 -300388)
(32975.4 60851 -6.37936e-14 2052.13 -5.37745e-14 8691.05)
(-98243.4 62557.1 -1.26912e-13 2726.25 6.00544e-14 -23699.8)
(315081 53340.8 9.85111e-14 2643.13 -1.43108e-14 78833.8)
(285517 51250 9.14142e-14 1882.38 2.22486e-14 71309.6)
(259279 48502.4 -6.59618e-14 86.6631 1.82424e-14 64353.8)
(625301 47019.6 1.01985e-14 560.672 2.18673e-14 155289)
(122957 60282.2 -4.286e-14 1921.78 -9.20827e-14 30985)
(-330393 57056.3 3.02673e-14 -4734.72 6.91045e-16 -83152.1)
(-267653 92912.6 1.87426e-14 2653.77 2.10267e-14 -65751.6)
(-143875 44715 0 820.448 0 -35494.7)
(-442030 66383.8 -4.0068e-14 -4684.68 1.22076e-14 -110839)
(-486767 69022.5 -6.06704e-14 -5030.48 -4.06028e-15 -122025)
(-536469 74164.5 -6.08847e-14 -5930.82 2.94216e-14 -134580)
(245345 48773.5 1.20619e-15 3633.11 1.51385e-14 61776.5)
(169728 54170.9 1.90867e-14 1941.07 -2.39347e-14 42594.5)
(53356.7 14198.3 -5.55112e-14 2371.59 2.00458e-14 13827.3)
(90215.1 49976.1 0 -1939.26 0 21903)
(117504 42335.9 -6.49425e-14 -388.55 3.88171e-14 29058.7)
(1.42425e+06 -56699.5 -3.71193e-15 -199991 -1.81394e-15 303763)
(482593 37469.6 6.51249e-14 -959.313 -6.68665e-14 119503)
(-368227 59606.1 0 -139.818 0 -91399.2)
(-263558 56621.3 -3.21827e-14 4742.2 -1.42851e-15 -64217.4)
(206871 59948.4 1.70589e-14 -2552.97 -2.11227e-14 50695.4)
(-66852.7 65349.1 2.84429e-14 -1504.54 2.33672e-14 -16960.8)
(-11559 69457.9 8.33245e-14 -807.661 -6.57959e-14 -3068.42)
(18921.2 51879.5 6.79201e-14 5809.49 -1.07817e-14 6136.2)
(21185.9 53946.8 -3.57344e-14 6292.99 -3.33933e-14 6818.08)
(-6406.48 85759.1 -1.80093e-15 -3454.51 -1.48508e-14 -2446.71)
(-5419.41 47134.7 -1.56377e-14 -524.084 5.26884e-14 -1474.7)
(-1787.99 53073.3 -5.83342e-14 -3008.27 4.35322e-14 -1190.05)
(7283.51 61127.4 5.55992e-14 -11016.2 -2.53084e-14 -926.152)
(95473.1 49706.5 -4.50733e-15 2145.18 -2.14835e-14 24221.1)
(-193302 92922.2 -1.07501e-15 1659.88 -1.0591e-14 -47550.3)
(55300.7 59278.4 1.39651e-13 -233.385 -2.75373e-14 13663.3)
(4680.88 90617.4 6.18789e-15 -10976.6 8.96098e-15 -1562.1)
(-395293 87941.6 -1.53438e-14 -2573.56 -9.28411e-15 -98718.8)
(473733 47466.5 4.96048e-14 4296.08 4.44749e-14 118609)
(-200487 59641.8 -5.37877e-14 90.4319 1.76135e-14 -49722.5)
(-948526 189975 -2.71243e-15 176367 1.65411e-15 -191588)
(-131057 44384.7 3.82109e-14 -2412.83 4.15854e-14 -33116.7)
(-217129 87672.5 0 1405.94 0 -53525.3)
(60494 57812.7 7.44974e-14 -2372.58 -1.03089e-13 14421.1)
(91597.3 51248.7 3.94843e-15 -46.0188 1.28558e-14 22715.7)
(1.04388e+06 -230450 -8.43953e-16 33057 1.51116e-16 267209)
(-1.38963e+06 15804.8 -1.13514e-14 7696.71 5.22879e-15 -342885)
(396899 49172.1 2.40102e-14 6308.53 2.02404e-14 100044)
(437847 51474.2 -2.46834e-14 6163.8 5.36533e-14 110168)
(-137405 62388.7 -1.76638e-13 3887.4 -6.31629e-14 -33128.4)
(89731.6 73773.4 3.15265e-14 5309.62 6.2332e-14 23581.7)
(-22574 57685.9 4.96846e-14 -4661.28 7.57717e-14 -6757.63)
(-593606 -385832 -7.2098e-16 44942.2 3.04221e-16 -136135)
(-1.33649e+06 53875.8 3.74078e-15 2003.15 4.81548e-15 -331114)
(1.19646e+06 33838.6 2.03624e-14 864.644 -1.01105e-14 297081)
(-1.76134e+06 -25652.8 -5.34154e-15 -5582.14 -2.32287e-15 -438410)
(505385 42472 -2.16895e-14 -3251.81 -3.38731e-14 124589)
(350721 40437.1 -3.6013e-14 -2091.44 1.32377e-13 86502)
(-459003 64919.9 0 9426.44 0 -111549)
(57572.9 45220.5 -6.55982e-14 -5891.94 3.12617e-14 12823.1)
(-42104.6 71133.6 -5.30374e-14 2911.94 2.81283e-14 -9724.48)