/*--------------------------------*- C++ -*----------------------------------*\
| =========                 |                                                 |
| \\      /  F ield         | OpenFOAM: The Open Source CFD Toolbox           |
|  \\    /   O peration     | Version:  2.3.1                                 |
|   \\  /    A nd           | Web:      www.OpenFOAM.org                      |
|    \\/     M anipulation  |                                                 |
\*---------------------------------------------------------------------------*/
FoamFile
{
    version     2.0;
    format      ascii;
    class       volSymmTensorField;
    location    "1460";
    object      sigma;
}
// * * * * * * * * * * * * * * * * * * * * * * * * * * * * * * * * * * * * * //

dimensions      [1 -1 -2 0 0 0 0];

internalField   nonuniform List<symmTensor> 
11800
(
(85404.4 58186.1 4.1648e-14 -2211.46 2.21062e-14 20641.8)
(-45225.7 55990.7 6.3933e-14 -2817.32 2.0329e-14 -11920.4)
(368892 65755.8 -9.81357e-16 745.19 -4.70715e-14 91714.4)
(-324458 41331.9 0 2122.05 0 -79978.2)
(-46377.8 53768.5 1.19294e-14 -7242.87 -3.37758e-14 -13304.4)
(-204429 70056 4.66882e-14 3017.33 2.45369e-14 -49974.4)
(-37630.1 68845.8 8.75866e-14 -812.452 -2.28162e-14 -9538.39)
(-52271.1 68454 -1.30778e-14 1409.54 5.27461e-14 -12619.8)
(117221 48047.1 1.82096e-14 405.292 -1.2502e-14 29185.6)
(76449.8 71415.1 -4.5518e-14 1791.67 -3.84179e-14 19413.3)
(98982.8 51004.1 -3.47457e-14 -116.915 2.98015e-14 24530.6)
(-470807 32484.9 -4.20914e-14 -3710.85 -1.91472e-14 -117738)
(15088.7 -21933 8.18069e-17 -40640.3 6.35363e-17 -6339.89)
(342440 41122.6 3.82788e-14 2530.78 -1.05175e-14 85594.1)
(-276794 65384.7 -3.16791e-14 6821.6 2.4686e-14 -66985.7)
(1.37071e+06 2502.66 0 -3166.72 0 339316)
(-24826.2 57763 2.96386e-14 1625.3 2.62094e-15 -5756.62)
(-37777.1 52398.1 -1.67679e-14 3996.19 9.65646e-14 -8381.73)
(79193.4 87242.6 -1.78648e-14 -11900.4 1.27595e-14 16696.8)
(57827.2 48573 -6.05901e-14 -4964.35 -1.96263e-14 13116.4)
(-256555 45960.6 1.87831e-14 1286.02 1.97152e-14 -63337.4)
(-411141 61528.2 3.0106e-14 1917 -1.75362e-14 -101537)
(-597426 85795 -1.60413e-14 7427.74 1.04185e-14 -146391)
(-548547 56519.8 1.66003e-16 -10.0809 2.81879e-15 -136108)
(1.11016e+06 59651.4 1.83394e-15 -4914.81 2.30421e-14 274233)
(-704061 83824 -1.56959e-14 4353.16 -4.74026e-16 -173612)
(-689901 43960.1 0 5668.17 0 -169772)
(337651 35770.7 -4.94388e-14 -5490.47 -2.99089e-14 82415.8)
(-761282 45664.9 -8.95796e-15 6793.23 -4.23897e-14 -187204)
(-836116 46919.8 1.17312e-14 6706 -1.83937e-14 -205794)
(227277 39304.9 -6.11574e-14 -1233.26 -1.09835e-13 56085.9)
(44696.6 57200.9 -1.05076e-14 1715.83 -8.8107e-15 11515.9)
(705776 79617 -2.5089e-15 7990.95 -1.12452e-14 177100)
(-19384.8 64418.4 8.00387e-15 -349.271 -6.00196e-14 -4896.43)
(12280.7 66392.9 -2.11447e-14 4143.3 -9.0988e-14 4075.12)
(-224328 31761.6 -5.55354e-14 3828.11 -4.03979e-14 -54710.5)
(12686.4 66388.9 7.51186e-14 2779.64 -8.95454e-14 3837.45)
(756865 53260.1 -9.20685e-15 3881.93 -4.03777e-14 188757)
(-26623 62677.4 0 -3781.5 0 -7543.98)
(54993.9 57714.5 -2.62516e-14 3239.45 4.89765e-14 14448.9)
(-725046 36255.1 -4.72518e-14 -3360.37 -2.20291e-14 -180732)
(-799821 36945.4 3.39544e-14 -3423.07 -1.95341e-14 -199301)
(354153 45229.4 -1.90196e-14 -3287.84 -6.36014e-14 87056.9)
(-878644 38510.9 -6.67729e-15 -5217.74 -3.4932e-14 -219304)
(238498 46566 1.62615e-13 2102 -5.08399e-14 59697.7)
(1.27891e+06 39536.2 0 -5039.55 0 316073)
(562679 91328.6 -1.01557e-14 -2688.63 5.3727e-15 138945)
(672683 43887.8 -1.78442e-14 -7202.7 -1.25169e-14 165119)
(-59785.6 64029.7 -6.44841e-14 -1700.87 -3.9817e-14 -15256)
(136071 59775.1 0 1720.29 0 34188.8)
(-484699 35568.2 -3.07741e-15 2436.48 3.32467e-14 -119659)
(-342206 35436.9 1.08222e-13 4946.75 1.27114e-14 -83680.9)
(-7149.1 65719.1 6.05702e-14 -750.671 3.78071e-14 -1960.09)
(23985.1 102083 -1.42722e-15 5313.02 1.24755e-14 7269.45)
(-1.47016e+06 6280.86 -2.25507e-15 -7681.78 -3.36311e-15 -366682)
(1.21116e+06 -40946.6 2.89465e-15 -55806.9 5.31759e-15 286666)
(-40762.8 23870.1 5.22001e-14 1700.82 1.94131e-14 -9692.08)
(-308647 68658.7 3.91599e-15 -2942.63 -3.29212e-14 -77311.7)
(244379 48909.2 -3.32334e-14 5251.31 4.87182e-14 61938.3)
(-221325 69914.1 2.74597e-14 -5296.14 -4.95824e-15 -56229.4)
(1.23689e+06 26413.1 -2.55766e-14 -9359.63 -8.87867e-15 304574)
(-30133.2 68227.1 2.56321e-14 428.265 -4.18168e-14 -7370.39)
(-244132 58725.6 -1.50284e-14 -2385.99 2.593e-14 -61166.1)
(191440 59154.7 4.53203e-14 906.763 -2.59025e-14 47725.1)
(1.09866e+06 18976.8 2.84602e-15 711.687 -1.66362e-14 272775)
(-156272 33445.3 -7.33951e-14 2559.38 -8.88527e-14 -38139.1)
(-501266 20478.1 5.18723e-14 1874.3 1.7339e-14 -123909)
(-357826 22863.9 1.42557e-15 4057.2 -9.08768e-14 -87777.1)
(-41776.6 25666.7 0 -2323.4 0 -10942.1)
(-656621 53210.6 -1.14325e-15 6113.26 4.13565e-14 -161404)
(-16523.5 67663.8 -1.46985e-14 520.362 3.04115e-14 -3970.7)
(-32439 55147.9 -5.66308e-14 -3126.75 6.34909e-14 -8824.58)
(-28948.8 53449.3 3.97194e-14 -3935.72 -2.4356e-14 -8159.31)
(-1.03225e+06 242058 -3.69978e-15 138693 3.44225e-15 -221709)
(1.22392e+06 56201.4 -9.01768e-16 -5013.94 -1.03038e-14 302435)
(-211273 42900.3 -5.45561e-14 6684.04 -3.97337e-14 -50762.7)
(1.1387e+06 17710.6 -2.10814e-14 2895.93 1.87623e-14 283254)
(-152547 24491.4 4.82549e-14 910.513 -1.58595e-13 -37624.1)
(-113454 41769.6 9.07005e-15 3570.62 -8.67499e-15 -27264.2)
(-109394 50018 9.25758e-14 3613.01 9.30341e-14 -26246.5)
(-1.48605e+06 -23757.1 8.03887e-15 5128.08 3.65261e-14 -367447)
(59562.9 46642.3 0 5677.22 0 16187.4)
(34850.9 55315.8 -9.62728e-14 336.213 -3.80148e-14 8730.63)
(23826.1 58883.3 3.33761e-14 2636.83 -2.66808e-16 6565.98)
(-48295.1 51570.8 2.30992e-14 -4965.58 6.54886e-14 -13215.1)
(-811187 57492.3 -1.29476e-14 -5120.35 6.68358e-14 -202542)
(242546 44524.5 7.77445e-14 2333.6 -2.42341e-14 60759.7)
(-737188 53230.2 0 -3511.3 0 -183783)
(-668703 51824.3 -2.74745e-14 -3254.43 -2.81267e-14 -166726)
(353855 41445.3 3.56921e-14 3312.59 2.17196e-15 88620.4)
(-8302.86 63999.7 -1.25483e-13 -2054.56 -8.06533e-14 -2569.89)
(836578 74329 0 -2653.2 0 206914)
(-67165.8 57770.4 -2.66205e-14 1766.88 -4.42284e-14 -16226.8)
(47628.9 21533.9 -1.53726e-14 3477.11 -2.23362e-14 12680.4)
(96372 53556.8 1.18618e-13 -269.795 2.11975e-15 23844.9)
(34918 -26343.7 -5.20826e-16 -74101.9 -3.85844e-16 -9722.31)
(-1849.6 7211.98 1.35252e-17 4326.53 -8.03427e-17 614.576)
(-35133.5 -26088 -3.28464e-16 73623.5 2.18623e-16 9550.15)
(-8242.58 65463.6 -3.90137e-14 -1307.71 -5.71321e-16 -2369.62)
(-409351 42690.4 -9.62282e-15 -1853.98 3.86987e-14 -102028)
(32891.3 37046.1 2.14502e-14 -375.862 -6.01371e-14 8067.75)
(442418 47281.8 -4.66964e-14 -4709.44 -6.48556e-14 108604)
(-791816 81496.6 3.30342e-15 871.435 6.71245e-15 -196249)
(-265193 64095.9 -2.02703e-15 4339.3 6.45555e-15 -64723.1)
(988.125 69131.4 -6.02408e-15 -337.109 -3.00248e-14 161.53)
(198598 77895.1 -1.29699e-14 1940.29 -2.25799e-14 49757.7)
(-90240.4 55269.9 -3.70062e-14 766.639 8.17921e-14 -22200.3)
(-63721.7 59113.3 -1.25053e-13 -696.186 -6.04287e-14 -15983.4)
(1.20409e+06 23528.9 7.40449e-15 2799.7 1.57419e-14 299453)
(734894 48085.1 1.17721e-14 2024.89 2.3855e-15 182845)
(809741 50043.7 2.25911e-14 2771.08 3.17168e-14 201601)
(667595 45982.5 8.19272e-14 2835.26 4.86432e-14 166347)
(-247079 45248.7 3.64557e-14 -4330.04 5.70082e-14 -62379.7)
(-360279 42709.5 -9.65264e-14 -3527.56 3.47344e-14 -90267.7)
(127009 50652.4 4.17036e-14 549.389 -2.19071e-14 31649.8)
(1.08531e+06 35614.7 1.12713e-14 -221.912 6.69419e-15 269232)
(148624 28944.7 -3.0025e-14 -3372.83 -1.18141e-13 36039.8)
(-45122.2 61924.7 -1.03997e-13 1597.07 9.74574e-14 -10799.5)
(1.01609e+06 60342.6 -1.30861e-14 141.884 1.6336e-14 252147)
(-80445.8 73742.1 -3.41845e-14 838.392 -9.2172e-15 -19752.2)
(-135740 44168.2 -2.42159e-14 980.107 -1.02544e-14 -33436.7)
(38721.9 68998.3 7.45306e-14 -3401.68 -1.06882e-13 8763.67)
(54209.8 69379.6 -5.21145e-14 -931.58 3.58968e-14 13219.4)
(-37926.3 57929.8 -1.51289e-14 -577.193 -2.23535e-14 -9553.51)
(-70140.4 55159.3 -9.46972e-14 761.238 -7.40371e-14 -17214.4)
(-2467.81 65200.2 -9.10096e-14 -2527.8 -6.86406e-14 -1239.51)
(-23478.5 65056.9 -5.45708e-14 -4578.31 6.00791e-14 -6961.46)
(-3835.59 64971.7 -3.56796e-14 -1254.63 -3.40741e-14 -1262.99)
(6446.52 50028.9 1.70365e-15 29726.9 7.62752e-14 8975.35)
(-27947 12706.6 -2.89874e-16 -6406.04 3.63494e-14 -8523.68)
(-1.32686e+06 -209234 1.19516e-14 57257.7 -6.12226e-15 -315013)
(-923653 58879.1 8.45867e-15 -6897.28 -1.28482e-15 -230888)
(266113 40106.6 4.11556e-14 4295.52 -4.01962e-14 67093.9)
(-804979 57342.3 -3.27393e-14 2429.61 2.06238e-14 -199129)
(377948 36292.3 -1.86457e-14 5395.12 5.63657e-14 95115.2)
(-729122 52604.8 1.24789e-14 2932.38 1.25284e-14 -180182)
(-661068 50504.8 -7.10908e-14 2936.03 5.44655e-14 -163296)
(221254 52406.3 4.02422e-14 -918.657 1.12452e-13 54669.6)
(-689848 31895.1 4.46219e-14 5996.91 -6.17658e-14 -169677)
(316890 52138.7 5.01614e-14 -497.489 -3.99929e-14 78503.4)
(-625833 29725.3 3.66776e-14 5006.66 -6.3589e-14 -154040)
(-567720 30088.7 -3.8069e-14 5151.25 -3.42948e-14 -139585)
(-337442 72100.5 2.94719e-15 8836.91 2.94338e-14 -81533.5)
(95356.4 59901.6 -2.00771e-14 -5364.13 -1.34201e-13 22328.9)
(134935 55656.5 -3.21949e-14 -4847.82 -9.33094e-14 32277.3)
(-200113 54112.3 -9.74875e-15 6767.43 5.65426e-14 -47973)
(801953 34622.8 -6.19533e-14 903.477 -2.08711e-14 199205)
(-836426 -3069.6 5.97113e-14 -7600.6 1.85373e-14 -209420)
(465066 38286.3 4.19266e-14 -3157 -3.90768e-14 114609)
(-262945 45425.8 9.79189e-16 4521.75 5.83957e-15 -64120.1)
(-115699 58229.2 -5.21001e-14 3257.79 -4.31308e-14 -27899)
(-120983 51543.4 4.45903e-14 -208.957 -4.04255e-14 -30070.2)
(11753.9 65366.9 3.38973e-14 2246.86 6.20564e-14 3473.88)
(-170509 44477.4 -7.62495e-14 1919.66 7.92157e-14 -41830.5)
(138774 50246.9 -4.0061e-14 -4161.32 -4.24206e-14 33400.3)
(93042.6 59965.3 -3.6647e-14 928.858 2.83076e-14 23316.2)
(-305867 46923.9 6.20886e-14 5959.99 -4.18699e-14 -74412.9)
(-424199 50132.9 2.27317e-14 1804.34 4.96776e-14 -104805)
(901267 25565.5 1.45337e-14 1282.28 -2.20445e-16 223941)
(-3570.58 67408 1.77934e-14 552.562 -8.67432e-14 -748.831)
(1.36811e+06 60119.7 -1.72965e-14 -9402.25 -9.46076e-15 337123)
(-140636 52529.5 -6.58621e-14 1739.74 4.54673e-14 -34462.9)
(1.14294e+06 39810 0 -13039.5 0 280352)
(-316716 52691.5 1.98947e-14 -1690.75 8.28322e-14 -79003.3)
(-349033 53882 -2.0386e-14 -2614.82 2.42844e-14 -87251.1)
(-383763 57227.3 -3.19379e-15 -2739.43 8.85453e-14 -95899.2)
(168787 56243.2 -4.89739e-14 336.381 1.20752e-14 41962.9)
(114494 60365.8 -5.21068e-14 -635.604 1.28955e-14 28250.6)
(-1.51134e+06 -4124.29 1.37884e-14 -6550.51 -7.90029e-15 -376621)
(-893510 56988.3 -1.37189e-14 -4800.59 2.61423e-14 -222889)
(297603 43809.8 -5.20464e-14 3830.16 -3.05147e-14 74791.6)
(407833 39470.2 1.4691e-13 2545.68 -7.90928e-14 101823)
(48697.1 62524.8 2.86157e-14 -5961.24 -7.41306e-14 10603.6)
(-250386 32067.5 0 1816.69 0 -61675.2)
(-255945 22212.2 7.82212e-14 1091.94 -3.98257e-14 -63234.1)
(1.2693e+06 42125 2.212e-14 -9479.51 1.48041e-14 312588)
(1.30185e+06 35.0393 1.82927e-14 8956.05 1.62694e-14 325237)
(651934 28014.4 9.57318e-16 11.56 3.81049e-14 161761)
(592532 27535.4 7.41728e-15 1087.4 9.18433e-14 147289)
(717778 27327.1 1.98899e-14 -755.479 -2.87128e-14 177908)
(-303666 52847 -4.726e-14 2949.9 4.26041e-14 -74613.8)
(-205154 53547.3 -4.57775e-14 1107.81 5.03106e-14 -50627.9)
(131016 67779.5 0 1409.21 0 32857.5)
(87469.8 70508.7 -1.93049e-15 914.727 7.29191e-14 21930)
(286196 54585.2 -5.68e-14 -575.995 4.65088e-14 70868.1)
(-122823 52288.2 -4.53934e-14 1028.69 1.07948e-13 -30219.6)
(-205481 78981.6 -9.2918e-15 1922.28 4.13689e-14 -50507.1)
(59226.3 59410.9 -1.66766e-13 -883.606 -4.43437e-14 14476)
(83218.5 54155.2 -1.15731e-13 -0.66706 4.85174e-14 20648)
(-56108.7 64879.6 -2.24695e-14 1658.34 -3.13603e-16 -13510.3)
(-153323 51116.1 -1.92082e-14 3088.28 -1.20412e-14 -37276.3)
(-139052 49234 1.25976e-14 2083.77 -2.1584e-14 -33984.7)
(-142549 40912.9 0 -930.526 0 -35600.2)
(-73513.6 82838.8 2.78932e-16 -3555.85 -2.60233e-14 -19122.5)
(-611024 10295.8 5.5011e-14 -5888.61 -2.40948e-14 -153069)
(771789 39453 -7.22313e-14 -3224.21 -7.18622e-15 190697)
(1.07553e+06 130444 4.56033e-15 -196228 2.3225e-15 218172)
(-25860.3 60135.3 1.48888e-14 -1907.56 -3.3818e-14 -6889.76)
(155722 25261.6 5.43176e-14 850.856 -1.24223e-13 38849)
(-1.35768e+06 -158265 1.1443e-14 115445 -7.59152e-15 -308224)
(71981 49274.4 2.32667e-15 3542.36 6.3161e-14 18738.9)
(191180 34110.3 4.38831e-14 2738.59 -5.04417e-14 48115.1)
(210362 36389.7 6.12663e-14 -3545.04 -2.58861e-14 51315.5)
(-2876.12 67701.3 4.61178e-14 2.2545 -6.8557e-15 -713.065)
(-3466.82 69321.6 4.86499e-14 -549.344 4.12366e-15 -996.492)
(559058 30651.8 1.56803e-14 -4801.93 5.27434e-14 137522)
(462583 64891.6 2.01333e-14 1476.33 -4.87354e-15 115142)
(-419108 54622 0 2717.83 0 -103315)
(-359320 36183.9 -5.07137e-14 -6634.35 -3.17799e-14 -90800.6)
(1.31764e+06 -210866 -4.78652e-15 -58756.2 -3.31194e-15 312356)
(-385222 88659.4 -4.18279e-15 10179 4.98295e-14 -93055.8)
(-624676 41950.1 2.94256e-14 -2413.7 -1.74797e-14 -155594)
(-1.37952e+06 -554523 -1.29461e-14 294841 5.09791e-15 -269130)
(1.56831e+06 3969.95 0 21594.1 0 394488)
(-1.20861e+06 -514302 -4.216e-15 140167 1.31134e-15 -265103)
(198272 91417.1 -2.8088e-14 117.884 1.00063e-14 49224.5)
(-45062.6 56871.6 -4.70642e-15 -2947.06 6.59156e-14 -11912.2)
(-568574 66863.5 2.42446e-14 -4482.5 -2.68165e-14 -142187)
(-512738 63872.3 3.59616e-14 -3224.49 -4.47572e-15 -128021)
(-465274 61576.3 -4.0761e-14 -2979.49 1.55955e-15 -116183)
(166195 50864.2 3.4937e-14 2809.22 -9.76099e-14 41933.4)
(244406 46692.7 -8.78852e-14 3008.97 8.55577e-14 61388.7)
(24674.1 57395.5 -1.37828e-14 -5789.88 6.48026e-14 4685.56)
(34218.7 52212.3 3.27245e-14 -6701.62 4.19951e-14 6827.54)
(-88035.4 84604.7 -3.8962e-14 12553.1 1.0588e-14 -18728.7)
(-51138.1 50472.1 2.811e-14 9219.39 -3.60315e-14 -10400.9)
(-758437 -305453 -3.27175e-15 -18445.8 6.8379e-16 -192760)
(125761 84404.8 -2.19638e-14 9698.25 -7.84701e-14 33610.2)
(-61672 51912.7 -7.31702e-14 -5563.88 -3.35147e-14 -16682.6)
(-289104 73136.3 0 347.688 0 -71646.2)
(126054 54550.5 5.84813e-14 1285.5 -2.4002e-14 31595.6)
(-60826.2 65445.6 0 90.5102 0 -15069.7)
(-47906.7 58171.4 -3.54126e-14 249.352 -5.62045e-14 -11824.8)
(425867 54168.7 5.03184e-14 3026.6 -5.26272e-14 106417)
(437950 39118.2 7.67802e-14 -601.633 3.67224e-14 108515)
(1.37136e+06 -551359 -4.82391e-15 -294197 -1.60357e-15 267266)
(754174 -304031 5.6473e-15 18092.1 1.55169e-15 191615)
(-142429 44414.3 1.07969e-14 768.84 1.53927e-14 -35148.8)
(-152770 46239.8 -3.27919e-14 -2054.33 -6.71966e-14 -38415.1)
(-769111 9760.91 -3.67225e-14 -4152.29 -8.46781e-15 -191862)
(616654 39744.1 8.25459e-14 -3389.62 -2.16503e-14 152163)
(204713 55027.7 2.65629e-15 -1100.36 1.48963e-13 50520.4)
(302047 55409.3 5.05712e-14 -2285.94 5.51172e-14 74376.8)
(-726379 28626 -1.26675e-15 -2013.2 3.26712e-14 -180729)
(-661975 28747.5 -3.28256e-14 -130.837 1.08626e-14 -164282)
(-600622 29530.2 -2.04227e-15 -308.012 5.0824e-14 -149103)
(-8393.19 68399.3 -7.67717e-14 -1119.9 2.22519e-14 -2360.39)
(-801793 28868.3 2.17585e-14 -1805.54 2.34395e-14 -199389)
(252629 53015.1 -5.18258e-14 -1284.55 2.54712e-14 62363.6)
(348903 53011.9 0 -2774.28 0 85881.4)
(331328 45027 1.98749e-14 -2207.52 4.76911e-14 81661.6)
(65202.1 56356.6 -6.48613e-14 2568.4 -1.71834e-13 16815.2)
(4417.2 62597.4 -5.68611e-14 -6805.94 -2.09652e-14 -592.695)
(295851 43977.6 -7.67863e-14 10017.1 1.39566e-14 75892.2)
(-236978 45322.4 -6.33111e-15 -814.935 -5.09994e-14 -59001.3)
(36965 68500.5 8.85352e-16 -8893.41 1.1428e-14 6965.14)
(1.20117e+06 -511922 -4.37012e-15 -140591 -1.10439e-15 263151)
(163501 59441 5.29895e-15 -2481.78 -9.6731e-14 39952.1)
(197919 58720.1 4.4936e-14 -417.213 1.53068e-14 49004.2)
(-133124 59225.5 0 1552.84 0 -32645.6)
(-157863 64481.6 1.66237e-14 -3150.61 -4.64099e-14 -39950.8)
(459634 60807.1 0 5408.68 0 115386)
(506574 64067.8 2.99794e-14 4701.51 2.85699e-14 126858)
(556806 67930.3 -6.77699e-14 4608.12 -6.4946e-15 139298)
(-247495 44196.7 9.27657e-14 -3935.68 9.43573e-14 -62385.2)
(-170670 48922.7 4.85384e-15 -3075.62 -5.63505e-14 -43109.9)
(-11041.5 67043.1 5.46788e-14 1762.35 2.91737e-14 -2302.34)
(1.21251e+06 21829.6 -9.01859e-15 -18856.2 -1.69236e-14 296171)
(-8589.21 68643.8 -5.92482e-14 -4088.53 1.84882e-14 -3145.6)
(11111.2 46659.4 -5.85983e-14 7152.77 -3.66302e-14 4531.67)
(24537.8 64490.7 4.24963e-14 352.811 -9.88413e-14 6175.87)
(259260 58620.9 4.57617e-14 -940.987 4.8487e-14 64094.1)
(-110396 11810.2 -7.52849e-14 -2807.13 3.7074e-15 -28088.1)
(340387 65584.8 0 -2165.22 0 83919.6)
(1.29372e+06 -40502.6 2.1106e-16 -191646 8.52166e-17 273447)
(266912 21502.9 4.34246e-14 3429.52 9.89148e-14 67077.2)
(254893 29338 1.96884e-14 -4345.72 1.07415e-14 62165.8)
(-373578 54112.2 6.51681e-15 3847.31 1.37456e-14 -91737.6)
(-266673 53110.7 -5.04702e-14 2168.88 1.61807e-14 -65628.8)
(-318914 39687.5 -1.03564e-13 538.33 -1.81696e-14 -78995.4)
(-229012 43470.3 5.20668e-15 -1234.58 -5.48701e-15 -57128.9)
(831885 26450.2 -3.82802e-15 -1937.29 1.24695e-14 205927)
(686735 72161.1 1.66114e-15 202.624 -2.57689e-14 170443)
(186793 63005.1 9.17501e-15 -1418.55 5.43555e-15 45995.2)
(252190 54999.8 1.72022e-14 773.284 2.93581e-14 62765.3)
(137313 63533.3 4.77205e-14 -3568.54 3.40665e-14 33184.7)
(186485 55362.2 4.28114e-14 -3611.89 -6.78924e-15 45374.6)
(-379122 47422.7 -8.16532e-15 3000.96 2.06439e-14 -93323.2)
(-496289 64317.8 -2.27241e-14 217.351 4.08201e-15 -123086)
(-120032 95061.7 2.55831e-14 -607.215 1.83732e-14 -29933)
(842214 49054.9 2.87007e-14 3299.15 2.07409e-14 209789)
(914217 50084.2 -6.25627e-15 14560.3 3.13479e-15 230448)
(1.092e+06 49347.8 5.06826e-15 -2566.26 3.21591e-15 270310)
(71132 61957.7 -9.27174e-14 2800.98 1.12786e-13 18344.3)
(-263626 22854.5 -5.74875e-14 -1327.78 -2.9588e-14 -65740.4)
(-253099 31216.7 -7.29273e-14 5621.53 4.88495e-14 -61404.1)
(1.24241e+06 3015.05 0 10156.2 0 310786)
(1.24334e+06 46783.6 0 785.588 0 308692)
(691397 38679.5 1.12112e-14 -1928.49 5.43329e-14 171071)
(688455 15460.8 3.66944e-14 3570.51 -1.02409e-13 171706)
(-721833 15426.3 0 -6714.87 0 -180767)
(-702393 37501.2 0 4901.02 0 -173062)
(21510.6 63043.5 -1.27743e-14 3397.44 3.66658e-14 6180.19)
(-56614.9 35835.6 1.36804e-13 -4453.45 -5.80171e-14 -15152.3)
(-201129 30630.7 -3.60602e-14 -3261.43 -1.33241e-14 -50713.5)
(1.6846e+06 4542.74 0 34876.7 0 426637)
(-30330.6 58124.9 -9.01762e-14 -5142.99 -2.27173e-15 -8801.71)
(-34104.3 60905.4 -1.29884e-14 -5777.21 -7.24038e-14 -9895.41)
(165611 66263.2 -4.67694e-14 -3165.46 -3.21043e-14 40306.1)
(-133623 67034.9 -9.76842e-14 -2927.66 4.09837e-14 -33881)
(158706 46484.1 2.86423e-14 -5743.95 -2.96709e-14 37952.9)
(-615502 37246.7 2.00884e-14 -4811.91 -4.11518e-14 -153912)
(614371 39552.1 -8.23748e-15 -5485.94 -5.036e-14 151077)
(-1.11439e+06 58161.4 8.85715e-15 -6747.98 -3.88557e-14 -278176)
(-1.40653e+06 -117824 4.94373e-15 274537 -3.65215e-15 -280870)
(474044 83373.5 -7.78751e-15 -10047.6 9.77763e-15 115127)
(46740.2 71319.2 -4.89512e-15 -2775.53 2.75462e-14 10908.5)
(-581538 59789.6 -2.46487e-14 -4759.66 -6.86948e-14 -145472)
(483505 29001.8 -3.17565e-14 3845.84 4.57729e-14 120922)
(-342689 40961.6 3.52661e-14 -6601.74 4.52531e-14 -86666.2)
(261503 58229.8 5.23961e-14 2995.31 9.00827e-16 65627.5)
(46577.2 70279.9 1.44988e-14 1199.72 6.80118e-16 11854.4)
(86120.8 58385.9 -6.13272e-14 -1374.05 7.71894e-14 21027.4)
(-175141 52172.1 4.33571e-14 -11254.8 -4.62379e-14 -46248.6)
(-281234 86446.7 7.77763e-16 4173.82 5.82262e-14 -68744.4)
(-158709 50791.7 6.62e-15 -10689.7 -4.64386e-14 -42031.2)
(-255190 82109.8 4.20398e-14 3212.17 -1.53887e-14 -62520.7)
(61201.9 47799.5 -2.69518e-14 -2148.2 8.42286e-15 14652.4)
(-28509.9 69538.6 -6.92005e-16 1940.24 -5.09514e-14 -6592.46)
(-18754.9 71081.5 6.28689e-14 1374.44 5.05207e-14 -4312.45)
(-13264 68140.6 3.23211e-14 -137.621 -7.05335e-14 -3325.21)
(905074 38808.2 1.98395e-14 1684.24 3.05977e-15 224985)
(-9710.11 71136.6 -7.16518e-14 -4233.53 -3.19099e-14 -3459.7)
(-36033.4 59673.1 3.50962e-14 -7115.05 -1.1777e-13 -10706)
(1.29658e+06 -25133.5 -9.93455e-15 -68587.5 -7.39356e-15 304690)
(191047 46974.8 3.7521e-14 -4455.14 -4.81861e-14 46297.2)
(-464978 76416.8 2.5986e-14 8078.72 7.05865e-15 -113366)
(-507076 46451.8 -4.12468e-14 1709.23 -1.80814e-14 -125392)
(-504752 27541.5 0 -4508.43 0 -126358)
(636174 20463.3 -3.73362e-14 5128.63 -1.77684e-14 159120)
(607592 53274 2.1356e-15 7034.78 4.46057e-14 152501)
(-22786.2 51226 -4.15288e-14 2281.55 3.39222e-14 -5087.63)
(-17331 51487.6 3.01413e-14 1916.38 -1.68791e-13 -3824.67)
(-431916 82918.1 -1.74312e-14 4047.54 -4.43691e-16 -106163)
(-580418 63487.6 0 6623.26 0 -142370)
(415464 48725.5 9.60623e-15 4266.16 2.40907e-14 104144)
(-1.08709e+06 74277.1 4.1817e-15 -3493.76 -1.3531e-14 -270597)
(31862.7 51878.5 0 6693.78 0 9566.64)
(566965 41347.5 -2.09553e-15 391.386 1.42682e-14 140773)
(428223 79975 -1.10725e-15 5808.66 5.53872e-17 107692)
(-258750 62347 7.75719e-14 5454.41 -9.98206e-15 -62847.9)
(-201579 47171.4 -7.5488e-15 2369.42 5.47584e-14 -49427.9)
(-184153 60698.1 1.19378e-14 3000.06 -4.55326e-14 -44947.7)
(-142846 49458.7 -6.74882e-16 32.4938 2.67537e-15 -35435)
(-215547 34919.6 2.79297e-14 2335.24 4.13063e-14 -52902.1)
(-179992 39238.2 -4.88541e-14 6324.54 9.85685e-15 -43090.5)
(-215817 73114.4 0 1668.26 0 -53134.6)
(-245758 77003 -2.52409e-14 489.274 2.19956e-14 -60856.3)
(-270989 81793.2 -2.07856e-15 1099.51 -2.37576e-15 -66965.1)
(70619.5 52897.1 -1.20224e-13 1555.54 -6.01968e-14 17908.1)
(-14800.2 65073.1 -2.66786e-14 -2457.65 5.32198e-14 -4282.01)
(506843 33386.5 -1.53376e-14 3869.95 4.347e-14 126718)
(529819 42883 2.11921e-14 -4284.08 -4.10622e-14 130396)
(89543 58277.8 4.33343e-15 -2021.71 -3.00566e-14 21715.8)
(127978 51508.3 0 1355.44 0 32090.3)
(-302010 81181.4 3.22145e-14 -3050.48 -3.55952e-14 -75691.7)
(257735 55074.7 -6.1501e-14 3708.03 -7.36334e-16 64869.4)
(281380 73628.7 -2.69149e-14 4507.63 -1.65134e-15 70934.5)
(-98445.9 59258.4 -4.94613e-14 -2987.38 7.10349e-14 -25167.7)
(-82857.4 60907.6 2.88749e-14 -2629.99 1.70314e-15 -21211.2)
(-122867 63258.3 4.69533e-14 1277.9 1.67289e-14 -30168.8)
(-136685 56674.9 0 184.148 0 -33868.6)
(-626638 41822.9 1.43057e-14 212.629 -2.19985e-14 -155429)
(268517 56890.6 -2.26261e-14 682.816 -9.00023e-14 66794)
(194452 57704.3 -1.03726e-14 -311.841 -1.48354e-15 48170.1)
(-76998.6 148727 -6.75174e-15 12782.6 -4.94203e-15 -15933.3)
(701081 29989.3 -4.7856e-14 -5895.04 -2.87165e-14 172490)
(-829628 15441.9 4.18127e-14 2155.41 2.50583e-14 -205313)
(-111941 139167 0 -5803.33 0 -29214.7)
(-102256 59796.6 1.72773e-14 2484.76 5.22537e-14 -24755.3)
(-87359 62498.3 -1.29957e-13 4169.42 -3.30169e-14 -20641)
(-146279 54780.8 5.61887e-14 1219.04 6.32879e-16 -35992.4)
(-126207 58778.2 0 2890.24 0 -30597.5)
(284517 51561.9 2.97418e-14 -1747.95 -4.79196e-14 70160.6)
(326837 66478.4 1.08133e-14 -2485.71 4.5953e-15 80478.1)
(261796 53260.2 -2.19285e-14 -3706.68 2.10379e-14 64037.2)
(305809 66677.1 2.32407e-14 -3073.85 6.47155e-14 75114.7)
(236858 50967.5 1.81696e-14 -2379.2 3.0623e-14 58179)
(276705 63244.8 -3.96082e-14 -2323.67 2.26855e-14 68079.6)
(225099 32976.7 1.76133e-14 1381.56 6.66651e-14 56194.4)
(217291 23677.9 5.18128e-14 4921.31 1.1114e-13 55135.4)
(-460356 69597.3 -1.04981e-14 -309.943 1.39158e-14 -114301)
(196810 60520.4 -5.37908e-14 -3039.52 -1.30009e-15 48078.3)
(-491258 52905.6 0 3598.54 0 -120998)
(847038 67089.2 3.03442e-14 -7931.08 -1.91462e-14 208200)
(-410221 34175.8 5.42579e-14 1530.72 -8.9478e-14 -101404)
(-302364 36798 6.53954e-14 84.5407 -4.40184e-14 -75001.6)
(-1.04192e+06 -492489 -4.0189e-15 169243 9.01929e-16 -216530)
(31017 61854.4 7.29407e-14 753.168 -1.91944e-14 7882.83)
(902151 43756.1 -1.01152e-14 -2569.16 -4.9733e-16 223205)
(-418653 46339.9 -1.52791e-14 1079.23 -4.42025e-14 -103609)
(-304500 45894.9 9.48121e-14 416.483 4.67478e-14 -75449.2)
(1.39926e+06 -2649.46 1.67518e-14 -2646.54 7.46421e-15 346528)
(-60727.3 56064.8 -1.04628e-14 47.9145 4.20527e-14 -15055.8)
(937406 19910.3 2.53541e-14 2977.28 -1.5814e-14 233328)
(-215013 47346.5 3.27417e-14 1608.36 -5.7829e-14 -52950.1)
(-795911 69696.5 2.0667e-14 8235.48 -2.68147e-15 -195438)
(-748588 49185.9 -1.26284e-14 -5198.66 -9.8277e-16 -187030)
(716768 50539.4 -2.39688e-14 480.681 1.57625e-14 177964)
(-86972.7 60835.1 -1.44125e-13 4133.05 -6.57347e-14 -20554.2)
(-2294.06 -26495.4 1.63449e-16 -41492.4 5.80219e-17 -10864.3)
(-13064.9 60305.6 0 2986.19 0 -2500.74)
(-1.38176e+06 -439631 6.59212e-15 179392 -1.82422e-15 -298331)
(1.03524e+06 -490237 7.77821e-15 -170418 2.46327e-15 214579)
(-620137 71055.6 2.63082e-14 -5966.67 -2.56553e-14 -155349)
(205704 48048.2 1.09326e-14 881.36 4.23433e-14 51257.9)
(279126 42843.2 -3.543e-14 835.322 8.0603e-14 69464.2)
(86883.4 59422.4 7.04556e-14 -1801.85 2.10264e-14 21110.5)
(-159150 19702.2 4.08469e-14 751.645 -6.29019e-14 -39301.8)
(134037 69963.4 -3.43041e-14 -701.138 3.14354e-14 33083.4)
(-69910.4 49388 1.01324e-14 1003.14 1.55647e-14 -17097.3)
(-72442.1 84392.6 7.58792e-15 2776.66 2.21868e-14 -17285.4)
(-1.11997e+06 14896.2 -3.55983e-15 30830.8 8.68043e-15 -270238)
(9279.73 -15765.8 4.28669e-17 -27502.9 2.65909e-17 -4521.55)
(-348867 68738 -1.49297e-16 4211.98 2.89434e-15 -85515.9)
(270337 44154.6 2.5573e-14 -1072.39 7.96275e-14 66809.9)
(1.17356e+06 -226509 6.80143e-16 -32328 9.12745e-16 283163)
(-31371.4 48765.8 -6.61326e-15 -4368.65 -5.14973e-14 -8867.83)
(-35738.3 71909.1 5.2489e-15 -1156.62 5.02881e-14 -9154.38)
(-20948.2 63664.6 -8.99587e-16 1219.02 -7.73048e-14 -4895.21)
(-58354.1 63100.9 -1.47037e-14 1396.47 2.01333e-14 -14132.3)
(23161.8 62866.6 2.28281e-14 -684.392 5.91004e-14 5577.11)
(15778.6 66564.1 -5.3469e-14 -991.528 -1.74916e-14 3668.98)
(-1.18093e+06 -225899 2.96589e-15 31373.4 -9.13871e-16 -285229)
(388247 72632.7 -2.19706e-14 880.026 1.19638e-14 96550.4)
(-134258 58386.6 -1.43021e-13 1703.98 -4.06414e-14 -32889.3)
(435397 61600.8 7.71696e-14 5563.42 -1.30528e-13 109411)
(394803 58531.7 -8.26859e-16 4868.02 -4.96574e-14 99166.5)
(358381 55346.4 -1.40914e-13 2425.95 2.14051e-14 89523.5)
(64715.5 40107.2 -6.9881e-14 4370.39 -2.61861e-14 17141.6)
(-896848 31485.6 3.90941e-14 -2950.31 -3.81659e-14 -223258)
(268405 46252.3 7.58596e-14 -1348.17 8.17987e-15 66262.3)
(374487 46074.1 -3.43927e-14 -1230.8 -4.93397e-14 92612.6)
(-76965.6 59113.9 -1.21091e-13 -544.31 -2.0458e-14 -19231.8)
(593681 80306.2 8.43346e-15 -7737.95 1.23837e-14 145384)
(107519 47910 -4.90053e-14 -1654.52 3.32513e-14 26267.1)
(-1.19872e+06 27081.9 -1.3618e-14 -1686.08 -5.10986e-15 -297845)
(32658.7 60568.5 -6.31822e-14 2044.27 -5.32613e-14 8610.51)
(-97323.6 62198.9 -1.25697e-13 2773.77 5.94819e-14 -23459.7)
(312019 52412.9 9.76394e-14 2974.42 -1.41864e-14 78156.4)
(282480 50389.6 9.05902e-14 2034.75 2.20441e-14 70593.9)
(256524 47715.7 -6.53604e-14 334.783 1.80765e-14 63731.8)
(620106 46397.7 1.01161e-14 298.121 2.16883e-14 153935)
(121586 59826.3 -4.24503e-14 1906.45 -9.12062e-14 30640.9)
(-327428 56167.9 3.00051e-14 -4942.39 6.85848e-16 -82467.7)
(-265273 91820.3 1.85876e-14 2615.87 2.08496e-14 -65170.5)
(-142515 44571.9 0 783.091 0 -35166.4)
(-437438 65422.2 -3.97041e-14 -4546.9 1.20957e-14 -109666)
(-481878 67989.4 -6.01293e-14 -4973.18 -4.02446e-15 -120798)
(-531142 72957.1 -6.03499e-14 -5822.69 2.91591e-14 -133232)
(242719 48355.3 1.19447e-15 3602.92 1.49946e-14 61117.4)
(167931 53889.3 1.89042e-14 1888.34 -2.37064e-14 42135.6)
(53032.3 14255.2 -5.49808e-14 2355.35 1.98547e-14 13742.8)
(89320.8 49722.7 0 -1958.05 0 21676.5)
(116368 42144.5 -6.43206e-14 -432.858 3.84464e-14 28765.9)
(1.41317e+06 -56654.1 -3.68278e-15 -198020 -1.79883e-15 301504)
(477239 36835.2 6.45314e-14 -1043.09 -6.62501e-14 118154)
(-364326 58856.8 0 -104.378 0 -90422.5)
(-260735 55804 -3.18872e-14 4926.43 -1.41509e-15 -63471.3)
(204699 59290.8 1.68991e-14 -2234.21 -2.09245e-14 50235.7)
(-66181.9 64609.1 2.81749e-14 -1489.65 2.31467e-14 -16790.7)
(-11526.7 69047.2 8.25268e-14 -814.681 -6.51682e-14 -3062.15)
(18607.2 51001.1 6.73078e-14 5669.63 -1.06834e-14 6023.57)
(20876.7 53016.1 -3.54175e-14 6101.4 -3.30942e-14 6693.81)
(-6526.63 84501.9 -1.78494e-15 -3250.61 -1.47198e-14 -2425.93)
(-5372.2 46577.8 -1.54905e-14 -514.912 5.21915e-14 -1460.71)
(-1802.89 52636.3 -5.77787e-14 -2998.16 4.31181e-14 -1191.24)
(7196.05 60919.4 5.50665e-14 -10978.6 -2.5067e-14 -938.518)
(94600.7 49005.3 -4.46969e-15 2014.47 -2.13024e-14 23972.2)
(-191759 91995.3 -1.06627e-15 1711.07 -1.05043e-14 -47154.8)
(54679.4 58893.1 1.38318e-13 -290.471 -2.72748e-14 13495)
(4705.19 89731.3 6.13836e-15 -11036.4 8.88809e-15 -1570.91)
(-392026 86981.3 -1.52179e-14 -2566.78 -9.20689e-15 -97906.5)
(468984 46671.4 4.91715e-14 3988.52 4.40844e-14 117354)
(-198389 59098.5 -5.32754e-14 87.9749 1.74457e-14 -49202.6)
(-941371 188003 -2.69177e-15 174555 1.63999e-15 -190263)
(-129890 44265 3.78445e-14 -2447.07 4.11886e-14 -32835.4)
(-215290 86404.3 0 1041.15 0 -53159.4)
(59773.3 57471.5 7.37855e-14 -2574.9 -1.02106e-13 14192.1)
(90668.9 50710.7 3.91095e-15 22.26 1.27338e-14 22502.3)
(1.03551e+06 -228687 -8.37427e-16 32577.4 1.49029e-16 265015)
(-1.37771e+06 15210.9 -1.1259e-14 7503.12 5.18475e-15 -339976)
(392808 48413.9 2.37929e-14 6228.71 2.00563e-14 99009.1)
(433659 50697.4 -2.44661e-14 6249.57 5.3174e-14 109150)
(-136052 62045.6 -1.74948e-13 3943.37 -6.25598e-14 -32778.9)
(88699.5 72722.2 3.12355e-14 5431.53 6.17541e-14 23355.8)
(-22399.8 57458.9 4.92087e-14 -4687.88 7.50495e-14 -6721)
(-588870 -382864 -7.15382e-16 44988.1 3.01741e-16 -134948)
(-1.32438e+06 52878.4 3.71101e-15 2001.57 4.77504e-15 -328110)
(1.18603e+06 33156.7 2.02009e-14 861.826 -1.00279e-14 294493)
(-1.74649e+06 -26029.6 -5.30066e-15 -5346.62 -2.30357e-15 -434666)
(500003 41840.7 -2.14862e-14 -3056.64 -3.35564e-14 123302)
(346863 39964.6 -3.56789e-14 -2157.44 1.31131e-13 85528.5)
(-454129 63979.2 0 9341.37 0 -110361)
(56805.9 44310.1 -6.50296e-14 -5675.59 3.09876e-14 12686.5)