/*--------------------------------*- C++ -*----------------------------------*\
| =========                 |                                                 |
| \\      /  F ield         | OpenFOAM: The Open Source CFD Toolbox           |
|  \\    /   O peration     | Version:  2.3.1                                 |
|   \\  /    A nd           | Web:      www.OpenFOAM.org                      |
|    \\/     M anipulation  |                                                 |
\*---------------------------------------------------------------------------*/
FoamFile
{
    version     2.0;
    format      ascii;
    class       volScalarField;
    location    "0.02";
    object      epsilon;
}
// * * * * * * * * * * * * * * * * * * * * * * * * * * * * * * * * * * * * * //

dimensions      [0 2 -3 0 0 0 0];

internalField   nonuniform List<scalar> 
15166
(
839.239
683.489
599.782
577.21
559.176
533.956
485.548
414.202
347.168
279.967
220.429
176.149
848.503
593.857
550.019
536.998
522.246
497.641
450.358
385.36
322.386
260.661
206.228
162.334
867.888
523.809
504.642
499.336
488.189
464.684
419.511
359.83
300.844
243.796
193.372
151.06
890.898
470.385
464.838
465.06
456.973
434.762
392.129
337.08
281.896
228.876
181.647
140.397
915.897
429.547
430.42
434.416
428.686
407.735
367.715
316.74
265.085
215.582
171.081
131.522
942.658
397.739
400.451
407.024
403.087
383.346
345.848
298.478
250.074
203.648
161.503
123.356
970.998
372.563
374.124
382.413
379.848
361.257
326.151
282.014
236.573
192.86
152.725
115.539
1000.48
352.46
350.869
360.209
358.675
341.185
308.318
267.093
224.355
183.059
144.737
108.889
1030.9
336.345
330.248
340.106
339.331
322.885
292.097
253.501
213.238
174.117
137.439
102.8
1061.97
323.417
311.894
321.846
321.614
306.145
277.283
241.079
203.073
165.922
130.773
97.469
1093.46
313.073
295.499
305.204
305.345
290.79
263.702
229.678
193.744
158.391
124.67
92.6698
1125.28
304.847
280.804
289.989
290.37
276.663
251.208
219.176
185.144
151.448
119.113
88.6004
1157.26
298.376
267.593
276.034
276.547
263.627
239.678
209.47
177.193
145.035
114.043
85.0587
1189.27
293.366
255.684
263.202
263.761
251.571
229.005
200.477
169.817
139.088
109.33
81.3295
1221.17
289.592
244.922
251.371
251.907
240.388
219.1
192.114
162.959
133.57
105.006
78.2356
1252.92
286.857
235.178
240.438
240.893
229.996
209.887
184.329
156.562
128.427
101.003
75.3698
1284.36
285.01
226.337
230.313
230.642
220.316
201.294
177.053
150.583
123.63
97.2873
72.6846
1315.55
283.917
218.301
220.917
221.079
211.276
193.262
170.249
144.988
119.146
93.8253
70.1688
1346.32
283.464
210.986
212.183
212.145
202.823
185.743
163.863
139.737
114.943
90.5972
67.8799
1376.53
283.565
204.319
204.049
203.783
194.903
178.686
157.865
134.798
111
87.5811
65.7475
1406.13
284.134
198.234
196.463
195.946
187.468
172.055
152.221
130.151
107.289
84.7463
63.6568
1435.25
285.113
192.675
189.377
188.588
180.48
165.814
146.901
125.765
103.791
82.0704
61.6714
1463.76
286.43
187.59
182.75
181.671
173.899
159.928
141.876
121.623
100.489
79.5355
59.7151
1491.49
288.052
182.938
176.543
175.16
167.693
154.369
137.124
117.704
97.3664
77.1335
57.8758
1518.54
289.938
178.678
170.723
169.024
161.833
149.114
132.627
113.991
94.4055
74.8523
56.1135
1544.71
292.029
174.775
165.26
163.233
156.295
144.139
128.362
110.469
91.5974
72.6839
54.4659
1570.17
294.313
171.196
160.126
157.761
151.051
139.422
124.314
107.123
88.9269
70.6238
52.8938
1594.87
296.752
167.912
155.297
152.586
146.081
134.944
120.467
103.94
86.387
68.6603
51.4296
1618.63
299.335
164.902
150.749
147.686
141.366
130.691
116.805
100.909
83.967
66.7963
50.0785
1641.65
302.053
162.138
146.464
143.042
136.888
126.644
113.32
98.0195
81.6607
65.0159
48.735
1663.77
304.838
159.604
142.421
138.636
132.629
122.791
109.995
95.262
79.4567
63.3213
47.4989
1684.87
307.721
157.279
138.604
134.452
128.576
119.117
106.823
92.6276
77.3517
61.6995
46.2836
1704.92
310.678
155.149
134.996
130.475
124.714
115.614
103.792
90.1085
75.3375
60.1515
45.165
1724.49
313.679
153.194
131.585
126.691
121.032
112.266
100.893
87.6972
73.4101
58.6707
44.065
1742.71
316.724
151.407
128.356
123.089
117.518
109.067
98.118
85.3888
71.5626
57.2531
43.047
1760.12
319.819
149.77
125.3
119.657
114.16
106.005
95.4602
83.175
69.7904
55.8939
42.0244
1776.76
322.945
148.276
122.402
116.383
110.951
103.074
92.9131
81.0502
68.0886
54.5867
41.0464
1792.28
326.099
146.914
119.654
113.259
107.879
100.264
90.4677
79.0095
66.4545
53.334
40.1602
1806.88
329.385
145.677
117.046
110.276
104.939
97.57
88.1192
77.0476
64.8839
52.1297
39.2942
1820.46
332.804
144.558
114.571
107.424
102.12
94.9845
85.8638
75.1618
63.3728
50.978
38.5023
1832.79
336.235
143.549
112.222
104.699
99.4191
92.5014
83.6937
73.3464
61.9169
49.8652
37.6685
1844.25
339.808
142.65
109.99
102.091
96.8269
90.1154
81.6066
71.5978
60.5154
48.7894
36.8085
1854.55
343.421
141.847
107.869
99.5953
94.3389
87.821
79.596
69.9126
59.1637
47.7539
36.0581
1864.04
347.166
141.147
105.855
97.2054
91.9492
85.6134
77.6601
68.2885
57.8605
46.7542
35.2898
1872.6
350.922
140.548
103.941
94.9154
89.653
83.4885
75.794
66.7215
56.6022
45.7901
34.6053
1880.16
354.54
140.078
102.124
92.7212
87.4447
81.441
73.9943
65.2087
55.388
44.8584
33.8787
1886.77
358.313
139.735
100.401
90.6182
85.3208
79.469
72.2577
63.7486
54.2144
43.9606
33.253
1892.66
361.936
139.497
98.7696
88.6012
83.2772
77.5671
70.5815
62.3377
53.0809
43.0919
32.5964
1897.64
365.528
139.336
97.2287
86.6666
81.3095
75.7339
68.9626
60.9739
51.9844
42.254
32.0095
1901.73
369.096
139.285
95.7818
84.8125
79.415
73.9645
67.3998
59.656
50.9236
41.4434
31.3901
1904.97
372.532
139.318
94.4247
83.0329
77.5907
72.2572
65.8886
58.3812
49.8992
40.6623
30.8576
1907.46
376.1
139.429
93.154
81.3303
75.834
70.6101
64.4288
57.1475
48.9063
39.9068
30.3366
1909.18
379.5
139.613
91.9559
79.7013
74.1436
69.0193
63.0174
55.9538
47.946
39.1742
29.7602
1910.05
382.926
139.869
90.8375
78.1435
72.5163
67.4833
61.6525
54.7992
47.017
38.4651
29.2443
1910.31
386.351
140.192
89.7917
76.653
70.9485
66.0011
60.3337
53.6815
46.1172
37.7793
28.7438
1909.92
389.773
140.58
88.8154
75.227
69.4381
64.5687
59.0574
52.6007
45.2483
37.1181
28.3083
1908.67
393.039
141.027
87.9065
73.8645
67.9826
63.1839
57.8217
51.5535
44.4047
36.4792
27.8524
1906.82
396.457
141.536
87.0681
72.5622
66.5804
61.846
56.6249
50.5375
43.5869
35.8614
27.465
1904.38
399.718
142.105
86.2925
71.3197
65.2305
60.5519
55.4654
49.5523
42.7933
35.2589
26.9636
1901.1
402.986
142.705
85.5711
70.1314
63.9297
59.3016
54.3428
48.5974
42.0238
34.6746
26.537
1897.32
406.164
143.391
84.9153
68.9991
62.6773
58.0926
53.2548
47.6706
41.2768
34.1086
26.153
1893
409.454
144.132
84.3167
67.9206
61.4718
56.9238
52.2011
46.7718
40.5508
33.5602
25.806
1888.03
412.605
144.924
83.773
66.8909
60.311
55.794
51.1797
45.8997
39.8466
33.0269
25.4313
1882.39
415.763
145.74
83.289
65.9121
59.1939
54.7013
50.1898
45.0527
39.1619
32.5104
25.0995
1876.22
418.815
146.638
82.8499
64.9803
58.1186
53.6449
49.2304
44.2308
38.4965
32.0078
24.7332
1869.37
421.896
147.558
82.4609
64.0957
57.0835
52.6234
48.2997
43.4322
37.8504
31.5187
24.4055
1862.4
425.018
148.531
82.1265
63.2535
56.0875
51.635
47.3978
42.6569
37.2214
31.0416
24.0462
1854.14
428.008
149.538
81.8335
62.4533
55.1287
50.6785
46.5223
41.9028
36.6092
30.5773
23.7344
1845.89
430.986
150.601
81.5847
61.6958
54.206
49.7531
45.6725
41.1704
36.013
30.1236
23.4076
1837.31
433.904
151.705
81.3815
60.9738
53.3166
48.857
44.8471
40.4568
35.4319
29.6818
23.117
1827.79
436.888
152.836
81.2245
60.2916
52.4597
47.9884
44.0456
39.7625
34.8656
29.2494
22.7991
1817.86
439.564
154.021
81.1025
59.6433
51.6349
47.1464
43.2657
39.0858
34.3127
28.8269
22.5199
1807.38
442.502
155.2
81.0053
59.0266
50.8391
46.3302
42.507
38.4255
33.7723
28.4145
22.2392
1796.47
445.19
156.5
80.9688
58.4483
50.0727
45.5388
41.7687
37.7818
33.2438
28.0094
21.9437
1785.03
447.833
157.754
80.9509
57.8924
49.3312
44.7684
41.0485
37.1518
32.7254
27.6102
21.6632
1773.61
450.635
159.069
80.9725
57.3688
48.6137
44.0199
40.3454
36.5356
32.2174
27.2172
21.3529
1761.25
453.214
160.397
81.0202
56.8734
47.9211
43.2912
39.6596
35.9329
31.7184
26.8297
21.0731
1748.11
455.588
161.743
81.102
56.401
47.2506
42.5813
38.9881
35.3413
31.2282
26.4475
20.7766
1735.01
458.167
163.142
81.21
55.9538
46.5998
41.8886
38.3313
34.7613
30.7454
26.0704
20.5081
1721.75
460.601
164.555
81.351
55.5269
45.9686
41.2122
37.6872
34.191
30.2704
25.6966
20.2054
1707.57
462.956
166.028
81.5147
55.124
45.3558
40.551
37.0556
33.6296
29.8017
25.3281
19.9275
1693.2
465.29
167.48
81.7133
54.7435
44.7609
39.903
36.4352
33.0768
29.3381
24.9632
19.6747
1678.47
467.536
168.951
81.9292
54.379
44.1798
39.269
35.8251
32.5318
28.8795
24.6016
19.4148
1663.34
469.74
170.477
82.1689
54.0355
43.615
38.6474
35.2249
31.9939
28.4264
24.2426
19.1272
1647.89
471.921
172.028
82.4344
53.7134
43.0641
38.0364
34.6335
31.4623
27.9773
23.8875
18.8688
1632.57
474.078
173.617
82.7491
53.4042
42.5268
37.437
34.0495
30.937
27.5331
23.5352
18.5908
1616.53
476.128
175.234
83.0822
53.1166
42.0053
36.8476
33.4743
30.4168
27.0918
23.1853
18.3538
1600.28
478.121
176.879
83.434
52.8551
41.4967
36.2697
32.9065
29.9017
26.6546
22.8383
18.0909
1583.79
480.055
178.56
83.8259
52.6077
41.0036
35.7022
32.3465
29.3926
26.2211
22.4942
17.8245
1567.07
481.952
180.333
84.2686
52.3878
40.5259
35.1448
31.7943
28.8896
25.7927
22.1534
17.5392
1550.16
483.78
182.088
84.7303
52.1869
40.0605
34.5983
31.2492
28.391
25.3666
21.8159
17.3373
1533.08
485.534
183.888
85.2535
52.0187
39.6154
34.063
30.7124
27.8987
24.9459
21.484
17.106
1516.28
487.388
185.792
85.8224
51.8785
39.1881
33.5407
30.1851
27.413
24.5296
21.1583
16.9105
1498.53
488.948
187.737
86.4401
51.7714
38.7847
33.0327
29.6678
26.9345
24.1194
20.8386
16.7103
1481.49
490.624
189.732
87.114
51.7061
38.3997
32.5409
29.1616
26.4637
23.7154
20.5263
16.5401
1463.95
492.132
191.774
87.8456
51.6723
38.0439
32.0659
28.6673
26.0024
23.3196
20.2218
16.3537
1446.31
493.68
193.934
88.6672
51.6915
37.7162
31.6107
28.1874
25.5517
22.932
19.9263
16.2064
1428.54
494.971
196.146
89.5602
51.7606
37.4238
31.1781
27.7223
25.1126
22.5537
19.6395
16.0498
1411.12
496.445
198.424
90.5326
51.8927
37.164
30.7698
27.2754
24.6866
22.1868
19.3647
15.9261
1393.2
497.579
200.819
91.6159
52.0863
36.951
30.3894
26.8497
24.2769
21.8331
19.1014
15.7861
1375.17
498.697
203.27
92.7888
52.3467
36.7789
30.0409
26.4459
23.8842
21.4939
18.8514
15.6798
1357
499.672
205.782
94.086
52.6909
36.6602
29.7265
26.0666
23.5105
21.1697
18.6165
15.6001
1338.71
500.478
208.423
95.4879
53.1157
36.5966
29.4521
25.7167
23.1592
20.8642
18.3976
15.5179
1320.29
501.23
211.115
96.9992
53.6379
36.5974
29.2198
25.3981
22.8328
20.5792
18.1961
15.4453
1302.08
501.933
213.928
98.6552
54.2544
36.6682
29.0343
25.1147
22.5331
20.3158
18.0131
15.4046
1283.33
502.397
216.788
100.461
54.9844
36.8107
28.9018
24.8691
22.2631
20.0773
17.8512
15.3715
1264.74
502.806
219.765
102.391
55.8217
37.0307
28.827
24.6663
22.0262
19.8648
17.7115
15.3734
1245.57
502.934
222.771
104.448
56.7849
37.34
28.8128
24.51
21.8253
19.6816
17.596
15.3959
1225.69
502.825
225.876
106.7
57.8705
37.744
28.8664
24.4027
21.663
19.5299
17.5052
15.4228
1206.21
502.819
229.085
109.055
59.0959
38.2441
28.9923
24.3486
21.5427
19.4115
17.4417
15.4781
1186.12
502.553
232.315
111.61
60.4682
38.8517
29.1934
24.3539
21.4678
19.3292
17.4057
15.5351
1165.61
502.059
235.633
114.301
61.9769
39.5663
29.4766
24.4195
21.44
19.2847
17.399
15.6213
1145.1
501.582
238.967
117.157
63.6429
40.4056
29.8445
24.5505
21.4631
19.2797
17.4225
15.7236
1123.87
500.838
242.373
120.148
65.4679
41.3621
30.3069
24.7495
21.54
19.3171
17.4775
15.8312
1102.12
499.871
245.917
123.345
67.4585
42.4474
30.862
25.0224
21.6731
19.398
17.5636
15.9676
1079.91
498.896
249.387
126.668
69.5988
43.6582
31.5166
25.3693
21.8636
19.5238
17.6828
16.1104
1057.16
497.707
252.998
130.159
71.9104
45.014
32.2716
25.7944
22.1146
19.6966
17.835
16.28
1034.24
496.543
256.617
133.781
74.3947
46.5027
33.1377
26.3009
22.4291
19.9169
18.0211
16.4577
1010.81
495.136
260.37
137.614
77.0587
48.1381
34.1105
26.8891
22.8062
20.1862
18.2423
16.6609
986.149
493.442
264.109
141.581
79.9035
49.9248
35.2022
27.5662
23.248
20.5043
18.4987
16.8793
961.053
491.789
267.938
145.762
82.9222
51.8678
36.4084
28.3316
23.7581
20.8721
18.7885
17.1061
935.682
490.056
271.872
150.1
86.1605
53.9769
37.7395
29.1867
24.3362
21.2902
19.1121
17.3618
909.717
488.178
275.919
154.652
89.6135
56.2626
39.2024
30.1405
24.9853
21.7606
19.4733
17.63
882.411
486.065
280.088
159.475
93.2871
58.7388
40.8119
31.1939
25.7072
22.2841
19.869
17.9286
854.784
483.98
284.437
164.535
97.248
61.4299
42.5704
32.3591
26.5065
22.8607
20.3032
18.2427
826.471
481.764
288.999
169.923
101.5
64.3633
44.5034
33.6413
27.388
23.4938
20.7742
18.5876
796.691
479.362
293.831
175.743
106.149
67.5858
46.6437
35.0638
28.3611
24.1883
21.2879
18.96
766.329
476.978
299.042
182.03
111.254
71.1586
49.0187
36.6451
29.4385
24.9524
21.8467
19.3609
734.736
474.544
304.753
189.001
116.942
75.1686
51.6976
38.4189
30.6385
25.7939
22.4555
19.7879
702.037
472.145
311.205
196.811
123.386
79.7517
54.7465
40.4302
31.9879
26.7256
23.1195
20.2591
667.714
469.938
318.64
205.85
130.857
85.0606
58.2905
42.7472
33.5216
27.7681
23.8537
20.7723
631.775
468.417
327.773
216.634
139.764
91.385
62.4878
45.4663
35.2892
28.9481
24.6676
21.341
593.457
468.645
339.727
230.073
150.664
99.0659
67.5363
48.7026
37.3674
30.3038
25.5835
21.9618
552.169
475.245
357.648
247.903
164.495
108.654
73.7698
52.6443
39.8514
31.8931
26.6263
22.6463
502.747
490.883
381.056
270.495
181.192
120.019
81.0838
57.2756
42.7029
33.6859
27.7839
23.4175
61.1166
0.00084889
0.432008
0.358054
0.351312
44.4778
37.7511
155.854
6.62473
2.68003
0.687376
0.00114153
0.00495032
161.95
58.8337
0.000776558
126.165
0.0191639
0.0184234
0.000773397
5.31683
15.6297
0.121895
0.00391003
66.261
0.428295
11.1407
28.4039
1.4587
7.07284
1.1802
456.388
0.000818833
0.665563
0.00461296
6.13276
237.927
0.852366
56.9335
0.00119531
0.525146
0.000767489
0.0669956
5.61084
62.2531
15.0587
0.0123668
0.00211595
62.6289
5.09961
6.06032
149.116
35.1429
0.000758205
43.847
0.000826831
0.000993299
0.000767493
0.853093
58.6584
9.7656
466.968
0.000758161
0.00188944
1.12433
0.000830365
11.13
28.9438
471.65
1.69865
35.6446
0.0140997
53.5618
6.34558
0.00399474
0.000759459
5.73555
0.00075815
0.0384341
27.9949
0.0235774
0.000758164
221.466
52.5453
0.00178943
10.5327
11.4014
0.000758158
0.329016
66.9589
47.5111
2.77026
0.000758147
0.000795201
152.179
0.000760945
29.754
0.000825589
0.000758257
15.4205
28.2732
2.19146
0.000766421
0.000818147
0.000758147
208.784
222.427
274.176
2.09483
0.000758175
0.979723
0.000758168
16.7919
0.000791756
0.000758156
14.6148
0.00252445
0.241452
10.5883
0.045039
18.8927
0.00343817
36.906
1.79325
0.0464623
7.43405
0.000762167
1494.05
0.00364136
0.000758153
197.586
0.000760236
69.9847
0.00082299
11.5611
0.000873833
74.2868
1.08642
15.3513
0.000881276
0.00209997
7.56811
16.2391
0.000759496
46.1788
40.4566
44.1668
0.000858902
10.0169
33.2739
0.000759789
14.2278
0.000758178
0.0379271
0.974474
0.000758403
21.4791
0.000758281
14.1996
0.00109733
0.00334486
0.000776482
0.0356042
0.00184781
7.31871
0.163299
346.145
76.6711
22.7052
0.000758146
43.2096
12.4866
44.1949
0.00224328
0.000758153
1.59742
0.000758148
52.6097
1.27849
3.76325
361.701
0.339859
0.0128988
55.7534
0.000768814
26.6157
0.000759145
0.000758153
58.9231
0.000758151
0.66912
0.000758203
327.911
0.000853986
29.045
22.7886
28.0355
10.4143
0.000758175
103.412
10.0372
49.9463
155.001
18.2724
44.4449
0.0564686
0.0285336
0.0968818
6.28591
0.137359
104.2
8.24373
99.7035
83.9612
0.000758145
39.8208
0.00177253
0.918098
107.292
30.1872
51.6543
10.0614
62.1955
0.000758624
0.000759167
7.69929
10.5404
0.000762194
548.308
0.00305351
373.88
0.0436169
0.000758223
18.4204
0.85409
21.2522
24.1422
11.2713
3.36007
36.7406
0.0445649
0.34692
6.23606
16.1509
74.8135
99.5342
66.7322
0.000774998
8.04656
41.434
1.52126
6.67117
0.339334
2081.29
16.6736
0.130485
8.3584
34.2268
1.17915
61.6553
0.138691
18.9678
0.00169366
0.0275005
500.415
19.585
10.0362
91.0715
0.7806
194.648
47.4366
0.00919857
39.0774
204.278
194.68
42.2073
21.6207
294.329
74.3342
64.5275
345.081
21.8948
59.9332
44.5952
3.97241
28.0503
0.811187
192.146
16.9899
4.60889
63.568
35.9387
216.393
214.405
34.8325
321.65
1.07492
95.9862
0.0132262
153.702
16.64
0.238139
222.395
41.5936
0.853799
7.81934
82.799
0.000758145
0.904424
0.0870769
0.0596108
99.7094
0.000758543
20.3277
50.4654
0.0386141
197.301
8.32443
0.000758151
190.2
0.00381914
1.18684
1.03764
7897.3
126.94
8.46132
2.10746
0.000758206
0.000758638
98.0296
1.1078
0.000758158
0.820879
0.000758215
0.000758674
0.000760764
0.000758145
0.106306
0.000758243
0.00108272
19.0623
98.2947
0.000758758
44.8975
0.000973805
78.6102
269.222
14.4414
351.181
1.32276
0.000758142
0.00076054
0.0341064
1.15419
168.603
0.000758153
0.0255883
63.5795
8.12549
0.337453
28.5229
66.7063
13.0864
312.559
7.13762
0.329391
0.00076644
0.000758168
3.08407
32.4305
0.0201455
34.0672
127.599
4702.97
36.6425
5.77494
41.9683
11.0407
0.000759473
0.575625
4.94857
0.000931303
0.000758253
105.945
1965.96
161.597
0.000758153
0.0166778
8.92867
0.00223489
0.000759512
9.07459
0.429062
34.5613
34.1496
0.00076696
284.262
0.000758338
0.11691
2.07686
0.000937771
0.00156852
18.9838
0.00117703
8.1548
221.015
15.6974
2.74889
67.4259
268.667
0.000758187
0.000758156
0.000758219
14.3489
0.0314669
446.882
3200.28
10.3248
115.941
0.000759089
0.000758172
36.977
0.000758149
0.000758785
189.213
0.000758148
0.135666
8.87386
65.2031
0.000758147
0.00111565
0.0406094
0.0227141
28.8101
0.0310778
0.000758149
261.291
9.49604
1.77146
0.00157701
83.7055
91.9724
0.000945988
32.0304
0.0009311
14.6056
0.000775981
21.7931
1.82526
0.000758153
10.8981
29.2804
397.014
0.001465
0.679081
7.51054
0.000944414
210.636
137.057
0.197133
339.533
0.00275208
0.0085149
0.00139595
25.0019
5.31358
0.302086
4.55145
11.3725
439.33
0.0845704
265.785
896.701
0.000758148
40.9215
9.39274
21.6722
0.000758156
44.844
21.291
0.000758188
249.976
52.6076
0.167946
0.0461662
32.7447
224.554
0.000776438
0.00229988
8.55635
0.00461893
0.000758546
374.82
349.478
0.00455411
32.2592
14.3927
0.254574
92.2102
70.8815
7.72778
39.9953
64.3803
0.000759269
0.164677
117.326
40.8867
24.1654
35.9997
14.8092
266.339
324.937
16.5116
0.156591
0.000758203
71.0261
146.868
6.3828
0.908635
2.67044
0.0193774
0.87951
0.000758328
43.6881
0.000758178
28.3671
1.01228
221.57
31.6624
11.0265
231.413
19.4162
6.17033
46.2349
0.000758722
0.299483
9.73947
760.677
15.0894
2.2931
0.000780927
0.00326783
0.448884
21.067
1.59369
0.000758164
0.00814988
0.000758143
0.0110611
25.8832
0.00798464
16.5911
5.72246
194.217
0.0318835
0.507643
425.239
543.678
0.000758165
0.000758161
9.62203
49.832
32.6679
1.09348
0.355134
5.84499
44.0373
0.000758146
1.17423
22.1502
0.000874598
15.231
15.6305
27.3129
29.3605
0.00108294
0.000758141
0.00267853
0.0007583
2.53243
2.06235
345.3
2.20002
0.000759527
29.2497
0.0356026
284.852
3.766
44.3149
0.000758152
0.0459915
0.000758159
87.0632
497.069
49.8799
0.306388
0.000758141
19.4469
5.81105
113.417
0.000758258
0.00112087
14.5592
5.03439
0.000898819
1281.53
0.00078688
6.91787
2.12149
0.000781235
4.22294
0.015839
0.0824698
0.000758163
0.000758159
11.5963
84.2557
43.9574
127.824
0.000854801
4.5581
0.0338526
9.56335
19.2128
0.000760756
3.3351
492.448
0.000758144
0.00100885
68.9467
298.777
18.2795
0.000758545
578.164
18.7898
24.669
0.00267547
6.51135
290.729
0.000759522
181.204
4.58347
39.9302
0.601961
3.96516
32.7584
17.6518
20.211
28.7027
2979.93
0.000761023
0.00075828
29.9685
10.3182
0.000846438
0.000758149
0.658968
0.000758152
9.04163
97.2164
0.0822235
0.000758272
5.21398
0.000758343
55.5434
9.00629
66.9719
0.135494
6.39386
24.66
0.000758144
1.34779
9.99074
44.4205
1.43672
0.00089994
0.809368
0.201846
2635.53
0.00075817
7.17114
6.85558
33.3864
0.000764113
0.0236545
72.3651
160.443
10.9464
0.0126815
43.2506
70.2323
0.391037
60.2315
0.000758183
0.000958221
1.44697
0.000758153
31.3821
0.000758212
246.397
0.00151388
11.5694
0.000758382
2.10914
139.605
20.5495
0.633767
5.68931
0.34078
50.6707
0.00213107
0.0195455
1.5691
0.000758165
0.000758151
52.6593
0.336312
230.041
58.7352
0.000762622
188.01
199.147
186.157
0.525007
42.5518
204.614
0.000758152
2273.51
2620.39
111.284
0.00076061
0.00102542
64.777
40.933
0.000758243
14.5059
0.000758164
0.0111681
69.442
0.000776715
30.4895
0.000758148
0.0216369
280.497
0.000762394
0.000813192
0.000758144
0.000796984
0.00289289
333.038
11.3498
0.39647
29.4836
0.000758149
8.86396
0.00075822
28.7523
0.142483
0.00162586
8.55423
0.00113199
11.3264
0.000758909
6090.58
12.1488
2.35977
91.0185
8.49761
0.000758148
50.0172
56.8077
4.97974
4.83294
9.5399
41.7702
45.3642
0.00569107
4.69438
0.0682712
0.000803259
0.272256
2524.07
35.9941
1.92714
0.000758149
53.0654
0.000792852
0.637138
8.12485
53.5977
13.8232
10.2891
0.00492816
0.00107941
81.9919
18.9153
0.00840426
31.1061
0.000758699
211.298
45.8951
0.000763592
37.0266
12.4051
2.92718
0.0547261
30.6127
0.0032988
0.361601
1.07626
0.180017
0.170541
0.000758364
2.97434
0.0180516
317.265
50.9392
89.929
17.0564
0.00108208
3.45446
0.000758159
0.000758216
21.5216
0.046373
4.6669
44.5624
0.000758143
11.16
0.120411
0.0119817
0.00076001
32.0668
0.740886
0.530856
5.45066
0.0102436
410.821
8.66368
0.000758175
383.342
63.9521
0.000863469
0.000989586
79.533
3.67658
0.589071
363.408
0.00399083
0.167164
0.195078
0.0317854
5.17621
126.718
0.000758164
19.9886
17.8848
0.00114688
0.150672
550.678
13.9
0.000758201
0.000758155
4.40326
26.2273
11.4629
0.000758145
3.73096
0.173761
70.7801
0.000796821
399.087
10.6607
0.000867156
20.7667
0.000760186
17.2619
80.9053
70.9151
96.6185
0.000758406
0.000758147
15.6862
18.9673
0.355611
5.8614
0.000758144
0.00777277
0.00075986
0.000924433
5.38861
0.0203032
0.450609
1.52152
17.4819
284.243
45.0047
8.91948
0.000758294
74.7727
5.67655
43.77
0.000758154
5.37476
0.000759932
0.000758183
0.515115
18.9918
0.00294668
223.407
28.3939
74.9673
0.000762771
0.000857544
0.00602134
205.653
0.312935
259.919
0.000758466
0.000758501
0.00102055
0.0011293
31.4331
5.88265
204.812
0.0455585
0.00525054
0.232183
10.2607
111.156
27.0394
11.2264
35.0608
0.000758149
168.143
0.000940858
0.390157
11.3293
27.0953
0.637828
0.931066
0.000796739
18.9617
0.571701
4.50394
72.5256
0.000758346
142.23
8.09275
427.792
0.00078904
10.1173
123.151
11.2857
459.207
40.0082
284.506
0.0314977
491.283
45.3267
0.0234209
213.162
0.000758678
17.5938
337.303
0.000758247
7.15244
0.000868707
320.248
223.464
0.126215
39.5922
208.062
12.3632
26.2686
1.62828
70.9567
18.6087
0.00145479
0.00075819
3.51178
0.0123904
2.74224
120.685
15.4595
9.52272
328.426
0.000758207
29.0909
636.521
346.551
22.23
80.1511
1.59016
43.9106
136.914
0.116848
0.00296321
0.241291
200.488
13.7854
0.0212002
8.79296
15.6952
12.8645
27.4519
0.19216
1.08585
4.64096
0.000758156
55.7797
196.744
3.23792
0.000758141
2.34
1.39097
42.7234
0.000758463
341.961
0.000758294
20.6347
0.0282567
0.000759457
4.91094
212.71
0.000758148
94.5856
65.0175
4.03389
18.3298
93.1895
30.2076
3.94968
62.8067
4.66481
0.000758355
0.000840253
84.4144
10.4221
0.000758195
0.000759098
209.546
0.000929133
1.83389
0.0241668
0.680163
15.3632
0.0106465
0.978476
1362.83
38.6543
62.4652
526.487
9.21049
0.000758175
98.3377
1.57763
41.4011
0.000758187
15.1465
0.000758142
0.000779775
33.6017
0.287707
0.00454098
0.000770244
11.6231
1527.52
0.0010046
0.00075857
4.18861
47.812
0.00187519
0.0200373
1597.68
0.796764
0.000768756
0.000758806
12.4221
15.5403
1.43842
0.0468398
135.403
336.611
62.5864
229.382
6.55956
0.000758145
1.66295
0.000758301
133.75
14.3482
1238.5
13.6837
0.0164855
0.000790726
20.1509
0.00075815
0.00075825
0.000886481
30.304
42.5636
10.1792
0.00075825
2.2732
0.000758521
228.567
10.1755
0.000758154
346.854
22.1538
0.000758288
0.000764309
0.00559845
31.0791
0.349682
0.00316007
0.000758673
0.000758374
220.888
172.319
37.8504
4.3066
0.587274
68.2554
0.000758275
0.00157819
0.42791
349.201
9.15344
0.00107792
0.00075818
79.7928
0.000758515
154.475
282.805
0.493586
0.00516241
191.861
2.22698
8.70734
0.000758252
0.565978
15.1036
208.329
0.000827375
0.00442678
3.35701
2884.98
0.0110471
0.289933
0.000758146
0.000758181
0.000759816
0.00243046
73.0789
11.2289
0.000758166
168.824
2.18211
507.585
19.4471
0.00235516
0.000998354
0.000777225
7.07318
67.5137
38.4659
0.000758512
15.2915
0.000758211
0.00187008
16.5014
7.42202
0.00343862
0.327475
0.667015
0.000815679
0.860864
11.2269
0.000758146
0.000796295
34.0473
0.000783469
0.00075856
317.542
65.9101
3068.68
15.6874
735.471
0.000772168
0.000758246
1958.21
43.2441
0.0734603
0.525252
0.00927753
27.0874
0.0956178
746.491
6.27298
134.212
347.918
208.712
2.84369
69.5592
169.292
0.00182954
206.229
0.000791059
75.4698
6.15232
1.5684
0.587081
17.4432
0.291118
4.65655
94.8982
48.2241
116.737
73.0011
120.125
7.16558
0.652672
0.00081049
0.000758164
0.0357263
51.645
0.000758147
16.5545
0.000758339
0.00106397
264.832
152.208
6.39005
364.327
666.047
12.6668
1.2241
102.346
0.000758609
30.3951
13.5843
0.000760786
54.6869
0.000949418
882.807
379.716
391.898
14.7954
87.0333
0.737118
0.893696
36.4325
17.107
29.038
2.6947
11.6882
126.619
0.0214093
215.94
243.015
0.00125258
3.79937
0.000758151
0.000807985
36.144
25.0144
312.384
31.6126
0.0672246
0.0199849
0.282884
0.000758792
41.5007
0.000758584
516.995
0.000758219
0.108517
378.809
13.774
0.175183
326.188
185.744
0.000916342
0.000760001
0.114697
16.304
0.0553771
362.428
0.00505129
56.4746
18.7861
60.0672
86.9974
0.00077922
0.000758143
21.5106
0.0901996
13.5085
14.5703
3.29814
4.87392
0.00121812
32.2593
147.442
208.498
0.000773363
0.144687
58.0516
177.717
0.0653532
28.9409
0.000758547
0.829076
0.000758403
152.362
0.00148421
69.211
0.0747474
0.739814
0.000762252
1054.43
0.000758155
29.2202
0.00185784
0.000758731
0.00107405
37.3682
0.000758162
0.000758178
1.20366
0.00452459
44.1304
0.00835967
0.000761643
43.5103
16.6664
95.7847
0.000764883
224.848
12.5194
505.062
9.87129
63.5099
63.7774
185.612
0.319524
217.073
266.52
101.464
0.000758535
6.44606
46.3073
46.572
0.000904813
0.00075859
40.0915
664.205
0.000758139
0.234523
22.0329
0.000758146
11.0345
12.6907
292.994
196.664
13.6332
16.4142
0.0339884
50.5193
0.648452
14.4324
9.08532
115.458
0.717712
0.000758159
76.1823
0.000921605
0.000758277
0.000758292
135.419
0.000758143
0.000784555
2.15909
5455.33
0.285108
6.4636
8.66634
28.7172
0.0007591
66.0073
360.533
0.00314698
12.8361
7.63557
117.618
0.188413
0.00329367
0.000758171
0.000758354
0.00390666
0.0114189
65.8129
55.0976
14.6354
20.5028
36.2492
0.000806537
106.42
72.1944
0.000758175
41.944
266.89
0.000760086
0.565787
191.056
11.5304
256.628
0.0473987
27.8658
0.000776564
0.0593109
0.000764657
0.00103868
0.000758162
16.1834
1.56327
0.0101508
0.000758152
0.00075815
324.802
51.9254
0.164799
37.6341
0.392121
73.7637
33.4429
111.867
66.196
0.000758154
0.0421661
1.48959
0.0278779
41.2583
14.7882
11.761
265.172
67.9559
18.1673
346.897
15.2484
123.696
3.40882
0.133625
13.0957
63.832
0.00212341
112.008
8.20073
0.685793
0.000758232
0.000758157
0.000781241
0.00082253
136.484
0.000758141
350.043
59.5785
343.664
3.03754
0.000758632
0.816121
35.553
127.306
27.182
55.2046
1.0893
0.00076223
0.000758146
0.00112658
0.0161689
0.000758314
228.652
33.8884
4.8739
12.4003
1.0983
93.8491
383.261
0.000758146
39.3009
5.48517
0.000793829
0.0361891
148.78
283.182
1.34925
12.7498
0.000761849
31.3375
99.6401
0.000792422
0.00244896
0.000758212
89.6568
0.000846607
0.730569
23.8653
1.28193
0.0115128
3.21904
2678.9
0.000762075
2.30212
0.000758146
22.2492
46.9365
52.1376
2.02978
120.401
5.46994
89.4931
51.4087
11.0588
0.000758191
0.000758149
0.012699
0.0330679
64.2168
12.191
0.000759672
36.3938
0.325875
0.00118413
14.4478
0.00898735
0.000989513
0.00545086
15.1094
0.000917784
0.000759427
51.8259
89.7022
2.55632
0.0062884
118.172
14.9305
0.000760044
30.5283
0.0183541
0.00858204
0.000768552
28.6245
1.30156
11.1497
30.3188
15.0983
21.6146
0.305599
0.000758176
61.9207
0.00075844
68.6646
0.00101359
65.8427
0.0205278
8.79887
0.00107092
0.0013556
23.4431
0.226168
356.122
0.000770452
0.274248
115.971
287.794
16.7223
185.263
2.93341
0.000771254
0.000758147
199.915
2.51408
211.513
0.136857
0.107553
128.586
52.6129
15.671
0.0488838
0.000758534
0.000758146
2.51684
557.929
1.69384
16.16
0.000774234
0.00151929
2.64958
133.675
59.6369
12.0836
155.557
11.0396
0.00075815
0.000760245
51.8794
225.729
11.2221
277.946
124.843
0.00662299
28.7628
0.0007588
328.278
0.00196626
0.00267011
0.000758388
0.00673492
0.0611784
9.06814
9.70892
0.000758665
232.037
0.000758649
254.667
29.6354
0.000758146
0.599438
0.000758633
21.6525
0.0409707
15.5741
0.000758163
31.5026
215.953
29.221
5.27953
3.00047
7.95784
21.5924
13.9782
82.9399
16.024
3.16842
0.000798341
0.000760018
59.73
0.769855
8.82252
0.000758177
30.6255
0.000758142
0.000916712
0.000758188
0.000758624
153.219
21.9653
0.000762416
2.05964
0.191853
0.0159887
3.55367
0.000993573
0.00075832
111.116
0.645105
0.000759275
10.7894
1052.48
19.3337
4.4496
50.327
0.028039
0.00075815
0.000787249
0.00416249
3.34891
11.4173
34.6421
182.729
13.6964
125.501
0.796151
16.7812
6.96076
27.5845
315.998
0.011147
0.0210495
64.4676
12.5369
0.000768528
0.0851574
1.54163
371.706
0.000758577
134.816
0.000758146
0.00168571
216.871
0.000759453
160.373
681.97
0.000758139
200.595
0.000759236
14.2612
0.00102504
0.00080798
13.3432
18.3323
12.0693
0.528601
14.0134
496.209
341.723
11.8785
4.71098
92.9083
0.000758154
323.833
0.00955178
14.7328
4.22649
1.08477
0.000758155
0.000819053
257.313
19.6322
30.1992
12.0901
36.2317
0.00102986
0.000758179
0.000760808
4.50925
119.686
2.25492
0.000758292
599.608
37.0738
0.00149119
0.0150312
2.57115
0.000758141
0.566236
0.000762427
0.000758143
35.0536
3.41236
0.00716951
0.00116251
0.000758186
2.89718
0.204783
37.2947
0.00120626
0.00630125
0.00134432
10.7489
269.233
2.16593
0.000758902
31.538
0.000765634
0.00629918
0.00107328
0.000888621
26.9162
11.6407
0.000759223
9.92093
0.000758193
0.000758174
0.000786255
8.09714
38.4279
115.968
99.5966
2.53602
9.05088
0.00777992
0.000758144