/*--------------------------------*- C++ -*----------------------------------*\
| =========                 |                                                 |
| \\      /  F ield         | OpenFOAM: The Open Source CFD Toolbox           |
|  \\    /   O peration     | Version:  2.3.1                                 |
|   \\  /    A nd           | Web:      www.OpenFOAM.org                      |
|    \\/     M anipulation  |                                                 |
\*---------------------------------------------------------------------------*/
FoamFile
{
    version     2.0;
    format      ascii;
    class       volScalarField;
    location    "0.02";
    object      p;
}
// * * * * * * * * * * * * * * * * * * * * * * * * * * * * * * * * * * * * * //

dimensions      [0 2 -2 0 0 0 0];

internalField   nonuniform List<scalar> 
15166
(
2.14376
-3.68853
-6.82711
-9.27869
-11.2942
-12.9861
-14.4719
-15.7495
-16.8485
-17.7099
-18.4836
-19.1099
-3.47144
-6.45907
-7.99275
-9.85753
-11.5624
-13.0862
-14.4538
-15.6668
-16.7242
-17.6025
-18.3795
-19.0267
-9.59587
-10.6503
-10.9174
-11.9722
-13.0584
-14.1542
-15.2161
-16.1978
-17.0896
-17.867
-18.5593
-19.1472
-13.1611
-13.6358
-13.5752
-14.2138
-14.8517
-15.5774
-16.3343
-17.0712
-17.7691
-18.4012
-18.9753
-19.4674
-15.4279
-15.7146
-15.6387
-16.1034
-16.5047
-17.0022
-17.5392
-18.0809
-18.6101
-19.1042
-19.5633
-19.9712
-17.4199
-17.5485
-17.4446
-17.7742
-18.0232
-18.3694
-18.7483
-19.1398
-19.531
-19.9048
-20.2578
-20.579
-19.3333
-19.3217
-19.1674
-19.3637
-19.4854
-19.7063
-19.955
-20.2218
-20.4953
-20.7616
-21.0141
-21.2413
-21.106
-20.9923
-20.8003
-20.8845
-20.9022
-21.0153
-21.1525
-21.312
-21.4831
-21.655
-21.8201
-21.9643
-22.721
-22.5308
-22.3174
-22.3158
-22.2545
-22.2801
-22.3251
-22.3943
-22.4781
-22.5685
-22.6595
-22.7434
-24.203
-23.9512
-23.7251
-23.656
-23.535
-23.4904
-23.4606
-23.455
-23.4651
-23.4851
-23.5078
-23.5247
-25.5782
-25.2763
-25.0409
-24.916
-24.7479
-24.6459
-24.5546
-24.4864
-24.4337
-24.3929
-24.3566
-24.3025
-26.8669
-26.5222
-26.2792
-26.1068
-25.9001
-25.7496
-25.6069
-25.486
-25.38
-25.2874
-25.2061
-25.1178
-28.078
-27.6975
-27.4487
-27.2353
-26.9966
-26.8046
-26.6185
-26.4527
-26.3008
-26.1623
-26.0374
-25.9137
-29.2205
-28.8092
-28.5558
-28.3071
-28.0416
-27.814
-27.5907
-27.3857
-27.1933
-27.0118
-26.833
-26.6455
-30.302
-29.8639
-29.6068
-29.327
-29.0386
-28.7803
-28.5252
-28.2868
-28.0603
-27.8484
-27.653
-27.4399
-31.3285
-30.867
-30.6066
-30.2994
-29.9916
-29.7065
-29.4241
-29.1567
-28.9
-28.6558
-28.4292
-28.2122
-32.305
-31.8231
-31.5599
-31.2283
-30.9035
-30.5948
-30.2884
-29.9955
-29.7127
-29.4405
-29.1824
-28.9424
-33.237
-32.7363
-32.4702
-32.1166
-31.7769
-31.4472
-31.1199
-30.8046
-30.4991
-30.2043
-29.9217
-29.657
-34.1268
-33.6098
-33.341
-32.9675
-32.6147
-32.2662
-31.9201
-31.5847
-31.2586
-30.9434
-30.6391
-30.3471
-34.9783
-34.4465
-34.175
-33.7834
-33.4188
-33.0532
-32.6903
-32.3365
-31.9915
-31.6571
-31.3348
-31.0264
-35.7939
-35.2487
-34.9746
-34.5665
-34.1912
-33.81
-33.4319
-33.0615
-32.699
-32.3463
-32.0057
-31.6884
-36.5754
-36.0183
-35.742
-35.3187
-34.9337
-34.5384
-34.1464
-33.7608
-33.3824
-33.012
-32.6477
-32.2983
-37.3286
-36.759
-36.4795
-36.042
-35.6482
-35.24
-34.8356
-34.4365
-34.0443
-33.6611
-33.2855
-32.9212
-38.0507
-37.4696
-37.1882
-36.7378
-36.336
-35.9161
-35.5005
-35.0894
-34.6852
-34.29
-33.9027
-33.5245
-38.7379
-38.1516
-37.869
-37.4071
-36.998
-36.5675
-36.1417
-35.7196
-35.3041
-34.8974
-34.499
-34.1012
-39.4058
-38.8098
-38.5243
-38.0513
-37.6357
-37.1952
-36.7601
-36.3277
-35.9015
-35.4835
-35.0742
-34.6686
-40.0474
-39.4426
-39.1554
-38.6719
-38.25
-37.8002
-37.3565
-36.9145
-36.4785
-36.0509
-35.6334
-35.2156
-40.6633
-40.0531
-39.7629
-39.2695
-38.8418
-38.3834
-37.9315
-37.4807
-37.0354
-36.597
-36.1672
-35.7386
-41.2509
-40.6397
-40.3473
-39.8449
-39.4119
-38.9455
-38.4862
-38.0272
-37.5736
-37.1267
-36.6878
-36.2484
-41.818
-41.2045
-40.9094
-40.3988
-39.961
-39.4872
-39.0212
-38.5548
-38.0941
-37.6404
-37.1962
-36.7447
-42.3667
-41.7491
-41.4502
-40.9321
-40.4898
-40.0092
-39.5368
-39.0637
-38.596
-38.1351
-37.6844
-37.2301
-42.8992
-42.2737
-41.9716
-41.4459
-40.999
-40.5118
-40.0335
-39.5539
-39.0796
-38.6117
-38.1548
-37.692
-43.3993
-42.7752
-42.4721
-41.9396
-41.4887
-40.9953
-40.5116
-40.0259
-39.5453
-39.0703
-38.6056
-38.1419
-43.8883
-43.2593
-42.9528
-42.414
-41.9594
-41.4605
-40.9716
-40.4802
-39.9942
-39.5136
-39.0433
-38.5717
-44.3573
-43.7236
-43.4154
-42.8701
-42.4118
-41.9075
-41.4139
-40.9174
-40.4263
-39.9406
-39.4651
-38.9936
-44.8023
-44.1682
-43.8591
-43.3079
-42.8464
-42.3369
-41.8387
-41.3372
-40.8412
-40.3511
-39.8718
-39.3954
-45.2313
-44.595
-44.2852
-43.7277
-43.2631
-42.7488
-42.2462
-41.7397
-41.2384
-40.7418
-40.2538
-39.7709
-45.6486
-45.0055
-44.6941
-44.1302
-43.6627
-43.1437
-42.6368
-42.1255
-41.6193
-41.1172
-40.6209
-40.1227
-46.0378
-45.3959
-45.0853
-44.5153
-44.0454
-43.522
-43.0113
-42.4958
-41.9853
-41.4794
-40.9784
-40.4547
-46.4189
-45.7711
-45.4597
-44.8833
-44.4114
-43.8839
-43.37
-42.851
-42.3374
-41.8304
-41.3397
-40.8338
-46.7758
-46.1284
-45.8162
-45.2342
-44.7609
-44.2298
-43.7129
-43.1906
-42.6735
-42.1597
-41.6569
-41.1648
-47.1175
-46.4713
-46.1548
-45.5682
-45.094
-44.5594
-44.0396
-43.5142
-42.9943
-42.4784
-41.9723
-41.4623
-47.4481
-46.7987
-46.4774
-45.8869
-45.4113
-44.8731
-44.3507
-43.8221
-43.2991
-42.7803
-42.2708
-41.7557
-47.7526
-47.1076
-46.7849
-46.1893
-45.7129
-45.1712
-44.6463
-44.1147
-43.5885
-43.0664
-42.5551
-42.0383
-48.05
-47.4024
-47.0765
-46.4759
-45.9989
-45.4539
-44.9266
-44.3922
-43.8631
-43.3377
-42.8226
-42.3082
-48.3244
-47.6789
-47.3521
-46.7464
-46.2697
-45.7215
-45.192
-44.6549
-44.1233
-43.5957
-43.0795
-42.5691
-48.5849
-47.9399
-47.612
-47.0016
-46.5258
-45.9741
-45.4425
-44.9028
-44.3686
-43.8374
-43.3143
-42.7983
-48.8274
-48.1843
-47.8541
-47.2439
-46.7676
-46.2121
-45.6785
-45.1363
-44.5997
-44.0666
-43.5422
-43.0277
-49.0589
-48.4154
-48.0814
-47.4704
-46.9949
-46.4354
-45.9001
-45.3556
-44.8169
-44.2816
-43.7529
-43.2326
-49.2747
-48.6331
-48.2934
-47.6817
-47.2074
-46.6436
-46.1072
-45.5607
-45.0202
-44.4836
-43.955
-43.4365
-49.4711
-48.8344
-48.4897
-47.8802
-47.4045
-46.8366
-46.2997
-45.7516
-45.2093
-44.6704
-44.1373
-43.6122
-49.6568
-49.0218
-48.6711
-48.0689
-47.5868
-47.014
-46.4782
-45.9285
-45.3847
-44.8439
-44.3076
-43.7667
-49.8265
-49.1941
-48.8401
-48.2416
-47.75
-47.179
-46.6441
-46.0925
-45.5478
-45.0074
-44.4765
-43.9461
-49.9777
-49.3502
-48.9933
-48.3973
-47.8989
-47.3334
-46.797
-46.2427
-45.6972
-45.1555
-44.6236
-44.0898
-50.1181
-49.4927
-49.1329
-48.5379
-48.0374
-47.4744
-46.9326
-46.3778
-45.8314
-45.2876
-44.7537
-44.2195
-50.2419
-49.6212
-49.2589
-48.6644
-48.1621
-47.5989
-47.0549
-46.4997
-45.9519
-45.406
-44.8688
-44.3355
-50.3561
-49.735
-49.3708
-48.7767
-48.2727
-47.7092
-47.1641
-46.6085
-46.06
-45.5137
-44.9766
-44.4465
-50.4453
-49.8343
-49.4681
-48.8747
-48.3694
-47.8057
-47.2599
-46.7042
-46.1552
-45.6084
-45.0684
-44.532
-50.5311
-49.9184
-49.5509
-48.9583
-48.4522
-47.8885
-47.3421
-46.7863
-46.2373
-45.6918
-45.1577
-44.6347
-50.5956
-49.9876
-49.6197
-49.0274
-48.5209
-47.9574
-47.4104
-46.8544
-46.3048
-45.7578
-45.2179
-44.6887
-50.6468
-50.0431
-49.6743
-49.0833
-48.5759
-48.0124
-47.4649
-46.9084
-46.358
-45.8104
-45.2696
-44.7307
-50.6889
-50.0874
-49.7164
-49.1257
-48.6176
-48.0541
-47.5061
-46.9493
-46.3979
-45.8493
-45.3068
-44.7587
-50.7161
-50.1154
-49.7443
-49.1543
-48.6458
-48.0824
-47.5343
-46.9776
-46.4262
-45.878
-45.3395
-44.8061
-50.7241
-50.1283
-49.7578
-49.169
-48.6604
-48.0975
-47.5496
-46.9934
-46.4426
-45.8943
-45.3532
-44.8153
-50.7213
-50.1279
-49.7573
-49.1698
-48.6614
-48.0994
-47.5519
-46.9964
-46.4464
-45.8995
-45.3618
-44.8294
-50.7022
-50.1138
-49.7436
-49.1573
-48.6492
-48.0878
-47.5409
-46.9862
-46.4368
-45.8905
-45.352
-44.8172
-50.6711
-50.0874
-49.7166
-49.1315
-48.6235
-48.0629
-47.5165
-46.9625
-46.4137
-45.8685
-45.3328
-44.806
-50.6334
-50.0472
-49.6758
-49.092
-48.5844
-48.0246
-47.4786
-46.9254
-46.3771
-45.8317
-45.2935
-44.7653
-50.5671
-49.9897
-49.6201
-49.0385
-48.5314
-47.9727
-47.4276
-46.8751
-46.3276
-45.7833
-45.2472
-44.7295
-50.4934
-49.9201
-49.5514
-48.9714
-48.4652
-47.9075
-47.3633
-46.8116
-46.265
-45.7214
-45.1829
-44.6627
-50.4085
-49.8389
-49.4695
-48.8915
-48.3857
-47.8291
-47.2859
-46.7352
-46.1895
-45.6474
-45.1104
-44.5982
-50.3104
-49.7422
-49.3742
-48.7981
-48.2932
-47.7376
-47.1953
-46.6458
-46.1011
-45.5602
-45.0226
-44.5047
-50.1988
-49.6344
-49.2656
-48.6911
-48.1871
-47.633
-47.0917
-46.5434
-45.9994
-45.4595
-44.9215
-44.3977
-50.0653
-49.5082
-49.1424
-48.571
-48.068
-47.5155
-46.9755
-46.4285
-45.8858
-45.3476
-44.8139
-44.3007
-49.9209
-49.3694
-49.0057
-48.437
-47.9356
-47.3849
-46.8465
-46.3011
-45.7599
-45.2227
-44.6877
-44.1653
-49.7727
-49.223
-48.8579
-48.2908
-47.7903
-47.2414
-46.7047
-46.1611
-45.6217
-45.087
-44.557
-44.0459
-49.6046
-49.0594
-48.6958
-48.1314
-47.6324
-47.0851
-46.5502
-46.0087
-45.4712
-44.938
-44.4077
-43.8926
-49.4231
-48.8806
-48.5193
-47.9581
-47.4609
-46.9158
-46.3826
-45.8433
-45.3081
-44.7777
-44.2519
-43.7463
-49.2264
-48.69
-48.3297
-47.7712
-47.2758
-46.7328
-46.202
-45.6649
-45.1319
-44.6039
-44.0788
-43.5695
-49.0115
-48.483
-48.1254
-47.5706
-47.0771
-46.5365
-46.0079
-45.473
-44.9427
-44.4177
-43.899
-43.4054
-48.7888
-48.2643
-47.908
-47.3567
-46.865
-46.3269
-45.8003
-45.2675
-44.7391
-44.2153
-43.6939
-43.1931
-48.5538
-48.0331
-47.6784
-47.1299
-46.64
-46.1041
-45.5795
-45.0486
-44.5217
-43.9987
-43.476
-42.9642
-48.3035
-47.7873
-47.4341
-46.8892
-46.4015
-45.8682
-45.3457
-44.8175
-44.2932
-43.7737
-43.2575
-42.7531
-48.0377
-47.5271
-47.176
-46.635
-46.1496
-45.6191
-45.0995
-44.5744
-44.0536
-43.5385
-43.0306
-42.5461
-47.7569
-47.2525
-46.904
-46.3669
-45.884
-45.3565
-44.8398
-44.3177
-43.7996
-43.2861
-42.7756
-42.2826
-47.4606
-46.9645
-46.6186
-46.0855
-45.6052
-45.0804
-44.5664
-44.0471
-43.5316
-43.0207
-42.5138
-42.0301
-47.1603
-46.6652
-46.32
-45.791
-45.3128
-44.7909
-44.2798
-43.7632
-43.2507
-42.7425
-42.2361
-41.745
-46.839
-46.3498
-46.0071
-45.4823
-45.0068
-44.4882
-43.98
-43.4668
-42.9578
-42.4541
-41.9555
-41.487
-46.5014
-46.0188
-45.6793
-45.159
-44.6869
-44.1717
-43.667
-43.1573
-42.6516
-42.1517
-41.6552
-41.1922
-46.1497
-45.6741
-45.3379
-44.8224
-44.3532
-43.8416
-43.3402
-42.8338
-42.3311
-41.8338
-41.3379
-40.8788
-45.7853
-45.3152
-44.9819
-44.4711
-44.0053
-43.4975
-42.9996
-42.4964
-41.9968
-41.5016
-41.0018
-40.5153
-45.4069
-44.9427
-44.6124
-44.1066
-43.6441
-43.1401
-42.646
-42.147
-41.6522
-41.1643
-40.6809
-40.241
-45.0155
-44.558
-44.2294
-43.7284
-43.2691
-42.7691
-42.2792
-41.7846
-41.2946
-40.8113
-40.3273
-39.8719
-44.611
-44.1563
-43.8312
-43.3356
-42.88
-42.3842
-41.8981
-41.4077
-40.9216
-40.4417
-39.9615
-39.5108
-44.1834
-43.7392
-43.4182
-42.928
-42.4761
-41.9847
-41.5026
-41.0167
-40.5348
-40.0592
-39.5832
-39.1297
-43.7511
-43.3093
-42.9902
-42.5052
-42.0577
-41.5707
-41.0932
-40.6121
-40.1351
-39.6653
-39.1988
-38.766
-43.3016
-42.8644
-42.548
-42.0682
-41.6245
-41.1424
-40.6696
-40.1934
-39.721
-39.255
-38.7879
-38.3414
-42.8235
-42.3978
-42.0881
-41.6152
-41.1764
-40.6995
-40.2315
-39.7606
-39.2936
-38.8333
-38.3748
-37.9469
-42.3438
-41.9221
-41.614
-41.147
-40.713
-40.2418
-39.7792
-39.3137
-38.8529
-38.399
-37.9456
-37.5144
-41.8434
-41.4287
-41.1248
-40.664
-40.2352
-39.7693
-39.3122
-38.8527
-38.3981
-37.9513
-37.5097
-37.1053
-41.3305
-40.92
-40.6195
-40.165
-39.7413
-39.2815
-38.8299
-38.3764
-37.9273
-37.4847
-37.042
-36.6248
-40.7941
-40.3926
-40.0974
-39.6503
-39.2321
-38.7782
-38.3325
-37.8848
-37.4413
-37.0042
-36.5657
-36.1444
-40.2437
-39.8497
-39.5594
-39.1197
-38.7072
-38.2599
-37.8207
-37.3795
-36.9432
-36.5149
-36.0907
-35.6933
-39.6839
-39.2933
-39.0062
-38.5735
-38.1669
-37.7263
-37.294
-36.86
-36.4313
-36.0105
-35.5941
-35.2076
-39.1019
-38.7197
-38.4371
-38.0112
-37.6108
-37.1771
-36.7515
-36.3247
-35.9031
-35.4883
-35.0742
-34.6802
-38.5046
-38.1276
-37.85
-37.4323
-37.0383
-36.612
-36.1932
-35.774
-35.3601
-34.954
-34.5519
-34.1791
-37.8864
-37.5184
-37.2456
-36.836
-36.4488
-36.0305
-35.6194
-35.2081
-34.8024
-34.4043
-34.0081
-33.6323
-37.2551
-36.8919
-36.6233
-36.2221
-35.8426
-35.4324
-35.0298
-34.6272
-34.2299
-33.8401
-33.4525
-33.0855
-36.6041
-36.246
-35.9836
-35.5914
-35.2194
-34.818
-34.4241
-34.031
-33.6435
-33.2645
-32.8906
-32.5458
-35.9293
-35.5816
-35.325
-34.9419
-34.5782
-34.1868
-33.8024
-33.4191
-33.0418
-32.6731
-32.3065
-31.9604
-35.2396
-34.8983
-34.6481
-34.2747
-33.9199
-33.5385
-33.1641
-32.791
-32.4246
-32.0671
-31.715
-31.3965
-34.5279
-34.1953
-33.9519
-33.5887
-33.2432
-32.8723
-32.5086
-32.1466
-31.7914
-31.4441
-31.0974
-30.7726
-33.8034
-33.4763
-33.2378
-32.8846
-32.5486
-32.1887
-31.8363
-31.4861
-31.1429
-30.8087
-30.4766
-30.1668
-33.0558
-32.7355
-32.5026
-32.1605
-31.8349
-31.4874
-31.1468
-30.8095
-30.4801
-30.1614
-29.8494
-29.5644
-32.2822
-31.9721
-31.7479
-31.417
-31.1023
-30.7672
-30.4396
-30.1156
-29.7999
-29.4933
-29.1891
-28.9016
-31.4961
-31.1889
-30.9704
-30.6515
-30.3486
-30.0271
-29.7135
-29.4041
-29.1031
-28.8121
-28.5274
-28.2732
-30.6755
-30.3796
-30.1706
-29.8648
-29.5745
-29.2674
-28.9688
-28.6752
-28.3904
-28.116
-27.8455
-27.594
-29.8362
-29.5486
-29.3471
-29.0549
-28.7786
-28.4877
-28.2053
-27.9289
-27.6615
-27.4053
-27.1558
-26.9375
-28.9705
-28.6944
-28.5017
-28.2232
-27.9613
-27.687
-27.422
-27.1643
-26.9162
-26.6784
-26.4445
-26.2326
-28.0875
-27.8151
-27.6305
-27.367
-27.1214
-26.8655
-26.6196
-26.3815
-26.1541
-25.9378
-25.7267
-25.5398
-27.1714
-26.9077
-26.7335
-26.4858
-26.2573
-26.0216
-25.7971
-25.5811
-25.3762
-25.1834
-24.9976
-24.8291
-26.2202
-25.9697
-25.8073
-25.5781
-25.3688
-25.1554
-24.9542
-24.7627
-24.5821
-24.4128
-24.2481
-24.0988
-25.2463
-25.0052
-24.8533
-24.6429
-24.4554
-24.2666
-24.0914
-23.9274
-23.7753
-23.6356
-23.5052
-23.4101
-24.2432
-24.009
-23.8696
-23.6799
-23.516
-23.3549
-23.2089
-23.0757
-22.9548
-22.8456
-22.7405
-22.6529
-23.1978
-22.977
-22.8525
-22.6867
-22.5496
-22.4197
-22.307
-22.2079
-22.1217
-22.047
-21.9771
-21.9348
-22.1199
-21.9108
-21.8014
-21.6612
-21.5551
-21.4611
-21.3861
-21.3265
-21.2797
-21.2434
-21.2091
-21.1885
-21.0057
-20.8059
-20.7146
-20.6043
-20.5333
-20.4807
-20.4495
-20.4349
-20.4331
-20.441
-20.4507
-20.4753
-19.8426
-19.6577
-19.5877
-19.5123
-19.4833
-19.4791
-19.4993
-19.537
-19.5871
-19.6455
-19.7053
-19.7759
-18.6381
-18.4654
-18.4199
-18.386
-18.4071
-18.4603
-18.541
-18.6391
-18.7478
-18.8619
-18.9747
-19.1008
-17.3771
-17.2227
-17.2081
-17.2249
-17.3081
-17.4307
-17.5826
-17.7507
-17.9251
-18.0991
-18.2624
-18.4229
-16.0636
-15.9256
-15.9511
-16.0332
-16.1946
-16.4024
-16.6391
-16.8879
-17.1369
-17.3781
-17.6031
-17.8255
-14.6796
-14.567
-14.6501
-14.822
-15.0857
-15.3984
-15.7347
-16.0744
-16.4048
-16.7183
-17.0055
-17.2696
-13.2101
-13.1373
-13.3152
-13.6184
-14.0169
-14.4554
-14.9042
-15.3424
-15.758
-16.1443
-16.4942
-16.808
-11.6286
-11.6428
-11.9916
-12.4904
-13.0598
-13.6385
-14.201
-14.7337
-15.2309
-15.6871
-16.0938
-16.4475
-9.85872
-10.2116
-10.9005
-11.6737
-12.4082
-13.0933
-13.7394
-14.3405
-14.8969
-15.414
-15.8555
-16.2472
-1.52631
8.36074
-12.2161
-19.8316
-20.3179
-2.73465
-0.830551
27.3691
-40.1928
-28.4224
-20.7005
-11.0237
16.5265
-22.1881
-1.93944
-5.49433
-22.2711
-22.4169
-21.7734
-5.28332
29.7938
29.6005
19.3773
-14.2481
0.543174
-12.6615
27.4992
-2.28092
-33.7909
-36.8428
-36.2393
19.9662
8.26808
-20.6892
16.5862
21.1904
27.4332
-29.7512
32.2243
-11.0872
1.84757
-0.968391
19.3249
-2.2153
35.8057
29.3169
19.0756
17.1863
35.6894
29.6861
21.8452
27.1898
34.6033
1.49266
-21.0134
8.03899
9.83251
-1.3006
-30.3508
-1.77604
27.1979
19.9024
1.5299
-0.019128
19.9698
8.29769
-21.034
34.4947
7.31907
-27.9653
-21.1012
14.5881
32.1825
-17.8941
-13.7805
2.39307
-39.799
-1.35174
11.0477
32.1728
6.97694
-1.58438
28.5721
35.2457
4.23691
-33.528
-20.5014
1.0312
-30.7228
35.9271
20.3739
-37.3867
0.0486073
6.71546
32.0004
-3.5657
-2.81223
-1.95873
-0.232716
-17.323
-27.5485
17.3293
5.02567
7.56181
-1.33423
30.1806
1.66675
27.2845
-16.4891
0.294639
9.17968
-1.63597
32.2685
-6.10726
1.65872
19.7242
-16.0283
-7.49839
-35.5119
-24.8037
-19.8855
-14.906
-28.8987
18.0756
-17.3821
-22.4659
-1.80279
3.01638
13.3391
1.12658
35.7137
1.42112
27.6118
7.58528
26.7805
9.11291
35.8618
-28.537
31.9116
8.48031
-14.0883
23.3921
31.9744
0.38606
35.3088
-21.6566
34.2472
-7.88977
-40.5534
8.50761
0.21529
20.7226
-1.41023
8.47675
24.2075
2.98553
32.4172
-1.20002
-29.4017
-11.3956
-16.5577
-5.28981
-25.8229
-12.9343
26.9601
22.035
19.9029
35.5129
15.8017
1.35073
-23.3535
-20.4978
-21.1418
-14.3811
-0.91313
-37.0643
1.81344
34.984
26.7001
-35.509
19.7939
-17.3752
-7.759
34.0721
5.70723
28.7379
3.17281
-1.27039
35.5666
1.60101
-31.4003
-1.51882
21.7274
-5.31093
31.0112
12.4737
19.3456
27.7918
2.20757
-33.8648
-39.0179
34.6704
31.7576
29.3064
34.3968
15.3908
-8.3752
-30.1782
-17.6794
-16.3146
10.3122
-41.0928
30.6787
34.4641
1.83729
33.866
-10.0887
-15.2923
-34.6989
34.8765
35.1558
-39.3797
35.291
-2.63942
-2.43472
-22.2752
-34.0423
-1.14908
-32.2593
14.4314
26.9562
-16.4581
-1.88438
-17.1327
-15.3674
31.5901
28.4281
-38.0742
-4.66051
32.7741
-27.4042
21.4142
-18.5425
-25.3911
19.9345
8.51657
25.9841
5.313
-21.4165
34.0913
-29.2053
-17.8289
-33.8393
-43.0148
34.7446
-28.7482
-1.67036
32.4631
-33.0731
35.0389
-15.6814
31.5086
15.6705
-8.89002
-22.3536
32.0206
-41.8727
29.0122
-5.55015
-14.3774
-3.22897
18.5556
-33.1962
36.2695
36.1997
-31.9599
28.0367
30.8301
35.5398
35.7544
23.1031
29.6687
34.5863
34.5157
-26.3727
19.9703
-31.4621
36.2545
-42.7705
26.8015
35.7537
-29.4179
34.3671
34.5853
33.9529
22.1628
28.0728
36.3008
21.7611
31.8526
31.5828
-1.20859
-12.0209
-20.6897
24.2725
-37.8472
35.0892
1.55264
16.8137
15.1271
-15.7276
34.2019
3.16644
-43.0861
34.714
19.2162
34.0676
-31.9508
1.90079
18.8782
17.8036
-32.5432
-17.0805
63.1178
32.3325
-31.3272
-26.4462
-1.81876
2.30087
34.2706
-6.27786
0.519978
-33.1887
-1.86384
2.3657
3.91419
-1.34154
16.672
2.09185
6.3447
-1.59714
29.6838
0.34503
22.9663
9.92526
38.3066
26.9911
-29.8513
-35.1208
-15.3312
-0.114229
-3.43382
14.9078
27.3618
35.0562
-0.990991
-22.4629
35.4653
-41.4341
-33.0781
35.9659
35.745
-42.5681
-35.3999
24.3056
-21.8007
-2.84062
0.547052
-2.81555
3.68604
-21.0201
35.2341
31.8503
-52.8918
-28.5438
30.276
33.3112
-40.7308
3.30065
-32.8602
-17.6393
-9.14203
-1.22831
29.8165
-39.8304
19.2583
-0.738423
15.548
30.6575
17.1539
3.20771
-36.5951
-32.4785
34.4169
33.8053
-2.76572
-31.7877
-2.24816
-29.7576
-26.9738
11.1477
-12.3337
-17.1595
12.7783
-21.4382
19.8864
-40.0031
-37.4922
35.4246
27.4687
-1.71735
-0.702495
1.58295
-43.2277
13.7523
18.8492
-36.5459
27.9678
23.3495
3.09222
0.20772
33.604
1.54032
-2.25663
26.1383
0.486499
-21.1093
-41.4884
34.9203
0.502498
-10.3261
-11.3975
-24.1815
32.423
-24.3068
1.80966
-22.0374
-36.7954
25.8203
-2.58071
35.1404
40.8414
10.5572
33.6837
7.26886
-17.2586
-5.47961
32.3976
28.3086
1.9675
-23.1631
32.7019
25.605
10.507
-35.6328
22.9295
9.12501
35.8627
32.2472
-19.6455
19.104
-4.49359
18.0828
-0.673555
-40.765
-28.7019
1.79089
30.0765
26.1108
24.9075
-23.9383
27.9166
12.3204
0.696961
-20.9327
-41.7526
32.6257
1.83153
35.0807
-16.2824
0.133965
27.3026
34.6004
-22.5551
-19.3454
35.7322
29.2874
-5.2488
-13.7534
-40.2716
-14.9819
0.742374
20.8884
-33.1522
-9.46851
34.9667
-25.7719
-1.45866
30.2494
35.7594
-38.7469
26.8286
35.658
2.24426
22.1803
33.2455
14.4011
-38.3415
35.1424
-23.2142
22.587
-27.5721
-16.8749
-27.5854
1.95383
-25.9035
35.5012
-36.5766
-15.9288
23.9159
12.6794
-14.7945
1.12201
34.188
-0.311094
9.78405
-16.68
36.4127
35.8932
-25.5886
33.6196
-25.6449
-19.7642
-21.9196
-1.9234
26.5428
-41.8041
-16.9445
32.0468
-32.6944
-5.86451
-10.7712
-21.7998
-26.761
-36.7263
-1.47978
-20.0049
1.82123
19.5528
13.9718
14.3776
-19.7818
30.0109
29.5863
-20.249
26.8227
19.0503
-21.3094
0.26185
0.162405
7.01852
-18.2957
34.4318
-28.0287
-16.3502
-26.9485
35.0194
0.382513
19.5384
31.7695
9.69534
-43.6444
29.1435
35.9935
34.273
9.48285
0.338092
-3.51864
-2.13617
-34.3655
-21.7498
25.6145
-38.355
3.8914
-34.428
23.7889
26.0641
29.1815
-31.3294
0.0948126
-26.8424
1.16167
20.4934
-20.0316
34.6509
-25.7331
-0.0411569
-35.342
-38.6271
30.6989
1.63239
-0.689814
-28.5515
-19.6217
9.66198
3.20454
7.27892
-19.7278
-9.99702
6.71694
29.21
-23.3118
-29.1167
-1.50267
0.943782
-33.3669
33.7939
34.2221
30.7684
9.1915
26.785
-7.41513
-31.3429
29.5433
-1.6852
14.3951
19.8772
1.42745
12.0039
35.6201
-43.9584
-43.9774
3.13698
-19.2248
35.9668
-40.3211
13.6514
17.7416
23.7507
-1.34167
35.9031
30.056
15.0908
-22.5224
-15.1208
-3.02358
-38.6798
-43.2524
31.3254
-35.3204
4.04795
2.58035
-34.4058
-31.6875
8.92112
1.86456
-33.9874
-0.750714
-35.9373
26.1159
-19.4384
1.84558
-39.619
-0.110556
35.4919
-23.8134
36.0374
18.6286
27.9088
-38.3782
-0.770567
8.38497
-40.8591
35.277
-34.3637
-3.76371
-30.311
-18.4036
-8.78809
2.19445
26.884
-18.1239
30.7277
3.75729
-22.3364
35.3918
31.6321
-25.1683
19.2619
-23.9661
33.8686
23.6441
31.6795
-1.71424
11.0397
-3.39384
1.33628
35.1701
2.06938
33.296
-9.63058
-35.6304
1.28036
25.3754
31.9813
-21.8045
-7.28403
-27.6612
20.7622
-29.5019
-14.5237
-24.0459
-36.6876
-1.51888
0.965379
32.3891
22.398
30.8285
23.0469
3.51939
34.3054
34.4878
36.0808
-25.8549
-30.2604
36.1477
-0.209104
-4.96613
-32.2899
30.862
1.30666
11.8248
-23.6553
12.4558
-1.95885
-29.0961
1.88212
-17.4611
-32.2488
5.60104
31.0267
-1.22457
17.3246
25.7089
1.43532
-7.04749
-0.889406
6.79345
-8.9503
-29.5153
-32.773
24.0007
32.4947
1.83654
-17.6063
-0.250098
3.49487
-20.8972
10.3115
30.6636
12.8404
-32.4328
-2.46401
-71.398
-2.26185
-15.1392
19.9244
31.0531
-1.32946
35.4461
-34.6699
25.7269
-17.0209
-40.3757
-31.4058
27.3504
-19.3479
-17.9084
9.58328
6.89924
26.301
-33.3384
-18.2957
28.6378
0.0499857
35.2054
-6.00835
-34.8391
-41.1217
-32.5287
-17.0787
-40.8545
-18.7744
5.88951
35.0102
36.0551
-11.8482
13.3436
-2.70533
28.7857
-22.2461
-4.31937
-29.2412
-29.7315
19.3827
23.9081
-37.7062
-10.3922
25.6167
-14.7194
-30.9501
-32.2931
0.425749
-38.2247
-14.9142
29.1412
30.1621
36.2344
-1.90146
-9.25402
-5.63016
1.73593
2.2716
32.779
23.3647
23.2513
-22.9345
0.583539
-32.709
5.87782
19.0934
1.69469
-24.2663
-6.00787
21.3676
-39.0944
20.3728
19.8856
30.4368
-1.62146
17.2505
-23.3234
8.37701
11.3431
38.8531
-21.9508
24.6942
6.74034
-7.9994
-14.7201
25.7866
-15.3133
-29.3577
35.5976
0.638324
-42.8549
20.7268
9.5902
-9.99202
-33.5811
32.3084
-0.0593728
1.05603
-39.4406
35.1312
-41.46
1.23678
-34.9572
-32.0408
33.719
6.04527
26.3316
-30.9082
5.89793
33.8882
-1.2967
-43.0579
35.9535
35.2195
34.5798
2.96101
1.90304
5.27488
-28.5288
-33.4386
-32.224
0.236835
-13.3785
3.56956
10.7713
-22.1771
22.1616
24.576
28.5218
22.3469
25.704
31.3484
-23.4117
0.345283
35.5033
-32.3606
35.1522
1.23506
-30.4689
-3.44588
1.93351
4.46006
35.7265
-14.5789
-11.8383
33.0849
-30.818
-3.50221
3.54515
10.0552
14.3024
-13.2427
18.6611
2.47598
-2.52792
-10.759
12.4689
-17.4017
-38.5475
28.1417
-16.097
19.4961
-31.8348
22.4672
23.3523
32.3491
-39.3604
29.401
1.51303
20.0656
-8.81008
-3.70134
-39.9082
35.6776
13.1822
26.9719
-6.20043
-32.3977
-23.6123
-2.46653
35.4332
2.59273
28.9222
-31.9354
24.0511
-1.99356
-41.5561
32.6893
-35.6744
22.9985
33.1218
-10.2596
-25.1347
16.3973
3.36757
13.2346
33.5186
-0.802498
-38.8494
22.8546
-1.92556
-18.3713
9.46922
25.832
36.3584
-28.4008
34.8694
26.0455
-18.6001
29.0022
28.1947
35.1271
29.3331
3.61365
-1.4138
-21.6553
-6.37205
-20.5759
29.2372
-2.31315
-36.4719
25.6778
-1.76457
33.8804
16.7486
20.4744
32.967
24.4846
-36.8207
-23.4715
35.3974
-29.2057
-15.1562
21.1692
30.0872
-34.8336
-23.344
-37.6573
-23.8678
-18.4736
31.9175
-10.9588
-19.6552
-31.1235
-0.123243
-26.699
27.4212
15.634
1.66757
-6.18957
-5.55249
34.4617
-1.84656
21.0966
0.184849
32.1953
-7.84862
3.10451
-38.7638
28.0302
1.74166
25.8086
34.6732
-25.9251
31.5573
-12.0293
33.6691
-4.36813
35.6957
24.2147
2.673
8.85063
35.002
31.0903
-0.186229
2.13498
28.681
3.31846
28.3341
-24.3482
-30.198
31.589
-17.332
10.3127
-95.2651
-32.7854
35.3902
-30.4019
-39.6501
2.13053
24.8254
-36.6943
-32.1198
2.28709
29.4694
-0.824106
-5.47346
34.3256
-11.9579
-9.82729
5.75677
-17.2986
-36.2454
11.9712
-0.613756
17.8791
-3.19604
9.08879
21.9793
-38.1123
26.0798
5.07061
-2.3618
-42.9899
33.0875
5.19307
8.61136
19.2503
15.6801
33.8611
32.5721
-18.0488
-0.991362
-16.3149
2.5004
49.4259
31.9368
-53.1677
31.5518
-24.032
1.72959
-42.8397
-0.0217542
2.54296
9.51353
26.5128
34.867
-41.0829
2.47775
-18.9048
-1.29967
18.6188
-41.3087
1.05132
25.3481
5.55898
1.24751
5.2277
9.02595
-17.988
-33.7429
-15.9641
2.7991
-2.18289
22.8871
26.1717
30.043
-39.0782
27.5285
26.1403
2.69102
11.1647
-32.2598
20.8082
-17.638
11.8817
1.36952
34.3863
-1.81428
35.7154
23.9134
-9.55933
-4.66614
36.1853
-18.4892
24.9808
1.70011
-24.0135
-28.0028
27.8313
-2.68326
-15.6307
-34.1835
-51.7854
18.5893
-29.8928
1.80245
1.3606
0.712295
-15.6611
34.2415
-37.6635
0.164659
33.9535
-38.0346
19.816
29.4349
-13.1018
11.6677
1.45369
23.557
35.0355
34.9495
-0.675675
-27.5583
-1.83813
-13.9964
-19.4695
-40.7486
17.3806
-33.2572
-35.1647
7.77862
3.61487
5.61106
-1.24331
5.88424
-16.8909
-5.80711
1.05901
-38.0058
35.89
-11.2503
31.6382
-15.7582
3.28754
1.71904
-36.4752
34.3249
-26.7797
-6.88931
21.2828
34.5487
-24.9806
13.4713
-38.2907
28.7087
21.4166
33.2813
19.4245
35.2633
24.7346
-13.1651
28.7352
3.42344
31.6449
1.83595
25.2294
-23.1263
31.8128
-19.8278
14.4976
34.4856
4.84621
33.07
35.89
33.0802
-28.901
-5.62565
7.29127
1.99693
-18.9569
-21.5427
1.83351
-20.9567
2.36129
12.6223
20.5427
35.6714
-39.8222
-17.8615
15.7603
-36.1946
-10.4823
34.0329
-2.12901
31.1679
-42.1194
0.898174
-25.6636
-4.00888
13.9434
20.7475
20.1678
30.3871
38.1043
-3.76983
13.2863
33.896
-36.4593
10.6632
20.0681
31.2528
35.7643
-17.5964
35.8643
-29.4308
-3.4669
-17.3251
1.29431
-6.80018
33.9018
-28.6762
24.6385
33.2662
-24.3696
-22.208
26.2469
1.25693
32.1815
1.05961
4.44417
-0.731149
6.8986
20.506
31.0143
-30.3602
22.7664
20.0941
5.78451
3.27111
25.0152
31.434
20.7961
24.0672
-14.7657
34.4716
-2.95898
34.5815
-5.98068
6.45774
1.83836
-21.2423
-6.77732
31.0768
-28.1104
-38.0258
-38.3352
3.52908
-26.5213
31.873
36.2967
0.481729
-10.486
20.2132
36.1829
-27.2822
33.5181
-1.54959
-34.0355
2.82108
19.889
-13.208
25.7873
15.0668
-14.4588
-0.339936
53.0883
-0.555112
-33.3454
12.2796
3.05804
12.2402
33.6047
-0.975716
-0.224591
-3.94302
9.94409
34.3204
-20.0255
-3.08147
35.312
28.6838
33.3674
2.03581
36.0627
18.3543
18.6561
-23.6745
33.7822
-9.1961
35.135
-12.6462
19.7506
20.0856
41.8534
-0.41156
28.4806
31.0857
34.4856
7.26606
0.600981
35.0543
15.5342
1.68855
-6.09951
-42.2576
0.787262
-36.9613
-42.3912
21.2729
29.3288
-28.83
29.3496
-26.2406
-23.7704
-25.6345
-17.4781
-35.7457
34.5159
26.8396
-1.06375
33.6234
-5.23951
-0.478445
2.70584
5.93123
1.80329
3.91146
-26.1126
-64.0209
-17.1016
11.4641
-37.03
32.2529
-2.85515
35.2974
18.7211
-16.1441
29.9299
-32.6289
33.2119
25.4075
18.5262
-1.53461
2.203
16.1904
15.2563
35.5598
35.3662
-32.7161
32.345
33.7642
-7.18539
19.8847
35.9058
-0.772799
31.9239
-22.6491
3.73573
-19.5433
4.95044
-20.7109
27.3817
-22.1221
-28.5938
6.20076
-22.9359
4.79092
-8.99768
1.25757
-21.1067
-36.32
-16.7431
-0.296516
-1.18091
16.7381
29.986
-31.7125
35.0187
-24.2215
31.7058
30.5174
0.677941
34.9934
-0.882684
-27.0525
28.3776
-23.5646
15.6955
-43.0584
-18.6257
28.4501
35.0338
-43.7605
23.3149
-22.3318
33.3467
-26.3742
16.014
-32.6481
34.2655
10.0879
-10.4261
-39.2684
-30.6953
1.51812
0.150557
-5.13371
-4.90201
32.6148
-0.750906
24.5966
35.7139
21.3666
-33.2906
2.74661
-32.0142
33.7921
36.0975
32.0603
31.5237
-34.3333
-4.09758
1.60235
4.36072
-20.2903
2.68264
28.5422
33.5528
8.23762
-20.1244
-33.5769
33.357
23.7705
1.80365
27.1745
-27.8657
7.64462
12.6928
31.7889
26.1018
-13.1622
19.0555
-0.672864
8.62207
34.3504
6.31818
-13.7292
2.32317
35.9215
-7.23528
25.3906
-41.0145
6.73599
-21.7077
-21.4339
-2.46147
3.2667
-14.9527
0.680392
32.7137
34.3366
35.6123
-3.23702
14.0821
-28.635
-4.62263
-17.6948
-19.3443
0.0314447
1.9925
15.2919
-11.8219
-0.448449
23.5162
3.71393
-34.3121
-7.38792
-6.8608
-24.7257
21.1369
11.2961
16.1212
-43.8356
10.1491
-1.18627
35.4765
36.9391
-36.8277
-0.38563
34.494
31.3768
-3.53162
30.806
-23.5475
-20.4123
5.20318
33.2054
-12.5313
30.0846
-37.3573
-27.0989
15.9333
-15.97
-1.07657
34.7624
-1.60453
1.29121
11.3969
26.2605
-23.5367
-37.4635
11.9668
-11.7952
3.15241
-30.0027
-10.4054
2.97613
-5.09772
32.5562
28.0319
28.6418
3.7525
27.84
-5.0504
1.54952
0.711949
-36.7968
-24.9756
-27.1328
22.7314
30.7751
34.8005
-23.4781
9.05813
2.62424
-0.857718
28.7995
-56.8446
-27.2621
-24.4934
3.78688
-13.1681
22.9567
32.5944
35.7327
-27.2651
31.5856
-39.3886
-0.354098
3.86934
-32.4557
28.5854
-39.5463
11.6572
33.0572
8.36278
-38.5318
-2.34845
21.2946
15.0103
14.7385
-1.00083
16.0895
11.0498
-36.9277
-33.2511
-0.645535
25.1152
-2.67895
28.5963
-30.3954
-1.28147
23.0064
-0.0891735
33.8323
-23.4596
29.9391
-1.37323
32.849
36.3697
33.5649
-25.3127
22.5262
-21.953
3.31028
-17.3532
35.5731
-42.3098
-16.9486
-6.55651
-3.44599
34.3851
8.41673
-19.2754
1.4148
-1.16086
1.81881
7.31013
-0.104953
-2.54673
-28.5811
-16.3227
1.25184
-35.0462
-17.7044
-15.9632
-36.0261
-7.72422
-2.09477
33.4218
-8.48897
0.711001
-30.6541
20.9145
-32.1803
24.4931
-15.7717
11.3334
-0.570587
-5.54969
-15.7628
12.0242
-36.1683
-15.3932
-11.4761
-28.54
30.7718
-32.3237
5.09965
-2.01998
-23.9247
-6.43848
12.8221
18.9971
-1.12665
-22.549
5.18508
-27.3274
-29.7715
22.0535
-1.70527
32.6561
1.13004
-8.45447
22.9332
1.57188
31.6281
-11.3419
1.6551
20.4445
1.3381
2.85971
10.9549
3.72564
-25.6623
33.9231
-41.3915
-27.0852
-39.4542
1.66703
24.7834
31.479
-38.5733
-12.6137
1.90351
-51.2759
20.1639
-32.1544
-0.0381793
-19.7029
0.161068
-0.963099
22.1823
-23.5806
33.3306
-29.8054
27.8499
-2.72769
1.78089
3.92694
25.2412
1.02517
-23.9502
-1.61087
-12.2645
30.1402
14.9036
-7.00727
-21.1674
0.158112
24.2952
0.967957
1.79567
34.9802