/*--------------------------------*- C++ -*----------------------------------*\
| =========                 |                                                 |
| \\      /  F ield         | OpenFOAM: The Open Source CFD Toolbox           |
|  \\    /   O peration     | Version:  2.3.1                                 |
|   \\  /    A nd           | Web:      www.OpenFOAM.org                      |
|    \\/     M anipulation  |                                                 |
\*---------------------------------------------------------------------------*/
FoamFile
{
    version     2.0;
    format      ascii;
    class       volSymmTensorField;
    location    "5060";
    object      sigma;
}
// * * * * * * * * * * * * * * * * * * * * * * * * * * * * * * * * * * * * * //

dimensions      [1 -1 -2 0 0 0 0];

internalField   nonuniform List<symmTensor> 
11800
(
(161009 77996.6 7.74378e-14 -2878.15 4.10091e-14 39235.4)
(-79377.2 68070.8 1.18877e-13 -14.0558 3.76864e-14 -19698.6)
(732587 100950 -1.98595e-15 1561.51 -8.57485e-14 182157)
(-635370 50480.9 0 -2082.91 0 -158165)
(-82342.1 65731.4 2.21789e-14 -4661.43 -6.26469e-14 -21587.3)
(-397312 103983 8.58811e-14 2098.86 4.50373e-14 -98060.5)
(-73834.4 99679.5 1.62667e-13 -633.053 -4.22906e-14 -18476.9)
(-104170 104036 -2.42113e-14 808.013 9.73793e-14 -25646.1)
(224445 50517.8 3.2098e-14 479.535 -2.19058e-14 55808.3)
(154313 109421 -8.32235e-14 615.285 -7.00828e-14 38440.8)
(185821 63773.7 -6.45987e-14 2135.39 5.52832e-14 46635.8)
(-921623 36031.7 -7.70569e-14 -6756.64 -3.49508e-14 -230350)
(25466 -36988.5 1.38072e-16 -68629.7 1.07299e-16 -10709.8)
(678479 50935.5 6.98357e-14 4078.35 -1.91011e-14 169356)
(-541712 97487 -5.83313e-14 6464.44 4.5334e-14 -132806)
(2.48977e+06 -10284.3 0 -8399.51 0 615678)
(-48191.4 77359.5 5.50478e-14 4686.21 4.85257e-15 -10794.5)
(-74457.9 71377.6 -3.10466e-14 9136.49 1.78244e-13 -16207.6)
(155572 122033 -3.14905e-14 -20148.5 2.23705e-14 33601.3)
(117643 64761.9 -1.10756e-13 -13116.7 -3.58176e-14 25935.1)
(-498838 57427.7 3.45337e-14 -2175.62 3.6185e-14 -124312)
(-806327 91603.2 5.52283e-14 4175.78 -3.21057e-14 -199030)
(-1.04443e+06 115706 -2.76597e-14 12895.7 1.77673e-14 -255943)
(-958363 65319 2.77244e-16 266.268 4.80001e-15 -237723)
(2.0334e+06 86967 3.50658e-15 -8969.45 4.00961e-14 502303)
(-1.24821e+06 115640 -2.71727e-14 8913.84 -7.69212e-16 -307494)
(-1.33225e+06 61038.8 0 11793.2 0 -327633)
(658339 45238.1 -9.17163e-14 -5543.28 -5.53778e-14 161972)
(-1.44907e+06 62198.2 -1.57179e-14 12823.8 -7.56931e-14 -356361)
(-1.56569e+06 62534.8 2.09833e-14 15174 -3.25926e-14 -384716)
(430883 47409.2 -1.13696e-13 -2199.81 -2.03713e-13 106365)
(86320.8 60344.8 -1.81036e-14 2890.21 -1.49374e-14 22135.1)
(1.27582e+06 111743 -4.4508e-15 14732.4 -1.94057e-14 320213)
(-31054.7 81421.2 1.48682e-14 -2270.39 -1.11307e-13 -8268.62)
(21989.5 86488.8 -3.93271e-14 1913.08 -1.68756e-13 5930.72)
(-420130 35150.8 -1.03235e-13 -1944.58 -7.49836e-14 -104725)
(24348.9 87839 1.39671e-13 1473.9 -1.66056e-13 6407.15)
(1.36758e+06 62854.2 -1.63511e-14 7342.47 -6.97086e-14 341146)
(-49918.5 85521 0 -1248.61 0 -12695.6)
(112270 80704.5 -4.80588e-14 6591.24 8.95069e-14 29492)
(-1.39974e+06 44594.1 -8.51945e-14 -7150.31 -3.95811e-14 -349079)
(-1.52247e+06 43858.5 6.10058e-14 -7645.04 -3.49943e-14 -379653)
(692132 61185.6 -3.53852e-14 -442.346 -1.17717e-13 171622)
(-1.64493e+06 43982.1 -1.15643e-14 -5703.44 -6.18163e-14 -409556)
(453035 59982.7 3.02188e-13 906.246 -9.42369e-14 112632)
(2.32884e+06 55155.9 0 -8180.92 0 575803)
(1.00295e+06 127008 -1.74792e-14 -3736.05 9.14117e-15 247926)
(1.19411e+06 43481.4 -3.08735e-14 -13079.8 -2.14177e-14 293038)
(-117141 88734.3 -1.19795e-13 881.953 -7.37849e-14 -28846.3)
(269626 85591.4 0 2592.48 0 67543)
(-957553 51322.1 -5.80872e-15 2583.01 6.14125e-14 -236947)
(-670111 47593.9 2.0082e-13 2967.42 2.35232e-14 -165532)
(-13707.6 85735.1 1.12651e-13 1382.96 7.01171e-14 -3058.01)
(50077.8 138966 -2.42437e-15 9157.52 2.11239e-14 14697.5)
(-2.67672e+06 4905.49 -3.70197e-15 -13812.7 -5.83397e-15 -667575)
(2.08245e+06 -96902.3 4.99958e-15 -95282.5 8.78114e-15 493056)
(-71176.7 20173.8 9.69643e-14 1919.5 3.60023e-14 -17184.1)
(-600679 102442 7.22845e-15 -6682.11 -5.98981e-14 -150699)
(482642 63549.5 -6.11025e-14 10113 8.94806e-14 122263)
(-424435 108258 5.00277e-14 -7885.98 -9.03173e-15 -107268)
(2.15772e+06 20231.1 -4.37222e-14 -16612.5 -1.51513e-14 531252)
(-58464.7 90327.1 4.76809e-14 1014.09 -7.75695e-14 -14254.7)
(-473097 83226.3 -2.74614e-14 -2840.89 4.71873e-14 -118090)
(379261 83446.8 8.34177e-14 3924.42 -4.75719e-14 95076.1)
(2.00698e+06 10613.2 4.76651e-15 -1206.1 -2.89114e-14 497673)
(-293155 33766.7 -1.36403e-13 1998.99 -1.64801e-13 -72241.8)
(-987309 21097.1 9.5874e-14 5245.71 3.19552e-14 -243670)
(-698353 24398.6 2.81e-15 3925.21 -1.68395e-13 -172302)
(-73860.9 21651.2 0 -3789.1 0 -19266.5)
(-1.16362e+06 62242.9 -2.18409e-15 12160.4 7.10318e-14 -285700)
(-24293.7 86991.3 -2.73275e-14 -15.5826 5.63998e-14 -6031.64)
(-58044.7 67562.3 -1.05275e-13 -3291.18 1.17736e-13 -15218.7)
(-50844.4 66206.8 7.38338e-14 -1127.4 -4.51765e-14 -12895.3)
(-1.74906e+06 374445 -6.25129e-15 213748 5.6229e-15 -380943)
(2.14027e+06 74456.6 -1.71601e-15 -7436.2 -1.73536e-14 529199)
(-394661 54693.3 -1.01427e-13 2821.02 -7.37546e-14 -97223.5)
(2.10561e+06 11906.3 -3.6829e-14 4196.31 3.27742e-14 523486)
(-284606 19743.2 8.96715e-14 -455.075 -2.94138e-13 -70729.5)
(-210874 43925.3 1.68655e-14 -705.809 -1.60884e-14 -52497.3)
(-198773 58929.6 1.72199e-13 2079.65 1.72616e-13 -48803.6)
(-2.69619e+06 -53058.7 1.34884e-14 12116.2 6.35035e-14 -665974)
(119324 58103 0 9803.6 0 32039.1)
(62833.7 70302 -1.79009e-13 2171.36 -7.05071e-14 16129.1)
(43660.8 75064.6 6.2064e-14 882.028 -4.88283e-16 11052)
(-93468.3 67238.1 4.23774e-14 -9637.6 1.19887e-13 -25582.7)
(-1.52646e+06 76543.5 -2.35937e-14 -8319.22 1.1864e-13 -380811)
(468312 54192.6 1.44431e-13 4914.53 -4.49062e-14 117417)
(-1.40917e+06 75042.6 0 -8152.98 0 -351667)
(-1.29306e+06 73618.1 -4.95466e-14 -7259.03 -5.07317e-14 -322634)
(696494 51447.8 6.6143e-14 6095.81 4.04481e-15 174327)
(-14519.6 85474.9 -2.33395e-13 -3195.13 -1.49635e-13 -4395.4)
(1.50916e+06 102898 0 -4804.14 0 373261)
(-124753 74464.5 -4.95179e-14 1896.38 -8.20705e-14 -30483.3)
(77000.5 15054.1 -2.85415e-14 5161.29 -4.14112e-14 20386)
(190831 76700 2.18777e-13 1711.19 3.91825e-15 47773.6)
(58913 -44423.3 -8.78769e-16 -125117 -6.51412e-16 -16426.5)
(-3123.78 12227.1 2.28952e-17 7344.36 -1.36208e-16 1047.21)
(-59524.1 -44185.7 -5.56622e-16 124901 3.70824e-16 16221.2)
(-14564.8 86822.5 -7.25621e-14 488.685 -1.0544e-15 -3492.56)
(-803363 56486.9 -1.77771e-14 -3005.49 7.08123e-14 -200076)
(55162.6 38827.1 3.98768e-14 -19.1859 -1.11501e-13 13682.2)
(876505 63933.9 -8.60958e-14 -7943.56 -1.19023e-13 215508)
(-1.43147e+06 117501 5.72145e-15 -826.257 1.16485e-14 -355382)
(-468036 77160.3 -3.5376e-15 7343.05 1.1152e-14 -114307)
(-2384.74 92685 -1.11961e-14 -928.274 -5.56871e-14 -822.025)
(374652 105918 -2.29554e-14 2686.32 -3.96463e-14 93625.3)
(-179844 77678.5 -6.84909e-14 -1020.07 1.50941e-13 -44876.1)
(-125898 80864.8 -2.32188e-13 -814.698 -1.11935e-13 -31440)
(2.12947e+06 19863.4 1.29323e-14 5472.01 2.68587e-14 529723)
(1.42286e+06 63286.7 2.11672e-14 5176.16 4.30688e-15 354326)
(1.54147e+06 64415.1 4.05493e-14 5954.49 5.63732e-14 383948)
(1.30588e+06 62674.3 1.4866e-13 4599.59 8.80547e-14 325156)
(-473694 56037.9 6.76663e-14 -3999.76 1.05645e-13 -118526)
(-704038 55317.8 -1.78925e-13 -4857.92 6.43113e-14 -175892)
(255854 69635.7 7.61421e-14 38.9551 -3.9898e-14 63492.2)
(1.91717e+06 35297.7 1.94458e-14 -175.856 1.14515e-14 475645)
(271095 31929.8 -5.57645e-14 -2976.99 -2.19207e-13 66525.5)
(-86247.4 80387.3 -1.93419e-13 759.706 1.80777e-13 -21211.2)
(1.79567e+06 79883.1 -2.22425e-14 1242.01 2.77011e-14 445850)
(-155526 113491 -6.24873e-14 -266.54 -1.68114e-14 -38655.3)
(-239671 43809.5 -4.2698e-14 3922.68 -1.79613e-14 -58493.9)
(75716.6 99668 1.38406e-13 -2581.77 -1.98073e-13 18146.2)
(108385 107029 -9.63847e-14 -2164.08 6.62737e-14 26355.7)
(-77653.1 81614.5 -2.80649e-14 4560.92 -4.13919e-14 -18135.6)
(-131622 70392.3 -1.76121e-13 -1524.3 -1.37383e-13 -33036.2)
(-3027.66 85271.7 -1.69279e-13 -2476.78 -1.27321e-13 -1365.76)
(-40201.2 84477.9 -1.01482e-13 -195.852 1.11449e-13 -10023.3)
(-9249.48 86866.6 -6.63412e-14 -2379.85 -6.32004e-14 -2885.47)
(9955.33 57936.2 3.15117e-15 41828.3 1.41155e-13 12848.6)
(-39866.2 4768.98 -4.54801e-16 -9215.6 6.70598e-14 -12178.2)
(-2.24387e+06 -362985 2.01521e-14 92236.1 -1.01556e-14 -533863)
(-1.62824e+06 77216.9 1.45872e-14 -12490.2 -2.22501e-15 -407098)
(511225 49653.6 7.6411e-14 3675.84 -7.45022e-14 127757)
(-1.52288e+06 79826.7 -5.86047e-14 593.886 3.67802e-14 -377710)
(743435 45665.3 -3.43793e-14 4198.89 1.04166e-13 185503)
(-1.40312e+06 77288.1 2.23664e-14 733.161 2.24729e-14 -347962)
(-1.28546e+06 75283.2 -1.29251e-13 1279.81 9.87137e-14 -318631)
(425578 70770.1 7.48599e-14 -5491.63 2.0851e-13 104232)
(-1.30197e+06 29500.5 8.00866e-14 8636.97 -1.0997e-13 -320903)
(622979 74753 9.28063e-14 -6776.29 -7.38767e-14 152892)
(-1.20032e+06 31129.1 6.64212e-14 7640.56 -1.1424e-13 -295929)
(-1.1002e+06 33235.3 -6.88595e-14 7473.87 -6.19846e-14 -271129)
(-610132 96184.1 5.12502e-15 18890.3 5.15091e-14 -146699)
(188410 81338.9 -3.73795e-14 -6112.66 -2.48789e-13 45231.8)
(269823 79428.4 -5.97019e-14 -8375.42 -1.72392e-13 64870.6)
(-393355 77594.5 -1.79432e-14 12450.4 1.0325e-13 -94510.2)
(1.59071e+06 49308.2 -1.13651e-13 2135.25 -3.83449e-14 395218)
(-1.63892e+06 -23081.9 1.09238e-13 -12883.9 3.37495e-14 -409847)
(923028 46132.9 7.69109e-14 -2700.42 -7.16244e-14 228352)
(-464203 44524.8 1.70189e-15 8326.8 1.00962e-14 -113112)
(-213841 77315.9 -9.69156e-14 2043.56 -8.00526e-14 -52551.2)
(-224155 63415.4 8.29391e-14 -3161.65 -7.50075e-14 -56401.9)
(23959.2 86035.5 6.30488e-14 1352.34 1.15113e-13 6280.32)
(-318651 55515.5 -1.41784e-13 -1279.83 1.46982e-13 -79381.3)
(275730 67614.7 -7.4298e-14 -4674.17 -7.84732e-14 67254.4)
(187201 76398.7 -6.81177e-14 2963.62 5.24842e-14 47183.7)
(-595494 63306.8 1.15273e-13 8191 -7.75701e-14 -145722)
(-834765 70532.5 4.18404e-14 3545.5 9.15709e-14 -206242)
(1.68209e+06 19417.4 2.56769e-14 1931.99 -3.35031e-16 417841)
(-7846.88 90703.7 3.30981e-14 -847.432 -1.60923e-13 -2157.24)
(2.42409e+06 86198.9 -2.9812e-14 -14621.6 -1.62356e-14 597838)
(-262278 69386.8 -1.22469e-13 918.117 8.43587e-14 -64848.7)
(2.11997e+06 55030.7 0 -21476.1 0 520679)
(-609085 70438.5 3.58652e-14 -6329.98 1.49776e-13 -152697)
(-664158 70232.1 -3.67737e-14 -7115.06 4.35927e-14 -166556)
(-718618 71054.7 -5.97638e-15 -7336.98 1.57431e-13 -180124)
(336828 78488.3 -9.07258e-14 1143.78 2.23049e-14 83857.6)
(228955 79734.4 -9.68464e-14 731.979 2.39003e-14 56990)
(-2.63225e+06 -23052 2.36181e-14 -9811.92 -1.3461e-14 -655550)
(-1.64921e+06 75808.4 -2.44284e-14 -9690.33 4.59868e-14 -411608)
(583478 53377.4 -9.66567e-14 5279.47 -5.65495e-14 146083)
(811639 50466.8 2.71256e-13 6462.27 -1.45746e-13 202988)
(90317.2 87113.4 5.31445e-14 -8646.6 -1.37354e-13 20264.1)
(-474080 39008.6 0 1676.59 0 -117213)
(-479789 20631.7 1.45367e-13 -3426.78 -7.38793e-14 -119896)
(2.32349e+06 61003 3.88087e-14 -16324.4 2.58719e-14 572454)
(2.37763e+06 -16459.8 3.21801e-14 14628.7 2.84075e-14 593567)
(1.25778e+06 23924.6 2.00934e-15 -1335.91 6.81819e-14 311748)
(1.15571e+06 26564.3 1.40291e-14 -1020.93 1.65735e-13 286501)
(1.36134e+06 21183.8 3.51761e-14 -2504.85 -5.08547e-14 337154)
(-594640 76824.6 -8.76549e-14 4960.31 7.88428e-14 -146312)
(-394040 71817.5 -8.50716e-14 3861.79 9.32735e-14 -96811.2)
(259353 102917 0 2136.66 0 64880.9)
(177286 98759.3 -3.52991e-15 765.35 1.35213e-13 44178.3)
(565322 76230.5 -1.04e-13 -106.669 8.50141e-14 140242)
(-238208 71905.8 -8.31768e-14 3190.16 1.97111e-13 -58312.7)
(-368787 107920 -1.63946e-14 4670.83 7.24022e-14 -90344.5)
(115078 78732 -3.09914e-13 -862.92 -8.22098e-14 28339.1)
(164208 75401.1 -2.14218e-13 -1206.98 8.96003e-14 40443.9)
(-99800.6 90750.9 -4.17932e-14 2299.65 -5.84606e-16 -24192)
(-280931 58147.9 -3.43965e-14 6251.77 -2.14637e-14 -68153.5)
(-258759 59851.5 2.27535e-14 5545.53 -3.88286e-14 -62827.4)
(-260816 43004 0 -390.299 0 -64810.6)
(-123758 111445 4.67652e-16 -5637.62 -4.48448e-14 -32105.6)
(-1.21126e+06 1739.42 1.01421e-13 -7344.07 -4.44076e-14 -302359)
(1.51918e+06 59186 -1.31585e-13 -6855.86 -1.32713e-14 375238)
(1.84055e+06 185739 7.75601e-15 -313564 3.91538e-15 378876)
(-43813.6 75222.7 2.7676e-14 -3877.68 -6.271e-14 -11833.2)
(282890 25427.4 1.00998e-13 2570.04 -2.30519e-13 70828.5)
(-2.30292e+06 -289449 1.93715e-14 186462 -1.24832e-14 -525137)
(131762 59625.7 4.32166e-15 3890.2 1.17145e-13 33658.1)
(362136 42156.2 8.15269e-14 781.886 -9.35718e-14 90047.2)
(400253 46391.5 1.13838e-13 -5753.57 -4.80194e-14 97883.3)
(-5062.35 89354.3 8.57564e-14 -110.253 -1.27136e-14 -1283.43)
(-5726.41 92547 9.04579e-14 -655.213 7.64662e-15 -1583.41)
(1.09965e+06 34007 2.8863e-14 -5385.22 9.58669e-14 271510)
(911666 98641.2 3.66401e-14 8279.75 -8.83075e-15 228257)
(-829666 81593.6 0 8298.95 0 -203798)
(-709052 42358.8 -9.33761e-14 -10882.8 -5.8391e-14 -178631)
(2.23912e+06 -366793 -8.13264e-15 -94547.2 -5.47582e-15 532113)
(-691202 125322 -7.44332e-15 19169.1 8.65263e-14 -166745)
(-1.10374e+06 39724.1 5.1049e-14 -2477.76 -3.00584e-14 -274475)
(-2.33347e+06 -939849 -2.18679e-14 488717 8.54426e-15 -457720)
(2.81331e+06 1782.89 0 38400.5 0 707568)
(-2.04343e+06 -870327 -7.11559e-15 230398 2.19976e-15 -449850)
(361222 124234 -4.86308e-14 -100.512 1.71235e-14 89601.5)
(-80829.1 72266.1 -8.7467e-15 -762.624 1.22268e-13 -20244.6)
(-1.0674e+06 91194.7 4.33234e-14 -9049.11 -4.76107e-14 -267089)
(-977962 91647.4 6.46077e-14 -8120.45 -8.06934e-15 -244667)
(-897783 89559.9 -7.37701e-14 -7306.45 2.87047e-15 -224571)
(319110 63028 6.48747e-14 4191.11 -1.8096e-13 80217.5)
(480137 60334.1 -1.62774e-13 5377.95 1.58205e-13 120466)
(47314.9 78370.6 -2.56005e-14 -8240.13 1.20113e-13 9695.25)
(67668.2 73943.7 6.05739e-14 -11319.3 7.75749e-14 13981.3)
(-152486 118363 -6.85866e-14 25196.1 1.85463e-14 -31583.3)
(-97988.6 68664.9 5.14434e-14 16933.1 -6.57749e-14 -20111.5)
(-1.27909e+06 -514774 -5.51075e-15 -31748.8 1.15141e-15 -325245)
(242036 119551 -3.90076e-14 18393.1 -1.38077e-13 64617.7)
(-120374 70486.5 -1.35235e-13 -9495.69 -6.18009e-14 -32223.4)
(-565447 113434 0 126.76 0 -140267)
(241633 64278 1.03368e-13 1471.44 -4.21644e-14 60319)
(-119157 97015.9 0 -639.259 0 -29723.9)
(-88730.4 76422.2 -6.58624e-14 -1035.42 -1.04287e-13 -22272.7)
(845581 80671.7 9.19839e-14 4785.15 -9.61939e-14 210993)
(868630 49642.3 1.40876e-13 75.8137 6.72672e-14 215544)
(2.33174e+06 -939186 -8.18547e-15 -489215 -2.70593e-15 457168)
(1.27781e+06 -514764 9.56035e-15 31571 2.62184e-15 324885)
(-262121 55220.7 2.00769e-14 2087.07 2.85617e-14 -64519.8)
(-279679 56018.5 -6.0996e-14 -3033.65 -1.24685e-13 -70146.7)
(-1.50392e+06 -1235.43 -6.69294e-14 -5625.67 -1.53235e-14 -374549)
(1.22082e+06 54388.8 1.51738e-13 -4078.19 -3.96205e-14 301897)
(394218 72485.8 5.04942e-15 -3340.97 2.76172e-13 96984.4)
(594192 78463.7 9.38336e-14 -4040.79 1.01984e-13 146429)
(-1.36141e+06 21510 -2.47783e-15 -930.244 5.79195e-14 -338023)
(-1.26021e+06 25985.8 -5.9003e-14 -976.379 1.95081e-14 -312925)
(-1.15769e+06 28665.5 -3.97717e-15 -1048.22 9.16924e-14 -287506)
(-17825.1 91978.6 -1.42778e-13 -885.103 4.12823e-14 -4642.38)
(-1.47306e+06 23787 3.82261e-14 -2240.57 4.10973e-14 -366051)
(496106 73259.8 -9.61717e-14 -3381.71 4.71621e-14 122255)
(697007 77729.1 0 -3732.17 0 172015)
(657155 57392 3.66076e-14 -4915.55 8.72789e-14 161834)
(126459 76762.5 -1.20666e-13 548.103 -3.18868e-13 31513.1)
(11105.5 78445.4 -1.05734e-13 -9286.54 -3.88694e-14 451.312)
(533549 39721.1 -1.33e-13 16575.6 2.37825e-14 136497)
(-455884 59919.6 -1.14511e-14 -1273.52 -9.27259e-14 -113430)
(72288.2 79768.4 1.55206e-15 -17044.2 1.92766e-14 13707.2)
(2.04111e+06 -870366 -7.40604e-15 -231425 -1.86287e-15 449019)
(325414 85057.3 9.48895e-15 -2664.97 -1.76074e-13 80080.6)
(392019 82637 8.19989e-14 388.152 2.78802e-14 97364.3)
(-256678 81526.2 0 -746.304 0 -63872.2)
(-304944 92120.6 3.06461e-14 -7932.58 -8.5245e-14 -77631)
(902005 89340.9 0 8189.82 0 225838)
(982517 91543 5.4023e-14 8989.44 5.12221e-14 246013)
(1.06228e+06 95173.7 -1.2075e-13 9389.66 -1.16812e-14 265902)
(-479827 57282.5 1.71817e-13 -6144.27 1.74486e-13 -120579)
(-322387 61978.7 9.03562e-15 -4450.55 -1.04468e-13 -81094.9)
(-17028.5 87434.9 1.01704e-13 -670.532 5.41263e-14 -4391.5)
(2.10635e+06 11007.4 -1.56074e-14 -33335.4 -2.84289e-14 514356)
(-13077.5 103946 -1.09831e-13 -6421.92 3.42092e-14 -4838.2)
(28229.8 49567.3 -1.04387e-13 12820.3 -6.49232e-14 10185.4)
(47492 82877.6 7.90245e-14 1453.65 -1.83321e-13 12144.4)
(510942 84218.9 8.39803e-14 573.721 8.86932e-14 126918)
(-198636 3276.95 -1.39859e-13 -3228.57 6.84908e-15 -50086.7)
(675895 93992.5 0 -4159.38 0 166671)
(2.21081e+06 -97363.7 3.58657e-16 -306414 1.44071e-16 472518)
(507223 21766.1 8.07492e-14 7561.8 1.8356e-13 127728)
(487760 35241.7 3.65944e-14 -7052.75 1.99356e-14 119273)
(-734975 80599.1 1.20119e-14 6725.83 2.53641e-14 -180693)
(-522537 75124.3 -9.37008e-14 5779.83 3.00082e-14 -128218)
(-626135 48598.8 -1.91453e-13 -3189.88 -3.34742e-14 -156148)
(-448738 53665.2 9.67173e-15 -3263.87 -1.01655e-14 -112151)
(1.54644e+06 19158.8 -6.63756e-15 -4145.65 2.18764e-14 382673)
(1.28097e+06 101288 2.72263e-15 -521.501 -4.5246e-14 317704)
(371219 92930.9 1.69453e-14 -4573.35 1.00193e-14 90972.1)
(499145 76386.7 3.18169e-14 -346.766 5.40921e-14 123762)
(273677 91762.4 8.85607e-14 -4475.98 6.30762e-14 66794.2)
(366475 76757 7.94089e-14 -1383.09 -1.25639e-14 90586.8)
(-699172 52454.2 -1.45484e-14 7255.11 3.64594e-14 -171679)
(-920309 84831.8 -4.03324e-14 2670.32 7.24924e-15 -227685)
(-209185 135235 4.46891e-14 -767.387 3.18687e-14 -52093.4)
(1.51105e+06 59301.6 4.98767e-14 5941.46 3.57499e-14 376396)
(1.63824e+06 58840.2 -1.07963e-14 26586.5 5.35728e-15 413078)
(1.9413e+06 60423.2 8.76971e-15 -2138.42 5.51887e-15 481144)
(136369 85958.4 -1.7239e-13 -633.771 2.09251e-13 33678.8)
(-500509 22791.3 -1.06803e-13 -7148.01 -5.48985e-14 -125960)
(-484457 38339.8 -1.35528e-13 4006.18 9.06206e-14 -119210)
(2.27614e+06 -10914.2 0 14297.8 0 568305)
(2.28281e+06 68688.9 0 1738.7 0 566843)
(1.37323e+06 53173.9 2.09214e-14 -1834.59 9.94163e-14 340270)
(1.36118e+06 6698.84 6.66103e-14 5500.72 -1.8729e-13 339100)
(-1.4131e+06 9884.34 0 -10452 0 -353213)
(-1.37822e+06 53734.7 0 9343.36 0 -339645)
(39308.4 82899.4 -2.37558e-14 2349.67 6.80149e-14 10336.2)
(-95237.6 33675.8 2.54208e-13 -5315.49 -1.07556e-13 -24949.3)
(-370543 35473.2 -6.70315e-14 -3613.41 -2.47246e-14 -92835.8)
(2.96393e+06 3434.72 0 59900.1 0 750273)
(-52192.8 72149.4 -1.67644e-13 -910.278 -4.17827e-15 -13175.9)
(-62220.4 74950.5 -2.41463e-14 -4714.85 -1.34238e-13 -16608)
(330195 100573 -8.63913e-14 -7577.1 -5.91858e-14 80048.1)
(-260016 98329.2 -1.79934e-13 -7903.1 7.53217e-14 -66476.1)
(315917 58722.8 5.2175e-14 -8376.15 -5.39449e-14 76307.1)
(-1.20732e+06 50259.1 3.70364e-14 -11100.4 -7.53396e-14 -302315)
(1.21804e+06 55365.6 -1.5402e-14 -12501.1 -9.21142e-14 299119)
(-2.03032e+06 84062.3 1.59128e-14 -12609.2 -6.77775e-14 -506892)
(-2.38447e+06 -218997 8.3517e-15 439152 -5.98209e-15 -482672)
(837178 107505 -1.33182e-14 -17513.8 1.6517e-14 203375)
(96649.2 108906 -8.91969e-15 -5158.17 5.02051e-14 22700.8)
(-1.13919e+06 89098.6 -4.46492e-14 -4926.8 -1.25165e-13 -283878)
(959022 27367.9 -5.82094e-14 12461.3 8.39485e-14 241045)
(-662517 53310.8 6.41421e-14 -11390.8 8.22466e-14 -167210)
(518557 87881.4 9.65105e-14 6402.21 1.69418e-15 130253)
(97284.1 94148.6 2.69586e-14 5942.58 1.26097e-15 25612.6)
(165621 71729 -1.14009e-13 -848.562 1.43119e-13 40883.4)
(-327792 61267.2 7.78846e-14 -20859.1 -8.26668e-14 -86507.3)
(-530940 126925 1.25891e-15 9137.83 1.04109e-13 -129470)
(-301371 62700.5 1.20266e-14 -19267.3 -8.37119e-14 -79556.8)
(-487827 122972 7.60535e-14 8388.36 -2.77844e-14 -118959)
(121266 49626.6 -4.75714e-14 -3545.53 1.47658e-14 29208.7)
(-57410 105420 -1.26643e-15 2781.49 -9.40362e-14 -13554.4)
(-37502.5 102904 1.16747e-13 2790.9 9.36046e-14 -8612.66)
(-25018.1 90655.2 6.01042e-14 973.485 -1.30813e-13 -5965.96)
(1.60836e+06 40874.4 3.42179e-14 4514.97 5.30835e-15 400188)
(-16619.3 105469 -1.31891e-13 -7671.33 -5.8602e-14 -6027)
(-63600.9 74623 6.52567e-14 -4308.05 -2.18418e-13 -16849.6)
(2.23103e+06 -68798.8 -1.69468e-14 -114936 -1.23293e-14 525045)
(377621 61112.9 6.9519e-14 -5473.46 -8.91587e-14 92337.5)
(-869115 108404 4.61951e-14 15779.6 1.24607e-14 -211730)
(-1.00409e+06 69770.1 -7.58152e-14 2024.93 -3.31639e-14 -248634)
(-996689 29903.2 0 -12258.2 0 -250340)
(1.25394e+06 16433.2 -6.82091e-14 5869.03 -3.24275e-14 312585)
(1.20146e+06 78921.3 4.19054e-15 10145.8 8.12026e-14 300624)
(-37817.3 61632.7 -7.71876e-14 738.103 6.2892e-14 -9200.1)
(-28793.6 62120.8 5.59925e-14 1602.37 -3.12978e-13 -6746.71)
(-774331 115847 -3.04384e-14 8966.81 -7.42593e-16 -189902)
(-1.04316e+06 80985.7 0 13178.9 0 -255559)
(735048 48110.6 1.66442e-14 8121.05 4.08248e-14 184395)
(-1.897e+06 103117 7.28291e-15 -9080.28 -2.29486e-14 -472938)
(68258.4 72316.5 0 17449.3 0 21265.8)
(1.05658e+06 41479 -3.60764e-15 -3191.04 2.50531e-14 261368)
(801810 112544 -1.95476e-15 6809.09 9.47494e-17 200635)
(-508480 92855.7 1.4342e-13 4632.03 -1.84406e-14 -125015)
(-394713 61870.8 -1.40186e-14 -4029.95 1.0102e-13 -98936.2)
(-362680 88215.2 2.22059e-14 3933.16 -8.43434e-14 -89012.4)
(-284470 66314.1 -1.25513e-15 -3337.99 4.95512e-15 -71411.1)
(-402595 40899 5.19155e-14 -100.383 7.66484e-14 -99916.9)
(-339850 46691.1 -9.08124e-14 2560.98 1.82676e-14 -83688.2)
(-415853 113240 0 1044.46 0 -102922)
(-466375 114077 -4.5568e-14 -1124.4 3.95682e-14 -115996)
(-506598 117348 -3.71521e-15 -1299.09 -4.23391e-15 -126020)
(139022 72283.4 -2.23529e-13 1289.13 -1.11715e-13 34814.1)
(-27634 86204 -4.96162e-14 -2361.34 9.87195e-14 -7442.45)
(1.00505e+06 42851.7 -2.78768e-14 6096.5 7.94699e-14 250887)
(1.05238e+06 59178.4 3.86163e-14 -6790.22 -7.50731e-14 259432)
(173587 75841.1 8.0417e-15 1723.89 -5.56981e-14 43498.2)
(255112 69433.8 0 3026.79 0 64049.5)
(-546568 111936 5.68607e-14 -3237.35 -6.24373e-14 -136418)
(486536 65552.8 -1.08713e-13 5033.66 -1.38327e-15 121969)
(531299 99635.9 -4.75895e-14 5833.53 -2.94802e-15 133273)
(-195747 83867.6 -9.18494e-14 -421.798 1.31583e-13 -48673.5)
(-167179 87924.8 5.35841e-14 -1752.22 3.14214e-15 -41915.2)
(-239282 92332.9 8.67809e-14 -1342.33 3.08568e-14 -59703.7)
(-265614 78689.4 0 -3249.79 0 -66710.6)
(-1.14729e+06 43308 2.53347e-14 -148.162 -3.86052e-14 -284703)
(536484 81102.3 -4.20613e-14 -1188.91 -1.66141e-13 132818)
(380872 78211.1 -1.9265e-14 -1284.48 -2.75317e-15 94183.3)
(-122390 217366 -1.15458e-14 23815.9 -8.22463e-15 -24458.2)
(1.38937e+06 34846.8 -8.81266e-14 -9985.23 -5.27743e-14 342254)
(-1.6201e+06 8506.35 7.61839e-14 2289.49 4.55763e-14 -401411)
(-182284 200688 0 -7718.81 0 -47143.5)
(-190865 80975.3 3.21108e-14 2061.87 9.68936e-14 -46845.8)
(-161001 85660 -2.41528e-13 3684.36 -6.12487e-14 -39033.5)
(-278843 80625 1.04129e-13 1758.09 1.16375e-15 -68750.3)
(-240091 88862 0 3217.61 0 -58773.2)
(545794 63463.7 5.27641e-14 -4839.36 -8.49129e-14 134222)
(626534 90756.7 1.92796e-14 -3768.49 8.16741e-15 154521)
(509931 67971.3 -3.93024e-14 -9878.4 3.76101e-14 124073)
(594444 94075.5 4.20043e-14 -6897.4 1.15903e-13 145782)
(468350 68458.9 3.29747e-14 -9065.12 5.52812e-14 113958)
(545837 92622.1 -7.16034e-14 -6405.14 4.08991e-14 133844)
(428679 39968.1 3.27712e-14 -335.068 1.23695e-13 106281)
(413618 22343.5 9.63569e-14 1890.97 2.06229e-13 103096)
(-812390 88695.5 -1.82248e-14 809.537 2.38992e-14 -201370)
(387751 86271.5 -9.97625e-14 -4814.75 -2.42735e-15 95014.2)
(-916541 63040.1 0 7775.52 0 -225483)
(1.58547e+06 95490.9 5.34257e-14 -13398.2 -3.35927e-14 390064)
(-806838 38618.4 1.00501e-13 3056.81 -1.65015e-13 -199434)
(-586905 45043.2 1.21412e-13 1034.26 -8.15662e-14 -145367)
(-1.76064e+06 -832363 -6.77247e-15 279387 1.51507e-15 -367528)
(52315.6 80597 1.35663e-13 76.2816 -3.56086e-14 12999.5)
(1.68127e+06 50944.7 -1.78613e-14 -3917.03 -9.10136e-16 416184)
(-824196 61502.6 -2.81023e-14 3104.56 -8.15008e-14 -203729)
(-592035 59224.8 1.75879e-13 2874.12 8.65161e-14 -146183)
(2.4903e+06 -20889.7 2.89507e-14 -5526.61 1.2886e-14 616522)
(-112845 71485.4 -1.94566e-14 -1920.64 7.80174e-14 -28475.6)
(1.7293e+06 10806.2 4.43651e-14 4998.26 -2.75498e-14 430314)
(-407736 62649.5 6.08722e-14 1541.96 -1.07268e-13 -100785)
(-1.4222e+06 93466.1 3.59431e-14 14540.6 -4.6856e-15 -349268)
(-1.33666e+06 57907 -2.19547e-14 -7877.54 -1.66471e-15 -333607)
(1.29706e+06 59512.2 -4.15482e-14 2165.22 2.71404e-14 322365)
(-166687 84912.1 -2.65281e-13 6600.21 -1.20696e-13 -39720.7)
(-3850.79 -44690 2.75652e-16 -70061.2 9.79712e-17 -18339.1)
(-19872.8 76270.4 0 3071.34 0 -4168.79)
(-2.3369e+06 -747262 1.11253e-14 293039 -3.06781e-15 -507123)
(1.7579e+06 -832368 1.31788e-14 -282125 4.14657e-15 366171)
(-1.14118e+06 98002.9 4.65761e-14 -9323.97 -4.51263e-14 -285462)
(398821 59736 2.03361e-14 3941.27 7.84385e-14 99933.6)
(555450 55079.4 -6.53215e-14 5291.36 1.48694e-13 139131)
(158827 79477.3 1.30973e-13 -1213.31 3.89872e-14 39107.1)
(-297515 14105.6 7.59014e-14 -62.0589 -1.16682e-13 -73835)
(270123 105514 -6.29842e-14 -1761.04 5.7619e-14 66586.1)
(-136578 62405.7 1.86071e-14 772.606 2.8518e-14 -33696.1)
(-121498 113480 1.32348e-14 4910.88 3.83324e-14 -28927.7)
(-1.92114e+06 -1188.07 -6.12001e-15 51831.8 1.44571e-14 -463814)
(15664.4 -26596.6 7.23483e-17 -46440.9 4.4904e-17 -7636.29)
(-677211 105105 -2.8069e-16 8462.01 5.26415e-15 -165930)
(534014 56749.3 4.72876e-14 -3551.18 1.46377e-13 131619)
(1.98969e+06 -385537 1.1729e-15 -52238.4 1.5123e-15 480721)
(-60488.5 61977.9 -1.21372e-14 -10615.4 -9.43203e-14 -17642.3)
(-67701.9 107950 9.62894e-15 -4910.71 9.20806e-14 -18016.7)
(-38313.2 93844.9 -1.64745e-15 76.4363 -1.40942e-13 -9487.31)
(-98382.5 77575.7 -2.59327e-14 4004.82 3.53088e-14 -23417)
(45287.1 92508.8 4.22314e-14 -1717.32 1.09094e-13 10810.5)
(29733.8 94257.3 -9.93031e-14 -126.153 -3.24063e-14 7346.25)
(-1.99314e+06 -383085 4.97923e-15 50388.2 -1.54048e-15 -482035)
(709047 96085.3 -3.82381e-14 2704.06 2.06644e-14 176600)
(-249203 78169.6 -2.65855e-13 -1096.04 -7.54032e-14 -62104.3)
(842596 82057.3 1.37574e-13 5316.49 -2.32891e-13 210384)
(774900 81269.8 -1.74477e-15 4708.78 -8.94484e-14 193437)
(710080 78936.5 -2.5621e-13 2615.24 3.86171e-14 176834)
(122192 43685.5 -1.29922e-13 3930.87 -4.85904e-14 31293.5)
(-1.64413e+06 31138.6 6.90972e-14 -4122.6 -6.69782e-14 -408964)
(523561 62482.9 1.40859e-13 -3003.44 1.51977e-14 129161)
(744796 65154.7 -6.37614e-14 -2993.47 -9.11387e-14 184056)
(-141569 77554 -2.25172e-13 -309.765 -3.79491e-14 -35203.1)
(1.04399e+06 104962 1.45487e-14 -13796 2.09482e-14 255612)
(202484 59521.4 -9.11092e-14 608.282 6.1693e-14 50391.3)
(-2.08727e+06 21715.6 -2.32621e-14 -2715.66 -8.5837e-15 -518569)
(61340.8 79484.9 -1.175e-13 1808.78 -9.88136e-14 15668.7)
(-177843 85523 -2.33624e-13 1223.59 1.10276e-13 -43822.9)
(605358 63940.3 1.74954e-13 814.159 -2.51463e-14 150404)
(556728 64742.8 1.63733e-13 531.293 3.98377e-14 138267)
(509600 63476.3 -1.18832e-13 -1436.49 3.27179e-14 126086)
(1.08773e+06 44565.3 1.75055e-14 20.5601 3.66326e-14 269892)
(243097 85991.7 -7.88379e-14 3472.05 -1.68869e-13 61178.8)
(-604389 69088.7 5.32866e-14 -9390.85 1.18748e-15 -152291)
(-469855 128071 3.23888e-14 4262.1 3.60705e-14 -115523)
(-265479 50940 0 2037.81 0 -65365.1)
(-844788 95832.9 -7.20385e-14 -9741.08 2.19257e-14 -212026)
(-921574 98199.1 -1.08217e-13 -10814.4 -7.13594e-15 -231344)
(-999892 101479 -1.0789e-13 -12179.1 5.19456e-14 -251115)
(479637 63414.4 2.23858e-15 7855.43 2.77242e-14 120957)
(327296 68439.6 3.51197e-14 5737.25 -4.39534e-14 82632.3)
(82807.2 5571.2 -1.02096e-13 4251.15 3.68212e-14 21600.9)
(168077 66350.4 0 -1764.67 0 41265.6)
(215552 53083.2 -1.19568e-13 2195.17 7.13445e-14 54027.5)
(2.41058e+06 -120687 -6.26068e-15 -314096 -3.01324e-15 520181)
(938420 43326.9 1.17267e-13 1753.64 -1.20327e-13 233276)
(-721195 87344.3 0 1549.62 0 -178559)
(-503566 78455.5 -5.81451e-14 9913.71 -2.54997e-15 -122485)
(405836 82764 3.10914e-14 -4042.55 -3.84418e-14 99693.1)
(-129187 99111.1 5.19669e-14 -2882.45 4.26217e-14 -32769)
(-15433 94744 1.53392e-13 -3428.72 -1.20818e-13 -4679.98)
(43366.8 67181.7 1.21779e-13 10477.6 -1.92583e-14 13359.9)
(47297.7 66126.8 -6.36359e-14 11494.1 -5.92201e-14 14587.4)
(-4069.69 121177 -3.1851e-15 -2983.01 -2.60707e-14 -1749.92)
(-11355.5 62492.9 -2.85709e-14 -1065.72 9.60484e-14 -3081.96)
(864.967 73003.1 -1.0712e-13 360.339 7.97998e-14 304.023)
(14608.3 75241 1.02389e-13 -14768.9 -4.64936e-14 -39.8554)
(178843 50855.4 -7.84722e-15 2546.14 -3.68824e-14 45006.4)
(-326137 121096 -1.84071e-15 2116.14 -1.7728e-14 -80396.2)
(106475 75809.4 2.56765e-13 1664.47 -5.05012e-14 26831.5)
(16685.6 117272 1.0562e-14 -19422.7 1.50145e-14 -679.138)
(-694053 119815 -2.64e-14 -3079.21 -1.583e-14 -172973)
(891479 53280.7 8.77368e-14 3787.26 7.8192e-14 222134)
(-383847 89113 -9.87914e-14 -472.315 3.23066e-14 -95357.3)
(-1.59515e+06 282754 -4.55273e-15 279787 2.71807e-15 -326369)
(-236322 48477.3 7.03908e-14 -1932.21 7.64065e-14 -59115.8)
(-386970 121597 0 3899.8 0 -95047.4)
(115495 76509.5 1.37028e-13 733.691 -1.8921e-13 28838.8)
(180071 69892.8 7.24412e-15 -452.575 2.35098e-14 44566.9)
(1.75338e+06 -387751 -1.4102e-15 56343.3 2.45871e-16 449028)
(-2.43854e+06 8097.73 -1.94642e-14 14540 8.94329e-15 -601443)
(771520 62229.5 4.31178e-14 4118.13 3.62065e-14 192451)
(839311 61379.9 -4.35952e-14 4467.56 9.49652e-14 209359)
(-253450 84683.5 -3.25158e-13 666.295 -1.16059e-13 -62720.6)
(179262 108394 5.70631e-14 11997.5 1.12401e-13 47455.5)
(-38740.8 72369.6 9.1485e-14 -2715.18 1.39156e-13 -10286.1)
(-993256 -645212 -1.20646e-15 74757.5 5.0782e-16 -227898)
(-2.37957e+06 78560 6.37048e-15 1809.21 8.2344e-15 -589972)
(2.10804e+06 37327.9 3.45994e-14 3916.85 -1.70284e-14 524020)
(-3.04351e+06 -53595.5 -8.95851e-15 -7939.76 -3.85349e-15 -757127)