/*--------------------------------*- C++ -*----------------------------------*\
| =========                 |                                                 |
| \\      /  F ield         | OpenFOAM: The Open Source CFD Toolbox           |
|  \\    /   O peration     | Version:  2.3.1                                 |
|   \\  /    A nd           | Web:      www.OpenFOAM.org                      |
|    \\/     M anipulation  |                                                 |
\*---------------------------------------------------------------------------*/
FoamFile
{
    version     2.0;
    format      ascii;
    class       volVectorField;
    location    "5040";
    object      D;
}
// * * * * * * * * * * * * * * * * * * * * * * * * * * * * * * * * * * * * * //

dimensions      [0 1 0 0 0 0 0];

internalField   nonuniform List<vector> 
11800
(
(1.0707e-05 0.000302911 0)
(-1.34968e-05 0.000337657 0)
(7.49659e-06 0.000101167 0)
(-8.54546e-06 0.000137956 0)
(-1.23295e-05 0.000337083 0)
(-5.53345e-06 0.000138228 0)
(-2.03478e-06 0.000226965 0)
(-1.93408e-06 0.000174625 0)
(8.92271e-07 2.64152e-05 0)
(1.64208e-06 0.000104964 0)
(1.18868e-05 0.000302191 0)
(-1.06425e-05 0.000117446 0)
(-1.0215e-08 -8.13347e-09 0)
(6.66386e-06 0.000100551 0)
(-7.5787e-06 0.000138542 0)
(7.22164e-06 1.61636e-05 0)
(-1.13412e-06 0.000226299 0)
(-1.09722e-06 0.000173995 0)
(5.06334e-07 2.67096e-05 0)
(1.01863e-06 0.000104439 0)
(-6.51366e-06 0.000137715 0)
(-9.75129e-06 0.000117916 0)
(-1.5773e-06 5.67934e-06 0)
(-1.68384e-06 5.91545e-06 0)
(6.44917e-06 1.84753e-05 0)
(-2.52763e-06 9.44146e-06 0)
(-1.03928e-05 6.98107e-05 0)
(1.52263e-05 0.000203274 0)
(-9.24059e-06 5.28522e-05 0)
(-7.98103e-06 3.79217e-05 0)
(1.61364e-05 0.00025738 0)
(6.80456e-08 4.41653e-06 0)
(3.30294e-06 1.21542e-05 0)
(-8.20179e-06 0.000346534 0)
(6.67614e-06 0.000344968 0)
(-1.83577e-05 0.000274968 0)
(6.22009e-06 0.000346163 0)
(3.25123e-06 1.24976e-05 0)
(-1.9895e-06 0.000239803 0)
(1.64745e-06 0.00011535 0)
(-1.02195e-05 7.05986e-05 0)
(-9.09581e-06 5.35531e-05 0)
(1.48749e-05 0.000202104 0)
(-7.86546e-06 3.85343e-05 0)
(1.57785e-05 0.000256148 0)
(6.88948e-06 1.62925e-05 0)
(1.82067e-06 6.73098e-06 0)
(2.02925e-06 6.62336e-06 0)
(-3.13074e-06 0.000240009 0)
(2.55966e-06 0.000115514 0)
(-1.74244e-05 0.00017696 0)
(-1.86306e-05 0.000229316 0)
(-1.70354e-06 0.000299662 0)
(9.42594e-08 4.19021e-06 0)
(-8.85e-06 1.92685e-05 0)
(1.19523e-06 9.84532e-07 0)
(-2.29107e-05 0.000351304 0)
(-5.72617e-06 9.73692e-05 0)
(6.58159e-06 0.000142333 0)
(-4.15779e-06 9.35118e-05 0)
(2.39064e-06 3.14735e-06 0)
(-2.94089e-06 0.000299888 0)
(-4.9779e-06 9.71476e-05 0)
(5.74042e-06 0.000142598 0)
(6.04072e-06 1.8191e-05 0)
(-2.18743e-05 0.000310408 0)
(-1.80763e-05 0.000176182 0)
(-1.9394e-05 0.000228461 0)
(-2.17606e-05 0.000350735 0)
(-2.65285e-06 9.74955e-06 0)
(-7.31024e-06 0.000347511 0)
(-1.29135e-05 0.000345623 0)
(-1.32892e-05 0.000344391 0)
(-1.12515e-07 1.24677e-07 0)
(2.55287e-06 3.28316e-06 0)
(-1.72917e-05 0.000275743 0)
(7.92877e-06 2.55701e-05 0)
(-2.22293e-05 0.000311573 0)
(-1.76997e-05 0.000314216 0)
(-1.65355e-05 0.00031527 0)
(-8.43615e-06 1.90031e-05 0)
(1.31622e-06 0.000119808 0)
(1.21993e-05 0.000342907 0)
(1.08905e-05 0.00034312 0)
(-1.5587e-06 0.000123154 0)
(-7.67566e-06 4.27326e-05 0)
(1.45876e-05 0.000247989 0)
(-8.78441e-06 5.83545e-05 0)
(-9.80468e-06 7.59727e-05 0)
(1.37127e-05 0.00019438 0)
(-3.84872e-07 0.000293155 0)
(3.50981e-06 1.15512e-05 0)
(-1.09899e-05 0.00031625 0)
(2.27569e-05 0.000354002 0)
(3.61049e-06 0.000152099 0)
(-2.7214e-09 -2.07029e-09 0)
(7.03868e-11 -4.40108e-10 0)
(2.72407e-09 -2.07269e-09 0)
(-2.24458e-07 0.000303361 0)
(-1.01047e-05 0.00012006 0)
(1.95896e-05 0.000352732 0)
(1.18173e-05 0.000131995 0)
(-4.25549e-06 1.69076e-05 0)
(-9.56578e-07 1.30343e-05 0)
(-6.25715e-07 0.000335566 0)
(1.17875e-06 2.76382e-05 0)
(-2.48547e-06 0.000172055 0)
(-2.58644e-06 0.000224114 0)
(3.71746e-06 6.29035e-06 0)
(8.87037e-06 5.83293e-05 0)
(7.75105e-06 4.27101e-05 0)
(9.90093e-06 7.59442e-05 0)
(-1.47681e-05 0.000248019 0)
(-1.3884e-05 0.000194422 0)
(2.11747e-06 0.000102812 0)
(2.94194e-06 5.73306e-06 0)
(2.17077e-05 0.000311681 0)
(-8.86336e-06 0.000319967 0)
(2.99535e-06 5.52316e-06 0)
(-1.46835e-06 0.000106278 0)
(-8.74031e-07 2.57145e-05 0)
(1.99308e-06 0.000228642 0)
(1.89102e-06 0.000176126 0)
(-2.72785e-06 0.000219214 0)
(-1.10618e-05 0.000317447 0)
(-9.57647e-07 0.000302411 0)
(-7.10224e-06 0.0003357 0)
(-1.64322e-06 0.000334784 0)
(-2.45863e-05 0.000362975 0)
(-2.54649e-05 0.000362094 0)
(-6.98983e-07 3.13647e-07 0)
(-3.1835e-06 7.43954e-06 0)
(1.49641e-05 0.000240583 0)
(-8.24408e-06 4.67449e-05 0)
(1.40134e-05 0.000187431 0)
(-9.36402e-06 6.29205e-05 0)
(-1.03933e-05 8.10481e-05 0)
(1.3808e-05 0.000240803 0)
(-7.59675e-06 4.66046e-05 0)
(1.29322e-05 0.000187634 0)
(-8.63085e-06 6.27648e-05 0)
(-9.58135e-06 8.08782e-05 0)
(-1.99477e-06 2.38085e-05 0)
(4.85505e-06 0.000233044 0)
(4.52752e-06 0.000180365 0)
(-3.81588e-06 0.000109768 0)
(1.85731e-05 0.000120564 0)
(-1.84376e-05 0.000117917 0)
(1.16249e-05 0.000132958 0)
(-1.3416e-06 1.38351e-05 0)
(-1.22351e-05 0.000291798 0)
(-1.21291e-05 0.00029335 0)
(5.98756e-06 0.00034232 0)
(-1.36844e-05 0.000275353 0)
(5.49591e-06 0.000194282 0)
(5.96537e-06 0.000247857 0)
(-1.52388e-05 0.000218261 0)
(-1.41239e-05 0.000166616 0)
(7.10285e-06 3.04766e-05 0)
(-1.11086e-06 0.000294259 0)
(4.04108e-06 6.40281e-06 0)
(-1.25053e-05 0.000275626 0)
(8.29955e-06 2.59418e-05 0)
(-5.55334e-06 7.90922e-05 0)
(-4.99283e-06 6.11464e-05 0)
(-4.38343e-06 4.51689e-05 0)
(7.63434e-06 0.000189878 0)
(8.14186e-06 0.000243208 0)
(-3.5604e-06 4.39148e-06 0)
(-6.50429e-06 2.93127e-05 0)
(1.42392e-05 0.000220691 0)
(1.31891e-05 0.000168894 0)
(3.18559e-06 0.000223866 0)
(-2.0914e-05 0.000273683 0)
(-2.11251e-05 0.000275331 0)
(7.42479e-06 1.85084e-05 0)
(7.4355e-06 1.90207e-05 0)
(8.20792e-06 5.66333e-05 0)
(9.18205e-06 7.40534e-05 0)
(7.1507e-06 4.12215e-05 0)
(-1.30581e-05 0.000197056 0)
(-1.38726e-05 0.000250839 0)
(5.59044e-06 0.000193059 0)
(5.99818e-06 0.000246598 0)
(6.06557e-06 0.000117439 0)
(-2.88664e-06 0.000109518 0)
(-1.51663e-06 2.39317e-05 0)
(3.67594e-06 0.00023273 0)
(3.4269e-06 0.000180072 0)
(-4.76433e-06 0.000287794 0)
(-1.59819e-06 5.00806e-05 0)
(-1.80524e-06 6.67144e-05 0)
(-1.79981e-05 0.000308012 0)
(-4.85989e-07 1.13449e-05 0)
(-1.73461e-05 0.000144651 0)
(1.4954e-05 9.56907e-05 0)
(1.7125e-07 1.62675e-07 0)
(-1.07691e-05 0.000347088 0)
(2.15564e-05 0.00031294 0)
(-6.09971e-07 3.63048e-07 0)
(1.42025e-05 0.000328049 0)
(1.77383e-05 0.000280206 0)
(1.90239e-05 0.000280436 0)
(-5.4835e-07 0.000337272 0)
(-1.43561e-06 0.000338356 0)
(1.00011e-05 9.33629e-05 0)
(8.83524e-06 9.37781e-05 0)
(-1.1832e-05 0.000147124 0)
(-1.04236e-05 0.000146605 0)
(6.89335e-07 3.0934e-07 0)
(-1.9444e-06 1.66105e-05 0)
(-2.18789e-06 9.23908e-06 0)
(-5.10098e-08 1.91712e-08 0)
(6.66862e-06 1.09577e-05 0)
(-1.58674e-07 5.03684e-08 0)
(8.67678e-07 9.07371e-06 0)
(-1.22157e-05 0.000335493 0)
(-5.86597e-06 4.17027e-05 0)
(-6.70944e-06 5.71997e-05 0)
(-7.49993e-06 7.46917e-05 0)
(1.12485e-05 0.000249835 0)
(1.06136e-05 0.000196134 0)
(7.32965e-07 0.000232297 0)
(6.81733e-07 0.000179664 0)
(-3.08652e-07 2.41034e-05 0)
(-5.88852e-07 0.000109191 0)
(-2.32744e-07 3.86618e-08 0)
(9.16177e-07 3.01626e-05 0)
(-1.83459e-06 0.000166931 0)
(-5.51266e-06 0.000105448 0)
(1.27676e-06 2.97181e-05 0)
(-2.58455e-06 0.000167819 0)
(-8.34685e-06 0.000317403 0)
(1.03289e-05 0.000118304 0)
(9.62303e-06 0.000117391 0)
(5.08152e-08 1.91009e-08 0)
(2.32481e-07 3.86093e-08 0)
(-1.61925e-05 0.00029535 0)
(-1.55772e-05 0.000296607 0)
(-1.52482e-05 0.000100111 0)
(1.72045e-05 0.000139473 0)
(1.37974e-05 0.000250732 0)
(1.2985e-05 0.000196962 0)
(-7.13325e-06 4.12819e-05 0)
(-8.18957e-06 5.66978e-05 0)
(-9.16063e-06 7.41256e-05 0)
(-4.89703e-07 0.000301197 0)
(-6.00934e-06 2.8039e-05 0)
(1.34623e-05 0.000223462 0)
(1.24891e-05 0.000171462 0)
(8.25146e-06 0.000119546 0)
(6.98053e-06 0.000283979 0)
(1.09575e-05 0.000354429 0)
(1.10978e-06 8.94188e-06 0)
(-4.0381e-06 9.44765e-05 0)
(-9.52015e-09 3.29643e-06 0)
(1.58301e-07 5.02595e-08 0)
(3.90396e-06 9.97119e-05 0)
(3.3603e-06 9.86663e-05 0)
(-4.22782e-06 0.000139727 0)
(-3.62135e-06 0.000140764 0)
(7.50527e-06 7.46697e-05 0)
(6.71397e-06 5.718e-05 0)
(5.85515e-06 4.16927e-05 0)
(-1.0625e-05 0.000196135 0)
(-1.12938e-05 0.000249867 0)
(-5.97838e-06 0.000347193 0)
(2.01272e-06 2.4338e-06 0)
(8.77903e-09 0.0001992 0)
(-1.45003e-08 3.99152e-05 0)
(7.96943e-06 0.00033497 0)
(6.48267e-06 0.000116585 0)
(-2.52156e-05 0.000330987 0)
(7.45052e-06 0.000120412 0)
(2.86569e-07 2.08576e-07 0)
(2.07608e-05 0.000270288 0)
(2.08804e-05 0.000268763 0)
(-1.2672e-05 0.000171681 0)
(-1.36589e-05 0.000223691 0)
(-1.13199e-05 0.000171246 0)
(-1.2205e-05 0.000223226 0)
(6.06837e-06 2.79361e-05 0)
(5.44141e-06 2.81212e-05 0)
(6.17661e-06 0.000157637 0)
(7.34565e-06 0.000157453 0)
(6.70663e-06 0.000208526 0)
(7.97908e-06 0.000208324 0)
(-3.37806e-06 3.50873e-05 0)
(-4.02446e-06 3.5202e-05 0)
(-7.04492e-07 1.57397e-05 0)
(3.56824e-06 1.00269e-05 0)
(3.34035e-06 9.67902e-06 0)
(3.40638e-06 7.32032e-06 0)
(5.97016e-06 0.000285204 0)
(-2.05775e-05 0.000270787 0)
(-2.06874e-05 0.000269204 0)
(7.6731e-06 2.06792e-05 0)
(7.52125e-06 2.00878e-05 0)
(1.62977e-05 0.000120589 0)
(1.65182e-05 0.000121948 0)
(-1.61639e-05 0.000117823 0)
(-1.62482e-05 0.000116486 0)
(7.38451e-06 0.00034209 0)
(-2.0193e-05 0.000346566 0)
(-1.94111e-05 0.000291547 0)
(4.49865e-06 5.05125e-06 0)
(-1.18573e-05 0.000342203 0)
(-1.05871e-05 0.000341025 0)
(5.02695e-06 0.000159448 0)
(-3.10126e-06 0.000143216 0)
(2.76807e-06 9.66204e-05 0)
(-1.38642e-05 0.000121041 0)
(1.35948e-05 0.000117254 0)
(-6.51824e-06 2.03184e-05 0)
(-1.89988e-07 1.19992e-07 0)
(1.02712e-06 4.15054e-06 0)
(1.24969e-06 0.000103139 0)
(-1.1663e-05 0.000103876 0)
(1.25863e-05 0.000134974 0)
(-6.70968e-06 9.45152e-05 0)
(8.01156e-06 0.000145737 0)
(4.06859e-06 0.000254656 0)
(5.61082e-06 0.000254105 0)
(-2.37047e-06 5.42936e-05 0)
(-3.27472e-06 5.46227e-05 0)
(-2.66041e-06 7.14508e-05 0)
(-3.6736e-06 7.18182e-05 0)
(6.35845e-07 2.74484e-05 0)
(-1.35412e-06 0.000172443 0)
(-1.37276e-06 0.000224555 0)
(-2.22629e-06 0.000329378 0)
(3.11562e-06 7.27325e-06 0)
(-6.19804e-07 0.000139521 0)
(-9.58227e-06 0.000337674 0)
(1.28791e-06 1.02157e-06 0)
(8.58092e-06 0.000200159 0)
(-4.60452e-06 3.94752e-05 0)
(-1.44611e-05 0.000141009 0)
(-1.35811e-05 0.000140301 0)
(1.26366e-05 9.86916e-05 0)
(1.19127e-05 9.92942e-05 0)
(-1.43563e-05 0.000352188 0)
(-1.45146e-05 0.000350671 0)
(-2.33615e-06 1.58389e-05 0)
(-2.77068e-06 1.57788e-05 0)
(1.12451e-06 4.35081e-06 0)
(-2.65764e-06 4.51628e-06 0)
(6.84236e-07 0.000146447 0)
(4.11906e-06 2.84459e-05 0)
(3.46442e-06 2.86276e-05 0)
(-8.51472e-06 0.000170493 0)
(-7.13746e-06 0.000170087 0)
(-9.18326e-06 0.000222426 0)
(-7.6997e-06 0.000221991 0)
(-1.86249e-05 0.000282106 0)
(-1.72344e-05 0.000282219 0)
(-4.05848e-06 8.4508e-05 0)
(-3.74687e-06 6.6012e-05 0)
(-3.31399e-06 4.94602e-05 0)
(5.90348e-06 0.000263141 0)
(-9.98371e-07 0.000298259 0)
(1.22323e-05 0.00011714 0)
(1.15831e-05 0.000118164 0)
(5.44446e-06 0.000227454 0)
(5.20268e-06 0.000175095 0)
(-2.41709e-06 2.62116e-05 0)
(2.2829e-06 2.93647e-05 0)
(1.87926e-06 2.99393e-05 0)
(-4.2136e-06 0.000219171 0)
(-5.01486e-06 0.000220308 0)
(-4.64062e-06 0.000168549 0)
(-3.78032e-06 0.00016739 0)
(-4.81178e-06 2.69082e-05 0)
(1.02276e-05 0.00017374 0)
(1.10094e-05 0.000225921 0)
(-1.29029e-07 1.22399e-06 0)
(1.81955e-05 0.000133786 0)
(-1.66795e-05 0.000105278 0)
(-7.22135e-08 1.13844e-06 0)
(-5.48756e-06 0.00025068 0)
(-6.43708e-06 0.000252067 0)
(-5.03064e-06 0.000197011 0)
(-5.89266e-06 0.000198324 0)
(3.18907e-06 4.04431e-05 0)
(2.74798e-06 4.11572e-05 0)
(3.77607e-06 5.5827e-05 0)
(3.24189e-06 5.66434e-05 0)
(4.22899e-06 7.31654e-05 0)
(3.62662e-06 7.4079e-05 0)
(2.05592e-05 0.000282657 0)
(2.0942e-05 0.000284102 0)
(-1.8992e-06 9.31484e-06 0)
(7.71723e-06 0.000201162 0)
(-4.11052e-06 3.8927e-05 0)
(6.68148e-06 3.07399e-05 0)
(-1.32208e-05 0.00016606 0)
(-1.42985e-05 0.000217629 0)
(-1.84978e-07 5.6107e-08 0)
(2.68153e-06 0.000294648 0)
(6.59604e-06 2.93192e-05 0)
(-1.34061e-05 0.000168887 0)
(-1.44871e-05 0.000220637 0)
(4.98483e-06 8.5069e-06 0)
(-1.01334e-05 0.000319504 0)
(6.32301e-06 2.33737e-05 0)
(-1.60069e-05 0.000261998 0)
(-3.36823e-06 1.2527e-05 0)
(-3.59398e-06 1.2989e-05 0)
(3.53205e-06 1.28532e-05 0)
(-1.71803e-06 0.000139303 0)
(-1.30458e-08 -9.60175e-09 0)
(-1.07612e-05 0.00035025 0)
(-1.65872e-07 6.58126e-08 0)
(1.84459e-07 5.59578e-08 0)
(-4.94086e-06 2.83948e-05 0)
(1.0987e-05 0.000222591 0)
(1.01874e-05 0.000170648 0)
(8.47078e-06 0.000295115 0)
(-2.42787e-05 0.000316753 0)
(3.11697e-06 0.000130323 0)
(-1.98894e-06 0.00012689 0)
(-5.38603e-07 1.31103e-05 0)
(-1.51446e-06 1.5725e-06 0)
(-9.4182e-09 -8.48149e-09 0)
(-6.01803e-06 9.54046e-05 0)
(7.18307e-06 0.000144709 0)
(5.14325e-07 1.79909e-07 0)
(-7.94491e-07 0.000125007 0)
(-7.48984e-07 0.000123789 0)
(-1.05113e-08 0.000104797 0)
(-1.37865e-07 2.65475e-05 0)
(2.80941e-07 0.000174335 0)
(2.5342e-07 0.000226751 0)
(-5.16392e-07 1.80643e-07 0)
(2.13979e-06 1.41872e-05 0)
(-8.37217e-06 0.000257703 0)
(4.76572e-06 5.25624e-05 0)
(5.36239e-06 6.95026e-05 0)
(5.90652e-06 8.83349e-05 0)
(1.76336e-05 0.000336125 0)
(-6.40149e-06 2.53873e-05 0)
(1.51188e-05 0.000229594 0)
(1.40744e-05 0.000177167 0)
(-9.97761e-06 0.000309918 0)
(1.43344e-06 3.6271e-06 0)
(1.34827e-05 0.00030413 0)
(-2.83755e-06 4.44808e-06 0)
(9.45119e-06 0.000337469 0)
(-7.21551e-06 0.000257732 0)
(4.10394e-06 5.25393e-05 0)
(4.61796e-06 6.94783e-05 0)
(5.08995e-06 8.83034e-05 0)
(1.25226e-06 3.43658e-06 0)
(6.22874e-06 0.000206298 0)
(-3.19248e-06 3.62189e-05 0)
(-1.0761e-06 1.41273e-05 0)
(-1.76696e-05 0.000305218 0)
(-6.52912e-06 7.93876e-05 0)
(-5.87194e-06 6.14141e-05 0)
(-5.15729e-06 4.54064e-05 0)
(8.90897e-06 0.000189566 0)
(9.50255e-06 0.000242872 0)
(2.42953e-05 0.000356338 0)
(1.41517e-05 0.000312505 0)
(1.56884e-05 0.000311965 0)
(1.93611e-07 1.34602e-07 0)
(8.75939e-06 9.4868e-05 0)
(-1.02578e-05 0.000145304 0)
(-4.44455e-06 9.62323e-05 0)
(5.23102e-06 0.000143778 0)
(-1.49411e-06 0.00015496 0)
(-1.13368e-06 0.000252327 0)
(7.34158e-07 7.29743e-05 0)
(6.55321e-07 5.56532e-05 0)
(4.43198e-08 3.90876e-05 0)
(-2.37705e-07 0.000150552 0)
(-9.96765e-08 0.000200789 0)
(1.11292e-05 0.000355855 0)
(6.25739e-07 1.4553e-05 0)
(-2.66814e-07 3.34514e-06 0)
(2.14218e-06 0.000213256 0)
(1.07155e-07 3.46003e-06 0)
(-1.6153e-06 1.08564e-05 0)
(4.08238e-06 3.89926e-05 0)
(-7.74585e-06 0.00020103 0)
(-1.50926e-07 1.64779e-07 0)
(-1.6365e-05 0.000305074 0)
(-1.34349e-06 2.60377e-05 0)
(2.92086e-06 0.000227969 0)
(2.89445e-06 0.000175437 0)
(3.6169e-07 8.67027e-08 0)
(-4.77443e-06 8.64676e-06 0)
(5.34046e-06 7.12363e-05 0)
(4.75705e-06 5.41066e-05 0)
(-8.23335e-06 0.000255026 0)
(1.5991e-06 9.92188e-05 0)
(-1.1067e-05 0.000345721 0)
(-1.81559e-07 2.54322e-08 0)
(-6.25956e-06 1.3551e-05 0)
(4.05435e-06 7.44441e-06 0)
(-4.07319e-06 4.44705e-06 0)
(1.23165e-05 0.000119302 0)
(9.37823e-06 0.000145333 0)
(-8.0117e-06 9.48349e-05 0)
(5.79007e-07 3.86863e-05 0)
(-1.32688e-06 0.000151127 0)
(-1.10949e-06 0.000201542 0)
(1.17956e-05 0.000300656 0)
(1.09522e-05 0.000130757 0)
(5.72437e-06 0.000348405 0)
(5.51515e-06 0.000349711 0)
(1.60434e-06 0.000144649 0)
(2.17916e-06 9.84702e-05 0)
(1.81341e-07 2.53952e-08 0)
(-1.58158e-05 0.000272464 0)
(5.6817e-06 1.93781e-05 0)
(1.97676e-08 2.63303e-07 0)
(3.04179e-06 0.000194186 0)
(3.97118e-06 0.000194864 0)
(5.30741e-09 2.28417e-08 0)
(-2.97037e-06 7.2004e-06 0)
(7.4742e-06 7.24379e-05 0)
(6.66787e-06 5.51842e-05 0)
(5.79649e-06 3.98889e-05 0)
(-1.07616e-05 0.000199214 0)
(-1.14214e-05 0.000253239 0)
(9.95563e-06 0.000124402 0)
(1.47253e-06 0.000294966 0)
(-6.4349e-06 0.000332826 0)
(-6.09174e-06 0.00033459 0)
(-6.10208e-07 0.000256439 0)
(-5.21364e-07 0.000257857 0)
(4.44629e-07 5.24196e-05 0)
(4.06303e-07 5.31997e-05 0)
(5.00404e-07 6.93484e-05 0)
(4.56726e-07 7.02249e-05 0)
(3.33871e-07 8.81631e-05 0)
(3.97427e-07 8.91019e-05 0)
(7.96299e-07 0.000145136 0)
(1.45156e-06 0.000147482 0)
(2.51804e-06 0.000225301 0)
(-6.23137e-07 0.000154577 0)
(-3.62194e-07 8.68403e-08 0)
(-4.0448e-07 3.18965e-06 0)
(5.48774e-06 0.000205195 0)
(-2.8373e-06 3.67834e-05 0)
(1.42699e-06 4.43423e-06 0)
(2.14003e-05 0.000337785 0)
(-1.61714e-06 0.000258988 0)
(1.01118e-06 5.18263e-05 0)
(1.139e-06 6.8681e-05 0)
(1.12578e-06 8.73873e-05 0)
(-1.63306e-05 0.000283573 0)
(5.62353e-06 0.000100837 0)
(8.35567e-06 0.000358633 0)
(9.44729e-06 0.000357831 0)
(-1.60558e-06 1.11956e-05 0)
(-1.02565e-06 0.000198148 0)
(5.47324e-07 4.04879e-05 0)
(2.37971e-07 2.40391e-07 0)
(2.09989e-05 0.000347357 0)
(-2.80145e-07 5.64716e-06 0)
(-3.91136e-06 5.88615e-05 0)
(-4.36282e-06 7.65524e-05 0)
(-5.22265e-06 7.73617e-05 0)
(-4.68658e-06 5.95896e-05 0)
(-3.38172e-06 4.31439e-05 0)
(-4.09245e-06 4.38002e-05 0)
(6.95011e-06 0.000192264 0)
(7.40673e-06 0.00024576 0)
(2.96734e-06 4.02402e-06 0)
(-1.9011e-07 1.14985e-07 0)
(-1.80899e-05 0.000234462 0)
(-1.88498e-05 0.000346646 0)
(6.15761e-06 0.000147366 0)
(-5.17595e-07 5.77915e-06 0)
(-9.77679e-06 0.000191914 0)
(-1.04137e-05 0.000245373 0)
(5.55216e-06 4.40687e-05 0)
(6.33713e-06 5.98899e-05 0)
(7.05948e-06 7.76918e-05 0)
(9.10141e-06 0.000296099 0)
(2.06487e-05 0.000348596 0)
(-1.10667e-05 0.00012038 0)
(4.54616e-06 3.94648e-05 0)
(-8.59066e-06 0.000200151 0)
(5.89266e-06 0.000148519 0)
(-2.21686e-06 0.000105621 0)
(5.9139e-06 7.18474e-05 0)
(5.27199e-06 5.46531e-05 0)
(-9.07666e-06 0.000254103 0)
(-1.64587e-05 0.000121774 0)
(1.60738e-05 0.000116728 0)
(1.60745e-05 0.000118038 0)
(-1.62414e-05 0.000120382 0)
(-7.53063e-06 2.00757e-05 0)
(-7.75211e-06 2.07031e-05 0)
(-7.62763e-06 0.000118017 0)
(-3.83924e-06 4.55356e-06 0)
(-1.23478e-05 0.00011893 0)
(-1.79681e-06 0.000285226 0)
(-1.56878e-06 1.86737e-06 0)
(1.239e-05 6.91396e-05 0)
(1.10068e-05 5.22639e-05 0)
(-1.75299e-05 0.000178512 0)
(2.83035e-06 7.18914e-05 0)
(2.52332e-06 5.46872e-05 0)
(-4.35072e-06 0.000253987 0)
(5.76465e-06 1.73052e-05 0)
(9.69953e-06 0.000144149 0)
(-8.3451e-06 9.58602e-05 0)
(-4.53082e-06 5.07355e-06 0)
(4.99785e-06 0.000226208 0)
(4.77261e-06 0.000173982 0)
(-2.24238e-06 2.67313e-05 0)
(1.44648e-05 0.000213538 0)
(-7.00164e-06 3.27047e-05 0)
(1.33417e-05 0.000162281 0)
(-7.96579e-06 1.98083e-05 0)
(1.02031e-05 0.000333497 0)
(1.16999e-05 0.000333008 0)
(1.12702e-05 0.000253248 0)
(1.06762e-05 0.000199235 0)
(-5.76704e-06 4.00028e-05 0)
(-6.6006e-06 5.51773e-05 0)
(-7.39869e-06 7.24305e-05 0)
(-1.6521e-06 1.61862e-06 0)
(-8.92751e-06 0.0003096 0)
(9.77239e-06 0.000197012 0)
(-5.3608e-06 4.12086e-05 0)
(-1.00391e-06 1.24203e-06 0)
(8.36008e-06 0.000337248 0)
(1.99681e-06 1.63088e-06 0)
(1.65584e-06 1.2363e-06 0)
(4.20544e-06 5.95531e-06 0)
(1.01036e-05 0.000270813 0)
(-1.70668e-05 0.000278304 0)
(2.27555e-05 0.000338218 0)
(4.25969e-06 6.26103e-06 0)
(9.97404e-06 0.000130717 0)
(1.37073e-05 0.000287225 0)
(-2.19803e-05 0.000271516 0)
(7.984e-06 1.9853e-05 0)
(-5.03433e-06 0.000289037 0)
(2.05347e-06 7.21159e-05 0)
(1.83124e-06 5.4887e-05 0)
(-3.15624e-06 0.000253638 0)
(-7.46553e-07 3.57452e-06 0)
(5.83918e-06 0.000155538 0)
(1.64417e-07 6.5263e-08 0)
(-6.61735e-06 1.342e-05 0)
(-1.17215e-06 0.000127684 0)
(-2.96548e-06 2.44138e-05 0)
(-3.45229e-06 2.45757e-05 0)
(6.64419e-06 0.000179052 0)
(7.71107e-06 0.000178717 0)
(8.27616e-06 0.000231272 0)
(7.12986e-06 0.000231632 0)
(1.94603e-07 7.16554e-07 0)
(-4.67748e-08 9.03284e-06 0)
(-1.18967e-05 0.000160763 0)
(-1.2911e-05 0.000211896 0)
(6.31499e-06 3.34816e-05 0)
(-3.69857e-06 1.98881e-05 0)
(-2.22169e-06 0.000217907 0)
(-3.34286e-06 8.4933e-06 0)
(6.99512e-06 0.000334033 0)
(-5.59296e-06 0.000108637 0)
(-6.48222e-06 0.000108362 0)
(1.89771e-07 1.90251e-07 0)
(-3.70221e-06 0.000112382 0)
(-1.86235e-06 2.2452e-05 0)
(4.36347e-06 0.000183467 0)
(4.67061e-06 0.000236365 0)
(-5.21167e-06 0.000217942 0)
(-4.58121e-06 0.000166265 0)
(2.30232e-06 3.05128e-05 0)
(3.04637e-06 1.14102e-05 0)
(2.82932e-06 1.09941e-05 0)
(1.5044e-06 0.000108317 0)
(-1.9331e-06 0.000231186 0)
(-1.80952e-06 0.000178605 0)
(8.02086e-07 2.45809e-05 0)
(-1.76321e-06 4.24568e-05 0)
(-3.14809e-06 8.73116e-06 0)
(1.30177e-05 0.000341916 0)
(-1.26642e-05 0.000203941 0)
(9.74322e-06 9.54795e-05 0)
(-1.13621e-05 0.000144616 0)
(1.38748e-05 0.000288528 0)
(-1.26611e-05 8.77125e-05 0)
(-1.15115e-05 6.89321e-05 0)
(1.55583e-05 0.000154004 0)
(-1.02234e-05 5.20755e-05 0)
(-8.82878e-06 3.72727e-05 0)
(1.70075e-05 0.000204583 0)
(1.79875e-05 0.00025883 0)
(-4.65328e-06 0.000247616 0)
(-4.37462e-06 0.000194015 0)
(2.79165e-06 5.84794e-05 0)
(2.44057e-06 4.28242e-05 0)
(3.11539e-06 7.61283e-05 0)
(2.67048e-06 5.93255e-05 0)
(-4.41902e-06 0.000246221 0)
(2.97691e-06 7.70712e-05 0)
(2.33808e-06 4.35653e-05 0)
(-4.15164e-06 0.000192703 0)
(-2.44812e-06 0.000314489 0)
(-4.90127e-06 6.38992e-06 0)
(-5.3482e-06 3.02233e-05 0)
(1.15115e-05 0.000218632 0)
(1.06496e-05 0.000166981 0)
(-3.36295e-06 4.07661e-05 0)
(6.20388e-06 0.000197772 0)
(1.70744e-05 0.000245344 0)
(1.60292e-05 0.000191901 0)
(-9.13578e-06 4.41865e-05 0)
(-1.04257e-05 6.00051e-05 0)
(-1.16123e-05 7.78044e-05 0)
(1.79917e-05 0.000267907 0)
(1.96353e-05 0.000267565 0)
(4.35999e-07 7.70327e-06 0)
(-1.79485e-06 0.00012558 0)
(-4.75834e-06 1.30795e-05 0)
(2.42769e-07 4.46184e-07 0)
(-4.68816e-06 1.66298e-05 0)
(-7.45828e-07 0.000285798 0)
(1.98018e-07 7.37071e-06 0)
(-3.92329e-06 0.000134639 0)
(1.62935e-05 0.000178619 0)
(-7.30412e-06 2.47852e-05 0)
(1.74875e-05 0.000231145 0)
(-1.59871e-08 -1.10806e-08 0)
(1.10299e-06 0.000213461 0)
(3.04317e-07 1.27649e-07 0)
(2.07765e-07 1.5195e-07 0)
(2.902e-06 0.000153026 0)
(-3.47204e-07 2.78282e-07 0)
(1.33032e-05 0.000344485 0)
(1.00597e-06 0.000194808 0)
(-5.16934e-07 4.23271e-05 0)
(2.8643e-06 1.69286e-05 0)
(1.84237e-06 0.000194198 0)
(-1.01108e-06 4.26383e-05 0)
(-1.69325e-07 3.72326e-06 0)
(-1.23622e-05 6.91036e-05 0)
(-1.09813e-05 5.2232e-05 0)
(-9.48479e-06 3.74189e-05 0)
(-7.86945e-06 2.4846e-05 0)
(1.75379e-05 0.000178551 0)
(1.8239e-05 0.000204357 0)
(1.88235e-05 0.000231068 0)
(1.92971e-05 0.000258594 0)
(-8.52153e-06 0.000279131 0)
(-7.5699e-06 0.000332176 0)
(-2.4498e-05 0.000274004 0)
(8.70552e-06 1.90097e-05 0)
(5.61246e-06 0.000352256 0)
(6.52582e-06 0.000350731 0)
(1.7536e-06 0.000189867 0)
(1.90202e-06 0.000243226 0)
(-1.32388e-06 7.91852e-05 0)
(-1.1904e-06 6.12253e-05 0)
(-1.04528e-06 4.52329e-05 0)
(-6.9142e-06 1.986e-05 0)
(2.52107e-06 1.42158e-05 0)
(-9.43677e-06 8.2987e-05 0)
(1.25639e-05 0.000184764 0)
(-8.51921e-06 6.46675e-05 0)
(-7.52026e-06 4.82831e-05 0)
(1.34369e-05 0.000237738 0)
(-5.25552e-06 2.20198e-05 0)
(1.36088e-05 0.000265485 0)
(2.29342e-06 0.000120241 0)
(-1.40971e-06 0.000296749 0)
(1.37036e-06 6.81485e-07 0)
(-1.02921e-06 0.000260367 0)
(6.7335e-07 5.1049e-05 0)
(7.59311e-07 6.78063e-05 0)
(7.08662e-07 8.64212e-05 0)
(4.27108e-06 0.000307495 0)
(-5.67817e-07 3.57235e-07 0)
(2.15843e-05 0.000302544 0)
(-3.21814e-06 0.000127499 0)
(-9.55859e-08 2.02806e-07 0)
(7.72213e-06 0.000181866 0)
(-3.34759e-06 2.31756e-05 0)
(8.27279e-06 0.000234648 0)
(1.65751e-07 1.28096e-07 0)
(-4.49995e-06 2.79916e-05 0)
(9.3515e-06 0.000171451 0)
(1.00805e-05 0.000223457 0)
(1.5518e-06 2.01486e-06 0)
(-6.5291e-06 0.000111055 0)
(1.39702e-06 0.000118806 0)
(-1.49197e-05 0.000323462 0)
(1.38933e-06 0.000190909 0)
(1.48136e-06 0.000244311 0)
(-1.11637e-06 7.84168e-05 0)
(-8.77888e-07 4.46283e-05 0)
(-1.00294e-06 6.05337e-05 0)
(2.22182e-06 0.000121138 0)
(-3.03938e-07 1.14644e-06 0)
(-2.68269e-07 3.91923e-06 0)
(6.71689e-07 0.00028533 0)
(1.46752e-05 0.000130329 0)
(-1.37292e-05 0.000108373 0)
(-1.04665e-05 0.000362154 0)
(-2.37736e-05 0.000236094 0)
(-2.22136e-05 0.000183256 0)
(-2.30638e-05 0.000209227 0)
(-2.12192e-05 0.000158338 0)
(1.15482e-05 3.50449e-05 0)
(1.34523e-05 4.94534e-05 0)
(1.52096e-05 6.59527e-05 0)
(1.68226e-05 8.43769e-05 0)
(2.37587e-05 0.00023609 0)
(2.30485e-05 0.000209227 0)
(-1.1557e-05 3.50453e-05 0)
(-1.34615e-05 4.94544e-05 0)
(2.21969e-05 0.000183255 0)
(-1.52204e-05 6.59536e-05 0)
(2.12049e-05 0.000158338 0)
(-1.68346e-05 8.43778e-05 0)
(-6.65391e-06 1.9302e-05 0)
(-3.67276e-06 0.000296114 0)
(-2.61447e-06 0.00029583 0)
(-3.25772e-06 0.000335588 0)
(5.44053e-06 0.000202647 0)
(-2.86836e-06 3.81187e-05 0)
(-1.02045e-06 1.49161e-06 0)
(-4.21973e-06 0.000354772 0)
(-4.60691e-06 7.55343e-05 0)
(-5.64583e-06 7.5248e-05 0)
(-4.12539e-06 5.79486e-05 0)
(-5.05403e-06 5.76939e-05 0)
(6.893e-06 0.000248944 0)
(8.27666e-06 0.000249061 0)
(1.81729e-05 0.000244702 0)
(1.70549e-05 0.000191302 0)
(-9.76346e-06 4.4553e-05 0)
(-1.11343e-05 6.04187e-05 0)
(-1.23951e-05 7.82612e-05 0)
(-1.09634e-05 0.000161334 0)
(-1.18937e-05 0.000212517 0)
(5.78762e-06 3.31597e-05 0)
(-3.4359e-06 0.000144368 0)
(2.92947e-06 9.56389e-05 0)
(3.59734e-06 0.000256035 0)
(-2.07116e-06 5.34075e-05 0)
(-2.32753e-06 7.04572e-05 0)
(-2.525e-06 8.9199e-05 0)
(6.76501e-06 9.44914e-05 0)
(5.73412e-06 9.47346e-05 0)
(-7.94448e-06 0.000145701 0)
(-6.72495e-06 0.0001454 0)
(-8.01388e-06 0.000352103 0)
(5.30308e-07 1.43179e-06 0)
(1.33681e-05 0.000302876 0)
(4.80232e-06 0.00010504 0)
(1.30964e-05 0.000209004 0)
(-6.56891e-06 3.4926e-05 0)
(1.2046e-05 0.000158099 0)
(-1.1168e-05 0.000126125 0)
(2.69218e-06 2.63975e-05 0)
(-6.24466e-06 0.000226968 0)
(-5.80602e-06 0.000174708 0)
(7.8734e-07 0.000109326 0)
(-9.55736e-07 0.000179805 0)
(-1.01829e-06 0.000232468 0)
(4.14562e-07 2.40401e-05 0)
(7.53258e-06 9.89371e-05 0)
(-8.58899e-06 0.000140551 0)
(-4.11255e-06 0.000314484 0)
(-1.90981e-05 0.000311461 0)
(3.41921e-06 0.000134028 0)
(8.56799e-06 0.000134453 0)
(-6.85517e-06 2.56515e-05 0)
(1.61075e-05 0.000229022 0)
(1.49902e-05 0.000176637 0)
(-7.538e-07 3.17661e-06 0)
(-2.57238e-06 0.000262186 0)
(1.43299e-06 5.00176e-05 0)
(1.61867e-06 6.66434e-05 0)
(1.77639e-06 8.51497e-05 0)
(-3.92865e-06 0.000126872 0)
(-1.77016e-05 0.000311567 0)
(-5.0463e-06 5.00789e-05 0)
(-5.69981e-06 6.67058e-05 0)
(-6.27802e-06 8.52524e-05 0)
(9.04295e-06 0.000262095 0)
(1.60433e-08 2.06302e-08 0)
(1.10828e-05 0.000125107 0)
(1.42964e-07 9.63196e-06 0)
(-5.15161e-07 8.88483e-07 0)
(-1.07213e-06 4.11512e-06 0)
(-5.16588e-06 1.77409e-05 0)
(-5.25451e-07 1.92796e-07 0)
(2.1776e-06 5.65836e-05 0)
(1.9061e-06 4.11383e-05 0)
(2.43617e-06 7.40137e-05 0)
(-3.693e-06 0.000250766 0)
(-3.49423e-06 0.000197029 0)
(-1.07346e-05 0.00010365 0)
(1.16769e-05 0.000135268 0)
(-1.0422e-06 6.09411e-07 0)
(1.42122e-05 0.000333612 0)
(1.02551e-05 0.000298293 0)
(-2.18002e-05 0.000280674 0)
(8.06942e-06 0.000133406 0)
(2.91859e-06 0.000144984 0)
(-5.47766e-06 0.000354611 0)
(-1.52403e-05 0.000151952 0)
(-1.44957e-05 0.000151276 0)
(2.15513e-05 0.000354505 0)
(-1.71057e-06 0.00031606 0)
(-4.8027e-06 9.52502e-05 0)
(5.80985e-06 0.000144955 0)
(1.76684e-07 9.97139e-06 0)
(2.61704e-06 3.50926e-06 0)
(5.22468e-07 1.91682e-07 0)
(5.13924e-06 0.000154516 0)
(1.89957e-05 0.000361813 0)
(-1.03896e-05 0.000250809 0)
(-9.77111e-06 0.000197023 0)
(5.34684e-06 4.11893e-05 0)
(6.87343e-06 7.40323e-05 0)
(6.14397e-06 5.66078e-05 0)
(-1.91435e-07 1.32859e-07 0)
(-7.67085e-07 0.000329038 0)
(9.71418e-06 0.000134852 0)
(-8.80517e-06 0.00010418 0)
(-1.55732e-05 0.00032102 0)
(-2.32536e-05 0.00023731 0)
(-2.25643e-05 0.000210401 0)
(-2.17424e-05 0.00018439 0)
(-2.07763e-05 0.000159422 0)
(1.11954e-05 3.44404e-05 0)
(1.30625e-05 4.8753e-05 0)
(1.47858e-05 6.51635e-05 0)
(1.63682e-05 8.3506e-05 0)
(2.32367e-05 0.000237302 0)
(2.25492e-05 0.000210401 0)
(-1.12035e-05 3.44431e-05 0)
(-1.30704e-05 4.8756e-05 0)
(2.17231e-05 0.000184385 0)
(-1.4795e-05 6.51665e-05 0)
(2.07601e-05 0.000159417 0)
(-1.63784e-05 8.35093e-05 0)
(-3.32963e-06 4.4397e-06 0)
(1.30891e-06 1.21855e-06 0)
(-1.75185e-06 3.18093e-06 0)
(8.64904e-06 0.000132298 0)
(-9.47383e-06 0.000136254 0)
(1.67125e-06 1.99331e-06 0)
(-2.58179e-07 4.30907e-08 0)
(-2.0963e-05 0.000281355 0)
(1.20207e-05 0.000358149 0)
(1.34887e-05 0.000358828 0)
(2.57961e-07 4.30479e-08 0)
(3.76851e-06 4.98483e-06 0)
(1.8819e-05 0.000325894 0)
(-7.12317e-06 0.000150736 0)
(-4.58068e-07 3.9714e-07 0)
(-1.03824e-06 1.59697e-06 0)
(-1.61869e-07 4.13258e-08 0)
(3.03861e-07 2.33836e-07 0)
(1.93841e-05 0.000119954 0)
(-1.93201e-05 0.000118557 0)
(5.93962e-06 9.0284e-05 0)
(-7.30057e-06 0.00014796 0)
(6.16802e-06 9.26182e-05 0)
(-3.1226e-07 5.31458e-06 0)
(-4.50098e-06 0.00023726 0)
(3.56813e-06 0.000113129 0)
(-2.50735e-06 0.00023467 0)
(-2.39638e-06 0.000181749 0)
(1.0295e-06 2.31872e-05 0)
(1.96501e-06 0.000111064 0)
(-7.94546e-06 0.000149962 0)
(4.01655e-06 5.28259e-06 0)
(6.65248e-06 9.09704e-05 0)
(2.48477e-06 0.000134234 0)
(1.89125e-05 0.000336604 0)
(-5.7324e-06 0.000135348 0)
(-6.59259e-06 0.000136274 0)
(-5.28083e-06 1.122e-05 0)
(-6.394e-06 0.000140631 0)
(-5.46656e-06 0.00013965 0)
(5.69679e-06 9.87731e-05 0)
(5.00557e-06 9.97533e-05 0)
(-5.94358e-06 2.74019e-05 0)
(1.25135e-05 0.000172788 0)
(1.34776e-05 0.00022489 0)
(-1.62887e-06 1.7983e-06 0)
(-7.95991e-06 0.000148752 0)
(6.69929e-06 9.1992e-05 0)
(-5.07604e-06 0.000191707 0)
(-5.40706e-06 0.00024516 0)
(2.8825e-06 4.41395e-05 0)
(3.66368e-06 7.77974e-05 0)
(3.28928e-06 5.99787e-05 0)
(-2.60616e-06 1.21206e-05 0)
(-1.66629e-05 0.000202238 0)
(-1.57895e-05 0.000201595 0)
(8.75039e-06 3.84878e-05 0)
(8.32448e-06 3.88234e-05 0)
(1.09878e-05 0.00016029 0)
(1.2079e-05 0.000159496 0)
(-5.8732e-06 3.37166e-05 0)
(-6.50406e-06 3.41654e-05 0)
(1.19286e-05 0.000211386 0)
(1.31202e-05 0.000210521 0)
(-4.78595e-06 0.000313325 0)
(9.58767e-06 0.000285987 0)
(9.7255e-06 0.000284645 0)
(-7.04692e-06 9.26267e-05 0)
(8.31553e-06 0.000147923 0)
(-2.51094e-05 0.000349273 0)
(-7.22154e-06 0.000278331 0)
(-6.9348e-06 0.000277019 0)
(2.38618e-06 1.76407e-05 0)
(2.45201e-06 1.71896e-05 0)
(2.16972e-05 0.000281442 0)
(-9.55374e-06 0.000119036 0)
(-8.20073e-06 0.000119078 0)
(2.14669e-05 0.000317962 0)
(-2.16868e-05 0.000335272 0)
(-2.16587e-05 0.000336876 0)