/*--------------------------------*- C++ -*----------------------------------*\
| =========                 |                                                 |
| \\      /  F ield         | OpenFOAM: The Open Source CFD Toolbox           |
|  \\    /   O peration     | Version:  2.3.1                                 |
|   \\  /    A nd           | Web:      www.OpenFOAM.org                      |
|    \\/     M anipulation  |                                                 |
\*---------------------------------------------------------------------------*/
FoamFile
{
    version     2.0;
    format      ascii;
    class       volScalarField;
    location    "0.32";
    object      p;
}
// * * * * * * * * * * * * * * * * * * * * * * * * * * * * * * * * * * * * * //

dimensions      [0 2 -2 0 0 0 0];

internalField   nonuniform List<scalar> 
56420
(
-153.981
-154.29
-154.566
-154.696
-154.399
-154.56
-154.665
-154.847
-154.976
-155.072
-155.016
-155.003
-155.113
-155.199
-155.263
-155.358
-155.277
-155.337
-155.382
-155.418
-155.615
-155.491
-155.515
-155.524
-155.526
-155.812
-155.655
-155.65
-155.632
-155.649
-155.966
-155.78
-155.744
-155.685
-155.645
-156.094
-155.883
-155.817
-155.716
-155.629
-156.216
-155.982
-155.89
-155.753
-155.613
-156.344
-156.091
-155.982
-155.828
-155.707
-156.485
-156.22
-156.102
-155.937
-155.788
-156.642
-156.369
-156.252
-156.092
-155.974
-156.811
-156.533
-156.423
-156.272
-156.173
-156.984
-156.705
-156.606
-156.469
-156.396
-157.153
-156.873
-156.787
-156.66
-156.583
-157.311
-157.031
-156.957
-156.845
-156.803
-157.446
-157.166
-157.104
-157
-156.968
-157.552
-157.273
-157.221
-157.123
-157.098
-157.626
-157.347
-157.304
-157.213
-157.193
-157.659
-157.38
-157.345
-157.258
-157.248
-157.65
-157.372
-157.341
-157.254
-157.222
-157.599
-157.32
-157.296
-157.211
-157.202
-157.505
-157.225
-157.204
-157.116
-157.102
-157.37
-157.084
-157.068
-156.97
-156.967
-157.203
-156.901
-156.894
-156.774
-156.76
-157.004
-156.685
-156.692
-156.545
-156.531
-156.778
-156.456
-156.458
-156.282
-156.249
-156.535
-156.213
-156.202
-156.015
-155.993
-156.283
-155.96
-155.931
-155.743
-155.704
-156.025
-155.702
-155.657
-155.462
-155.388
-155.77
-155.447
-155.389
-155.186
-155.103
-155.524
-155.2
-155.133
-154.923
-154.83
-155.29
-154.964
-154.892
-154.672
-154.584
-155.069
-154.741
-154.666
-154.433
-154.345
-154.864
-154.534
-154.458
-154.215
-154.13
-154.674
-154.342
-154.268
-154.01
-153.91
-154.504
-154.165
-154.093
-153.829
-153.71
-154.354
-154.005
-153.932
-153.666
-153.535
-154.222
-153.871
-153.786
-153.519
-153.37
-154.108
-153.759
-153.662
-153.396
-153.239
-154.013
-153.668
-153.56
-153.298
-153.139
-153.94
-153.596
-153.482
-153.222
-153.047
-153.885
-153.543
-153.426
-153.173
-153.004
-153.847
-153.507
-153.388
-153.142
-152.971
-153.82
-153.484
-153.368
-153.135
-152.982
-153.802
-153.468
-153.357
-153.135
-152.981
-153.788
-153.455
-153.349
-153.134
-152.996
-153.772
-153.44
-153.338
-153.129
-153.006
-153.755
-153.423
-153.322
-153.115
-152.998
-153.733
-153.4
-153.301
-153.093
-152.962
-153.704
-153.373
-153.275
-153.071
-152.934
-153.665
-153.339
-153.246
-153.052
-152.924
-153.617
-153.294
-153.208
-153.023
-152.903
-153.554
-153.237
-153.158
-152.984
-152.89
-153.469
-153.16
-153.091
-152.932
-152.86
-153.359
-153.058
-153.003
-152.854
-152.774
-153.224
-152.927
-152.895
-152.762
-152.706
-153.051
-152.774
-152.752
-152.648
-152.614
-152.83
-152.592
-152.569
-152.519
-152.503
-152.551
-152.368
-152.349
-152.36
-152.384
-152.198
-152.091
-152.087
-152.16
-152.228
-151.766
-151.752
-151.778
-151.925
-152.053
-151.257
-151.35
-151.412
-151.65
-151.849
-150.625
-150.868
-150.974
-151.321
-151.566
-149.674
-150.255
-150.462
-150.964
-151.304
-148.095
-149.537
-149.963
-150.627
-151.072
-146.39
-149.045
-149.721
-150.446
-150.92
-91.3533
-107.597
-113.468
-118.914
-123.414
-127.865
-131.948
-134.931
-137.72
-107.235
-112.73
-114.904
-119.33
-122.822
-126.351
-129.821
-132.868
-135.546
-118.001
-119.294
-119.633
-122.206
-124.341
-126.809
-129.333
-131.706
-133.965
-122.795
-123.272
-123.281
-124.848
-126.025
-127.684
-129.408
-131.08
-132.837
-125.597
-125.693
-125.664
-126.708
-127.349
-128.477
-129.629
-130.758
-131.984
-127.952
-127.665
-127.521
-128.147
-128.43
-129.17
-129.893
-130.618
-131.415
-129.973
-129.362
-129.122
-129.386
-129.385
-129.799
-130.17
-130.567
-131.041
-131.54
-130.727
-130.441
-130.419
-130.203
-130.344
-130.419
-130.538
-130.72
-132.675
-131.734
-131.468
-131.214
-130.843
-130.762
-130.598
-130.486
-130.439
-133.489
-132.466
-132.217
-131.776
-131.298
-131.04
-130.682
-130.378
-130.118
-134.018
-133.002
-132.731
-132.122
-131.581
-131.18
-130.664
-130.205
-129.797
-134.356
-133.358
-132.995
-132.318
-131.724
-131.175
-130.558
-129.963
-129.386
-134.511
-133.506
-133.1
-132.37
-131.724
-131.067
-130.362
-129.664
-128.996
-134.506
-133.489
-133.067
-132.285
-131.596
-130.861
-130.082
-129.289
-128.514
-134.357
-133.337
-132.904
-132.08
-131.358
-130.561
-129.723
-128.858
-128.035
-134.091
-133.071
-132.629
-131.773
-131.026
-130.177
-129.287
-128.347
-127.429
-133.731
-132.71
-132.258
-131.378
-130.61
-129.719
-128.792
-127.802
-126.849
-133.279
-132.263
-131.804
-130.906
-130.122
-129.196
-128.24
-127.209
-126.218
-132.754
-131.742
-131.278
-130.367
-129.57
-128.616
-127.632
-126.556
-125.497
-132.159
-131.158
-130.69
-129.77
-128.962
-127.986
-126.98
-125.871
-124.757
-131.513
-130.52
-130.049
-129.124
-128.309
-127.317
-126.297
-125.178
-124.081
-130.815
-129.834
-129.362
-128.435
-127.615
-126.611
-125.581
-124.437
-123.302
-130.079
-129.109
-128.635
-127.709
-126.885
-125.872
-124.833
-123.68
-122.55
-129.305
-128.349
-127.875
-126.95
-126.124
-125.103
-124.053
-122.877
-121.707
-128.504
-127.56
-127.086
-126.164
-125.336
-124.31
-123.252
-122.062
-120.856
-127.675
-126.747
-126.274
-125.357
-124.529
-123.5
-122.44
-121.25
-120.033
-126.83
-125.914
-125.443
-124.532
-123.705
-122.677
-121.616
-120.432
-119.239
-125.963
-125.065
-124.596
-123.693
-122.868
-121.841
-120.773
-119.57
-118.326
-125.086
-124.203
-123.737
-122.843
-122.019
-120.996
-119.929
-118.727
-117.469
-124.203
-123.334
-122.869
-121.984
-121.166
-120.149
-119.091
-117.915
-116.734
-123.308
-122.456
-121.995
-121.12
-120.305
-119.296
-118.24
-117.056
-115.88
-122.409
-121.573
-121.115
-120.249
-119.439
-118.434
-117.376
-116.173
-114.925
-121.51
-120.686
-120.232
-119.376
-118.57
-117.57
-116.517
-115.327
-114.129
-120.605
-119.798
-119.348
-118.503
-117.703
-116.713
-115.666
-114.474
-113.226
-119.701
-118.909
-118.463
-117.631
-116.839
-115.86
-114.829
-113.67
-112.486
-118.793
-118.02
-117.579
-116.759
-115.976
-115.008
-113.986
-112.839
-111.692
-117.895
-117.135
-116.698
-115.888
-115.111
-114.151
-113.13
-111.964
-110.776
-116.996
-116.25
-115.819
-115.02
-114.249
-113.297
-112.281
-111.12
-109.921
-116.101
-115.37
-114.942
-114.156
-113.393
-112.452
-111.449
-110.311
-109.15
-115.205
-114.492
-114.071
-113.298
-112.544
-111.614
-110.618
-109.479
-108.278
-114.318
-113.62
-113.204
-112.445
-111.7
-110.784
-109.801
-108.681
-107.485
-113.439
-112.754
-112.344
-111.597
-110.864
-109.964
-109.001
-107.925
-106.832
-112.565
-111.891
-111.487
-110.754
-110.031
-109.145
-108.192
-107.117
-106.026
-111.687
-111.032
-110.634
-109.913
-109.2
-108.323
-107.374
-106.286
-105.146
-110.817
-110.176
-109.784
-109.076
-108.372
-107.508
-106.573
-105.507
-104.432
-109.953
-109.325
-108.939
-108.245
-107.552
-106.703
-105.783
-104.722
-103.593
-109.091
-108.478
-108.098
-107.419
-106.739
-105.907
-105.009
-103.993
-102.95
-108.235
-107.635
-107.261
-106.596
-105.929
-105.114
-104.235
-103.24
-102.244
-107.38
-106.793
-106.426
-105.774
-105.117
-104.316
-103.447
-102.445
-101.444
-106.524
-105.951
-105.591
-104.953
-104.307
-103.518
-102.661
-101.671
-100.694
-105.672
-105.112
-104.757
-104.132
-103.498
-102.724
-101.882
-100.895
-99.8809
-104.82
-104.272
-103.925
-103.314
-102.693
-101.937
-101.121
-100.18
-99.2973
-103.963
-103.432
-103.092
-102.496
-101.889
-101.15
-100.351
-99.4143
-98.4788
-103.112
-102.592
-102.258
-101.676
-101.082
-100.358
-99.5746
-98.658
-97.7529
-102.257
-101.75
-101.423
-100.855
-100.273
-99.5644
-98.7967
-97.8957
-96.9604
-101.401
-100.906
-100.586
-100.031
-99.4629
-98.7717
-98.024
-97.1598
-96.3
-100.542
-100.059
-99.7452
-99.205
-98.6503
-97.9763
-97.2447
-96.3932
-95.5272
-99.6755
-99.2067
-98.9007
-98.3751
-97.8339
-97.1767
-96.4608
-95.626
-94.7448
-98.807
-98.3508
-98.0516
-97.5408
-97.0136
-96.3752
-95.6807
-94.8838
-94.0587
-97.9344
-97.4904
-97.1983
-96.7021
-96.1891
-95.5692
-94.8935
-94.1208
-93.3347
-97.0564
-96.6251
-96.34
-95.8579
-95.3581
-94.7553
-94.0943
-93.3293
-92.5185
-96.1732
-95.7533
-95.4752
-95.0073
-94.5209
-93.935
-93.2933
-92.561
-91.8321
-95.2833
-94.8752
-94.6037
-94.1501
-93.6777
-93.1098
-92.485
-91.7617
-91.0243
-94.3847
-93.9898
-93.7258
-93.2868
-92.8282
-92.2778
-91.6706
-90.963
-90.2106
-93.4799
-93.0976
-92.8408
-92.4166
-91.9731
-91.4426
-90.8606
-90.1976
-89.5636
-92.5694
-92.1982
-91.949
-91.5399
-91.1118
-90.6009
-90.0384
-89.382
-88.7443
-91.6492
-91.2916
-91.0497
-90.6557
-90.2425
-89.7501
-89.2085
-88.5713
-87.9435
-90.7236
-90.3765
-90.142
-89.7629
-89.3651
-88.8926
-88.3767
-87.778
-87.2182
-89.7884
-89.4539
-89.2267
-88.8623
-88.4795
-88.025
-87.5268
-86.9362
-86.3285
-88.844
-88.5225
-88.3027
-87.9528
-87.5846
-87.1482
-86.6707
-86.1147
-85.5838
-87.8947
-87.5842
-87.3717
-87.0365
-86.6835
-86.2657
-85.8073
-85.2669
-84.7075
-86.9375
-86.6387
-86.4334
-86.1128
-85.7749
-85.3764
-84.9404
-84.4373
-83.9714
-85.9724
-85.6865
-85.4885
-85.1827
-84.8601
-84.4802
-84.0622
-83.5657
-83.0542
-85.0019
-84.7278
-84.5373
-84.2463
-83.939
-83.5786
-83.1834
-82.7241
-82.3091
-84.027
-83.7646
-83.5814
-83.3048
-83.0131
-82.6724
-82.299
-81.8561
-81.4186
-83.0486
-82.7969
-82.6209
-82.3591
-82.083
-81.7617
-81.4117
-81.0052
-80.6592
-82.0653
-81.8254
-81.6565
-81.4089
-81.148
-80.8449
-80.5126
-80.1119
-79.7191
-81.0787
-80.8511
-80.6895
-80.4561
-80.2099
-79.9251
-79.6145
-79.2484
-78.9479
-80.093
-79.8765
-79.722
-79.5025
-79.2716
-79.0052
-78.7145
-78.3591
-77.9979
-79.1081
-78.9023
-78.7548
-78.5495
-78.334
-78.0869
-77.8203
-77.5106
-77.2742
-78.1246
-77.9306
-77.7898
-77.5983
-77.3979
-77.1693
-76.9211
-76.6176
-76.3375
-77.1457
-76.9628
-76.829
-76.6508
-76.4649
-76.2541
-76.0271
-75.7572
-75.5777
-76.1743
-76.0016
-75.8743
-75.7093
-75.5373
-75.3432
-75.1341
-74.8736
-74.6496
-75.2104
-75.0489
-74.9277
-74.7752
-74.6172
-74.4391
-74.2481
-74.0148
-73.8525
-74.2583
-74.1071
-73.9923
-73.8522
-73.7076
-73.5454
-73.3708
-73.1488
-72.9967
-73.3201
-73.1789
-73.0702
-72.9426
-72.8119
-72.6662
-72.51
-72.3056
-72.1413
-72.3971
-72.2667
-72.1643
-72.0493
-71.9335
-71.8064
-71.6746
-71.5136
-71.459
-71.494
-71.3737
-71.2774
-71.1749
-71.0734
-70.9641
-70.8501
-70.6959
-70.6507
-70.6124
-70.5019
-70.4112
-70.3207
-70.2331
-70.1405
-70.0474
-69.9208
-69.9464
-69.7546
-69.6542
-69.5688
-69.4893
-69.4143
-69.3365
-69.2585
-69.1332
-69.0615
-68.925
-68.834
-68.7536
-68.6848
-68.6226
-68.5599
-68.5009
-68.4107
-68.4036
-68.1264
-68.0445
-67.9683
-67.9098
-67.8603
-67.8144
-67.7782
-67.7239
-67.7331
-67.3637
-67.288
-67.2154
-67.1661
-67.1275
-67.0956
-67.0785
-67.0662
-67.1847
-66.6415
-66.5667
-66.4977
-66.4559
-66.4233
-66.3941
-66.3687
-66.3135
-66.2045
-65.9639
-65.8839
-65.82
-65.7847
-65.7569
-65.7298
-65.7003
-65.6507
-65.6988
-65.3322
-65.245
-65.1875
-65.1586
-65.1379
-65.1218
-65.1118
-65.096
-65.211
-64.7463
-64.6549
-64.6034
-64.5795
-64.5643
-64.5546
-64.5504
-64.5281
-64.5669
-64.2073
-64.1152
-64.0683
-64.0475
-64.0348
-64.0257
-64.0172
-63.9855
-64.01
-63.7172
-63.6265
-63.5829
-63.5647
-63.5543
-63.5471
-63.5393
-63.5109
-63.5269
-63.2776
-63.188
-63.1486
-63.1347
-63.1273
-63.1238
-63.1161
-63.0815
-63.0455
-62.8815
-62.8172
-62.8092
-62.8189
-62.8282
-62.8328
-62.8365
-62.8485
-62.8581
-21.5245
-32.181
-35.4468
-38.9153
-41.7827
-44.6188
-47.0235
-49.138
-50.9655
-52.4647
-53.7383
-54.8145
-33.0431
-36.2084
-37.2234
-39.7409
-42.0719
-44.5006
-46.6162
-48.5349
-50.2416
-51.7092
-52.9276
-53.9675
-40.3407
-41.0107
-41.1687
-42.6951
-44.07
-45.739
-47.3154
-48.8334
-50.2188
-51.4567
-52.5253
-53.4293
-43.972
-44.3048
-44.3937
-45.3851
-46.2038
-47.3416
-48.4508
-49.5757
-50.6338
-51.6111
-52.4835
-53.2375
-46.6561
-46.7695
-46.8469
-47.536
-48.0696
-48.8862
-49.6708
-50.4946
-51.2839
-52.03
-52.7112
-53.3044
-49.1596
-49.032
-49.026
-49.4623
-49.7868
-50.3602
-50.8994
-51.489
-52.0581
-52.6045
-53.1088
-53.5543
-51.4671
-51.1502
-51.0749
-51.2978
-51.4431
-51.8044
-52.1352
-52.5257
-52.9054
-53.2768
-53.6217
-53.9262
-53.5041
-53.0754
-52.9597
-53.0186
-53.0226
-53.2056
-53.3606
-53.5794
-53.7938
-54.0106
-54.2121
-54.3844
-55.2971
-54.7981
-54.6679
-54.5991
-54.4962
-54.5359
-54.5479
-54.6229
-54.696
-54.7792
-54.8575
-54.9206
-56.9033
-56.3555
-56.213
-56.0437
-55.8593
-55.7839
-55.6811
-55.637
-55.5908
-55.5576
-55.5199
-55.4653
-58.3644
-57.7815
-57.6238
-57.3693
-57.1217
-56.9524
-56.7565
-56.6137
-56.4678
-56.3385
-56.2112
-56.0679
-59.7023
-59.0944
-58.9215
-58.5941
-58.2968
-58.0491
-57.7767
-57.5513
-57.3212
-57.1083
-56.8952
-56.632
-60.9329
-60.3074
-60.1199
-59.7318
-59.3943
-59.0807
-58.7452
-58.4502
-58.1498
-57.869
-57.6069
-57.2983
-62.0727
-61.4324
-61.2302
-60.7917
-60.423
-60.0534
-59.6652
-59.3111
-58.9509
-58.6067
-58.2825
-57.9546
-63.1322
-62.4802
-62.2642
-61.784
-61.3901
-60.9716
-60.5394
-60.1347
-59.7239
-59.3264
-58.9412
-58.5494
-64.1183
-63.4597
-63.231
-62.716
-62.3007
-61.8397
-61.371
-60.9232
-60.4696
-60.0302
-59.6051
-59.1574
-65.0516
-64.3803
-64.139
-63.5945
-63.1613
-62.6629
-62.1634
-61.6783
-61.1879
-60.7108
-60.2512
-59.7684
-65.9239
-65.2464
-64.9947
-64.4246
-63.9764
-63.4447
-62.9193
-62.4017
-61.8799
-61.3693
-60.8781
-60.3894
-66.7438
-66.0632
-65.8015
-65.2102
-64.7489
-64.1887
-63.6416
-63.0955
-62.5469
-62.0071
-61.4813
-60.9689
-67.5229
-66.8354
-66.5655
-65.956
-65.4834
-64.8979
-64.3324
-63.7616
-63.1898
-62.6266
-62.0758
-61.541
-68.2569
-67.5691
-67.2918
-66.6661
-66.1831
-65.5752
-64.9943
-64.4011
-63.809
-63.2246
-62.6498
-62.106
-68.9643
-68.2689
-67.9833
-67.3432
-66.8513
-66.2232
-65.6289
-65.0159
-64.405
-63.8008
-63.1989
-62.6161
-69.632
-68.9342
-68.6426
-67.9901
-67.4898
-66.8441
-66.2382
-65.6074
-64.981
-64.3613
-63.7449
-63.1495
-70.2732
-69.5689
-69.2719
-68.608
-68.0999
-67.4391
-66.8236
-66.1774
-65.5383
-64.9057
-64.277
-63.6609
-70.8779
-70.175
-69.8723
-69.199
-68.6847
-68.0102
-67.3863
-66.7264
-66.076
-65.4318
-64.7945
-64.1598
-71.4617
-70.7539
-70.4465
-69.7646
-69.2446
-68.5579
-67.9268
-67.2541
-66.5933
-65.9367
-65.2908
-64.6541
-72.0133
-71.3049
-70.9958
-70.3058
-69.7812
-69.0833
-68.4458
-67.7611
-67.0909
-66.4208
-65.7588
-65.1046
-72.5453
-71.8341
-71.5236
-70.825
-70.2966
-69.5881
-68.9447
-68.2495
-67.5714
-66.8919
-66.2227
-65.5622
-73.0528
-72.3423
-72.0288
-71.3231
-70.7904
-70.073
-69.4249
-68.7202
-68.0358
-67.3479
-66.6711
-66.0066
-73.5476
-72.8308
-72.5128
-71.8008
-71.2646
-70.5388
-69.8866
-69.1732
-68.4837
-67.7894
-67.1087
-66.4479
-74.0103
-73.2939
-72.9766
-72.2581
-71.7192
-70.9854
-70.3298
-69.6082
-68.9137
-68.2113
-67.517
-66.8398
-74.4587
-73.7377
-73.4213
-72.6954
-72.1547
-71.4132
-70.7546
-70.0257
-69.3269
-68.6198
-67.9261
-67.2219
-74.8856
-74.1613
-73.846
-73.1131
-72.5715
-71.8227
-71.1619
-70.4258
-69.7227
-69.0081
-68.3124
-67.5953
-75.2914
-74.5673
-74.2496
-73.5119
-72.9707
-72.2143
-71.5517
-70.8086
-70.1023
-69.3801
-68.6828
-67.9699
-75.6738
-74.9496
-74.6389
-73.8923
-73.3518
-72.5885
-71.9251
-71.1754
-70.4671
-69.7383
-69.0364
-68.3149
-76.0442
-75.3194
-75.007
-74.2554
-73.7162
-72.9456
-72.282
-71.526
-70.8171
-70.0845
-69.3856
-68.6742
-76.3964
-75.671
-75.3623
-74.6015
-74.0637
-73.285
-72.6223
-71.8596
-71.1501
-70.4122
-69.7086
-69.0037
-76.7249
-76.0066
-75.6957
-74.9283
-74.3944
-73.6064
-72.9455
-72.1751
-71.4645
-70.7207
-70.0091
-69.2889
-77.0543
-76.3277
-76.0087
-75.2337
-74.7054
-73.9101
-73.2512
-72.4734
-71.7621
-71.0138
-70.3011
-69.5847
-77.3458
-76.6179
-76.31
-75.5275
-75.0024
-74.1958
-73.5406
-72.7549
-72.0443
-71.2911
-70.5758
-69.8612
-77.6208
-76.9066
-76.5791
-75.8052
-75.2803
-74.4651
-73.8147
-73.0192
-72.3094
-71.55
-70.8297
-70.1006
-77.8875
-77.1725
-76.8426
-76.0636
-75.5434
-74.7185
-74.0724
-73.267
-72.5591
-71.7927
-71.0711
-70.3392
-78.1287
-77.4176
-77.0861
-76.3128
-75.7882
-74.9554
-74.3158
-73.4989
-72.7948
-72.02
-71.2962
-70.5463
-78.3606
-77.6521
-77.3083
-76.5516
-76.0172
-75.1764
-74.5438
-73.7154
-73.0185
-72.2356
-71.5182
-70.7726
-78.5729
-77.8716
-77.5166
-76.7779
-76.2144
-75.3864
-74.757
-73.9172
-73.2292
-72.4362
-71.7238
-70.9717
-78.7708
-78.0674
-77.7111
-76.9774
-76.3961
-75.5936
-74.9491
-74.1053
-73.4253
-72.622
-71.9141
-71.1714
-78.9455
-78.2487
-77.8865
-77.1623
-76.5673
-75.7877
-75.1177
-74.2805
-73.6038
-72.7913
-72.0829
-71.3391
-79.0991
-78.4166
-78.0484
-77.3315
-76.7286
-75.9584
-75.2651
-74.4472
-73.7645
-72.9488
-72.241
-71.5056
-79.2629
-78.5688
-78.1978
-77.4838
-76.8755
-76.109
-75.4057
-74.6089
-73.8965
-73.0908
-72.3806
-71.6334
-79.3972
-78.7012
-78.3312
-77.6181
-77.0063
-76.2439
-75.5337
-74.7468
-74.0134
-73.2296
-72.5136
-71.7601
-79.4999
-78.8145
-78.4445
-77.7348
-77.1208
-76.3628
-75.6469
-74.8639
-74.125
-73.3436
-72.6318
-71.8103
-79.5942
-78.9136
-78.5416
-77.837
-77.22
-76.4645
-75.746
-74.9645
-74.2246
-73.4436
-72.7267
-71.9404
-79.6744
-78.9999
-78.6255
-77.9241
-77.3055
-76.5517
-75.8304
-75.0504
-74.3091
-73.53
-72.8063
-72.0542
-79.7596
-79.0724
-78.6969
-77.9955
-77.3758
-76.6233
-75.9003
-75.1207
-74.3772
-73.5991
-72.8661
-72.1113
-79.8019
-79.1228
-78.751
-78.0513
-77.4306
-76.6795
-75.9548
-75.1759
-74.4297
-73.6536
-72.9182
-72.1736
-79.8337
-79.1624
-78.7876
-78.0902
-77.4693
-76.7203
-75.9938
-75.2155
-74.4678
-73.6923
-72.9533
-72.2052
-79.8581
-79.1848
-78.811
-78.1152
-77.4936
-76.7455
-76.0186
-75.2407
-74.4907
-73.7144
-72.9697
-72.1977
-79.8616
-79.1897
-78.8185
-78.1261
-77.5038
-76.7571
-76.0291
-75.252
-74.5012
-73.7264
-72.988
-72.2455
-79.8476
-79.1813
-78.8092
-78.1182
-77.4978
-76.7528
-76.025
-75.2493
-74.4976
-73.7234
-72.9791
-72.2213
-79.831
-79.1613
-78.7874
-78.0996
-77.4784
-76.7354
-76.0066
-75.2317
-74.48
-73.7072
-72.9658
-72.2167
-79.7727
-79.1206
-78.7493
-78.064
-77.444
-76.7026
-75.9743
-75.2002
-74.4478
-73.6752
-72.9316
-72.176
-79.7295
-79.068
-78.6982
-78.015
-77.3957
-76.6559
-75.9274
-75.1544
-74.4014
-73.6294
-72.8867
-72.1401
-79.6689
-79.0049
-78.6329
-77.9518
-77.3323
-76.5947
-75.8666
-75.0945
-74.3409
-73.5686
-72.8198
-72.069
-79.5706
-78.9186
-78.5497
-77.8723
-77.2548
-76.5194
-75.7921
-75.0213
-74.2682
-73.4974
-72.7495
-72.0038
-79.4608
-78.8188
-78.4519
-77.7785
-77.1635
-76.431
-75.7046
-74.9358
-74.1834
-73.4148
-72.6668
-71.9198
-79.361
-78.7086
-78.3426
-77.6709
-77.0574
-76.3275
-75.6031
-74.8372
-74.0865
-73.3211
-72.5775
-71.8452
-79.2237
-78.5846
-78.2183
-77.5506
-76.9382
-76.2112
-75.4882
-74.7247
-73.9749
-73.2114
-72.4635
-71.722
-79.0811
-78.4428
-78.0789
-77.4146
-76.805
-76.0811
-75.3601
-74.5986
-73.8502
-73.0903
-72.3484
-71.6235
-78.9195
-78.2857
-77.925
-77.264
-76.6568
-75.9359
-75.2169
-74.4583
-73.7114
-72.9541
-72.2093
-71.478
-78.7525
-78.1175
-77.7576
-77.0996
-76.494
-75.7767
-75.0598
-74.3038
-73.5586
-72.8044
-72.0627
-71.3384
-78.5651
-77.9336
-77.5737
-76.92
-76.317
-75.603
-74.8877
-74.1351
-73.3917
-72.6401
-71.8984
-71.1697
-78.3476
-77.7279
-77.372
-76.7221
-76.1235
-75.4146
-74.7019
-73.9523
-73.211
-72.4635
-71.7288
-71.0205
-78.132
-77.5127
-77.1578
-76.5138
-75.9163
-75.2106
-74.5012
-73.7546
-73.0149
-72.2685
-71.5286
-70.8071
-77.8947
-77.2846
-76.9291
-76.2896
-75.6954
-74.9932
-74.2861
-73.5425
-72.8039
-72.0593
-71.3175
-70.5744
-77.6492
-77.0397
-76.6872
-76.0516
-75.4594
-74.7618
-74.0572
-73.3174
-72.5821
-71.8437
-71.1186
-70.4143
-77.3906
-76.7794
-76.4296
-75.7973
-75.209
-74.5155
-73.8146
-73.0785
-72.3464
-71.6102
-70.8826
-70.1699
-77.107
-76.5033
-76.1552
-75.5272
-74.9427
-74.2543
-73.5566
-72.8242
-72.0942
-71.359
-70.6294
-69.9112
-76.7995
-76.2099
-75.8639
-75.2424
-74.6614
-73.9776
-73.2837
-72.5557
-71.8288
-71.0968
-70.3694
-69.6533
-76.4983
-75.9024
-75.5593
-74.9419
-74.3656
-73.6868
-72.9974
-72.2746
-71.5526
-70.8285
-70.114
-69.4486
-76.1616
-75.5766
-75.2377
-74.6266
-74.0547
-73.3811
-72.6963
-71.9788
-71.2616
-70.5425
-69.8221
-69.1366
-75.8191
-75.2399
-74.901
-74.2962
-73.728
-73.0608
-72.3804
-71.6674
-70.9536
-70.2394
-69.5234
-68.8439
-75.45
-74.8837
-74.5483
-73.9492
-73.386
-72.7239
-72.0484
-71.3403
-70.6303
-69.9205
-69.2061
-68.5188
-75.0911
-74.5175
-74.183
-73.5886
-73.0288
-72.3723
-71.7013
-70.9984
-70.2927
-69.5888
-68.8836
-68.2103
-74.6979
-74.1326
-73.7997
-73.2117
-72.6561
-72.0059
-71.3396
-70.642
-69.9402
-69.2405
-68.5365
-67.8556
-74.2807
-73.7308
-73.4009
-72.8193
-72.268
-71.6232
-70.9623
-70.2701
-69.573
-68.8784
-68.1822
-67.5128
-73.8704
-73.3106
-72.9855
-72.408
-71.8622
-71.2241
-70.5686
-69.8824
-69.1907
-68.5016
-67.8114
-67.1531
-73.4265
-72.8754
-72.5535
-71.9824
-71.4409
-70.8093
-70.1593
-69.4792
-68.7924
-68.1073
-67.4177
-66.7526
-72.9603
-72.4196
-72.1005
-71.5374
-71.0028
-70.3786
-69.7347
-69.061
-68.3792
-67.6991
-67.0151
-66.3428
-72.4708
-71.9484
-71.6334
-71.0777
-70.5486
-69.9311
-69.2938
-68.6273
-67.9525
-67.2798
-66.6081
-65.9563
-71.997
-71.4671
-71.1522
-70.603
-70.0788
-69.4685
-68.8382
-68.1786
-67.5107
-66.8446
-66.1786
-65.5316
-71.4877
-70.9652
-70.6529
-70.1102
-69.5924
-68.9898
-68.3668
-67.7145
-67.0531
-66.3934
-65.7347
-65.099
-70.9567
-70.4425
-70.1369
-69.6017
-69.0897
-68.4947
-67.8787
-67.2341
-66.5791
-65.925
-65.268
-64.6223
-70.4143
-69.9034
-69.6007
-69.0726
-68.5676
-67.9817
-67.3736
-66.7372
-66.0906
-65.4445
-64.798
-64.1679
-69.8377
-69.3444
-69.0458
-68.5263
-68.0289
-67.4524
-66.8532
-66.2257
-65.5886
-64.9519
-64.3158
-63.7048
-69.2658
-68.7697
-68.4745
-67.9632
-67.4728
-66.9052
-66.3155
-65.6979
-65.0705
-64.4434
-63.8129
-63.2057
-68.6632
-68.1785
-67.8852
-67.3826
-66.9003
-66.3417
-65.7612
-65.1542
-64.5368
-63.9212
-63.305
-62.723
-68.0347
-67.5616
-67.2753
-66.7818
-66.3071
-65.7591
-65.1885
-64.592
-63.9853
-63.38
-62.77
-62.1872
-67.4054
-66.9302
-66.646
-66.1616
-65.6945
-65.1571
-64.5981
-64.0122
-63.4158
-62.822
-62.2248
-61.6663
-66.7397
-66.2788
-65.9983
-65.5224
-65.0639
-64.5364
-63.9874
-63.4126
-62.8271
-62.2436
-61.6515
-61.0888
-66.0532
-65.601
-65.3278
-64.862
-64.4124
-63.8956
-63.358
-62.7952
-62.2212
-61.6501
-61.0721
-60.5313
-65.3545
-64.9054
-64.6359
-64.1804
-63.7404
-63.2351
-62.7088
-62.1585
-61.5975
-61.0398
-60.4726
-59.9352
-64.6258
-64.1892
-63.923
-63.4774
-63.0464
-62.554
-62.0407
-61.5036
-60.9556
-60.4125
-59.8637
-59.3513
-63.8803
-63.4509
-63.1901
-62.7551
-62.3333
-61.8518
-61.3503
-60.8268
-60.2929
-59.7631
-59.2257
-58.7154
-63.1054
-62.6857
-62.4326
-62.0074
-61.5967
-61.1291
-60.6401
-60.1302
-59.6098
-59.094
-58.5737
-58.0894
-62.3064
-61.9001
-61.6529
-61.2388
-60.8376
-60.3825
-59.9073
-59.4112
-58.9045
-58.402
-57.8929
-57.4192
-61.5029
-61.0986
-60.8531
-60.4489
-60.0578
-59.6146
-59.1527
-58.6716
-58.1782
-57.6885
-57.1895
-56.7152
-60.6682
-60.2694
-60.0291
-59.6357
-59.2553
-58.826
-58.3777
-57.9109
-57.4329
-56.9587
-56.4771
-56.0114
-59.7919
-59.4106
-59.1777
-58.7971
-58.4283
-58.0131
-57.5803
-57.1297
-56.6691
-56.2124
-55.7527
-55.3101
-58.9073
-58.5309
-58.3048
-57.936
-57.5799
-57.1795
-56.7624
-56.3287
-55.8856
-55.4468
-55.0064
-54.5835
-57.9894
-57.6274
-57.408
-57.0516
-56.708
-56.3227
-55.9223
-55.506
-55.0808
-54.6596
-54.2359
-53.8389
-57.0582
-56.7028
-56.487
-56.1431
-55.812
-55.4419
-55.0583
-54.661
-54.2555
-53.8536
-53.4485
-53.0653
-56.0984
-55.7512
-55.5427
-55.2103
-54.8926
-54.539
-54.1729
-53.7946
-53.4091
-53.0287
-52.646
-52.2847
-55.1026
-54.7722
-54.5717
-54.2534
-53.9491
-53.6125
-53.2644
-52.9061
-52.5424
-52.185
-51.8287
-51.5204
-54.0946
-53.7714
-53.5771
-53.2726
-52.9814
-52.662
-52.3328
-51.994
-51.6513
-51.3149
-50.9749
-50.6865
-53.0645
-52.7467
-52.5593
-52.2679
-51.9907
-51.6884
-51.3783
-51.0597
-50.7361
-50.4176
-50.086
-49.7864
-52.0018
-51.6962
-51.5152
-51.2386
-50.9774
-50.693
-50.402
-50.1051
-49.8043
-49.5096
-49.2046
-48.9215
-50.9049
-50.6173
-50.4462
-50.1841
-49.9384
-49.6744
-49.4054
-49.1322
-48.8573
-48.5919
-48.3224
-48.0728
-49.7985
-49.5187
-49.3557
-49.109
-48.8791
-48.6348
-48.3893
-48.142
-47.8946
-47.6574
-47.4214
-47.2183
-48.6716
-48.4
-48.2423
-48.0111
-47.7986
-47.575
-47.3518
-47.1304
-46.9116
-46.7024
-46.4906
-46.3087
-47.5134
-47.2547
-47.1062
-46.8904
-46.695
-46.4927
-46.2943
-46.0997
-45.9105
-45.7346
-45.5633
-45.4759
-46.3353
-46.0855
-45.9458
-45.7472
-45.571
-45.3906
-45.2169
-45.0498
-44.8888
-44.7416
-44.5875
-44.5006
-45.1315
-44.8959
-44.7653
-44.582
-44.4245
-44.2678
-44.1201
-43.9812
-43.8489
-43.729
-43.5929
-43.5041
-43.9051
-43.6847
-43.5646
-43.4003
-43.2627
-43.1304
-43.0101
-42.9012
-42.8014
-42.7185
-42.6262
-42.5697
-42.6726
-42.4588
-42.346
-42.2002
-42.0833
-41.9772
-41.8867
-41.8117
-41.7495
-41.7093
-41.6701
-41.6779
-41.4108
-41.2131
-41.1111
-40.9841
-40.8906
-40.8124
-40.7537
-40.7142
-40.6899
-40.6875
-40.6867
-40.7267
-40.1435
-39.9525
-39.8622
-39.7552
-39.6851
-39.6369
-39.6123
-39.6094
-39.6241
-39.6592
-39.694
-39.7528
-38.8522
-38.6753
-38.5962
-38.5121
-38.4699
-38.454
-38.4666
-38.5038
-38.5609
-38.6409
-38.7273
-38.8436
-37.5433
-37.3849
-37.3204
-37.2618
-37.2495
-37.2703
-37.3238
-37.406
-37.5094
-37.6352
-37.7658
-37.9153
-36.2361
-36.0861
-36.036
-36.0061
-36.0295
-36.0934
-36.1934
-36.3246
-36.4792
-36.6552
-36.837
-37.0393
-34.913
-34.7783
-34.7478
-34.7528
-34.8187
-34.931
-35.0841
-35.2711
-35.4816
-35.7129
-35.9516
-36.2166
-33.5754
-33.46
-33.4573
-33.5068
-33.6266
-33.7998
-34.015
-34.2633
-34.5339
-34.8197
-35.1041
-35.3937
-32.2269
-32.1338
-32.1712
-32.2839
-32.4751
-32.7224
-33.0105
-33.3264
-33.6593
-34.0037
-34.346
-34.7031
-30.8551
-30.8026
-30.907
-31.1117
-31.3996
-31.7381
-32.1073
-32.4939
-32.8875
-33.2878
-33.6816
-34.0816
-29.4296
-29.4737
-29.7005
-30.0474
-30.4618
-30.9077
-31.36
-31.8061
-32.245
-32.6934
-33.1227
-33.5409
-28.1056
-28.353
-28.7894
-29.3284
-29.8776
-30.4251
-30.9487
-31.4208
-31.8464
-32.3678
-32.8103
-33.1866
4.44728
-5.65225
-8.3241
-11.5517
-13.9928
-16.064
-17.7148
-18.9598
-19.9882
-5.73494
-8.99859
-9.89908
-12.3237
-14.245
-16.0887
-17.6006
-18.8604
-19.8877
-12.5662
-13.2463
-13.3212
-14.7973
-15.9045
-17.1821
-18.3334
-19.3801
-20.2445
-16.0389
-16.3148
-16.2889
-17.1968
-17.7996
-18.6475
-19.432
-20.1966
-20.8589
-18.6273
-18.6633
-18.6321
-19.2213
-19.5571
-20.13
-20.6447
-21.1716
-21.6259
-21.0478
-20.8262
-20.7286
-21.0683
-21.2187
-21.5865
-21.8977
-22.2392
-22.5118
-23.2922
-22.8765
-22.7215
-22.8502
-22.8462
-23.037
-23.1777
-23.368
-23.5052
-25.3597
-24.7927
-24.6003
-24.561
-24.4338
-24.4738
-24.4687
-24.522
-24.5423
-27.2145
-26.5499
-26.3481
-26.1795
-25.9555
-25.8706
-25.7476
-25.6852
-25.5836
-28.8843
-28.1746
-27.9703
-27.6964
-27.4012
-27.2164
-26.9988
-26.8398
-26.65
-30.486
-29.7051
-29.4885
-29.1253
-28.7771
-28.5102
-28.215
-27.9771
-27.6906
-31.9031
-31.1387
-30.9145
-30.4765
-30.0871
-29.7531
-29.3952
-29.0975
-28.7619
-33.3473
-32.5111
-32.2701
-31.7654
-31.3421
-30.9485
-30.5371
-30.1812
-29.7798
-34.6442
-33.8109
-33.5531
-32.993
-32.5437
-32.0975
-31.6404
-31.2339
-30.7505
-35.8956
-35.045
-34.7684
-34.1664
-33.6959
-33.2044
-32.7084
-32.2722
-31.7695
-37.0929
-36.2164
-35.9298
-35.2884
-34.8006
-34.2695
-33.7396
-33.2592
-32.7694
-38.1895
-37.3338
-37.0351
-36.3645
-35.8632
-35.2969
-34.7426
-34.2287
-33.6867
-39.2946
-38.4139
-38.0986
-37.3996
-36.8828
-36.285
-35.7071
-35.1611
-34.588
-40.3509
-39.4451
-39.1154
-38.3915
-37.8614
-37.2353
-36.6375
-36.0654
-35.4501
-41.3107
-40.428
-40.0885
-39.3464
-38.8063
-38.1539
-37.539
-36.948
-36.3315
-42.2843
-41.3761
-41.0272
-40.2653
-39.7138
-39.0397
-38.4122
-37.8067
-37.1839
-43.2093
-42.2872
-41.933
-41.1489
-40.5879
-39.8922
-39.2499
-38.6198
-38.0033
-44.0714
-43.1557
-42.7938
-41.9963
-41.4278
-40.7112
-40.0547
-39.3939
-38.7499
-44.9287
-44.0029
-43.6253
-42.8127
-42.2351
-41.4997
-40.8331
-40.1502
-39.4838
-45.7499
-44.8032
-44.4188
-43.5968
-43.0111
-42.2626
-41.5926
-40.9029
-40.2225
-46.484
-45.5645
-45.1824
-44.3483
-43.7594
-42.9989
-42.3253
-41.6316
-40.9544
-47.2465
-46.3007
-45.9163
-45.0696
-44.4775
-43.7038
-43.0243
-42.3189
-41.6428
-47.9353
-47.0092
-46.6164
-45.761
-45.1647
-44.3768
-43.6913
-42.9709
-42.2761
-48.6444
-47.6839
-47.2922
-46.4237
-45.8195
-45.0193
-44.3272
-43.5938
-42.8952
-49.3125
-48.33
-47.9367
-47.0546
-46.4471
-45.6329
-44.9356
-44.1914
-43.4807
-49.8835
-48.9395
-48.5427
-47.6512
-47.044
-46.2172
-45.5142
-44.7559
-44.0302
-50.4527
-49.5125
-49.1235
-48.2224
-47.6152
-46.7753
-46.0673
-45.3009
-44.5727
-51.0555
-50.0843
-49.6893
-48.772
-48.1572
-47.3059
-46.5934
-45.8146
-45.0853
-51.6341
-50.6232
-50.2203
-49.2925
-48.6731
-47.8093
-47.0955
-46.3093
-45.5685
-52.0962
-51.1169
-50.7226
-49.7778
-49.1624
-48.2853
-47.5693
-46.7741
-46.0433
-52.568
-51.5904
-51.1863
-50.2327
-49.6212
-48.7318
-48.011
-47.1988
-46.4335
-53.0148
-52.0249
-51.6253
-50.6642
-50.0542
-49.1492
-48.4294
-47.6104
-46.8659
-53.3612
-52.4242
-52.0384
-51.0637
-50.4543
-49.5415
-48.8245
-47.9923
-47.2402
-53.8192
-52.8142
-52.4086
-51.4369
-50.8344
-49.9082
-49.1952
-48.355
-47.5726
-54.1582
-53.1658
-52.7661
-51.7836
-51.1873
-50.2478
-49.5482
-48.7016
-47.9844
-54.4492
-53.5026
-53.0843
-52.1092
-51.5146
-50.5648
-49.8782
-49.0101
-48.3182
-54.7715
-53.8135
-53.3763
-52.4138
-51.8152
-50.8472
-50.1736
-49.2848
-48.5673
-55.024
-54.0873
-53.6538
-52.6716
-52.0858
-51.1031
-50.4403
-49.5261
-48.8068
-55.2678
-54.3352
-53.8878
-52.9449
-52.3254
-51.3302
-50.6754
-49.7537
-48.9885
-55.5362
-54.5615
-54.1124
-53.181
-52.5258
-51.565
-50.8932
-49.9584
-49.2874
-55.7375
-54.7671
-54.3115
-53.3737
-52.7071
-51.7724
-51.0928
-50.1281