/*--------------------------------*- C++ -*----------------------------------*\
| =========                 |                                                 |
| \\      /  F ield         | OpenFOAM: The Open Source CFD Toolbox           |
|  \\    /   O peration     | Version:  2.3.1                                 |
|   \\  /    A nd           | Web:      www.OpenFOAM.org                      |
|    \\/     M anipulation  |                                                 |
\*---------------------------------------------------------------------------*/
FoamFile
{
    version     2.0;
    format      ascii;
    class       volVectorField;
    location    "0.32";
    object      U;
}
// * * * * * * * * * * * * * * * * * * * * * * * * * * * * * * * * * * * * * //

dimensions      [0 1 -1 0 0 0 0];

internalField   nonuniform List<vector> 
56420
(
(-2.60835 -0.168729 0)
(-2.6003 0.0585692 0)
(-2.23252 0.23946 0)
(-1.66679 0.376067 2.25951e-19)
(-0.924046 0.550318 0)
(-2.94243 -0.279684 0)
(-2.77002 -0.0640759 0)
(-2.33179 0.146069 0)
(-1.73673 0.328533 3.66403e-22)
(-0.938366 0.544349 2.24549e-19)
(-3.14188 -0.325916 0)
(-2.91353 -0.146835 1.22132e-22)
(-2.43312 0.0652613 2.28002e-19)
(-1.81982 0.24976 2.95705e-22)
(-1.02508 0.45284 1.13845e-22)
(-3.30249 -0.34858 4.6604e-19)
(-3.04556 -0.199114 -4.60881e-19)
(-2.53533 0.00479056 0)
(-1.90499 0.185187 2.37063e-22)
(-1.09589 0.389713 -2.24528e-19)
(-3.43286 -0.356269 1.16696e-19)
(-3.16297 -0.230889 2.3083e-19)
(-2.63384 -0.0387608 2.44317e-23)
(-1.99431 0.132609 -4.52401e-19)
(-1.19135 0.328637 0)
(-3.5419 -0.354297 -3.50293e-19)
(-3.26728 -0.248128 1.1557e-19)
(-2.72619 -0.0677764 0)
(-2.08325 0.0943153 0)
(-1.29257 0.285608 1.8942e-23)
(-3.63615 -0.345544 -5.75226e-23)
(-3.3608 -0.25402 -1.154e-19)
(-2.81049 -0.0853033 1.1421e-19)
(-2.16333 0.0618164 0)
(-1.37543 0.230322 1.12179e-19)
(-3.72101 -0.331193 1.16898e-19)
(-3.44755 -0.249505 1.15626e-19)
(-2.8897 -0.0882537 0)
(-2.23776 0.0506983 1.13055e-19)
(-1.44259 0.216137 1.11929e-19)
(-3.80112 -0.312636 0)
(-3.532 -0.236508 -2.31052e-19)
(-2.96892 -0.0784081 0)
(-2.31676 0.0557415 -2.26047e-19)
(-1.55 0.213917 1.11818e-19)
(-3.88073 -0.290979 0)
(-3.61815 -0.217115 2.31161e-19)
(-3.052 -0.0582925 0)
(-2.39895 0.0781899 1.12981e-19)
(-1.63824 0.236091 6.47242e-23)
(-3.96196 -0.267231 2.33912e-19)
(-3.70818 -0.194219 -3.46995e-19)
(-3.14151 -0.0338739 2.28499e-19)
(-2.48958 0.104163 -3.38925e-19)
(-1.7317 0.261028 8.24346e-23)
(-4.04585 -0.242334 -2.34119e-19)
(-3.80259 -0.169874 1.15465e-19)
(-3.23812 -0.00780464 -2.28688e-19)
(-2.59207 0.133863 -2.26093e-19)
(-1.86456 0.295996 2.23423e-19)
(-4.13195 -0.216843 1.17138e-19)
(-3.90033 -0.146112 1.15677e-19)
(-3.33928 0.0153201 2.28559e-19)
(-2.69681 0.156024 -1.19581e-22)
(-1.96989 0.312151 0)
(-4.21862 -0.190913 5.85559e-20)
(-3.99935 -0.123523 -1.15831e-19)
(-3.44307 0.0351296 4.2982e-23)
(-2.8061 0.173634 -1.13025e-19)
(-2.08584 0.331918 1.11775e-19)
(-4.30379 -0.164795 5.86084e-20)
(-4.09743 -0.102629 5.79089e-20)
(-3.54655 0.0503092 -1.14499e-19)
(-2.91636 0.181508 1.13016e-19)
(-2.21236 0.330044 -5.59415e-20)
(-4.38582 -0.138511 0)
(-4.19238 -0.0830971 5.79348e-20)
(-3.64723 0.062402 -5.7318e-20)
(-3.02242 0.186264 -5.65952e-20)
(-2.3242 0.32684 -1.1179e-19)
(-4.46268 -0.111909 5.87147e-20)
(-4.28228 -0.0646458 0)
(-3.74322 0.0710484 5.72972e-20)
(-3.12379 0.184374 1.13157e-19)
(-2.43187 0.310989 1.67765e-19)
(-4.53269 -0.0849308 2.93481e-20)
(-4.36548 -0.0466967 2.89616e-20)
(-3.83296 0.0779063 -8.59075e-20)
(-3.21904 0.180043 -5.65372e-20)
(-2.53041 0.29683 -1.11721e-19)
(-4.59488 -0.0575515 0)
(-4.4408 -0.0289663 2.89885e-20)
(-3.91589 0.0835652 -5.72981e-20)
(-3.30922 0.174007 0)
(-2.62713 0.281202 2.79689e-20)
(-4.64819 -0.0297358 2.93735e-20)
(-4.50726 -0.0111388 1.45043e-20)
(-3.9907 0.0881808 -1.43184e-20)
(-3.39313 0.165387 4.24052e-20)
(-2.72652 0.261398 1.39546e-20)
(-4.69192 -0.0016107 0)
(-4.56406 0.00723473 -1.77583e-24)
(-4.05641 0.0926306 -2.86337e-20)
(-3.46691 0.155383 7.06443e-21)
(-2.80052 0.235403 -6.99093e-21)
(-4.7259 0.0268831 0)
(-4.61114 0.0265305 0)
(-4.11344 0.0982697 0)
(-3.53512 0.149066 -7.06052e-21)
(-2.88537 0.221914 -6.96683e-21)
(-4.75013 0.0555592 0)
(-4.6482 0.0465693 0)
(-4.16118 0.104129 7.14416e-21)
(-3.59449 0.140843 -7.05528e-21)
(-2.94986 0.199163 1.39303e-20)
(-4.76498 0.0846055 -1.46513e-20)
(-4.67508 0.0679487 -1.4476e-20)
(-4.19926 0.111647 2.85555e-20)
(-3.64589 0.134738 1.40972e-20)
(-3.02116 0.18068 -2.78224e-20)
(-4.77124 0.114243 5.85692e-20)
(-4.6918 0.0908819 2.88841e-20)
(-4.22793 0.121482 2.85193e-20)
(-3.68594 0.130559 -2.81664e-20)
(-3.0676 0.159042 5.55354e-20)
(-4.77007 0.145489 -2.92483e-20)
(-4.6993 0.115906 -2.88813e-20)
(-4.24931 0.134949 -2.85282e-20)
(-3.71905 0.132919 2.811e-20)
(-3.11822 0.153861 -5.54886e-20)
(-4.76203 0.178433 0)
(-4.70014 0.142327 -5.76117e-20)
(-4.26425 0.151299 0)
(-3.74412 0.139112 -1.12189e-19)
(-3.16012 0.148717 5.53726e-20)
(-4.74872 0.211714 4.70959e-23)
(-4.69702 0.170436 9.14966e-23)
(-4.2722 0.172337 5.68116e-20)
(-3.7625 0.153393 5.60838e-20)
(-3.19291 0.153921 -1.10433e-19)
(-4.73167 0.245104 9.51284e-23)
(-4.69057 0.200311 5.74905e-20)
(-4.27534 0.196804 -5.66855e-20)
(-3.77684 0.170986 0)
(-3.22225 0.164701 0)
(-4.71189 0.278532 8.27121e-23)
(-4.68164 0.232203 -5.74475e-20)
(-4.27502 0.224253 -5.65317e-20)
(-3.78724 0.192605 0)
(-3.24421 0.178432 -5.50548e-20)
(-4.69088 0.311827 1.86565e-22)
(-4.67153 0.26605 0)
(-4.27312 0.254967 1.13286e-19)
(-3.79571 0.220342 1.11503e-19)
(-3.26587 0.201054 -2.1981e-19)
(-4.67003 0.34524 2.31926e-19)
(-4.66118 0.301521 -1.14567e-19)
(-4.27116 0.288171 0)
(-3.80392 0.251553 0)
(-3.28391 0.23053 0)
(-4.65017 0.378702 -1.15754e-19)
(-4.65142 0.338101 -1.14143e-19)
(-4.26973 0.323108 0)
(-3.8131 0.285129 -1.11175e-19)
(-3.3103 0.262382 1.09464e-19)
(-4.63199 0.41236 7.63613e-23)
(-4.64266 0.375553 1.14142e-19)
(-4.26895 0.359418 1.1257e-19)
(-3.82105 0.319413 4.90475e-23)
(-3.32776 0.29252 -1.09508e-19)
(-4.61609 0.446392 1.47073e-22)
(-4.63538 0.413736 1.13889e-19)
(-4.26947 0.397545 1.93686e-23)
(-3.82986 0.355709 2.22194e-19)
(-3.35518 0.330406 1.09075e-19)
(-4.60259 0.480873 7.07086e-23)
(-4.62978 0.45228 -1.13871e-19)
(-4.27167 0.43686 -2.24808e-19)
(-3.8379 0.391715 1.10949e-19)
(-3.37086 0.36448 -1.48932e-22)
(-4.59206 0.515851 0)
(-4.62589 0.490843 1.1359e-19)
(-4.2757 0.477978 3.75656e-23)
(-3.84742 0.430926 1.10825e-19)
(-3.3861 0.40486 -1.09263e-19)
(-4.58514 0.552087 -1.15145e-19)
(-4.62393 0.529698 1.13462e-19)
(-4.28202 0.519986 -1.1229e-19)
(-3.85963 0.472439 1.05899e-22)
(-3.4046 0.446206 -1.55194e-23)
(-4.58155 0.589802 1.15003e-19)
(-4.62491 0.569378 -1.13606e-19)
(-4.29047 0.562443 -3.3627e-19)
(-3.87378 0.515413 2.21243e-19)
(-3.42387 0.487032 2.17498e-19)
(-4.58141 0.628363 -2.29917e-19)
(-4.62966 0.610336 -2.27061e-19)
(-4.30133 0.606157 -2.23915e-19)
(-3.89022 0.560968 -2.20669e-19)
(-3.44521 0.530933 4.34488e-19)
(-4.58485 0.667347 -2.29364e-19)
(-4.63803 0.652279 6.8012e-19)
(-4.31548 0.650902 -2.23868e-19)
(-3.9103 0.607862 -2.20615e-19)
(-3.47218 0.578943 2.174e-19)
(-4.59231 0.706673 0)
(-4.64993 0.694847 -9.15737e-23)
(-4.33295 0.696144 2.23722e-19)
(-3.93376 0.654657 0)
(-3.50188 0.62572 2.17265e-19)
(-4.60352 0.746449 -2.26006e-22)
(-4.66517 0.73792 -2.26898e-19)
(-4.35382 0.741764 -2.23727e-19)
(-3.9606 0.702479 -4.40953e-19)
(-3.53844 0.676297 2.1685e-19)
(-4.61809 0.786465 4.58497e-19)
(-4.68341 0.780987 0)
(-4.37788 0.786705 0)
(-3.98978 0.748489 4.40348e-19)
(-3.56861 0.720339 -2.16906e-19)
(-4.63536 0.826743 2.28979e-19)
(-4.70411 0.823975 -2.26415e-19)
(-4.40493 0.831113 2.23369e-19)
(-4.02293 0.794685 -4.40539e-19)
(-3.6047 0.770575 2.16819e-19)
(-4.65459 0.866998 0)
(-4.72636 0.866126 2.26162e-19)
(-4.43408 0.87341 -1.70062e-22)
(-4.05988 0.836421 2.19941e-19)
(-3.65108 0.812928 -2.16793e-19)
(-4.67488 0.907301 -2.29108e-19)
(-4.74899 0.907485 -8.76573e-23)
(-4.4637 0.913862 -4.46643e-19)
(-4.09645 0.875472 4.40424e-19)
(-3.69305 0.849239 -9.05637e-23)
(-4.69499 0.947518 1.23907e-23)
(-4.77105 0.948116 -6.22219e-23)
(-4.49282 0.952752 -8.59043e-23)
(-4.13231 0.912195 -2.20011e-19)
(-3.73316 0.881683 -8.36179e-23)
(-4.7146 0.987416 2.28951e-19)
(-4.79193 0.987911 2.25988e-19)
(-4.52064 0.990344 -4.46203e-19)
(-4.16693 0.946796 4.4005e-19)
(-3.77407 0.912079 0)
(-4.73358 1.02746 -4.58062e-19)
(-4.81121 1.02741 -5.31164e-23)
(-4.54668 1.02733 -9.09581e-23)
(-4.19925 0.980324 -2.1998e-19)
(-3.81234 0.941637 -8.90896e-23)
(-4.75095 1.06726 2.28873e-19)
(-4.82865 1.06662 4.54941e-23)
(-4.57115 1.06413 2.22724e-19)
(-4.22964 1.01475 -1.30837e-22)
(-3.84762 0.974658 2.16404e-19)
(-4.76666 1.10656 -2.28892e-19)
(-4.84419 1.10525 2.25833e-19)
(-4.59452 1.1002 -2.2293e-19)
(-4.25954 1.04935 -2.19689e-19)
(-3.88174 1.00685 0)
(-4.78042 1.14508 6.85852e-19)
(-4.8574 1.14258 -4.51519e-19)
(-4.6167 1.13441 -2.22751e-19)
(-4.28928 1.08167 2.1965e-19)
(-3.91657 1.03722 0)
(-4.79177 1.18271 -2.28653e-19)
(-4.86754 1.17853 4.51105e-19)
(-4.63695 1.16651 -2.0955e-23)
(-4.31785 1.11193 -2.1945e-19)
(-3.95093 1.06436 2.1593e-19)
(-4.79951 1.21901 2.28231e-19)
(-4.87368 1.21266 2.25065e-19)
(-4.65455 1.19593 -2.22581e-19)
(-4.34513 1.13878 -2.19332e-19)
(-3.98379 1.08738 0)
(-4.8028 1.25347 0)
(-4.87465 1.24442 4.50232e-19)
(-4.6687 1.22212 -6.66969e-19)
(-4.3703 1.16079 6.57631e-19)
(-4.0222 1.10605 0)
(-4.80133 1.28604 -4.55877e-19)
(-4.86945 1.27328 -4.49897e-19)
(-4.67917 1.24527 2.223e-19)
(-4.39091 1.18128 -8.762e-19)
(-4.0547 1.12249 0)
(-4.79391 1.31675 4.55258e-19)
(-4.85812 1.29873 4.49848e-19)
(-4.68549 1.26359 0)
(-4.40809 1.19772 8.75372e-19)
(-4.08278 1.13439 0)
(-4.77859 1.34358 -4.55305e-19)
(-4.84079 1.32077 0)
(-4.6857 1.27606 -4.42919e-19)
(-4.42211 1.20959 -2.0781e-22)
(-4.11018 1.14242 -1.29017e-18)
(-4.75373 1.36391 4.53837e-19)
(-4.81606 1.33852 -6.77736e-22)
(-4.68021 1.28113 3.03793e-22)
(-4.43288 1.2149 4.36565e-19)
(-4.13503 1.14328 4.29336e-19)
(-4.71702 1.37508 -4.5313e-19)
(-4.78188 1.35 -4.14474e-22)
(-4.66867 1.277 -8.83461e-19)
(-4.44027 1.2103 8.71704e-19)
(-4.1613 1.13474 -4.29282e-19)
(-4.6665 1.37397 4.51187e-19)
(-4.73667 1.35251 4.45946e-19)
(-4.6504 1.26198 -4.40909e-19)
(-4.44312 1.19493 4.34839e-19)
(-4.18356 1.11447 -5.33407e-22)
(-4.60155 1.35772 -4.51359e-19)
(-4.67948 1.34321 -5.003e-22)
(-4.62467 1.2332 -8.79464e-19)
(-4.4423 1.16693 -6.25301e-22)
(-4.20354 1.0841 4.27694e-19)
(-4.51755 1.32218 0)
(-4.60781 1.31986 0)
(-4.58914 1.18685 4.37634e-19)
(-4.43759 1.12184 -4.3356e-19)
(-4.2305 1.03939 4.2614e-19)
(-4.39002 1.25283 0)
(-4.51496 1.27689 0)
(-4.54119 1.1189 -4.37675e-19)
(-4.42693 1.05989 0)
(-4.25204 0.979817 -4.25979e-19)
(-4.16556 1.10637 -4.42002e-19)
(-4.4023 1.19184 0)
(-4.48825 1.02023 4.35206e-19)
(-4.41888 0.973829 0)
(-4.27646 0.90369 0)
(-3.85341 0.813782 4.37474e-19)
(-4.32158 1.0121 0)
(-4.4624 0.885671 -1.18822e-22)
(-4.43151 0.863535 -6.44383e-22)
(-4.31263 0.815937 1.27181e-18)
(9.32044 0.00720873 7.47238e-20)
(11.1494 0.595178 0)
(12.3252 0.037927 -1.67833e-19)
(14.3007 0.167757 -2.59263e-19)
(15.4594 0.207116 1.71504e-19)
(16.7788 0.238301 -8.9218e-20)
(17.8961 0.374965 -1.85894e-19)
(18.902 0.499233 8.9653e-20)
(19.4112 0.668494 -1.914e-19)
(10.5574 0.578753 0)
(11.6852 1.02729 1.66008e-19)
(12.7347 0.45108 -2.51267e-19)
(14.4851 0.557007 8.11007e-20)
(15.598 0.526996 0)
(16.8338 0.538139 8.93669e-20)
(17.8974 0.631988 1.83289e-19)
(18.8412 0.714999 3.96705e-21)
(19.3342 0.820616 -1.85032e-19)
(11.2206 0.779731 8.60381e-20)
(12.1667 1.12164 -1.72929e-19)
(13.1698 0.662399 1.74742e-19)
(14.7257 0.79356 -8.6581e-20)
(15.78 0.744015 0)
(16.9376 0.756416 0)
(17.9401 0.82812 0)
(18.812 0.889112 -9.11852e-20)
(19.2791 0.953711 0)
(11.5094 0.872945 8.85088e-20)
(12.4627 1.1456 0)
(13.4771 0.786111 0)
(14.918 0.931373 -8.99769e-20)
(15.9355 0.880894 0)
(17.0356 0.905465 0)
(17.9889 0.965381 0)
(18.8007 1.01835 3.29268e-22)
(19.2378 1.06487 0)
(11.6834 0.921796 9.31189e-20)
(12.6645 1.14609 -9.2223e-20)
(13.691 0.867738 -9.14149e-20)
(15.0586 1.01492 9.00013e-20)
(16.0563 0.968261 -1.81686e-19)
(17.116 1.00614 -1.60681e-21)
(18.0327 1.05827 2.71453e-19)
(18.7992 1.10759 -9.1674e-20)
(19.2084 1.14617 1.81768e-19)
(11.8195 0.937927 -9.30657e-20)
(12.8274 1.12236 1.8439e-19)
(13.8578 0.914945 -9.00272e-22)
(15.1694 1.06048 -3.6659e-19)
(16.1533 1.02127 3.65297e-19)
(17.1817 1.07123 -2.72933e-19)
(18.0701 1.11789 9.15703e-20)
(18.8022 1.16544 -2.72223e-19)
(19.1904 1.19643 -9.08703e-20)
(11.9199 0.927054 1.90511e-19)
(12.959 1.07809 9.31942e-20)
(13.9922 0.933897 -6.64506e-22)
(15.2593 1.0754 -9.25972e-20)
(16.2325 1.04648 9.19388e-20)
(17.2353 1.10716 1.83032e-19)
(18.1007 1.15036 2.69126e-22)
(18.806 1.19866 1.56057e-22)
(19.1772 1.22633 1.26907e-23)
(11.9822 0.897248 -4.84546e-20)
(13.0575 1.02135 9.49859e-20)
(14.0963 0.931909 -9.42567e-20)
(15.329 1.06654 -4.68194e-20)
(16.294 1.04918 0)
(17.2763 1.11869 9.2004e-20)
(18.1236 1.15984 -2.2862e-19)
(18.808 1.21012 -1.04793e-22)
(19.1654 1.23402 9.05762e-20)
(12.0129 0.854417 9.69571e-20)
(13.1262 0.959023 0)
(14.1726 0.915634 1.4238e-19)
(15.3783 1.03934 -4.71998e-20)
(16.3381 1.03422 -4.65903e-20)
(17.3045 1.11032 4.61989e-20)
(18.1376 1.15033 4.5766e-20)
(18.8063 1.20394 -4.54705e-20)
(19.1527 1.22649 0)
(12.0194 0.802766 4.8804e-20)
(13.1718 0.893313 -4.82601e-20)
(14.2249 0.88786 4.76855e-20)
(15.4089 0.998138 -1.41745e-19)
(16.3661 1.00569 4.6595e-20)
(17.3201 1.08596 -4.6216e-20)
(18.1427 1.12512 1.37421e-19)
(18.8 1.18215 -4.55585e-20)
(19.1381 1.20327 0)
(12.008 0.748245 -4.8711e-20)
(13.198 0.826523 3.05975e-22)
(14.2548 0.848374 1.43828e-19)
(15.424 0.94607 1.41659e-19)
(16.3798 0.967066 -2.34015e-19)
(17.3236 1.04859 1.39134e-19)
(18.1394 1.08714 -9.16879e-20)
(18.7889 1.14858 0)
(19.1205 1.16851 -4.49903e-20)
(11.9827 0.692128 9.82733e-20)
(13.2072 0.755762 -4.8897e-20)
(14.267 0.799407 -2.15405e-22)
(15.4261 0.887962 -9.49742e-20)
(16.3814 0.919004 9.36395e-20)
(17.317 1.00042 -9.26263e-20)
(18.1283 1.03953 1.37233e-19)
(18.772 1.10305 4.48718e-20)
(19.0997 1.12203 -4.50392e-20)
(11.9449 0.633453 -4.93028e-20)
(13.2001 0.682409 0)
(14.2666 0.74444 4.79877e-20)
(15.4162 0.824585 -9.45333e-20)
(16.3717 0.863404 -4.63599e-20)
(17.3014 0.943698 1.8531e-19)
(18.1093 0.984029 0)
(18.7491 1.04976 -4.52723e-20)
(19.0757 1.06859 -4.46765e-20)
(11.896 0.572364 0)
(13.1795 0.607669 2.42428e-20)
(14.2546 0.684993 0)
(15.3954 0.756615 0)
(16.352 0.80203 0)
(17.2773 0.880276 -4.62325e-20)
(18.0831 0.92154 0)
(18.7202 0.988402 0)
(19.048 1.00673 4.4672e-20)
(11.8377 0.509739 0)
(13.1476 0.53242 -9.68216e-20)
(14.2318 0.621927 9.57986e-20)
(15.3654 0.685078 -4.74172e-20)
(16.3236 0.736007 0)
(17.2455 0.811547 0)
(18.0499 0.853623 0)
(18.6855 0.922079 0)
(19.0159 0.939171 -4.42512e-20)
(11.7718 0.446032 0)
(13.106 0.456897 2.42062e-20)
(14.1997 0.555973 -4.76783e-20)
(15.327 0.610817 2.86838e-22)
(16.2874 0.666157 9.31067e-20)
(17.2067 0.738306 -4.60985e-20)
(18.0106 0.780502 0)
(18.6458 0.848997 0)
(18.9796 0.865539 -4.40303e-20)
(11.6991 0.381449 4.89022e-20)
(13.0559 0.381088 -4.84197e-20)
(14.1595 0.48762 7.13542e-20)
(15.2814 0.534497 -9.40593e-20)
(16.2441 0.593168 6.97184e-20)
(17.1615 0.661583 -2.2847e-20)
(17.9658 0.70376 -4.49928e-20)
(18.6019 0.77243 -2.18881e-20)
(18.9412 0.788791 4.41665e-20)
(11.6206 0.316512 0)
(12.9981 0.30551 0)
(14.1117 0.417412 -2.38122e-20)
(15.2291 0.456628 0)
(16.1946 0.517608 -5.77432e-20)
(17.1107 0.582094 4.57324e-20)
(17.9157 0.624037 0)
(18.5531 0.692567 2.22266e-20)
(18.8977 0.710231 -3.27128e-20)
(11.5369 0.25136 0)
(12.9337 0.23019 0)
(14.0575 0.34579 2.3598e-20)
(15.1711 0.37765 -5.97269e-21)
(16.1394 0.439956 -1.15584e-20)
(17.0546 0.500172 0)
(17.8607 0.541273 -2.78693e-20)
(18.4999 0.608198 2.21551e-20)
(18.8499 0.6272 1.09144e-20)
(11.4489 0.186444 9.0653e-21)
(12.8632 0.155481 -1.19699e-20)
(13.9973 0.273057 0)
(15.1079 0.297871 -5.75727e-21)
(16.0793 0.360597 1.14966e-20)
(16.9941 0.416346 0)
(17.8016 0.456205 -5.50446e-21)
(18.4439 0.520399 1.9209e-20)
(18.8018 0.538636 -2.79804e-21)
(11.3571 0.121755 -7.3441e-22)
(12.7875 0.0813497 2.23861e-21)
(13.9318 0.199579 0)
(15.0402 0.217647 0)
(16.0144 0.279993 0)
(16.9294 0.331251 0)
(17.7389 0.37005 2.06657e-21)
(18.3846 0.432706 -6.84677e-22)
(18.7511 0.450279 -6.49909e-22)
(11.2622 0.0575901 -5.25839e-21)
(12.7073 0.00808207 -5.15416e-21)
(13.8617 0.125683 2.70403e-23)
(14.9682 0.137221 0)
(15.9455 0.198519 -5.64966e-21)
(16.8609 0.245208 5.61048e-21)
(17.6725 0.282389 6.90362e-22)
(18.3219 0.342527 6.71897e-22)
(18.6969 0.360288 -1.00324e-20)
(11.1644 -0.00604702 0)
(12.6229 -0.0644278 1.17117e-20)
(13.7872 0.0514636 -5.74564e-21)
(14.8924 0.0567618 2.28793e-20)
(15.8727 0.116341 0)
(16.7888 0.158435 0)
(17.6026 0.193938 1.09159e-20)
(18.2557 0.252105 -1.60755e-20)
(18.6395 0.269247 1.60112e-20)
(11.0643 -0.0688833 4.7485e-20)
(12.5348 -0.135926 -2.35203e-20)
(13.7089 -0.022838 0)
(14.8131 -0.0236426 -1.14036e-20)
(15.7965 0.0335842 0)
(16.7135 0.070924 0)
(17.5293 0.104079 -1.09188e-20)
(18.1864 0.159215 1.07513e-20)
(18.5779 0.177368 0)
(10.9623 -0.131028 -1.05797e-23)
(12.4436 -0.206576 -1.17772e-20)
(13.6272 -0.0970919 -4.58616e-20)
(14.7309 -0.103844 -2.25297e-20)
(15.7171 -0.0495801 4.45685e-20)
(16.6353 -0.0171317 2.16815e-20)
(17.4536 0.0132761 -2.18878e-20)
(18.1151 0.0643914 0)
(18.5152 0.0841464 -6.26414e-20)
(10.8585 -0.192188 7.05914e-20)
(12.3495 -0.276124 4.60757e-20)
(13.5423 -0.171145 -2.28181e-20)
(14.6459 -0.183728 0)
(15.6352 -0.132899 0)
(16.5546 -0.105347 4.34513e-20)
(17.3756 -0.077654 -2.19589e-20)
(18.0422 -0.0308363 -6.36003e-20)
(18.4525 -0.0110586 2.09074e-20)
(10.7533 -0.252484 6.99986e-20)
(12.2532 -0.344687 6.86488e-20)
(13.4546 -0.244832 -9.05623e-20)
(14.5586 -0.263141 6.7045e-20)
(15.5508 -0.216167 4.38418e-20)
(16.4718 -0.193485 -6.51462e-20)
(17.2952 -0.168407 2.12789e-20)
(17.9664 -0.124829 2.10878e-20)
(18.3859 -0.106388 -2.05549e-20)
(10.647 -0.311665 -2.32873e-20)
(12.1546 -0.412013 -4.55782e-20)
(13.3646 -0.318001 0)
(14.469 -0.341995 -6.64529e-20)
(15.4641 -0.299329 4.38833e-20)
(16.3867 -0.2818 1.48604e-22)
(17.2127 -0.260212 -4.24158e-20)
(17.8884 -0.221537 0)
(18.3161 -0.202889 -2.06248e-20)
(10.5401 -0.369777 -9.1896e-20)
(12.0545 -0.478169 2.32121e-20)
(13.2723 -0.390582 8.96214e-20)
(14.3775 -0.420231 -4.39005e-20)
(15.3755 -0.382221 0)
(16.3 -0.369874 1.06663e-19)
(17.1289 -0.351939 -6.34957e-20)
(17.8103 -0.318719 -8.247e-20)
(18.2497 -0.302435 1.22509e-19)
(10.4325 -0.426968 0)
(11.9527 -0.543351 4.482e-20)
(13.1782 -0.462523 0)
(14.2844 -0.497704 4.39131e-20)
(15.2851 -0.464551 0)
(16.2115 -0.457211 4.23427e-20)
(17.0437 -0.442271 -8.32762e-20)
(17.7305 -0.411814 8.27751e-20)
(18.1814 -0.402207 4.06801e-20)
(10.3243 -0.482966 -3.14377e-22)
(11.8497 -0.607261 -1.34499e-19)
(13.0823 -0.533684 -4.39679e-20)
(14.1895 -0.574391 -4.26963e-20)
(15.193 -0.546328 1.71353e-19)
(16.1213 -0.544044 -1.69153e-19)
(16.9561 -0.532804 -4.12932e-20)
(17.6472 -0.504996 8.21898e-20)
(18.1063 -0.49463 0)
(10.2159 -0.537814 -9.03587e-20)
(11.7454 -0.669988 0)
(12.9847 -0.604089 4.3343e-20)
(14.0933 -0.650339 -1.29338e-19)
(15.0992 -0.627702 8.5403e-20)
(16.0294 -0.630711 4.20552e-20)
(16.8669 -0.62413 -4.14152e-20)
(17.5627 -0.601705 0)
(18.0306 -0.59585 0)
(10.1073 -0.591708 1.3446e-19)
(11.6403 -0.731717 -8.84197e-20)
(12.886 -0.673669 -4.33475e-20)
(13.9957 -0.725517 8.54288e-20)
(15.0043 -0.708572 -2.11072e-19)
(15.9364 -0.716854 4.21162e-20)
(16.7769 -0.714698 0)
(17.4779 -0.6959 4.00363e-20)
(17.9555 -0.692157 -7.97566e-20)
(9.9984 -0.644388 8.91445e-20)
(11.5343 -0.792191 -8.7804e-20)
(12.7858 -0.742349 1.29462e-19)
(13.8971 -0.799752 -5.90579e-22)
(14.9082 -0.788667 -1.25659e-19)
(15.8425 -0.80227 1.24454e-19)
(16.6862 -0.805071 8.09424e-20)
(17.3928 -0.792189 -4.02842e-20)
(17.8807 -0.789104 0)
(9.88933 -0.695925 -1.32239e-19)
(11.4278 -0.851449 1.73901e-19)
(12.6847 -0.809952 -1.71435e-19)
(13.7973 -0.872931 5.83562e-22)
(14.811 -0.867777 4.21403e-20)
(15.7476 -0.886444 4.15208e-20)
(16.5945 -0.893377 1.20634e-19)
(17.3072 -0.884481 -8.1924e-22)
(17.8071 -0.8859 -1.17608e-19)
(9.78053 -0.746077 0)
(11.3206 -0.909284 8.61086e-20)
(12.5825 -0.876481 -8.53393e-20)
(13.6967 -0.944996 -8.36206e-20)
(14.7126 -0.945879 -4.09318e-20)
(15.6513 -0.969595 1.22043e-19)
(16.5011 -0.980694 -4.02583e-20)
(17.2184 -0.974676 0)
(17.7272 -0.982538 -3.83894e-20)
(9.67209 -0.795243 -1.74419e-19)
(11.213 -0.966125 1.70979e-19)
(12.4794 -0.942065 -9.02815e-22)
(13.5951 -1.01612 -8.42001e-20)
(14.6132 -1.02323 2.46025e-19)
(15.5538 -1.0523 -8.25861e-20)
(16.4061 -1.06866 -1.53962e-21)
(17.1276 -1.06716 -1.64665e-21)
(17.6444 -1.07668 -1.54363e-19)
(9.5637 -0.843292 -1.72607e-19)
(11.1052 -1.02178 8.61728e-22)
(12.3756 -1.0066 2.51845e-19)
(13.4925 -1.08632 -8.30156e-20)
(14.5129 -1.09986 -8.11647e-20)
(15.4555 -1.13436 2.41268e-19)
(16.3106 -1.15612 1.57303e-19)
(17.0376 -1.15995 -2.33537e-19)
(17.5642 -1.17143 1.54407e-19)
(9.45526 -0.890197 -8.5614e-20)
(10.997 -1.07629 0)
(12.2711 -1.07006 -1.66686e-19)
(13.3895 -1.15546 -8.1793e-20)
(14.4119 -1.17548 -8.12601e-20)
(15.3565 -1.21532 -1.59441e-19)
(16.2146 -1.242 0)
(16.9467 -1.25015 -1.54415e-19)
(17.4824 -1.26422 7.62527e-20)
(9.34715 -0.935655 8.56477e-20)
(10.8887 -1.1293 0)
(12.166 -1.13227 8.30544e-20)
(13.2857 -1.22341 2.4428e-19)
(14.3103 -1.25003 -1.61282e-19)
(15.257 -1.29536 2.37023e-19)
(16.118 -1.32756 -1.56556e-19)
(16.8547 -1.34192 7.69422e-20)
(17.3984 -1.35799 -1.4991e-19)
(9.23982 -0.979998 8.43668e-20)
(10.7804 -1.18112 -8.32211e-20)
(12.0605 -1.19328 1.64573e-19)
(13.1815 -1.29012 8.06093e-20)
(14.208 -1.32337 2.38407e-19)
(15.157 -1.37419 -1.57811e-19)
(16.0211 -1.41173 7.70877e-20)
(16.7638 -1.43268 7.58465e-20)
(17.3193 -1.45307 7.46246e-20)
(9.13288 -1.02329 1.67512e-19)
(10.6719 -1.23179 -8.29183e-20)
(11.9545 -1.25306 0)
(13.0767 -1.35552 -1.60661e-19)
(14.1051 -1.39526 -2.37278e-19)
(15.0563 -1.45125 7.9056e-20)
(15.9235 -1.49306 7.72199e-20)
(16.6719 -1.51725 -5.47995e-22)
(17.2382 -1.54446 -2.2255e-19)
(9.02582 -1.06551 -2.50722e-19)
(10.5634 -1.28135 -4.09069e-19)
(11.848 -1.31156 3.24361e-19)
(12.9712 -1.4196 8.00481e-20)
(14.0014 -1.46582 0)
(14.9543 -1.52708 -7.77485e-20)
(15.8242 -1.57375 -1.51793e-19)
(16.5764 -1.60145 2.24847e-19)
(17.15 -1.63326 -1.48491e-19)
(8.91884 -1.10627 1.65203e-19)
(10.4545 -1.3294 -8.15607e-20)
(11.7406 -1.36877 0)
(12.865 -1.48247 1.57811e-19)
(13.8966 -1.53533 -3.12141e-19)
(14.8514 -1.60215 2.30899e-19)
(15.7238 -1.65472 -2.27546e-19)
(16.4804 -1.68814 -2.96344e-19)
(17.0622 -1.72636 3.67715e-19)
(8.81235 -1.14592 -1.63986e-19)
(10.3457 -1.37623 1.62075e-19)
(11.6331 -1.42468 -1.59002e-19)
(12.7582 -1.54408 3.1435e-19)
(13.7913 -1.60361 -1.12127e-21)
(14.748 -1.67594 -7.66511e-20)
(15.6232 -1.73398 7.54536e-20)
(16.3848 -1.77124 0)
(16.9753 -1.81221 -7.30396e-20)
(8.70601 -1.18439 -1.63234e-19)
(10.2367 -1.42181 0)
(11.5249 -1.47926 7.89708e-20)
(12.6508 -1.6043 -9.99511e-22)
(13.6855 -1.67046 -1.54352e-19)
(14.6442 -1.74828 7.54967e-20)
(15.5222 -1.81233 0)
(16.289 -1.85641 0)
(16.8892 -1.90097 7.16003e-20)
(8.59988 -1.22154 0)
(10.1275 -1.46597 0)
(11.4163 -1.53238 7.88922e-20)
(12.5429 -1.66298 1.54381e-19)
(13.579 -1.73566 -1.53216e-19)
(14.5397 -1.81865 7.43165e-20)
(15.421 -1.88759 -1.3505e-21)
(16.1935 -1.93595 -1.46572e-19)
(16.8053 -1.98606 2.1474e-19)
(8.49392 -1.25757 -8.00939e-20)
(10.0181 -1.50888 -7.87137e-20)
(11.307 -1.58405 0)
(12.4342 -1.72007 7.65685e-20)
(13.4716 -1.79913 0)
(14.4341 -1.88715 -2.23164e-19)
(15.318 -1.96084 1.4777e-19)
(16.0951 -2.0123 -7.21406e-20)
(16.7151 -2.07332 -7.10295e-20)
(8.38766 -1.29239 2.39747e-19)
(9.9082 -1.55047 7.87448e-20)
(11.197 -1.63427 0)
(12.3245 -1.77572 -4.73467e-22)
(13.3631 -1.86117 -1.50965e-19)
(14.3271 -1.95438 7.44291e-20)
(15.2134 -2.03367 1.45359e-19)
(15.9944 -2.08893 -7.23033e-20)
(16.6228 -2.15535 5.40503e-22)
(8.28126 -1.32589 0)
(9.79801 -1.59061 -7.7543e-20)
(11.0863 -1.683 0)
(12.2139 -1.82989 -1.50384e-19)
(13.2534 -1.92178 7.54377e-20)
(14.219 -2.02022 0)
(15.1077 -2.10523 -7.20762e-20)
(15.8932 -2.16406 2.85422e-19)
(16.5292 -2.23609 -2.80299e-19)
(8.17472 -1.35822 6.34049e-22)
(9.6872 -1.62946 2.31469e-19)
(10.9749 -1.73029 1.51307e-22)
(12.1026 -1.88254 7.45445e-20)
(13.143 -1.98084 -7.43113e-20)
(14.1102 -2.08453 1.11051e-21)
(15.0016 -2.17578 -7.22401e-20)
(15.7921 -2.2407 1.40732e-19)
(16.4369 -2.3221 -2.10267e-19)
(8.06756 -1.38917 3.11992e-19)
(9.57594 -1.66687 -1.53945e-19)
(10.8626 -1.77597 3.02868e-19)
(11.9902 -1.93347 -1.4962e-19)
(13.0316 -2.03804 -1.15292e-21)
(14.0006 -2.14658 1.45588e-19)
(14.8948 -2.24281 0)
(15.6909 -2.30959 1.41179e-19)
(16.3459 -2.39462 0)
(7.96017 -1.41859 -1.55426e-19)
(9.46398 -1.70256 1.51539e-19)
(10.7493 -1.81997 1.4958e-19)
(11.877 -1.98261 4.4265e-19)
(12.919 -2.09332 -4.39501e-19)
(13.8895 -2.20669 4.3014e-19)
(14.7861 -2.30849 -1.43513e-19)
(15.5865 -2.38017 0)
(16.2479 -2.46935 0)
(7.85246 -1.44683 -1.52948e-19)
(9.3514 -1.73687 -1.23775e-21)
(10.635 -1.86229 -1.21569e-21)
(11.7624 -2.03002 -1.18535e-21)
(12.8051 -2.14685 4.33107e-19)
(13.7769 -2.26505 -7.14707e-19)
(14.6758 -2.37218 1.4133e-19)
(15.4808 -2.44829 0)
(16.1506 -2.53814 1.35971e-19)
(7.74402 -1.47366 6.09483e-19)
(9.23788 -1.76964 1.48702e-19)
(10.5197 -1.90295 -4.44618e-19)
(11.6466 -2.07567 -1.18862e-21)
(12.6898 -2.19856 -1.44365e-19)
(13.663 -2.32164 1.41196e-19)
(14.5643 -2.43414 0)
(15.374 -2.51679 0)
(16.0521 -2.61126 -1.01481e-21)
(7.6349 -1.49909 -1.51801e-19)
(9.12348 -1.80084 -2.9674e-19)
(10.4031 -1.94187 5.86357e-19)
(11.5294 -2.11946 -2.90861e-19)
(12.5732 -2.24828 -1.43893e-19)
(13.5477 -2.37608 -4.23569e-19)
(14.4515 -2.49315 4.14153e-19)
(15.2661 -2.58001 -5.4624e-19)
(15.9539 -2.67905 1.3529e-19)
(7.52469 -1.52311 -2.99147e-19)
(9.00802 -1.83047 4.42355e-19)
(10.2852 -1.97897 1.44882e-19)
(11.4109 -2.16133 4.30225e-19)
(12.455 -2.29596 -1.41755e-19)
(13.4308 -2.42852 -1.39096e-19)
(14.3368 -2.55042 2.75087e-19)
(15.1555 -2.6424 0)
(15.8506 -2.74242 1.32969e-19)
(7.41339 -1.54542 0)
(8.89126 -1.85823 -2.92444e-19)
(10.1659 -2.01416 -2.88642e-19)
(11.2907 -2.20121 -2.83838e-19)
(12.3352 -2.34157 -1.38098e-19)
(13.3122 -2.47896 9.38352e-22)
(14.2206 -2.60581 1.34774e-19)
(15.0438 -2.70438 -5.37779e-19)
(15.7474 -2.80721 1.16524e-21)
(7.30119 -1.56616 1.46814e-19)
(8.77326 -1.88425 5.79637e-19)
(10.0452 -2.04741 -4.40203e-22)
(11.1691 -2.23902 1.40542e-19)
(12.2137 -2.38494 2.7855e-19)
(13.192 -2.52696 5.4841e-19)
(14.1028 -2.65803 -1.36981e-19)
(14.931 -2.76174 1.32914e-19)
(15.6447 -2.86999 2.62963e-19)
(7.18784 -1.58534 -2.92422e-19)
(8.65406 -1.90852 1.4274e-19)
(9.92278 -2.07866 -5.68216e-19)
(11.0457 -2.27471 -4.19822e-19)
(12.0904 -2.42601 1.3828e-19)
(13.0698 -2.57258 -2.72481e-19)
(13.9829 -2.70772 -2.68698e-19)
(14.8152 -2.81558 -1.08508e-21)
(15.5372 -2.92719 -6.52848e-19)
(7.07318 -1.60285 1.45629e-19)
(8.53316 -1.93088 4.26744e-19)
(9.79853 -2.10788 -4.21312e-19)
(10.9203 -2.30828 2.78294e-19)
(11.9651 -2.46487 0)
(12.9454 -2.61605 1.35706e-19)
(13.8605 -2.75581 1.33824e-19)
(14.6968 -2.86964 1.31882e-19)
(15.427 -2.98826 0)
(6.95704 -1.61871 0)
(8.4106 -1.95141 -2.82742e-19)
(9.67255 -2.13503 0)
(10.793 -2.33967 -4.11534e-19)
(11.8376 -2.50146 2.72327e-19)
(12.8189 -2.65711 -1.33411e-19)
(13.7364 -2.80089 0)
(14.5773 -2.9181 -1.29705e-19)
(15.3171 -3.04234 0)
(6.83914 -1.6328 -1.42515e-19)
(8.28622 -1.97 4.21631e-19)
(9.54463 -2.16007 4.13655e-19)
(10.6637 -2.3688 -1.36469e-19)
(11.7082 -2.53566 1.34037e-19)
(12.6902 -2.69577 1.33433e-19)
(13.6097 -2.84409 1.30472e-19)
(14.4543 -2.96581 1.29746e-19)
(15.2012 -3.09281 1.26799e-19)
(6.71946 -1.64494 -2.82342e-19)
(8.1601 -1.98645 0)
(9.41454 -2.18281 -2.74163e-19)
(10.5322 -2.39559 0)
(11.5764 -2.56745 -1.34084e-19)
(12.5594 -2.73204 2.62502e-19)
(13.4811 -2.88515 -7.79409e-19)
(14.3301 -3.01317 3.84733e-19)
(15.0858 -3.14868 -2.54603e-19)
(6.59814 -1.65518 -4.30978e-24)
(8.03193 -2.00075 -1.36961e-19)
(9.28242 -2.20324 5.4276e-19)
(10.3985 -2.4199 -2.68653e-19)
(11.4425 -2.59656 -1.32143e-19)
(12.4265 -2.7653 5.2207e-19)
(13.3505 -2.92218 -8.34216e-22)
(14.2047 -3.05255 -1.25598e-19)
(14.9709 -3.19839 2.50572e-19)
(6.47478 -1.6635 -1.39263e-19)
(7.9018 -2.01291 -1.35312e-19)
(9.14804 -2.22124 2.68233e-19)
(10.2625 -2.4416 -1.32152e-19)
(11.3063 -2.62293 -1.31706e-19)
(12.291 -2.79575 1.28767e-19)
(13.217 -2.95708 -1.28273e-19)
(14.0751 -3.09098 -1.25337e-19)
(14.8489 -3.24237 -1.24815e-19)
(6.34939 -1.66964 2.74023e-19)
(7.7693 -2.02265 -1.36287e-19)
(9.01114 -2.2367 -1.33994e-19)
(10.1239 -2.46064 3.94684e-19)
(11.1673 -2.64652 -1.31107e-19)
(12.1528 -2.82333 -1.2881e-19)
(13.0809 -2.9892 3.78134e-19)
(13.9439 -3.12759 -3.73853e-19)
(14.7272 -3.28327 -1.20624e-19)
(6.22178 -1.6738 0)
(7.63459 -2.03017 -2.67573e-19)
(8.8718 -2.24959 -1.31383e-19)
(9.98271 -2.47694 0)
(11.0256 -2.66717 -1.29299e-19)
(12.0119 -2.84764 -3.79705e-19)
(12.9421 -3.01719 3.75443e-19)
(13.8099 -3.15834 -6.18014e-19)
(14.6026 -3.31569 2.4623e-19)
(6.09159 -1.67563 5.01085e-22)
(7.49714 -2.03513 3.98623e-19)
(8.72969 -2.25982 -1.29568e-19)
(9.83858 -2.49042 2.58649e-19)
(10.8809 -2.68492 0)
(11.8679 -2.8691 1.26443e-19)
(12.7999 -3.04292 2.47587e-19)
(13.6714 -3.18989 -3.67058e-19)
(14.4715 -3.35356 3.64306e-19)
(5.95905 -1.67509 2.66535e-19)
(7.35722 -2.03751 0)
(8.58481 -2.26732 0)
(9.69174 -2.50111 -1.27925e-19)
(10.7335 -2.69975 2.52923e-19)
(11.721 -2.88754 1.23977e-19)
(12.6549 -3.06493 1.2242e-19)
(13.531 -3.21533 1.20831e-19)
(14.3415 -3.38117 -2.38875e-19)
(5.82404 -1.6723 1.32172e-19)
(7.2146 -2.03736 -3.89294e-19)
(8.43715 -2.27204 0)
(9.54185 -2.50883 -3.79673e-19)
(10.5829 -2.71151 3.7469e-19)
(11.571 -2.90293 -1.24019e-19)
(12.5068 -3.08424 -1.22465e-19)
(13.3869 -3.24039 -1.20867e-19)
(14.2058 -3.41366 0)
(5.6862 -1.66701 1.31259e-19)
(7.06921 -2.03454 -1.27502e-19)
(8.28651 -2.27387 2.54044e-19)
(9.38892 -2.51354 -1.24541e-19)
(10.4293 -2.72011 -2.481e-19)
(11.4179 -2.91497 2.44894e-19)