/*--------------------------------*- C++ -*----------------------------------*\
| =========                 |                                                 |
| \\      /  F ield         | OpenFOAM: The Open Source CFD Toolbox           |
|  \\    /   O peration     | Version:  2.3.1                                 |
|   \\  /    A nd           | Web:      www.OpenFOAM.org                      |
|    \\/     M anipulation  |                                                 |
\*---------------------------------------------------------------------------*/
FoamFile
{
    version     2.0;
    format      ascii;
    class       volVectorField;
    location    "4100";
    object      D;
}
// * * * * * * * * * * * * * * * * * * * * * * * * * * * * * * * * * * * * * //

dimensions      [0 1 0 0 0 0 0];

internalField   nonuniform List<vector> 
11800
(
(1.00592e-05 0.000285175 0)
(-1.26916e-05 0.00031784 0)
(7.05236e-06 9.54395e-05 0)
(-8.04296e-06 0.000130063 0)
(-1.15943e-05 0.000317301 0)
(-5.20952e-06 0.000130319 0)
(-1.91729e-06 0.000213773 0)
(-1.82314e-06 0.000164556 0)
(8.40124e-07 2.49807e-05 0)
(1.54152e-06 9.90136e-05 0)
(1.11681e-05 0.000284498 0)
(-1.00186e-05 0.000110762 0)
(-9.67448e-09 -7.70229e-09 0)
(6.26863e-06 9.48599e-05 0)
(-7.13347e-06 0.000130614 0)
(6.81963e-06 1.52961e-05 0)
(-1.07063e-06 0.000213147 0)
(-1.03622e-06 0.000163963 0)
(4.75875e-07 2.52586e-05 0)
(9.54755e-07 9.85203e-05 0)
(-6.13163e-06 0.000129837 0)
(-9.17987e-06 0.000111205 0)
(-1.4921e-06 5.38243e-06 0)
(-1.59279e-06 5.60589e-06 0)
(6.08852e-06 1.74807e-05 0)
(-2.3898e-06 8.9418e-06 0)
(-9.79343e-06 6.59075e-05 0)
(1.43106e-05 0.000191497 0)
(-8.71275e-06 4.99235e-05 0)
(-7.53e-06 3.58408e-05 0)
(1.51634e-05 0.000242369 0)
(6.36235e-08 4.18698e-06 0)
(3.11931e-06 1.15069e-05 0)
(-7.71443e-06 0.000326187 0)
(6.27032e-06 0.000324714 0)
(-1.72606e-05 0.000258905 0)
(5.84165e-06 0.000325837 0)
(3.07034e-06 1.18315e-05 0)
(-1.87466e-06 0.000225843 0)
(1.54621e-06 0.00010879 0)
(-9.62991e-06 6.66499e-05 0)
(-8.57605e-06 5.05843e-05 0)
(1.39803e-05 0.000190397 0)
(-7.42078e-06 3.64189e-05 0)
(1.4827e-05 0.000241211 0)
(6.50574e-06 1.5418e-05 0)
(1.72022e-06 6.37753e-06 0)
(1.91745e-06 6.27567e-06 0)
(-2.94745e-06 0.000226038 0)
(2.4046e-06 0.000108944 0)
(-1.63891e-05 0.000166752 0)
(-1.75187e-05 0.000215984 0)
(-1.60642e-06 0.00028212 0)
(8.8435e-08 3.97268e-06 0)
(-8.35894e-06 1.82297e-05 0)
(1.13093e-06 9.34481e-07 0)
(-2.15409e-05 0.000330671 0)
(-5.39412e-06 9.18637e-05 0)
(6.18666e-06 0.000134181 0)
(-3.91801e-06 8.82318e-05 0)
(2.26085e-06 2.9845e-06 0)
(-2.76947e-06 0.000282332 0)
(-4.68977e-06 9.16552e-05 0)
(5.3954e-06 0.000134431 0)
(5.70291e-06 1.72122e-05 0)
(-2.05662e-05 0.000292223 0)
(-1.70023e-05 0.00016602 0)
(-1.82364e-05 0.00021518 0)
(-2.04597e-05 0.000330136 0)
(-2.50807e-06 9.23318e-06 0)
(-6.87641e-06 0.000327105 0)
(-1.21433e-05 0.00032533 0)
(-1.24965e-05 0.000324172 0)
(-1.06572e-07 1.18582e-07 0)
(2.41427e-06 3.11309e-06 0)
(-1.62585e-05 0.000259633 0)
(7.48178e-06 2.41818e-05 0)
(-2.08999e-05 0.000293318 0)
(-1.66421e-05 0.000295803 0)
(-1.55478e-05 0.000296794 0)
(-7.96819e-06 1.79791e-05 0)
(1.2344e-06 0.000112985 0)
(1.14619e-05 0.000322777 0)
(1.02317e-05 0.000322977 0)
(-1.47071e-06 0.000116135 0)
(-7.24043e-06 4.03799e-05 0)
(1.37078e-05 0.000233539 0)
(-8.28118e-06 5.51109e-05 0)
(-9.23785e-06 7.17131e-05 0)
(1.28882e-05 0.000183134 0)
(-3.66936e-07 0.000276003 0)
(3.31502e-06 1.09367e-05 0)
(-1.03352e-05 0.000297715 0)
(2.13862e-05 0.000333208 0)
(3.39149e-06 0.000143369 0)
(-2.57748e-09 -1.96049e-09 0)
(6.66566e-11 -4.16655e-10 0)
(2.5791e-09 -1.96194e-09 0)
(-2.16133e-07 0.000285598 0)
(-9.51212e-06 0.000113223 0)
(1.84088e-05 0.000332014 0)
(1.11133e-05 0.000124454 0)
(-4.02039e-06 1.59998e-05 0)
(-9.04957e-07 1.23392e-05 0)
(-5.93171e-07 0.000315875 0)
(1.11036e-06 2.61354e-05 0)
(-2.34169e-06 0.000162139 0)
(-2.43591e-06 0.000211093 0)
(3.51397e-06 5.96019e-06 0)
(8.35618e-06 5.50868e-05 0)
(7.30652e-06 4.03584e-05 0)
(9.32164e-06 7.16859e-05 0)
(-1.38869e-05 0.000233568 0)
(-1.30584e-05 0.000183174 0)
(1.98906e-06 9.69879e-05 0)
(2.78084e-06 5.43292e-06 0)
(2.03998e-05 0.00029342 0)
(-8.33632e-06 0.000301209 0)
(2.83147e-06 5.23422e-06 0)
(-1.38595e-06 0.000100251 0)
(-8.26826e-07 2.4319e-05 0)
(1.86912e-06 0.00021535 0)
(1.77372e-06 0.000165968 0)
(-2.56895e-06 0.000206486 0)
(-1.04027e-05 0.00029884 0)
(-9.05292e-07 0.000284704 0)
(-6.68088e-06 0.000316 0)
(-1.5496e-06 0.000315139 0)
(-2.31163e-05 0.000341644 0)
(-2.39423e-05 0.000340816 0)
(-6.61953e-07 2.97474e-07 0)
(-3.0103e-06 7.0479e-06 0)
(1.40619e-05 0.000226577 0)
(-7.77519e-06 4.41644e-05 0)
(1.31715e-05 0.0001766 0)
(-8.82611e-06 5.94145e-05 0)
(-9.79105e-06 7.6494e-05 0)
(1.29751e-05 0.000226784 0)
(-7.16489e-06 4.40321e-05 0)
(1.21549e-05 0.000176791 0)
(-8.1353e-06 5.92678e-05 0)
(-9.0264e-06 7.6334e-05 0)
(-1.8847e-06 2.25191e-05 0)
(4.55944e-06 0.000219489 0)
(4.25274e-06 0.000169955 0)
(-3.59515e-06 0.000103536 0)
(1.74723e-05 0.000113696 0)
(-1.73539e-05 0.000111206 0)
(1.09321e-05 0.00012536 0)
(-1.26864e-06 1.30963e-05 0)
(-1.15054e-05 0.000274726 0)
(-1.14059e-05 0.000276185 0)
(5.62309e-06 0.000322224 0)
(-1.28677e-05 0.000259266 0)
(5.16275e-06 0.000183042 0)
(5.60282e-06 0.000233416 0)
(-1.43307e-05 0.00020559 0)
(-1.32867e-05 0.000157024 0)
(6.69991e-06 2.88144e-05 0)
(-1.04933e-06 0.00027704 0)
(3.81998e-06 6.06654e-06 0)
(-1.17594e-05 0.000259523 0)
(7.8316e-06 2.45327e-05 0)
(-5.23336e-06 7.4652e-05 0)
(-4.70764e-06 5.77427e-05 0)
(-4.13551e-06 4.26782e-05 0)
(7.17353e-06 0.000178901 0)
(7.64884e-06 0.000229045 0)
(-3.36825e-06 4.16283e-06 0)
(-6.13963e-06 2.77158e-05 0)
(1.33815e-05 0.000207874 0)
(1.23984e-05 0.000159166 0)
(2.99016e-06 0.00021086 0)
(-1.96635e-05 0.000257697 0)
(-1.98619e-05 0.000259246 0)
(7.00998e-06 1.75118e-05 0)
(7.01978e-06 1.79958e-05 0)
(7.7324e-06 5.34881e-05 0)
(8.64505e-06 6.99046e-05 0)
(6.74089e-06 3.89542e-05 0)
(-1.22817e-05 0.000185651 0)
(-1.3045e-05 0.000236219 0)
(5.25168e-06 0.000181892 0)
(5.6337e-06 0.000232232 0)
(5.70352e-06 0.000110756 0)
(-2.72066e-06 0.000103301 0)
(-1.43338e-06 2.26354e-05 0)
(3.45106e-06 0.000219194 0)
(3.21786e-06 0.000169679 0)
(-4.48337e-06 0.000270963 0)
(-1.50932e-06 4.73104e-05 0)
(-1.70394e-06 6.29903e-05 0)
(-1.69226e-05 0.00028997 0)
(-4.60378e-07 1.07421e-05 0)
(-1.63206e-05 0.000136362 0)
(1.40737e-05 9.02826e-05 0)
(1.62077e-07 1.54564e-07 0)
(-1.01276e-05 0.000326707 0)
(2.02575e-05 0.000294604 0)
(-5.77583e-07 3.4457e-07 0)
(1.33449e-05 0.000308807 0)
(1.66687e-05 0.000263828 0)
(1.78772e-05 0.000264045 0)
(-5.20442e-07 0.000317478 0)
(-1.35445e-06 0.000318497 0)
(9.41146e-06 8.80913e-05 0)
(8.31379e-06 8.84823e-05 0)
(-1.11334e-05 0.000138688 0)
(-9.8088e-06 0.0001382 0)
(6.5256e-07 2.93336e-07 0)
(-1.83777e-06 1.57192e-05 0)
(-2.06875e-06 8.75042e-06 0)
(-4.83046e-08 1.8172e-08 0)
(6.30101e-06 1.03747e-05 0)
(-1.50265e-07 4.77399e-08 0)
(8.1892e-07 8.59408e-06 0)
(-1.14874e-05 0.000315806 0)
(-5.53411e-06 3.94085e-05 0)
(-6.32594e-06 5.40225e-05 0)
(-7.06732e-06 7.05064e-05 0)
(1.05689e-05 0.000235276 0)
(9.97427e-06 0.000184783 0)
(6.84548e-07 0.000218787 0)
(6.36579e-07 0.000169295 0)
(-2.93185e-07 2.27977e-05 0)
(-5.58194e-07 0.000102993 0)
(-2.20439e-07 3.66478e-08 0)
(8.62362e-07 2.85186e-05 0)
(-1.72971e-06 0.00015732 0)
(-5.19239e-06 9.94694e-05 0)
(1.20263e-06 2.8099e-05 0)
(-2.43495e-06 0.000158155 0)
(-7.85082e-06 0.000298799 0)
(9.71513e-06 0.00011157 0)
(9.05102e-06 0.000110711 0)
(4.81003e-08 1.81039e-08 0)
(2.20106e-07 3.65968e-08 0)
(-1.52253e-05 0.000278066 0)
(-1.4647e-05 0.000279248 0)
(-1.43569e-05 9.44442e-05 0)
(1.61799e-05 0.00013149 0)
(1.29649e-05 0.000236119 0)
(1.22038e-05 0.000185562 0)
(-6.72933e-06 3.90113e-05 0)
(-7.721e-06 5.35492e-05 0)
(-8.63164e-06 6.9973e-05 0)
(-4.65448e-07 0.000283563 0)
(-5.67292e-06 2.65134e-05 0)
(1.26509e-05 0.00021048 0)
(1.17399e-05 0.000161582 0)
(7.76009e-06 0.000112739 0)
(6.55637e-06 0.000267375 0)
(1.02946e-05 0.000333609 0)
(1.04775e-06 8.46936e-06 0)
(-3.80527e-06 8.91401e-05 0)
(-9.61347e-09 3.12621e-06 0)
(1.49852e-07 4.76321e-08 0)
(3.67085e-06 9.40695e-05 0)
(3.15918e-06 9.30851e-05 0)
(-3.98127e-06 0.00013173 0)
(-3.41076e-06 0.000132705 0)
(7.06553e-06 7.04854e-05 0)
(6.32427e-06 5.40036e-05 0)
(5.51897e-06 3.93988e-05 0)
(-9.9942e-06 0.000184784 0)
(-1.06209e-05 0.000235306 0)
(-5.62452e-06 0.000326806 0)
(1.90369e-06 2.30849e-06 0)
(3.734e-09 0.000187666 0)
(-1.61074e-08 3.77223e-05 0)
(7.48597e-06 0.000315314 0)
(6.09608e-06 0.000109953 0)
(-2.37072e-05 0.00031157 0)
(7.00635e-06 0.000113554 0)
(2.71225e-07 1.98011e-07 0)
(1.951e-05 0.000254504 0)
(1.96225e-05 0.000253071 0)
(-1.19208e-05 0.000161787 0)
(-1.28452e-05 0.000210695 0)
(-1.06494e-05 0.000161379 0)
(-1.14783e-05 0.000210258 0)
(5.72469e-06 2.64161e-05 0)
(5.13294e-06 2.6591e-05 0)
(5.80467e-06 0.000148578 0)
(6.90414e-06 0.000148404 0)
(6.30051e-06 0.000196436 0)
(7.49679e-06 0.000196246 0)
(-3.18879e-06 3.31667e-05 0)
(-3.79853e-06 3.32749e-05 0)
(-6.6681e-07 1.48963e-05 0)
(3.37088e-06 9.49532e-06 0)
(3.15565e-06 9.1663e-06 0)
(3.21918e-06 6.93492e-06 0)
(5.60665e-06 0.000268528 0)
(-1.93473e-05 0.000254974 0)
(-1.94506e-05 0.000253485 0)
(7.24316e-06 1.95625e-05 0)
(7.10011e-06 1.90039e-05 0)
(1.53311e-05 0.00011372 0)
(1.55383e-05 0.000114999 0)
(-1.52142e-05 0.000111117 0)
(-1.52939e-05 0.000109859 0)
(6.93617e-06 0.000322008 0)
(-1.89861e-05 0.000326217 0)
(-1.82507e-05 0.000274491 0)
(4.25416e-06 4.78686e-06 0)
(-1.11505e-05 0.000322114 0)
(-9.9565e-06 0.000321007 0)
(4.72333e-06 0.000150282 0)
(-2.92146e-06 0.000135012 0)
(2.60184e-06 9.11588e-05 0)
(-1.30495e-05 0.000114146 0)
(1.27885e-05 0.000110582 0)
(-6.15611e-06 1.92221e-05 0)
(-1.79916e-07 1.13884e-07 0)
(9.70603e-07 3.93503e-06 0)
(1.17227e-06 9.72962e-05 0)
(-1.09813e-05 9.79896e-05 0)
(1.18362e-05 0.000127257 0)
(-6.32028e-06 8.91765e-05 0)
(7.53147e-06 0.000137384 0)
(3.81978e-06 0.000239808 0)
(5.26945e-06 0.000239291 0)
(-2.23706e-06 5.12829e-05 0)
(-3.08927e-06 5.15931e-05 0)
(-2.50931e-06 6.74532e-05 0)
(-3.46364e-06 6.77994e-05 0)
(5.98043e-07 2.59562e-05 0)
(-1.27781e-06 0.000162504 0)
(-1.29496e-06 0.000211507 0)
(-2.09766e-06 0.000310057 0)
(2.94429e-06 6.89044e-06 0)
(-5.87304e-07 0.000131536 0)
(-9.01203e-06 0.000317856 0)
(1.21866e-06 9.69562e-07 0)
(8.06297e-06 0.000188568 0)
(-4.34492e-06 3.7307e-05 0)
(-1.36075e-05 0.000132935 0)
(-1.27797e-05 0.00013227 0)
(1.18912e-05 9.31083e-05 0)
(1.12096e-05 9.36758e-05 0)
(-1.34996e-05 0.000331502 0)
(-1.36484e-05 0.000330076 0)
(-2.20785e-06 1.499e-05 0)
(-2.61827e-06 1.49332e-05 0)
(1.06265e-06 4.12465e-06 0)
(-2.51405e-06 4.28122e-06 0)
(6.39268e-07 0.000138052 0)
(3.88494e-06 2.68977e-05 0)
(3.26713e-06 2.70693e-05 0)
(-8.01147e-06 0.00016067 0)
(-6.71635e-06 0.000160289 0)
(-8.63764e-06 0.000209505 0)
(-7.24295e-06 0.000209097 0)
(-1.75118e-05 0.000265615 0)
(-1.62047e-05 0.000265722 0)
(-3.82515e-06 7.9753e-05 0)
(-3.53318e-06 6.23283e-05 0)
(-3.12678e-06 4.67254e-05 0)
(5.54441e-06 0.000247785 0)
(-9.43585e-07 0.000280801 0)
(1.15064e-05 0.000110475 0)
(1.08953e-05 0.000111439 0)
(5.11361e-06 0.000214233 0)
(4.88783e-06 0.000164998 0)
(-2.28311e-06 2.47884e-05 0)
(2.15206e-06 2.77653e-05 0)
(1.77111e-06 2.83078e-05 0)
(-3.96572e-06 0.000206445 0)
(-4.71896e-06 0.000207514 0)
(-4.36843e-06 0.000158842 0)
(-3.55945e-06 0.000157751 0)
(-4.54302e-06 2.54459e-05 0)
(9.61303e-06 0.000163724 0)
(1.03449e-05 0.000212792 0)
(-1.224e-07 1.16218e-06 0)
(1.71134e-05 0.000126139 0)
(-1.57027e-05 9.93092e-05 0)
(-6.86289e-08 1.08106e-06 0)
(-5.16284e-06 0.00023607 0)
(-6.0554e-06 0.000237374 0)
(-4.73431e-06 0.000185608 0)
(-5.54477e-06 0.000186843 0)
(3.00503e-06 3.82202e-05 0)
(2.58893e-06 3.88939e-05 0)
(3.55579e-06 5.27284e-05 0)
(3.05223e-06 5.3498e-05 0)
(3.97992e-06 6.90685e-05 0)
(3.41243e-06 6.99292e-05 0)
(1.93204e-05 0.000266132 0)
(1.96802e-05 0.000267491 0)
(-1.7959e-06 8.82211e-06 0)
(7.25092e-06 0.000189511 0)
(-3.87911e-06 3.67898e-05 0)
(6.30219e-06 2.9063e-05 0)
(-1.24374e-05 0.000156501 0)
(-1.34467e-05 0.000204995 0)
(-1.75179e-07 5.31809e-08 0)
(2.51535e-06 0.000277406 0)
(6.22213e-06 2.77218e-05 0)
(-1.26113e-05 0.000159159 0)
(-1.36239e-05 0.000207823 0)
(4.71094e-06 8.05723e-06 0)
(-9.5301e-06 0.000300774 0)
(5.96695e-06 2.21079e-05 0)
(-1.5051e-05 0.000246711 0)
(-3.18342e-06 1.18594e-05 0)
(-3.39659e-06 1.22961e-05 0)
(3.33552e-06 1.21677e-05 0)
(-1.62038e-06 0.000131331 0)
(-1.23556e-08 -9.09266e-09 0)
(-1.01202e-05 0.00032968 0)
(-1.57077e-07 6.23901e-08 0)
(1.74618e-07 5.30357e-08 0)
(-4.66448e-06 2.68494e-05 0)
(1.0324e-05 0.000209661 0)
(9.57549e-06 0.000160816 0)
(7.95713e-06 0.000277845 0)
(-2.28263e-05 0.000298188 0)
(2.92822e-06 0.000122881 0)
(-1.87542e-06 0.00011965 0)
(-5.1011e-07 1.24111e-05 0)
(-1.43343e-06 1.49228e-06 0)
(-8.9198e-09 -8.03198e-09 0)
(-5.66907e-06 9.00139e-05 0)
(6.75225e-06 0.000136416 0)
(4.86929e-07 1.7053e-07 0)
(-7.51663e-07 0.000117878 0)
(-7.08849e-07 0.000116733 0)
(-1.38704e-08 9.88567e-05 0)
(-1.3207e-07 2.51056e-05 0)
(2.5972e-07 0.000164284 0)
(2.33741e-07 0.000213572 0)
(-4.89074e-07 1.71249e-07 0)
(2.01985e-06 1.34289e-05 0)
(-7.87443e-06 0.000242673 0)
(4.48916e-06 4.96504e-05 0)
(5.04816e-06 6.56174e-05 0)
(5.55741e-06 8.33568e-05 0)
(1.65701e-05 0.0003164 0)
(-6.04391e-06 2.40096e-05 0)
(1.42078e-05 0.000216245 0)
(1.32299e-05 0.000166947 0)
(-9.38365e-06 0.000291762 0)
(1.35504e-06 3.43922e-06 0)
(1.26682e-05 0.00028632 0)
(-2.68427e-06 4.21661e-06 0)
(8.87877e-06 0.000317664 0)
(-6.78717e-06 0.0002427 0)
(3.86539e-06 4.96287e-05 0)
(4.3469e-06 6.55945e-05 0)
(4.7886e-06 8.33271e-05 0)
(1.18373e-06 3.2588e-06 0)
(5.8513e-06 0.000194341 0)
(-3.01359e-06 3.42346e-05 0)
(-1.01783e-06 1.33725e-05 0)
(-1.66138e-05 0.000287343 0)
(-6.15226e-06 7.49302e-05 0)
(-5.53596e-06 5.7995e-05 0)
(-4.86511e-06 4.29022e-05 0)
(8.37198e-06 0.000178607 0)
(8.9279e-06 0.000228729 0)
(2.28325e-05 0.000335404 0)
(1.32971e-05 0.000294194 0)
(1.47416e-05 0.000293686 0)
(1.83253e-07 1.2775e-07 0)
(8.24218e-06 8.95086e-05 0)
(-9.65299e-06 0.000136977 0)
(-4.18778e-06 9.07933e-05 0)
(4.91615e-06 0.000135541 0)
(-1.40957e-06 0.00014606 0)
(-1.07019e-06 0.000237619 0)
(6.88114e-07 6.88886e-05 0)
(6.14645e-07 5.25647e-05 0)
(3.93912e-08 3.69415e-05 0)
(-2.27908e-07 0.000141913 0)
(-9.82425e-08 0.000189161 0)
(1.0456e-05 0.00033495 0)
(5.89645e-07 1.37748e-05 0)
(-2.52953e-07 3.17237e-06 0)
(2.00929e-06 0.000200884 0)
(1.00713e-07 3.28116e-06 0)
(-1.52744e-06 1.028e-05 0)
(3.84781e-06 3.68517e-05 0)
(-7.28704e-06 0.000189387 0)
(-1.42946e-07 1.56685e-07 0)
(-1.53875e-05 0.000287208 0)
(-1.26989e-06 2.46242e-05 0)
(2.74129e-06 0.000214717 0)
(2.7173e-06 0.00016532 0)
(3.42438e-07 8.21701e-08 0)
(-4.51395e-06 8.18967e-06 0)
(5.02717e-06 6.72509e-05 0)
(4.48066e-06 5.11064e-05 0)
(-7.74393e-06 0.000240156 0)
(1.50131e-06 9.36053e-05 0)
(-1.04076e-05 0.000325422 0)
(-1.71958e-07 2.411e-08 0)
(-5.91503e-06 1.2827e-05 0)
(3.83182e-06 7.05222e-06 0)
(-3.85353e-06 4.21529e-06 0)
(1.15852e-05 0.000112509 0)
(8.81704e-06 0.000137004 0)
(-7.54596e-06 8.94774e-05 0)
(5.43682e-07 3.65628e-05 0)
(-1.25233e-06 0.000142454 0)
(-1.04765e-06 0.000189869 0)
(1.10825e-05 0.000283054 0)
(1.02996e-05 0.000123289 0)
(5.37568e-06 0.000327945 0)
(5.17902e-06 0.000329173 0)
(1.50477e-06 0.00013636 0)
(2.04736e-06 9.29005e-05 0)
(1.71688e-07 2.40755e-08 0)
(-1.48712e-05 0.000256551 0)
(5.36325e-06 1.83338e-05 0)
(1.86316e-08 2.50493e-07 0)
(2.85539e-06 0.000182952 0)
(3.7292e-06 0.000183589 0)
(5.01986e-09 2.17742e-08 0)
(-2.80888e-06 6.82168e-06 0)
(7.03679e-06 6.83828e-05 0)
(6.28136e-06 5.21221e-05 0)
(5.46418e-06 3.7697e-05 0)
(-1.01225e-05 0.000187679 0)
(-1.07407e-05 0.000238476 0)
(9.3629e-06 0.000117309 0)
(1.37895e-06 0.000277705 0)
(-6.0536e-06 0.000313298 0)
(-5.73105e-06 0.000314957 0)
(-5.78228e-07 0.000241485 0)
(-4.94755e-07 0.000242817 0)
(4.16236e-07 4.9516e-05 0)
(3.80071e-07 5.02516e-05 0)
(4.68094e-07 6.54723e-05 0)
(4.2691e-07 6.62982e-05 0)
(3.10646e-07 8.31953e-05 0)
(3.70454e-07 8.40793e-05 0)
(7.44704e-07 0.000136818 0)
(1.361e-06 0.000139026 0)
(2.36261e-06 0.000212209 0)
(-5.90407e-07 0.0001457 0)
(-3.43047e-07 8.23086e-08 0)
(-3.83144e-07 3.02509e-06 0)
(5.1547e-06 0.000193304 0)
(-2.67852e-06 3.47673e-05 0)
(1.34867e-06 4.20361e-06 0)
(2.01108e-05 0.000317961 0)
(-1.5248e-06 0.000243881 0)
(9.503e-07 4.89566e-05 0)
(1.06971e-06 6.48435e-05 0)
(1.05629e-06 8.24647e-05 0)
(-1.53551e-05 0.000266994 0)
(5.28935e-06 9.51291e-05 0)
(7.84901e-06 0.000337561 0)
(8.8751e-06 0.000336807 0)
(-1.51822e-06 1.06008e-05 0)
(-9.68817e-07 0.000186677 0)
(5.13699e-07 3.82625e-05 0)
(2.25205e-07 2.28434e-07 0)
(1.97335e-05 0.00032696 0)
(-2.65679e-07 5.35204e-06 0)
(-3.68884e-06 5.55891e-05 0)
(-4.11242e-06 7.22595e-05 0)
(-4.92212e-06 7.30219e-05 0)
(-4.41927e-06 5.62754e-05 0)
(-3.19126e-06 4.07681e-05 0)
(-3.86134e-06 4.13872e-05 0)
(6.53008e-06 0.000181145 0)
(6.95775e-06 0.000231444 0)
(2.80593e-06 3.81474e-06 0)
(-1.8003e-07 1.09117e-07 0)
(-1.70102e-05 0.000220822 0)
(-1.77235e-05 0.000326291 0)
(5.78748e-06 0.000138916 0)
(-4.90174e-07 5.47697e-06 0)
(-9.19688e-06 0.000180815 0)
(-9.79355e-06 0.000231081 0)
(5.23259e-06 4.16401e-05 0)
(5.96848e-06 5.65581e-05 0)
(6.64503e-06 7.33324e-05 0)
(8.54992e-06 0.00027877 0)
(1.94044e-05 0.000328125 0)
(-1.04173e-05 0.000113524 0)
(4.2851e-06 3.72971e-05 0)
(-8.08134e-06 0.000188561 0)
(5.53819e-06 0.000140001 0)
(-2.09044e-06 9.96327e-05 0)
(5.56721e-06 6.78266e-05 0)
(4.96587e-06 5.16215e-05 0)
(-8.53664e-06 0.000239288 0)
(-1.54907e-05 0.000114835 0)
(1.51215e-05 0.000110086 0)
(1.51218e-05 0.000111319 0)
(-1.52866e-05 0.000113525 0)
(-7.11229e-06 1.89926e-05 0)
(-7.32114e-06 1.95852e-05 0)
(-7.18152e-06 0.000111301 0)
(-3.63201e-06 4.31622e-06 0)
(-1.1623e-05 0.000112159 0)
(-1.69399e-06 0.000268548 0)
(-1.48473e-06 1.77187e-06 0)
(1.16686e-05 6.52745e-05 0)
(1.03723e-05 4.93681e-05 0)
(-1.64882e-05 0.000168212 0)
(2.66265e-06 6.78683e-05 0)
(2.37526e-06 5.1654e-05 0)
(-4.09422e-06 0.000239179 0)
(5.44262e-06 1.63753e-05 0)
(9.11941e-06 0.000135889 0)
(-7.85967e-06 9.04428e-05 0)
(-4.28608e-06 4.80831e-06 0)
(4.69378e-06 0.000213061 0)
(4.48346e-06 0.000163952 0)
(-2.11819e-06 2.5279e-05 0)
(1.35939e-05 0.000201149 0)
(-6.60782e-06 3.09177e-05 0)
(1.25427e-05 0.000152946 0)
(-7.52342e-06 1.87399e-05 0)
(9.58556e-06 0.00031393 0)
(1.09925e-05 0.00031347 0)
(1.05892e-05 0.000238484 0)
(1.0033e-05 0.000187699 0)
(-5.4412e-06 3.78047e-05 0)
(-6.22378e-06 5.21158e-05 0)
(-6.97236e-06 6.83761e-05 0)
(-1.56372e-06 1.53596e-06 0)
(-8.39659e-06 0.000291463 0)
(9.18333e-06 0.000185609 0)
(-5.05782e-06 3.89423e-05 0)
(-9.5027e-07 1.17903e-06 0)
(7.85316e-06 0.000317456 0)
(1.88937e-06 1.54724e-06 0)
(1.56689e-06 1.1731e-06 0)
(3.97581e-06 5.64292e-06 0)
(9.49232e-06 0.000254998 0)
(-1.60471e-05 0.000262041 0)
(2.13847e-05 0.000318368 0)
(4.02687e-06 5.93228e-06 0)
(9.37935e-06 0.000123251 0)
(1.28795e-05 0.000270427 0)
(-2.06659e-05 0.000255659 0)
(7.5373e-06 1.8782e-05 0)
(-4.73717e-06 0.000272131 0)
(1.93086e-06 6.80799e-05 0)
(1.72296e-06 5.18424e-05 0)
(-2.97142e-06 0.000238851 0)
(-7.0667e-07 3.38961e-06 0)
(5.48745e-06 0.000146604 0)
(1.55634e-07 6.18622e-08 0)
(-6.25322e-06 1.27031e-05 0)
(-1.10696e-06 0.000120397 0)
(-2.80089e-06 2.30906e-05 0)
(-3.26035e-06 2.32434e-05 0)
(6.2431e-06 0.000168719 0)
(7.2463e-06 0.000168404 0)
(7.77539e-06 0.000217822 0)
(6.69784e-06 0.000218162 0)
(1.83951e-07 6.80838e-07 0)
(-4.52736e-08 8.55546e-06 0)
(-1.11928e-05 0.000151518 0)
(-1.21426e-05 0.000199604 0)
(5.95536e-06 3.16508e-05 0)
(-3.49373e-06 1.88159e-05 0)
(-2.09313e-06 0.000205256 0)
(-3.16061e-06 8.0448e-06 0)
(6.57017e-06 0.000314434 0)
(-5.26768e-06 0.000102472 0)
(-6.10461e-06 0.000102212 0)
(1.79599e-07 1.80796e-07 0)
(-3.48804e-06 0.000105996 0)
(-1.75982e-06 2.12379e-05 0)
(4.09841e-06 0.000172872 0)
(4.38603e-06 0.000222611 0)
(-4.90404e-06 0.00020529 0)
(-4.31263e-06 0.000156693 0)
(2.17021e-06 2.88491e-05 0)
(2.87714e-06 1.08035e-05 0)
(2.67219e-06 1.04101e-05 0)
(1.41182e-06 0.000102171 0)
(-1.82168e-06 0.000217742 0)
(-1.70596e-06 0.0001683 0)
(7.55174e-07 2.32485e-05 0)
(-1.66514e-06 4.012e-05 0)
(-2.97641e-06 8.26983e-06 0)
(1.22311e-05 0.000321845 0)
(-1.19109e-05 0.000192125 0)
(9.16823e-06 9.00843e-05 0)
(-1.06918e-05 0.000136329 0)
(1.30368e-05 0.000271652 0)
(-1.19247e-05 8.27704e-05 0)
(-1.08476e-05 6.50794e-05 0)
(1.46287e-05 0.00014516 0)
(-9.63942e-06 4.9191e-05 0)
(-8.32992e-06 3.52284e-05 0)
(1.59852e-05 0.000192728 0)
(1.69034e-05 0.000243732 0)
(-4.37862e-06 0.000233189 0)
(-4.11754e-06 0.000182791 0)
(2.6277e-06 5.52287e-05 0)
(2.29881e-06 4.04664e-05 0)
(2.9307e-06 7.18598e-05 0)
(2.51342e-06 5.60263e-05 0)
(-4.15841e-06 0.000231878 0)
(2.80017e-06 7.2748e-05 0)
(2.20207e-06 4.11655e-05 0)
(-3.90791e-06 0.000181557 0)
(-2.30623e-06 0.000296059 0)
(-4.63544e-06 6.05427e-06 0)
(-5.04843e-06 2.85757e-05 0)
(1.08172e-05 0.000205938 0)
(1.00105e-05 0.000157367 0)
(-3.17383e-06 3.8525e-05 0)
(5.82826e-06 0.000186324 0)
(1.60456e-05 0.000231053 0)
(1.50665e-05 0.000180803 0)
(-8.61686e-06 4.17512e-05 0)
(-9.82744e-06 5.66667e-05 0)
(-1.09399e-05 7.34384e-05 0)
(1.69071e-05 0.000252266 0)
(1.84522e-05 0.000251944 0)
(4.11117e-07 7.29765e-06 0)
(-1.69284e-06 0.000118418 0)
(-4.4967e-06 1.23816e-05 0)
(2.29646e-07 4.24108e-07 0)
(-4.42912e-06 1.57372e-05 0)
(-7.06118e-07 0.000269086 0)
(1.86214e-07 6.98303e-06 0)
(-3.69496e-06 0.000126942 0)
(1.53166e-05 0.000168312 0)
(-6.89622e-06 2.34408e-05 0)
(1.64345e-05 0.000217704 0)
(-1.51413e-08 -1.0493e-08 0)
(1.03237e-06 0.000201076 0)
(2.88065e-07 1.21015e-07 0)
(1.96647e-07 1.4424e-07 0)
(2.7251e-06 0.00014424 0)
(-3.28782e-07 2.64316e-07 0)
(1.24996e-05 0.00032426 0)
(9.41318e-07 0.000183537 0)
(-4.89951e-07 3.99976e-05 0)
(2.70348e-06 1.60198e-05 0)
(1.7277e-06 0.000182963 0)
(-9.55902e-07 4.02912e-05 0)
(-1.60781e-07 3.53049e-06 0)
(-1.1649e-05 6.52409e-05 0)
(-1.03539e-05 4.93384e-05 0)
(-8.9487e-06 3.53662e-05 0)
(-7.42988e-06 2.34982e-05 0)
(1.64866e-05 0.000168248 0)
(1.7143e-05 0.000192516 0)
(1.76905e-05 0.000217631 0)
(1.81345e-05 0.00024351 0)
(-8.01483e-06 0.000262818 0)
(-7.12047e-06 0.000312687 0)
(-2.30326e-05 0.000257998 0)
(8.21941e-06 1.79851e-05 0)
(5.2705e-06 0.000331566 0)
(6.12902e-06 0.000330132 0)
(1.64431e-06 0.00017889 0)
(1.78339e-06 0.000229062 0)
(-1.25025e-06 7.47395e-05 0)
(-1.12473e-06 5.78171e-05 0)
(-9.88121e-07 4.27385e-05 0)
(-6.53024e-06 1.8789e-05 0)
(2.38001e-06 1.34559e-05 0)
(-8.88978e-06 7.83203e-05 0)
(1.18089e-05 0.000174091 0)
(-8.02962e-06 6.1061e-05 0)
(-7.0923e-06 4.56152e-05 0)
(1.26264e-05 0.000223902 0)
(-4.96319e-06 2.08294e-05 0)
(1.27872e-05 0.000249989 0)
(2.15387e-06 0.000113394 0)
(-1.33024e-06 0.000279381 0)
(1.29746e-06 6.4627e-07 0)
(-9.72183e-07 0.000245177 0)
(6.3191e-07 4.82237e-05 0)
(7.12075e-07 6.40192e-05 0)
(6.63586e-07 8.15549e-05 0)
(4.00955e-06 0.000289484 0)
(-5.37662e-07 3.39097e-07 0)
(2.02837e-05 0.00028483 0)
(-3.03186e-06 0.000120224 0)
(-9.05608e-08 1.92943e-07 0)
(7.25651e-06 0.000171367 0)
(-3.16176e-06 2.19212e-05 0)
(7.77214e-06 0.000220997 0)
(1.56883e-07 1.2162e-07 0)
(-4.24849e-06 2.64689e-05 0)
(8.78939e-06 0.000161571 0)
(9.4718e-06 0.000210475 0)
(1.46773e-06 1.91158e-06 0)
(-6.14846e-06 0.000104748 0)
(1.31045e-06 0.000112043 0)
(-1.40291e-05 0.000304495 0)
(1.3018e-06 0.00017987 0)
(1.38797e-06 0.000230082 0)
(-1.05484e-06 7.40157e-05 0)
(-8.303e-07 4.21683e-05 0)
(-9.481e-07 5.71653e-05 0)
(2.08646e-06 0.000114237 0)
(-2.87883e-07 1.0886e-06 0)
(-2.54363e-07 3.71607e-06 0)
(6.26292e-07 0.000268646 0)
(1.38023e-05 0.000122886 0)
(-1.29251e-05 0.000102222 0)
(-9.84335e-06 0.000340872 0)
(-2.23532e-05 0.000222356 0)
(-2.08917e-05 0.000172673 0)
(-2.1688e-05 0.000197095 0)
(-1.99608e-05 0.000149237 0)
(1.0892e-05 3.31254e-05 0)
(1.26792e-05 4.67175e-05 0)
(1.43266e-05 6.22711e-05 0)
(1.58374e-05 7.96281e-05 0)
(2.23297e-05 0.000222353 0)
(2.16643e-05 0.000197094 0)
(-1.09048e-05 3.31261e-05 0)
(-1.26935e-05 4.67189e-05 0)
(2.0867e-05 0.000172672 0)
(-1.43432e-05 6.22722e-05 0)
(1.99387e-05 0.000149236 0)
(-1.58559e-05 7.96293e-05 0)
(-6.28468e-06 1.82618e-05 0)
(-3.4574e-06 0.000278784 0)
(-2.46267e-06 0.000278517 0)
(-3.06718e-06 0.000315896 0)
(5.11042e-06 0.000190908 0)
(-2.70768e-06 3.60272e-05 0)
(-9.65879e-07 1.41574e-06 0)
(-3.97153e-06 0.000333931 0)
(-4.34239e-06 7.13003e-05 0)
(-5.32092e-06 7.10306e-05 0)
(-3.89063e-06 5.47285e-05 0)
(-4.76579e-06 5.44884e-05 0)
(6.47474e-06 0.000234437 0)
(7.77538e-06 0.000234547 0)
(1.70782e-05 0.00023045 0)
(1.6031e-05 0.000180239 0)
(-9.20862e-06 4.20968e-05 0)
(-1.0495e-05 5.70564e-05 0)
(-1.1677e-05 7.38687e-05 0)
(-1.0315e-05 0.000152055 0)
(-1.11862e-05 0.000200189 0)
(5.45793e-06 3.13472e-05 0)
(-3.23621e-06 0.000136096 0)
(2.75385e-06 9.02347e-05 0)
(3.37679e-06 0.000241105 0)
(-1.95501e-06 5.04475e-05 0)
(-2.1958e-06 6.6517e-05 0)
(-2.38103e-06 8.41708e-05 0)
(6.36471e-06 8.9154e-05 0)
(5.39421e-06 8.93831e-05 0)
(-7.47698e-06 0.00013735 0)
(-6.32991e-06 0.000137067 0)
(-7.53787e-06 0.000331422 0)
(5.01382e-07 1.35914e-06 0)
(1.25606e-05 0.000285142 0)
(4.5159e-06 9.90858e-05 0)
(1.23077e-05 0.000196885 0)
(-6.19889e-06 3.30143e-05 0)
(1.13246e-05 0.000149012 0)
(-1.05118e-05 0.000118931 0)
(2.53881e-06 2.49638e-05 0)
(-5.87488e-06 0.000213776 0)
(-5.46409e-06 0.000164635 0)
(7.36951e-07 0.00010312 0)
(-9.03134e-07 0.000169428 0)
(-9.61706e-07 0.000218948 0)
(3.89448e-07 2.27378e-05 0)
(7.08659e-06 9.33399e-05 0)
(-8.08367e-06 0.000132505 0)
(-3.87073e-06 0.000296054 0)
(-1.79565e-05 0.000293213 0)
(3.21235e-06 0.000126367 0)
(8.0561e-06 0.000126767 0)
(-6.47206e-06 2.42591e-05 0)
(1.51373e-05 0.000215707 0)
(1.40912e-05 0.000166449 0)
(-7.13532e-07 3.01271e-06 0)
(-2.42278e-06 0.000246888 0)
(1.34807e-06 4.7251e-05 0)
(1.52175e-06 6.29234e-05 0)
(1.66902e-06 8.03573e-05 0)
(-3.70037e-06 0.000119633 0)
(-1.66439e-05 0.000293312 0)
(-4.75968e-06 4.73088e-05 0)
(-5.37296e-06 6.29821e-05 0)
(-5.91502e-06 8.0454e-05 0)
(8.49548e-06 0.000246802 0)
(1.51867e-08 1.96286e-08 0)
(1.04233e-05 0.000117972 0)
(1.3399e-07 9.12215e-06 0)
(-4.87741e-07 8.43809e-07 0)
(-1.01456e-06 3.90156e-06 0)
(-4.87996e-06 1.67871e-05 0)
(-4.97644e-07 1.8278e-07 0)
(2.04923e-06 5.34418e-05 0)
(1.79501e-06 3.88761e-05 0)
(2.29117e-06 6.98678e-05 0)
(-3.47595e-06 0.000236151 0)
(-3.28977e-06 0.000185625 0)
(-1.01076e-05 9.77767e-05 0)
(1.09807e-05 0.000127534 0)
(-9.86828e-07 5.78353e-07 0)
(1.33541e-05 0.000314038 0)
(9.63436e-06 0.000280833 0)
(-2.04966e-05 0.000264269 0)
(7.58718e-06 0.000125782 0)
(2.74098e-06 0.000136675 0)
(-5.15393e-06 0.00033378 0)
(-1.43385e-05 0.00014323 0)
(-1.36383e-05 0.000142594 0)
(2.0253e-05 0.00033368 0)
(-1.61295e-06 0.000297536 0)
(-4.52499e-06 8.98687e-05 0)
(5.46054e-06 0.000136648 0)
(1.65829e-07 9.44317e-06 0)
(2.47484e-06 3.32727e-06 0)
(4.94627e-07 1.81696e-07 0)
(4.82921e-06 0.000145642 0)
(1.78506e-05 0.000340552 0)
(-9.77085e-06 0.000236192 0)
(-9.1913e-06 0.00018562 0)
(5.03976e-06 3.89239e-05 0)
(6.47055e-06 6.9885e-05 0)
(5.78723e-06 5.34643e-05 0)
(-1.8129e-07 1.26144e-07 0)
(-7.26054e-07 0.000309737 0)
(9.13433e-06 0.000127143 0)
(-8.29146e-06 9.82761e-05 0)
(-1.46433e-05 0.0003022 0)
(-2.18644e-05 0.0002235 0)
(-2.12183e-05 0.000198199 0)
(-2.04485e-05 0.000173739 0)
(-1.95441e-05 0.000150256 0)
(1.05595e-05 3.2555e-05 0)
(1.23121e-05 4.60571e-05 0)
(1.39276e-05 6.15273e-05 0)
(1.54098e-05 7.8808e-05 0)
(2.18389e-05 0.000223492 0)
(2.11947e-05 0.000198199 0)
(-1.05717e-05 3.25578e-05 0)
(-1.2325e-05 4.60604e-05 0)
(2.04213e-05 0.000173735 0)
(-1.39427e-05 6.15305e-05 0)
(1.95201e-05 0.000150252 0)
(-1.54266e-05 7.88114e-05 0)
(-3.14984e-06 4.20856e-06 0)
(1.23837e-06 1.15651e-06 0)
(-1.65759e-06 3.01665e-06 0)
(8.13259e-06 0.000124739 0)
(-8.91647e-06 0.000128461 0)
(1.5808e-06 1.8911e-06 0)
(-2.44531e-07 4.08453e-08 0)
(-1.97096e-05 0.000264909 0)
(1.12941e-05 0.000337106 0)
(1.2674e-05 0.000337745 0)
(2.44232e-07 4.08034e-08 0)
(3.56325e-06 4.7243e-06 0)
(1.76844e-05 0.000306781 0)
(-6.70411e-06 0.000142086 0)
(-4.33734e-07 3.77225e-07 0)
(-9.82703e-07 1.51565e-06 0)
(-1.53298e-07 3.91694e-08 0)
(2.87582e-07 2.22023e-07 0)
(1.82357e-05 0.000113122 0)
(-1.81842e-05 0.000111808 0)
(5.58828e-06 8.51923e-05 0)
(-6.87115e-06 0.000139475 0)
(5.80297e-06 8.73902e-05 0)
(-2.96028e-07 5.03721e-06 0)
(-4.23555e-06 0.000223453 0)
(3.35372e-06 0.0001067 0)
(-2.36148e-06 0.000221017 0)
(-2.25774e-06 0.000171256 0)
(9.69977e-07 2.19324e-05 0)
(1.84519e-06 0.000104756 0)
(-7.47757e-06 0.000141359 0)
(3.79768e-06 5.00612e-06 0)
(6.25931e-06 8.58385e-05 0)
(2.33328e-06 0.000126561 0)
(1.77722e-05 0.00031685 0)
(-5.39682e-06 0.00012761 0)
(-6.20598e-06 0.000128481 0)
(-4.9913e-06 1.06233e-05 0)
(-6.0189e-06 0.00013258 0)
(-5.14653e-06 0.000131657 0)
(5.35856e-06 9.31856e-05 0)
(4.7078e-06 9.41085e-05 0)
(-5.61105e-06 2.59119e-05 0)
(1.17626e-05 0.000162828 0)
(1.26653e-05 0.000211822 0)
(-1.54164e-06 1.70636e-06 0)
(-7.49125e-06 0.00014022 0)
(6.30323e-06 8.68005e-05 0)
(-4.77707e-06 0.000180621 0)
(-5.08717e-06 0.00023088 0)
(2.71532e-06 4.17071e-05 0)
(3.44689e-06 7.34321e-05 0)
(3.09644e-06 5.6642e-05 0)
(-2.46348e-06 1.14753e-05 0)
(-1.56706e-05 0.000190523 0)
(-1.48495e-05 0.000189918 0)
(8.25075e-06 3.63747e-05 0)
(7.84887e-06 3.66914e-05 0)
(1.03292e-05 0.000151074 0)
(1.13556e-05 0.000150326 0)
(-5.54289e-06 3.18729e-05 0)
(-6.13792e-06 3.22964e-05 0)
(1.12097e-05 0.000199126 0)
(1.233e-05 0.000198312 0)
(-4.5037e-06 0.000294965 0)
(9.00701e-06 0.000269263 0)
(9.13658e-06 0.000268002 0)
(-6.638e-06 8.73983e-05 0)
(7.81718e-06 0.00013944 0)
(-2.36078e-05 0.000328761 0)
(-6.7929e-06 0.000262066 0)
(-6.52337e-06 0.000260832 0)
(2.25177e-06 1.66927e-05 0)
(2.31404e-06 1.62664e-05 0)
(2.039e-05 0.000264991 0)
(-8.99383e-06 0.000112259 0)
(-7.72067e-06 0.000112298 0)
(2.01734e-05 0.000299324 0)
(-2.03901e-05 0.000315598 0)
(-2.03637e-05 0.000317106 0)
(-6.14748e-07 3.11743e-06 0)