/*--------------------------------*- C++ -*----------------------------------*\
| =========                 |                                                 |
| \\      /  F ield         | OpenFOAM: The Open Source CFD Toolbox           |
|  \\    /   O peration     | Version:  2.3.1                                 |
|   \\  /    A nd           | Web:      www.OpenFOAM.org                      |
|    \\/     M anipulation  |                                                 |
\*---------------------------------------------------------------------------*/
FoamFile
{
    version     2.0;
    format      ascii;
    class       volScalarField;
    location    "0.18";
    object      epsilon;
}
// * * * * * * * * * * * * * * * * * * * * * * * * * * * * * * * * * * * * * //

dimensions      [0 2 -3 0 0 0 0];

internalField   nonuniform List<scalar> 
15166
(
1061.76
979.379
967.465
1022.6
1058.92
1082.19
1050.3
967.008
868.25
755.06
642.373
547.831
1062.86
860.163
899.547
961.631
999.996
1018.27
984.022
906.731
813.074
708.702
605.321
511.643
1075.35
766.977
834.547
902.273
943.18
958.273
923.946
852.08
764.006
667.32
571.283
480.746
1091.62
696.832
776.631
847.204
889.611
902.48
869.241
802.438
719.971
630.015
539.882
451.607
1109.34
643.96
726.176
797.378
840.121
851.195
819.493
757.346
680.22
596.223
511.215
426.506
1128.53
603.24
681.964
752.377
794.64
804.236
774.206
716.31
644.172
565.447
484.93
403.328
1149.27
571.335
642.938
711.58
752.811
761.185
732.854
678.864
611.309
537.271
460.622
381.174
1171.19
546.113
608.366
674.497
714.303
721.664
694.992
644.576
581.219
511.387
438.274
361.765
1194.08
526.103
577.674
640.733
678.834
685.33
660.233
613.073
553.565
487.541
417.691
344.023
1217.64
510.214
550.348
609.919
646.132
651.868
628.246
584.064
528.063
465.511
398.758
328.3
1241.62
497.631
525.95
581.725
615.937
620.996
598.734
557.269
504.483
445.119
381.295
313.852
1265.92
487.723
504.1
555.864
588.015
592.456
571.444
532.457
482.615
426.21
365.293
301.496
1290.37
480.009
484.481
532.081
562.144
566.013
546.146
509.421
462.289
408.648
350.576
290.429
1314.85
474.102
466.825
510.162
538.137
541.471
522.643
487.991
443.349
392.282
336.79
278.725
1339.21
469.696
450.899
489.919
515.822
518.643
500.764
468.005
425.673
377.027
324.046
268.962
1363.43
466.541
436.502
471.187
495.045
497.376
480.362
449.343
409.136
362.758
312.185
259.798
1387.34
464.436
423.462
453.822
475.67
477.526
461.295
431.869
393.64
349.401
301.094
251.049
1410.98
463.21
411.633
437.7
457.575
458.963
443.444
415.495
379.103
336.87
290.698
242.838
1434.25
462.722
400.883
422.704
440.65
441.58
426.71
400.111
365.435
325.094
280.957
235.287
1457.03
462.857
391.102
408.739
424.796
425.277
410.99
385.644
352.565
314.014
271.802
228.165
1479.26
463.511
382.187
395.715
409.928
409.96
396.206
372.017
340.433
303.56
263.151
221.223
1501.01
464.609
374.053
383.554
395.964
395.554
382.282
359.165
328.975
293.684
254.953
214.588
1522.29
466.064
366.621
372.183
382.836
381.984
369.149
347.024
318.143
284.336
247.145
207.995
1542.82
467.836
359.825
361.542
370.48
369.187
356.746
335.542
307.889
275.479
239.718
201.821
1562.81
469.876
353.605
351.574
358.837
357.105
345.02
324.674
298.169
267.065
232.637
195.876
1582.08
472.113
347.907
342.227
347.856
345.686
333.923
314.372
288.944
259.07
225.895
190.328
1600.69
474.525
342.681
333.453
337.488
334.882
323.407
304.597
280.18
251.459
219.475
185.033
1618.67
477.075
337.885
325.211
327.691
324.649
313.43
295.313
271.844
244.212
213.356
180.095
1635.93
479.749
333.486
317.461
318.424
314.947
303.96
286.483
263.907
237.304
207.539
175.483
1652.54
482.543
329.442
310.17
309.653
305.742
294.959
278.083
256.345
230.716
201.977
170.919
1668.47
485.378
325.725
303.302
301.343
296.999
286.398
270.08
249.132
224.423
196.676
166.676
1683.55
488.289
322.304
296.831
293.464
288.69
278.247
262.453
242.246
218.412
191.598
162.507
1697.77
491.246
319.163
290.729
285.99
280.785
270.484
255.175
235.668
212.662
186.75
158.652
1711.56
494.213
316.271
284.971
278.895
273.262
263.08
248.226
229.38
207.163
182.107
154.864
1724.39
497.189
313.617
279.535
272.154
266.095
256.016
241.586
223.368
201.897
177.665
151.333
1736.44
500.184
311.175
274.4
265.747
259.264
249.27
235.238
217.611
196.851
173.402
147.822
1747.97
503.174
308.935
269.546
259.653
252.747
242.825
229.165
212.095
192.01
169.308
144.493
1758.58
506.155
306.879
264.955
253.854
246.527
236.662
223.348
206.806
187.367
165.386
141.422
1768.56
509.124
304.993
260.611
248.331
240.588
230.765
217.775
201.734
182.913
161.623
138.397
1777.86
512.071
303.264
256.498
243.07
234.912
225.122
212.435
196.868
178.636
158.024
135.625
1786.18
515.037
301.68
252.606
238.058
229.487
219.717
207.312
192.195
174.523
154.543
132.672
1793.86
518.111
300.241
248.921
233.28
224.298
214.538
202.397
187.705
170.567
151.168
129.692
1800.63
521.196
298.93
245.43
228.723
219.333
209.572
197.676
183.389
166.759
147.922
127.062
1806.79
524.358
297.766
242.126
224.376
214.581
204.809
193.143
179.239
163.092
144.788
124.418
1812.23
527.443
296.771
239.003
220.226
210.029
200.239
188.786
175.245
159.559
141.771
122.015
1816.86
530.354
295.923
236.057
216.265
205.666
195.85
184.597
171.4
156.154
138.854
119.513
1820.74
533.327
295.195
233.296
212.483
201.486
191.635
180.567
167.697
152.87
136.049
117.316
1824.05
536.124
294.58
230.689
208.876
197.482
187.586
176.689
164.129
149.703
133.338
115.049
1826.61
538.838
294.036
228.236
205.437
193.643
183.693
172.955
160.688
146.645
130.726
112.991
1828.44
541.484
293.61
225.925
202.157
189.963
179.949
169.356
157.368
143.692
128.193
110.851
1829.55
543.972
293.264
223.748
199.029
186.431
176.347
165.887
154.162
140.837
125.753
108.939
1830.05
546.513
292.996
221.704
196.047
183.045
172.883
162.545
151.067
138.077
123.396
107.077
1829.89
548.867
292.798
219.774
193.204
179.797
169.55
159.321
148.079
135.41
121.106
105.088
1828.99
551.183
292.667
217.967
190.494
176.68
166.341
156.212
145.193
132.83
118.892
103.303
1827.58
553.426
292.597
216.269
187.91
173.691
163.252
153.213
142.404
130.335
116.752
101.595
1825.6
555.595
292.587
214.675
185.446
170.824
160.279
150.319
139.709
127.921
114.689
100.025
1822.86
557.575
292.628
213.18
183.1
168.073
157.417
147.527
137.104
125.586
112.692
98.4085
1819.58
559.617
292.725
211.789
180.864
165.434
154.662
144.833
134.586
123.327
110.764
96.9258
1815.78
561.463
292.872
210.489
178.738
162.905
152.009
142.232
132.152
121.141
108.88
95.2098
1811.2
563.253
293.042
209.267
176.71
160.478
149.455
139.723
129.799
119.024
107.054
93.7081
1806.16
564.901
293.284
208.139
174.782
158.152
146.995
137.299
127.522
116.973
105.29
92.3421
1800.62
566.575
293.57
207.092
172.952
155.922
144.627
134.959
125.32
114.987
103.589
91.0609
1794.47
568.07
293.894
206.124
171.209
153.785
142.347
132.701
123.191
113.066
101.94
89.7288
1787.69
569.511
294.232
205.239
169.558
151.738
140.153
130.52
121.131
111.204
100.345
88.4826
1780.4
570.803
294.639
204.418
167.992
149.778
138.042
128.416
119.139
109.402
98.7955
87.1834
1772.46
572.064
295.056
203.67
166.512
147.902
136.011
126.384
117.213
107.658
97.2931
85.9791
1764.41
573.29
295.515
202.999
165.108
146.108
134.057
124.425
115.35
105.967
95.8316
84.7314
1755.12
574.35
295.999
202.388
163.783
144.393
132.178
122.534
113.548
104.33
94.4157
83.6045
1745.84
575.355
296.527
201.844
162.537
142.756
130.373
120.71
111.807
102.744
93.0421
82.4777
1736.23
576.251
297.089
201.367
161.361
141.191
128.638
118.95
110.122
101.207
91.7134
81.4368
1725.7
577.146
297.669
200.96
160.26
139.698
126.971
117.253
108.494
99.7205
90.423
80.3558
1714.78
577.74
298.29
200.608
159.228
138.279
125.371
115.617
106.92
98.2798
89.1717
79.3693
1703.33
578.493
298.906
200.301
158.261
136.927
123.837
114.041
105.398
96.8858
87.9635
78.4089
1691.45
579.008
299.631
200.086
157.374
135.646
122.369
112.524
103.93
95.5368
86.7907
77.4405
1679.05
579.434
300.308
199.91
156.54
134.427
120.96
111.063
102.51
94.23
85.6524
76.5244
1666.64
579.937
301.042
199.8
155.778
133.273
119.613
109.656
101.14
92.9662
84.5467
75.5622
1653.31
580.207
301.786
199.742
155.082
132.184
118.325
108.306
99.8195
91.7432
83.4727
74.673
1639.21
580.272
302.544
199.746
154.447
131.159
117.097
107.007
98.5447
90.5613
82.4311
73.7721
1625.12
580.457
303.356
199.804
153.877
130.193
115.925
105.761
97.3173
89.4185
81.422
72.941
1610.81
580.477
304.182
199.925
153.366
129.289
114.811
104.565
96.1346
88.3153
80.4413
72.0676
1595.59
580.389
305.056
200.099
152.92
128.446
113.752
103.421
94.9948
87.2484
79.4922
71.2769
1580.12
580.228
305.915
200.336
152.539
127.664
112.746
102.325
93.8989
86.217
78.5744
70.5452
1564.23
579.945
306.79
200.62
152.214
126.938
111.798
101.28
92.8472
85.2236
77.6896
69.8072
1547.87
579.579
307.714
200.958
151.955
126.273
110.904
100.284
91.8383
84.268
76.8319
69.037
1531.12
579.145
308.659
201.354
151.759
125.665
110.061
99.3349
90.8708
83.3465
76.0035
68.3426
1514.35
578.633
309.632
201.829
151.618
125.115
109.274
98.4311
89.9451
82.4618
75.2029
67.623
1496.78
577.973
310.621
202.349
151.543
124.628
108.538
97.577
89.0593
81.6096
74.4298
66.995
1478.85
577.211
311.627
202.915
151.539
124.198
107.858
96.7697
88.2143
80.794
73.6869
66.3282
1460.54
576.347
312.654
203.548
151.59
123.83
107.232
96.01
87.4112
80.0127
72.9705
65.687
1441.83
575.398
313.744
204.256
151.712
123.523
106.658
95.297
86.6497
79.2659
72.2757
64.997
1422.75
574.328
314.801
205.002
151.891
123.269
106.138
94.6291
85.9261
78.5506
71.6137
64.5105
1403.3
573.138
315.877
205.827
152.146
123.084
105.671
94.0093
85.246
77.875
70.9897
63.9729
1383.88
571.96
317.016
206.713
152.465
122.959
105.259
93.439
84.6066
77.2314
70.3935
63.4932
1363.37
570.496
318.156
207.657
152.854
122.903
104.905
92.9166
84.0085
76.6239
69.8274
63.0032
1343.25
569.059
319.309
208.663
153.32
122.904
104.608
92.4442
83.4513
76.0516
69.2919
62.5567
1322.44
567.426
320.463
209.726
153.844
122.976
104.368
92.0202
82.9379
75.5175
68.7857
62.0796
1301.3
565.771
321.675
210.876
154.453
123.115
104.188
91.6482
82.4675
75.0176
68.3073
61.6744
1279.8
563.875
322.886
212.088
155.136
123.328
104.071
91.3257
82.0407
74.5545
67.8593
61.2542
1258.36
562.049
324.11
213.364
155.904
123.607
104.014
91.0574
81.6576
74.1293
67.4433
60.8924
1236.27
559.927
325.371
214.728
156.752
123.97
104.021
90.8462
81.3228
73.7437
67.0579
60.4976
1213.85
557.744
326.629
216.155
157.679
124.402
104.097
90.6892
81.0331
73.396
66.7016
60.1808
1191.11
555.417
327.889
217.672
158.702
124.919
104.239
90.5881
80.7912
73.0874
66.3829
59.9102
1168.1
552.929
329.19
219.256
159.811
125.517
104.457
90.5506
80.6022
72.8246
66.1016
59.6254
1144.82
550.354
330.482
220.909
161.019
126.207
104.747
90.5746
80.466
72.605
65.8547
59.3669
1121.58
547.703
331.814
222.658
162.32
126.99
105.114
90.6646
80.3825
72.4285
65.6444
59.1869
1097.77
544.847
333.133
224.501
163.73
127.865
105.565
90.8213
80.3551
72.3018
65.4774
59.0081
1074
541.909
334.487
226.418
165.238
128.836
106.104
91.0513
80.3871
72.2205
65.3467
58.8992
1049.7
538.734
335.816
228.41
166.863
129.917
106.731
91.3585
80.4833
72.194
65.2643
58.8199
1024.8
535.37
337.17
230.53
168.599
131.112
107.457
91.744
80.6448
72.2227
65.2258
58.7518
1000.23
532.017
338.558
232.71
170.463
132.422
108.286
92.2128
80.8763
72.3069
65.2328
58.7355
975.207
528.443
339.925
235.023
172.464
133.86
109.222
92.7772
81.1841
72.454
65.2906
58.7302
949.921
524.669
341.308
237.422
174.589
135.425
110.275
93.4363
81.5706
72.6682
65.4064
58.8138
924.737
520.819
342.671
239.931
176.864
137.143
111.449
94.2003
82.0453
72.956
65.5899
58.944
899.103
516.74
344.043
242.534
179.29
139.004
112.762
95.0727
82.6097
73.3152
65.8218
59.0376
873.242
512.453
345.458
245.286
181.881
141.027
114.212
96.0665
83.2699
73.7501
66.1136
59.2412
847.226
508.05
346.801
248.129
184.625
143.212
115.813
97.1846
84.0329
74.2718
66.4821
59.4937
821.022
503.445
348.187
251.103
187.552
145.593
117.575
98.4424
84.9115
74.8882
66.9225
59.8317
794.931
498.727
349.548
254.187
190.67
148.162
119.525
99.8549
85.9204
75.6094
67.4544
60.2388
768.739
493.763
350.932
257.438
193.996
150.947
121.664
101.43
87.0651
76.4481
68.0878
60.764
741.961
488.525
352.257
260.804
197.536
153.965
124.022
103.194
88.3599
77.411
68.8282
61.3537
715.217
483.17
353.583
264.34
201.296
157.231
126.605
105.155
89.8211
78.5023
69.6584
61.9447
688.641
477.631
354.907
268.014
205.317
160.769
129.442
107.329
91.4631
79.7425
70.6133
62.7145
662.046
471.858
356.215
271.857
209.607
164.605
132.56
109.755
93.3126
81.1579
71.7236
63.6063
634.97
465.838
357.497
275.898
214.178
168.765
135.997
112.449
95.3883
82.7578
72.971
64.6246
608.152
459.649
358.784
280.117
219.08
173.29
139.772
115.452
97.7207
84.5656
74.3968
65.7646
581.399
453.225
360.066
284.557
224.326
178.215
143.937
118.794
100.341
86.6077
76.0056
67.0812
554.264
446.577
361.358
289.264
229.991
183.6
148.553
122.537
103.296
88.9267
77.848
68.5909
527.388
439.738
362.706
294.254
236.114
189.508
153.669
126.731
106.633
91.5638
79.9464
70.2803
500.437
432.726
364.152
299.629
242.784
196.022
159.377
131.442
110.405
94.5529
82.329
72.1892
473.583
425.574
365.803
305.484
250.109
203.261
165.759
136.748
114.676
97.9413
85.0253
74.3782
446.613
418.416
367.823
312.026
258.278
211.351
172.951
142.753
119.526
101.8
88.1103
76.8746
419.662
411.553
370.629
319.593
267.554
220.511
181.1
149.577
125.039
106.188
91.6079
79.7193
392.475
405.801
374.969
328.746
278.28
230.958
190.348
157.323
131.316
111.174
95.5662
82.8545
365.032
404.213
383.027
340.827
291.172
243.138
201.025
166.257
138.535
116.897
100.066
86.3744
333.726
407.159
392.691
354.417
304.476
255.559
211.949
175.684
146.182
123.066
104.942
90.3364
195.524
0.00123961
5.64958
4.22354
4.19269
11.6699
11.1616
82.3119
40.7936
23.2329
6.63571
0.00254477
0.0204034
532.006
11.1635
0.000846315
443.805
0.189113
0.179786
0.000824877
2.40061
5.63339
0.226951
0.0167788
201.096
5.61466
3.95249
14.4497
14.8016
44.0356
12.7679
366.453
0.00106391
6.47416
0.0191408
2.20934
88.0281
11.0842
30.3229
0.00274257
0.219716
0.000787379
0.107409
20.6548
24.8917
5.41915
0.0514677
0.0132013
25.1504
2.37302
2.16544
78.8375
19.5243
0.000749077
196.099
0.00114973
0.00385408
0.000786507
11.115
10.3335
3.44098
380.968
0.000746602
0.00805305
0.642135
0.00118044
67.3243
19.0778
325.125
16.4024
168.193
0.0436664
28.9492
38.56
0.0172251
0.000756236
37.1302
0.000707946
0.0709097
11.5063
0.184893
0.00070986
76.6582
21.6791
0.00756799
63.0728
66.6313
0.000739877
4.46554
26.859
20.0632
23.2358
0.000741523
0.000965495
55.6951
0.000757554
13.5098
0.00736125
0.00072858
68.3577
133.543
1.0423
0.000781341
0.00111036
0.000711624
70.3991
64.0908
103.495
17.0252
0.0251334
0.516437
0.000713051
8.36558
0.000903554
0.00073445
8.32495
0.00997418
1.60313
62.3429
0.557084
109.833
0.0183586
161.077
0.898124
0.278411
47.394
0.00102897
1335.39
0.0199141
0.000742422
124.306
0.000758845
90.3932
0.00111402
4.11863
0.00140969
29.5447
11.4936
8.8243
0.00167144
0.00803238
2.81581
14.9317
0.12158
32.141
180.649
18.0044
0.00118595
55.8534
22.3976
0.48449
7.99554
0.000712948
0.235078
0.560759
0.000718716
12.7372
0.000753659
80.1686
0.0022308
0.0161325
0.000854841
0.282859
0.00567109
2.53707
0.174235
315.028
31.5813
19.0954
0.000707575
187.627
42.5289
197.57
0.00867937
0.00070977
16.2613
0.000710815
21.607
0.677504
31.2651
330.9
2.88743
0.0733696
27.2897
0.000795447
13.7587
0.000732624
0.000721845
31.0143
0.000735969
7.98341
0.000717464
201.384
0.0012833
16.4351
14.405
11.1603
4.64849
0.000712966
376.058
57.644
20.6677
56.7067
9.37004
20.7617
0.127008
0.156705
1.26911
35.0263
1.3165
145.284
47.5933
49.0929
35.9268
0.000722594
16.0453
0.00560871
9.72871
391.459
21.9672
21.4424
57.849
25.8605
0.000722262
0.00073019
49.382
63.1475
0.000754565
1395.37
0.0195682
166.037
0.259014
0.000712522
79.5488
8.91024
12.6844
12.0274
63.6818
30.1864
20.8705
0.437143
0.351156
29.3788
85.6085
187.002
137.86
85.6954
0.000828808
40.3228
16.9027
15.0199
38.3248
4.75835
3843.69
22.8927
1.56219
3.36118
19.4978
12.6363
25.8525
1.31105
13.2397
0.00693691
0.15162
575.528
13.7679
53.1672
49.315
6.85563
163.082
9.58955
0.0387685
160.133
89.1018
87.0648
170.828
31.538
106.615
30.5659
28.1901
180.888
31.087
27.8823
21.6687
22.5503
11.2984
10.9144
83.4075
78.6847
1.96595
27.7867
156.16
100.268
99.6872
17.0718
193.425
0.644971
86.7433
0.0623361
56.6037
6.59695
0.799006
333.659
194.386
0.517172
48.583
34.4969
0.000736969
0.615848
0.458373
0.617379
42.0781
0.000721762
89.7332
20.9406
0.083766
93.8576
39.1118
0.000721496
432.012
0.0255352
12.6518
9.32149
8720.15
51.883
38.7343
16.3296
0.00071609
0.000733369
41.2574
11.714
0.0007274
9.59588
0.000712509
0.000732199
0.000745669
0.00071068
0.206263
0.000725179
0.00172163
112.637
50.7711
0.000755459
19.6439
0.00346791
77.1063
145.607
81.5467
1026.21
13.2055
0.000708716
0.000749836
0.0853188
0.666134
95.8834
0.000709585
0.156943
25.866
46.7019
4.67317
28.5442
26.4823
64.9838
938.36
2.49857
4.24451
0.000889092
0.000735416
1.29319
3.76877
0.20994
28.9752
52.3503
5007.69
159.827
2.9245
23.3502
59.851
0.000733589
7.735
43.8207
0.00147239
0.000740267
52.8536
3615.75
82.8832
0.00071998
0.0438338
3.95855
0.0138998
0.000740572
48.5275
5.91613
18.6617
16.9439
0.000922547
856.444
0.000717435
1.42241
16.6811
0.00194428
0.00439804
82.9383
0.00301393
40.8215
310.073
77.7687
23.2329
42.0384
101.156
0.000716407
0.000725375
0.000728942
68.4009
0.0757019
318.75
5179.89
4.62338
61.023
0.000733618
0.0370118
15.0277
0.000708253
0.000725447
98.9429
0.000724801
1.46009
49.9424
28.9282
0.000709201
0.00241618
0.224447
0.207668
11.226
0.350241
0.000708915
755.43
49.4365
0.798772
0.00501183
34.9409
90.0652
0.00220195
15.6891
0.00210015
58.0124
0.000838879
12.9183
0.988166
0.000710592
68.77
11.3595
170.011
0.00335913
8.68612
2.75782
0.00143947
90.7622
53.0007
2.18393
214.156
0.0136754
0.0408062
0.00445854
107.262
28.4751
0.186363
2.44964
4.09454
168.992
0.712075
85.4685
1136.84
0.000711825
191.337
51.2273
10.5599
0.0007088
20.8502
84.765
0.108642
85.802
24.2913
2.05384
0.284539
30.8578
119.511
0.000860972
0.00943483
50.4297
0.0291601
0.00194006
242.44
1013.39
0.0293801
23.7401
47.0962
0.485789
47.0904
28.2395
47.5271
19.7916
25.7916
0.000756964
0.172676
46.8973
18.9997
106.741
22.7489
87.8974
177.772
925.068
66.893
2.20906
0.000727016
206.88
91.9658
42.051
9.0056
1.03937
0.128888
9.69008
0.000763991
17.8189
0.000731967
37.4543
9.2749
93.3981
30.182
69.7299
111.86
108.918
26.6159
201.476
0.000751724
0.308526
52.7681
1368.01
7.79594
21.0095
0.000865578
0.0174278
5.31607
106.268
15.9721
0.000708997
0.0577189
0.000712078
0.0483359
20.5128
0.0254172
59.1608
2.81226
74.0144
0.383888
0.407202
301.815
653.757
0.000740054
0.000740621
5.50496
174.208
18.6584
11.5108
2.87671
27.764
20.6351
0.000708963
0.674945
12.7201
0.00130997
70.8806
13.3595
27.7785
18.513
0.00503091
0.000710732
0.0132751
0.000716387
24.0383
17.8019
125.242
20.2328
0.000732477
127.493
0.109343
120.663
1.76071
178.124
0.0287074
0.438002
0.000714826
39.9296
565.698
20.4782
3.96134
0.000708488
94.9669
40.7212
51.717
0.000723397
0.463261
51.344
24.024
0.00177558
1075.9
0.000906193
52.1018
25.501
0.000871199
2.05601
0.123619
0.932387
0.000709258
0.000741783
67.9234
37.8295
20.4305
55.3971
0.00131096
1.93811
0.188923
40.6776
8.3977
0.00099543
1.43125
405.375
0.00070759
0.00270006
27.6511
134.721
81.0888
0.000721996
691.44
25.0024
106.111
0.0172744
2.55522
146.743
0.000734023
102.784
2.47399
18.5152
6.76535
39.7537
6.91744
85.9016
88.7879
16.2322
4805.53
0.000745209
0.00071976
130.618
43.0458
0.00126525
0.000723478
8.11522
0.00074533
47.4082
53.5837
0.984487
0.00072115
35.7679
0.259172
22.6599
59.3071
26.7253
0.237517
2.30356
108.868
0.000738968
2.1891
55.7286
22.6203
16.0035
0.00218925
9.28596
2.32446
2772.26
0.000713747
2.50616
32.0458
18.6875
0.00078011
0.146572
30.3043
57.7685
69.085
0.0532833
187.092
33.0777
0.283235
32.1683
0.000714884
0.00231281
7.69255
0.000707828
27.3899
0.000726155
116.07
0.00426176
52.1125
0.000763075
0.909921
53.8365
114.137
6.48108
27.9352
0.34613
219.541
0.0072176
0.136756
16.1775
0.000709086
0.000745062
28.4933
0.342355
95.1657
26.6068
0.000768517
91.2842
106.025
82.5052
6.23063
160.399
96.9187
0.000740825
2386.01
4086.69
50.8898
0.000759721
0.00396138
251.171
56.3431
0.000714304
81.8066
0.000709306
0.0974257
276.986
0.000842336
17.2153
0.000720567
0.0566347
123.346
0.000762143
0.00100334
0.000734949
0.000934535
0.0125181
950.121
46.8456
0.288398
11.682
0.000726525
43.7754
0.00072942
8.69168
1.54507
0.0133644
4.48642
0.00563321
66.4967
0.000736437
10308.3
3.56189
26.7984
199.634
4.82281
0.000707947
27.0101
171.743
2.01103
43.6739
53.326
169.533
23.6504
0.0326227
25.59
0.155081
0.00101455
0.267259
3989.79
142.993
1.00448
0.0275423
21.8089
0.000910815
8.14286
47.4889
166.244
57.2632
55.3316
0.0270431
0.00173393
34.1216
25.5934
0.0439105
44.6267
0.000723035
118.846
199.674
0.000766969
161.128
44.3613
1.15476
0.135903
128.448
0.0141835
0.29309
11.7059
2.57063
2.43131
0.000752852
24.116
0.0987946
149.115
28.6259
81.2788
5.40311
0.00215279
34.1116
0.000730433
0.000723974
10.7242
0.132975
1.63421
193.346
0.000709299
65.4348
0.135946
0.05131
0.000815962
151.087
6.94568
0.329019
36.7019
0.0515074
311.681
3.95164
0.000717411
240.731
248.532
0.00151857
0.00294388
79.0066
23.6173
0.393485
236.473
0.0246431
1.70395
0.223236
0.339862
28.8399
95.3902
0.00073663
88.148
23.2381
0.0064788
1.0837
1406.92
16.9246
0.000731196
0.000715026
31.6914
24.4303
60.8233
0.000709008
30.9021
2.47163
33.4408
0.000926216
165.693
42.4161
0.00148707
17.4393
0.000738802
79.4578
33.1166
29.8267
41.3818
0.000718499
0.000718974
9.8431
99.7496
4.88175
34.3452
0.000712507
0.0392505
0.000741656
0.00184982
35.3096
0.0783183
0.324927
0.881529
22.9196
150.008
25.2576
58.4872
0.000728474
30.8735
34.2621
21.7836
0.000738932
39.21
0.000735926
0.000726856
0.140225
21.739
0.0145785
333.537
36.3891
299.602
0.000759427
0.00132025
0.0312795
112.434
3.9022
148.689
0.000725453
0.000719566
0.00188242
0.00280521
127.946
40.664
84.8681
0.268638
0.031785
3.29977
3.87253
58.5424
15.5517
56.0378
19.3407
0.000707841
175.103
0.00151301
1.4923
56.8497
27.1169
1.1974
0.577271
0.000929135
96.3756
6.47673
17.2084
29.9694
0.000722708
68.4992
39.1039
168.806
0.00364757
53.9678
49.3876
51.6739
186.516
22.522
55.5118
0.241375
800.543
3.93134
0.162848
121.226
0.000728532
85.6253
175.598
0.000714388
32.1372
0.00127819
104.022
102.894
1.51071
19.9251
107.936
87.7117
13.6731
0.903213
51.0424
9.55004
0.00507643
0.000717605
21.9401
0.0748097
17.326
59.2145
3.76541
49.2159
106.887
0.000717998
16.9081
466.381
245.748
10.5342
103.094
16.015
190.288
98.1671
1.40905
0.0143805
0.20464
70.3469
75.8851
0.192962
49.1669
53.8324
47.3596
11.3877
1.73807
9.23478
29.7145
0.000738469
219.202
90.3566
1.38626
0.000738415
23.4734
13.5282
18.0165
0.000737744
149.201
0.000728287
12.2416
0.156122
0.000732598
35.1853
81.9249
0.000708975
51.5356
29.1543
22.187
13.2684
41.2401
15.7455
35.3213
53.541
1.63079
0.000715871
0.00124311
35.3311
5.69331
0.0643489
0.000757872
84.5112
0.00174971
0.951255
0.217549
9.45518
8.79611
0.0578127
0.513433
410.548
158.794
25.658
1335.67
52.0236
0.000711176
52.6354
15.8275
167.293
0.000712976
5.45415
0.000737085
0.000857177
18.5175
3.37851
0.0290478
0.000801496
50.649
2890.85
0.00233255
0.000727997
1.65161
8.5182
0.0137771
0.0770872
3032.39
0.508755
0.000798768
0.000727113
61.0814
21.9485
0.269657
0.0599409
65.8346
196.787
30.5451
104.214
31.6384
0.000730537
14.6065
0.000723083
131.485
16.3943
2779.65
6.18117
0.128291
0.000931732
89.1847
0.000739806
0.000714899
0.00167561
14.065
19.5994
55.9192
0.000719554
14.6899
0.000726531
517.345
55.9756
0.000744587
128.591
5.95147
0.000728572
0.000767629
0.0221331
127.854
4.85223
0.0156676
0.000726924
0.00071648
136.628
92.8692
21.2882
30.9253
0.440672
35.2792
0.000719212
0.00385928
5.93566
210.744
42.8201
0.00304104
0.000731189
34.7852
0.000746355
88.6244
142.455
6.18661
0.0337977
92.1897
14.6161
3.06389
0.000727671
6.44422
85.5411
86.9734
0.00203582
0.0201759
28.5772
2993.81
0.0469316
3.92309
0.000709601
0.00071629
0.0007383
0.0094357
33.3409
63.1928
0.0362075
99.2119
19.9208
421.975
8.24654
0.00997081
0.00258947
0.00597954
2.49499
48.8649
21.2331
0.000753057
86.643
0.00071739
0.00588218
58.7332
45.1109
0.0232899
4.57165
8.50635
0.00103058
0.708142
2.27054
0.000722535
0.000931585
134.88
0.000880226
0.000753595
113.289
26.3828
3148.27
8.95969
1321.16
0.00086468
0.000721454
3389.89
18.1593
1.00849
3.30115
0.0504955
19.5975
0.876104
975.916
42.7376
67.7682
143.173
105.145
1.06122
28.6426
100.854
0.00637454
81.1031
0.000991519
37.8239
6.10253
0.719025
6.7984
7.01622
3.04325
1.87455
40.3947
58.5843
46.9245
29.7014
51.4675
32.6691
5.32789
0.00106562
0.000724372
0.207865
229.623
0.00072559
72.2676
0.000718386
0.00349604
183.672
114.178
40.7519
74.8373
966.899
70.0638
16.7887
42.1274
0.000724187
17.0299
67.8769
0.000760089
187.819
0.00238908
723.538
251.828
296.917
14.8661
85.7171
3.79671
0.488171
16.8766
85.7434
21.1739
11.0272
5.40234
78.9324
0.120235
125.207
332.31
0.00341407
30.7393
0.00073978
0.000971402
17.9584
121.039
165.612
15.3315
0.527801
0.18971
0.290441
0.000885656
23.2663
0.000888039
152.924
0.000825097
0.110893
260.058
5.55541
2.48063
186.095
151.168
0.00183288
0.000738526
0.174697
14.2991
0.147885
113.718
0.0330185
26.7614
4.33138
28.1743
56.4577
0.000859278
0.000720023
117.225
0.639431
5.58163
50.931
26.1052
34.6684
0.00356216
149.735
57.5707
91.0566
0.000818666
1.08003
25.4074
80.7774
0.858703
14.3072
0.000758821
10.3225
0.000716696
217.672
0.00408168
35.5472
0.153894
8.78099
0.000761944
1879.25
0.000739053
130.337
0.0136144
0.000726939
0.00601104
15.1167
0.00072922
0.0007332
8.848
0.0225661
21.1238
0.0561728
0.00078189
23.4897
6.43541
41.2428
0.000776461
111.831
4.66565
356.084
33.8733
30.964
59.9701
93.224
3.92647
295.875
248.275
99.4163
0.00075332
2.36485
26.1003
19.0801
0.00127072
0.0160554
21.7201
487.453
0.000735473
1.37588
96.3467
0.000711688
52.8182
61.2223
177.66
75.3025
47.6475
12.7807
0.295623
184.952
8.03675
65.6168
47.2241
53.11
0.462118
0.000727231
35.4616
0.00175689
0.000750504
0.000715342
184.326
0.000727583
0.000923042
16.2511
9130.14
2.50273
2.38619
48.1326
11.4477
0.000728447
43.1663
227.424
0.0146708
4.70813
49.8913
50.2599
0.253323
0.0186388
0.00071792
0.000725753
0.0157267
0.0363026
26.6314
22.411
79.6327
14.8846
14.3953
0.000981254
192.256
29.259
0.000747828
23.5291
771.309
0.000740917
5.9757
121.266
39.346
93.9467
0.615748
133.014
0.000848399
0.793273
0.000770504
0.00192284
0.000746808
56.7603
15.9564
0.0847749
0.000739275
0.000707591
191.682
29.1829
2.33709
21.0576
5.35291
37.1064
18.7823
23.2279
27.9344
0.000732235
0.415398
0.846576
0.304787
19.4453
70.527
44.3163
86.5912
29.2153
80.7229
163.744
85.4654
48.5683
28.3104
0.1207
51.6153
30.6795
0.0174093
79.6062
49.1936
9.50118
0.000723726
0.00074267
0.000862812
0.00116774
51.9571
0.000708747
110.602
51.1771
231.833
25.5413
0.000726046
10.8747
16.7131
58.4552
15.6318
30.0376
11.9692
0.000755061
0.000742219
0.00316781
0.152949
0.000715173
86.5762
14.3078
1.55514
42.7473
13.1977
40.5594
119.123
0.000728236
19.5568
27.8483
0.000931589
0.0812803
54.7147
165.89
17.9052
4.85416
0.000750477
35.3072
41.4142
0.000942357
0.0105517
0.000722877
40.6554
0.00113664
0.472869
103.292
0.749992
0.087774
19.4153
2860.71
0.000754698
26.7576
0.000715245
10.3727
23.746
23.4718
14.6888
61.9415
28.5283
58.5714
177.072
40.6261
0.000732188
0.000718775
0.0426622
0.180149
49.0685
4.66412
0.000735177
150.726
2.41979
0.00286882
47.1818
0.0482017
0.00267557
0.0280305
68.0313
0.00192509
0.000732744
22.5384
85.0287
22.3454
1.31895
54.6807
8.37492
0.000739254
17.1209
0.128544
0.0605513
0.0007928
35.9265
17.698
5.59516
127.531
85.1176
16.9056
2.54729
0.000725655
27.0494
0.000746907
205.839
0.003715
34.1674
0.139096
49.0054
0.00708526
0.00337318
4.17595
3.19514
389.001
0.00086677
1.55445
47.9626
93.7772
6.39829
116.279
1.32131
0.000807917
0.000744788
56.2434
21.8578
309.476
1.92429
0.148455
56.2421
22.071
53.4926
0.0598237
0.000725597
0.000734776
1.25224
757.67
16.2584
95.6232
0.000853083
0.00424022
1.0306
50.9769
24.0494
40.8657
59.3732
55.6582
0.00074188
0.000739818
169.865
133.624
56.3572
409.862
49.7299
0.0147761
121.903
0.000737013
228.265
0.0153372
0.0180738
0.00072651
0.0300579
0.153405
49.0062
44.0993
0.000754515
118.006
0.000724156
85.327
135.326
0.000718885
0.423357
0.000754391
17.4732
0.281941
5.59227
0.00071105
13.6803
91.8448
13.3966
39.905
1.15273
53.8399
1.4618
55.7647
34.4783
76.7123
27.4333
0.000941223
0.000737023
28.2758
0.422396
54.5176
0.000731729
112.483
0.000724472
0.00129537
0.139812
0.000722383
268.341
87.7199
0.000762185
19.2203
2.17486
0.152388
29.8192
0.00182224
0.000715961
44.9195
7.87296
0.0200299
42.3534
2250.36
98.2329
1.55208
171.232
0.197346
0.00073571
0.000888143
0.0246546
1.5555
52.6196
129.159
307.545
47.5066
56.2807
9.20764
1.76816
32.4498
138.885
55.7354
0.0318363
0.0762716
12.0865
74.8267
0.000795229
0.857973
15.3059
187.31
0.000726197
51.1643
0.00070804
0.00589202
131.593
0.000817515
66.2077
1116.83
0.000738
168.472
0.000905047
8.91149
0.00575666
0.00104114
43.0176
17.1873
59.2
7.31617
72.2621
353.39
106.51
5.99233
32.9769
19.8776
0.00071053
168.29
0.0496268
80.0039
3.90021
9.14621
0.0317407
0.00105876
169.133
105.473
12.9024
43.9637
18.5215
0.00858115
0.000712191
0.000742946
1.57973
76.0859
15.2091
0.000723647
1118.84
20.8503
0.00858707
0.124328
17.8609
0.000712769
0.368925
0.000762214
0.00072402
22.4616
26.8553
0.0483891
0.00561705
0.000712783
26.0376
1.48333
21.1142
0.00225677
0.0278218
0.00666003
55.7244
105.405
1.19336
0.000728586
145.782
0.000775549
0.0305331
0.00377694
0.00135844
36.5412
59.0947
0.000729163
45.5346
0.000748736
0.000710772
0.000881689
48.712
16.1012
53.9135
43.2766
17.7579
55.5927
0.0397193
0.000728798
0.00647865
0.00153779
2.92712
0.000720139
55.2652
10.2088
0.0295948
92.3461
0.330063
19.682
1.77787
0.00177276
127.772
51.5454
21.3575
0.00659298
0.133571
195.533
0.000732746
7.7118
52.7822
0.000724515
0.631592
0.00261903
20.5375
0.000713144
82.0634
33.334
1.65728
0.405366
96.4295
365.992
4.69295
115.253