/*--------------------------------*- C++ -*----------------------------------*\
| =========                 |                                                 |
| \\      /  F ield         | OpenFOAM: The Open Source CFD Toolbox           |
|  \\    /   O peration     | Version:  2.3.1                                 |
|   \\  /    A nd           | Web:      www.OpenFOAM.org                      |
|    \\/     M anipulation  |                                                 |
\*---------------------------------------------------------------------------*/
FoamFile
{
    version     2.0;
    format      ascii;
    class       volScalarField;
    location    "0.18";
    object      nut;
}
// * * * * * * * * * * * * * * * * * * * * * * * * * * * * * * * * * * * * * //

dimensions      [0 2 -1 0 0 0 0];

internalField   nonuniform List<scalar> 
15166
(
9.67762e-05
0.000153345
0.000254431
0.000364484
0.000460847
0.000571455
0.000685573
0.00080967
0.000925368
0.00104432
0.00115685
0.00125322
9.6806e-05
0.000166569
0.000274173
0.000384071
0.000483937
0.000593608
0.000706484
0.000825905
0.000939326
0.00105388
0.00116223
0.00125931
9.71852e-05
0.000177272
0.00028961
0.000400174
0.000502854
0.000611948
0.000723616
0.000839423
0.000950699
0.00106154
0.00116644
0.00126329
9.76741e-05
0.000186833
0.000302731
0.000414018
0.000518709
0.000627288
0.000737761
0.000850674
0.000959888
0.00106754
0.0011695
0.00126615
9.81967e-05
0.000195461
0.000314307
0.000426279
0.000532326
0.000640349
0.000749584
0.000860062
0.000967296
0.00107213
0.00117164
0.00126767
9.87606e-05
0.000203201
0.000324663
0.000437261
0.000544199
0.000651585
0.000759565
0.000867917
0.000973216
0.00107554
0.00117285
0.0012681
9.93598e-05
0.00021014
0.00033405
0.000447186
0.000554621
0.000661331
0.000768054
0.000874473
0.000977909
0.00107794
0.00117325
0.00126814
9.99923e-05
0.000216361
0.000342666
0.000456215
0.000563861
0.000669841
0.000775313
0.000879948
0.000981585
0.00107953
0.0011732
0.00126836
0.000100638
0.000221926
0.000350657
0.00046453
0.000572138
0.000677328
0.000781556
0.000884528
0.000984422
0.00108045
0.0011727
0.00126777
0.000101294
0.000226874
0.00035811
0.000472222
0.000579618
0.000683976
0.000786956
0.000888337
0.000986563
0.00108085
0.00117188
0.0012667
0.000101957
0.000231257
0.000365092
0.000479384
0.000586415
0.000689904
0.000791649
0.000891504
0.000988127
0.00108084
0.00117098
0.0012666
0.000102616
0.000235103
0.000371635
0.000486084
0.00059263
0.000695222
0.000795743
0.000894129
0.000989225
0.00108054
0.00117001
0.00126576
0.000103272
0.000238458
0.000377779
0.000492361
0.000598356
0.000700023
0.000799323
0.000896291
0.000989932
0.00108
0.00116887
0.00126393
0.000103919
0.000241375
0.000383544
0.000498261
0.000603643
0.00070436
0.000802465
0.000898056
0.000990325
0.00107923
0.0011673
0.0012611
0.000104559
0.000243868
0.000388946
0.000503829
0.000608548
0.000708312
0.000805227
0.000899496
0.000990448
0.00107826
0.00116562
0.00125871
0.000105184
0.000245986
0.000393983
0.00050908
0.000613114
0.000711907
0.000807653
0.000900634
0.000990348
0.00107714
0.00116376
0.00125565
0.000105799
0.000247752
0.000398663
0.00051404
0.000617379
0.000715198
0.000809791
0.000901535
0.000990059
0.00107587
0.00116172
0.00125256
0.000106394
0.000249209
0.000403005
0.000518736
0.000621383
0.000718228
0.000811686
0.000902207
0.000989593
0.00107446
0.00115948
0.00124898
0.000106972
0.000250391
0.000407001
0.00052317
0.00062513
0.000721005
0.000813342
0.000902703
0.000988988
0.00107294
0.00115714
0.00124552
0.000107535
0.000251311
0.000410671
0.000527356
0.000628664
0.000723568
0.00081481
0.000903029
0.000988261
0.00107131
0.0011547
0.00124205
0.000108084
0.000252012
0.000414006
0.000531304
0.00063198
0.000725934
0.000816093
0.000903204
0.000987411
0.00106959
0.00115208
0.00123811
0.000108613
0.000252501
0.000417017
0.000535029
0.000635113
0.000728115
0.000817214
0.000903248
0.000986467
0.00106777
0.00114933
0.00123407
0.000109116
0.000252816
0.000419719
0.000538519
0.000638061
0.000730138
0.000818197
0.000903182
0.000985432
0.00106585
0.0011465
0.00123077
0.000109611
0.000252969
0.000422113
0.000541791
0.000640841
0.000732017
0.000819057
0.000903019
0.000984312
0.00106385
0.00114357
0.00122694
0.00011008
0.000252974
0.000424205
0.000544858
0.000643463
0.000733762
0.000819796
0.000902753
0.000983114
0.00106177
0.00114062
0.00122371
0.000110533
0.000252863
0.000426006
0.000547712
0.000645936
0.000735376
0.000820428
0.000902408
0.000981846
0.00105963
0.00113764
0.00122002
0.000110969
0.000252636
0.000427525
0.000550347
0.000648265
0.000736876
0.000820968
0.000901984
0.000980515
0.00105745
0.0011347
0.00121708
0.000111383
0.000252326
0.000428788
0.000552776
0.000650445
0.000738264
0.000821423
0.000901489
0.000979128
0.00105524
0.00113186
0.00121437
0.000111776
0.000251928
0.000429783
0.000555012
0.000652491
0.000739551
0.000821786
0.000900936
0.000977696
0.00105301
0.00112901
0.00121087
0.00011215
0.000251443
0.000430542
0.000557036
0.000654407
0.000740737
0.00082208
0.000900317
0.000976223
0.00105076
0.00112618
0.00120788
0.000112501
0.000250917
0.000431054
0.000558862
0.000656186
0.000741834
0.000822301
0.000899653
0.000974716
0.00104851
0.00112332
0.00120433
0.000112841
0.000250327
0.000431357
0.000560483
0.00065784
0.00074284
0.000822462
0.000898933
0.000973178
0.00104624
0.00112049
0.00120129
0.000113168
0.000249691
0.00043144
0.000561923
0.00065937
0.000743766
0.000822554
0.000898176
0.000971615
0.00104397
0.00111763
0.00119756
0.000113464
0.000249029
0.000431339
0.000563164
0.000660771
0.000744607
0.000822594
0.000897379
0.000970029
0.00104168
0.00111477
0.00119436
0.000113748
0.000248336
0.000431044
0.000564229
0.000662051
0.000745364
0.000822578
0.000896546
0.000968417
0.00103939
0.00111188
0.00119061
0.000114024
0.000247621
0.000430591
0.000565093
0.000663205
0.00074605
0.000822516
0.000895678
0.000966786
0.00103709
0.00110903
0.00118767
0.000114266
0.000246884
0.000429966
0.000565788
0.000664239
0.000746655
0.000822395
0.00089477
0.000965138
0.00103479
0.00110625
0.00118502
0.000114502
0.000246136
0.000429194
0.0005663
0.000665149
0.000747191
0.000822234
0.000893841
0.000963479
0.0010325
0.00110348
0.00118164
0.000114718
0.000245379
0.000428287
0.000566643
0.000665943
0.000747644
0.000822027
0.000892888
0.000961813
0.00103022
0.00110071
0.00117833
0.000114912
0.00024462
0.000427256
0.000566823
0.000666623
0.000748037
0.000821776
0.000891904
0.000960133
0.00102794
0.00109794
0.00117488
0.000115099
0.00024384
0.000426108
0.000566835
0.000667181
0.00074835
0.000821483
0.000890904
0.000958446
0.00102565
0.00109505
0.00117085
0.000115261
0.000242989
0.000424832
0.000566692
0.000667618
0.000748597
0.000821148
0.000889877
0.00095675
0.00102334
0.00109215
0.00116784
0.000115414
0.000242113
0.000423466
0.000566401
0.000667945
0.000748771
0.000820774
0.000888836
0.000955046
0.00102103
0.00108924
0.00116432
0.000115541
0.000241178
0.000421971
0.000565952
0.000668152
0.000748873
0.00082036
0.000887769
0.000953328
0.0010187
0.00108637
0.00116138
0.000115651
0.000240242
0.000420318
0.000565362
0.00066825
0.000748903
0.000819906
0.000886683
0.000951603
0.00101638
0.0010835
0.0011578
0.00011575
0.000239345
0.000418536
0.00056462
0.000668229
0.000748867
0.00081942
0.00088558
0.000949871
0.00101405
0.00108065
0.00115506
0.000115836
0.000238398
0.000416666
0.000563669
0.000668084
0.00074876
0.00081889
0.000884458
0.000948127
0.00101173
0.00107783
0.00115158
0.000115897
0.000237487
0.000414712
0.000562588
0.000667798
0.00074857
0.000818321
0.000883319
0.000946379
0.00100941
0.00107504
0.00114882
0.000115948
0.00023658
0.00041272
0.000561343
0.000667384
0.000748309
0.000817713
0.000882151
0.000944621
0.00100709
0.00107226
0.00114549
0.000115987
0.00023568
0.000410624
0.000559958
0.00066685
0.00074796
0.00081706
0.00088097
0.000942849
0.00100477
0.00106951
0.00114275
0.000116013
0.000234824
0.000408474
0.000558438
0.000666199
0.000747544
0.000816365
0.000879769
0.000941078
0.00100245
0.00106671
0.00113908
0.000116024
0.000233934
0.000406273
0.000556769
0.000665415
0.000747036
0.000815625
0.000878541
0.000939296
0.00100014
0.00106393
0.00113564
0.000116019
0.000233098
0.000404035
0.000554999
0.000664513
0.000746451
0.000814841
0.0008773
0.00093751
0.000997834
0.00106119
0.00113315
0.000116007
0.000232268
0.000401761
0.000553089
0.000663481
0.000745788
0.000814017
0.000876039
0.00093572
0.000995532
0.00105848
0.00113031
0.000115974
0.000231449
0.000399458
0.000551067
0.000662332
0.000745037
0.000813145
0.000874756
0.000933926
0.000993242
0.00105582
0.00112753
0.000115925
0.000230638
0.000397131
0.000548941
0.000661065
0.000744195
0.000812223
0.000873451
0.000932128
0.00099096
0.00105315
0.00112413
0.000115872
0.000229883
0.00039479
0.000546715
0.000659671
0.000743273
0.000811258
0.000872125
0.000930322
0.000988696
0.0010505
0.00112116
0.000115802
0.000229096
0.000392435
0.000544374
0.000658163
0.000742266
0.000810233
0.000870776
0.000928521
0.000986437
0.00104782
0.00111741
0.000115715
0.000228363
0.00039007
0.000541945
0.000656529
0.000741156
0.000809168
0.00086941
0.000926716
0.000984183
0.00104516
0.00111524
0.000115626
0.000227644
0.000387733
0.000539457
0.000654799
0.000739971
0.00080804
0.000868011
0.000924898
0.000981925
0.00104252
0.00111234
0.000115518
0.000226961
0.00038536
0.000536867
0.000652946
0.000738688
0.00080686
0.000866591
0.000923078
0.000979675
0.00103989
0.00110917
0.000115394
0.000226257
0.000382988
0.000534202
0.000650971
0.000737307
0.00080562
0.000865137
0.000921247
0.000977439
0.00103725
0.00110566
0.000115261
0.000225603
0.000380625
0.000531472
0.000648907
0.000735839
0.00080432
0.000863661
0.000919411
0.000975198
0.00103462
0.00110263
0.00011512
0.000224963
0.000378303
0.000528659
0.000646726
0.000734273
0.000802966
0.000862155
0.000917573
0.000972968
0.00103197
0.00109913
0.000114964
0.000224365
0.000375961
0.000525814
0.000644447
0.000732619
0.000801547
0.000860618
0.000915721
0.000970739
0.00102932
0.00109616
0.000114802
0.000223775
0.000373662
0.000522915
0.000642057
0.000730874
0.000800062
0.000859054
0.000913865
0.000968502
0.00102666
0.00109283
0.000114605
0.000223179
0.000371374
0.000519947
0.000639584
0.000729029
0.00079852
0.000857452
0.000911988
0.000966266
0.00102401
0.00109005
0.000114438
0.000222635
0.00036912
0.000516953
0.000637015
0.000727094
0.000796913
0.000855815
0.000910104
0.000964025
0.00102134
0.00108668
0.000114226
0.000222111
0.000366878
0.000513924
0.000634343
0.00072506
0.000795232
0.00085414
0.000908197
0.000961784
0.00101869
0.00108361
0.000113992
0.000221606
0.000364662
0.000510853
0.000631604
0.000722945
0.000793483
0.000852428
0.000906282
0.000959534
0.00101602
0.00108015
0.000113772
0.000221095
0.000362485
0.000507737
0.000628763
0.000720733
0.00079167
0.000850671
0.000904344
0.000957276
0.00101335
0.00107711
0.000113534
0.000220676
0.00036032
0.00050461
0.00062585
0.000718418
0.000789785
0.000848871
0.000902386
0.000955005
0.00101065
0.00107356
0.000113287
0.000220197
0.000358231
0.000501499
0.00062287
0.000716023
0.000787819
0.000847029
0.00090041
0.000952728
0.00100794
0.00107007
0.000113024
0.000219801
0.000356095
0.000498307
0.000619777
0.00071352
0.000785772
0.000845135
0.000898401
0.000950438
0.00100523
0.00106692
0.000112751
0.000219423
0.000354065
0.000495141
0.000616657
0.000710941
0.000783667
0.000843195
0.000896375
0.000948141
0.00100252
0.00106358
0.00011244
0.000219002
0.000352043
0.00049195
0.000613448
0.000708281
0.000781478
0.000841213
0.000894325
0.00094583
0.000999819
0.00106072
0.000112146
0.000218647
0.000350077
0.000488767
0.000610168
0.000705519
0.000779211
0.000839166
0.000892235
0.000943506
0.000997098
0.00105733
0.00011186
0.000218364
0.000348159
0.000485573
0.000606841
0.000702668
0.000776866
0.000837075
0.000890124
0.000941164
0.000994372
0.0010543
0.000111532
0.000218035
0.000346263
0.00048239
0.000603452
0.000699742
0.000774444
0.000834926
0.000887971
0.000938806
0.000991624
0.00105084
0.000111176
0.000217746
0.000344422
0.000479203
0.000600021
0.000696729
0.000771942
0.00083272
0.000885789
0.000936421
0.000988891
0.00104799
0.000110841
0.00021749
0.000342594
0.000476036
0.000596529
0.000693629
0.000769357
0.000830446
0.000883569
0.000934014
0.000986135
0.00104473
0.000110483
0.000217244
0.000340851
0.000472862
0.000592979
0.000690435
0.000766698
0.000828112
0.000881303
0.000931587
0.00098335
0.00104109
0.000110112
0.000217029
0.00033916
0.000469725
0.000589406
0.000687187
0.000763947
0.000825715
0.000878995
0.000929142
0.000980556
0.00103772
0.000109732
0.000216834
0.000337496
0.000466617
0.000585788
0.000683853
0.000761112
0.000823246
0.000876646
0.000926667
0.00097778
0.0010349
0.000109338
0.000216658
0.000335885
0.000463532
0.000582122
0.000680444
0.000758204
0.00082071
0.000874251
0.000924169
0.000974977
0.0010316
0.000108906
0.000216487
0.000334314
0.000460428
0.000578456
0.000676968
0.000755201
0.000818119
0.000871804
0.000921633
0.000972172
0.00102866
0.000108491
0.000216349
0.000332793
0.000457378
0.00057475
0.0006734
0.000752125
0.000815439
0.000869312
0.000919074
0.000969341
0.00102514
0.00010806
0.000216237
0.00033133
0.000454384
0.000570992
0.000669775
0.000748948
0.000812688
0.000866774
0.000916489
0.000966524
0.00102223
0.000107616
0.000216153
0.000329922
0.000451412
0.000567248
0.00066607
0.000745686
0.000809862
0.000864171
0.000913874
0.000963712
0.00101938
0.000107159
0.00021609
0.00032853
0.000448454
0.000563466
0.000662296
0.000742347
0.000806956
0.000861499
0.000911205
0.000960895
0.00101687
0.000106689
0.000216051
0.000327237
0.000445574
0.000559696
0.00065849
0.000738924
0.000803979
0.000858782
0.000908516
0.000958044
0.00101314
0.000106207
0.000216041
0.000325999
0.000442705
0.000555893
0.000654595
0.000735427
0.000800925
0.000856004
0.000905797
0.0009552
0.00101013
0.000105684
0.000215997
0.000324777
0.000439888
0.000552094
0.000650653
0.000731843
0.000797779
0.000853159
0.000903039
0.00095229
0.00100653
0.000105202
0.000216053
0.000323624
0.000437131
0.000548294
0.000646633
0.00072817
0.000794551
0.000850248
0.000900228
0.000949354
0.00100319
0.00010465
0.000216069
0.000322536
0.000434427
0.000544481
0.000642602
0.000724406
0.000791231
0.000847276
0.000897369
0.00094635
0.000999483
0.000104114
0.000216129
0.000321514
0.000431791
0.000540714
0.000638494
0.000720568
0.000787834
0.000844225
0.000894453
0.00094333
0.000996352
0.000103562
0.00021618
0.000320522
0.000429185
0.000536935
0.000634352
0.000716645
0.000784341
0.000841092
0.000891474
0.000940233
0.000992645
0.000102995
0.000216315
0.000319602
0.000426653
0.00053318
0.00063015
0.000712633
0.000780771
0.000837885
0.00088845
0.000937133
0.000989404
0.000102387
0.00021637
0.000318751
0.000424192
0.000529428
0.00062594
0.000708552
0.000777102
0.000834606
0.000885356
0.000933955
0.000985716
0.000101789
0.000216525
0.000317933
0.000421771
0.00052571
0.000621657
0.000704394
0.000773325
0.000831229
0.000882197
0.000930787
0.000982754
0.000101178
0.000216674
0.000317194
0.000419438
0.000522036
0.00061738
0.000700148
0.000769464
0.000827766
0.000878956
0.00092756
0.000979271
0.00010055
0.000216865
0.000316532
0.000417155
0.000518377
0.00061306
0.000695838
0.000765521
0.000824219
0.000875669
0.000924265
0.000975458
9.99048e-05
0.000217092
0.000315904
0.000414965
0.000514773
0.000608728
0.000691446
0.000761468
0.000820578
0.000872303
0.000920945
0.000972131
9.92445e-05
0.00021731
0.00031536
0.000412866
0.000511197
0.000604364
0.000686995
0.000757326
0.000816836
0.000868852
0.000917596
0.000968991
9.85402e-05
0.000217514
0.000314857
0.000410831
0.000507685
0.00059998
0.000682481
0.000753077
0.000812998
0.00086533
0.000914193
0.00096531
9.78444e-05
0.000217777
0.000314438
0.000408861
0.00050421
0.000595607
0.000677892
0.000748743
0.000809068
0.000861721
0.000910739
0.000961858
9.71037e-05
0.000218022
0.000314061
0.000407003
0.00050082
0.00059125
0.000673233
0.000744301
0.000805023
0.000858023
0.000907168
0.000957894
9.63696e-05
0.000218332
0.000313781
0.000405256
0.000497487
0.000586886
0.000668531
0.000739756
0.000800868
0.000854224
0.000903508
0.000953809
9.56484e-05
0.000218715
0.000313553
0.000403556
0.000494244
0.000582527
0.000663767
0.000735131
0.000796613
0.000850325
0.000899793
0.000950091
9.48548e-05
0.000219018
0.000313381
0.000402013
0.000491071
0.000578205
0.000658955
0.000730419
0.000792241
0.000846321
0.000895942
0.000945949
9.40618e-05
0.00021939
0.000313307
0.000400521
0.000487975
0.000573904
0.000654118
0.000725586
0.000787749
0.000842206
0.000892058
0.000942323
9.32521e-05
0.000219815
0.000313286
0.000399161
0.000484999
0.000569659
0.000649239
0.000720682
0.000783155
0.000837981
0.000888079
0.000938185
9.23942e-05
0.000220181
0.000313362
0.000397903
0.000482107
0.000565427
0.000644346
0.000715688
0.000778443
0.000833669
0.000884036
0.000933961
9.15377e-05
0.000220625
0.000313507
0.000396782
0.000479321
0.000561269
0.000639402
0.000710615
0.000773603
0.0008292
0.000879824
0.000930078
9.06623e-05
0.000221124
0.000313674
0.000395734
0.000476644
0.00055717
0.000634463
0.000705428
0.000768623
0.00082458
0.000875477
0.00092561
8.97645e-05
0.000221589
0.000313999
0.000394843
0.000474125
0.000553173
0.00062952
0.000700188
0.000763544
0.000819853
0.000871061
0.000921509
8.88416e-05
0.000222127
0.000314356
0.000394079
0.000471733
0.000549238
0.000624608
0.000694881
0.000758337
0.000814962
0.000866469
0.000916808
8.78655e-05
0.000222612
0.000314833
0.000393475
0.000469488
0.000545434
0.000619692
0.000689508
0.000752998
0.000809961
0.000861817
0.000912468
8.68575e-05
0.000223158
0.000315342
0.00039297
0.000467397
0.000541743
0.000614843
0.000684109
0.000747572
0.00080481
0.000857013
0.000907657
8.58791e-05
0.000223809
0.000315987
0.000392642
0.000465476
0.000538181
0.000610018
0.000678647
0.000742048
0.000799541
0.000852081
0.00090272
8.48559e-05
0.000224424
0.000316718
0.000392442
0.000463762
0.000534773
0.000605286
0.000673158
0.000736383
0.000794077
0.000846876
0.000897749
8.37687e-05
0.000225049
0.000317543
0.000392433
0.000462211
0.000531534
0.000600645
0.000667677
0.000730618
0.00078846
0.000841539
0.000892407
8.26444e-05
0.000225694
0.000318463
0.000392589
0.000460873
0.000528488
0.000596115
0.000662183
0.000724776
0.000782714
0.000836104
0.00088746
8.15436e-05
0.00022646
0.000319485
0.000392902
0.000459789
0.000525653
0.000591706
0.000656739
0.000718848
0.000776782
0.000830406
0.00088161
8.03664e-05
0.000227174
0.000320621
0.000393437
0.000458923
0.00052306
0.00058749
0.000651327
0.000712861
0.000770724
0.000824521
0.000875845
7.91403e-05
0.00022792
0.000321872
0.00039418
0.00045835
0.00052074
0.000583476
0.000646024
0.000706833
0.000764512
0.000818403
0.000869555
7.79306e-05
0.000228787
0.000323244
0.000395111
0.00045804
0.000518715
0.000579675
0.000640816
0.000700795
0.000758178
0.0008121
0.000863203
7.66392e-05
0.000229608
0.000324753
0.000396308
0.000458052
0.000517028
0.000576175
0.000635772
0.000694762
0.000751706
0.00080558
0.000856495
7.53171e-05
0.000230481
0.000326395
0.000397733
0.000458415
0.000515707
0.000572966
0.000630917
0.000688749
0.00074511
0.000798868
0.000850113
7.39267e-05
0.000231358
0.000328165
0.000399471
0.000459153
0.000514785
0.000570135
0.000626281
0.000682761
0.000738381
0.000791871
0.00084288
7.25022e-05
0.000232278
0.00033014
0.000401499
0.00046032
0.000514336
0.000567676
0.000621898
0.000676857
0.000731552
0.000784673
0.000835736
7.09957e-05
0.000233148
0.000332273
0.000403875
0.000461912
0.000514327
0.00056561
0.000617775
0.00067105
0.000724604
0.000777179
0.00082783
6.9434e-05
0.000234066
0.000334593
0.000406573
0.000463931
0.000514766
0.000563952
0.000613911
0.000665279
0.000717499
0.000769328
0.000819786
6.77922e-05
0.000234893
0.000337051
0.000409629
0.000466323
0.000515603
0.000562694
0.000610421
0.000659721
0.000710346
0.000761212
0.00081153
6.57811e-05
0.000233978
0.000337605
0.000411662
0.000467696
0.00051576
0.000560978
0.000606769
0.000653992
0.000703331
0.000753051
0.000802892
0.000434597
0.00152837
0.0015649
0.00181805
0.00182058
0.000567951
0.000557325
0.000455401
0.00130139
0.00199389
0.00374004
0.00197444
0.00407678
0.00138008
0.00049258
0.00132673
0.00144913
0.00493293
0.0049167
0.00131371
0.000620263
0.000445162
0.00698734
0.00345884
0.000434452
0.00156793
0.000497756
0.000696143
0.00187325
0.00115535
0.00170915
0.000329506
0.00144867
0.00370491
0.00396868
0.000871037
0.000158641
0.00149188
0.000458096
0.00202622
0.00166515
0.00128747
0.00358685
0.000961224
0.000286948
0.000445206
0.00553516
0.00358278
0.0002901
0.00062341
0.000871692
0.000457713
0.000351661
0.00124157
0.00159384
0.0014891
0.00229758
0.0012869
0.00149273
0.000489672
0.0005324
0.000330294
0.00124141
0.00277216
0.00379274
0.00150452
0.000862959
0.000332632
0.000643834
0.00221095
0.00166535
0.00510707
0.00045592
0.001019
0.0034875
0.00127291
0.00131366
0.00123951
0.00537548
0.000454208
0.00441857
0.0012408
0.000202157
0.000393966
0.0027547
0.00153935
0.000864716
0.00124129
0.00257855
0.0002094
0.000553965
0.00139433
0.00124135
0.00139422
0.000356916
0.00127294
0.000693764
0.00164437
0.00124199
0.000878468
0.000701476
0.00280771
0.00128501
0.00146997
0.00123931
0.000355319
0.000338346
0.000419069
0.00123517
0.000194262
0.00140686
0.00124025
0.000417595
0.00136009
0.00124075
0.000482519
0.00307151
0.0022477
0.00148633
0.00421769
0.000717615
0.00366023
0.00141658
0.00315468
0.00443938
0.00275857
0.00140577
0.000255757
0.00382281
0.00124133
3.93932e-05
0.00124223
5.66886e-05
0.00147086
0.000494588
0.00160745
0.00018275
0.00235208
0.000419093
0.00171458
0.00288328
0.000622806
0.000465474
0.00036982
9.32792e-05
0.00157547
0.000466295
0.00150722
0.00134028
0.000573896
0.000468774
0.000475686
0.00124373
0.00429673
0.00317565
0.00124365
0.000423796
0.00127104
0.00159231
0.00189257
0.00357317
0.0013323
0.00448206
0.00254941
0.000647791
0.00306597
0.000272441
0.000265427
0.000543314
0.00123983
0.0015038
0.00101881
0.00158973
0.00296019
0.0012417
0.00152875
0.00123916
0.000421356
0.00203679
0.00126125
0.000272315
0.00515922
0.00421574
0.000468094
0.0012954
0.000439405
0.00125649
0.00124025
9.77027e-05
0.00124084
0.00225314
0.00124691
0.00038895
0.00154583
0.000432344
0.000537334
0.000581804
0.000489289
0.00124024
0.00215485
0.00139799
0.000463757
0.000289016
0.000434459
0.000467773
0.00665794
0.00416158
0.00311846
0.00105054
0.00270991
5.42089e-05
0.00131366
0.000460367
0.000419798
0.00123979
0.000464529
0.00245824
0.00137936
0.0021707
0.000201875
0.000396668
0.00139621
0.000428421
0.00124818
0.00125015
0.00271399
0.00153573
0.00126587
0.00103941
0.00391514
5.23273e-05
0.00445425
0.0012424
0.000842059
0.00141509
0.000469637
0.000440059
0.00141821
0.00102527
0.000443064
0.00419526
0.00551008
0.00425701
0.00262346
6.4683e-05
5.4562e-05
5.71396e-05
0.00131443
0.00383461
0.000465802
0.00214785
0.00102078
0.00226405
0.00034191
0.000246148
0.00279614
0.000902445
0.000438892
0.00200424
0.000434322
0.00270798
0.000470619
0.00284652
0.00415783
7.22159e-05
0.000468971
0.00123938
0.000466368
0.00137786
0.00118392
0.000611054
0.00503933
0.00132945
4.516e-05
4.59448e-05
0.0013348
0.000188315
5.77397e-05
0.000293209
0.000146372
0.000372325
0.000185278
0.000466583
0.00046573
0.00125773
0.00058003
0.00154027
4.75461e-05
0.00125002
0.000667099
0.000145734
0.00140839
4.64479e-05
4.61416e-05
0.000451485
0.000390704
0.00163776
4.51547e-05
0.00557191
0.000386136
0.000424803
0.000942756
0.000473493
0.0017217
0.00335512
0.00144647
0.000296989
0.0012409
0.00479781
0.00458038
0.00552671
0.000193202
0.00124539
0.00123249
0.000462994
0.0040565
4.92398e-05
0.00113748
0.00123982
8.23518e-05
0.00440594
0.00201268
0.00141114
0.000231963
0.000452339
0.00113668
0.00133043
0.00124134
0.00125779
0.000191806
0.00123737
0.00125247
0.00210829
0.0012426
0.00125689
0.0012647
0.00123927
0.00726098
0.0012417
0.00171498
0.000712212
0.000464093
0.0012421
0.000506685
0.00221495
4.58986e-05
5.33872e-05
0.00158592
0.00136354
0.00129022
0.00124075
0.00126773
0.00607224
0.00196506
4.12637e-05
0.00124155
0.00488116
0.000377436
0.00127535
0.00229362
0.000109932
0.000279535
0.00126196
0.00144608
0.000709307
0.00185362
0.00135241
0.00124124
0.00138839
0.00117855
0.00490431
0.000103029
0.000452196
0.000133754
0.00142039
0.000545161
0.000453675
0.00133363
0.00125163
0.00170224
0.000944599
0.00163038
0.00126232
0.000461253
0.000340993
0.000583515
0.00124856
0.00405601
0.000476555
0.00363538
0.00126204
0.00110511
0.00184954
0.000404871
0.000451724
0.00136951
0.00137901
0.00124392
0.0029564
0.00133104
0.00181436
0.00232386
0.000834227
0.00212738
0.00386024
0.000166461
0.00133022
0.00139343
6.83818e-05
0.000419171
0.0012408
0.00125217
0.00124171
0.00123059
0.00582052
0.000444576
0.000126548
0.000489055
0.000513823
0.0012573
0.000183881
0.000463641
0.00124031
0.00124676
0.000448048
0.00125084
0.00269347
0.0012995
0.0004536
0.00124115
0.00193381
0.00425376
0.00496572
0.000445772
0.00455557
0.0012394
0.00120191
0.00109418
0.00114404
0.00246389
0.000300129
4.05182e-05
0.00189632
0.000446639
0.00185485
0.00092049
0.00132201
0.000423987
0.00130734
0.00123972
0.00192093
0.000446023
5.40684e-05
0.00217176
0.00192079
0.000625726
0.0016185
4.77986e-05
0.000425885
0.00434834
0.000512819
0.00330726
0.00472878
0.00238106
0.00126515
0.00121732
0.00157897
0.000595739
0.000498366
5.87957e-05
0.00358393
0.000286599
9.50801e-05
0.00124297
0.0017354
0.00126464
0.000422867
0.00124019
0.000340405
0.000822581
0.000251962
0.000207792
0.000467819
0.00241289
0.00441614
0.000100738
5.0595e-05
0.00133621
0.00301537
0.00117636
0.00406461
0.000917141
0.000313788
0.00134269
0.00410561
0.000168299
0.00100451
0.00114148
0.000461196
0.000235846
0.00115673
0.000461531
0.000323777
0.00127342
0.00314895
0.000406904
0.000680461
0.00130972
0.000201756
0.00179914
0.000440021
0.00123877
0.00088111
0.00329182
0.00124117
0.000613936
4.18492e-05
0.00117487
0.00141609
0.00182714
0.00412073
0.00137865
0.00127781
0.000466438
0.00124123
0.000307555
0.00141106
4.45974e-05
0.000100675
0.00180458
4.72933e-05
0.000749035
0.00116435
0.00153726
0.00127
0.00367641
0.00127788
0.000367702
0.000417242
0.00186873
0.00133756
0.00356848
0.0017098
0.00257088
0.00165998
0.00124013
0.00453669
0.00123918
0.00547392
0.000555397
0.0043568
0.000912277
0.000557747
0.00043224
0.00478745
0.00283292
0.000446028
6.85041e-05
0.00124135
0.00124137
0.00104101
0.000664049
0.00040079
0.00236941
0.00526681
0.00121311
0.0003414
0.00124094
0.00375495
0.000468413
0.00156389
0.00121441
0.000488014
0.000111554
0.000400887
0.00249049
0.00124211
0.00330201
0.00124293
0.00131804
0.00289843
0.000367774
0.00152308
0.00125341
0.00135124
0.00556893
0.000413671
0.000771586
0.00133663
0.000160185
0.00418841
0.00124511
0.000553597
8.03487e-05
0.000462282
0.00320951
0.00124056
0.00139681
0.0012248
0.000458842
0.0012511
0.000658976
0.000985359
0.00118878
0.00175282
0.000388317
0.00136164
0.000909025
0.00108087
0.00134096
0.000654393
0.00480539
0.00334275
0.00124004
0.00124138
0.00153186
0.000460877
0.000466963
0.000457087
0.0015641
0.000670263
0.00395484
0.0011137
0.000444983
0.00139137
0.00210759
0.000319718
0.00123973
0.00204296
0.000292861
0.000285127
0.00120585
0.00124609
6.86458e-05
0.000197429
0.00127166
0.00376252
0.000759192
0.000407819
0.00125104
3.57229e-05
0.000593828
0.000676474
0.00160852
0.000963233
0.000768827
0.00134844
0.00122626
0.000432258
0.000131388
0.00126073
0.00124186
0.0013532
0.00109489
0.00154336
0.00123993
0.00208102
0.00124132
0.00110408
0.000486901
0.00475494
0.00124952
0.00139872
0.000458489
0.000368337
0.00193635
0.000206256
0.00703343
0.000674213
0.00131154
0.00124095
0.00297432
0.00133924
0.000242888
0.00145859
0.00173098
0.00232296
0.00223342
0.000132912
0.00124015
0.000649674
0.00109179
0.000441715
0.00128784
0.00485284
0.000376265
0.000318802
0.00181443
0.00492793
0.00148948
0.000465599
0.00228249
0.000457646
0.0012408
0.00193322
0.00121317
0.00124004
0.000111738
0.00124134
4.69573e-05
0.00225294
0.00104406
0.00127723
0.00103496
0.000425541
0.00178026
0.00142735
0.00121491
0.00575947
0.00217396
0.00274078
0.00496871
0.00152185
0.00124042
0.0012415
0.000455831
0.0052868
5.90666e-05
0.000511472
0.00128042
4.65224e-05
4.12336e-05
4.50193e-05
0.00295889
0.000640076
3.81964e-05
0.00124129
0.000132708
0.000124371
0.000458913
0.0012423
0.00233691
0.00138979
0.000120013
0.00124406
0.00159607
0.00124056
0.00507668
0.00217625
0.00132282
0.000435139
0.00123982
0.00422124
0.000413037
0.00124246
0.00141614
0.00124069
0.00137896
0.00300733
0.0012444
0.0010636
0.00229116
0.000450337
0.00124017
0.000992437
0.00124174
0.000548254
0.00264999
0.0033299
0.00046361
0.00265703
0.00154664
0.00125957
0.000155575
0.000921542
0.00108778
5.26597e-05
0.000448073
0.00123933
0.000137753
0.000554977
0.000666209
0.000944015
0.00114172
0.00134144
0.000459198
0.00422077
0.00115078
0.00344637
0.00142063
0.00316467
0.00013193
0.000707808
0.00107128
0.000153339
0.000396969
0.00136393
0.00181125
0.00123612
0.000560169
0.000923226
0.0011274
0.00401258
0.00171893
0.000305215
0.00019847
0.00420112
0.000163402
0.00124828
5.18497e-05
0.0015326
0.00127757
0.0014119
0.00105835
0.000918691
0.00576761
0.00129464
0.00316132
0.00261379
0.001315
0.00282408
0.0026725
0.00124194
0.00143036
0.00464091
4.40352e-05
0.000456486
4.49162e-05
0.000630155
0.00186311
0.000999018
0.00124065
0.00124147
0.000423442
0.00627916
0.00109654
0.00150706
0.00124119
0.00154412
0.00236421
0.00486762
0.00130991
0.00154673
0.00138021
0.00186464
0.00128496
0.00522204
0.000383023
0.000476988
0.00124067
0.000529568
0.00139827
0.00165348
0.00210598
4.83013e-05
0.00357677
0.00188275
0.000661949
0.00389263
0.00240797
0.00361928
0.00551824
0.00121854
3.97578e-05
0.00124127
0.00123238
0.000452626
0.00269427
0.00271425
0.00105502
0.000439868
0.00124144
0.00124522
0.00140743
0.00013893
0.00131156
0.00124103
0.00126009
0.00266185
0.000464969
0.00137454
5.27987e-05
0.00109187
0.00163614
0.000378604
0.00125467
0.00124419
0.000132432
0.000388778
0.000161989
0.00124399
0.0012397
0.00105457
0.00154916
0.00229227
0.0011908
0.00124327
0.00416303
0.00126234
0.00177988
0.00298049
0.00528431
0.00217244
0.00130184
0.000449261