/*--------------------------------*- C++ -*----------------------------------*\
| =========                 |                                                 |
| \\      /  F ield         | OpenFOAM: The Open Source CFD Toolbox           |
|  \\    /   O peration     | Version:  2.3.1                                 |
|   \\  /    A nd           | Web:      www.OpenFOAM.org                      |
|    \\/     M anipulation  |                                                 |
\*---------------------------------------------------------------------------*/
FoamFile
{
    version     2.0;
    format      ascii;
    class       volScalarField;
    location    "0.18";
    object      p;
}
// * * * * * * * * * * * * * * * * * * * * * * * * * * * * * * * * * * * * * //

dimensions      [0 2 -2 0 0 0 0];

internalField   nonuniform List<scalar> 
15166
(
-15.8392
-20.9474
-23.7553
-25.9934
-27.8908
-29.5038
-30.9477
-32.213
-33.3064
-34.1215
-34.8695
-35.4494
-20.6439
-23.2005
-24.579
-26.2681
-27.8587
-29.2985
-30.6144
-31.802
-32.8413
-33.6789
-34.4266
-35.0273
-25.9218
-26.8248
-27.0999
-28.0484
-29.0573
-30.0836
-31.0925
-32.0333
-32.8904
-33.624
-34.2762
-34.8203
-28.9539
-29.3717
-29.3619
-29.931
-30.5285
-31.2047
-31.9168
-32.6119
-33.2696
-33.8556
-34.3821
-34.818
-30.8599
-31.1174
-31.0877
-31.4942
-31.8747
-32.3346
-32.8346
-33.3381
-33.8272
-34.2753
-34.6848
-35.0401
-32.5403
-32.6606
-32.5992
-32.879
-33.117
-33.4304
-33.7766
-34.1318
-34.4831
-34.8113
-35.1138
-35.382
-34.1613
-34.1602
-34.049
-34.206
-34.3242
-34.5154
-34.7339
-34.9651
-35.1982
-35.4184
-35.6194
-35.7881
-35.6626
-35.5726
-35.4236
-35.4786
-35.4985
-35.585
-35.6945
-35.8191
-35.9496
-36.0747
-36.188
-36.2797
-37.0264
-36.8693
-36.697
-36.6739
-36.6186
-36.6203
-36.64
-36.6751
-36.7181
-36.7612
-36.7987
-36.8217
-38.2732
-38.0621
-37.8743
-37.7901
-37.677
-37.6107
-37.5574
-37.5184
-37.488
-37.4604
-37.4297
-37.3877
-39.4256
-39.1705
-38.9707
-38.8363
-38.6771
-38.555
-38.4417
-38.3409
-38.2483
-38.1606
-38.0727
-37.9663
-40.5009
-40.2081
-39.9982
-39.8213
-39.6238
-39.4549
-39.2914
-39.1385
-38.9931
-38.854
-38.7204
-38.5808
-41.5066
-41.1823
-40.964
-40.7507
-40.5212
-40.3123
-40.1063
-39.9089
-39.718
-39.5331
-39.3551
-39.1835
-42.4504
-42.0988
-41.8734
-41.6291
-41.3724
-41.1294
-40.8868
-40.6505
-40.4188
-40.1902
-39.9561
-39.7042
-43.3389
-42.9635
-42.732
-42.4605
-42.1805
-41.9082
-41.6344
-41.3651
-41.0997
-40.8409
-40.5912
-40.3309
-44.1771
-43.781
-43.5439
-43.2489
-42.9489
-42.6513
-42.3509
-42.0534
-41.7588
-41.4693
-41.1897
-40.9167
-44.9694
-44.5555
-44.3134
-43.9976
-43.6801
-43.3603
-43.0366
-42.7142
-42.3938
-42.0767
-41.7659
-41.4675
-45.7209
-45.2904
-45.0433
-44.709
-44.376
-44.0367
-43.6926
-43.3485
-43.0059
-42.6661
-42.3305
-42.0054
-46.4334
-45.9884
-45.7368
-45.386
-45.0394
-44.6828
-44.3206
-43.9573
-43.595
-43.2359
-42.8816
-42.5353
-47.1103
-46.6522
-46.3963
-46.0306
-45.6716
-45.2995
-44.9212
-44.5407
-44.1606
-43.7835
-43.4126
-43.0551
-47.7538
-47.2838
-47.0237
-46.6447
-46.2746
-45.8885
-45.4956
-45.0994
-44.7027
-44.3079
-43.9179
-43.5437
-48.3655
-47.8851
-47.6213
-47.23
-46.8497
-46.451
-46.0449
-45.6343
-45.2223
-44.8109
-44.3995
-43.9967
-48.9506
-48.4588
-48.1908
-47.7881
-47.3987
-46.9885
-46.5705
-46.1473
-45.7224
-45.2986
-44.8769
-44.4632
-49.5066
-49.0045
-48.7332
-48.3205
-47.9226
-47.5021
-47.0735
-46.6392
-46.2028
-45.7673
-45.3328
-44.9008
-50.03
-49.523
-49.2495
-48.8277
-48.4223
-47.9926
-47.5546
-47.1101
-46.6632
-46.2168
-45.7722
-45.3279
-50.5348
-50.0188
-49.7416
-49.3112
-48.899
-48.4609
-48.0143
-47.5607
-47.1041
-46.6479
-46.193
-45.7369
-51.0148
-50.4907
-50.2109
-49.7724
-49.3538
-48.9079
-48.4534
-47.9914
-47.5263
-47.0619
-46.601
-46.1381
-51.472
-50.9396
-50.6573
-50.2115
-49.7871
-49.3341
-48.8723
-48.4025
-47.9293
-47.4556
-46.9842
-46.5161
-51.9021
-51.3658
-51.0821
-50.6294
-50.1996
-49.74
-49.2716
-48.7947
-48.3139
-47.832
-47.35
-46.864
-52.3127
-51.7708
-51.4859
-51.0267
-50.5922
-50.1267
-49.6521
-49.1687
-48.6814
-48.1932
-47.7067
-47.2142
-52.7024
-52.1586
-51.8701
-51.4046
-50.9655
-50.4945
-50.0143
-49.525
-49.0317
-48.5373
-48.0447
-47.546
-53.0765
-52.5272
-52.2353
-51.7636
-51.3202
-50.8438
-50.3585
-49.8638
-49.3649
-48.8647
-48.3675
-47.8666
-53.4208
-52.8732
-52.5799
-52.1031
-51.6559
-51.1749
-50.6849
-50.1854
-49.6811
-49.175
-48.6701
-48.1619
-53.7542
-53.202
-52.9054
-52.424
-51.9735
-51.4883
-50.9941
-50.4901
-49.9814
-49.471
-48.9626
-48.4535
-54.0682
-53.5115
-53.2133
-52.727
-52.2732
-51.7842
-51.2862
-50.7783
-50.2659
-49.7518
-49.2393
-48.7255
-54.3593
-53.802
-53.5029
-53.0123
-52.5557
-52.0629
-51.5612
-51.0497
-50.5338
-50.0167
-49.5032
-48.9901
-54.6344
-54.0748
-53.7752
-53.2799
-52.8205
-52.3244
-51.8193
-51.3041
-50.784
-50.2618
-49.7415
-49.227
-54.8975
-54.3316
-54.0309
-53.5306
-53.0686
-52.569
-52.0605
-51.5415
-51.0174
-50.4901
-49.9602
-49.4245
-55.1336
-54.5688
-54.2692
-53.7641
-53.2999
-52.7973
-52.2858
-51.7635
-51.236
-50.7055
-50.1713
-49.6126
-55.3616
-54.7904
-54.4911
-53.9805
-53.5147
-53.0094
-52.4956
-51.971
-51.4416
-50.9118
-50.3904
-49.8637
-55.5665
-54.994
-54.6958
-54.1801
-53.7132
-53.2056
-52.6896
-52.1628
-51.6306
-51.0949
-50.5596
-50.0252
-55.7561
-55.1839
-54.8826
-54.3626
-53.8955
-53.3858
-52.8677
-52.3386
-51.8042
-51.2668
-50.7304
-50.1881
-55.9343
-55.3585
-55.0535
-54.5295
-54.0622
-53.5502
-53.0304
-52.4994
-51.963
-51.424
-50.8858
-50.3385
-56.0871
-55.5151
-55.21
-54.6797
-54.2136
-53.6996
-53.1781
-52.6452
-52.107
-51.5662
-51.0279
-50.4863
-56.2319
-55.6568
-55.3497
-54.8151
-54.3503
-53.8338
-53.3107
-52.7761
-52.2361
-51.693
-51.1509
-50.6049
-56.354
-55.7802
-55.4714
-54.9363
-54.4732
-53.9529
-53.4282
-52.8921
-52.3508
-51.8067
-51.266
-50.7314
-56.4625
-55.8892
-55.5775
-55.0428
-54.5803
-54.0558
-53.5305
-52.9932
-52.4503
-51.9039
-51.3571
-50.812
-56.5536
-55.9842
-55.6651
-55.1383
-54.6679
-54.1435
-53.6182
-53.0794
-52.5355
-51.9885
-51.4426
-50.9057
-56.6327
-56.064
-55.7391
-55.2175
-54.7409
-54.2179
-53.6912
-53.1514
-52.6063
-52.0581
-51.509
-50.963
-56.6954
-56.1292
-55.7986
-55.279
-54.8003
-54.2777
-53.7497
-53.209
-52.663
-52.1141
-51.5659
-51.0271
-56.7386
-56.1762
-55.844
-55.3253
-54.845
-54.3224
-53.7935
-53.2521
-52.7051
-52.1544
-51.6009
-51.0475
-56.7709
-56.2091
-55.8752
-55.3571
-54.8755
-54.3529
-53.8234
-53.2816
-52.7341
-52.1828
-51.6286
-51.0661
-56.7868
-56.2264
-55.8915
-55.3736
-54.8913
-54.369
-53.8394
-53.2979
-52.751
-52.2018
-51.655
-51.1068
-56.7838
-56.2284
-55.8927
-55.3755
-54.8927
-54.3707
-53.8412
-53.3
-52.7534
-52.2039
-51.6553
-51.1023
-56.7693
-56.2167
-55.8794
-55.3627
-54.8797
-54.358
-53.8286
-53.2875
-52.7407
-52.1904
-51.6414
-51.0946
-56.7391
-56.1899
-55.8513
-55.3354
-54.8522
-54.331
-53.8018
-53.2609
-52.7141
-52.1635
-51.6119
-51.059
-56.6988
-56.1478
-55.8086
-55.2935
-54.8104
-54.2898
-53.761
-53.2208
-52.6748
-52.1253
-51.5762
-51.0326
-56.634
-56.0908
-55.7512
-55.2372
-54.7542
-54.2344
-53.7065
-53.1673
-52.6223
-52.0736
-51.5228
-50.9646
-56.5638
-56.0189
-55.679
-55.1663
-54.6838
-54.1649
-53.6379
-53.0999
-52.5566
-52.0113
-51.4718
-50.9474
-56.4725
-55.9316
-55.592
-55.0805
-54.5986
-54.0809
-53.5549
-53.0179
-52.4753
-51.9291
-51.3819
-50.8428
-56.3672
-55.8301
-55.4907
-54.9807
-54.4994
-53.9825
-53.4572
-52.9208
-52.3785
-51.8322
-51.2833
-50.7365
-56.2519
-55.7166
-55.376
-54.867
-54.3863
-53.8703
-53.3459
-52.8102
-52.2685
-51.7231
-51.1749
-50.6199
-56.1211
-55.5867
-55.2466
-54.7388
-54.259
-53.7443
-53.2211
-52.687
-52.1469
-51.6037
-51.0615
-50.5239
-55.9711
-55.4412
-55.1022
-54.5964
-54.1176
-53.6045
-53.0829
-52.5504
-52.012
-51.4698
-50.9256
-50.3778
-55.8093
-55.2817
-54.9434
-54.4395
-53.9621
-53.4508
-52.9309
-52.4005
-51.8641
-51.3247
-50.7861
-50.2507
-55.6309
-55.1079
-54.7706
-54.2686
-53.7927
-53.2832
-52.7652
-52.2367
-51.7024
-51.1649
-50.6264
-50.0856
-55.4397
-54.9211
-54.5839
-54.0838
-53.6094
-53.1016
-52.5856
-52.0592
-51.5269
-50.992
-50.4587
-49.9338
-55.2405
-54.72
-54.3829
-53.8847
-53.4118
-52.906
-52.3918
-51.8676
-51.3373
-50.8034
-50.2679
-49.7345
-55.0135
-54.5012
-54.1664
-53.6712
-53.2001
-52.6965
-52.1845
-51.6624
-51.1345
-50.6034
-50.0732
-49.5585
-54.7779
-54.2695
-53.9362
-53.4432
-52.9742
-52.4728
-51.9632
-51.4433
-50.9179
-50.3889
-49.8579
-49.3355
-54.5302
-54.0254
-53.6923
-53.2019
-52.7345
-52.2354
-51.7282
-51.2107
-50.6878
-50.1615
-49.6349
-49.1287
-54.2684
-53.7655
-53.4341
-52.9464
-52.4812
-51.9842
-51.4792
-50.9643
-50.4436
-49.9191
-49.3907
-48.8688
-53.9926
-53.4931
-53.1618
-52.6765
-52.2136
-51.7193
-51.2168
-50.7045
-50.1862
-49.6645
-49.1393
-48.6211
-53.6949
-53.2027
-52.8748
-52.3931
-51.9325
-51.441
-50.9415
-50.4321
-49.9171
-49.3994
-48.8809
-48.3751
-53.3854
-52.8986
-52.5731
-52.0948
-51.6372
-51.1488
-50.6523
-50.1462
-49.6344
-49.1194
-48.6013
-48.0878
-53.0703
-52.5854
-52.2596
-51.7837
-51.3283
-50.843
-50.3496
-49.8468
-49.3385
-48.8275
-48.3166
-47.8213
-52.7353
-52.2551
-51.9312
-51.4588
-51.0062
-50.5236
-50.0335
-49.534
-49.0288
-48.5203
-48.0082
-47.5
-52.3861
-51.909
-51.5877
-51.1191
-50.6696
-50.1904
-49.7035
-49.2076
-48.7062
-48.2021
-47.6975
-47.209
-52.0214
-51.55
-51.2305
-50.7653
-50.3189
-49.8432
-49.36
-48.8677
-48.3701
-47.8699
-47.3667
-46.8669
-51.6384
-51.1745
-50.8582
-50.3973
-49.9542
-49.4822
-49.0026
-48.514
-48.0208
-47.5251
-47.0309
-46.5551
-51.2463
-50.7867
-50.4724
-50.0156
-49.5757
-49.1074
-48.6316
-48.1466
-47.6568
-47.1636
-46.667
-46.1836
-50.8413
-50.3857
-50.0735
-49.6204
-49.1839
-48.7192
-48.2469
-47.7656
-47.2791
-46.7888
-46.2929
-45.7989
-50.4206
-49.9697
-49.6596
-49.211
-48.7781
-48.3176
-47.8492
-47.3724
-46.8907
-46.4064
-45.9204
-45.439
-49.9842
-49.5389
-49.2316
-48.7876
-48.3586
-47.9024
-47.4387
-46.9669
-46.4906
-46.0127
-45.5368
-45.0779
-49.5326
-49.0934
-48.7893
-48.35
-47.9252
-47.4734
-47.0142
-46.5472
-46.0752
-45.6003
-45.1225
-44.6513
-49.0654
-48.6343
-48.3335
-47.8989
-47.4781
-47.0306
-46.5758
-46.1134
-45.6461
-45.1762
-44.7059
-44.256
-48.5927
-48.1633
-47.864
-47.4343
-47.0173
-46.5743
-46.1242
-45.6664
-45.2039
-44.7382
-44.2682
-43.798
-48.0997
-47.6764
-47.3801
-46.9556
-46.5428
-46.1047
-45.6594
-45.2067
-44.7497
-44.2909
-43.8336
-43.3946
-47.5906
-47.1739
-46.8813
-46.4621
-46.0544
-45.6213
-45.1814
-44.7341
-44.2823
-43.8291
-43.3766
-42.9491
-47.0674
-46.6578
-46.3691
-45.9554
-45.5523
-45.1243
-44.6896
-44.2475
-43.8006
-43.3513
-42.9002
-42.475
-46.5313
-46.1276
-45.8423
-45.4342
-45.0361
-44.6136
-44.1842
-43.7472
-43.3055
-42.8603
-42.4071
-41.9564
-45.9816
-45.5839
-45.3024
-44.9001
-44.507
-44.09
-43.6665
-43.2358
-42.8016
-42.367
-41.9353
-41.5406
-45.4189
-45.0281
-44.7492
-44.3526
-43.9645
-43.5532
-43.1357
-42.7113
-42.2837
-41.8546
-41.4211
-41.0003
-44.8435
-44.4565
-44.1816
-43.7911
-43.4084
-43.003
-42.5911
-42.1728
-41.7511
-41.3273
-40.9009
-40.4977
-44.2469
-43.87
-43.5998
-43.2156
-42.8383
-42.4389
-42.033
-41.6212
-41.2057
-40.7885
-40.3674
-39.9525
-43.645
-43.2715
-43.004
-42.6258
-42.2546
-41.8613
-41.462
-41.0569
-40.6486
-40.2397
-39.8322
-39.4501
-43.0273
-42.6591
-42.395
-42.0229
-41.6573
-41.2704
-40.8777
-40.4795
-40.0776
-39.6744
-39.2667
-38.8624
-42.3846
-42.0276
-41.7701
-41.4055
-41.0463
-40.6663
-40.2801
-39.8889
-39.4944
-39.0991
-38.7041
-38.333
-41.7395
-41.3873
-41.1324
-40.7744
-40.4216
-40.0486
-39.6696
-39.2855
-38.8989
-38.5112
-38.1209
-37.7357
-41.0763
-40.7317
-40.4814
-40.1303
-39.7843
-39.4181
-39.0464
-38.6699
-38.291
-37.9119
-37.5357
-37.1857
-40.4021
-40.0626
-39.8163
-39.4722
-39.1328
-38.7742
-38.4098
-38.041
-37.6696
-37.2963
-36.9191
-36.5551
-39.7082
-39.3778
-39.137
-38.8008
-38.4684
-38.1172
-37.7605
-37.3995
-37.036
-36.6717
-36.3038
-35.9453
-39.0024
-38.6799
-38.4444
-38.1161
-37.7908
-37.4476
-37.0994
-36.7469
-36.3928
-36.0398
-35.6893
-35.3552
-38.2887
-37.9708
-37.7392
-37.4185
-37.1005
-36.7653
-36.4255
-36.0818
-35.7367
-35.3921
-35.0489
-34.7279
-37.5571
-37.2479
-37.0212
-36.7077
-36.3974
-36.0702
-35.7386
-35.4034
-35.0667
-34.7294
-34.3892
-34.0586
-36.8135
-36.5106
-36.2891
-35.984
-35.6814
-35.3627
-35.0392
-34.7132
-34.3862
-34.0599
-33.7358
-33.4393
-36.0539
-35.7601
-35.5437
-35.2469
-34.9523
-34.6424
-34.3281
-34.0113
-33.6935
-33.3759
-33.0552
-32.7407
-35.2848
-34.997
-34.785
-34.4968
-34.2107
-33.9098
-33.6053
-33.2983
-32.9903
-32.6831
-32.3756
-32.0827
-34.5015
-34.2198
-34.0139
-33.7346
-33.4569
-33.1655
-32.8708
-32.5745
-32.2777
-31.9828
-31.6907
-31.4197
-33.7015
-33.4296
-33.2295
-32.9591
-32.6905
-32.4094
-32.1249
-31.8391
-31.5532
-31.2687
-30.9827
-30.7038
-32.8918
-32.627
-32.4329
-32.1718
-31.9126
-31.6416
-31.3681
-31.0931
-30.8188
-30.5465
-30.2771
-30.0302
-32.0677
-31.8117
-31.624
-31.3723
-31.1225
-30.8621
-30.5998
-30.3366
-30.0746
-29.8142
-29.5524
-29.3055
-31.2369
-30.987
-30.8042
-30.5619
-30.3215
-30.0718
-29.8209
-29.57
-29.3212
-29.0762
-28.8344
-28.6258
-30.3923
-30.1497
-29.9719
-29.7394
-29.5091
-29.2708
-29.031
-28.792
-28.5556
-28.3235
-28.0941
-27.8754
-29.5328
-29.2997
-29.1294
-28.9065
-28.6862
-28.4587
-28.2307
-28.003
-27.7772
-27.5531
-27.3269
-27.1019
-28.6691
-28.44
-28.2747
-28.0619
-27.8521
-27.6363
-27.4207
-27.2059
-26.9933
-26.784
-26.5795
-26.4025
-27.7867
-27.5675
-27.4098
-27.2078
-27.0088
-26.8053
-26.6028
-26.4021
-26.2041
-26.0093
-25.8146
-25.6258
-26.8978
-26.6862
-26.5346
-26.3433
-26.1561
-25.9661
-25.7776
-25.5919
-25.4093
-25.2313
-25.0577
-24.9067
-25.9983
-25.7966
-25.6517
-25.4709
-25.2953
-25.1184
-24.9444
-24.7745
-24.609
-24.4478
-24.2892
-24.1486
-25.0955
-24.8982
-24.7592
-24.5895
-24.4266
-24.2638
-24.1049
-23.9506
-23.8022
-23.6596
-23.5222
-23.4187
-24.1809
-23.9908
-23.8591
-23.7005
-23.5499
-23.4016
-23.2586
-23.1206
-22.9882
-22.8618
-22.7379
-22.6175
-23.2546
-23.0744
-22.9505
-22.8043
-22.6669
-22.5337
-22.4067
-22.2856
-22.1699
-22.0588
-21.9486
-21.8411
-22.3265
-22.1536
-22.0361
-21.9019
-21.7789
-21.6616
-21.5522
-21.4503
-21.355
-21.2671
-21.1894
-21.149
-21.3942
-21.2268
-21.1167
-20.9949
-20.8865
-20.7865
-20.6959
-20.6141
-20.5399
-20.4718
-20.4057
-20.3487
-20.4523
-20.2938
-20.192
-20.0839
-19.9911
-19.9094
-19.8392
-19.7787
-19.7264
-19.6809
-19.64
-19.6288
-19.5089
-19.358
-19.2638
-19.1693
-19.0937
-19.0322
-18.9837
-18.9467
-18.9186
-18.8967
-18.8754
-18.8615
-18.5642
-18.4191
-18.3338
-18.2546
-18.1974
-18.158
-18.1337
-18.1224
-18.1212
-18.1274
-18.1374
-18.1618
-17.6142
-17.4773
-17.4017
-17.3394
-17.303
-17.2879
-17.2909
-17.3086
-17.3373
-17.3743
-17.4171
-17.4746
-16.6659
-16.5353
-16.4703
-16.427
-16.4142
-16.4268
-16.4601
-16.509
-16.5691
-16.6369
-16.7102
-16.8026
-15.7146
-15.5928
-15.5405
-15.5194
-15.5349
-15.5795
-15.6468
-15.7302
-15.8231
-15.9202
-16.0147
-16.1126
-14.7657
-14.6508
-14.6146
-14.6215
-14.6715
-14.7547
-14.8614
-14.9835
-15.1133
-15.2452
-15.3751
-15.5194
-13.8142
-13.7092
-13.696
-13.7415
-13.8369
-13.967
-14.1191
-14.2831
-14.4514
-14.6182
-14.7768
-14.9338
-12.8562
-12.7662
-12.7923
-12.8953
-13.0508
-13.2369
-13.4396
-13.648
-13.8549
-14.055
-14.2421
-14.4225
-11.8841
-11.829
-11.9285
-12.1196
-12.3529
-12.6025
-12.8549
-13.1022
-13.344
-13.5738
-13.7803
-13.9527
-10.874
-10.9713
-11.2291
-11.5551
-11.8735
-12.1729
-12.4625
-12.7381
-12.9998
-13.2601
-13.4752
-13.6722
-1.2731
9.63065
-10.3443
-19.2176
-19.8517
-6.93201
-4.51786
32.4896
-44.547
-39.1852
-34.0607
-14.5713
16.5211
-39.9196
1.40253
-6.62305
-39.9489
-30.0465
-29.4795
-6.36023
27.9156
26.2902
17.7691
-15.9693
-0.586973
-10.8848
24.3369
0.634241
-41.9541
-37.7977
-42.1011
30.4153
9.50701
-33.6959
16.7198
18.0631
33.3674
-30.7641
33.0744
-14.4855
2.35184
-1.89043
24.376
-0.396896
33.337
26.09
18.9742
19.7961
33.2683
27.9022
18.7739
32.3044
30.8752
1.52872
-35.8504
9.33963
12.7193
-2.26499
-31.512
0.928874
24.1415
29.8408
1.57369
-3.68014
17.5446
9.63017
-13.9233
30.4345
15.7219
-38.6455
-35.9474
13.914
32.9768
-13.3908
-15.3501
2.64488
-44.0871
-1.61214
10.0343
28.7602
2.9882
-1.86172
33.6412
32.4762
2.14234
-43.6869
-13.9252
0.964152
-38.996
33.4435
27.6177
-41.1117
-0.167991
7.7728
34.1218
-4.09336
0.536449
-1.86606
-0.576335
-13.4268
-16.2769
14.6258
5.5587
8.83849
-1.63557
33.7372
1.94917
32.9721
-13.7346
0.415563
17.4455
-1.98878
30.4382
-7.57867
1.72238
15.7116
-19.6259
-6.19945
-45.0422
-32.764
-10.8311
-21.0684
-41.1355
15.4456
-18.0469
-39.0977
-1.86763
10.9292
19.0092
1.07446
31.5148
1.43915
21.4354
8.7791
23.5018
10.6802
33.9101
-38.6746
31.4258
10.2777
-18.7916
28.4337
27.0881
0.588555
30.8269
-36.055
31.5995
-10.4648
-47.4841
3.52768
0.37841
16.6823
-1.60434
5.04729
22.1537
3.24935
31.7148
-1.29754
-40.885
-14.3395
-21.7043
-6.20314
-29.9018
-14.8886
24.1121
26.117
31.0675
34.183
11.0062
1.51223
-37.0893
-18.1383
-35.8225
-18.9056
-1.06
-41.0216
1.98772
32.3071
25.1544
-36.9282
30.5473
-31.2579
-7.5258
33.2755
6.2912
31.2878
3.52071
-1.63097
31.7001
1.65753
-39.7939
-1.6676
31.5085
-5.80818
31.89
8.17163
26.5725
30.2022
2.41055
-59.545
-47.0384
32.3307
34.144
30.993
32.7694
14.1178
-7.9409
-35.8649
-13.9285
-15.9132
4.52546
-46.6493
33.2153
34.0849
1.9713
31.1195
-11.0744
-13.1809
-61.5624
30.4814
32.3572
-47.3089
33.4633
-3.14578
-3.16758
-38.7046
-44.1049
-1.97909
-54.7806
19.6919
33.4255
-17.0395
-2.21838
-13.0964
-13.4215
27.3721
31.0384
-46.7812
-1.79886
32.7612
-32.9481
19.4439
-39.2153
-44.527
32.4431
2.68631
19.9191
5.99305
-41.0301
31.2781
-39.3984
-13.519
-39.9621
-69.6161
28.1797
-31.5147
0.100697
32.5326
-41.6093
33.2928
-15.218
27.0625
17.1928
-8.57297
-14.5798
27.5483
-46.3354
32.4979
-3.68419
5.17219
0.18884
18.5339
-44.4877
32.9959
32.7916
-43.5845
21.8589
34.2099
34.1293
32.5761
32.264
23.3478
33.5882
33.1001
-25.5094
27.0949
-32.9851
33.1277
-49.6697
29.306
32.5591
-41.4507
34.7749
34.772
30.3984
31.6156
27.9281
30.6112
23.7976
34.0439
29.0252
-0.719395
-10.7336
-36.3948
22.3158
-45.963
34.3581
1.58747
14.4284
16.6171
-27.0963
34.5374
3.46177
-50.4616
32.4171
24.0771
34.718
-31.4816
2.04309
27.3184
21.7822
-41.2194
-15.37
69.4204
34.0616
-30.8372
-26.2088
-2.23468
2.61433
34.571
-4.08838
0.708499
-41.2712
-2.18924
2.67674
4.26525
-1.63574
14.9981
2.18758
6.52919
-0.147253
32.803
0.175935
29.0808
12.7328
31.4969
33.3142
-41.3119
-58.9889
-12.735
-0.181294
-3.96919
13.8469
25.9439
34.6346
-1.12833
-25.151
33.4351
-45.8925
-39.577
30.0118
33.5946
-48.6362
-59.6036
21.2507
-21.6182
-3.11462
0.377125
-1.52854
0.914012
-29.1941
30.1754
33.8082
-34.7015
-40.8374
28.6554
33.0487
-47.8238
3.58379
-35.6393
-11.2336
-10.9112
-1.3451
32.936
-65.2227
27.6185
-0.837443
21.4099
28.5572
19.5615
3.53215
-37.2416
-35.5077
30.7048
30.2351
-2.95558
-54.1247
-2.72007
-33.6052
-26.8325
13.0262
-14.1997
-13.0733
14.0056
-41.9153
30.3963
-48.2529
-41.0386
31.2417
33.0405
-2.13662
-0.795368
1.59291
-48.9323
12.7153
28.3183
-60.756
30.2119
30.3083
3.44027
0.303809
30.5836
1.72938
-2.90641
32.2407
0.618094
-21.5899
-46.9853
33.7941
0.597712
-13.8047
-11.1976
-30.9778
29.3764
-31.9981
1.99775
-40.1385
-37.3454
28.4056
-6.53506
34.4294
33.0802
12.8367
31.9819
8.47323
-14.4961
-6.68964
31.7749
26.9337
2.15998
-36.5384
29.6637
33.1237
10.7133
-41.4555
28.0748
9.62615
34.6535
34.0443
-31.5548
28.1644
-10.004
22.571
-4.24837
-49.5586
-28.1759
2.31279
29.228
22.8346
32.996
-25.7263
33.3779
18.6082
0.85487
-36.831
-46.509
30.7578
2.02462
31.8073
-13.2005
0.172274
33.2155
33.1803
-23.1562
-20.526
30.1271
33.9067
-6.10647
-19.0069
-42.7891
-21.8421
1.01142
31.9496
-56.054
-16.7285
30.4794
-23.8745
-1.01724
32.9311
33.8121
-40.4519
30.8368
33.5207
2.48249
26.0412
34.2178
22.4892
-47.6873
31.0331
-36.6767
31.3266
-48.0296
-13.822
-36.2215
2.0384
-16.0788
31.3626
-37.6255
-14.0255
21.3962
15.6975
-12.5797
1.36411
31.4855
-0.628838
3.96116
-14.8507
33.5749
30.1744
-38.0699
34.7595
-15.6021
-17.5234
-36.2157
-2.08837
25.8782
-47.092
-35.0092
30.3061
-41.922
-7.55012
-17.3227
-21.4633
-46.7751
-42.9086
-1.75745
-25.9423
1.99015
19.5286
9.19111
13.7857
-17.4437
28.3983
33.4386
-29.6964
26.1322
28.5963
-14.0948
0.0639634
-0.0489035
16.0628
-13.5437
30.5875
-38.3764
-30.4845
-26.002
31.7187
0.511193
17.0268
27.6491
10.7888
-49.3442
24.3402
29.9108
30.2645
12.2843
0.472204
-8.9731
-2.59048
-35.9744
-35.1354
32.7516
-43.4397
4.27142
-45.0798
24.8958
32.6996
27.4842
-43.1168
0.065204
-32.0963
1.33561
28.1486
-13.5765
32.2006
-35.9669
-0.0976117
-45.393
-40.7632
33.2572
1.88481
-0.624704
-26.7682
-17.4022
11.588
11.3274
8.25361
-13.003
-6.31498
7.58063
29.6032
-28.8501
-33.5732
-1.7884
0.866614
-43.7179
34.0135
32.5976
33.3936
10.6286
29.1653
-6.81083
-30.752
25.6501
-1.73215
11.4288
29.7457
1.58532
14.2595
33.7597
-49.5122
-50.3329
3.41341
-13.2166
29.0809
-49.1505
19.0276
24.7758
31.8617
-2.03403
31.9038
29.3029
23.0928
-22.1506
-9.51425
-0.28825
-47.6322
-50.5067
32.0474
-59.0742
4.45317
2.78678
-45.1484
-31.076
10.3565
1.99543
-41.4208
-1.05236
-36.3256
31.4421
-30.4528
2.05583
-45.5405
0.0144232
32.7991
-36.8358
33.4815
17.0603
25.4416
-47.8102
-1.07519
18.4534
-47.6876
31.6817
-36.7147
-3.92128
-39.675
-17.9554
0.51681
2.38694
24.144
-15.1141
32.0937
4.08709
-25.203
34.1135
34.093
-37.7936
23.2784
-37.4755
33.6717
27.1683
32.9147
-2.10132
13.3793
-1.1498
1.54242
30.0893
2.16913
34.6892
-10.5849
-35.4633
1.50205
28.4589
33.9199
-36.0773
-5.32603
-26.7803
18.8806
-51.2086
-17.1396
-28.3028
-40.3989
-1.79789
0.890665
33.0521
20.6028
34.1004
29.3344
3.85181
34.6576
34.7389
32.7977
-36.296
-17.1307
32.7944
-0.470715
3.6893
-54.9244
33.2965
1.30222
14.9365
-37.4166
6.62651
-2.28959
-40.703
2.08746
-25.9794
-56.1653
6.32122
31.9926
-1.54693
22.7035
32.4828
1.45581
-8.54054
-1.21388
7.32722
-9.39232
-50.857
-32.1526
27.3686
29.3205
1.95344
-13.9623
-0.57021
-0.457527
-21.1947
14.6212
30.4919
16.2788
-42.9126
-2.78287
-107.402
-0.492924
-10.4224
32.4022
30.0078
-1.59517
31.6203
-18.0928
29.0575
-10.6613
-42.6216
-43.0927
31.1535
-24.3716
-15.0835
16.8786
7.99775
27.2122
-56.3356
-13.4651
28.906
0.098657
32.4771
-7.93992
-39.2657
-44.7588
-16.7156
-14.026
-43.0624
-23.5131
6.09198
34.2336
29.0958
-12.3309
7.50874
-3.23546
33.5666
-36.3558
-5.19011
-41.3775
-28.4685
25.597
24.1295
-47.6578
-11.0524
27.5039
-12.2688
-38.4083
-38.314
0.262983
-42.9376
-15.673
33.8653
32.2969
30.4773
0.137887
-10.5997
-2.79712
1.78442
2.4106
30.9626
23.105
20.4801
-36.8385
0.685984
-43.0658
14.9708
23.3267
1.99952
-37.5895
-4.19373
26.1515
-42.5163
23.5512
30.16
28.4521
-2.04288
25.8737
-37.1384
10.1362
13.9602
31.8351
-38.7299
27.7886
15.4607
-14.8677
-13.9832
26.8296
-26.1076
-28.923
30.8
0.469444
-50.1445
15.3679
12.4378
-9.04829
-56.7047
26.8228
-0.362174
1.22453
-45.0063
29.8653
-48.1948
1.4219
-36.3064
-37.8081
33.6175
6.51617
33.26
-30.0082
6.53635
29.2751
-1.96293
-49.9084
33.9662
33.903
34.4769
3.21298
2.02808
14.7956
-40.4663
-40.1439
-32.0748
0.321776
-14.2861
3.91045
12.6521
-38.5093
24.8381
27.503
27.9084
16.941
33.0171
32.46
-36.5533
0.0654821
34.1672
-32.3353
31.6221
1.19369
-40.9433
-4.22999
2.01314
4.52329
29.7475
-20.3864
-10.7186
26.3174
-53.1237
-4.57892
3.82775
15.9471
22.6399
-11.7665
27.4705
2.63692
-3.0387
-13.5106
13.8168
-13.0642
-40.8082
32.9927
-16.5105
22.0421
-35.4509
28.0126
30.1276
32.2381
-40.4805
31.6831
1.70247
32.2647
-10.4115
-2.26542
-41.3491
29.9338
20.6891
25.6561
-8.04259
-43.2419
-35.0269
-0.387897
34.0023
2.76342
32.9565
-31.5813
32.825
-1.99238
-45.1812
34.0758
-35.6042
32.7168
32.8609
-14.6424
-29.2511
23.24
0.850508
15.0261
34.7258
-1.30213
-47.7028
31.9063
-2.24695
-15.5228
10.6111
32.9448
33.567
-31.3123
31.3686
32.3577
-10.4937
31.3659
26.9433
30.5138
31.1175
1.72259
-1.54889
-38.9848
-5.97258
-37.6259
32.7751
-0.794275
-36.8982
32.8975
-2.19424
30.0175
24.7629
30.7002
30.9828
18.4855
-40.9312
-37.159
30.7258
-32.8628
-20.8608
25.8349
33.6364
-44.8475
-30.2091
-38.5881
-21.6034
-15.9412
28.49
-9.8832
-18.3011
-31.135
-0.380234
-39.6357
32.7695
12.7291
1.7445
-3.22638
-3.22202
31.4412
-2.04481
32.232
-0.10464
31.6714
-7.36854
3.36397
-45.9208
33.4472
1.91054
31.2126
33.6348
-25.1146
27.0321
-17.4754
32.1756
-1.58118
30.2735
21.4424
2.95656
10.2998
34.3419
30.8337
-0.156229
2.34581
33.4624
2.4086
28.5672
-30.8946
-31.4687
31.2128
-19.116
18.3006
-99.2383
-44.1307
33.4146
-52.148
-41.4011
2.33891
30.8377
-42.6901
-43.6507
2.49694
26.3709
-1.13469
-7.09667
30.5642
-10.5026
-16.8356
6.31282
-13.9492
-60.29
13.8211
-1.08489
24.6532
0.490075
10.4143
24.5281
-62.8529
24.5988
5.48762
-3.06031
-47.425
26.8108
4.78406
7.91187
27.4621
24.06
33.5309
34.5157
-15.0924
-1.32644
-13.7236
2.65772
39.0014
26.6774
-85.4865
29.4538
-29.4847
1.17008
-50.2676
-0.269828
2.77322
11.4997
30.5256
31.6233
-47.7197
2.66743
-17.0205
-1.83131
26.7621
-47.8201
0.993809
32.676
1.54944
1.15241
5.78356
15.9657
-13.3248
-40.1786
-21.7486
2.99905
-2.5482
31.0341
32.1387
31.9537
-44.5098
27.4861
31.0548
2.90456
11.3646
-35.0803
32.0127
-14.2918
13.9583
1.33115
33.9842
-1.98196
31.8686
31.8444
-7.67489
-11.6502
33.1153
-16.5096
21.7862
1.7068
-35.1836
-39.9154
32.8995
-2.81603
-17.7008
-35.3014
-22.3361
23.0385
-38.1531
1.99062
1.57997
0.374512
-19.3634
33.8388
-46.4279
0.371249
34.6748
-43.2314
29.2762
25.6712
-18.6707
13.9484
1.74901
20.5022
30.3912
31.1804
-0.971619
-39.6478
-2.26967
-16.6314
-17.1401
-44.0661
21.3472
-39.4606
-41.1328
8.84157
13.8633
2.42755
-1.5912
6.32476
-12.7221
-7.20269
1.00809
-43.2598
33.2937
-1.45197
31.3676
-33.5372
3.5568
1.93385
-60.6033
31.373
-35.1671
-19.8313
23.3715
30.2304
-26.8809
19.6973
-40.0122
32.8167
32.2047
34.5985
25.5022
33.6527
31.4918
-18.1161
33.4411
3.74625
33.1512
14.6004
28.2289
-22.8951
29.3061
-32.0923
11.4072
34.3365
21.9429
34.1205
33.2727
34.4099
-28.1688
-3.83203
8.50979
2.12944
-20.2393
-38.1252
1.96577
-43.4289
2.62832
15.2397
32.3999
30.8864
-43.2868
-22.1477
22.3457
-45.685
-7.27573
34.3744
-2.72293
32.2053
-48.8396
0.822252
-16.3111
-4.12824
20.8985
31.7388
30.399
25.3253
31.4358
-1.8095
20.7325
30.5014
-46.0546
6.04727
14.8239
29.2549
31.4067
-18.914
31.9626
-17.3085
-7.11039
-12.7136
1.26008
-8.76809
32.383
-40.703
32.9441
29.6708
-26.599
-29.4846
25.7161
1.50086
32.7524
1.29687
1.90552
-0.672569
15.4733
31.6584
28.5846
-37.9185
32.6668
32.1362
6.30308
3.51126
26.3714
26.5992
19.8202
32.7354
-21.9247
33.4501
-0.818139
33.5965
6.79588
7.30413
1.96497
-36.4373
-18.2887
28.7261
-26.38
-41.838
-45.5348
2.14038
-39.2339
34.328
33.7191
-0.254444
-9.59208
27.6983
32.6402
-34.5974
31.8088
-1.68888
-37.0128
3.11454
31.7674
-16.0858
30.8722
13.6634
-12.3744
-0.599016
44.5588
-0.828264
-44.3215
17.8444
3.32849
16.0713
30.6462
-1.32357
-0.537389
-1.90264
15.6892
32.8139
-25.519
-3.4157
31.5388
25.0616
33.9381
1.89063
34.3406
25.5209
27.34
-21.9589
33.5364
-15.604
34.6636
-11.0599
30.2946
31.7688
33.7332
-0.678486
25.962
32.4146
31.8288
7.61688
0.873007
31.3086
23.4687
1.76971
-4.7869
-50.2146
0.940763
-37.1871
-45.2143
32.5203
33.336
-27.3227
24.6802
-31.3447
-50.1932
-25.816
-13.4569
-35.9918
34.6119
28.2662
-1.41364
33.685
-5.53184
-0.751365
2.94428
0.0506634
1.93086
4.19853
-25.7109
-97.878
-30.4183
8.23404
-37.8233
29.0721
-3.61031
30.9108
27.9465
-21.0247
27.0772
-42.7081
34.497
24.6438
20.1014
-1.92415
2.26426
16.4213
21.0366
33.5374
32.7365
-43.3314
27.8592
30.8714
-8.84197
32.2665
33.2696
-1.06899
32.6507
-41.0402
4.07378
-18.5981
14.1872
-18.3897
32.7435
-31.4781
-16.4013
7.01203
-32.3477
5.30274
-10.3425
1.23863
-18.7562
-40.1347
-25.0158
-0.578027
-1.38718
25.1661
32.2894
-37.8029
31.1693
-24.4423
33.1298
32.01
2.13256
33.5047
-1.1978
-32.7787
27.8824
-31.2246
23.7763
-49.1751
-16.1105
33.3314
33.7325
-50.1817
32.1187
-14.5541
34.446
-37.9531
22.4623
-31.7007
33.7922
11.9578
4.40063
-41.0087
-32.14
1.75512
-0.0648682
-6.80165
-5.41557
34.221
-0.885816
32.6971
30.2072
31.457
-42.5565
2.94314
-33.7396
30.3533
34.0575
32.0618
32.7393
-41.8588
-4.93829
1.66116
3.51798
-28.2746
2.92884
33.2768
31.267
5.33116
-17.6915
-35.8597
33.8948
32.6695
1.91248
30.9726
-27.1113
8.66102
11.5597
34.0452
33.2001
-9.9254
26.1801
-1.37443
2.92006
34.4787
7.27756
-19.265
2.48806
32.5131
-9.67218
23.702
-49.5797
15.6395
-27.6334
-39.2507
5.70032
3.45376
-10.0006
0.852312
30.7063
33.3071
32.3444
-1.11699
22.3863
-27.9626
7.54906
-13.2592
-16.8788
-0.253454
2.15646
14.5905
-11.7309
0.790917
28.6007
4.05594
-45.2988
-5.95498
-7.40412
-22.6191
23.0433
13.7449
21.0768
-48.0457
12.2223
-1.83465
32.372
30.8375
-40.1226
0.0314883
34.6216
31.2109
-4.25604
32.0201
-27.9021
-26.1509
5.68855
26.4299
-9.35956
30.7529
-47.3596
-39.2333
11.149
-29.3757
-1.44361
33.4267
-1.77454
-21.6849
14.4275
30.9624
-27.5468
-38.2454
16.3934
-13.7223
-0.592539
-32.7802
-10.479
3.25763
-3.68976
33.9411
33.3832
25.1238
13.3326
29.2303
-6.25822
1.59383
2.40954
-40.261
-15.5633
-35.6025
26.1832
33.452
32.7237
-21.298
16.7446
2.81936
-1.17216
29.2725
-27.8935
-38.1134
-14.8629
4.13668
-15.8898
20.4246
34.1658
33.0985
-25.7206
34.2035
-40.5814
-0.640652
4.21309
-18.0636
33.5345
-40.9732
31.6659
34.4919
8.06662
-48.1936
-2.62416
31.2553
19.5055
19.6882
-1.54
21.1846
17.3232
-37.6598
-32.9583
-0.940102
32.0677
-3.13218
33.2955
-42.1338
-1.60833
21.1278
-0.325133
29.2934
-26.1744
26.8398
-1.58545
29.4567
33.6534
31.5373
-37.5763
19.8958
-35.8956
3.65144
-14.52
34.1917
-49.4214
-12.5526
-8.31673
-4.20827
33.5087
6.63794
-13.7223
1.38168
-22.796
1.9449
7.58407
-0.0243633
-3.07013
-17.0204
-13.3026
1.23775
-43.1337
-17.2896
-25.466
-37.9379
-8.57069
-2.45916
34.1875
-6.51373
0.955334
-29.6285
-8.63485
-43.1667
21.8497
-12.3081
10.6179
-0.880977
-7.41083
-22.226
19.9211
-36.118
-12.5958
-11.0927
-26.9714
33.4641
-40.4647
3.60828
-0.236859
-41.8297
-11.3639
12.1235
18.3815
1.52341
-39.2876
5.66666
-30.4856
-39.7822
32.5823
-2.32892
34.2544
1.26191
-13.7406
30.9469
1.86691
34.2769
-28.6939
1.72341
32.3222
1.62427
12.9782
14.8188
4.01717
-23.9059
29.0582
-43.7231
-27.5707
-47.7188
11.1197
32.6414
29.7242
-42.1144
-16.6453
2.08203
-57.3154
23.5374
-42.8887
12.2015
-18.5353
0.362896
-2.52366
30.9085
-14.9347
31.0621
-28.6209
31.099
-2.55905
1.98756
4.33204
22.5437
11.3246
-23.127
-1.81508
-29.1791
31.9118
18.0903
-15.53
-37.2965
0.223761
27.6654
0.901827
1.90767
30.8606
-41.0555
-25.0948