/*--------------------------------*- C++ -*----------------------------------*\
| =========                 |                                                 |
| \\      /  F ield         | OpenFOAM: The Open Source CFD Toolbox           |
|  \\    /   O peration     | Version:  2.3.1                                 |
|   \\  /    A nd           | Web:      www.OpenFOAM.org                      |
|    \\/     M anipulation  |                                                 |
\*---------------------------------------------------------------------------*/
FoamFile
{
    version     2.0;
    format      ascii;
    class       volScalarField;
    location    "1280";
    object      sigmaEq;
}
// * * * * * * * * * * * * * * * * * * * * * * * * * * * * * * * * * * * * * //

dimensions      [1 -1 -2 0 0 0 0];

internalField   nonuniform List<scalar> 
11800
(
120607
101094
316177
273923
96702.6
203843
117451
120069
125948
131084
118330
382987
57247.8
283500
253388
1.13116e+06
98751.8
93335.9
161716
94936.4
223319
349209
521262
465538
921572
602189
569311
284525
630086
693168
197941
104335
591340
109669
111538
194773
111358
628031
106072
104372
590319
652966
299510
718213
208169
1.05861e+06
491225
566908
116288
146770
398188
287419
110304
170499
1.20517e+06
1.05023e+06
54787.6
272804
210616
209933
1.03504e+06
116798
219157
182694
903930
142186
408356
295937
55951.5
555291
114584
96406
92626.4
1.04136e+06
1.02412e+06
192510
932875
133020
120065
126018
1.22832e+06
90042.5
97372.5
100556
93455.4
666478
209641
604732
547965
292593
107080
702921
112226
53861.6
118071
97635.2
12599
97167.3
109642
337825
69654.1
369336
667399
247765
115433
206502
117456
110839
996383
601116
663776
544435
212127
298263
131994
901537
134443
110639
847808
137216
136322
118885
121579
100449
109482
109282
110281
108546
87811.5
30601.5
1.19734e+06
767173
223779
666144
307882
601803
545219
200429
570685
270502
515645
467685
308528
128669
145117
189118
649845
672301
383626
234564
137848
132131
109702
160041
142478
125327
264434
354476
738584
112558
1.14392e+06
146045
948870
271351
296999
326857
164910
137258
1.25106e+06
736418
249575
334273
112866
212896
214198
1.05286e+06
1.06481e+06
532181
481895
588206
263026
189974
152657
136104
248887
132668
215489
110684
112206
117724
154879
142082
136186
150055
489784
630087
1.06228e+06
103409
135069
1.24254e+06
100824
164295
184564
113322
115842
459112
388428
351986
292493
1.19067e+06
356713
520863
1.63167e+06
1.28028e+06
1.38411e+06
223011
101834
475218
429013
389753
158549
210901
98650.4
92320.6
162300
96771.4
791493
169148
97992.8
263118
137393
118305
105163
353165
360363
1.62123e+06
786768
139384
146815
620665
505282
190898
262644
594916
542089
490913
114321
659486
223507
296587
279539
106780
105888
249138
206547
121854
1.37581e+06
165930
187438
147282
165211
381660
421606
464531
211622
160036
112914
1.022e+06
112497
80136.1
110124
231702
91732
296834
1.21998e+06
218692
216537
317779
234558
267539
198848
684790
574809
183647
222718
154502
179316
323527
420926
185764
698254
750010
909408
116958
218228
217121
1.01423e+06
1.02425e+06
563575
554783
580786
575595
106630
76471.4
170931
1.37257e+06
100369
105630
173677
153379
153600
499260
504291
917782
1.38844e+06
423571
122890
477745
391659
282291
229962
122965
121693
161941
272493
149135
249326
96722.1
116384
118378
114400
750877
116919
103558
1.12932e+06
176361
406357
418117
408172
512131
493922
89322.1
88692.4
384808
495321
351449
909076
88571.2
469341
370542
236989
183538
181379
142080
188146
166169
213190
237431
260506
104354
109350
410571
436798
122933
133622
281013
227796
257546
124757
119525
145014
145785
520497
235502
184748
255665
572969
674857
246444
131477
128245
150195
142550
248405
289785
232539
273422
210612
248082
190744
178096
398683
189942
414569
707603
338211
253282
1.26966e+06
106770
744636
348234
259020
1.15936e+06
106725
768402
193694
673742
620754
596888
124949
53894
102413
1.46517e+06
1.26258e+06
518743
185335
236279
123174
135597
157641
100937
153857
955676
39125.8
307324
231395
1.06688e+06
84974.3
121196
106128
117384
105163
111071
1.07266e+06
341213
148238
364300
330581
301922
84808.9
737212
231814
312623
117263
515565
120516
995984
104514
132240
266065
242092
221541
520529
138271
281771
268707
139784
368548
405012
446912
210100
162724
50707
111631
119426
1.32603e+06
392328
309739
234237
193721
117903
115312
85819.7
90021.3
139407
77758.7
87431.7
103938
113354
222864
108548
150580
353591
387740
188157
964464
129638
228501
108683
111598
918675
1.14654e+06
323518
357846
154449
137114
97958.8
808168
1.09843e+06
982669
1.44771e+06
411861
289369
389375
91198.4
119944
114588
125409
377854
113932
111996
89980
113442
803514
171904
748244
520415
109709
136350
712775
808097
376645
416840
459215
211486
163885
343138
111021
110628
108696
120138
100572
132462
79276.8
123571
75848.8
118822
69710.5
117607
107838
115896
84295.8
924132
162841
144102
319844
525449
82489.3
112665
97704.2
92327.7
83653.8
169463
226964
109635
107832
340969
89520.7
131695
999769
62905.5
121655
284874
260275
275798
301101
310935
331907
152017
126884
1.11535e+06
1.43465e+06
261745
74158.2
190947
225205
201713
151993
431891
394476
357375
119424
66215.8
403522
392422
177922
192741
111904
323479
357277
145198
561251
562758
569843
569788
1.04991e+06
1.02721e+06
305428
1.31478e+06
423067
104888
935181
718416
794085
393650
166223
182947
128679
894145
275300
352087
1.38735e+06
134413
147844
303643
269629
730571
357041
1.11029e+06
106732
102173
160215
210355
471838
428077
388092
1.08287e+06
109514
214982
466287
775956
104374
1.26275e+06
1.18339e+06
1.1922e+06
139778
188595
79530
1.21888e+06
314970
144526
226299
1.10003e+06
107395
146497
158768
107748
297177
165116
1.45723e+06
1.20287e+06
133492
342947
436463
164414
186522
152186
141363
411279
147511
309673
236056
614105
559014
115659
747527
112015
219093
262894
1.04903e+06
186747
257417
148731
135762
115934
131890
242839
558806
617751
99030.1
100804
96727.1
131484
209072
759027
89154.4
242252
424150
327043
135087
561580
629403
398187
696641
768593
306999
210446
111845
117032
206040
222242
188502
204220
130252
185654
222545
140373
106964
1.42601e+06
583289
216858
280051
279695
140201
228971
321525
723412
655118
593008
190015
221447
147332
137544
873895
691390
738884
112899
137085
166167
350394
837554
256407
58159.4
115546
1.34577e+06
1.26799e+06
145400
1.16394e+06
91895.6
111776
98757.1
411085
92556.1
154427
178912
712488
788168
869670
958452
400522
346969
291357
236897
130621
104246
230105
1.17919e+06
113344
113284
106805
109113
105293
110262
118377
918185
470744
445342
258123
490475
543332
191709
657665
160319
143314
114837
1.32708e+06
106326
116620
109438
110503
104862
1.21119e+06
161069
163976
685168
196502
420307
161810
1.23654e+06
499389
237550
189452
816097
265732
123367
111185
97190.3
102322
149449
171401
158921
112181
320064
128698
104964
450588
507418
101279
326665
459421
394942
525844
1.03643e+06
939852
848927
766289
325056
392161
1.04665e+06
948636
456184
857994
524209
772241
963525
118024
105744
115725
144324
309442
718927
114714
252167
332128
275018
365135
129803
155492
238626
337343
758471
686947
621910
294644
225716
573077
129951
155320
120208
204325
186784
167616
315871
252372
258599
196330
109185
438872
128604
193840
244157
619564
318106
370637
329110
123360
150919
122723
110756
112248
123022
330372
286348
107236
135747
135426
258185
819495
258216
349822
314489
118013
137252
127728
116031
152642
125187
359443
324887
294243
130044
993714
387288
162585
599908
395640
800717
1.17091e+06
144188
160788
133159
111440
105482
410127
349907
1.20907e+06
97408.5
127439
205650
286963
138399
114884
412817
407078
58383.3
104393
212458
171608
84966.8
1.0293e+06
1.16509e+06
172690
102439
170996
220447
463194
377933
418155
1.33912e+06
109376
327104
366450
119024
339872
413591
480993
549202
1.08627e+06
984145
888856
802652
339165
410653
1.09507e+06
992590
476445
897937
546671
808559
1.1008e+06
958133
725026
270412
309348
952801
731389
199188
101968
97854.9
727095
1.23736e+06
100341
236880
1.06431e+06
720248
1.1721e+06
1.18829e+06
644753
651547
301508
245086
315246
183067
120796
178475
113045
124922
142744
129653
232285
1.1976e+06
315799
128737
87183.9
211426
227753
1.07386e+06
217679
196727
236491
251896
677245
294083
220737
934460
237861
301869
124233
116778
226693
191021
209493
535705
317326
305327
759829
727974
302460
314987
585730
630299
234403
240262
106778
120084
125225
310255
240594
51983.9
117028
129880
385562
372754
190698
356679
279384
121845
84808.1
86878.7
338121
773018
93557.2
1.16534e+06
166152
419553
380752
132620
161388
259580
111445
105730
941350
222685
581354
528178
479140
185663
254831
114557
903536
1.09921e+06
119895
110823
599617
211906
278743
481704
532195
595096
191925
259699
51285.8
469748
221256
1.08791e+06
223092
636088
483311
539500
113759
107912
103094
120148
109133
103356
921970
264353
112425
133602
143121
161465
184616
205953
424934
415169
386385
375376
342149
351754
716956
118432
106584
109158
123597
152762
113165
114997
837649
163133
299541
232531
607067
303864
117485
124197
254151
201102
341878
282810
723811
620285
562272
508852
286462
842263
386426
898354
155011
134348
167694
171064
123313
124592
120921
882225
1.22266e+06
193866
90347.2
146501
319980
244502
84200.4
111697
169770
156742
145674
142944
172723
164634
134660
272730
303364
296554
330778
245627
274535
343172
107486
651828
505976
279596
725310
683965
396418
1.21649e+06
216011
204925
234404
256633
119121
112297
122983
234788
109816
959985
148840
113920
432114
49263.7
97193.2
1.01268e+06
119852
232269
743631
327613
674272
610474
914514
611652
99996
334586
269701
143500
800166
343755
158042
619143
558469
683952
111949
113586
100732
1.46932e+06
174790
243274
292429
149769
107597
101730
244485
266854
123876
1.01842e+06
236111
931561
147648
500932
105905
346780
417939
585628
228378
297882
358653
162965
1.35964e+06
114785
88307.5
101963
1.18518e+06
803019
186552
261148
608380
555483
503174
1.22008e+06
333437
273805
1.27801e+06
1.43154e+06
960434
86170.2
335494
777310
564457
297158
228441
532945
475082
229746
785280
191226
179339
282617
244016
198055
985625
1.46296e+06
96129.1
109759
129219
1.42963e+06
110003
120189
389319
291195
1.28224e+06
1.34185e+06
113203
371954
145243
134379
307431
138267
89804.9
333445
100576
115449
1.4626e+06
591681
319313
246388
221725
169023
443992
404803
365747
153106
1.35427e+06
271093
239851
240658
1.14019e+06
443503
628879
98253.1
154252
115021
507831
269673
357790
99337.4
161583
213526
470492
167355
129748
116395
216523
1.26224e+06
169336
220039
464386
822403
1.15972e+06
732194
511581
360796
426568
60649.6
148027
186343
389733
353699
320321
1.15401e+06
101773
118901
127776
126787
126116
131308
165404
110187
106625
400901
1.00793e+06
258082
582295
527491
478149
187525
1.14568e+06
329410
370291
438341
377212
679183
1.11271e+06
349877
110672
480083
97907.9
471915
281135
519854
575706
210538
693631
175495
1.57345e+06
527523
108157
1.02506e+06
1.57356e+06
1.35535e+06
310829
111097
579026
115973
104290
99387.2
184683
111140
107000
100885
95607.7
924050
969365
105613
684793
122200
113246
106833
148239
591771
600717
152453
602658
609019
883121
295223
120406
133994
174742
348120
382931
145512
38294.5
114202
476428
196432
455642
513019
567330
626424
315430
229584
192175
112016
102913
1.17846e+06
632774
108909
138810
535734
424839
223874
244886
136528
110486
204907
181046
96007.7
132158
107573
977928
332808
828723
97680.1
105123
1.57779e+06
111430
1.21481e+06
1.18349e+06
100776
524858
251347
970509
111660
472658
602919
1.32111e+06
142796
103736
99129.3
299367
143165
179666
346484
313365
283415
100435
107004
108450
102469
581897
643371
443254
770188
697406
833649
1.26751e+06
155132
404846
1.20771e+06
395299
1.18145e+06
489515
540696
598651
261914
188309
238876
292686
1.10959e+06
119160
123141
166174
156467
143318
126926
213153
193589
181357
477438
427453
1.43656e+06
147258
93550.7
133542
1.17115e+06
340709
171015
163356
1.14813e+06
503747
348969
87191.9
131789
98214.5
492531
632763
179881
774693
117533
115379
1.50638e+06
1.00047e+06
1.22645e+06
215203
272050
500103
186094
372960
1.21436e+06
1.35163e+06
117339
133751
214511
182669
546087
607586
408175
459760
1.3326e+06
1.28691e+06
163935
124695
88415
886469
96713.5
1.16413e+06
262143
171535
620047
190809
102171
1.12027e+06
139987
158327
93711.7
106218
849884
255246
108462
437192
201466
125273
104562
106722
363218
106940
1.11088e+06
1.05426e+06
177799
446289
259407
104478
113292
895881
118429
583729
152987
311843
591560
683549
1.05343e+06
121270
200295
1.19642e+06
151661
112419
94896.6
116849
108419
1.256e+06
929111
200690
261793
484881
452328
640928
217875
287325
219234
306509
663387
600937
543446
912282
395316
288975
964463
292371
1.04824e+06
373221
371647
1.12376e+06
1.58205e+06
1.32059e+06
231695
284761
663572
292329
222085
102435
223096
1.11388e+06
109503
119138
1.36008e+06
1.00842e+06
1.21749e+06
476105
590604
599546
514934
98010.4
88824
136302
91372.2
386294
424226
468797
209704
157543
356344
1.23059e+06
106801
144140
121392
109186
538908
488273
136544
1.08319e+06
1.25261e+06
629763
507855
992115
1.14229e+06
104140
553353
358237
723113
107743
151168
161854
919392
916231
454481
205171
98362.7
111417
138734
284606
990016
135529
736380
101158
204128
155948
188102
330694
174817
282689
27299.8
7913.73
280971
1.47426e+06
124224
111372
122268
103418
102385
125428
133403
104335
113776
289335
101979
109294
127525
522630
649462
459999
1.05242e+06
1.30175e+06
108426
138003
217468
112803
863947
154886
1.34766e+06
142221
175180
338966
240109
145849
143263
329380
106086
119624
133718
98942.5
124900
93749.3
1.13121e+06
89290.4
105893
164162
104330
82919.4
1.16985e+06
123906
1.00121e+06
1.03379e+06
383583
270965
189100
260791
596073
548143
496453
107001
688014
388450
108211
1.24415e+06
111401
113409
208365
671645
464956
521725
782408
120857
103906
229226
329938
739401
381692
817306
281833
668798
605522
226623
820226
273737
739569
321855
670577
606977
370921
924722
123613
331687
251864
104335
124828
989319
532408
728677
675197
590003
738329
535021
211886
233423
342344
843187
111771
1.40856e+06
128126
108468
1.07415e+06
121088
176712
370655
384143
1.09547e+06
96305.4
654066
594786
538610
203833
285700
1.3292e+06
209501
168924
388144
121404
404309
186068
228997
97640.9
135760
145582
121043
295369
104295
375380
205227
160059
477432
638695
647131
476822
246990
1.2266e+06
111880
111903
1.11196e+06
1.02911e+06
613371
1.56156e+06
599984
512616
598148
1.39397e+06
595356
466751
1.23223e+06
273734
274553
357594
1.07031e+06
95314.6
953001
114462
169656
224996
372299
409685
451790
216917
165821
304157
64930
67797
108921
107344
144932
116733
106062
148026
641001
1.25846e+06
144386
126240
1.16371e+06
755274
292771
388698
106402
112140
994653
674268
163643
508758
474276
670138
97117.5
105151
122147
107065
742168
1.25209e+06
1.25151e+06
835478
1.3692e+06
168685
98509.4
199263
587720
532189
649194
290331
204913
1.3459e+06
277790
339350
443676
157804
147427
578885
216412
110655
422139
162237
196446
1.29468e+06
205487
185012
637913
581531
526110
266825
866150
807464
1.0484e+06
329934
346663
395525
871839
381165
279621
773166
151954
1.56775e+06
118438
1.20114e+06
308176
355747
89265.6
372752
695679
106982
120554
113856
1.39012e+06
360588
323837
393354
191576
147267
204283
339100
917857
343034
677802
825637
749389
236760
739356
551172
587344
695144
735486
551086
593962
704891
412429
380902
30969.1
190752
123999
242604
347661
295472
400855
851170
771268
697432
631308
238572
689211
317919
119317
85507.6
92919
150017
83808.2
282702
642222
666185
248643
1.18498e+06
121270
104397
942844
1.17961e+06
85980.8
710998
278416
367295
509277
346937
190114
107822
275508
452497
61816.3
111168
1.20706e+06
162228
134475
280781
254286
307256
214903
112173
114433
223887
760247
1.2143e+06
1.40659e+06
197172
217480
927606
836408
1.11058e+06
102883
656603
1.07395e+06
1.41119e+06
1.46168e+06
1.39221e+06
322808
576156
244913
1.26848e+06
905920
362344
826669
108520
108152
982909
985103
106826
278959
1.28714e+06
1.04904e+06
985542
1.01925e+06
1.46695e+06
984646
1.19586e+06
1.06887e+06
112186
171381
759176
426521
640881
140359
99722.1
125283
116801
120762
140746
124453
249112
1.19105e+06
722243
240749
323741
780981
121764
367036
271166
1.50976e+06
192044
180649
367654
193138
335164
145543
127777
1.22717e+06
10029.2
98527.5
97899
20253.7
260405
332930
121517
132901
144377
110272
376256
330783
104713
1.26619e+06
1.09625e+06
338250
770710
249795
109703
901391
200229
1.26602e+06
312726
381202
443203
508202
1.01439e+06
920879
831295
751619
312317
377238
1.02306e+06
927887
438675
838981
504585
756306
175700
144569
346681
350360
303093
152966
136238
122999
108359
104703
105214
101450
99912.9
162603
571877
615751
493862
279527
539552
594846
997573
397347
318132
1.1436e+06
385213
133320
80800.8
116646
110152
182293
162199
167274
115607
261137
201342
223864
442734
114683
136335
614780
114980
98985.4
114789
97169.7
832266
124780
160254
367426
293648
180652
375492
158588
94956.6
87256.2
1.3724e+06
1.36672e+06
730548
592116
573887
738785
1.30645e+06
659217
110467
424263
224412
180075
251754
131905
1.31346e+06
139949
693928
631833
572273
298428
210431
372769
209072
167140
1.32924e+06
150245
110348
437253
434615
184093
130512
147759
236893
513849
962235
363629
285275
649510
765027
197950
275345
626071
567639
514551
287350
311819
545762
406580
577942
310311
642939
711626
211633
785176
1.51709e+06
1.09018e+06
101807
450948
497398
548571
184940
138933
906900
153379
199287
265842
281087
121861
152870
137532
113400
776011
583466
615637
738482
206790
1.09969e+06
1.3634e+06
500526
101668
443987
488138
538857
539642
657123
178122
1.03103e+06
454332
381902
344173
418817
161255
211031
134310
129983
264198
320485
290098
328213
361199
399215
238042
234549
326707
329314
686757
681932
561741
620875
557864
616610
343907
379160
152186
111161
118565
125564
778639
425730
111958
676003
557052
528699
693851
135321
254082
916011
371221
829659
750122
85370.5
156614
657834
356098
261331
858935
325948
64509.1
622568
563937
688733
302455
212527
939959
320965
262335
1.20399e+06
321771
446472
118902
112344
204490
188628
170393
1.01191e+06
238055
189070
276690
250588
300651
153016
128220
690856
789640
136484
425116
104593
615769
1.21719e+06
783236
327350
253209
616110
301076
273778
225476
156590
113258
247864
126707
278359
124577
221450
107001
107448
1.29502e+06
235284
1.01127e+06
535561
587480
314840
243907
594264
1.17649e+06
91125.1
110759
117792
107734
235585
22664.3
7523.78
234147
473909
99938.5
474760
207153
177387
109909
301819
415122
918481
103140
92991.8
115613
123452
260717
164226
588786
520315
150715
105261
99499.7
1.29649e+06
475604
102305
198448
103580
1.50918e+06
1.15151e+06
199986
139096
456140
229838
314144
635044
519388
574427
1.33111e+06
1.04913e+06
111853
1.01815e+06
1.4216e+06
1.06413e+06
1.1638e+06
534437
125673
748345
164450
116670
132738
251661
254346
196863
189952
448929
154117
116729
100056
672516
739176
818062
903362
987159
410004
355252
296858
240181
154738
99895.3
327130
15345.8
163174
162169
8375.5
332476
168048
134304
83514.3
201538
232348
114446
239971
736378
459876
319629
232667
265615
1.2401e+06
971688
122662
411544
112003
115379
315933
373904
430299
879122
225727
251306
114854
1.12026e+06
115795
188984
225335
208566
737194
814977
412053
519246
516091
312539
409262
824182
783339
767386
250661
338194
85097
102376
88908.3
164326
92409.7
378073
688673
614143
753685
545165
764690
543919
377476
293501
663213
484560
669339
486049
181381
792020
614728
536827
699613
620713
766073
554463
771528
553111
760317
1.50415e+06
284762
394799
886345
346153
97664.8
114616
151617
14916.7
150677
13247.1
106406
247373
750283
679289
830095
358506
252287
1.29238e+06
63044.1
105725
192458
614448
174397
479650
230893
1.33945e+06
1.35175e+06
843774
102719
205176
862348
420881
339275
271558
427627
386044
469689
173696
229695
1.40624e+06
330486
1.23695e+06
103516
107162
112033
104424
83325.2
1.21549e+06
107438
861151
83051.3
622957
860994
101536
116262
135385
360683
144241
288033
261264
197273
215226
236935
117917
202628
271542
332519
231095
789462
717403
649318
907796
1.2236e+06
1.35557e+06
96110.9
98471.4
104243
105982
166899
103819
174467
1.34245e+06
1.38292e+06
1.30008e+06
1.07476e+06
42112
774381
1.21872e+06
737490
573007
590895
729536
399403
389677
703062
425899
888708
86582.2
163272
189065
368584
152123
147444
171684
126666
146663
108878
125851
247180
254581
278832
272011
299759
306311
360125
363027
109338
111458
310046
215732
96558.7
129954
565041
894225
110669
492864
1.07169e+06
311516
1.00438e+06
428015
143515
1.01153e+06
463743
390223
615271
1.13397e+06
1.454e+06
579401
212685
1.23706e+06
170452
133134
118715
296637
78671.7
530504
889394
211809
337060
144621
114093
147880
1.32368e+06
211948
239903
232415
183719
527127
165287
138105
553002
121346
1.13897e+06
111580
669777
232279
250384
1.04307e+06
824629
486461
911682
1.00802e+06
418205
1.10844e+06
354910
284939
817457
902584
1.10193e+06
998502
285922
422291
489695
356330
1.22949e+06
131523
965675
112647
101798
105375
5527.4
42038
507052
62982.3
930265
175022
144262
320640
349602
290840
294772
168980
740993
167746
176418
704473
89485.7
256964
234870
232786
722003
653828
798516
339557
344412
139937
227367
405664
924754
69243.5
214476
138480
100163
308348
1.0078e+06
527378
466794
1.04386e+06
143845
547471
1.19921e+06
591183
1.08149e+06
116393
1.19721e+06
154343
814427
268256
330897
109749
9704.52
97887.7
97243.7
16672.4
156365
879774
120764
982560
476038
161840
710721
682012
786153
754409
868955
834272
386445
373539
271379
263350
297837
209260
696892
634933
574456
190225
229254
208343
120117
627434
540022
86812.4
126375
101944
117383
119967
1.22004e+06
975886
237862
772123
699203
852255
107496
478844
813408
818482
117325
111193
1.00227e+06
341438
126853
163889
194237
179188
120382
317213
288130
263833
1.04526e+06
1.50118e+06
1.06577e+06
712417
332991
244826
122450
132836
180192
137284
113510
108623
136640
367319
288418
103641
929876
1.05369e+06
376061
368295
121400
124858
114441
112928
298674
996620
665897
503107
521498
621512
108924
103954
159024
103064
98614.2
175107
1.55936e+06
1.23071e+06
100051
127078
448044
387997
276540
864704
952280
707448
781157
538767
254317
213099
234349
129057
143888
1.12272e+06
267762
695432
72040.9
1.05964e+06
104390
359198
411028
1.54979e+06
103825
366354
116338
343467
116554
222943
711587
299351
764063
485315
846073
935843
423873
1.03252e+06
360194
298702
364780
299097
148472
424671
482243
622804
100744
158190
852779
385115
1.39843e+06
1.16146e+06
1.30072e+06
245438
979733
487918
342738
166274
131883
1.31799e+06
716316
97755.7
1.46709e+06
1.1853e+06
44039
378570
313767
57266.4
615689
446148
97447.9
113645
1.00553e+06
1.40713e+06
110504
432732
444611
956127
925609
320579
328921
322922
334014
106347
108635
108782
103986
76533.3
1.49872e+06
1.1048e+06
1.03977e+06
1.30773e+06
471160
237026
985038
517084
571091
630233
72885.2
1.08753e+06
179439
796958
1.18823e+06
342135
227759
1.47387e+06
344242
361741
259023
274666
725624
703129
150931
151319
88182.8
106231
235715
849371
769683
695405
343383
1.48927e+06
111402
164025
92121
685268
757621
426508
836790
366916
930022
313822
854690
699282
772392
941968
255826
443410
383869
320121
105571
133061
135184
157676
277973
229092
252945
1.16293e+06
484011
590925
1.11418e+06
142544
188121
105829
301952
407605
148722
195847
1.16109e+06
126849
104110
112305
113905
104931
79719.3
164428
116840
126672
940393
1.12748e+06
112676
96961.8
114937
199722
413130
1.25408e+06
1.16109e+06
551050
116491
121865
956116
112055
115079
1.51963e+06
553295
1.11088e+06
280801
739969
427378
446280
140226
577045
753160
344647
252091
117536
255263
104712
68617.7
94450.3
1.23985e+06
624359
632609
1.13528e+06
186228
200860
117496
366903
109117
107713
122236
215669
194814
19718.4
193636
13555.6
110494
745476
208254
291929
628499
569324
514700
120906
1.35209e+06
477739
241047
1.11431e+06
611134
643778
125112
12214
124316
12913.3
1.01428e+06
290273
385193
469561
428624
106689
1.16622e+06
234886
177199
529647
405239
104492
26425.7
827798
165214
845865
194773
250099
477466
505459
420974
109002
400334
168923
204670
117909
126869
386099
401042
137280
227399
100700
101934
621576
299778
225631
114497
366779
9459.97
35319.6
364561
391376
317603
463347
551247
88476.1
1.38168e+06
1.45439e+06
170158
110100
113962
151201
169409
17413.9
168382
15071.1
672469
223573
304507
1.35529e+06
1.37302e+06
1.10698e+06
1.06405e+06
543835
480892
458902
409843
1.15553e+06
159364
306896
124183
93003.1
104911
211278
288242
407725
1.25191e+06
1.27293e+06
160234
83312.9
393777
433579
158437
668412
263760
223357
1.07919e+06
117134
116914
144499
609668
607149
653367
414035
214333
292801
84853.1
80848
785588
94438.9
670825
87278.4
310469
501409
439780
793533
927378
112660
129456
246040
1.09198e+06
5737.45
71536.3
21207.3
71520
179186
172366
83048.5
1.29141e+06
23139.5
1.23047e+06
320619
30868.6
9983.45
318675
189292
104119
11921.9
103531
240271
1.05883e+06
238611
1.27757e+06
1.41983e+06
42675.1
362579
441713
402988
542270
250950
187226
602393
421681
75424.2
151266
217875
164810
377547
509241
153283
153740
1.37112e+06
433924
501275
474626
546102
877839
106516
91596.3
734467
910885
331846
157343
178678
107806
207228
268578
114938
153489
208246
111438
77729.6
798266
943077
168782
353146
278674
287916
927632
393919
179010
152799
366667
336882
93927.4
209186
915952
1.12693e+06
271468
196712
470034
574002
520311
81353.1
102831
203278
155580
856258
311765
86134.7
42579.4
52741.9
267933
196592
454272
554250
502997
109702
1.25201e+06
1.4171e+06
119547
105230
98095
94216.5
1.22554e+06
222918
178266
498584
1.52175e+06
1.24228e+06
309632
132361
300967
273348
176953
162488
191030
115092
113381
111228
241778
1.22355e+06
99342.7
577068
625024
1.06783e+06
761397
742711
275518
270946
360723
366725
201777
195131
176710
98373.3
105533
425607
148117
1.1166e+06
742142
182047
103516
505538
1.45205e+06
100312
663124
549910
515858
684652
518070
215335
284414
676695
134345
495304
210553
231070
132489
304438
152234
193109
531761
256352
128743
114008
141702
635659
522521
138973
131533
131571
144142
108244
345829
264619
106812
253354
114017
151655
234073
1.32283e+06
1.16584e+06
809034
208736
163324
464849
421920
381910
196458
205137
93805.8
722278
112433
344276
460336
153796
169855
1.1947e+06
79716.9
211669
196210
111119
1.23648e+06
76024.3
115199
303987
360982
130019
121356
138771
104121
109103
800277
99325.1
98413.5
12173.1
97828.8
795472
726997
1.36835e+06
886595
1.07941e+06
117092
1.12417e+06
732148
11014.7
79922.1
174292
144939
289827
317060
347987
469249
247527
1.05618e+06
572149
631978
118819
91784.9
87395.7
102137
115950
111391
152151
652992
80373
1.36303e+06
346885
130678
678787
418055
219551
299312
152171
130572
181511
286116
178405
379527
357622
139738
113706
436776
698111
81205.5
83644.8
143038
87884.4
99961.5
1.08505e+06
246740
193101
563609
1.02313e+06
284691
185829
437856
383651
420374
347301
208906
159939
108298
6479.21
51258.4
423585
350897
490490
1.07232e+06
879266
972184
350289
419477
1.08328e+06
980545
488010
887477
144080
238827
198780
215497
104841
148879
128321
370120
173713
147239
159710
277872
799425
372634
108683
145031
99231.3
111473
156456
233070
108719
101845
91734.1
596561
211932
273456
194322
245818
515851
437442
503612
404816
745085
216791
134396
203249
438743
329360
167935
219627
307479
109700
203400
123882
123057
355088
354250
141461
461666
149116
152375
863553
723376
101095
119636
1.19179e+06
91868.5
140423
90233.3
146673
177742
557523
504147
453803
297895
298033
569574
141223
109839
106654
797457
150138
138954
153159
143242
128268
135353
86074.8
122242
935736
923573
266370
212244
114951
614926
527807
215039
291150
411126
110289
77120.2
110277
1.20575e+06
412830
493845
61301.4
354458
147059
62042.9
139215
152744
143417
346297
109209
217310
172806
114596
1.4689e+06
229495
673318
189229
1.12629e+06
444465
521975
273979
205668
655421
89800.3
112886
123897
243279
300334
215544
144015
84755.4
66847.1
518270
215154
169466
93382.6
97977.2
101550
102678
231592
190595
211719
57584.4
110507
1.06006e+06
104639
1.47507e+06
303298
145869
554046
121556
95571
411454
146060
140353
657724
103463
410233
854729
773656
939526
93865.1
155626
275434
859638
813853
219424
107107
235340
238340
335920
390338
740653
335358
381454
822753
731690
800169
606376
670061
598886
661728
1.03607e+06
234542
168096
1.22534e+06
100453
125173
429689
1.03085e+06
310802
172893
139989
99791
90648.8
115191
126974
95792
807687
196137
250098
462744
112153
558995
134570
211441
221301
337743
125680
112295
142758
110984
104424
146488
136052
127174
1.22143e+06
126880
104850
237005
301281
79976.2
164457
166667
916686
177239
129487
117531
123988
121785
1.20593e+06
201296
185952
450877
198089
162046
1.16425e+06
888979
942478
292548
117608
1.0295e+06
305211
346032
150042
593996
476329
655117
530475
756265
391241
999718
654458
862006
657368
434492
346847
95970.7
110711
1.05542e+06
94563.2
106890
105123
108320
104668
92851.2
600633
626904
139949
298132
28837.4
3968.76
296318
133816
87711.2
1.04128e+06
343564
473225
184351
157235
175492
130901
143580
255517
292335
106200
141923
381673
268523
197824
368788
607843
514036
90807.3
568737
477561
1.4407e+06
850884
508920
940991
1.0409e+06
438948
1.14451e+06
372796
301510
844369
932210
1.03162e+06
1.13862e+06
441624
300852
511031
374727
106994
522502
82071.8
663827
659818
1.45169e+06
124279
264403
776193
117172
475744
82105.1
92177.9
754423
108915
169417
423907
551772
1.22124e+06
216940
241500
266124
119373
202916
263270
571840
228236
132750
111234
111676
118291
1.19094e+06
557920
543010
1.03238e+06
1.00468e+06
206037
186418
269219
241433
527052
484302
902425
1.04692e+06
636882
703464
778487
864278
241252
399779
295115
346353
867167
783259
710859
643562
237508
286359
338288
388734
137416
175242
785475
1.09938e+06
206548
174260
214602
455062
525049
477567
430810
372450
191055
258364
1.52898e+06
91711.7
166611
638517
941474
809037
309832
384986
124993
40755.1
158395
847245
305068
1.34717e+06
137265
171902
800362
993533
97200.6