/*--------------------------------*- C++ -*----------------------------------*\
| =========                 |                                                 |
| \\      /  F ield         | OpenFOAM: The Open Source CFD Toolbox           |
|  \\    /   O peration     | Version:  2.3.1                                 |
|   \\  /    A nd           | Web:      www.OpenFOAM.org                      |
|    \\/     M anipulation  |                                                 |
\*---------------------------------------------------------------------------*/
FoamFile
{
    version     2.0;
    format      ascii;
    class       volScalarField;
    location    "4960";
    object      sigmaEq;
}
// * * * * * * * * * * * * * * * * * * * * * * * * * * * * * * * * * * * * * //

dimensions      [1 -1 -2 0 0 0 0];

internalField   nonuniform List<scalar> 
11800
(
199122
137536
678606
575013
133642
400461
184182
202655
219201
233819
198513
823913
103752
611811
518863
2.24066e+06
141575
143685
261667
160872
456749
743404
968105
867803
1.83756e+06
1.14458e+06
1.20862e+06
599857
1.3141e+06
1.42035e+06
396781
128783
1.15008e+06
143114
150527
380400
153134
1.22654e+06
154042
169085
1.25259e+06
1.36216e+06
630105
1.47347e+06
418751
2.09816e+06
929220
1.08426e+06
186144
281735
865349
608910
148704
243051
2.39153e+06
1.94928e+06
74141.4
562282
439209
418759
1.94969e+06
164842
446005
366695
1.80193e+06
270930
890260
630811
73739.4
1.05906e+06
151875
126882
122867
1.85179e+06
1.931e+06
368595
1.88624e+06
257314
203447
206813
2.43039e+06
141524
133248
135293
139209
1.3696e+06
426785
1.26465e+06
1.1614e+06
626440
148013
1.36954e+06
171481
70344.2
215385
176950
22955.4
177054
150562
724896
83501.7
799827
1.29991e+06
446086
160083
380906
209184
179193
1.90741e+06
1.27712e+06
1.38286e+06
1.17285e+06
432866
635049
259036
1.72193e+06
251676
159258
1.61662e+06
240331
230927
185689
209449
158729
168730
147307
150293
150175
104715
30372.7
2.17681e+06
1.45808e+06
463807
1.37365e+06
668286
1.2663e+06
1.16133e+06
404807
1.17575e+06
578465
1.08392e+06
994240
585959
223355
283706
386269
1.42762e+06
1.46083e+06
833739
429951
235058
226967
150018
300665
276711
211815
551328
761214
1.50812e+06
156777
2.1918e+06
264712
1.92081e+06
555119
602804
650910
330306
246796
2.35564e+06
1.4783e+06
527483
728297
174105
431888
429386
2.09995e+06
2.12265e+06
1.13004e+06
1.03843e+06
1.22375e+06
553254
377364
291366
232730
523943
249237
382936
171128
197260
181349
275847
258043
245303
220192
1.0808e+06
1.37161e+06
1.92299e+06
135009
255737
2.26625e+06
154646
332357
372177
154409
159912
992167
829127
763504
631995
2.17627e+06
670759
991143
2.95959e+06
2.49577e+06
2.51017e+06
388799
144109
963774
885451
814635
303322
439142
143881
145344
257383
155819
1.43253e+06
289794
158103
543730
242626
198380
153760
767502
783728
2.95791e+06
1.43168e+06
255286
266853
1.3447e+06
1.10206e+06
377525
552867
1.2213e+06
1.13071e+06
1.0389e+06
159585
1.32073e+06
465070
642118
601360
174185
136699
471384
420921
158597
2.50911e+06
328538
379192
269419
311271
817529
888700
960044
437112
305262
151770
1.91613e+06
179515
87465.5
149085
480393
175910
630593
2.22822e+06
450910
447088
678729
490523
565487
410644
1.39107e+06
1.16293e+06
372682
466957
294989
355413
639336
840642
299265
1.35546e+06
1.45372e+06
1.74705e+06
192622
445391
442650
2.03168e+06
2.05051e+06
1.23644e+06
1.21674e+06
1.2597e+06
1.24673e+06
147065
100251
335398
2.61505e+06
132951
139697
348219
283664
306989
1.07803e+06
1.10607e+06
1.81817e+06
2.51119e+06
786950
208635
1.02961e+06
852070
592895
484599
182466
194001
297965
530615
277951
492102
140763
189640
181181
158287
1.44183e+06
182296
139740
2.09394e+06
358748
813585
910107
886210
1.1206e+06
1.07855e+06
112005
110753
729674
956455
658879
1.70522e+06
134048
953112
740189
486746
366943
361877
277373
368015
317318
421822
461657
496757
175739
150663
899861
954503
202521
256304
524930
447295
502624
227295
212391
266529
272159
1.03212e+06
501958
368258
396601
1.25515e+06
1.45501e+06
380743
222310
208735
287413
266392
505333
586253
479510
562419
443011
519635
390964
371620
745680
381695
835376
1.44212e+06
729061
532951
2.30013e+06
146917
1.51402e+06
749161
542947
2.23947e+06
158799
1.548e+06
382588
1.29749e+06
1.19784e+06
1.16688e+06
213047
97665.4
133340
2.65762e+06
2.29985e+06
1.03091e+06
369492
503266
198542
268019
304118
163669
226190
1.76407e+06
70914.5
640114
491533
1.94331e+06
116783
194849
165611
162298
165076
164907
1.94349e+06
655582
260499
765029
705561
649346
130721
1.47317e+06
484076
679628
184454
964714
208377
1.87189e+06
147418
218121
553525
511318
471076
979346
261591
548386
479051
255414
768467
835941
905012
438181
312496
71866.6
190471
212569
2.41593e+06
843733
665308
478813
393901
205358
163994
120241
119313
209229
108354
126053
132488
181351
361175
161369
205002
654174
802193
376769
1.72038e+06
226683
408352
167590
201892
1.67127e+06
2.19969e+06
697202
756944
270810
240922
129267
1.46232e+06
2.14118e+06
1.8901e+06
2.72742e+06
900408
628653
822269
134081
204980
187161
209545
818231
155471
153531
136544
200856
1.46177e+06
327942
1.49641e+06
870185
189328
243314
1.19619e+06
1.53622e+06
813005
883775
952122
431582
301286
740311
153142
154903
151050
174006
137342
206156
105077
200169
104795
198128
91781.7
192617
176626
183371
124673
1.67224e+06
254035
279713
622912
986074
134724
164397
143122
140589
124585
325566
475478
136933
136319
644465
131363
196144
1.81745e+06
87591.4
177659
578084
532480
556931
603255
618707
651571
305990
227133
2.11243e+06
2.5987e+06
548988
91913.4
389410
368669
418186
295547
891081
824381
758398
187491
91366.9
864943
805140
358124
398802
197517
691056
749607
255643
1.21956e+06
1.23702e+06
1.25132e+06
1.23861e+06
2.08397e+06
2.03917e+06
645255
2.48081e+06
908859
148917
1.7283e+06
1.54164e+06
1.67594e+06
857507
346391
374262
201982
1.77754e+06
590855
744707
2.62662e+06
232581
290565
576791
565726
1.47816e+06
771986
2.20116e+06
146825
144739
300402
433190
960072
883189
812508
2.00066e+06
164515
441881
947960
1.42283e+06
143751
2.34813e+06
2.19588e+06
2.28177e+06
265252
359414
136388
2.33308e+06
677401
270135
463322
2.19843e+06
159398
272693
288969
153380
533007
331255
2.65857e+06
2.34383e+06
223620
663180
848292
326253
386994
286059
250537
702840
206336
665840
490638
1.25625e+06
1.09388e+06
186908
1.4279e+06
151206
452802
558309
1.89684e+06
362752
491222
273586
222397
207593
243543
465168
1.08818e+06
1.19846e+06
155019
148157
150687
199359
386441
1.44755e+06
124244
502759
911088
710432
251489
1.20868e+06
1.3372e+06
869074
1.45369e+06
1.57348e+06
653182
426479
176065
213068
404195
430343
376268
416656
211098
385241
448410
260989
152830
2.71346e+06
1.16951e+06
440288
597532
544618
263988
474695
696078
1.49338e+06
1.37797e+06
1.2643e+06
387241
458047
217232
237658
1.69541e+06
1.23889e+06
1.44562e+06
165105
221560
319549
761925
1.67608e+06
537843
105377
166181
2.4551e+06
2.30676e+06
278102
2.11197e+06
120989
177473
128691
810276
140387
245460
271850
1.51588e+06
1.64815e+06
1.78257e+06
1.92031e+06
873864
742000
616139
484465
212356
145958
476353
2.35061e+06
154396
150198
169296
159463
168874
175610
180991
1.81904e+06
917383
944296
556256
1.02907e+06
1.11646e+06
391312
1.30198e+06
311452
255834
162286
2.42835e+06
153283
186772
180195
188621
153457
2.20882e+06
313557
309268
1.18327e+06
393644
827897
293809
2.24806e+06
995319
499278
370364
1.52422e+06
552602
208535
173740
155566
147928
262555
288250
276704
201759
542867
167507
149483
979302
1.09313e+06
127649
692296
998005
845238
1.14883e+06
2.13907e+06
1.98149e+06
1.82445e+06
1.66619e+06
692461
845042
2.14048e+06
1.98294e+06
997995
1.82585e+06
1.1491e+06
1.66828e+06
1.90663e+06
170581
146213
159558
277934
603092
1.31547e+06
151577
503280
690668
544239
750692
217574
282726
501646
735435
1.56687e+06
1.44557e+06
1.32588e+06
629372
465531
1.17376e+06
236183
300827
185551
387172
360278
328057
675867
527155
541944
402005
142794
803079
219685
414008
507941
1.25628e+06
684867
801075
643497
234647
306071
209494
183996
172929
201002
712672
600691
156873
243053
268177
553792
1.6423e+06
539004
758474
564494
175081
254937
239775
221516
301969
214971
729008
672645
614476
237617
1.74925e+06
833162
239754
1.07707e+06
727528
1.57182e+06
2.12268e+06
262647
293134
247468
163683
177116
884343
752926
2.21339e+06
145851
206763
410904
610834
263020
152611
893066
883991
64188.3
151482
426644
347392
96426.3
1.94307e+06
2.12327e+06
353799
131586
316597
449940
961993
816162
887713
2.42202e+06
147649
699287
787952
184809
718976
878514
1.03882e+06
1.19578e+06
2.23983e+06
2.07601e+06
1.91187e+06
1.74698e+06
718570
878121
2.24015e+06
2.07561e+06
1.0376e+06
1.91159e+06
1.19539e+06
1.74718e+06
2.07163e+06
1.78173e+06
1.34313e+06
574346
655133
1.78263e+06
1.32281e+06
394287
130327
124868
1.32218e+06
2.35709e+06
177574
492027
1.93489e+06
1.32288e+06
2.12301e+06
2.16787e+06
1.41562e+06
1.41812e+06
649039
514175
672290
276456
207595
355822
176875
216673
266081
222521
490992
2.28323e+06
671142
224316
134449
429368
460446
2.07789e+06
434757
393227
500236
530932
1.35217e+06
643868
463824
1.72768e+06
495500
645404
231041
188290
444745
385291
415153
1.02725e+06
670950
651784
1.57688e+06
1.50806e+06
644112
680837
1.18648e+06
1.27428e+06
478252
502411
151209
211088
221020
654509
509728
87218.1
185043
212941
758631
721070
392347
765333
591540
232836
142029
141858
594854
1.43789e+06
139566
2.12231e+06
307701
867709
798018
244704
306657
515695
165512
139873
1.81975e+06
462159
1.18801e+06
1.09802e+06
1.00932e+06
368278
537883
187019
1.64121e+06
2.179e+06
197106
161324
1.19867e+06
439811
601581
1.03922e+06
1.13024e+06
1.23558e+06
371328
541522
68619.1
870632
456485
2.17283e+06
359773
1.24985e+06
1.04255e+06
1.17018e+06
153688
159047
163457
171778
174993
152395
1.80112e+06
562165
208832
242490
269324
302815
379650
420799
861904
833643
796977
768606
707785
732643
1.24238e+06
187631
153751
148297
206083
232215
164847
188624
1.48068e+06
306713
556694
477308
1.22747e+06
647963
226680
236308
532805
412318
736332
601861
1.47484e+06
1.29571e+06
1.19655e+06
1.09849e+06
610229
1.69824e+06
843900
1.68264e+06
298520
248028
321709
311535
216702
195228
215047
1.71416e+06
2.2157e+06
399972
127941
296998
670589
521298
144978
170682
286522
271942
285642
264042
351232
330021
246971
567876
630063
613375
680370
521703
579540
633709
143635
1.40292e+06
1.11465e+06
588046
1.39898e+06
1.31385e+06
768383
2.21645e+06
421424
400596
453660
485186
224031
182274
195658
420890
161322
1.86432e+06
239236
155045
936484
66006.9
128240
1.8434e+06
211303
481832
1.53417e+06
708537
1.41621e+06
1.29969e+06
1.66205e+06
1.10394e+06
181233
711596
568981
233642
1.583e+06
727341
232986
1.33064e+06
1.21387e+06
1.44616e+06
149104
151987
183056
2.67898e+06
321224
506432
619301
278926
155753
155258
484914
523828
202636
1.84398e+06
493382
1.8811e+06
286801
922038
153489
749427
895954
1.1827e+06
476204
642280
769051
308444
2.641e+06
187047
131329
159966
2.25099e+06
1.47342e+06
373187
550793
1.24544e+06
1.15475e+06
1.06155e+06
2.31708e+06
714229
578076
2.30741e+06
2.60794e+06
1.80193e+06
87254.8
619123
1.53883e+06
1.15905e+06
632829
470210
1.16967e+06
1.04344e+06
479599
1.57749e+06
380941
309274
594461
524557
397549
1.8173e+06
2.76547e+06
138716
151503
179078
2.63694e+06
180690
212166
823521
634257
2.33262e+06
2.4435e+06
148794
695206
239125
228033
575539
247344
148884
621242
142190
160366
2.7818e+06
1.21884e+06
678307
505488
455172
324707
926126
855559
785841
234344
2.47287e+06
485395
440152
505748
2.07019e+06
847044
1.24756e+06
170700
266497
201504
927989
575541
766790
138401
327522
447219
943629
333373
209261
178331
353938
2.30634e+06
336912
455978
935693
1.48933e+06
2.10487e+06
1.42899e+06
976921
776957
919470
93260.7
267228
374205
800617
739726
681551
2.10516e+06
165209
216117
231713
231220
232132
224380
335718
151075
153475
758185
1.91208e+06
546175
1.20724e+06
1.11521e+06
1.02517e+06
374164
2.15929e+06
697002
795127
952384
821264
1.32661e+06
2.11398e+06
633731
164181
811274
128807
1.00328e+06
602868
1.09377e+06
1.18713e+06
426411
1.37588e+06
339257
2.85095e+06
978905
155186
1.97292e+06
2.85947e+06
2.4618e+06
583113
147944
1.10722e+06
186835
176480
126178
307449
166260
171967
147033
155977
1.79076e+06
1.87987e+06
154683
1.22689e+06
197219
187817
151672
257665
1.29995e+06
1.3053e+06
295120
1.32313e+06
1.32544e+06
1.68882e+06
555082
207354
261926
357907
717087
777644
262133
69419.8
178115
839499
404289
990374
1.11479e+06
1.21708e+06
1.32157e+06
680275
478973
349752
195194
167877
2.13561e+06
1.18095e+06
140096
245022
1.05833e+06
821833
448286
485340
218801
196905
363135
321792
125623
248351
168080
1.79357e+06
706748
1.71491e+06
160172
145804
2.85988e+06
146085
2.22047e+06
2.19389e+06
156322
1.026e+06
519063
1.75596e+06
170245
974501
1.10195e+06
2.39824e+06
269608
168197
140647
543739
257610
353351
716772
657228
604954
175644
137120
201768
192084
1.26955e+06
1.39847e+06
954193
1.62988e+06
1.49896e+06
1.72904e+06
2.45337e+06
308453
782673
2.33659e+06
682712
2.18843e+06
1.05428e+06
1.14675e+06
1.24172e+06
550265
372475
460114
537582
2.02176e+06
181250
214849
319312
302575
282579
203130
421546
389651
364520
890097
930053
2.70659e+06
300477
137072
188937
2.134e+06
611132
332930
321635
2.08188e+06
1.0983e+06
758035
117635
222851
141158
1.08325e+06
1.38071e+06
346529
1.54906e+06
210628
204189
2.78342e+06
1.8225e+06
2.23017e+06
437868
582911
1.01687e+06
314794
804537
2.32891e+06
2.45194e+06
207113
238269
402060
327252
1.17063e+06
1.30794e+06
896237
1.00958e+06
2.59041e+06
2.3798e+06
305921
201494
116794
1.7034e+06
136931
2.24791e+06
442967
340689
1.20852e+06
387199
156733
2.08115e+06
235933
310347
115182
138197
1.54689e+06
539752
158991
845176
402938
221161
162931
141014
787574
143093
2.13084e+06
1.90897e+06
352215
959722
543478
158093
176383
1.64135e+06
198243
1.1081e+06
284642
612864
1.29491e+06
1.47719e+06
2.0364e+06
218914
345750
2.21418e+06
277960
172998
163437
190162
142941
2.26377e+06
1.77419e+06
410917
567305
977972
983840
1.27995e+06
452159
622371
447315
650761
1.38751e+06
1.28107e+06
1.17578e+06
1.83185e+06
866963
618208
1.75417e+06
621853
1.90843e+06
716773
801724
2.11204e+06
2.85374e+06
2.44923e+06
485464
461610
1.32469e+06
634826
459402
149913
395234
2.02562e+06
169099
198777
2.59382e+06
1.93919e+06
2.22561e+06
1.04325e+06
1.29397e+06
1.30417e+06
1.12639e+06
138198
130540
195459
133145
803860
873916
948315
444033
310649
680194
2.25732e+06
169686
225926
190171
176867
1.17923e+06
1.06566e+06
210332
2.01047e+06
2.27038e+06
1.36066e+06
1.11217e+06
1.82899e+06
2.10702e+06
130768
1.00916e+06
640322
1.40792e+06
186651
301266
322306
1.80888e+06
1.80177e+06
827294
419850
124949
151189
263620
554153
1.88806e+06
251332
1.45382e+06
172520
423588
285231
381528
652719
335293
511757
49765.7
14373.3
511413
2.67278e+06
234018
191294
191126
148317
135733
204074
210240
151485
151536
603989
150258
164241
204209
1.13501e+06
1.39895e+06
1.00786e+06
1.868e+06
2.38145e+06
162790
227884
439703
189470
1.71284e+06
236520
2.49985e+06
269467
351777
679247
505282
265638
275945
640373
142977
168923
216362
136277
208765
134166
2.22861e+06
119342
176902
325244
133825
101056
2.12028e+06
238081
1.83639e+06
1.95831e+06
709010
454592
372714
543572
1.22074e+06
1.13934e+06
1.04748e+06
145807
1.34281e+06
692375
141552
2.26749e+06
150686
158494
425607
1.24748e+06
1.01064e+06
1.12034e+06
1.52882e+06
219530
164812
477193
707892
1.54439e+06
823204
1.66649e+06
591700
1.42568e+06
1.30858e+06
471108
1.65169e+06
586105
1.52471e+06
696365
1.4079e+06
1.29222e+06
813035
1.64778e+06
207735
693966
542583
169880
216080
1.85335e+06
1.17122e+06
1.58583e+06
1.47556e+06
1.28739e+06
1.59292e+06
1.17669e+06
446912
489685
724147
1.74665e+06
164251
2.55565e+06
203329
164588
1.92645e+06
230029
365600
714433
705824
2.10762e+06
122942
1.34532e+06
1.24342e+06
1.14188e+06
414553
610890
2.58868e+06
438528
334595
775291
198727
811956
375341
389811
137797
226378
235105
205085
621202
134279
761694
407915
309460
1.04389e+06
1.39098e+06
1.39623e+06
1.0435e+06
508030
2.44848e+06
149094
150348
2.1856e+06
1.97129e+06
1.19928e+06
2.84762e+06
1.29618e+06
1.11857e+06
1.14353e+06
2.52955e+06
1.28109e+06
1.02647e+06
2.24798e+06
481852
510258
765214
1.98285e+06
120154
1.68258e+06
201530
294308
465035
780837
850158
921317
452927
321950
509898
83318.9
89499.1
165050
177171
243170
201978
159893
215501
1.26903e+06
2.30322e+06
277679
202946
2.12073e+06
1.55587e+06
615001
835761
165690
173457
1.84865e+06
1.22047e+06
257915
977439
916973
1.21965e+06
146190
165470
168727
145680
1.45179e+06
2.33974e+06
2.28113e+06
1.55114e+06
2.4682e+06
314961
135026
410151
1.25051e+06
1.14846e+06
1.35429e+06
616821
417780
2.62052e+06
578675
731781
957033
309308
261299
1.09028e+06
384294
198779
829517
317225
412921
2.42119e+06
420944
371981
1.30612e+06
1.2071e+06
1.11031e+06
558273
1.65557e+06
1.56049e+06
2.04942e+06
638822
659611
851532
1.75055e+06
838315
600303
1.55649e+06
300679
2.85904e+06
187759
2.18124e+06
584899
668160
158422
712105
1.36852e+06
162262
190727
187529
2.52262e+06
751820
690433
812667
402614
289729
363849
733028
1.64779e+06
740264
1.44097e+06
1.69597e+06
1.56849e+06
492559
1.59635e+06
1.21521e+06
1.28591e+06
1.52253e+06
1.60011e+06
1.21656e+06
1.29675e+06
1.53109e+06
883192
733043
56143.1
350564
214256
505000
746792
620052
866212
1.73618e+06
1.61104e+06
1.4869e+06
1.36445e+06
500486
1.3848e+06
689593
185436
128020
133268
230496
122399
594008
1.41425e+06
1.44349e+06
511209
2.37163e+06
190797
172498
1.84398e+06
2.28513e+06
107210
1.46514e+06
579063
785820
1.09832e+06
599448
391445
169488
581030
816886
73027.6
153794
2.39905e+06
318000
236827
582695
536946
630751
402532
150644
157404
409045
1.43608e+06
2.21761e+06
2.56738e+06
399136
443918
1.86539e+06
1.68156e+06
2.18544e+06
127753
1.20997e+06
2.13e+06
2.58356e+06
2.66392e+06
2.61054e+06
689142
1.19495e+06
515408
2.46819e+06
1.87517e+06
769049
1.60877e+06
176430
154780
1.91542e+06
1.91712e+06
156383
514631
2.3696e+06
1.99554e+06
1.8995e+06
1.96601e+06
2.67505e+06
1.81796e+06
2.37571e+06
2.0472e+06
176762
324103
1.5133e+06
707583
1.23635e+06
259796
170786
215939
199156
178955
240765
214671
516668
2.38356e+06
1.44894e+06
511570
708448
1.54855e+06
199381
717507
498305
2.73454e+06
386534
375752
684996
394866
636413
282839
218462
2.22619e+06
18287.6
178472
178310
36728.2
561482
591633
211993
232560
247101
170458
624826
622664
148606
2.38622e+06
2.03367e+06
741730
1.54668e+06
532274
141519
1.80438e+06
398947
2.3688e+06
661934
809561
959096
1.10614e+06
2.08944e+06
1.93798e+06
1.78514e+06
1.63397e+06
660945
808516
2.08736e+06
1.93523e+06
956946
1.78271e+06
1.10419e+06
1.63145e+06
366035
278923
676740
739587
654266
308400
250479
212369
169185
157547
182088
151248
160486
272530
1.10996e+06
1.19138e+06
1.08002e+06
604454
1.17609e+06
1.29602e+06
1.99141e+06
848133
684206
2.10439e+06
702278
240998
150231
206369
166880
332614
306907
311079
159848
445233
352141
462709
952184
159085
245268
1.11245e+06
174889
124747
157026
135461
1.67983e+06
193713
224710
796559
635423
303158
793576
247314
149461
135997
2.49419e+06
2.57901e+06
1.58293e+06
1.29743e+06
1.26598e+06
1.6107e+06
2.53457e+06
1.31439e+06
145501
848489
475015
361897
522912
248688
2.38866e+06
262657
1.42493e+06
1.31859e+06
1.21137e+06
637973
431226
745153
437633
332310
2.41299e+06
278479
145733
791289
790767
363393
224991
276487
469006
956576
1.81662e+06
768692
614866
1.1138e+06
1.48263e+06
406405
594896
1.28622e+06
1.18695e+06
1.08975e+06
615024
661735
1.06286e+06
885080
1.24293e+06
658956
1.36448e+06
1.48279e+06
428689
1.60448e+06
2.8528e+06
2.00768e+06
128171
980253
1.06884e+06
1.16066e+06
353083
236985
1.73436e+06
302103
397144
488846
539071
230196
293400
234061
184541
1.6732e+06
1.2879e+06
1.35042e+06
1.6176e+06
368934
2.00769e+06
2.4889e+06
920032
160426
962108
1.04831e+06
1.1387e+06
1.06235e+06
1.22787e+06
345322
1.96821e+06
861422
806988
740666
873790
314308
439235
251683
232601
548664
644807
595181
684415
745790
807875
495231
491664
709229
712200
1.43946e+06
1.43261e+06
1.21649e+06
1.32674e+06
1.21013e+06
1.32018e+06
716957
778769
275065
169322
194430
234238
1.41523e+06
921548
154693
1.46582e+06
1.21679e+06
1.1674e+06
1.51014e+06
235596
523118
1.88079e+06
796773
1.7385e+06
1.59817e+06
125108
311229
1.29235e+06
771505
543884
1.71746e+06
596465
78684.2
1.32248e+06
1.21506e+06
1.43254e+06
642629
433333
1.74911e+06
684456
553413
2.33513e+06
686913
973532
231249
163761
392703
367426
336903
1.99244e+06
497120
327759
566772
522352
611018
307595
232234
1.31326e+06
1.47108e+06
234696
846962
177040
1.12719e+06
2.26283e+06
1.41597e+06
706037
527021
1.25484e+06
644177
572819
473160
308880
190043
472820
232666
580718
231908
390002
161739
184384
2.36373e+06
482904
2.03701e+06
1.17811e+06
1.26507e+06
684144
509388
1.2105e+06
2.15415e+06
136666
165928
168384
160457
426520
41319
13661.5
426229
901112
164379
959293
428170
289529
197972
641817
897794
1.86772e+06
145831
112932
195519
230096
496188
321004
1.27019e+06
1.134e+06
269459
174318
136100
2.40115e+06
900804
148398
347729
170231
2.73462e+06
2.24477e+06
346386
262684
993933
477204
679753
1.33638e+06
1.12804e+06
1.23095e+06
2.59742e+06
2.0697e+06
165018
1.93115e+06
2.59141e+06
2.03596e+06
2.26854e+06
972326
196238
1.30003e+06
324094
198624
246702
484162
531733
387753
388023
876346
285263
191279
142020
1.27112e+06
1.57499e+06
1.71196e+06
1.8511e+06
1.97655e+06
891618
759071
625699
490906
309641
136773
605008
27983.4
295457
295241
15182.2
658287
329800
259433
97324.4
415857
470289
151875
415622
1.24411e+06
1.00062e+06
689717
486590
555651
2.38663e+06
1.8201e+06
244613
782226
151996
164791
678313
798867
815063
1.61132e+06
477642
519827
158603
2.15661e+06
170828
380008
441619
411999
1.58348e+06
1.72093e+06
895396
939707
939100
678505
868965
1.61347e+06
1.53644e+06
1.53794e+06
534051
741853
131023
141914
135058
329758
153347
706772
1.5083e+06
1.33844e+06
1.63983e+06
1.19838e+06
1.64983e+06
1.19713e+06
812917
531401
1.44618e+06
1.05919e+06
1.44648e+06
1.06283e+06
344020
1.58151e+06
1.33944e+06
1.17428e+06
1.52934e+06
1.35345e+06
1.6689e+06
1.21409e+06
1.66715e+06
1.21352e+06
1.49605e+06
2.7412e+06
609036
855463
1.80021e+06
656217
161418
168942
274574
27198.4
274362
24031.3
154671
513623
1.59731e+06
1.46709e+06
1.72933e+06
769219
532149
2.43918e+06
78817.2
147034
300731
1.04056e+06
351540
968580
478024
2.47349e+06
2.49528e+06
1.4854e+06
177913
319919
1.6997e+06
912080
730779
486015
903105
829335
977613
339911
478697
2.53168e+06
595187
2.25719e+06
158109
153338
145085
156020
102854
2.23119e+06
180350
1.64953e+06
99886.6
1.20767e+06
1.51915e+06
182904
154806
231806
690431
242218
586783
540474
395689
428185
462294
193624
429367
579318
718101
481131
1.62193e+06
1.50018e+06
1.37796e+06
1.67142e+06
2.23175e+06
2.4613e+06
143410
139634
139865
154443
329953
193207
358751
2.47653e+06
2.52397e+06
2.54995e+06
1.92911e+06
76312.6
1.32224e+06
2.31887e+06
1.60439e+06
1.26768e+06
1.29237e+06
1.58279e+06
767516
672840
1.37923e+06
916884
1.6143e+06
114860
291128
376763
723242
298539
294894
334945
224084
257281
188606
219012
509210
510614
553372
552878
597928
596184
699629
687979
160413
157049
664850
425380
120925
247888
952013
1.61584e+06
160884
980814
2.11813e+06
659053
2.01852e+06
931512
253422
1.8605e+06
1.00448e+06
844494
1.33884e+06
2.25937e+06
2.66975e+06
1.04597e+06
454321
2.24452e+06
324490
235616
200761
493698
106252
942696
1.65633e+06
434560
653093
263041
151222
282545
2.41659e+06
439835
515186
497587
364880
1.04113e+06
327478
258055
1.0258e+06
227159
2.21239e+06
170373
1.31003e+06
489537
532229
2.05607e+06
1.76145e+06
1.06833e+06
1.91829e+06
2.07669e+06
915059
2.23588e+06
762264
608464
1.76352e+06
1.92026e+06
2.24075e+06
2.07922e+06
610505
917727
1.07182e+06
764541
2.23137e+06
220675
1.75179e+06
190112
125590
165495
10063.9
76614.1
963600
102830
1.68415e+06
352459
260291
663946
716686
611607
500415
332898
1.48275e+06
331488
357090
1.33225e+06
107244
525769
488044
484281
1.53466e+06
1.40996e+06
1.66095e+06
730558
608261
259062
445789
883169
1.68326e+06
78325.7
434900
255688
162876
555593
1.77183e+06
1.01057e+06
864302
1.8727e+06
206726
1.03233e+06
2.19379e+06
1.11341e+06
2.06005e+06
181380
2.32621e+06
274851
1.55121e+06
560598
691834
156946
17696.8
177294
177092
30235.7
296726
1.57192e+06
225714
1.95049e+06
878241
321254
1.52197e+06
1.46143e+06
1.6598e+06
1.59408e+06
1.79912e+06
1.72832e+06
841382
813582
572173
554187
636531
428174
1.43293e+06
1.32628e+06
1.21833e+06
382530
445558
412533
201564
1.35199e+06
1.18264e+06
100828
227789
168394
190685
202459
2.23904e+06
1.88552e+06
497128
1.6357e+06
1.50392e+06
1.76773e+06
136176
820498
1.51907e+06
1.59032e+06
154854
144798
1.80973e+06
570479
192630
337644
392531
364652
208157
629309
582390
539128
2.11469e+06
2.73619e+06
2.02449e+06
1.45005e+06
712933
513587
214714
234072
354623
253952
155080
136460
267382
776811
621369
156015
1.65069e+06
1.91793e+06
810522
697519
201267
192187
169610
182450
536033
1.80886e+06
1.43503e+06
1.10881e+06
1.14118e+06
1.36092e+06
148649
170650
253445
151189
155915
353147
2.82634e+06
2.24516e+06
173154
214441
974409
840377
582614
1.80768e+06
1.94547e+06
1.52975e+06
1.66779e+06
970048
510360
438588
474562
216824
275163
2.0756e+06
562437
1.32738e+06
94319.3
1.91831e+06
174688
769116
894134
2.82535e+06
152372
793768
183638
742958
197060
467566
1.41788e+06
654924
1.64235e+06
1.06846e+06
1.79237e+06
1.94373e+06
922807
2.09612e+06
775702
629746
776032
630278
299208
922099
1.04132e+06
1.36355e+06
160930
262042
1.65754e+06
715230
2.59848e+06
2.10612e+06
2.36085e+06
423723
1.85719e+06
865246
678519
332766
253366
2.54838e+06
1.31321e+06
153122
2.75739e+06
2.33919e+06
79790.2
818712
668578
101649
1.0564e+06
861479
121165
218415
1.77003e+06
2.64994e+06
156717
948513
973145
1.93587e+06
1.87522e+06
687311
704336
687369
703193
164139
164786
164015
154181
125732
2.71698e+06
2.12882e+06
1.91188e+06
2.41298e+06
916229
492961
1.98788e+06
1.12158e+06
1.22399e+06
1.32905e+06
82870.9
2.02163e+06
355086
1.51959e+06
2.15928e+06
643223
454275
2.75585e+06
748850
786157
549143
578932
1.47288e+06
1.42292e+06
241370
236326
131011
154774
479141
1.74344e+06
1.61143e+06
1.48172e+06
731961
2.71519e+06
161190
332198
146163
1.46426e+06
1.59644e+06
936778
1.7299e+06
800092
1.88036e+06
676092
1.78761e+06
1.51284e+06
1.64936e+06
1.92479e+06
541632
962239
829475
676501
151377
215543
231093
302612
569631
483536
524431
2.25749e+06
1.06017e+06
1.29338e+06
2.07487e+06
241501
375345
155143
587778
823806
282570
395857
2.09143e+06
224043
148345
149960
153047
149114
93702.6
239058
186671
201562
1.81256e+06
2.13797e+06
184597
160626
206523
357139
782226
2.30319e+06
2.14738e+06
948659
157210
234639
1.84274e+06
161045
161383
2.79568e+06
1.08938e+06
2.11881e+06
603315
1.43879e+06
918997
893106
244401
996143
1.52855e+06
741257
532424
207240
474919
157295
124646
141815
2.26659e+06
1.36039e+06
1.38799e+06
2.25805e+06
351922
377368
193742
714973
172164
153955
163677
454456
352819
35946.8
352595
24608.3
152369
1.40658e+06
427771
621871
1.31519e+06
1.21388e+06
1.11389e+06
220732
2.58494e+06
845069
496266
2.23422e+06
1.34371e+06
1.39544e+06
226606
22274.3
226401
23423.7
1.96932e+06
477907
830299
981052
905498
180232
2.09518e+06
500247
357271
1.15188e+06
885385
147579
47926.3
1.54464e+06
322338
1.53911e+06
397321
529805
971475
1.09014e+06
915928
195159
794328
326084
422409
199078
213753
753434
785779
260618
478931
163230
164447
1.26382e+06
635706
465389
172155
664005
17198.8
64382.6
663569
845333
682924
1.01241e+06
1.20164e+06
134869
2.56813e+06
2.67119e+06
339231
156334
174972
279569
306852
31747.6
306664
27353.9
1.36192e+06
467413
649803
2.48903e+06
2.52675e+06
2.15891e+06
1.94497e+06
1.18039e+06
1.04631e+06
1.00163e+06
888294
2.10672e+06
306374
607472
215957
138334
154010
439954
618406
886285
2.46163e+06
2.48307e+06
312285
162489
819916
890459
297210
1.35149e+06
556832
454758
1.95247e+06
191616
173773
236198
1.32981e+06
1.33919e+06
1.41323e+06
896497
447620
626970
100425
103354
1.51956e+06
156258
1.35326e+06
174712
669631
1.08909e+06
954453
1.57869e+06
1.84673e+06
158510
213236
502841
2.19478e+06
10476.8
129583
38440.1
130270
353371
323865
100807
2.3553e+06
41972.9
2.22982e+06
580508
56275.4
18143.3
580128
385209
188649
21730.4
188610
490176
2.12971e+06
493966
2.32047e+06
2.68084e+06
77377.7
780046
920690
850131
1.09698e+06
528591
384000
1.17446e+06
732286
127875
288519
462556
329574
826427
1.09042e+06
302873
304177
2.5755e+06
941705
1.0934e+06
1.01747e+06
1.17471e+06
1.63064e+06
143061
162741
1.3646e+06
1.65614e+06
550857
318827
367479
186192
374135
558337
163458
292336
425764
161462
113186
1.49213e+06
1.74175e+06
340368
758538
591088
603147
1.86192e+06
853516
368419
281903
715664
584930
144073
431943
1.65652e+06
2.12829e+06
575932
399715
1.01643e+06
1.19995e+06
1.10751e+06
94761.2
156125
416783
293989
1.57813e+06
572552
122705
60362.3
95610.6
561009
391609
983726
1.16122e+06
1.07192e+06
159304
2.29251e+06
2.62054e+06
175627
180396
171680
167526
2.29973e+06
462865
339769
983644
2.83988e+06
2.27862e+06
656594
224447
603312
557320
338539
316603
360033
198646
171401
172749
493487
2.22946e+06
125158
1.25789e+06
1.36247e+06
2.1335e+06
1.5404e+06
1.50341e+06
577219
569215
779118
791383
354888
404909
347033
155461
150847
917311
295092
2.07758e+06
1.44464e+06
367772
150225
881953
2.65042e+06
148385
1.44053e+06
1.19859e+06
1.1404e+06
1.48781e+06
1.01016e+06
436380
610939
1.34422e+06
231987
980848
425909
477356
241968
485295
301995
393670
1.07959e+06
536888
223957
193764
260603
1.39416e+06
1.14463e+06
244099
233067
217650
251252
156171
733783
564998
136961
534572
159112
304607
495024
2.4256e+06
2.1355e+06
1.44848e+06
428513
300878
958312
889307
818629
384108
382270
184892
1.31222e+06
176710
755172
980853
282128
237923
2.16071e+06
121064
435720
406471
191946
2.28449e+06
118486
151214
653642
770122
228127
216676
239514
171835
161038
1.44862e+06
124795
178349
22183.3
178254
1.44774e+06
1.38416e+06
2.62158e+06
1.55294e+06
1.96351e+06
157714
2.02583e+06
1.39227e+06
20066.4
145651
347145
260169
592969
643912
693933
905482
511666
2.12909e+06
1.26001e+06
1.3653e+06
214322
140115
136829
158589
170872
181505
287051
1.21328e+06
145684
2.63671e+06
643892
262580