/*--------------------------------*- C++ -*----------------------------------*\
| =========                 |                                                 |
| \\      /  F ield         | OpenFOAM: The Open Source CFD Toolbox           |
|  \\    /   O peration     | Version:  2.3.1                                 |
|   \\  /    A nd           | Web:      www.OpenFOAM.org                      |
|    \\/     M anipulation  |                                                 |
\*---------------------------------------------------------------------------*/
FoamFile
{
    version     2.0;
    format      ascii;
    class       volScalarField;
    location    "0.4";
    object      p;
}
// * * * * * * * * * * * * * * * * * * * * * * * * * * * * * * * * * * * * * //

dimensions      [0 2 -2 0 0 0 0];

internalField   nonuniform List<scalar> 
768
(
3.33066e-05
-0.00233519
-0.00469317
-0.0068268
-0.00799069
-0.00750428
-0.00499692
-0.00200898
0.00145604
0.00487937
0.00786351
0.0101191
0.000754202
-0.0013713
-0.00342334
-0.00510244
-0.00588479
-0.00529469
-0.00360702
-0.00118538
0.00168226
0.00457196
0.00724121
0.00920507
0.00133894
-0.000481841
-0.00218476
-0.00351233
-0.00410564
-0.00368197
-0.00238672
-0.000430216
0.00190992
0.00425472
0.00665221
0.00816465
0.00179419
0.000230307
-0.00117668
-0.00223375
-0.00269807
-0.00238719
-0.00137336
0.000188211
0.00206297
0.00393906
0.00586229
0.00682831
0.0119573
0.0128335
0.013539
0.0134556
0.0128831
0.0116575
0.0105072
0.00926653
0.00787786
0.0062785
0.00443252
0.0023413
0.0109711
0.011969
0.012759
0.0127607
0.0122756
0.0113343
0.0103
0.00915753
0.00786358
0.00638177
0.00469578
0.00281144
0.0101926
0.0114127
0.0121335
0.012186
0.0117759
0.0109927
0.0100356
0.00895299
0.00773102
0.00635206
0.0048135
0.00313066
0.0100785
0.0113411
0.0117626
0.011756
0.0113716
0.0106796
0.00979247
0.00876571
0.0076059
0.00631227
0.0048926
0.00337022
5.23613e-05
-0.00232822
-0.00469801
-0.00684474
-0.00800842
-0.00751748
-0.00500387
-0.002011
0.00145941
0.00488827
0.00787675
0.0101364
0.000764746
-0.00137109
-0.00342838
-0.00511803
-0.00589824
-0.00529966
-0.00361059
-0.00118479
0.00168733
0.00458154
0.00725421
0.00922245
0.00133788
-0.000482451
-0.00218573
-0.00352123
-0.00411382
-0.00368497
-0.00238737
-0.000427483
0.00191629
0.00426505
0.0066646
0.00818251
0.00178528
0.000227564
-0.00117653
-0.0022374
-0.00270167
-0.00238791
-0.00137194
0.000192348
0.00207013
0.00394937
0.00587449
0.00684643
0.0119743
0.0128538
0.01356
0.0134779
0.0129067
0.0116846
0.0105296
0.00928674
0.00789664
0.00629381
0.00443807
0.00233246
0.0109896
0.0119888
0.0127791
0.0127817
0.0122977
0.0113578
0.0103213
0.00917709
0.00788241
0.00640032
0.00470962
0.00281023
0.0102128
0.0114317
0.0121528
0.0122056
0.0117964
0.0110137
0.0100556
0.00897186
0.00774892
0.00636953
0.0048297
0.00314133
0.0100984
0.011358
0.0117804
0.0117743
0.0113905
0.0106988
0.00981105
0.00878341
0.00762256
0.00632749
0.00490589
0.00338113
0.00217618
0.000814377
-0.000377829
-0.00124778
-0.00162511
-0.00139514
-0.000593909
0.00065011
0.0021444
0.00362509
0.00499884
0.00557359
0.00249943
0.00129418
0.000258762
-0.000484785
-0.000811906
-0.000647028
-8.21773e-06
0.000989693
0.00219086
0.00338168
0.00445396
0.00504934
0.00276892
0.00168462
0.000766715
0.00011259
-0.000184322
-7.14423e-05
0.000439433
0.0012468
0.00222214
0.00319165
0.00405087
0.00457991
0.00299371
0.00200358
0.0011752
0.000586214
0.000308423
0.0003799
0.000787176
0.00144572
0.00224603
0.00304509
0.00374939
0.00420624
0.00318055
0.00226426
0.00150442
0.000962896
0.000696913
0.000733937
0.00105868
0.00160071
0.00226519
0.00293207
0.00351855
0.00390553
0.00333401
0.00247597
0.00176792
0.00126135
0.00100221
0.00101076
0.00127043
0.00172129
0.00228039
0.0028448
0.00334046
0.00366697
0.00345812
0.00264574
0.00197655
0.0014956
0.00124013
0.00122546
0.00143439
0.00181438
0.00229208
0.00277752
0.00320323
0.00348043
0.0035566
0.00277913
0.00213895
0.00167616
0.00142244
0.00138961
0.00155917
0.00188494
0.00230064
0.00272605
0.00309851
0.00333703
0.00363272
0.00288057
0.00226152
0.0018112
0.00155782
0.00151124
0.00165113
0.0019366
0.00230637
0.0026873
0.00302024
0.0032297
0.00368883
0.00295406
0.00234919
0.00190703
0.00165303
0.00159714
0.00171504
0.00197208
0.00230947
0.00265899
0.00296405
0.00315285
0.00372702
0.00300279
0.00240621
0.00196877
0.00171333
0.00164573
0.00175468
0.00199378
0.00231035
0.00263963
0.00292664
0.00310178
0.00374892
0.00302959
0.0024374
0.00200301
0.00174901
0.0016748
0.00177533
0.00200465
0.00231022
0.0026289
0.00290659
0.00307218
0.011112
0.011561
0.0116132
0.0114635
0.0110605
0.0104098
0.00957639
0.00860393
0.00750682
0.00629327
0.00497782
0.00358881
0.0116392
0.0116722
0.0115284
0.0112526
0.0108154
0.0101824
0.00938754
0.00846117
0.00742029
0.00627871
0.00505506
0.00377988
0.01181
0.0116666
0.0114194
0.0110786
0.0106149
0.00999161
0.00922563
0.00833827
0.00734626
0.00626645
0.00512045
0.00394006
0.0117739
0.0115824
0.0112963
0.0109263
0.0104469
0.00983152
0.00908859
0.00823434
0.00728481
0.00625814
0.00517766
0.0040757
0.0116669
0.0114691
0.0111728
0.0107919
0.0103051
0.00969774
0.00897412
0.00814786
0.00723458
0.00625307
0.00522754
0.00419016
0.0115443
0.0113538
0.0110581
0.0106749
0.0101864
0.00958708
0.00887996
0.00807729
0.0071944
0.00625058
0.00527037
0.00428537
0.0114273
0.0112479
0.0109571
0.0105755
0.0100887
0.0094972
0.00880414
0.00802109
0.00716326
0.00625026
0.00530675
0.00436353
0.0113255
0.0111566
0.0108721
0.0104939
0.0100104
0.00942622
0.00874494
0.00797788
0.00714022
0.00625179
0.00533719
0.00442662
0.0112424
0.0110824
0.010804
0.0104296
0.00995026
0.00937254
0.0087009
0.00794648
0.0071245
0.00625488
0.00536219
0.00447621
0.0111786
0.0110257
0.0107528
0.0103824
0.00990717
0.00933501
0.00867095
0.00792605
0.00711556
0.00625946
0.00538234
0.00451377
0.0111328
0.010986
0.0107182
0.0103517
0.0098805
0.00931294
0.00865446
0.00791609
0.00711311
0.00626558
0.00539815
0.00454032
0.0111021
0.010963
0.0107
0.0103369
0.00986863
0.00930403
0.00864869
0.00791375
0.00711452
0.00627122
0.0054085
0.00455494
0.00216984
0.000812284
-0.000377073
-0.00124834
-0.00162567
-0.00139406
-0.000591101
0.000655122
0.00215194
0.00363527
0.00501103
0.00559048
0.00249632
0.00129347
0.000260168
-0.000483776
-0.000810771
-0.000644805
-4.51817e-06
0.000995263
0.00219857
0.0033916
0.00446577
0.0050641
0.0027665
0.00168425
0.000768282
0.000114349
-0.000182237
-6.84595e-05
0.000443723
0.00125273
0.0022299
0.00320131
0.0040622
0.00459321
0.00299141
0.00200295
0.00117666
0.000588309
0.000311038
0.000383377
0.000791861
0.00145187
0.0022538
0.0030545
0.00376025
0.00421851
0.00317821
0.00226372
0.00150573
0.000965108
0.000699818
0.000737718
0.00106361
0.00160699
0.00227291
0.00294124
0.00352898
0.003917
0.00333155
0.00247557
0.00176913
0.00126358
0.00100528
0.00101473
0.0012755
0.00172762
0.00228805
0.00285375
0.00335052
0.00367783
0.00345552
0.00264538
0.00197767
0.0014978
0.00124326
0.00122956
0.00143955
0.00182073
0.00229967
0.00278628
0.00321297
0.00349083
0.0035541
0.00277852
0.00213994
0.00167832
0.0014256
0.00139376
0.00156438
0.0018913
0.00230816
0.00273465
0.00310799
0.00334708
0.0036303
0.00287977
0.00226237
0.00181331
0.00156098
0.00151544
0.00165637
0.00194295
0.00231384
0.00269577
0.00302953
0.00323948
0.00368653
0.00295308
0.00234992
0.00190909
0.00165619
0.00160137
0.00172029
0.00197843
0.00231689
0.00266738
0.0029732
0.00316246
0.00372461
0.00300188
0.0024069
0.00197079
0.00171649
0.00164988
0.00175994
0.00200012
0.00231774
0.00264795
0.00293569
0.00311126
0.00374639
0.0030287
0.00243807
0.00200501
0.00175212
0.00167897
0.0017806
0.002011
0.0023176
0.00263719
0.0029156
0.00308159
0.0111264
0.0115753
0.0116292
0.0114804
0.0110781
0.0104275
0.00959364
0.0086204
0.00752229
0.00630707
0.00498891
0.00359679
0.0116506
0.0116848
0.0115428
0.0112683
0.0108317
0.010199
0.00940365
0.00847653
0.0074346
0.00629143
0.00506521
0.00378645
0.0118204
0.0116783
0.0114329
0.0110933
0.0106302
0.0100071
0.00924078
0.00835267
0.00735956
0.00627814
0.00512983
0.0039463
0.0117842
0.0115939
0.0113092
0.0109403
0.0104614
0.00984623
0.00910294
0.00824795
0.00729728
0.006269
0.00518634
0.00408158
0.0116773
0.0114805
0.0111853
0.0108053
0.0103191
0.0097118
0.00898782
0.00816081
0.00724639
0.0062633
0.00523569
0.00419577
0.0115549
0.0113651
0.0110703
0.0106879
0.0101999
0.0096006
0.00889312
0.0080897
0.00720568
0.0062603
0.00527814
0.00429082
0.011438
0.0112592
0.0109692
0.0105883
0.0101018
0.00951029
0.00881687
0.00803307
0.00717411
0.00625959
0.0053142
0.00436885
0.0113364
0.011168
0.0108841
0.0105064
0.0100232
0.00943898
0.00875732
0.00798952
0.00715073
0.0062608
0.00534437
0.00443175
0.0112533
0.0110938
0.0108158
0.010442
0.00996283
0.00938506
0.00871302
0.00795786
0.00713475
0.00626366
0.00536918
0.00448117
0.0111896
0.0110371
0.0107646
0.0103946
0.00991959
0.00934734
0.00868288
0.00793724
0.00712564
0.00626807
0.00538916
0.0045186
0.0111439
0.0109974
0.01073
0.0103639
0.00989282
0.00932516
0.00866627
0.00792715
0.00712307
0.00627407
0.00540483
0.00454513
0.0111132
0.0109744
0.0107117
0.010349
0.00988089
0.00931619
0.00866042
0.00792474
0.0071244
0.00627964
0.00541507
0.0045597
)
;

boundaryField
{
    rotor
    {
        type            zeroGradient;
    }
    stator
    {
        type            zeroGradient;
    }
    AMI1
    {
        type            cyclicAMI;
        value           nonuniform 0();
    }
    AMI2
    {
        type            cyclicAMI;
        value           nonuniform List<scalar> 
48
(
-0.000250762
-0.00282801
-0.00543969
-0.00777518
-0.00910539
-0.00858358
-0.00596783
-0.00262374
0.00125678
0.00509442
0.00829474
0.0106807
0.0124819
0.0133793
0.0139265
0.0138087
0.0131421
0.0119425
0.0106347
0.00935129
0.00790598
0.00623861
0.00433167
0.00217097
-0.000229954
-0.00280427
-0.00543139
-0.00778821
-0.00912396
-0.00859842
-0.00597627
-0.00262726
0.00125919
0.0051025
0.00830743
0.0106978
0.0124978
0.0134007
0.0139502
0.0138333
0.0131683
0.0119707
0.0106588
0.00937294
0.00792495
0.00625314
0.00434026
0.00216871
)
;
    }
    front
    {
        type            empty;
    }
    back
    {
        type            empty;
    }
    procBoundary0to1
    {
        type            processor;
        value           nonuniform List<scalar> 8(0.011978 0.0109917 0.0102141 0.0101011 0.0101334 0.00922222 0.00818602 0.00685287);
    }
}


// ************************************************************************* //
