/*--------------------------------*- C++ -*----------------------------------*\
| =========                 |                                                 |
| \\      /  F ield         | OpenFOAM: The Open Source CFD Toolbox           |
|  \\    /   O peration     | Version:  2.3.1                                 |
|   \\  /    A nd           | Web:      www.OpenFOAM.org                      |
|    \\/     M anipulation  |                                                 |
\*---------------------------------------------------------------------------*/
FoamFile
{
    version     2.0;
    format      ascii;
    class       volScalarField;
    location    "0.7";
    object      p;
}
// * * * * * * * * * * * * * * * * * * * * * * * * * * * * * * * * * * * * * //

dimensions      [0 2 -2 0 0 0 0];

internalField   nonuniform List<scalar> 
768
(
-2.08134e-05
0.00185017
0.00347554
0.00469604
0.00531546
0.00524828
0.00503063
0.00507228
0.00512134
0.00493816
0.00442101
0.00320193
-6.43095e-05
0.00158815
0.0030146
0.00409075
0.00470009
0.00483819
0.00485701
0.0049328
0.00490212
0.00458617
0.00399666
0.00287412
-0.000153681
0.00131328
0.00257998
0.00355722
0.00417542
0.00445524
0.00458656
0.0046767
0.00460553
0.00419199
0.00351289
0.00254414
-0.000241586
0.00106991
0.00221185
0.00311419
0.0037325
0.00408673
0.00428542
0.00438959
0.00431775
0.00389842
0.0031773
0.00244059
0.000725676
-0.00253849
-0.00609469
-0.00931455
-0.0115162
-0.0116033
-0.0110933
-0.00996367
-0.00831584
-0.00632122
-0.00417881
-0.00201427
0.000403359
-0.00248434
-0.00533807
-0.00779402
-0.00943003
-0.00981449
-0.00951827
-0.00862405
-0.00725362
-0.00555735
-0.00370285
-0.00180354
-0.000143506
-0.00252403
-0.00473152
-0.00664382
-0.00796199
-0.00843186
-0.00826008
-0.00754471
-0.0064041
-0.0049674
-0.00335921
-0.0016727
-0.000956217
-0.00274765
-0.00442413
-0.00590882
-0.00697693
-0.00741011
-0.00729105
-0.00670131
-0.00573397
-0.00449738
-0.00311262
-0.00156293
4.37695e-05
0.00193618
0.00357087
0.0047898
0.00540349
0.00532691
0.0051154
0.00515966
0.00521184
0.00503314
0.00452109
0.0033073
1.0428e-05
0.00167538
0.00310437
0.00417914
0.00478499
0.0049192
0.00494146
0.00502008
0.00499256
0.00468066
0.00409569
0.00297779
-7.6108e-05
0.00139681
0.0026657
0.0036422
0.00425894
0.00453762
0.00467114
0.00476387
0.00469566
0.00428564
0.00361057
0.00264549
-0.000163104
0.00115135
0.00229474
0.00319702
0.0038151
0.00416954
0.00436998
0.00447651
0.00440736
0.00399098
0.00327322
0.0025384
0.000710949
-0.00257715
-0.00615278
-0.0093849
-0.011589
-0.0116578
-0.0111373
-0.0100022
-0.00835385
-0.00635779
-0.00422415
-0.00207479
0.000387861
-0.0025208
-0.00539054
-0.00785606
-0.00949361
-0.0098694
-0.00956582
-0.00866726
-0.00729573
-0.00559959
-0.00375238
-0.0018702
-0.00016237
-0.00255846
-0.00477885
-0.00669956
-0.00801995
-0.00848589
-0.00830963
-0.00759128
-0.00644958
-0.00501271
-0.00340788
-0.00174619
-0.0009858
-0.00278149
-0.00446832
-0.00596042
-0.00703124
-0.00746284
-0.00734161
-0.00675012
-0.00578186
-0.00454399
-0.00315074
-0.00164845
-0.000319361
0.000867252
0.00191007
0.00275344
0.00336571
0.00376095
0.0040006
0.00412124
0.00407635
0.00375525
0.00317972
0.00286408
-0.000382236
0.000703016
0.00166622
0.00246145
0.00306369
0.00348102
0.00374852
0.00388919
0.00387987
0.00366903
0.0032988
0.00305441
-0.00043235
0.000570524
0.0014691
0.00222434
0.0028147
0.00324172
0.00353054
0.00369172
0.0037176
0.00359089
0.0033381
0.003157
-0.000472003
0.000463603
0.00130945
0.00203134
0.00260969
0.00304279
0.00334519
0.00352475
0.00358175
0.00351776
0.00334097
0.00324821
-0.000503431
0.000377449
0.00118044
0.00187457
0.00244162
0.00287737
0.00318991
0.0033854
0.00346855
0.00344698
0.00333546
0.00325989
-0.000528617
0.000308317
0.0010767
0.00174814
0.00230512
0.00274168
0.00306196
0.00327095
0.00337569
0.00338623
0.00332411
0.00327448
-0.000548714
0.000253381
0.000994221
0.00164739
0.00219588
0.00263239
0.00295864
0.0031788
0.00330099
0.00333651
0.00331035
0.00327769
-0.000564286
0.000210441
0.000929859
0.00156881
0.00211044
0.00254662
0.00287748
0.00310662
0.00324259
0.00329737
0.00329626
0.00327691
-0.000576107
0.000177828
0.000881186
0.00150948
0.00204592
0.00248181
0.00281623
0.00305236
0.00319885
0.00326806
0.00328418
0.00327493
-0.000584938
0.000154016
0.000846017
0.00146696
0.00199991
0.00243577
0.00277294
0.00301426
0.00316837
0.00324781
0.00327537
0.00327327
-0.000591612
0.000137813
0.000822851
0.00143936
0.00197044
0.0024066
0.002746
0.00299092
0.00315008
0.003236
0.00327054
0.00327277
-0.000596414
0.000129102
0.000811103
0.00142574
0.00195582
0.00239305
0.00273374
0.00298057
0.00314227
0.00323128
0.00326907
0.00327338
-0.00189187
-0.00306624
-0.00428587
-0.00542105
-0.00627041
-0.00662919
-0.00653537
-0.00603186
-0.00519389
-0.00411088
-0.00287592
-0.00151194
-0.00250039
-0.00331629
-0.00421056
-0.0050808
-0.00574797
-0.00602841
-0.00594329
-0.00549868
-0.00475773
-0.00379425
-0.00268477
-0.00146469
-0.00292832
-0.0034853
-0.00416725
-0.00483919
-0.00535836
-0.00557051
-0.00547786
-0.00507237
-0.00440464
-0.00353494
-0.0025277
-0.00142334
-0.00322281
-0.00361616
-0.00414092
-0.00466193
-0.00506441
-0.00522957
-0.00511167
-0.00473144
-0.00411922
-0.00332349
-0.00239884
-0.00138803
-0.00343104
-0.00371507
-0.00412194
-0.00452809
-0.00483863
-0.00495936
-0.00482198
-0.00445936
-0.00388956
-0.00315223
-0.00229442
-0.00135852
-0.00357764
-0.00378815
-0.00410667
-0.00442546
-0.00466337
-0.00473857
-0.00459261
-0.00424336
-0.00370629
-0.00301492
-0.00221073
-0.00133436
-0.00368089
-0.00384111
-0.00409377
-0.00434643
-0.00452795
-0.00456606
-0.00441301
-0.00407387
-0.00356202
-0.00290656
-0.0021447
-0.00131482
-0.00375273
-0.00387854
-0.00408273
-0.00428598
-0.00442486
-0.00443457
-0.00427521
-0.00394357
-0.00345099
-0.00282318
-0.00209407
-0.00129968
-0.00380125
-0.00390376
-0.00407334
-0.00424077
-0.0043486
-0.00433764
-0.00417305
-0.00384689
-0.00336868
-0.00276159
-0.0020571
-0.00128884
-0.00383191
-0.0039192
-0.00406547
-0.0042084
-0.00429509
-0.00427156
-0.00410172
-0.00377946
-0.00331153
-0.00271925
-0.00203245
-0.00128225
-0.00384846
-0.00392657
-0.00405889
-0.00418692
-0.00426087
-0.00422854
-0.00405706
-0.00373765
-0.00327657
-0.002694
-0.00201909
-0.00127844
-0.003854
-0.00392827
-0.00405422
-0.00417524
-0.00424244
-0.00420698
-0.00403541
-0.00371794
-0.00326067
-0.00268324
-0.00201572
-0.0012764
-0.000241847
0.000946818
0.00199093
0.00283476
0.00344754
0.00384349
0.00408499
0.00420784
0.00416535
0.00384665
0.00327366
0.00296007
-0.000306472
0.000780932
0.00174557
0.0025417
0.00314489
0.00356273
0.00383268
0.00397545
0.00396827
0.00375946
0.00339152
0.00314915
-0.000358251
0.000646957
0.00154728
0.00230381
0.00289556
0.0033246
0.00361462
0.00377765
0.00380545
0.00368051
0.00342966
0.0032514
-0.000399664
0.000538658
0.00138665
0.0021102
0.00269019
0.00312519
0.00342906
0.00361035
0.00366909
0.00360655
0.00343114
0.003337
-0.000432417
0.00045142
0.00125678
0.00195289
0.00252175
0.00295938
0.00327353
0.0034707
0.00355546
0.00353521
0.00342468
0.00334875
-0.00045827
0.000381524
0.00115242
0.00182601
0.00238495
0.00282341
0.00314536
0.00335598
0.00346223
0.00347399
0.0034127
0.00336302
-0.000478904
0.000325969
0.00106945
0.0017249
0.00227544
0.00271393
0.00304185
0.0032636
0.00338723
0.0034239
0.00339848
0.00336596
-0.000495337
0.000282469
0.00100464
0.00164597
0.0021898
0.00262798
0.00296053
0.00319123
0.00332858
0.00338448
0.00338406
0.00336495
-0.000508212
0.000249223
0.000955554
0.0015864
0.00212509
0.002563
0.00289916
0.00313682
0.00328466
0.00335496
0.00337174
0.00336277
-0.000517991
0.000224936
0.000920125
0.00154369
0.00207896
0.00251686
0.00285578
0.00309863
0.00325406
0.00333455
0.00336277
0.00336097
-0.000525976
0.000208276
0.000896775
0.00151599
0.00204938
0.00248758
0.00282878
0.00307524
0.0032357
0.00332264
0.00335785
0.00336039
-0.000530724
0.00019939
0.000884976
0.00150228
0.00203477
0.002474
0.0028165
0.00306488
0.00322786
0.00331788
0.00335634
0.00336096
-0.00193401
-0.00309797
-0.0043284
-0.00547012
-0.00632251
-0.00668094
-0.00658651
-0.0060822
-0.00524374
-0.0041602
-0.00292353
-0.00158893
-0.00254605
-0.00335006
-0.00425275
-0.00512851
-0.00579889
-0.00607972
-0.00599491
-0.00555005
-0.00480922
-0.00384604
-0.00273739
-0.00153777
-0.00297181
-0.00352413
-0.00421008
-0.00488632
-0.00540884
-0.00562456
-0.00553013
-0.00512456
-0.00445752
-0.00358892
-0.0025837
-0.00149396
-0.0032658
-0.00365733
-0.00418448
-0.0047088
-0.0051144
-0.00528464
-0.0051642
-0.00478435
-0.00417327
-0.00337924
-0.00245745
-0.00145726
-0.00347405
-0.00375753
-0.0041661
-0.00457481
-0.00488768
-0.00500898
-0.00487409
-0.00451278
-0.00394458
-0.00320936
-0.00235473
-0.00142685
-0.00362091
-0.0038314
-0.0041513
-0.00447215
-0.00471192
-0.00478761
-0.00464455
-0.00429717
-0.00376209
-0.00307313
-0.00227205
-0.00140163
-0.00372446
-0.00388491
-0.00413876
-0.00439314
-0.00457631
-0.00461539
-0.00446498
-0.00412801
-0.00361847
-0.00296566
-0.00220676
-0.00138121
-0.00379658
-0.00392272
-0.00412797
-0.00433275
-0.00447317
-0.00448421
-0.00432729
-0.00399801
-0.00350798
-0.00288305
-0.00215691
-0.00136565
-0.00384532
-0.00394821
-0.00411877
-0.0042876
-0.00439694
-0.0043873
-0.00422524
-0.00390157
-0.00342614
-0.00282219
-0.00212088
-0.00135456
-0.00387614
-0.00396384
-0.00411104
-0.00425529
-0.00434348
-0.00432154
-0.00415403
-0.00383433
-0.00336936
-0.00278054
-0.00209745
-0.00134721
-0.0038928
-0.00397132
-0.00410454
-0.00423385
-0.00430931
-0.0042787
-0.00410945
-0.00379265
-0.00333466
-0.00275593
-0.00208591
-0.00134251
-0.00389839
-0.00397307
-0.00409992
-0.00422218
-0.00429089
-0.00425719
-0.00408784
-0.00377301
-0.0033189
-0.00274564
-0.0020855
-0.00133707
)
;

boundaryField
{
    rotor
    {
        type            zeroGradient;
    }
    stator
    {
        type            zeroGradient;
    }
    AMI1
    {
        type            cyclicAMI;
        value           nonuniform 0();
    }
    AMI2
    {
        type            cyclicAMI;
        value           nonuniform List<scalar> 
48
(
8.8562e-05
0.00209009
0.00381319
0.00506645
0.00560669
0.00533528
0.00491802
0.00504453
0.0053124
0.0052751
0.00477674
0.00348411
0.000947454
-0.00256977
-0.00654547
-0.0102437
-0.0127756
-0.0130057
-0.0123752
-0.0110465
-0.00909787
-0.00679657
-0.00439421
-0.00205173
0.00014832
0.00216863
0.00390814
0.00516352
0.0056967
0.0054168
0.00500236
0.00513146
0.00540296
0.00537098
0.00487834
0.00359144
0.000934399
-0.00260826
-0.00660523
-0.0103181
-0.012854
-0.0130575
-0.0124147
-0.0110794
-0.00912968
-0.00682904
-0.00443522
-0.00210497
)
;
    }
    front
    {
        type            empty;
    }
    back
    {
        type            empty;
    }
    procBoundary0to1
    {
        type            processor;
        value           nonuniform List<scalar> 8(0.000836295 0.000512531 -3.53285e-05 -0.000848223 0.00321421 0.00288986 0.00256589 0.0024723);
    }
}


// ************************************************************************* //
