/*--------------------------------*- C++ -*----------------------------------*\
| =========                 |                                                 |
| \\      /  F ield         | OpenFOAM: The Open Source CFD Toolbox           |
|  \\    /   O peration     | Version:  2.3.1                                 |
|   \\  /    A nd           | Web:      www.OpenFOAM.org                      |
|    \\/     M anipulation  |                                                 |
\*---------------------------------------------------------------------------*/
FoamFile
{
    version     2.0;
    format      ascii;
    class       surfaceScalarField;
    location    "0.7";
    object      phi;
}
// * * * * * * * * * * * * * * * * * * * * * * * * * * * * * * * * * * * * * //

dimensions      [0 3 -1 0 0 0 0];

internalField   nonuniform List<scalar> 
1460
(
-9.32788e-07
-9.09622e-07
7.88006e-07
-1.04104e-06
-7.54723e-07
-1.11622e-06
-5.91322e-07
-1.15441e-06
-4.12366e-07
-1.14981e-06
-2.20806e-07
-1.12205e-06
-3.66669e-08
-1.14352e-06
1.21526e-07
-1.20122e-06
3.2491e-07
-1.20219e-06
5.58734e-07
-1.05757e-06
7.77874e-07
-7.2923e-07
9.48207e-07
1.12191e-06
-2.67897e-07
-5.78907e-07
-7.88682e-07
4.57968e-07
-6.69236e-07
-6.64394e-07
-7.3344e-07
-5.27118e-07
-7.71928e-07
-3.73877e-07
-7.85383e-07
-2.07352e-07
-7.88298e-07
-3.37518e-08
-8.2898e-07
1.62209e-07
-9.27178e-07
4.23107e-07
-1.03854e-06
6.70098e-07
-1.02381e-06
7.63142e-07
-7.48444e-07
6.72842e-07
5.77179e-07
-2.03713e-07
-3.32323e-07
-6.84147e-07
2.27787e-07
-4.14242e-07
-5.82475e-07
-4.76102e-07
-4.65258e-07
-5.19542e-07
-3.30437e-07
-5.46834e-07
-1.80059e-07
-5.6386e-07
-1.67257e-08
-5.82192e-07
1.80541e-07
-6.22536e-07
4.63451e-07
-7.19594e-07
7.67155e-07
-8.0951e-07
8.53058e-07
-7.05937e-07
5.69268e-07
9.64461e-08
-2.25204e-07
-2.09761e-07
1.19913e-07
-5.94299e-07
-2.84894e-07
-5.07342e-07
-3.44637e-07
-4.05515e-07
-3.8954e-07
-2.85535e-07
-4.19709e-07
-1.49891e-07
-4.36721e-07
2.86634e-10
-4.37034e-07
1.80854e-07
-4.06134e-07
4.32551e-07
-3.73412e-07
7.34433e-07
-3.79907e-07
8.59553e-07
-3.32343e-07
5.21705e-07
-1.91883e-08
-2.16709e-07
1.46324e-07
1.44903e-06
4.9149e-07
1.67861e-06
8.21896e-07
1.47203e-06
1.06034e-06
9.67948e-07
1.07297e-06
2.85999e-07
9.1815e-07
-3.27912e-07
6.76102e-07
-7.69219e-07
3.5855e-07
-1.05727e-06
1.70606e-08
-1.20372e-06
-3.05481e-07
-1.23179e-06
-5.76954e-07
-1.17545e-06
-1.05799e-06
-7.83986e-07
2.75733e-07
9.6958e-07
5.7356e-07
1.38078e-06
8.12567e-07
1.23302e-06
9.77633e-07
8.02882e-07
9.77556e-07
2.86077e-07
8.46382e-07
-1.96739e-07
6.39842e-07
-5.62679e-07
3.94244e-07
-8.11673e-07
1.42558e-07
-9.52031e-07
-8.83402e-08
-1.00089e-06
-2.92939e-07
-9.7085e-07
-8.94847e-07
-4.56078e-07
1.75771e-07
5.68605e-07
4.44754e-07
1.1118e-06
6.21227e-07
1.05655e-06
7.53082e-07
6.71028e-07
7.75957e-07
2.63202e-07
7.01861e-07
-1.22643e-07
5.65958e-07
-4.26776e-07
3.98173e-07
-6.43889e-07
2.20726e-07
-7.74583e-07
4.93722e-08
-8.29541e-07
-1.01833e-07
-8.19645e-07
-7.64817e-07
-2.31863e-07
1.06018e-07
4.43399e-07
2.9594e-07
9.21879e-07
4.62798e-07
8.89689e-07
5.74071e-07
5.59754e-07
6.08319e-07
2.28955e-07
5.67516e-07
-8.18406e-08
4.76666e-07
-3.35927e-07
3.58171e-07
-5.25393e-07
2.27876e-07
-6.44289e-07
9.85655e-08
-7.0023e-07
-1.87909e-08
-7.02289e-07
-1.24526e-07
-6.59082e-07
-9.37287e-07
-9.08201e-07
-1.04903e-06
-7.46299e-07
-1.12329e-06
-5.78696e-07
-1.15812e-06
-4.02744e-07
-1.15052e-06
-2.16791e-07
-1.12154e-06
-3.63039e-08
-1.14292e-06
1.21018e-07
-1.20104e-06
3.24448e-07
-1.2025e-06
5.58568e-07
-1.05829e-06
7.78329e-07
-7.30391e-07
9.49546e-07
1.12398e-06
-5.81135e-07
-7.83145e-07
-6.73575e-07
-6.53858e-07
-7.3715e-07
-5.15122e-07
-7.73848e-07
-3.66046e-07
-7.8571e-07
-2.04929e-07
-7.87989e-07
-3.40248e-08
-8.28681e-07
1.6171e-07
-9.27239e-07
4.23005e-07
-1.03901e-06
6.70339e-07
-1.0245e-06
7.6382e-07
-7.49254e-07
6.74299e-07
5.79481e-07
-3.35987e-07
-6.7902e-07
-4.16555e-07
-5.7329e-07
-4.77013e-07
-4.54664e-07
-5.19518e-07
-3.23541e-07
-5.46457e-07
-1.7799e-07
-5.63536e-07
-1.69464e-08
-5.82167e-07
1.80342e-07
-6.2289e-07
4.63728e-07
-7.20396e-07
7.67845e-07
-8.10573e-07
8.53997e-07
-7.06945e-07
5.70671e-07
9.87798e-08
-2.13632e-07
-5.89915e-07
-2.8625e-07
-5.00671e-07
-3.44285e-07
-3.96629e-07
-3.88482e-07
-2.79344e-07
-4.1885e-07
-1.47622e-07
-4.36482e-07
6.85681e-10
-4.37205e-07
1.81065e-07
-4.0659e-07
4.33113e-07
-3.74196e-07
7.35451e-07
-3.81045e-07
8.60846e-07
-3.3356e-07
5.23186e-07
-2.14792e-07
1.4816e-07
1.45356e-06
4.93349e-07
1.68152e-06
8.23281e-07
1.47257e-06
1.06057e-06
9.66428e-07
1.07095e-06
2.83353e-07
9.15265e-07
-3.28977e-07
6.72351e-07
-7.68425e-07
3.54129e-07
-1.05416e-06
1.20122e-08
-1.19802e-06
-3.12721e-07
-1.22313e-06
-5.85143e-07
-1.1665e-06
-1.05438e-06
2.78514e-07
9.74292e-07
5.76294e-07
1.38374e-06
8.14624e-07
1.23424e-06
9.78428e-07
8.02625e-07
9.7687e-07
2.84911e-07
8.44998e-07
-1.97105e-07
6.38007e-07
-5.61434e-07
3.92128e-07
-8.08285e-07
1.40094e-07
-9.45989e-07
-9.12018e-08
-9.91831e-07
-2.95297e-07
-9.624e-07
-8.91708e-07
1.78834e-07
5.73672e-07
4.4797e-07
1.1146e-06
6.23727e-07
1.05848e-06
7.54562e-07
6.71789e-07
7.76398e-07
2.63076e-07
7.01707e-07
-1.22415e-07
5.6554e-07
-4.25267e-07
3.97731e-07
-6.40476e-07
2.20558e-07
-7.68816e-07
5.01782e-08
-8.21451e-07
-9.95623e-08
-8.1266e-07
-7.63484e-07
1.08508e-07
4.48106e-07
2.98441e-07
9.2467e-07
4.6487e-07
8.9205e-07
5.75604e-07
5.61056e-07
6.0914e-07
2.2954e-07
5.6783e-07
-8.11044e-08
4.7686e-07
-3.34296e-07
3.58575e-07
-5.22191e-07
2.29078e-07
-6.39319e-07
1.01176e-07
-6.9355e-07
-1.53904e-08
-6.96093e-07
-6.58961e-07
-1.67491e-07
-5.15156e-07
8.83481e-08
-2.34606e-07
-4.40227e-07
-2.89635e-07
-3.50486e-07
-3.31221e-07
-2.43949e-07
-3.58134e-07
-1.22978e-07
-3.69362e-07
1.15147e-08
-3.58178e-07
1.6967e-07
-2.98644e-07
3.73016e-07
-1.77004e-07
6.12794e-07
-4.86065e-08
7.31155e-07
3.55319e-08
4.37566e-07
-1.81177e-07
-1.49686e-07
-4.44765e-07
7.92945e-08
-2.09522e-07
-3.80391e-07
-2.58475e-07
-3.01533e-07
-2.94618e-07
-2.07806e-07
-3.16781e-07
-1.00814e-07
-3.22491e-07
1.72247e-08
-3.05516e-07
1.52695e-07
-2.46639e-07
3.14139e-07
-1.24401e-07
4.90556e-07
2.74358e-08
5.79318e-07
9.4975e-08
3.70027e-07
-8.62018e-08
-1.32384e-07
-3.81233e-07
6.88516e-08
-1.86421e-07
-3.26354e-07
-2.3005e-07
-2.57903e-07
-2.61627e-07
-1.76229e-07
-2.79242e-07
-8.31993e-08
-2.81547e-07
1.95299e-08
-2.62624e-07
1.33772e-07
-2.10019e-07
2.61534e-07
-1.10644e-07
3.91181e-07
2.0865e-08
4.4781e-07
8.52449e-08
3.05647e-07
-9.56926e-10
-1.15344e-07
-3.24114e-07
5.82254e-08
-1.64253e-07
-2.77445e-07
-2.03689e-07
-2.18467e-07
-2.31528e-07
-1.4839e-07
-2.46304e-07
-6.84235e-08
-2.46212e-07
1.94385e-08
-2.27363e-07
1.14923e-07
-1.81391e-07
2.15562e-07
-1.01261e-07
3.11051e-07
-1.95095e-09
3.48499e-07
4.71603e-08
2.56536e-07
4.62034e-08
-1.01765e-07
-2.72194e-07
4.98446e-08
-1.46186e-07
-2.33024e-07
-1.8143e-07
-1.83223e-07
-2.06278e-07
-1.23542e-07
-2.18834e-07
-5.58679e-08
-2.17351e-07
1.79554e-08
-1.99295e-07
9.68673e-08
-1.59485e-07
1.75752e-07
-9.46872e-08
2.46253e-07
-1.63087e-08
2.70121e-07
2.56042e-08
2.14623e-07
7.18075e-08
-9.05465e-08
-2.24508e-07
4.28606e-08
-1.31344e-07
-1.92226e-07
-1.63622e-07
-1.50944e-07
-1.85786e-07
-1.01379e-07
-1.96402e-07
-4.52519e-08
-1.94315e-07
1.58686e-08
-1.77114e-07
7.96666e-08
-1.42685e-07
1.41322e-07
-9.00927e-08
1.93661e-07
-2.91302e-08
2.09158e-07
7.4581e-09
1.78035e-07
7.92656e-08
-8.13293e-08
-1.80204e-07
3.7025e-08
-1.18956e-07
-1.54599e-07
-1.48653e-07
-1.21248e-07
-1.69141e-07
-8.089e-08
-1.78679e-07
-3.57143e-08
-1.75964e-07
1.31539e-08
-1.59968e-07
6.36707e-08
-1.29777e-07
1.1113e-07
-8.61405e-08
1.50025e-07
-3.75212e-08
1.60539e-07
-3.71464e-09
1.44228e-07
7.5551e-08
-7.3708e-08
-1.39199e-07
3.27027e-08
-1.08958e-07
-1.19349e-07
-1.36794e-07
-9.34126e-08
-1.5562e-07
-6.20639e-08
-1.64007e-07
-2.73268e-08
-1.61089e-07
1.02354e-08
-1.46318e-07
4.89002e-08
-1.19396e-07
8.42078e-08
-8.2139e-08
1.12768e-07
-4.17097e-08
1.20109e-07
-9.69892e-09
1.12217e-07
6.5852e-08
-6.71776e-08
-1.01068e-07
2.90475e-08
-1.00037e-07
-8.64892e-08
-1.25575e-07
-6.78745e-08
-1.42821e-07
-4.48182e-08
-1.50499e-07
-1.96494e-08
-1.47804e-07
7.54124e-09
-1.34224e-07
3.53195e-08
-1.10165e-07
6.01488e-08
-7.75151e-08
8.01187e-08
-4.27379e-08
8.53322e-08
-1.28165e-08
8.22959e-08
5.30356e-08
-5.78117e-08
-6.61321e-08
2.28752e-08
-8.84775e-08
-5.58234e-08
-1.12843e-07
-4.35085e-08
-1.29189e-07
-2.84722e-08
-1.36702e-07
-1.21366e-08
-1.34669e-07
5.50853e-09
-1.22814e-07
2.34644e-08
-1.01455e-07
3.87897e-08
-7.27746e-08
5.1438e-08
-4.21241e-08
5.46817e-08
-1.43815e-08
5.45532e-08
3.86541e-08
-5.06927e-08
-3.15469e-08
1.61075e-08
-8.04276e-08
-2.60885e-08
-1.048e-07
-1.91365e-08
-1.21392e-07
-1.188e-08
-1.29815e-07
-3.71322e-09
-1.28822e-07
4.51555e-09
-1.18269e-07
1.29108e-08
-9.91392e-08
1.96602e-08
-7.3162e-08
2.54607e-08
-4.50028e-08
2.65225e-08
-1.75302e-08
2.70806e-08
2.11238e-08
-7.6456e-08
4.49091e-08
-1.02544e-07
-1.21681e-07
-1.33561e-07
-1.37274e-07
-1.32759e-07
-1.19848e-07
-1.00188e-07
-7.47269e-08
-4.82044e-08
-2.11238e-08
2.57263e-08
4.17672e-07
1.95514e-07
7.52091e-07
3.61454e-07
7.23749e-07
4.56439e-07
4.6477e-07
4.89261e-07
1.96132e-07
4.62522e-07
-5.51014e-08
3.96127e-07
-2.69532e-07
3.04232e-07
-4.33498e-07
2.00819e-07
-5.40876e-07
9.52781e-08
-5.94689e-07
-4.88817e-09
-6.02122e-07
-5.70315e-07
-9.3655e-08
1.338e-08
4.04292e-07
1.47649e-07
6.17822e-07
2.93674e-07
5.77725e-07
3.77845e-07
3.80598e-07
4.06469e-07
1.67508e-07
3.88603e-07
-3.7235e-08
3.36395e-07
-2.17324e-07
2.61062e-07
-3.58165e-07
1.73821e-07
-4.53636e-07
8.32627e-08
-5.04131e-07
-4.06568e-09
-5.14794e-07
-4.90859e-07
-8.35214e-08
2.78499e-08
3.76443e-07
1.32033e-07
5.13639e-07
2.48786e-07
4.60972e-07
3.19877e-07
3.09507e-07
3.44728e-07
1.42656e-07
3.33071e-07
-2.5578e-08
2.9127e-07
-1.75523e-07
2.28971e-07
-2.95866e-07
1.54389e-07
-3.79054e-07
7.56383e-08
-4.2538e-07
-1.59707e-09
-4.37559e-07
-4.19489e-07
-7.29674e-08
3.87166e-08
3.37726e-07
1.25539e-07
4.26817e-07
2.16828e-07
3.69683e-07
2.74346e-07
2.5199e-07
2.9666e-07
1.20342e-07
2.88659e-07
-1.75772e-08
2.55238e-07
-1.42101e-07
2.03187e-07
-2.43815e-07
1.39517e-07
-3.15384e-07
7.06947e-08
-3.56557e-07
2.18264e-09
-3.69047e-07
-3.55907e-07
-6.13992e-08
4.39361e-08
2.9379e-07
1.18646e-07
3.52106e-07
1.91247e-07
2.97082e-07
2.38312e-07
2.04925e-07
2.58616e-07
1.00038e-07
2.53191e-07
-1.21516e-08
2.2608e-07
-1.14991e-07
1.81939e-07
-1.99675e-07
1.2687e-07
-2.60315e-07
6.63365e-08
-2.96023e-07
5.18167e-09
-3.07892e-07
-2.98424e-07
-5.2301e-08
4.51501e-08
2.4864e-07
1.10538e-07
2.86718e-07
1.70185e-07
2.37435e-07
2.0998e-07
1.6513e-07
2.28488e-07
8.15304e-08
2.25112e-07
-8.77585e-09
2.02481e-07
-9.23594e-08
1.64497e-07
-1.61691e-07
1.16234e-07
-2.12052e-07
6.23133e-08
-2.42103e-07
7.16063e-09
-2.52739e-07
-2.4559e-07
-4.56732e-08
4.41637e-08
2.04476e-07
1.02186e-07
2.28696e-07
1.53013e-07
1.86608e-07
1.87728e-07
1.30415e-07
2.04829e-07
6.44293e-08
2.02804e-07
-6.7508e-09
1.83572e-07
-7.31274e-08
1.50363e-07
-1.28482e-07
1.07353e-07
-1.69042e-07
5.87488e-08
-1.93498e-07
8.4861e-09
-2.02476e-07
-1.97038e-07
-4.00666e-08
4.20974e-08
1.62379e-07
9.42433e-08
1.7655e-07
1.38894e-07
1.41957e-07
1.70027e-07
9.9283e-08
1.85891e-07
4.85648e-08
1.84843e-07
-5.70304e-09
1.68212e-07
-5.64957e-08
1.387e-07
-9.89707e-08
9.98471e-08
-1.30189e-07
5.55388e-08
-1.4919e-07
9.3135e-09
-1.56251e-07
-1.52237e-07
-3.54874e-08
3.93403e-08
1.23038e-07
8.65505e-08
1.2934e-07
1.26534e-07
1.01973e-07
1.54975e-07
7.08419e-08
1.6984e-07
3.36998e-08
1.69525e-07
-5.38812e-09
1.54956e-07
-4.1927e-08
1.28491e-07
-7.25056e-08
9.32114e-08
-9.49092e-08
5.26534e-08
-1.08632e-07
1.00693e-08
-1.13667e-07
-1.11041e-07
-3.11267e-08
3.69522e-08
8.60862e-08
8.01303e-08
8.61619e-08
1.16359e-07
6.57443e-08
1.42585e-07
4.46163e-08
1.56651e-07
1.96339e-08
1.56932e-07
-5.66962e-09
1.44352e-07
-2.93471e-08
1.20757e-07
-4.89103e-08
8.90595e-08
-6.32116e-08
5.21688e-08
-7.17414e-08
1.31379e-08
-7.4636e-08
-7.25805e-08
-2.53223e-08
3.9903e-08
4.61832e-08
8.29291e-08
4.31359e-08
1.17467e-07
3.12062e-08
1.42315e-07
1.97687e-08
1.5543e-07
6.51835e-09
1.55725e-07
-5.964e-09
1.43982e-07
-1.76048e-08
1.2184e-07
-2.67679e-08
9.17836e-08
-3.31552e-08
5.6585e-08
-3.65428e-08
1.89625e-08
-3.70135e-08
-3.60058e-08
-1.76122e-08
4.61832e-08
8.9319e-08
1.20525e-07
1.40294e-07
1.46812e-07
1.40848e-07
1.23243e-07
9.64756e-08
6.33204e-08
2.67776e-08
-1.02359e-08
-4.62417e-08
-1.71048e-07
-5.12521e-07
-2.36337e-07
-4.35383e-07
-2.8963e-07
-3.43336e-07
-3.30416e-07
-2.38558e-07
-3.57498e-07
-1.2054e-07
-3.69314e-07
1.2502e-08
-3.58496e-07
1.70247e-07
-2.99126e-07
3.73743e-07
-1.77585e-07
6.1391e-07
-4.92632e-08
7.32525e-07
3.5042e-08
4.38881e-07
-1.7975e-07
-1.53071e-07
-4.42972e-07
-2.11805e-07
-3.76649e-07
-2.59216e-07
-2.95924e-07
-2.94479e-07
-2.03296e-07
-3.16615e-07
-9.84033e-08
-3.22638e-07
1.85244e-08
-3.05918e-07
1.53527e-07
-2.47134e-07
3.14959e-07
-1.24872e-07
4.91648e-07
2.69801e-08
5.80672e-07
9.46637e-08
3.71197e-07
-8.50861e-08
-1.3583e-07
-3.80109e-07
-1.88951e-07
-3.23528e-07
-2.3131e-07
-2.53566e-07
-2.62078e-07
-1.72528e-07
-2.79512e-07
-8.0969e-08
-2.81869e-07
2.0881e-08
-2.63101e-07
1.34759e-07
-2.10516e-07
2.62374e-07
-1.11065e-07
3.92197e-07
2.05658e-08
4.49042e-07
8.50672e-08
3.06696e-07
-1.88773e-11
-1.18569e-07
-3.2294e-07
-1.66958e-07
-2.75138e-07
-2.05258e-07
-2.15265e-07
-2.32359e-07
-1.45427e-07
-2.46857e-07
-6.64704e-08
-2.46709e-07
2.07332e-08
-2.27848e-07
1.15898e-07
-1.81867e-07
2.16393e-07
-1.01639e-07
3.11969e-07
-2.1306e-09
3.49533e-07
4.70944e-08
2.57471e-07
4.70755e-08
-1.04116e-07
-2.71125e-07
-1.48157e-07
-2.31098e-07
-1.82891e-07
-1.80531e-07
-2.07124e-07
-1.21195e-07
-2.1953e-07
-5.40642e-08
-2.17939e-07
1.91429e-08
-1.99837e-07
9.77957e-08
-1.59959e-07
1.76515e-07
-9.50486e-08
2.47059e-07
-1.65176e-08
2.71002e-07
2.5504e-08
2.15449e-07
7.25795e-08
-9.30981e-08
-2.237e-07
-1.335e-07
-1.90697e-07
-1.65228e-07
-1.48803e-07
-1.86978e-07
-9.94446e-08
-1.97237e-07
-4.38049e-08
-1.94971e-07
1.68771e-08
-1.77695e-07
8.05195e-08
-1.43161e-07
1.41981e-07
-9.04398e-08
1.94337e-07
-2.93562e-08
2.09919e-07
7.34736e-09
1.78746e-07
7.99269e-08
-8.39295e-08
-1.79837e-07
-1.2133e-07
-1.53296e-07
-1.50447e-07
-1.19686e-07
-1.70251e-07
-7.96408e-08
-1.79611e-07
-3.44451e-08
-1.76656e-07
1.39223e-08
-1.60548e-07
6.44108e-08
-1.30269e-07
1.11702e-07
-8.65094e-08
1.50578e-07
-3.77581e-08
1.61168e-07
-3.81933e-09
1.44807e-07
7.61076e-08
-7.63347e-08
-1.38989e-07
-1.10977e-07
-1.18654e-07
-1.38213e-07
-9.24495e-08
-1.56861e-07
-6.09929e-08
-1.64824e-07
-2.6482e-08
-1.61842e-07
1.09398e-08
-1.4688e-07
4.9449e-08
-1.19876e-07
8.46976e-08
-8.25084e-08
1.13211e-07
-4.19424e-08
1.20602e-07
-9.81252e-09
1.12677e-07
6.6295e-08
-6.90598e-08
-1.01056e-07
-1.01838e-07
-8.58759e-08
-1.2726e-07
-6.7027e-08
-1.44043e-07
-4.42107e-08
-1.51486e-07
-1.9039e-08
-1.48587e-07
8.04128e-09
-1.34822e-07
3.56839e-08
-1.10647e-07
6.05224e-08
-7.79265e-08
8.04904e-08
-4.29769e-08
8.5652e-08
-1.29328e-08
8.2633e-08
5.33622e-08
-6.02951e-08
-6.60837e-08
-9.036e-08
-5.58109e-08
-1.14448e-07
-4.29389e-08
-1.30398e-07
-2.82605e-08
-1.37694e-07
-1.17434e-08
-1.35451e-07
5.79797e-09
-1.23449e-07
2.36822e-08
-1.01932e-07
3.90051e-08
-7.31265e-08
5.16854e-08
-4.23575e-08
5.4883e-08
-1.44962e-08
5.47717e-08
3.8866e-08
-5.24778e-08
-3.12181e-08
-8.22632e-08
-2.60256e-08
-1.06096e-07
-1.91064e-08
-1.22696e-07
-1.166e-08
-1.30802e-07
-3.63774e-09
-1.29614e-07
4.6106e-09
-1.18895e-07
1.29626e-08
-9.96564e-08
1.97667e-08
-7.35137e-08
2.55427e-08
-4.52437e-08
2.6613e-08
-1.76461e-08
2.71741e-08
2.12199e-08
-7.74598e-08
-1.03485e-07
-1.22592e-07
-1.34252e-07
-1.3789e-07
-1.33279e-07
-1.20316e-07
-1.0055e-07
-7.5007e-08
-4.8394e-08
-2.12199e-08
2.73229e-08
4.20783e-07
1.97379e-07
7.54614e-07
3.63205e-07
7.26224e-07
4.57815e-07
4.66446e-07
4.90149e-07
1.97205e-07
4.63057e-07
-5.40124e-08
3.96638e-07
-2.67877e-07
3.0508e-07
-4.30633e-07
2.02625e-07
-5.36863e-07
9.87154e-08
-5.89641e-07
3.39798e-10
-5.97717e-07
-5.70273e-07
1.43869e-08
4.06396e-07
1.48787e-07
6.20215e-07
2.94974e-07
5.80036e-07
3.79086e-07
3.82335e-07
4.07469e-07
1.68822e-07
3.89478e-07
-3.6021e-08
3.37163e-07
-2.15562e-07
2.62354e-07
-3.55824e-07
1.75654e-07
-4.50163e-07
8.64531e-08
-5.0044e-07
3.06265e-10
-5.11571e-07
-4.90673e-07
2.83046e-08
3.78091e-07
1.32824e-07
5.15695e-07
2.49831e-07
4.6303e-07
3.21005e-07
3.11161e-07
3.45841e-07
1.43986e-07
3.34084e-07
-2.42638e-08
2.92392e-07
-1.7387e-07
2.30318e-07
-2.9375e-07
1.56466e-07
-3.76311e-07
7.84812e-08
-4.22456e-07
2.08793e-09
-4.35177e-07
-4.19733e-07
3.89743e-08
3.39117e-07
1.2613e-07
4.28539e-07
2.1773e-07
3.71429e-07
2.75402e-07
2.53489e-07
2.97804e-07
1.21584e-07
2.89766e-07
-1.62255e-08
2.56564e-07
-1.40669e-07
2.04709e-07
-2.41895e-07
1.4158e-07
-3.13182e-07
7.33922e-08
-3.54267e-07
5.46249e-09
-3.67248e-07
-3.56045e-07
4.41657e-08
2.94951e-07
1.19152e-07
3.53553e-07
1.92021e-07
2.9856e-07
2.39295e-07
2.06215e-07
2.59696e-07
1.01183e-07
2.54362e-07
-1.08912e-08
2.27445e-07
-1.13752e-07
1.83583e-07
-1.98033e-07
1.28966e-07
-2.58565e-07
6.89048e-08
-2.94206e-07
8.16022e-09
-3.06503e-07
-2.98041e-07
4.53663e-08
2.49585e-07
1.11011e-07
2.87908e-07
1.70938e-07
2.38633e-07
2.10914e-07
1.66239e-07
2.29576e-07
8.25212e-08
2.26361e-07
-7.6764e-09
2.0386e-07
-9.12507e-08
1.66182e-07
-1.60355e-07
1.18264e-07
-2.10647e-07
6.477e-08
-2.40712e-07
9.94634e-09
-2.51679e-07
-2.45234e-07
4.43535e-08
2.05232e-07
1.02622e-07
2.29639e-07
1.53698e-07
1.87558e-07
1.88631e-07
1.31305e-07
2.05869e-07
6.52834e-08
2.04015e-07
-5.82268e-09
1.85019e-07
-7.22546e-08
1.5208e-07
-1.27415e-07
1.09359e-07
-1.67926e-07
6.11e-08
-1.92453e-07
1.11288e-08
-2.01708e-07
-1.9708e-07
4.22838e-08
1.62948e-07
9.46525e-08
1.7727e-07
1.39536e-07
1.42675e-07
1.70842e-07
9.99996e-08
1.86923e-07
4.92019e-08
1.86091e-07
-4.99001e-09
1.69643e-07
-5.58067e-08
1.40381e-07
-9.81542e-08
1.01855e-07
-1.294e-07
5.77955e-08
-1.48393e-07
1.18033e-08
-1.55716e-07
-1.52574e-07
3.9525e-08
1.23423e-07
8.69458e-08
1.2985e-07
1.27143e-07
1.02477e-07
1.558e-07
7.13433e-08
1.70848e-07
3.41539e-08
1.70754e-07
-4.89568e-09
1.56366e-07
-4.14196e-08
1.30149e-07
-7.19363e-08
9.51781e-08
-9.44299e-08
5.4832e-08
-1.08047e-07
1.23902e-08
-1.13274e-07
-1.11136e-07
3.71209e-08
8.63019e-08
8.05108e-08
8.64598e-08
1.16952e-07
6.60353e-08
1.43387e-07
4.49084e-08
1.57636e-07
1.99054e-08
1.58144e-07
-5.40373e-09
1.45749e-07
-2.90247e-08
1.22421e-07
-4.8608e-08
9.09e-08
-6.29093e-08
5.42449e-08
-7.13915e-08
1.53073e-08
-7.43366e-08
-7.29537e-08
4.00471e-08
4.62547e-08
8.32657e-08
4.32413e-08
1.17986e-07
3.1315e-08
1.43023e-07
1.98718e-08
1.56311e-07
6.61742e-09
1.56768e-07
-5.86081e-09
1.45236e-07
-1.74929e-08
1.23302e-07
-2.66738e-08
9.3418e-08
-3.30254e-08
5.84334e-08
-3.64069e-08
2.08115e-08
-3.67148e-08
-3.60347e-08
4.62547e-08
8.9496e-08
1.20811e-07
1.40683e-07
1.473e-07
1.41439e-07
1.23946e-07
9.72726e-08
6.42472e-08
2.78404e-08
-8.87441e-09
)
;

boundaryField
{
    rotor
    {
        type            calculated;
        value           nonuniform 0();
    }
    stator
    {
        type            calculated;
        value           nonuniform List<scalar> 
96
(
1.88329e-58
0
-3.91205e-35
0
0
1.20371e-35
0
-1.80556e-35
4.81482e-35
0
-1.56709e-34
1.20371e-35
-2.12925e-35
2.40741e-35
4.81482e-35
0
0
3.00927e-35
0
-3.00927e-36
3.00927e-35
0
-2.89073e-35
1.32684e-35
3.29423e-35
0
-6.32515e-35
0
-6.01853e-36
-1.22647e-35
7.22224e-35
-6.24621e-36
5.99576e-35
0
9.62965e-35
2.38464e-35
1.20371e-35
6.0413e-35
0
8.87733e-35
-1.80556e-35
-6.92131e-35
-2.0951e-35
4.06251e-35
0
-5.11575e-35
0
1.88329e-58
0
-9.0278e-36
0
0
9.0278e-36
-6.01853e-36
0
1.80556e-35
0
0
0
0
0
9.0278e-36
0
0
-9.0278e-36
0
0
-1.80556e-35
-1.20371e-35
0
0
0
0
-6.01853e-36
0
-6.01853e-36
0
0
9.0278e-36
0
0
0
0
1.80556e-35
0
9.0278e-36
0
0
-9.0278e-36
6.01853e-36
0
-1.80556e-35
0
0
0
0
)
;
    }
    AMI1
    {
        type            cyclicAMI;
        value           nonuniform 0();
    }
    AMI2
    {
        type            cyclicAMI;
        value           nonuniform List<scalar> 
48
(
1.05622e-06
8.62974e-07
6.66505e-07
4.50559e-07
2.16204e-07
8.90492e-09
-1.0006e-07
-2.67211e-07
-5.57755e-07
-9.22496e-07
-1.27655e-06
-1.58324e-06
-1.86325e-06
-2.02378e-06
-1.80243e-06
-1.2064e-06
-2.98629e-07
4.82737e-07
1.01127e-06
1.37482e-06
1.54521e-06
1.55433e-06
1.44692e-06
1.26502e-06
1.0615e-06
8.58039e-07
6.5296e-07
4.37575e-07
2.09192e-07
7.32235e-09
-9.96367e-08
-2.6633e-07
-5.57105e-07
-9.22542e-07
-1.27745e-06
-1.58485e-06
-1.86771e-06
-2.02671e-06
-1.8025e-06
-1.20372e-06
-2.93736e-07
4.84664e-07
1.01134e-06
1.37239e-06
1.54014e-06
1.54786e-06
1.43892e-06
1.25724e-06
)
;
    }
    front
    {
        type            empty;
        value           nonuniform 0();
    }
    back
    {
        type            empty;
        value           nonuniform 0();
    }
    procBoundary0to1
    {
        type            processor;
        value           nonuniform List<scalar> 8(-2.6952e-07 -2.04756e-07 -2.26244e-07 -1.99888e-08 2.6599e-07 2.00753e-07 2.21786e-07 1.70586e-08);
    }
}


// ************************************************************************* //
