/*--------------------------------*- C++ -*----------------------------------*\
| =========                 |                                                 |
| \\      /  F ield         | OpenFOAM: The Open Source CFD Toolbox           |
|  \\    /   O peration     | Version:  2.3.1                                 |
|   \\  /    A nd           | Web:      www.OpenFOAM.org                      |
|    \\/     M anipulation  |                                                 |
\*---------------------------------------------------------------------------*/
FoamFile
{
    version     2.0;
    format      ascii;
    class       volVectorField;
    location    "0.7";
    object      U;
}
// * * * * * * * * * * * * * * * * * * * * * * * * * * * * * * * * * * * * * //

dimensions      [0 1 -1 0 0 0 0];

internalField   nonuniform List<vector> 
768
(
(-0.0222466 0.0355616 -7.04055e-23)
(-0.0149873 0.0414724 2.737e-21)
(-0.00727857 0.0451458 1.2166e-20)
(0.000717562 0.0466674 0)
(0.00838765 0.0457762 -4.46534e-20)
(0.0146478 0.0429949 -9.99096e-21)
(0.0202101 0.0401969 4.86242e-20)
(0.0277824 0.0383141 0)
(0.0378179 0.0348391 3.38422e-20)
(0.0457467 0.025572 -1.48079e-20)
(0.0465095 0.0094717 1.47972e-20)
(0.0401694 -0.0106659 4.42739e-20)
(-0.019681 0.0217398 -2.95558e-22)
(-0.014531 0.0267063 1.66608e-21)
(-0.00880458 0.030036 -1.05025e-20)
(-0.00256735 0.0316041 0)
(0.00387723 0.0314273 2.78563e-20)
(0.0101511 0.0297887 -3.18142e-20)
(0.0165005 0.0276061 -1.56871e-20)
(0.0240774 0.025942 7.02161e-23)
(0.0328664 0.0263436 -1.51561e-20)
(0.0394989 0.0260134 0)
(0.0378292 0.0181359 0)
(0.0273535 0.00117238 3.36802e-20)
(-0.016482 0.011891 0)
(-0.0128046 0.0163921 -2.19401e-21)
(-0.00839653 0.0194933 8.4733e-21)
(-0.0034366 0.0212735 5.8681e-21)
(0.00182987 0.0217483 -3.95087e-20)
(0.00717638 0.0210834 2.04303e-20)
(0.0130504 0.0192775 -4.07824e-20)
(0.0203309 0.0157452 1.40093e-20)
(0.028019 0.0130109 -7.24458e-22)
(0.0334872 0.0156605 -1.6247e-21)
(0.0310107 0.0177462 -5.15429e-20)
(0.0185553 0.00987082 -3.29536e-20)
(-0.0138959 0.00715956 0)
(-0.0110141 0.0110988 2.84274e-21)
(-0.00746314 0.0140112 0)
(-0.00332551 0.0158704 1.72725e-20)
(0.00118585 0.0165769 0)
(0.00588005 0.0161712 1.08522e-20)
(0.010993 0.0144635 5.1275e-20)
(0.0169758 0.0103098 -1.26948e-20)
(0.0225609 0.00353861 0)
(0.0250074 0.000650936 0)
(0.0195927 0.00496686 -6.25339e-21)
(0.00161668 0.00677817 8.34516e-21)
(0.0312418 -0.0308544 1.20349e-20)
(0.0199081 -0.0441548 1.35825e-20)
(0.00197954 -0.0474383 -8.52518e-20)
(-0.0189191 -0.0417302 8.70087e-20)
(-0.0356797 -0.0267746 1.15306e-20)
(-0.0428295 -0.00713268 6.96914e-20)
(-0.0401364 0.0110704 1.02066e-19)
(-0.0303419 0.0249991 7.04328e-20)
(-0.0159044 0.0333348 -2.91528e-20)
(0.000103549 0.035986 0)
(0.0148466 0.0340673 0)
(0.0267731 0.029054 4.66387e-21)
(0.0174143 -0.0226774 0)
(0.00922081 -0.0395257 0)
(-0.00333857 -0.0423805 6.96029e-20)
(-0.0194184 -0.0376938 -2.6081e-20)
(-0.0320251 -0.0256071 -2.68042e-20)
(-0.0367499 -0.0104238 -9.90654e-21)
(-0.0341756 0.00335742 -7.79705e-20)
(-0.0266764 0.014298 -3.60311e-20)
(-0.0164539 0.0217291 0)
(-0.00526792 0.0255391 0)
(0.00539993 0.025944 1.07115e-21)
(0.0145176 0.0236915 -4.03255e-21)
(0.0117064 -0.0116613 0)
(0.00707224 -0.0307844 1.07936e-20)
(-0.00219176 -0.0332589 4.3551e-20)
(-0.0149735 -0.0286377 -7.50016e-20)
(-0.0248325 -0.0200091 -9.02412e-20)
(-0.029168 -0.00923744 -3.00379e-20)
(-0.0283572 0.0013232 3.36156e-20)
(-0.0237709 0.0100703 3.67294e-20)
(-0.0168718 0.0162471 -3.65202e-20)
(-0.00890622 0.0196899 0)
(-0.00089837 0.0204509 -9.51346e-22)
(0.00624996 0.0192056 -1.49502e-21)
(0.00504109 -0.00795318 1.67788e-20)
(0.00836883 -0.0218003 3.3697e-20)
(-0.000435124 -0.0267362 -5.28995e-20)
(-0.0107468 -0.0222958 9.16934e-20)
(-0.0188553 -0.0158877 -8.95217e-21)
(-0.0228497 -0.00791185 0)
(-0.022975 0.000323104 5.18122e-21)
(-0.0201109 0.00734225 -1.13518e-21)
(-0.0152693 0.0124683 2.63424e-20)
(-0.00939279 0.015504 0)
(-0.00323187 0.0165129 7.92133e-21)
(0.0025036 0.0157882 5.48644e-21)
(0.0356128 0.0223398 9.61974e-23)
(0.0417325 0.0148285 3.4502e-21)
(0.0454486 0.00693822 0)
(0.0468235 -0.00103958 0)
(0.0458112 -0.0085334 2.42071e-20)
(0.0429736 -0.0146647 4.38462e-20)
(0.0401731 -0.0201862 6.49151e-20)
(0.0383062 -0.027761 -1.63153e-20)
(0.0348451 -0.0378156 5.04096e-20)
(0.0255805 -0.0457707 1.51162e-20)
(0.00947563 -0.0465629 -6.96132e-20)
(-0.0106655 -0.0402502 0)
(0.0216969 0.0195418 3.48072e-22)
(0.026873 0.0143059 2.06004e-21)
(0.0301637 0.00848829 -8.9866e-21)
(0.0316732 0.00234679 -7.00029e-21)
(0.0314392 -0.00395593 -2.4948e-20)
(0.0297793 -0.0101472 0)
(0.0275958 -0.0164816 -4.72417e-20)
(0.0259403 -0.0240674 -1.49593e-20)
(0.0263543 -0.0328731 -3.14551e-20)
(0.026026 -0.0395239 0)
(0.0181375 -0.037874 5.29787e-20)
(0.00116287 -0.0274181 0)
(0.0120655 0.016387 -9.01353e-23)
(0.0164786 0.0125606 -4.25055e-21)
(0.0195149 0.00812462 8.74115e-21)
(0.0212464 0.00326525 5.99703e-21)
(0.0217157 -0.00187345 -1.27169e-20)
(0.0210689 -0.00716225 6.7273e-21)
(0.0192754 -0.0130399 0)
(0.0157489 -0.0203357 1.5261e-20)
(0.0130255 -0.0280404 1.41379e-20)
(0.0156835 -0.033526 1.17407e-20)
(0.0177569 -0.0310644 -5.29835e-20)
(0.00986702 -0.0186204 0)
(0.00732578 0.0137769 2.35728e-22)
(0.0111642 0.0108297 4.94908e-21)
(0.0139924 0.00724542 0)
(0.0157968 0.00319019 -1.77588e-20)
(0.0165168 -0.00121923 0)
(0.0161493 -0.00587309 -1.10941e-20)
(0.0144643 -0.0109933 -1.25842e-20)
(0.0103172 -0.0169908 6.38426e-20)
(0.0035472 -0.0225909 -7.05203e-22)
(0.000669403 -0.0250504 -1.21673e-20)
(0.00498786 -0.0196465 4.02696e-20)
(0.00678752 -0.0016821 -3.26547e-20)
(0.0309947 0.0312768 -1.18676e-20)
(0.0442588 0.0198994 -1.37327e-20)
(0.0474862 0.00193202 1.36841e-20)
(0.0417135 -0.0189732 0)
(0.0267017 -0.0356866 0)
(0.00706114 -0.0427568 -1.90165e-19)
(-0.0110968 -0.0400034 6.37545e-21)
(-0.0249614 -0.0301592 -5.38059e-20)
(-0.0332201 -0.0156774 0)
(-0.0358007 0.000355292 2.18927e-20)
(-0.0338657 0.0152098 7.06599e-21)
(-0.0289166 0.0271065 -1.67245e-21)
(0.0228394 0.0174121 0)
(0.0396613 0.00918172 0)
(0.0424625 -0.00340189 0)
(0.0377123 -0.0194767 2.65965e-20)
(0.0255722 -0.0320476 3.13343e-21)
(0.0103923 -0.036719 3.70033e-20)
(-0.00335654 -0.0341068 -6.42017e-20)
(-0.0142463 -0.0265791 5.03562e-20)
(-0.0216151 -0.0163331 0)
(-0.0253441 -0.00514344 -1.28976e-20)
(-0.02574 0.00552281 -4.73265e-21)
(-0.0236136 0.0146139 1.09066e-21)
(0.0118253 0.011686 0)
(0.0309163 0.0070119 -2.08482e-20)
(0.0333519 -0.00225949 6.1389e-21)
(0.0286871 -0.0150388 4.83938e-21)
(0.0200159 -0.0248729 -2.22201e-20)
(0.00924093 -0.0291725 -2.2908e-20)
(-0.00129537 -0.028334 -3.7263e-20)
(-0.00999721 -0.0237295 -2.63831e-20)
(-0.0161136 -0.016826 -1.05596e-20)
(-0.019487 -0.00887885 1.60241e-20)
(-0.0202631 -0.00094605 4.96215e-21)
(-0.0191369 0.00610852 0)
(0.00811086 0.00502265 -5.55848e-21)
(0.0219192 0.00832012 2.33511e-21)
(0.0268256 -0.000478619 0)
(0.0223577 -0.0108004 0)
(0.0159151 -0.0188937 2.1229e-20)
(0.00793238 -0.0228653 3.84079e-21)
(-0.000287353 -0.0229713 6.23876e-20)
(-0.0072711 -0.0200982 0)
(-0.0123443 -0.0152673 3.21653e-20)
(-0.0153318 -0.0094329 0)
(-0.0163452 -0.00338584 4.09731e-21)
(-0.0157657 0.00227108 0)
(-0.0116637 0.00558999 2.4905e-22)
(-0.00927944 0.00904299 -2.75431e-21)
(-0.00625816 0.0116765 0)
(-0.00268174 0.0134114 -1.67257e-20)
(0.00123097 0.0140869 -5.08966e-21)
(0.00529763 0.0136729 -2.85058e-20)
(0.00954565 0.0119344 1.10688e-20)
(0.014082 0.00802791 0)
(0.0175689 0.000687954 0)
(0.0169251 -0.00688226 9.79274e-21)
(0.00924213 -0.00726252 2.63855e-20)
(-0.00521163 0.000318662 0)
(-0.00975231 0.00495564 -2.41353e-22)
(-0.00772636 0.00800537 0)
(-0.00511231 0.0103499 -8.64376e-21)
(-0.0020138 0.0118801 3.81244e-21)
(0.00136516 0.0124354 -3.82087e-21)
(0.00484012 0.0119708 2.72601e-20)
(0.00832123 0.0102675 2.05316e-20)
(0.0116969 0.0068609 -1.05081e-20)
(0.0138256 0.000838682 0)
(0.0120853 -0.0061948 0)
(0.00364069 -0.00821117 0)
(-0.00515896 -1.75519e-05 0)
(-0.0081064 0.00434164 3.01804e-22)
(-0.00638995 0.00706258 -2.06243e-21)
(-0.00414518 0.0091528 9.06226e-21)
(-0.00148396 0.0104937 0)
(0.00140863 0.0109516 0)
(0.00434745 0.0104831 -7.89518e-20)
(0.00718063 0.0089087 4.58833e-20)
(0.00969679 0.00600778 0)
(0.011014 0.00122643 -9.73684e-21)
(0.0093793 -0.00416141 1.89785e-20)
(0.0027915 -0.00697921 -9.28031e-21)
(-0.00209784 -0.00212522 0)
(-0.00669103 0.00373669 -2.9292e-22)
(-0.00524941 0.00617677 1.3408e-21)
(-0.00333168 0.00805057 -6.45782e-21)
(-0.00106186 0.00924096 7.12872e-21)
(0.0013964 0.00963486 -1.0118e-20)
(0.00386652 0.00919411 -6.41566e-21)
(0.00616558 0.00778473 -6.1365e-20)
(0.00805616 0.00534522 -9.20851e-21)
(0.0088515 0.00152531 9.19739e-21)
(0.00745743 -0.00258102 3.60954e-20)
(0.00285625 -0.00496615 0)
(-0.00112932 -0.00133727 0)
(-0.00547499 0.00322846 0)
(-0.00426671 0.00542643 0)
(-0.00263545 0.00711421 6.27055e-21)
(-0.000702772 0.00818555 -9.8442e-21)
(0.00137602 0.00853882 -1.45645e-20)
(0.0034397 0.0081426 6.93087e-20)
(0.0052964 0.00689623 1.70162e-20)
(0.00672178 0.00484327 4.17874e-20)
(0.00718618 0.00178191 0)
(0.0060399 -0.00136393 -3.50723e-20)
(0.00279827 -0.00348089 -3.36205e-20)
(0.00028042 -0.00173536 0)
(-0.00441744 0.00282407 0)
(-0.00340364 0.00481201 4.2344e-22)
(-0.00202706 0.00634404 -4.23528e-22)
(-0.000388483 0.00731952 2.48048e-21)
(0.00136084 0.00764909 4.28455e-20)
(0.00307703 0.0073041 -3.46761e-20)
(0.00456851 0.00621253 7.10547e-21)
(0.00564007 0.00447705 -3.25672e-20)
(0.00589669 0.00199539 -8.26682e-21)
(0.00497513 -0.000428883 8.27391e-21)
(0.0027136 -0.00226316 3.26588e-20)
(0.000644807 -0.00137853 0)
(-0.00348337 0.00250182 0)
(-0.0026422 0.00431104 3.70913e-22)
(-0.00148661 0.00571215 -3.70943e-22)
(-0.000106138 0.00661024 0)
(0.00135524 0.00692635 -2.43161e-20)
(0.00277148 0.00663841 -3.78491e-21)
(0.00395994 0.00569314 -1.38261e-20)
(0.00476235 0.00421734 -3.72008e-20)
(0.00488195 0.00216968 3.11235e-20)
(0.00413584 0.000241517 0)
(0.00252384 -0.00136537 6.29834e-20)
(0.000853739 -0.00111574 0)
(-0.00265619 0.0022408 0)
(-0.00196651 0.00389716 3.29881e-22)
(-0.00100336 0.00518349 3.86187e-21)
(0.000149055 0.00601783 2.12926e-21)
(0.00135574 0.00632934 1.7125e-20)
(0.00250838 0.00609927 -6.28403e-21)
(0.0034464 0.00528661 3.33053e-20)
(0.0040369 0.00402855 5.76012e-20)
(0.00406015 0.00231002 2.93408e-20)
(0.00343696 0.000714928 7.63433e-21)
(0.00223255 -0.000711904 -7.8852e-21)
(0.000870161 -0.000854745 0)
(-0.00192447 0.00199788 0)
(-0.0013666 0.00351297 0)
(-0.000579468 0.00469468 -4.08105e-21)
(0.000366667 0.00547419 0)
(0.00134608 0.00578616 -4.98743e-22)
(0.00226864 0.00561285 -5.97311e-21)
(0.00299257 0.00492518 5.96992e-21)
(0.00341069 0.00385698 -2.77547e-20)
(0.00336141 0.00240051 -7.95542e-21)
(0.00282615 0.00104432 6.6054e-20)
(0.00188179 -0.000231389 -5.93937e-20)
(0.00078105 -0.000614789 5.9124e-20)
(-0.00128732 0.00166695 0)
(-0.000848098 0.00305423 3.20467e-22)
(-0.000224148 0.00414784 -3.66371e-21)
(0.000532263 0.00489058 1.90256e-21)
(0.00131046 0.00522108 -2.2104e-20)
(0.00203491 0.00511847 1.79829e-20)
(0.00257887 0.00456263 -2.48648e-20)
(0.00285574 0.00367551 6.35132e-21)
(0.00275212 0.0024468 -5.59144e-20)
(0.00228666 0.00128095 -5.00853e-20)
(0.00152415 0.000138343 -7.16868e-21)
(0.000645914 -0.00039322 -5.75729e-20)
(-0.000741852 0.00135983 0)
(-0.000401559 0.00269657 -8.83895e-22)
(0.000101182 0.00376855 3.57149e-21)
(0.000706955 0.0045245 0)
(0.00133652 0.00490131 -2.3412e-21)
(0.00190965 0.00487979 -1.28678e-20)
(0.00231929 0.00444863 -2.26514e-20)
(0.00249328 0.00370924 -1.27054e-20)
(0.00235441 0.00265083 6.7264e-20)
(0.00193513 0.00160403 4.85494e-20)
(0.00128543 0.000535548 0)
(0.000539488 -0.000154163 0)
(-0.000124859 0.0024358 6.19433e-22)
(0.000193748 0.00358898 1.81613e-23)
(0.000629944 0.00445765 0)
(0.00111757 0.00501223 1.75408e-21)
(0.00159351 0.00521692 -1.75395e-21)
(0.00198486 0.00507543 -2.5178e-20)
(0.00221622 0.00459521 9.61771e-20)
(0.00224306 0.00385864 0)
(0.00202929 0.00290007 -5.22578e-20)
(0.00161352 0.00192525 -5.37372e-20)
(0.00103163 0.000956196 -5.43542e-20)
(0.000381906 0.000167771 5.44132e-20)
(0.00710824 -0.00517124 -1.62335e-20)
(0.00869137 -0.0151765 -3.27938e-20)
(-4.69627e-05 -0.0211504 4.77682e-20)
(-0.00826897 -0.0178743 0)
(-0.0148935 -0.0129712 9.36205e-20)
(-0.0182954 -0.00670842 5.38211e-20)
(-0.0186983 -0.000126029 -4.81607e-20)
(-0.0166817 0.00563696 -2.37499e-20)
(-0.0129634 0.00996222 0)
(-0.00828684 0.0126271 -2.47391e-21)
(-0.00326203 0.0136614 -6.0249e-21)
(0.00155885 0.013176 -2.18544e-21)
(0.00691595 -0.00576243 -2.99799e-20)
(0.00749877 -0.0119126 1.03167e-20)
(-0.000213742 -0.0163912 -5.6746e-20)
(-0.00702877 -0.0144498 0)
(-0.0123239 -0.0107173 0)
(-0.015143 -0.00578363 -8.6545e-20)
(-0.0156031 -0.000507085 -4.64145e-20)
(-0.014049 0.00428359 3.87172e-20)
(-0.0110094 0.00796704 -7.0382e-21)
(-0.0070909 0.0103279 -2.2366e-20)
(-0.00280653 0.0113107 2.22952e-21)
(0.00138977 0.0110061 -9.94611e-22)
(0.00565436 -0.00551478 2.90247e-20)
(0.00551639 -0.00998553 0)
(-0.000665243 -0.0130044 0)
(-0.00623355 -0.0118233 0)
(-0.0104378 -0.00899223 0)
(-0.0127909 -0.00510652 -7.27063e-20)
(-0.0132671 -0.000814982 1.39394e-19)
(-0.0120419 0.00315562 -3.31674e-20)
(-0.00952585 0.00629984 0)
(-0.00619605 0.0083686 1.95433e-20)
(-0.0025028 0.00929654 5.91929e-21)
(0.00118052 0.00912408 1.62441e-21)
(0.00468015 -0.00521519 -3.44978e-20)
(0.00380747 -0.00855531 -4.792e-20)
(-0.00120119 -0.0105947 5.26951e-20)
(-0.00560199 -0.00976564 -4.75402e-20)
(-0.00898491 -0.00762326 0)
(-0.0109618 -0.00452506 -1.02625e-20)
(-0.0114201 -0.00101737 -4.78894e-20)
(-0.0104398 0.00226712 3.74726e-20)
(-0.00834121 0.00493944 -5.72375e-21)
(-0.00550531 0.00673524 1.85133e-21)
(-0.00230914 0.00759057 -8.23902e-21)
(0.000932017 0.00751585 0)
(0.0037641 -0.00466794 -1.78763e-21)
(0.00251705 -0.00733508 3.68207e-20)
(-0.00159755 -0.00874041 -5.23431e-20)
(-0.00508634 -0.00813368 1.02066e-19)
(-0.00787 -0.00650562 -4.7858e-20)
(-0.00953602 -0.00401752 2.47941e-21)
(-0.00994218 -0.00116518 5.84149e-21)
(-0.00913763 0.00156194 -5.48452e-20)
(-0.00735788 0.00381609 5.2454e-21)
(-0.00491903 0.00537522 0)
(-0.0021339 0.00615276 -5.74684e-22)
(0.000726775 0.00614864 2.27034e-21)
(0.0029628 -0.00402294 3.42681e-20)
(0.00154342 -0.00621659 0)
(-0.00186157 -0.00725475 0)
(-0.00468691 -0.00682925 -5.485e-20)
(-0.0070157 -0.00559143 1.02596e-19)
(-0.00841874 -0.00359863 5.89734e-20)
(-0.00876414 -0.0012831 -6.00929e-21)
(-0.00807888 0.000976438 4.1995e-20)
(-0.00654219 0.0028752 -4.85495e-21)
(-0.0044151 0.00421925 1.59635e-21)
(-0.0019635 0.00491758 -2.13996e-21)
(0.000579505 0.00495704 5.15481e-22)
(0.0022727 -0.00336967 7.06868e-20)
(0.000803958 -0.00520264 8.27701e-20)
(-0.0020547 -0.00603564 -1.94445e-20)
(-0.00439423 -0.00577228 -3.0996e-20)
(-0.00636289 -0.00484103 -8.6322e-20)
(-0.00754024 -0.00325987 -1.06928e-20)
(-0.00782353 -0.0013849 1.06774e-20)
(-0.00721788 0.000479745 0)
(-0.00586693 0.00207607 0)
(-0.00398663 0.00322716 -1.21194e-20)
(-0.00180575 0.00384768 -1.50216e-21)
(0.000474942 0.00391279 -1.57625e-21)
(0.00167273 -0.00274005 -6.8784e-20)
(0.000219709 -0.00428906 5.7994e-22)
(-0.00220985 -0.00501812 7.54179e-20)
(-0.00418027 -0.0048958 1.18789e-19)
(-0.00585663 -0.00421458 4.14365e-20)
(-0.00684187 -0.00297935 -1.00868e-20)
(-0.00706185 -0.00147342 1.48298e-20)
(-0.00650822 5.52905e-05 -4.75126e-21)
(-0.00529958 0.00138765 -3.154e-20)
(-0.00361734 0.00236782 2.75973e-20)
(-0.00165905 0.00291396 -1.91411e-21)
(0.000401772 0.00299647 1.98996e-21)
(0.00116094 -0.00216011 6.00992e-20)
(-0.000239593 -0.0034692 -6.1428e-20)
(-0.00232365 -0.00414104 -7.3453e-20)
(-0.00400187 -0.00413932 -6.99325e-22)
(-0.00543382 -0.00367096 0)
(-0.00625351 -0.00273167 -3.8812e-20)
(-0.00641243 -0.00154199 -4.5158e-21)
(-0.00589624 -0.000305474 4.52764e-22)
(-0.00480399 0.000792044 6.48604e-20)
(-0.00329165 0.00161853 -1.25817e-20)
(-0.00152956 0.00209344 0)
(0.000332929 0.00218996 -1.45938e-21)
(0.000710235 -0.00164801 -1.34442e-19)
(-0.000634327 -0.00275641 0)
(-0.00243479 -0.00339389 -9.07654e-21)
(-0.00387227 -0.00349176 -1.3874e-19)
(-0.00509495 -0.0032049 -8.4497e-20)
(-0.00577353 -0.00251985 6.91583e-22)
(-0.00588194 -0.00160522 1.35073e-20)
(-0.00540656 -0.000626038 -3.73005e-20)
(-0.00442885 0.00026562 -2.93131e-20)
(-0.00308043 0.000954152 -1.05785e-20)
(-0.00150601 0.00136646 -1.30466e-21)
(0.000166209 0.00147694 0)
(0.000234935 -0.00127466 6.5739e-20)
(-0.00118325 -0.00232915 0)
(-0.0028221 -0.00298152 0)
(-0.00410597 -0.00315851 7.18074e-20)
(-0.00516481 -0.00299642 7.3182e-20)
(-0.00572731 -0.00248504 3.63528e-20)
(-0.00577717 -0.00177051 3.46007e-20)
(-0.00530627 -0.000978946 6.0273e-20)
(-0.00438346 -0.000233816 3.75015e-21)
(-0.00312115 0.000359007 1.28438e-20)
(-0.00164508 0.000733394 -1.26149e-21)
(-6.9537e-05 0.000867156 0)
(-0.000401382 -0.000867118 6.40334e-20)
(-0.0018944 -0.00195492 0)
(-0.00330872 -0.00263544 0)
(-0.0043559 -0.002858 -8.73166e-21)
(-0.00506874 -0.00273752 8.73055e-21)
(-0.00529129 -0.00231671 -8.54874e-21)
(-0.00502555 -0.00172853 8.45952e-21)
(-0.00429885 -0.00108338 -3.09454e-20)
(-0.00320176 -0.000490683 0)
(-0.00185408 -3.76525e-05 1.23705e-20)
(-0.000376607 0.000223445 7.15954e-21)
(0.00111522 0.000280577 -1.32646e-21)
(0.00573184 0.0115854 5.0951e-23)
(0.00912208 0.00914757 -2.98329e-21)
(0.0116812 0.00608557 0)
(0.0133527 0.00256733 1.27202e-20)
(0.0140351 -0.0012693 2.33258e-20)
(0.0136541 -0.00530772 1.16064e-20)
(0.011937 -0.00955672 1.13067e-20)
(0.00803713 -0.014103 -4.92919e-20)
(0.000692684 -0.0176013 0)
(-0.00687975 -0.016964 -3.29086e-20)
(-0.00725789 -0.00928675 2.78752e-20)
(0.00029831 0.00518317 3.15797e-20)
(0.00508812 0.0097036 -4.17263e-22)
(0.00811125 0.00762549 0)
(0.0103895 0.00497273 9.07895e-21)
(0.0118569 0.00191461 0)
(0.0124077 -0.00140995 -1.52792e-21)
(0.0119618 -0.0048622 3.81926e-20)
(0.0102724 -0.00834028 1.07828e-20)
(0.00687044 -0.0117203 -5.34145e-20)
(0.000844553 -0.0138554 0)
(-0.00619906 -0.0121181 3.19292e-20)
(-0.00821568 -0.00367125 -2.69458e-20)
(-2.91718e-05 0.00513783 0)
(0.00447075 0.00807349 2.21777e-22)
(0.00717467 0.00631242 1.58386e-21)
(0.00921252 0.00403354 -8.80255e-21)
(0.0105008 0.00139745 1.52915e-20)
(0.0109461 -0.00145659 -8.87293e-21)
(0.0104839 -0.00437562 -2.34996e-20)
(0.00891661 -0.00720244 -5.6899e-20)
(0.00601777 -0.00972128 5.12687e-20)
(0.00123257 -0.0110413 0)
(-0.00416567 -0.00940846 -2.93778e-20)
(-0.00698629 -0.00281361 -9.52279e-21)
(-0.00214397 0.00207344 0)
(0.003864 0.00666376 -2.25143e-23)
(0.00628412 0.00519198 -2.13829e-21)
(0.00811456 0.00324984 6.2404e-22)
(0.00926479 0.000990584 -9.11458e-22)
(0.00964504 -0.00144206 -1.45248e-20)
(0.00920323 -0.00389783 0)
(0.0077956 -0.006189 4.57252e-20)
(0.00535483 -0.00808 -9.12132e-21)
(0.00153058 -0.00887694 0)
(-0.00258424 -0.00748277 7.47762e-20)
(-0.00497459 -0.00287472 0)
(-0.00135093 0.001113 0)
(0.00334779 0.00545056 5.60402e-22)
(0.00552643 0.00421559 0)
(0.00717986 0.00256974 4.04684e-21)
(0.00821955 0.00064531 -1.10375e-20)
(0.00855855 -0.00141804 -6.34884e-22)
(0.00815711 -0.0034706 3.26701e-20)
(0.00690911 -0.00532203 -8.49992e-21)
(0.00485407 -0.00674469 -2.5881e-20)
(0.00178783 -0.00720952 8.91718e-21)
(-0.00136479 -0.00606109 -3.61273e-20)
(-0.00348685 -0.00281468 -1.73325e-20)
(-0.00174373 -0.000292679 8.57678e-21)
(0.00293278 0.00439728 -5.44624e-22)
(0.00490574 0.00335997 0)
(0.00641099 0.00197048 -5.89506e-21)
(0.00736042 0.000339524 2.57703e-21)
(0.00767548 -0.00139987 -2.57973e-21)
(0.00732304 -0.00310801 -3.56803e-20)
(0.00622818 -0.0045936 2.96499e-20)
(0.00448944 -0.0056614 4.1351e-20)
(0.00200275 -0.00591757 0)
(-0.000427611 -0.00499412 8.42638e-21)
(-0.00226712 -0.00272815 -8.44294e-21)
(-0.00138602 -0.000656148 0)
(0.00260186 0.00346956 -2.27389e-23)
(0.00439964 0.00260759 -7.01051e-22)
(0.00578009 0.00144083 0)
(0.00665685 6.69655e-05 0)
(0.0069574 -0.00138949 0)
(0.0066616 -0.00279871 -6.85711e-21)
(0.00571194 -0.00398406 -2.26055e-20)
(0.00423156 -0.00478207 -3.07069e-20)
(0.00217839 -0.00490009 8.09849e-21)
(0.000244249 -0.00415298 1.33864e-23)
(-0.00136736 -0.00253702 -7.27893e-20)
(-0.00112132 -0.000863355 -6.42509e-20)
(0.00233557 0.00264811 -5.80771e-22)
(0.00398125 0.00194099 1.07663e-21)
(0.00525292 0.000969154 -3.72333e-22)
(0.00606759 -0.000180817 2.21983e-21)
(0.00636387 -0.00138521 1.4979e-20)
(0.00612607 -0.00253152 2.03729e-20)
(0.00530724 -0.00346804 -2.77862e-20)
(0.00404423 -0.00405552 6.62848e-20)
(0.00231974 -0.00407611 0)
(0.000719208 -0.0034519 0)
(-0.000712055 -0.00224399 5.50682e-20)
(-0.000858858 -0.000878183 7.858e-21)
(0.00208991 0.0019198 5.65533e-22)
(0.00359386 0.0013472 -3.39359e-22)
(0.00476367 0.000552617 3.39311e-22)
(0.0055255 -0.000393069 0)
(0.00582368 -0.00137063 -3.84098e-20)
(0.00564183 -0.00228952 -2.95683e-20)
(0.00494785 -0.00301121 2.57653e-20)
(0.00387372 -0.00342799 -2.89503e-20)
(0.00241132 -0.00337551 7.23463e-21)
(0.00105019 -0.0028386 7.58294e-21)
(-0.000229975 -0.00189149 -7.58908e-21)
(-0.000617394 -0.000787394 6.07444e-20)
(0.00175479 0.0012844 5.73265e-22)
(0.00313104 0.000835388 0)
(0.00421619 0.000201371 -3.98859e-21)
(0.00494354 -0.000551205 1.98801e-21)
(0.00526 -0.00133099 1.395e-20)
(0.00514936 -0.00205222 -3.37571e-21)
(0.0045861 -0.00259528 -1.25247e-20)
(0.00369321 -0.00287092 4.76707e-20)
(0.00245847 -0.00276495 -4.9757e-20)
(0.00128818 -0.00229692 1.19391e-22)
(0.00014099 -0.00153209 -7.36e-21)
(-0.000394343 -0.000650577 0)
(0.00143899 0.000736827 -5.16417e-22)
(0.00276385 0.000394559 -6.19557e-22)
(0.0038308 -0.000115775 7.40545e-21)
(0.0045738 -0.000721911 0)
(0.00493843 -0.00135118 -2.42669e-21)
(0.00491012 -0.00192363 2.42664e-21)
(0.00447233 -0.00233229 1.80058e-20)
(0.00372732 -0.00250628 -9.90595e-20)
(0.00266344 -0.0023652 5.55501e-20)
(0.00161231 -0.00194394 0)
(0.000539474 -0.00129185 0)
(-0.000153946 -0.000542853 0)
(0.00248034 0.000121287 -1.1024e-21)
(0.0036265 -0.000197418 8.46434e-22)
(0.00449411 -0.000635503 -7.37103e-21)
(0.00504264 -0.00112608 1.83471e-21)
(0.00524188 -0.00160086 -4.17317e-21)
(0.00509699 -0.00199327 -1.27046e-20)
(0.00461305 -0.00222397 -1.15902e-20)
(0.00387286 -0.00225163 6.18954e-21)
(0.0029109 -0.00203629 -4.68187e-20)
(0.00193253 -0.00161944 -6.79859e-21)
(0.000960315 -0.00103572 0)
(0.000168738 -0.000383762 -5.5869e-20)
(0.00524845 0.00714574 0)
(0.0152661 0.00867655 4.3634e-20)
(0.0212308 -6.53878e-05 -1.04364e-20)
(0.017936 -0.00830445 0)
(0.0130089 -0.0149245 0)
(0.00673883 -0.0183138 -1.89184e-20)
(0.000169783 -0.0187022 -2.96986e-20)
(-0.00556882 -0.016685 8.96409e-21)
(-0.00985137 -0.0129855 -3.12025e-20)
(-0.0124884 -0.00836356 0)
(-0.0135281 -0.00344102 -8.62794e-21)
(-0.0131643 0.00133829 -1.11126e-21)
(0.00580851 0.00694204 0)
(0.0119736 0.0074981 0)
(0.0164586 -0.000221646 4.62685e-20)
(0.0145069 -0.00705291 0)
(0.0107606 -0.0123507 1.63615e-20)
(0.00582278 -0.0151666 -3.31072e-20)
(0.00055621 -0.0156177 8.00839e-20)
(-0.00421299 -0.0140666 7.11281e-21)
(-0.00787668 -0.0110477 -7.10919e-21)
(-0.0102195 -0.00717066 -2.04325e-20)
(-0.0112193 -0.00296491 0)
(-0.0109954 0.00120973 1.07693e-21)
(0.00555079 0.00567648 0)
(0.0100325 0.00552306 1.02918e-20)
(0.0130609 -0.000668941 -6.73347e-20)
(0.0118753 -0.00625322 1.21096e-20)
(0.00903707 -0.0104647 0)
(0.00514947 -0.012819 4.35379e-20)
(0.00086031 -0.0132957 -1.03816e-19)
(-0.00309243 -0.0120719 0)
(-0.00622975 -0.00957677 0)
(-0.00828474 -0.00628008 1.77687e-20)
(-0.00922699 -0.00263631 -4.67147e-21)
(-0.00911917 0.00102939 -9.85762e-22)
(0.00524235 0.00469983 0)
(0.00859429 0.00381828 0)
(0.0106427 -0.00120323 4.3129e-20)
(0.0098126 -0.00561929 -1.27022e-20)
(0.00766614 -0.00901201 1.27362e-20)
(0.00456298 -0.0109939 -1.23845e-19)
(0.0010598 -0.0114552 1.69475e-20)
(-0.00221719 -0.0104816 -2.98612e-20)
(-0.00487801 -0.00839879 2.67959e-20)
(-0.00667302 -0.00559113 -1.70552e-20)
(-0.00754027 -0.00242892 6.53355e-21)
(-0.00751529 0.00079516 9.56652e-22)
(0.00468566 0.00377568 0)
(0.00736694 0.00252553 -3.8114e-20)
(0.00877851 -0.00160209 -4.19241e-20)
(0.00817504 -0.00510297 0)
(0.00654488 -0.0078954 3.58876e-20)
(0.00405301 -0.00957029 7.69121e-20)
(0.00120644 -0.00998168 8.01352e-20)
(-0.00151665 -0.00918514 -1.50263e-20)
(-0.00376305 -0.00742055 -2.0404e-20)
(-0.00532333 -0.00500402 1.65675e-20)
(-0.00611334 -0.00224427 0)
(-0.00614219 0.000601577 0)
(0.00403951 0.00297229 0)
(0.00624231 0.00154862 3.70563e-20)
(0.00728751 -0.0018672 -1.05249e-20)
(0.00686627 -0.00470438 1.05328e-20)
(0.00562727 -0.00704098 -4.6975e-20)
(0.00363513 -0.00845225 -1.15578e-20)
(0.00132179 -0.00880641 -3.50379e-20)
(-0.000933576 -0.00812941 8.91625e-20)
(-0.00283022 -0.00660744 -4.92187e-21)
(-0.00417602 -0.00449945 1.63285e-21)
(-0.00488523 -0.00206806 -1.63445e-21)
(-0.00494645 0.000464863 0)
(0.00338363 0.00228171 0)
(0.00522396 0.000806606 7.41796e-20)
(0.00606595 -0.0020604 0)
(0.00580366 -0.00441202 4.14658e-20)
(0.00487321 -0.00638878 -3.21201e-20)
(0.00329419 -0.00757472 -6.51078e-20)
(0.00142033 -0.00786758 5.68867e-21)
(-0.000442054 -0.00727043 -3.49412e-20)
(-0.00203745 -0.00593323 0)
(-0.0031918 -0.00406989 1.5368e-21)
(-0.00382186 -0.00190573 -1.53814e-21)
(-0.00390651 0.000368675 0)
(0.00275016 0.00167797 0)
(0.00430745 0.000220047 9.89319e-21)
(0.00504317 -0.0022174 -9.30512e-21)
(0.00492273 -0.00419873 3.93767e-20)
(0.00424348 -0.00588363 8.29344e-20)
(0.00301025 -0.00687714 3.19512e-20)
(0.00150464 -0.00710719 1.01934e-20)
(-2.23137e-05 -0.00656252 4.08745e-20)
(-0.00135496 -0.00536632 -4.33895e-21)
(-0.00233846 -0.00369896 1.46556e-20)
(-0.00289355 -0.001754 -1.4585e-21)
(-0.00299647 0.000300972 0)
(0.00216809 0.00116414 6.95723e-20)
(0.00348371 -0.00024243 -7.09013e-20)
(0.00416085 -0.00233379 6.46522e-20)
(0.00416287 -0.00402063 8.76538e-21)
(0.00369613 -0.00546178 -3.99632e-20)
(0.00275879 -0.00628976 -9.70634e-21)
(0.00156972 -0.00645871 9.69883e-21)
(0.000334235 -0.00595132 -7.37696e-22)
(-0.000765642 -0.00487099 0)
(-0.00159373 -0.00337167 -1.28527e-20)
(-0.00207691 -0.00161912 0)
(-0.00219061 0.000236433 0)
(0.00165332 0.000711497 -6.77882e-20)
(0.00276741 -0.000639022 7.85223e-20)
(0.00340957 -0.0024473 -8.10828e-20)
(0.00351197 -0.00389209 -7.4965e-20)
(0.00322659 -0.00512345 -9.50655e-21)
(0.00254305 -0.00581036 -3.75461e-20)
(0.00162967 -0.00592816 4.11733e-20)
(0.000649792 -0.00546108 -2.56074e-20)
(-0.000243848 -0.00449466 -3.95101e-21)
(-0.000933615 -0.00315814 -1.21524e-20)
(-0.00135247 -0.00159048 4.59435e-21)
(-0.00147794 7.40585e-05 0)
(0.0012777 0.000234599 0)
(0.00233722 -0.00118841 -6.79193e-20)
(0.00299372 -0.00283411 7.91098e-20)
(0.00317396 -0.00412492 -1.80486e-20)
(0.00301371 -0.00519112 1.83155e-20)
(0.00250349 -0.0057616 3.65668e-20)
(0.00178972 -0.00581964 -4.85209e-20)
(0.000996663 -0.00535592 4.22342e-21)
(0.000251186 -0.00444271 0)
(-0.000343902 -0.00319061 1.18466e-20)
(-0.000721531 -0.0017179 -1.34105e-20)
(-0.000867852 -0.000150675 0)
(0.00086812 -0.000401921 6.47709e-20)
(0.00195824 -0.00189771 -6.6006e-20)
(0.00264109 -0.0033159 -6.81101e-20)
(0.00286543 -0.0043671 0)
(0.00274615 -0.00508395 7.12055e-20)
(0.00232604 -0.00531073 6.19911e-20)
(0.00173788 -0.00504982 -2.52657e-20)
(0.00109225 -0.00432713 3.6794e-21)
(0.000499112 -0.00323523 -3.68132e-21)
(4.4778e-05 -0.0018937 0)
(-0.000217326 -0.000416316 8.659e-25)
(-0.000279508 0.00107101 -1.38953e-21)
)
;

boundaryField
{
    rotor
    {
        type            movingWallVelocity;
        value           nonuniform 0();
    }
    stator
    {
        type            movingWallVelocity;
        value           nonuniform List<vector> 
96
(
(4.39496e-18 1.34252e-16 3.55743e-36)
(0 0 0)
(-1.14118e-16 -6.91202e-16 0)
(4.75534e-16 2.03946e-15 -2.68792e-16)
(-2.98665e-16 -9.84568e-16 0)
(-5.33627e-16 -1.41781e-15 2.605e-32)
(3.16912e-33 -1.43591e-33 2.68792e-16)
(-8.93969e-16 -1.6725e-15 0)
(1.92858e-15 3.1014e-15 0)
(0 0 0)
(-1.35263e-15 -1.64819e-15 -2.68792e-16)
(2.14573e-15 2.29097e-15 -3.80542e-32)
(-1.45243e-16 -1.36035e-16 -2.68792e-16)
(-2.56984e-15 -2.10902e-15 0)
(2.03622e-15 1.45913e-15 -2.68792e-16)
(0 0 0)
(0 0 0)
(1.61671e-15 7.3252e-16 0)
(0 0 0)
(-9.84568e-16 -2.98665e-16 -2.68792e-16)
(9.51069e-16 2.21758e-16 0)
(0 0 0)
(-4.19509e-16 -4.13181e-17 2.68792e-16)
(6.38658e-18 2.09075e-19 -3.48094e-33)
(-1.47025e-16 4.8131e-18 -2.68792e-16)
(0 0 0)
(-6.91202e-16 1.14118e-16 -2.68792e-16)
(1.01973e-15 -2.37767e-16 -2.68792e-16)
(9.84568e-16 -2.98665e-16 0)
(1.88352e-15 -7.08907e-16 -5.37584e-16)
(1.61671e-15 -7.3252e-16 0)
(1.6725e-15 -8.93969e-16 -2.68792e-16)
(-1.92858e-15 1.19927e-15 -2.68792e-16)
(0 0 0)
(-4.21803e-15 3.46165e-15 -5.37584e-16)
(-2.14573e-15 2.0097e-15 -2.68792e-16)
(2.14573e-15 -2.29097e-15 3.80542e-32)
(-1.35263e-15 1.64819e-15 -2.68792e-16)
(0 0 0)
(-2.34978e-16 3.77875e-16 0)
(-8.93969e-16 1.6725e-15 -1.31208e-32)
(7.58331e-17 -1.67367e-16 6.21932e-32)
(1.7528e-16 -4.65707e-16 -2.68792e-16)
(6.37312e-17 -2.10094e-16 0)
(4.75534e-16 -2.03946e-15 -2.68792e-16)
(5.86826e-17 -3.55435e-16 0)
(0 0 0)
(4.39496e-18 -1.34252e-16 -3.55743e-36)
(0 0 0)
(-1.07517e-15 1.07517e-15 0)
(-2.15033e-15 2.15033e-15 0)
(0 0 0)
(-1.07517e-15 1.07517e-15 0)
(1.07517e-15 -1.07517e-15 -2.68792e-16)
(-2.15033e-15 2.15033e-15 0)
(-2.15033e-15 2.15033e-15 0)
(0 0 0)
(0 0 -2.68792e-16)
(0 0 0)
(0 0 0)
(-2.15033e-15 2.15033e-15 0)
(-1.07517e-15 1.07517e-15 -2.68792e-16)
(-2.15033e-15 2.15033e-15 0)
(0 0 -2.68792e-16)
(-1.07517e-15 1.07517e-15 -2.68792e-16)
(0 0 -2.68792e-16)
(-2.15033e-15 2.15033e-15 -2.68792e-16)
(-2.15033e-15 2.15033e-15 0)
(-2.15033e-15 2.15033e-15 -2.68792e-16)
(0 0 -2.68792e-16)
(0 0 -2.68792e-16)
(0 0 -2.68792e-16)
(0 0 0)
(1.07517e-15 1.07517e-15 -2.68792e-16)
(-1.07517e-15 -1.07517e-15 0)
(1.07517e-15 1.07517e-15 -2.68792e-16)
(0 0 -2.68792e-16)
(0 0 -2.68792e-16)
(1.07517e-15 1.07517e-15 -2.68792e-16)
(0 0 -2.68792e-16)
(0 0 0)
(0 0 -2.68792e-16)
(0 0 -2.68792e-16)
(2.15033e-15 2.15033e-15 -2.68792e-16)
(0 0 0)
(-1.07517e-15 -1.07517e-15 0)
(-2.15033e-15 -2.15033e-15 0)
(0 0 0)