/*--------------------------------*- C++ -*----------------------------------*\
| =========                 |                                                 |
| \\      /  F ield         | OpenFOAM: The Open Source CFD Toolbox           |
|  \\    /   O peration     | Version:  2.3.1                                 |
|   \\  /    A nd           | Web:      www.OpenFOAM.org                      |
|    \\/     M anipulation  |                                                 |
\*---------------------------------------------------------------------------*/
FoamFile
{
    version     2.0;
    format      ascii;
    class       volScalarField;
    location    "1";
    object      p;
}
// * * * * * * * * * * * * * * * * * * * * * * * * * * * * * * * * * * * * * //

dimensions      [0 2 -2 0 0 0 0];

internalField   nonuniform List<scalar> 
768
(
-4.2136e-08
-0.00294608
-0.00565555
-0.00797389
-0.00985849
-0.0109961
-0.00996551
-0.00881178
-0.00718118
-0.00516157
-0.00285485
-0.000554657
-0.000108864
-0.00261061
-0.00497656
-0.00697606
-0.00853706
-0.00932968
-0.00887386
-0.00795557
-0.00652694
-0.00478942
-0.00277308
-0.00073956
-0.000167254
-0.00229489
-0.00434651
-0.00608192
-0.00739899
-0.00805717
-0.00786109
-0.00713863
-0.00596674
-0.00449977
-0.00276732
-0.000996816
-0.000221229
-0.00204506
-0.00380778
-0.00531529
-0.00644623
-0.0070309
-0.00697179
-0.00642792
-0.0054991
-0.00432232
-0.00292648
-0.00153528
0.00161556
0.00310266
0.00453727
0.00536272
0.00583976
0.00563875
0.0056242
0.00552566
0.00525373
0.00474351
0.00381401
0.00230204
0.00144697
0.0029581
0.00427073
0.00505655
0.00546914
0.00546471
0.0054278
0.00528957
0.00496809
0.00438944
0.00342514
0.00194194
0.00151435
0.00303672
0.0041335
0.00481245
0.00516765
0.00521975
0.00514734
0.00494851
0.00456723
0.00393784
0.00297208
0.00158478
0.00197027
0.00336934
0.00414146
0.00465835
0.00493553
0.0049792
0.00487303
0.00462438
0.00419596
0.00353663
0.00258649
0.00129887
-0.000117168
-0.00298392
-0.00572121
-0.00808117
-0.00997185
-0.0111178
-0.0100827
-0.00892591
-0.00728841
-0.0052669
-0.00295881
-0.000658116
-0.000190719
-0.00266735
-0.0050499
-0.00708429
-0.00864675
-0.00944403
-0.00898639
-0.00806854
-0.00662907
-0.00489221
-0.00287498
-0.000840604
-0.000259825
-0.00235825
-0.00441863
-0.00618287
-0.00750426
-0.00816559
-0.00796901
-0.00724549
-0.00606816
-0.00460027
-0.00286626
-0.00109357
-0.000320342
-0.00211785
-0.00388249
-0.00540922
-0.00654578
-0.00713358
-0.00707484
-0.00653003
-0.00559823
-0.00441999
-0.00302295
-0.00162795
0.00163126
0.00312722
0.00456692
0.00540164
0.00589661
0.00568129
0.00567286
0.00557857
0.00531055
0.00479933
0.00386867
0.002382
0.00146075
0.0029788
0.0042985
0.00509335
0.00551653
0.00551052
0.0054787
0.00534578
0.00503174
0.00446288
0.00350758
0.00202806
0.00152609
0.00305343
0.00415846
0.00484649
0.00520998
0.00526577
0.00519876
0.00500556
0.00463014
0.00400879
0.00305544
0.00168117
0.00198091
0.00338458
0.00416488
0.00469041
0.00497528
0.00502437
0.0049239
0.00468088
0.0042572
0.00360224
0.00266002
0.00138773
-0.000250581
-0.00182825
-0.00335912
-0.00467704
-0.0056641
-0.00619952
-0.00622937
-0.00583951
-0.00512298
-0.00420467
-0.00319111
-0.00232332
-0.000254203
-0.00164335
-0.00298959
-0.00415594
-0.00503608
-0.0055396
-0.00563282
-0.00536776
-0.00482348
-0.0041106
-0.00334536
-0.0027031
-0.000252197
-0.00149562
-0.00269643
-0.00374246
-0.00454165
-0.00502288
-0.00516212
-0.00499442
-0.00458699
-0.00403673
-0.00345399
-0.00298036
-0.000250753
-0.00137832
-0.00246521
-0.00341685
-0.00415381
-0.00461853
-0.00479156
-0.00469994
-0.00440094
-0.003979
-0.00353201
-0.0031785
-0.0002503
-0.00128386
-0.00228166
-0.00315952
-0.00384842
-0.00430039
-0.00449948
-0.00446771
-0.00425435
-0.00393299
-0.00358891
-0.00332268
-0.000243336
-0.00120732
-0.00213597
-0.0029564
-0.00360829
-0.00405061
-0.00427016
-0.00428526
-0.00413904
-0.00389588
-0.00363006
-0.00342758
-0.000232155
-0.00114535
-0.00202123
-0.00279751
-0.00342106
-0.00385616
-0.00409175
-0.0041433
-0.00404917
-0.00386623
-0.00365971
-0.00350387
-0.000221019
-0.00109605
-0.00193226
-0.00267522
-0.00327753
-0.00370731
-0.00395534
-0.00403487
-0.0039805
-0.00384325
-0.00368118
-0.00355926
-0.000212403
-0.001058
-0.00186515
-0.00258379
-0.00317073
-0.00359661
-0.00385422
-0.00395467
-0.00392987
-0.00382641
-0.0036969
-0.00359925
-0.000205532
-0.00102973
-0.00181685
-0.00251877
-0.00309535
-0.00351838
-0.00378336
-0.0038987
-0.00389493
-0.00381538
-0.00370875
-0.00362779
-0.000193914
-0.00100977
-0.00178495
-0.00247664
-0.00304735
-0.00347161
-0.00373891
-0.00386394
-0.00387387
-0.00380988
-0.003718
-0.00364779
-0.000186802
-0.000998042
-0.0017674
-0.00245389
-0.00302078
-0.00344623
-0.00371706
-0.0038475
-0.00386472
-0.00380878
-0.00372468
-0.00366143
0.0030557
0.00375289
0.00420998
0.00455984
0.00475013
0.00475982
0.00462212
0.00433918
0.00388373
0.00321733
0.00230018
0.00110999
0.00364566
0.0039849
0.00426043
0.00448404
0.00459604
0.00456493
0.00439679
0.00408759
0.00361599
0.00295389
0.00207629
0.000976595
0.00395784
0.00412122
0.00428253
0.00441622
0.00446432
0.00439457
0.00419922
0.00386964
0.00338817
0.00273467
0.00189504
0.000874159
0.00411529
0.0041944
0.00428354
0.00435286
0.00435076
0.00424761
0.00402917
0.00368416
0.00319746
0.00255469
0.00174932
0.000794165
0.00419532
0.00422994
0.00427163
0.00429426
0.00425338
0.00412272
0.00388531
0.0035287
0.00303972
0.0024082
0.00163243
0.00072612
0.00423411
0.00424357
0.00425306
0.00424151
0.00417103
0.00401843
0.00376589
0.00340066
0.00291117
0.00229032
0.0015397
0.000673997
0.00425007
0.00424472
0.0042321
0.00419559
0.00410291
0.00393327
0.00366903
0.0032975
0.0028085
0.00219716
0.00146739
0.000634872
0.00425354
0.00423923
0.00421156
0.00415718
0.00404827
0.00386588
0.0035929
0.00321691
0.00272885
0.00212553
0.00141251
0.00060635
0.00425032
0.00423074
0.00419321
0.00412661
0.00400642
0.00381498
0.00353581
0.0031568
0.00266979
0.00207282
0.00137263
0.000586688
0.00424369
0.00422134
0.00417802
0.00410385
0.00397659
0.00377937
0.00349622
0.00311536
0.00262929
0.00203694
0.00134584
0.000574347
0.0042352
0.00421217
0.00416641
0.00408865
0.00395792
0.00375779
0.00347261
0.00309086
0.00260553
0.00201613
0.00133064
0.000566618
0.00422532
0.00420444
0.00415874
0.0040803
0.00394872
0.00374802
0.00346228
0.00308041
0.0025956
0.00200772
0.00132499
0.000564776
-0.000337243
-0.00190434
-0.00343543
-0.00476522
-0.00575798
-0.00629677
-0.00632787
-0.00593774
-0.00521958
-0.00429988
-0.00328469
-0.00241261
-0.000332283
-0.00171678
-0.00306429
-0.00423927
-0.00512511
-0.00563234
-0.00572752
-0.00546286
-0.00491777
-0.00420377
-0.00343694
-0.00279207
-0.000327253
-0.00156619
-0.00276904
-0.00382217
-0.00462693
-0.00511213
-0.00525379
-0.00508701
-0.00467932
-0.00412824
-0.00354418
-0.00306891
-0.000321384
-0.00144611
-0.00253622
-0.00349403
-0.00423633
-0.00470509
-0.00488088
-0.00479053
-0.00449166
-0.00406919
-0.00362121
-0.00326663
-0.000307643
-0.00134863
-0.00235115
-0.00323485
-0.00392888
-0.0043849
-0.00458686
-0.00455661
-0.00434373
-0.00402214
-0.00367737
-0.00341045
-0.000295
-0.00126964
-0.00220423
-0.00303034
-0.0036872
-0.00413353
-0.00435597
-0.00437279
-0.00422732
-0.0039842
-0.00371795
-0.00351503
-0.000283988
-0.00120638
-0.00208853
-0.00287041
-0.00349878
-0.00393785
-0.00417636
-0.00422978
-0.00413659
-0.00395389
-0.00374717
-0.00359105
-0.000274583
-0.00115657
-0.00199894
-0.00274732
-0.00335436
-0.00378808
-0.00403905
-0.00412054
-0.00406725
-0.00393041
-0.0037683
-0.00364624
-0.000266584
-0.00111848
-0.00193148
-0.00265535
-0.00324692
-0.00367672
-0.00393727
-0.00403973
-0.00401614
-0.0039132
-0.00378379
-0.00368608
-0.000259598
-0.00109049
-0.00188305
-0.00258998
-0.0031711
-0.00359803
-0.00386593
-0.00398334
-0.00398084
-0.00390191
-0.00379547
-0.00371451
-0.0002518
-0.00107108
-0.00185107
-0.00254763
-0.0031228
-0.00355088
-0.00382118
-0.0039483
-0.00395956
-0.00389625
-0.00380463
-0.00373448
-0.00024627
-0.00105969
-0.00183349
-0.00252479
-0.00309615
-0.00352532
-0.00379916
-0.00393172
-0.0039503
-0.00389509
-0.00381128
-0.00374812
0.003067
0.00376886
0.00423329
0.00459089
0.00478845
0.00480426
0.00467237
0.0043949
0.00394412
0.00328125
0.00236822
0.00118638
0.00365928
0.00400256
0.00428437
0.00451481
0.00463362
0.00460877
0.00444645
0.00414258
0.00367562
0.00301733
0.0021428
0.0010451
0.00397406
0.00414072
0.00430735
0.00444713
0.00450157
0.00443793
0.00424836
0.00392405
0.00344719
0.00279761
0.00196103
0.00093916
0.00413377
0.0042156
0.00430931
0.00438413
0.00438792
0.00429068
0.0040779
0.00373814
0.00325613
0.00261752
0.00181576
0.000860069
0.00421571
0.00425263
0.00429833
0.00432599
0.00429061
0.00416563
0.00393377
0.00358236
0.00309822
0.00247128
0.00170052
0.00080245
0.00425608
0.00426756
0.00428064
0.00427371
0.00420843
0.00406128
0.00381418
0.0034541
0.00296956
0.00235366
0.00160894
0.000754237
0.00427334
0.0042698
0.00426045
0.00422826
0.00414053
0.00397616
0.00371722
0.00335081
0.00286682
0.00226062
0.00153694
0.000713942
0.00427786
0.00426521
0.00424057
0.00419028
0.00408611
0.00390884
0.00364103
0.00327013
0.0027871
0.00218897
0.00148184
0.000683091
0.00427546
0.00425742
0.00422276
0.00416005
0.00404446
0.00385802
0.00358391
0.00320994
0.00272797
0.00213615
0.00144156
0.000662266
0.00426944
0.00424855
0.00420797
0.00413758
0.00401477
0.00382245
0.00354429
0.00316844
0.00268739
0.0021001
0.00141428
0.000649479
0.00426135
0.00423975
0.00419664
0.00412256
0.00399622
0.0038009
0.00352067
0.0031439
0.00266357
0.00207912
0.0013984
0.000637602
0.0042517
0.00423222
0.00418914
0.00411433
0.00398707
0.00379114
0.00351034
0.00313342
0.00265359
0.00207062
0.00139233
0.000634024
)
;

boundaryField
{
    rotor
    {
        type            zeroGradient;
    }
    stator
    {
        type            zeroGradient;
    }
    AMI1
    {
        type            cyclicAMI;
        value           nonuniform 0();
    }
    AMI2
    {
        type            cyclicAMI;
        value           nonuniform List<scalar> 
48
(
-4.75165e-05
-0.0034209
-0.0062342
-0.00864161
-0.0106625
-0.0118381
-0.0106813
-0.00935895
-0.00759108
-0.00542199
-0.00294535
-0.0004396
0.00189664
0.00328279
0.00474363
0.00557822
0.00604811
0.00570433
0.00570248
0.00566356
0.00546336
0.00504621
0.00417926
0.00266049
-0.000145313
-0.00341732
-0.00627337
-0.00873529
-0.0107675
-0.0119536
-0.0107944
-0.0094708
-0.00769763
-0.00552642
-0.00304848
-0.0005423
0.0019171
0.00331113
0.00477576
0.005619
0.00611295
0.00575135
0.00575437
0.00571788
0.00551749
0.00509443
0.00423344
0.00275628
)
;
    }
    front
    {
        type            empty;
    }
    back
    {
        type            empty;
    }
    procBoundary0to1
    {
        type            processor;
        value           nonuniform List<scalar> 8(0.00150969 0.00134113 0.00140841 0.00186373 -0.00055476 -0.000737694 -0.00099311 -0.00153505);
    }
}


// ************************************************************************* //
