/*--------------------------------*- C++ -*----------------------------------*\
| =========                 |                                                 |
| \\      /  F ield         | OpenFOAM: The Open Source CFD Toolbox           |
|  \\    /   O peration     | Version:  2.3.1                                 |
|   \\  /    A nd           | Web:      www.OpenFOAM.org                      |
|    \\/     M anipulation  |                                                 |
\*---------------------------------------------------------------------------*/
FoamFile
{
    version     2.0;
    format      ascii;
    class       volVectorField;
    location    "1";
    object      U;
}
// * * * * * * * * * * * * * * * * * * * * * * * * * * * * * * * * * * * * * //

dimensions      [0 1 -1 0 0 0 0];

internalField   nonuniform List<vector> 
768
(
(0.039906 0.0285932 4.8967e-23)
(0.0369169 0.0168757 -5.78804e-21)
(0.0301865 0.00657442 -2.64112e-20)
(0.021818 0.00043765 0)
(0.0123132 -0.00129695 1.16662e-19)
(0.00346478 0.00279117 3.85228e-20)
(-0.00291565 0.0108162 -1.29357e-19)
(-0.00809398 0.0199576 0)
(-0.0131462 0.0289123 -6.44563e-20)
(-0.0167516 0.0376018 1.67346e-20)
(-0.0197957 0.0470112 -1.64657e-20)
(-0.0234585 0.0550924 -7.12742e-21)
(0.0323462 0.0185484 6.85874e-22)
(0.0307774 0.0108839 -3.88521e-21)
(0.0258716 0.00263292 2.31546e-20)
(0.019546 -0.00245533 0)
(0.0114532 -0.00497109 -6.7668e-20)
(0.00256392 -0.00354508 8.75495e-20)
(-0.00508438 0.000513576 4.47608e-20)
(-0.0118565 0.00614331 4.9659e-21)
(-0.0177224 0.0133929 3.01505e-20)
(-0.0196397 0.023052 0)
(-0.0203385 0.0347773 0)
(-0.0185751 0.0514297 -1.35998e-20)
(0.0278079 0.00754905 0)
(0.0250217 0.00046409 4.89174e-21)
(0.0198007 -0.0061441 -1.87359e-20)
(0.0137967 -0.0104227 -1.35932e-20)
(0.00622904 -0.0129986 9.41452e-20)
(-0.00210086 -0.0127795 -4.85221e-20)
(-0.0098605 -0.0101336 9.319e-20)
(-0.016389 -0.0050484 -2.65023e-20)
(-0.0204433 0.0027004 5.29829e-21)
(-0.0197974 0.0138794 6.38504e-21)
(-0.0191105 0.0249243 5.90285e-20)
(-0.0127047 0.0452172 1.32768e-20)
(0.0236199 -0.000669256 0)
(0.0206159 -0.00767788 -7.48012e-21)
(0.0155321 -0.0132977 0)
(0.0095082 -0.017212 -3.87793e-20)
(0.00222685 -0.0194296 0)
(-0.00539983 -0.0192212 -2.45369e-20)
(-0.012171 -0.0165636 -1.11902e-19)
(-0.0171646 -0.0113724 2.60789e-20)
(-0.0194899 -0.00378546 0)
(-0.0186255 0.0064054 0)
(-0.0185085 0.0147541 1.18434e-20)
(-0.00997299 0.0313091 -8.43091e-21)
(-0.0223221 0.0508719 3.0854e-20)
(-0.00796935 0.0375561 -1.59057e-20)
(0.0136985 0.0390241 8.99237e-20)
(0.0285427 0.0346689 -6.75791e-20)
(0.0384907 0.0247318 -3.23213e-21)
(0.0438449 0.0136635 -4.78501e-20)
(0.0473929 0.00354914 -7.03708e-20)
(0.0505144 -0.00603861 -4.72368e-20)
(0.0522441 -0.0148983 2.25668e-20)
(0.0517656 -0.0232802 0)
(0.0479547 -0.0313231 0)
(0.039869 -0.0381684 -7.04784e-21)
(-0.0162905 0.0568301 0)
(-0.00368469 0.0356487 0)
(0.0147854 0.0316632 -7.20516e-20)
(0.0254488 0.0290084 2.11809e-20)
(0.0330735 0.0216868 2.18294e-20)
(0.0376178 0.0121246 1.73207e-21)
(0.0396469 0.00270475 5.62304e-20)
(0.0402675 -0.00616239 3.06858e-20)
(0.0395174 -0.0140767 0)
(0.0373926 -0.0208731 0)
(0.0336124 -0.026565 -1.34256e-21)
(0.0276741 -0.0309324 5.59504e-21)
(-0.0125326 0.0618016 0)
(0.0017684 0.0376798 -1.39101e-20)
(0.0165262 0.0283776 -5.13972e-20)
(0.0233965 0.0248151 7.5503e-20)
(0.0288505 0.0186656 8.12445e-20)
(0.0324132 0.0103389 2.20872e-20)
(0.0335527 0.00158093 -2.92915e-20)
(0.0327404 -0.00682234 -3.04851e-20)
(0.0302662 -0.0142207 3.44625e-20)
(0.0264121 -0.0202352 0)
(0.0213514 -0.02469 1.11637e-21)
(0.0151467 -0.0273558 1.7149e-21)
(-0.013857 0.0577908 -3.62974e-20)
(0.00573243 0.0384822 -5.34364e-20)
(0.0167155 0.0264357 6.34901e-20)
(0.0211089 0.0220111 -9.17131e-20)
(0.0252513 0.0165259 1.54275e-20)
(0.0281095 0.00938279 0)
(0.0287886 0.00160724 -7.14637e-21)
(0.0273719 -0.00605883 6.50592e-22)
(0.0240998 -0.0129263 -2.51275e-20)
(0.0193444 -0.0184492 0)
(0.0134579 -0.0223126 -8.42804e-21)
(0.00675528 -0.0242515 -6.01734e-21)
(0.0282503 -0.0409198 8.61073e-24)
(0.0159953 -0.0382147 -7.10768e-21)
(0.00598454 -0.0315188 0)
(-0.000111334 -0.0225238 0)
(-0.00155523 -0.0125391 -5.87045e-20)
(0.00268307 -0.00350408 -1.30633e-19)
(0.0107716 0.00292644 -1.79339e-19)
(0.0199119 0.00811409 4.68681e-20)
(0.0288528 0.013186 -9.00397e-20)
(0.0375178 0.0168288 -1.71709e-20)
(0.0468961 0.0199381 6.48308e-20)
(0.0549392 0.0236772 0)
(0.0196659 -0.0329493 -8.73684e-22)
(0.0108264 -0.0317799 -4.38252e-21)
(0.00287112 -0.0273234 1.95093e-20)
(-0.00275171 -0.020352 1.64507e-20)
(-0.00513701 -0.0117143 6.23506e-20)
(-0.00365469 -0.00256506 0)
(0.000450732 0.00516592 1.18413e-19)
(0.00608557 0.0119591 2.87376e-20)
(0.0133259 0.0178386 5.79638e-20)
(0.022972 0.0197877 0)
(0.0346757 0.0205425 -4.68211e-20)
(0.0512901 0.0188405 0)
(0.00804945 -0.0277377 -2.86229e-22)
(0.0007817 -0.0255952 9.46621e-21)
(-0.00574552 -0.0209904 -1.89983e-20)
(-0.0106149 -0.0144082 -1.37906e-20)
(-0.0131525 -0.00643809 2.98016e-20)
(-0.0129257 0.00212417 -1.60762e-20)
(-0.0102497 0.00995618 0)
(-0.00514409 0.016505 -3.50258e-20)
(0.00261087 0.0205758 -2.6724e-20)
(0.0138019 0.0199622 -1.48983e-20)
(0.0248476 0.0193187 6.09521e-20)
(0.0451174 0.0129709 0)
(-0.000359182 -0.0239555 5.96095e-22)
(-0.00722532 -0.0212871 -1.2081e-20)
(-0.0131367 -0.0164594 0)
(-0.017452 -0.00989983 3.94575e-20)
(-0.0196627 -0.00233273 0)
(-0.0194193 0.00545308 2.49155e-20)
(-0.0167154 0.0122757 2.7847e-20)
(-0.0114872 0.0172841 -1.2066e-19)
(-0.00387576 0.019622 4.09029e-21)
(0.0063451 0.0187782 1.93962e-20)
(0.0147255 0.018692 -4.53147e-20)
(0.03126 0.0102225 3.04986e-20)
(-0.050655 -0.0224831 -3.11949e-20)
(-0.0373386 -0.00799622 1.60236e-20)
(-0.0388054 0.0137197 -1.61404e-20)
(-0.0344608 0.0285792 0)
(-0.0244915 0.0385049 0)
(-0.013444 0.0438501 1.21064e-19)
(-0.00333704 0.0474961 -1.05761e-20)
(0.00627437 0.0507442 3.59415e-20)
(0.0152378 0.0526788 0)
(0.0239029 0.0525481 -2.08616e-20)
(0.0322633 0.0491274 -8.62865e-21)
(0.0382647 0.0403936 2.81211e-21)
(-0.0566171 -0.0164821 0)
(-0.0353802 -0.00377762 0)
(-0.0314123 0.0147378 0)
(-0.0287894 0.0254296 -2.179e-20)
(-0.0214555 0.0330633 -8.65526e-22)
(-0.0119005 0.0376077 -2.34961e-20)
(-0.00245984 0.0397075 4.5652e-20)
(0.0064508 0.0404294 -4.19982e-20)
(0.0144438 0.0397417 0)
(0.0213308 0.037521 1.29931e-20)
(0.0269696 0.0333208 5.37184e-21)
(0.0309521 0.0266716 -1.38758e-21)
(-0.0616343 -0.0126783 0)
(-0.0374051 0.0016784 3.59666e-20)
(-0.0280969 0.0164849 -3.55568e-21)
(-0.0245702 0.0233799 -2.09632e-21)
(-0.0184277 0.0288321 2.02221e-20)
(-0.0100916 0.0323897 2.03047e-20)
(-0.00129728 0.0335355 3.09573e-20)
(0.00716995 0.0327337 2.13006e-20)
(0.0146042 0.0302118 9.46743e-21)
(0.0205346 0.0261157 -1.66139e-20)
(0.0246841 0.0205643 -5.60666e-21)
(0.0270359 0.0140134 0)
(-0.0576735 -0.0139278 9.70052e-21)
(-0.0382563 0.00571014 -4.70111e-21)
(-0.0261723 0.0167271 0)
(-0.0217688 0.0211117 0)
(-0.0162974 0.0252256 -1.94795e-20)
(-0.0091441 0.0280665 -1.23684e-21)
(-0.00132156 0.0287206 -5.63109e-20)
(0.00640085 0.0272427 0)
(0.0132851 0.0238628 -3.14152e-20)
(0.0187104 0.0189423 0)
(0.0223147 0.0128675 -4.15843e-21)
(0.0239799 0.00613403 0)
(0.0197175 -0.0043862 2.36121e-22)
(0.0167917 -0.0108569 7.24039e-21)
(0.012288 -0.0158389 0)
(0.0067721 -0.0193339 3.75064e-20)
(0.000295395 -0.0210432 1.11866e-20)
(-0.00625057 -0.0205505 6.2623e-20)
(-0.0118603 -0.017936 -2.35348e-20)
(-0.0157273 -0.013439 0)
(-0.0176382 -0.0074302 0)
(-0.018187 0.000252513 -1.38616e-20)
(-0.0193508 0.00712626 -3.18807e-20)
(-0.0170225 0.0106786 0)
(0.016237 -0.00491155 -2.29361e-22)
(0.0136753 -0.0106182 0)
(0.00977503 -0.0150659 2.06637e-20)
(0.00496252 -0.0181239 -8.3692e-21)
(-0.000533908 -0.0194845 8.40635e-21)
(-0.00598804 -0.0189244 -5.72069e-20)
(-0.0106399 -0.016663 -4.06963e-20)
(-0.0139184 -0.0131204 2.01025e-20)
(-0.0159019 -0.00874613 0)
(-0.017266 -0.00299776 0)
(-0.0184236 0.0037008 0)
(-0.0150556 0.0101304 0)
(0.0133375 -0.00420156 2.22306e-22)
(0.0112234 -0.0091693 6.92662e-21)
(0.00792474 -0.0131166 -2.19479e-20)
(0.003833 -0.0158142 0)
(-0.000775859 -0.0170041 0)
(-0.00532674 -0.0165439 1.62509e-19)
(-0.00924247 -0.0146583 -8.90925e-20)
(-0.0121069 -0.0117587 0)
(-0.0140185 -0.00833741 1.52679e-20)
(-0.0153644 -0.0038102 -2.84614e-20)
(-0.0159943 0.00198084 1.32e-20)
(-0.0126067 0.00800453 0)
(0.0109161 -0.00344446 -2.16316e-22)
(0.00917836 -0.00777341 -4.93968e-21)
(0.00642246 -0.0112597 1.63218e-20)
(0.00297873 -0.0136548 -1.61312e-20)
(-0.000877441 -0.0147502 2.11027e-20)
(-0.00468217 -0.0144313 1.1299e-20)
(-0.00797545 -0.0128643 1.1694e-19)
(-0.0104264 -0.0103588 1.56974e-20)
(-0.012055 -0.007412 -1.56644e-20)
(-0.0130801 -0.00362197 -5.43744e-20)
(-0.0133153 0.00114192 0)
(-0.0103266 0.00634442 0)
(0.00886897 -0.00291038 0)
(0.00741799 -0.00671325 0)
(0.00511044 -0.0098086 -1.58828e-20)
(0.00220879 -0.0119578 2.20303e-20)
(-0.00102398 -0.0129835 3.00416e-20)
(-0.00421023 -0.0127886 -1.38016e-19)
(-0.00697836 -0.011488 -3.26202e-20)
(-0.00903839 -0.00930252 -7.37491e-20)
(-0.0103633 -0.00667495 0)
(-0.0110631 -0.00337233 5.29096e-20)
(-0.010978 0.000573336 4.82373e-20)
(-0.00837658 0.00495805 0)
(0.00711066 -0.00251695 0)
(0.00589416 -0.00590224 -1.36097e-21)
(0.00395594 -0.00868275 1.36083e-21)
(0.00150973 -0.0106309 -5.3485e-21)
(-0.00120605 -0.0116007 -8.92394e-20)
(-0.00387356 -0.011508 6.82881e-20)
(-0.00619621 -0.010439 -1.35975e-20)
(-0.00790694 -0.00854964 5.71004e-20)
(-0.00896966 -0.0062014 1.30857e-20)
(-0.00939182 -0.00326883 -1.30748e-20)
(-0.00903181 8.98113e-05 -4.69792e-20)
(-0.00676026 0.00380751 0)
(0.00558344 -0.00220532 0)
(0.00456993 -0.0052548 -1.25543e-21)
(0.00293685 -0.00777606 1.25509e-21)
(0.000877509 -0.00956385 0)
(-0.00140056 -0.0104924 5.04419e-20)
(-0.00362799 -0.0104863 6.85738e-21)
(-0.0055614 -0.00961841 2.54416e-20)
(-0.00696803 -0.00799291 6.49753e-20)
(-0.00779323 -0.0059105 -5.09181e-20)
(-0.00798524 -0.00329207 0)
(-0.00742416 -0.000378521 -9.30799e-20)
(-0.00540385 0.00280168 0)
(0.00424627 -0.00196754 0)
(0.00339894 -0.0047447 -1.16983e-21)
(0.00202752 -0.00705507 -1.0562e-20)
(0.000299976 -0.00871455 -4.598e-21)
(-0.00160628 -0.00961183 -3.52807e-20)
(-0.00345632 -0.00968069 1.18641e-20)
(-0.00504929 -0.00898312 -6.16348e-20)
(-0.00618571 -0.00758757 -9.99013e-20)
(-0.00679599 -0.00574907 -4.81126e-20)
(-0.00679797 -0.00341297 -1.16153e-20)
(-0.00609518 -0.000854871 1.11623e-20)
(-0.00426234 0.00191434 0)
(0.00305681 -0.00182699 0)
(0.00234602 -0.0043862 0)
(0.00119984 -0.00652819 1.14336e-20)
(-0.000246394 -0.00808369 0)
(-0.00183244 -0.00895748 1.09833e-21)
(-0.00335738 -0.00908825 1.12309e-20)
(-0.00464957 -0.00852862 -1.12189e-20)
(-0.00554038 -0.00732425 4.80844e-20)
(-0.00595403 -0.00569978 1.26977e-20)
(-0.0057907 -0.00361431 -1.03652e-19)
(-0.00497951 -0.00134277 8.88832e-20)
(-0.00326895 0.00111026 -8.70948e-20)
(0.00197568 -0.00184867 0)
(0.00138305 -0.00423261 -2.9959e-21)
(0.000422355 -0.0062333 1.05735e-20)
(-0.000781084 -0.00769694 -4.11868e-21)
(-0.00208853 -0.00854167 4.57538e-20)
(-0.00332334 -0.00871067 -3.51821e-20)
(-0.00435018 -0.00824561 4.46932e-20)
(-0.00500794 -0.00718801 -1.12636e-20)
(-0.00523313 -0.00573177 9.17963e-20)
(-0.00491472 -0.00385435 7.86586e-20)
(-0.00400799 -0.00181193 1.10517e-20)
(-0.00237909 0.000384433 8.49593e-20)
(0.000998323 -0.00236128 0)
(0.000481146 -0.00455025 8.67566e-21)
(-0.000329165 -0.00636826 -1.03121e-20)
(-0.00132578 -0.0076823 0)
(-0.00238429 -0.00842002 4.66263e-21)
(-0.0033544 -0.00852954 2.50167e-20)
(-0.00410796 -0.00806144 4.17003e-20)
(-0.00451288 -0.00705796 2.19342e-20)
(-0.00452209 -0.00568597 -1.10621e-19)
(-0.00403926 -0.00396455 -7.62616e-20)
(-0.00305842 -0.00212444 0)
(-0.00154574 -0.000212441 0)
(9.26767e-05 -0.00420604 2.59422e-22)
(-0.000380478 -0.00569891 -3.26947e-23)
(-0.0010051 -0.00683063 0)
(-0.00170233 -0.00751516 -3.79415e-21)
(-0.00237134 -0.00771716 3.79384e-21)
(-0.00291049 -0.00742415 4.81387e-20)
(-0.00322085 -0.00670128 -1.75064e-19)
(-0.00324211 -0.00561858 0)
(-0.00296944 -0.0043355 8.59292e-20)
(-0.00239786 -0.0029426 8.46736e-20)
(-0.00159761 -0.00161914 8.28749e-20)
(-0.000656986 -0.00039183 -8.14651e-20)
(-0.0198626 0.0404559 3.58937e-20)
(0.00538708 0.0347588 5.20617e-20)
(0.0142549 0.0245421 -6.29878e-20)
(0.0182037 0.0198267 0)
(0.0219122 0.0147465 -9.10791e-20)
(0.0244402 0.0085707 -5.25132e-20)
(0.0250143 0.00190392 4.40687e-20)
(0.0235878 -0.00470762 2.31257e-20)
(0.0202952 -0.0107168 0)
(0.0154575 -0.0155937 2.56894e-21)
(0.00949147 -0.0189503 6.5445e-21)
(0.00282201 -0.020497 2.25385e-21)
(-0.0149581 0.0305263 5.35752e-20)
(0.00336428 0.0287238 -1.47216e-20)
(0.0110234 0.0218232 7.6085e-20)
(0.0153965 0.0176687 0)
(0.0189579 0.0131266 0)
(0.0212792 0.00781152 8.48521e-20)
(0.0218412 0.00211396 4.63757e-20)
(0.0206246 -0.00351012 -3.76205e-20)
(0.0177127 -0.00863223 6.98194e-21)
(0.013334 -0.0128091 2.28978e-20)
(0.00785938 -0.0156739 -2.28197e-21)
(0.00171891 -0.0169423 8.41558e-22)
(-0.0113851 0.0227161 -5.26074e-20)
(0.00201027 0.0230914 0)
(0.00860484 0.018879 0)
(0.0130937 0.0155652 0)
(0.0164767 0.0116523 0)
(0.0186147 0.00711148 7.68696e-20)
(0.0191533 0.00225109 -1.41668e-19)
(0.0181241 -0.00253691 3.38157e-20)
(0.0156172 -0.00689065 0)
(0.0118182 -0.0104415 -2.00584e-20)
(0.00703591 -0.0128765 -5.82288e-21)
(0.00164259 -0.0139469 -1.43063e-21)
(-0.00892362 0.0172509 5.63122e-20)
(0.00113119 0.0184353 7.17774e-20)
(0.00691547 0.0161079 -7.30044e-20)
(0.0112957 0.0135965 5.93998e-20)
(0.0144581 0.0103243 0)
(0.0164087 0.00648589 1.24344e-20)
(0.0169098 0.00235243 4.90906e-20)
(0.0160164 -0.00172866 -3.84916e-20)
(0.0138254 -0.00543686 5.90197e-21)
(0.0105115 -0.008456 -1.84542e-21)
(0.00634742 -0.010523 8.10709e-21)
(0.00165325 -0.011436 0)
(-0.00682004 0.0131625 7.884e-22)
(0.000835501 0.0147638 -5.5948e-20)
(0.0058463 0.0136411 7.12339e-20)
(0.00994326 0.0118175 -1.29124e-19)
(0.0128406 0.00914404 5.65126e-20)
(0.0146022 0.00593385 -1.54156e-21)
(0.0150569 0.0024366 -6.20902e-21)
(0.0142633 -0.00103662 5.80061e-20)
(0.0123181 -0.00419723 -5.48201e-21)
(0.0093851 -0.00677058 0)
(0.00570863 -0.00852884 4.92703e-22)
(0.0015823 -0.00930819 -1.66583e-21)
(-0.00515942 0.0101771 -5.45095e-20)
(0.000869016 0.0118911 0)
(0.00521797 0.0115205 0)
(0.00894853 0.0102492 6.91835e-20)
(0.0115611 0.00811057 -1.22639e-19)
(0.0131351 0.00545538 -6.59246e-20)
(0.0135354 0.00251321 6.84431e-21)
(0.0128165 -0.0004322 -4.43841e-20)
(0.0110673 -0.00312056 5.12806e-21)
(0.00844232 -0.00531648 -1.55613e-21)
(0.00515891 -0.00681456 2.00816e-21)
(0.00148675 -0.00747706 -3.76576e-22)
(-0.00375421 0.00786056 -1.07339e-19)
(0.00111833 0.00961296 -1.20576e-19)
(0.00489933 0.00972023 2.67133e-20)
(0.00823932 0.0088898 3.95469e-20)
(0.0105686 0.00721747 1.04237e-19)
(0.0119609 0.00504734 1.20796e-20)
(0.0122983 0.00259087 -1.20526e-20)
(0.0116303 0.000105152 0)
(0.0100372 -0.00217579 0)
(0.00766254 -0.004046 1.22361e-20)
(0.0047022 -0.00532229 1.45188e-21)
(0.00140019 -0.005886 1.03897e-21)
(-0.00254857 0.00602017 1.04751e-19)
(0.00149503 0.00777442 1.72115e-22)
(0.0047983 0.00820012 -1.03574e-19)
(0.00776277 0.00772724 -1.53704e-19)
(0.00982412 0.00645856 -5.03561e-20)
(0.0110428 0.00471175 1.15322e-20)
(0.0113094 0.0026792 -1.67678e-20)
(0.0106689 0.000593363 5.25036e-21)
(0.00919394 -0.00133612 3.32937e-20)
(0.00701735 -0.00292321 -2.76531e-20)
(0.00431829 -0.00400973 1.75566e-21)
(0.00131606 -0.00448998 -1.31304e-21)
(-0.00148754 0.00450456 -8.93777e-20)
(0.00194156 0.00625522 8.90879e-20)
(0.00484554 0.00690874 1.01001e-19)
(0.00746811 0.00673537 6.41575e-22)
(0.00928264 0.00581858 0)
(0.0103362 0.00444178 4.57265e-20)
(0.010524 0.00278021 5.03091e-21)
(0.00988724 0.00104341 -6.50636e-22)
(0.00849312 -0.000579017 -6.86838e-20)
(0.00646503 -0.00192057 1.26274e-20)
(0.00396794 -0.00284199 0)
(0.00120027 -0.00324978 8.99542e-22)
(-0.000549952 0.00321323 1.99224e-19)
(0.00239325 0.00495179 0)
(0.00495755 0.0057777 1.21369e-20)
(0.00726985 0.00586204 1.80387e-19)
(0.00885401 0.00525646 1.04425e-19)
(0.00974374 0.00420692 -1.04018e-21)
(0.00984062 0.00287352 -1.55043e-20)
(0.00918248 0.00144655 4.12124e-20)
(0.00783212 9.78463e-05 3.10658e-20)
(0.00590694 -0.00102544 1.06503e-20)
(0.0035605 -0.00179688 1.24212e-21)
(0.000971412 -0.00213507 0)
(0.000226331 0.00207282 -9.71945e-20)
(0.00269831 0.00373506 0)
(0.00491451 0.00465824 0)
(0.00688352 0.00494 -9.37128e-20)
(0.00819845 0.00459836 -9.076e-20)
(0.0088749 0.00383773 -4.3103e-20)
(0.00882666 0.00280488 -3.96483e-20)
(0.00809365 0.0016706 -6.67098e-20)
(0.00674013 0.000589773 -4.07461e-21)
(0.00488034 -0.000307046 -1.28073e-20)
(0.00265961 -0.000911694 1.19986e-21)
(0.000237573 -0.00116055 0)
(0.000535899 0.000931572 -9.39754e-20)
(0.00210693 0.00202483 0)
(0.00349161 0.00270641 0)
(0.00463488 0.00296553 1.11443e-20)
(0.00527989 0.00279921 -1.11429e-20)
(0.00542621 0.0023425 1.00066e-20)
(0.00503312 0.00170879 -9.95134e-21)
(0.00415753 0.00102492 3.42854e-20)
(0.0028723 0.000402464 0)
(0.00128049 -7.06281e-05 -1.23337e-20)
(-0.000500172 -0.000329424 -6.21622e-21)
(-0.00234336 -0.000343626 7.85212e-22)
(-0.00405 -0.0200342 5.64499e-24)
(-0.0104908 -0.0174435 7.51336e-21)
(-0.0158665 -0.0129886 0)
(-0.0196101 -0.00706834 -2.82998e-20)
(-0.0213094 -0.00036826 -5.0965e-20)
(-0.0207605 0.00629752 -2.70556e-20)
(-0.0180897 0.0119498 -2.38996e-20)
(-0.0135501 0.0158308 9.39426e-20)
(-0.00750923 0.0177508 0)
(0.000211316 0.0183109 4.95301e-20)
(0.00713047 0.0194914 -3.60379e-20)
(0.0107496 0.0171673 -3.01272e-20)
(-0.00455977 -0.0164567 -6.03814e-22)
(-0.010372 -0.0141583 0)
(-0.0151434 -0.0102762 -2.11813e-20)
(-0.0183712 -0.00520624 0)
(-0.0197242 0.000459895 4.13923e-21)
(-0.0191127 0.00601014 -7.90897e-20)
(-0.0168009 0.0107034 -2.05349e-20)
(-0.0132194 0.0139982 9.75619e-20)
(-0.00881388 0.0159923 0)
(-0.00303156 0.017367 -4.79318e-20)
(0.00370494 0.0185347 3.48569e-20)
(0.0101844 0.0151561 0)
(-0.00387681 -0.013523 2.91485e-22)
(-0.00897728 -0.0115782 -5.31794e-21)
(-0.0131628 -0.00829553 2.06041e-20)
(-0.0159959 -0.00404152 -3.33704e-20)
(-0.0171936 0.000696382 1.93111e-20)
(-0.0167008 0.00532658 4.95431e-20)
(-0.0147765 0.00928528 1.09113e-19)
(-0.0118446 0.0121695 -9.32536e-20)
(-0.00839705 0.0140928 0)
(-0.00384092 0.015449 4.43577e-20)
(0.00198295 0.0160845 1.3518e-20)
(0.00804675 0.0126843 0)
(-0.00315119 -0.0110718 3.80063e-22)
(-0.00759058 -0.0094485 6.50656e-21)
(-0.011256 -0.00671172 -1.71049e-21)
(-0.0137697 -0.00316084 2.02286e-21)
(-0.0148884 0.000794592 3.06053e-20)
(-0.0145551 0.0046664 0)
(-0.0129627 0.00800221 -8.68848e-20)
(-0.0104338 0.0104757 1.66796e-20)
(-0.00746424 0.0121172 0)
(-0.00364931 0.0131502 -1.11929e-19)
(0.00114244 0.013388 0)
(0.00637729 0.010387 0)
(-0.00263545 -0.00899189 5.0453e-22)
(-0.0065391 -0.0076288 0)
(-0.00977279 -0.00533606 -1.05664e-20)
(-0.0120203 -0.00236356 2.38552e-20)
(-0.0130789 0.000944326 9.64941e-22)
(-0.0128841 0.004186 -6.43731e-20)
(-0.0115713 0.00698853 1.53707e-20)
(-0.009369 0.00907227 4.4561e-20)
(-0.00672106 0.0104133 -1.40025e-20)
(-0.00339728 0.0111203 5.52171e-20)
(0.000572505 0.0110363 2.47003e-20)
(0.00498359 0.00842393 -1.18437e-20)
(-0.00226392 -0.00721101 -4.9119e-22)
(-0.00573764 -0.00606723 0)
(-0.00862381 -0.00413074 1.48325e-20)
(-0.0106584 -0.0016384 -5.47182e-21)
(-0.0116645 0.00113409 5.48163e-21)
(-0.0115818 0.00384812 6.96518e-20)
(-0.0105084 0.00620015 -5.53849e-20)
(-0.00860498 0.00793272 -7.24803e-20)
(-0.00624101 0.00900914 0)
(-0.00329089 0.00943817 -1.25322e-20)
(8.73872e-05 0.00907807 1.25302e-20)
(0.00382651 0.0067968 0)
(-0.00197271 -0.0056657 -2.95746e-22)
(-0.00509745 -0.00470478 4.04264e-21)
(-0.00770283 -0.00307438 0)
(-0.00956687 -0.000984107 0)
(-0.0105311 0.00133837 0)
(-0.0105407 0.00360394 1.29108e-20)
(-0.00967255 0.00556529 4.13501e-20)
(-0.00803837 0.00699088 5.29983e-20)
(-0.00594522 0.0078266 -1.28245e-20)
(-0.00331251 0.0080235 6.17003e-22)
(-0.000382726 0.00746125 1.07492e-19)
(0.00281551 0.00543227 9.17836e-20)
(-0.0017509 -0.0043124 -4.18585e-22)
(-0.00459213 -0.00349956 -4.87026e-21)
(-0.00697279 -0.00213363 1.21831e-21)
(-0.0086992 -0.000384406 -4.71249e-21)
(-0.009631 0.00155566 -3.05873e-20)
(-0.00971975 0.00343557 -3.96418e-20)
(-0.00902675 0.00505067 4.98581e-20)
(-0.0076266 0.0062033 -1.14618e-19)
(-0.00577993 0.00682351 0)
(-0.00343219 0.00682917 0)
(-0.000860141 0.00612515 -8.14089e-20)
(0.00192398 0.00428439 -1.02799e-20)
(-0.00162186 -0.00311118 4.0805e-22)
(-0.0042363 -0.00241718 1.14848e-21)
(-0.00643949 -0.00127917 -1.14773e-21)
(-0.00805404 0.000183928 0)
(-0.00896225 0.00179349 7.84234e-20)
(-0.00911568 0.00334199 5.64844e-20)
(-0.00856314 0.004652 -4.74955e-20)
(-0.00735724 0.00555517 4.92287e-20)
(-0.00572735 0.00597745 -1.21171e-20)
(-0.00363267 0.00581652 -1.15801e-20)
(-0.00134968 0.00500328 1.15902e-20)
(0.0011161 0.00328548 -8.83597e-20)
(-0.00165457 -0.00202151 3.76059e-22)
(-0.00408529 -0.00142963 0)
(-0.00614223 -0.000480287 1.09616e-20)
(-0.00765835 0.000737721 -4.22632e-21)
(-0.00853701 0.00206097 -2.8479e-20)
(-0.00872911 0.00331441 5.9884e-21)
(-0.00827338 0.00435569 2.26407e-20)
(-0.00721704 0.00502204 -8.15267e-20)
(-0.00575726 0.00525356 8.1589e-20)
(-0.00387266 0.00493639 2.71974e-22)
(-0.00182055 0.00402684 1.13058e-20)
(0.000386867 0.002391 0)
(-0.00218931 -0.00102556 -1.29618e-22)
(-0.00441604 -0.000511891 4.82233e-21)
(-0.00628523 0.000294482 -2.0194e-20)
(-0.00764424 0.00129818 0)
(-0.00841339 0.00236853 4.77315e-21)
(-0.00854481 0.0033526 -4.77254e-21)
(-0.00808703 0.0041161 -3.2854e-20)
(-0.00708529 0.00452758 1.69749e-19)
(-0.00571111 0.00454047 -9.08673e-20)
(-0.0039833 0.0040578 0)
(-0.00213476 0.00307327 0)
(-0.000213025 0.00155374 0)
(-0.00409816 -9.88921e-05 -6.84042e-22)
(-0.00561495 0.00036672 -5.91319e-21)
(-0.00678197 0.000994694 2.03876e-20)
(-0.00749793 0.00169362 -3.89546e-21)
(-0.00771966 0.0023691 8.48353e-21)
(-0.0074415 0.00291565 2.4347e-20)
(-0.00672488 0.00323101 2.08701e-20)
(-0.00564233 0.00325505 -1.09068e-20)
(-0.00435638 0.00298321 7.68363e-20)
(-0.00295794 0.00241021 1.08989e-20)
(-0.00162817 0.00160642 0)
(-0.000393953 0.000660822 8.33932e-20)
(-0.0404186 -0.0198329 0)
(-0.0346112 0.00544804 -6.69335e-20)
(-0.0243274 0.0143159 1.48818e-20)
(-0.0196075 0.0182169 0)
(-0.0145339 0.0218835 0)
(-0.00834676 0.0243804 1.79027e-20)
(-0.0016455 0.0249176 2.67532e-20)
(0.00500083 0.0234196 -8.47056e-21)
(0.0110122 0.0200083 3.05736e-20)
(0.0158027 0.0150524 0)
(0.019 0.0090512 9.38551e-21)
(0.0203899 0.00244321 1.04423e-21)
(-0.0305057 -0.0149238 0)
(-0.0286242 0.00344081 0)
(-0.0216526 0.0110847 -6.20872e-20)
(-0.0174749 0.0154044 0)
(-0.0129298 0.0189197 -1.69245e-20)
(-0.00760398 0.0212072 3.35548e-20)
(-0.00188954 0.021727 -7.99495e-20)
(0.00375607 0.0204451 -7.10111e-21)
(0.00887204 0.0174358 7.08594e-21)
(0.0129735 0.0129597 2.10809e-20)
(0.0157138 0.0074534 0)
(0.0168755 0.00135471 -1.01501e-21)
(-0.0226965 -0.0113478 0)
(-0.0230108 0.00208146 -1.47322e-20)
(-0.0187367 0.00865286 9.06087e-20)
(-0.0153964 0.0130922 -1.54679e-20)
(-0.0114755 0.0164315 0)
(-0.00692582 0.0185309 -4.6709e-20)
(-0.0020514 0.0190266 1.05279e-19)
(0.00274585 0.0179397 0)
(0.00708708 0.0153566 0)
(0.0105779 0.0114825 -1.84101e-20)
(0.0129076 0.00666012 4.56926e-21)
(0.0138715 0.0012826 7.95811e-22)
(-0.0172272 -0.00888952 0)
(-0.0183638 0.00118646 0)
(-0.0159867 0.00694648 -5.88794e-20)
(-0.0134491 0.0112836 1.50674e-20)
(-0.0101657 0.014405 -1.5141e-20)
(-0.00631736 0.0163174 1.33375e-19)
(-0.00217504 0.0167755 -1.65844e-20)
(0.00190688 0.0158293 3.11611e-20)
(0.00559751 0.0135762 -2.78023e-20)
(0.00856824 0.0102056 1.74607e-20)
(0.0105496 0.00600661 -6.48863e-21)
(0.0113588 0.00131788 -7.74183e-22)
(-0.0131364 -0.00679077 0)
(-0.0146989 0.000875135 5.65916e-20)
(-0.0135372 0.00586171 5.73316e-20)
(-0.0116895 0.00992175 0)
(-0.00900397 0.0127814 -4.28417e-20)
(-0.00578405 0.014505 -8.46752e-20)
(-0.00227986 0.0149182 -8.5733e-20)
(0.00119076 0.0140779 1.62899e-20)
(0.00433122 0.0120786 2.12178e-20)
(0.00686368 0.0091012 -1.6994e-20)
(0.00855157 0.00540113 0)
(0.00924167 0.0012706 0)
(-0.0101509 -0.00513538 0)
(-0.0118322 0.000895533 -5.51935e-20)
(-0.0114306 0.00522074 1.38747e-20)
(-0.0101378 0.00891852 -1.39089e-20)
(-0.0079865 0.0114961 5.54487e-20)
(-0.00532104 0.0130335 1.28665e-20)
(-0.00237581 0.0133931 3.76651e-20)
(0.000565792 0.012633 -9.52716e-20)
(0.003236 0.0108375 5.21936e-21)
(0.00539538 0.0081756 -1.61024e-21)
(0.00683634 0.00487634 1.61221e-21)
(0.00743232 0.0011968 0)
(-0.00783653 -0.00373573 0)
(-0.00956137 0.00113347 -1.07843e-19)
(-0.00964293 0.00489207 0)
(-0.00879346 0.00820175 -5.33108e-20)
(-0.00710823 0.0104984 3.9337e-20)
(-0.0049293 0.0118558 7.52388e-20)
(-0.00247139 0.0121548 -6.59434e-21)
(9.12589e-06 0.0114486 3.75045e-20)
(0.0022754 0.00981549 0)
(0.00411321 0.00741017 -1.50305e-21)
(0.00534377 0.00443833 1.50486e-21)
(0.00585747 0.00113005 0)
(-0.00599959 -0.00253535 0)
(-0.00773094 0.00150003 -1.29508e-20)
(-0.00813442 0.00478223 1.31034e-20)
(-0.00764441 0.00771845 -5.10883e-20)
(-0.0063635 0.00974899 -1.01065e-19)
(-0.00460833 0.0109349 -3.70943e-20)
(-0.00257411 0.0111655 -1.16535e-20)
(-0.000494307 0.0104896 -4.46439e-20)
(0.0014213 0.00897936 4.66962e-21)
(0.0029808 0.00677694 -1.4761e-20)
(0.00403072 0.00406881 1.41745e-21)
(0.00447089 0.00106242 0)
(-0.00448834 -0.00147929 -1.02738e-19)
(-0.00621945 0.00193861 1.02472e-19)
(-0.00685387 0.00482194 -8.87272e-20)
(-0.00666493 0.0074183 -1.19644e-20)
(-0.00573717 0.00920301 4.89279e-20)
(-0.00435325 0.0102256 1.12023e-20)
(-0.0026898 0.0103807 -1.1189e-20)
(-0.000958447 0.00971162 6.11774e-22)
(0.000652323 0.00828566 0)
(0.00197141 0.00623521 1.30103e-20)
(0.0028631 0.00373108 0)
(0.00323804 0.000961111 0)
(-0.00320168 -0.00054644 1.003e-19)
(-0.00492356 0.0023844 -1.1201e-19)
(-0.00573338 0.00492848 1.1124e-19)
(-0.00580372 0.00721648 9.72789e-20)
(-0.00518861 0.00877275 1.14902e-20)
(-0.00413247 0.00963336 4.4026e-20)
(-0.00279783 0.00969971 -4.72874e-20)
(-0.00137512 0.00901231 2.81745e-20)
(-3.50836e-05 0.00763378 4.2915e-21)
(0.00106992 0.00568936 1.22623e-20)
(0.00181756 0.00333728 -4.1318e-21)
(0.00213512 0.000748874 0)
(-0.00206619 0.000226078 0)
(-0.00371558 0.00268642 9.72577e-20)
(-0.00462582 0.00488469 -1.07878e-19)
(-0.00489597 0.00683237 2.3505e-20)
(-0.0045458 0.00812271 -2.27583e-20)
(-0.0037793 0.00877392 -4.29182e-20)
(-0.00274527 0.00869924 5.56233e-20)
(-0.00161426 0.00794028 -4.7643e-21)
(-0.000540166 0.00656244 0)
(0.000343227 0.00468661 -1.19716e-20)
(0.000930656 0.00245932 1.20391e-20)
(0.00116632 4.31439e-05 0)
(-0.000929726 0.000534755 -9.45624e-20)
(-0.0020175 0.00209961 9.41196e-20)
(-0.00269255 0.00347457 9.31642e-20)
(-0.00294523 0.00460549 0)
(-0.0027735 0.00523569 -8.85359e-20)
(-0.0023132 0.00536558 -7.40518e-20)
(-0.0016772 0.00495543 2.88483e-20)
(-0.000994356 0.00406286 -4.01898e-21)
(-0.000375014 0.00276164 4.02226e-21)
(9.17286e-05 0.00115864 0)
(0.000342114 -0.000627787 -1.69684e-23)
(0.000347352 -0.00246689 8.81444e-22)
)
;

boundaryField
{
    rotor
    {
        type            movingWallVelocity;
        value           nonuniform 0();
    }
    stator
    {
        type            movingWallVelocity;
        value           nonuniform List<vector> 
96
(
(3.26187e-18 9.96398e-17 2.64027e-36)
(0 0 0)
(-8.46966e-17 -5.13e-16 0)
(3.52934e-16 1.51365e-15 -1.99493e-16)
(-2.21665e-16 -7.30731e-16 0)
(-3.9605e-16 -1.05228e-15 1.93339e-32)
(2.35207e-33 -1.06571e-33 1.99493e-16)
(-6.6349e-16 -1.2413e-15 0)
(1.43136e-15 2.30181e-15 0)
(0 0 0)
(-1.0039e-15 -1.22326e-15 -1.99493e-16)
(1.59253e-15 1.70033e-15 -2.82432e-32)
(-1.07797e-16 -1.00963e-16 -1.99493e-16)
(-1.9073e-15 -1.56528e-15 0)
(1.51125e-15 1.08295e-15 -1.99493e-16)
(0 0 0)
(0 0 0)
(1.1999e-15 5.43666e-16 0)
(0 0 0)
(-7.30731e-16 -2.21665e-16 -1.99493e-16)
(7.05869e-16 1.64585e-16 0)
(0 0 0)
(-3.11354e-16 -3.06656e-17 1.99493e-16)
(4.74003e-18 1.55172e-19 -2.5835e-33)
(-1.0912e-16 3.57221e-18 -1.99493e-16)
(0 0 0)
(-5.13e-16 8.46966e-17 -1.99493e-16)
(7.56826e-16 -1.76467e-16 -1.99493e-16)
(7.30731e-16 -2.21665e-16 0)
(1.39792e-15 -5.2614e-16 -3.98986e-16)
(1.1999e-15 -5.43666e-16 0)
(1.2413e-15 -6.6349e-16 -1.99493e-16)
(-1.43136e-15 8.90077e-16 -1.99493e-16)
(0 0 0)
(-3.13056e-15 2.56918e-15 -3.98986e-16)
(-1.59253e-15 1.49157e-15 -1.99493e-16)
(1.59253e-15 -1.70033e-15 2.82432e-32)
(-1.0039e-15 1.22326e-15 -1.99493e-16)
(0 0 0)
(-1.74397e-16 2.80453e-16 0)
(-6.6349e-16 1.2413e-15 -9.73809e-33)
(5.62822e-17 -1.24217e-16 4.61588e-32)
(1.3009e-16 -3.4564e-16 -1.99493e-16)
(4.73004e-17 -1.55928e-16 0)
(3.52934e-16 -1.51365e-15 -1.99493e-16)
(4.35533e-17 -2.63799e-16 0)
(0 0 0)
(3.26187e-18 -9.96398e-17 -2.64027e-36)
(0 0 0)
(-7.97973e-16 7.97973e-16 0)
(-1.59595e-15 1.59595e-15 0)
(0 0 0)
(-7.97973e-16 7.97973e-16 0)
(7.97973e-16 -7.97973e-16 -1.99493e-16)
(-1.59595e-15 1.59595e-15 0)
(-1.59595e-15 1.59595e-15 0)
(0 0 0)
(0 0 -1.99493e-16)
(0 0 0)
(0 0 0)
(-1.59595e-15 1.59595e-15 0)
(-7.97973e-16 7.97973e-16 -1.99493e-16)
(-1.59595e-15 1.59595e-15 0)
(0 0 -1.99493e-16)
(-7.97973e-16 7.97973e-16 -1.99493e-16)
(0 0 -1.99493e-16)
(-1.59595e-15 1.59595e-15 -1.99493e-16)
(-1.59595e-15 1.59595e-15 0)
(-1.59595e-15 1.59595e-15 -1.99493e-16)
(0 0 -1.99493e-16)
(0 0 -1.99493e-16)
(0 0 -1.99493e-16)
(0 0 0)
(7.97973e-16 7.97973e-16 -1.99493e-16)
(-7.97973e-16 -7.97973e-16 0)
(7.97973e-16 7.97973e-16 -1.99493e-16)
(0 0 -1.99493e-16)
(0 0 -1.99493e-16)
(7.97973e-16 7.97973e-16 -1.99493e-16)
(0 0 -1.99493e-16)
(0 0 0)
(0 0 -1.99493e-16)
(0 0 -1.99493e-16)
(1.59595e-15 1.59595e-15 -1.99493e-16)
(0 0 0)
(-7.97973e-16 -7.97973e-16 0)
(-1.59595e-15 -1.59595e-15 0)
(0 0 0)
(-7.97973e-16 -7.97973e-16 0)
(7.97973e-16 7.97973e-16 -1.99493e-16)
(-1.59595e-15 -1.59595e-15 0)
(-1.59595e-15 -1.59595e-15 0)
(0 0 0)
(0 0 -1.99493e-16)
(0 0 0)
(0 0 0)
)
;
    }
    AMI1
    {
        type            cyclicAMI;
        value           nonuniform 0();
    }
    AMI2
    {
        type            cyclicAMI;