/*--------------------------------*- C++ -*----------------------------------*\
| =========                 |                                                 |
| \\      /  F ield         | OpenFOAM: The Open Source CFD Toolbox           |
|  \\    /   O peration     | Version:  2.3.1                                 |
|   \\  /    A nd           | Web:      www.OpenFOAM.org                      |
|    \\/     M anipulation  |                                                 |
\*---------------------------------------------------------------------------*/
FoamFile
{
    version     2.0;
    format      ascii;
    class       volSymmTensorField;
    location    "4120";
    object      sigma;
}
// * * * * * * * * * * * * * * * * * * * * * * * * * * * * * * * * * * * * * //

dimensions      [1 -1 -2 0 0 0 0];

internalField   nonuniform List<symmTensor> 
11800
(
(151287 75447 7.28367e-14 -2792.89 3.85789e-14 36844.5)
(-74984.6 66518.3 1.11813e-13 -372.92 3.54549e-14 -18697.7)
(685818 96496 -1.85676e-15 1454.77 -8.07771e-14 170526)
(-595406 49351.1 0 -1548.05 0 -148117)
(-77716.5 64194.1 2.08612e-14 -4990.54 -5.89352e-14 -20521.3)
(-372518 99673.9 8.08427e-14 2219.71 4.24021e-14 -91878.4)
(-69178.3 95720.5 1.53015e-13 -653.715 -3.9787e-14 -17326.7)
(-97492.1 99489 -2.278e-14 887.546 9.16416e-14 -23969.6)
(210666 50299.6 3.03128e-14 470.831 -2.06974e-14 52387.2)
(144297 104610 -7.83763e-14 765.316 -6.60126e-14 35993)
(174656 62128.1 -6.07608e-14 1846.3 5.20072e-14 43793.8)
(-863667 35638.1 -7.2562e-14 -6367.97 -3.29194e-14 -215873)
(24131.6 -35053 1.30838e-16 -65031.7 1.01672e-16 -10148.1)
(635273 49747.4 6.5779e-14 3879.13 -1.79978e-14 158587)
(-507659 93407.4 -5.4905e-14 6507.58 4.26798e-14 -124346)
(2.34591e+06 -8570.77 0 -7738.52 0 580147)
(-45186.6 74846.3 5.17813e-14 4294.2 4.56567e-15 -10146.2)
(-69737.3 68967 -2.92109e-14 8480.43 1.67744e-13 -15199.1)
(145757 117665 -2.9739e-14 -19078.1 2.11355e-14 31431.6)
(109948 62757.7 -1.04307e-13 -12067.8 -3.37364e-14 24286.1)
(-467699 56004.7 3.25089e-14 -1733.25 3.40679e-14 -116476)
(-755517 87801.1 5.19987e-14 3886.5 -3.0233e-14 -186495)
(-986929 111934 -2.61664e-14 12202 1.68232e-14 -241850)
(-905642 64262.5 2.62978e-16 243.335 4.54551e-15 -224648)
(1.9147e+06 83537.6 3.29149e-15 -8460.58 3.79047e-14 472976)
(-1.17822e+06 111639 -2.56976e-14 8341.75 -7.31329e-16 -290271)
(-1.24966e+06 58920.8 0 11011.5 0 -307333)
(617111 44032.9 -8.62812e-14 -5534.53 -5.21036e-14 151745)
(-1.36064e+06 60156.7 -1.4849e-14 12059.1 -7.1413e-14 -334609)
(-1.47187e+06 60618.8 1.9794e-14 14093.6 -3.07679e-14 -361705)
(404704 46365 -1.06942e-13 -2076.15 -1.91644e-13 99900.2)
(80966.3 60030.7 -1.71274e-14 2739.42 -1.41505e-14 20769.1)
(1.20254e+06 107698 -4.20117e-15 13871.6 -1.83572e-14 301816)
(-29554 79238.5 1.39858e-14 -2023.4 -1.04713e-13 -7835)
(20740.2 83908.1 -3.69896e-14 2196.77 -1.58758e-13 5691.13)
(-394956 34712.5 -9.71024e-14 -1208.49 -7.05373e-14 -98296.4)
(22848.3 85084.3 1.31372e-13 1639.13 -1.5622e-13 6075.83)
(1.28906e+06 61710.8 -1.54326e-14 6896.69 -6.594e-14 321554)
(-46921.8 82584.4 0 -1567.49 0 -12031.2)
(104907 77817.6 -4.52554e-14 6153.42 8.42972e-14 27556.2)
(-1.313e+06 43609.4 -8.0317e-14 -6664.26 -3.73253e-14 -327435)
(-1.42957e+06 43065.3 5.75285e-14 -7102.28 -3.30073e-14 -356468)
(648680 59147.3 -3.32813e-14 -804.878 -1.1076e-13 160751)
(-1.5464e+06 43375 -1.09362e-14 -5624.15 -5.83614e-14 -385088)
(425448 58256.8 2.84244e-13 1055.11 -8.86578e-14 105824)
(2.19387e+06 53225.7 0 -7775.32 0 542414)
(946353 122506 -1.65379e-14 -3595.28 8.65709e-15 233917)
(1.12708e+06 43619.1 -2.91988e-14 -12323.3 -2.02742e-14 276593)
(-109765 85558.9 -1.12684e-13 554.492 -6.9418e-14 -27097.3)
(252463 82342.1 0 2477.86 0 63255.9)
(-896742 49313.9 -5.45755e-15 2569.33 5.77917e-14 -221862)
(-627945 46031.6 1.88916e-13 3217.89 2.21333e-14 -155007)
(-12864.3 83159.1 1.05955e-13 1109.85 6.59633e-14 -2916.53)
(46719.6 134313 -2.29623e-15 8659.8 2.00132e-14 13740.8)
(-2.52162e+06 5138.99 -3.51606e-15 -13026.6 -5.5167e-15 -628896)
(1.97046e+06 -89619.8 4.72899e-15 -90206.1 8.3369e-15 466528)
(-67263.4 20649.7 9.12094e-14 1891.52 3.38696e-14 -16220.1)
(-563129 98181.2 6.8026e-15 -6200.72 -5.64307e-14 -141262)
(452017 61717.4 -5.75198e-14 9487.16 8.42408e-14 114508)
(-398331 103403 4.71265e-14 -7558.81 -8.50813e-15 -100709)
(2.03933e+06 21102.6 -4.13903e-14 -15671.2 -1.43454e-14 502110)
(-54821.8 87483.4 4.48463e-14 939.529 -7.29731e-14 -13369.3)
(-443653 80160.1 -2.5863e-14 -2782.37 4.4455e-14 -110770)
(355122 80375.6 7.85201e-14 3534.98 -4.47864e-14 88990)
(1.89019e+06 11772.3 4.51971e-15 -966.328 -2.73341e-14 468755)
(-275556 33720.1 -1.28303e-13 2068.63 -1.55037e-13 -67857.6)
(-924804 21035.1 9.02174e-14 4820.48 3.00762e-14 -228267)
(-654564 24200.5 2.63196e-15 3940.58 -1.58429e-13 -161433)
(-69733.9 22168.5 0 -3600.45 0 -18195.7)
(-1.0984e+06 61168.8 -2.04997e-15 11387.8 6.72193e-14 -269711)
(-23295 84510.1 -2.57039e-14 52.9244 5.30588e-14 -5766.84)
(-54750.9 65968.6 -9.90211e-14 -3268.39 1.10762e-13 -14395.8)
(-48027.5 64569 6.9448e-14 -1486.33 -4.24998e-14 -12285.4)
(-1.65697e+06 357564 -5.92352e-15 204157 5.3434e-15 -360472)
(2.02244e+06 72183 -1.61109e-15 -7112.77 -1.64485e-14 500044)
(-371083 53175.2 -9.54016e-14 3310.75 -6.93809e-14 -91251.8)
(1.98134e+06 12729.5 -3.48049e-14 4039.17 3.09737e-14 492614)
(-267629 20347.8 8.4347e-14 -282.286 -2.76713e-13 -66474.1)
(-198350 43645.7 1.58633e-14 -159.463 -1.51353e-14 -49254.2)
(-187282 57782.3 1.61963e-13 2274.28 1.62385e-13 -45904.1)
(-2.54064e+06 -49228.8 1.27881e-14 11217 6.00371e-14 -627600)
(111642 56696.9 0 9275.91 0 30002.3)
(59234.6 68378.4 -1.68373e-13 1934.64 -6.63299e-14 15177.3)
(41109.1 72987.3 5.83759e-14 1104.79 -4.59806e-16 10474.1)
(-87653.8 65291.9 3.98991e-14 -9039.04 1.12895e-13 -23991.5)
(-1.4345e+06 74184.9 -2.22251e-14 -7894.11 1.11983e-13 -357888)
(439282 52948.5 1.35857e-13 4581.29 -4.22486e-14 110132)
(-1.32278e+06 72318 0 -7558.45 0 -330084)
(-1.21279e+06 70891.6 -4.67093e-14 -6745.56 -4.78263e-14 -302590)
(652435 50176.1 6.22283e-14 5734.58 3.80404e-15 163305)
(-13720.4 82712 -2.19522e-13 -3047.87 -1.40766e-13 -4160.56)
(1.42268e+06 99301.8 0 -4528.41 0 351872)
(-117348 72318.4 -4.65742e-14 1880.89 -7.72055e-14 -28649.8)
(73221.3 15888.5 -2.68485e-14 4944.32 -3.89589e-14 19394.5)
(178696 73765.6 2.05901e-13 1461.99 3.68703e-15 44700.9)
(55828 -42099.2 -8.32752e-16 -118558 -6.17271e-16 -15564.7)
(-2959.65 11582.4 2.16895e-17 6956.51 -1.29026e-16 991.703)
(-56387.9 -41859 -5.27291e-16 118309 3.51259e-16 15364)
(-13751.6 84075 -6.82491e-14 258.683 -9.92297e-16 -3347.86)
(-752699 54768.1 -1.67289e-14 -2855.01 6.66844e-14 -187468)
(52297.1 38599.7 3.75079e-14 -66.1575 -1.04898e-13 12959.6)
(820700 61850.8 -8.10308e-14 -7525.08 -1.12061e-13 201765)
(-1.34924e+06 112951 5.41066e-15 -604.45 1.10143e-14 -334925)
(-441976 75580.7 -3.34345e-15 6964.03 1.05486e-14 -107935)
(-1951.35 89658.6 -1.05312e-14 -853.319 -5.2388e-14 -695.896)
(352026 102414 -2.16719e-14 2588 -3.74533e-14 87986.9)
(-168319 74827 -6.44433e-14 -790.019 1.42052e-13 -41959.4)
(-117901 78075 -2.18415e-13 -797.311 -1.05314e-13 -29451.5)
(2.0105e+06 20419 1.22217e-14 5134.86 2.54306e-14 500119)
(1.33441e+06 61414.1 1.99595e-14 4769.71 4.05993e-15 332278)
(1.4474e+06 62667.3 3.82408e-14 5541.12 5.32046e-14 360503)
(1.22382e+06 60603.1 1.40081e-13 4371.53 8.29892e-14 304739)
(-444553 54646.2 6.36539e-14 -4037.56 9.93924e-14 -111304)
(-659834 53711.8 -1.68332e-13 -4685.02 6.0509e-14 -164881)
(239281 67268.9 7.17149e-14 101.912 -3.75855e-14 59395.8)
(1.81022e+06 35428.6 1.8395e-14 -167.864 1.08403e-14 449111)
(255348 31543.1 -5.24555e-14 -3027.33 -2.06214e-13 62606)
(-80959.2 78012.8 -1.81922e-13 867.351 1.70066e-13 -19872.4)
(1.69544e+06 77455.4 -2.10658e-14 1112.64 2.62414e-14 420950)
(-145871 108456 -5.88489e-14 -120.102 -1.58352e-14 -36223.5)
(-226316 43955.6 -4.03222e-14 3556.98 -1.69709e-14 -55271.1)
(70960.1 95729.6 1.30194e-13 -2684.76 -1.8635e-13 16940.5)
(101420 102215 -9.06935e-14 -2005.83 6.23687e-14 24666.7)
(-72540.4 78575.3 -2.64019e-14 3905.48 -3.89444e-14 -17029.7)
(-123716 68433.6 -1.65653e-13 -1230.74 -1.29239e-13 -31001.9)
(-2955.56 82689.2 -1.59216e-13 -2482.63 -1.19777e-13 -1349.32)
(-38050 81982.6 -9.54507e-14 -756.518 1.04845e-13 -9628.67)
(-8553.36 84053.4 -6.23993e-14 -2236.45 -5.94559e-14 -2677.17)
(9504.61 56918.5 2.96508e-15 40271.8 1.32814e-13 12350.5)
(-38332 5789.81 -4.33587e-16 -8853.86 6.31117e-14 -11707.8)
(-2.12608e+06 -343189 1.90987e-14 87722.6 -9.63803e-15 -505757)
(-1.53765e+06 74937.5 1.37995e-14 -11768.2 -2.10419e-15 -384442)
(479708 48426.2 7.18786e-14 3749.57 -7.00918e-14 119956)
(-1.4306e+06 77023.8 -5.52799e-14 825.064 3.47039e-14 -354756)
(696437 44476.3 -3.23567e-14 4342.51 9.80207e-14 173878)
(-1.31646e+06 74187.8 2.10955e-14 1013.32 2.11948e-14 -326389)
(-1.20517e+06 72162.4 -1.21774e-13 1490.33 9.30264e-14 -298658)
(399305 68409.3 7.04095e-14 -4909.82 1.9616e-13 97857.5)
(-1.22329e+06 29903.8 7.55279e-14 8285.99 -1.03775e-13 -301467)
(583620 71862.6 8.7324e-14 -5979.39 -6.95208e-14 143324)
(-1.12646e+06 31025.9 6.25977e-14 7295.26 -1.0773e-13 -277688)
(-1.03174e+06 32901.1 -6.49014e-14 7170.26 -5.84256e-14 -254217)
(-575072 93187.8 4.84507e-15 17618.1 4.86724e-14 -138316)
(176446 78589.9 -3.51551e-14 -6011.86 -2.34057e-13 42288.2)
(252478 76399.1 -5.61657e-14 -7922.19 -1.62225e-13 60679.2)
(-368500 74648.5 -1.68897e-14 11719.5 9.72466e-14 -88524.4)
(1.48929e+06 47457 -1.07005e-13 1968.47 -3.60988e-14 370012)
(-1.53575e+06 -20471.6 1.02872e-13 -12205.2 3.17942e-14 -384080)
(864150 45177.2 7.24135e-14 -2753.73 -6.74407e-14 213730)
(-438343 44736.8 1.60898e-15 7847.79 9.54931e-15 -106815)
(-201223 74861.4 -9.11541e-14 2196.19 -7.53059e-14 -49382.6)
(-210891 61887.7 7.80089e-14 -2784.53 -7.05616e-14 -53017.2)
(22388.9 83381.1 5.93011e-14 1465.36 1.08292e-13 5918.71)
(-299604 54094.8 -1.33359e-13 -871.587 1.3827e-13 -74554.1)
(258121 65401.5 -6.98966e-14 -4607.72 -7.38385e-14 62901.9)
(175094 74288.2 -6.40719e-14 2704.25 4.93761e-14 44115.3)
(-558252 61205.7 1.08435e-13 7900.85 -7.29806e-14 -136553)
(-781968 67936.4 3.9384e-14 3324.85 8.61855e-14 -193197)
(1.58172e+06 20299.9 2.42446e-14 1846.65 -3.20322e-16 392915)
(-7297.84 87706.8 3.11305e-14 -668.805 -1.51387e-13 -1976.69)
(2.28832e+06 82921.5 -2.82034e-14 -13954.7 -1.53652e-14 564317)
(-246638 67217.7 -1.15191e-13 1022.8 7.93588e-14 -60942)
(1.99439e+06 53155.1 0 -20378.3 0 489793)
(-571501 68245.8 3.38121e-14 -5727.32 1.41172e-13 -143222)
(-623648 68226.9 -3.46671e-14 -6531.27 4.11112e-14 -156360)
(-675585 69387.8 -5.61877e-15 -6748.36 1.48579e-13 -169301)
(315219 75649.5 -8.53583e-14 1039.83 2.09898e-14 78470.3)
(214238 77247.6 -9.10947e-14 560.12 2.24855e-14 53295.8)
(-2.48818e+06 -20557.6 2.23549e-14 -9403.83 -1.27467e-14 -619702)
(-1.55208e+06 73481.2 -2.30518e-14 -9058.9 4.34367e-14 -387351)
(546719 52152.3 -9.09216e-14 5094.2 -5.32025e-14 136916)
(759714 49081.4 2.55271e-13 5962.02 -1.37178e-13 189980)
(84969.2 83959.3 4.99911e-14 -8298.74 -1.29227e-13 19023.5)
(-445316 38110.9 0 1692.79 0 -110072)
(-451010 20830.8 1.36735e-13 -2850.34 -6.95013e-14 -112612)
(2.18796e+06 58649.7 3.66635e-14 -15460.8 2.44497e-14 539041)
(2.23935e+06 -14274.7 3.03951e-14 13895 2.68478e-14 559076)
(1.17989e+06 24529.1 1.87406e-15 -1161.5 6.43164e-14 292465)
(1.08331e+06 26763 1.31792e-14 -749.714 1.56238e-13 268605)
(1.27861e+06 22066.9 3.32112e-14 -2281.4 -4.80092e-14 316683)
(-557223 73755.6 -8.24618e-14 4702.44 7.41841e-14 -137091)
(-369750 69464.3 -8.002e-14 3510.63 8.77502e-14 -90871.3)
(242853 98418.9 0 2043.97 0 60763.9)
(165737 95129.4 -3.32431e-15 786.079 1.27204e-13 41317.7)
(529446 73516.1 -9.7932e-14 -163.235 8.00646e-14 131326)
(-223369 69459 -7.83195e-14 2913.67 1.8565e-13 -54699.6)
(-347789 104299 -1.54815e-14 4316.37 6.84143e-14 -85222.6)
(107897 76253.9 -2.91511e-13 -865.674 -7.73418e-14 26556.7)
(153795 72696.8 -2.01557e-13 -1057.56 8.4319e-14 37897.3)
(-94182.6 87424.3 -3.93089e-14 2216.38 -5.49767e-16 -22818.7)
(-264548 57349.7 -3.24441e-14 5830.5 -2.02528e-14 -64193)
(-243375 58582.8 2.14479e-14 5085.79 -3.66122e-14 -59124.4)
(-245611 42732.4 0 -460.556 0 -61055.3)
(-117289 107855 4.43359e-16 -5361.07 -4.24265e-14 -30431.9)
(-1.13406e+06 2867.22 9.54548e-14 -7151.72 -4.17964e-14 -283157)
(1.4231e+06 56696.3 -1.23955e-13 -6394.91 -1.24892e-14 351513)
(1.74225e+06 178753 7.3454e-15 -298587 3.71108e-15 358203)
(-41504.7 73286 2.6032e-14 -3624.23 -5.89957e-14 -11197.4)
(266541 25404 9.49964e-14 2349.88 -2.16854e-13 66717.2)
(-2.18148e+06 -272515 1.83529e-14 177333 -1.1856e-14 -497271)
(124075 58294.5 4.06519e-15 3844.15 1.10205e-13 31739.4)
(340155 41118.4 7.66874e-14 1031.82 -8.8027e-14 84655.3)
(375837 45101.9 1.0708e-13 -5468.44 -4.51739e-14 91895.9)
(-4782.37 86572 8.06604e-14 -97.5661 -1.19605e-14 -1210.81)
(-5436.68 89562.2 8.50831e-14 -642.967 7.19371e-15 -1508.48)
(1.03017e+06 33641.3 2.71684e-14 -5306.35 9.0324e-14 254289)
(853951 94370.5 3.45181e-14 7412.95 -8.32212e-15 213722)
(-776861 78167.7 0 7582.16 0 -190874)
(-664070 41610.5 -8.78917e-14 -10333.5 -5.49702e-14 -167333)
(2.12077e+06 -346718 -7.70283e-15 -89928.3 -5.19838e-15 503893)
(-651860 120702 -7.02413e-15 18014.4 8.18109e-14 -157270)
(-1.04213e+06 40100.7 4.82695e-14 -2461.03 -2.84423e-14 -259183)
(-2.21091e+06 -890333 -2.07216e-14 463798 8.10148e-15 -433494)
(2.65328e+06 2116.47 0 36241.4 0 667326)
(-1.93618e+06 -824576 -6.74301e-15 218783 2.08559e-15 -426120)
(340274 120109 -4.59904e-14 -72.4686 1.62092e-14 84411)
(-76228.7 70288 -8.22727e-15 -1041.57 1.15023e-13 -19172.3)
(-1.00326e+06 88170.9 4.08709e-14 -8459.81 -4.49384e-14 -251029)
(-918142 88167.8 6.09254e-14 -7488.73 -7.60747e-15 -229668)
(-842169 86047.7 -6.95268e-14 -6749.47 2.70196e-15 -210634)
(299447 61463.1 6.1026e-14 4011.92 -1.70245e-13 75294.4)
(449828 58598.2 -1.53146e-13 5070.31 1.48866e-13 112869)
(44405.4 75678.1 -2.40812e-14 -7922.67 1.13002e-13 9052.1)
(63370.6 71174.1 5.69937e-14 -10725.1 7.3001e-14 13062.4)
(-144196 114111 -6.47785e-14 23578.5 1.75236e-14 -29927.6)
(-91962.5 66396.6 4.84438e-14 15940.7 -6.19518e-14 -18862.6)
(-1.21221e+06 -487880 -5.22306e-15 -30063.1 1.09127e-15 -308232)
(227091 115137 -3.68167e-14 17274.7 -1.30417e-13 60632.2)
(-112821 68134.6 -1.27256e-13 -8986.95 -5.81647e-14 -30223.1)
(-529916 108322 0 152.922 0 -131445)
(226772 63132 9.75982e-14 1435.88 -3.98304e-14 56623)
(-111654 92993.5 0 -546.39 0 -27839.3)
(-83480.7 74076.1 -6.19478e-14 -870.041 -9.81053e-14 -20929.1)
(791611 77318.6 8.66278e-14 4556.07 -9.05938e-14 197545)
(813256 48348.4 1.32636e-13 -10.6836 6.33409e-14 201783)
(2.20839e+06 -889367 -7.75356e-15 -464117 -2.56423e-15 432790)
(1.21056e+06 -487695 9.05765e-15 29872.8 2.48423e-15 307777)
(-246731 53828.7 1.88839e-14 1917.69 2.68687e-14 -60743.3)
(-263361 54759.7 -5.73701e-14 -2907.52 -1.17294e-13 -66066.7)
(-1.40943e+06 234.086 -6.30464e-14 -5438.21 -1.44423e-14 -351059)
(1.14315e+06 52544.3 1.42844e-13 -3990.41 -3.73105e-14 282648)
(369849 70238.5 4.74172e-15 -3056.01 2.59818e-13 91008.8)
(556626 75513.9 8.82719e-14 -3819 9.59589e-14 137163)
(-1.27976e+06 22523.5 -2.32211e-15 -1057.43 5.46749e-14 -317797)
(-1.1833e+06 26430.6 -5.56381e-14 -870.155 1.83969e-14 -293816)
(-1.08607e+06 28860.6 -3.7284e-15 -955.079 8.64397e-14 -269713)
(-16612.5 88944.4 -1.34292e-13 -915.098 3.88358e-14 -4348.96)
(-1.38678e+06 24533.7 3.61093e-14 -2188.68 3.88282e-14 -344630)
(464798 70662 -9.04707e-14 -3111.83 4.43736e-14 114554)
(652245 74577.7 0 -3608.62 0 160940)
(615261 55870.3 3.44565e-14 -4563.49 8.21903e-14 151526)
(118582 74137.2 -1.13492e-13 804.018 -2.99965e-13 29622.1)
(10244.5 76410.4 -9.94512e-14 -8968.79 -3.65676e-14 316.522)
(502984 40362.3 -1.25774e-13 15724.8 2.25202e-14 128702)
(-427748 58117 -1.07929e-14 -1219.46 -8.73626e-14 -106436)
(67728.8 78403.8 1.46632e-15 -16002.5 1.82687e-14 12834.3)
(1.93323e+06 -824318 -7.01598e-15 -219703 -1.76531e-15 425160)
(304609 81838.2 8.95024e-15 -2651.59 -1.65876e-13 74921.7)
(367079 79639.6 7.72344e-14 272.585 2.62641e-14 91147.5)
(-240796 78713.3 0 -450.693 0 -59858.3)
(-286037 88620.5 2.88434e-14 -7317.87 -8.0253e-14 -72787.2)
(845126 85751.1 0 7832.63 0 211636)
(921320 88095.5 5.09323e-14 8437.75 4.83108e-14 230692)
(997288 91771 -1.13939e-13 8768.61 -1.10146e-14 249623)
(-449954 55617 1.61654e-13 -5858.22 1.64185e-13 -113096)
(-302879 60298.4 8.498e-15 -4271.88 -9.82818e-14 -76210.3)
(-16259.4 84817.1 9.56583e-14 -358.968 5.09184e-14 -4123.36)
(1.99144e+06 12477.6 -1.47604e-14 -31457.2 -2.69517e-14 486312)
(-12501.3 99424.1 -1.03328e-13 -6121.85 3.21881e-14 -4620.79)
(26036 49299.6 -9.85011e-14 12084.8 -6.12873e-14 9458.52)
(44540 80515.3 7.43284e-14 1311.91 -1.7246e-13 11376.8)
(478601 80996 7.90672e-14 382.883 8.3525e-14 118846)
(-187288 4370.97 -1.31557e-13 -3174.5 6.44518e-15 -47257.7)
(632755 90412 0 -3900.1 0 156032)
(2.093e+06 -89959.1 3.39694e-16 -291682 1.36506e-16 446945)
(476325 21729.1 7.59508e-14 7032.18 1.72678e-13 119931)
(457817 34479.2 3.44209e-14 -6704.99 1.87536e-14 111930)
(-688502 77219.3 1.13055e-14 6360.61 2.38705e-14 -169253)
(-489634 72298.3 -8.81431e-14 5317.21 2.82305e-14 -120169)
(-586633 47482 -1.80154e-13 -2710.33 -3.15068e-14 -146228)
(-420484 52358.8 9.09771e-15 -3005.18 -9.564e-15 -105076)
(1.45459e+06 20190.8 -6.27641e-15 -3853.28 2.06676e-14 359958)
(1.20457e+06 97644.6 2.5862e-15 -434.194 -4.27431e-14 298772)
(347507 89125 1.59464e-14 -4169.51 9.4301e-15 85189.1)
(467397 73679.7 2.99381e-14 -202.007 5.09126e-14 115920)
(256143 88144.7 8.33104e-14 -4358.34 5.93468e-14 62472.8)
(343335 74017.1 7.4704e-14 -1664.59 -1.18216e-14 84775.4)
(-658041 51906.5 -1.37279e-14 6706.35 3.4427e-14 -161609)
(-865797 82288.8 -3.8069e-14 2362.64 6.84223e-15 -214235)
(-197714 130163 4.22332e-14 -740.858 3.01346e-14 -49240.8)
(1.42506e+06 58061.3 4.71549e-14 5612.05 3.38215e-14 354978)
(1.54517e+06 57790.3 -1.02128e-14 25063.7 5.0718e-15 389607)
(1.83213e+06 59080 8.29396e-15 -2177.65 5.22299e-15 454048)
(127980 82871.6 -1.62147e-13 -196.494 1.9685e-13 31705.6)
(-470051 22795.2 -1.00463e-13 -6405.05 -5.16446e-14 -118218)
(-454708 37418.6 -1.2748e-13 4208.84 8.52504e-14 -111778)
(2.14326e+06 -9064.34 0 13761 0 535200)
(2.14918e+06 65937.9 0 1603.2 0 533652)
(1.28555e+06 51353.3 1.96731e-14 -1851.6 9.36213e-14 318512)
(1.27468e+06 7868.94 6.27647e-14 5251.35 -1.76379e-13 317578)
(-1.32424e+06 10639.9 0 -9968.36 0 -331043)
(-1.29133e+06 51689.7 0 8778.25 0 -318227)
(37018.5 80350 -2.2344e-14 2481.16 6.39847e-14 9800.67)
(-90269.7 33954.1 2.39114e-13 -5203.61 -1.01187e-13 -23688.9)
(-348761 34847.6 -6.30498e-14 -3566.63 -2.32589e-14 -87419.5)
(2.79941e+06 3610.01 0 56686 0 708655)
(-49380.2 70347.8 -1.57685e-13 -1451.64 -3.93315e-15 -12612.4)
(-58604.5 73145.7 -2.27118e-14 -4849.6 -1.26289e-13 -15744.2)
(309033 96200.2 -8.12977e-14 -7011.99 -5.57045e-14 74937.6)
(-243763 94354.1 -1.69361e-13 -7265.47 7.09077e-14 -62285.3)
(295718 57227.6 4.91498e-14 -8047.37 -5.08248e-14 71377)
(-1.13124e+06 48635.8 3.48577e-14 -10295.5 -7.09451e-14 -283238)
(1.14042e+06 53380.6 -1.44809e-14 -11605.7 -8.6747e-14 280082)
(-1.91257e+06 80808.7 1.50058e-14 -11859.5 -6.40611e-14 -477490)
(-2.2588e+06 -205921 7.91388e-15 418069 -5.68347e-15 -456724)
(790484 104494 -1.26075e-14 -16553.1 1.56516e-14 192028)
(90233 104149 -8.40231e-15 -4855.2 4.72926e-14 21184)
(-1.06748e+06 85404.6 -4.20782e-14 -4899.89 -1.17906e-13 -266078)
(897891 27635 -5.48088e-14 11360.2 7.90413e-14 225604)
(-621407 51793.7 6.043e-14 -10776.7 7.74916e-14 -156858)
(485509 84109.5 9.08394e-14 5961.39 1.5922e-15 121944)
(90764.9 91077.7 2.53568e-14 5336.42 1.18629e-15 23844.7)
(155400 70011.8 -1.07236e-13 -913.365 1.34643e-13 38331.3)
(-308160 60199.2 7.3446e-14 -19626.3 -7.7985e-14 -81330.4)
(-498837 121823 1.1971e-15 8486.59 9.82119e-14 -121666)
(-283017 61261.4 1.13315e-14 -18169.4 -7.89212e-14 -74730.5)
(-457915 117812 7.1681e-14 7706.5 -2.61911e-14 -111706)
(113552 49495.2 -4.49209e-14 -3356.45 1.39508e-14 27341.7)
(-53689.3 100837 -1.1926e-15 2678.03 -8.84976e-14 -12656.9)
(-35090.8 98819.3 1.09821e-13 2610.83 8.80658e-14 -8058.94)
(-23506.7 87760.6 5.65324e-14 831.145 -1.23063e-13 -5626.26)
(1.51797e+06 40692 3.23698e-14 4159.46 5.01939e-15 377671)
(-15724 101109 -1.24147e-13 -7223.39 -5.51709e-14 -5693.72)
(-60055.5 72702.1 6.13793e-14 -4666.34 -2.05479e-13 -16058.8)
(2.11093e+06 -63099.6 -1.60457e-14 -108960 -1.16958e-14 496730)
(353631 59313.2 6.54054e-14 -5343.08 -8.38915e-14 86417.4)
(-817150 104399 4.35973e-14 14786 1.17665e-14 -199083)
(-940177 66809.9 -7.13713e-14 1992.03 -3.12251e-14 -232783)
(-933435 29644.9 0 -11262.7 0 -234399)
(1.17451e+06 17014 -6.42403e-14 5777.8 -3.05433e-14 292854)
(1.12509e+06 75691.5 3.92628e-15 9743.2 7.64986e-14 281575)
(-35884.1 60297.6 -7.26033e-14 936.431 5.91677e-14 -8671.24)
(-27319.2 60756.3 5.26691e-14 1642.71 -2.94441e-13 -6370.85)
(-730298 111702 -2.87664e-14 8339.84 -7.04201e-16 -179132)
(-983656 78821.8 0 12342.7 0 -241003)
(693955 48283.7 1.57396e-14 7629.02 3.86757e-14 174077)
(-1.79292e+06 99490.7 6.88434e-15 -8370.1 -2.1739e-14 -446936)
(63585 69733.6 0 16075.1 0 19765.3)
(993635 41564.6 -3.41328e-15 -2742.88 2.36673e-14 245860)
(753764 108458 -1.84582e-15 6658.02 8.969e-17 188676)
(-476372 88963.6 1.34955e-13 4733.58 -1.73532e-14 -117023)
(-369887 60012.6 -1.31869e-14 -3215.19 9.50733e-14 -92574.2)
(-339723 84681.9 2.08858e-14 3809.84 -7.9354e-14 -83346.8)
(-266257 64150.7 -1.18054e-15 -2909.15 4.66204e-15 -66785.7)
(-378544 40126.7 4.88319e-14 208.942 7.21049e-14 -93872.7)
(-319294 45728.9 -8.54183e-14 3038.86 1.71863e-14 -78469.4)
(-390129 108161 0 1122.83 0 -96520.4)
(-438021 109408 -4.29549e-14 -927.079 3.73097e-14 -108912)
(-476336 112884 -3.50481e-15 -1007.71 -3.99511e-15 -118439)
(130226 69792 -2.10248e-13 1323.16 -1.05092e-13 32640.1)
(-25984 83484.4 -4.66673e-14 -2372.63 9.287e-14 -7035.86)
(940990 41686.4 -2.62649e-14 5805.66 7.48425e-14 234919)
(985182 57138.5 3.63764e-14 -6472.68 -7.07013e-14 242838)
(162783 73590.1 7.56497e-15 1247.34 -5.24017e-14 40699.4)
(238765 67157.7 0 2811.05 0 59940)
(-515138 108085 5.36926e-14 -3195.35 -5.89881e-14 -128609)
(457105 64307.1 -1.02644e-13 4852.09 -1.30014e-15 114621)
(499148 96394.1 -4.49319e-14 5641.17 -2.78143e-15 125248)
(-183231 80709.3 -8.64e-14 -746.817 1.23799e-13 -45648.6)
(-156331 84456.3 5.04075e-14 -1862.42 2.95714e-15 -39251.1)
(-224317 88628.4 8.16608e-14 -1007.98 2.90407e-14 -55907.6)
(-249041 75894.3 0 -2816.08 0 -62490.9)
(-1.08039e+06 43211.5 2.3917e-14 -116.29 -3.64712e-14 -268096)
(502022 78013.9 -3.95627e-14 -954.708 -1.56353e-13 124325)
(356901 75579.2 -1.81218e-14 -1160.82 -2.58995e-15 88266.3)
(-116542 208631 -1.09298e-14 22425.4 -7.80323e-15 -23352.2)
(1.30088e+06 34265.1 -8.29497e-14 -9466.03 -4.96819e-14 320426)
(-1.51848e+06 9452.61 7.17655e-14 2268.92 4.2939e-14 -376204)
(-173219 192871 0 -7444.13 0 -44826.2)
(-179472 78252.6 3.02038e-14 2116.79 9.11548e-14 -44005.5)
(-151534 82681.2 -2.27184e-13 3745.68 -5.76192e-14 -36669.2)
(-261801 77318.6 9.79658e-14 1689.68 1.0955e-15 -64538.9)
(-225452 85009.6 0 3175.55 0 -55151.3)
(512194 62023.4 4.98048e-14 -4440.12 -8.01588e-14 125984)
(588003 87730.3 1.81913e-14 -3601.57 7.70834e-15 145002)
(478021 66175.1 -3.7069e-14 -9093.5 3.54802e-14 116350)
(557338 90650.4 3.95923e-14 -6408.8 1.09324e-13 136697)
(438581 66294.6 3.10714e-14 -8205.33 5.21119e-14 106785)
(511236 88931.6 -6.74904e-14 -5879.5 3.85581e-14 125389)
(402502 39064.8 3.08225e-14 -115.506 1.16364e-13 99840.2)
(388374 22510.3 9.06303e-14 2278.21 1.94004e-13 96928.8)
(-767110 86331.8 -1.72316e-14 683.794 2.26166e-14 -190166)
(363201 82978 -9.38525e-14 -4586.53 -2.28243e-15 88979.4)
(-861858 61844.9 0 7241.29 0 -212048)
(1.49054e+06 91933.4 5.04588e-14 -12699.2 -3.17363e-14 366683)
(-755837 38076 9.4556e-14 2863.04 -1.55305e-13 -186828)
(-550319 43989.6 1.14211e-13 911.973 -7.67391e-14 -136319)
(-1.6683e+06 -788692 -6.41868e-15 265218 1.43621e-15 -348134)
(49577.1 78184.9 1.27599e-13 162.265 -3.34984e-14 12341.3)
(1.58113e+06 50113.1 -1.68656e-14 -3736.01 -8.57072e-16 391383)
(-772042 59578.2 -2.64539e-14 2849.65 -7.67061e-14 -190852)
(-555060 57514 1.65458e-13 2558.92 8.14035e-14 -137087)
(2.35005e+06 -18469.8 2.73828e-14 -5149.41 1.21893e-14 581818)
(-106143 69502.4 -1.83003e-14 -1667.54 7.33938e-14 -26750)
(1.62751e+06 12067.2 4.19215e-14 4742.45 -2.60418e-14 404994)
(-382956 60678 5.72558e-14 1550.59 -1.00912e-13 -94634.5)
(-1.34168e+06 90496.6 3.39796e-14 13740.1 -4.42808e-15 -329490)
(-1.26106e+06 56868.2 -2.07559e-14 -7530.93 -1.57712e-15 -314764)
(1.22246e+06 58443.6 -3.92887e-14 1953.29 2.56786e-14 303801)
(-156439 81870.5 -2.49706e-13 6279.79 -1.13631e-13 -37257.5)
(-3651.04 -42351.1 2.61228e-16 -66388.7 9.2837e-17 -17378.3)
(-18997.3 74220.7 0 3060.36 0 -3954.27)
(-2.21419e+06 -707719 1.05427e-14 278439 -2.90797e-15 -480299)
(1.66509e+06 -788418 1.2485e-14 -267733 3.9302e-15 346712)
(-1.07418e+06 94634.6 4.39708e-14 -8888.6 -4.26242e-14 -268732)
(373993 58239.4 1.91272e-14 3551.1 7.37981e-14 93676.4)
(519924 53533.9 -6.14788e-14 4719.95 1.3994e-13 130175)
(149576 76894.9 1.23193e-13 -1288.34 3.66781e-14 36793.1)
(-279724 14820.8 7.13947e-14 41.9072 -1.09768e-13 -69394.8)
(252626 101000 -5.92972e-14 -1623.62 5.42533e-14 62278.8)
(-127999 60801.2 1.75177e-14 806.367 2.68529e-14 -31559)
(-115202 109843 1.25089e-14 4642.94 3.6258e-14 -27432)
(-1.81818e+06 959.631 -5.79093e-15 49103.2 1.37158e-14 -438944)
(14843.4 -25204.2 6.8558e-17 -44006.2 4.25494e-17 -7235.87)
(-634999 100502 -2.63798e-16 7919.11 4.95955e-15 -155591)
(500117 55173 4.4496e-14 -3235.62 1.37797e-13 123286)
(1.88487e+06 -365093 1.10962e-15 -49665.5 1.43543e-15 455350)
(-56739.8 60348.8 -1.14271e-14 -9815.83 -8.88158e-14 -16513.8)
(-63593.6 103382 9.06587e-15 -4436.81 8.67086e-14 -16879.7)
(-36079.6 90038.3 -1.55131e-15 225.26 -1.32762e-13 -8896.18)
(-93232.4 75816.6 -2.44893e-14 3682.51 3.33588e-14 -22219.1)
(42447.3 88725.7 3.9737e-14 -1579.7 1.02667e-13 10140.1)
(27940.7 90702.5 -9.34107e-14 -234.571 -3.04889e-14 6874.46)
(-1.88879e+06 -362876 4.7206e-15 47936.6 -1.45994e-15 -456753)
(667805 93158.9 -3.61472e-14 2470.32 1.95466e-14 166309)
(-234425 75625 -2.50064e-13 -738.319 -7.09342e-14 -58348.8)
(790204 79525.1 1.2981e-13 5335.7 -2.19736e-13 197390)
(726010 78435 -1.62666e-15 4728.07 -8.43342e-14 181311)
(664847 75982.6 -2.41388e-13 2584.65 3.64048e-14 165603)
(114799 43226.9 -1.22203e-13 3984.59 -4.57101e-14 29472.6)
(-1.54806e+06 31271.5 6.52406e-14 -3972.04 -6.32757e-14 -385091)
(490751 60399.2 1.32503e-13 -2791.91 1.42955e-14 121073)
(697176 62724 -5.99858e-14 -2770.49 -8.57654e-14 172296)
(-133263 75182 -2.11791e-13 -337.79 -3.57005e-14 -33149.1)
(986081 101877 1.37627e-14 -13024.5 1.98483e-14 241435)
(190274 58025.6 -8.56963e-14 318.582 5.80366e-14 47290)
(-1.97308e+06 22489.2 -2.20227e-14 -2589.63 -8.13768e-15 -490204)
(57651.5 77055.9 -1.10517e-13 1836.96 -9.29574e-14 14760.3)
(-167491 82522.7 -2.19749e-13 1422.25 1.03746e-13 -41205.1)
(567616 62555.6 1.65016e-13 1078.83 -2.37378e-14 141105)
(521454 62984.1 1.5433e-13 722.676 3.75507e-14 129563)
(477053 61529.1 -1.11958e-13 -1218.33 3.0836e-14 118064)
(1.0276e+06 44884.7 1.65557e-14 60.1089 3.47135e-14 254983)
(227471 82642.3 -7.416e-14 3269.4 -1.58885e-13 57251.3)
(-568793 67529.7 5.02939e-14 -8821.24 1.12303e-15 -143318)
(-443568 123508 3.06148e-14 4056.47 3.41148e-14 -109052)
(-249669 50118.7 0 1876.65 0 -61482.3)
(-792412 92009.2 -6.78818e-14 -9062.08 2.06623e-14 -198862)
(-865039 94409.3 -1.02035e-13 -10051.9 -6.73602e-15 -217128)
(-939632 97921.8 -1.01779e-13 -11352.5 4.90173e-14 -235959)
(449176 61499.6 2.10434e-15 7311.06 2.60878e-14 113264)
(306806 66572.3 3.3035e-14 5248.06 -4.13504e-14 77427)
(78976.2 6688.67 -9.60393e-14 4007.13 3.464e-14 20589.8)
(157951 64211.9 0 -1787.97 0 38747.2)
(202799 51675.6 -1.12466e-13 1859.44 6.71152e-14 50779.9)
(2.28246e+06 -112372 -5.9295e-15 -299214 -2.85726e-15 492083)
(879151 42561.2 1.10487e-13 1401.29 -1.13376e-13 218483)
(-675292 83726.2 0 1340.02 0 -167221)
(-472350 75622.6 -5.47695e-14 9271.66 -2.4041e-15 -114899)
(379980 79796.8 2.92669e-14 -3813.07 -3.619e-14 93334.8)
(-121079 94714 4.89083e-14 -2700.86 4.01182e-14 -30712.2)
(-14931.3 91438.8 1.44282e-13 -3092.58 -1.13663e-13 -4472.09)
(40185.1 65188.3 1.14776e-13 9858.32 -1.81562e-14 12416.8)
(43898.8 64539.5 -6.00084e-14 10796.8 -5.58624e-14 13571.1)
(-4371.4 116567 -3.00514e-15 -3026.63 -2.4612e-14 -1835.6)
(-10573 60488.3 -2.68893e-14 -992.393 9.04107e-14 -2869.6)
(523.427 70400 -1.00777e-13 -67.9341 7.50842e-14 113.017)
(13654.6 73402.1 9.63054e-14 -14282.3 -4.3739e-14 -155.744)
(168005 50709.1 -7.41303e-15 2481.39 -3.48805e-14 42301.1)
(-308870 117444 -1.74118e-15 2059.39 -1.68004e-14 -76125.8)
(99816.3 73647 2.41537e-13 1414.31 -4.75153e-14 25117.4)
(15125.4 113813 9.99344e-15 -18343.3 1.42277e-14 -798.43)
(-655205 115680 -2.49627e-14 -3002.45 -1.4979e-14 -163315)
(837141 52527.5 8.27793e-14 3810.54 7.38087e-14 208657)
(-360002 85270.2 -9.29399e-14 -400.689 3.03962e-14 -89423.3)
(-1.51114e+06 270717 -4.31361e-15 266331 2.57978e-15 -308862)
(-222639 47933.4 6.62067e-14 -1998.1 7.18789e-14 -55737.1)
(-364904 117173 0 3547.52 0 -89659.9)
(108332 74066.4 1.28898e-13 313.155 -1.78012e-13 26957.2)
(168576 67453.9 6.81562e-15 -393.726 2.21245e-14 41729.5)
(1.66119e+06 -367320 -1.33657e-15 53319.6 2.33478e-16 425405)
(-2.30216e+06 9087.17 -1.84096e-14 13633.9 8.46036e-15 -567829)
(722803 60536.5 4.06335e-14 4388.56 3.41308e-14 180431)
(787120 60099 -4.11364e-14 4683.13 8.95942e-14 196462)
(-238356 81771.4 -3.05847e-13 1083.55 -1.09181e-13 -58872)
(167627 103892 5.37429e-14 11137.1 1.05891e-13 44354.9)
(-36638.2 70455.2 8.605e-14 -2966.35 1.30914e-13 -9826.7)
(-941312 -611506 -1.14337e-15 70905.7 4.81331e-16 -215966)
(-2.24395e+06 75330.6 6.02867e-15 1834.4 7.78993e-15 -556313)
(1.98952e+06 36870.7 3.27488e-14 3533.27 -1.61292e-14 494517)
(-2.87679e+06 -49985.2 -8.48852e-15 -7617.21 -3.65454e-15 -715680)
(928590 54883.5 -3.72279e-14 -6713.51 -5.78437e-14 228736)