/*--------------------------------*- C++ -*----------------------------------*\
| =========                 |                                                 |
| \\      /  F ield         | OpenFOAM: The Open Source CFD Toolbox           |
|  \\    /   O peration     | Version:  2.3.1                                 |
|   \\  /    A nd           | Web:      www.OpenFOAM.org                      |
|    \\/     M anipulation  |                                                 |
\*---------------------------------------------------------------------------*/
FoamFile
{
    version     2.0;
    format      ascii;
    class       volSymmTensorField;
    location    "4640";
    object      sigma;
}
// * * * * * * * * * * * * * * * * * * * * * * * * * * * * * * * * * * * * * //

dimensions      [1 -1 -2 0 0 0 0];

internalField   nonuniform List<symmTensor> 
11800
(
(157175 77008 7.56229e-14 -2838.57 4.00505e-14 38294.1)
(-77644.2 67474.4 1.1609e-13 -157.244 3.68062e-14 -19304.1)
(714140 99316.7 -1.93494e-15 1562.7 -8.37887e-14 177580)
(-619633 50133.2 0 -1860.65 0 -154205)
(-80514.7 65140.6 2.16591e-14 -4790.24 -6.11829e-14 -21165.9)
(-387537 102391 8.38938e-14 2156.1 4.39983e-14 -95620.8)
(-71986.4 98144.4 1.5886e-13 -625.062 -4.13032e-14 -18016.4)
(-101539 102304 -2.36468e-14 847.444 9.51167e-14 -24983.6)
(219012 50608.4 3.1394e-14 470.722 -2.14299e-14 54458.2)
(150325 107647 -8.13115e-14 646.286 -6.84783e-14 37459)
(181417 63142.2 -6.30848e-14 2027.76 5.39911e-14 45516.3)
(-898758 36002.3 -7.52839e-14 -6617.78 -3.415e-14 -224642)
(24935.9 -36223.6 1.35217e-16 -67219.7 1.05085e-16 -10491.5)
(661434 50599 6.82356e-14 4027.47 -1.86663e-14 165115)
(-528299 95978.6 -5.69799e-14 6499.19 4.42876e-14 -129469)
(2.43301e+06 -9465.74 0 -8183.14 0 601650)
(-46998.6 76397.9 5.37594e-14 4537.88 4.73941e-15 -10535.4)
(-72596.1 70493.9 -3.03226e-14 8886.52 1.74103e-13 -15807.6)
(151729 120493 -3.07997e-14 -19707.2 2.18842e-14 32757.3)
(114576 64092.4 -1.08212e-13 -12710.6 -3.49971e-14 25274.8)
(-486570 56972.7 3.37351e-14 -1990.99 3.53503e-14 -121222)
(-786283 90232 5.39544e-14 4043.91 -3.13674e-14 -194089)
(-1.02167e+06 114327 -2.70708e-14 12667.9 1.73958e-14 -250354)
(-937483 65014.8 2.71668e-16 319.107 4.69986e-15 -232529)
(1.98657e+06 85757.9 3.42167e-15 -8764.2 3.92331e-14 490733)
(-1.22056e+06 114213 -2.6591e-14 8706.39 -7.54356e-16 -300686)
(-1.29966e+06 60352.9 0 11472.9 0 -319625)
(642095 44798.2 -8.95725e-14 -5527.87 -5.40865e-14 157945)
(-1.41417e+06 61560.6 -1.53753e-14 12530.8 -7.40067e-14 -347776)
(-1.52867e+06 61950.4 2.05142e-14 14736.1 -3.18737e-14 -375637)
(420560 47016.7 -1.11032e-13 -2148.65 -1.98953e-13 103816)
(84194.3 60372.6 -1.77187e-14 2822.59 -1.46281e-14 21590.7)
(1.24692e+06 110281 -4.35234e-15 14406.7 -1.89929e-14 312960)
(-30462.6 80573.1 1.45201e-14 -2172.92 -1.08706e-13 -8097.53)
(21493.3 85485.3 -3.84051e-14 2026.24 -1.64812e-13 5835.67)
(-410204 34991.5 -1.00816e-13 -1659.52 -7.32299e-14 -102192)
(23754.7 86766.7 1.36397e-13 1539.69 -1.62176e-13 6276.06)
(1.33658e+06 62559.1 -1.59887e-14 7151.66 -6.82251e-14 333408)
(-48725 84383.1 0 -1362.35 0 -12427.7)
(109402 79686.2 -4.6953e-14 6440.66 8.74531e-14 28742.9)
(-1.3655e+06 44356.8 -8.32707e-14 -6927.83 -3.8692e-14 -340528)
(-1.4858e+06 43715.7 5.96342e-14 -7375.35 -3.42114e-14 -370486)
(675008 60419.7 -3.45554e-14 -575.035 -1.14973e-13 167340)
(-1.60604e+06 43909.3 -1.13167e-14 -5653.41 -6.04553e-14 -399893)
(442160 59323.6 2.9511e-13 975.104 -9.20365e-14 109951)
(2.27563e+06 54541 0 -8001.06 0 562646)
(980619 125364 -1.7108e-14 -3659.06 8.95075e-15 242404)
(1.16766e+06 43679.7 -3.0213e-14 -12785.3 -2.09677e-14 286547)
(-114222 87504 -1.1699e-13 755.81 -7.20626e-14 -28153.2)
(262881 84423.6 0 2563.28 0 65862)
(-933558 50581.6 -5.6702e-15 2584.05 5.99846e-14 -230994)
(-653468 47003.8 1.96124e-13 3079.66 2.29749e-14 -161375)
(-13372.4 84736.8 1.1001e-13 1275.36 6.84788e-14 -3001.51)
(48735.9 137288 -2.37389e-15 8941.21 2.06874e-14 14310.9)
(-2.61557e+06 5134.75 -3.62863e-15 -13519.8 -5.70959e-15 -652330)
(2.03825e+06 -93884 4.89277e-15 -93285.6 8.60719e-15 482585)
(-69627.5 20371.7 9.46943e-14 1912.43 3.51611e-14 -16801.5)
(-585869 100898 7.06047e-15 -6506.13 -5.85313e-14 -146980)
(470570 62923.9 -5.96893e-14 9842.93 8.74146e-14 119200)
(-414152 106448 4.88834e-14 -7798.77 -8.82523e-15 -104695)
(2.11102e+06 20706.8 -4.28029e-14 -16231.7 -1.48341e-14 519760)
(-57027.2 89223 4.65628e-14 977.808 -7.57566e-14 -13907)
(-461486 82152.6 -2.68309e-14 -2866.31 4.61102e-14 -115215)
(369738 82331.8 8.14859e-14 3705.5 -4.64735e-14 92659)
(1.96091e+06 11214.4 4.66924e-15 -1070.26 -2.82903e-14 486275)
(-286206 33761.9 -1.33208e-13 2034.34 -1.6095e-13 -70508.7)
(-962646 21124.4 9.36428e-14 5079.58 3.12142e-14 -237592)
(-681063 24344.4 2.73972e-15 3952.48 -1.64464e-13 -168005)
(-72227.4 21866.1 0 -3711.62 0 -18842)
(-1.13786e+06 61964.6 -2.13087e-15 11861.5 6.95312e-14 -279382)
(-23898.2 86025.1 -2.66871e-14 11.7171 5.5082e-14 -5926.72)
(-56743.7 66945.8 -1.02808e-13 -3281.31 1.14985e-13 -14893.4)
(-49729.9 65571.9 7.21038e-14 -1266.57 -4.41208e-14 -12653.3)
(-1.71276e+06 367961 -6.12228e-15 210072 5.51378e-15 -372847)
(2.09378e+06 73685.4 -1.67447e-15 -7293.89 -1.6998e-14 517699)
(-385368 54108.1 -9.90505e-14 3009.56 -7.20295e-14 -94870.8)
(2.05663e+06 12381.9 -3.60307e-14 4157.16 3.20651e-14 511322)
(-277898 19995.5 8.75712e-14 -375.131 -2.87265e-13 -69045.3)
(-205929 43829.2 1.64702e-14 -484.119 -1.57125e-14 -51215.2)
(-194239 58492.1 1.68162e-13 2159.64 1.6858e-13 -47658.7)
(-2.63487e+06 -51397 1.32121e-14 11745.1 6.21385e-14 -650850)
(116286 57672 0 9606.05 0 31236.5)
(61413.9 69557.1 -1.74814e-13 2079.81 -6.88595e-14 15754.1)
(42652.9 74259.4 6.06093e-14 972.897 -4.77056e-16 10824.5)
(-91181.4 66589.1 4.13998e-14 -9398.91 1.1713e-13 -24956)
(-1.49016e+06 75762.5 -2.30539e-14 -8086.09 1.16017e-13 -371746)
(456859 53722.9 1.41049e-13 4782.83 -4.3858e-14 114543)
(-1.3751e+06 74120.6 0 -7928.34 0 -343157)
(-1.26141e+06 72678.2 -4.84275e-14 -7072.16 -4.95866e-14 -314735)
(679094 50989.2 6.45989e-14 5953.37 3.94984e-15 169974)
(-14202.5 84402.2 -2.27923e-13 -3134.94 -1.46137e-13 -4301.78)
(1.47504e+06 101599 0 -4694.1 0 364822)
(-121833 73633.1 -4.83568e-14 1889.87 -8.01516e-14 -29760.4)
(75507.7 15394 -2.78737e-14 5075.14 -4.04439e-14 19994.2)
(186063 75618.7 2.13698e-13 1628.5 3.827e-15 46569.9)
(57689.9 -43503.7 -8.60598e-16 -122542 -6.37986e-16 -16091.2)
(-3058.15 11973.2 2.24169e-17 7192.04 -1.33379e-16 1025.7)
(-58277.7 -43263.3 -5.45034e-16 122318 3.63149e-16 15889.8)
(-14243.1 85754.3 -7.08609e-14 396.171 -1.02991e-15 -3435.71)
(-783367 55918.5 -1.73636e-14 -2957.9 6.91849e-14 -195103)
(54030.4 38749.3 3.89424e-14 -36.713 -1.08897e-13 13396.9)
(854486 63221.6 -8.4098e-14 -7789.89 -1.16278e-13 210082)
(-1.39905e+06 115845 5.59888e-15 -691.432 1.13987e-14 -347305)
(-457781 76699.4 -3.46107e-15 7235.34 1.09145e-14 -111790)
(-2212.28 91505.9 -1.09338e-14 -898.268 -5.43858e-14 -771.789)
(365726 104721 -2.24492e-14 2635.57 -3.87827e-14 91397.9)
(-175302 76619.5 -6.68944e-14 -923.798 1.47436e-13 -43725.2)
(-122733 79792.4 -2.26755e-13 -791.13 -1.09324e-13 -30648.8)
(2.08255e+06 20222.8 1.26521e-14 5302.68 2.62968e-14 518040)
(1.38797e+06 62712 2.06909e-14 5020.17 4.20956e-15 345630)
(1.50437e+06 63917.2 3.96388e-14 5812.02 5.5125e-14 374708)
(1.27352e+06 62005.4 1.45276e-13 4534.09 8.60581e-14 317111)
(-462181 55507 6.60837e-14 -3993.22 1.03179e-13 -115667)
(-686594 54741.9 -1.74746e-13 -4792.57 6.28118e-14 -171547)
(249272 68815.5 7.43959e-14 6.42889 -3.89862e-14 61851.2)
(1.87499e+06 35510.1 1.90313e-14 -151.981 1.1211e-14 465186)
(264886 31791.4 -5.44593e-14 -2996.63 -2.14082e-13 64980.1)
(-84162.8 79467.4 -1.88884e-13 800.126 1.76552e-13 -20684)
(1.75614e+06 79068.9 -2.17785e-14 1207.04 2.71271e-14 436033)
(-151735 111635 -6.10522e-14 -202.656 -1.64265e-14 -37698.8)
(-234388 44055.8 -4.1761e-14 3838 -1.75711e-14 -57204.2)
(73854.8 98146.3 1.35167e-13 -2598.37 -1.93449e-13 17680.2)
(105627 105199 -9.41399e-14 -2104.34 6.47338e-14 25686.1)
(-75615.7 80443.7 -2.7409e-14 4333.03 -4.04266e-14 -17686.7)
(-128505 69635.3 -1.71992e-13 -1408.61 -1.34171e-13 -32234.1)
(-2998.23 84269.9 -1.6531e-13 -2481.81 -1.24346e-13 -1359.71)
(-39349.8 83508.3 -9.91028e-14 -417.877 1.08844e-13 -9867.17)
(-8974.29 85772.3 -6.47863e-14 -2320.56 -6.17234e-14 -2802.48)
(9778.8 57536.7 3.07777e-15 41215.2 1.37865e-13 12652.6)
(-39259 5175.94 -4.46423e-16 -9070.95 6.55025e-14 -11991.6)
(-2.19747e+06 -355107 1.97371e-14 90421.8 -9.95256e-15 -522802)
(-1.5925e+06 76436 1.42766e-14 -12202.6 -2.17741e-15 -398159)
(498790 49195.9 7.46232e-14 3706.55 -7.27627e-14 124680)
(-1.48649e+06 78910.8 -5.72935e-14 747.251 3.59625e-14 -368643)
(724879 45248.4 -3.35816e-14 4248.27 1.01742e-13 180911)
(-1.36893e+06 76213.4 2.18652e-14 859.693 2.19692e-14 -339447)
(-1.25379e+06 74177.1 -1.26302e-13 1372.23 9.64719e-14 -310749)
(415212 69866.4 7.31044e-14 -5257.05 2.03639e-13 101718)
(-1.27096e+06 29861 7.82888e-14 8549.27 -1.0753e-13 -313229)
(607441 73670.1 9.06439e-14 -6456.53 -7.21589e-14 149116)
(-1.17117e+06 31244 6.49131e-14 7534.63 -1.11674e-13 -288722)
(-1.07319e+06 33235.8 -6.72984e-14 7368.9 -6.05818e-14 -264452)
(-596252 95162.8 5.0147e-15 18467.9 5.03919e-14 -143360)
(183705 80286 -3.65021e-14 -6048.51 -2.42978e-13 44080.1)
(262983 78292 -5.83071e-14 -8189.85 -1.68383e-13 63219.4)
(-383555 76543.2 -1.75276e-14 12148.6 1.00883e-13 -92153.5)
(1.55072e+06 48685.8 -1.1103e-13 2064.91 -3.74594e-14 385277)
(-1.59821e+06 -21943 1.06727e-13 -12590.1 3.29786e-14 -399672)
(899816 45857.5 7.5137e-14 -2705.66 -6.9975e-14 222591)
(-454010 44768.9 1.66523e-15 8162.68 9.88092e-15 -110624)
(-208866 76363.2 -9.4643e-14 2101.55 -7.81804e-14 -51302.6)
(-218924 62829 8.09944e-14 -3014.21 -7.32539e-14 -55067.5)
(23337.8 85003 6.15705e-14 1397.7 1.12422e-13 6137.38)
(-311141 54974 -1.38461e-13 -1120.77 1.43546e-13 -77478.4)
(268773 66793.2 -7.25619e-14 -4662.27 -7.66454e-14 65531.3)
(182422 75589.6 -6.65219e-14 2860.46 5.12583e-14 45972.4)
(-580809 62514.6 1.12576e-13 8075.89 -7.576e-14 -142107)
(-813940 69581.5 4.08715e-14 3458.88 8.94473e-14 -201097)
(1.6425e+06 19945.1 2.51121e-14 1908.38 -3.29289e-16 408011)
(-7627.59 89537.6 3.2322e-14 -774.993 -1.57162e-13 -2084.85)
(2.37053e+06 85040.6 -2.91777e-14 -14389.6 -1.58931e-14 584607)
(-256108 68550.1 -1.19598e-13 963.115 8.23867e-14 -63306.7)
(2.07046e+06 54442.9 0 -21036.9 0 508503)
(-594282 69703.8 3.50553e-14 -6096.46 1.46385e-13 -148966)
(-648178 69585.8 -3.59428e-14 -6865.03 4.26148e-14 -162530)
(-701677 70579.7 -5.83556e-15 -7118.97 1.53944e-13 -175867)
(328287 77420 -8.86086e-14 1093.93 2.17862e-14 81726.1)
(223146 78777.7 -9.45777e-14 664.602 2.33423e-14 55531.9)
(-2.57552e+06 -21934.6 2.31202e-14 -9728.74 -1.31799e-14 -641452)
(-1.61097e+06 75078.7 -2.38856e-14 -9486.53 4.49825e-14 -402069)
(568964 52926.2 -9.43945e-14 5203.6 -5.52294e-14 142463)
(791141 49991.4 2.64951e-13 6257.01 -1.42367e-13 197851)
(88216.2 85896.1 5.19006e-14 -8498.61 -1.34149e-13 19779.5)
(-462732 38663.7 0 1684.2 0 -114395)
(-468437 20725.2 1.41962e-13 -3196.79 -7.21525e-14 -117022)
(2.27002e+06 60218.1 3.79626e-14 -15989.1 2.53117e-14 559271)
(2.32309e+06 -15462.5 3.14761e-14 14339.5 2.77932e-14 579964)
(1.22703e+06 24308 1.95586e-15 -1247.71 6.66588e-14 304140)
(1.12714e+06 26780 1.36938e-14 -883.129 1.61992e-13 279448)
(1.32872e+06 21709.4 3.44011e-14 -2391.38 -4.97339e-14 329088)
(-579881 75667.4 -8.56065e-14 4856.31 7.70055e-14 -142675)
(-384447 70903.7 -8.3079e-14 3745.61 9.1095e-14 -94459.8)
(252830 101191 0 2084.14 0 63249.4)
(172729 97348.5 -3.44882e-15 776.355 1.32054e-13 43050.1)
(551167 75270.3 -1.01606e-13 -135.957 8.30627e-14 136722)
(-232371 71055.6 -8.1261e-14 3061.81 1.92593e-13 -56896.2)
(-360498 106643 -1.60344e-14 4525.45 7.08314e-14 -88323.9)
(112250 77780.2 -3.02655e-13 -857.353 -8.02898e-14 27638.9)
(160093 74393.3 -2.09224e-13 -1161.99 8.75175e-14 39434)
(-97586.7 89454.6 -4.08133e-14 2270.17 -5.7086e-16 -23650)
(-274510 58025.8 -3.36264e-14 6032.03 -2.09868e-14 -66614.8)
(-252686 59525.6 2.22385e-14 5327.86 -3.79552e-14 -61374.6)
(-254813 42910.4 0 -409.665 0 -63326)
(-121184 110159 4.57998e-16 -5510.88 -4.38926e-14 -31435.6)
(-1.18078e+06 2262.22 9.90677e-14 -7264.52 -4.33779e-14 -294778)
(1.48129e+06 58319.8 -1.28575e-13 -6672.27 -1.2963e-14 365882)
(1.80174e+06 183202 7.59419e-15 -307786 3.8351e-15 370682)
(-42901.4 74471.8 2.70275e-14 -3776.3 -6.1245e-14 -11581.7)
(276443 25432.3 9.86305e-14 2484.18 -2.25129e-13 69207.6)
(-2.25505e+06 -282657 1.897e-14 182911 -1.22379e-14 -514140)
(128726 59117.2 4.22049e-15 3869.9 1.14408e-13 32899.7)
(353458 41760.7 7.9618e-14 871.553 -9.13848e-14 87916.4)
(390618 45897.4 1.11172e-13 -5647.11 -4.68971e-14 95519.2)
(-4947.51 88272.7 8.37463e-14 -101.546 -1.24166e-14 -1252.77)
(-5608.02 91385.9 8.83378e-14 -645.981 7.46797e-15 -1551.75)
(1.07226e+06 33978.7 2.81947e-14 -5349.42 9.36819e-14 264723)
(888940 97074.8 3.58031e-14 7955.74 -8.63026e-15 222538)
(-808825 80329.1 0 7987.54 0 -198704)
(-691282 42157 -9.12129e-14 -10673.8 -5.70422e-14 -174169)
(2.19249e+06 -358799 -7.96324e-15 -92680.3 -5.3675e-15 521007)
(-675687 123652 -7.27791e-15 18679.2 8.46693e-14 -163017)
(-1.0794e+06 40038.3 4.99528e-14 -2452.55 -2.94225e-14 -268430)
(-2.28514e+06 -920295 -2.14161e-14 478998 8.37044e-15 -448139)
(2.75023e+06 2058.18 0 37573 0 691710)
(-2.00114e+06 -852262 -6.96872e-15 225865 2.15488e-15 -440482)
(352980 122780 -4.75895e-14 -69.8318 1.67639e-14 87564.2)
(-79013.1 71501.6 -8.54181e-15 -872.966 1.19411e-13 -19821.4)
(-1.04209e+06 90181.6 4.23562e-14 -8784.04 -4.65581e-14 -260744)
(-954356 90445.9 6.31554e-14 -7876.33 -7.8873e-15 -238749)
(-875848 88324.5 -7.20965e-14 -7107.78 2.80397e-15 -219079)
(311353 62435.4 6.33566e-14 4118.16 -1.76734e-13 78274.8)
(468170 59700.7 -1.58976e-13 5258.2 1.54522e-13 117467)
(46175 77328.9 -2.50012e-14 -8106.46 1.17309e-13 9445.58)
(65966.4 72909.9 5.91617e-14 -11092.8 7.57712e-14 13615.3)
(-149196 116822 -6.70848e-14 24584.4 1.81435e-14 -30918.7)
(-95631.6 67890.5 5.02603e-14 16526.5 -6.42677e-14 -19627.6)
(-1.25274e+06 -504163 -5.39737e-15 -31132.2 1.12756e-15 -318554)
(236137 117982 -3.81435e-14 17913.2 -1.3506e-13 63034.9)
(-117403 69631 -1.32088e-13 -9313.59 -6.03671e-14 -31440.9)
(-551425 111538 0 117.322 0 -136791)
(235738 63992.4 1.01092e-13 1396.37 -4.12447e-14 58837.9)
(-116217 95497.6 0 -625.582 0 -28990.9)
(-86661.9 75511.7 -6.43183e-14 -973.259 -1.01849e-13 -21744.1)
(824262 79444.7 8.98714e-14 4671.2 -9.3986e-14 205675)
(846772 49230 1.37626e-13 25.3402 6.57192e-14 210108)
(2.28316e+06 -919552 -8.01528e-15 -479330 -2.65011e-15 447568)
(1.25135e+06 -504101 9.36233e-15 31002.9 2.56737e-15 318178)
(-256052 54688.7 1.96064e-14 2018.79 2.7894e-14 -63030.9)
(-273244 55538.8 -5.95658e-14 -2985.22 -1.2177e-13 -68538.1)
(-1.46663e+06 -529.232 -6.53979e-14 -5551.4 -1.49761e-14 -365278)
(1.1902e+06 53755.3 1.4823e-13 -4042.2 -3.87097e-14 294310)
(384606 71623.3 4.92806e-15 -3227.21 2.69722e-13 94627.9)
(579367 77344.9 9.16398e-14 -3946.08 9.96077e-14 142774)
(-1.32917e+06 22078.3 -2.41636e-15 -910.561 5.66414e-14 -330019)
(-1.22985e+06 26346.2 -5.76758e-14 -929.197 1.90703e-14 -305382)
(-1.12943e+06 28905.4 -3.87899e-15 -1015.97 8.96224e-14 -280487)
(-17344.4 90798.9 -1.39431e-13 -896.83 4.03173e-14 -4526.02)
(-1.43905e+06 24262.2 3.73912e-14 -2279.87 4.02038e-14 -357624)
(483749 72263.9 -9.3923e-14 -3285.15 4.60623e-14 119213)
(679335 76548 0 -3701.58 0 167638)
(640611 56908.9 3.57591e-14 -4765.21 8.52727e-14 157766)
(123353 75747.1 -1.17836e-13 654.373 -3.11412e-13 30768.6)
(10767 77652.6 -1.03256e-13 -9158.39 -3.79615e-14 399.128)
(521481 40139.5 -1.3015e-13 16230.8 2.3286e-14 133417)
(-444799 59316.7 -1.11915e-14 -1298.76 -9.06115e-14 -110686)
(70458.1 79367.5 1.51815e-15 -16637.4 1.88806e-14 13354)
(1.99864e+06 -852216 -7.25235e-15 -226729 -1.82422e-15 439648)
(317212 83931.3 9.27633e-15 -2708.97 -1.72054e-13 78034.6)
(382192 81601 8.01197e-14 281.108 2.72434e-14 94899.3)
(-250424 80520.2 0 -626.239 0 -62290.5)
(-297498 90847.2 2.99351e-14 -7691.87 -8.32768e-14 -75723.7)
(879570 88051.4 0 8082.21 0 220245)
(958372 90319.3 5.2804e-14 8782.61 5.00748e-14 239971)
(1.03665e+06 94011.9 -1.18063e-13 9153.23 -1.14185e-14 259486)
(-468047 56679.5 1.67808e-13 -6036.68 1.70424e-13 -117630)
(-314681 61334.7 8.82355e-15 -4361.34 -1.02028e-13 -79160.9)
(-16724.7 86414.1 9.93192e-14 -545.7 5.2861e-14 -4285.14)
(2.06106e+06 11724.3 -1.52735e-14 -32540.2 -2.78486e-14 503317)
(-12855.1 102207 -1.07266e-13 -6312.77 3.34121e-14 -4755.93)
(27381.5 49638.9 -1.02066e-13 12520.3 -6.3491e-14 9900.45)
(46328.2 81962.4 7.71721e-14 1400.22 -1.79037e-13 11842.4)
(498185 83057 8.20424e-14 477.979 8.66557e-14 123728)
(-194159 3721.34 -1.36584e-13 -3206.5 6.68979e-15 -48970.3)
(658851 92715.3 0 -4055.02 0 162468)
(2.16437e+06 -94279 3.51181e-16 -300733 1.411e-16 462405)
(495032 21765.6 7.88565e-14 7345.07 1.79268e-13 124650)
(475944 34954.9 3.57371e-14 -6920.66 1.94694e-14 116374)
(-716635 79328.3 1.17333e-14 6595.39 2.47751e-14 -176175)
(-509546 74038.9 -9.15086e-14 5602.94 2.93071e-14 -125039)
(-610557 48230.7 -1.86996e-13 -2991.09 -3.26983e-14 -152234)
(-437585 53183.4 9.44531e-15 -3159.85 -9.92824e-15 -109358)
(1.51023e+06 19734.7 -6.49511e-15 -3997.06 2.14003e-14 373728)
(1.25083e+06 100042 2.66886e-15 -455.216 -4.42604e-14 310245)
(361865 91520.5 1.65513e-14 -4413.52 9.787e-15 88691)
(486615 75414.3 3.10758e-14 -292.368 5.28384e-14 120667)
(266755 90368.3 8.64898e-14 -4441.34 6.16054e-14 65085.4)
(357354 75709.4 7.75531e-14 -1493.49 -1.22711e-14 88296.2)
(-682951 52415.9 -1.42248e-14 7054.08 3.56588e-14 -167704)
(-898797 84007.6 -3.94397e-14 2576.03 7.08896e-15 -222371)
(-204659 133384 4.37204e-14 -773.577 3.11859e-14 -50972)
(1.47715e+06 58951 4.88034e-14 5866.9 3.49905e-14 367968)
(1.60157e+06 58563.5 -1.05662e-14 26054.7 5.24503e-15 403846)
(1.89827e+06 60035 8.58209e-15 -2100.56 5.40237e-15 470478)
(133062 84760.1 -1.68349e-13 -456.592 2.0436e-13 32902)
(-488495 22804.1 -1.04302e-13 -6854.67 -5.36151e-14 -122906)
(-472720 37988 -1.32354e-13 4091.39 8.85025e-14 -116276)
(2.22374e+06 -10047.2 0 14139.3 0 555262)
(2.2301e+06 67730.9 0 1706.94 0 553756)
(1.33862e+06 52549.7 2.0429e-14 -1875.15 9.71317e-14 331675)
(1.32705e+06 7251.9 6.50937e-14 5375.81 -1.82988e-13 330601)
(-1.37803e+06 10285.1 0 -10225.5 0 -344454)
(-1.34393e+06 53031.8 0 9149.69 0 -331185)
(38403.9 81907.6 -2.31989e-14 2404.32 6.64253e-14 10125.3)
(-93275.4 33798.8 2.48254e-13 -5272.57 -1.05044e-13 -24451.7)
(-361950 35243 -6.54609e-14 -3595.1 -2.41465e-14 -90699.2)
(2.89894e+06 3653.99 0 58578.4 0 733819)
(-51079.9 71452.5 -1.63716e-13 -1121.74 -4.08158e-15 -12952.3)
(-60788.7 74253.4 -2.35805e-14 -4765.41 -1.31103e-13 -16265.3)
(321849 98931.6 -8.43822e-14 -7355.15 -5.7813e-14 78032.2)
(-253594 96866.1 -1.75764e-13 -7652.69 7.35813e-14 -64820.7)
(307973 58274.4 5.09818e-14 -8292 -5.2715e-14 74357.1)
(-1.1773e+06 49730.8 3.6177e-14 -10773.9 -7.3607e-14 -294786)
(1.1874e+06 54672.7 -1.50386e-14 -12192.6 -8.99981e-14 291594)
(-1.98386e+06 82918.8 1.5555e-14 -12298.8 -6.63137e-14 -495287)
(-2.33486e+06 -213699 8.17911e-15 431031 -5.86559e-15 -472378)
(818741 106484 -1.30381e-14 -17098 1.61771e-14 198904)
(94086 107147 -8.71566e-15 -5070.29 4.90569e-14 22086.6)
(-1.11085e+06 87782.2 -4.36354e-14 -4891.28 -1.22304e-13 -276838)
(934942 27580.6 -5.68681e-14 12054.9 8.20138e-14 234969)
(-646314 52824.1 6.26779e-14 -11173 8.03721e-14 -163136)
(505518 86465.6 9.42737e-14 6226.81 1.65396e-15 126974)
(94715 92960.8 2.63268e-14 5709.4 1.23151e-15 24917.3)
(161590 71074.4 -1.11338e-13 -876.461 1.39776e-13 39876.2)
(-320027 61021.4 7.61339e-14 -20355.3 -8.08222e-14 -84455.7)
(-518286 125089 1.23454e-15 8852.29 1.01785e-13 -126401)
(-294108 62290.3 1.17524e-14 -18833.8 -8.18239e-14 -77647.2)
(-476040 121092 7.4329e-14 8074 -2.71564e-14 -116112)
(118246 49761.7 -4.6526e-14 -3465.66 1.44449e-14 28479.2)
(-55940.5 103678 -1.2373e-15 2752.87 -9.18521e-14 -13196.9)
(-36543.6 101322 1.14015e-13 2727.08 9.142e-14 -8390.56)
(-24421 89529.4 5.86953e-14 920.471 -1.27756e-13 -5830.96)
(1.57271e+06 40949.7 3.3489e-14 4386.68 5.19448e-15 391310)
(-16248.7 103860 -1.28836e-13 -7483.51 -5.72492e-14 -5888.43)
(-62197.9 73880.4 6.37273e-14 -4448.25 -2.13315e-13 -16536.3)
(2.18366e+06 -66409.7 -1.65915e-14 -112560 -1.20807e-14 513882)
(368163 60450 6.78964e-14 -5418.12 -8.70814e-14 90004.4)
(-848580 106997 4.51705e-14 15423.3 1.21872e-14 -206723)
(-978869 68690.1 -7.40624e-14 2012.85 -3.23994e-14 -242378)
(-971759 29898.3 0 -11899.1 0 -244066)
(1.2226e+06 16782.5 -6.66437e-14 5859.74 -3.16847e-14 304806)
(1.17131e+06 77771.9 4.0862e-15 10008 7.93483e-14 293109)
(-37053.4 61117 -7.53793e-14 819.643 6.1423e-14 -8990.34)
(-28209.3 61593.4 5.46816e-14 1622.63 -3.05667e-13 -6596.7)
(-756953 114341 -2.9779e-14 8703.02 -7.27546e-16 -185656)
(-1.01967e+06 80258.4 0 12859.6 0 -249810)
(718835 48355.5 1.62873e-14 7973.54 3.99801e-14 180336)
(-1.85601e+06 101823 7.12595e-15 -8792.66 -2.2473e-14 -462696)
(66431.1 71378.2 0 16910.3 0 20678.7)
(1.03173e+06 41697.3 -3.53102e-15 -3014.87 2.45074e-14 255246)
(782831 111114 -1.91179e-15 6767.69 9.27616e-17 195916)
(-495832 91389 1.40081e-13 4661.33 -1.80118e-14 -121869)
(-384943 61207.4 -1.36906e-14 -3711.74 9.86752e-14 -96433.1)
(-353626 86853.2 2.16852e-14 3868.71 -8.23756e-14 -86781.9)
(-277286 65490.9 -1.22571e-15 -3175.21 4.83953e-15 -69588.1)
(-393114 40610 5.06992e-14 18.4003 7.48563e-14 -97535)
(-331753 46325.8 -8.86848e-14 2739.59 1.78411e-14 -81634.8)
(-405705 111366 0 1053.65 0 -100402)
(-455198 112401 -4.45373e-14 -1051.35 3.86782e-14 -113205)
(-494732 115770 -3.63221e-15 -1224.57 -4.13983e-15 -123057)
(135558 71319 -2.18291e-13 1306.72 -1.09102e-13 33959)
(-26979.4 85149 -4.8453e-14 -2364.13 9.64123e-14 -7280.73)
(979761 42481.5 -2.72411e-14 5940.8 7.76454e-14 244573)
(1.02585e+06 58468.2 3.77329e-14 -6697.48 -7.33494e-14 252871)
(169334 74982.8 7.85366e-15 1554.17 -5.4398e-14 42400.8)
(248650 68602 0 2929 0 62421.9)
(-534159 110604 5.56113e-14 -3159.88 -6.10793e-14 -133320)
(474891 65238.5 -1.06319e-13 4949.91 -1.35049e-15 119058)
(518574 98531.7 -4.65413e-14 5714.87 -2.88248e-15 130087)
(-190794 82651.9 -8.96999e-14 -528.75 1.28513e-13 -47471)
(-162889 86589.7 5.23311e-14 -1780.23 3.06916e-15 -40857.7)
(-233403 90942.8 8.47613e-14 -1212.92 3.01406e-14 -58213.1)
(-259105 77657.8 0 -3099.31 0 -65058.1)
(-1.12097e+06 43439.9 2.47757e-14 -193.44 -3.77647e-14 -278184)
(522849 79933.2 -4.10756e-14 -1129.39 -1.62281e-13 129449)
(371404 77196.7 -1.88141e-14 -1250.69 -2.6888e-15 91842.5)
(-120035 214028 -1.13032e-14 23304.7 -8.05913e-15 -24000.7)
(1.35451e+06 34717.2 -8.60848e-14 -9762.29 -5.1555e-14 333659)
(-1.58e+06 9011.75 7.44412e-14 2311.68 4.45367e-14 -391457)
(-178664 197722 0 -7582.97 0 -46211.7)
(-186365 79928.4 3.13586e-14 2094.6 9.46301e-14 -45721.1)
(-157263 84509.8 -2.3587e-13 3713.54 -5.98172e-14 -38098.7)
(-272131 79367.8 1.01698e-13 1724.14 1.13685e-15 -67093.5)
(-234326 87386.9 0 3196.45 0 -57347.9)
(532538 63048.6 5.1597e-14 -4661 -8.30398e-14 130977)
(611334 89729.1 1.88503e-14 -3714.35 7.98654e-15 150763)
(497319 67410.3 -3.84215e-14 -9587.32 3.67707e-14 121016)
(579813 92884.5 4.10529e-14 -6707.6 1.1331e-13 142199)
(456596 67735.4 3.22239e-14 -8724.54 5.40319e-14 111126)
(532192 91304.4 -6.9981e-14 -6196.69 3.99763e-14 130510)
(418346 39626.8 3.20026e-14 -258.991 1.20804e-13 103736)
(403650 22422.7 9.40981e-14 2032.44 2.01407e-13 100658)
(-794498 87919.7 -1.7833e-14 787.871 2.33945e-14 -196936)
(378070 85018.4 -9.74313e-14 -4721.29 -2.37019e-15 92635.5)
(-894927 62748.1 0 7620.22 0 -220159)
(1.54803e+06 94264.5 5.22556e-14 -13105.2 -3.28617e-14 380846)
(-786720 38477.9 9.8156e-14 2982.72 -1.61186e-13 -194461)
(-572478 44662.9 1.18572e-13 981.48 -7.96624e-14 -141800)
(-1.72424e+06 -815127 -6.63302e-15 273837 1.48395e-15 -359874)
(51235.9 79663.2 1.32482e-13 109.097 -3.47763e-14 12739.7)
(1.6418e+06 50805.8 -1.74686e-14 -3802.3 -8.89177e-16 406420)
(-803610 60817.6 -2.74522e-14 3019.85 -7.96101e-14 -198643)
(-577445 58585.7 1.71769e-13 2753.34 8.44997e-14 -142593)
(2.43498e+06 -19782.6 2.83323e-14 -5408.66 1.26118e-14 602825)
(-110203 70719.8 -1.90005e-14 -1821.95 7.61937e-14 -27795.6)
(1.68918e+06 11483.1 4.34013e-14 4930.15 -2.69561e-14 420342)
(-397955 61890.7 5.94457e-14 1559.83 -1.04761e-13 -98353.7)
(-1.39044e+06 92447.1 3.51688e-14 14244.7 -4.58422e-15 -341461)
(-1.30685e+06 57659.7 -2.1482e-14 -7730.56 -1.63025e-15 -326173)
(1.26759e+06 59246.4 -4.06572e-14 2045.82 2.6565e-14 315023)
(-162665 83820 -2.59137e-13 6446 -1.17911e-13 -38761.2)
(-3775.03 -43766.9 2.69959e-16 -68621.5 9.59651e-17 -17963)
(-19526.8 75473.8 0 3069.3 0 -4083.44)
(-2.28851e+06 -731626 1.08957e-14 287370 -3.00489e-15 -496523)
(1.72138e+06 -815051 1.29055e-14 -276385 4.06116e-15 358532)
(-1.11474e+06 96838.3 4.55485e-14 -9202.41 -4.41406e-14 -278873)
(389034 59167.7 1.98593e-14 3786.05 7.66083e-14 97466.6)
(541439 54523.9 -6.38058e-14 5055.71 1.45242e-13 135596)
(155184 78474.2 1.27904e-13 -1234.76 3.80764e-14 38198)
(-290493 14399.2 7.41237e-14 -16.6527 -1.13955e-13 -72081.3)
(263226 103835 -6.15299e-14 -1724.94 5.6292e-14 64883.7)
(-133171 61884.2 1.81774e-14 823.348 2.78615e-14 -32838.1)
(-119020 112216 1.29484e-14 4820.07 3.75158e-14 -28335.2)
(-1.88058e+06 -208.717 -5.99027e-15 50682.7 1.41663e-14 -454034)
(15338.1 -26046.4 7.0852e-17 -45485.6 4.39784e-17 -7480.21)
(-660564 103402 -2.74027e-16 8228.41 5.14407e-15 -161858)
(520641 56197 4.61865e-14 -3436.53 1.42994e-13 128329)
(1.94835e+06 -377433 1.14792e-15 -51245.9 1.4823e-15 470710)
(-59007.7 61448.2 -1.18571e-14 -10298.8 -9.21502e-14 -17196.4)
(-66096.5 106254 9.40681e-15 -4729.05 8.99627e-14 -17573.2)
(-37456.6 92473.8 -1.60941e-15 124.934 -1.37717e-13 -9262.75)
(-96325.5 77061.6 -2.53634e-14 3911.29 3.45409e-14 -22929.8)
(44160.6 91083.3 4.12475e-14 -1658.92 1.06559e-13 10545.5)
(29034.4 92884.7 -9.69789e-14 -163.487 -3.16501e-14 7163.45)
(-1.95196e+06 -375072 4.87729e-15 49444.7 -1.50872e-15 -472054)
(692783 95086.3 -3.74135e-14 2640.88 2.02244e-14 172549)
(-243376 77186 -2.59626e-13 -957.033 -7.36406e-14 -60623.9)
(821886 81220.7 1.34512e-13 5326.43 -2.27708e-13 205248)
(755603 80295 -1.69809e-15 4742.86 -8.74328e-14 188657)
(692234 77900.8 -2.50364e-13 2616.42 3.77452e-14 172407)
(119275 43520.4 -1.26877e-13 3956.85 -4.74543e-14 30576.2)
(-1.60622e+06 31352.1 6.75761e-14 -4086.56 -6.55198e-14 -399549)
(510618 61685.5 1.37563e-13 -2927.52 1.48419e-14 125968)
(725993 64248.8 -6.22722e-14 -2940.22 -8.90198e-14 179404)
(-138289 76634 -2.19894e-13 -321.929 -3.70622e-14 -34392.3)
(1.02112e+06 103891 1.42386e-14 -13453.4 2.05158e-14 250023)
(197668 58949.2 -8.89741e-14 498.053 6.02508e-14 49169.1)
(-2.04229e+06 22156.1 -2.27734e-14 -2658.45 -8.40841e-15 -507394)
(59884.9 78541.6 -1.14746e-13 1822.8 -9.65037e-14 15310.9)
(-173762 84359.7 -2.28151e-13 1295.22 1.077e-13 -42792.6)
(590418 63567.7 1.71035e-13 848.096 -2.45909e-14 146705)
(542803 64201.6 1.60024e-13 574.741 3.89366e-14 134823)
(496740 62840.3 -1.16121e-13 -1402.68 3.19759e-14 122903)
(1.064e+06 44834 1.71308e-14 96.6144 3.58783e-14 264024)
(236934 84704.1 -7.69928e-14 3391.65 -1.64931e-13 59629.7)
(-590312 68634.6 5.21063e-14 -9105.57 1.16195e-15 -148728)
(-459504 126420 3.16891e-14 4184.43 3.53005e-14 -112974)
(-259238 50631.2 0 1979.75 0 -63831)
(-824129 94458.8 -7.0399e-14 -9492.31 2.14276e-14 -206838)
(-899260 96855.5 -1.05778e-13 -10512.2 -6.97839e-15 -225733)
(-976133 100270 -1.0548e-13 -11862.9 5.07919e-14 -245142)
(467611 62712.7 2.18562e-15 7635.62 2.70789e-14 117918)
(319213 67727.9 3.42974e-14 5545.17 -4.29267e-14 80579.2)
(81294.2 6020.84 -9.97072e-14 4153.65 3.59608e-14 21201.3)
(164085 65521.1 0 -1770.06 0 40273.7)
(210526 52542.7 -1.16767e-13 2065.85 6.96764e-14 52748.4)
(2.36003e+06 -117259 -6.13012e-15 -308378 -2.95206e-15 509055)
(915073 43146 1.14593e-13 1625.99 -1.17587e-13 227452)
(-703061 86009.4 0 1455.6 0 -174083)
(-491272 77458.8 -5.68137e-14 9604.4 -2.49258e-15 -119512)
(395614 81677.3 3.03718e-14 -4021.26 -3.75539e-14 97162.1)
(-125979 97452 5.07605e-14 -2810.86 4.16345e-14 -31955.4)
(-15231.8 93466.2 1.49799e-13 -3287.34 -1.17996e-13 -4594.98)
(42120.5 66546.9 1.19017e-13 10253.3 -1.8824e-14 12995)
(45961.3 65671.1 -6.2205e-14 11249.6 -5.78969e-14 14195.2)
(-4170.34 119543 -3.11417e-15 -3045.79 -2.54961e-14 -1790.47)
(-11043.5 61783.8 -2.79076e-14 -1038.02 9.38254e-14 -2997.67)
(726.666 72020.6 -1.04618e-13 179.696 7.794e-14 224.887)
(14233.3 74526 9.99894e-14 -14575.8 -4.54071e-14 -84.9899)
(174551 50946.2 -7.6759e-15 2548.48 -3.60942e-14 43942.1)
(-319333 119789 -1.80148e-15 2080.32 -1.73634e-14 -78716.9)
(103857 74997.7 2.50758e-13 1573.76 -4.93236e-14 26159.5)
(16037 116037 1.03377e-14 -18962.4 1.47051e-14 -725.849)
(-678703 118313 -2.58332e-14 -3050.67 -1.5495e-14 -169157)
(870046 53139.8 8.57814e-14 3867.68 7.64647e-14 216836)
(-374441 87640.6 -9.64833e-14 -441.757 3.15532e-14 -93016.1)
(-1.56198e+06 278208 -4.45839e-15 274621 2.66399e-15 -319420)
(-230918 48278.1 6.87404e-14 -1951.56 7.46207e-14 -57779.7)
(-378245 120043 0 3836.99 0 -92898.3)
(112691 75572.6 1.33821e-13 605.315 -1.84794e-13 28111.2)
(175519 69000.1 7.07509e-15 -444.011 2.29635e-14 43439.6)
(1.71709e+06 -379689 -1.38119e-15 55196.6 2.41205e-16 439740)
(-2.38474e+06 8633.69 -1.90483e-14 14208.6 8.75321e-15 -588177)
(752265 61692.6 4.21379e-14 4247.64 3.53883e-14 187706)
(818641 61016.5 -4.26258e-14 4537.51 9.28488e-14 204247)
(-247502 83553.2 -3.17541e-13 827.553 -1.13346e-13 -61204.9)
(174674 106757 5.57536e-14 11615.8 1.09835e-13 46222.2)
(-37909.8 71627.2 8.93412e-14 -2813.78 1.35905e-13 -10104.3)
(-972818 -631926 -1.1816e-15 73152.1 4.97413e-16 -223225)
(-2.32613e+06 77439.1 6.23566e-15 1820.15 8.05945e-15 -576708)
(2.0613e+06 37285.1 3.38695e-14 3757.06 -1.66746e-14 512384)
(-2.97781e+06 -52025.1 -8.77314e-15 -7859.17 -3.77545e-15 -740806)
(966849 56111.2 -3.86341e-14 -7073.51 -6.00138e-14 238140)