/*--------------------------------*- C++ -*----------------------------------*\
| =========                 |                                                 |
| \\      /  F ield         | OpenFOAM: The Open Source CFD Toolbox           |
|  \\    /   O peration     | Version:  2.3.1                                 |
|   \\  /    A nd           | Web:      www.OpenFOAM.org                      |
|    \\/     M anipulation  |                                                 |
\*---------------------------------------------------------------------------*/
FoamFile
{
    version     2.0;
    format      ascii;
    class       volScalarField;
    location    "0.94";
    object      epsilon;
}
// * * * * * * * * * * * * * * * * * * * * * * * * * * * * * * * * * * * * * //

dimensions      [0 2 -3 0 0 0 0];

internalField   nonuniform List<scalar> 
9648
(
2419.73
2408.39
2406.41
2399.37
2387.43
2370.24
2348.39
2321.39
2289.13
2251.69
2209.27
2162.01
2110.73
2056.4
1999.81
1941.93
1883.85
1826.61
1770.91
1717.31
1666.36
1618.4
1573.59
1532.1
1493.99
1459.14
1427.45
1398.83
1373.18
1350.29
1330.06
1312.32
1296.95
1283.78
1272.72
1263.64
1256.4
1250.93
1247.19
1245.09
1244.53
1245.5
1247.95
1251.83
1257.17
1264.02
1272.35
1282.13
1293.47
1306.48
1321.19
1337.56
1355.82
1375.94
1397.85
1421.32
1446.09
1471.7
1497.4
1522.65
1547.05
605.698
596.919
587.337
576.927
567.944
562.615
559.96
559.26
560.443
563.555
568.377
574.261
580.795
587.602
594.345
600.653
606.346
611.391
615.78
619.453
622.517
625.039
627.078
628.756
630.206
631.49
632.668
633.816
635.018
636.324
637.759
639.379
641.225
643.294
645.621
648.231
651.117
654.278
657.729
661.498
665.574
669.945
674.621
679.61
684.894
690.503
696.429
702.642
709.121
715.854
722.803
729.93
737.18
744.578
751.982
759.366
766.576
773.716
780.654
787.319
793.675
241.384
244.591
249.108
255.604
264
274.094
285.961
299.286
314.02
329.788
346.391
363.389
380.443
397.221
413.432
428.842
443.282
456.665
468.936
480.085
490.14
499.144
507.177
514.327
520.694
526.367
531.43
535.977
540.08
543.814
547.243
550.426
553.411
556.242
558.959
561.587
564.159
566.69
569.199
571.702
574.214
576.749
579.307
581.895
584.514
587.157
589.818
592.477
595.127
597.747
600.333
602.876
605.339
607.77
610.058
612.298
614.398
616.489
618.418
620.227
621.908
135.182
145.601
157.21
170.232
184.705
200.598
217.858
236.298
255.695
275.705
296.018
316.262
336.121
355.297
373.547
390.673
406.547
421.098
434.295
446.151
456.7
465.997
474.129
481.189
487.286
492.526
497.007
500.827
504.069
506.818
509.148
511.127
512.819
514.271
515.529
516.632
517.615
518.5
519.311
520.069
520.792
521.496
522.194
522.892
523.596
524.304
525.017
525.73
526.442
527.144
527.819
528.49
529.13
529.752
530.307
530.852
531.384
531.893
532.36
532.791
533.224
98.4765
111.944
126.891
143.31
161.158
180.357
200.742
222.078
244.065
266.327
288.51
310.242
331.222
351.18
369.913
387.239
403.072
417.37
430.129
441.397
451.223
459.672
466.85
472.854
477.817
481.858
485.087
487.612
489.515
490.889
491.817
492.371
492.624
492.628
492.425
492.062
491.579
490.995
490.341
489.634
488.891
488.137
487.386
486.652
485.934
485.239
484.571
483.925
483.296
482.689
482.085
481.486
480.899
480.316
479.73
479.143
478.578
478.011
477.427
476.835
476.243
84.0652
99.4511
116.639
135.493
155.826
177.467
200.151
223.56
247.328
271.029
294.293
316.73
338.078
358.08
376.606
393.463
408.596
422.021
433.744
443.868
452.462
459.581
465.372
469.919
473.392
475.931
477.648
478.671
479.067
478.938
478.383
477.458
476.261
474.846
473.239
471.499
469.679
467.781
465.844
463.883
461.909
459.952
458.032
456.164
454.34
452.569
450.852
449.201
447.601
446.04
444.515
443.014
441.541
440.091
438.653
437.259
435.897
434.541
433.178
431.816
430.441
78.9992
95.9559
114.99
135.854
158.204
181.796
206.254
231.192
256.214
280.788
304.596
327.179
348.365
367.897
385.791
401.747
415.772
427.962
438.289
446.96
454.063
459.596
463.808
466.702
468.533
469.457
469.57
469.057
467.918
466.284
464.279
461.917
459.344
456.602
453.68
450.67
447.652
444.577
441.516
438.474
435.438
432.465
429.569
426.77
424.035
421.385
418.824
416.348
413.958
411.632
409.359
407.126
404.947
402.775
400.633
398.543
396.502
394.505
392.497
390.46
388.438
78.421
96.787
117.447
140.04
164.049
189.165
214.975
241.031
266.901
291.919
315.875
338.133
358.741
377.36
394.354
409.124
421.764
432.525
441.19
448.191
453.66
457.413
459.989
461.089
461.182
460.433
458.891
456.865
454.182
451.056
447.67
443.912
440.041
436.051
431.884
427.689
423.55
419.331
415.223
411.181
407.152
403.221
399.45
395.808
392.238
388.816
385.478
382.277
379.17
376.16
373.217
370.332
367.501
364.656
361.859
359.156
356.477
353.902
351.28
348.611
346.028
79.997
99.4513
121.512
145.379
170.811
197.016
223.703
250.69
276.93
302.217
325.952
347.765
367.402
384.813
400.683
414.162
425.336
434.516
441.736
447.089
450.682
452.6
453.283
452.775
451.2
448.628
445.541
442.05
437.717
433.148
428.311
423.324
418.426
413.187
407.662
402.465
397.097
391.692
386.617
381.434
376.295
371.151
366.667
362.195
357.72
353.701
349.439
345.601
341.588
337.866
334.031
330.535
327.109
323.515
320.026
316.848
313.408
310.52
307.209
303.78
300.728
1570.75
1593.63
1615.41
1636.07
1655.81
1675.05
1693.91
1712.67
1731.1
1748.57
1764.75
1780.17
1795.09
1809.86
1824.7
1840.25
1857.08
1875.7
1896.49
1919.99
1945.99
1973.99
2003.53
2034.18
2065.59
2097.7
2130.65
2164.1
2198.04
2232.46
2267.57
2303.22
2339.44
2376.38
2414.04
2452.33
2491.37
2531.27
2572.11
2613.73
2656.17
2699.67
2744.21
2789.63
2836.24
2883.93
2932.57
2982.22
3033.07
3085.17
3138.44
3192.78
3248.72
3305.88
3364.61
3424.71
3486.92
3551.22
3617.62
3686.01
3756.51
799.703
805.807
811.733
817.409
822.859
828.198
833.57
838.833
844.166
849.257
854.307
859.253
864.21
869.195
874.202
879.278
884.443
889.744
895.174
900.712
906.32
911.937
917.538
923.098
928.607
934.041
939.333
944.453
949.397
954.188
958.843
963.336
967.687
971.918
976.023
980.004
983.884
987.655
991.319
994.876
998.342
1001.74
1005.04
1008.25
1011.38
1014.43
1017.37
1020.21
1022.97
1025.65
1028.22
1030.7
1033.08
1035.53
1037.79
1040.15
1042.47
1045
1047.43
1049.92
1052.54
623.56
625.14
626.762
628.354
629.92
631.39
632.927
634.364
635.776
637.046
638.267
639.436
640.621
641.777
642.905
643.995
645.042
646.046
646.994
647.877
648.679
649.4
650.029
650.562
650.995
651.324
651.544
651.654
651.644
651.522
651.276
650.912
650.433
649.836
649.135
648.327
647.415
646.395
645.271
644.039
642.705
641.274
639.752
638.125
636.405
634.579
632.637
630.57
628.387
626.088
623.648
621.114
618.446
615.675
612.72
609.687
606.572
603.386
600.12
596.804
593.501
533.63
534.034
534.403
534.757
535.078
535.366
535.609
535.843
536
536.052
536.04
535.983
535.859
535.649
535.384
535.05
534.65
534.175
533.619
532.975
532.244
531.424
530.521
529.529
528.445
527.26
525.979
524.601
523.125
521.552
519.882
518.106
516.229
514.256
512.196
510.049
507.813
505.49
503.073
500.568
497.979
495.319
492.592
489.804
486.955
484.044
481.05
477.974
474.808
471.571
468.235
464.808
461.304
457.707
453.989
450.157
446.259
442.28
438.249
434.202
430.163
475.649
475.026
474.375
473.689
472.97
472.183
471.34
470.491
469.635
468.722
467.77
466.77
465.706
464.582
463.394
462.138
460.844
459.476
458.034
456.515
454.923
453.264
451.545
449.769
447.927
446.017
444.034
441.98
439.861
437.676
435.421
433.085
430.67
428.18
425.628
423.015
420.337
417.588
414.762
411.864
408.905
405.892
402.843
399.77
396.679
393.572
390.413
387.229
383.983
380.698
377.353
373.936
370.47
366.939
363.319
359.602
355.809
351.934
348.042
344.138
340.24
429.072
427.688
426.29
424.842
423.363
421.843
420.277
418.691
417.058
415.396
413.69
411.956
410.179
408.348
406.469
404.552
402.605
400.592
398.511
396.363
394.157
391.906
389.622
387.313
384.966
382.571
380.13
377.643
375.128
372.586
370.011
367.379
364.693
361.948
359.171
356.357
353.494
350.582
347.602
344.557
341.461
338.321
335.162
332.011
328.885
325.795
322.683
319.587
316.467
313.366
310.233
307.044
303.841
300.579
297.274
293.849
290.363
286.807
283.267
279.692
276.142
386.427
384.417
382.392
380.344
378.251
376.105
373.922
371.733
369.501
367.216
364.913
362.6
360.25
357.873
355.447
353.004
350.559
348.063
345.499
342.863
340.171
337.462
334.74
332.034
329.32
326.571
323.794
320.984
318.188
315.413
312.676
309.906
307.124
304.296
301.477
298.642
295.753
292.836
289.863
286.829
283.74
280.59
277.428
274.286
271.19
268.201
265.199
262.282
259.362
256.55
253.75
250.876
248.02
245.116
242.209
239.132
236.044
232.851
229.753
226.592
223.484
343.437
340.896
338.334
335.804
333.236
330.67
328.023
325.442
322.824
320.088
317.354
314.66
311.919
309.154
306.312
303.5
300.762
297.981
295.135
292.147
289.085
286.048
282.998
279.996
277.058
274.088
271.092
268.01
264.962
262.002
259.22
256.427
253.714
250.975
248.319
245.686
242.927
240.11
237.289
234.461
231.534
228.489
225.426
222.367
219.335
216.525
213.639
210.936
208.227
205.795
203.434
200.932
198.488
195.991
193.555
190.838
188.186
185.369
182.788
180.094
177.503
297.425
294.366
291.129
288.241
285.18
282.539
279.541
276.969
274.352
271.494
268.631
266.025
263.164
260.32
257.198
254.066
251.295
248.612
245.93
242.985
239.63
236.5
233.29
230.061
227.028
224.051
221.176
217.973
214.57
211.368
208.574
205.788
203.229
200.731
198.578
196.501
194.11
191.442
188.867
186.492
184.052
181.242
178.362
175.538
172.625
170.094
167.239
164.757
162.157
160.227
158.414
156.287
154.348
152.336
150.484
148.083
145.902
143.394
141.38
139.191
137.225
3830.17
3906.53
3984.96
4065.5
4148.59
4235.12
4324.58
4416.89
4511.77
4609.36
4710.02
4812.33
4916.85
5028.11
5168.48
5296.33
5423.73
5553.66
5686.09
5821.02
5958.77
6099.41
6242.56
6388.43
6536.76
6686.84
6838.39
6991.13
7144.87
7298.7
7452.56
7605.79
7757.52
7907.14
8054.11
8196.98
8334.61
8465.09
8579.16
8662.99
8719.77
8750.94
8756.35
8734.23
8682.99
8600.15
8481.67
8322.92
8119.57
7867.03
7559.07
7188.91
6751.39
6239.85
5597.82
4688.46
4285.82
4086.22
4007.83
3967.65
3880.95
1055.4
1058.37
1061.55
1064.8
1068.15
1071.75
1075.9
1080.45
1085.49
1090.81
1096.61
1100.1
1101.7
1104.91
1108.79
1114.15
1119.62
1125.04
1130.58
1136.37
1142.44
1148.81
1155.46
1162.39
1169.58
1177.01
1184.72
1192.73
1201.08
1209.84
1219.04
1228.75
1239.1
1250.19
1262.16
1275.24
1289.6
1305.61
1325.34
1355.69
1392.37
1431.66
1474.21
1520.15
1570.15
1624.55
1683.42
1747.04
1815.66
1888.84
1965.67
2044.53
2123.99
2202.62
2272.8
2339.31
2401.51
2490.15
2596.4
2702.45
2646.74
590.179
586.866
583.524
580.168
576.761
573.387
570.129
567.031
564.003
560.95
557.388
551.906
546.228
541.354
536.992
533.253
529.598
525.84
522.02
518.191
514.394
510.626
506.881
503.159
499.456
495.768
492.106
488.473
484.889
481.35
477.879
474.496
471.213
468.075
465.11
462.367
459.891
457.756
456.133
455.475
455.993
460.951
469.638
481.656
497.474
517.756
543.226
574.91
613.803
660.978
717.442
783.995
861.886
951.424
1052.34
1161.17
1269.9
1389.39
1536.35
1726.31
1911.53
426.134
422.122
418.114
414.094
410.034
405.981
401.984
398.093
394.184
390.188
385.359
379.545
373.976
368.939
364.29
359.993
355.802
351.625
347.442
343.283
339.148
335.019
330.905
326.81
322.729
318.672
314.641
310.637
306.66
302.713
298.798
294.921
291.094
287.325
283.627
280.017
276.515
273.139
269.916
266.906
264.189
262.083
261.306
262.203
264.688
269.111
275.937
285.827
299.63
318.376
343.48
376.267
418.394
470.954
534.541
607.137
684.872
769.473
869.531
998.923
1159.44
336.367
332.561
328.78
324.981
321.119
317.264
313.433
309.69
305.922
302.051
297.388
292.261
287.446
283.033
278.872
274.948
271.121
267.384
263.699
260.077
256.494
252.9
249.326
245.78
242.249
238.748
235.276
231.832
228.409
225.009
221.631
218.282
214.966
211.694
208.474
205.316
202.23
199.228
196.319
193.519
190.855
188.389
186.256
184.813
184.146
184.292
185.476
188.001
192.302
198.922
208.66
222.526
241.72
267.496
300.84
341.852
389.189
442.479
504.132
579.869
675.823
272.597
269.177
265.79
262.405
258.885
255.374
251.861
248.469
245.056
241.583
237.411
233.069
229.016
225.311
221.747
218.349
215.01
211.818
208.712
205.705
202.745
199.747
196.785
193.868
190.962
188.098
185.253
182.441
179.634
176.843
174.061
171.307
168.579
165.894
163.252
160.667
158.144
155.693
153.315
151.021
148.824
146.746
144.824
143.148
141.955
141.145
140.838
141.155
142.304
144.559
148.291
154.026
162.436
174.291
190.46
211.501
237.549
268.697
305.611
350.006
405.016
220.297
217.307
214.364
211.471
208.325
205.212
202.041
199.073
196.091
193.142
189.52
185.92
182.55
179.546
176.563
173.722
170.868
168.233
165.687
163.259
160.884
158.412
156.021
153.72
151.411
149.156
146.894
144.675
142.429
140.198
137.955
135.752
133.573
131.446
129.356
127.328
125.352
123.446
121.603
119.841
118.159
116.581
115.114
113.792
112.679
111.912
111.407
111.227
111.473
112.279
113.83
116.378
120.24
125.847
133.671
144.203
157.861
174.977
196.028
221.816
253.64
174.664
172.106
169.634
167.312
164.562
161.884
159.051
156.565
154.063
151.714
148.618
145.679
142.891
140.553
138.086
135.801
133.383
131.291
129.261
127.336
125.475
123.424
121.537
119.847
118.084
116.367
114.592
112.903
111.121
109.361
107.554
105.839
104.137
102.525
100.927
99.4042
97.9068
96.4867
95.1227
93.8524
92.6533
91.5616
90.5779
89.6978
88.9519
88.4406
88.1214
87.9854
88.0965
88.5249
89.3669
90.7433
92.8219
95.7978
99.9188
105.469
112.747
122.09
133.868
148.59
166.923
134.696
132.501
130.522
128.853
126.494
124.277
121.737
119.816
117.826
116.109
113.483
111.11
108.763
107.065
104.996
103.276
101.198
99.6559
98.0755
96.5083
95.0759
93.2996
91.8607
90.87
89.5537
88.2166
86.7732
85.5679
84.087
82.6782
81.1393
79.8823
78.5686
77.4338
76.2209
75.128
73.95
72.9072
71.9306
71.0841
70.3143
69.6443
69.094
68.6312
68.2057
67.8854
67.7466
67.7148
67.8987
68.2206
68.9157
69.9027
71.3866
73.3271
75.9346
79.2453
83.5455
88.9299
95.7875
104.391
115.09
3735.2
3575.71
3404.72
3225.49
3046.95
2874.37
2711.17
2561.8
2429.91
2317.48
2224.84
2150.88
2093.94
2051.76
2021.63
2000.98
1987.66
1980.13
1976.97
1976.99
1979.55
1984.06
1990.12
1997.59
2006.5
2016.58
2027.81
2040.18
2053.75
2068.41
2084.12
2100.82
2118.4
2136.62
2155.38
2174.38
2193.3
2211.86
2229.84
2246.91
2262.61
2276.69
2289
2299.32
2307.72
2314.47
2319.67
2323.58
2326.78
2330.06
2333.8
2338.23
2343.92
2351.07
2359.38
2368.55
2378.28
2388.55
2398.33
2406.7
2413.18
2453.78
2250.21
2050.91
1861.07
1693.96
1539.55
1396.72
1266.51
1149.09
1045.37
955.438
878.768
814.351
760.742
717.728
684.486
658.979
639.346
624.106
612.196
602.873
595.567
589.963
585.634
582.61
580.604
579.601
579.571
580.487
582.347
585.165
588.928
593.634
599.256
605.744
613.027
620.989
629.527
638.485
647.667
656.808
665.57
673.526
680.215
685.203
688.062
688.422
686.109
681.226
674.161
665.529
656.168
647.051
639.027
632.493
627.799
624.61
622.452
620.103
616.568
611.491
1994.61
1978.34
1873.61
1698.94
1519.84
1346.21
1177.16
1024.34
887.669
766.724
662.479
574.354
501.191
441.706
394.995
359.2
331.503
309.611
292.287
278.688
267.993
259.543
252.807
247.441
243.087
239.6
236.813
234.662
233.086
232.051
231.532
231.526
232.014
232.965
234.355
236.148
238.307
240.789
243.538
246.479
249.519
252.552
255.453
258.054
260.188
261.649
262.232
261.749
260.086
257.189
253.154
248.302
243.108
238.189
234.072
231.353
230.287
230.853
232.646
235.234
238.305
1325.82
1472.65
1568.46
1582.85
1512.19
1386.05
1216.8
1047.29
890.585
746.138
620.718
515.722
429.211
359.972
305.699
263.512
230.715
204.815
184.486
168.675
156.455
147.054
139.819
134.209
129.798
126.281
123.46
121.199
119.405
118.01
116.975
116.275
115.884
115.764
115.879
116.193
116.671
117.276
117.966
118.694
119.408
120.056
120.578
120.915
121.009
120.802
120.247
119.306
117.969
116.234
114.136
111.789
109.385
107.2
105.571
104.997
105.918
108.525
112.771
118.626
126.08
793.162
929.33
1073.08
1200.23
1281.12
1298.47
1247.63
1141.6
1005.01
850.354
704.109
578.398
470.355
382.297
312.453
257.182
213.892
180.039
153.602
133.171
117.571
105.826
97.0527
90.4724
85.4698
81.6013
78.578
76.2004
74.3316
72.8653
71.7404
70.9213
70.3696
70.0414
69.8956
69.8944
70.0016
70.1809
70.396
70.607
70.7715
70.8491
70.8006
70.589
70.1811
69.5522
68.6928
67.6049
66.2949
64.7913
63.1432
61.4376
59.8231
58.5027
57.7859
57.9641
59.5964
63.1
68.7957
76.7163
86.6954
473.728
559.29
662.644
779.665
898.033
999.85
1064.89
1077.87
1036.83
949.715
833.577
707.45
580.161
469.434
378.803
303.951
244.721
197.852
160.546
131.748
110.022
94.0005
82.3404
73.8246
67.517
62.7618
59.1405
56.3672
54.2399
52.5969
51.3459
50.433
49.8068
49.4121
49.2008
49.1317
49.1657
49.2678
49.4028
49.5341
49.6234
49.6379
49.5435
49.3119
48.9141
48.3345
47.5682
46.6249
45.5115
44.2546
42.8966
41.5135
40.2254
39.208
38.7327
39.1797
41.0361
44.8218
50.9651
59.638
70.7683
293.251
342.921
405.012
481.016
569.985
667.17
762.525
841.838
890.727
898.703
863.651
792.913
698.48
594.388
492.323
395.802
316.352
251.396
197.243
154.899
122.798
99.4353
82.8108
70.9256
62.3015
55.9188
51.1551
47.5903
44.9233
42.8982
41.3726
40.2624
39.4972
39.0027
38.719
38.5965
38.5914
38.6671
38.7876
38.9174
39.0193
39.0668
39.0264
38.8747
38.5806
38.136
37.534
36.7882
35.8985
34.8938
33.8074
32.7084
31.7012
30.9348
30.6508
31.2344
33.1497
36.9996
43.3465
52.5043
64.4871
189.837
218.563
254.681
299.831
355.355
421.494
496.512
575.4
650.194
710.129
744.689
747.515
718.727
662.747
588.319
503.648
418.725
338.632
263.258
202.532
154.502
119.667
95.3326
78.1346
65.7389
56.6287
49.9071
44.9857
41.3994
38.714
36.7112
35.2511
34.238
33.5643
33.1518
32.9356
32.8634
32.8935
32.9876
33.1089
33.2194
33.2992
33.3137
33.2432
33.0505
32.7355
32.2853
31.7193
31.0293
30.2459
29.3961
28.5461
27.788
27.2539
27.1709
27.8922
29.8918
33.8369
40.3967
50.0222
62.7995
128.562
145.334
166.355
192.896
226.028
266.805
315.627
372
433.458
495.97
551.671
594.485
618.026
619.499
597.244
553.445
494.018
423.087
349.759
275.147
205.837
155.752
120.866
95.9939
77.6613
64.1609
54.222
47.0842
41.9941
38.221
35.4447
33.408
31.9881
31.0211
30.397
30.0234
29.8346
29.7781
29.8132
29.8946
29.9878
30.0771
30.1264
30.1163
30.0061
29.7975
29.4782
29.064
28.5461
27.95
27.3059
26.6754
26.15
25.8477
25.9786
26.8835
29.0371
33.1413
39.926
49.9791
63.4011
1.53693
215.673
192.786
2.29147
2.2138
0.203108
0.000719899
92.0464
0.000796356
0.0146688
94.1764
7.02108
0.000720803
247.444
0.166271
133.075
0.000757391
93.4774
118.735
0.000716204
2.29081
236.054
203.99
0.000766958
0.000781098
0.208692
0.000717312
7.94087
0.000753161
0.000819693
6.40897
0.00074309
0.00876914
63.8034
4.00817
112.556
72.0383
15.6747
0.000723241
44.5966
64.8147
28.9235
0.000743324
100.916
174.812
0.717668
0.0008691
0.00862587
1.31816
7.24682
373.507
358.022
0.000698529
0.00102937
0.0634352
0.0355845
0.000816801
9.14822
58.9802
285.64
140.661
0.000905825
1.53426
0.0249208
202.218
2.38094
38.7507
64.675
0.00113212
0.000747677
9.7756
39.7968
55.8732
0.0376768
0.0514905
79.3112
232.125
54.222
0.000700233
5.50916
0.00234012
47.2948
0.0128584
107.09
0.000749935
8.55274
0.000791061
36.8087
0.0110774
0.00136677
0.228938
0.000698555
0.000933635
309.611
143.75
0.000867161
1.58978
1.83927
0.00184744
206.713
1.01701
31.9258
5.70788
0.000696977
0.000725944
0.00069433
1.38095
0.209661
0.000747995
173.597
222.324
0.00477422
237.973
26.6985
115.828
53.6627
28.3011
0.000977493
0.110383
0.00110537
0.00162189
191.855
0.00308532
287.643
417.788
28.7966
0.000746033
7.05401
6.94571
0.000743941
0.0299194
0.0267873
92.263
0.00187101
62.8976
0.000748858
0.000723793
396.917
353.114
0.00074883
0.756494
149.313
0.228609
0.910169
26.6853
119.809
0.303449
27.6281
0.00525492
279.994
11.1418
0.038177
47.6452
104.737
189.028
0.000765967
0.000757181
0.511662
0.000696038
41.4236
0.115779
0.00144866
0.00074042
0.000747499
0.00075857
39.6348
71.4173
34.3355
0.000768664
288.752
308.746
405.447
166.061
0.00692252
159.515
43.2768
28.2621
0.000750056
0.0016959
194.296
67.9595
29.7179
71.9916
0.000745374
0.000841916
241.67
0.0294816
2.50019
0.000757825
0.00086719
0.172462
0.000797766
335.685
3.89534
0.000691676
0.678368
91.4832
144.106
0.00119768
52.7203
0.000746641
0.000750214
107.226
31.6859
305.869
0.00121465
0.000800602
0.00286107
40.6954
76.7924
9.60839
124.615
14.3333
231.485
0.814718
83.827
81.08
27.3658
10.7446
39.1755
0.00144198
0.0293392
0.000747683
0.000726556
28.4021
0.00999648
0.011718
0.00197837
0.00628313
45.827
197.644
0.0111267
173.169
7.45121
2.96257
0.000732456
0.534161
37.3547
7.16289
0.00106322
13.1363
36.2367
0.864346
2.48539
271.048
7.32143
5.04889
120.37
0.000955059
0.000724113
0.00102654
0.00428434
28.7381
0.0007845
0.00249465
0.000723639
1.71152
75.6387
76.1396
49.0756
12.1147
11.3993
325.88
0.0011399
48.1826
98.7277
0.000743917
81.9243
0.000749607
329.236
1.70933
50.9705
0.00154725
0.000748504
20.0694
7.74282
0.000759626
0.000750567
0.000755361
0.000751478
1.19102
35.6496
43.1907
0.0108671
0.000760435
0.000724408
0.000696069
101.585
1.15929
0.00119013
18.6042
0.116347
0.0957693
0.000692355
0.780757
0.000760156
0.109976
47.6879
276.52
3.18022
0.000978024
0.00184727
54.8659
0.352221
130.829
322.994
0.00083806
0.000739921
0.000733978
153.583
0.000773561
136.516
0.000749848
24.2871
12.3813
0.0242376
140.46
240.142
0.00127154
49.916
50.3598
89.6536
90.6924
9.73116
351.1
38.6241
71.3869
142.034
92.8425
56.0729
0.337
339.14
280.337
62.5657
33.5243
0.00100228
273.046
125.401
228.202
0.0187854
0.000867316
0.000745777
0.000811584
0.692827
1.56999
6.36053
0.124555
0.000726292
170.182
0.000746388
26.6788
22.7668
191.144
42.0709
18.2645
0.00193004
0.00110607
0.462193
85.238
0.0043638
7.99272
261.9
36.0016
81.4511
196.014
61.3553
0.000821263
283.041
142.831
96.8418
0.000750481
194.553
152.042
0.000781427
30.5092
0.000751614
400.508
172.048
28.0946
79.0757
113.575
148.335
0.000764658
147.29
0.000964689
68.369
78.7324
28.2869
279.273
3.65225
0.493566
2.5849
0.00109991
441.004
1.48909
0.0029028
0.00182756
258.984
0.000953134
89.7929
0.00073759
0.000750005
0.00183739
30.8309
0.191768
21.0267
0.00197781
81.1464
0.307976
221.536
280.425
37.0691
343.211
0.000793822
278.924
41.363
0.000742267
76.2425
24.7854
0.000696675
0.000727435
116.286
0.00206157
26.8378
0.459265
75.3775
0.0176773
3.34757
38.5346
120.318
31.7381
83.3813
68.1416
0.00100209
0.0338192
28.7825
21.8099
331.141
344.85
143.264
0.0842285
122.965
121.928
3.29077
92.4449
44.9854
25.093
0.000822662
81.7404
385.912
0.00107573
90.6258
19.0118
45.6416
0.0153001
0.0889574
270.406
0.00193265
327.296
0.00124626
1.83356
0.000738013
7.68027
168.841
0.556022
0.00132065
0.000902559
75.1459
26.8486
0.3666
5.55626
297.007
543.699
0.00139497
11.6263
27.2804
71.507
26.2122
449.91
28.8128
153.733
50.5495
3.48074
7.17479
302.197
53.9043
354.658
170.341
0.241148
175.103
59.6729
0.000791956
93.143
29.0559
13.143
0.00978497
96.5792
45.1302
4.02105
52.8723
0.00159212
0.000747178
0.154306
28.5771
108.02
73.1913
0.000750209
0.000731272
0.00074387
28.2731
0.0279355
0.000745737
0.244183
94.1958
276.001
0.00440095
0.004529
0.000721513
0.000738729
0.00194192
28.8192
100.983
21.423
1.89429
299.792
388.77
0.00151016
62.562
27.9071
28.4705
73.4789
440.144
0.000821755
0.00445879
0.000750898
397.676
0.763319
0.000726894
10.5088
0.350511
302.383
0.000759334
327.066
8.52046
0.0660392
201.07
0.000748085
0.000736441
0.00102737
406.55
51.6836
129.011
323.673
10.9499
28.6355
0.000708817
0.00184491
0.464165
0.0152404
0.0163321
178.002
41.0002
0.000747851
25.5858
45.1378
184.668
409.055
0.00294462
412.186
0.00182609
0.0217805
148.525
0.000739256
143.37
0.000759584
0.000791519
0.0212049
34.3415
2.94515
323.765
61.5748
0.000886173
28.4841
500.869
0.209466
2.2135
7.43557
0.000774721
0.000759612
0.00230702
132.219
5.54947
0.000783474
271.606
280.743
215.83
0.11046
59.8282
0.00109001
29.1801
0.544014
0.130558
122.444
29.7284
150.682
172.549
0.000761028
0.000711607
0.00494607
72.9852
103.316
5.91091
0.00657837
0.000772622
0.000749915
0.00343923
0.128106
0.00211306
72.5591
21.402
0.00498506
26.3775
172.353
0.000760512
38.1617
0.000742588
3.24634
0.000762491
0.0132239
38.0943
0.0116378
0.000744595
4.05532
366.416
266.063
0.000731037
0.000748405
1.52183
0.138057
0.000747742
99.9915
0.000905182
31.9418
379.113
29.3298
88.4482
296.271
132.446
336.059
0.000747593
0.00250261
0.0110973
292.249
60.935
201.473
5.46237
4.37072
99.5262
167.418
128.503
4.89765
47.0785
0.000750543
1.48668
39.5683
32.5967
309.832
26.9959
1.13399
39.7269
0.202683
0.00990156
39.9004
0.000750999
175.521
0.000887294
2.73196
292.683
186.55
2.94089
0.00250942
6.93573
0.000768712
0.000736234
0.19773
0.0134727
50.5062
0.00874156
28.6968
0.000750519
0.0190129
0.000725462
93.3527
0.00182052
85.8532
301.841
0.0142808
167.922
377.876
0.000756992
98.7951
224.789
0.000785594
287.048
0.27105
0.000825142
0.000791522
284.944
0.000731613
0.00111848
0.121697
0.213933
435.656
270.332
0.000751496
0.000754557
9.13398
26.9687
0.0070894
2.35055
21.942
0.000747674
0.000953756
0.000912641
167.064
270.579
3.33215
299.133
0.0171312
26.6465
0.000772106
0.00717498
0.0159892
0.0434514
0.000749673
300.273
0.00074193
0.0160577
0.000771708
1.32371
0.0147777
0.0393481
2.48601
4.93073
34.9803
2.1569
9.07534
27.9228
189.752
0.000816247
165.447
327.434
12.2766
73.2476
0.000761746
267.816
79.6763
0.000745641
414.843
66.1256
0.00619393
0.024208
158.696
156.847
0.220204
316.348
413.271
4.44544
434.992
265.953
124.22
50.5614
21.3327
28.6327
265.106
292.917
0.0142481
312.992
41.8322
404.507
0.000813345
1.54155
2.80063
223.505
165.218
0.011827
444.838
193.149
7.04865
0.0547761
2.76079
28.1267
0.00154649
28.2696
444.083
0.0293399
219.672
13.8379
91.5503
188.857
0.000746047
0.00167917
7.26831
5.13701
0.0133247
0.000748304
0.832279
1.8378
0.00120824
0.000758695
269.132
6.86818
52.0053
10.3015
0.00314399
0.00107511
0.412782
87.4265
0.000823854
20.9098
29.8319
1.85704
166.191
0.00100493
0.39959
0.000740602
1.79509
84.4213
0.00162211
0.185215
40.8973
169.082
0.503177
92.3229
5.05866
0.907608
0.000987512
32.0116
335.299
0.000744068
0.000755775
146.675
0.0157847
0.000758245
71.567
2.12787
163.946
29.6306
38.2034
0.310161
17.0608
203.191
165.12
246.203
0.000763215
276.989
0.000969332
38.0536
0.000796983
0.0014675
45.0579
0.0020963
255.002
0.012193
0.032278
45.2417
7.69534
0.569504
0.000897054
185.532
0.000886632
0.000719233
346.619
160.94
39.914
28.6873
0.000813678
0.000683569
18.9638
147.608
0.000732414
221.931
37.1554
0.000752883
166.309
0.000702656
3.40954
6.37152
10.7014
1.48504
76.4961
21.1827
0.000700891
269.974
331.824
0.000744506
0.0133567
28.9238
0.00070898
237.163
160.987
403.568
0.000745541
0.000727846
202.697
0.0967318
0.000836744
30.4536
80.5631
257.226
0.000720901
0.000793907
0.0157568
0.0116314
0.000746824
0.00203112
122.608
50.6875
0.000746651
12.8846
0.000747042
10.1722
0.00109081
0.000866877
26.3226
0.000748639
0.344934
0.000730515
49.0641
2.11373
19.668
183.135
360.82
148.026
5.05139
14.899
0.000758249
5.6504
277.765
529.485
0.156179
0.000826543
127.77
0.000746083
0.116245
0.000720593
444.992
15.2254
3.18315
197.639
51.5315
5.03708
77.8646
7.75323
221.757
109.97
0.000773744
0.000756177
0.00308732
0.000737212
0.0140324
100.393
0.00093203
252.808
0.00186664
0.299176
2.96226
153.123
0.00135968
40.4262
0.0135933
56.7991
29.4176
440.689
0.000796003
0.000954937
1.4284
82.3045
65.3723
63.7253
1.89164
7.97978
19.7782
0.0625785
10.4266
1.77721
30.1825
0.000756573
392.163
1.44034
54.2733
0.000787903
51.4769
16.3797
0.00184857
88.8713
17.14
0.0842311
0.00071517
0.000746019
204.2
46.5186
14.9843
0.000737815
0.00952719
50.5027
185.465
3.44255
0.00584804
0.000735702
148.391
129.355
35.8509
34.4558
0.000743623
101.324
438.307
0.000746914
0.000749291
18.2461
0.00126369
0.00386608
0.229056
47.0981
0.00105192
36.3328
345.184
0.000731881
0.000821501
0.000727449
0.000769886
64.3445
515.706
337.748
0.0205684
32.847
47.1848
0.132812
43.0851
0.000824334
31.3525
0.533061
30.5166
5.06693
82.1225
101.195
0.146621
0.00075914
157.751
84.8868
282.759
5.67238
29.8827
0.519051
20.5927
0.00353198
0.00133369
152.442
142.306
0.0338551
1.22932
0.000753978
0.0991659
19.2492
0.0280509
13.6022
4.34219
387.501
36.8201
1.74932
277.211
136.254
56.373
15.1694
201.269
188.264
3.10207
37.2859
0.0036031
45.8722
44.2788
0.000743456
0.000711073
0.3471
0.000748449
0.000775393
57.3731
298.761
0.000744597
83.8586
0.000744943
0.000736796
0.000740801
0.000752836
0.00181396
29.5949
45.3323
249.098
0.000718798
0.00106427
6.52455
0.000854959
0.0283304
0.000762783
0.000866105
167.042
0.000982899
0.00466155
183.69
0.00425476
0.000749449
187.623
0.000745373
0.000760514
1.49138
0.000870495
6.56103
0.00123893
0.0239728
0.000743843
0.0007535
304.101
423.685
43.8073
0.0237907
108.901
15.4177
0.00130187
27.663
308.93
232.993
476.291
0.000700969
27.4354
54.7198
0.261466
28.5585
101.069
0.35169
31.623
1.04979
28.4691
0.290429
7.37457
0.00075762
223.124
0.000757425
28.7163
30.9919
0.000747868
0.921238
0.002454
0.0291256
0.000726477
3.91447
0.000893565
0.000741863
40.2694
0.0362554
0.164881
228.379
152.099
0.000819048
0.000968144
29.2774
261.271
0.000690524
0.00075395
0.197541
23.9553
143.042
0.00209641
15.3756
0.000745431
0.000818126
0.000718498
0.0278214
24.0357
0.00409139
275.721
29.724
259.362
172.487
0.000842951
303.604
64.2141
0.000732721
0.000754064
0.000750338
0.00115929
0.00074021
123.805
0.000745392
0.000750367
354.905
1.18181
0.00267445
0.0347427
57.8937
7.29112
0.00783431
0.000823894
184.749
0.000762692
6.77932
0.000754947
0.000845455
162.778
166.951
0.00333947
0.000835304
3.92811
0.000744255
373.059
0.000753001
152.345
0.0271914
8.5346
0.117547
3.20401
1.98382
29.6707
0.000760953
0.000859838
0.00488792
60.5059
0.288283
303.631
0.000747055
0.0012426
0.00163971
257.216
59.978
273.983
0.00226086
0.00350906
0.812486
0.000751314
19.5994
36.7587
0.00874936
270.982
176.984
41.6365
0.00154583
1.42877
171.092
226.178
27.9371
0.0105724
120.519
0.537825
134.686
0.143518
2.2664
43.0031
0.000761953
28.4866
0.00122378
0.00508615
0.0062188
0.0477322
0.000906819
10.8323
0.000745928
46.3543
0.132259
0.000867422
1.60392
0.000756578
0.764689
0.22583
40.3238
3.79722
92.5058
0.790509
0.000748391
0.000732208
4.69216
0.158503
41.5021
262.463