/*--------------------------------*- C++ -*----------------------------------*\
| =========                 |                                                 |
| \\      /  F ield         | OpenFOAM: The Open Source CFD Toolbox           |
|  \\    /   O peration     | Version:  2.3.1                                 |
|   \\  /    A nd           | Web:      www.OpenFOAM.org                      |
|    \\/     M anipulation  |                                                 |
\*---------------------------------------------------------------------------*/
FoamFile
{
    version     2.0;
    format      ascii;
    class       volScalarField;
    location    "0.94";
    object      p;
}
// * * * * * * * * * * * * * * * * * * * * * * * * * * * * * * * * * * * * * //

dimensions      [0 2 -2 0 0 0 0];

internalField   nonuniform List<scalar> 
9648
(
0.161046
-0.0641291
-0.341858
-0.69776
-1.13367
-1.65824
-2.2829
-3.016
-3.86614
-4.85111
-5.98214
-7.2723
-8.73433
-10.3791
-12.2159
-14.2548
-16.5039
-18.9719
-21.662
-24.5786
-27.7266
-31.1024
-34.7056
-38.5314
-42.5752
-46.8275
-51.2772
-55.9154
-60.7244
-65.6952
-70.807
-76.0444
-81.3918
-86.8243
-92.3305
-97.8823
-103.466
-109.062
-114.645
-120.194
-125.686
-131.114
-136.438
-141.649
-146.736
-151.666
-156.428
-161.004
-165.4
-169.578
-173.508
-177.192
-180.634
-183.801
-186.698
-189.308
-191.619
-193.637
-195.339
-196.738
-197.82
0.758571
0.524855
0.237396
-0.11642
-0.544463
-1.05116
-1.64907
-2.35255
-3.17321
-4.12053
-5.20579
-6.44096
-7.83724
-9.40513
-11.1545
-13.0942
-15.2322
-17.5753
-20.1281
-22.8948
-25.8781
-29.0775
-32.4913
-36.1153
-39.9442
-43.9698
-48.1825
-52.5719
-57.1246
-61.8281
-66.6658
-71.622
-76.6806
-81.8221
-87.0298
-92.2832
-97.5655
-102.857
-108.136
-113.384
-118.58
-123.708
-128.742
-133.668
-138.467
-143.119
-147.608
-151.915
-156.029
-159.946
-163.651
-167.128
-170.365
-173.353
-176.075
-178.528
-180.694
-182.584
-184.174
-185.468
-186.448
0.5902
0.368416
0.10288
-0.219886
-0.608516
-1.07936
-1.63983
-2.30188
-3.07608
-3.97586
-5.0118
-6.19601
-7.53928
-9.05161
-10.7428
-12.6212
-14.6946
-16.9691
-19.4495
-22.1395
-25.0415
-28.1555
-31.4797
-35.01
-38.7407
-42.6638
-46.7704
-51.05
-55.4901
-60.0777
-64.7975
-69.6335
-74.5698
-79.5887
-84.6722
-89.8019
-94.96
-100.128
-105.285
-110.413
-115.492
-120.504
-125.427
-130.246
-134.943
-139.498
-143.896
-148.121
-152.156
-155.99
-159.613
-163.011
-166.181
-169.098
-171.766
-174.166
-176.305
-178.15
-179.713
-180.988
-181.984
0.836617
0.606504
0.337047
0.0158317
-0.366765
-0.82204
-1.36094
-1.99496
-2.73573
-3.59572
-4.58692
-5.72089
-7.00828
-8.45902
-10.0832
-11.8887
-13.8829
-16.0718
-18.4593
-21.0495
-23.8445
-26.844
-30.0465
-33.4474
-37.0409
-40.8192
-44.7733
-48.8937
-53.168
-57.5833
-62.1254
-66.7782
-71.5262
-76.3534
-81.2418
-86.1733
-91.1316
-96.0975
-101.053
-105.98
-110.86
-115.673
-120.4
-125.025
-129.53
-133.897
-138.113
-142.16
-146.027
-149.699
-153.167
-156.418
-159.446
-162.236
-164.778
-167.065
-169.09
-170.842
-172.319
-173.515
-174.43
0.903162
0.708617
0.470294
0.178814
-0.173811
-0.597399
-1.10206
-1.69854
-2.39914
-3.21497
-4.15878
-5.24071
-6.47167
-7.86054
-9.41825
-11.1515
-13.0674
-15.1719
-17.4676
-19.959
-22.6485
-25.5348
-28.6178
-31.8911
-35.3494
-38.9849
-42.7883
-46.7518
-50.8626
-55.1084
-59.4761
-63.9484
-68.5116
-73.1512
-77.8484
-82.5861
-87.3498
-92.1195
-96.8792
-101.613
-106.3
-110.923
-115.462
-119.902
-124.226
-128.417
-132.461
-136.343
-140.05
-143.57
-146.892
-150.008
-152.909
-155.584
-158.021
-160.212
-162.145
-163.819
-165.232
-166.376
-167.249
0.998744
0.822323
0.605219
0.337567
0.0123357
-0.381204
-0.852566
-1.41239
-2.07366
-2.84617
-3.74392
-4.77514
-5.95151
-7.27908
-8.77188
-10.434
-12.2724
-14.2932
-16.4963
-18.8879
-21.4713
-24.2426
-27.2055
-30.3494
-33.67
-37.1597
-40.8075
-44.6102
-48.5525
-52.6229
-56.8109
-61.0957
-65.466
-69.9107
-74.4087
-78.943
-83.5032
-88.0668
-92.6206
-97.1509
-101.637
-106.059
-110.399
-114.644
-118.776
-122.779
-126.641
-130.344
-133.88
-137.235
-140.403
-143.371
-146.134
-148.685
-151.008
-153.09
-154.923
-156.507
-157.843
-158.924
-159.744
1.09594
0.937584
0.740904
0.49562
0.196473
-0.168577
-0.60833
-1.13232
-1.75572
-2.4857
-3.33928
-4.32154
-5.44552
-6.71173
-8.14114
-9.73259
-11.4929
-13.4309
-15.5405
-17.8296
-20.3064
-22.9597
-25.8024
-28.8162
-31.9962
-35.3379
-38.824
-42.4626
-46.2325
-50.121
-54.1271
-58.22
-62.3879
-66.632
-70.9273
-75.2496
-79.6
-83.9505
-88.2894
-92.6112
-96.8901
-101.109
-105.24
-109.282
-113.216
-117.024
-120.697
-124.214
-127.571
-130.754
-133.762
-136.573
-139.191
-141.613
-143.82
-145.792
-147.519
-149.002
-150.258
-151.276
-152.041
1.18805
1.0485
0.874453
0.650489
0.378253
0.0405373
-0.369867
-0.855712
-1.44409
-2.12942
-2.94313
-3.8762
-4.95653
-6.15364
-7.5225
-9.04546
-10.7235
-12.5855
-14.6009
-16.777
-19.1563
-21.6789
-24.4096
-27.2951
-30.3253
-33.5265
-36.8341
-40.3073
-43.908
-47.5992
-51.4348
-55.3342
-59.2752
-63.3185
-67.4262
-71.5081
-75.6487
-79.7839
-83.8891
-88.0085
-92.0706
-96.0944
-99.9941
-103.822
-107.57
-111.167
-114.66
-117.971
-121.151
-124.143
-126.998
-129.632
-132.087
-134.387
-136.49
-138.335
-139.957
-141.316
-142.491
-143.461
-144.161
1.28134
1.15055
1.01543
0.796422
0.562634
0.241175
-0.146339
-0.565967
-1.15132
-1.75701
-2.56744
-3.41989
-4.51161
-5.57273
-6.92194
-8.39459
-9.94798
-11.779
-13.6796
-15.7098
-18.0719
-20.3805
-23.0631
-25.7962
-28.6544
-31.7912
-34.8386
-38.1794
-41.6486
-45.0666
-48.801
-52.4797
-56.154
-60.047
-64.0151
-67.6865
-71.7209
-75.6399
-79.4562
-83.4303
-87.2031
-91.1044
-94.6926
-98.3782
-101.992
-105.266
-108.682
-111.681
-114.75
-117.441
-120.207
-122.564
-124.879
-127.135
-129.116
-130.772
-132.383
-133.521
-134.69
-135.614
-136.182
-198.563
-198.985
-199.089
-198.863
-198.33
-197.479
-196.313
-194.83
-193.023
-190.92
-188.495
-185.765
-182.765
-179.499
-175.959
-172.158
-168.103
-163.821
-159.306
-154.569
-149.646
-144.522
-139.221
-133.756
-128.154
-122.422
-116.544
-110.559
-104.47
-98.3113
-92.0837
-85.8073
-79.5039
-73.1736
-66.8446
-60.519
-54.2202
-47.9601
-41.7469
-35.5975
-29.5234
-23.5479
-17.6683
-11.905
-6.27187
-0.771388
4.58071
9.77623
14.8002
19.6458
24.3082
28.7766
33.04
37.0971
40.9372
44.5555
47.9466
51.1055
54.0316
56.7206
59.1723
-187.117
-187.461
-187.53
-187.294
-186.759
-185.933
-184.805
-183.381
-181.648
-179.62
-177.294
-174.68
-171.819
-168.711
-165.345
-161.725
-157.865
-153.779
-149.471
-144.957
-140.252
-135.362
-130.301
-125.081
-119.716
-114.217
-108.616
-102.915
-97.1205
-91.2507
-85.318
-79.3379
-73.3254
-67.2926
-61.2556
-55.2239
-49.2134
-43.238
-37.3092
-31.4395
-25.6423
-19.9333
-14.3199
-8.8154
-3.43223
1.82269
6.93813
11.9036
16.7073
21.3421
25.8013
30.0758
34.1564
38.0399
41.717
45.1832
48.4314
51.4595
54.2645
56.8433
59.195
-182.683
-183.103
-183.185
-182.961
-182.45
-181.664
-180.547
-179.139
-177.406
-175.382
-173.092
-170.535
-167.698
-164.593
-161.24
-157.65
-153.83
-149.794
-145.548
-141.106
-136.481
-131.681
-126.717
-121.602
-116.345
-110.958
-105.46
-99.8643
-94.182
-88.4274
-82.6139
-76.7566
-70.869
-64.9651
-59.0577
-53.1586
-47.2808
-41.4374
-35.6409
-29.9041
-24.2399
-18.6615
-13.1788
-7.80362
-2.54634
2.58453
7.57829
12.4247
17.1135
21.6377
25.9886
30.1594
34.142
37.932
41.5212
44.9047
48.0769
51.0341
53.7738
56.2928
58.5912
-175.06
-175.412
-175.465
-175.226
-174.686
-173.828
-172.697
-171.338
-169.722
-167.833
-165.661
-163.226
-160.526
-157.571
-154.37
-150.933
-147.27
-143.391
-139.309
-135.035
-130.582
-125.961
-121.18
-116.252
-111.187
-105.997
-100.698
-95.302
-89.8227
-84.2721
-78.6632
-73.0113
-67.3299
-61.6331
-55.9317
-50.2379
-44.5635
-38.9204
-33.3222
-27.781
-22.3092
-16.9196
-11.6225
-6.42883
-1.34821
3.61155
8.43914
13.1253
17.659
22.0351
26.2441
30.2789
34.1339
37.803
41.2806
44.559
47.6353
50.5033
53.1617
55.6068
57.8397
-167.847
-168.171
-168.217
-167.986
-167.472
-166.678
-165.63
-164.256
-162.637
-160.769
-158.645
-156.269
-153.646
-150.783
-147.688
-144.365
-140.824
-137.075
-133.129
-129.001
-124.702
-120.242
-115.63
-110.874
-105.986
-100.979
-95.8664
-90.6621
-85.3773
-80.0242
-74.6133
-69.162
-63.6827
-58.1911
-52.6948
-47.2059
-41.7347
-36.2925
-30.8938
-25.5497
-20.2722
-15.0745
-9.96613
-4.95783
-0.0588228
4.72623
9.38192
13.9033
18.2761
22.4984
26.5598
30.4528
34.1737
37.7151
41.0749
44.2425
47.2176
49.9897
52.5618
54.9273
57.0896
-160.3
-160.59
-160.612
-160.366
-159.851
-159.074
-158.035
-156.727
-155.162
-153.352
-151.298
-149.001
-146.465
-143.703
-140.719
-137.518
-134.104
-130.488
-126.683
-122.707
-118.567
-114.277
-109.841
-105.264
-100.561
-95.742
-90.8206
-85.8149
-80.7318
-75.5831
-70.3752
-65.1309
-59.8591
-54.5814
-49.2977
-44.0214
-38.7607
-33.5261
-28.334
-23.1936
-18.1166
-13.1177
-8.20403
-3.38798
1.32211
5.92816
10.4073
14.7601
18.9652
23.0291
26.9372
30.6824
34.2648
37.672
40.9114
43.9631
46.8339
49.5057
51.9896
54.2704
56.3598
-152.552
-152.805
-152.803
-152.542
-152.028
-151.267
-150.249
-148.973
-147.455
-145.707
-143.725
-141.509
-139.063
-136.406
-133.54
-130.464
-127.182
-123.697
-120.034
-116.212
-112.238
-108.125
-103.873
-99.4805
-94.967
-90.3383
-85.6137
-80.8126
-75.9376
-70.998
-65.9957
-60.9611
-55.9011
-50.8456
-45.7811
-40.7262
-35.6845
-30.6631
-25.6834
-20.7545
-15.8839
-11.0887
-6.37519
-1.7577
2.75735
7.18074
11.4794
15.6619
19.6942
23.5939
27.3433
30.9359
34.3742
37.642
40.7585
43.6913
46.4581
49.0258
51.4176
53.6089
55.6236
-144.628
-144.833
-144.809
-144.522
-144.015
-143.27
-142.279
-141.013
-139.529
-137.859
-135.958
-133.818
-131.461
-128.912
-126.178
-123.228
-120.079
-116.721
-113.209
-109.549
-105.74
-101.81
-97.7593
-93.5486
-89.2282
-84.794
-80.2738
-75.6825
-71.011
-66.2855
-61.4828
-56.6638
-51.8127
-46.9933
-42.1521
-37.3387
-32.5364
-27.7197
-22.9533
-18.2552
-13.5859
-8.99436
-4.49443
-0.0732554
4.23219
8.4784
12.5887
16.607
20.4518
24.1852
27.7669
31.1942
34.4934
37.6125
40.6157
43.4236
46.0934
48.5421
50.8425
52.9327
54.8768
-136.605
-136.734
-136.698
-136.381
-135.886
-135.125
-134.18
-132.852
-131.444
-129.96
-128.067
-126.008
-123.705
-121.248
-118.745
-115.853
-112.831
-109.666
-106.278
-102.794
-99.0718
-95.3071
-91.5552
-87.4318
-83.3169
-79.1539
-74.7741
-70.4285
-65.8557
-61.4612
-56.7353
-52.255
-47.5011
-43.0183
-38.3611
-33.8182
-29.316
-24.5872
-20.0416
-15.6216
-11.0715
-6.73417
-2.48564
1.81921
5.76905
9.97971
13.7643
17.7368
21.2561
24.8985
28.3296
31.4944
34.7723
37.6269
40.6544
43.2096
45.8904
48.0703
50.4069
52.2957
54.2786
61.3879
63.3661
65.1074
66.6127
67.8813
68.9173
69.7247
70.3087
70.6734
70.8253
70.7877
70.6038
70.2639
69.7265
69.0209
68.1522
67.0816
65.8213
64.3936
62.8139
61.0941
59.2446
57.2777
55.2044
53.0373
50.7891
48.4734
46.1042
43.6942
41.2588
38.8115
36.3672
33.9415
31.5478
29.203
26.9201
24.7139
22.5996
20.5994
18.7293
17.0126
15.4559
14.072
12.8805
11.8958
11.1273
10.5837
10.2665
10.1691
10.2727
10.5425
10.9241
11.3385
11.6846
11.8025
11.0632
9.55953
8.06015
6.84518
5.93091
5.11614
61.32
63.2188
64.8916
66.3388
67.5605
68.5589
69.3374
69.8999
70.2506
70.3916
70.3386
70.1512
69.8268
69.3131
68.6265
67.7716
66.7274
65.5025
64.1151
62.5794
60.9068
59.108
57.195
55.1801
53.0751
50.8921
48.6435
46.3424
44.0013
41.6343
39.2545
36.8762
34.5136
32.1806
29.8921
27.6623
25.5057
23.4333
21.453
19.5907
17.8551
16.2851
14.8841
13.6668
12.6453
11.8299
11.2286
10.8431
10.6674
10.6849
10.8638
11.154
11.4791
11.7369
11.7354
11.0454
9.72092
8.39481
7.36176
6.56279
5.73537
60.668
62.5251
64.1619
65.5799
66.7786
67.7609
68.5299
69.0897
69.4425
69.585
69.5432
69.3802
69.0782
68.5869
67.9256
67.1013
66.1001
64.9283
63.5992
62.1257
60.5187
58.7888
56.9477
55.0069
52.9774
50.8713
48.7004
46.4773
44.2141
41.9243
39.6208
37.3172
35.0271
32.7641
30.5421
28.3748
26.2755
24.256
22.3294
20.517
18.8386
17.3003
15.9209
14.7098
13.6777
12.8341
12.1855
11.7327
11.4694
11.38
11.4344
11.5857
11.7582
11.848
11.675
10.9876
9.82552
8.61558
7.61121
6.77421
5.94206
59.8581
61.6648
63.2583
64.6415
65.8125
66.7752
67.5306
68.0841
68.4339
68.5752
68.5498
68.4165
68.1382
67.6759
67.0443
66.2528
65.2947
64.1769
62.9079
61.4996
59.962
58.3046
56.5401
54.6789
52.731
50.7095
48.6249
46.4896
44.3151
42.1146
39.9003
37.6856
35.483
33.306
31.1674
29.0807
27.0584
25.113
23.2577
21.5087
19.881
18.385
17.0334
15.8342
14.7971
13.9297
13.2358
12.7143
12.3574
12.1498
12.0622
12.0506
12.0463
11.9554
11.6416
10.963
9.94986
8.8537
7.8692
7.00693
6.18662
59.0435
60.7958
62.3419
63.6873
64.8264
65.7667
66.5045
67.0482
67.3912
67.5325
67.5249
67.4212
67.1652
66.7328
66.1321
65.3756
64.4597
63.3951
62.1853
60.8422
59.3749
57.7904
56.1041
54.3245
52.4601
50.5259
48.53
46.4857
44.4021
42.2938
40.1711
38.0476
35.9344
33.8452
31.7913
29.7865
27.842
25.9704
24.1829
22.4937
20.9149
19.4586
18.1346
16.95
15.9105
15.0217
14.2855
13.6986
13.2517
12.9289
12.7027
12.5328
12.3617
12.1149
11.7013
11.0408
10.15
9.16635
8.22133
7.35136
6.52661
58.2447
59.9413
61.4365
62.7438
63.8483
64.7656
65.4839
66.0179
66.3536
66.5
66.5093
66.4329
66.1976
65.7954
65.2254
64.5061
63.6316
62.6205
61.4688
60.191
58.7949
57.2827
55.6755
53.9791
52.1985
50.3535
48.4471
46.4955
44.5036
42.489
40.4584
38.4274
36.4036
34.4027
32.4332
30.5102
28.643
26.844
25.1218
23.4901
21.9585
20.5391
19.2396
18.0657
17.0213
16.1084
15.3286
14.6766
14.1426
13.7114
13.3577
13.0466
12.732
12.3595
11.8696
11.2173
10.4096
9.51869
8.62494
7.76697
6.94031
57.4359
59.0755
60.5171
61.7862
62.8546
63.7503
64.4497
64.9741
65.3034
65.4592
65.4847
65.4335
65.2189
64.8465
64.3071
63.6263
62.7936
61.837
60.742
59.5306
58.2077
56.7682
55.2416
53.6289
51.932
50.1787
48.3635
46.5064
44.6069
42.6877
40.7507
38.8132
36.8791
34.9667
33.0809
31.2399
29.4498
27.7229
26.0637
24.4875
23.0004
21.6159
20.3389
19.1737
18.1224
17.1851
16.3629
15.6488
15.0324
14.5024
14.035
13.6022
13.1679
12.6936
12.1408
11.4835
10.7232
9.89729
9.05274
8.21814
7.40094
56.6049
58.1931
59.5731
60.8094
61.8342
62.714
63.3906
63.9094
64.2309
64.4048
64.4401
64.4157
64.2189
63.8786
63.3672
62.7278
61.9327
61.0394
59.9926
58.8507
57.6063
56.2336
54.7976
53.2687
51.6478
49.994
48.2681
46.5115
44.7
42.8819
41.0365
39.1971
37.3499
35.5284
33.7215
31.9642
30.2499
28.5973
26.9969
25.476
24.0271
22.677
21.4201
20.2657
19.2063
18.2439
17.3856
16.6153
15.9231
15.3076
14.7409
14.207
13.6728
13.1165
12.5087
11.8379
11.0991
10.3148
9.50548
8.69546
7.89417
55.7898
57.4379
58.6552
59.9674
60.8371
61.7807
62.3267
62.9362
63.1682
63.4608
63.4027
63.4856
63.226
63.0085
62.447
61.9233
61.0628
60.3373
59.2883
58.2238
57.0934
55.6805
54.4066
52.9941
51.3615
49.8823
48.1755
46.5881
44.7924
43.1359
41.3191
39.6306
37.8229
36.1418
34.3589
32.7244
31.0427
29.502
27.9219
26.4913
25.0392
23.7505
22.4924
21.3595
20.2948
19.2914
18.4135
17.5909
16.8227
16.1515
15.4881
14.8837
14.2553
13.6412
12.9752
12.2954
11.5539
10.8052
10.0109
9.21251
8.43116
4.32128
3.59941
2.91729
2.22636
1.53803
0.890966
0.296488
-0.235718
-0.683812
-1.04134
-1.30539
-1.48126
-1.56941
-1.56777
-1.50607
-1.40581
-1.28085
-1.15233
-1.03393
-0.93394
-0.855863
-0.796108
-0.750507
-0.706336
-0.674311
-0.63425
-0.590059
-0.538114
-0.474872
-0.399611
-0.308932
-0.202217
-0.0802434
0.0571788
0.206528
0.367156
0.535054
0.705883
0.875951
1.03975
1.19229
1.32911
1.44867
1.54613
1.61828
1.66516
1.68577
1.6813
1.65255
1.60256
1.53528
1.45398
1.36152
1.26348
1.16121
1.05762
0.951443
0.840258
0.722196
0.594684
0.429613
4.90938
4.22774
3.60559
2.95959
2.30105
1.68537
1.12007
0.608575
0.178494
-0.160516
-0.404308
-0.549816
-0.598655
-0.564376
-0.485592
-0.377746
-0.25305
-0.128744
-0.0170741
0.0748023
0.144835
0.19597
0.228609
0.263244
0.282056
0.310275
0.340166
0.377742
0.42496
0.484234
0.55799
0.647333
0.75237
0.872401
1.00557
1.14921
1.29997
1.4545
1.60882
1.75903
1.90072
2.02857
2.1388
2.22831
2.2943
2.33557
2.35165
2.34272
2.30988
2.25544
2.18237
2.09397
1.99306
1.88548
1.77216
1.65742
1.53967
1.42001
1.29337
1.15278
0.981139
5.14992
4.4728
3.83449
3.13858
2.43143
1.79804
1.21088
0.66203
0.1948
-0.182974
-0.470967
-0.667284
-0.776308
-0.814702
-0.778887
-0.694989
-0.566842
-0.428002
-0.304283
-0.203936
-0.127741
-0.0729905
-0.0265186
0.00172733
0.0379313
0.0687341
0.106395
0.150891
0.204817
0.270258
0.349438
0.443497
0.552323
0.67496
0.809611
0.953923
1.1047
1.25829
1.41064
1.55743
1.69424
1.817
1.92193
2.00571
2.06577
2.10089
2.11069
2.09609
2.05872
2.00139
1.92737
1.84081
1.74553
1.64502
1.54221
1.43968
1.33584
1.22701
1.10658
0.964651
0.790553
5.41539
4.72479
4.05645
3.3446
2.63821
2.00637
1.40099
0.827839
0.358786
-0.0117147
-0.298529
-0.48862
-0.580601
-0.589663
-0.520064
-0.391312
-0.249396
-0.132194
-0.0175438
0.0837408
0.163435
0.222605
0.266198
0.294384
0.322268
0.345121
0.370611
0.401171
0.439675
0.488663
0.550672
0.627233
0.718796
0.824421
0.942708
1.07116
1.20698
1.34673
1.4868
1.62316
1.75155
1.86809
1.96916
2.05183
2.11362
2.15344
2.17073
2.16633
2.14148
2.09879
2.04045
1.96997
1.88987
1.80298
1.70955
1.61116
1.5098
1.40452
1.29033
1.16294
1.01506
5.74914
5.02776
4.32832
3.60837
2.89865
2.23978
1.60769
1.03018
0.560369
0.174251
-0.139274
-0.343785
-0.445828
-0.473289
-0.430091
-0.337305
-0.225347
-0.0946952
0.0221051
0.12012
0.195067
0.250864
0.292663
0.324119
0.352505
0.378637
0.405722
0.437618
0.476201
0.523586
0.582281
0.654083
0.739301
0.837262
0.946614
1.06534
1.19067
1.3198
1.44931
1.57569
1.69475
1.80321
1.89735
1.97484
2.0329
2.07067
2.08704
2.083
2.05892
2.01729
1.96
1.89049
1.81194
1.72665
1.63669
1.55418
1.47154
1.38529
1.29231
1.18615
1.05831
6.14754
5.39188
4.66081
3.93063
3.21369
2.53241
1.88482
1.29447
0.795036
0.37779
0.0514728
-0.158344
-0.280647
-0.33147
-0.29541
-0.200085
-0.0821712
0.0408542
0.151478
0.239135
0.30179
0.349128
0.383273
0.411222
0.433731
0.45479
0.475237
0.500454
0.531876
0.570485
0.619906
0.681636
0.756267
0.842681
0.940102
1.04616
1.15878
1.27517
1.39247
1.50745
1.61595
1.71544
1.80202
1.87433
1.92904
1.96624
1.98407
1.98457
1.96719
1.93508
1.88956
1.83452
1.77323
1.71031
1.65055
1.5789
1.50817
1.43488
1.35304
1.25734
1.14092
6.60343
5.82858
5.07285
4.32966
3.60398
2.91148
2.25663
1.65786
1.1325
0.688664
0.338278
0.096039
-0.0591555
-0.120328
-0.0869303
-0.00491054
0.102106
0.214941
0.315588
0.389432
0.434937
0.467189
0.489144
0.50954
0.52303
0.536574
0.547795
0.565851
0.588941
0.617322
0.656468
0.707384
0.771082
0.845662
0.930745
1.0243
1.12384
1.22756
1.33266
1.43658
1.53462
1.62541
1.70444
1.77176
1.82294
1.85953
1.87864
1.88338
1.8722
1.84913
1.8143
1.77202
1.72418
1.67284
1.6199
1.57046
1.5185
1.46316
1.39897
1.32073
1.22105
7.10317
6.32597
5.56146
4.81629
4.08613
3.39551
2.74339
2.15169
1.61981
1.1632
0.793946
0.523273
0.325459
0.234886
0.23212
0.279746
0.37705
0.45857
0.525544
0.582503
0.597548
0.607879
0.608652
0.620898
0.620304
0.626141
0.624747
0.635566
0.651682
0.665666
0.693303
0.733215
0.787955
0.851432
0.925873
1.0075
1.09538
1.18732
1.28145
1.37592
1.4644
1.54806
1.61966
1.68339
1.7302
1.76666
1.78553
1.79423
1.78687
1.77106
1.74287
1.70996
1.67342
1.6331
1.59345
1.55602
1.51873
1.4805
1.43389
1.3752
1.29339
7.63841
6.87973
6.11135
5.37044
4.64253
3.97223
3.3362
2.78896
2.26615
1.82756
1.47385
1.21838
0.943339
0.82014
0.782109
0.761115
0.818929
0.749537
0.754416
0.833644
0.786566
0.773077
0.7297
0.763472
0.72323
0.736924
0.69813
0.708624
0.729111
0.719227
0.721982
0.759763
0.812631
0.861823
0.927865
0.999886
1.07451
1.15886
1.24326
1.33737
1.41033
1.49851
1.55231
1.62461
1.65564
1.70168
1.70541
1.73214
1.71477
1.71335
1.67935
1.64828
1.6238
1.59345
1.56678
1.539
1.5131
1.49345
1.45999
1.4278
1.35693
4.87293
-4.21934
-5.54878
14.8185
5.74614
19.4196
18.0073
10.8707
11.5271
29.1038
1.67104
23.7438
18.117
2.84073
21.7167
-102.43
20.5566
12.1928
1.46707
17.4529
15.0434
3.19313
1.02792
20.1364
11.4324
17.1442
17.5172
9.54277
20.3063
6.834
10.438
16.6817
28.4396
1.71148
23.0372
0.82871
0.726483
57.3008
18.658
17.5296
7.72402
-2.87064
18.0276
-88.4426
0.681956
31.6537
11.5739
3.01137
16.1939
25.3694
-3.22514
-45.622
17.0972
9.50628
13.9677
16.2181
6.94126
7.69229
0.948875
-31.1117
3.80937
15.499
17.1135
-8.1927
-25.6102
14.8697
0.857975
8.79447
18.8742
18.0898
15.3818
59.5321
6.57727
13.4076
13.3878
6.29057
-12.3545
44.4317
17.1488
28.1057
-0.778893
16.5086
16.7202
-36.6415
17.9802
50.222
11.9986
1.82446
15.3428
1.57536
-13.8945
17.1386
5.11735
-31.5602
-37.0626
5.61861
44.2255
9.96015
25.4815
-101.731
14.4988
16.1378
25.0397
17.0258
18.1122
16.9933
15.1574
39.6981
19.7638
-78.1284
-109.351
15.9439
0.806446
1.56612
6.01099
2.15834
1.17162
19.5298
-7.70103
11.294
12.8826
0.447762
11.2799
-118.129
-26.3535
10.635
15.3047
-47.2512
-35.0265
17.8326
21.2744
-8.02548
3.39427
10.965
2.58685
10.7638
18.0176
-53.0526
-30.6041
11.6574
9.56875
-52.9855
14.9081
49.0352
1.63874
12.4575
16.6404
1.63958
31.7835
-0.514958
16.2273
16.2442
59.0828
-33.5648
-59.2866
8.85376
8.26447
-27.954
16.6005
0.773901
16.6606
26.3995
17.4001
12.5082
14.9133
13.0853
7.05168
9.70066
17.1257
0.449323
-1.43816
1.54908
5.88968
17.4235
1.57971
1.59529
1.30691
8.84687
22.4178
1.69325
1.97845
-1.31332
-31.0859
9.7128
6.44368
1.05836
-10.5247
52.1206
9.81771
11.8722
25.4459
20.2375
-16.6343
-39.3001
16.6099
-31.768
4.23672
0.413353
21.3211
0.824233
9.84136
14.9826
13.442
-58.9576
-1.50237
20.8521
8.47351
16.0958
-45.667
0.913962
41.2018
-5.69099
16.3459
-117.613
11.1709
-77.7721
-65.4854
1.69641
33.3082
1.88267
11.364
40.1375
11.9884
16.7196
1.17369
-7.74265
-9.29919
11.7175
17.011
59.7101
1.51559
21.4365
-5.12472
-37.7777
13.6179
19.2814
3.12958
-57.3672
-46.7707
19.3049
13.3463
8.77709
11.0181
15.9613
-123.855
16.678
8.44781
-98.8113
23.9263
17.2698
8.82744
23.7543
1.47844
8.42664
11.3347
18.6585
25.3309
15.3039
6.61116
2.06503
15.6653
9.44044
-64.6578
18.5609
0.731955
12.7872
17.5255
1.36441
17.5513
1.05415
24.0255
1.46743
22.8042
11.3904
52.8154
10.0177
14.2872
10.7582
15.9738
20.7119
50.2985
9.73842
-72.1312
15.3157
14.8801
18.6282
17.0547
-61.8302
7.95531
7.90949
-26.1655
40.5256
14.4463
16.9881
35.0978
17.3974
9.51612
5.07096
-0.422022
16.3596
10.94
5.46113
48.543
-3.79683
2.99794
-78.925
21.8174
18.6354
19.3907
-100.721
9.75943
11.8853
11.4771
-12.5104
16.4585
14.2604
1.06048
1.19634
7.02818
2.02747
16.4483
3.56632
15.3886
14.9898
-26.506
2.01117
15.5702
0.951502
-90.7248
6.45265
-27.2657
-44.3023
-101.497
2.23909
1.67068
16.8591
0.823843
1.13004
-124.313
35.0896
15.0263
14.7801
11.9916
11.6805
49.7524
11.262
-9.3821
18.7777
-70.8735
14.9575
1.57089
-45.5487
-114.04
10.6587
-62.0269
8.6574
2.71503
14.4649
1.84543
2.39771
10.3425
0.729157
1.10201
-6.67098
1.00871
16.069
6.76622
-114.184
-33.9279
3.90749
16.5863
-26.0188
-49.697
12.6518
1.76995
15.7211
-5.36738
7.14709
1.68279
-73.9648
1.14864
-79.9759
20.2624
-89.4571
11.2424
4.86875
20.9521
1.36985
-117.661
-27.7361
47.4208
50.1648
3.24415
0.702139
17.2197
30.2662
16.7523
0.0178824
12.0474
-10.2005
17.2976
18.8054
21.9751
21.4484
-7.68133
-46.8435
12.0399
-83.1746
0.291843
-11.0379
1.90804
-62.1017
-1.59342
18.7772
-124.469
9.63095
9.38871
23.2884
-53.0354
17.0743
18.207
1.47737
17.7522
9.95897
14.356
1.39185
35.9203
-26.1603
-51.7445
9.49191
-61.2468
9.09576
-54.5188
16.8426
15.6876
1.05629
3.96745
-93.5599
-1.36816
1.62903
-10.8588
-62.2206
-59.8183
18.3257
3.89833
-41.5823
-50.1952
17.0721
2.58168
-31.7559
22.8411
13.0042
36.4137
-40.002
-0.311038
-9.66964
0.701991
9.0811
-90.1827
2.30139
10.5486
19.8678
46.9978
1.5496
44.0914
2.05405
17.4295
1.84344
1.66308
13.7319
12.3948
0.508106
1.35196
16.8067
2.37283
1.64138
2.68382
1.63599
1.98361
1.52465
8.09082
4.80669
15.8133
15.6747
-111.21
10.0458
-67.8774
-107.22
16.207
0.831866
2.37863
19.1169
3.85161
1.55901
16.3227
17.0433
15.2204
5.4555
-37.6067
10.5104
26.5657
13.6313
13.9509
15.5405
5.43767
0.769221
13.4907
19.2303
9.5747
1.60082
13.9306
13.5719
-12.7347
12.7012
0.031057
-3.40338
-4.27918
17.1937
19.9989
9.41337
22.487
3.49032
2.77516
48.7113
-21.725
-4.97806
21.9494
8.21632
1.35708
1.60451
-80.3888
-27.0398
20.9613
3.16365
10.361
0.689485
-21.1228
18.6827
12.0263
-27.3929
-82.6182
12.7046
-17.4506
-54.262
4.60793
-105.638
9.32079
9.45476
9.10526
-31.9519
13.9145
-81.1037
-1.94297
13.0464
1.08148
17.287
-0.324458
14.9387
12.802
31.7724
2.94178
1.01364
14.8496
7.24272
0.824879
-46.6086
-30.3261
8.07614
-33.8878
4.75773
28.691
1.78204
9.41696
-95.7683
9.92997
8.53569
14.4449
1.57328
52.1608
1.72045
8.16107
8.53819
1.51194
1.20066
13.6133
15.627
15.979
9.53984
10.241
29.269
-76.336
8.49194
17.8387
-31.8132
0.891054
-87.2715
13.6547
0.83529
17.7078
-55.3834
4.27579
-21.088
0.989731
0.937784
2.84027
-106.344
20.5567
17.3449
6.56384
16.0925
-26.8786
-22.4617
-6.43016
10.0266
9.08823
4.99791
16.3045
-0.263449
0.799431
16.2179
23.2582
1.6159
-58.4019
20.9302
1.74913
20.5254
-8.32296
17.2443
36.3694
6.69734
29.5446
18.5039
-30.1981
-21.1617
-4.38473
19.0743
10.5936
-32.4994
16.1079
12.5255
4.54028
5.59593
0.855525
-30.6114
40.4738
3.70094
2.10815
1.02109
-89.7321
9.56692
23.3811
15.7097
0.924836
5.2629
-22.8039
14.4507
12.4107
6.1708
1.55146
-6.92363
15.2263
2.11229
10.9661
-21.0724
1.58102
39.0248
0.985188
0.125329
8.32931
57.2566
17.0872
16.7261
1.48616
10.2316
6.98451
8.85634
10.3546
-116.182
1.88284
-34.9625
30.5662
17.5572
8.49387
19.3401
-6.24273
-10.9289
1.55327
3.94068
1.57792
12.8954
-2.61071
18.5791
-88.8436
16.7759
6.75087
2.13233
-3.49239
2.94831
-6.71036
10.6352
3.40506
1.08153
19.2497
-121.17
15.3958
17.1041
10.8026
-4.02964
18.9092
3.84295
-21.4032
15.6527
-13.6075
-97.7303
17.4865
8.9058
14.5602
-63.3937
-6.51736
15.8184
42.8062
12.5929
9.0838
11.5875
-111.271
-126.433
16.5498
-1.13801
-11.9684
1.63732
17.805
6.92364
-11.4713
13.8407
15.3508
0.289467
18.5366
19.6093
8.54047
14.8632
-3.04814
13.357
-5.5653
23.1637
1.84583
-4.43921
42.6378
1.26736
6.81941
21.9178
4.22485
-45.108
24.4992
-83.9674
20.8947
1.25327
-19.6324
10.1492
-9.39335
0.80476
12.9037
13.1414
-93.7198
-40.0234
13.5013
-65.1092
-8.65108
53.6488
-15.8193
-19.9677
21.5264
0.825213
5.93441
11.9205
-55.5114
-22.674
-4.73121
-3.98206
-6.59333
1.00857
22.6304
19.1056
13.3623
-121.89
-44.4099
27.5232
2.24041
-112.309
11.229
14.4579
10.5561
1.2616
4.78069
1.32737
-14.6339
21.4213
-121.458
-17.2657
-86.0437
-98.6614
18.8398
25.3726
-43.7705
26.1845
14.5838
12.267
11.1509
10.4491
26.0741
17.9291
2.22847
-51.7165
-30.2952
24.5832
2.22242
3.51518
13.8065
1.53411
12.9117
-53.665
1.48475
49.2361
2.48328
22.2855
11.6648
18.5961
15.7189
-76.9838
13.161
44.7626
1.02524
0.918259
32.2953
61.1787
12.6909
13.2419
25.0758
-50.7377
-15.3219
17.2778
10.0503
-91.7541
27.4795
17.4056
-63.2792
15.7568
3.65407
1.52532
6.30174
-16.3359
53.7408
0.796524
-8.48076
-0.0122493
17.81
0.626101
9.5524
14.9015
17.3022
12.2427
1.02107
17.328
0.691585
30.2417
0.114363
11.3659
10.3922
16.6809
8.4424
-49.9311
9.7773
18.1469
-29.3168
-70.9448
34.0414
1.70205
7.51355
16.7807
34.3328
-84.8738
9.50379
-2.80253
11.1455
16.3254
-88.407
17.2341
9.84769
49.9588
29.8593
-19.5612
4.39284
15.8461
17.1744
-66.7591
-4.17484
10.1548
14.9137
1.38336
17.5358
-128.064
7.31469
0.827532
10.5626
18.7689
0.336391
14.7393
23.0118
24.8931
4.6236
-0.302105
17.7806
20.6935
17.4789
20.3636
10.8046
18.1916
-70.5727
2.59301
18.1062
-25.7069
14.1073
7.25797
19.658
11.6471
-62.3453
10.7968
5.07666
18.889
-20.7684
16.7417
-24.7805
-104.329
1.59717
1.41707
-47.7977
16.2065
18.4226
-21.4858
-104.864
1.25141
-14.283
15.8989
-82.897
13.3936
16.6138
18.2628
-18.1027
7.08409
9.64541
-28.642
17.439
8.69664
-85.1207
10.5998
-119.52
47.2215
11.672
18.2498
6.37948
16.8268
-9.20265
-6.23297
20.128
-18.2062
5.75374
12.8581
-38.2228
4.68572
17.58
-49.4263
14.9052
1.85953
-67.629
-13.6503
17.2245
19.34
14.7573
62.1982
8.7663
-2.36144
-23.8994
15.6429
-11.7477
15.4835
5.33939
15.5335
0.900918
9.8862
0.728912
-14.015
58.9114
7.35146
59.2714
7.34837
12.8202
4.04839
20.0751
-9.45773
17.8392
11.1351
1.65483
59.7747
16.8554
9.14858
-8.55111
0.7049
-109.08
15.8874
-5.68559
10.556
-21.7386
-61.9945
1.12056
-73.6784
9.55662
2.90065
-25.4341
18.358
15.7613
14.1384
12.3463
21.4293
16.2338
12.7752
17.6598
1.34765
-68.3464
17.6407
20.2721
17.704
7.96658
-73.2198
1.32872
-24.2386
15.7292
-43.5273
0.948552
25.0424
-67.5632
17.0504
0.848048
40.1568
1.57062
22.8051
4.17294
1.87185
16.0063
10.4867
-107.65
13.7668
-0.853614
-39.3136
1.59626
15.8942
11.0015
30.9437
2.76764
1.55457
-79.3824
15.9081
16.5044
17.0113
-20.1238
-36.0562
14.0379
12.7594
15.1401
1.12835
1.76506
49.3101
0.665254
-65.7657
2.25854
-59.2321
0.842507
0.658194
32.3122
50.962
13.0275
60.0604
45.4698
18.3632
17.6261
6.27537
14.5166
18.5794
2.38268
1.92601
19.699
1.81258
10.2837
19.194
9.03763
18.5365
28.8066
1.68283
-5.51967
-121.087
17.8774
12.1106
-50.7666
7.69319
22.4636
14.0468
10.97
2.36791
17.37
-2.25675
1.60029
30.406
12.8204
1.10134
16.7794
17.452
15.6371
5.75937
15.5504
17.0282
-3.6049
18.5335
20.6412
-76.61
-28.561
-18.586
14.7762
1.71376
-50.8205
17.0991
1.68473
1.11793
-126.307
0.71618
16.767
8.66311
31.4348
-1.12004
1.34888
9.23118
46.412
1.75685
16.151
1.2036
16.6504
53.8913
14.2142
-20.8361
16.8372
1.07519
-69.7337
15.7025
42.3897
4.12744
13.0587
18.774
29.5098
10.9791
19.7481
2.09792
16.1896
10.6787
-123.439
4.40384
18.6674
19.9969
-65.2464
-82.5617
16.8098
18.1631
12.5919
11.3989
-59.5906
24.6546
-59.0201
17.8463
11.3222
17.3599
-12.1153
5.78777
17.4974
0.865612
1.61348
-89.6475
-62.3927
8.22966
-2.46636
-74.8817
18.2981
18.4293
18.4819
7.47984
18.9527
2.36912
18.2375
9.56151
-1.37554
-25.2297
2.39802
12.7361
1.64555
36.3286
16.739
19.6418
-104.399
15.5905
15.5656
20.1226
12.4773
-73.8348
-6.86952
1.62469
17.2377
17.0757
17.7152
-3.73348
20.2745
-17.6992
8.37546
8.69893
13.5499
9.57451
15.6293
11.0039
10.6511
9.7731
-1.72414
-10.4358
2.75276
-86.9658
11.8907
16.805
0.923259
-91.55
41.2511
1.84838
23.7464
16.0206
13.2218
11.8601
16.6908
60.8072
-8.31622
1.24243
-94.979
16.8401
27.9244
-37.2493
3.61916
-51.7274
1.40986
30.9893
1.69425
16.7124
-22.8156
-13.3214
-38.2598
-8.5258
17.8267
1.58211
7.74202
22.5072
13.2742
19.5455
8.846
56.7215
20.5054
16.6841
43.9492
10.7744
15.6661
18.4795
20.417
-10.6637
1.38893
10.0257
11.671
-16.6537
13.9204
9.42353
15.1234
-3.38845
-68.428
-85.7218
11.263