/*--------------------------------*- C++ -*----------------------------------*\
| =========                 |                                                 |
| \\      /  F ield         | OpenFOAM: The Open Source CFD Toolbox           |
|  \\    /   O peration     | Version:  2.3.1                                 |
|   \\  /    A nd           | Web:      www.OpenFOAM.org                      |
|    \\/     M anipulation  |                                                 |
\*---------------------------------------------------------------------------*/
FoamFile
{
    version     2.0;
    format      ascii;
    class       volVectorField;
    location    "0.94";
    object      U;
}
// * * * * * * * * * * * * * * * * * * * * * * * * * * * * * * * * * * * * * //

dimensions      [0 1 -1 0 0 0 0];

internalField   nonuniform List<vector> 
9648
(
(0.152936 -4.83009 -3.96281e-22)
(0.280307 -4.78851 2.04853e-23)
(0.406042 -4.76117 0)
(0.528906 -4.73526 0)
(0.651889 -4.71505 7.68175e-21)
(0.776396 -4.70095 1.18835e-20)
(0.904994 -4.69708 -2.42256e-20)
(1.03959 -4.70478 -1.16206e-20)
(1.18129 -4.72539 1.15913e-20)
(1.33077 -4.76096 3.63723e-20)
(1.49012 -4.81312 -3.62199e-20)
(1.66119 -4.88291 -5.32401e-20)
(1.84597 -4.97098 2.83902e-19)
(2.04647 -5.0773 7.4164e-20)
(2.2644 -5.20111 -6.96818e-19)
(2.501 -5.34116 0)
(2.75743 -5.49578 0)
(3.03456 -5.66293 1.28436e-19)
(3.33307 -5.84002 4.14585e-19)
(3.65304 -6.02429 -1.19455e-18)
(3.99449 -6.2131 -2.14153e-20)
(4.35729 -6.40339 3.29628e-19)
(4.74067 -6.59227 3.90908e-19)
(5.14396 -6.77693 -1.77948e-18)
(5.5662 -6.9547 0)
(6.00637 -7.12293 1.0678e-18)
(6.46314 -7.27912 -1.12007e-18)
(6.93513 -7.42122 0)
(7.4209 -7.54702 0)
(7.91879 -7.65487 -6.81229e-19)
(8.42733 -7.74307 -1.50815e-18)
(8.94467 -7.81016 2.369e-18)
(9.46921 -7.85503 0)
(9.99917 -7.87644 0)
(10.5327 -7.87374 1.81622e-18)
(11.0682 -7.84606 -1.95554e-18)
(11.6037 -7.79298 0)
(12.1376 -7.71424 4.19971e-18)
(12.6683 -7.60945 1.13318e-18)
(13.1938 -7.47848 -3.35449e-18)
(13.7123 -7.32138 6.37736e-20)
(14.2223 -7.13865 2.38721e-18)
(14.7224 -6.93016 -3.17221e-18)
(15.2103 -6.69647 6.38133e-19)
(15.6853 -6.43834 0)
(16.1458 -6.15593 0)
(16.5902 -5.84993 4.8143e-18)
(17.0173 -5.52114 7.04701e-19)
(17.4265 -5.1704 -2.17782e-18)
(17.8169 -4.79765 -7.33117e-19)
(18.1864 -4.40402 -7.62526e-19)
(18.5333 -3.9917 7.57818e-19)
(18.8575 -3.56234 3.91481e-19)
(19.1581 -3.1167 -3.89377e-19)
(19.4339 -2.65651 1.9875e-18)
(19.6844 -2.18286 -1.9568e-18)
(19.9089 -1.69719 -2.18648e-20)
(20.1068 -1.20073 0)
(20.2778 -0.694936 -3.97455e-19)
(20.4213 -0.181477 -5.14056e-20)
(20.5374 0.338452 -4.8723e-20)
(-0.0739899 -2.5157 3.59774e-22)
(0.00187614 -2.52826 0)
(0.0781257 -2.54771 0)
(0.154227 -2.58039 2.13001e-21)
(0.23513 -2.63327 -3.61819e-21)
(0.325277 -2.70872 -2.8518e-20)
(0.426075 -2.80384 0)
(0.53943 -2.91792 0)
(0.667033 -3.0518 -3.90164e-20)
(0.809552 -3.20538 0)
(0.96835 -3.37777 -9.80677e-20)
(1.14427 -3.56749 7.82451e-20)
(1.33822 -3.7733 -4.2531e-20)
(1.55117 -3.99354 0)
(1.78389 -4.22628 2.71105e-19)
(2.03667 -4.46942 1.61393e-19)
(2.30984 -4.72072 -1.58806e-19)
(2.60354 -4.97793 2.07889e-19)
(2.91794 -5.23854 -6.33858e-19)
(3.2528 -5.50007 5.06838e-19)
(3.60778 -5.76017 -5.6239e-19)
(3.98261 -6.0163 -3.03596e-19)
(4.37647 -6.26609 -3.11389e-19)
(4.7886 -6.50722 1.07291e-18)
(5.21806 -6.73749 3.71658e-19)
(5.66393 -6.95471 4.42724e-19)
(6.12504 -7.15688 -3.92026e-19)
(6.60012 -7.34224 0)
(7.08792 -7.50901 0)
(7.58691 -7.65583 0)
(8.09576 -7.78123 0)
(8.6128 -7.88402 0)
(9.13654 -7.96321 0)
(9.66545 -8.0178 0)
(10.1977 -8.04721 -8.16299e-19)
(10.7318 -8.05067 7.41043e-19)
(11.2661 -8.02792 8.17743e-19)
(11.799 -7.97865 -4.15536e-18)
(12.3287 -7.90255 -8.82112e-19)
(12.8537 -7.79957 2.71366e-18)
(13.3722 -7.66984 1.90477e-18)
(13.8826 -7.51379 -1.96615e-18)
(14.3835 -7.33131 9.39045e-19)
(14.8731 -7.12311 9.90929e-19)
(15.35 -6.88984 -1.05353e-18)
(15.8128 -6.63173 1.04425e-18)
(16.2601 -6.34965 -2.23926e-18)
(16.6904 -6.04441 0)
(17.1025 -5.71687 -5.72003e-19)
(17.4959 -5.36717 1.14953e-18)
(17.8695 -4.99629 -5.77683e-19)
(18.2222 -4.60597 0)
(18.5527 -4.19759 1.18759e-18)
(18.8603 -3.77196 0)
(19.144 -3.33056 0)
(19.403 -2.87455 2.8154e-18)
(19.6366 -2.40527 -1.26889e-18)
(19.8441 -1.92437 -3.08692e-19)
(20.0253 -1.4327 3.25852e-19)
(20.1795 -0.931995 0)
(20.3063 -0.423546 8.19364e-20)
(0.0489772 -1.4567 -5.21447e-22)
(0.11018 -1.51153 0)
(0.176557 -1.58259 6.22455e-22)
(0.248178 -1.67317 -3.31849e-22)
(0.327873 -1.78225 0)
(0.41878 -1.9096 2.28566e-20)
(0.522206 -2.05649 1.68442e-20)
(0.639759 -2.22204 0)
(0.773142 -2.40595 2.31344e-21)
(0.923963 -2.60687 4.06996e-20)
(1.09318 -2.82381 8.3538e-20)
(1.28144 -3.05492 -2.9083e-20)
(1.4893 -3.29844 0)
(1.71712 -3.55231 0)
(1.96516 -3.81444 2.05138e-19)
(2.23336 -4.08271 -1.3179e-19)
(2.52169 -4.35488 -1.41606e-19)
(2.82996 -4.62875 0)
(3.1579 -4.90207 5.49878e-19)
(3.50516 -5.17263 -5.71666e-19)
(3.87126 -5.43834 -4.28541e-19)
(4.25564 -5.69709 -4.72945e-19)
(4.65751 -5.94683 0)
(5.07598 -6.18558 -8.50621e-19)
(5.5101 -6.41142 -2.99458e-19)
(5.95888 -6.62248 3.56684e-19)
(6.42121 -6.81707 3.94284e-19)
(6.8959 -6.99366 0)
(7.38168 -7.15079 0)
(7.87715 -7.28724 0)
(8.3809 -7.40182 0)
(8.89145 -7.49351 0)
(9.40735 -7.56143 0)
(9.92706 -7.60483 0)
(10.449 -7.62319 -1.79353e-18)
(10.9716 -7.61596 5.95952e-19)
(11.4932 -7.5829 -6.57787e-19)
(12.0125 -7.52378 3.31069e-18)
(12.5277 -7.43845 0)
(13.0374 -7.32697 1.40915e-18)
(13.5398 -7.18956 1.45773e-18)
(14.0334 -7.02651 7.22186e-19)
(14.5169 -6.83799 -8.2775e-19)
(14.9886 -6.62455 -1.59447e-18)
(15.4473 -6.38675 2.48491e-18)
(15.8916 -6.12511 -8.40753e-19)
(16.3202 -5.84044 -1.71501e-18)
(16.7318 -5.53355 0)
(17.1252 -5.20548 0)
(17.4994 -4.85727 -4.68377e-19)
(17.8535 -4.48991 -4.57837e-19)
(18.1864 -4.10436 -9.36668e-19)
(18.4976 -3.70171 -9.80621e-19)
(18.7858 -3.28343 0)
(19.0506 -2.85029 -9.69878e-19)
(19.291 -2.40405 -1.01089e-18)
(19.5067 -1.94544 0)
(19.6968 -1.47669 1.64563e-20)
(19.8608 -0.998094 0)
(19.9986 -0.51142 0)
(20.1099 -0.0177076 -6.26196e-20)
(0.0286079 -0.944422 1.02722e-21)
(0.0917044 -1.03686 -1.68824e-21)
(0.165711 -1.14566 1.9428e-21)
(0.24962 -1.27103 -9.86631e-22)
(0.344244 -1.41309 0)
(0.450719 -1.57197 -9.36571e-21)
(0.570779 -1.7479 -1.453e-20)
(0.705812 -1.94046 0)
(0.857215 -2.1489 3.15794e-21)
(1.02582 -2.37214 -3.47868e-20)
(1.21244 -2.60886 7.8909e-20)
(1.41739 -2.85742 9.70369e-20)
(1.641 -3.11585 0)
(1.88346 -3.38215 -7.87366e-20)
(2.14496 -3.6543 -1.67632e-19)
(2.42526 -3.9303 -8.9614e-20)
(2.72422 -4.20804 3.48459e-19)
(3.04157 -4.48545 -2.52529e-19)
(3.37693 -4.76048 2.84149e-19)
(3.72996 -5.03109 4.85666e-19)
(4.10025 -5.29548 7.0443e-19)
(4.48707 -5.55178 3.98357e-19)
(4.88978 -5.79817 1.91559e-19)
(5.30743 -6.03292 6.9856e-19)
(5.73915 -6.25425 2.29441e-19)
(6.18398 -6.46052 2.61567e-19)
(6.6409 -6.6502 3.09254e-19)
(7.1089 -6.82186 -9.25788e-19)
(7.58673 -6.97431 6.65202e-19)
(8.0731 -7.10637 7.52517e-19)
(8.56677 -7.21699 -1.53895e-18)
(9.06627 -7.30527 7.86076e-19)
(9.57026 -7.37036 -8.42632e-19)
(10.0774 -7.41161 4.20062e-19)
(10.5862 -7.42854 4.60774e-19)
(11.0951 -7.4207 5.1168e-19)
(11.6027 -7.38779 -5.05272e-19)
(12.1076 -7.32968 -5.50993e-19)
(12.6083 -7.24626 -1.65136e-18)
(13.1033 -7.13761 -1.19204e-18)
(13.591 -7.00397 -2.41689e-18)
(14.0701 -6.84556 -3.13167e-18)
(14.5389 -6.66267 1.28414e-18)
(14.9963 -6.45573 2.93008e-20)
(15.4409 -6.22527 -7.19666e-19)
(15.8714 -5.97186 -7.05801e-19)
(16.2866 -5.69617 4.26794e-18)
(16.6852 -5.39898 -7.15425e-19)
(17.0664 -5.08112 0)
(17.4289 -4.74354 0)
(17.7719 -4.38724 -7.18576e-19)
(18.0945 -4.01342 3.22948e-20)
(18.3959 -3.62308 7.71382e-19)
(18.6753 -3.21738 0)
(18.9318 -2.79761 8.21836e-19)
(19.1648 -2.36509 0)
(19.3736 -1.92101 0)
(19.5578 -1.46631 6.26355e-19)
(19.7169 -1.00257 1.99169e-19)
(19.8505 -0.531267 -2.02984e-19)
(19.9584 -0.0538624 1.03887e-19)
(0.123795 -0.687979 4.57851e-23)
(0.187335 -0.800457 1.47277e-21)
(0.264164 -0.92823 -3.42339e-21)
(0.354192 -1.07207 -7.13976e-22)
(0.457563 -1.23221 -3.62205e-22)
(0.575405 -1.40837 3.59494e-21)
(0.708619 -1.60026 2.28971e-21)
(0.85804 -1.80707 -1.01191e-20)
(1.02472 -2.02799 3.49696e-20)
(1.20879 -2.26182 -5.11268e-20)
(1.41079 -2.50713 5.82479e-20)
(1.63045 -2.76229 -7.44036e-20)
(1.86799 -3.02527 -4.3441e-20)
(2.12321 -3.29415 0)
(2.39641 -3.56691 8.25457e-20)
(2.68698 -3.84185 7.90403e-20)
(2.99473 -4.11694 0)
(3.31942 -4.39023 1.97486e-19)
(3.66045 -4.65985 0)
(4.01766 -4.92386 -2.64015e-19)
(4.39063 -5.1807 2.88815e-19)
(4.77856 -5.42877 1.02678e-20)
(5.18091 -5.66638 -1.72477e-20)
(5.59661 -5.89209 2.93283e-20)
(6.02488 -6.10412 -8.17925e-19)
(6.46486 -6.301 -4.70465e-19)
(6.91552 -6.48132 9.69102e-19)
(7.37606 -6.64376 1.05262e-18)
(7.84527 -6.78734 -5.70432e-19)
(8.32193 -6.91093 0)
(8.80492 -7.01359 0)
(9.29276 -7.09454 0)
(9.7843 -7.15287 7.23999e-19)
(10.2783 -7.18805 -2.9913e-18)
(10.7733 -7.19972 1.56613e-18)
(11.2678 -7.18741 -7.96692e-19)
(11.7607 -7.1508 -1.71957e-18)
(12.2505 -7.08991 1.74477e-18)
(12.7358 -7.00457 4.04006e-20)
(13.2152 -6.89492 -9.85977e-19)
(13.6873 -6.76125 1.01897e-18)
(14.1507 -6.60376 1.05388e-18)
(14.6039 -6.42273 0)
(15.0457 -6.21849 -1.07051e-18)
(15.4748 -5.99162 0)
(15.8901 -5.74267 -1.71108e-18)
(16.2902 -5.4723 5.28845e-19)
(16.6742 -5.18122 0)
(17.0411 -4.87017 -6.20962e-19)
(17.3897 -4.54017 -1.48759e-20)
(17.7194 -4.19206 1.32351e-18)
(18.0292 -3.82699 -6.28877e-19)
(18.3184 -3.44607 -3.4987e-19)
(18.5863 -3.05041 6.4064e-19)
(18.832 -2.64138 -4.88245e-21)
(19.0547 -2.21996 3.34197e-19)
(19.2538 -1.78746 1.6143e-19)
(19.4289 -1.34484 3.40802e-19)
(19.5798 -0.893314 -8.56244e-19)
(19.7059 -0.43441 3.43935e-19)
(19.8072 0.0303172 -4.40159e-20)
(0.211773 -0.550207 -4.72939e-22)
(0.287745 -0.676299 0)
(0.377697 -0.817408 4.65573e-21)
(0.482093 -0.974182 0)
(0.600423 -1.1465 -7.4285e-22)
(0.734125 -1.3337 2.73817e-21)
(0.88371 -1.53531 5.31885e-21)
(1.04973 -1.75017 2.01398e-20)
(1.23318 -1.97733 3.73262e-21)
(1.43347 -2.21567 5.69013e-21)
(1.65121 -2.46361 9.64568e-22)
(1.88544 -2.71971 -2.78583e-20)
(2.1365 -2.9819 4.23779e-20)
(2.40347 -3.24822 -1.29469e-19)
(2.68736 -3.51674 1.12001e-19)
(2.98711 -3.7863 -8.54578e-21)
(3.30229 -4.05464 -1.40425e-19)
(3.63299 -4.32008 -1.70573e-19)
(3.9782 -4.58093 0)
(4.33799 -4.83518 2.04309e-19)
(4.71225 -5.08161 8.36112e-21)
(5.0997 -5.31895 -5.33517e-19)
(5.50035 -5.54548 -2.33581e-20)
(5.91269 -5.76022 -2.89806e-19)
(6.33602 -5.96124 1.02601e-18)
(6.76967 -6.14719 3.55884e-20)
(7.21251 -6.31682 -3.82457e-19)
(7.66419 -6.46874 -4.14092e-20)
(8.12339 -6.60241 0)
(8.58888 -6.71666 0)
(9.0599 -6.81054 0)
(9.53473 -6.88359 0)
(10.0123 -6.93471 0)
(10.4919 -6.96335 5.77969e-20)
(10.9718 -6.96948 -6.71613e-19)
(11.4506 -6.9526 -3.93509e-20)
(11.9274 -6.91216 2.94588e-20)
(12.4008 -6.84849 6.93797e-19)
(12.8693 -6.76132 1.58748e-18)
(13.3321 -6.65079 -2.39504e-18)
(13.7874 -6.51741 1.66789e-18)
(14.234 -6.36125 -8.41961e-19)
(14.6703 -6.18267 0)
(15.0954 -5.98172 9.36154e-19)
(15.5081 -5.7591 0)
(15.907 -5.51536 9.86107e-19)
(16.2914 -5.25097 -1.00935e-18)
(16.6597 -4.96696 4.74074e-19)
(17.0113 -4.66365 5.06649e-19)
(17.3453 -4.34208 -5.28852e-19)
(17.661 -4.00314 3.80656e-20)
(17.9573 -3.64802 -1.07858e-20)
(18.2337 -3.2775 1.07644e-18)
(18.4896 -2.893 -1.10817e-18)
(18.7241 -2.49574 -5.46821e-19)
(18.9363 -2.08703 -2.67758e-19)
(19.1255 -1.66767 -8.52074e-19)
(19.2913 -1.23849 0)
(19.4338 -0.800657 5.75775e-19)
(19.5526 -0.355993 -1.4785e-19)
(19.6474 0.09424 0)
(0.318925 -0.482192 0)
(0.409264 -0.617671 0)
(0.514326 -0.768411 -2.26734e-21)
(0.635688 -0.934674 3.04534e-21)
(0.770792 -1.11576 -7.59913e-22)
(0.922147 -1.31036 -4.7845e-21)
(1.08941 -1.51791 3.28843e-21)
(1.27244 -1.73683 -1.32804e-20)
(1.4735 -1.96637 -1.19784e-21)
(1.68978 -2.20538 4.00678e-20)
(1.92354 -2.45228 -7.79115e-20)
(2.17174 -2.70595 0)
(2.436 -2.96403 0)
(2.71338 -3.22482 1.46945e-19)
(3.00747 -3.48586 9.55781e-20)
(3.31547 -3.74737 -2.12073e-19)
(3.63681 -4.00653 3.454e-19)
(3.97275 -4.26176 1.45786e-19)
(4.32082 -4.51205 -2.91945e-19)
(4.68184 -4.75463 -1.7802e-19)
(5.05673 -4.98871 2.05557e-19)
(5.4423 -5.21389 -5.2486e-21)
(5.84059 -5.42766 0)
(6.24848 -5.63044 5.3372e-19)
(6.66569 -5.81947 -8.80768e-19)
(7.09222 -5.99342 2.93454e-19)
(7.52577 -6.1516 6.5006e-19)
(7.9677 -6.2919 -1.81186e-18)
(8.41601 -6.41484 3.69249e-19)
(8.86907 -6.5191 0)
(9.32739 -6.60332 0)
(9.78816 -6.66814 0)
(10.2505 -6.71162 5.08757e-19)
(10.7147 -6.73297 1.57593e-18)
(11.1789 -6.73309 -1.06623e-18)
(11.6405 -6.71157 5.89055e-19)
(12.1004 -6.6666 6.46134e-19)
(12.5562 -6.59987 -1.28202e-18)
(13.0068 -6.51058 0)
(13.4518 -6.39859 -1.31746e-18)
(13.8893 -6.26533 6.84614e-19)
(14.3182 -6.11028 3.56579e-20)
(14.7364 -5.93431 -3.20005e-20)
(15.1437 -5.73643 7.55057e-19)
(15.539 -5.51796 3.19884e-20)
(15.9205 -5.27972 -2.41294e-18)
(16.288 -5.02133 8.17869e-19)
(16.6396 -4.74459 -1.69948e-18)
(16.975 -4.44895 0)
(17.2932 -4.13626 0)
(17.5939 -3.80648 1.79627e-18)
(17.8757 -3.4618 -4.29139e-19)
(18.1382 -3.10214 -9.31276e-19)
(18.3814 -2.72879 -4.47621e-19)
(18.604 -2.34387 1.43003e-18)
(18.805 -1.94839 7.21425e-19)
(18.9835 -1.54262 2.4942e-19)
(19.1391 -1.12776 -4.71534e-21)
(19.2724 -0.703945 -2.49665e-19)
(19.3835 -0.273648 0)
(19.4713 0.161309 0)
(0.441805 -0.458655 4.73982e-22)
(0.550103 -0.600617 0)
(0.671827 -0.757909 0)
(0.81319 -0.93107 -1.66305e-21)
(0.965738 -1.11828 0)
(1.13593 -1.31734 -3.72631e-22)
(1.32126 -1.52778 3.38129e-21)
(1.5204 -1.74757 -7.19974e-21)
(1.74036 -1.97652 0)
(1.97123 -2.21346 -2.40518e-20)
(2.22203 -2.45672 3.92792e-21)
(2.48255 -2.70593 0)
(2.76077 -2.95793 0)
(3.04551 -3.21157 -6.15644e-20)
(3.35007 -3.46193 6.77177e-20)
(3.666 -3.71407 -8.62454e-20)
(3.99155 -3.96263 -1.00003e-19)
(4.33264 -4.206 0)
(4.68215 -4.44534 1.30503e-19)
(5.04279 -4.67495 -2.76144e-19)
(5.41898 -4.89525 -3.10679e-19)
(5.80028 -5.10798 -3.6601e-19)
(6.19648 -5.30742 -3.34904e-20)
(6.59895 -5.49836 -4.6754e-19)
(7.00898 -5.67499 4.48657e-19)
(7.42845 -5.83616 5.01395e-19)
(7.85058 -5.98301 -5.7207e-19)
(8.28237 -6.11032 3.18772e-20)
(8.71941 -6.22218 4.27951e-20)
(9.15809 -6.31652 -6.62242e-19)
(9.60347 -6.39007 0)
(10.0492 -6.44711 -8.0818e-19)
(10.4951 -6.48265 1.60364e-18)
(10.9434 -6.49556 -4.53413e-20)
(11.3912 -6.4899 9.42893e-19)
(11.8334 -6.465 -9.3846e-19)
(12.2763 -6.4142 1.03545e-18)
(12.7136 -6.34451 1.08074e-18)
(13.1446 -6.25303 -2.13725e-18)
(13.5711 -6.13881 1.17018e-18)
(13.9893 -6.00612 1.15108e-18)
(14.3999 -5.8518 1.81927e-18)
(14.7983 -5.67886 -6.47946e-19)
(15.1868 -5.48295 0)
(15.5637 -5.26879 3.4859e-20)
(15.9261 -5.03708 7.04623e-19)
(16.2763 -4.78434 -6.85067e-19)
(16.6093 -4.5163 7.38068e-19)
(16.9276 -4.22832 0)
(17.2284 -3.92558 0)
(17.5133 -3.60495 -4.05534e-20)
(17.7794 -3.27182 7.93758e-19)
(18.0268 -2.92241 0)
(18.2564 -2.56005 3.94455e-19)
(18.4668 -2.18869 3.97944e-19)
(18.6558 -1.80761 -8.1083e-19)
(18.8231 -1.41608 -3.97773e-19)
(18.9671 -1.01669 -2.114e-19)
(19.0901 -0.606498 0)
(19.1931 -0.191726 0)
(19.2734 0.226423 2.53228e-20)
(0.580754 -0.463531 -1.30799e-21)
(0.713504 -0.608888 2.84461e-21)
(0.851557 -0.768316 -8.806e-24)
(1.01953 -0.946122 -3.43795e-21)
(1.18604 -1.13596 5.41033e-21)
(1.37494 -1.33896 -2.75765e-21)
(1.5793 -1.54789 0)
(1.79079 -1.76434 1.41716e-21)
(2.03488 -1.99097 -1.0069e-20)
(2.27447 -2.22217 0)
(2.54811 -2.46044 5.03283e-20)
(2.81363 -2.70454 -3.25054e-20)
(3.10928 -2.95042 3.33005e-20)
(3.39384 -3.19709 4.35953e-20)
(3.71153 -3.43102 -5.85085e-20)
(4.03497 -3.67476 -7.24617e-20)
(4.36036 -3.91253 2.40684e-19)
(4.71091 -4.14056 -2.5167e-19)
(5.05512 -4.37156 0)
(5.41048 -4.58964 -9.15553e-21)
(5.79466 -4.79491 7.62461e-19)
(6.16344 -4.99777 -2.9703e-20)
(6.56511 -5.17759 -3.65457e-19)
(6.95589 -5.35982 6.99876e-19)
(7.35675 -5.52641 0)
(7.77239 -5.67488 -4.32863e-19)
(8.17661 -5.81204 -4.43829e-19)
(8.60001 -5.9248 9.86336e-19)
(9.02679 -6.02654 -6.60293e-21)
(9.44672 -6.1125 5.87274e-19)
(9.8818 -6.17275 -1.20191e-18)
(10.3084 -6.22469 1.91263e-18)
(10.7353 -6.2539 -1.37251e-18)
(11.1686 -6.25813 -1.44128e-18)
(11.6027 -6.24607 0)
(12.0206 -6.21846 8.22358e-19)
(12.4521 -6.15914 0)
(12.867 -6.08968 -3.09401e-21)
(13.2759 -5.99784 9.77024e-19)
(13.6865 -5.87825 -1.81841e-18)
(14.0827 -5.74533 -6.79359e-21)
(14.4762 -5.59202 -2.01407e-18)
(14.8487 -5.42498 0)
(15.2173 -5.23222 -5.77093e-19)
(15.5768 -5.0239 2.21603e-18)
(15.9155 -4.79993 -5.63568e-19)
(16.2518 -4.55236 5.97496e-19)
(16.5625 -4.29407 0)
(16.8653 -4.01277 6.15327e-19)
(17.1461 -3.71898 -1.85711e-18)
(17.416 -3.40395 -2.59619e-20)
(17.6651 -3.08256 0)
(17.8942 -2.74614 6.38842e-19)
(18.1106 -2.39518 -1.92393e-20)
(18.3099 -2.03527 0)
(18.484 -1.66727 3.60482e-19)
(18.6417 -1.29769 -3.2746e-19)
(18.7714 -0.915781 3.43332e-19)
(18.8822 -0.520279 3.40668e-19)
(18.98 -0.117584 -1.7117e-19)
(19.0496 0.284433 -6.47554e-20)
(20.6251 0.863951 1.51607e-19)
(20.6843 1.3933 -5.14064e-20)
(20.7154 1.9258 0)
(20.7183 2.45911 0)
(20.6933 2.99149 8.16888e-19)
(20.6408 3.52179 1.17523e-18)
(20.5608 4.04816 -1.21026e-18)
(20.4534 4.56922 -3.98823e-19)
(20.3187 5.08355 3.98781e-19)
(20.1576 5.59004 7.80396e-19)
(19.9701 6.08809 -7.80889e-19)
(19.7564 6.57584 -7.59189e-19)
(19.5181 7.05222 3.776e-18)
(19.2563 7.51602 7.34372e-19)
(18.9716 7.9658 -6.48018e-18)
(18.6645 8.40008 0)
(18.3358 8.81793 0)
(17.9869 9.2184 6.74023e-19)
(17.6185 9.60096 1.99089e-18)
(17.2313 9.96424 -5.11728e-18)
(16.8271 10.3076 -7.52506e-20)
(16.4064 10.6306 1.17264e-18)
(15.9704 10.932 1.20677e-18)
(15.5203 11.2115 -4.5023e-18)
(15.0575 11.4687 0)
(14.583 11.7038 2.11476e-18)
(14.097 11.9163 -1.95922e-18)
(13.6015 12.1042 0)
(13.0981 12.2674 0)
(12.5886 12.4055 -8.97804e-19)
(12.074 12.5186 -1.64131e-18)
(11.5556 12.6063 2.33926e-18)
(11.0351 12.6688 0)
(10.5134 12.7062 0)
(9.99207 12.7182 1.17994e-18)
(9.47218 12.7054 -1.12189e-18)
(8.95512 12.6677 0)
(8.44218 12.6056 1.76754e-18)
(7.93436 12.5194 3.68242e-19)
(7.43296 12.4094 -1.01832e-18)
(6.93916 12.276 3.57939e-20)
(6.45439 12.12 4.28281e-19)
(5.97943 11.942 -4.23534e-19)
(5.51546 11.7424 7.40707e-20)
(5.06367 11.5221 0)
(4.62478 11.2819 0)
(4.19984 11.0223 -1.75919e-19)
(3.78975 10.7442 -3.7646e-20)
(3.39553 10.4487 2.22832e-19)
(3.01786 10.1369 9.25705e-20)
(2.65738 9.80953 1.4449e-19)
(2.31489 9.46754 -1.4638e-19)
(1.99116 9.1122 -9.79889e-20)
(1.68649 8.74469 9.93295e-20)
(1.40159 8.36595 -5.93014e-19)
(1.13686 7.97742 6.46996e-19)
(0.892729 7.58024 -1.3603e-21)
(0.669491 7.17591 0)
(0.467317 6.76548 1.64727e-19)
(0.286557 6.35006 2.23696e-20)
(0.127286 5.93086 2.36778e-20)
(20.4051 0.0908903 -8.20163e-20)
(20.4754 0.609217 0)
(20.5178 1.12929 0)
(20.5329 1.6507 9.41643e-19)
(20.5204 2.17203 -6.29616e-19)
(20.4807 2.69199 -2.21902e-18)
(20.4139 3.20872 0)
(20.32 3.72151 0)
(20.1993 4.22848 -1.20804e-18)
(20.052 4.72831 0)
(19.8783 5.22017 -1.76997e-18)
(19.6789 5.70176 1.17429e-18)
(19.4554 6.17133 -5.82951e-19)
(19.2087 6.62869 0)
(18.939 7.07334 2.30578e-18)
(18.6466 7.50395 1.07974e-18)
(18.3325 7.91932 -1.08194e-18)
(17.9977 8.31828 1.02906e-18)
(17.643 8.70019 -3.04099e-18)
(17.2693 9.06384 2.04806e-18)
(16.8781 9.40811 -1.98898e-18)
(16.4702 9.73256 -1.0142e-18)
(16.0468 10.036 -9.17003e-19)
(15.6089 10.3176 2.66071e-18)
(15.158 10.5768 8.52672e-19)
(14.6946 10.8133 7.80075e-19)
(14.22 11.0274 -7.0453e-19)
(13.7362 11.2181 0)
(13.244 11.3847 0)
(12.7452 11.5265 0)
(12.2406 11.6437 0)
(11.7319 11.736 0)
(11.2203 11.8031 0)
(10.7071 11.8454 0)
(10.1937 11.8625 -4.9165e-19)
(9.68133 11.8546 4.36078e-19)
(9.17134 11.8219 3.49062e-19)
(8.66492 11.7646 -1.69435e-18)
(8.16321 11.6831 -2.64224e-19)
(7.66753 11.5777 7.88446e-19)
(7.17912 11.4488 4.33704e-19)
(6.69932 11.2969 -3.45508e-19)
(6.22902 11.1226 1.27823e-19)
(5.76955 10.9265 9.34642e-20)
(5.32202 10.7091 -6.57365e-21)
(4.88723 10.4713 6.6476e-21)
(4.46625 10.2137 9.52612e-20)
(4.06005 9.93707 0)
(3.66968 9.64245 8.14187e-20)
(3.29592 9.33079 -1.84585e-19)
(2.93942 9.00295 1.03459e-19)
(2.60111 8.65984 0)
(2.28181 8.30258 -3.07823e-19)
(1.98179 7.93235 0)
(1.70196 7.55009 0)
(1.44256 7.15722 -9.55594e-19)
(1.20423 6.75496 4.60862e-19)
(0.987185 6.34473 1.27405e-19)
(0.791987 5.92751 -1.3324e-19)
(0.618941 5.50459 0)
(0.46828 5.07719 -3.75785e-20)
(20.1947 0.480853 6.26673e-20)
(20.2531 0.98297 0)
(20.2846 1.48556 -2.50038e-19)
(20.2884 1.98842 -1.65348e-20)
(20.2654 2.49016 0)
(20.2165 2.99024 2.00646e-18)
(20.1412 3.48802 9.79524e-19)
(20.0393 3.98271 0)
(19.9113 4.47218 3.24605e-20)
(19.7573 4.95411 9.48101e-19)
(19.5785 5.42699 1.44038e-18)
(19.3759 5.8894 -4.73518e-19)
(19.15 6.33966 0)
(18.901 6.77705 0)
(18.6296 7.20109 1.74358e-18)
(18.3366 7.61088 -8.60338e-19)
(18.023 8.00541 -8.05925e-19)
(17.6897 8.38371 0)
(17.3375 8.74501 2.43478e-18)
(16.9675 9.08833 -2.33598e-18)
(16.5809 9.41276 -1.49175e-18)
(16.1786 9.71759 -1.44338e-18)
(15.7617 10.0019 0)
(15.3314 10.2651 -2.06208e-18)
(14.8888 10.5064 -6.72868e-19)
(14.4351 10.7253 6.14552e-19)
(13.9715 10.9212 6.04817e-19)
(13.4994 11.0939 0)
(13.0197 11.2433 0)
(12.5339 11.3689 0)
(12.0431 11.4705 0)
(11.5486 11.548 0)
(11.0518 11.6014 0)
(10.5538 11.6307 0)
(10.0561 11.6358 -1.05465e-18)
(9.55983 11.6169 3.37603e-19)
(9.0662 11.574 -2.68893e-19)
(8.57639 11.5074 1.28045e-18)
(8.09153 11.4175 0)
(7.61284 11.3046 3.58857e-19)
(7.14151 11.1693 2.92147e-19)
(6.67877 11.0118 1.24794e-19)
(6.22563 10.833 -7.42074e-20)
(5.78325 10.6332 -9.20766e-20)
(5.35266 10.413 2.55892e-20)
(4.93474 10.1732 1.2526e-22)
(4.53038 9.91443 1.05982e-19)
(4.14053 9.63755 0)
(3.76611 9.34348 0)
(3.40795 9.03306 8.16266e-20)
(3.06679 8.70721 9.85018e-20)
(2.7433 8.36686 2.12101e-19)
(2.43824 8.01296 2.42669e-19)
(2.15203 7.64665 0)
(1.88537 7.26879 3.01789e-19)
(1.63852 6.88088 3.32755e-19)
(1.41197 6.48397 0)
(1.20611 6.07954 -1.80481e-21)
(1.02148 5.66849 0)
(0.858301 5.25212 0)
(0.716838 4.83154 2.88712e-20)
(20.0404 0.428616 -1.03949e-19)
(20.0966 0.914641 2.03318e-19)
(20.1267 1.4035 -4.00885e-19)
(20.1304 1.89323 -2.15702e-19)
(20.1078 2.38232 0)
(20.0584 2.86969 -8.35387e-19)
(19.9821 3.3549 -8.29317e-19)
(19.8806 3.83593 0)
(19.7546 4.31261 3.45729e-20)
(19.6044 4.78275 -8.01454e-19)
(19.4301 5.2443 1.51288e-18)
(19.232 5.69629 1.48925e-18)
(19.0108 6.13761 0)
(18.7668 6.56702 -7.25697e-19)
(18.5011 6.98328 -1.44146e-18)
(18.2144 7.38523 -7.10746e-19)
(17.9075 7.77197 2.08175e-18)
(17.5813 8.14265 -1.33727e-18)
(17.2368 8.4965 1.30104e-18)
(16.875 8.83268 1.88863e-18)
(16.4969 9.15039 2.45187e-18)
(16.1037 9.44883 1.21209e-18)
(15.6964 9.72717 5.57718e-19)
(15.276 9.98473 1.68598e-18)
(14.8435 10.221 5.15867e-19)
(14.4002 10.4355 5.16425e-19)
(13.9472 10.6276 4.67771e-19)
(13.4857 10.7972 -1.36195e-18)
(13.017 10.9438 8.44227e-19)
(12.5423 11.0671 7.87663e-19)
(12.0628 11.167 -1.52823e-18)
(11.5796 11.2434 7.40493e-19)
(11.0941 11.2962 -6.43965e-19)
(10.6077 11.3255 3.02171e-19)
(10.1215 11.3312 2.91873e-19)
(9.63679 11.3133 2.3682e-19)
(9.1547 11.272 -2.38353e-19)
(8.67633 11.2076 -2.24599e-19)
(8.2028 11.1204 -5.12201e-19)
(7.73532 11.0108 -2.9682e-19)
(7.27507 10.8793 -4.623e-19)
(6.82314 10.7263 -4.2786e-19)
(6.38071 10.5524 1.22509e-19)
(5.94882 10.3581 7.35946e-21)
(5.52848 10.1439 -3.56749e-22)
(5.1206 9.91054 3.25167e-20)
(4.72588 9.65867 -2.7534e-19)
(4.34534 9.38911 5.92761e-20)
(3.97981 9.10283 0)
(3.63021 8.80059 0)
(3.29712 8.48321 1.51127e-19)
(2.98138 8.1518 8.31963e-22)
(2.68358 7.80714 -1.97663e-19)
(2.40418 7.45029 0)
(2.14378 7.08207 -2.45201e-19)
(1.90257 6.70395 0)
(1.68111 6.31707 0)
(1.47964 5.92271 -2.35543e-19)
(1.29898 5.522 -8.38638e-20)
(1.13907 5.11608 8.71215e-20)
(1.0005 4.70614 -4.621e-20)
(19.8831 0.499747 1.89162e-21)
(19.9338 0.972667 -1.76111e-19)
(19.9589 1.44809 5.16139e-19)
(19.9586 1.92446 3.42462e-19)
(19.9328 2.40062 -5.04463e-19)
(19.8815 2.87521 3.37953e-19)
(19.8055 3.34612 -2.45888e-21)
(19.7048 3.81136 -6.5416e-19)
(19.5793 4.27094 9.96406e-19)
(19.4304 4.72401 -1.29787e-18)
(19.2583 5.16942 1.2212e-18)
(19.0633 5.6057 -1.29859e-18)
(18.846 6.03177 -6.23825e-19)
(18.6069 6.44656 0)
(18.3469 6.84874 6.42306e-19)
(18.0666 7.23709 5.47921e-19)
(17.7667 7.61089 0)
(17.4481 7.96917 1.07909e-18)
(17.1118 8.31122 0)
(16.7587 8.6363 -1.06732e-18)
(16.39 8.94354 9.42072e-19)
(16.0067 9.23215 -4.10052e-20)
(15.6099 9.50126 -4.5989e-20)
(15.2005 9.75013 1.77474e-21)
(14.7794 9.97836 -1.77252e-18)
(14.3479 10.1855 -8.05779e-19)
(13.9069 10.371 1.57438e-18)
(13.4578 10.5348 1.4552e-18)
(13.0018 10.6763 -7.25659e-19)
(12.5399 10.7952 0)
(12.0734 10.8914 0)
(11.6034 10.9648 0)
(11.1311 11.0155 5.52311e-19)
(10.6578 11.0435 -1.93267e-18)
(10.185 11.0486 8.96557e-19)
(9.71363 11.0308 -4.27288e-19)
(9.2448 10.9902 -6.82641e-19)
(8.77958 10.9272 6.40541e-19)
(8.31897 10.8421 2.16982e-20)
(7.86425 10.7353 -2.00949e-19)
(7.41651 10.6073 2.20831e-19)
(6.97684 10.4586 1.42723e-19)
(6.54645 10.2897 0)
(6.12635 10.1011 -3.80478e-20)
(5.71752 9.89337 0)
(5.3209 9.66679 8.097e-20)
(4.93696 9.42235 -4.17263e-20)
(4.56672 9.16077 0)
(4.21084 8.88304 9.60104e-20)
(3.87062 8.58982 1.96828e-20)
(3.54631 8.28186 -2.51101e-19)
(3.23876 7.96028 1.47504e-19)
(2.94873 7.62586 9.6895e-20)
(2.67642 7.27956 -1.77718e-19)
(2.42268 6.92214 8.14929e-21)
(2.18709 6.55493 -1.07705e-19)
(1.97071 6.17916 -5.80407e-20)
(1.77345 5.79614 -1.2897e-19)
(1.59645 5.40696 3.41845e-19)
(1.43934 5.01272 -1.45353e-19)
(1.30319 4.61455 1.92391e-20)
(19.7177 0.548846 3.70796e-20)
(19.7636 1.00667 0)
(19.7848 1.46655 -5.7813e-19)
(19.7814 1.92734 0)
(19.7534 2.38769 2.87718e-19)
(19.701 2.84621 8.41708e-19)
(19.6244 3.30149 5.51981e-19)
(19.5238 3.75293 1.11934e-18)
(19.3996 4.19866 9.79288e-21)
(19.2526 4.63784 -6.86735e-21)
(19.0833 5.06901 -6.06176e-20)
(18.8919 5.49119 -5.32149e-19)
(18.6789 5.90335 5.13742e-19)
(18.4449 6.30452 -1.50602e-18)
(18.1909 6.6935 1.02181e-18)
(17.9175 7.06904 -4.91415e-20)
(17.625 7.43035 -9.26168e-19)
(17.3144 7.77655 -9.48809e-19)
(16.9865 8.10713 0)
(16.6425 8.42148 8.49027e-19)
(16.2835 8.71863 -3.81618e-20)
(15.9106 8.9978 -1.66984e-18)
(15.5248 9.25809 -5.87984e-21)
(15.127 9.49859 -6.92315e-19)
(14.7178 9.71912 2.10702e-18)
(14.2985 9.91921 -3.50039e-20)
(13.8701 10.0985 -6.72459e-19)
(13.4339 10.2569 -7.11684e-20)
(12.9911 10.3937 0)
(12.5428 10.5088 0)
(12.0901 10.6016 0)
(11.6336 10.6726 0)
(11.1751 10.7217 0)
(10.7156 10.7491 5.43911e-20)
(10.2569 10.7541 -3.47556e-19)
(9.79941 10.737 3.94473e-20)
(9.34448 10.6978 5.35366e-20)
(8.89301 10.6367 2.22262e-19)
(8.44577 10.5542 4.22288e-19)
(8.00421 10.4509 -5.24657e-19)
(7.56945 10.327 3.07833e-19)
(7.14235 10.1833 -9.44088e-20)
(6.72435 10.0201 0)
(6.31643 9.83791 3.31942e-20)
(5.91947 9.6374 0)
(5.53466 9.41842 -4.2371e-20)
(5.1617 9.18222 7.95613e-20)
(4.80222 8.92944 -5.49106e-20)
(4.45625 8.66126 -6.90975e-20)
(4.12575 8.37802 1.03253e-19)
(3.81049 8.0804 1.92157e-20)
(3.51134 7.76969 1.54167e-20)
(3.22933 7.4464 -2.83679e-19)
(2.96428 7.11163 3.23124e-19)
(2.7174 6.76575 1.76859e-19)
(2.48752 6.4104 9.2455e-20)
(2.27642 6.0466 3.07494e-19)
(2.08302 5.67586 0)
(1.90965 5.29909 -2.351e-19)
(1.75513 4.91751 6.24304e-20)
(1.62131 4.53197 0)
(19.5356 0.600482 0)
(19.5762 1.04258 0)
(19.5931 1.48667 2.51056e-19)
(19.5863 1.93133 -4.80913e-19)
(19.556 2.37561 -2.48209e-19)
(19.5023 2.81817 -1.20515e-18)
(19.4255 3.25734 4.65127e-19)
(19.3253 3.69215 -9.61846e-19)
(19.2024 4.12221 1.56208e-20)
(19.0576 4.54623 1.36307e-18)
(18.8916 4.96225 -1.81945e-18)
(18.7042 5.36939 0)
(18.4959 5.76659 0)
(18.2675 6.15359 1.72238e-18)
(18.02 6.52892 8.32276e-19)
(17.754 6.89067 -1.68903e-18)
(17.4696 7.23869 2.41784e-18)
(17.1675 7.57208 7.68865e-19)
(16.8485 7.89048 -1.50692e-18)
(16.5138 8.19363 -7.56178e-19)
(16.1651 8.48007 6.97387e-19)
(15.8032 8.74941 -7.15102e-20)
(15.4291 9.00058 0)
(15.0437 9.23205 1.30522e-18)
(14.647 9.4444 -1.84069e-18)
(14.2406 9.6371 5.92793e-19)
(13.8255 9.80968 1.06626e-18)
(13.4027 9.96246 -2.588e-18)
(12.9741 10.0943 5.06273e-19)
(12.5401 10.2055 0)
(12.1021 10.2947 0)
(11.66 10.3634 0)
(11.2163 10.4108 3.50299e-19)
(10.7712 10.438 9.90834e-19)
(10.3277 10.4434 -5.83719e-19)
(9.88514 10.4272 2.54324e-19)
(9.44508 10.3897 2.43549e-19)
(9.00853 10.3305 -4.32848e-19)
(8.57543 10.2509 0)
(8.14772 10.1513 -2.41118e-19)
(7.72679 10.0316 1.25483e-19)
(7.31269 9.893 1.42013e-20)
(6.90751 9.73584 9.83721e-21)
(6.5124 9.5606 2.84288e-20)
(6.12771 9.36814 -1.06488e-20)
(5.75585 9.15709 1.56732e-19)
(5.39426 8.92991 -6.67004e-20)
(5.0464 8.68639 2.25519e-19)
(4.7104 8.42869 0)
(4.39063 8.15638 0)
(4.08493 7.86977 -4.03772e-19)
(3.79436 7.57083 1.09726e-19)
(3.52131 7.25961 2.51646e-19)
(3.26365 6.9373 1.48548e-19)
(3.02479 6.60361 -4.6806e-19)
(2.80049 6.26079 -2.61807e-19)
(2.59525 5.90951 -9.63156e-20)
(2.40534 5.55198 -2.08057e-21)
(2.23632 5.18854 1.03144e-19)
(2.08396 4.82041 0)
(1.95296 4.44826 0)
(19.3311 0.649066 -2.53553e-20)
(19.3658 1.07431 0)
(19.378 1.50168 0)
(19.3674 1.92952 2.13392e-19)
(19.3344 2.35672 0)
(19.2797 2.78228 8.22113e-19)
(19.2033 3.20449 4.05345e-19)
(19.1039 3.6218 -7.96092e-19)
(18.9817 4.03604 0)
(18.8396 4.44512 -8.08139e-19)
(18.6783 4.84436 4.4476e-20)
(18.4955 5.23566 0)
(18.2928 5.61672 0)
(18.07 5.98868 -7.53174e-19)
(17.8294 6.35051 6.95275e-19)
(17.5724 6.69728 -7.20108e-19)
(17.2966 7.03134 -7.01956e-19)
(17.0035 7.35158 0)
(16.6942 7.65669 6.63074e-19)
(16.3693 7.94813 -1.20873e-18)
(16.0319 8.223 -1.16754e-18)
(15.6815 8.48211 -1.19867e-18)
(15.3195 8.72444 -9.54564e-21)
(14.9483 8.9457 -9.88819e-19)
(14.5645 9.14941 1.04861e-18)
(14.1711 9.33468 9.44797e-19)
(13.7705 9.49958 -9.58654e-19)
(13.3613 9.64682 6.00561e-20)
(12.9478 9.77299 9.42176e-22)
(12.5282 9.88115 -8.00417e-19)
(12.1068 9.96539 0)
(11.6788 10.0327 -6.37491e-19)
(11.2515 10.0775 1.22771e-18)
(10.8208 10.1059 -4.63625e-20)
(10.3946 10.112 5.24854e-19)
(9.96822 10.0969 -4.26942e-19)
(9.54415 10.0615 3.62425e-19)
(9.1246 10.0039 2.5933e-19)
(8.70639 9.9274 -5.70502e-19)
(8.29308 9.83182 2.394e-19)
(7.88764 9.71665 1.5253e-19)
(7.48637 9.58325 1.60632e-19)
(7.09406 9.43215 -3.41822e-20)
(6.71275 9.26411 0)