/*--------------------------------*- C++ -*----------------------------------*\
| =========                 |                                                 |
| \\      /  F ield         | OpenFOAM: The Open Source CFD Toolbox           |
|  \\    /   O peration     | Version:  2.3.1                                 |
|   \\  /    A nd           | Web:      www.OpenFOAM.org                      |
|    \\/     M anipulation  |                                                 |
\*---------------------------------------------------------------------------*/
FoamFile
{
    version     2.0;
    format      ascii;
    class       surfaceScalarField;
    location    "0.9";
    object      phi;
}
// * * * * * * * * * * * * * * * * * * * * * * * * * * * * * * * * * * * * * //

dimensions      [0 3 -1 0 0 0 0];

internalField   nonuniform List<scalar> 
5856
(
8.29572e-09
-8.2957e-09
2.17039e-07
-2.08743e-07
5.5164e-07
-3.34601e-07
9.02693e-07
-3.51053e-07
1.19668e-06
-2.93991e-07
1.39328e-06
-1.96594e-07
1.47491e-06
-8.16285e-08
1.45407e-06
2.08355e-08
1.35785e-06
9.62179e-08
1.22874e-06
1.2911e-07
1.10791e-06
1.20832e-07
1.04094e-07
1.00382e-06
1.23925e-07
-1.32221e-07
4.4245e-07
-5.27268e-07
8.20416e-07
-7.12567e-07
1.1666e-06
-6.97239e-07
1.43729e-06
-5.64683e-07
1.61706e-06
-3.7636e-07
1.70852e-06
-1.73093e-07
1.70453e-06
2.4829e-08
1.60958e-06
1.91172e-07
1.44708e-06
2.91603e-07
1.20919e-06
3.58724e-07
4.82668e-07
8.30618e-07
2.00333e-07
-3.32554e-07
5.4093e-07
-8.67864e-07
8.40605e-07
-1.01224e-06
1.07387e-06
-9.30503e-07
1.24936e-06
-7.40172e-07
1.37196e-06
-4.98963e-07
1.43154e-06
-2.32675e-07
1.41584e-06
4.05308e-08
1.32666e-06
2.80349e-07
1.13664e-06
4.81623e-07
7.73512e-07
7.21856e-07
1.08726e-06
1.68919e-07
1.79638e-07
-5.12192e-07
3.79177e-07
-1.0674e-06
4.96941e-07
-1.13001e-06
5.86521e-07
-1.02008e-06
6.8016e-07
-8.33812e-07
7.78682e-07
-5.97485e-07
8.71652e-07
-3.25645e-07
9.39978e-07
-2.7795e-08
9.37875e-07
2.82451e-07
7.72711e-07
6.46787e-07
3.49159e-07
1.14541e-06
1.73176e-06
-2.9534e-07
5.30269e-08
-5.65219e-07
1.28631e-08
-1.02724e-06
-6.33992e-08
-1.05374e-06
-8.08324e-08
-1.00265e-06
-1.37535e-08
-9.00891e-07
1.26606e-07
-7.37845e-07
3.04329e-07
-5.03368e-07
4.78921e-07
-2.02386e-07
5.82004e-07
1.79369e-07
4.77634e-07
7.51157e-07
1.08232e-07
1.51481e-06
2.22673e-06
-3.86734e-07
-1.7017e-07
-3.95049e-07
-4.67346e-07
-7.30063e-07
-7.28383e-07
-7.92707e-07
-8.56929e-07
-8.74103e-07
-8.10593e-07
-9.47227e-07
-5.96902e-07
-9.51535e-07
-2.76606e-07
-8.23664e-07
5.43586e-08
-5.33351e-07
2.88351e-07
-5.46238e-08
3.10436e-07
7.29072e-07
1.16132e-07
1.70911e-06
2.47807e-06
-1.35209e-07
-4.00954e-07
5.90503e-09
-9.23252e-07
-2.07765e-07
-1.37301e-06
-3.42948e-07
-1.64385e-06
-6.03261e-07
-1.66138e-06
-9.29697e-07
-1.4081e-06
-1.20482e-06
-9.37668e-07
-1.2941e-06
-3.82818e-07
-1.0882e-06
6.37004e-08
-5.01142e-07
3.11362e-07
4.81411e-07
3.78622e-07
1.64185e-06
2.47859e-06
3.78101e-07
-5.38932e-07
5.44837e-07
-1.17579e-06
4.29094e-07
-1.72427e-06
2.05531e-07
-2.08186e-06
-2.45666e-07
-2.18183e-06
-8.29736e-07
-1.99396e-06
-1.39269e-06
-1.5244e-06
-1.76365e-06
-8.3746e-07
-1.77514e-06
-8.98839e-08
-1.24872e-06
4.86269e-07
-9.47424e-08
8.61047e-07
1.26708e-06
2.25709e-06
1.08255e-06
-4.89342e-07
1.03418e-06
-1.01485e-06
9.54606e-07
-1.40695e-06
5.97624e-07
-1.62069e-06
-3.19254e-08
-1.66541e-06
-7.85011e-07
-1.56686e-06
-1.49124e-06
-1.32078e-06
-2.00974e-06
-8.71896e-07
-2.22402e-06
-1.44569e-07
-1.97604e-06
7.33838e-07
-9.73149e-07
1.46828e-06
5.32638e-07
1.80477e-06
1.92059e-06
-2.98833e-07
1.33301e-06
-4.37832e-07
1.09361e-06
-3.41472e-07
5.01264e-07
-1.39633e-07
-2.33764e-07
5.84327e-08
-9.83077e-07
1.8942e-07
-1.62222e-06
2.3354e-07
-2.05386e-06
2.433e-07
-2.23378e-06
4.10014e-07
-2.14276e-06
1.04294e-06
-1.60608e-06
1.978e-06
-4.02425e-07
1.04785e-06
2.73493e-06
1.31101e-07
1.20191e-06
6.03274e-07
6.21432e-07
1.22131e-06
-1.16777e-07
1.81584e-06
-8.28289e-07
2.25484e-06
-1.42208e-06
2.48977e-06
-1.85716e-06
2.51167e-06
-2.07576e-06
2.3404e-06
-2.0625e-06
2.05146e-06
-1.85383e-06
1.95011e-06
-1.50472e-06
2.41855e-06
-8.70864e-07
2.12748e-07
3.25365e-06
1.35145e-06
-1.49538e-07
2.48973e-06
-5.16848e-07
3.28485e-06
-9.11894e-07
3.84756e-06
-1.391e-06
4.21875e-06
-1.79327e-06
4.40296e-06
-2.04136e-06
4.41351e-06
-2.08631e-06
4.26835e-06
-1.91734e-06
3.98013e-06
-1.56561e-06
3.59136e-06
-1.11595e-06
3.37866e-06
-6.58158e-07
3.68082e-06
-8.94123e-08
8.70977e-07
1.3284e-07
6.59989e-07
2.10988e-07
4.01999e-07
2.57991e-07
1.95822e-07
2.06176e-07
1.31365e-07
6.44576e-08
2.32411e-07
-1.01046e-07
5.02209e-07
-2.69798e-07
7.87614e-07
-2.85405e-07
9.27771e-07
-1.40158e-07
8.00532e-07
1.2724e-07
4.10494e-07
3.90038e-07
4.10494e-07
2.64428e-07
6.9903e-07
-3.64157e-07
8.39573e-07
-8.63075e-07
7.56909e-07
-1.1486e-06
4.91704e-07
-1.2168e-06
1.32658e-07
-1.08034e-06
-2.37506e-07
-8.04104e-07
-5.46038e-07
-3.96042e-07
-6.93467e-07
2.52296e-08
-5.61429e-07
2.70274e-07
-1.17805e-07
2.16161e-07
4.44151e-07
6.26655e-07
-5.62799e-07
1.43075e-06
-1.21254e-06
1.48931e-06
-1.71264e-06
1.25702e-06
-2.07232e-06
8.51375e-07
-2.28587e-06
3.4621e-07
-2.31529e-06
-2.08078e-07
-2.12814e-06
-7.33189e-07
-1.70438e-06
-1.11723e-06
-1.08141e-06
-1.1844e-06
-4.28741e-07
-7.70471e-07
-3.22575e-08
4.76676e-08
5.94398e-07
-9.37266e-07
2.07267e-06
-1.45794e-06
2.00999e-06
-1.88134e-06
1.68042e-06
-2.24222e-06
1.21226e-06
-2.54536e-06
6.49346e-07
-2.7635e-06
1.00642e-08
-2.82235e-06
-6.74334e-07
-2.61456e-06
-1.32502e-06
-2.04188e-06
-1.75708e-06
-1.14408e-06
-1.66828e-06
-2.70704e-07
-8.25706e-07
3.23694e-07
-8.08218e-07
2.49416e-06
-1.12557e-06
2.32734e-06
-1.39526e-06
1.95011e-06
-1.67102e-06
1.48802e-06
-1.98951e-06
9.67838e-07
-2.3451e-06
3.65655e-07
-2.6648e-06
-3.54634e-07
-2.81359e-06
-1.17623e-06
-2.59481e-06
-1.97586e-06
-1.83652e-06
-2.42657e-06
-6.85551e-07
-1.97667e-06
-3.61857e-07
-3.24832e-07
2.68378e-06
-4.63061e-07
2.46557e-06
-6.05573e-07
2.09262e-06
-7.99318e-07
1.68176e-06
-1.07124e-06
1.23976e-06
-1.42506e-06
7.19481e-07
-1.84109e-06
6.13876e-08
-2.2422e-06
-7.75116e-07
-2.45167e-06
-1.7664e-06
-2.16234e-06
-2.7159e-06
-1.13817e-06
-3.00084e-06
-1.50003e-06
3.62306e-07
2.69957e-06
3.27177e-07
2.5007e-06
2.47873e-07
2.17192e-06
9.76786e-08
1.83196e-06
-1.33166e-07
1.4706e-06
-4.36025e-07
1.02234e-06
-7.99049e-07
4.24412e-07
-1.21541e-06
-3.58754e-07
-1.63788e-06
-1.34393e-06
-1.83475e-06
-2.51902e-06
-1.29663e-06
-3.53896e-06
-2.79666e-06
1.1731e-06
2.60902e-06
1.16784e-06
2.50596e-06
1.09844e-06
2.24133e-06
9.69336e-07
1.96105e-06
7.75426e-07
1.66451e-06
5.16437e-07
1.28133e-06
2.03773e-07
7.37076e-07
-1.47418e-07
-7.56277e-09
-5.43059e-07
-9.48289e-07
-9.47841e-07
-2.11424e-06
-9.90097e-07
-3.49671e-06
-3.78676e-06
2.09586e-06
2.43376e-06
2.07843e-06
2.52339e-06
1.972e-06
2.34775e-06
1.83366e-06
2.0994e-06
1.67008e-06
1.82809e-06
1.46478e-06
1.48663e-06
1.19794e-06
1.00391e-06
8.63657e-07
3.26725e-07
4.89783e-07
-5.74415e-07
8.29281e-08
-1.70739e-06
-3.27582e-07
-3.0862e-06
-4.11434e-06
3.09655e-06
2.07213e-06
3.11904e-06
2.50091e-06
2.96208e-06
2.5047e-06
2.76136e-06
2.30013e-06
2.57527e-06
2.01417e-06
2.39639e-06
1.66552e-06
2.18649e-06
1.21381e-06
1.9015e-06
6.11721e-07
1.50585e-06
-1.78766e-07
1.01426e-06
-1.2158e-06
4.16414e-07
-2.48835e-06
-3.69792e-06
3.92533e-06
1.40044e-06
4.19796e-06
2.22828e-06
4.13337e-06
2.56929e-06
3.90181e-06
2.53168e-06
3.64463e-06
2.27136e-06
3.42055e-06
1.88959e-06
3.21653e-06
1.41783e-06
2.97697e-06
8.51289e-07
2.61853e-06
1.79675e-07
2.02718e-06
-6.24454e-07
1.15331e-06
-1.61448e-06
-2.54461e-06
4.35238e-06
7.28881e-07
4.95143e-06
1.62923e-06
5.2294e-06
2.29133e-06
5.1996e-06
2.56148e-06
4.99599e-06
2.47497e-06
4.74444e-06
2.14114e-06
4.5041e-06
1.65817e-06
4.26216e-06
1.09322e-06
3.94719e-06
4.94642e-07
3.39034e-06
-6.75992e-08
2.24158e-06
-4.65723e-07
-3.03032e-07
7.9283e-09
-7.92832e-09
2.15889e-07
-2.0796e-07
5.49923e-07
-3.34034e-07
9.0062e-07
-3.50697e-07
1.19442e-06
-2.93803e-07
1.39096e-06
-1.96535e-07
1.47264e-06
-8.16775e-08
1.45199e-06
2.06473e-08
1.35617e-06
9.58143e-08
1.22765e-06
1.28521e-07
1.10747e-06
1.2018e-07
1.03608e-07
1.00386e-06
1.23262e-07
-1.31191e-07
4.41124e-07
-5.25822e-07
8.1858e-07
-7.1149e-07
1.16443e-06
-6.96548e-07
1.43491e-06
-5.64278e-07
1.61453e-06
-3.76157e-07
1.7059e-06
-1.73049e-07
1.70191e-06
2.4632e-08
1.60711e-06
1.90615e-07
1.44498e-06
2.90653e-07
1.20743e-06
3.57728e-07
4.82354e-07
8.28688e-07
1.99626e-07
-3.30817e-07
5.39837e-07
-8.66033e-07
8.39301e-07
-1.01095e-06
1.07239e-06
-9.29635e-07
1.2477e-06
-7.39594e-07
1.37016e-06
-4.98612e-07
1.4296e-06
-2.32489e-07
1.41376e-06
4.04727e-08
1.32455e-06
2.79825e-07
1.13448e-06
4.80726e-07
7.70914e-07
7.2129e-07
1.08775e-06
1.65514e-07
1.79256e-07
-5.10073e-07
3.78692e-07
-1.06547e-06
4.96375e-07
-1.12864e-06
5.85721e-07
-1.01898e-06
6.79067e-07
-8.32941e-07
7.77348e-07
-5.96893e-07
8.70179e-07
-3.2532e-07
9.38432e-07
-2.77805e-08
9.36235e-07
2.82022e-07
7.70756e-07
6.46206e-07
3.46498e-07
1.14555e-06
1.73266e-06
-2.98412e-07
5.29158e-08
-5.62989e-07
1.27853e-08
-1.02534e-06
-6.36425e-08
-1.05221e-06
-8.14162e-08
-1.00121e-06
-1.46686e-08
-8.99688e-07
1.25477e-07
-7.37039e-07
3.03139e-07
-5.02982e-07
4.77802e-07
-2.02444e-07
5.80858e-07
1.78966e-07
4.76191e-07
7.50873e-07
1.06437e-07
1.5153e-06
2.22733e-06
-3.88225e-07
-1.70226e-07
-3.92763e-07
-4.67531e-07
-7.28034e-07
-7.28883e-07
-7.90856e-07
-8.57727e-07
-8.72363e-07
-8.11559e-07
-9.45857e-07
-5.97878e-07
-9.50719e-07
-2.77452e-07
-8.23408e-07
5.36955e-08
-5.33592e-07
2.87795e-07
-5.51331e-08
3.09839e-07
7.28829e-07
1.15763e-07
1.70938e-06
2.47795e-06
-1.34864e-07
-4.0119e-07
8.42731e-09
-9.23919e-07
-2.05305e-07
-1.37424e-06
-3.40535e-07
-1.64539e-06
-6.01213e-07
-1.66282e-06
-9.28428e-07
-1.40914e-06
-1.2044e-06
-9.3824e-07
-1.29431e-06
-3.8303e-07
-1.0888e-06
6.37601e-08
-5.01923e-07
3.1172e-07
4.80868e-07
3.7958e-07
1.64152e-06
2.47772e-06
3.79809e-07
-5.39234e-07
5.47661e-07
-1.17686e-06
4.32319e-07
-1.7264e-06
2.09004e-07
-2.0845e-06
-2.4311e-07
-2.18414e-06
-8.28793e-07
-1.99536e-06
-1.39318e-06
-1.52483e-06
-1.76484e-06
-8.3723e-07
-1.7764e-06
-8.92142e-08
-1.24994e-06
4.87322e-07
-9.56676e-08
8.62724e-07
1.26611e-06
2.2556e-06
1.08484e-06
-4.8933e-07
1.03699e-06
-1.01558e-06
9.5857e-07
-1.409e-06
6.02426e-07
-1.62346e-06
-2.86493e-08
-1.66765e-06
-7.84605e-07
-1.5679e-06
-1.49293e-06
-1.32062e-06
-2.01212e-06
-8.70967e-07
-2.22605e-06
-1.43411e-07
-1.97749e-06
7.35202e-07
-9.74281e-07
1.46995e-06
5.31364e-07
1.80289e-06
1.92267e-06
-2.97585e-07
1.33458e-06
-4.36918e-07
1.0979e-06
-3.42378e-07
5.07887e-07
-1.41121e-07
-2.29907e-07
5.75679e-08
-9.83294e-07
1.89625e-07
-1.62499e-06
2.3468e-07
-2.05718e-06
2.44916e-07
-2.23628e-06
4.11676e-07
-2.14425e-06
1.04444e-06
-1.60705e-06
1.97935e-06
-4.03545e-07
1.046e-06
2.73624e-06
1.33195e-07
1.20138e-06
6.04945e-07
6.26152e-07
1.22025e-06
-1.0742e-07
1.81557e-06
-8.25226e-07
2.25491e-06
-1.42263e-06
2.49009e-06
-1.86018e-06
2.51225e-06
-2.07933e-06
2.34129e-06
-2.06532e-06
2.05257e-06
-1.85554e-06
1.9513e-06
-1.50578e-06
2.41962e-06
-8.7187e-07
2.11189e-07
3.25443e-06
1.35033e-06
-1.48945e-07
2.48719e-06
-5.10715e-07
3.28483e-06
-9.05056e-07
3.8474e-06
-1.3878e-06
4.21811e-06
-1.79334e-06
4.40159e-06
-2.04366e-06
4.41173e-06
-2.08947e-06
4.26672e-06
-1.92031e-06
3.97911e-06
-1.56793e-06
3.59102e-06
-1.11769e-06
3.37887e-06
-6.59719e-07
3.68123e-06
-9.11672e-08
8.7115e-07
1.32714e-07
6.60099e-07
2.11051e-07
4.02013e-07
2.58086e-07
1.95741e-07
2.06272e-07
1.31168e-07
6.45733e-08
2.31931e-07
-1.00763e-07
5.01544e-07
-2.69613e-07
7.8681e-07
-2.85267e-07
9.26977e-07
-1.40167e-07
7.99907e-07
1.2707e-07
4.10215e-07
3.89693e-07
4.10215e-07
2.61941e-07
6.99462e-07
-3.66888e-07
8.39879e-07
-8.65708e-07
7.56906e-07
-1.15114e-06
4.917e-07
-1.21929e-06
1.32727e-07
-1.0826e-06
-2.37452e-07
-8.0617e-07
-5.46043e-07
-3.97842e-07
-6.93595e-07
2.38213e-08
-5.6183e-07
2.69435e-07
-1.18544e-07
2.15849e-07
4.43278e-07
6.26064e-07
-5.66456e-07
1.43143e-06
-1.216e-06
1.48942e-06
-1.716e-06
1.25691e-06
-2.07559e-06
8.51283e-07
-2.28898e-06
3.46118e-07
-2.31824e-06
-2.08186e-07
-2.13091e-06
-7.33375e-07
-1.70686e-06
-1.11764e-06
-1.08336e-06
-1.18534e-06
-4.29849e-07
-7.72052e-07
-3.2469e-08
4.58984e-08
5.93595e-07
-9.39981e-07
2.073e-06
-1.46033e-06
2.00977e-06
-1.8836e-06
1.68018e-06
-2.24436e-06
1.21204e-06
-2.54745e-06
6.49208e-07
-2.76568e-06
1.00499e-08
-2.82469e-06
-6.74366e-07
-2.61703e-06
-1.3253e-06
-2.04427e-06
-1.7581e-06
-1.14583e-06
-1.67049e-06
-2.71338e-07
-8.28594e-07
3.22257e-07
-8.09124e-07
2.4939e-06
-1.12622e-06
2.32687e-06
-1.3958e-06
1.94976e-06
-1.67152e-06
1.48776e-06
-1.99008e-06
9.6776e-07
-2.34586e-06
3.65832e-07
-2.66594e-06
-3.54284e-07
-2.81524e-06
-1.17601e-06
-2.597e-06
-1.97634e-06
-1.83885e-06
-2.42864e-06
-6.86934e-07
-1.98051e-06
-3.64677e-07
-3.23957e-07
2.68299e-06
-4.62037e-07
2.46495e-06
-6.04529e-07
2.09225e-06
-7.98333e-07
1.68156e-06
-1.07037e-06
1.2398e-06
-1.4244e-06
7.19868e-07
-1.8408e-06
6.21094e-08
-2.24246e-06
-7.74341e-07
-2.45273e-06
-1.76607e-06
-2.16431e-06
-2.71706e-06
-1.13999e-06
-3.00482e-06
-1.50467e-06
3.64438e-07
2.69836e-06
3.29497e-07
2.49989e-06
2.5022e-07
2.17152e-06
9.99601e-08
1.83182e-06
-1.30993e-07
1.47075e-06
-4.34057e-07
1.02293e-06
-7.97443e-07
4.25496e-07
-1.21427e-06
-3.57509e-07
-1.63737e-06
-1.34298e-06
-1.83533e-06
-2.5191e-06
-1.29812e-06
-3.54204e-06
-2.80279e-06
1.17584e-06
2.60737e-06
1.17095e-06
2.50479e-06
1.10172e-06
2.24075e-06
9.72627e-07
1.96092e-06
7.78601e-07
1.66477e-06
5.1942e-07
1.28211e-06
2.06526e-07
7.38391e-07
-1.45214e-07
-5.76978e-09
-5.41356e-07
-9.46839e-07
-9.46868e-07
-2.11358e-06
-9.90586e-07
-3.49832e-06
-3.79337e-06
2.09843e-06
2.4316e-06
2.08161e-06
2.52161e-06
1.97569e-06
2.34667e-06
1.83757e-06
2.09904e-06
1.67397e-06
1.82837e-06
1.46853e-06
1.48756e-06
1.20139e-06
1.00553e-06
8.66732e-07
3.28889e-07
4.92192e-07
-5.72299e-07
8.48179e-08
-1.70621e-06
-3.26833e-07
-3.08667e-06
-4.12021e-06
3.09814e-06
2.0697e-06
3.12127e-06
2.49848e-06
2.96513e-06
2.50281e-06
2.76509e-06
2.29908e-06
2.5794e-06
2.01407e-06
2.4006e-06
1.66635e-06
2.19059e-06
1.21554e-06
1.90515e-06
6.14337e-07
1.50881e-06
-1.75963e-07
1.01646e-06
-1.21386e-06
4.18023e-07
-2.48823e-06
-3.70218e-06
3.92591e-06
1.39822e-06
4.19868e-06
2.22571e-06
4.13462e-06
2.56688e-06
3.9038e-06
2.52989e-06
3.64734e-06
2.27053e-06
3.42377e-06
1.88992e-06
3.21991e-06
1.4194e-06
2.98029e-06
8.53953e-07
2.62141e-06
1.8292e-07
2.02949e-06
-6.21938e-07
1.15532e-06
-1.61406e-06
-2.54687e-06
4.35261e-06
7.26831e-07
4.95134e-06
1.62699e-06
5.22906e-06
2.28915e-06
5.19928e-06
2.55967e-06
4.99591e-06
2.47389e-06
4.74473e-06
2.14111e-06
4.50476e-06
1.65937e-06
4.26314e-06
1.09557e-06
3.94834e-06
4.9772e-07
3.39172e-06
-6.53204e-08
2.24286e-06
-4.65193e-07
-3.04008e-07
7.63328e-09
-7.63335e-09
2.1526e-07
-2.07627e-07
5.49223e-07
-3.33963e-07
8.99967e-07
-3.50745e-07
1.19381e-06
-2.9384e-07
1.39028e-06
-1.96477e-07
1.47179e-06
-8.15028e-08
1.45099e-06
2.08014e-08
1.3552e-06
9.57822e-08
1.22703e-06
1.28175e-07
1.10742e-06
1.19612e-07
1.03264e-07
1.00415e-06
1.22891e-07
-1.30524e-07
4.40509e-07
-5.25246e-07
8.17864e-07
-7.11317e-07
1.16369e-06
-6.9657e-07
1.43411e-06
-5.64258e-07
1.61356e-06
-3.75929e-07
1.70464e-06
-1.72587e-07
1.70017e-06
2.52705e-08
1.60512e-06
1.90832e-07
1.44299e-06
2.90305e-07
1.20533e-06
3.57274e-07
4.82986e-07
8.25608e-07
1.99241e-07
-3.29765e-07
5.39327e-07
-8.65332e-07
8.38821e-07
-1.01081e-06
1.07195e-06
-9.29703e-07
1.24723e-06
-7.39533e-07
1.36948e-06
-4.98184e-07
1.4283e-06
-2.31405e-07
1.4118e-06
4.17753e-08
1.32197e-06
2.80655e-07
1.13132e-06
4.80965e-07
7.66533e-07
7.22055e-07
1.08984e-06
1.59677e-07
1.79043e-07
-5.08808e-07
3.78541e-07
-1.06483e-06
4.96402e-07
-1.12867e-06
5.8581e-07
-1.01911e-06
6.79021e-07
-8.32744e-07
7.76996e-07
-5.96159e-07
8.69171e-07
-3.23579e-07
9.36671e-07
-2.57256e-08
9.3367e-07
2.83657e-07
7.66944e-07
6.4769e-07
3.40906e-07
1.14809e-06
1.73513e-06
-3.04382e-07
5.2917e-08
-5.61725e-07
1.31348e-08
-1.02505e-06
-6.29441e-08
-1.05259e-06
-8.05875e-08
-1.00147e-06
-1.39999e-08
-8.99332e-07
1.25685e-07
-7.35844e-07
3.02943e-07
-5.00837e-07
4.76311e-07
-1.99094e-07
5.7874e-07
1.81228e-07
4.72566e-07
7.53864e-07
1.01279e-07
1.51938e-06
2.22905e-06
-3.92641e-07
-1.70022e-07
-3.91703e-07
-4.6681e-07
-7.28261e-07
-7.27624e-07
-7.91779e-07
-8.56027e-07
-8.73064e-07
-8.09708e-07
-9.45651e-07
-5.96355e-07
-9.49198e-07
-2.76606e-07
-8.20586e-07
5.43032e-08
-5.30004e-07
2.87224e-07
-5.1693e-08
3.0774e-07
7.33348e-07
1.12634e-07
1.71449e-06
2.47902e-06
-1.37333e-07
-4.0103e-07
9.32675e-09
-9.23348e-07
-2.05943e-07
-1.37321e-06
-3.41916e-07
-1.64373e-06
-6.02546e-07
-1.66035e-06
-9.29032e-07
-1.40597e-06
-1.20357e-06
-9.34968e-07
-1.29159e-06
-3.80357e-07
-1.08462e-06
6.53539e-08
-4.97404e-07
3.12215e-07
4.86486e-07
3.79275e-07
1.64743e-06
2.47926e-06
3.79035e-07
-5.39244e-07
5.48571e-07
-1.17718e-06
4.31991e-07
-1.72717e-06
2.08076e-07
-2.08532e-06
-2.44396e-07
-2.18417e-06
-8.30184e-07
-1.99384e-06
-1.39391e-06
-1.52155e-06
-1.76387e-06
-8.32926e-07
-1.77324e-06
-8.55356e-08
-1.24479e-06
4.90417e-07
-8.94664e-08
8.65086e-07
1.27276e-06
2.25876e-06
1.08558e-06
-4.89676e-07
1.03825e-06
-1.01701e-06
9.59321e-07
-1.41217e-06
6.0324e-07
-1.62779e-06
-2.87744e-08
-1.67199e-06
-7.85986e-07
-1.57093e-06
-1.49497e-06
-1.32132e-06
-2.01348e-06
-8.69039e-07
-2.22553e-06
-1.39144e-07
-1.97469e-06
7.3998e-07
-9.6859e-07
1.47418e-06
5.38559e-07
1.80803e-06
1.92491e-06
-2.9763e-07
1.33588e-06
-4.38225e-07
1.09992e-06
-3.45854e-07
5.10869e-07
-1.46133e-07
-2.28496e-07
5.2294e-08
-9.84413e-07
1.84731e-07
-1.62741e-06
2.30729e-07
-2.05947e-06
2.42723e-07
-2.23752e-06
4.12204e-07
-2.14417e-06
1.048e-06
-1.60439e-06
1.98423e-06
-3.97669e-07
1.05239e-06
2.73987e-06
1.34342e-07
1.20153e-06
6.04686e-07
6.29572e-07
1.21853e-06
-1.02976e-07
1.81353e-06
-8.2349e-07
2.2526e-06
-1.42349e-06
2.48748e-06
-1.86229e-06
2.50928e-06
-2.08128e-06
2.33812e-06
-2.06636e-06
2.04972e-06
-1.85577e-06
1.95069e-06
-1.50536e-06
2.4225e-06
-8.69472e-07
2.16213e-07
3.25867e-06
1.35093e-06
-1.49399e-07
2.48713e-06
-5.06625e-07
3.28544e-06
-9.01283e-07
3.84797e-06
-1.38602e-06
4.21802e-06
-1.79353e-06
4.40068e-06
-2.04495e-06
4.41023e-06
-2.09083e-06
4.26492e-06
-1.92105e-06
3.97694e-06
-1.56779e-06
3.58864e-06
-1.11707e-06
3.37811e-06
-6.58946e-07
3.68347e-06
-8.91423e-08
8.71077e-07
1.33075e-07
6.59249e-07
2.11828e-07
4.00323e-07
2.58926e-07
1.9336e-07
2.06963e-07
1.28201e-07
6.51583e-08
2.27767e-07
-9.95657e-08
4.96801e-07
-2.69034e-07
7.82047e-07
-2.85246e-07
9.23085e-07
-1.41038e-07
7.97335e-07
1.25749e-07
4.09188e-07
3.88147e-07
4.09188e-07
2.57624e-07
7.01059e-07
-3.71364e-07
8.40817e-07
-8.69499e-07
7.57061e-07
-1.15438e-06
4.91846e-07
-1.22247e-06
1.33251e-07
-1.08543e-06
-2.36613e-07
-8.09337e-07
-5.45125e-07
-4.01286e-07
-6.93297e-07
2.05421e-08
-5.62866e-07
2.67327e-07
-1.21035e-07
2.15082e-07
4.40392e-07
6.2427e-07
-5.71849e-07
1.43258e-06
-1.21941e-06
1.48838e-06
-1.71731e-06
1.25497e-06
-2.0752e-06
8.49734e-07
-2.28752e-06
3.45566e-07
-2.31649e-06
-2.07643e-07
-2.1295e-06
-7.32113e-07
-1.70628e-06
-1.11651e-06
-1.08364e-06
-1.18551e-06
-4.30411e-07
-7.74266e-07
-3.24686e-08
4.24492e-08
5.91801e-07
-9.43678e-07
2.07188e-06
-1.46096e-06
2.00566e-06
-1.88142e-06
1.67542e-06
-2.23997e-06
1.20828e-06
-2.5417e-06
6.47295e-07
-2.7595e-06
1.01585e-08
-2.81887e-06
-6.72748e-07
-2.61235e-06
-1.32303e-06
-2.04137e-06
-1.75649e-06
-1.1448e-06
-1.67084e-06
-2.71355e-07
-8.30992e-07
3.20447e-07
-8.10985e-07
2.49023e-06
-1.12537e-06
2.32005e-06
-1.39275e-06
1.9428e-06
-1.66693e-06
1.48247e-06
-1.9845e-06
9.64863e-07
-2.33966e-06
3.65323e-07
-2.6596e-06
-3.52809e-07
-2.80936e-06
-1.17327e-06
-2.5924e-06
-1.97345e-06
-1.83634e-06
-2.4269e-06
-6.86507e-07
-1.98083e-06
-3.6606e-07
-3.25029e-07
2.67792e-06
-4.61836e-07
2.45686e-06
-6.03527e-07
2.08449e-06
-7.96931e-07
1.67587e-06
-1.06869e-06
1.23662e-06
-1.42234e-06
7.18971e-07
-1.83826e-06
6.31111e-08
-2.23948e-06
-7.72051e-07
-2.44967e-06
-1.76325e-06
-2.16199e-06
-2.71457e-06
-1.13911e-06
-3.00372e-06
-1.50517e-06
3.63112e-07
2.69384e-06
3.27593e-07
2.49238e-06
2.47798e-07
2.16428e-06
9.72143e-08
1.82646e-06
-1.33705e-07
1.46754e-06
-4.36419e-07
1.02168e-06
-7.99338e-07
4.2603e-07
-1.21562e-06
-3.55765e-07
-1.63804e-06
-1.34084e-06
-1.83543e-06
-2.51718e-06
-1.29808e-06
-3.54107e-06
-2.80325e-06
1.17414e-06
2.60529e-06
1.16696e-06
2.49956e-06
1.09619e-06
2.23505e-06
9.66454e-07
1.95619e-06
7.72567e-07
1.66142e-06
5.14055e-07
1.2802e-06
2.01871e-07
7.38215e-07
-1.49117e-07
-4.77737e-09
-5.44653e-07
-9.45299e-07
-9.49472e-07
-2.11236e-06
-9.92187e-07
-3.49836e-06
-3.79543e-06
2.0973e-06
2.4329e-06
2.07702e-06
2.51984e-06
1.96862e-06
2.34344e-06
1.82942e-06
2.09539e-06
1.66592e-06
1.82492e-06
1.46124e-06
1.48488e-06
1.19532e-06
1.00413e-06
8.6185e-07
3.28691e-07
4.88265e-07
-5.71715e-07
8.17028e-08
-1.7058e-06
-3.29088e-07
-3.08756e-06
-4.12452e-06
3.0987e-06
2.07407e-06
3.1182e-06
2.50034e-06
2.95898e-06
2.50266e-06
2.75705e-06
2.29732e-06
2.57086e-06
2.01112e-06
2.39279e-06
1.66295e-06
2.1843e-06
1.21261e-06
1.90054e-06
6.12454e-07
1.50555e-06
-1.76723e-07
1.01417e-06
-1.21442e-06
4.16642e-07
-2.49004e-06
-3.70788e-06
3.92872e-06
1.40401e-06
4.19864e-06
2.23043e-06
4.13165e-06
2.56965e-06
3.89858e-06
2.53039e-06
3.64091e-06
2.26878e-06
3.41741e-06
1.88646e-06
3.21479e-06
1.41524e-06
2.97693e-06
8.50312e-07
2.61955e-06
1.80649e-07
2.02841e-06
-6.23275e-07
1.15523e-06
-1.61686e-06
-2.55265e-06
4.3564e-06
7.31081e-07
4.95434e-06
1.63249e-06
5.23006e-06
2.29393e-06
5.19822e-06
2.56223e-06
4.99341e-06
2.47359e-06
4.74166e-06
2.13821e-06
4.502e-06
1.6549e-06
4.26128e-06
1.09104e-06
3.94751e-06
4.94414e-07
3.39138e-06
-6.71386e-08
2.24323e-06
-4.68712e-07
-3.0942e-07
7.84767e-09
-7.84771e-09
2.16253e-07
-2.08405e-07
5.50806e-07
-3.34553e-07
9.01853e-07
-3.51048e-07
1.19575e-06
-2.93892e-07
1.39209e-06
-1.96346e-07
1.47331e-06
-8.12157e-08
1.45209e-06
2.12124e-08
1.35572e-06
9.6379e-08
1.22682e-06
1.28899e-07
1.10651e-06
1.20308e-07
1.03603e-07
1.00291e-06
1.23452e-07
-1.313e-07
4.41756e-07
-5.26708e-07
8.19625e-07
-7.12423e-07
1.16572e-06
-6.97143e-07
1.43626e-06
-5.64434e-07
1.61579e-06
-3.75871e-07
1.70696e-06
-1.72383e-07
1.70237e-06
2.58016e-08
1.60698e-06
1.91764e-07
1.44423e-06
2.91653e-07
1.20609e-06
3.58449e-07
4.83073e-07
8.26615e-07
1.99949e-07
-3.31249e-07
5.40451e-07
-8.6721e-07
8.40114e-07
-1.01209e-06
1.07335e-06
-9.30381e-07
1.24878e-06
-7.39864e-07
1.37124e-06
-4.98331e-07
1.43026e-06
-2.31406e-07
1.41396e-06
4.2109e-08
1.32409e-06
2.81627e-07
1.13337e-06
4.82378e-07
7.68978e-07
7.22839e-07
1.08952e-06
1.62529e-07
1.79585e-07
-5.10834e-07
3.79289e-07
-1.06691e-06
4.97216e-07
-1.13001e-06
5.86828e-07
-1.01999e-06
6.804e-07
-8.33436e-07
7.7879e-07
-5.96721e-07
8.71325e-07
-3.23941e-07
9.39017e-07
-2.55836e-08
9.36036e-07
2.84608e-07
7.69587e-07
6.48828e-07
3.44097e-07
1.14833e-06
1.73525e-06
-3.01626e-07
5.34133e-08
-5.64248e-07
1.39014e-08
-1.0274e-06
-6.18799e-08
-1.05423e-06
-7.90761e-08
-1.0028e-06
-1.19799e-08
-9.00532e-07
1.28154e-07
-7.36855e-07
3.05652e-07
-5.0144e-07
4.7901e-07
-1.98941e-07
5.81317e-07
1.823e-07
4.75286e-07
7.54858e-07
1.0394e-07
1.51968e-06
2.23039e-06
-3.91207e-07
-1.69308e-07
-3.9494e-07
-4.65458e-07
-7.31253e-07
-7.25657e-07
-7.94033e-07
-8.53447e-07
-8.75006e-07
-8.06579e-07
-9.47401e-07
-5.92854e-07
-9.50581e-07
-2.73136e-07
-8.21158e-07
5.73464e-08
-5.29423e-07
2.89747e-07
-5.01002e-08
3.09682e-07
7.34923e-07
1.13631e-07
1.71573e-06
2.48171e-06
-1.37687e-07
-4.0005e-07
5.1106e-09
-9.21547e-07
-2.09757e-07
-1.37071e-06
-3.44875e-07
-1.64055e-06
-6.0516e-07
-1.65645e-06
-9.31502e-07
-1.40141e-06
-1.20563e-06
-9.30211e-07
-1.29235e-06
-3.76419e-07
-1.08322e-06
6.76591e-08
-4.94179e-07
3.12763e-07
4.89818e-07
3.78009e-07
1.65048e-06
2.48301e-06
3.76713e-07
-5.38365e-07
5.43475e-07
-1.17599e-06
4.27873e-07
-1.72574e-06
2.04869e-07
-2.08363e-06
-2.47271e-07
-2.18189e-06
-8.3324e-07
-1.99049e-06
-1.39703e-06
-1.51697e-06
-1.76587e-06
-8.27842e-07
-1.77234e-06
-8.26873e-08
-1.23933e-06
4.89885e-07
-8.27541e-08
8.61607e-07
1.27876e-06
2.26361e-06
1.08101e-06
-4.90069e-07
1.03354e-06
-1.01786e-06
9.55664e-07
-1.41405e-06
6.0106e-07
-1.63055e-06
-3.0769e-08
-1.67517e-06
-7.88622e-07
-1.57353e-06
-1.49867e-06
-1.32225e-06
-2.01715e-06
-8.67484e-07
-2.22711e-06
-1.35748e-07
-1.97107e-06
7.40478e-07
-9.5898e-07
1.46996e-06
5.49272e-07
1.81526e-06
1.91831e-06
-2.99143e-07
1.33269e-06
-4.41457e-07
1.09798e-06
-3.51511e-07
5.11115e-07
-1.53741e-07
-2.28539e-07
4.3728e-08
-9.86092e-07
1.75657e-07
-1.6306e-06
2.21654e-07
-2.06315e-06
2.35064e-07
-2.24052e-06
4.08493e-07
-2.1445e-06
1.0476e-06
-1.59809e-06
1.98155e-06
-3.84682e-07
1.06369e-06
2.73312e-06
1.32525e-07
1.20016e-06
6.00578e-07
6.29925e-07
1.21281e-06
-1.01122e-07
1.80729e-06
-8.23011e-07
2.24569e-06
-1.4245e-06
2.47909e-06
-1.86399e-06
2.49857e-06
-2.08263e-06
2.32491e-06
-2.06686e-06
2.03606e-06
-1.85566e-06
1.94127e-06
-1.5033e-06
2.41792e-06
-8.6133e-07
2.28624e-07
3.25299e-06
1.35119e-06
-1.51029e-07
2.48633e-06
-5.05216e-07
3.28553e-06
-9.00321e-07
3.84856e-06
-1.38604e-06
4.21805e-06
-1.79398e-06
4.39878e-06
-2.04473e-06
4.4052e-06
-2.08905e-06
4.25583e-06
-1.91748e-06
3.96345e-06
-1.56327e-06
3.57312e-06
-1.11298e-06
3.3658e-06
-6.54004e-07
3.67461e-06
-8.01893e-08
8.69987e-07
1.32919e-07
6.58518e-07
2.11469e-07
4.00099e-07
2.58419e-07
1.93834e-07
2.06265e-07
1.29552e-07
6.42815e-08
2.31254e-07
-1.01703e-07
5.0168e-07
-2.70426e-07
7.87587e-07
-2.85907e-07
9.28002e-07
-1.40415e-07
8.0077e-07
1.27232e-07
4.1065e-07
3.9012e-07
4.1065e-07
2.5907e-07
7.00464e-07
-3.69977e-07
8.40515e-07
-8.68322e-07
7.56765e-07
-1.15307e-06
4.91012e-07
-1.22048e-06
1.3169e-07
-1.08344e-06
-2.38742e-07
-8.06253e-07
-5.47612e-07
-3.97149e-07
-6.95011e-07
2.50121e-08
-5.62576e-07
2.705e-07
-1.18256e-07
2.16348e-07
4.44272e-07
6.26998e-07
-5.69706e-07
1.4327e-06
-1.21853e-06
1.48934e-06
-1.71765e-06
1.25589e-06
-2.07661e-06
8.4997e-07
-2.28964e-06
3.44725e-07
-2.31861e-06
-2.0978e-07
-2.13092e-06
-7.35297e-07
-1.70635e-06
-1.11958e-06
-1.0823e-06
-1.18662e-06
-4.2863e-07
-7.7193e-07
-3.18598e-08
4.75019e-08
5.95138e-07
-9.42587e-07
2.07366e-06
-1.46168e-06
2.00844e-06
-1.88387e-06
1.67807e-06
-2.24396e-06
1.21006e-06
-2.54681e-06
6.47575e-07
-2.76507e-06
8.48369e-09
-2.82409e-06
-6.76283e-07
-2.61623e-06
-1.32744e-06
-2.04309e-06
-1.75976e-06
-1.14442e-06
-1.6706e-06
-2.70334e-07
-8.26587e-07
3.24805e-07
-8.11195e-07
2.49365e-06
-1.12699e-06
2.32423e-06
-1.39552e-06
1.94661e-06
-1.67065e-06
1.48519e-06
-1.98892e-06
9.6585e-07
-2.34464e-06
3.64198e-07
-2.66477e-06
-3.56154e-07
-2.81398e-06
-1.17822e-06
-2.59548e-06
-1.97827e-06
-1.83704e-06
-2.42904e-06
-6.85476e-07
-1.97815e-06
-3.60671e-07
-3.26279e-07
2.68224e-06
-4.63456e-07
2.4614e-06
-6.05215e-07
2.08837e-06
-7.98522e-07
1.67849e-06
-1.07015e-06
1.23748e-06
-1.42385e-06
7.17899e-07
-1.84009e-06
6.00857e-08
-2.24156e-06
-7.76754e-07
-2.45144e-06
-1.76839e-06
-2.16247e-06
-2.71801e-06
-1.13827e-06
-3.00235e-06
-1.49894e-06
3.60912e-07
2.69804e-06
3.26193e-07
2.49612e-06
2.47358e-07
2.1672e-06
9.76632e-08
1.82819e-06
-1.32645e-07
1.46779e-06
-4.35073e-07
1.02033e-06
-7.98094e-07
4.23107e-07
-1.21474e-06
-3.60104e-07
-1.63738e-06
-1.34575e-06
-1.83448e-06
-2.52091e-06
-1.29661e-06
-3.54022e-06
-2.79555e-06
1.17027e-06
2.60877e-06
1.1647e-06
2.50169e-06
1.09572e-06
2.23619e-06
9.67492e-07
1.95642e-06
7.74602e-07
1.66068e-06
5.16519e-07
1.27841e-06
2.04334e-07
7.35291e-07
-1.47009e-07
-8.76098e-09
-5.4287e-07
-9.49894e-07
-9.47687e-07
-2.11609e-06
-9.89914e-07
-3.498e-06
-3.78546e-06
2.09096e-06
2.43613e-06
2.07251e-06
2.52014e-06
1.96652e-06
2.34217e-06
1.82953e-06
2.0934e-06
1.66759e-06
1.82262e-06
1.46366e-06
1.48234e-06
1.19784e-06
1.00112e-06
8.6393e-07
3.25147e-07
4.89911e-07
-5.75875e-07
8.28365e-08
-1.70902e-06
-3.27533e-07
-3.08763e-06
-4.113e-06
3.09027e-06
2.07898e-06
3.11088e-06
2.49952e-06
2.95433e-06
2.49873e-06
2.75531e-06
2.29242e-06
2.57133e-06
2.00661e-06
2.39434e-06
1.65933e-06
2.1859e-06
1.20956e-06
1.90177e-06
6.09276e-07
1.50622e-06
-1.8033e-07
1.01427e-06
-1.21706e-06
4.16133e-07
-2.48949e-06
-3.69686e-06
3.91983e-06
1.41214e-06
4.18931e-06
2.23004e-06
4.12519e-06
2.56284e-06
3.89614e-06
2.52148e-06
3.6414e-06
2.26134e-06
3.41905e-06
1.88168e-06
3.21624e-06
1.41238e-06
2.97746e-06
8.48052e-07
2.61919e-06
1.77945e-07
2.02754e-06
-6.25416e-07
1.15289e-06
-1.61484e-06
-2.54398e-06
4.34625e-06
7.40496e-07
4.94223e-06
1.63406e-06
5.22056e-06
2.28452e-06
5.19518e-06
2.54686e-06
4.99605e-06
2.46047e-06
4.74667e-06
2.13106e-06
4.50666e-06
1.65238e-06
4.26434e-06
1.09037e-06
3.94875e-06
4.93537e-07
3.39119e-06
-6.78513e-08
2.24164e-06
-4.65296e-07
-3.02332e-07
4.67459e-06
-2.91427e-07
-4.5327e-06
4.90598e-06
-7.48241e-07
5.20392e-06
-1.20983e-06
5.45096e-06
-1.63805e-06
5.61978e-06
-1.96209e-06
5.691e-06
-2.11258e-06
5.65599e-06
-2.0513e-06
5.5252e-06
-1.78655e-06
5.32686e-06
-1.36727e-06
5.07185e-06
-8.60934e-07
4.76402e-06
-3.50333e-07
1.03918e-07
4.57069e-06
6.35503e-06
-3.55368e-07
-6.29109e-06
6.45007e-06
-8.43288e-07
6.57094e-06
-1.3307e-06
6.67224e-06
-1.73935e-06
6.72374e-06
-2.01359e-06
6.70515e-06
-2.09399e-06
6.6083e-06
-1.95445e-06
6.44504e-06
-1.6233e-06
6.24854e-06
-1.17077e-06
6.06101e-06
-6.73402e-07
5.87748e-06
-1.66803e-07
3.00017e-07
5.68138e-06
7.65071e-06
-4.29097e-07
-7.57698e-06
7.77157e-06
-9.64152e-07
7.87215e-06
-1.43128e-06
7.90746e-06
-1.77466e-06
7.86603e-06
-1.97217e-06
7.75214e-06
-1.9801e-06
7.57782e-06
-1.78013e-06
7.36569e-06
-1.41116e-06
7.14728e-06
-9.52359e-07
6.96042e-06
-4.86546e-07
6.81166e-06
-1.80439e-08
4.21546e-07
6.69013e-06
8.71417e-06
-8.5537e-06
8.9278e-06
9.06254e-06
9.04509e-06
8.89223e-06
8.65485e-06
8.38161e-06
8.11169e-06
7.88208e-06
7.72889e-06
7.61852e-06
7.54259e-06
4.76051e-06
5.39065e-07
5.28707e-06
1.10267e-06
5.84393e-06
1.73446e-06
6.19404e-06
2.21137e-06
6.29165e-06
2.37736e-06
6.20842e-06
2.22437e-06
6.03059e-06
1.836e-06
5.80204e-06
1.32177e-06
5.51368e-06