/*--------------------------------*- C++ -*----------------------------------*\
| =========                 |                                                 |
| \\      /  F ield         | OpenFOAM: The Open Source CFD Toolbox           |
|  \\    /   O peration     | Version:  2.3.1                                 |
|   \\  /    A nd           | Web:      www.OpenFOAM.org                      |
|    \\/     M anipulation  |                                                 |
\*---------------------------------------------------------------------------*/
FoamFile
{
    version     2.0;
    format      ascii;
    class       volScalarField;
    location    "0.58";
    object      nut;
}
// * * * * * * * * * * * * * * * * * * * * * * * * * * * * * * * * * * * * * //

dimensions      [0 2 -1 0 0 0 0];

internalField   nonuniform List<scalar> 
15166
(
9.72508e-05
0.000157291
0.000262282
0.000376486
0.000476701
0.000591353
0.000709538
0.000837762
0.000957393
0.00108042
0.00119717
0.00129734
9.72691e-05
0.000171224
0.000283018
0.000397062
0.000500877
0.000614525
0.000731381
0.000854752
0.000972047
0.00109056
0.00120297
0.00130396
9.76326e-05
0.000182557
0.000299296
0.000414038
0.000520728
0.000633748
0.000749312
0.000868942
0.000984028
0.00109873
0.00120757
0.00130836
9.8106e-05
0.000192708
0.000313178
0.000428675
0.000537407
0.000649863
0.000764153
0.000880792
0.00099375
0.00110518
0.00121101
0.00131165
9.8611e-05
0.000201888
0.000325458
0.000441671
0.000551763
0.000663618
0.000776594
0.000890718
0.00100163
0.00111017
0.0012135
0.00131355
9.91577e-05
0.000210144
0.000336474
0.000453336
0.000564308
0.000675479
0.000787129
0.000899056
0.00100797
0.00111395
0.00121505
0.00131438
9.974e-05
0.000217565
0.000346481
0.000463902
0.000575346
0.000685794
0.000796118
0.000906049
0.00101303
0.00111668
0.00121578
0.00131482
0.000100357
0.000224234
0.000355685
0.000473532
0.000585155
0.000694825
0.000803834
0.000911922
0.00101705
0.00111857
0.00121604
0.0013154
0.000100988
0.000230217
0.000364234
0.000482416
0.000593963
0.000702794
0.000810498
0.000916866
0.0010202
0.00111978
0.00121583
0.00131513
0.000101631
0.000235553
0.000372221
0.000490649
0.000601943
0.00070989
0.000816289
0.000921013
0.00102263
0.00112044
0.00121529
0.00131437
0.00010228
0.000240295
0.000379709
0.000498326
0.000609211
0.00071624
0.000821347
0.000924494
0.00102447
0.00112069
0.00121467
0.0013146
0.000102928
0.000244474
0.000386735
0.000505518
0.000615875
0.000721956
0.000825783
0.000927414
0.00102582
0.00112064
0.00121396
0.00131398
0.000103572
0.000248134
0.000393336
0.000512264
0.000622027
0.000727134
0.000829688
0.000929854
0.00102678
0.00112033
0.00121305
0.00131233
0.000104208
0.000251334
0.000399534
0.000518614
0.000627723
0.000731831
0.000833139
0.000931884
0.0010274
0.00111979
0.00121171
0.00130981
0.000104839
0.000254085
0.000405345
0.000524613
0.000633021
0.000736126
0.000836196
0.000933578
0.00102775
0.00111904
0.00121024
0.0013076
0.000105454
0.00025644
0.000410767
0.000530277
0.000637965
0.000740052
0.000838905
0.00093496
0.00102787
0.00111813
0.00120859
0.00130469
0.000106059
0.00025842
0.000415806
0.000535632
0.000642594
0.000743661
0.000841316
0.000936096
0.00102779
0.00111705
0.00120673
0.00130178
0.000106645
0.000260072
0.000420484
0.000540706
0.00064695
0.000746999
0.000843475
0.000936996
0.00102753
0.00111583
0.00120467
0.0012984
0.000107214
0.000261429
0.000424793
0.000545501
0.000651038
0.000750074
0.000845387
0.000937714
0.00102712
0.0011145
0.00120249
0.00129507
0.000107768
0.000262507
0.000428752
0.000550032
0.000654901
0.000752927
0.000847105
0.000938255
0.00102659
0.00111304
0.00120021
0.00129176
0.000108308
0.000263348
0.000432355
0.000554309
0.000658536
0.000755575
0.000848631
0.000938641
0.00102592
0.00111149
0.00119776
0.00128798
0.000108829
0.00026396
0.000435611
0.000558346
0.000661978
0.000758031
0.000849989
0.00093889
0.00102516
0.00110983
0.00119515
0.00128409
0.000109323
0.000264384
0.000438537
0.000562132
0.000665224
0.000760323
0.000851205
0.000939026
0.0010243
0.00110807
0.00119247
0.00128101
0.00010981
0.000264631
0.000441134
0.000565684
0.000668293
0.000762463
0.000852293
0.000939061
0.00102336
0.00110622
0.00118969
0.00127737
0.00011027
0.000264716
0.000443411
0.000569015
0.000671195
0.000764465
0.000853256
0.00093899
0.00102233
0.0011043
0.0011869
0.00127435
0.000110714
0.000264671
0.000445379
0.000572118
0.000673938
0.000766329
0.000854108
0.000938836
0.00102123
0.00110231
0.00118407
0.00127085
0.000111142
0.000264499
0.000447047
0.000574984
0.000676526
0.000768075
0.000854865
0.0009386
0.00102006
0.00110028
0.0011813
0.00126811
0.000111547
0.000264233
0.000448443
0.00057763
0.000678957
0.000769702
0.000855533
0.000938291
0.00101884
0.00109822
0.00117862
0.00126557
0.000111933
0.000263867
0.000449555
0.000580067
0.000681244
0.000771223
0.000856107
0.000937922
0.00101757
0.00109614
0.00117592
0.0012622
0.000112298
0.000263404
0.000450418
0.000582278
0.00068339
0.000772638
0.000856607
0.000937484
0.00101625
0.00109404
0.00117325
0.00125941
0.00011264
0.000262891
0.000451019
0.000584275
0.00068539
0.000773959
0.000857032
0.000936999
0.0010149
0.00109194
0.00117054
0.001256
0.000112972
0.000262305
0.000451399
0.000586053
0.000687254
0.000775183
0.000857394
0.000936456
0.00101352
0.00108982
0.00116786
0.00125313
0.000113291
0.000261665
0.000451547
0.000587636
0.000688985
0.00077632
0.000857683
0.000935876
0.00101212
0.00108769
0.00116514
0.00124955
0.000113578
0.000260992
0.0004515
0.000589007
0.000690575
0.000777367
0.000857918
0.000935254
0.00101069
0.00108555
0.00116243
0.0012465
0.000113854
0.000260282
0.000451249
0.000590189
0.000692036
0.000778325
0.000858095
0.000934593
0.00100923
0.0010834
0.00115969
0.00124289
0.000114121
0.000259543
0.000450831
0.000591157
0.000693359
0.000779205
0.000858222
0.000933897
0.00100776
0.00108125
0.00115698
0.00124013
0.000114355
0.000258776
0.000450231
0.000591945
0.000694553
0.000779999
0.000858287
0.00093316
0.00100626
0.0010791
0.00115435
0.00123765
0.000114583
0.000257992
0.000449476
0.000592538
0.000695612
0.000780717
0.000858309
0.0009324
0.00100476
0.00107695
0.00115172
0.00123436
0.00011479
0.000257195
0.000448578
0.000592951
0.000696545
0.000781345
0.000858281
0.000931615
0.00100324
0.00107481
0.00114908
0.00123118
0.000114977
0.00025639
0.00044755
0.000593191
0.000697355
0.000781909
0.000858207
0.000930798
0.00100172
0.00107267
0.00114645
0.00122783
0.000115156
0.000255567
0.000446398
0.000593254
0.000698033
0.000782385
0.000858087
0.000929963
0.00100018
0.00107052
0.00114369
0.00122398
0.000115309
0.000254663
0.000445112
0.000593152
0.000698582
0.000782788
0.000857923
0.0009291
0.000998637
0.00106836
0.00114093
0.00122121
0.000115455
0.000253729
0.00044373
0.000592893
0.000699009
0.000783113
0.000857715
0.000928221
0.000997085
0.00106618
0.00113817
0.00121785
0.000115575
0.00025273
0.000442204
0.000592469
0.000699309
0.000783357
0.000857463
0.000927315
0.000995517
0.001064
0.00113544
0.00121513
0.000115677
0.000251727
0.000440515
0.000591895
0.000699489
0.000783523
0.000857169
0.000926389
0.000993942
0.00106182
0.00113271
0.00121169
0.00011577
0.000250761
0.000438702
0.000591147
0.00069954
0.000783617
0.000856839
0.000925443
0.000992359
0.00105963
0.00113002
0.00120917
0.000115848
0.000249741
0.000436798
0.000590193
0.000699443
0.000783632
0.00085646
0.000924477
0.000990763
0.00105745
0.00112735
0.00120582
0.000115903
0.000248752
0.000434799
0.000589102
0.000699213
0.000783558
0.000856035
0.000923492
0.000989162
0.00105527
0.0011247
0.00120323
0.000115947
0.000247766
0.000432761
0.000587842
0.000698845
0.000783404
0.000855571
0.000922477
0.000987552
0.00105309
0.00112207
0.00120004
0.000115979
0.000246785
0.000430614
0.000586435
0.000698349
0.000783153
0.000855057
0.000921446
0.000985929
0.00105091
0.00111946
0.00119747
0.000115999
0.000245847
0.00042841
0.000584889
0.000697727
0.00078283
0.000854496
0.000920393
0.000984305
0.00104874
0.00111681
0.0011939
0.000116003
0.00024487
0.000426152
0.000583188
0.000696963
0.000782404
0.000853884
0.000919312
0.000982671
0.00104658
0.00111418
0.00119057
0.000115992
0.000243947
0.000423852
0.000581381
0.000696073
0.000781896
0.000853223
0.000918215
0.000981034
0.00104442
0.00111158
0.00118829
0.000115973
0.000243028
0.000421514
0.000579431
0.000695045
0.000781301
0.000852517
0.000917095
0.000979392
0.00104227
0.00110903
0.00118558
0.000115933
0.000242119
0.000419144
0.000577366
0.000693894
0.00078061
0.000851757
0.000915951
0.000977745
0.00104013
0.00110652
0.00118292
0.000115878
0.000241216
0.000416746
0.000575192
0.000692618
0.000779821
0.000850941
0.000914782
0.000976094
0.00103799
0.001104
0.00117959
0.000115818
0.000240368
0.000414333
0.000572915
0.000691208
0.000778944
0.000850076
0.000913589
0.000974435
0.00103588
0.00110149
0.00117672
0.000115742
0.000239486
0.000411902
0.00057052
0.000689678
0.000777975
0.000849145
0.000912369
0.000972779
0.00103377
0.00109893
0.00117304
0.000115648
0.000238657
0.000409458
0.000568034
0.000688016
0.000776896
0.000848169
0.00091113
0.000971119
0.00103167
0.00109643
0.00117112
0.000115553
0.000237842
0.000407042
0.000565487
0.000686255
0.000775734
0.000847123
0.000909853
0.000969442
0.00102955
0.00109393
0.00116836
0.000115438
0.000237063
0.000404584
0.000562836
0.000684364
0.000774467
0.000846019
0.000908551
0.000967763
0.00102745
0.00109144
0.00116528
0.000115308
0.00023626
0.000402126
0.000560107
0.000682346
0.000773096
0.000844848
0.000907211
0.000966071
0.00102536
0.00108894
0.00116184
0.000115168
0.000235508
0.000399676
0.000557311
0.000680237
0.000771631
0.000843611
0.000905845
0.00096437
0.00102327
0.00108645
0.00115892
0.00011502
0.00023477
0.000397264
0.00055443
0.000678006
0.000770062
0.000842314
0.000904444
0.000962666
0.00102118
0.00108392
0.00115548
0.000114857
0.000234074
0.00039483
0.000551515
0.000675673
0.000768399
0.000840945
0.000903008
0.000960945
0.00101909
0.00108139
0.00115266
0.000114689
0.000233386
0.000392437
0.000548545
0.000673226
0.00076664
0.000839505
0.00090154
0.000959216
0.00101699
0.00107886
0.00114941
0.000114484
0.000232688
0.000390054
0.000545504
0.000670694
0.000764774
0.000838001
0.000900029
0.000957464
0.00101489
0.00107634
0.00114677
0.000114311
0.000232046
0.000387702
0.000542437
0.000668064
0.000762814
0.000836426
0.000898478
0.0009557
0.00101278
0.0010738
0.0011435
0.000114091
0.000231424
0.000385362
0.000539332
0.000665328
0.00076075
0.000834772
0.000896883
0.00095391
0.00101067
0.00107127
0.00114056
0.00011385
0.000230819
0.000383046
0.000536185
0.000662522
0.000758601
0.000833042
0.000895246
0.000952108
0.00100855
0.00106872
0.00113719
0.000113623
0.000230208
0.000380767
0.000532991
0.000659613
0.00075635
0.000831243
0.000893557
0.000950278
0.00100641
0.00106617
0.00113429
0.000113378
0.000229693
0.000378498
0.000529785
0.00065663
0.000753991
0.000829367
0.000891822
0.000948424
0.00100426
0.00106359
0.00113083
0.000113124
0.000229114
0.000376306
0.000526595
0.000653579
0.000751549
0.000827404
0.000890038
0.000946547
0.0010021
0.00106099
0.00112745
0.000112852
0.000228621
0.000374062
0.000523321
0.000650413
0.000748996
0.000825353
0.000888196
0.000944632
0.000999928
0.0010584
0.00112442
0.000112572
0.000228148
0.000371927
0.000520074
0.000647221
0.000746364
0.00082324
0.000886302
0.000942697
0.000997742
0.0010558
0.00112116
0.000112253
0.000227628
0.000369797
0.0005168
0.000643937
0.000743647
0.000821038
0.000884362
0.000940731
0.00099554
0.00105322
0.00111843
0.000111952
0.000227177
0.000367723
0.000513534
0.000640582
0.000740825
0.000818753
0.000882349
0.000938721
0.00099332
0.0010506
0.00111514
0.000111657
0.000226802
0.000365697
0.000510255
0.000637181
0.000737912
0.000816385
0.000880287
0.000936684
0.000991079
0.00104799
0.00111222
0.000111321
0.000226377
0.000363691
0.000506987
0.000633715
0.000734923
0.000813935
0.000878161
0.0009346
0.000988816
0.00104534
0.00110885
0.000110957
0.000225996
0.000361739
0.000503714
0.000630209
0.000731844
0.000811401
0.000875973
0.000932482
0.000986523
0.00104271
0.00110616
0.000110614
0.000225649
0.0003598
0.000500461
0.00062664
0.000728676
0.000808779
0.000873712
0.00093032
0.000984204
0.00104006
0.00110299
0.000110247
0.000225312
0.000357947
0.000497199
0.000623014
0.000725413
0.000806081
0.000871384
0.000928106
0.00098186
0.00103737
0.00109942
0.000109867
0.000225007
0.000356144
0.000493975
0.000619365
0.000722096
0.000803285
0.000868988
0.000925845
0.000979494
0.00103466
0.00109612
0.000109478
0.000224725
0.000354369
0.000490778
0.00061567
0.00071869
0.000800403
0.000866513
0.000923537
0.000977093
0.00103198
0.00109343
0.000109076
0.000224461
0.000352647
0.000487604
0.000611928
0.00071521
0.000797445
0.000863968
0.000921177
0.000974665
0.00102926
0.0010902
0.000108635
0.000224204
0.000350963
0.000484409
0.000608187
0.000711661
0.000794388
0.000861363
0.00091876
0.000972194
0.00102655
0.00108739
0.000108211
0.00022398
0.000349329
0.000481268
0.000604405
0.00070802
0.000791255
0.000858662
0.000916293
0.000969695
0.0010238
0.00108395
0.000107771
0.000223785
0.000347755
0.000478183
0.00060057
0.000704321
0.000788018
0.000855887
0.000913773
0.000967167
0.00102107
0.00108117
0.000107318
0.000223618
0.000346234
0.000475119
0.000596752
0.000700542
0.000784694
0.000853032
0.000911184
0.000964604
0.00101834
0.00107845
0.000106852
0.000223474
0.000344728
0.000472066
0.000592894
0.000696694
0.000781291
0.000850091
0.00090852
0.000961984
0.00101561
0.00107613
0.000106372
0.000223355
0.000343323
0.000469092
0.000589048
0.000692815
0.000777803
0.000847077
0.000905805
0.00095934
0.00101284
0.0010724
0.00010588
0.000223267
0.000341972
0.000466128
0.00058517
0.000688847
0.000774239
0.000843981
0.000903026
0.000956662
0.00101007
0.00106948
0.000105348
0.000223143
0.000340637
0.000463214
0.000581296
0.000684832
0.000770587
0.00084079
0.000900174
0.000953938
0.00100722
0.0010659
0.000104856
0.000223124
0.000339371
0.00046036
0.000577419
0.000680738
0.000766844
0.000837513
0.000897252
0.000951154
0.00100433
0.00106261
0.000104295
0.000223063
0.00033817
0.000457557
0.00057353
0.000676636
0.00076301
0.000834141
0.000894263
0.000948317
0.00100137
0.00105892
0.000103748
0.000223049
0.000337036
0.000454822
0.000569688
0.000672457
0.0007591
0.00083069
0.00089119
0.000945415
0.000998387
0.00105588
0.000103187
0.000223026
0.000335931
0.000452115
0.000565833
0.000668245
0.000755106
0.000827139
0.000888029
0.000942443
0.000995319
0.00105219
0.00010261
0.00022309
0.000334898
0.000449482
0.000562002
0.000663973
0.000751023
0.000823509
0.000884791
0.000939421
0.000992248
0.00104902
0.000101991
0.000223073
0.000333935
0.000446918
0.000558174
0.000659695
0.000746872
0.000819778
0.000881475
0.000936322
0.000989087
0.00104534
0.000101383
0.00022316
0.000333005
0.000444394
0.000554379
0.000655345
0.000742644
0.000815936
0.000878056
0.000933153
0.000985943
0.00104249
0.000100761
0.000223241
0.000332155
0.000441957
0.000550629
0.000651002
0.000738329
0.000812009
0.000874547
0.000929895
0.000982732
0.00103903
0.000100123
0.000223368
0.000331383
0.000439569
0.000546894
0.000646618
0.000733951
0.000808
0.000870952
0.000926589
0.000979442
0.0010352
9.94675e-05
0.000223532
0.000330645
0.000437272
0.000543213
0.000642224
0.000729493
0.000803882
0.00086726
0.000923198
0.000976126
0.00103192
9.87966e-05
0.000223689
0.000329993
0.000435068
0.00053956
0.000637798
0.000724978
0.000799672
0.000863463
0.000919718
0.00097278
0.00102883
9.80818e-05
0.000223831
0.000329382
0.000432926
0.000535971
0.000633355
0.000720403
0.000795357
0.000859568
0.000916163
0.000969369
0.00102511
9.73754e-05
0.000224037
0.000328857
0.000430849
0.000532418
0.000628925
0.000715754
0.000790959
0.00085558
0.000912517
0.000965901
0.00102166
9.66242e-05
0.000224225
0.000328375
0.000428883
0.000528952
0.000624512
0.000711039
0.000786453
0.000851475
0.000908775
0.000962301
0.00101764
9.58796e-05
0.000224483
0.000327993
0.000427029
0.000525541
0.000620095
0.000706284
0.000781846
0.000847259
0.000904927
0.000958604
0.00101351
9.51479e-05
0.000224818
0.000327662
0.000425221
0.000522222
0.000615684
0.00070147
0.000777163
0.000842943
0.000900977
0.000954849
0.00100977
9.43441e-05
0.000225072
0.000327391
0.000423572
0.000518972
0.000611313
0.000696613
0.000772396
0.000838509
0.000896915
0.000950945
0.00100556
9.35411e-05
0.000225399
0.000327219
0.000421972
0.000515798
0.000606965
0.000691735
0.000767511
0.000833957
0.000892742
0.000947012
0.00100193
9.27216e-05
0.000225783
0.000327104
0.000420506
0.000512746
0.000602675
0.00068682
0.000762561
0.000829305
0.000888458
0.000942982
0.000997727
9.18542e-05
0.000226108
0.000327088
0.000419142
0.000509777
0.0005984
0.000681895
0.000757525
0.00082454
0.00088409
0.000938886
0.000993434
9.09885e-05
0.000226517
0.000327143
0.000417917
0.000506914
0.000594201
0.000676924
0.000752415
0.000819646
0.000879558
0.000934612
0.000989563
9.01043e-05
0.000226985
0.000327222
0.000416763
0.000504159
0.000590063
0.000671961
0.000747196
0.000814616
0.000874875
0.0009302
0.000985025
8.91982e-05
0.000227421
0.000327466
0.000415769
0.000501564
0.000586029
0.000667001
0.000741931
0.000809493
0.000870088
0.000925724
0.000980891
8.82676e-05
0.000227936
0.000327742
0.000414904
0.000499095
0.000582059
0.000662078
0.000736607
0.000804248
0.000865139
0.000921064
0.000976097
8.72847e-05
0.000228398
0.000328144
0.000414202
0.000496774
0.000578222
0.000657155
0.000731225
0.000798881
0.000860091
0.000916356
0.000971706
8.62706e-05
0.000228928
0.00032858
0.000413598
0.000494607
0.000574501
0.000652307
0.000725828
0.000793436
0.000854899
0.000911494
0.000966789
8.52868e-05
0.000229569
0.000329159
0.000413174
0.000492612
0.000570909
0.000647488
0.000720378
0.000787906
0.000849597
0.000906502
0.000961755
8.42594e-05
0.000230178
0.000329828
0.000412881
0.000490823
0.000567474
0.000642768
0.000714909
0.000782241
0.000844103
0.000901233
0.000956735
8.31694e-05
0.0002308
0.000330595
0.000412782
0.000489197
0.000564209
0.000638144
0.000709459
0.000776491
0.000838466
0.000895843
0.000951305
8.20438e-05
0.000231448
0.000331464
0.00041285
0.000487785
0.000561137
0.000633636
0.000704007
0.000770677
0.000832717
0.000890374
0.000946318
8.0943e-05
0.000232226
0.000332439
0.000413078
0.000486629
0.000558277
0.000629254
0.000698615
0.000764792
0.000826793
0.000884636
0.000940344
7.9768e-05
0.000232955
0.000333535
0.000413533
0.000485689
0.00055566
0.00062507
0.000693267
0.000758862
0.000820759
0.000878722
0.000934478
7.85463e-05
0.000233722
0.000334753
0.000414199
0.000485044
0.000553316
0.000621093
0.000688039
0.00075291
0.000814587
0.000872583
0.000928078
7.73434e-05
0.000234621
0.000336099
0.000415055
0.000484661
0.000551266
0.000617332
0.000682917
0.000746966
0.000808315
0.000866278
0.000921624
7.60617e-05
0.000235479
0.000337588
0.000416184
0.000484601
0.000549554
0.000613875
0.00067797
0.000741045
0.000801927
0.000859776
0.000914843
7.47527e-05
0.000236396
0.000339219
0.000417542
0.000484891
0.000548204
0.000610708
0.000673219
0.000735159
0.000795435
0.00085311
0.000908462
7.33794e-05
0.000237325
0.000340983
0.000419218
0.000485555
0.000547249
0.000607918
0.000668692
0.000729312
0.000788831
0.000846178
0.000901197
7.19764e-05
0.000238306
0.00034296
0.000421185
0.000486643
0.000546759
0.000605493
0.000664419
0.000723563
0.000782152
0.000839082
0.000894096
7.04969e-05
0.000239241
0.000345099
0.000423498
0.000488146
0.000546694
0.000603446
0.0006604
0.000717917
0.000775373
0.000831709
0.000886205
6.89688e-05
0.000240228
0.000347419
0.000426121
0.000490056
0.000547053
0.000601784
0.000656624
0.000712304
0.000768446
0.000823998
0.000878229
6.7369e-05
0.000241094
0.000349841
0.000429066
0.0004923
0.000547767
0.000600488
0.000653203
0.000706901
0.000761489
0.000816062
0.000870139
6.54098e-05
0.00024014
0.000350268
0.000430907
0.000493434
0.000547718
0.000598662
0.000649571
0.000701313
0.000754719
0.000808145
0.000861662
0.000477605
0.00154683
0.0016415
0.0018833
0.00188492
0.000625881
0.00061385
0.000464322
0.00137611
0.00206055
0.00381323
0.00201919
0.00424157
0.00142695
0.000567037
0.00133218
0.00149822
0.00504313
0.00502784
0.00131829
0.000731045
0.000492698
0.00739144
0.00354944
0.000478383
0.0016435
0.000573854
0.000779525
0.00194354
0.00122973
0.00178259
0.000336195
0.00146245
0.00377778
0.00412587
0.00106552
0.00015462
0.0015719
0.000467561
0.00207226
0.00186933
0.00129258
0.00387014
0.00106135
0.000274024
0.000494758
0.00578656
0.00374701
0.000277095
0.000735472
0.00106632
0.000466839
0.000338032
0.00124158
0.00165002
0.00150681
0.0023891
0.00129193
0.00157225
0.00056485
0.000622531
0.000337194
0.00124141
0.00286705
0.00424898
0.00152312
0.00093634
0.000318483
0.000656899
0.00227763
0.00172231
0.00532167
0.000465861
0.00110074
0.00357807
0.00127029
0.00138913
0.00123815
0.00560978
0.000466716
0.00456073
0.00123973
0.000196635
0.000382633
0.00285224
0.00160583
0.000937833
0.00124135
0.00264802
0.000197734
0.000577059
0.00147255
0.00124139
0.00140645
0.000350383
0.00127365
0.00077802
0.00163165
0.00124229
0.000946866
0.000765387
0.00324353
0.00128879
0.00148709
0.00123884
0.000350444
0.000356992
0.000422456
0.00132742
0.000249016
0.00152403
0.00123993
0.000445644
0.00136814
0.00124078
0.000521309
0.00316047
0.00225872
0.00155344
0.00429897
0.000786525
0.0037846
0.00147425
0.00360583
0.00443923
0.00281829
0.00141303
0.000260771
0.00404272
0.00124136
3.92604e-05
0.00124223
5.60442e-05
0.00148728
0.000568735
0.00163242
0.000172469
0.00241992
0.000447291
0.00175204
0.00297185
0.000688433
0.000461393
0.000452979
8.7752e-05
0.00163225
0.000466251
0.00152495
0.00141032
0.000579269
0.000631019
0.000514633
0.0012418
0.00445311
0.00357716
0.00124362
0.000443127
0.00126919
0.00165585
0.00192959
0.00368904
0.00133707
0.00452643
0.00261238
0.000775083
0.00335998
0.000277183
0.000253948
0.000547991
0.0012374
0.00156015
0.00109331
0.00164574
0.00304981
0.00123866
0.00160591
0.00123854
0.000411623
0.0023699
0.001342
0.000277212
0.00524986
0.00426958
0.000470471
0.00129841
0.000461956
0.00125536
0.00124028
9.18969e-05
0.00124087
0.00232211
0.001245
0.000396103
0.00156056
0.000450185
0.000557828
0.000612008
0.000538694
0.00123982
0.00221416
0.00146682
0.000461421
0.000281456
0.000463177
0.000472616
0.00697686
0.00416404
0.0031728
0.00113403
0.00271707
5.35157e-05
0.00138616
0.000468361
0.0004128
0.00123977
0.00046824
0.00251429
0.00146761
0.00222999
0.00018983
0.0003853
0.00146496
0.000420425
0.00124826
0.00125143
0.0027733
0.00160214
0.00126904
0.00107198
0.00413827
5.2477e-05
0.00445563
0.00124159
0.000907386
0.00150163
0.000474634
0.000464787
0.0014861
0.00111802
0.000455827
0.0042469
0.00595262
0.0043436
0.0026829
6.46243e-05
5.38267e-05
5.64279e-05
0.001321
0.00390613
0.000466594
0.00221534
0.00110231
0.00233166
0.00035048
0.000231851
0.00283618
0.000989159
0.000452967
0.0020741
0.000427088
0.00271418
0.00047305
0.00294757
0.00416275
7.28893e-05
0.000469317
0.00131022
0.000477137
0.00146528
0.00121712
0.000695095
0.00526215
0.0013854
4.49102e-05
4.56761e-05
0.00139017
0.000175645
5.76236e-05
0.000281532
0.000137116
0.000377628
0.000172892
0.000466165
0.000471052
0.00134399
0.000609934
0.00161863
4.73284e-05
0.0013139
0.000762918
0.000136535
0.00146625
4.63308e-05
4.60207e-05
0.000445246
0.000397743
0.00190275
4.48805e-05
0.00586006
0.000380885
0.000461402
0.000994823
0.000499074
0.00177756
0.00376482
0.00151609
0.000286033
0.00124093
0.00528851
0.00475323
0.00566185
0.00018424
0.0012456
0.00129319
0.0004606
0.00434301
4.91545e-05
0.00121455
0.0012398
8.29447e-05
0.00463795
0.00208212
0.00149695
0.000236517
0.000453413
0.0012139
0.00141584
0.00124132
0.00125526
0.000182927
0.00133377
0.00124748
0.0021782
0.0012417
0.00125457
0.00126456
0.00123871
0.00764795
0.00124194
0.00173197
0.000788588
0.000473672
0.00124211
0.000528246
0.00229609
4.55399e-05
5.33956e-05
0.00164928
0.00140466
0.00138219
0.00123749
0.00126828
0.00634817
0.00228183
4.08552e-05
0.00123871
0.00493687
0.000366203
0.0013483
0.00236132
0.000102548
0.000267045
0.00132945
0.00148968
0.000856948
0.00191846
0.00135659
0.00124134
0.00141441
0.00145331
0.00501593
9.62805e-05
0.000453601
0.000134142
0.00147808
0.000632279
0.000463716
0.00140275
0.00125299
0.00177548
0.00102561
0.00165107
0.00126005
0.000469776
0.000349577
0.000599697
0.00124573
0.00431293
0.000542476
0.00379981
0.00126072
0.00117565
0.00191941
0.000393466
0.000445492
0.00137527
0.00142176
0.00124395
0.00300006
0.00141624
0.00185329
0.00237675
0.000899186
0.00217974
0.00393166
0.000168741
0.001396
0.00147172
6.47266e-05
0.000422419
0.00124076
0.00124943
0.00124196
0.00129657
0.00607655
0.000455015
0.000128268
0.000538594
0.000528142
0.00125603
0.000246705
0.000467813
0.00123811
0.00124764
0.000456549
0.00124636
0.00271302
0.00137136
0.000449708
0.00123756
0.00197642
0.00424356
0.00506071
0.000460697
0.00464049
0.00123831
0.00124227
0.00116354
0.00132622
0.00253752
0.000289138
4.03098e-05
0.00194496
0.000458306
0.00190517
0.000988427
0.00132736
0.000443233
0.00154547
0.00123901
0.0019819
0.000460671
5.42864e-05
0.00221356
0.00199189
0.000692264
0.00163568
4.75738e-05
0.000423027
0.00443696
0.000525101
0.00342175
0.0049893
0.00245746
0.00132432
0.00130102
0.00176562
0.000694543
0.000574797
5.90292e-05
0.00359495
0.000281979
9.54026e-05
0.00123922
0.00179121
0.00133628
0.00044364
0.00123871
0.000327216
0.000883849
0.000387016
0.00020313
0.000468798
0.00245077
0.00442172
9.39897e-05
5.01921e-05
0.00134098
0.00311195
0.001248
0.00420531
0.0009089
0.000318351
0.00138311
0.00424929
0.00015788
0.0010738
0.00116554
0.000470246
0.000224121
0.00122931
0.000480817
0.000311419
0.00127065
0.00345094
0.000401069
0.000707629
0.00137071
0.000190144
0.00185895
0.000449846
0.00127828
0.000947058
0.00336596
0.00124133
0.000663582
4.1197e-05
0.00125051
0.00150217
0.00216054
0.00428605
0.00146711
0.0012721
0.000466443
0.00124136
0.000293016
0.00149699
4.44023e-05
9.39219e-05
0.00186648
4.71798e-05
0.000816944
0.00125197
0.00159295
0.0012688
0.00405321
0.00134904
0.000379063
0.000447749
0.00193735
0.00134524
0.00369415
0.0017809
0.00262977
0.00173349
0.00123896
0.00466702
0.00123871
0.00572598
0.000559734
0.00452922
0.000975785
0.000650471
0.000434112
0.00489952
0.00318961
0.000456655
6.86806e-05
0.0012414
0.00124143
0.00108772
0.000717487
0.000388964
0.00243685
0.00535643
0.00129777
0.000328144
0.00123742
0.00420989
0.000473567
0.00158209
0.00127893
0.000492958
0.00010394
0.000388857
0.00259336
0.00123875
0.00341861
0.00124288
0.0013993
0.00296274
0.000369115
0.00159856
0.00125422
0.00141093
0.00589996
0.000418659
0.000920043
0.0013916
0.000220853
0.00423707
0.00124154
0.000571749
8.1564e-05
0.000458923
0.00328205
0.00123741
0.0014602
0.00130131
0.000464645
0.00124777
0.000729027
0.00105034
0.00127781
0.00179153
0.000396852
0.00137054
0.000986899
0.00117331
0.00134804
0.000761291
0.00490607
0.00338389
0.00123903
0.00124142
0.0015977
0.000460249
0.000472
0.000461585
0.00158543
0.000768069
0.00393657
0.00118918
0.000470769
0.0013983
0.00250057
0.000326108
0.00123753
0.00209975
0.000280576
0.000277415
0.00126719
0.00124626
6.88008e-05
0.00018491
0.00133135
0.00397784
0.000822722
0.000414273
0.00125256
3.52957e-05
0.000691029
0.000703601
0.00168527
0.0010468
0.000862807
0.00141282
0.00128688
0.000450125
0.000132843
0.00126266
0.001242
0.00141233
0.00116849
0.00156354
0.00123993
0.00215138
0.00124132
0.00117501
0.000499979
0.00486262
0.00124663
0.00147285
0.000624781
0.000356309
0.00199832
0.000194866
0.00743593
0.000805186
0.00137204
0.00124096
0.00309958
0.00140926
0.000230108
0.0015371
0.00175615
0.00239151
0.0022736
0.000133185
0.00123984
0.000777813
0.00117697
0.000458744
0.00128732
0.00491295
0.000365932
0.000311559
0.00187604
0.00520515
0.00154571
0.000466015
0.00255196
0.000467528
0.00124066
0.00198424
0.00130401
0.00123736
0.000104209
0.00124154
4.68267e-05
0.00230003
0.00110973
0.00127198
0.00119183
0.000422913
0.00183843
0.00151095
0.00129926
0.0062067
0.00223156
0.00281352
0.00505677
0.00159934
0.00123916
0.00124153
0.000465742
0.00571898
5.87674e-05
0.000530496
0.00127956
4.63518e-05
4.06658e-05
4.47439e-05
0.00302807
0.000696117
3.75985e-05
0.00124133
0.000133
0.000125622
0.000464725
0.0012423
0.00242384
0.00144262
0.000112576
0.00124314
0.00165925
0.00123911
0.00522692
0.00223498
0.00132999
0.000452508
0.00123978
0.00449217
0.000418491
0.00124246
0.00142681
0.00124071
0.00138463
0.00308404
0.0012838
0.00113348
0.00256239
0.000463322
0.00124019
0.00107
0.00124199
0.00061593
0.00267119
0.00350419
0.000517387
0.00277028
0.00161246
0.00125876
0.0001575
0.0010083
0.00117856
5.34049e-05
0.000499193
0.00123809
0.000129264
0.000601869
0.000756517
0.0010253
0.00121075
0.00139712
0.00047639
0.00434703
0.00124026
0.00363681
0.00143454
0.00350374
0.000133482
0.00076607
0.00125488
0.000220308
0.000385899
0.00137355
0.00188341
0.0013093
0.000608724
0.000992428
0.00119473
0.00413347
0.00173555
0.000293883
0.000185919
0.00428806
0.000152867
0.00124855
5.08506e-05
0.0015882
0.00127988
0.00146929
0.00113014
0.00102277
0.00612254
0.00135208
0.00324188
0.00292185
0.00140578
0.00289151
0.002736
0.00124195
0.00150667
0.00470105
4.41384e-05
0.00047004
4.463e-05
0.000723924
0.00189322
0.0010892
0.00124071
0.00124168
0.000444011
0.00663038
0.00134061
0.00156295
0.00123761
0.00160992
0.00252653
0.0051445
0.00130619
0.00160464
0.00146685
0.00209102
0.0013617
0.00549661
0.000391467
0.000543122
0.00124068
0.000542107
0.00145142
0.00168636
0.00217163
4.80265e-05
0.00364358
0.00212284
0.000676693
0.00402912
0.00242831
0.00396714
0.00566287
0.00130185
3.94154e-05
0.00124135
0.00129347
0.000441248
0.00281389
0.0027046
0.00108823
0.000430429
0.00124163
0.00124152
0.00148221
0.000129606
0.00138072
0.0012381
0.00134088
0.00272489
0.000465622
0.00137867
5.29861e-05
0.00116576
0.00166897
0.000366216
0.00125657
0.00130749
0.000124613
0.00037881
0.000154018
0.00124388
0.00123962
0.00109338
0.00161135
0.00236022
0.00127086
0.00124034
0.00425441
0.00126164
0.00181648
0.00304252
0.00558828
0.0024387
0.00153036
0.000438039
5.52299e-05
0.000461202
0.00200699
0.00124289
0.000283304
0.00127271
0.00026269
0.00124124
0.00181405
0.00125767