/*--------------------------------*- C++ -*----------------------------------*\
| =========                 |                                                 |
| \\      /  F ield         | OpenFOAM: The Open Source CFD Toolbox           |
|  \\    /   O peration     | Version:  2.3.1                                 |
|   \\  /    A nd           | Web:      www.OpenFOAM.org                      |
|    \\/     M anipulation  |                                                 |
\*---------------------------------------------------------------------------*/
FoamFile
{
    version     2.0;
    format      ascii;
    class       volScalarField;
    location    "0.22";
    object      p;
}
// * * * * * * * * * * * * * * * * * * * * * * * * * * * * * * * * * * * * * //

dimensions      [0 2 -2 0 0 0 0];

internalField   nonuniform List<scalar> 
9648
(
0.241282
-0.0343346
-0.371616
-0.807469
-1.33723
-1.96886
-2.71025
-3.5694
-4.56194
-5.70326
-7.00345
-8.47482
-10.1294
-11.9771
-14.0263
-16.2859
-18.7628
-21.4637
-24.3897
-27.5426
-30.9259
-34.5336
-38.3627
-42.4049
-46.6528
-51.0963
-55.7271
-60.5424
-65.5261
-70.6645
-75.9259
-81.2863
-86.7239
-92.2233
-97.7903
-103.407
-109.062
-114.713
-120.328
-125.87
-131.3
-136.605
-141.75
-146.764
-151.678
-156.483
-161.15
-165.635
-169.904
-173.917
-177.663
-181.148
-184.383
-187.341
-190.026
-192.424
-194.52
-196.323
-197.808
-198.986
-199.843
0.82998
0.543143
0.195672
-0.238004
-0.752053
-1.35774
-2.06875
-2.89866
-3.8554
-4.95104
-6.19667
-7.60373
-9.18273
-10.9433
-12.8943
-15.0436
-17.3979
-19.9622
-22.739
-25.7304
-28.9376
-32.3579
-35.987
-39.8167
-43.8388
-48.0451
-52.4298
-56.9892
-61.7127
-66.5826
-71.5704
-76.6492
-81.7946
-86.9956
-92.2505
-97.553
-102.886
-108.221
-113.533
-118.786
-123.942
-128.966
-133.835
-138.572
-143.205
-147.735
-152.128
-156.337
-160.332
-164.107
-167.642
-170.933
-173.977
-176.766
-179.287
-181.537
-183.497
-185.181
-186.563
-187.645
-188.406
0.677067
0.407431
0.0823397
-0.30759
-0.782694
-1.3514
-2.02129
-2.8052
-3.71392
-4.76053
-5.95523
-7.30939
-8.83306
-10.5354
-12.4251
-14.5097
-16.7956
-19.2874
-21.9874
-24.898
-28.0198
-31.351
-34.887
-38.6196
-42.5402
-46.6409
-50.9168
-55.363
-59.9701
-64.7198
-69.5906
-74.5585
-79.6029
-84.7064
-89.8494
-95.0035
-100.143
-105.259
-110.364
-115.461
-120.517
-125.486
-130.324
-135.03
-139.62
-144.08
-148.378
-152.479
-156.365
-160.039
-163.494
-166.718
-169.707
-172.435
-174.91
-177.112
-179.052
-180.697
-182.057
-183.13
-183.927
0.91601
0.643289
0.317758
-0.0710404
-0.533609
-1.08105
-1.72428
-2.47502
-3.34511
-4.34688
-5.49183
-6.79079
-8.25356
-9.88908
-11.7065
-13.7126
-15.9135
-18.3135
-20.9146
-23.719
-26.7279
-29.9389
-33.3482
-36.9476
-40.7292
-44.6853
-48.8078
-53.0887
-57.5127
-62.0679
-66.7434
-71.5312
-76.4266
-81.3997
-86.4018
-91.364
-96.2241
-101.012
-105.776
-110.564
-115.392
-120.179
-124.892
-129.518
-134.033
-138.41
-142.566
-146.475
-150.155
-153.631
-156.918
-160.002
-162.863
-165.478
-167.838
-169.936
-171.769
-173.326
-174.605
-175.603
-176.325
1.00921
0.76857
0.47376
0.11467
-0.316568
-0.830293
-1.43699
-2.14758
-2.97454
-3.92876
-5.02266
-6.26561
-7.66763
-9.23659
-10.9826
-12.9111
-15.0282
-17.3379
-19.841
-22.5404
-25.4376
-28.5298
-31.815
-35.2843
-38.9304
-42.7432
-46.712
-50.8255
-55.0734
-59.4444
-63.9328
-68.5363
-73.2399
-78.0279
-82.8506
-87.6258
-92.3367
-96.9638
-101.541
-106.089
-110.551
-114.956
-119.346
-123.794
-128.309
-132.723
-136.868
-140.658
-144.143
-147.417
-150.524
-153.462
-156.201
-158.713
-160.98
-162.992
-164.742
-166.228
-167.452
-168.406
-169.09
1.1213
0.899708
0.627785
0.294571
-0.107275
-0.58892
-1.16007
-1.83156
-2.61648
-3.52433
-4.5688
-5.75727
-7.10057
-8.60357
-10.2798
-12.132
-14.1659
-16.386
-18.7902
-21.383
-24.1676
-27.139
-30.2996
-33.6359
-37.1391
-40.7978
-44.5967
-48.541
-52.6211
-56.8385
-61.1698
-65.5677
-70.0083
-74.4657
-78.9487
-83.5112
-88.1514
-92.8975
-97.6077
-102.053
-106.179
-109.95
-113.688
-117.745
-122.119
-126.63
-130.857
-134.612
-137.963
-141.035
-143.948
-146.713
-149.305
-151.695
-153.855
-155.769
-157.428
-158.834
-159.99
-160.889
-161.528
1.23757
1.03441
0.78378
0.47411
0.0997574
-0.351896
-0.88961
-1.52304
-2.26765
-3.13006
-4.12726
-5.26321
-6.55013
-7.98708
-9.59505
-11.3713
-13.3213
-15.453
-17.7571
-20.2408
-22.9123
-25.7587
-28.7928
-31.9916
-35.3456
-38.8401
-42.4601
-46.2166
-50.1287
-54.1927
-58.3867
-62.627
-66.7903
-70.8689
-74.9224
-79.0629
-83.5858
-88.4636
-93.468
-98.2367
-102.186
-105.421
-108.394
-111.733
-115.82
-120.219
-124.489
-128.296
-131.57
-134.501
-137.232
-139.815
-142.248
-144.504
-146.55
-148.359
-149.92
-151.236
-152.32
-153.166
-153.757
1.35281
1.1685
0.940862
0.652675
0.305843
-0.117763
-0.625027
-1.21824
-1.92594
-2.74086
-3.69572
-4.77905
-6.01934
-7.38157
-8.92441
-10.6268
-12.4884
-14.5387
-16.7429
-19.1064
-21.6747
-24.3815
-27.2925
-30.352
-33.5453
-36.894
-40.3135
-43.881
-47.5794
-51.4203
-55.4769
-59.5783
-63.6026
-67.4877
-71.1567
-74.7946
-78.7526
-83.3774
-88.601
-93.7163
-98.1186
-101.321
-103.768
-106.549
-109.916
-113.827
-117.9
-121.616
-124.912
-127.749
-130.362
-132.767
-135.029
-137.159
-139.099
-140.784
-142.246
-143.445
-144.457
-145.262
-145.799
1.47397
1.29694
1.11051
0.824608
0.517613
0.108916
-0.375717
-0.897768
-1.60419
-2.3339
-3.28661
-4.28396
-5.53715
-6.75299
-8.27366
-9.92256
-11.6498
-13.6664
-15.7484
-17.957
-20.5086
-22.9873
-25.8391
-28.7276
-31.7392
-35.021
-38.1841
-41.608
-45.1177
-48.5844
-52.4529
-56.3531
-60.2739
-64.2799
-68.0306
-71.1031
-74.4231
-78.2152
-82.8097
-88.3197
-93.2995
-97.1842
-99.9037
-102.394
-105.007
-107.6
-111.11
-114.686
-118.187
-120.875
-123.411
-125.526
-127.672
-129.777
-131.593
-133.093
-134.546
-135.531
-136.545
-137.309
-137.725
-200.359
-200.567
-200.456
-200.017
-199.275
-198.215
-196.841
-195.151
-193.141
-190.841
-188.226
-185.315
-182.146
-178.715
-175.014
-171.059
-166.856
-162.434
-157.785
-152.923
-147.882
-142.647
-137.245
-131.689
-126.003
-120.181
-114.228
-108.177
-102.031
-95.8228
-89.553
-83.2418
-76.9106
-70.5597
-64.2171
-57.8848
-51.5858
-45.3322
-39.1319
-33.0016
-26.9528
-21.0084
-15.1657
-9.44477
-3.85931
1.58831
6.88264
12.0156
16.9725
21.7468
26.3338
30.7229
34.9035
38.8746
42.626
46.1528
49.4503
52.5135
55.3421
57.9322
60.2839
-188.856
-189.01
-188.875
-188.437
-187.704
-186.681
-185.358
-183.73
-181.802
-179.586
-177.077
-174.296
-171.281
-168.013
-164.491
-160.721
-156.718
-152.496
-148.059
-143.423
-138.603
-133.606
-128.445
-123.132
-117.68
-112.112
-106.442
-100.677
-94.8257
-88.9068
-82.9322
-76.9172
-70.8769
-64.8229
-58.7715
-52.7318
-46.7199
-40.7494
-34.8316
-28.9789
-23.2046
-17.5242
-11.9448
-6.47975
-1.14102
4.06451
9.12579
14.0325
18.7731
23.3407
27.7286
31.9283
35.9306
39.7326
43.3256
46.7051
49.8644
52.8017
55.514
57.9988
60.2554
-184.429
-184.623
-184.502
-184.083
-183.382
-182.386
-181.078
-179.45
-177.531
-175.337
-172.878
-170.147
-167.136
-163.876
-160.376
-156.644
-152.69
-148.524
-144.155
-139.597
-134.863
-129.96
-124.9
-119.695
-114.354
-108.894
-103.329
-97.6722
-91.9365
-86.1353
-80.2822
-74.392
-68.4783
-62.5547
-56.6341
-50.728
-44.8496
-39.0115
-33.2265
-27.5069
-21.8656
-16.3156
-10.8665
-5.53005
-0.316459
4.76594
9.70665
14.4956
19.1228
23.5812
27.8627
31.9604
35.8667
39.5772
43.0844
46.3834
49.469
52.3379
54.9875
57.415
59.6209
-176.762
-176.913
-176.768
-176.33
-175.585
-174.54
-173.262
-171.738
-169.934
-167.86
-165.516
-162.915
-160.051
-156.941
-153.593
-150.015
-146.218
-142.212
-138.008
-133.62
-129.06
-124.338
-119.464
-114.447
-109.302
-104.038
-98.6721
-93.2166
-87.6843
-82.0875
-76.4391
-70.7542
-65.0463
-59.3294
-53.6141
-47.9124
-42.2362
-36.5973
-31.0091
-25.4834
-20.0327
-14.6694
-9.40374
-4.24646
0.792953
5.70689
10.4842
15.1158
19.5909
23.9045
28.0472
32.0123
35.7943
39.3874
42.7864
45.9838
48.9771
51.7603
54.3323
56.6897
58.8338
-169.5
-169.636
-169.493
-169.073
-168.373
-167.404
-166.14
-164.613
-162.83
-160.796
-158.511
-155.978
-153.201
-150.192
-146.955
-143.497
-139.828
-135.956
-131.894
-127.655
-123.253
-118.696
-113.993
-109.152
-104.188
-99.1093
-93.9318
-88.6696
-83.3334
-77.9356
-72.4863
-67.003
-61.4978
-55.9864
-50.4762
-44.9794
-39.5059
-34.0672
-28.6777
-23.3481
-18.0902
-12.9174
-7.83866
-2.86475
1.99519
6.73675
11.3447
15.8142
20.1313
24.2941
28.2923
32.1188
35.7701
39.2388
42.5234
45.6135
48.5092
51.2002
53.6897
55.9712
58.0484
-161.902
-162.011
-161.851
-161.425
-160.734
-159.785
-158.568
-157.09
-155.363
-153.393
-151.184
-148.735
-146.053
-143.15
-140.031
-136.7
-133.163
-129.429
-125.512
-121.429
-117.19
-112.806
-108.283
-103.625
-98.8473
-93.9594
-88.9754
-83.9135
-78.7806
-73.5887
-68.3436
-63.0682
-57.771
-52.4738
-47.1762
-41.8916
-36.6282
-31.3963
-26.2125
-21.0854
-16.0268
-11.0511
-6.1653
-1.38159
3.29164
7.85658
12.2905
16.5942
20.7465
24.754
28.6021
32.2841
35.8003
39.1383
42.3057
45.2835
48.0786
50.6731
53.0781
55.2787
57.2868
-154.095
-154.174
-153.998
-153.564
-152.88
-151.952
-150.768
-149.331
-147.657
-145.755
-143.625
-141.265
-138.678
-135.886
-132.891
-129.69
-126.29
-122.692
-118.922
-114.998
-110.929
-106.726
-102.39
-97.9192
-93.3338
-88.6387
-83.8534
-78.9979
-74.0746
-69.0933
-64.0551
-58.9905
-53.9056
-48.8307
-43.7523
-38.689
-33.644
-28.6245
-23.6522
-18.7356
-13.8818
-9.10815
-4.42063
0.166733
4.64716
9.03184
13.2878
17.424
21.4064
25.2528
28.9455
32.4784
35.8539
39.0559
42.1039
44.9662
47.6611
50.1554
52.4721
54.5869
56.5239
-146.1
-146.139
-145.949
-145.498
-144.828
-143.922
-142.775
-141.356
-139.723
-137.907
-135.864
-133.587
-131.095
-128.418
-125.561
-122.492
-119.23
-115.765
-112.149
-108.392
-104.49
-100.476
-96.3448
-92.0589
-87.6699
-83.172
-78.5927
-73.9486
-69.2298
-64.4643
-59.627
-54.7792
-49.9037
-45.0654
-40.2103
-35.3883
-30.5821
-25.7662
-21.0066
-16.3198
-11.6656
-7.09402
-2.61808
1.77538
6.0485
10.2583
14.3284
18.3028
22.101
25.784
29.3123
32.6835
35.9236
38.9803
41.918
44.659
47.2605
49.64
51.8688
53.8864
55.7562
-137.989
-137.964
-137.768
-137.298
-136.643
-135.734
-134.637
-133.164
-131.62
-129.999
-127.965
-125.78
-123.346
-120.767
-118.15
-115.14
-112.014
-108.749
-105.261
-101.687
-97.872
-94.0272
-90.2003
-86.0021
-81.8235
-77.6019
-73.1631
-68.7674
-64.146
-59.7153
-54.9537
-50.4478
-45.6684
-41.169
-36.4977
-31.9457
-27.4392
-22.7094
-18.1707
-13.7611
-9.22414
-4.90559
-0.678716
3.60081
7.5205
11.6969
15.4441
19.3741
22.8502
26.4449
29.8258
32.9391
36.1607
38.9569
41.9203
44.4132
47.0282
49.1449
51.4116
53.2334
55.1434
62.3988
64.2758
65.9159
67.3197
68.4873
69.4234
70.1318
70.6175
70.8845
70.9444
70.8357
70.5868
70.1635
69.5455
68.7664
67.8121
66.6517
65.3096
63.8058
62.1533
60.3633
58.4465
56.415
54.2804
52.0554
49.7532
47.3872
44.9719
42.5196
40.0462
37.5651
35.0913
32.6402
30.2254
27.8638
25.5681
23.3533
21.2366
19.2373
17.3737
15.6662
14.1219
12.7548
11.5839
10.6233
9.88191
9.36851
9.08405
9.02182
9.16241
9.47059
9.89118
10.3444
10.7271
10.913
10.2271
8.72406
7.21558
5.99182
5.08648
4.29804
62.2845
64.0871
65.6636
67.0145
68.1401
69.0424
69.7256
70.1937
70.4501
70.4971
70.3766
70.1339
69.7313
69.1359
68.3727
67.4349
66.3059
65.0018
63.5402
61.9336
60.193
58.3289
56.354
54.2805
52.1201
49.8853
47.5885
45.243
42.8614
40.4578
38.0455
35.6386
33.2515
30.8981
28.5933
26.3514
24.1867
22.1082
20.1282
18.2697
16.5445
14.9845
13.5989
12.4008
11.4018
10.6117
10.0385
9.68358
9.54073
9.59277
9.80746
10.134
10.4958
10.7923
10.846
10.2005
8.87971
7.54337
6.50059
5.7167
4.9158
61.6045
63.3678
64.9108
66.2352
67.3407
68.2301
68.907
69.3755
69.636
69.6832
69.5834
69.3696
68.9848
68.414
67.6779
66.7747
65.6931
64.4447
63.0431
61.5004
59.8272
58.0338
56.1324
54.1345
52.0509
49.8943
47.6763
45.4097
43.1069
40.7811
38.4456
36.1139
33.7995
31.5162
29.2777
27.0979
24.9897
22.965
21.0382
19.2294
17.557
16.0315
14.667
13.4736
12.4625
11.6429
11.0209
10.597
10.3648
10.3083
10.3966
10.5828
10.7911
10.919
10.7905
10.1386
8.98521
7.77041
6.76229
5.94021
5.12882
60.7625
62.479
63.9821
65.275
66.356
67.2292
67.8957
68.3607
68.6198
68.6702
68.5945
68.413
68.0508
67.51
66.8044
65.9372
64.903
63.7115
62.3722
60.8966
59.2946
57.5758
55.7528
53.8361
51.836
49.7656
47.6355
45.4583
43.2454
41.0103
38.765
36.523
34.2969
32.1002
29.9455
27.8466
25.8157
23.8656
22.0097
20.2639
18.6428
17.1582
15.8196
14.6364
13.6186
12.7735
12.1043
11.6097
11.2818
11.1047
11.0488
11.0699
11.0991
11.0431
10.7654
10.1158
9.11537
8.02125
7.03914
6.19007
5.38906
59.9164
61.5822
63.0415
64.3001
65.3526
66.2068
66.8587
67.3162
67.57
67.6299
67.5779
67.4238
67.0858
66.5766
65.903
65.0735
64.085
62.9498
61.6721
60.2639
58.7342
57.0902
55.3473
53.5142
51.5994
49.6179
47.5781
45.4932
43.3727
41.2308
39.078
36.9281
34.792
32.6835
30.614
28.5971
26.6442
24.7678
22.9793
21.2927
19.7201
18.2734
16.9617
15.7921
14.7705
13.9023
13.1891
12.6272
12.2073
11.9128
11.7162
11.5766
11.4363
11.2207
10.8375
10.2023
9.32696
8.35172
7.41477
6.55906
5.7546
59.0895
60.7033
62.1154
63.3395
64.3609
65.1955
65.8312
66.2815
66.5303
66.6057
66.5737
66.4429
66.129
65.6522
65.0111
64.2215
63.2776
62.1988
60.9817
59.6411
58.1847
56.615
54.9531
53.2049
51.3755
49.4848
47.536
45.5452
43.5174
41.4702
39.4105
37.3537
35.3076
33.2878
31.3028
29.368
27.4922
25.6883
23.9646
22.3349
20.8086
19.3978
18.1095
16.9497
15.9215
15.0277
14.2691
13.6404
13.1313
12.7264
12.3999
12.1169
11.8306
11.4861
11.0229
10.394
9.60398
8.72651
7.84601
7.00525
6.20126
58.2577
59.8183
61.1806
62.3699
63.3589
64.1755
64.7955
65.2396
65.4856
65.5789
65.5643
65.4549
65.1652
64.721
64.113
63.3646
62.4654
61.4437
60.2859
59.0139
57.6328
56.1379
54.5582
52.8954
51.1513
49.3536
47.4973
45.6021
43.6677
41.7169
39.7515
37.7888
35.8326
33.9016
32.0005
30.1475
28.3487
26.6164
24.9552
23.3803
21.8976
20.5205
19.2537
18.1012
17.0648
16.1446
15.3421
14.6492
14.0557
13.5499
13.1076
12.7007
12.2924
11.8437
11.3155
10.6808
9.93992
9.13132
8.30432
7.4904
6.69845
57.4097
58.9223
60.227
61.387
62.3363
63.14
63.7413
64.1843
64.4269
64.544
64.5392
64.4532
64.1848
63.7759
63.1992
62.4951
61.6362
60.6804
59.5733
58.3731
57.0725
55.6463
54.1589
52.5812
50.9145
49.2173
47.4515
45.6577
43.8122
41.9631
40.09
38.2257
36.3567
34.5166
32.6943
30.9246
29.2014
27.5429
25.9397
24.4193
22.9738
21.63
20.3819
19.2389
18.1929
17.2456
16.4049
15.654
14.9827
14.3892
13.8457
13.3356
12.8255
12.293
11.7085
11.0598
10.342
9.57776
8.78938
8.00299
7.22942
56.5852
58.1594
59.3077
60.5447
61.3449
62.2187
62.6908
63.2279
63.3882
63.6227
63.527
63.5437
63.2174
62.9342
62.3123
61.726
60.8044
60.0187
58.9119
57.7921
56.6064
55.1427
53.8193
52.358
50.6813
49.1591
47.4137
45.7891
43.9606
42.273
40.4299
38.7163
36.8868
35.1866
33.388
31.7404
30.0497
28.502
26.9182
25.4868
24.0375
22.7531
21.5024
20.3797
19.3263
18.3366
17.4735
16.6685
15.9194
15.2676
14.6261
14.0427
13.4376
12.8453
12.2022
11.5436
10.825
10.0981
9.32702
8.55531
7.80261
3.53477
2.85562
2.23244
1.61309
1.0021
0.436179
-0.0760027
-0.529312
-0.906231
-1.20123
-1.41185
-1.54257
-1.59249
-1.56161
-1.47786
-1.36264
-1.23015
-1.10007
-0.98539
-0.892436
-0.822511
-0.769026
-0.727207
-0.690578
-0.654859
-0.615384
-0.567671
-0.508775
-0.434148
-0.343008
-0.232135
-0.101162
0.0484594
0.216071
0.398566
0.593523
0.794293
0.995896
1.19359
1.38068
1.55119
1.70105
1.82788
1.92688
1.99522
2.03357
2.04187
2.02242
1.97725
1.91059
1.8274
1.73176
1.62713
1.51939
1.40969
1.29918
1.18412
1.05963
0.923212
0.773443
0.575751
4.11247
3.46692
2.89898
2.32162
1.7362
1.19773
0.711761
0.277087
-0.0840853
-0.362663
-0.555051
-0.658884
-0.675249
-0.615717
-0.517986
-0.395757
-0.26185
-0.133403
-0.0222347
0.0656731
0.130663
0.177477
0.212006
0.240403
0.267094
0.294778
0.328417
0.372609
0.430802
0.505513
0.599058
0.712409
0.845285
0.996105
1.16123
1.33742
1.5209
1.70661
1.88939
2.06437
2.22629
2.36875
2.48803
2.58107
2.64534
2.68019
2.68596
2.66378
2.61579
2.54534
2.4564
2.35314
2.23907
2.12046
1.99837
1.87581
1.74906
1.61698
1.47286
1.30765
1.09917
4.35931
3.71661
3.13462
2.50794
1.87156
1.31581
0.810682
0.342545
-0.0530587
-0.367253
-0.600276
-0.751409
-0.823742
-0.832723
-0.775095
-0.677786
-0.545238
-0.407169
-0.288456
-0.19553
-0.126986
-0.0772467
-0.0400018
-0.00916853
0.0205801
0.055298
0.0977008
0.150935
0.217622
0.299797
0.399484
0.517599
0.653713
0.806245
0.972503
1.14886
1.33097
1.51409
1.69316
1.86288
2.0181
2.15415
2.26694
2.35311
2.41032
2.43796
2.4365
2.408
2.35533
2.28255
2.19407
2.09484
1.98918
1.88096
1.77317
1.66572
1.55443
1.43359
1.29385
1.12271
0.917813
4.64229
3.98753
3.37414
2.72811
2.09208
1.53615
1.01357
0.520673
0.119471
-0.189826
-0.423649
-0.572075
-0.631097
-0.614963
-0.529335
-0.392506
-0.245507
-0.125301
-0.0131815
0.0824523
0.156392
0.210496
0.248863
0.276991
0.299502
0.321671
0.348061
0.383551
0.43138
0.494198
0.574275
0.67297
0.790163
0.924208
1.07271
1.23227
1.39887
1.56808
1.73517
1.89522
2.04319
2.17473
2.2859
2.37379
2.43612
2.47236
2.4827
2.46892
2.43327
2.37933
2.31008
2.22938
2.1397
2.04353
1.94123
1.83493
1.72429
1.60735
1.4766
1.32951
1.14618
5.00379
4.3195
3.6722
3.01507
2.37487
1.7913
1.23979
0.738464
0.334406
0.00962983
-0.251176
-0.415735
-0.484064
-0.483586
-0.420857
-0.314948
-0.196348
-0.0669309
0.0447261
0.132254
0.198492
0.247218
0.283245
0.312744
0.33791
0.363419
0.392088
0.428683
0.475518
0.534643
0.60887
0.699866
0.807685
0.930959
1.06769
1.21479
1.36865
1.52533
1.68049
1.82973
1.96816
2.09203
2.19726
2.28151
2.34206
2.37854
2.39032
2.37919
2.34626
2.29496
2.22797
2.14923
2.06168
1.96826
1.87879
1.79124
1.70119
1.60392
1.49575
1.36594
1.2061
5.43749
4.71986
4.03846
3.36804
2.7184
2.11027
1.53938
1.02231
0.588413
0.231312
-0.0449918
-0.215349
-0.302509
-0.324596
-0.27004
-0.162366
-0.0384074
0.0820065
0.187094
0.268755
0.322704
0.361386
0.387925
0.409424
0.425953
0.443569
0.46352
0.491832
0.529593
0.578118
0.641013
0.719944
0.815012
0.924662
1.04735
1.18006
1.31949
1.46213
1.60401
1.74134
1.86914
1.98465
2.08337
2.16411
2.22343
2.26192
2.27809
2.27474
2.25199
2.21383
2.1624
2.10229
2.03769
1.97278
1.90049
1.82608
1.74869
1.66408
1.56587
1.44747
1.30104
5.93224
5.19627
4.48858
3.80229
3.1405
2.51727
1.93456
1.406
0.945276
0.559813
0.259367
0.058316
-0.0610529
-0.0947288
-0.0423858
0.0537683
0.167495
0.276462
0.369158
0.434301
0.468162
0.490492
0.502484
0.514342
0.520639
0.529941
0.539588
0.558501
0.586125
0.621832
0.672478
0.738479
0.820612
0.916489
1.02518
1.14361
1.26879
1.39759
1.52651
1.65244
1.76994
1.87744
1.96978
2.04727
2.1051
2.14556
2.16583
2.16995
2.15669
2.13101
2.09353
2.04913
1.99984
1.9472
1.89298
1.83705
1.77746
1.71073
1.62971
1.5287
1.39932
6.47145
5.73357
5.01569
4.32483
3.65482
3.02905
2.4441
1.91895
1.44937
1.05009
0.730886
0.503114
0.341574
0.280839
0.299875
0.362441
0.464243
0.540784
0.600306
0.644645
0.645304
0.643233
0.631618
0.633449
0.623445
0.623075
0.616968
0.627634
0.647558
0.666389
0.70367
0.757541
0.829637
0.912665
1.00904
1.1146
1.22684
1.34316
1.46077
1.57759
1.68578
1.78706
1.87296
1.94859
2.00383
2.04631
2.06886
2.07967
2.07294
2.05731
2.02918
1.99669
1.9608
1.92086
1.88015
1.83982
1.79713
1.74948
1.68684
1.6059
1.49455
7.04477
6.32566
5.60072
4.91284
4.24027
3.63149
3.05706
2.57322
2.1088
1.7267
1.42166
1.21153
0.973402
0.882716
0.869566
0.862649
0.927736
0.853289
0.850311
0.915011
0.85043
0.824
0.763593
0.786139
0.73228
0.739132
0.689706
0.700488
0.725068
0.715717
0.72379
0.778182
0.848331
0.915013
1.00142
1.09704
1.19455
1.30363
1.41156
1.53062
1.62191
1.73045
1.79737
1.88493
1.92433
1.97907
1.9876
2.01939
2.00422
2.00486
1.97367
1.94504
1.92145
1.89441
1.86719
1.84104
1.81103
1.78686
1.73748
1.68604
1.58419
4.94241
-5.1642
-6.46762
15.619
5.7943
20.1936
17.619
13.003
12.1265
28.9145
1.91634
24.8457
17.7408
3.0046
22.4612
-102.652
20.6739
14.3138
1.68509
17.0309
15.875
3.44893
0.551708
20.0648
12.0481
16.9644
17.0845
10.6483
20.4217
7.93351
10.4812
15.803
28.2704
2.22571
24.1154
0.94684
0.72348
57.3681
18.3503
17.7366
7.26159
-3.28603
18.2404
-89.3399
0.66182
32.4279
13.4013
3.53649
16.5602
26.4795
-4.08954
-48.7496
16.0813
10.7189
14.6295
14.2908
8.04358
7.89016
0.977033
-33.5593
4.29388
15.9322
17.596
-7.88979
-27.7042
14.8554
0.875491
10.4688
18.9161
18.1745
15.1194
59.4541
6.31636
15.1873
13.8471
7.49255
-13.8784
45.5358
15.9883
29.1914
-0.184268
16.6549
17.0317
-34.9466
18.0866
49.8698
12.5774
2.25591
15.8724
2.28026
-13.8793
15.9084
5.9724
-34.1332
-39.0707
6.49961
44.7959
10.1118
25.4111
-103.925
15.2852
16.332
24.3918
15.4967
17.5203
15.7556
14.8781
40.1194
19.6488
-79.3311
-111.509
16.3499
0.758656
1.88306
7.52058
2.72676
1.31181
19.5425
-6.9981
12.6851
15.2488
0.377587
12.2026
-120.75
-29.2416
12.3088
15.746
-46.7761
-34.0989
18.0532
21.1235
-7.75829
4.60487
12.0788
3.29878
11.7539
17.3759
-56.6166
-33.3617
12.3887
9.78934
-54.9558
14.8272
48.941
1.94447
13.9308
17.1156
1.93558
32.0363
-1.04628
15.6378
14.598
59.0179
-31.8695
-61.1855
10.3151
9.40739
-27.5478
14.7738
0.751691
16.9781
26.3678
16.2869
13.1984
15.3879
14.5855
8.67061
9.29413
16.9641
0.123961
-1.97856
1.6136
7.39419
17.4875
1.83216
1.97565
1.51363
9.88612
22.7654
2.03466
2.427
-1.69689
-32.549
10.9926
7.44297
1.06695
-10.2358
52.3341
11.1689
13.7717
25.0932
20.1965
-18.6832
-39.6312
14.5368
-31.4287
4.72058
-0.212465
21.3101
0.817625
11.0694
15.447
13.6244
-59.8261
-2.19088
20.8461
9.24028
16.4513
-46.8991
0.92701
40.6257
-6.57113
15.4566
-119.45
11.3258
-76.8591
-67.206
1.4245
34.3988
2.35842
12.6051
40.0998
12.6909
15.8364
1.32286
-7.3264
-8.97385
12.9171
17.1176
59.6896
1.77099
21.3107
-6.01733
-36.8977
13.6926
19.1599
3.25082
-56.4164
-46.3882
19.3332
13.4793
10.3294
11.4292
16.4856
-126.005
16.1637
8.77516
-99.0477
23.9303
16.0604
9.39949
23.661
1.71529
9.77738
12.4108
18.3407
24.8216
15.4886
7.9167
2.5932
15.6856
10.7844
-69.3208
18.6151
0.710039
13.8618
17.7731
1.58332
17.7306
1.15683
23.5271
1.75103
23.1291
12.2622
53.481
11.1672
14.8274
11.5664
16.3796
20.7124
50.3154
9.30505
-71.6954
15.8136
15.358
18.2835
15.6963
-60.4553
8.11114
8.46181
-27.0535
40.908
15.1353
15.6153
34.6538
17.5772
9.93455
4.99099
-0.74647
16.3822
12.3791
6.2396
49.5127
-3.74933
4.14719
-80.8346
22.0048
18.6874
19.294
-100.132
10.5086
13.6252
12.3482
-13.1893
16.0219
14.5284
1.16727
1.3042
7.58893
2.48631
16.8738
3.62947
15.679
14.7899
-29.1805
2.44859
15.7732
1.0125
-91.2392
6.21943
-27.0205
-47.3162
-104.096
2.723
2.08216
16.9995
0.456891
1.27676
-124.477
35.3821
15.4713
15.2646
12.5553
11.8091
49.7452
11.2926
-8.71596
18.5014
-73.0075
15.4274
1.90768
-46.556
-114.982
10.6364
-61.6321
9.55405
3.47257
15.3343
2.33671
2.98224
10.1528
0.663058
1.20259
-4.9632
0.580715
16.6097
7.80327
-116.753
-35.8059
3.7808
16.9485
-28.1479
-51.8042
13.2136
2.14392
16.1407
-6.53202
7.5251
2.00069
-72.9793
1.3083
-82.0037
20.1931
-91.3237
11.7698
6.00268
22.4832
1.58956
-120.19
-26.7848
47.3187
49.9346
4.03703
0.87493
17.7208
30.2708
16.9407
-0.227931
12.5615
-8.47193
16.1042
19.0132
21.9392
20.6076
-7.59678
-47.7483
13.2077
-82.6883
1.14927
-12.434
2.02839
-63.1227
-2.20374
18.7176
-126.719
11.1841
10.7205
24.7852
-53.9666
15.916
17.6613
1.57394
17.869
9.86706
15.1797
1.76594
35.8526
-26.6498
-53.0463
9.44278
-62.0421
8.98934
-55.9029
16.9918
16.1812
1.16393
3.79979
-99.9422
-1.93441
1.09592
-10.6834
-63.8617
-61.5887
17.8769
4.97419
-42.925
-51.1662
16.9732
4.24506
-34.523
23.0842
13.9535
37.5553
-41.3539
0.283882
-9.5518
0.617081
10.0206
-96.955
3.00939
11.14
19.7939
46.584
2.67772
44.4923
2.79016
17.4939
2.37519
1.97081
14.3356
13.7598
0.326557
1.42611
16.9653
3.68863
1.9386
3.39335
1.94909
2.16569
1.78896
8.50582
6.3883
13.7084
15.0904
-114.576
9.47896
-72.4164
-108.455
15.9035
0.851187
2.98743
19.0649
4.28499
1.92874
15.8447
17.1015
15.328
5.35354
-37.9716
9.92481
26.5178
14.2281
15.0524
15.5475
5.13774
0.767189
14.1041
19.0389
10.7823
1.88282
14.3548
14.1608
-12.7383
12.8659
-0.189687
-2.90774
-3.74187
15.9038
19.9415
10.2973
21.6538
3.39048
2.56655
48.5271
-23.9659
-6.1007
21.9268
8.11799
1.56613
1.87889
-79.712
-30.0023
20.923
3.7506
11.1994
0.876434
-21.3136
18.3488
13.3569
-27.1727
-85.2109
13.4261
-19.5311
-54.1888
4.9509
-107.708
10.3817
11.5347
10.2897
-34.827
15.4416
-82.9428
-2.55588
13.1082
1.19503
16.1785
0.325628
15.6964
13.8452
32.1385
2.88561
1.09087
15.3241
7.09199
0.818937
-49.3312
-33.2416
8.61834
-36.9206
5.52189
29.1836
2.09676
11.4177
-95.1323
11.2403
9.328
14.9923
1.96975
52.441
1.68056
7.69248
9.79889
1.75805
1.32562
14.6398
16.3138
15.6154
10.3157
11.0319
29.2677
-75.0871
8.63959
17.7723
-34.1281
0.805854
-88.4691
14.9692
0.826352
17.8194
-54.4689
4.42486
-20.817
1.02734
1.00117
2.90512
-107.626
20.4889
16.2657
7.20198
16.4882
-28.4971
-21.3537
-5.92737
11.7213
10.1155
5.6726
13.9166
0.334174
0.795613
16.5539
23.142
1.92421
-60.2774
21.0298
2.12064
20.5127
-8.5967
17.446
36.3185
6.54153
29.9123
18.505
-29.3077
-23.4687
-5.39388
18.8627
12.5137
-32.7052
13.8837
13.2409
4.22097
6.3617
0.886752
-33.3909
41.6331
4.18051
2.08121
1.1678
-95.7641
10.593
23.3129
16.1672
1.03729
5.54985
-24.7369
14.4166
13.6449
7.59775
1.74914
-7.90003
14.7069
1.81818
11.9329
-21.4163
1.94867
40.2245
1.07456
-0.187934
8.51432
57.0308
16.9377
17.0281
1.85705
11.1035
7.24253
10.1322
10.3158
-118.912
2.33123
-35.2789
30.7495
17.0353
9.44352
19.3249
-6.16573
-10.4799
1.92811
4.47352
1.84376
13.5791
-2.00886
18.2137
-89.3966
16.9743
8.07667
2.13091
-3.10071
2.89103
-7.96717
11.3932
3.36666
1.10929
19.194
-123.695
16.0148
17.0723
12.5264
-5.00798
18.6799
4.66566
-21.1106
15.562
-15.587
-99.637
17.666
10.3931
14.7892
-62.8026
-6.02821
16.1845
43.8169
13.2837
9.66148
13.2524
-112.188
-128.35
16.1833
-1.70678
-11.5708
1.95665
17.6989
7.50334
-11.0533
14.1219
15.7908
-0.0912344
18.5789
20.1566
9.93461
15.321
-2.68606
14.9247
-5.78012
22.5432
2.29839
-4.58587
42.0929
1.45113
8.443
22.083
4.78455
-48.403
23.7726
-83.6257
20.8698
1.30071
-20.8975
11.2405
-11.0277
0.790493
14.0745
15.1933
-92.799
-38.2399
14.3106
-70.1482
-10.2107
53.9736
-17.9497
-22.0062
23.085
0.817761
5.80323
13.6731
-57.7867
-24.9626
-4.36069
-4.92525
-7.23771
1.12859
22.6807
18.6826
13.4362
-122.098
-46.8896
27.9298
2.42307
-111.919
12.6959
15.1076
10.4866
1.434
5.35014
1.5247
-16.7778
21.2356
-121.553
-17.9611
-86.9286
-100.77
19.0287
25.3146
-43.0462
25.5632
15.0507
13.0143
11.3671
10.9512
26.2312
18.0121
2.40403
-51.7311
-31.6449
23.8926
2.76906
4.31868
14.4981
1.95957
13.427
-54.4232
1.82916
49.6005
3.91898
22.5425
12.0743
18.7369
14.4928
-76.1183
15.6909
44.6916
1.08386
0.496841
33.0178
61.5744
12.4422
13.4813
25.1713
-51.9439
-17.2489
17.5693
11.7767
-93.5449
27.9466
17.5867
-64.8544
15.658
3.41138
1.79307
6.12699
-16.3844
54.3605
0.81876
-9.6218
-0.213206
18.1248
0.519459
10.8053
14.9883
17.2624
13.7726
1.05583
17.4745
0.738177
30.0512
0.77797
10.7835
10.1914
17.1546
9.0832
-53.0078
10.3668
17.6566
-32.0513
-72.726
35.3396
2.04298
8.33661
14.7457
35.4855
-86.8886
11.3487
-3.67556
10.6132
16.709
-87.3256
16.3283
10.5338
49.6524
30.9881
-19.9248
4.42302
16.2472
16.258
-70.583
-5.12106
11.1837
15.42
1.60721
16.8423
-128.649
7.75371
0.989664
11.49
18.4664
0.219985
15.417
23.069
24.0349
4.47108
-0.599898
17.016
20.6493
18.049
20.2744
11.7666
18.2826
-69.2944
3.2204
18.3498
-26.4893
14.6557
7.56289
19.6775
12.1863
-61.8356
12.7015
5.29592
18.6342
-21.8991
17.184
-25.6889
-103.727
1.7784
1.72696
-47.7988
16.7306
18.3401
-20.4703
-107.941
1.33845
-13.6201
16.3189
-84.6408
14.0015
17.0101
17.8017
-20.5152
7.67566
10.1494
-30.8712
16.5745
9.0858
-84.5863
10.4221
-119.313
48.2962
12.2986
18.1367
7.07259
16.173
-8.86437
-7.06857
20.1165
-20.1243
6.51112
13.2871
-38.4292
5.31445
17.7134
-50.714
15.4508
1.50421
-67.1964
-15.691
17.1677
19.3537
15.2652
62.2198
10.573
-0.731771
-24.2868
15.4571
-12.3742
15.4861
5.24494
13.8204
0.950021
11.6096
0.837446
-13.06
59.3679
8.50412
59.6769
7.10128
14.8157
4.11476
21.372
-9.26636
17.3732
11.9752
1.88497
59.8466
17.0693
10.7665
-8.13825
0.672107
-108.625
14.7551
-5.18571
12.5632
-23.4858
-64.0804
1.24134
-73.5676
10.8277
3.57797
-28.2882
18.3874
16.1528
13.596
14.1938
21.8776
16.2013
12.1034
17.7638
1.57179
-73.0484
17.3696
20.2321
16.8497
9.03822
-72.3972
1.45372
-26.7627
16.3339
-44.7135
0.982555
24.7164
-68.42
17.007
0.882717
39.7981
1.89275
22.213
4.14664
2.32603
13.9689
11.6013
-108.277
14.5431
-1.25062
-38.5749
1.97563
15.6802
10.9908
31.1407
3.39757
1.7751
-81.4096
16.3636
16.9998
17.3491
-19.7287
-34.8369
14.496
12.3369
14.2679
1.33749
2.23048
49.1827
0.379666
-64.299
2.83467
-58.6965
0.900416
0.707677
31.7241
51.8151
14.6431
60.1758
46.5217
18.4143
17.0004
6.48939
15.012
18.5047
3.04255
2.01154
19.8045
2.12829
11.3206
19.1939
10.5466
18.409
28.8483
2.01806
-6.16716
-123.05
17.4359
13.9
-50.7032
8.41576
22.2663
14.6134
12.5916
2.74845
17.76
-1.73698
1.93148
30.6362
13.5072
1.2245
17.106
17.7819
13.8164
6.67196
15.1058
17.2089
-3.29402
18.5095
20.6014
-77.9259
-31.5394
-19.5828
15.0002
2.08856
-51.4451
17.2746
1.99579
1.23667
-126.609
0.859702
15.5826
8.58637
30.491
-0.299287
1.54966
10.7936
46.3616
2.14552
14.5058
1.35999
17.2312
53.7933
14.7617
-22.7663
16.375
1.18877
-69.5442
16.1026
42.9654
4.70038
13.8798
18.5176
30.5259
11.5217
19.6279
2.57692
13.4359
11.4518
-123.472
4.12672
18.6401
19.998
-64.854
-88.6065
15.3427
18.4345
13.2871
10.9572
-58.0276
24.5805
-58.5168
18.1101
11.8998
16.2687
-11.749
6.15882
17.5893
0.732381
1.99406
-90.4716
-64.7098
8.93532
-3.2408
-74.1429
17.8078
18.3523
18.1883
8.45772
19.0826
2.93178
18.3136
10.5106
-2.00205
-25.527
2.96501
13.3947
2.0169
35.7114
17.0291
19.9338
-106.09
15.9923
15.5782
20.0368
12.9968
-75.2399
-7.93166
2.22793
17.2193
17.8062
17.8979
-4.63416
20.1963
-19.2371
8.87565
8.528
14.779
10.0009
14.0119
10.5373
11.7263
10.3833
-1.14864
-11.3138
2.9225
-93.968
12.6509
17.0113
1.61302
-92.2355
40.4113
2.37967
23.6748
16.2749
13.1168
12.6806
17.2986
60.801
-7.84727
1.2443
-94.0071
17.1432
28.074
-37.1044
3.97606
-54.6467
1.63285
30.8225
2.01858
17.1078
-24.5007
-13.2538
-37.7813
-9.25401
17.929
1.84948
8.70461
22.9622
14.6945
20.1944
9.45537
56.7665
20.5563
17.1831
43.9216
12.3064
13.463
18.1941
21.2664
-10.6218
1.60425
9.93154
12.8888
-16.8337
14.4904
11.3382
14.3094
-3.26285
-69.1758
-90.2999
12.1822
8.77842
-71.386
8.71003