/*--------------------------------*- C++ -*----------------------------------*\
| =========                 |                                                 |
| \\      /  F ield         | OpenFOAM: The Open Source CFD Toolbox           |
|  \\    /   O peration     | Version:  2.3.1                                 |
|   \\  /    A nd           | Web:      www.OpenFOAM.org                      |
|    \\/     M anipulation  |                                                 |
\*---------------------------------------------------------------------------*/
FoamFile
{
    version     2.0;
    format      ascii;
    class       volScalarField;
    location    "0.21";
    object      p;
}
// * * * * * * * * * * * * * * * * * * * * * * * * * * * * * * * * * * * * * //

dimensions      [0 2 -2 0 0 0 0];

internalField   nonuniform List<scalar> 
9648
(
0.155335
-0.144018
-0.509938
-0.96972
-1.5243
-2.18252
-2.95044
-3.83923
-4.86364
-6.0386
-7.37404
-8.88209
-10.5746
-12.4614
-14.5503
-16.85
-19.3666
-22.1072
-25.0731
-28.2665
-31.6897
-35.3364
-39.2043
-43.2876
-47.5812
-52.0734
-56.7496
-61.5951
-66.5881
-71.7203
-76.9749
-82.3373
-87.7939
-93.3112
-98.8679
-104.429
-109.981
-115.521
-121.031
-126.502
-131.926
-137.303
-142.587
-147.749
-152.743
-157.524
-162.098
-166.47
-170.649
-174.611
-178.335
-181.813
-185.039
-187.98
-190.64
-193.006
-195.066
-196.831
-198.278
-199.418
-200.237
0.738925
0.428293
0.055
-0.398409
-0.934364
-1.565
-2.30389
-3.16227
-4.14915
-5.27659
-6.55555
-7.99735
-9.61235
-11.4099
-13.3986
-15.5858
-17.9777
-20.5795
-23.3942
-26.4236
-29.6682
-33.1249
-36.7902
-40.6597
-44.7274
-48.9832
-53.4133
-58.0006
-62.7273
-67.5815
-72.5509
-77.6236
-82.7878
-88.0173
-93.285
-98.5582
-103.819
-109.056
-114.254
-119.413
-124.531
-129.607
-134.615
-139.506
-144.223
-148.732
-153.032
-157.133
-161.051
-164.78
-168.291
-171.569
-174.601
-177.373
-179.87
-182.092
-184.018
-185.666
-187.011
-188.056
-188.78
0.584514
0.297784
-0.0456617
-0.459091
-0.957711
-1.55114
-2.24758
-3.05983
-3.99863
-5.0769
-6.30475
-7.69341
-9.25283
-10.9919
-12.919
-15.0411
-17.3643
-19.8929
-22.63
-25.5773
-28.7348
-32.1
-35.6704
-39.441
-43.4056
-47.5543
-51.8736
-56.3479
-60.9599
-65.6967
-70.5423
-75.4826
-80.5046
-85.5922
-90.7277
-95.8967
-101.083
-106.259
-111.39
-116.445
-121.427
-126.342
-131.189
-135.937
-140.533
-144.951
-149.184
-153.229
-157.085
-160.735
-164.165
-167.364
-170.327
-173.031
-175.48
-177.654
-179.564
-181.176
-182.501
-183.54
-184.305
0.820745
0.531079
0.187407
-0.221155
-0.705304
-1.27629
-1.94494
-2.72292
-3.62203
-4.65447
-5.83162
-7.16424
-8.66195
-10.3334
-12.1875
-14.2303
-16.4675
-18.9032
-21.5397
-24.3789
-27.421
-30.6636
-34.1044
-37.7372
-41.5544
-45.546
-49.702
-54.011
-58.4615
-63.034
-67.7047
-72.4476
-77.2397
-82.0816
-86.9804
-91.9483
-97.0007
-102.076
-107.104
-112.035
-116.824
-121.519
-126.124
-130.601
-134.941
-139.118
-143.161
-147.063
-150.79
-154.311
-157.602
-160.657
-163.479
-166.057
-168.386
-170.454
-172.258
-173.784
-175.031
-175.997
-176.686
0.922216
0.663717
0.349883
-0.0292273
-0.481955
-1.01894
-1.65063
-2.38792
-3.24327
-4.22748
-5.35293
-6.62886
-8.06516
-9.66939
-11.4513
-13.4155
-15.5677
-17.9116
-20.4481
-23.1804
-26.1091
-29.2312
-32.5444
-36.0395
-39.7083
-43.5434
-47.5365
-51.6849
-55.9702
-60.3729
-64.8675
-69.4188
-74.021
-78.667
-83.3566
-88.1239
-92.9463
-97.8008
-102.653
-107.441
-112.187
-116.845
-121.342
-125.617
-129.626
-133.472
-137.247
-140.971
-144.585
-148.004
-151.185
-154.121
-156.821
-159.288
-161.516
-163.494
-165.213
-166.669
-167.863
-168.786
-169.44
1.03762
0.799132
0.508898
0.155999
-0.26703
-0.771532
-1.3672
-2.06483
-2.87754
-3.81477
-4.89015
-6.11095
-7.48778
-9.02525
-10.7362
-12.6229
-14.6898
-16.942
-19.3774
-22.0016
-24.8167
-27.816
-31
-34.3537
-37.8721
-41.5492
-45.3809
-49.3585
-53.4605
-57.6573
-61.9423
-66.3154
-70.7766
-75.3256
-79.9123
-84.4525
-88.9487
-93.3629
-97.7779
-102.368
-107.081
-111.893
-116.537
-120.699
-124.421
-127.833
-131.222
-134.69
-138.131
-141.437
-144.509
-147.327
-149.91
-152.263
-154.383
-156.26
-157.885
-159.258
-160.383
-161.252
-161.862
1.15665
0.937156
0.668821
0.339904
-0.0552042
-0.529263
-1.09094
-1.74993
-2.5217
-3.41283
-4.44026
-5.60771
-6.92736
-8.39741
-10.0389
-11.8473
-13.8283
-15.989
-18.3223
-20.8354
-23.5362
-26.4095
-29.4634
-32.6747
-36.0379
-39.5577
-43.2222
-47.0385
-50.9465
-54.9253
-58.988
-63.1428
-67.4672
-71.9529
-76.4837
-80.9383
-85.1158
-89.026
-92.907
-96.9531
-101.534
-106.496
-111.343
-115.65
-119.154
-122.212
-125.22
-128.332
-131.556
-134.696
-137.645
-140.343
-142.803
-145.048
-147.064
-148.839
-150.364
-151.645
-152.695
-153.511
-154.075
1.27437
1.07404
0.829192
0.522075
0.154963
-0.290538
-0.821325
-1.43929
-2.17363
-3.01641
-4.00079
-5.11465
-6.3864
-7.78034
-9.35437
-11.0873
-12.9763
-15.0535
-17.2833
-19.6732
-22.2687
-25.0025
-27.937
-31.0074
-34.2056
-37.5727
-41.0554
-44.703
-48.4628
-52.2515
-56.113
-60.0368
-64.0681
-68.3411
-72.8222
-77.2061
-81.4092
-85.1434
-88.3992
-91.8615
-95.7952
-100.502
-105.455
-109.813
-113.457
-116.424
-119.2
-122.041
-124.962
-127.86
-130.652
-133.188
-135.512
-137.652
-139.582
-141.243
-142.673
-143.838
-144.817
-145.593
-146.1
1.39761
1.20441
1.00179
0.696718
0.370214
-0.0600295
-0.567886
-1.11323
-1.84631
-2.60246
-3.58449
-4.61031
-5.89477
-7.13934
-8.68952
-10.3668
-12.1191
-14.1609
-16.2665
-18.4954
-21.0662
-23.5734
-26.4573
-29.3643
-32.382
-35.6879
-38.8821
-42.3855
-46.0364
-49.6115
-53.44
-57.1224
-60.756
-64.6634
-68.8154
-72.9291
-77.4676
-81.4073
-84.5843
-87.3856
-90.2938
-94.3504
-98.7056
-103.179
-107.212
-110.496
-113.439
-115.818
-118.409
-120.923
-123.64
-125.917
-128.103
-130.213
-132.028
-133.516
-134.949
-135.91
-136.895
-137.628
-138.013
-200.716
-200.89
-200.747
-200.276
-199.502
-198.41
-197.006
-195.285
-193.245
-190.916
-188.271
-185.334
-182.139
-178.682
-174.956
-170.977
-166.751
-162.308
-157.639
-152.758
-147.699
-142.447
-137.03
-131.46
-125.761
-119.926
-113.962
-107.901
-101.746
-95.53
-89.2536
-82.9368
-76.6009
-70.2464
-63.9009
-57.5667
-51.2667
-45.0129
-38.8134
-32.6847
-26.6382
-20.6969
-14.858
-9.14162
-3.56139
1.88033
7.16814
12.294
17.2432
22.0093
26.5876
30.9676
35.1388
39.1001
42.8412
46.3575
49.6443
52.6965
55.514
58.0929
60.4333
-189.194
-189.319
-189.153
-188.684
-187.923
-186.869
-185.516
-183.859
-181.902
-179.657
-177.121
-174.317
-171.277
-167.984
-164.438
-160.645
-156.62
-152.376
-147.921
-143.266
-138.429
-133.416
-128.24
-122.912
-117.448
-111.869
-106.189
-100.414
-94.5546
-88.6282
-82.6472
-76.6267
-70.5817
-64.524
-58.4698
-52.4282
-46.4152
-40.4444
-34.5272
-28.6758
-22.9036
-17.226
-11.6502
-6.18933
-0.855476
4.34455
9.39971
14.2997
19.0331
23.593
27.9728
32.1638
36.1572
39.9499
43.5332
46.9027
50.0519
52.9788
55.6805
58.1547
60.4006
-184.774
-184.932
-184.779
-184.33
-183.602
-182.571
-181.234
-179.575
-177.629
-175.409
-172.924
-170.165
-167.129
-163.845
-160.322
-156.568
-152.592
-148.406
-144.019
-139.443
-134.692
-129.774
-124.7
-119.481
-114.128
-108.656
-103.081
-97.4151
-91.6712
-85.8628
-80.0033
-74.1078
-68.1896
-62.2624
-56.3391
-50.4312
-44.5517
-38.7134
-32.9289
-27.2106
-21.5713
-16.024
-10.5783
-5.24601
-0.0371524
5.03991
9.97468
14.7571
19.3773
23.8283
28.1018
32.1912
36.0888
39.7903
43.2881
46.5775
49.6532
52.512
55.1514
57.5686
59.7642
-177.092
-177.21
-177.034
-176.564
-175.786
-174.711
-173.413
-171.866
-170.035
-167.933
-165.564
-162.936
-160.047
-156.914
-153.543
-149.944
-146.126
-142.101
-137.878
-133.473
-128.897
-124.159
-119.271
-114.241
-109.083
-103.809
-98.433
-92.9686
-87.4282
-81.8244
-76.1699
-70.4797
-64.7674
-59.0469
-53.3288
-47.6253
-41.948
-36.3088
-30.721
-25.1964
-19.7476
-14.3869
-9.12442
-3.971
1.06394
5.9728
10.7445
15.3699
19.8383
24.1447
28.2799
32.237
36.0107
39.5951
42.9852
46.1734
49.1573
51.9308
54.4931
56.8406
58.9747
-169.82
-169.925
-169.752
-169.302
-168.574
-167.583
-166.286
-164.733
-162.925
-160.866
-158.556
-155.998
-153.198
-150.166
-146.907
-143.429
-139.74
-135.849
-131.769
-127.514
-123.095
-118.524
-113.807
-108.954
-103.977
-98.8886
-93.7015
-88.4306
-83.0867
-77.682
-72.2267
-66.7382
-61.2286
-55.7137
-50.2009
-44.7022
-39.2276
-33.7886
-28.3993
-23.0708
-17.8147
-12.6442
-7.56851
-2.59825
2.25746
6.9942
11.5968
16.0605
20.3712
24.5272
28.5182
32.3371
35.9804
39.4409
42.7169
45.7982
48.685
51.3668
53.8469
56.119
58.1867
-162.207
-162.288
-162.099
-161.645
-160.927
-159.953
-158.709
-157.206
-155.454
-153.461
-151.227
-148.755
-146.051
-143.126
-139.986
-136.635
-133.079
-129.327
-125.393
-121.294
-117.039
-112.641
-108.105
-103.434
-98.6455
-93.7474
-88.7542
-83.684
-78.5436
-73.3449
-68.0939
-62.8133
-57.5119
-52.2113
-46.9111
-41.6248
-36.3602
-31.1279
-25.9443
-20.8182
-15.7611
-10.7877
-5.90473
-1.12445
3.54478
8.10518
12.534
16.8322
20.9785
24.9795
28.8208
32.4956
36.0043
39.3343
42.4937
45.4631
48.2497
50.8355
53.2316
55.4232
57.4221
-154.384
-154.437
-154.235
-153.774
-153.066
-152.113
-150.905
-149.443
-147.744
-145.819
-143.666
-141.283
-138.676
-135.864
-132.849
-129.629
-126.21
-122.594
-118.808
-114.868
-110.784
-106.567
-102.219
-97.7367
-93.1406
-88.4358
-83.6417
-78.7781
-73.8475
-68.8596
-63.8156
-58.746
-53.6569
-48.5788
-43.4979
-38.4328
-33.3867
-28.3668
-23.3945
-18.4787
-13.6264
-8.85484
-4.17002
0.414119
4.8908
9.27121
13.5224
17.6534
21.6302
25.4705
29.1567
32.6828
36.0512
39.2457
42.286
45.1405
47.8273
50.3133
52.6215
54.7277
56.6561
-146.374
-146.387
-146.173
-145.697
-145.004
-144.075
-142.904
-141.462
-139.806
-137.968
-135.902
-133.605
-131.093
-128.397
-125.521
-122.434
-119.155
-115.672
-112.04
-108.268
-104.352
-100.324
-96.1814
-91.8845
-87.4854
-82.9784
-78.3906
-73.7388
-69.013
-64.2411
-59.398
-54.5454
-49.666
-44.8246
-39.9672
-35.1434
-30.3362
-25.5196
-20.76
-16.0738
-11.4209
-6.85128
-2.37784
2.01264
6.28227
10.4882
14.5538
18.5232
22.3162
25.9934
29.5156
32.8805
36.1138
39.1635
42.094
44.8277
47.4215
49.7932
52.014
54.0235
55.8852
-138.248
-138.197
-137.976
-137.484
-136.806
-135.877
-134.757
-133.263
-131.697
-130.055
-128.001
-125.797
-123.344
-120.747
-118.112
-115.085
-111.941
-108.661
-105.156
-101.568
-97.7396
-93.8824
-90.0441
-85.8354
-81.6474
-77.4172
-72.9701
-68.5673
-63.9392
-59.5024
-54.7354
-50.225
-45.442
-40.9397
-36.2662
-31.7123
-27.2044
-22.474
-17.9353
-13.526
-8.99033
-4.67366
-0.449022
3.82768
7.74431
11.917
15.6602
19.5852
23.0565
26.6458
30.021
33.1284
36.3434
39.1332
42.0898
44.576
47.1836
49.2933
51.5521
53.3666
55.2689
62.5369
64.4027
66.0316
67.4244
68.5811
69.5064
70.2044
70.6798
70.9369
70.9883
70.8738
70.6181
70.1853
69.561
68.7749
67.811
66.6428
65.2939
63.7839
62.1255
60.3302
58.4086
56.3727
54.2343
52.0061
49.7012
47.3332
44.9165
42.4636
39.9902
37.5097
35.0372
32.5882
30.1762
27.8179
25.5263
23.3161
21.2054
19.2125
17.3567
15.6569
14.121
12.7631
11.6023
10.6521
9.92145
9.41892
9.14513
9.09294
9.24235
9.55739
9.98207
10.4357
10.815
10.9721
10.2547
8.74665
7.24541
6.03556
5.13915
4.3557
62.4189
64.2109
65.7767
67.1171
68.2323
69.1244
69.7975
70.2558
70.5024
70.5403
70.4151
70.1669
69.7551
69.1528
68.3824
67.4359
66.2992
64.9885
63.5208
61.9086
60.1628
58.294
56.315
54.2379
52.0744
49.8371
47.5385
45.1916
42.8093
40.4057
37.9939
35.5883
33.2032
30.8523
28.5508
26.3128
24.1526
22.0787
20.1048
18.2526
16.5355
14.9836
13.6069
12.4183
11.4292
10.6494
10.0865
9.74187
9.60867
9.66925
9.89068
10.2214
10.5836
10.8744
10.9058
10.2344
8.90799
7.57973
6.55028
5.76864
4.96939
61.7373
63.4904
65.0231
66.3373
67.4327
68.3122
68.9794
69.4383
69.6891
69.7278
69.6238
69.4044
69.0106
68.4328
67.6898
66.7786
65.6898
64.4348
63.0273
61.4791
59.8009
58.003
56.0976
54.0961
52.0096
49.8505
47.6307
45.3628
43.0593
40.7334
38.3985
36.0679
33.7553
31.4744
29.239
27.0629
24.959
22.939
21.0181
19.2157
17.5503
16.0329
14.6767
13.492
12.4901
11.68
11.0675
10.653
10.4297
10.3809
10.4754
10.6651
10.873
10.9945
10.8495
10.1788
9.01935
7.8102
6.81178
5.99195
5.1849
60.8934
62.5999
64.0931
65.3763
66.4476
67.3113
67.9684
68.4239
68.6731
68.7171
68.6377
68.4494
68.0789
67.5311
66.8188
65.9442
64.9031
63.7053
62.3602
60.8793
59.2725
57.5493
55.7224
53.8024
51.7994
49.7267
47.5948
45.4164
43.2029
40.9677
38.723
36.4822
34.2578
32.0634
29.9117
27.8163
25.7896
23.8442
21.9938
20.254
18.6397
17.1626
15.8314
14.6562
13.6469
12.8104
12.1498
11.6637
11.3436
11.1734
11.1228
11.1467
11.1754
11.1139
10.8247
10.1623
9.1564
8.06526
7.0898
6.24475
5.44923
60.0451
61.7014
63.1512
64.4004
65.4437
66.2886
66.9315
67.3798
67.6238
67.679
67.6235
67.4619
67.1161
66.6
65.9197
65.0835
64.0885
62.9473
61.664
60.2507
58.7164
57.0682
55.3216
53.4853
51.5678
49.5841
47.5426
45.4566
43.3354
41.1935
39.0413
36.8925
34.7581
32.6519
30.5852
28.5717
26.6227
24.7508
22.9675
21.2866
19.7202
18.2804
16.9757
15.8136
14.7997
13.9393
13.2339
12.6795
12.2664
11.978
11.7858
11.6487
11.5081
11.2887
10.8982
10.2549
9.37548
8.40158
7.4692
6.61809
5.8194
59.2157
60.8204
62.2235
63.4387
64.4513
65.277
65.904
66.3455
66.585
66.6565
66.6214
66.4828
66.1614
65.6779
65.0304
64.2344
63.2844
62.1999
60.9776
59.6321
58.1712
56.5976
54.9321
53.1808
51.3489
49.4561
47.5058
45.5138
43.4855
41.4383
39.3792
37.3234
35.2789
33.2613
31.279
29.3473
27.4754
25.6757
23.9568
22.3325
20.812
19.4074
18.1258
16.9727
15.9516
15.0648
14.3132
13.6912
13.1882
12.7885
12.4661
12.1854
11.8994
11.5528
11.0856
10.452
9.65963
8.7831
7.90611
7.0699
6.27165
58.3814
59.9333
61.287
62.4679
63.4485
64.2567
64.8685
65.3041
65.5415
65.6313
65.6136
65.4965
65.1998
64.749
64.1349
63.3806
62.4757
61.4486
60.2858
59.0092
57.6238
56.1251
54.5421
52.8763
51.1299
49.3302
47.4724
45.5762
43.6413
41.6904
39.7256
37.7639
35.8093
33.8802
31.9817
30.1317
28.3365
26.6082
24.9515
23.3815
21.9043
20.5329
19.2721
18.1259
17.0959
16.1821
15.3857
14.6989
14.1109
13.6098
13.1713
12.7668
12.3594
11.9102
11.3802
10.7435
10.0019
9.19465
8.37091
7.56156
6.77541
57.5306
59.035
60.3315
61.4834
62.425
63.2209
63.8146
64.2496
64.4841
64.5977
64.5897
64.4963
64.2213
63.8063
63.2238
62.514
61.6499
60.689
59.5772
58.3727
57.068
55.6382
54.1476
52.5672
50.8983
49.1993
47.432
45.6372
43.7913
41.9421
40.0696
38.2063
36.3387
34.5005
32.6806
30.9138
29.1939
27.5391
25.9401
24.4243
22.9838
21.6452
20.4027
19.2653
18.2251
17.2837
16.4485
15.7029
15.0367
14.4475
13.9077
13.4002
12.8918
12.3599
11.7755
11.1267
10.4096
9.6474
8.86254
8.08094
7.31329
56.7034
58.2694
59.4101
60.6392
61.4326
62.2964
62.7639
63.2939
63.447
63.6776
63.5784
63.588
63.2557
62.9664
62.3395
61.7478
60.8213
60.0309
58.9198
57.7959
56.6063
55.1395
53.8128
52.3489
50.6704
49.1462
47.3995
45.7739
43.9452
42.2573
40.4149
38.702
36.8741
35.1755
33.3794
31.7342
30.0468
28.5025
26.9227
25.4954
24.0508
22.7711
21.5254
20.4079
19.3597
18.3751
17.5173
16.7172
15.9729
15.3251
14.6873
14.1068
13.504
12.9132
12.2715
11.614
10.8975
10.1734
9.40621
8.63977
7.89297
3.60201
2.93417
2.32228
1.71603
1.12136
0.573303
0.0792409
-0.356232
-0.71604
-0.995493
-1.19266
-1.31163
-1.34979
-1.30989
-1.22027
-1.1005
-0.96461
-0.832855
-0.717261
-0.623423
-0.552247
-0.496879
-0.452293
-0.412084
-0.372424
-0.328445
-0.275739
-0.211575
-0.131682
-0.0355199
0.0797503
0.214062
0.36556
0.533739
0.716055
0.907862
1.10303
1.29665
1.48383
1.65779
1.81312
1.94631
2.05451
2.13337
2.18052
2.19701
2.18325
2.14209
2.07602
1.98933
1.88703
1.77376
1.65345
1.5318
1.40939
1.28668
1.15921
1.02117
0.868004
0.696382
0.480398
4.1781
3.54407
2.98617
2.42015
1.85017
1.32873
0.859947
0.442205
0.0974521
-0.166078
-0.345026
-0.437055
-0.443751
-0.374969
-0.274095
-0.148685
-0.0121619
0.117814
0.229932
0.318819
0.385139
0.433934
0.471342
0.503234
0.532477
0.564051
0.602407
0.651701
0.715091
0.794798
0.892805
1.00977
1.14509
1.29661
1.46012
1.63339
1.81185
1.99031
2.1636
2.3269
2.4748
2.60101
2.70254
2.77649
2.8207
2.83494
2.82001
2.77755
2.70992
2.61987
2.51176
2.39189
2.26354
2.13135
1.99625
1.86131
1.72245
1.57778
1.41947
1.23849
1.01721
4.426
3.79415
3.22036
2.60463
1.98518
1.44688
0.958985
0.507903
0.129272
-0.169553
-0.388978
-0.528125
-0.590969
-0.593324
-0.527751
-0.424768
-0.287623
-0.149206
-0.0307083
0.0624497
0.131784
0.183013
0.222429
0.256328
0.291059
0.330393
0.377457
0.435435
0.506802
0.593353
0.696814
0.817807
0.95566
1.10852
1.27332
1.44621
1.62269
1.79793
1.96684
2.12421
2.265
2.38467
2.47931
2.54586
2.58231
2.58843
2.56508
2.51477
2.44096
2.34863
2.24207
2.1251
2.00328
1.88227
1.76419
1.64683
1.5249
1.39109
1.23537
1.05037
0.834279
4.71159
4.06669
3.46172
2.82739
2.2079
1.66941
1.16347
0.68753
0.303735
0.00946855
-0.211296
-0.34785
-0.397166
-0.373334
-0.281391
-0.142382
0.00276931
0.123353
0.235947
0.331668
0.405776
0.460606
0.500438
0.530793
0.556419
0.582588
0.613675
0.65423
0.707197
0.774882
0.859234
0.961277
1.08059
1.21526
1.36265
1.51918
1.68065
1.84256
2.00012
2.14849
2.28274
2.39872
2.49271
2.56212
2.60506
2.62142
2.61183
2.57851
2.52411
2.45262
2.3675
2.27296
2.17091
2.06214
1.94484
1.8247
1.70064
1.57022
1.4293
1.26753
1.06727
5.07678
4.40184
3.76389
3.11881
2.49419
1.92745
1.39253
0.908403
0.521343
0.210773
-0.0372165
-0.189621
-0.248383
-0.240432
-0.171733
-0.0623214
0.0585691
0.188781
0.299827
0.388084
0.454234
0.503576
0.540874
0.572163
0.5997
0.628163
0.660303
0.700669
0.751408
0.814297
0.891831
0.985352
1.09461
1.21796
1.35315
1.49693
1.6455
1.79483
1.94055
2.0783
2.20329
2.31194
2.4004
2.4666
2.50817
2.52507
2.51706
2.4862
2.43394
2.36391
2.27888
2.18238
2.07751
1.97196
1.87579
1.78005
1.68126
1.57442
1.45252
1.30904
1.13496
5.51552
4.80698
4.13561
3.47734
2.84243
2.25036
1.69586
1.19558
0.777986
0.435114
0.171978
0.0134502
-0.0646853
-0.0792611
-0.0184353
0.0926979
0.218059
0.338465
0.442447
0.522088
0.575693
0.614675
0.642299
0.665689
0.684704
0.705432
0.728859
0.76081
0.802329
0.854421
0.920397
1.00161
1.09787
1.2074
1.32838
1.4577
1.59181
1.72716
1.85973
1.98579
2.10043
2.20108
2.28343
2.34659
2.38741
2.40686
2.40381
2.38136
2.33998
2.28398
2.21591
2.141
2.06413
1.98578
1.90092
1.81636
1.72881
1.63355
1.52347
1.39242
1.23243
6.01655
5.28943
4.5919
3.91762
3.26985
2.66196
2.09514
1.58266
1.13757
0.766341
0.479008
0.289584
0.179642
0.154051
0.212471
0.311632
0.42634
0.534866
0.625843
0.688967
0.721789
0.743983
0.756692
0.77008
0.778624
0.790646
0.803135
0.825362
0.856489
0.895617
0.94916
1.01728
1.10046
1.19608
1.30301
1.41803
1.53793
1.65954
1.77929
1.89419
1.99879
2.09175
2.16808
2.22837
2.26814
2.29002
2.2916
2.27713
2.24585
2.20288
2.14927
2.09039
2.02836
1.96342
1.89722
1.83061
1.76062
1.68297
1.59021
1.47651
1.33338
6.56263
5.8334
5.12548
4.44633
3.7896
3.17838
2.60864
2.0989
1.64432
1.25899
0.952641
0.736448
0.58471
0.532319
0.557407
0.623069
0.72583
0.801205
0.858233
0.900166
0.899164
0.896622
0.885653
0.88882
0.880805
0.883044
0.880018
0.893824
0.916837
0.938979
0.978994
1.03495
1.10799
1.19083
1.28535
1.38769
1.49466
1.60387
1.71245
1.81847
1.9139
2.00092
2.07104
2.12969
2.16712
2.19137
2.19557
2.18808
2.16365
2.13091
2.08686
2.03993
1.99075
1.93925
1.88598
1.83517
1.78241
1.72425
1.6499
1.55626
1.43107
7.14263
6.43202
5.71638
5.04017
4.37999
3.78518
3.22511
2.75631
2.30615
1.93783
1.64509
1.44663
1.21774
1.13547
1.12809
1.12364
1.18988
1.11438
1.10961
1.17162
1.10397
1.07716
1.01769
1.04169
0.989607
0.999177
0.952839
0.967233
0.995298
0.989103
0.999394
1.05621
1.12713
1.19397
1.27828
1.37123
1.46336
1.56546
1.66435
1.77288
1.8513
1.94577
1.99695
2.06739
2.08912
2.12565
2.11611
2.12912
2.09685
2.07984
2.03299
1.98949
1.95105
1.91019
1.87258
1.83719
1.79713
1.7631
1.70188
1.63824
1.52218
5.03919
-5.38878
-6.67354
15.5077
5.89445
20.2965
17.5977
12.8748
12.2084
28.9736
2.38215
24.9823
17.7217
2.85684
22.5622
-102.737
20.7246
14.1592
2.17141
16.9935
15.7427
3.31518
0.425883
20.1
12.1315
17.077
17.0431
10.7564
20.4721
8.08299
10.5697
15.6787
28.332
2.17549
24.2504
1.39666
1.05138
57.4093
18.3472
17.9978
7.38275
-3.29359
18.2968
-89.5385
0.51657
32.535
13.6861
3.64197
16.4247
26.6164
-4.407
-49.7794
15.9444
10.9131
14.645
14.2468
8.19098
8.15486
1.31109
-34.3803
4.81531
16.0013
17.8689
-7.84418
-28.0994
15.0532
1.17998
10.4115
18.9747
18.2172
15.1911
59.4869
6.47956
15.5937
13.9526
7.57138
-14.2023
45.6763
15.841
29.3254
-0.113892
16.8681
17.181
-34.7435
18.1322
49.885
12.6586
2.29059
15.8791
2.37144
-13.8757
15.7465
6.08379
-34.8714
-39.4433
6.61378
44.8861
10.1921
25.4752
-104.229
15.5525
16.2235
24.4377
15.2972
17.484
15.5773
14.9965
40.1976
19.6757
-81.8538
-111.751
16.3836
0.584024
1.89355
7.82562
2.73758
1.58162
19.5962
-6.91916
12.9112
15.6021
0.219115
12.3885
-121.191
-29.7677
12.1085
15.8197
-46.7453
-34.0056
18.1103
21.2133
-7.71455
4.9844
12.279
3.31052
11.876
17.3327
-57.7557
-33.9755
12.4866
9.88008
-55.7161
14.9627
48.9825
2.00462
13.8507
17.0817
2.03083
32.101
-1.26292
15.3879
14.5532
59.0441
-31.6658
-62.8101
10.5138
9.54997
-27.5188
14.5143
1.04357
17.1458
26.4279
16.2001
13.2924
15.4646
14.7637
8.90262
9.4199
16.9634
-0.0902626
-2.24037
1.86236
7.74911
17.5889
1.71009
1.94238
1.75699
10.0155
22.8313
2.47471
2.8618
-1.69166
-32.8058
11.1389
7.57247
0.896294
-10.1941
52.3926
11.3189
14.0808
25.1599
20.2378
-19.1702
-39.7104
14.2318
-31.4111
5.19408
-0.317028
21.3733
1.08584
11.2105
15.5221
13.9811
-59.9674
-2.44268
20.908
9.33798
16.4947
-46.9807
1.1889
40.6366
-6.73279
15.3072
-119.763
11.5127
-76.7725
-67.1635
1.47863
34.5338
2.39809
12.8269
40.1498
12.7858
15.6756
1.5926
-7.26729
-8.91452
13.1335
17.2167
59.7219
1.63057
21.3978
-6.19894
-36.8115
13.7185
19.1831
3.33595
-56.3242
-46.368
19.3903
13.4884
10.2469
11.6104
16.1593
-126.37
16.25
9.02788
-99.1373
23.985
15.9347
9.4731
23.7355
1.91826
9.96434
12.6096
18.3367
24.8771
15.8106
8.03187
2.91585
15.6038
10.9407
-68.2246
18.6719
1.00879
13.7597
17.832
1.50748
17.7822
1.41536
23.5877
1.70272
23.1942
12.3729
53.5695
11.2371
14.91
11.6706
16.4501
20.7533
50.3601
9.4258
-71.6807
15.8357
15.4352
18.2772
15.5058
-60.3009
8.20992
8.53239
-27.2091
40.9834
15.1318
15.4216
34.6901
17.6287
10.0453
5.21604
-0.966879
16.1421
12.6163
6.3709
49.6388
-3.70506
4.4451
-84.4599
22.0624
18.7279
19.3202
-100.091
10.6057
13.3774
12.4595
-13.2934
15.8323
14.6444
1.0449
1.60094
7.6553
2.82867
16.9801
3.87814
16.0987
14.8019
-29.6356
2.63785
16.1061
1.43211
-91.3713
6.38927
-27.0147
-48.3569
-104.956
3.12709
2.15782
17.0601
0.261165
1.16568
-124.552
35.45
15.5407
15.3416
12.6343
11.9881
49.7882
11.375
-8.64249
18.503
-74.3004
15.5033
1.91888
-46.657
-115.18
10.8435
-61.6251
9.71474
3.57435
15.2423
2.2603
3.08979
10.3189
0.477828
1.51842
-4.75672
0.475083
16.7457
7.93796
-117.269
-36.294
3.98226
17.0158
-28.4575
-52.3028
13.2942
2.21611
16.2122
-6.8966
7.51857
2.11745
-72.8828
1.20539
-82.3957
20.2287
-91.5175
11.8428
6.1705
22.672
1.82061
-120.596
-26.685
47.3608
49.961
4.14628
1.14367
17.9837
30.3303
17.0119
-0.433133
12.6353
-8.2616
16.0065
19.0695
22.0084
20.649
-7.56571
-47.8736
13.4307
-82.6707
1.25134
-12.7304
2.4983
-63.2783
-2.48066
18.7491
-127.104
11.3661
10.8744
24.9701
-54.1247
15.7645
17.6311
1.99892
17.9435
10.0483
15.1085
1.69546
35.9047
-26.7431
-53.1205
9.65252
-62.1784
9.18333
-56.2115
17.0649
16.2178
1.43589
3.89298
-96.3364
-2.20283
1.00245
-10.6557
-64.7426
-62.4085
17.9637
5.36904
-43.057
-51.2934
16.9851
4.44678
-35.527
23.1456
13.8723
37.6948
-41.5173
0.355583
-9.52596
0.426108
10.1872
-92.5108
3.10046
11.3146
19.8249
46.5982
2.99402
44.5681
2.88839
17.529
2.31295
2.03796
14.4803
13.5976
0.118909
1.67923
17.0387
3.84272
2.02355
3.38071
1.99459
2.43159
2.01799
8.57124
6.57718
13.0852
14.9047
-114.46
9.57722
-71.8874
-108.736
15.4023
0.706992
2.98308
19.0998
4.7329
1.92763
15.6333
17.2087
15.7355
5.57246
-38.0574
10.0192
26.5796
14.3151
15.3516
15.3895
5.20307
1.10093
14.1933
19.0536
10.9258
2.01491
14.4509
14.2469
-12.7338
13.2042
-0.393413
-2.83481
-3.67402
15.7612
19.9742
10.4635
21.6921
3.59928
2.64343
48.5582
-24.4311
-6.47321
21.9939
8.27754
1.80509
2.07396
-79.6616
-30.61
20.9672
3.86204
11.3058
1.14776
-21.3536
18.3444
13.5122
-27.1727
-87.2221
13.5243
-20.035
-54.2194
5.0498
-107.931
10.5114
11.7635
10.4775
-35.8586
15.6248
-83.0634
-2.83181
13.1172
1.47297
16.0505
0.410924
15.6303
14.0383
32.2099
3.10656
1.41818
15.4001
7.28491
1.09024
-49.102
-34.1244
8.69103
-37.8958
5.6494
29.2637
1.98557
11.6337
-95.0849
11.3864
9.4286
15.0353
2.02544
52.5044
1.90678
7.81186
9.98602
1.95317
1.58554
14.7828
16.2433
15.6032
10.4153
11.1336
29.3268
-74.9481
8.88545
17.7924
-35.1247
0.609319
-91.3352
15.2767
1.09295
17.8705
-54.3823
4.51754
-20.7991
1.28539
1.27942
3.15135
-107.917
20.5249
16.1476
7.33017
16.7137
-28.7895
-21.2314
-5.86562
11.9654
10.2429
5.7963
13.8159
0.405774
1.05929
16.5753
23.2177
1.97353
-61.6603
21.0795
2.3931
20.5517
-8.61251
17.4996
36.3697
6.68088
29.9826
18.5403
-29.216
-24.0322
-5.66579
18.874
12.8023
-32.765
13.8427
13.3377
4.26958
6.45951
1.16681
-34.2445
41.7733
4.56725
2.31019
1.64245
-92.6446
10.7193
23.3855
16.192
1.33539
5.9128
-25.1117
14.5194
13.529
7.81476
1.62739
-8.07632
14.7078
1.8726
12.0525
-21.4758
1.91543
40.3698
1.33116
-0.152672
8.60959
57.0486
17.053
17.1588
1.82398
11.2137
7.25218
10.323
10.5098
-119.459
2.75961
-35.3582
30.812
17.1173
9.56278
19.3603
-6.12985
-10.4318
1.88708
4.58375
2.01144
13.6736
-1.9388
18.2052
-89.538
17.0451
8.23361
2.36534
-3.03144
3.11276
-8.31911
11.4921
3.59158
0.949611
19.2283
-124.092
16.0108
17.0918
12.7958
-5.28579
18.6889
4.77892
-21.0899
15.6904
-16.103
-101.592
17.7171
10.593
14.9498
-62.7635
-5.96649
15.7154
43.9455
13.3784
9.73667
13.5205
-112.382
-128.709
16.2855
-1.93672
-11.5271
1.98769
17.7135
7.57824
-11.0071
14.2482
15.864
-0.313475
18.6179
20.2359
10.1245
15.4491
-2.61563
15.2779
-5.77281
22.5977
2.45636
-4.56358
42.1036
1.69917
8.76798
22.1395
4.7018
-48.9917
23.8129
-83.6264
20.9098
1.64935
-21.1357
11.3715
-11.469
1.08315
14.3306
15.6485
-92.7087
-38.0208
14.503
-68.2605
-10.6285
54.0389
-18.4762
-22.4059
23.2845
1.08947
5.92387
13.4358
-59.6332
-25.3997
-4.29908
-5.21244
-7.31702
1.39096
22.7336
18.7686
13.4832
-122.181
-46.8303
28.002
2.68678
-111.911
12.5588
15.11
10.6742
1.69465
5.4152
1.78509
-17.2977
21.322
-121.616
-18.0773
-87.1158
-101.014
19.0835
25.3774
-42.9825
25.6075
15.1119
13.1137
11.5542
11.1354
26.2898
18.0545
2.89103
-51.7727
-31.8822
23.936
2.83694
4.42734
14.6309
2.41752
13.502
-54.5598
1.82757
49.6721
4.25212
22.603
12.2355
18.7865
14.5965
-76.0423
16.0678
44.7372
1.40371
0.402996
33.1203
61.6476
12.578
13.5723
25.2285
-52.019
-17.6762
17.6309
12.0257
-93.7525
28.0238
17.6381
-64.8698
15.5717
3.58134
2.03013
6.31521
-16.3957
54.4472
1.08772
-9.85494
-0.411122
18.1886
0.324674
11.0046
15.0457
17.2826
14.0403
1.36677
17.5533
1.01247
30.1083
0.857831
10.8764
10.3532
17.2491
9.16615
-52.434
10.4442
17.627
-32.4941
-74.2716
35.4964
2.16448
8.441
14.4689
35.6268
-87.051
11.5833
-3.88783
10.7145
16.7781
-87.2127
16.2095
10.7211
49.6716
31.1265
-19.9821
4.67126
16.178
16.1349
-69.8659
-5.41586
11.3092
15.4584
1.86353
16.7695
-128.785
7.78682
1.26268
11.6062
18.4661
0.0520688
15.4055
23.1242
24.0632
4.66644
-0.809489
16.9548
20.6915
18.1298
20.365
11.8858
18.3577
-69.1525
3.49818
18.4082
-26.629
14.7383
7.83917
19.7375
12.2608
-61.8071
13.0001
5.3884
18.6403
-22.1053
17.4081
-25.8497
-103.685
2.0488
1.60518
-47.8359
16.8048
18.3656
-20.3584
-108.083
1.59329
-13.5495
16.3886
-84.803
14.0903
17.1579
17.7771
-21.0402
8.00109
10.3622
-31.1556
16.6287
9.33465
-84.5562
10.5894
-119.332
48.4419
12.3841
18.1543
7.20446
16.0674
-8.81653
-7.216
20.1675
-20.5108
6.64454
13.4114
-38.4915
5.25593
17.7736
-50.8099
15.4767
1.53408
-67.1794
-16.2059
17.1864
19.4044
15.3472
62.2593
10.6995
-0.535982
-24.3616
15.285
-12.4617
15.6133
5.35018
13.2793
1.23122
11.8545
1.09931
-12.9524
59.4431
8.65525
59.7475
7.33158
15.1654
4.36885
21.5271
-9.2333
17.338
12.0824
1.73425
59.8876
16.9039
10.958
-8.08615
0.952173
-108.607
14.1527
-5.12313
12.8607
-23.7789
-64.7705
1.55822
-73.5998
10.9753
3.50788
-28.8664
18.4249
16.2225
13.688
14.5087
21.9503
15.7467
12.1829
17.811
1.8843
-72.2075
17.3564
20.275
16.7839
9.17288
-72.3258
1.71455
-27.2087
16.4167
-44.79
1.30535
24.7862
-68.5702
17.0268
1.16486
39.8311
2.08189
22.2703
4.37489
2.23578
13.8848
11.7332
-108.427
14.6592
-1.48376
-38.5077
1.9971
15.7994
11.1526
31.2031
3.47563
1.65829
-81.5551
16.4105
16.7972
17.4145
-19.6947
-34.7061
14.5785
12.4497
14.1362
1.61182
2.26277
49.2184
0.183328
-64.1276
3.18525
-58.6688
0.742583
0.998554
31.7546
51.928
14.9462
60.2206
46.6562
18.4542
16.9389
6.58666
15.0899
18.5317
3.38196
2.42552
19.8525
2.58387
11.4463
19.2304
10.7243
18.4274
28.9064
2.09536
-6.24606
-123.379
17.4071
14.2087
-50.7329
8.50749
22.3477
14.6984
12.851
2.61812
17.8261
-1.66
2.37747
30.6991
13.6017
1.08678
17.1709
17.8462
13.9195
6.79162
14.8004
17.2574
-3.23095
18.542
20.6403
-82.4445
-32.1583
-19.7622
15.1143
1.99864
-51.5619
17.3271
2.1154
1.50471
-126.705
1.12677
15.4078
8.74204
30.4924
-0.202106
1.78194
10.8453
46.4074
2.22843
14.4558
1.61595
17.2042
53.8253
14.8449
-23.1481
16.2842
1.46627
-69.5634
16.1733
43.0559
4.77887
14.0752
18.5213
30.6542
11.5957
19.6539
2.75626
13.377
11.5467
-123.526
4.29101
18.6756
20.0522
-64.8441
-84.5871
15.1329
18.495
13.3632
11.0718
-57.8435
24.6464
-58.4994
18.1702
11.9796
16.1517
-11.7185
6.49011
17.6831
0.540556
2.0255
-95.0442
-65.4301
9.02574
-3.50089
-74.0841
17.7856
18.3786
18.1905
8.61683
19.1318
2.86536
18.3562
10.6284
-2.27823
-25.59
3.03903
13.563
1.96222
35.7288
17.1241
19.9968
-106.357
16.0634
15.4557
20.069
13.0712
-77.1901
-8.1572
2.3305
17.2433
18.0386
17.9499
-4.9548
20.2288
-19.5352
8.99456
8.73635
15.067
10.2153
14.144
10.649
11.8546
10.4642
-1.07993
-11.4567
3.00712
-88.6637
12.7525
17.0569
1.70891
-96.7139
40.4007
2.6736
23.7416
16.351
13.2675
12.7878
17.6775
60.836
-7.79393
1.06144
-93.9112
17.1444
28.1338
-37.1147
4.49788
-54.8063
1.86256
30.8785
1.91767
17.1713
-24.7826
-13.2429
-37.747
-9.35561
17.9736
2.02662
8.86313
23.0353
15.0288
20.2842
9.53424
56.8073
20.6009
17.461
43.9704
12.5472
13.1288
18.1966
21.3765
-10.6063
1.93661
10.125
12.8946
-16.8612
14.5744
11.5687
14.2867
-3.21085
-69.3184
-88.7877
12.2974
8.9116
-71.425
8.78967
12.2798
16.8893
2.58891
2.23079
15.9503
0.265922