/*--------------------------------*- C++ -*----------------------------------*\
| =========                 |                                                 |
| \\      /  F ield         | OpenFOAM: The Open Source CFD Toolbox           |
|  \\    /   O peration     | Version:  2.3.1                                 |
|   \\  /    A nd           | Web:      www.OpenFOAM.org                      |
|    \\/     M anipulation  |                                                 |
\*---------------------------------------------------------------------------*/
FoamFile
{
    version     2.0;
    format      ascii;
    class       volScalarField;
    location    "0.49";
    object      epsilon;
}
// * * * * * * * * * * * * * * * * * * * * * * * * * * * * * * * * * * * * * //

dimensions      [0 2 -3 0 0 0 0];

internalField   nonuniform List<scalar> 
9648
(
2420.43
2431.39
2430.93
2426.65
2417.68
2403.29
2383.92
2359.38
2329.63
2294.76
2254.98
2210.38
2161.76
2110.03
2055.94
2000.41
1944.53
1889.26
1835.27
1783.1
1733.33
1686.29
1642.18
1601.22
1563.47
1528.87
1497.31
1468.74
1443.01
1419.91
1399.4
1381.3
1365.56
1352.01
1340.59
1331.12
1323.48
1317.6
1313.44
1310.91
1309.91
1310.42
1312.41
1315.79
1320.61
1326.91
1334.65
1343.8
1354.43
1366.7
1380.59
1396.09
1413.41
1432.55
1453.49
1476.07
1500.11
1525.26
1550.75
1575.98
1600.49
596.421
592.753
586.819
579.429
572.542
568.807
567.75
568.464
570.838
575.016
580.836
587.684
595.17
602.926
610.615
617.862
624.484
630.434
635.686
640.165
643.973
647.171
649.824
652.047
653.971
655.678
657.214
658.677
660.131
661.627
663.21
664.931
666.864
668.997
671.365
673.997
676.882
680.027
683.439
687.156
691.165
695.454
700.037
704.921
710.091
715.578
721.376
727.455
733.799
740.416
747.241
754.258
761.412
768.738
776.095
783.463
790.685
797.866
804.862
811.593
818.01
231.574
235.968
241.805
249.824
259.833
271.401
284.651
299.228
315.092
331.9
349.489
367.434
385.415
403.098
420.197
436.474
451.759
465.954
478.997
490.865
501.587
511.207
519.801
527.458
534.273
540.335
545.75
550.6
554.957
558.903
562.499
565.823
568.924
571.847
574.632
577.307
579.911
582.459
584.975
587.474
589.971
592.485
595.014
597.571
600.16
602.773
605.408
608.047
610.685
613.297
615.875
618.42
620.89
623.339
625.65
627.922
630.057
632.19
634.159
636.005
637.721
126.976
137.132
149.041
162.745
178.109
194.979
213.263
232.73
253.133
274.124
295.397
316.582
337.365
357.442
376.572
394.551
411.252
426.591
440.526
453.069
464.251
474.132
482.801
490.333
496.836
502.433
507.221
511.316
514.788
517.718
520.199
522.29
524.076
525.6
526.9
528.025
529.017
529.902
530.702
531.438
532.129
532.795
533.452
534.107
534.768
535.434
536.107
536.783
537.461
538.132
538.778
539.426
540.047
540.654
541.195
541.731
542.257
542.764
543.231
543.664
544.103
92.0285
104.607
119.131
135.519
153.643
173.35
194.419
216.554
239.41
262.577
285.682
308.342
330.241
351.098
370.706
388.881
405.529
420.598
434.073
445.999
456.432
465.445
473.124
479.56
484.887
489.232
492.744
495.511
497.614
499.151
500.184
500.815
501.116
501.145
500.951
500.582
500.083
499.473
498.784
498.028
497.226
496.408
495.591
494.789
494.005
493.245
492.515
491.81
491.125
490.465
489.813
489.169
488.544
487.926
487.311
486.7
486.119
485.544
484.958
484.372
483.793
79.1019
93.2451
109.524
127.824
147.954
169.708
192.774
216.771
241.273
265.804
289.954
313.306
335.571
356.475
375.881
393.588
409.536
423.724
436.145
446.912
456.102
463.76
470.033
474.967
478.756
481.584
483.549
484.818
485.411
485.409
484.939
484.033
482.834
481.409
479.775
478.003
476.145
474.204
472.205
470.168
468.106
466.058
464.045
462.084
460.17
458.311
456.51
454.779
453.105
451.475
449.888
448.33
446.807
445.315
443.844
442.426
441.051
439.694
438.34
436.999
435.655
75.0947
90.6503
108.485
128.437
150.225
173.607
198.185
223.518
249.143
274.47
299.126
322.609
344.71
365.146
383.928
400.746
415.588
428.535
439.552
448.856
456.546
462.612
467.259
470.502
472.629
473.815
474.211
473.932
472.966
471.45
469.464
467.089
464.483
461.702
458.748
455.69
452.619
449.472
446.328
443.179
440.03
436.944
433.936
431.028
428.185
425.433
422.774
420.207
417.735
415.337
413
410.711
408.488
406.281
404.116
402.015
399.975
397.995
396.019
394.026
392.061
75.217
92.1485
111.463
132.917
156.105
180.756
206.457
232.727
259.068
284.754
309.513
332.647
354.157
373.677
391.568
407.213
420.676
432.193
441.536
449.169
455.232
459.482
462.474
463.897
464.272
463.832
462.557
460.77
458.245
455.159
451.763
447.955
444.055
440.07
435.885
431.618
427.406
423.114
418.899
414.734
410.579
406.527
402.636
398.881
395.204
391.679
388.246
384.956
381.772
378.698
375.705
372.78
369.922
367.067
364.272
361.582
358.929
356.4
353.841
351.245
348.746
77.2509
95.3146
115.984
138.588
163.024
188.56
214.94
241.955
268.529
294.371
318.857
341.493
362
380.271
397.037
411.423
423.422
433.346
441.234
447.212
451.417
453.814
454.891
454.68
453.422
451.184
448.374
445.095
440.891
436.334
431.454
426.417
421.516
416.347
410.817
405.54
400.109
394.636
389.478
384.205
378.962
373.713
369.115
364.546
359.987
355.886
351.562
347.656
343.6
339.836
335.981
332.464
329.047
325.487
322.04
318.909
315.53
312.717
309.518
306.197
303.254
1624.35
1647.39
1669.32
1690.08
1709.87
1729.1
1747.87
1766.47
1785.11
1802.77
1819.08
1834.61
1849.62
1864.45
1879.34
1894.94
1911.84
1930.51
1951.34
1974.81
2000.69
2028.47
2057.74
2088.09
2119.17
2150.93
2183.51
2216.62
2250.19
2284.22
2318.93
2354.17
2389.96
2426.46
2463.67
2501.5
2540.06
2579.48
2619.82
2660.94
2702.86
2745.83
2789.83
2834.7
2880.76
2927.88
2975.95
3025.02
3075.29
3126.81
3179.51
3233.28
3288.66
3345.26
3403.45
3463.01
3524.67
3588.42
3654.26
3722.06
3791.96
824.084
830.223
836.185
841.897
847.378
852.75
858.155
863.436
868.845
873.997
879.105
884.102
889.101
894.134
899.189
904.308
909.509
914.835
920.279
925.816
931.41
937
942.564
948.079
953.534
958.909
964.139
969.194
974.063
978.77
983.333
987.726
991.968
996.081
1000.06
1003.91
1007.65
1011.27
1014.77
1018.16
1021.45
1024.67
1027.78
1030.78
1033.71
1036.54
1039.26
1041.87
1044.4
1046.84
1049.17
1051.41
1053.55
1055.74
1057.75
1059.85
1061.92
1064.2
1066.36
1068.58
1070.93
639.405
641.004
642.652
644.271
645.863
647.358
648.937
650.423
651.905
653.238
654.517
655.741
656.979
658.191
659.378
660.526
661.63
662.687
663.686
664.616
665.461
666.223
666.888
667.454
667.916
668.269
668.509
668.633
668.632
668.513
668.266
667.894
667.402
666.784
666.057
665.216
664.263
663.197
662.019
660.726
659.324
657.818
656.214
654.497
652.68
650.75
648.696
646.512
644.203
641.774
639.197
636.52
633.705
630.783
627.672
624.481
621.203
617.852
614.414
610.924
607.442
544.519
544.94
545.335
545.72
546.074
546.401
546.703
546.978
547.207
547.334
547.397
547.419
547.381
547.26
547.085
546.842
546.535
546.155
545.694
545.144
544.507
543.781
542.969
542.066
541.067
539.965
538.762
537.457
536.048
534.538
532.924
531.2
529.368
527.434
525.405
523.282
521.063
518.75
516.335
513.824
511.221
508.541
505.785
502.96
500.068
497.104
494.05
490.906
487.664
484.344
480.917
477.393
473.784
470.077
466.244
462.295
458.275
454.171
450.009
445.828
441.652
483.222
482.632
482.024
481.391
480.734
480.018
479.246
478.48
477.71
476.892
476.043
475.152
474.202
473.195
472.128
470.994
469.827
468.587
467.275
465.885
464.422
462.891
461.297
459.644
457.923
456.128
454.255
452.306
450.285
448.193
446.024
443.768
441.425
439.001
436.506
433.942
431.306
428.589
425.788
422.906
419.955
416.943
413.886
410.797
407.684
404.545
401.347
398.116
394.815
391.466
388.05
384.554
381.002
377.378
373.661
369.844
365.948
361.966
357.963
353.946
349.931
434.33
433.002
431.673
430.305
428.918
427.501
426.046
424.562
423.049
421.513
419.941
418.347
416.715
415.032
413.303
411.538
409.745
407.888
405.962
403.969
401.916
399.814
397.676
395.509
393.299
391.035
388.718
386.348
383.943
381.502
379.021
376.475
373.867
371.192
368.474
365.712
362.891
360.012
357.056
354.025
350.934
347.792
344.623
341.455
338.304
335.181
332.03
328.888
325.715
322.552
319.35
316.085
312.797
309.444
306.043
302.521
298.936
295.279
291.634
287.952
284.295
390.122
388.199
386.274
384.341
382.374
380.366
378.33
376.288
374.211
372.086
369.948
367.804
365.625
363.42
361.167
358.897
356.623
354.298
351.902
349.431
346.9
344.345
341.772
339.207
336.628
334.004
331.345
328.644
325.947
323.261
320.606
317.907
315.188
312.414
309.637
306.834
303.969
301.066
298.097
295.056
291.95
288.776
285.584
282.405
279.266
276.228
273.173
270.197
267.213
264.332
261.455
258.497
255.55
252.546
249.537
246.358
243.167
239.872
236.67
233.404
230.191
346.254
343.825
341.391
339.002
336.589
334.192
331.723
329.319
326.883
324.333
321.786
319.28
316.726
314.146
311.484
308.848
306.282
303.67
300.986
298.156
295.243
292.346
289.426
286.544
283.717
280.847
277.94
274.936
271.955
269.052
266.318
263.566
260.885
258.168
255.524
252.889
250.119
247.284
244.438
241.573
238.597
235.491
232.366
229.241
226.136
223.25
220.289
217.511
214.723
212.212
209.765
207.168
204.625
202.017
199.47
196.645
193.888
190.967
188.285
185.488
182.792
300.082
297.15
294.058
291.308
288.399
285.915
283.092
280.691
278.256
275.586
272.903
270.476
267.796
265.132
262.181
259.204
256.577
254.035
251.487
248.671
245.433
242.407
239.289
236.139
233.174
230.253
227.423
224.246
220.855
217.655
214.859
212.072
209.51
207
204.831
202.72
200.275
197.551
194.922
192.484
189.972
187.06
184.08
181.161
178.142
175.505
172.549
169.978
167.283
165.28
163.383
161.148
159.116
156.984
155.011
152.501
150.223
147.614
145.508
143.224
141.154
3865.02
3940.75
4018.53
4098.44
4180.9
4266.82
4355.69
4447.45
4541.83
4639.02
4739.35
4841.71
4946.21
5057.37
5194.5
5323.74
5450.62
5580
5711.84
5846.08
5983.07
6122.88
6265.12
6410
6557.29
6706.28
6856.69
7008.24
7160.74
7313.31
7465.86
7617.77
7768.17
7916.45
8062.1
8203.69
8340.08
8470.17
8586.12
8671.64
8730.18
8763.43
8771.31
8752.09
8704.25
8625.37
8511.46
8357.93
8160.48
7914.54
7613.85
7251.56
6822.41
6318.01
5736.08
4758.89
4323.02
4101.54
4012.9
3972.98
3896.59
1073.52
1076.21
1079.11
1082.08
1085.17
1088.5
1092.4
1096.71
1101.53
1106.68
1112.37
1116.14
1117.74
1120.87
1124.69
1129.88
1135.33
1140.72
1146.24
1152
1158.03
1164.38
1171
1177.91
1185.07
1192.48
1200.16
1208.13
1216.44
1225.13
1234.26
1243.87
1254.09
1265.04
1276.81
1289.65
1303.72
1319.39
1337.53
1367
1402.56
1441.3
1483.16
1528.27
1577.32
1630.67
1688.39
1750.78
1818.13
1890.02
1965.62
2043.34
2121.46
2199.34
2269.94
2336.18
2393.65
2479.06
2581.72
2692.11
2666.13
603.938
600.438
596.906
593.358
589.761
586.199
582.756
579.481
576.292
573.09
569.534
564.102
558.273
553.292
548.823
544.954
541.214
537.385
533.493
529.593
525.728
521.896
518.092
514.314
510.559
506.821
503.11
499.428
495.794
492.205
488.681
485.243
481.902
478.702
475.67
472.855
470.302
468.082
466.308
465.501
465.842
470.232
478.47
489.99
505.233
524.84
549.512
580.261
618.079
664.046
719.187
784.304
860.581
948.475
1048.08
1156.41
1263.51
1379.82
1521.33
1704.36
1898.85
437.482
433.324
429.165
424.992
420.777
416.571
412.423
408.387
404.348
400.23
395.399
389.519
383.794
378.636
373.865
369.442
365.142
360.865
356.587
352.332
348.105
343.888
339.687
335.506
331.341
327.201
323.087
318.999
314.937
310.905
306.905
302.94
299.025
295.167
291.379
287.679
284.088
280.622
277.306
274.202
271.388
269.154
268.142
268.851
271.125
275.299
281.823
291.336
304.661
322.805
347.158
379.038
420.107
471.55
534.19
606.256
683.388
766.651
863.904
988.631
1146.85
345.939
342.01
338.101
334.17
330.176
326.189
322.228
318.363
314.485
310.512
305.815
300.594
295.643
291.116
286.84
282.802
278.87
275.032
271.251
267.534
263.861
260.179
256.517
252.883
249.265
245.675
242.113
238.579
235.063
231.568
228.094
224.648
221.235
217.864
214.544
211.287
208.103
205.004
201.999
199.104
196.346
193.784
191.543
189.956
189.177
189.204
190.255
192.625
196.737
203.117
212.543
226.003
244.682
269.851
302.587
343.12
390.071
442.85
503.511
577.39
671.149
280.642
277.11
273.607
270.103
266.463
262.835
259.207
255.708
252.199
248.639
244.413
239.977
235.813
232.012
228.354
224.864
221.436
218.158
214.97
211.883
208.848
205.776
202.74
199.747
196.766
193.824
190.899
188.003
185.111
182.231
179.36
176.513
173.691
170.91
168.172
165.491
162.872
160.325
157.852
155.464
153.174
151.004
148.991
147.22
145.928
145.026
144.63
144.855
145.905
148.049
151.65
157.219
165.418
177.01
192.882
213.631
239.41
270.279
306.802
350.541
404.593
226.9
223.806
220.755
217.751
214.493
211.271
207.996
204.935
201.871
198.846
195.165
191.481
188.024
184.949
181.9
178.996
176.078
173.381
170.775
168.29
165.862
163.337
160.893
158.537
156.173
153.861
151.537
149.253
146.939
144.636
142.318
140.037
137.777
135.569
133.396
131.283
129.221
127.229
125.3
123.452
121.684
120.021
118.469
117.061
115.852
115.005
114.422
114.166
114.339
115.071
116.545
119.011
122.78
128.28
135.981
146.382
159.904
176.875
197.749
223.283
254.734
179.852
177.197
174.625
172.201
169.347
166.568
163.64
161.076
158.51
156.1
152.947
149.934
147.083
144.702
142.202
139.884
137.432
135.305
133.241
131.281
129.391
127.31
125.391
123.675
121.884
120.136
118.321
116.591
114.763
112.954
111.092
109.32
107.559
105.886
104.224
102.637
101.071
99.5818
98.147
96.8053
95.5338
94.369
93.3115
92.3559
91.5315
90.9319
90.5402
90.3315
90.3716
90.7314
91.5087
92.8236
94.8436
97.7625
101.828
107.323
114.545
123.829
135.539
150.167
168.362
138.535
136.252
134.182
132.419
129.974
127.662
125.032
123.054
121.029
119.264
116.591
114.151
111.759
110.042
107.978
106.251
104.166
102.619
101.027
99.437
97.9958
96.2042
94.758
93.7758
92.4616
91.1159
89.6463
88.4264
86.9234
85.4899
83.9127
82.6247
81.2729
80.1039
78.8508
77.7181
76.4902
75.3988
74.3701
73.4731
72.6496
71.9252
71.3174
70.7934
70.303
69.9132
69.6979
69.5897
69.6998
69.9509
70.5817
71.5089
72.9379
74.8298
77.3962
80.6697
84.9403
90.2999
97.1379
105.715
116.376
3752.56
3593.8
3423.4
3243.61
3063.86
2889.83
2725.03
2573.84
2440.06
2325.78
2231.38
2155.79
2097.37
2053.87
2022.57
2000.89
1986.67
1978.32
1974.42
1973.75
1975.62
1979.48
1984.93
1991.85
2000.04
2009.59
2020.19
2031.94
2044.87
2058.87
2073.9
2089.9
2106.77
2124.27
2142.31
2160.61
2178.86
2196.79
2214.23
2230.84
2246.22
2260.16
2272.49
2283.01
2291.84
2299.2
2305.21
2310.06
2314.29
2318.64
2323.44
2328.9
2335.6
2343.78
2353.2
2363.65
2374.84
2386.79
2398.38
2408.54
2416.23
2476.96
2273.02
2073.44
1880.12
1711.09
1554.82
1410.5
1278.81
1160.12
1055.24
964.301
886.787
821.755
767.572
723.889
689.909
663.87
643.85
628.293
616.089
606.471
598.849
592.83
588.32
584.854
582.555
581.19
580.788
581.306
582.735
585.086
588.338
592.482
597.486
603.297
609.834
616.976
624.612
632.586
640.699
648.691
656.263
663.024
668.53
672.388
674.224
673.713
670.709
665.312
657.87
648.925
639.219
629.642
621.024
613.813
608.488
604.932
603.01
602.012
601.342
599.847
1992.41
1986.1
1891.13
1719.04
1539.19
1364.37
1194.22
1039.26
900.968
778.513
672.804
583.429
509.145
448.659
400.937
364.284
336.172
313.92
296.29
282.43
271.509
262.841
255.908
250.308
245.789
242.071
239.086
236.715
234.914
233.644
232.876
232.605
232.811
233.458
234.519
235.954
237.724
239.781
242.067
244.505
247
249.447
251.722
253.668
255.136
255.939
255.899
254.857
252.727
249.472
245.183
240.139
234.739
229.51
224.917
221.537
219.685
219.553
221.043
223.93
227.77
1313.07
1462.78
1564.77
1588.43
1524.33
1402.04
1235.6
1064.22
906.052
760.176
632.643
525.876
437.74
366.999
311.485
268.358
234.868
208.452
187.697
171.553
159.065
149.444
142.029
136.251
131.691
128.036
125.077
122.681
120.752
119.22
118.046
117.204
116.667
116.395
116.353
116.502
116.806
117.228
117.722
118.243
118.737
119.151
119.429
119.511
119.345
118.881
118.08
116.916
115.392
113.516
111.335
108.958
106.557
104.359
102.636
101.759
102.08
103.866
107.207
112.117
118.644
786.173
920.495
1063.89
1193.7
1279.37
1302.6
1257.36
1155.01
1020.01
866.31
717.795
590.279
480.507
390.475
319.079
262.57
218.252
183.601
156.553
135.655
119.682
107.646
98.6469
91.8887
86.742
82.7543
79.6248
77.1508
75.1914
73.6378
72.4274
71.5242
70.8895
70.4788
70.2505
70.1664
70.1898
70.2841
70.4126
70.5349
70.6082
70.5922
70.4478
70.1389
69.6345
68.9128
67.9682
66.8084
65.4468
63.9205
62.2894
60.6498
59.1521
57.9784
57.3679
57.5984
58.9574
61.8035
66.3598
72.8406
81.4376
472
555.953
657.661
773.685
892.23
995.878
1064.39
1081.73
1044.8
960.875
846.184
720.142
592.439
479.377
387
310.658
250.009
202.075
163.91
134.398
112.106
95.6542
83.6795
74.9363
68.4607
63.5779
59.855
56.9978
54.7983
53.0904
51.7791
50.8098
50.1305
49.6853
49.4259
49.3107
49.3004
49.3599
49.4536
49.5446
49.5943
49.5696
49.4361
49.1657
48.7304
48.1158
47.3195
46.354
45.231
43.9836
42.6633
41.3563
40.1902
39.3354
39.0285
39.5657
41.3427
44.7173
50.0135
57.4588
67.1595
293.803
342.714
403.825
478.741
566.714
663.35
759.02
839.791
891.207
902.358
870.378
801.972
708.852
604.775
501.962
404.497
323.258
257.052
201.713
158.309
125.349
101.318
84.2175
72.0016
63.1467
56.5993
51.715
48.0589
45.3202
43.2357
41.6587
40.5031
39.6979
39.1674
38.8514
38.6997
38.6685
38.7207
38.8202
38.9309
39.0155
39.0465
38.9901
38.8227
38.5133
38.0545
37.4408
36.6873
35.7974
34.8044
33.7488
32.7087
31.7973
31.167
31.0466
31.7628
33.7163
37.3538
43.1102
51.2709
61.9382
191.072
219.497
255.192
299.789
354.642
420.072
494.502
573.169
648.354
709.462
745.912
751.024
724.429
670.093
596.571
512.118
426.777
346.11
269.498
207.363
158.111
122.211
97.1331
79.4305
66.6888
57.3381
50.4468
45.405
41.7317
38.9794
36.9228
35.4185
34.3689
33.6646
33.2262
32.9884
32.8985
32.9138
32.9962
33.1082
33.2113
33.2847
33.2931
33.2162
33.0169
32.695
32.2385
31.6678
30.977
30.2001
29.3699
28.56
27.872
27.4449
27.4998
28.362
30.4547
34.2963
40.4352
49.2542
60.871
129.789
146.459
167.325
193.649
226.487
266.892
315.287
371.254
432.447
494.979
551.163
594.949
619.847
622.837
602.038
559.458
500.899
430.45
357.059
281.684
211.143
159.404
123.432
97.8239
78.9542
65.0764
54.8717
47.5547
42.3432
38.4803
35.6371
33.5485
32.0888
31.0905
30.4418
30.0491
29.8459
29.7785
29.806
29.8821
29.9725
30.0595
30.1069
30.0937
29.98
29.7661
29.4414
29.0216
28.4999
27.904
27.2688
26.6627
26.1858
25.964
26.2079
27.2416
29.4994
33.5517
40.0175
49.4103
61.8148
1.58617
214.641
192.354
2.23585
2.28439
0.204749
0.000718883
87.9453
0.00079807
0.0146338
95.0856
6.8569
0.000719723
242.433
0.167726
137.309
0.000757659
89.2474
119.916
0.000715981
2.2319
231.317
202.154
0.000764878
0.000782575
0.209712
0.000716906
7.63112
0.000753459
0.000817398
6.66177
0.000746208
0.00872381
62.9359
3.91942
113.796
73.0049
15.3697
0.000722335
44.6057
65.4585
29.3367
0.000743717
104.649
167.31
0.717831
0.000870345
0.00876563
1.27315
7.04952
366.403
359.807
0.000700106
0.0010279
0.0610131
0.035756
0.000814746
8.97904
59.5633
287.031
139.025
0.000908873
1.49396
0.0252052
203.974
2.31756
38.9619
61.3466
0.0011245
0.000747778
9.78727
40.1344
56.1134
0.0305187
0.0503475
79.664
232.461
54.5758
0.00070154
5.3573
0.00235183
47.37
0.0122314
110.715
0.000750018
8.39995
0.000792734
36.8156
0.0108386
0.00136822
0.234578
0.000700312
0.000933284
310.933
145.993
0.000866507
1.57891
1.94031
0.0018368
209.262
0.965802
32.1289
5.8581
0.00069938
0.000725553
0.000696738
1.41549
0.210011
0.000746466
176.393
224.733
0.00468061
230.161
26.7068
112.041
53.6213
28.3053
0.000971948
0.111359
0.00110668
0.00142862
183.903
0.0031284
289.761
418.527
27.1503
0.000746405
7.03494
6.87597
0.000744313
0.0297581
0.0270976
91.0379
0.00188101
62.7972
0.000749275
0.000723343
399.295
354.173
0.000749639
0.806049
151.953
0.229683
0.902733
26.6316
122.12
0.289707
27.5776
0.00527
276.209
11.0502
0.0370626
48.3293
108.224
191.323
0.000763285
0.000756891
0.514953
0.000707078
41.722
0.110283
0.00144219
0.000739717
0.00074798
0.000758599
39.7758
68.64
34.5866
0.00076782
283.47
300.401
404.23
167.077
0.00684755
154.97
43.1468
28.2681
0.000750668
0.00170465
193.201
68.7082
30.1502
74.2194
0.000746045
0.000840567
234.548
0.0298063
2.46594
0.000758132
0.000868565
0.172735
0.00079483
335.488
4.01195
0.000705394
0.68183
90.0369
143.495
0.00118963
53.3285
0.000747296
0.000750989
109.025
33.3938
301.847
0.00120645
0.000801848
0.00282885
42.8901
78.0736
9.65234
124.886
14.3963
234.114
0.805506
86.9974
84.2779
27.6526
10.4385
39.2055
0.00144467
0.0294221
0.000748409
0.000730786
28.4094
0.010087
0.0118498
0.00198321
0.00621374
46.3073
192.691
0.0110615
172.87
7.383
3.12652
0.000732379
0.551845
38.3111
7.16561
0.0010563
13.7907
34.2665
0.839783
2.40024
273.374
7.57233
4.93146
124.499
0.000951454
0.000724104
0.00103039
0.00424448
28.7199
0.000781676
0.00251784
0.00072288
1.73141
77.5517
76.8391
49.4924
12.0288
11.1544
327.754
0.0011324
48.6315
100.735
0.000744304
79.4856
0.000749694
336.122
1.7336
50.4999
0.00155456
0.000748928
19.698
7.43785
0.000759648
0.000751467
0.000756277
0.000751085
1.18063
35.9935
44.7696
0.0106164
0.000760453
0.000723889
0.00069823
105.29
1.20822
0.00119561
19.7288
0.116808
0.0923225
0.000695223
0.777756
0.000760167
0.117314
47.5055
267.472
3.09322
0.000978454
0.00185103
55.4178
0.364529
129.496
324.975
0.00083887
0.00074012
0.00073395
158.398
0.000774778
137.942
0.000750168
25.283
12.2802
0.0238963
135.222
245.005
0.00127719
50.37
50.5485
89.3141
91.934
9.96257
351.82
38.7683
73.234
143.988
96.5281
56.3167
0.341153
340.874
282.162
63.2059
33.5118
0.000995146
269.202
121.018
232.377
0.018847
0.000869969
0.000746183
0.000813518
0.687737
1.55619
6.62813
0.125676
0.000725246
172.922
0.000746753
26.7384
24.1253
194.532
43.0211
18.5392
0.0019431
0.00110563
0.449672
83.4299
0.00439956
8.07784
254.3
36.1312
83.5511
194.2
61.8311
0.00081971
285.009
144.995
96.99
0.000751235
196.195
154.708
0.000782971
30.464
0.000752419
394.801
170.164
28.0494
82.0447
109.517
151.517
0.000762707
150.597
0.000968289
69.167
80.6431
28.291
281.33
3.58964
0.492854
2.53242
0.00109847
442.974
1.44627
0.00289784
0.00178242
250.029
0.000956695
92.1875
0.000736935
0.000750609
0.00182498
31.981
0.196781
22.262
0.00197578
84.4219
0.310099
221.722
281.81
39.0652
335.167
0.000790823
281.32
41.5824
0.000742787
77.9879
26.1835
0.000698603
0.000727111
117.779
0.00204702
27.3066
0.44457
73.966
0.017749
3.5051
40.6675
120.413
33.4031
83.8981
71.034
0.000995052
0.0330097
28.7894
22.0383
333.285
337.224
142.618
0.0857972
125.935
124.843
3.39163
91.2388
47.2132
26.5199
0.00082093
83.7555
386.932
0.00107798
92.2046
18.5994
47.8677
0.0154491
0.0906718
264.561
0.00194487
329.291
0.00124717
1.77297
0.000737678
7.58551
167.417
0.557491
0.00132083
0.000898695
73.8875
26.7904
0.365567
5.33163
289.3
544.836
0.00136661
11.4121
27.2251
71.153
26.1748
451.616
28.8249
152.731
51.1465
3.34084
7.15724
304.274
54.5841
356.735
173.904
0.227707
168.319
59.5024
0.00078893
91.7746
29.0551
13.0551
0.00965405
97.6786
44.9378
4.1506
53.5477
0.00158401
0.00074745
0.135974
28.7714
107.663
74.165
0.00075043
0.000730182
0.000744486
28.2368
0.0272725
0.000746227
0.250391
95.9178
267.261
0.00442765
0.00455843
0.00072178
0.000738533
0.00195356
29.9163
101.136
21.6452
1.86618
300.504
383.379
0.00150122
62.9355
27.9016
28.465
76.3171
441.522
0.000818898
0.00449581
0.000751815
397.795
0.787455
0.000726547
10.2525
0.355116
304.27
0.000759369
327.025
8.57651
0.0682141
203.756
0.000748814
0.00073652
0.00102569
407.754
52.2781
132.342
315.549
11.5141
28.6475
0.000709438
0.00184938
0.453271
0.0151822
0.0164062
177.993
41.1973
0.000748525
25.5687
45.5574
186.876
410.296
0.00297026
413.741
0.00183004
0.0219507
144.412
0.000739584
148.112
0.000759798
0.000792641
0.0206076
34.3329
2.90073
322.945
62.1022
0.000883313
28.4654
506.22
0.20577
2.16867
7.28596
0.000775886
0.000760649
0.00229902
136.88
5.45743
0.000781255
273.011
273.975
218.11
0.0986766
60.6238
0.00108349
29.7966
0.561852
0.132365
125.076
29.7691
149.979
176.048
0.000759568
0.000711944
0.00503219
73.2313
105.537
5.80618
0.00663029
0.000771502
0.000750592
0.00346514
0.131935
0.00212338
73.7157
21.1883
0.00494005
26.3237
174.845
0.000760733
38.3557
0.00074238
3.41745
0.000762498
0.0132542
38.4129
0.0116843
0.000744703
3.98743
366.453
264.437
0.000729827
0.000748103
1.55139
0.13943
0.000748058
99.7014
0.000906133
32.045
379.96
29.0137
87.1908
295.353
133.856
338.316
0.000748375
0.00248811
0.0108765
297.008
60.1579
203.037
5.63115
4.2217
101.612
162.144
129.069
4.99685
47.2197
0.000750873
1.54858
39.5157
32.3071
316.483
27.2968
1.18695
40.2666
0.203413
0.009393
39.7852
0.000751887
173.764
0.000884598
2.72584
294.83
185.301
3.03724
0.00251378
7.17494
0.000769325
0.000736392
0.202916
0.0135984
50.0352
0.00888541
28.6727
0.000750724
0.0192013
0.000725012
97.0345
0.0017746
87.4789
300.997
0.0144645
167.791
373.711
0.000758043
98.8988
217.436
0.000782759
289.279
0.265003
0.00082298
0.000791896
282.548
0.000731554
0.00111645
0.123368
0.214823
433.734
272.111
0.000751558
0.000752001
9.32567
27.5497
0.00714301
2.25913
21.5483
0.000748069
0.000956909
0.0009136
170.908
273.111
3.43199
294.979
0.0173091
26.5889
0.000770125
0.00723932
0.0161568
0.0427638
0.00075036
294.851
0.000742094
0.0161766
0.000768934
1.32255
0.0149673
0.033751
2.60505
5.06485
35.0309
2.25307
9.0447
27.9173
189.43
0.000816783
162.276
329.007
12.7132
76.2361
0.000760836
271.525
81.4167
0.000746276
411.707
67.0752
0.00577712
0.0184008
163.707
162.04
0.226237
318.228
409.785
4.33543
433.529
266.932
127.981
51.1141
21.5283
26.9374
267.229
293.719
0.0144248
309.643
42.5348
411.359
0.000812358
1.57493
2.94231
227.542
167.551
0.0119069
446.976
197.96
6.71087
0.0528576
2.7637
28.1269
0.00155415
28.2742
443.346
0.0292237
223.893
14.647
95.1599
191.609
0.00074658
0.00167042
7.22055
5.26215
0.0129984
0.000748651
0.821508
1.77892
0.0012098
0.000758709
269.679
6.94157
54.1651
10.6679
0.00317009
0.00107412
0.424865
88.3642
0.000825951
22.028
29.8062
1.84257
164.811
0.00100743
0.388394
0.000740919
1.78379
87.6982
0.00140278
0.185815
41.1193
167.774
0.50451
94.5094
5.16982
0.949151
0.000986749
33.8447
334.892
0.000744521
0.000754446
150.099
0.0159048
0.000758266
74.5817
2.02448
164.254
29.6595
38.2786
0.318049
16.6526
208.026
165.473
237.541
0.000764188
269.542
0.000968023
39.386
0.000795094
0.00144217
45.3914
0.00208186
260.429
0.0121524
0.0325509
45.8311
7.78725
0.542543
0.000899704
187.984
0.000889334
0.000718483
347.484
163.667
39.8987
28.6476
0.000814628
0.000689863
18.5839
150.825
0.000730558
220.537
37.5869
0.000753725
171.51
0.000703529
3.29679
6.24463
10.4187
1.54853
76.3008
21.0714
0.000702054
271.795
327.71
0.000745188
0.0130038
28.9444
0.000708886
240.981
159.533
407.984
0.000746234
0.000727596
194.305
0.0937166
0.000835439
31.6264
80.7135
248.254
0.000720457
0.000791318
0.0158706
0.0115667
0.000747361
0.00201615
127.073
51.1254
0.000747217
13.7104
0.000747324
9.97116
0.00108356
0.000869416
26.9731
0.000748777
0.356374
0.000730414
50.8974
2.02532
20.8542
188.07
365.871
143.98
5.10945
14.658
0.000758261
5.56831
279.631
530.564
0.157486
0.00082861
131.193
0.000746495
0.111045
0.000719876
444.909
14.817
3.09182
199.481
52.9851
4.9153
80.9594
7.80972
226.342
112.943
0.000775109
0.000754217
0.00311062
0.000738425
0.0141763
100.931
0.000927173
253.695
0.00187038
0.31451
3.03034
150.492
0.00134954
42.644
0.0132592
56.9484
30.1692
439.519
0.000794335
0.000949647
1.44674
84.3
62.5254
64.918
1.97002
7.93469
20.5803
0.0623268
10.5905
1.67929
30.2371
0.000754871
398.97
1.43091
54.8811
0.000786164
51.9276
16.2182
0.00163992
88.5324
16.8042
0.0858474
0.000714503
0.000746667
199.187
47.024
14.8491
0.000737008
0.00961638
51.0479
190.312
3.28137
0.00589578
0.00073538
150.034
132.47
35.9727
35.6451
0.000744239
99.6521
439.412
0.000747004
0.000749442
18.6994
0.00121231
0.00389302
0.215444
47.8734
0.00104586
36.4878
347.224
0.000731024
0.000818086
0.000727065
0.000769637
66.7027
520.917
338.42
0.0207177
34.7267
47.5413
0.132847
45.3098
0.000822315
31.4388
0.531634
30.5311
5.2142
82.1
98.9377
0.145973
0.00075925
161.787
85.3666
273.69
5.6263
29.8251
0.526332
21.1316
0.00353609
0.00133861
147.814
145.463
0.0331066
1.18388
0.000754757
0.100393
19.2537
0.0273873
13.887
4.37643
387.238
36.8035
1.72365
272.62
141.031
56.9389
15.2852
194.961
192.453
3.10904
37.1581
0.00318018
46.2645
44.2959
0.000743601
0.000710737
0.358949
0.00074915
0.000772866
57.924
300.369
0.000744902
84.6579
0.000745577
0.000736979
0.000740233
0.000750835
0.00180964
29.5453
46.0709
251.591
0.000717886
0.00105061
6.57406
0.000856624
0.0282176
0.000762796
0.000866692
163.16
0.00098599
0.00468587
182.545
0.0042659
0.000749709
181.605
0.000745807
0.000761432
1.47797
0.00086952
6.54804
0.00122996
0.0243604
0.000743952
0.000752637
306.138
424.93
45.3988
0.0234624
106.207
16.1743
0.00129201
27.6192
314.749
237.052
481.354
0.000704936
27.8413
56.7127
0.263435
28.5426
103.061
0.352081
31.5954
1.05647
28.4589
0.277753
7.23015
0.000757662
224.429
0.000757753
28.7299
32.0165
0.00074806
0.918697
0.00247195
0.0293495
0.000725313
3.82546
0.00089636
0.000740618
40.4264
0.0392577
0.166456
232.717
152.423
0.000815522
0.000962604
30.1221
262.89
0.000695209
0.000754723
0.189542
24.2634
148.027
0.00208361
15.5455
0.000745987
0.000820145
0.000718607
0.0281451
23.5447
0.00405873
270.4
29.6609
261.158
175.017
0.000844704
300.136
66.6645
0.000732571
0.000754092
0.000750351
0.00115724
0.000740544
121.264
0.000745518
0.000751144
347.825
1.21532
0.00269416
0.0357553
57.1338
7.35648
0.00743064
0.000825412
187.729
0.000762702
6.60332
0.000753341
0.000847773
165.601
167.264
0.00336251
0.00083269
3.7919
0.00074443
366.288
0.000751588
153.707
0.0285904
8.51168
0.109679
3.11759
1.9651
30.0203
0.000761034
0.00086228
0.00493034
61.628
0.297139
305.564
0.000747638
0.00123396
0.0016409
259.054
62.0568
272.002
0.00224826
0.00347552
0.825416
0.000751552
19.2206
36.8112
0.00882141
264.576
182.189
41.6286
0.00154827
1.43724
169.719
228.13
27.9242
0.0105325
117.392
0.513851
136.339
0.146339
2.25544
43.9078
0.00076196
28.4651
0.00122303
0.00512896
0.00552738
0.0482485
0.000909639
10.5537
0.000746044
46.2074
0.132726
0.000867637
1.52302
0.000756582
0.768103
0.231707
40.5287
3.80641
93.1079
0.8207
0.000748609
0.000731208
4.75734
0.162609
43.6231
264.159
0.000751884
151.211
37.0018