/*--------------------------------*- C++ -*----------------------------------*\
| =========                 |                                                 |
| \\      /  F ield         | OpenFOAM: The Open Source CFD Toolbox           |
|  \\    /   O peration     | Version:  2.3.1                                 |
|   \\  /    A nd           | Web:      www.OpenFOAM.org                      |
|    \\/     M anipulation  |                                                 |
\*---------------------------------------------------------------------------*/
FoamFile
{
    version     2.0;
    format      ascii;
    class       surfaceScalarField;
    location    "0.49";
    object      phi;
}
// * * * * * * * * * * * * * * * * * * * * * * * * * * * * * * * * * * * * * //

dimensions      [0 3 -1 0 0 0 0];

internalField   nonuniform List<scalar> 
15416
(
-0.000697746
-2.8712e-06
0.000702988
-0.000694799
-2.94871e-06
-0.000692214
-2.58622e-06
-0.00069069
-1.52622e-06
-0.000690469
-2.22635e-07
-0.000691849
1.37805e-06
-0.000695535
3.68348e-06
-0.000701765
6.22636e-06
-0.000710716
8.94914e-06
-0.000722709
1.19918e-05
-0.000738142
1.54333e-05
-0.000757224
1.90828e-05
-0.000780086
2.2863e-05
-0.000806812
2.67214e-05
-0.000837499
3.06742e-05
-0.000872073
3.45556e-05
-0.000910348
3.82617e-05
-0.000952126
4.17806e-05
-0.000997279
4.51701e-05
-0.00104549
4.82409e-05
-0.0010965
5.10353e-05
-0.00115005
5.35501e-05
-0.00120579
5.57201e-05
-0.00126335
5.75331e-05
-0.00132253
5.9141e-05
-0.00138308
6.0547e-05
-0.0014447
6.16231e-05
-0.00150705
6.23963e-05
-0.00156987
6.29059e-05
-0.00163303
6.32314e-05
-0.00169624
6.32784e-05
-0.00175931
6.30902e-05
-0.00182216
6.28441e-05
-0.00188451
6.2346e-05
-0.00194618
6.16687e-05
-0.00200711
6.09398e-05
-0.0020672
6.00965e-05
-0.00212626
5.90765e-05
-0.00218407
5.7817e-05
-0.00224062
5.65505e-05
-0.00229588
5.52674e-05
-0.00234969
5.38092e-05
-0.00240193
5.22365e-05
-0.00245263
5.07064e-05
-0.00250152
4.88993e-05
-0.00254857
4.70629e-05
-0.00259389
4.53337e-05
-0.00263748
4.36037e-05
-0.00267911
4.16456e-05
-0.00271883
3.97404e-05
-0.00275652
3.7697e-05
-0.00279235
3.58454e-05
-0.00282584
3.35029e-05
-0.00285745
3.16167e-05
-0.00288697
2.9523e-05
-0.00291475
2.77886e-05
-0.00293986
2.51087e-05
-0.00296271
2.28483e-05
-0.00298365
2.0945e-05
-0.00300285
1.9202e-05
1.74985e-05
-0.00302035
-0.000397759
-3.93856e-06
0.000398824
-0.000398895
-1.81579e-06
-0.000402611
1.12777e-06
-0.000409248
5.1071e-06
-0.000420456
1.09816e-05
-0.000435502
1.64196e-05
-0.000454521
2.26964e-05
-0.0004773
2.89988e-05
-0.00050446
3.61047e-05
-0.000535544
4.30707e-05
-0.000570728
5.06129e-05
-0.000609874
5.82239e-05
-0.000652883
6.5866e-05
-0.000699639
7.34657e-05
-0.000749857
8.08706e-05
-0.000803404
8.80764e-05
-0.00086002
9.48669e-05
-0.000919499
0.000101268
-0.000981496
0.000107194
-0.00104582
0.000112585
-0.00111226
0.000117465
-0.00118037
0.000121648
-0.00124997
0.000125272
-0.00132084
0.000128376
-0.00139268
0.00013097
-0.00146528
0.000133096
-0.00153828
0.000134618
-0.0016116
0.000135714
-0.0016849
0.000136293
-0.00175788
0.000136334
-0.00183058
0.000136068
-0.00190282
0.000135428
-0.00197425
0.00013428
-0.00204481
0.000132902
-0.0021145
0.000131339
-0.00218293
0.000129348
-0.00225013
0.000127276
-0.00231597
0.000124874
-0.00238042
0.000122249
-0.00244328
0.000119391
-0.00250425
0.000116223
-0.00256361
0.000113158
-0.00262117
0.000109781
-0.00267665
0.000106185
-0.00273024
0.000102479
-0.00278173
9.85562e-05
-0.00283121
9.48094e-05
-0.00287823
9.06295e-05
-0.0029232
8.66196e-05
-0.00296597
8.25238e-05
-0.00300664
7.83708e-05
-0.00304548
7.46928e-05
-0.00308086
6.88949e-05
-0.00311556
6.63136e-05
-0.00314644
6.0411e-05
-0.00317578
5.71265e-05
-0.00320077
5.01013e-05
-0.00322559
4.76627e-05
-0.00324812
4.3477e-05
-0.00326848
3.9561e-05
3.35187e-05
-0.0032845
-0.000253146
2.58174e-06
0.000246623
-0.000262954
7.9906e-06
-0.000276972
1.51448e-05
-0.000295584
2.37168e-05
-0.000317803
3.3199e-05
-0.000344597
4.32089e-05
-0.000375497
5.35913e-05
-0.000410754
6.42506e-05
-0.000450267
7.56126e-05
-0.000494128
8.69298e-05
-0.000542068
9.85498e-05
-0.000593719
0.000109871
-0.000649209
0.000121346
-0.000708174
0.000132413
-0.000770421
0.000143093
-0.000835664
0.000153302
-0.000903678
0.000162885
-0.000974192
0.000171813
-0.0010469
0.000179946
-0.00112167
0.000187365
-0.00119802
0.000193793
-0.00127589
0.000199423
-0.00135497
0.000204261
-0.00143501
0.000208349
-0.00151575
0.000211696
-0.0015969
0.000214342
-0.0016783
0.000216093
-0.00175957
0.000217162
-0.00184045
0.000217319
-0.00192111
0.000217077
-0.00200112
0.000216119
-0.00208034
0.000214572
-0.00215892
0.000212793
-0.00223633
0.000210259
-0.00231246
0.000207448
-0.00238726
0.000204147
-0.00246057
0.000200579
-0.00253223
0.00019654
-0.00260223
0.000192222
-0.00267045
0.000187598
-0.00273695
0.000182698
-0.00280115
0.000177347
-0.00286344
0.000172057
-0.00292356
0.000166292
-0.0029815
0.00016041
-0.00303727
0.000154327
-0.00309064
0.00014817
-0.00314171
0.000141699
-0.00319023
0.000135146
-0.00323694
0.000129244
-0.00327997
0.000121401
-0.0033204
0.000115135
-0.00335921
0.000107708
-0.00339572
0.000102826
-0.00343007
9.477e-05
-0.00346015
8.72056e-05
-0.00349007
8.00179e-05
-0.00351566
7.32585e-05
-0.00353902
6.68364e-05
-0.00355812
5.8652e-05
5.24925e-05
-0.00357709
-0.000182564
1.6211e-05
0.000168932
-0.000200793
2.62182e-05
-0.000223485
3.78364e-05
-0.000250532
5.07633e-05
-0.000281967
6.46309e-05
-0.000317894
7.91316e-05
-0.000358212
9.39038e-05
-0.000403253
0.000109288
-0.000452587
0.000124947
-0.000506308
0.000140649
-0.000563993
0.000156231
-0.000625823
0.000171693
-0.000691388
0.000186896
-0.000760278
0.000201282
-0.00083243
0.000215225
-0.000907485
0.000228358
-0.000985147
0.000240582
-0.00106512
0.000251855
-0.00114721
0.000262085
-0.00123103
0.000271152
-0.00131657
0.000279202
-0.00140331
0.000286009
-0.00149116
0.000291988
-0.00157976
0.000297
-0.00166895
0.000301064
-0.00175832
0.000303892
-0.00184764
0.000305697
-0.00193674
0.000306416
-0.00202546
0.000306162
-0.0021134
0.000305051
-0.00220079
0.000303352
-0.00228747
0.000301087
-0.00237292
0.000298002
-0.00245724
0.000294424
-0.00254016
0.000290306
-0.00262152
0.0002855
-0.00270101
0.000280073
-0.00277882
0.00027433
-0.00285472
0.000268122
-0.00292877
0.000261628
-0.00300054
0.000254454
-0.00307041
0.000247204
-0.00313773
0.000239359
-0.00320284
0.000231392
-0.00326546
0.000223019
-0.00332558
0.000214439
-0.00338314
0.000205733
-0.00343846
0.000197008
-0.00349042
0.000187105
-0.00353984
0.000178664
-0.00358785
0.000169411
-0.00363177
0.000159053
-0.00367347
0.000149405
-0.00371104
0.000140401
-0.00374825
0.000131982
-0.00378132
0.000120279
-0.00381213
0.000110824
-0.00384069
0.000101819
-0.00386505
9.11969e-05
-0.00388715
8.07601e-05
7.03976e-05
-0.00390506
-0.00014996
3.69008e-05
0.000129268
-0.000174825
5.10825e-05
-0.000204377
6.73878e-05
-0.00023868
8.50649e-05
-0.000277735
0.000103683
-0.000321709
0.0001231
-0.000370748
0.00014294
-0.000424326
0.000162866
-0.000482669
0.000183291
-0.000545402
0.000203382
-0.000612561
0.000223383
-0.000683842
0.00024296
-0.000758724
0.000261762
-0.000837239
0.000279781
-0.000919177
0.000297159
-0.00100352
0.00031273
-0.00109056
0.00032769
-0.00117986
0.000341236
-0.00127112
0.00035334
-0.0013642
0.000364119
-0.00145874
0.000373538
-0.00155458
0.000381659
-0.00165124
0.000388688
-0.00174847
0.000394447
-0.001846
0.000398854
-0.00194382
0.000402021
-0.00204147
0.000403416
-0.00213864
0.000403695
-0.00223518
0.000402708
-0.00233115
0.00040089
-0.00242622
0.000398322
-0.00252029
0.000394884
-0.00261322
0.000390769
-0.00270474
0.000385845
-0.00279447
0.000380008
-0.00288238
0.000373398
-0.00296868
0.000366356
-0.00305281
0.000358485
-0.00313485
0.000350159
-0.00321459
0.000341383
-0.00329231
0.000332177
-0.0033675
0.000322396
-0.00344032
0.000312172
-0.0035105
0.000301569
-0.00357804
0.000290543
-0.00364353
0.000279922
-0.00370426
0.000266463
-0.00376293
0.000255677
-0.00381994
0.000244104
-0.00387298
0.000231703
-0.00392372
0.000220153
-0.00397227
0.000207593
-0.00401684
0.00019397
-0.00405914
0.000182708
-0.00409546
0.000168299
-0.00413132
0.000156137
-0.00416494
0.000144445
-0.00419437
0.00013125
-0.00421963
0.000116467
-0.00424462
0.000105757
9.12122e-05
-0.00426543
-0.000136134
6.39259e-05
0.000109107
-0.00016776
8.27074e-05
-0.00020416
0.000103787
-0.000245914
0.000126818
-0.000292944
0.000150709
-0.000345086
0.000175239
-0.000402349
0.000200201
-0.00046488
0.000225404
-0.000532183
0.000250599
-0.000604474
0.000275667
-0.000681251
0.00030015
-0.000762049
0.000323741
-0.000846882
0.000346585
-0.000934961
0.000367851
-0.00102608
0.000388286
-0.00112024
0.000406934
-0.00121692
0.000424449
-0.001316
0.000440366
-0.00141687
0.000454136
-0.00151944
0.000466423
-0.00162356
0.000477379
-0.00172846
0.000486583
-0.00183419
0.000494653
-0.00194031
0.000501137
-0.00204678
0.000505758
-0.00215335
0.00050851
-0.00225967
0.000509595
-0.00236553
0.000509016
-0.00247065
0.000507527
-0.00257489
0.000505061
-0.00267824
0.000501576
-0.00278015
0.000497033
-0.00288072
0.000491466
-0.00297961
0.000484915
-0.00307646
0.000477043
-0.00317144
0.000468499
-0.00326428
0.000459258
-0.00335501
0.000449199
-0.00344354
0.000438785
-0.00352984
0.000427726
-0.00361339
0.000415781
-0.00369448
0.000403503
-0.00377274
0.000390431
-0.00384777
0.000376592
-0.00392026
0.000363025
-0.0039901
0.000349754
-0.00405789
0.000334247
-0.00412164
0.000319429
-0.00418142
0.000303887
-0.00423893
0.000289216
-0.00429246
0.000273686
-0.00434191
0.000257046
-0.0043909
0.000242959
-0.00443409
0.000225894
-0.00447685
0.000211058
-0.00451548
0.000194771
-0.00454797
0.000176928
-0.00457815
0.000161434
-0.00460812
0.00014643
-0.00463202
0.000129661
0.000112901
-0.00465371
-0.000135721
9.70954e-05
0.000102549
-0.000174205
0.00012119
-0.000218108
0.000147689
-0.000267806
0.000176515
-0.000322907
0.000205807
-0.000383832
0.00023616
-0.000450231
0.000266609
-0.000521863
0.000297042
-0.000598983
0.000327723
-0.000680692
0.000357375
-0.000767397
0.00038683
-0.000858458
0.000414791
-0.000953176
0.000441299
-0.00105128
0.000465962
-0.00115305
0.000490086
-0.00125759
0.000511503
-0.00136428
0.000531242
-0.0014734
0.000549504
-0.00158438
0.000564872
-0.00169719
0.000578882
-0.00181118
0.000591246
-0.00192593
0.000601512
-0.0020411
0.00061079
-0.00215661
0.000617428
-0.00227244
0.000621737
-0.0023884
0.000624044
-0.00250415
0.000624005
-0.00261932
0.000623442
-0.00273356
0.000621359
-0.0028465
0.00061801
-0.00295815
0.00061385
-0.00306845
0.000607641
-0.00317668
0.000600097
-0.00328316
0.00059167
-0.00338776
0.000581722
-0.00348994
0.000570674
-0.00359013
0.000559358
-0.00368778
0.000547002
-0.00378296
0.000534041
-0.00387552
0.000520467
-0.00396555
0.0005059
-0.00405202
0.000490014
-0.00413623
0.000474638
-0.00421729
0.000457639
-0.00429561
0.000441333
-0.00436993
0.000424063
-0.00444036
0.000404669
-0.00450836
0.000387434
-0.00457405
0.000369589
-0.00463399
0.00034917
-0.00469169
0.00033139
-0.00474711
0.000312473
-0.00479675
0.00029261
-0.00484429
0.000273438
-0.00488779
0.000254564
-0.00492706
0.000234043
-0.00496583
0.000215688
-0.00499848
0.000194079
-0.00502715
0.000175096
-0.00505184
0.000154342
0.000135346
-0.00507429
-0.000146077
0.000136567
0.000106603
-0.000191791
0.000166904
-0.000243483
0.00019938
-0.000301967
0.000234997
-0.00036623
0.000270064
-0.000436345
0.000306276
-0.000512446
0.000342708
-0.000593613
0.000378226
-0.000680931
0.000415052
-0.000773007
0.000449433
-0.00087076
0.000484567
-0.000972248
0.000516277
-0.00107848
0.000547554
-0.00118713
0.000574617
-0.00129932
0.000602265
-0.00141505
0.000627308
-0.00153278
0.000649054
-0.0016528
0.000669443
-0.00177516
0.000686946
-0.00189802
0.000701431
-0.00202283
0.000716051
-0.00214728
0.000726896
-0.00227296
0.000737548
-0.00239889
0.000744092
-0.00252483
0.000747433
-0.00265169
0.00074939
-0.00277703
0.000748214
-0.002902
0.000747467
-0.00302579
0.000745288
-0.00314695
0.000740162
-0.00326741
0.000734902
-0.00338605
0.000726441
-0.00350228
0.00071559
-0.00361726
0.000705539
-0.00373043
0.000694112
-0.00384015
0.000680199
-0.00394786
0.000667146
-0.00405305
0.000652224
-0.00415473
0.000635935
-0.00425406
0.000619963
-0.00435091
0.000602837
-0.0044449
0.000584009
-0.00453326
0.000562983
-0.00462089
0.000545252
-0.00470354
0.000523941
-0.00478179
0.000502287
-0.0048597
0.000482567
-0.00493129
0.000459033
-0.00499931
0.000437615
-0.00506446
0.000414335
-0.0051245
0.000391444
-0.00518187
0.000369859
-0.00523527
0.000346014
-0.00528691
0.000325089
-0.00533296
0.00030061
-0.00537624
0.000277333
-0.00541354
0.000252982
-0.00544613
0.000226663
-0.005477
0.000205965
-0.00550435
0.000181681
0.000158244
-0.00552725
-0.000164948
0.000119931
0.000181587
-0.000219108
0.00022107
-0.000277959
0.000258238
-0.000346751
0.000303795
-0.00042015
0.000343468
-0.000500534
0.000386661
-0.000587172
0.000429366
-0.000677361
0.000468436
-0.000777352
0.000515048
-0.0008787
0.000550756
-0.000989895
0.000595745
-0.00110127
0.000627671
-0.00122237
0.000668669
-0.00133961
0.000691865
-0.00146449
0.000727099
-0.00159291
0.000755765
-0.0017204
0.000776649
-0.00185395
0.000802951
-0.00198774
0.000820377
-0.00212081
0.000834263
-0.00226011
0.000855629
-0.00239299
0.000860911
-0.00253106
0.000876985
-0.00266869
0.000882187
-0.00280559
0.000882747
-0.00294533
0.000887335
-0.00307944
0.00088079
-0.00321494
0.000882803
-0.00334964
0.00088122
-0.00347858
0.00087055
-0.00360886
0.000866107
-0.0037361
0.000852788
-0.00386036
0.000837799
-0.00398428
0.000826807
-0.00410827
0.000816432
-0.0042242
0.000795258
-0.00434151
0.00078458
-0.00445429
0.000765396
-0.00456208
0.00074392
-0.00467027
0.000728363
-0.00477035
0.000703099
-0.00487117
0.000684851
-0.00496604
0.000657814
-0.00505762
0.000636832
-0.0051483
0.000614564
-0.00523148
0.00058541
-0.00531346
0.000564524
-0.00538834
0.000533896
-0.00546121
0.000510487
-0.00552783
0.000480961
-0.00559443
0.000458047
-0.00565398
0.000429415
-0.00571042
0.000402458
-0.00576293
0.000377594
-0.00581309
0.000350773
-0.00585535
0.000319602
-0.00589609
0.000293721
-0.00593028
0.000260855
-0.00596183
0.000237521
-0.00598992
0.000209775
-0.00601229
0.000180617
-0.00303427
1.39244e-05
-0.00304636
1.20906e-05
-0.00305674
1.03874e-05
-0.00306525
8.50863e-06
-0.0030715
6.24759e-06
-0.00307513
3.62399e-06
-0.00307701
1.88252e-06
-0.0030768
-2.13309e-07
-0.0030746
-2.19672e-06
-0.00306997
-4.63887e-06
-0.00306343
-6.53561e-06
-0.00305486
-8.57567e-06
-0.0030442
-1.06656e-05
-0.00303147
-1.27342e-05
-0.00301698
-1.44963e-05
-0.00300063
-1.63451e-05
-0.00298226
-1.83755e-05
-0.00296184
-2.04289e-05
-0.0029397
-2.21392e-05
-0.00291568
-2.40273e-05
-0.00288985
-2.583e-05
-0.00286239
-2.74644e-05
-0.00283318
-2.922e-05
-0.00280213
-3.10633e-05
-0.00276942
-3.2711e-05
-0.00273532
-3.41144e-05
-0.00269957
-3.57599e-05
-0.00266213
-3.74457e-05
-0.00262314
-3.8995e-05
-0.00258277
-4.0384e-05
-0.00254089
-4.18834e-05
-0.00249756
-4.33385e-05
-0.00245297
-4.45942e-05
-0.00240706
-4.59175e-05
-0.00235981
-4.72549e-05
-0.00231139
-4.84233e-05
-0.00226188
-4.95246e-05
-0.00221122
-5.06589e-05
-0.00215936
-5.18668e-05
-0.00210646
-5.29096e-05
-0.00205265
-5.38115e-05
-0.0019979
-5.47529e-05
-0.00194222
-5.56805e-05
-0.00188579
-5.64391e-05
-0.00182845
-5.73438e-05
-0.00177029
-5.81613e-05
-0.00171149
-5.87991e-05
-0.00165214
-5.93519e-05
-0.00159212
-6.00265e-05
-0.00153152
-6.06001e-05
-0.00147047
-6.10543e-05
-0.00140908
-6.13941e-05
-0.00134716
-6.1919e-05
-0.00128502
-6.2147e-05
-0.00122263
-6.23904e-05
-0.00116021
-6.24222e-05
-0.00109749
-6.27218e-05
-0.0010347
-6.27842e-05
-0.000972039
-6.2666e-05
-0.000909568
-6.24717e-05
-6.2238e-05
-0.000847332
-0.0033004
2.98194e-05
-0.00331168
2.3368e-05
-0.00332094
1.96457e-05
-0.00332798
1.55544e-05
-0.00333488
1.31547e-05
-0.00333758
6.31891e-06
-0.00333873
3.03635e-06
-0.00333607
-2.86225e-06
-0.00333279
-5.47517e-06
-0.0033259
-1.15253e-05
-0.00331717
-1.5268e-05
-0.00330614
-1.96046e-05
-0.003293
-2.38036e-05
-0.003278
-2.77301e-05
-0.00326053
-3.19616e-05
-0.00324101
-3.58646e-05
-0.00321935
-4.00369e-05
-0.00319573
-4.40522e-05
-0.00316986
-4.80025e-05
-0.00314205
-5.18361e-05
-0.00311246
-5.54184e-05
-0.00308066
-5.92679e-05
-0.00304692
-6.29529e-05
-0.00301142
-6.65586e-05
-0.00297408
-7.00557e-05
-0.00293488
-7.33137e-05
-0.00289385
-7.67936e-05
-0.00285132
-7.99754e-05
-0.00280711
-8.32086e-05
-0.00276105
-8.64395e-05
-0.00271356
-8.93817e-05
-0.00266466
-9.22379e-05
-0.00261407
-9.51812e-05
-0.00256204
-9.79468e-05
-0.00250878
-0.000100523
-0.00245401
-0.000103195
-0.00239794
-0.000105594
-0.00234061
-0.000107994
-0.00228216
-0.000110314
-0.00222253
-0.000112539
-0.0021616
-0.000114746
-0.00209975
-0.000116605
-0.00203693
-0.000118504
-0.00197302
-0.000120343
-0.00190829
-0.000122083
-0.00184266
-0.000123787
-0.00177627
-0.000125192
-0.00170895
-0.000126676
-0.00164104
-0.000127935
-0.00157253
-0.000129112
-0.00150344
-0.000130145
-0.00143399
-0.000130846
-0.00136356
-0.000132356
-0.00129337
-0.000132338
-0.00122224
-0.000133523
-0.00115112
-0.000133541
-0.00107918
-0.00013466
-0.00100786
-0.000134107
-0.000936486
-0.000134046
-0.000865116
-0.000133843
-0.000134051
-0.000793305
-0.0035917
4.44291e-05
-0.00360645
3.8119e-05
-0.00361675
2.99403e-05
-0.00362475
2.35571e-05
-0.00362846
1.68657e-05
-0.00363222
1.00823e-05
-0.00363165
2.47841e-06
-0.00362898
-5.5367e-06
-0.00362407
-1.03809e-05
-0.00361739
-1.81966e-05
-0.00360824
-2.44166e-05
-0.00359532
-3.25213e-05
-0.00358072
-3.83997e-05
-0.00356346
-4.49856e-05
-0.00354387
-5.15456e-05
-0.00352187
-5.78713e-05
-0.00349767
-6.42276e-05
-0.00347126
-7.04639e-05
-0.00344257
-7.66898e-05
-0.00341191
-8.25001e-05
-0.00337873
-8.85972e-05
-0.00334362
-9.43683e-05
-0.00330647
-0.000100103
-0.0032673
-0.000105722
-0.00322607
-0.000111285
-0.00318282
-0.000116566
-0.00313772
-0.000121885
-0.00309071
-0.000126981
-0.00304174
-0.000132185
-0.00299131
-0.000136864
-0.00293899
-0.0001417
-0.00288486
-0.000146368
-0.00282942
-0.000150621
-0.00277227
-0.000155099
-0.00271355
-0.000159242
-0.00265341
-0.000163336
-0.0025918
-0.000167205
-0.00252876
-0.000171038
-0.00246442
-0.000174653
-0.00239883
-0.000178127
-0.00233216
-0.000181417
-0.00226408
-0.000184687
-0.00219504
-0.000187542
-0.00212492
-0.00019047
-0.00205383
-0.000193174
-0.00198185
-0.000195767
-0.00190893
-0.000198112
-0.0018352
-0.000200407
-0.00176063
-0.000202501
-0.00168571
-0.00020404
-0.00160948
-0.00020637
-0.00153267
-0.000207664
-0.00145571
-0.000209311
-0.00137839
-0.000209665
-0.00130078
-0.000211134
-0.00122225
-0.000212075
-0.00114431
-0.0002126
-0.00106566
-0.000212753
-0.000987047
-0.000212665
-0.000908006
-0.000212886
-0.000212443
-0.000829616
-0.00392268
6.20504e-05
-0.0039362
5.1644e-05
-0.00394745
4.11878e-05
-0.00395443
3.05376e-05
-0.00395922
2.16505e-05
-0.00396164
1.25025e-05
-0.00395954
3.8756e-07
-0.00395756
-7.52398e-06
-0.00395147
-1.64679e-05
-0.0039434
-2.62688e-05
-0.00393105
-3.6768e-05
-0.00391748
-4.60879e-05
-0.00390139
-5.44811e-05
-0.00388187
-6.45064e-05
-0.00386013
-7.3278e-05
-0.00383584
-8.2165e-05
-0.00380902
-9.10402e-05
-0.00377966
-9.98257e-05
-0.00374805
-0.000108295
-0.00371375
-0.000116802
-0.00367749
-0.000124857
-0.00363869
-0.000133164
-0.00359779
-0.000140999
-0.00355466
-0.000148854
-0.00350948
-0.000156455
-0.00346192
-0.000164129
-0.00341231
-0.000171488
-0.00336075
-0.000178538
-0.00330738
-0.00018556
-0.00325174
-0.000192501
-0.0031944
-0.00019904
-0.00313539
-0.000205371
-0.00307434
-0.000211671
-0.00301176
-0.000217686
-0.00294756
-0.000223441
-0.00288178
-0.000229112
-0.00281425
-0.00023474
-0.00274532
-0.000239964
-0.00267496
-0.000245018
-0.00260332
-0.000249762
-0.00253019
-0.00025455
-0.00245607
-0.000258808
-0.00238054
-0.000263068
-0.002304
-0.000267009
-0.00222634
-0.000270842
-0.00214762
-0.000274485
-0.00206794
-0.000277797
-0.00198753
-0.000280818
-0.00190593
-0.000284099
-0.00182361
-0.000286366
-0.00174122
-0.000288752
-0.00165752
-0.000291369
-0.00157345
-0.00029338
-0.00148831
-0.000294807
-0.00140366
-0.000295791
-0.00131818
-0.00029755
-0.00123261
-0.000298172
-0.00114708
-0.000298287
-0.00106103
-0.000298715
-0.000975167
-0.000298752
-0.000298603
-0.000889009
-0.00428201
7.86376e-05
-0.00429441
6.40474e-05
-0.00430656
5.33374e-05
-0.00431451
3.84899e-05
-0.00431826
2.53966e-05
-0.00431971
1.39551e-05
-0.00432121
1.88631e-06
-0.00431625
-1.24846e-05
-0.00430911
-2.36094e-05
-0.00429806
-3.73234e-05
-0.00428491
-4.99127e-05
-0.00426957
-6.14315e-05
-0.00425019
-7.38589e-05
-0.00422932
-8.53673e-05
-0.00420658
-9.60126e-05
-0.00417881
-0.000109932
-0.00414909
-0.000120749
-0.00411669
-0.000132225
-0.00408157
-0.000143405
-0.00404408
-0.000154286
-0.00400393
-0.000165011
-0.00396165
-0.000175442
-0.00391676
-0.000185888
-0.00386942
-0.00019619
-0.0038195
-0.000206377
-0.00376758
-0.000216042
-0.00371336
-0.000225707
-0.0036568
-0.000235092
-0.00359815
-0.000244211
-0.00353755
-0.000253101
-0.00347479
-0.000261796
-0.00341
-0.000270164
-0.00334344
-0.000278223
-0.00327511
-0.000286019
-0.00320488
-0.000293676
-0.00313282
-0.000301171
-0.00305935
-0.000308207
-0.00298403
-0.000315284
-0.00290715
-0.000321899
-0.00282867
-0.000328244
-0.00274901
-0.000334204
-0.00266792
-0.000339903
-0.00258568
-0.000345309
-0.00250217
-0.000350523
-0.00241751
-0.000355503
-0.0023321
-0.000359886
-0.00224448
-0.000365419
-0.00215639
-0.000368911
-0.00206807
-0.000372419
-0.00197834
-0.000376101
-0.00188812
-0.000378975
-0.00179754
-0.00038195
-0.00170585
-0.000385068
-0.00161386
-0.000386803
-0.00152022
-0.000389432
-0.00142719
-0.000390579
-0.00133412
-0.00039124
-0.00124057
-0.000391843
-0.00114659
-0.00039269
-0.00105341
-0.00039194
-0.000392086
-0.000959927
-0.00467121
9.61418e-05
-0.0046865
7.93499e-05
-0.00469563
6.24698e-05
-0.00470454
4.74001e-05
-0.00471124
3.20995e-05
-0.00471178
1.44959e-05
-0.00470826
-1.62391e-06
-0.00470442
-1.63229e-05
-0.0046946
-3.34324e-05
-0.00468457
-4.73485e-05
-0.00467049
-6.39922e-05
-0.00465238
-7.95338e-05
-0.00463215
-9.40897e-05
-0.00460796
-0.000109551
-0.00457974
-0.000124229
-0.0045496
-0.000140071
-0.00451685
-0.0001535
-0.00448158
-0.000167486
-0.00444295
-0.000182022
-0.00440154
-0.00019569
-0.00435763
-0.000208917
-0.00431078
-0.000222288
-0.0042614
-0.000235262
-0.00420951
-0.000248083
-0.00415513
-0.000260752
-0.00409803
-0.000273144
-0.0040387
-0.00028503
-0.00397688
-0.000296917
-0.00391273
-0.000308355
-0.0038465
-0.000319325
-0.00377791
-0.000330389
-0.00370715
-0.000340922
-0.00363446
-0.000350914
-0.0035599
-0.000360572
-0.0034832
-0.000370381
-0.0034048
-0.000379566
-0.00332434
-0.000388663
-0.00324214
-0.000397489
-0.00315835
-0.000405686
-0.00307303
-0.000413564
-0.00298595
-0.000421283
-0.00289762
-0.000428235
-0.0028079
-0.000435028
-0.00271663
-0.000441794
-0.00262443
-0.000447703
-0.00253108
-0.000453236
-0.00243723
-0.000459274
-0.00234167
-0.000464466
-0.00224483
-0.000469259
-0.00214749
-0.000473447
-0.00204891
-0.000477553
-0.00194928
-0.00048158
-0.00185002
-0.00048433
-0.00174915
-0.000487677
-0.00164862
-0.00048996
-0.00154745
-0.000491754
-0.00144497
-0.000493721
-0.00134285
-0.000493964
-0.0012414
-0.000494141
-0.00113931
-0.000494034
-0.000493916
-0.00103748
-0.00509259
0.000114442
-0.00510867
9.54338e-05
-0.00512065
7.44484e-05
-0.00512848
5.52307e-05
-0.00513023
3.38571e-05
-0.00513184
1.61127e-05
-0.00512929
-4.16106e-06
-0.0051226
-2.30057e-05
-0.0051138
-4.22205e-05
-0.00509919
-6.19509e-05
-0.00508252
-8.0653e-05
-0.00506362
-9.84281e-05
-0.00503882
-0.000118889
-0.00501198
-0.000136393
-0.00498314
-0.000153068
-0.0049503
-0.000172906
-0.00491341
-0.000190389
-0.00487366
-0.000207233
-0.00483071
-0.00022497
-0.00478585
-0.000240548
-0.00473726
-0.000257492
-0.00468613
-0.000273411
-0.00463209
-0.000289301
-0.00457512
-0.000305055
-0.00451533
-0.000320532
-0.00445288
-0.000335596
-0.0043877
-0.0003502
-0.00432024
-0.000364377
-0.0042504
-0.000378198
-0.00417795
-0.000391769
-0.00410304
-0.000405296
-0.00402597
-0.000417991
-0.00394651
-0.000430376
-0.0038652
-0.000441877
-0.00378187
-0.000453713
-0.00369638
-0.00046505
-0.00360887
-0.00047617
-0.00351929
-0.000487076
-0.00342786
-0.00049711
-0.00333465
-0.000506776
-0.00323991
-0.000516023
-0.00314318
-0.000524966
-0.00304564
-0.000532567
-0.00294679
-0.000540642
-0.00284692
-0.000547577
-0.00274505
-0.000555106
-0.0026418
-0.000562526
-0.0025379
-0.000568366
-0.00243374
-0.000573413
-0.00232735
-0.000579838
-0.00222051
-0.000584398
-0.00211348
-0.000588612
-0.00200457
-0.000593232
-0.00189557
-0.000596687
-0.00178544
-0.000600088
-0.00167484
-0.000602357
-0.00156473
-0.000603825
-0.00145395
-0.000604748
-0.00134275
-0.000605338
-0.00123169
-0.000605101
-0.000604746
-0.00112086
-0.00554621
0.000133393
-0.0055608
0.00011002
-0.00557158
8.52221e-05
-0.00557999
6.3638e-05
-0.00558459
3.84643e-05
-0.00558335
1.48696e-05
-0.00558007
-7.43033e-06
-0.00557039
-3.26827e-05
-0.00555865
-5.39502e-05
-0.0055435
-7.70929e-05
-0.00552622
-9.79198e-05
-0.00550297
-0.000121662
-0.00547735
-0.000144502
-0.005448
-0.000165739
-0.00541328
-0.000187785
-0.0053779
-0.00020828
-0.0053386
-0.00022969
-0.00529328
-0.000252554
-0.00524748
-0.000270767
-0.00519671
-0.000291321
-0.00514269
-0.000311506
-0.00508666
-0.00032944
-0.00502781
-0.000348145
-0.00496526
-0.000367606
-0.00489976
-0.00038602
-0.00483127
-0.000404081
-0.00476004
-0.000421435
-0.00468614
-0.000438272
-0.00460969
-0.000454645
-0.00453071
-0.000470747
-0.00444885
-0.00048715
-0.00436495
-0.00050189
-0.0042784
-0.000516925
-0.00419043
-0.000529845
-0.00409976
-0.000544383
-0.00400686
-0.000557947
-0.00391183
-0.000571199
-0.00381424
-0.000584666
-0.00371436
-0.000596985
-0.00361301
-0.000608128
-0.00351006
-0.000618968
-0.00340528
-0.000629753
-0.00329829
-0.00063955
-0.00319147
-0.000647462
-0.00308241
-0.000656643
-0.00297117
-0.000666347
-0.00286062
-0.000673071
-0.00274729
-0.000681696
-0.00263369
-0.000687013
-0.00251917
-0.000694362
-0.00240257
-0.000700995
-0.00228617
-0.00070501
-0.00216846
-0.000710948
-0.00205084
-0.000714308
-0.00193081
-0.000720117
-0.00181138
-0.000721784
-0.00169035
-0.000724861
-0.00157002
-0.000725081
-0.00144946
-0.000725893
-0.00132943
-0.000725139
-0.000725477
-0.0012087
-0.00603187
0.000152968
-0.00604617
0.000124313
-0.00605741
9.64531e-05
-0.00606184
6.80548e-05
-0.00606507
4.16797e-05
-0.00606444
1.42354e-05
-0.00605937
-1.25027e-05
-0.00604948
-4.25792e-05
-0.00603436
-6.90791e-05
-0.00601856
-9.28906e-05
-0.00599674
-0.000119738
-0.00597126
-0.000147134
-0.00594341
-0.000172333
-0.00590867
-0.000200468
-0.00587465
-0.000221797
-0.00583338
-0.000249543
-0.00578773
-0.000275333
-0.00574072
-0.000299563
-0.00568708
-0.000324407
-0.00563241
-0.000345986
-0.00557514
-0.000368784
-0.00551202
-0.000392564
-0.00544888
-0.000411283
-0.00538001
-0.000436474
-0.00530756
-0.000458472
-0.0052335
-0.000478134
-0.00515462
-0.000500319
-0.00507472
-0.000518167
-0.00498935
-0.000540014
-0.0049053
-0.000554788
-0.00481393
-0.000578526
-0.00472409
-0.000591728
-0.00462817
-0.000612838
-0.00453448
-0.000623536
-0.00443639
-0.000642469
-0.00433522
-0.000659111
-0.00423334
-0.000673083
-0.00412645
-0.000691547
-0.0040174
-0.00070604
-0.00390889
-0.000716638
-0.00379502
-0.000732836
-0.00367972
-0.000745053
-0.0035657
-0.000753565
-0.00344683
-0.000766333
-0.00333197
-0.000771501
-0.00320935
-0.000788971
-0.00309043
-0.000791991
-0.00296558
-0.000806548
-0.00284488
-0.000807715
-0.00272086
-0.000818381
-0.00259393
-0.000827925
-0.00247013
-0.000828817
-0.00234097
-0.000840101
-0.00221513
-0.000840156
-0.00208235
-0.000852898
-0.00195456
-0.000849568
-0.00182042
-0.000859003
-0.00169401
-0.000851496
-0.00156048
-0.000859428
-0.00143275
-0.000852868
-0.00129845
-0.00085978
-0.000784891
-6.24417e-05
-0.000722805
-6.20873e-05
-0.000661093
-6.17135e-05
-0.000599792
-6.13024e-05
-0.000538957
-6.08357e-05
-0.000478641
-6.03178e-05
-0.000419093
-5.95486e-05
-0.00036036
-5.87351e-05
-0.000302642
-5.77187e-05
-0.00024607
-5.65737e-05
-0.00019058
-5.54905e-05
-0.00013438
-5.6202e-05
-7.64069e-05
-5.79744e-05
-1.7249e-05
-5.91596e-05
4.0984e-05
-5.82346e-05
9.66898e-05
-5.57075e-05
0.000150027
-5.33393e-05
0.000201544
-5.15186e-05
0.000251461
-4.99184e-05
0.000299803
-4.83439e-05
0.000346593
-4.67921e-05
0.000391777
-4.51858e-05
0.000435291
-4.35163e-05
0.000477007
-4.17178e-05
0.000516863
-3.98585e-05
0.000554798
-3.79362e-05
0.000590691
-3.58956e-05
0.000624412
-3.37231e-05
0.000655846
-3.14358e-05
0.000684902
-2.90576e-05
0.000711382
-2.6482e-05
0.000735129
-2.37489e-05
0.000756022
-2.08941e-05
0.000773815
-1.77953e-05
0.000788295
-1.44811e-05
0.00079927
-1.09756e-05
0.000806491
-7.22188e-06
0.000809617
-3.12686e-06
0.000809347
2.70191e-07
0.000805537
3.80961e-06
0.00079835
7.18707e-06
0.00078709
1.12603e-05
0.000771251
1.58398e-05
0.000750411
2.08406e-05
0.000723939
2.64729e-05
0.000691212
3.27281e-05
0.000651614
3.96003e-05
0.000604407
4.72093e-05
0.000548733
5.5676e-05
0.000483822
6.49135e-05
0.000408939
7.48848e-05
0.000323508
8.54334e-05
0.000226999
9.65123e-05
0.000118786
0.000108216
-7.63803e-06
0.000126427
-0.000147839
0.000140204
-0.00027842
0.000130583
-0.00038746
0.000109042
-0.000470427
8.29689e-05
-0.000532181
6.17555e-05
5.13421e-05
-0.000583522
-0.000722114
-0.000133635
-0.000650609
-0.000133594
-0.00057932
-0.000133004
-0.000508289
-0.000132336
-0.000437881
-0.000131245
-0.000367587
-0.000130613
-0.000297832
-0.000129306
-0.000228465
-0.000128104
-0.000159819
-0.000126367
-9.17216e-05
-0.000124672
-2.33426e-05
-0.000123871
4.55145e-05
-0.000125061
0.000113435
-0.000125897
0.000180045
-0.000125771
0.00024587
-0.000124061
0.000311049
-0.000120888
0.00037518
-0.000117472
0.000437998
-0.000114339
0.000499404
-0.000111327
0.000559418
-0.000108359
0.000618047
-0.000105423
0.000675157
-0.000102297
0.00073072
-9.90813e-05
0.00078473
-9.57303e-05
0.000837087
-9.22175e-05
0.000887731
-8.85815e-05
0.000936529
-8.46962e-05
0.000983502
-8.06974e-05
0.0010285
-7.64363e-05
0.00107135
-7.19092e-05
0.00111207