/*--------------------------------*- C++ -*----------------------------------*\
| =========                 |                                                 |
| \\      /  F ield         | OpenFOAM: The Open Source CFD Toolbox           |
|  \\    /   O peration     | Version:  2.3.1                                 |
|   \\  /    A nd           | Web:      www.OpenFOAM.org                      |
|    \\/     M anipulation  |                                                 |
\*---------------------------------------------------------------------------*/
FoamFile
{
    version     2.0;
    format      ascii;
    class       volVectorField;
    location    "0.49";
    object      U;
}
// * * * * * * * * * * * * * * * * * * * * * * * * * * * * * * * * * * * * * //

dimensions      [0 1 -1 0 0 0 0];

internalField   nonuniform List<vector> 
9648
(
(0.162299 -4.74826 -5.71425e-23)
(0.280556 -4.72255 -9.01097e-23)
(0.399083 -4.6914 0)
(0.519219 -4.66499 0)
(0.64018 -4.64337 9.8068e-21)
(0.762452 -4.62804 1.51784e-20)
(0.88861 -4.62286 -2.73375e-20)
(1.02074 -4.6295 -1.2614e-20)
(1.15995 -4.64914 1.25823e-20)
(1.30679 -4.68369 3.81551e-20)
(1.46337 -4.73473 -3.79961e-20)
(1.6315 -4.80329 -5.47269e-20)
(1.81317 -4.89001 2.90972e-19)
(2.01039 -4.99486 7.52561e-20)
(2.22487 -5.11714 -7.06053e-19)
(2.45786 -5.25565 0)
(2.71056 -5.40876 0)
(2.98384 -5.57445 1.28492e-19)
(3.27841 -5.75019 4.14306e-19)
(3.59439 -5.93328 -1.19305e-18)
(3.9318 -6.12118 -2.08961e-20)
(4.2905 -6.31081 3.29073e-19)
(4.66978 -6.49922 3.89303e-19)
(5.06901 -6.68369 -1.7701e-18)
(5.48734 -6.86155 0)
(5.92382 -7.03027 1.0605e-18)
(6.37706 -7.18733 -1.11202e-18)
(6.84577 -7.33067 0)
(7.32828 -7.45786 0)
(7.8229 -7.56718 -6.7511e-19)
(8.3284 -7.65717 -1.49526e-18)
(8.84281 -7.72626 2.3494e-18)
(9.36483 -7.77349 0)
(9.89253 -7.79749 0)
(10.4241 -7.79755 1.80279e-18)
(10.9578 -7.77276 -1.94081e-18)
(11.4918 -7.72271 0)
(12.0245 -7.64712 4.16943e-18)
(12.5541 -7.54559 1.12521e-18)
(13.0789 -7.41799 -3.33129e-18)
(13.5969 -7.26434 6.2979e-20)
(14.1068 -7.08513 2.37181e-18)
(14.6069 -6.88022 -3.15202e-18)
(15.0952 -6.65014 6.34096e-19)
(15.5708 -6.39564 0)
(16.0321 -6.11686 0)
(16.4775 -5.81449 4.78737e-18)
(16.9058 -5.48932 7.0074e-19)
(17.3162 -5.14233 -2.16603e-18)
(17.7082 -4.77353 -7.29221e-19)
(18.0797 -4.38336 -7.58789e-19)
(18.4288 -3.97425 7.54047e-19)
(18.7554 -3.54797 3.8969e-19)
(19.0584 -3.10527 -3.87567e-19)
(19.3368 -2.64789 1.97889e-18)
(19.5902 -2.17689 -1.9487e-18)
(19.8176 -1.69373 -2.17026e-20)
(20.0186 -1.19964 0)
(20.1927 -0.69606 -3.96035e-19)
(20.3395 -0.184673 -5.12325e-20)
(20.4589 0.333309 -4.85776e-20)
(-0.0593384 -2.45606 1.41114e-22)
(0.00582916 -2.45634 0)
(0.0738108 -2.46949 0)
(0.147063 -2.49709 5.32907e-21)
(0.225286 -2.5451 -5.74144e-21)
(0.312805 -2.61678 -3.57944e-20)
(0.411012 -2.70942 0)
(0.521648 -2.82146 0)
(0.646347 -2.95343 -4.28736e-20)
(0.785753 -3.1052 0)
(0.941244 -3.27576 -1.03097e-19)
(1.11367 -3.46362 8.13258e-20)
(1.30399 -3.66755 -4.3981e-20)
(1.51316 -3.88592 0)
(1.74197 -4.11683 2.74667e-19)
(1.99076 -4.35822 1.62609e-19)
(2.25993 -4.60789 -1.59996e-19)
(2.5496 -4.86359 2.08156e-19)
(2.85995 -5.12282 -6.34291e-19)
(3.1907 -5.3832 5.05791e-19)
(3.54149 -5.64247 -5.60588e-19)
(3.91212 -5.89809 -3.02252e-19)
(4.3018 -6.14762 -3.10023e-19)
(4.71 -6.38882 1.06598e-18)
(5.13572 -6.61933 3.69194e-19)
(5.57805 -6.83712 4.39146e-19)
(6.03595 -7.04041 -3.89241e-19)
(6.5078 -7.22714 0)
(6.99256 -7.39563 0)
(7.48835 -7.54419 0)
(7.99405 -7.67155 0)
(8.50818 -7.77661 0)
(9.02914 -7.85823 0)
(9.55578 -7.91563 0)
(10.086 -7.94798 -8.08624e-19)
(10.6184 -7.95455 7.34269e-19)
(11.1511 -7.93508 8.10427e-19)
(11.6827 -7.88923 -4.11764e-18)
(12.2115 -7.81671 -8.74417e-19)
(12.7356 -7.71737 2.68961e-18)
(13.2537 -7.59137 1.88815e-18)
(13.7638 -7.43911 -1.94937e-18)
(14.2647 -7.26047 9.31059e-19)
(14.7546 -7.05614 9.82891e-19)
(15.232 -6.82675 -1.04544e-18)
(15.6956 -6.57252 1.03616e-18)
(16.1439 -6.29429 -2.22216e-18)
(16.5755 -5.99291 0)
(16.9891 -5.66934 -5.67968e-19)
(17.384 -5.32374 1.14146e-18)
(17.7593 -4.95666 -5.73644e-19)
(18.1139 -4.57003 0)
(18.4467 -4.16524 1.17972e-18)
(18.7567 -3.74309 0)
(19.0429 -3.30506 0)
(19.3047 -2.85231 2.79825e-18)
(19.5411 -2.38616 -1.26141e-18)
(19.7517 -1.90822 -3.06947e-19)
(19.936 -1.41935 3.24041e-19)
(20.0935 -0.921303 0)
(20.2237 -0.415315 8.15147e-20)
(0.0483862 -1.39762 -2.85552e-22)
(0.103035 -1.43894 0)
(0.164511 -1.50056 -3.43538e-22)
(0.233945 -1.5853 -3.01625e-22)
(0.311394 -1.69033 0)
(0.400027 -1.81412 3.04108e-20)
(0.500925 -1.95826 2.05525e-20)
(0.61557 -2.12157 0)
(0.745722 -2.30348 2.24764e-21)
(0.893062 -2.50252 4.38749e-20)
(1.0586 -2.71759 8.77515e-20)
(1.24301 -2.94686 -3.04217e-20)
(1.44688 -3.18858 0)
(1.6706 -3.44073 0)
(1.91446 -3.70128 2.08072e-19)
(2.17847 -3.96812 -1.32503e-19)
(2.46262 -4.23898 -1.41963e-19)
(2.76673 -4.51166 0)
(3.09052 -4.78396 5.48617e-19)
(3.43356 -5.0538 -5.7013e-19)
(3.79533 -5.31919 -4.26729e-19)
(4.17536 -5.57797 -4.70027e-19)
(4.57311 -5.82814 0)
(4.98786 -6.06755 -8.42753e-19)
(5.41872 -6.29431 -2.96477e-19)
(5.86455 -6.50666 3.52723e-19)
(6.32382 -6.70276 3.89728e-19)
(6.79552 -6.88123 0)
(7.27783 -7.04009 0)
(7.76982 -7.17845 0)
(8.27038 -7.29526 0)
(8.77802 -7.38955 0)
(9.2918 -7.46067 0)
(9.80975 -7.5075 0)
(10.3302 -7.5294 -1.77159e-18)
(10.8515 -7.52575 5.88599e-19)
(11.3719 -7.49633 -6.49798e-19)
(11.8902 -7.44097 3.27077e-18)
(12.4046 -7.35944 0)
(12.9138 -7.25187 1.39252e-18)
(13.416 -7.11843 1.44076e-18)
(13.9098 -6.9594 7.13887e-19)
(14.3937 -6.77493 -8.18631e-19)
(14.866 -6.56555 -1.57689e-18)
(15.3256 -6.3318 2.45804e-18)
(15.771 -6.0742 -8.31623e-19)
(16.2009 -5.79351 -1.69711e-18)
(16.6141 -5.49054 0)
(17.0094 -5.1663 0)
(17.3856 -4.82174 -4.6374e-19)
(17.7418 -4.45802 -4.5349e-19)
(18.0772 -4.07602 -9.27738e-19)
(18.3909 -3.67681 -9.7142e-19)
(18.6819 -3.26183 0)
(18.9496 -2.83186 -9.61212e-19)
(19.1931 -2.38864 -1.00203e-18)
(19.412 -1.93291 0)
(19.6055 -1.46686 1.6304e-20)
(19.7729 -0.990796 0)
(19.9142 -0.506488 0)
(20.0291 -0.0149529 -6.21429e-20)
(0.017596 -0.891214 6.01559e-22)
(0.0770567 -0.969841 -8.20849e-22)
(0.148537 -1.06885 1.86033e-22)
(0.231439 -1.18722 -1.83262e-21)
(0.325486 -1.32384 0)
(0.430744 -1.47833 -1.26553e-20)
(0.548789 -1.65072 -1.77142e-20)
(0.681093 -1.84031 0)
(0.829232 -2.04615 3.04969e-21)
(0.994194 -2.26704 -3.74396e-20)
(1.17693 -2.50154 8.39756e-20)
(1.37783 -2.748 1.01534e-19)
(1.5973 -3.00448 0)
(1.83556 -3.26899 -8.00653e-20)
(2.09286 -3.53952 -1.69844e-19)
(2.36898 -3.81406 -9.04858e-20)
(2.66382 -4.09046 3.4888e-19)
(2.97713 -4.36663 -2.52316e-19)
(3.30842 -4.64061 2.83336e-19)
(3.65728 -4.91058 4.83453e-19)
(4.02332 -5.17483 7.00023e-19)
(4.40604 -5.43143 3.94914e-19)
(4.80512 -5.67841 1.89435e-19)
(5.2198 -5.91385 6.90165e-19)
(5.64893 -6.13588 2.26674e-19)
(6.09113 -6.34313 2.58231e-19)
(6.54527 -6.53427 3.05211e-19)
(7.00972 -6.70743 -9.14069e-19)
(7.48392 -6.86168 6.56188e-19)
(7.96658 -6.99548 7.41547e-19)
(8.45696 -7.10813 -1.5164e-18)
(8.95422 -7.19906 7.74521e-19)
(9.45646 -7.2671 -8.30239e-19)
(9.96262 -7.31181 4.13867e-19)
(10.4704 -7.33223 4.54003e-19)
(10.9783 -7.32789 5.04219e-19)
(11.4849 -7.2985 -4.97872e-19)
(11.9888 -7.24397 -5.42797e-19)
(12.4888 -7.16418 -1.62755e-18)
(12.9834 -7.05915 -1.17482e-18)
(13.4711 -6.92919 -2.38253e-18)
(13.9503 -6.77452 -3.08789e-18)
(14.4197 -6.59542 1.26649e-18)
(14.8778 -6.39228 2.87374e-20)
(15.3233 -6.16563 -7.10011e-19)
(15.7549 -5.91602 -6.96651e-19)
(16.1714 -5.64409 4.21281e-18)
(16.5717 -5.35064 -7.06265e-19)
(16.9545 -5.03644 0)
(17.319 -4.70241 0)
(17.6642 -4.34959 -7.10022e-19)
(17.9892 -3.97915 3.17874e-20)
(18.2931 -3.59209 7.62378e-19)
(18.5752 -3.18955 0)
(18.8346 -2.7728 8.1248e-19)
(19.0706 -2.34317 0)
(19.2825 -1.90181 0)
(19.47 -1.44969 6.19717e-19)
(19.6324 -0.988354 1.97145e-19)
(19.7695 -0.519264 -2.00944e-19)
(19.8809 -0.0438936 1.0286e-19)
(0.10419 -0.641456 4.06658e-23)
(0.16609 -0.742118 7.17543e-22)
(0.242061 -0.860175 -1.12149e-21)
(0.332052 -0.996034 8.19799e-22)
(0.435368 -1.1495 -2.66104e-21)
(0.552456 -1.32011 5.07196e-21)
(0.68401 -1.50739 2.2627e-21)
(0.830926 -1.71032 -1.29411e-20)
(0.994457 -1.92791 3.87069e-20)
(1.17492 -2.15882 -5.59017e-20)
(1.37302 -2.40151 6.28032e-20)
(1.58862 -2.6543 -7.83632e-20)
(1.82205 -2.91518 -4.51776e-20)
(2.07314 -3.18218 0)
(2.34223 -3.45327 8.30985e-20)
(2.62877 -3.72673 7.95185e-20)
(2.93257 -4.00045 0)
(3.25333 -4.27248 1.97453e-19)
(3.5904 -4.54118 0)
(3.94353 -4.80482 -2.62598e-19)
(4.31245 -5.06188 2.86221e-19)
(4.6967 -5.31057 9.4483e-21)
(5.0961 -5.54875 -1.74678e-20)
(5.50934 -5.77466 2.91142e-20)
(5.93539 -5.98691 -8.06202e-19)
(6.37298 -6.18456 -4.64677e-19)
(6.82039 -6.36624 9.5696e-19)
(7.27757 -6.53082 1.03943e-18)
(7.74274 -6.67643 -5.6158e-19)
(8.21583 -6.80215 0)
(8.6963 -6.90717 0)
(9.18221 -6.99059 0)
(9.67306 -7.05203 7.11843e-19)
(10.1663 -7.0904 -2.94091e-18)
(10.6605 -7.10539 1.54003e-18)
(11.1541 -7.09644 -7.83454e-19)
(11.646 -7.06327 -1.69164e-18)
(12.1349 -7.00591 1.71634e-18)
(12.6195 -6.92406 3.95854e-20)
(13.0987 -6.8179 -9.69929e-19)
(13.5709 -6.68774 1.00226e-18)
(14.0346 -6.53383 1.03694e-18)
(14.4884 -6.35645 0)
(14.931 -6.1559 -1.05386e-18)
(15.3612 -5.93274 0)
(15.7777 -5.68747 -1.68528e-18)
(16.1793 -5.42075 5.20976e-19)
(16.565 -5.13328 0)
(16.9337 -4.82576 -6.11984e-19)
(17.2844 -4.49919 -1.47975e-20)
(17.6163 -4.15442 1.30464e-18)
(17.9286 -3.79261 -6.20108e-19)
(18.2204 -3.41484 -3.45136e-19)
(18.491 -3.02221 6.31905e-19)
(18.7396 -2.61607 -4.89339e-21)
(18.9655 -2.19741 3.29778e-19)
(19.1678 -1.76753 1.59347e-19)
(19.3462 -1.32738 3.36499e-19)
(19.5005 -0.878153 -8.45635e-19)
(19.6302 -0.421369 3.39772e-19)
(19.735 0.0414218 -4.34934e-20)
(0.182285 -0.510231 -3.03423e-22)
(0.258088 -0.626199 0)
(0.348852 -0.75807 1.89522e-21)
(0.454513 -0.906531 0)
(0.573766 -1.07145 6.20992e-22)
(0.707466 -1.25219 6.78824e-21)
(0.85594 -1.44826 7.94073e-21)
(1.01985 -1.65837 2.50556e-20)
(1.20041 -1.88148 3.62941e-21)
(1.39725 -2.11634 5.57246e-21)
(1.61124 -2.36127 1.02053e-21)
(1.84152 -2.61474 -2.96739e-20)
(2.08862 -2.87465 4.36874e-20)
(2.35163 -3.13898 -1.33114e-19)
(2.63163 -3.40575 1.13556e-19)
(2.92756 -3.67376 -8.3005e-21)
(3.23899 -3.94071 -1.40978e-19)
(3.56598 -4.20495 -1.70351e-19)
(3.90737 -4.46507 0)
(4.2633 -4.71932 2.03462e-19)
(4.634 -4.96638 7.62427e-21)
(5.0185 -5.20438 -5.26822e-19)
(5.41669 -5.43099 -2.2876e-20)
(5.82707 -5.64522 -2.85795e-19)
(6.248 -5.84569 1.01528e-18)
(6.67871 -6.0322 3.58608e-20)
(7.11846 -6.20384 -3.78857e-19)
(7.56623 -6.35823 -3.87071e-20)
(8.02269 -6.49498 0)
(8.48574 -6.61168 0)
(8.95521 -6.70791 0)
(9.42982 -6.78363 0)
(9.90657 -6.83721 0)
(10.3857 -6.86888 5.63841e-20)
(10.8645 -6.87798 -6.59655e-19)
(11.3419 -6.86417 -3.88958e-20)
(11.8176 -6.82689 2.79817e-20)
(12.29 -6.76649 6.82153e-19)
(12.7583 -6.68259 1.55902e-18)
(13.2209 -6.57524 -2.35213e-18)
(13.6765 -6.44516 1.63793e-18)
(14.1236 -6.29236 -8.27079e-19)
(14.5606 -6.11723 0)
(14.9867 -5.91976 9.19929e-19)
(15.4006 -5.70062 0)
(15.8009 -5.46037 9.69436e-19)
(16.1869 -5.19942 -9.92476e-19)
(16.557 -4.9188 4.6626e-19)
(16.9105 -4.61879 4.98337e-19)
(17.2467 -4.30045 -5.20384e-19)
(17.5646 -3.96461 3.7242e-20)
(17.8635 -3.61251 -1.07325e-20)
(18.1426 -3.24491 1.05968e-18)
(18.4013 -2.8632 -1.09117e-18)
(18.6388 -2.46861 -5.38583e-19)
(18.8541 -2.06243 -2.63766e-19)
(19.0466 -1.64547 -8.39581e-19)
(19.2157 -1.21855 0)
(19.3617 -0.782789 5.67648e-19)
(19.484 -0.340025 -1.45798e-19)
(19.5824 0.108474 0)
(0.281357 -0.448486 0)
(0.371898 -0.575151 0)
(0.478572 -0.717285 -1.04442e-21)
(0.602018 -0.87531 5.42864e-22)
(0.738869 -1.04866 -1.97928e-21)
(0.890975 -1.23625 -1.08063e-20)
(1.05778 -1.43758 5.66294e-21)
(1.23924 -1.65108 -1.77259e-20)
(1.43784 -1.87596 -1.21225e-21)
(1.65101 -2.111 4.61813e-20)
(1.8813 -2.35452 -8.51357e-20)
(2.12583 -2.60533 0)
(2.38643 -2.86094 0)
(2.66013 -3.11959 1.51224e-19)
(2.95061 -3.37876 9.69333e-20)
(3.25508 -3.63871 -2.13953e-19)
(3.57297 -3.89648 3.47261e-19)
(3.90543 -4.1506 1.45905e-19)
(4.24992 -4.40051 -2.9209e-19)
(4.60756 -4.64351 -1.77149e-19)
(4.9797 -4.87833 2.0268e-19)
(5.36304 -5.10388 -6.32958e-21)
(5.75962 -5.31694 0)
(6.16491 -5.518 5.25193e-19)
(6.57899 -5.70635 -8.72446e-19)
(7.00211 -5.88145 2.91628e-19)
(7.43207 -6.04246 6.47268e-19)
(7.87236 -6.18685 -1.79023e-18)
(8.31881 -6.31249 3.64065e-19)
(8.7713 -6.41914 0)
(9.2297 -6.50512 0)
(9.68962 -6.5713 0)
(10.1517 -6.61738 4.98695e-19)
(10.6145 -6.6413 1.54745e-18)
(11.0769 -6.64448 -1.04828e-18)
(11.5372 -6.62619 5.78635e-19)
(11.9961 -6.58418 6.33971e-19)
(12.4518 -6.52051 -1.25805e-18)
(12.9023 -6.43412 0)
(13.3478 -6.32514 -1.2925e-18)
(13.7856 -6.19494 6.7141e-19)
(14.2151 -6.0431 3.48703e-20)
(14.6342 -5.87041 -3.14776e-20)
(15.0427 -5.67577 7.40816e-19)
(15.4393 -5.46055 3.14555e-20)
(15.8224 -5.22556 -2.36883e-18)
(16.1917 -4.97035 8.02943e-19)
(16.5452 -4.69678 -1.66893e-18)
(16.8827 -4.40419 0)
(17.2032 -4.09447 0)
(17.5062 -3.76751 1.76486e-18)
(17.7907 -3.42559 -4.21704e-19)
(18.0559 -3.06857 -9.15278e-19)
(18.302 -2.69776 -4.40147e-19)
(18.5277 -2.31524 1.40618e-18)
(18.7318 -1.92204 7.09653e-19)
(18.9136 -1.51843 2.45432e-19)
(19.0726 -1.10558 -4.60766e-21)
(19.2093 -0.6836 -2.45756e-19)
(19.3239 -0.25495 0)
(19.4153 0.178511 0)
(0.396819 -0.430391 3.38904e-22)
(0.505356 -0.564725 0)
(0.629105 -0.714208 0)
(0.772996 -0.879553 -5.62242e-22)
(0.92794 -1.05908 0)
(1.09957 -1.25094 3.99453e-21)
(1.28509 -1.4548 5.49568e-21)
(1.48333 -1.66871 -1.13528e-20)
(1.7014 -1.89258 0)
(1.92967 -2.12517 -2.7632e-20)
(2.17744 -2.36479 3.75558e-21)
(2.43472 -2.6109 0)
(2.70968 -2.86021 0)
(2.99111 -3.11157 -6.35208e-20)
(3.29249 -3.35997 6.94362e-20)
(3.60525 -3.61054 -8.72377e-20)
(3.92773 -3.85772 -1.00576e-19)
(4.26572 -4.10022 0)
(4.61197 -4.33953 1.30513e-19)
(4.9699 -4.56973 -2.74496e-19)
(5.34434 -4.79056 -3.0626e-19)
(5.72426 -5.00292 -3.59314e-19)
(6.11842 -5.20025 -3.34575e-20)
(6.51766 -5.38954 -4.6827e-19)
(6.92384 -5.5661 4.46174e-19)
(7.33966 -5.73003 5.02215e-19)
(7.76017 -5.88151 -5.69212e-19)
(8.19132 -6.01205 3.36679e-20)
(8.62927 -6.12665 4.18966e-20)
(9.06811 -6.2218 -6.46152e-19)
(9.51198 -6.29548 0)
(9.95579 -6.35377 -7.91377e-19)
(10.3989 -6.39101 1.57226e-18)
(10.8458 -6.40698 -4.23899e-20)
(11.2934 -6.40493 9.26022e-19)
(11.7356 -6.38302 -9.22863e-19)
(12.1785 -6.33475 1.01674e-18)
(12.6165 -6.26775 1.06027e-18)
(13.0486 -6.1793 -2.09629e-18)
(13.4757 -6.06793 1.14645e-18)
(13.8944 -5.93838 1.12794e-18)
(14.3058 -5.78717 1.78238e-18)
(14.7052 -5.61729 -6.34826e-19)
(15.0951 -5.42432 0)
(15.4736 -5.21308 3.4092e-20)
(15.8378 -4.98435 6.90751e-19)
(16.19 -4.73449 -6.71774e-19)
(16.5252 -4.46933 7.2375e-19)
(16.8458 -4.18411 0)
(17.1489 -3.88406 0)
(17.4363 -3.56589 -3.97231e-20)
(17.7052 -3.23517 7.78858e-19)
(17.9555 -2.8881 0)
(18.188 -2.52798 3.87176e-19)
(18.4015 -2.15869 3.90703e-19)
(18.5937 -1.77958 -7.96359e-19)
(18.7644 -1.38992 -3.90794e-19)
(18.9117 -0.992277 -2.07741e-19)
(19.038 -0.583624 0)
(19.1445 -0.170165 0)
(19.2283 0.246778 2.491e-20)
(0.528938 -0.439671 -9.54088e-22)
(0.661694 -0.578484 1.88118e-21)
(0.802088 -0.730973 -2.67848e-23)
(0.972615 -0.901765 -1.46625e-21)
(1.14206 -1.08433 1.46836e-21)
(1.33291 -1.28036 -7.7926e-22)
(1.538 -1.48275 0)
(1.74941 -1.69313 1.34304e-21)
(1.9922 -1.91448 -1.37169e-20)
(2.22985 -2.14119 0)
(2.50099 -2.37556 5.61421e-20)
(2.76395 -2.6164 -3.51358e-20)
(3.05689 -2.85935 3.57469e-20)
(3.33863 -3.10371 4.57211e-20)
(3.65351 -3.33554 -5.99674e-20)
(3.97424 -3.57772 -7.34001e-20)
(4.29728 -3.81421 2.43031e-19)
(4.64533 -4.04136 -2.53791e-19)
(4.98671 -4.27253 0)
(5.33977 -4.49126 -7.87452e-21)
(5.723 -4.69623 7.5127e-19)
(6.09154 -4.89756 -2.90295e-20)
(6.49131 -5.07456 -3.62746e-19)
(6.87784 -5.25595 6.95342e-19)
(7.27358 -5.42475 0)
(7.68692 -5.57799 -4.33027e-19)
(8.09053 -5.71945 -4.35845e-19)
(8.51627 -5.83413 9.65084e-19)
(8.94599 -5.93598 -4.41081e-21)
(9.36581 -6.02187 5.69238e-19)
(9.79673 -6.08318 -1.16941e-18)
(10.2167 -6.13708 1.86786e-18)
(10.6392 -6.16909 -1.34513e-18)
(11.0713 -6.17617 -1.41217e-18)
(11.5086 -6.16606 0)
(11.9297 -6.13995 8.07384e-19)
(12.364 -6.08207 0)
(12.781 -6.01507 -2.98736e-21)
(13.1908 -5.92674 9.55898e-19)
(13.6021 -5.81032 -1.77997e-18)
(13.9987 -5.68078 -6.52027e-21)
(14.3929 -5.53041 -1.96868e-18)
(14.7666 -5.36606 0)
(15.1369 -5.1759 -5.64776e-19)
(15.4983 -4.96995 2.16722e-18)
(15.839 -4.74867 -5.51408e-19)
(16.1778 -4.50355 5.84505e-19)
(16.4908 -4.24799 0)
(16.7962 -3.96912 6.02248e-19)
(17.0794 -3.6779 -1.81823e-18)
(17.352 -3.36478 -2.54547e-20)
(17.6039 -3.04546 0)
(17.836 -2.71114 6.25872e-19)
(18.0555 -2.36218 -1.88494e-20)
(18.2578 -2.00377 0)
(18.4351 -1.63734 3.53422e-19)
(18.5963 -1.26927 -3.20991e-19)
(18.7293 -0.888936 3.36765e-19)
(18.8434 -0.494766 3.34268e-19)
(18.9445 -0.0929346 -1.67954e-19)
(19.0174 0.308089 -6.35908e-20)
(20.5502 0.856961 1.51147e-19)
(20.6129 1.38456 -5.12479e-20)
(20.6474 1.91563 0)
(20.6537 2.44772 0)
(20.6321 2.97903 8.14852e-19)
(20.5831 3.50845 1.17253e-18)
(20.5064 4.03421 -1.20767e-18)
(20.4025 4.55484 -3.98098e-19)
(20.2714 5.06883 3.98032e-19)
(20.1137 5.57507 7.79248e-19)
(19.9296 6.07301 -7.79694e-19)
(19.7193 6.56078 -7.58331e-19)
(19.4841 7.03729 3.77184e-18)
(19.2254 7.50146 7.3379e-19)
(18.9436 7.95176 -6.4755e-18)
(18.6394 8.38666 0)
(18.3136 8.80524 0)
(17.9674 9.20654 6.73987e-19)
(17.6016 9.59001 1.99101e-18)
(17.217 9.9543 -5.11852e-18)
(16.8151 10.2987 -7.51505e-20)
(16.3967 10.6229 1.17336e-18)
(15.9629 10.9255 1.20764e-18)
(15.5148 11.2062 -4.50739e-18)
(15.0539 11.4647 0)
(14.5812 11.7011 2.11818e-18)
(14.097 11.9149 -1.96312e-18)
(13.6031 12.1043 0)
(13.1011 12.269 0)
(12.5928 12.4086 -9.00269e-19)
(12.0794 12.5232 -1.64682e-18)
(11.5621 12.6125 2.34799e-18)
(11.0425 12.6766 0)
(10.5216 12.7155 0)
(10.0009 12.7291 1.18674e-18)
(9.48163 12.7177 -1.12905e-18)
(8.96503 12.6814 0)
(8.45244 12.6207 1.78285e-18)
(7.94488 12.5359 3.72253e-19)
(7.44363 12.4272 -1.03041e-18)
(6.94989 12.2951 3.59075e-20)
(6.4651 12.1404 4.36709e-19)
(5.99002 11.9636 -4.34428e-19)
(5.52587 11.7651 7.62768e-20)
(5.07383 11.5458 0)
(4.63461 11.3066 0)
(4.20927 11.0479 -1.59964e-19)
(3.79874 10.7708 -3.53258e-20)
(3.40402 10.4761 2.15832e-19)
(3.02582 10.1651 9.02197e-20)
(2.66475 9.83846 1.42159e-19)
(2.32164 9.49715 -1.44015e-19)
(1.99726 9.14241 -9.68261e-20)
(1.69191 8.77545 9.81485e-20)
(1.4063 8.39719 -5.87203e-19)
(1.14084 8.00905 6.41255e-19)
(0.895953 7.61218 -1.38698e-21)
(0.67195 7.20807 0)
(0.469 6.79777 1.63622e-19)
(0.28746 6.38238 2.2235e-20)
(0.127409 5.96314 2.35484e-20)
(20.3262 0.0970059 -8.16109e-20)
(20.4 0.613629 0)
(20.446 1.13198 0)
(20.4646 1.65169 9.37601e-19)
(20.4556 2.17144 -6.27024e-19)
(20.4194 2.69004 -2.21013e-18)
(20.3561 3.20581 0)
(20.2658 3.71758 0)
(20.1488 4.22388 -1.20423e-18)
(20.0051 4.72301 0)
(19.835 5.21441 -1.76518e-18)
(19.6391 5.69583 1.17132e-18)
(19.4189 6.16542 -5.81525e-19)
(19.1754 6.62272 0)
(18.9089 7.06744 2.30125e-18)
(18.6197 7.49825 1.07804e-18)
(18.3087 7.91398 -1.08023e-18)
(17.9768 8.31342 1.02792e-18)
(17.6249 8.69594 -3.03783e-18)
(17.254 9.06031 2.04639e-18)
(16.8654 9.40541 -1.98785e-18)
(16.46 9.73079 -1.0137e-18)
(16.0389 10.0352 -9.1689e-19)
(15.6033 10.318 2.66125e-18)
(15.1544 10.5783 8.53051e-19)
(14.6931 10.8161 7.80918e-19)
(14.2204 11.0314 -7.05396e-19)
(13.7382 11.2233 0)
(13.2477 11.3913 0)
(12.7502 11.5346 0)
(12.247 11.6532 0)
(11.7394 11.7469 0)
(11.2289 11.8155 0)
(10.7166 11.8592 0)
(10.204 11.8777 -4.94302e-19)
(9.6923 11.8713 4.38638e-19)
(9.18284 11.8399 3.51876e-19)
(8.67684 11.784 -1.70876e-18)
(8.17542 11.7039 -2.67274e-19)
(7.67993 11.5997 7.97851e-19)
(7.1916 11.472 4.40232e-19)
(6.71179 11.3213 -3.52218e-19)
(6.24137 11.1482 1.31095e-19)
(5.7817 10.9531 9.6901e-20)
(5.33389 10.7367 -1.00896e-20)
(4.89873 10.4999 1.02032e-20)
(4.47732 10.2432 8.79504e-20)
(4.07061 9.9674 0)
(3.67968 9.67355 7.96015e-20)
(3.3053 9.36259 -1.80925e-19)
(2.94815 9.0354 1.01615e-19)
(2.60913 8.69288 0)
(2.28909 8.33615 -3.0423e-19)
(1.9883 7.96639 0)
(1.70768 7.58453 0)
(1.44747 7.19199 -9.4757e-19)
(1.20831 6.78997 4.57303e-19)
(0.990421 6.37988 1.26575e-19)
(0.794367 5.96272 -1.32371e-19)
(0.62046 5.53977 0)
(0.468935 5.11225 -3.737e-20)
(20.1174 0.481781 6.22037e-20)
(20.1795 0.98254 0)
(20.2149 1.48386 -2.48315e-19)
(20.2225 1.98556 -1.64047e-20)
(20.2033 2.48631 0)
(20.1579 2.98538 1.99399e-18)
(20.0863 3.48187 9.73704e-19)
(19.9883 3.97567 0)
(19.8641 4.46447 3.22753e-20)
(19.7139 4.94621 9.43437e-19)
(19.5386 5.41902 1.43367e-18)
(19.3395 5.88156 -4.71357e-19)
(19.117 6.33223 0)
(18.8715 6.77 0)
(18.6033 7.19448 1.73735e-18)
(18.3135 7.60483 -8.57563e-19)
(18.003 8.00002 -8.03635e-19)
(17.6725 8.37911 0)
(17.3232 8.7413 2.42887e-18)
(16.9558 9.08561 -2.33089e-18)
(16.5718 9.41112 -1.48905e-18)
(16.1719 9.71712 -1.44123e-18)
(15.7573 10.0027 0)
(15.3292 10.2672 -2.06029e-18)
(14.8886 10.5098 -6.72438e-19)
(14.4367 10.7302 6.14598e-19)
(13.9748 10.9275 6.05113e-19)
(13.5043 11.1018 0)
(13.0261 11.2527 0)
(12.5416 11.3798 0)
(12.052 11.483 0)
(11.5585 11.5621 0)
(11.0626 11.617 0)
(10.5654 11.6478 0)
(10.0684 11.6544 -1.06019e-18)
(9.57263 11.6369 3.39509e-19)
(9.0794 11.5954 -2.71033e-19)
(8.58987 11.5302 1.2915e-18)
(8.10519 11.4416 0)
(7.62656 11.33 3.63624e-19)
(7.15519 11.1959 2.97075e-19)
(6.69232 11.0396 1.27261e-19)
(6.23894 10.8618 -7.69456e-20)
(5.79625 10.663 -9.73328e-20)
(5.36526 10.4438 3.36174e-20)
(4.94687 10.2048 -2.61529e-21)
(4.54197 9.94683 1.00622e-19)
(4.15153 9.67067 0)
(3.77645 9.37725 0)
(3.4176 9.06741 8.02937e-20)
(3.0757 8.74206 9.72571e-20)
(2.75143 8.40215 2.09562e-19)
(2.44556 8.04863 2.40066e-19)
(2.15853 7.68262 0)
(1.89104 7.30501 2.99443e-19)
(1.64335 6.91726 3.30368e-19)
(1.41597 6.52043 0)
(1.20927 6.11599 -1.74693e-21)
(1.02379 5.70484 0)
(0.859772 5.28829 0)
(0.717468 4.86743 2.87595e-20)
(19.9665 0.436693 -1.02947e-19)
(20.0262 0.920908 2.01426e-19)
(20.06 1.40822 -3.97306e-19)
(20.0674 1.89667 -2.13788e-19)
(20.0486 2.38468 0)
(20.0033 2.87105 -8.28423e-19)
(19.931 3.35506 -8.22771e-19)
(19.8331 3.83516 0)
(19.7107 4.31097 3.4272e-20)
(19.564 4.78073 -7.95983e-19)
(19.3932 5.24211 1.50313e-18)
(19.1987 5.69405 1.48011e-18)
(18.9809 6.13541 0)
(18.7403 6.56509 -7.21785e-19)
(18.4779 6.98177 -1.43396e-18)
(18.1943 7.38423 -7.07226e-19)
(17.8904 7.77162 2.07242e-18)
(17.5671 8.14304 -1.33174e-18)
(17.2253 8.49775 1.29613e-18)
(16.8661 8.83488 1.88225e-18)
(16.4906 9.15362 2.44444e-18)
(16.0997 9.45317 1.20885e-18)
(15.6946 9.7327 5.56426e-19)
(15.2763 9.99151 1.68282e-18)
(14.8458 10.2291 5.15107e-19)
(14.4042 10.4449 5.1588e-19)
(13.9528 10.6385 4.67664e-19)
(13.4929 10.8095 -1.36202e-18)
(13.0255 10.9576 8.44791e-19)
(12.5521 11.0824 7.88818e-19)
(12.0736 11.1837 -1.53107e-18)
(11.5915 11.2616 7.42178e-19)
(11.1068 11.3159 -6.46112e-19)
(10.6211 11.3466 3.03334e-19)
(10.1355 11.3537 2.93242e-19)
(9.6512 11.3371 2.38418e-19)
(9.16944 11.2972 -2.40001e-19)
(8.69126 11.234 -2.26438e-19)
(8.21782 11.148 -5.17758e-19)
(7.75033 11.0396 -3.00846e-19)
(7.28996 10.9091 -4.70427e-19)
(6.83781 10.7572 -4.38268e-19)
(6.39508 10.5842 1.26739e-19)
(5.96279 10.3908 7.47024e-21)
(5.54198 10.1775 -2.5979e-21)
(5.13356 9.94483 3.04058e-20)
(4.73824 9.69361 -2.62727e-19)
(4.35704 9.42463 5.71844e-20)
(3.99079 9.13886 0)
(3.64042 8.83703 0)
(3.30654 8.52001 1.49456e-19)
(2.98996 8.18888 9.66238e-22)
(2.6913 7.84444 -1.96044e-19)
(2.41103 7.48773 0)
(2.14976 7.1196 -2.43667e-19)
(1.9077 6.74148 0)
(1.6854 6.35453 0)
(1.4831 5.96002 -2.34708e-19)
(1.30159 5.55906 -8.36738e-20)
(1.14086 5.15282 8.69347e-20)
(1.00148 4.74247 -4.61271e-20)
(19.8146 0.509071 1.86746e-21)
(19.869 0.980331 -1.74117e-19)
(19.8979 1.45427 5.10435e-19)
(19.9013 1.92934 3.38782e-19)
(19.8793 2.40435 -4.99185e-19)
(19.8318 2.87804 3.34564e-19)
(19.7595 3.34851 -2.35605e-21)
(19.6625 3.8134 -6.48182e-19)
(19.5407 4.27268 9.87786e-19)
(19.3953 4.72546 -1.28699e-18)
(19.2267 5.17079 1.21146e-18)
(19.0352 5.60715 -1.28846e-18)
(18.8212 6.03342 -6.19203e-19)
(18.5854 6.44859 0)
(18.3285 6.85128 6.38134e-19)
(18.0513 7.24025 5.4466e-19)
(17.7544 7.61478 0)
(17.4386 7.97388 1.0734e-18)
(17.1048 8.31685 0)
(16.7542 8.64294 -1.06259e-18)
(16.3879 8.95125 9.38506e-19)
(16.0068 9.24102 -4.07188e-20)
(15.612 9.51134 -4.58216e-20)
(15.2045 9.76148 1.89377e-21)
(14.7853 9.99102 -1.76885e-18)
(14.3553 10.1995 -8.04746e-19)
(13.9158 10.3864 1.57298e-18)
(13.4681 10.5516 1.4549e-18)
(13.0132 10.6945 -7.25886e-19)
(12.5525 10.8149 0)
(12.0869 10.9125 0)
(11.6177 10.9873 0)
(11.1461 11.0394 5.54135e-19)
(10.6734 11.0687 -1.94108e-18)
(10.201 11.075 9.01321e-19)
(9.72991 11.0585 -4.29862e-19)
(9.26127 11.0192 -6.88311e-19)
(8.79613 10.9572 6.46492e-19)
(8.33548 10.8733 2.18946e-20)
(7.88062 10.7675 -2.04274e-19)
(7.43266 10.6405 2.24454e-19)
(6.99267 10.4927 1.46288e-19)
(6.56188 10.3246 0)
(6.14129 10.1367 -4.13791e-20)
(5.7319 9.92961 0)
(5.33465 9.70361 7.6113e-20)
(4.95004 9.45967 -4.03444e-20)
(4.57907 9.19852 0)
(4.22242 8.92112 9.45719e-20)
(3.88137 8.62817 1.97693e-20)
(3.55621 8.3204 -2.48257e-19)
(3.24778 7.99892 1.46407e-19)
(2.95685 7.66454 9.63878e-20)
(2.68363 7.31821 -1.76836e-19)
(2.42899 6.96072 8.20585e-21)
(2.19255 6.59336 -1.0737e-19)
(1.97532 6.21737 -5.79472e-20)
(1.77724 5.83405 -1.28821e-19)
(1.59943 5.44448 3.41667e-19)
(1.44152 5.0498 -1.45372e-19)
(1.3046 4.65109 1.92481e-20)
(19.6563 0.561509 3.65861e-20)
(19.7059 1.01791 0)
(19.7308 1.47655 -5.70808e-19)
(19.7311 1.93626 0)
(19.7068 2.39569 2.84227e-19)
(19.6582 2.85348 8.31865e-19)
(19.5853 3.30825 5.45949e-19)
(19.4884 3.75926 1.10764e-18)
(19.3677 4.20479 9.7459e-21)
(19.2242 4.64387 -6.68281e-21)
(19.0583 5.07509 -5.98966e-20)
(18.8702 5.49745 -5.27385e-19)
(18.6604 5.90993 5.09481e-19)
(18.4296 6.31156 -1.49397e-18)
(18.1785 6.70112 1.01411e-18)
(17.908 7.07734 -4.87638e-20)
(17.6183 7.43942 -9.20095e-19)
(17.3103 7.78649 -9.43027e-19)
(16.9849 8.11801 0)
(16.6432 8.43337 8.44736e-19)
(16.2864 8.73159 -3.78716e-20)
(15.9155 9.01191 -1.6632e-18)
(15.5316 9.27339 -5.96298e-21)
(15.1354 9.51512 -6.90339e-19)
(14.7278 9.73691 2.1024e-18)
(14.3099 9.93829 -3.47251e-20)
(13.8828 10.1189 -6.71693e-19)
(13.4476 10.2786 -7.1194e-20)
(13.0059 10.4167 0)
(12.5584 10.5331 0)
(12.1064 10.6273 0)
(11.6506 10.6996 0)
(11.1926 10.7499 0)
(10.7335 10.7784 5.46986e-20)
(10.275 10.7847 -3.49764e-19)
(9.81765 10.7687 3.93764e-20)
(9.36275 10.7305 5.38314e-20)
(8.9112 10.6703 2.24608e-19)
(8.4638 10.5888 4.27987e-19)
(8.02196 10.4864 -5.33118e-19)
(7.58685 10.3633 3.13786e-19)
(7.15933 10.2202 -9.71713e-20)
(6.74083 10.0577 0)
(6.33232 9.87606 3.61469e-20)
(5.93472 9.67602 0)
(5.54919 9.45744 -3.96297e-20)
(5.1755 9.22157 7.69721e-20)
(4.81522 8.96904 -5.38937e-20)
(4.46844 8.70102 -6.80228e-20)
(4.13706 8.41787 1.02395e-19)
(3.82091 8.12026 1.96304e-20)
(3.52085 7.80947 1.55299e-20)
(3.23788 7.48604 -2.82721e-19)
(2.97191 7.15107 3.22471e-19)
(2.7241 6.80495 1.7677e-19)
(2.49336 6.4493 9.25014e-20)
(2.28141 6.08514 3.07733e-19)
(2.08723 5.71396 0)
(1.91306 5.33669 -2.3564e-19)
(1.75778 4.95454 6.25951e-20)
(1.62323 4.56836 0)
(19.4831 0.616349 0)
(19.5273 1.05725 0)
(19.5479 1.50033 2.47526e-19)
(19.5448 1.94413 -4.74371e-19)
(19.5181 2.38771 -2.44952e-19)
(19.468 2.82973 -1.18965e-18)
(19.3948 3.26854 4.5957e-19)
(19.2981 3.70314 -9.50689e-19)
(19.1786 4.13311 1.5391e-20)
(19.0372 4.55719 1.34852e-18)
(18.8743 4.97338 -1.80096e-18)
(18.6901 5.38082 0)
(18.4848 5.77843 0)
(18.2593 6.16597 1.70749e-18)
(18.0145 6.54195 8.25624e-19)
(17.7513 6.90444 -1.67625e-18)
(17.4693 7.25328 2.40078e-18)
(17.1696 7.58756 7.64002e-19)
(16.8528 7.90691 -1.49799e-18)
(16.5203 8.21106 -7.52205e-19)
(16.1735 8.49855 6.94238e-19)
(15.8133 8.76899 -7.11887e-20)
(15.4408 9.02128 0)
(15.0569 9.25392 1.30173e-18)
(14.6615 9.46744 -1.83711e-18)
(14.2562 9.66132 5.91924e-19)
(13.842 9.83509 1.06556e-18)
(13.4201 9.98906 -2.58852e-18)
(12.9922 10.1221 5.06663e-19)
(12.5588 10.2345 0)
(12.1213 10.3248 0)
(11.6796 10.3947 0)
(11.2362 10.4431 3.52021e-19)
(10.7913 10.4713 9.96536e-19)
(10.3478 10.4776 -5.8765e-19)
(9.90522 10.4624 2.56571e-19)
(9.46502 10.4257 2.46159e-19)
(9.02824 10.3673 -4.38009e-19)
(8.59483 10.2884 0)
(8.16668 10.1894 -2.45645e-19)
(7.74527 10.0704 1.28022e-19)
(7.33067 9.93226 1.45198e-20)
(6.92488 9.77553 9.7386e-21)
(6.5291 9.60064 3.07437e-20)
(6.14371 9.40843 -1.05601e-20)
(5.77104 9.19761 1.51159e-19)
(5.40867 8.97055 -6.48885e-20)
(5.05996 8.72711 2.22564e-19)
(4.72312 8.4694 0)
(4.40244 8.197 0)
(4.09584 7.91024 -4.02495e-19)
(3.80436 7.61105 1.09672e-19)
(3.53033 7.29951 2.51525e-19)
(3.27173 6.97682 1.48959e-19)
(3.0319 6.64274 -4.69103e-19)
(2.80676 6.29947 -2.62753e-19)
(2.60068 5.94771 -9.6722e-20)
(2.41004 5.58963 -2.15119e-21)
(2.24025 5.22558 1.03677e-19)
(2.08719 4.8568 0)
(1.95549 4.48396 0)
(19.2895 0.668395 -2.49516e-20)
(19.3277 1.0927 0)
(19.3434 1.51934 0)
(19.3362 1.94654 2.10241e-19)
(19.3067 2.37328 0)
(19.2554 2.79849 8.10695e-19)
(19.1823 3.22056 4.00199e-19)
(19.0861 3.63781 -7.86255e-19)
(18.9672 4.05211 0)
(18.8281 4.46135 -7.99038e-19)
(18.6697 4.86089 4.40007e-20)
(18.4898 5.25256 0)
(18.2898 5.63413 0)
(18.0697 6.00667 -7.46475e-19)
(17.8315 6.36918 6.89496e-19)
(17.5768 6.71671 -7.14612e-19)
(17.3032 7.05158 -6.97048e-19)
(17.0121 7.37268 0)
(16.7047 7.67872 6.59319e-19)
(16.3817 7.97109 -1.20264e-18)
(16.0458 8.24692 -1.16248e-18)
(15.6969 8.50703 -1.19447e-18)
(15.3361 8.75036 -9.7403e-21)
(14.966 8.97266 -9.86999e-19)
(14.5832 9.17738 1.04712e-18)
(14.1907 9.36365 9.44213e-19)
(13.7907 9.52957 -9.59036e-19)
(13.3821 9.67781 6.03305e-20)
(12.969 9.80496 1.21811e-21)
(12.5497 9.91407 -8.02621e-19)
(12.1284 9.99929 0)
(11.7006 10.0675 -6.40794e-19)
(11.2733 10.1131 1.2347e-18)
(10.8426 10.1422 -4.69178e-20)
(10.4163 10.149 5.29308e-19)
(9.98969 10.1346 -4.30982e-19)
(9.56533 10.0999 3.66829e-19)
(9.14541 10.0429 2.63335e-19)
(8.72676 9.96673 -5.79224e-19)
(8.31288 9.87153 2.4414e-19)
(7.90682 9.75676 1.56418e-19)
(7.50498 9.62365 1.66457e-19)