/*--------------------------------*- C++ -*----------------------------------*\
| =========                 |                                                 |
| \\      /  F ield         | OpenFOAM: The Open Source CFD Toolbox           |
|  \\    /   O peration     | Version:  2.3.1                                 |
|   \\  /    A nd           | Web:      www.OpenFOAM.org                      |
|    \\/     M anipulation  |                                                 |
\*---------------------------------------------------------------------------*/
FoamFile
{
    version     2.0;
    format      ascii;
    class       volVectorField;
    location    "3100";
    object      D;
}
// * * * * * * * * * * * * * * * * * * * * * * * * * * * * * * * * * * * * * //

dimensions      [0 1 0 0 0 0 0];

internalField   nonuniform List<vector> 
11800
(
(8.98565e-06 0.000255778 0)
(-1.13572e-05 0.000284997 0)
(6.31624e-06 8.59452e-05 0)
(-7.21032e-06 0.00011698 0)
(-1.03761e-05 0.000284514 0)
(-4.67277e-06 0.00011721 0)
(-1.72259e-06 0.000191909 0)
(-1.63932e-06 0.000147868 0)
(7.53732e-07 2.2602e-05 0)
(1.37485e-06 8.91509e-05 0)
(9.97724e-06 0.000255173 0)
(-8.98475e-06 9.96843e-05 0)
(-8.77869e-09 -6.98858e-09 0)
(5.6137e-06 8.54253e-05 0)
(-6.39573e-06 0.000117474 0)
(6.1537e-06 1.38574e-05 0)
(-9.65403e-07 0.000191349 0)
(-9.35153e-07 0.000147337 0)
(4.25416e-07 2.28527e-05 0)
(8.48879e-07 8.87085e-05 0)
(-5.49862e-06 0.000116777 0)
(-8.23306e-06 0.000100081 0)
(-1.351e-06 4.88967e-06 0)
(-1.44202e-06 5.09217e-06 0)
(5.49107e-06 1.58313e-05 0)
(-2.1615e-06 8.11295e-06 0)
(-8.80036e-06 5.94368e-05 0)
(1.27931e-05 0.000171978 0)
(-7.83822e-06 4.5068e-05 0)
(-6.78279e-06 3.2391e-05 0)
(1.35509e-05 0.000217489 0)
(5.62921e-08 3.80596e-06 0)
(2.81513e-06 1.04332e-05 0)
(-6.90677e-06 0.000292463 0)
(5.59781e-06 0.000291145 0)
(-1.54425e-05 0.000232281 0)
(5.2145e-06 0.00029215 0)
(2.77067e-06 1.07269e-05 0)
(-1.68433e-06 0.000202707 0)
(1.37842e-06 9.7917e-05 0)
(-8.6531e-06 6.01038e-05 0)
(-7.71492e-06 4.56625e-05 0)
(1.24978e-05 0.000170993 0)
(-6.68407e-06 3.29117e-05 0)
(1.32502e-05 0.000216453 0)
(5.87005e-06 1.39678e-05 0)
(1.55385e-06 5.79108e-06 0)
(1.73228e-06 5.69875e-06 0)
(-2.6437e-06 0.000202881 0)
(2.14764e-06 9.80549e-05 0)
(-1.46737e-05 0.000149832 0)
(-1.56761e-05 0.000193886 0)
(-1.44547e-06 0.000253046 0)
(7.87825e-08 3.61159e-06 0)
(-7.5455e-06 1.65073e-05 0)
(1.02454e-06 8.51185e-07 0)
(-1.92708e-05 0.000296474 0)
(-4.84396e-06 8.27377e-05 0)
(5.53221e-06 0.000120669 0)
(-3.52073e-06 7.94796e-05 0)
(2.04597e-06 2.7141e-06 0)
(-2.48539e-06 0.000253235 0)
(-4.21238e-06 8.25506e-05 0)
(4.82365e-06 0.000120893 0)
(5.14329e-06 1.5589e-05 0)
(-1.83983e-05 0.000262082 0)
(-1.52226e-05 0.000149177 0)
(-1.63182e-05 0.000193167 0)
(-1.8304e-05 0.000295996 0)
(-2.26826e-06 8.37663e-06 0)
(-6.15749e-06 0.000293284 0)
(-1.0867e-05 0.000291697 0)
(-1.11828e-05 0.00029066 0)
(-9.67626e-08 1.0841e-07 0)
(2.18482e-06 2.83074e-06 0)
(-1.45465e-05 0.000232932 0)
(6.74128e-06 2.18798e-05 0)
(-1.86967e-05 0.000263062 0)
(-1.48894e-05 0.000265284 0)
(-1.3911e-05 0.000266171 0)
(-7.19301e-06 1.62811e-05 0)
(1.09879e-06 0.000101677 0)
(1.02399e-05 0.000289412 0)
(9.1399e-06 0.000289591 0)
(-1.32493e-06 0.0001045 0)
(-6.51933e-06 3.64792e-05 0)
(1.22497e-05 0.000209591 0)
(-7.44742e-06 4.97335e-05 0)
(-8.29869e-06 6.46519e-05 0)
(1.15218e-05 0.000164494 0)
(-3.37212e-07 0.000247574 0)
(2.99234e-06 9.91747e-06 0)
(-9.25025e-06 0.000266995 0)
(1.91147e-05 0.000298743 0)
(3.02859e-06 0.000128898 0)
(-2.33894e-09 -1.77889e-09 0)
(6.04512e-11 -3.77812e-10 0)
(2.33876e-09 -1.77892e-09 0)
(-2.02335e-07 0.000256157 0)
(-8.53025e-06 0.00010189 0)
(1.64521e-05 0.000297675 0)
(9.94671e-06 0.000111954 0)
(-3.63091e-06 1.44944e-05 0)
(-8.19443e-07 1.11863e-05 0)
(-5.39238e-07 0.000283239 0)
(9.9706e-07 2.36436e-05 0)
(-2.10345e-06 0.000145704 0)
(-2.18644e-06 0.000189511 0)
(3.17693e-06 5.41229e-06 0)
(7.50419e-06 4.97114e-05 0)
(6.57003e-06 3.64594e-05 0)
(8.36176e-06 6.46269e-05 0)
(-1.24265e-05 0.000209617 0)
(-1.16903e-05 0.00016453 0)
(1.77625e-06 8.73342e-05 0)
(2.51403e-06 4.9348e-06 0)
(1.82322e-05 0.000263153 0)
(-7.46293e-06 0.00027012 0)
(2.56005e-06 4.75468e-06 0)
(-1.24944e-06 9.02604e-05 0)
(-7.48618e-07 2.20051e-05 0)
(1.6637e-06 0.000193319 0)
(1.57934e-06 0.000149132 0)
(-2.30563e-06 0.000185389 0)
(-9.31059e-06 0.000268001 0)
(-8.18529e-07 0.000255357 0)
(-5.98261e-06 0.000283351 0)
(-1.39446e-06 0.000282581 0)
(-2.06803e-05 0.000306291 0)
(-2.14191e-05 0.00030555 0)
(-6.00681e-07 2.70557e-07 0)
(-2.72345e-06 6.39816e-06 0)
(1.25669e-05 0.000203363 0)
(-6.99833e-06 3.9886e-05 0)
(1.17764e-05 0.000158646 0)
(-7.93488e-06 5.36023e-05 0)
(-8.79312e-06 6.89447e-05 0)
(1.1595e-05 0.000203548 0)
(-6.44938e-06 3.97671e-05 0)
(1.08668e-05 0.000158818 0)
(-7.31428e-06 5.34705e-05 0)
(-8.10692e-06 6.88011e-05 0)
(-1.70236e-06 2.0381e-05 0)
(4.06955e-06 0.000197022 0)
(3.79739e-06 0.0001527 0)
(-3.22942e-06 9.3206e-05 0)
(1.56483e-05 0.000102313 0)
(-1.55582e-05 0.000100081 0)
(9.78418e-06 0.000112766 0)
(-1.14777e-06 1.18708e-05 0)
(-1.02964e-05 0.000246432 0)
(-1.02074e-05 0.000247737 0)
(5.0191e-06 0.000288918 0)
(-1.15144e-05 0.000232604 0)
(4.61066e-06 0.000164413 0)
(5.00201e-06 0.000209481 0)
(-1.28259e-05 0.000184587 0)
(-1.18993e-05 0.000141124 0)
(6.03238e-06 2.60584e-05 0)
(-9.47368e-07 0.000248502 0)
(3.45377e-06 5.50849e-06 0)
(-1.05234e-05 0.000232834 0)
(7.05636e-06 2.21963e-05 0)
(-4.7032e-06 6.72913e-05 0)
(-4.23516e-06 5.21e-05 0)
(-3.72477e-06 3.85488e-05 0)
(6.4099e-06 0.000160706 0)
(6.83183e-06 0.00020557 0)
(-3.0501e-06 3.78326e-06 0)
(-5.5355e-06 2.50683e-05 0)
(1.196e-05 0.000186631 0)
(1.10883e-05 0.000143042 0)
(2.66629e-06 0.000189302 0)
(-1.75913e-05 0.0002312 0)
(-1.77687e-05 0.000232586 0)
(6.32282e-06 1.58591e-05 0)
(6.3311e-06 1.62962e-05 0)
(6.94449e-06 4.82739e-05 0)
(7.75523e-06 6.30272e-05 0)
(6.06193e-06 3.51951e-05 0)
(-1.09951e-05 0.000166746 0)
(-1.16734e-05 0.000211989 0)
(4.6903e-06 0.000163383 0)
(5.0297e-06 0.000208422 0)
(5.10357e-06 9.96792e-05 0)
(-2.44567e-06 9.29957e-05 0)
(-1.29547e-06 2.0486e-05 0)
(3.07839e-06 0.000196758 0)
(2.87145e-06 0.000152453 0)
(-4.01778e-06 0.000243066 0)
(-1.3621e-06 4.27179e-05 0)
(-1.53613e-06 5.68165e-05 0)
(-1.51402e-05 0.000260067 0)
(-4.17955e-07 9.74202e-06 0)
(-1.46214e-05 0.000122622 0)
(1.2615e-05 8.1318e-05 0)
(1.46916e-07 1.41055e-07 0)
(-9.06459e-06 0.000292929 0)
(1.81051e-05 0.000264212 0)
(-5.23992e-07 3.13854e-07 0)
(1.19237e-05 0.000276917 0)
(1.48961e-05 0.000236684 0)
(1.59768e-05 0.000236878 0)
(-4.74193e-07 0.000284673 0)
(-1.21995e-06 0.000285585 0)
(8.4344e-06 7.93528e-05 0)
(7.44972e-06 7.97038e-05 0)
(-9.97589e-06 0.000124706 0)
(-8.78997e-06 0.000124269 0)
(5.91732e-07 2.66609e-07 0)
(-1.66114e-06 1.42412e-05 0)
(-1.87142e-06 7.9398e-06 0)
(-4.38281e-08 1.65065e-08 0)
(5.69212e-06 9.40782e-06 0)
(-1.36347e-07 4.3359e-08 0)
(7.38143e-07 7.79838e-06 0)
(-1.02805e-05 0.000283177 0)
(-4.98429e-06 3.56047e-05 0)
(-5.69057e-06 4.87551e-05 0)
(-6.35053e-06 6.35684e-05 0)
(9.44269e-06 0.000211144 0)
(8.91482e-06 0.00016597 0)
(6.04315e-07 0.000196394 0)
(5.61744e-07 0.00015211 0)
(-2.67559e-07 2.06325e-05 0)
(-5.07432e-07 9.2719e-05 0)
(-2.00068e-07 3.32674e-08 0)
(7.7321e-07 2.57928e-05 0)
(-1.55592e-06 0.000141389 0)
(-4.66173e-06 8.95597e-05 0)
(1.07983e-06 2.54144e-05 0)
(-2.18705e-06 0.000142137 0)
(-7.0288e-06 0.000267965 0)
(8.69799e-06 0.000100408 0)
(8.10317e-06 9.96385e-05 0)
(4.36096e-08 1.64329e-08 0)
(1.99626e-07 3.31994e-08 0)
(-1.36225e-05 0.000249419 0)
(-1.31054e-05 0.000250477 0)
(-1.28801e-05 8.50515e-05 0)
(1.4482e-05 0.000118257 0)
(1.15852e-05 0.000211898 0)
(1.09092e-05 0.000166667 0)
(-6.06012e-06 3.52468e-05 0)
(-6.94469e-06 4.83293e-05 0)
(-7.75518e-06 6.3089e-05 0)
(-4.25251e-07 0.000254336 0)
(-5.11558e-06 2.3984e-05 0)
(1.13064e-05 0.000188963 0)
(1.04984e-05 0.000145204 0)
(6.94584e-06 0.000101456 0)
(5.85347e-06 0.000239857 0)
(9.19616e-06 0.000299102 0)
(9.44976e-07 7.68545e-06 0)
(-3.41951e-06 8.02944e-05 0)
(-9.76585e-09 2.8436e-06 0)
(1.35874e-07 4.32305e-08 0)
(3.28456e-06 8.47166e-05 0)
(2.82588e-06 8.38335e-05 0)
(-3.57276e-06 0.000118474 0)
(-3.06182e-06 0.000119347 0)
(6.33689e-06 6.35491e-05 0)
(5.67855e-06 4.87378e-05 0)
(4.96199e-06 3.55958e-05 0)
(-8.94883e-06 0.000165971 0)
(-9.50559e-06 0.000211172 0)
(-5.03813e-06 0.000293017 0)
(1.7232e-06 2.10037e-06 0)
(-4.63213e-09 0.00016855 0)
(-1.87684e-08 3.40865e-05 0)
(6.6848e-06 0.000282738 0)
(5.45547e-06 9.89589e-05 0)
(-2.12075e-05 0.000279388 0)
(6.27032e-06 0.000102187 0)
(2.45848e-07 1.80418e-07 0)
(1.74374e-05 0.000228344 0)
(1.7538e-05 0.000227062 0)
(-1.06759e-05 0.000145389 0)
(-1.14966e-05 0.000189155 0)
(-9.53818e-06 0.000145023 0)
(-1.02741e-05 0.000188764 0)
(5.15533e-06 2.38959e-05 0)
(4.6219e-06 2.40538e-05 0)
(5.18832e-06 0.000133562 0)
(6.17251e-06 0.000133407 0)
(5.62749e-06 0.000176397 0)
(6.69756e-06 0.000176227 0)
(-2.87521e-06 2.99824e-05 0)
(-3.42422e-06 3.00799e-05 0)
(-6.04404e-07 1.34978e-05 0)
(3.04398e-06 8.61343e-06 0)
(2.8497e-06 8.31575e-06 0)
(2.90911e-06 6.29547e-06 0)
(5.00425e-06 0.000240888 0)
(-1.73086e-05 0.000228765 0)
(-1.74011e-05 0.000227433 0)
(6.53091e-06 1.77109e-05 0)
(6.40245e-06 1.72065e-05 0)
(1.37295e-05 0.000102335 0)
(1.39145e-05 0.000103481 0)
(-1.36407e-05 0.000100001 0)
(-1.37127e-05 9.88737e-05 0)
(6.19319e-06 0.000288725 0)
(-1.69861e-05 0.00029249 0)
(-1.63278e-05 0.000246222 0)
(3.84932e-06 4.34809e-06 0)
(-9.97922e-06 0.00028882 0)
(-8.91154e-06 0.00028783 0)
(4.2202e-06 0.000135088 0)
(-2.62356e-06 0.000121414 0)
(2.32634e-06 8.21055e-05 0)
(-1.16997e-05 0.000102716 0)
(1.14525e-05 9.95219e-05 0)
(-5.55621e-06 1.74042e-05 0)
(-1.6326e-07 1.03721e-07 0)
(8.77003e-07 3.57728e-06 0)
(1.04395e-06 8.76108e-05 0)
(-9.8519e-06 8.82319e-05 0)
(1.05933e-05 0.000114466 0)
(-5.67509e-06 8.03269e-05 0)
(6.73591e-06 0.000123538 0)
(3.40747e-06 0.000215199 0)
(4.70374e-06 0.000214736 0)
(-2.01604e-06 4.62916e-05 0)
(-2.78203e-06 4.65706e-05 0)
(-2.25899e-06 6.08262e-05 0)
(-3.11579e-06 6.11371e-05 0)
(5.35418e-07 2.34819e-05 0)
(-1.15137e-06 0.00014603 0)
(-1.16605e-06 0.000189881 0)
(-1.8845e-06 0.000278035 0)
(2.6605e-06 6.25529e-06 0)
(-5.33473e-07 0.0001183 0)
(-8.06705e-06 0.000285011 0)
(1.10407e-06 8.83017e-07 0)
(7.20464e-06 0.000169357 0)
(-3.91482e-06 3.37123e-05 0)
(-1.21929e-05 0.000119553 0)
(-1.14518e-05 0.000118957 0)
(1.0656e-05 8.38534e-05 0)
(1.00446e-05 8.43626e-05 0)
(-1.20799e-05 0.000297218 0)
(-1.22129e-05 0.000295942 0)
(-1.99531e-06 1.35823e-05 0)
(-2.36578e-06 1.35309e-05 0)
(9.602e-07 3.74925e-06 0)
(-2.2763e-06 3.89105e-06 0)
(5.64738e-07 0.000124137 0)
(3.49707e-06 2.43307e-05 0)
(2.94028e-06 2.44856e-05 0)
(-7.17755e-06 0.000144389 0)
(-6.01854e-06 0.000144047 0)
(-7.73346e-06 0.000188091 0)
(-6.48604e-06 0.000187725 0)
(-1.56672e-05 0.000238283 0)
(-1.44984e-05 0.000238378 0)
(-3.43858e-06 7.18708e-05 0)
(-3.17916e-06 5.62216e-05 0)
(-2.81662e-06 4.21914e-05 0)
(4.94936e-06 0.000222334 0)
(-8.52793e-07 0.000251866 0)
(1.03036e-05 9.9426e-05 0)
(9.75557e-06 0.00010029 0)
(4.56534e-06 0.00019232 0)
(4.36609e-06 0.000148263 0)
(-2.06116e-06 2.24285e-05 0)
(1.93532e-06 2.51134e-05 0)
(1.59193e-06 2.56026e-05 0)
(-3.55495e-06 0.000185353 0)
(-4.2286e-06 0.000186309 0)
(-3.9174e-06 0.000142753 0)
(-3.19345e-06 0.000141776 0)
(-4.09776e-06 2.30213e-05 0)
(8.59461e-06 0.000147123 0)
(9.24372e-06 0.000191031 0)
(-1.11411e-07 1.05946e-06 0)
(1.53204e-05 0.000113464 0)
(-1.40841e-05 8.94145e-05 0)
(-6.26799e-08 9.85672e-07 0)
(-4.62473e-06 0.000211855 0)
(-5.42289e-06 0.000213021 0)
(-4.24326e-06 0.000166708 0)
(-4.96827e-06 0.000167813 0)
(2.70012e-06 3.45348e-05 0)
(2.32543e-06 3.51415e-05 0)
(3.19075e-06 4.75915e-05 0)
(2.73793e-06 4.82836e-05 0)
(3.56718e-06 6.22769e-05 0)
(3.05748e-06 6.30501e-05 0)
(1.72673e-05 0.000238745 0)
(1.7589e-05 0.00023996 0)
(-1.6248e-06 8.00474e-06 0)
(6.47817e-06 0.000170201 0)
(-3.49573e-06 3.32465e-05 0)
(5.67383e-06 2.62827e-05 0)
(-1.11393e-05 0.000140656 0)
(-1.20352e-05 0.000184055 0)
(-1.58959e-07 4.82989e-08 0)
(2.23997e-06 0.000248829 0)
(5.60268e-06 2.50734e-05 0)
(-1.12944e-05 0.000143036 0)
(-1.21934e-05 0.000186585 0)
(4.25729e-06 7.31115e-06 0)
(-8.53034e-06 0.000269731 0)
(5.37707e-06 2.0009e-05 0)
(-1.3467e-05 0.000221374 0)
(-2.87728e-06 1.07522e-05 0)
(-3.06962e-06 1.11471e-05 0)
(3.00996e-06 1.10308e-05 0)
(-1.4586e-06 0.000118116 0)
(-1.12116e-08 -8.25012e-09 0)
(-9.05801e-06 0.000295588 0)
(-1.42523e-07 5.66907e-08 0)
(1.58336e-07 4.81334e-08 0)
(-4.20661e-06 2.42872e-05 0)
(9.22526e-06 0.00018823 0)
(8.56154e-06 0.000144519 0)
(7.10592e-06 0.000249221 0)
(-2.04195e-05 0.000267418 0)
(2.61542e-06 0.000110546 0)
(-1.68734e-06 0.000107651 0)
(-4.62912e-07 1.12514e-05 0)
(-1.2993e-06 1.35903e-06 0)
(-8.09369e-09 -7.28764e-09 0)
(-5.0909e-06 8.10783e-05 0)
(6.03834e-06 0.000122671 0)
(4.41613e-07 1.54828e-07 0)
(-6.80726e-07 0.000106063 0)
(-6.42374e-07 0.000105036 0)
(-1.94723e-08 8.90103e-05 0)
(-1.22469e-07 2.27147e-05 0)
(2.24545e-07 0.000147624 0)
(2.01128e-07 0.000191729 0)
(-4.43871e-07 1.5559e-07 0)
(1.82115e-06 1.21713e-05 0)
(-7.04959e-06 0.000217762 0)
(4.03091e-06 4.48227e-05 0)
(4.52748e-06 5.91767e-05 0)
(4.9789e-06 7.51048e-05 0)
(1.48077e-05 0.000283709 0)
(-5.45152e-06 2.17253e-05 0)
(1.26981e-05 0.00019412 0)
(1.18306e-05 0.000150007 0)
(-8.39936e-06 0.00026167 0)
(1.22522e-06 3.12732e-06 0)
(1.13186e-05 0.000256803 0)
(-2.43046e-06 3.83238e-06 0)
(7.93016e-06 0.000284839 0)
(-6.07735e-06 0.000217786 0)
(3.47011e-06 4.48033e-05 0)
(3.89775e-06 5.91562e-05 0)
(4.28922e-06 7.50783e-05 0)
(1.07026e-06 2.96366e-06 0)
(5.22582e-06 0.000174522 0)
(-2.71722e-06 3.09447e-05 0)
(-9.21315e-07 1.21205e-05 0)
(-1.48641e-05 0.000257718 0)
(-5.52785e-06 6.7541e-05 0)
(-4.97932e-06 5.23267e-05 0)
(-4.38103e-06 3.87504e-05 0)
(7.48211e-06 0.000160443 0)
(7.97561e-06 0.000205288 0)
(2.04083e-05 0.000300708 0)
(1.18809e-05 0.000263846 0)
(1.31726e-05 0.000263392 0)
(1.66124e-07 1.16341e-07 0)
(7.38513e-06 8.06246e-05 0)
(-8.65074e-06 0.000123173 0)
(-3.76235e-06 8.17776e-05 0)
(4.39437e-06 0.000121888 0)
(-1.26949e-06 0.000131308 0)
(-9.64983e-07 0.000213241 0)
(6.11788e-07 6.21156e-05 0)
(5.47211e-07 4.74445e-05 0)
(3.12239e-08 3.33833e-05 0)
(-2.11685e-07 0.000127595 0)
(-9.58721e-08 0.000169888 0)
(9.34047e-06 0.000300302 0)
(5.29836e-07 1.24841e-05 0)
(-2.30005e-07 2.88551e-06 0)
(1.78907e-06 0.000180377 0)
(9.0046e-08 2.98421e-06 0)
(-1.38189e-06 9.32398e-06 0)
(3.45918e-06 3.33021e-05 0)
(-6.52675e-06 0.00017009 0)
(-1.29765e-07 1.43199e-07 0)
(-1.37675e-05 0.000257597 0)
(-1.14795e-06 2.22804e-05 0)
(2.44371e-06 0.000192753 0)
(2.42373e-06 0.000148552 0)
(3.10588e-07 7.45539e-08 0)
(-4.08252e-06 7.43147e-06 0)
(4.50806e-06 6.06442e-05 0)
(4.02269e-06 4.61325e-05 0)
(-6.93288e-06 0.000215511 0)
(1.33924e-06 8.43003e-05 0)
(-9.31495e-06 0.000291779 0)
(-1.56065e-07 2.18854e-08 0)
(-5.34434e-06 1.16263e-05 0)
(3.46322e-06 6.40147e-06 0)
(-3.48987e-06 3.83054e-06 0)
(1.03734e-05 0.00010125 0)
(7.88711e-06 0.000123197 0)
(-6.77428e-06 8.05968e-05 0)
(4.85151e-07 3.30422e-05 0)
(-1.12881e-06 0.000128079 0)
(-9.45174e-07 0.000170521 0)
(9.90064e-06 0.000253882 0)
(9.21818e-06 0.000110911 0)
(4.79784e-06 0.000294036 0)
(4.622e-06 0.000295135 0)
(1.33977e-06 0.000122622 0)
(1.82893e-06 8.3668e-05 0)
(1.55709e-07 2.18401e-08 0)
(-1.33059e-05 0.000230175 0)
(4.8357e-06 1.66021e-05 0)
(1.67462e-08 2.29154e-07 0)
(2.5465e-06 0.000164332 0)
(3.32818e-06 0.000164902 0)
(4.54428e-09 1.99799e-08 0)
(-2.54142e-06 6.19333e-06 0)
(6.312e-06 6.16606e-05 0)
(5.64093e-06 4.70457e-05 0)
(4.91362e-06 3.40632e-05 0)
(-9.06329e-06 0.000168562 0)
(-9.61272e-06 0.000214008 0)
(8.3807e-06 0.000105552 0)
(1.22388e-06 0.000249096 0)
(-5.42174e-06 0.000280934 0)
(-5.13332e-06 0.000282418 0)
(-5.25229e-07 0.000216699 0)
(-4.50657e-07 0.000217891 0)
(3.69158e-07 4.47022e-05 0)
(3.36573e-07 4.5364e-05 0)
(4.14522e-07 5.90466e-05 0)
(3.77471e-07 5.97887e-05 0)
(2.72117e-07 7.49603e-05 0)
(3.25712e-07 7.57536e-05 0)
(6.59191e-07 0.000123031 0)
(1.21092e-06 0.000125009 0)
(2.10505e-06 0.000190509 0)
(-5.36178e-07 0.000130986 0)
(-3.1136e-07 7.47301e-08 0)
(-3.47816e-07 2.75184e-06 0)
(4.60281e-06 0.000173595 0)
(-2.41545e-06 3.14247e-05 0)
(1.21898e-06 3.82079e-06 0)
(1.79738e-05 0.000285105 0)
(-1.37176e-06 0.000218843 0)
(8.49396e-07 4.41989e-05 0)
(9.54872e-07 5.84817e-05 0)
(9.41101e-07 7.43046e-05 0)
(-1.37386e-05 0.000239516 0)
(4.73559e-06 8.56669e-05 0)
(7.0094e-06 0.000302637 0)
(7.92688e-06 0.000301963 0)
(-1.37351e-06 9.61417e-06 0)
(-8.74641e-07 0.000167665 0)
(4.5799e-07 3.45731e-05 0)
(2.04097e-07 2.08506e-07 0)
(1.76366e-05 0.000293155 0)
(-2.41727e-07 4.86222e-06 0)
(-3.3202e-06 5.0164e-05 0)
(-3.69754e-06 6.5143e-05 0)
(-4.42419e-06 6.58276e-05 0)
(-3.97641e-06 5.07809e-05 0)
(-2.8757e-06 3.68292e-05 0)
(-3.47845e-06 3.73866e-05 0)
(5.83404e-06 0.000162714 0)
(6.21371e-06 0.000207717 0)
(2.53868e-06 3.46731e-06 0)
(-1.6336e-07 9.935e-08 0)
(-1.52208e-05 0.000198214 0)
(-1.5857e-05 0.000292556 0)
(5.17412e-06 0.00012491 0)
(-4.44767e-07 4.97544e-06 0)
(-8.23589e-06 0.000162419 0)
(-8.76589e-06 0.000207392 0)
(4.70313e-06 3.76138e-05 0)
(5.35763e-06 5.10347e-05 0)
(5.95828e-06 6.61059e-05 0)
(7.63601e-06 0.00025005 0)
(1.73423e-05 0.000294197 0)
(-9.34121e-06 0.00010216 0)
(3.85258e-06 3.37032e-05 0)
(-7.23734e-06 0.00016935 0)
(4.95079e-06 0.000125882 0)
(-1.88099e-06 8.97062e-05 0)
(4.99274e-06 6.11612e-05 0)
(4.45865e-06 4.65957e-05 0)
(-7.64174e-06 0.000214734 0)
(-1.38868e-05 0.000103334 0)
(1.35435e-05 9.9077e-05 0)
(1.35431e-05 0.000100182 0)
(-1.37045e-05 0.00010216 0)
(-6.4193e-06 1.71967e-05 0)
(-6.6072e-06 1.77317e-05 0)
(-6.44234e-06 0.000100167 0)
(-3.2889e-06 3.92224e-06 0)
(-1.04221e-05 0.000100936 0)
(-1.5236e-06 0.000240906 0)
(-1.34559e-06 1.61327e-06 0)
(1.04733e-05 5.88673e-05 0)
(9.32094e-06 4.45674e-05 0)
(-1.4762e-05 0.000151139 0)
(2.38476e-06 6.1199e-05 0)
(2.12989e-06 4.66253e-05 0)
(-3.66915e-06 0.000214637 0)
(4.90916e-06 1.4833e-05 0)
(8.15811e-06 0.000122199 0)
(-7.05535e-06 8.14628e-05 0)
(-3.88087e-06 4.36809e-06 0)
(4.1899e-06 0.000191272 0)
(4.00431e-06 0.000147327 0)
(-1.91244e-06 2.28711e-05 0)
(1.21507e-05 0.000180614 0)
(-5.95538e-06 2.79549e-05 0)
(1.12188e-05 0.000137473 0)
(-6.79064e-06 1.69683e-05 0)
(8.56218e-06 0.000281499 0)
(9.8202e-06 0.000281088 0)
(9.46072e-06 0.000214014 0)
(8.96698e-06 0.000168579 0)
(-4.90136e-06 3.41604e-05 0)
(-5.59948e-06 4.70404e-05 0)
(-6.26601e-06 6.16549e-05 0)
(-1.41741e-06 1.39865e-06 0)
(-7.51675e-06 0.000261403 0)
(8.20717e-06 0.000166709 0)
(-4.55585e-06 3.5185e-05 0)
(-8.61474e-07 1.07439e-06 0)
(7.01312e-06 0.000284654 0)
(1.71157e-06 1.40819e-06 0)
(1.41971e-06 1.06797e-06 0)
(3.59549e-06 5.12448e-06 0)
(8.4793e-06 0.000228786 0)
(-1.43574e-05 0.000235086 0)
(1.9113e-05 0.000285469 0)
(3.64128e-06 5.3867e-06 0)
(8.3939e-06 0.000110877 0)
(1.15075e-05 0.000242587 0)
(-1.84878e-05 0.000229378 0)
(6.7973e-06 1.70059e-05 0)
(-4.24472e-06 0.000244111 0)
(1.72768e-06 6.13891e-05 0)
(1.54352e-06 4.67948e-05 0)
(-2.66513e-06 0.000214343 0)
(-6.40632e-07 3.08263e-06 0)
(4.9046e-06 0.000131795 0)
(1.41106e-07 5.61699e-08 0)
(-5.65008e-06 1.15142e-05 0)
(-9.98954e-07 0.00010832 0)
(-2.52821e-06 2.08966e-05 0)
(-2.94237e-06 2.10345e-05 0)
(5.57844e-06 0.000151594 0)
(6.4761e-06 0.000151312 0)
(6.94553e-06 0.000195531 0)
(5.98191e-06 0.000195835 0)
(1.66339e-07 6.21353e-07 0)
(-4.27994e-08 7.76349e-06 0)
(-1.00263e-05 0.000136195 0)
(-1.08693e-05 0.000179232 0)
(5.35956e-06 2.86156e-05 0)
(-3.15441e-06 1.7038e-05 0)
(-1.88009e-06 0.000184289 0)
(-2.85874e-06 7.3008e-06 0)
(5.86595e-06 0.00028195 0)
(-4.72871e-06 9.22516e-05 0)
(-5.47894e-06 9.20192e-05 0)
(1.62785e-07 1.6504e-07 0)
(-3.13319e-06 9.54119e-05 0)
(-1.58996e-06 1.92248e-05 0)
(3.65915e-06 0.00015531 0)
(3.91443e-06 0.000199815 0)
(-4.39428e-06 0.000184319 0)
(-3.86757e-06 0.000140829 0)
(1.95133e-06 2.60906e-05 0)
(2.59682e-06 9.7971e-06 0)
(2.41191e-06 9.44131e-06 0)
(1.25836e-06 9.1982e-05 0)
(-1.63703e-06 0.000195459 0)
(-1.53437e-06 0.000151218 0)
(6.77457e-07 2.10393e-05 0)
(-1.50264e-06 3.62458e-05 0)
(-2.69208e-06 7.50457e-06 0)
(1.09278e-05 0.000288579 0)
(-1.06628e-05 0.000172539 0)
(8.21546e-06 8.1141e-05 0)
(-9.58102e-06 0.000122593 0)
(1.16482e-05 0.000243682 0)
(-1.07047e-05 7.45779e-05 0)
(-9.74758e-06 5.86925e-05 0)
(1.30882e-05 0.000130501 0)
(-8.67197e-06 4.44089e-05 0)
(-7.50346e-06 3.1839e-05 0)
(1.42909e-05 0.000173079 0)
(1.51069e-05 0.000218709 0)
(-3.92345e-06 0.000209278 0)
(-3.69153e-06 0.000164188 0)
(2.35601e-06 4.98398e-05 0)
(2.06395e-06 3.65575e-05 0)
(2.62464e-06 6.47839e-05 0)
(2.25315e-06 5.0557e-05 0)
(-3.72653e-06 0.000208105 0)
(2.5073e-06 6.55815e-05 0)
(1.97672e-06 3.71869e-05 0)
(-3.50401e-06 0.000163084 0)
(-2.07109e-06 0.000265514 0)
(-4.19525e-06 5.49733e-06 0)
(-4.55179e-06 2.58438e-05 0)
(9.66674e-06 0.000184899 0)
(8.95148e-06 0.000141431 0)
(-2.86049e-06 3.48094e-05 0)
(5.2058e-06 0.000167349 0)
(1.43406e-05 0.000207367 0)
(1.34711e-05 0.000162408 0)
(-7.75712e-06 3.77135e-05 0)
(-8.83625e-06 5.1132e-05 0)
(-9.82578e-06 6.6201e-05 0)
(1.51098e-05 0.000226342 0)
(1.64915e-05 0.000226054 0)
(3.69891e-07 6.62467e-06 0)
(-1.52384e-06 0.000106546 0)
(-4.0633e-06 1.12241e-05 0)
(2.07941e-07 3.87304e-07 0)
(-4.00002e-06 1.42571e-05 0)
(-6.40311e-07 0.000241387 0)
(1.66651e-07 6.33978e-06 0)
(-3.31662e-06 0.000114185 0)
(1.36976e-05 0.000151229 0)
(-6.22047e-06 2.12119e-05 0)
(1.46895e-05 0.000195425 0)
(-1.37396e-08 -9.52062e-09 0)
(9.15324e-07 0.000180549 0)
(2.61183e-07 1.09922e-07 0)
(1.78262e-07 1.31411e-07 0)
(2.43195e-06 0.000129679 0)
(-2.98311e-07 2.41114e-07 0)
(1.11678e-05 0.000290739 0)
(8.34182e-07 0.000164855 0)
(-4.45246e-07 3.61356e-05 0)
(2.43706e-06 1.45126e-05 0)
(1.53768e-06 0.000164342 0)
(-8.64487e-07 3.63999e-05 0)
(-1.4664e-07 3.21047e-06 0)
(-1.04673e-05 5.88375e-05 0)
(-9.31439e-06 4.45413e-05 0)
(-8.06054e-06 3.1963e-05 0)
(-6.70169e-06 2.12634e-05 0)
(1.47447e-05 0.000151171 0)
(1.53267e-05 0.000172889 0)
(1.58129e-05 0.00019536 0)
(1.62078e-05 0.00021851 0)
(-7.17514e-06 0.000235781 0)
(-6.37568e-06 0.000280388 0)
(-2.06042e-05 0.00023147 0)
(7.41413e-06 1.6286e-05 0)
(4.7038e-06 0.000297275 0)
(5.47145e-06 0.000295992 0)
(1.4632e-06 0.000160697 0)
(1.58681e-06 0.000205586 0)
(-1.1283e-06 6.73699e-05 0)
(-1.01595e-06 5.2167e-05 0)
(-8.93422e-07 3.86032e-05 0)
(-5.89419e-06 1.7013e-05 0)
(2.14632e-06 1.21956e-05 0)
(-7.98349e-06 7.05843e-05 0)
(1.05577e-05 0.000156401 0)
(-7.21846e-06 5.50823e-05 0)
(-6.38326e-06 4.1192e-05 0)
(1.12833e-05 0.00020097 0)
(-4.47892e-06 1.88555e-05 0)
(1.14258e-05 0.000224305 0)
(1.92259e-06 0.000102043 0)
(-1.19853e-06 0.000250596 0)
(1.17688e-06 5.87605e-07 0)
(-8.77675e-07 0.000220002 0)
(5.6322e-07 4.35396e-05 0)
(6.33772e-07 5.77411e-05 0)
(5.8885e-07 7.34881e-05 0)
(3.57615e-06 0.000259633 0)
(-4.87768e-07 3.08953e-07 0)
(1.81283e-05 0.00025547 0)
(-2.72322e-06 0.000108165 0)
(-8.2265e-08 1.76537e-07 0)
(6.48492e-06 0.000153963 0)
(-2.8539e-06 1.98413e-05 0)
(6.94249e-06 0.000198371 0)
(1.4222e-07 1.10839e-07 0)
(-3.83191e-06 2.39441e-05 0)
(7.85792e-06 0.000145195 0)
(8.46307e-06 0.000188959 0)
(1.32858e-06 1.74e-06 0)
(-5.51776e-06 9.42926e-05 0)
(1.16697e-06 0.000100832 0)
(-1.25533e-05 0.00027306 0)
(1.15675e-06 0.000161574 0)
(1.2332e-06 0.000206499 0)
(-9.52936e-07 6.67201e-05 0)
(-7.51457e-07 3.80899e-05 0)
(-8.57274e-07 5.1581e-05 0)
(1.86214e-06 0.000102799 0)
(-2.61294e-07 9.92501e-07 0)
(-2.31343e-07 3.37883e-06 0)
(5.51061e-07 0.000240993 0)
(1.23558e-05 0.000110549 0)
(-1.15927e-05 9.20274e-05 0)
(-8.8107e-06 0.0003056 0)
(-1.99995e-05 0.000199587 0)
(-1.87012e-05 0.000155131 0)
(-1.94081e-05 0.000176986 0)
(-1.78756e-05 0.000134152 0)
(9.80502e-06 2.99428e-05 0)
(1.13984e-05 4.21818e-05 0)
(1.28635e-05 5.61678e-05 0)
(1.42048e-05 7.17563e-05 0)
(1.99617e-05 0.000199584 0)
(1.93705e-05 0.000176986 0)
(-9.8245e-06 2.9944e-05 0)
(-1.14209e-05 4.21838e-05 0)
(1.86633e-05 0.000155131 0)
(-1.28898e-05 5.61693e-05 0)
(1.78405e-05 0.000134151 0)
(-1.42341e-05 7.1758e-05 0)
(-5.67304e-06 1.6537e-05 0)
(-3.10052e-06 0.000250062 0)
(-2.21109e-06 0.000249823 0)
(-2.75143e-06 0.000283258 0)
(4.56337e-06 0.000171451 0)
(-2.44147e-06 3.25597e-05 0)
(-8.75533e-07 1.28975e-06 0)
(-3.56021e-06 0.00029939 0)
(-3.90413e-06 6.42817e-05 0)
(-4.78259e-06 6.40394e-05 0)
(-3.5017e-06 4.93902e-05 0)
(-4.28824e-06 4.91742e-05 0)
(5.78163e-06 0.000210395 0)
(6.94466e-06 0.000210493 0)
(1.52642e-05 0.000206827 0)
(1.43342e-05 0.000161903 0)
(-8.2894e-06 3.80246e-05 0)
(-9.43598e-06 5.14822e-05 0)
(-1.04873e-05 6.65872e-05 0)
(-9.24046e-06 0.000136676 0)
(-1.00137e-05 0.000179755 0)
(4.91171e-06 2.8342e-05 0)
(-2.90533e-06 0.000122385 0)
(2.46279e-06 8.12764e-05 0)
(3.0113e-06 0.000216359 0)
(-1.76259e-06 4.55402e-05 0)
(-1.97758e-06 5.99852e-05 0)
(-2.14251e-06 7.58357e-05 0)
(5.70138e-06 8.03066e-05 0)
(4.83092e-06 8.05122e-05 0)
(-6.70232e-06 0.000123508 0)
(-5.67532e-06 0.000123254 0)
(-6.74905e-06 0.000297146 0)
(4.53506e-07 1.23839e-06 0)
(1.12223e-05 0.000255749 0)
(4.04128e-06 8.92155e-05 0)
(1.10008e-05 0.000176799 0)
(-5.58587e-06 2.98446e-05 0)
(1.01293e-05 0.000133951 0)
(-9.42432e-06 0.000107005 0)
(2.28473e-06 2.25867e-05 0)
(-5.26211e-06 0.000191911 0)
(-4.89748e-06 0.000147938 0)
(6.53415e-07 9.2833e-05 0)
(-8.15975e-07 0.000152229 0)
(-8.67933e-07 0.000196538 0)
(3.47843e-07 2.05785e-05 0)
(6.34757e-06 8.40619e-05 0)
(-7.24636e-06 0.000119167 0)
(-3.47e-06 0.00026551 0)
(-1.60647e-05 0.000262968 0)
(2.86956e-06 0.000113669 0)
(7.20785e-06 0.000114027 0)
(-5.83738e-06 2.19503e-05 0)
(1.35295e-05 0.000193639 0)
(1.26014e-05 0.000149561 0)
(-6.46855e-07 2.74059e-06 0)
(-2.17488e-06 0.000221532 0)
(1.20734e-06 4.26644e-05 0)
(1.36113e-06 5.67563e-05 0)
(1.49107e-06 7.24132e-05 0)
(-3.32213e-06 0.000107635 0)
(-1.4891e-05 0.000263056 0)
(-4.28483e-06 4.27162e-05 0)
(-4.83143e-06 5.68089e-05 0)
(-5.31358e-06 7.24998e-05 0)
(7.58824e-06 0.000221455 0)
(1.37738e-08 1.79543e-08 0)
(9.33054e-06 0.000106146 0)
(1.19114e-07 8.27639e-06 0)
(-4.42356e-07 7.69605e-07 0)
(-9.19228e-07 3.54705e-06 0)
(-4.40632e-06 1.52055e-05 0)
(-4.51629e-07 1.66094e-07 0)
(1.83649e-06 4.82331e-05 0)
(1.61097e-06 3.51255e-05 0)
(2.05088e-06 6.2995e-05 0)
(-3.11625e-06 0.000211927 0)
(-2.95095e-06 0.000166724 0)
(-9.06863e-06 8.80411e-05 0)
(9.82703e-06 0.000114714 0)
(-8.95219e-07 5.26697e-07 0)
(1.19319e-05 0.000281595 0)
(8.60574e-06 0.000251894 0)
(-1.83362e-05 0.000237079 0)
(6.78806e-06 0.000113145 0)
(2.44664e-06 0.000122903 0)
(-4.61745e-06 0.000299255 0)
(-1.28443e-05 0.000128773 0)
(-1.22175e-05 0.000128204 0)
(1.81013e-05 0.000299166 0)
(-1.45118e-06 0.000266835 0)
(-4.06488e-06 8.0948e-05 0)
(4.8817e-06 0.000122879 0)
(1.47835e-07 8.5669e-06 0)
(2.2394e-06 3.02514e-06 0)
(4.48575e-07 1.64992e-07 0)
(4.31546e-06 0.000130934 0)
(1.5953e-05 0.000305313 0)
(-8.74544e-06 0.000211964 0)
(-8.23048e-06 0.000166719 0)
(4.53098e-06 3.51682e-05 0)
(5.80298e-06 6.301e-05 0)
(5.19612e-06 4.82529e-05 0)
(-1.64518e-07 1.14972e-07 0)
(-6.58057e-07 0.000277749 0)
(8.17348e-06 0.000114364 0)
(-7.4403e-06 8.84892e-05 0)
(-1.31025e-05 0.000271006 0)
(-1.95622e-05 0.00020061 0)
(-1.89878e-05 0.000177974 0)
(-1.83043e-05 0.000156085 0)
(-1.75022e-05 0.000135064 0)
(9.50615e-06 2.94289e-05 0)
(1.10688e-05 4.15877e-05 0)
(1.25057e-05 5.54996e-05 0)
(1.38218e-05 7.10202e-05 0)
(1.95225e-05 0.000200603 0)
(1.89502e-05 0.000177974 0)
(-9.52496e-06 2.9432e-05 0)
(-1.10901e-05 4.15913e-05 0)
(1.82641e-05 0.000156082 0)
(-1.25306e-05 5.55028e-05 0)
(1.74655e-05 0.00013506 0)
(-1.38495e-05 7.10238e-05 0)
(-2.85215e-06 3.82487e-06 0)
(1.12162e-06 1.05333e-06 0)
(-1.50151e-06 2.74393e-06 0)
(7.27679e-06 0.00011221 0)
(-7.99292e-06 0.000115545 0)
(1.43109e-06 1.72128e-06 0)
(-2.2194e-07 3.70768e-08 0)
(-1.76325e-05 0.000237652 0)
(1.00899e-05 0.000302231 0)
(1.13238e-05 0.000302802 0)
(2.21512e-07 3.7015e-08 0)
(3.22334e-06 4.29189e-06 0)
(1.58042e-05 0.000275105 0)
(-6.00972e-06 0.000127749 0)
(-3.93472e-07 3.44141e-07 0)
(-8.90749e-07 1.38061e-06 0)
(-1.3911e-07 3.55652e-08 0)
(2.6066e-07 2.02365e-07 0)
(1.63327e-05 0.000101798 0)
(-1.6302e-05 0.00010062 0)
(5.00606e-06 7.6752e-05 0)
(-6.1596e-06 0.000125411 0)
(5.19804e-06 7.87241e-05 0)
(-2.69153e-07 4.57686e-06 0)
(-3.79569e-06 0.000200568 0)
(2.99842e-06 9.60425e-05 0)
(-2.11974e-06 0.00019839 0)
(-2.02801e-06 0.000153864 0)
(8.71364e-07 1.98516e-05 0)
(1.64662e-06 9.42999e-05 0)
(-6.70226e-06 0.000127098 0)
(3.43523e-06 4.54729e-06 0)
(5.60779e-06 7.73318e-05 0)
(2.08223e-06 0.000113843 0)
(1.58826e-05 0.000284111 0)
(-4.84076e-06 0.000114782 0)
(-5.56536e-06 0.000115563 0)
(-4.51172e-06 9.63367e-06 0)
(-5.39737e-06 0.000119235 0)
(-4.61624e-06 0.000118409 0)
(4.79809e-06 8.39236e-05 0)
(4.21435e-06 8.47515e-05 0)
(-5.06016e-06 2.34415e-05 0)
(1.05185e-05 0.000146321 0)
(1.1319e-05 0.000190164 0)
(-1.39722e-06 1.55367e-06 0)
(-6.71467e-06 0.000126078 0)
(5.64691e-06 7.8195e-05 0)
(-4.28164e-06 0.000162245 0)
(-4.55706e-06 0.000207213 0)
(2.43834e-06 3.76745e-05 0)
(3.08763e-06 6.61957e-05 0)
(2.77688e-06 5.11104e-05 0)
(-2.22714e-06 1.0405e-05 0)
(-1.40262e-05 0.000171106 0)
(-1.32917e-05 0.000170565 0)
(7.42297e-06 3.28714e-05 0)
(7.06091e-06 3.31568e-05 0)
(9.2379e-06 0.000135797 0)
(1.01568e-05 0.000135128 0)
(-4.99565e-06 2.88161e-05 0)
(-5.53135e-06 2.91977e-05 0)
(1.00185e-05 0.000178804 0)
(1.10206e-05 0.000178075 0)
(-4.03596e-06 0.000264535 0)
(8.04476e-06 0.000241546 0)
(8.16063e-06 0.000240417 0)
(-5.96047e-06 7.87315e-05 0)
(6.99136e-06 0.00012538 0)
(-2.11193e-05 0.000294766 0)
(-6.08255e-06 0.000235108 0)
(-5.84154e-06 0.000234005 0)
(2.0291e-06 1.51206e-05 0)
(2.08548e-06 1.47355e-05 0)
(1.8224e-05 0.000237724 0)
(-8.06608e-06 0.000101026 0)
(-6.92525e-06 0.000101061 0)
(1.80299e-05 0.000268435 0)
(-1.82412e-05 0.000282991 0)
(-1.82177e-05 0.00028434 0)
(-5.57443e-07 2.83564e-06 0)