/*--------------------------------*- C++ -*----------------------------------*\
| =========                 |                                                 |
| \\      /  F ield         | OpenFOAM: The Open Source CFD Toolbox           |
|  \\    /   O peration     | Version:  2.3.1                                 |
|   \\  /    A nd           | Web:      www.OpenFOAM.org                      |
|    \\/     M anipulation  |                                                 |
\*---------------------------------------------------------------------------*/
FoamFile
{
    version     2.0;
    format      ascii;
    class       volScalarField;
    location    "3100";
    object      sigmaEq;
}
// * * * * * * * * * * * * * * * * * * * * * * * * * * * * * * * * * * * * * //

dimensions      [1 -1 -2 0 0 0 0];

internalField   nonuniform List<scalar> 
11800
(
174492
125943
567206
482325
121821
339777
163571
177210
189316
202089
173189
688484
89491.3
510786
437139
1.90045e+06
128293
127976
230689
140061
384698
622288
830782
744103
1.55663e+06
978032
1.01247e+06
502915
1.10426e+06
1.19725e+06
335345
120550
978555
132851
138530
323093
140279
1.04279e+06
139181
148953
1.04939e+06
1.14459e+06
528444
1.24174e+06
353692
1.77938e+06
794620
925343
164231
239836
721973
510112
136899
220936
2.02777e+06
1.67349e+06
67281.8
473201
368584
354494
1.6691e+06
149925
376041
309743
1.52648e+06
230717
742362
527935
67233
904311
140445
117310
113369
1.60338e+06
1.65281e+06
314205
1.59389e+06
218538
176882
181257
2.0618e+06
125083
122078
124497
124933
1.15384e+06
359623
1.06217e+06
973159
523698
135454
1.16496e+06
152800
64234.5
185124
152628
19779.7
152557
137994
605959
78867.9
667567
1.10583e+06
384714
146391
326770
180542
157720
1.62798e+06
1.06967e+06
1.16221e+06
980019
364620
531451
219458
1.47023e+06
215310
144013
1.38076e+06
208655
200925
165087
182362
140483
150007
135644
137900
137407
99502.4
29311.5
1.87651e+06
1.24611e+06
389782
1.15659e+06
557508
1.06243e+06
972293
341605
990024
483700
909503
832615
500495
193649
240639
325424
1.18905e+06
1.21898e+06
695453
369368
204698
197129
137605
257004
234906
184248
462999
636228
1.27204e+06
143213
1.87044e+06
227758
1.62277e+06
467770
508682
551134
278946
212275
2.01693e+06
1.25072e+06
441751
607191
155138
364442
363122
1.77887e+06
1.79828e+06
946516
867610
1.02869e+06
463948
319315
248388
202360
439214
212993
331148
152102
170641
161666
237932
221798
210905
198693
899444
1.14419e+06
1.65911e+06
125259
218315
1.95233e+06
137417
280422
314293
141813
146400
828568
693809
637073
527538
1.8741e+06
574136
846611
2.55248e+06
2.12309e+06
2.16493e+06
337357
130787
813705
745272
684127
258093
368631
129917
128934
228111
137464
1.236e+06
252361
139270
457404
209352
173647
138571
640232
653668
2.54815e+06
1.23398e+06
219151
229376
1.12258e+06
918945
319632
463475
1.02903e+06
950035
870672
145673
1.11782e+06
390513
535872
502279
152946
127231
402425
354824
146874
2.16168e+06
278200
319913
231449
266008
683637
745209
807849
367525
260063
139864
1.64184e+06
159012
85317.7
137011
403762
149587
527805
1.91907e+06
379478
376129
567814
411617
473759
345120
1.17435e+06
982402
314217
391577
251306
300867
542063
711636
264366
1.15377e+06
1.23776e+06
1.49011e+06
168871
375470
373220
1.71968e+06
1.73581e+06
1.02998e+06
1.01363e+06
1.05144e+06
1.04086e+06
134578
91979.4
284616
2.23398e+06
122721
128949
294244
243298
259317
900443
921416
1.54203e+06
2.16697e+06
675066
182293
860196
710625
497407
406204
163803
170892
255434
451054
237717
417267
125985
167175
161888
144791
1.22984e+06
162393
128342
1.79807e+06
302231
688412
759104
739447
933874
899108
104997
103952
623617
814777
564051
1.46104e+06
120034
804454
626456
409812
310212
306008
235206
312457
270446
357607
392584
423950
153266
137945
749671
795577
177436
217980
449744
379275
426881
195151
183313
228863
232879
875001
419770
311298
353547
1.04584e+06
1.21571e+06
339674
193937
183662
245004
228154
425993
494889
403213
473375
371249
435992
329210
311885
638920
322343
705984
1.21677e+06
608918
446853
1.98421e+06
134512
1.27798e+06
625915
455455
1.90826e+06
142364
1.30885e+06
324213
1.10607e+06
1.02071e+06
991887
185641
84243.2
123859
2.29205e+06
1.98187e+06
873620
312351
420981
174973
226905
258718
143825
204060
1.51608e+06
61166.4
537838
411334
1.67464e+06
107006
172376
147544
148398
146711
148396
1.67651e+06
558756
225524
641705
590199
542491
115543
1.24739e+06
406327
566828
163328
826657
180719
1.60326e+06
134064
191398
464773
428236
394116
838274
223158
466175
414205
219091
645601
703564
764268
367705
265729
64393.9
165779
183466
2.08179e+06
705104
555964
403470
331946
178404
149062
109716
110337
188086
99071.2
114250
123708
159128
318352
144695
188413
561638
674709
318607
1.48863e+06
195956
352845
149133
173617
1.44058e+06
1.87671e+06
582216
634102
234618
208833
119552
1.26177e+06
1.82146e+06
1.6118e+06
2.33502e+06
750406
524293
689355
119666
178857
164886
183127
683001
142732
140784
121706
173460
1.25997e+06
279667
1.26687e+06
763231
164436
210168
1.04837e+06
1.31281e+06
678892
740248
800695
363742
258519
618184
140222
141228
137937
157479
126065
183584
96008.7
176738
95154.1
173902
84872.8
169659
155585
162362
112385
1.4429e+06
225249
237402
529591
844500
117746
148528
128453
125298
111774
277205
398911
128544
127552
550924
118579
176570
1.56668e+06
79240.2
159372
487781
448641
470451
510320
523860
553230
258055
195298
1.80659e+06
2.24183e+06
460691
85662.3
328182
324384
351325
250815
749986
692319
635200
166214
82931
723283
678253
302458
335176
170697
577987
628906
221121
1.0176e+06
1.03018e+06
1.04227e+06
1.03342e+06
1.76688e+06
1.72887e+06
540725
2.12326e+06
759741
135394
1.48497e+06
1.28918e+06
1.40548e+06
715145
290447
314758
179312
1.50657e+06
493750
624089
2.2466e+06
201955
246250
492604
474487
1.24881e+06
644482
1.86665e+06
134252
131250
256584
364430
810095
743341
682071
1.71914e+06
147190
371795
799932
1.2243e+06
131550
2.01528e+06
1.88539e+06
1.94762e+06
226093
306596
118024
1.9914e+06
566023
231059
390421
1.86163e+06
143218
233618
248563
139228
460103
279794
2.2903e+06
1.99397e+06
195864
564588
721758
276030
324863
244070
216292
613336
188446
556333
412139
1.05918e+06
929647
164622
1.21914e+06
139027
380828
467422
1.63689e+06
308446
418853
234857
195317
178801
208626
396442
925623
1.02017e+06
137719
133567
134094
178190
331530
1.23629e+06
113274
422512
761597
592549
215131
1.01017e+06
1.12008e+06
724530
1.22149e+06
1.3266e+06
546805
359806
155958
183272
342977
365990
318257
350840
185953
323391
378392
223701
138734
2.31864e+06
989541
371115
499808
462910
225374
399008
581024
1.2572e+06
1.15624e+06
1.05837e+06
326391
385178
195434
206765
1.44345e+06
1.07085e+06
1.2288e+06
149090
194499
271940
635519
1.41889e+06
451211
90898.1
150671
2.11501e+06
1.9883e+06
237039
1.82121e+06
111876
157335
119430
687505
125612
217607
243023
1.26946e+06
1.38439e+06
1.50258e+06
1.62532e+06
728555
620676
516299
408178
186845
132928
400629
1.99144e+06
141804
138876
150067
143915
149221
155304
161393
1.54275e+06
780125
791180
464536
863783
940586
329629
1.10426e+06
264623
221056
147710
2.09075e+06
138886
164489
157966
164387
138516
1.90287e+06
266188
264245
1.03066e+06
332678
702507
252608
1.93796e+06
842945
418590
314252
1.30693e+06
464371
182286
154001
137321
133668
227862
252322
240528
173454
474217
155549
135694
817008
913418
119469
580040
832756
707035
957711
1.80093e+06
1.66207e+06
1.52529e+06
1.39021e+06
579658
706052
1.80505e+06
1.66575e+06
831753
1.52903e+06
957419
1.39345e+06
1.61739e+06
154279
133720
146100
236242
512628
1.13237e+06
140279
425985
580384
461374
632117
189815
242875
420711
613202
1.31894e+06
1.21291e+06
1.10997e+06
526427
391617
989372
203073
255758
164910
330490
306522
278436
565187
442556
454715
338422
132493
690952
191085
345985
426626
1.06087e+06
572117
668853
546722
199942
257984
182768
161444
154208
176053
595124
503990
141509
209149
226682
462773
1.38992e+06
452587
632959
487271
157569
217583
204432
188313
255540
186459
615357
565702
516058
204098
1.51783e+06
696183
216107
930529
625308
1.33529e+06
1.83088e+06
225711
251918
211895
147474
154983
738679
629083
1.90539e+06
130436
181953
347684
511228
224147
141050
745641
737561
61821.4
136977
360685
293003
92152.8
1.66277e+06
1.82954e+06
297817
122573
271367
379186
808746
681484
743386
2.09001e+06
135915
584896
658403
164060
602579
735813
867674
997418
1.88604e+06
1.74114e+06
1.59811e+06
1.45735e+06
602069
734640
1.88896e+06
1.74344e+06
865430
1.60069e+06
996391
1.45928e+06
1.77393e+06
1.52908e+06
1.15346e+06
480861
548799
1.52806e+06
1.1415e+06
334174
121596
116570
1.13977e+06
2.01364e+06
153125
413447
1.66786e+06
1.13789e+06
1.83147e+06
1.86751e+06
1.17919e+06
1.183e+06
542166
431293
562525
247694
180316
300889
157205
188385
227009
193940
411244
1.95027e+06
561947
194674
118896
362105
388790
1.76997e+06
367813
332396
418927
445025
1.14511e+06
536317
388782
1.48433e+06
416151
539780
197811
165889
377264
325174
351550
876282
562331
545332
1.32624e+06
1.26874e+06
539049
568350
1.00205e+06
1.07667e+06
402985
421569
137458
182575
191098
548700
426880
75538.1
163652
187036
643822
613888
330182
639760
495480
198325
123423
123997
515740
1.23388e+06
124848
1.82894e+06
263492
729971
669745
209748
261597
436531
148822
129269
1.55034e+06
388293
1.00178e+06
923112
846560
311513
450594
164346
1.41487e+06
1.8479e+06
173468
145842
1.01484e+06
369255
502224
868039
946586
1.03897e+06
315701
454787
62381.6
747316
384129
1.84018e+06
317507
1.06151e+06
870962
976679
141450
143356
144956
155700
154866
137286
1.53148e+06
470473
178752
208777
229712
258634
319234
354391
727568
705048
670797
647804
595446
615569
1.08142e+06
165639
139272
136262
180711
207767
148421
166020
1.28356e+06
262303
477242
401733
1.03706e+06
542168
192538
201215
446966
347065
615100
503733
1.24445e+06
1.08846e+06
1.00193e+06
917563
510558
1.43569e+06
703412
1.442e+06
253964
212683
273859
267772
187785
173181
185471
1.45895e+06
1.91124e+06
336261
116187
250276
562866
436075
125224
152328
250601
236530
242154
226169
296059
278908
211844
476942
529522
515729
572748
436613
485637
544142
132445
1.17255e+06
927843
493259
1.19228e+06
1.12059e+06
653910
1.90991e+06
358186
340292
386143
414775
191207
159913
173075
363324
145220
1.58697e+06
210778
142440
781576
59682.9
118536
1.58876e+06
182649
404931
1.29167e+06
591511
1.18863e+06
1.08826e+06
1.43271e+06
952730
155678
595698
476774
204871
1.34286e+06
609474
209843
1.1124e+06
1.01277e+06
1.21233e+06
137589
140047
157141
2.30814e+06
275308
425263
518776
238485
140983
138726
410821
444641
177555
1.5909e+06
414062
1.58994e+06
243327
792553
138766
625641
749141
999469
399764
536343
642992
263561
2.24812e+06
165005
118088
141924
1.92412e+06
1.26768e+06
315242
461580
1.04993e+06
970849
890178
1.98066e+06
597162
484416
1.9918e+06
2.24731e+06
1.54387e+06
86723.6
531590
1.30521e+06
976530
529569
395638
974298
869032
402607
1.33448e+06
322258
268793
498486
438125
335903
1.56214e+06
2.36606e+06
125709
138709
163894
2.26679e+06
158670
183330
690207
528738
2.01053e+06
2.10579e+06
137886
595748
210144
199165
492873
213418
129608
532623
129181
146593
2.37722e+06
1.0263e+06
567884
425621
383187
276353
777962
717049
656740
209554
2.12994e+06
419257
378088
424065
1.78508e+06
722992
1.05767e+06
147916
231135
174299
798929
481427
641182
126433
276125
375217
798311
281935
184424
158846
311259
1.98621e+06
285095
383317
790881
1.28467e+06
1.81511e+06
1.21523e+06
834017
649088
768086
82424.9
230068
316183
674282
621024
570481
1.81358e+06
145095
185570
199073
198707
199158
194895
283009
138522
139122
648260
1.63476e+06
457451
1.01544e+06
934799
857270
316263
1.84844e+06
584027
664602
794582
684869
1.12793e+06
1.80691e+06
546329
147668
709871
119109
840197
503885
917622
999473
359690
1.16651e+06
288521
2.45934e+06
840227
140689
1.68221e+06
2.46534e+06
2.12265e+06
499039
136615
944979
165280
153919
117890
269586
149369
152097
132650
137113
1.52493e+06
1.60061e+06
139294
1.06051e+06
173571
164427
137879
223161
1.08271e+06
1.08917e+06
250819
1.10212e+06
1.10567e+06
1.44168e+06
475058
179942
222064
301317
603623
656284
225413
59875
158376
727937
339956
826258
930137
1.01772e+06
1.10826e+06
568203
402211
300791
169221
147443
1.84214e+06
1.01269e+06
130536
211860
897815
699748
378907
411002
192863
169846
314200
277792
116484
212094
149015
1.54333e+06
591894
1.44309e+06
140204
133290
2.46685e+06
135428
1.91207e+06
1.88402e+06
139032
872050
436569
1.51517e+06
152405
820332
948676
2.06798e+06
229963
148203
127629
468336
221993
299733
602800
551424
506027
151792
127858
172620
164003
1.0586e+06
1.16682e+06
797357
1.3662e+06
1.25313e+06
1.45443e+06
2.08975e+06
261020
666485
1.9904e+06
594353
1.87959e+06
880928
960700
1.04437e+06
461534
315410
391565
462104
1.74196e+06
162037
186565
271507
257032
239274
179328
356881
328823
307889
763196
775707
2.3172e+06
253179
123795
172202
1.8388e+06
527708
282920
272755
1.7956e+06
915867
632441
108001
195018
127555
901990
1.15131e+06
294904
1.31149e+06
181572
176455
2.39187e+06
1.57032e+06
1.92245e+06
369208
487282
858164
274770
671918
1.98714e+06
2.11459e+06
179024
205828
343938
282401
979005
1.0931e+06
746337
840804
2.20472e+06
2.04463e+06
262007
177586
107611
1.4528e+06
123391
1.91556e+06
387113
288279
1.02786e+06
326719
139313
1.78644e+06
206016
263087
108491
128331
1.33299e+06
452109
143377
719757
340719
191186
145092
130402
657181
131099
1.81803e+06
1.64693e+06
298334
802116
456186
141287
156673
1.41258e+06
173186
947025
243638
520084
1.07918e+06
1.23376e+06
1.73496e+06
188580
300684
1.90204e+06
238974
153821
141566
167024
132209
1.95482e+06
1.51497e+06
345986
473281
826538
820693
1.08384e+06
379705
519283
376927
544912
1.1653e+06
1.07236e+06
981738
1.54984e+06
722136
516903
1.5121e+06
520481
1.64472e+06
611015
669573
1.80898e+06
2.464e+06
2.10315e+06
407271
407231
1.12181e+06
529468
386081
135331
341901
1.74597e+06
150268
173510
2.21547e+06
1.65371e+06
1.91654e+06
869244
1.0782e+06
1.08804e+06
938748
125890
117825
177574
120499
675648
735859
801062
371663
262913
580461
1.94251e+06
149797
200389
168351
156083
982775
888497
186942
1.72606e+06
1.95833e+06
1.13645e+06
926734
1.57226e+06
1.81115e+06
122405
869067
553354
1.1978e+06
161887
254589
272546
1.53606e+06
1.53013e+06
712577
353784
116795
138990
224668
471054
1.61258e+06
215465
1.23374e+06
149782
355780
244884
321742
553489
285595
441518
42876.4
12392.6
440753
2.30535e+06
199696
166336
169361
134417
125510
180115
186853
137000
139965
507187
135384
147318
179951
947100
1.16905e+06
839732
1.61816e+06
2.05042e+06
146048
199349
371099
165461
1.45248e+06
211243
2.14652e+06
230005
297244
574475
423585
228296
234532
544630
131663
153653
190884
124570
182962
121620
1.89209e+06
109671
155056
275519
124777
95473.8
1.8289e+06
202447
1.58016e+06
1.67473e+06
608739
397881
315696
456470
1.02897e+06
957870
878319
133825
1.14186e+06
598778
131332
1.95376e+06
138513
144414
358540
1.07075e+06
843116
936676
1.29981e+06
188769
145717
400741
591750
1.29746e+06
687564
1.40603e+06
496386
1.19349e+06
1.0929e+06
395721
1.39668e+06
489935
1.28388e+06
581284
1.18174e+06
1.08201e+06
677256
1.42608e+06
181255
582665
453057
149338
187609
1.58834e+06
975202
1.32295e+06
1.23007e+06
1.07345e+06
1.33082e+06
979804
374243
410580
606894
1.46953e+06
147946
2.20395e+06
179945
147019
1.66513e+06
195891
307092
608601
606706
1.79724e+06
114660
1.13322e+06
1.04441e+06
956758
349331
510831
2.20248e+06
367815
283280
656266
174385
686593
316718
340046
125482
198505
207476
179295
521107
125088
642788
345351
263079
870050
1.16022e+06
1.16644e+06
869598
427773
2.07383e+06
137682
138560
1.85635e+06
1.68231e+06
1.01946e+06
2.4534e+06
1.08258e+06
932578
976084
2.1815e+06
1.07073e+06
854636
1.93653e+06
417443
437193
639987
1.70295e+06
112481
1.459e+06
174501
255452
391253
655335
714868
777062
380091
273344
446515
76565.6
81875.3
147651
155570
212246
175473
142017
194779
1.07629e+06
1.98284e+06
236357
178590
1.82735e+06
1.31025e+06
515887
698469
147027
154487
1.58667e+06
1.05301e+06
228420
833495
780951
1.05118e+06
131205
147006
154660
133626
1.23405e+06
2.00621e+06
1.96541e+06
1.33153e+06
2.13133e+06
269535
123822
345259
1.04713e+06
959370
1.13795e+06
516426
351989
2.22969e+06
486143
611176
799458
262204
225072
933216
332424
171221
704306
268821
345952
2.07574e+06
354442
314034
1.10107e+06
1.01517e+06
931051
468569
1.41339e+06
1.32951e+06
1.74244e+06
543603
563231
711503
1.48108e+06
697919
501575
1.3162e+06
254580
2.46322e+06
166532
1.88076e+06
499563
571913
136286
607582
1.16207e+06
144769
169304
164464
2.17538e+06
631584
577747
683774
337495
245371
313933
612003
1.42393e+06
618170
1.20687e+06
1.42902e+06
1.31726e+06
413618
1.33356e+06
1.01149e+06
1.07164e+06
1.26875e+06
1.33497e+06
1.01239e+06
1.08122e+06
1.27767e+06
738657
624663
48423.1
300837
186115
424144
624142
520214
723254
1.46473e+06
1.35343e+06
1.2447e+06
1.13954e+06
419636
1.1714e+06
575335
164669
114932
120847
205766
110432
498239
1.17742e+06
1.20512e+06
430485
2.00778e+06
169632
151084
1.56758e+06
1.94613e+06
100512
1.23375e+06
486528
657279
917574
521727
329212
150758
487029
704768
69119.2
140707
2.03356e+06
269827
204877
489695
449866
531083
344206
138747
144087
351523
1.22869e+06
1.90995e+06
2.21152e+06
336847
374124
1.57779e+06
1.42236e+06
1.85582e+06
120106
1.04006e+06
1.80616e+06
2.22416e+06
2.29538e+06
2.23698e+06
576509
1.00498e+06
432133
2.10031e+06
1.5779e+06
644148
1.36883e+06
154918
140137
1.62942e+06
1.63125e+06
141206
441603
2.03769e+06
1.70518e+06
1.61921e+06
1.67566e+06
2.30471e+06
1.56231e+06
2.01393e+06
1.74714e+06
156399
276817
1.28193e+06
621593
1.05358e+06
222619
148140
187501
173147
160913
209046
186856
434427
2.01793e+06
1.22602e+06
428067
590226
1.31307e+06
174927
609668
428053
2.35907e+06
326392
315256
587113
332561
543658
240047
189773
1.91983e+06
15755.3
153958
153653
31676
468780
511814
183852
201453
214888
151735
548652
532779
135073
2.04272e+06
1.74613e+06
617785
1.3087e+06
445273
130991
1.52742e+06
337600
2.03065e+06
554688
678040
800779
922682
1.75973e+06
1.62604e+06
1.49259e+06
1.36335e+06
553832
676062
1.76096e+06
1.62628e+06
797897
1.49326e+06
920212
1.36301e+06
307090
237019
575213
620004
546312
260257
215078
184737
150313
141180
157889
135734
141596
238270
944725
1.01472e+06
900082
504464
980792
1.08094e+06
1.68665e+06
709681
571635
1.80968e+06
604593
207722
128352
178274
148985
285956
262238
266469
146289
388264
305063
389275
795812
145476
211224
959590
156080
116810
144080
123435
1.41991e+06
171949
205060
664740
530296
264800
665176
219621
131912
120238
2.1503e+06
2.20726e+06
1.3215e+06
1.0811e+06
1.05366e+06
1.34333e+06
2.15801e+06
1.11329e+06
134761
718102
397742
305609
439515
212083
2.05899e+06
224385
1.20064e+06
1.1079e+06
1.01528e+06
533494
362909
630630
367149
281128
2.08071e+06
238593
134887
682737
681570
308009
195655
236705
397089
820495
1.55456e+06
644251
513405
971666
1.26248e+06
341989
496607
1.08368e+06
996947
913265
514191
554181
904083
738204
1.03893e+06
551810
1.14314e+06
1.24625e+06
361731
1.35317e+06
2.44322e+06
1.72626e+06
120082
817728
893393
972708
300966
206765
1.48051e+06
256003
336182
420114
459429
196317
249823
203888
162021
1.39808e+06
1.07178e+06
1.12501e+06
1.34794e+06
318177
1.72925e+06
2.14387e+06
791003
142022
803052
876357
954535
901830
1.05265e+06
293483
1.68071e+06
736309
676357
618807
733978
266747
368830
215128
200592
461114
544869
501195
574997
627582
682262
416104
412546
591726
594597
1.20856e+06
1.20231e+06
1.01562e+06
1.1102e+06
1.01002e+06
1.10434e+06
602207
655872
236574
151080
170475
200362
1.22011e+06
769346
141594
1.22355e+06
1.01442e+06
971443
1.25982e+06
204204
440250
1.58492e+06
666076
1.45978e+06
1.33808e+06
112263
263286
1.09764e+06
643906
456908
1.45411e+06
513043
73704.7
1.10771e+06
1.01528e+06
1.20433e+06
538037
365111
1.50088e+06
572709
463775
1.98827e+06
574766
811800
196350
147837
334268
312028
285341
1.69175e+06
417370
284404
477442
438635
515398
259642
199576
1.12216e+06
1.26195e+06
204063
717264
154125
970097
1.94217e+06
1.22201e+06
589676
442711
1.0588e+06
538671
480834
396870
261547
166035
403210
199691
487749
198369
337924
144459
160220
2.0361e+06
406675
1.72246e+06
980900
1.05725e+06
570675
427624
1.02138e+06
1.8543e+06
122787
149189
153046
144231
367974
35598.6
11779.4
367332
769775
143877
810442
359857
254257
170282
537285
749607
1.57662e+06
132729
106817
170438
196800
423399
272389
1.06115e+06
945675
232341
152995
124722
2.0624e+06
770039
134002
301636
149141
2.35894e+06
1.90952e+06
301000
224339
828875
401052
567444
1.12119e+06
941277
1.02952e+06
2.20916e+06
1.7567e+06
148468
1.65109e+06
2.2328e+06
1.73792e+06
1.92978e+06
837828
173794
1.13102e+06
274580
173036
211306
412209
446374
328667
326691
744958
244180
168565
129076
1.08732e+06
1.31862e+06
1.43779e+06
1.56043e+06
1.67312e+06
743787
635096
524633
413712
261858
125333
519227
24108
254894
254436
13094.9
557935
279597
220354
93041.6
349632
397006
140402
361220
1.08887e+06
834633
576003
408378
466392
2.03504e+06
1.55986e+06
206840
668207
139523
149452
566871
668273
696732
1.38665e+06
399921
437310
145192
1.8388e+06
153670
320910
374588
349057
1.32394e+06
1.44307e+06
747069
810791
809409
565955
727813
1.37138e+06
1.30543e+06
1.30159e+06
446707
617831
116616
128983
120862
278617
133705
605671
1.25693e+06
1.11627e+06
1.36805e+06
997966
1.37837e+06
996737
679184
458070
1.206e+06
882854
1.20809e+06
885853
293651
1.33928e+06
1.11717e+06
978677
1.27487e+06
1.12867e+06
1.39198e+06
1.0117e+06
1.39245e+06
1.01092e+06
1.27034e+06
2.36199e+06
509350
714048
1.51996e+06
560727
141493
152146
236870
23432.2
236435
20724.3
139783
431582
1.33748e+06
1.22545e+06
1.45353e+06
643067
446110
2.08751e+06
73321.8
134089
267053
910223
296594
818375
401822
2.12576e+06
2.1446e+06
1.28876e+06
154231
284469
1.44287e+06
761242
610450
419866
757026
693131
821566
288347
401937
2.18675e+06
513544
1.94436e+06
141409
139175
135104
140379
96798.9
1.91976e+06
157430
1.40766e+06
94624.8
1.02816e+06
1.31739e+06
157349
142984
201554
588902
211506
494604
454311
334473
362324
392590
169936
359361
484597
599553
403909
1.36659e+06
1.26009e+06
1.15445e+06
1.43713e+06
1.92269e+06
2.12228e+06
128923
127075
128960
139545
279579
165207
301717
2.12877e+06
2.17415e+06
2.16668e+06
1.66714e+06
65825.2
1.15463e+06
1.98149e+06
1.33857e+06
1.05455e+06
1.07722e+06
1.32107e+06
654286
585792
1.17174e+06
766182
1.3919e+06
106261
251259
318680
614041
253037
248922
284373
193170
222662
163319
189850
428503
431870
468927
466341
506014
506986
595070
588053
144632
142995
555776
360803
113409
211303
833659
1.39464e+06
145141
830909
1.79723e+06
552274
1.70751e+06
776974
219051
1.60006e+06
838445
704927
1.1169e+06
1.91431e+06
2.29701e+06
902649
379792
1.93563e+06
276265
203908
175139
433022
97247.9
816083
1.42107e+06
365859
555780
225889
139843
240803
2.08153e+06
369634
430393
415766
308543
883298
277399
220506
880582
194043
1.88323e+06
152275
1.11353e+06
410226
445359
1.7454e+06
1.47419e+06
889801
1.60964e+06
1.74905e+06
762574
1.89019e+06
637205
509082
1.47342e+06
1.60819e+06
1.89161e+06
1.74785e+06
510800
765685
893204
639228
1.92423e+06
192148
1.51064e+06
166292
118521
147130
8672.83
66010.6
823399
89756.8
1.45301e+06
297599
223960
558294
603695
512872
436981
282174
1.25521e+06
280819
301406
1.13954e+06
101788
443075
410046
406763
1.28538e+06
1.17804e+06
1.39646e+06
610480
527017
222193
377981
736502
1.45071e+06
75440.2
366595
219558
142797
479133
1.53778e+06
862188
742064
1.61864e+06
187492
883295
1.88878e+06
952983
1.75988e+06
159743
1.98004e+06
237599
1.32516e+06
470655
580950
142476
15246
152944
152607
26076.4
253218
1.35968e+06
193050
1.65366e+06
754585
272018
1.27315e+06
1.22237e+06
1.39186e+06
1.33656e+06
1.51386e+06
1.45413e+06
701737
678518
479692
464768
532343
360461
1.20713e+06
1.11421e+06
1.0208e+06
323106
378579
349364
176178
1.12972e+06
985438
96434
195859
147379
167749
177064
1.92651e+06
1.60654e+06
417249
1.37082e+06
1.25712e+06
1.48695e+06
127364
715716
1.30258e+06
1.35356e+06
143254
134340
1.56221e+06
500135
172328
283648
330774
307018
180454
533250
491811
454483
1.78676e+06
2.35761e+06
1.73039e+06
1.22375e+06
596184
430778
185635
202148
300748
217483
142332
127895
226754
651018
518946
139433
1.42978e+06
1.65302e+06
677070
596116
176726
170782
152610
161051
462652
1.55991e+06
1.19916e+06
922955
951063
1.13409e+06
136309
149978
224215
136336
138195
298173
2.43793e+06
1.93416e+06
150052
187256
812807
701475
488528
1.51846e+06
1.64088e+06
1.27754e+06
1.39583e+06
837544
431210
368885
400345
189278
234378
1.78335e+06
471695
1.13339e+06
86951.5
1.65507e+06
152621
643184
745824
2.43434e+06
137219
662462
162675
620212
171878
392112
1.2012e+06
545605
1.37297e+06
889538
1.50214e+06
1.63463e+06
769713
1.76994e+06
648109
528052
649796
528570
252386
769355
869694
1.13633e+06
142242
229893
1.41069e+06
613507
2.23048e+06
1.8165e+06
2.03581e+06
368443
1.58798e+06
749306
575157
281218
215507
2.17107e+06
1.13e+06
135337
2.3617e+06
1.98535e+06
68826.8
683478
559478
87296.3
921408
733811
113883
185894
1.53582e+06
2.26885e+06
142225
790232
810938
1.6354e+06
1.58399e+06
574619
588965
575439
589789
146139
147327
146623
138281
109912
2.34348e+06
1.81479e+06
1.64436e+06
2.0741e+06
779436
414105
1.68036e+06
936064
1.02365e+06
1.11459e+06
79595.4
1.73515e+06
300889
1.29785e+06
1.86162e+06
550424
384581
2.36274e+06
624544
655751
459794
485218
1.2436e+06
1.2021e+06
213080
210378
117744
139720
404097
1.46922e+06
1.35325e+06
1.24052e+06
612588
2.33937e+06
145482
280125
128670
1.22534e+06
1.33919e+06
780189
1.45601e+06
667118
1.58893e+06
564779
1.50148e+06
1.2633e+06
1.38037e+06
1.62337e+06
453736
802951
692651
567056
137279
189461
201235
257884
479655
405065
440692
1.92184e+06
883380
1.07785e+06
1.78024e+06
210502
317581
139380
499775
695801
240967
333981
1.80618e+06
192830
134777
138419
141050
135546
89227.8
216126
164720
178136
1.54507e+06
1.82804e+06
162631
140819
177998
308358
668638
1.98147e+06
1.84486e+06
826792
144731
199486
1.57079e+06
145679
147172
2.40441e+06
924748
1.80963e+06
504133
1.22438e+06
768117
755779
211913
867670
1.29068e+06
619391
446053
178967
407213
141295
106827
127422
1.95173e+06
1.13461e+06
1.1563e+06
1.91379e+06
300798
322876
169811
607880
152801
139363
151174
380858
304367
30970.3
303851
21219.1
139187
1.20368e+06
360040
520409
1.10446e+06
1.01609e+06
930016
189440
2.20688e+06
732132
417792
1.89082e+06
1.11896e+06
1.1649e+06
195484
19189.5
195098
20200.7
1.67642e+06
420226
693586
823962
759037
157025
1.81037e+06
418518
301465
960993
737975
134309
41332.9
1.32473e+06
273745
1.32636e+06
334714
443573
819717
910677
763895
168174
673148
277160
355166
173574
186521
640494
667444
222160
401226
143238
144425
1.06668e+06
532334
391389
154083
572864
14825.8
55470.3
571883
705910
570611
843900
1.00209e+06
119851
2.2043e+06
2.29813e+06
286828
141988
156381
239593
264707
27352.5
264262
23587.4
1.15037e+06
392261
543701
2.14142e+06
2.17302e+06
1.83635e+06
1.67481e+06
985082
872790
835016
741388
1.81513e+06
260755
514812
187722
124473
138505
369439
516933
739340
2.09067e+06
2.11201e+06
265177
137534
688972
750095
253759
1.14192e+06
466565
383348
1.68463e+06
168536
156040
207235
1.10892e+06
1.11456e+06
1.18018e+06
748375
375729
524295
95818.2
96623.2
1.29442e+06
136382
1.14388e+06
147414
559232
908746
796447
1.33786e+06
1.56478e+06
144437
186036
423877
1.85662e+06
9023.67
111783
33155.3
112255
299609
276937
95113.8
2.02911e+06
36197.4
1.92344e+06
500816
48484.8
15641.1
499958
324856
162728
18722.7
162521
413313
1.80132e+06
415475
2.00067e+06
2.29417e+06
66735.9
651813
773577
712788
926695
443177
323196
998830
636838
111018
245940
387148
278464
688523
912062
256458
257484
2.20616e+06
785755
911621
850898
981874
1.39965e+06
131838
140007
1.17124e+06
1.42772e+06
483585
268774
309143
161485
322553
469237
148518
249252
358840
145768
101818
1.27917e+06
1.49671e+06
287479
633994
494955
506221
1.57537e+06
712415
309770
241427
608270
508473
127845
363147
1.42951e+06
1.82113e+06
482251
337017
848712
1.00782e+06
927283
90590.6
139114
351054
251241
1.35662e+06
491997
111428
53960.4
82465.2
470811
331328
821169
974864
897251
144079
1.9735e+06
2.25149e+06
158407
156203
148242
144254
1.9703e+06
388735
289444
834618
2.43569e+06
1.96085e+06
549995
195441
510120
469783
288456
268873
307567
172739
153321
153296
416020
1.9211e+06
117139
1.04903e+06
1.13627e+06
1.80673e+06
1.30143e+06
1.27004e+06
484305
477389
650636
660954
307364
340110
294384
137829
136815
766391
249534
1.78285e+06
1.2291e+06
310539
135524
766395
2.28305e+06
133613
1.20205e+06
999612
948777
1.24154e+06
859053
367899
510365
1.13935e+06
201477
831686
359293
401286
207634
430022
255482
331688
911378
450575
194609
169127
223010
1.16149e+06
953777
211184
201241
190521
217807
141430
614584
472470
127720
447945
145276
257242
414585
2.08744e+06
1.83809e+06
1.25234e+06
360678
257968
806719
745653
684412
326223
327197
156420
1.1311e+06
157053
628894
821100
242474
217280
1.86458e+06
107692
366553
341493
166596
1.96311e+06
104650
140144
546089
644394
197425
186852
207857
150959
145029
1.24984e+06
116978
153837
19113.8
153592
1.24776e+06
1.18246e+06
2.23729e+06
1.34877e+06
1.6925e+06
145213
1.74943e+06
1.18967e+06
17290.8
125495
293553
223934
499671
543334
587434
771381
430352
1.8001e+06
1.04894e+06
1.14039e+06
184240
124565
121065
140219
154016
160002
245332
1.04121e+06
125656
2.24616e+06
552345
221797
1.15877e+06
755350
384623
535321
248604
215279
305982
462774
297761
616373
561998
222242
146016
788440
1.10972e+06
99805.9
107555
194985
115500
119832
1.69427e+06
442059
326050
946292
1.63789e+06
447735
320369
794245
676706
734055
620410
359118
259817
147741
10170.4
80485.6
759749
625800
891448
1.8662e+06
1.57858e+06
1.72076e+06
625976
757940
1.87126e+06
1.72469e+06
890180
1.58232e+06
207445
418457
347865
346926
133137
232937
206222
611303
294416
228608
278625
490748
1.36425e+06
674446
148031
244640
137066
150023
262597
407050
132322
136415
141885
987148
365541
486201
327602
428865
889106
756445
915952
733883
1.24321e+06
375486
214059
304951
789825
596442
281383
383882
548377
147389
309001
186071
179652
637815
640391
225895
804140
242955
262014
1.4247e+06
1.19179e+06
133928
156122
1.88861e+06
110729