/*--------------------------------*- C++ -*----------------------------------*\
| =========                 |                                                 |
| \\      /  F ield         | OpenFOAM: The Open Source CFD Toolbox           |
|  \\    /   O peration     | Version:  2.3.1                                 |
|   \\  /    A nd           | Web:      www.OpenFOAM.org                      |
|    \\/     M anipulation  |                                                 |
\*---------------------------------------------------------------------------*/
FoamFile
{
    version     2.0;
    format      ascii;
    class       volScalarField;
    location    "0.87";
    object      epsilon;
}
// * * * * * * * * * * * * * * * * * * * * * * * * * * * * * * * * * * * * * //

dimensions      [0 2 -3 0 0 0 0];

internalField   nonuniform List<scalar> 
9648
(
2429
2427.71
2428.24
2424.2
2415.42
2401.34
2382.15
2357.75
2328.04
2293.09
2253.08
2208.09
2158.92
2106.5
2051.59
1995.1
1938.13
1881.7
1826.54
1773.21
1722.29
1674.14
1628.97
1586.99
1548.26
1512.72
1480.28
1450.87
1424.4
1400.69
1379.65
1361.11
1344.96
1331.03
1319.25
1309.46
1301.55
1295.44
1291.08
1288.4
1287.27
1287.69
1289.61
1292.97
1297.8
1304.15
1311.97
1321.24
1332.04
1344.52
1358.68
1374.48
1392.15
1411.67
1433
1455.95
1480.28
1505.61
1531.15
1556.33
1580.72
603.102
597.29
590.215
581.767
574.235
569.957
568.714
569.452
571.898
576.192
582.121
589.04
596.538
604.239
611.8
618.842
625.182
630.782
635.633
639.677
643.023
645.747
647.911
649.65
651.103
652.344
653.437
654.469
655.531
656.678
657.939
659.375
661.033
662.909
665.041
667.458
670.152
673.122
676.385
679.969
683.865
688.058
692.558
697.376
702.492
707.936
713.701
719.757
726.084
732.682
739.495
746.498
753.634
760.933
768.253
775.569
782.726
789.829
796.736
803.374
809.7
236.148
240.009
245.172
252.647
262.295
273.65
286.85
301.498
317.511
334.515
352.307
370.435
388.554
406.322
423.44
439.665
454.824
468.83
481.628
493.211
503.615
512.886
521.113
528.394
534.837
540.538
545.591
550.095
554.13
557.775
561.099
564.165
567.025
569.726
572.308
574.8
577.235
579.63
582.003
584.374
586.756
589.166
591.603
594.074
596.584
599.122
601.685
604.254
606.822
609.365
611.876
614.352
616.751
619.126
621.361
623.553
625.607
627.656
629.541
631.304
632.939
129.607
139.921
151.831
165.495
180.854
197.775
216.179
235.829
256.466
277.721
299.26
320.688
341.673
361.897
381.106
399.091
415.72
430.92
444.662
456.966
467.869
477.435
485.761
492.948
499.116
504.378
508.842
512.612
515.777
518.429
520.646
522.5
524.059
525.373
526.488
527.448
528.288
529.03
529.702
530.323
530.912
531.487
532.061
532.641
533.231
533.832
534.443
535.059
535.679
536.293
536.884
537.475
538.038
538.587
539.069
539.544
540.008
540.45
540.851
541.216
541.584
93.4519
106.49
121.393
138.112
156.544
176.552
197.928
220.383
243.572
267.075
290.502
313.449
335.588
356.626
376.344
394.548
411.146
426.096
439.397
451.102
461.269
469.969
477.32
483.428
488.437
492.475
495.661
498.11
499.911
501.164
501.957
502.364
502.462
502.307
501.944
501.42
500.777
500.036
499.228
498.371
497.483
496.589
495.703
494.839
493.997
493.184
492.403
491.65
490.918
490.211
489.511
488.82
488.144
487.474
486.804
486.135
485.492
484.848
484.19
483.527
482.864
79.642
94.4103
111.318
130.228
150.931
173.22
196.782
221.246
246.188
271.129
295.652
319.325
341.854
362.956
382.482
400.224
416.122
430.192
442.445
452.991
461.907
469.254
475.194
479.818
483.31
485.818
487.464
488.385
488.652
488.377
487.662
486.567
485.194
483.6
481.811
479.892
477.895
475.823
473.717
471.592
469.457
467.347
465.278
463.267
461.307
459.404
457.562
455.791
454.077
452.405
450.773
449.169
447.596
446.05
444.519
443.035
441.587
440.149
438.708
437.27
435.823
75.031
91.2814
109.899
130.664
153.242
177.364
202.618
228.56
254.734
280.544
305.621
329.452
351.831
372.471
391.372
408.213
422.996
435.821
446.661
455.736
463.141
468.878
473.215
476.159
477.982
478.849
478.864
478.224
476.933
475.129
472.944
470.39
467.622
464.682
461.561
458.354
455.143
451.878
448.633
445.412
442.203
439.063
436.006
433.053
430.17
427.378
424.681
422.074
419.56
417.115
414.727
412.384
410.099
407.825
405.585
403.4
401.269
399.186
397.098
394.985
392.891
74.7742
92.4064
112.585
134.992
159.137
184.7
211.237
238.252
265.246
291.49
316.716
340.223
362.023
381.745
399.745
415.397
428.785
440.171
449.331
456.718
462.472
466.404
469.088
470.215
470.276
469.448
467.786
465.615
462.76
459.444
455.863
451.899
447.818
443.617
439.239
434.834
430.492
426.07
421.767
417.536
413.323
409.214
405.272
401.469
397.744
394.172
390.691
387.352
384.114
380.98
377.919
374.92
371.98
369.031
366.134
363.337
360.566
357.906
355.204
352.458
349.803
76.6042
95.3242
116.879
140.508
166.021
192.605
219.956
247.849
275.173
301.659
326.656
349.705
370.52
389.004
405.868
420.235
432.148
441.939
449.643
455.365
459.234
461.319
462.097
461.599
459.969
457.307
454.085
450.442
445.93
441.158
436.115
430.908
425.797
420.349
414.606
409.193
403.624
398.015
392.743
387.371
382.043
376.714
372.055
367.424
362.791
358.625
354.219
350.243
346.097
342.25
338.293
334.683
331.155
327.459
323.871
320.605
317.077
314.109
310.722
307.215
304.093
1604.42
1627.31
1649.09
1669.72
1689.41
1708.59
1727.34
1745.98
1764.44
1781.91
1798.08
1813.49
1828.4
1843.16
1858.01
1873.6
1890.51
1909.23
1930.14
1953.73
1979.75
2007.68
2037.11
2067.61
2098.86
2130.79
2163.55
2196.82
2230.55
2264.76
2299.65
2335.09
2371.08
2407.78
2445.21
2483.26
2522.05
2561.71
2602.29
2643.67
2685.85
2729.09
2773.36
2818.51
2864.86
2912.28
2960.65
3010.02
3060.6
3112.43
3165.43
3219.5
3275.17
3332.07
3390.54
3450.39
3512.33
3576.37
3642.51
3710.62
3780.84
815.689
821.75
827.637
833.272
838.678
843.975
849.306
854.523
859.834
864.898
869.919
874.836
879.761
884.718
889.698
894.748
899.884
905.152
910.543
916.033
921.584
927.134
932.662
938.146
943.573
948.922
954.127
959.156
964.006
968.7
973.254
977.644
981.889
986.01
990.004
993.87
997.634
1001.29
1004.83
1008.26
1011.6
1014.88
1018.05
1021.12
1024.12
1027.03
1029.84
1032.54
1035.16
1037.69
1040.13
1042.46
1044.71
1047.01
1049.12
1051.34
1053.51
1055.91
1058.19
1060.54
1063.01
634.543
636.068
637.64
639.183
640.698
642.117
643.608
645.003
646.383
647.617
648.8
649.929
651.075
652.192
653.282
654.334
655.342
656.305
657.211
658.049
658.805
659.479
660.058
660.541
660.921
661.198
661.363
661.417
661.35
661.169
660.863
660.438
659.897
659.236
658.47
657.595
656.615
655.528
654.333
653.03
651.623
650.117
648.52
646.816
645.016
643.11
641.086
638.936
636.668
634.282
631.754
629.13
626.372
623.511
620.463
617.338
614.13
610.85
607.488
604.077
600.678
541.927
542.27
542.582
542.88
543.145
543.379
543.574
543.752
543.866
543.877
543.823
543.725
543.563
543.317
543.015
542.645
542.21
541.702
541.113
540.436
539.673
538.822
537.888
536.865
535.749
534.533
533.221
531.81
530.301
528.695
526.991
525.181
523.269
521.26
519.163
516.977
514.703
512.34
509.882
507.333
504.701
501.996
499.222
496.386
493.488
490.526
487.479
484.348
481.126
477.831
474.434
470.946
467.378
463.716
459.932
456.034
452.068
448.021
443.921
439.804
435.694
482.205
481.519
480.808
480.065
479.292
478.457
477.564
476.664
475.76
474.803
473.81
472.772
471.672
470.514
469.294
468.007
466.685
465.291
463.825
462.283
460.669
458.99
457.252
455.457
453.598
451.67
449.67
447.599
445.462
443.259
440.985
438.631
436.196
433.686
431.113
428.478
425.776
423.003
420.151
417.226
414.238
411.195
408.115
405.009
401.884
398.741
395.546
392.323
389.036
385.708
382.318
378.855
375.34
371.758
368.085
364.317
360.471
356.542
352.595
348.636
344.681
434.386
432.938
431.48
429.975
428.443
426.874
425.262
423.631
421.955
420.252
418.51
416.742
414.935
413.077
411.172
409.232
407.264
405.233
403.136
400.974
398.755
396.492
394.199
391.882
389.526
387.124
384.675
382.18
379.657
377.106
374.522
371.88
369.183
366.427
363.637
360.81
357.93
355.001
352.003
348.937
345.819
342.655
339.472
336.294
333.14
330.021
326.879
323.752
320.598
317.462
314.291
311.064
307.819
304.512
301.161
297.691
294.159
290.557
286.969
283.346
279.748
390.813
388.741
386.659
384.56
382.419
380.23
378.007
375.779
373.513
371.196
368.864
366.525
364.152
361.754
359.311
356.853
354.395
351.888
349.315
346.671
343.974
341.259
338.533
335.824
333.107
330.355
327.575
324.761
321.961
319.18
316.437
313.66
310.87
308.033
305.203
302.355
299.452
296.518
293.527
290.472
287.359
284.185
280.997
277.829
274.704
271.686
268.654
265.707
262.755
259.912
257.077
254.166
251.271
248.324
245.373
242.252
239.12
235.885
232.743
229.538
226.386
347.145
344.543
341.926
339.348
336.738
334.136
331.457
328.847
326.204
323.445
320.69
317.978
315.221
312.442
309.588
306.766
304.022
301.236
298.385
295.394
292.328
289.289
286.236
283.23
280.29
277.317
274.316
271.228
268.172
265.203
262.412
259.61
256.886
254.135
251.466
248.816
246.037
243.199
240.355
237.502
234.547
231.47
228.375
225.284
222.218
219.374
216.454
213.719
210.977
208.514
206.12
203.581
201.098
198.558
196.077
193.316
190.622
187.763
185.142
182.408
179.775
300.723
297.603
294.306
291.366
288.257
285.577
282.544
279.947
277.311
274.434
271.55
268.931
266.056
263.201
260.069
256.925
254.146
251.46
248.772
245.824
242.463
239.326
236.109
232.872
229.831
226.845
223.96
220.742
217.32
214.099
211.285
208.482
205.907
203.392
201.223
199.124
196.705
194.007
191.405
188.999
186.527
183.675
180.754
177.891
174.935
172.363
169.467
166.949
164.312
162.357
160.514
158.348
156.375
154.318
152.421
149.975
147.755
145.205
143.157
140.931
138.926
3854.23
3930.3
4008.45
4088.7
4171.51
4257.76
4346.94
4438.96
4533.56
4630.89
4731.36
4833.62
4938.15
5049.35
5189.37
5317.05
5444.2
5573.87
5706.03
5840.65
5978.07
6118.34
6261.08
6406.49
6554.34
6703.91
6854.91
7007.07
7160.2
7313.41
7466.6
7619.15
7770.19
7919.1
8065.35
8207.52
8344.44
8474.57
8589.31
8673.76
8731.21
8763.23
8769.68
8748.8
8699.06
8617.98
8501.58
8345.22
8144.61
7895.17
7590.66
7224.29
6790.87
6282.81
5672.81
4727.46
4308.35
4097.91
4014.67
3975.36
3895.38
1065.73
1068.55
1071.59
1074.7
1077.92
1081.39
1085.41
1089.85
1094.77
1100
1105.73
1109.2
1110.8
1114
1117.86
1123.19
1128.65
1134.05
1139.59
1145.37
1151.43
1157.8
1164.44
1171.35
1178.54
1185.95
1193.66
1201.65
1209.98
1218.72
1227.88
1237.55
1247.85
1258.88
1270.76
1283.73
1297.97
1313.83
1332.85
1362.81
1398.97
1437.99
1480.21
1525.75
1575.28
1629.16
1687.45
1750.43
1818.38
1890.86
1966.98
2045.16
2123.79
2201.84
2271.98
2338.28
2397.81
2484.54
2588.42
2696.19
2656.57
597.26
593.852
590.414
586.963
583.464
579.999
576.653
573.469
570.359
567.231
563.612
558.091
552.367
547.452
543.051
539.276
535.589
531.8
527.95
524.093
520.269
516.476
512.709
508.966
505.244
501.538
497.859
494.21
490.61
487.056
483.568
480.17
476.871
473.717
470.734
467.972
465.476
463.318
461.646
460.941
461.401
466.134
474.642
486.456
502.033
522.022
547.137
578.396
616.789
663.39
719.209
785.04
862.088
950.728
1050.87
1159.35
1267.06
1384.61
1528.27
1713.75
1903.35
431.594
427.51
423.43
419.339
415.208
411.085
407.019
403.06
399.086
395.027
390.146
384.279
378.655
373.569
368.873
364.532
360.298
356.079
351.856
347.657
343.483
339.318
335.169
331.04
326.926
322.837
318.775
314.739
310.732
306.755
302.811
298.905
295.049
291.253
287.527
283.891
280.365
276.964
273.716
270.683
267.943
265.801
264.947
265.787
268.207
272.547
279.267
289.016
302.63
321.125
345.904
378.282
419.915
471.933
535.042
607.348
684.705
768.477
866.843
993.392
1152.22
340.751
336.888
333.05
329.193
325.274
321.361
317.473
313.675
309.854
305.93
301.217
296.037
291.171
286.71
282.503
278.534
274.665
270.885
267.158
263.496
259.874
256.242
252.632
249.049
245.484
241.948
238.44
234.963
231.505
228.071
224.659
221.277
217.929
214.625
211.374
208.186
205.071
202.042
199.107
196.282
193.595
191.107
188.948
187.467
186.777
186.899
188.054
190.542
194.792
201.339
210.971
224.687
243.676
269.197
302.279
343.079
390.224
443.22
504.279
578.896
673.468
276.155
272.686
269.25
265.815
262.245
258.686
255.125
251.686
248.228
244.712
240.493
236.104
232.006
228.259
224.656
221.219
217.842
214.612
211.469
208.425
205.431
202.4
199.406
196.456
193.519
190.623
187.746
184.901
182.061
179.238
176.424
173.638
170.879
168.162
165.49
162.875
160.324
157.846
155.442
153.124
150.904
148.805
146.863
145.167
143.956
143.131
142.812
143.119
144.256
146.496
150.207
155.905
164.26
176.035
192.108
213.05
239
270.028
306.738
350.758
405.191
223.155
220.123
217.135
214.198
211.007
207.851
204.637
201.629
198.609
195.625
191.963
188.323
184.917
181.88
178.866
175.995
173.11
170.445
167.87
165.414
163.012
160.514
158.098
155.771
153.437
151.156
148.868
146.622
144.35
142.091
139.821
137.59
135.383
133.23
131.114
129.059
127.058
125.128
123.262
121.477
119.774
118.176
116.692
115.352
114.219
113.441
112.927
112.742
112.985
113.79
115.342
117.889
121.749
127.35
135.161
145.677
159.314
176.398
197.39
223.064
254.691
176.894
174.297
171.785
169.423
166.631
163.913
161.041
158.523
155.992
153.616
150.487
147.515
144.7
142.339
139.851
137.547
135.109
132.997
130.946
129.001
127.122
125.053
123.147
121.441
119.661
117.928
116.134
114.427
112.625
110.845
109.017
107.281
105.558
103.926
102.308
100.765
99.2475
97.8079
96.425
95.1367
93.9203
92.8124
91.8135
90.9188
90.1587
89.6312
89.3036
89.1611
89.2684
89.6959
90.541
91.9241
94.013
97.0025
101.14
106.709
114.005
123.364
135.151
149.861
168.151
136.36
134.13
132.113
130.408
128.013
125.758
123.181
121.236
119.229
117.493
114.842
112.442
110.073
108.362
106.285
104.557
102.468
100.917
99.3241
97.7411
96.2986
94.5094
93.0606
92.0662
90.7433
89.3978
87.9406
86.7265
85.2335
83.8127
82.2575
80.9881
79.6608
78.5145
77.2886
76.1833
74.9904
73.9339
72.9438
72.0853
71.3038
70.6229
70.0622
69.589
69.153
68.8224
68.6721
68.6306
68.8083
69.1263
69.8231
70.8153
72.3104
74.266
76.8947
80.2305
84.5614
89.9782
96.8697
105.503
116.223
3751.7
3593.91
3424.63
3246.33
3068.06
2895.2
2731.15
2580.33
2446.56
2332.06
2237.33
2161.42
2102.78
2059.22
2028
2006.53
1992.6
1984.64
1981.17
1980.98
1983.38
1987.81
1993.78
2001.18
2010.07
2020.09
2031.29
2043.63
2057.19
2071.83
2087.53
2104.23
2121.82
2140.06
2158.84
2177.88
2196.86
2215.5
2233.58
2250.77
2266.62
2280.89
2293.37
2303.88
2312.46
2319.36
2324.66
2328.58
2331.69
2334.77
2338.19
2342.23
2347.5
2354.27
2362.33
2371.51
2381.58
2392.59
2403.53
2413.44
2421.68
2466.06
2262.98
2064.65
1873.84
1706.67
1552.01
1408.88
1277.99
1159.72
1054.92
963.804
885.937
820.426
765.787
721.797
687.678
661.51
641.388
625.777
613.587
604.049
596.572
590.847
586.334
583.234
581.089
579.975
579.829
580.632
582.378
585.083
588.733
593.326
598.836
605.213
612.371
620.211
628.635
637.487
646.572
655.633
664.356
672.31
679.031
684.089
687.051
687.53
685.317
680.469
673.313
664.4
654.513
644.605
635.555
627.848
621.976
617.809
615.132
613.022
610.667
607.366
1991.54
1980.31
1881.38
1708.86
1530.29
1356.92
1188.15
1034.52
897.114
775.238
669.873
580.642
506.387
445.879
398.201
361.586
333.342
311.014
293.351
279.498
268.619
260.037
253.201
247.757
243.312
239.762
236.907
234.688
233.046
231.945
231.359
231.285
231.704
232.583
233.9
235.618
237.702
240.105
242.775
245.638
248.602
251.562
254.397
256.945
259.043
260.486
261.071
260.61
258.981
256.116
252.08
247.147
241.738
236.418
231.69
228.168
226.176
225.86
227.025
229.378
232.641
1317.94
1465.68
1564.27
1583.63
1516.79
1393.29
1226.78
1056.66
899.563
754.643
628.007
521.905
434.29
363.957
308.744
265.79
232.389
206.024
185.332
169.257
156.849
147.321
139.997
134.336
129.874
126.326
123.476
121.188
119.368
117.948
116.889
116.165
115.749
115.603
115.692
115.979
116.429
117.005
117.664
118.361
119.044
119.66
120.152
120.461
120.532
120.307
119.742
118.802
117.478
115.765
113.695
111.366
108.945
106.664
104.81
103.816
104.094
105.892
109.299
114.298
121.037
789.254
924.008
1067.06
1195.21
1278.36
1298.74
1251.07
1147.35
1012
858.637
711.203
584.647
475.795
386.582
315.8
259.737
215.748
181.342
154.476
133.727
117.896
105.994
97.1185
90.4787
85.4386
81.5498
78.515
76.1307
74.258
72.7888
71.6616
70.8405
70.2868
69.9566
69.8083
69.8044
69.9084
70.0839
70.2947
70.5007
70.6597
70.7315
70.6775
70.461
70.0497
69.4197
68.5628
67.4824
66.1868
64.7055
63.0879
61.4176
59.834
58.5162
57.7217
57.711
58.9269
61.7526
66.4769
73.3817
82.4019
473.086
557.598
659.802
775.968
894.084
996.552
1063.18
1078.31
1039.37
954.041
838.822
712.98
586.054
474.056
382.589
307.031
246.979
199.487
161.671
132.457
110.42
94.1784
82.3766
73.7765
67.4221
62.6446
59.0157
56.2432
54.1215
52.4863
51.2439
50.3401
49.723
49.3371
49.1343
49.0733
49.1148
49.2241
49.3658
49.5031
49.5978
49.6174
49.5279
49.3014
48.9092
48.3361
47.5781
46.6458
45.5475
44.3108
42.979
41.6274
40.3718
39.3756
38.8816
39.2096
40.7742
44.0241
49.3623
57.06
67.1771
293.99
343.199
404.667
479.945
568.191
664.854
760.12
839.933
889.869
899.24
865.574
795.941
702.265
598.321
496.105
399.552
319.099
253.545
198.821
155.942
123.42
99.7317
82.8924
70.8769
62.1808
55.7633
50.987
47.4233
44.7653
42.7531
41.242
40.1469
39.3968
38.9168
38.6471
38.5378
38.5454
38.633
38.7649
38.9053
39.017
39.0737
39.0422
38.8993
38.6138
38.1781
37.5858
36.851
35.9745
34.9861
33.9194
32.8433
31.86
31.1125
30.8299
31.3334
33.0248
36.4502
42.1168
50.3793
61.3752
190.976
219.546
255.424
300.24
355.341
421.006
495.582
574.186
648.973
709.252
744.479
748.158
720.217
664.89
590.882
506.431
421.413
341.259
265.457
204.081
155.555
120.217
95.5476
78.1444
65.6308
56.4583
49.7102
44.7839
41.2064
38.5363
36.5516
35.1112
34.1172
33.4621
33.067
32.8673
32.8106
32.8552
32.963
33.0971
33.2191
33.31
33.3348
33.2746
33.0916
32.7862
32.3455
31.7898
31.1109
30.3404
29.5054
28.6717
27.9297
27.4134
27.3326
27.9964
29.8096
33.3799
39.3521
48.1569
59.9955
129.699
146.447
167.406
193.843
226.815
267.378
315.938
372.04
433.273
495.666
551.435
594.507
618.453
620.375
598.556
555.121
495.938
425.183
351.865
277.113
207.62
156.68
121.302
96.1325
77.6138
64.0039
54.0117
46.8533
41.7663
38.009
35.2534
33.2414
31.8447
30.9001
30.2968
29.9427
29.7717
29.7318
29.7823
29.878
29.9838
30.0853
30.1457
30.1466
30.0464
29.8478
29.5379
29.1335
28.6251
28.0398
27.4073
26.7893
26.2759
25.9864
26.1161
26.9735
28.9715
32.747
39.0046
48.3011
60.8337
1.60242
220.095
197.16
2.31064
2.3057
0.203263
0.000719945
91.0946
0.000796385
0.0146906
93.8631
6.94026
0.000720851
246.957
0.166385
135.163
0.000757425
92.4386
118.445
0.000716226
2.3087
235.358
207.191
0.000767096
0.000781111
0.209653
0.000717342
8.13233
0.000753188
0.00081981
6.47178
0.000742935
0.00878028
63.2728
3.95679
112.258
71.786
15.5641
0.000723276
45.049
65.7815
29.9841
0.000743321
102.721
170.168
0.715782
0.000869167
0.00865916
1.29089
7.14926
376.213
364.695
0.000698496
0.00102948
0.0648932
0.0359469
0.000816913
9.42677
58.7324
291.712
141.369
0.000905978
1.54342
0.0250784
206.974
2.37743
38.5478
64.2571
0.00113299
0.000747677
9.77025
40.0024
56.7413
0.0376974
0.05229
79.879
237.505
54.459
0.000700212
5.42782
0.00234354
47.7705
0.0127303
108.616
0.000749936
8.49562
0.000791083
36.9802
0.0111798
0.0013681
0.230648
0.000698517
0.000933921
315.966
146.86
0.000867327
1.58024
1.84762
0.00184927
209.821
1.0169
31.8416
5.76977
0.000696914
0.000725957
0.000694264
1.39726
0.209715
0.000748083
176.672
225.486
0.00479541
234.822
26.82
115.351
53.7749
28.2408
0.000978063
0.110541
0.00110575
0.00162755
187.441
0.00308319
291.581
425.765
28.7015
0.000746026
7.04249
6.91164
0.000743937
0.0299955
0.0269664
93.4151
0.00187114
63.0046
0.000748846
0.000723808
403.978
360.138
0.000748815
0.754865
152.304
0.230234
0.90559
26.7823
118.791
0.303029
27.7053
0.00526052
283.096
11.031
0.0386387
48.0003
106.212
192.629
0.000766095
0.000757204
0.512017
0.000695667
41.1868
0.115105
0.00144981
0.000740442
0.000747486
0.000758573
39.7479
71.282
34.9022
0.000768654
290.152
308.062
405.615
165.108
0.00694179
156.383
42.7444
28.2561
0.000750052
0.00169713
195.097
67.7052
30.8944
73.7247
0.000745351
0.000842061
238.991
0.0296532
2.47953
0.000757822
0.000867197
0.17275
0.000797987
342.474
3.92995
0.000691268
0.678182
92.4437
147.332
0.00119863
52.47
0.000746619
0.000750205
106.458
32.331
309.518
0.00121567
0.000800656
0.00286591
41.6148
76.6746
9.63904
127.996
14.24
234.663
0.834305
85.1508
82.7304
28.4913
10.5999
39.353
0.00144267
0.0293763
0.000747669
0.000726375
28.3488
0.010038
0.0117721
0.00198003
0.00630102
46.0976
195.415
0.0111492
177.228
7.41871
2.89975
0.000732468
0.551966
37.7701
7.1622
0.00106396
12.8354
36.1489
0.892871
2.42916
274.596
7.43915
5.21428
122.33
0.000955473
0.000724124
0.00102688
0.0042909
28.7547
0.00078463
0.00249513
0.000723668
1.71997
74.9395
76.6517
49.0593
11.9721
11.2919
331.557
0.00114081
47.929
98.3728
0.000743912
78.7616
0.000749608
331.092
1.71912
49.4911
0.00154815
0.000748492
19.9358
7.92425
0.000759628
0.000750552
0.000755357
0.000751532
1.18321
36.2402
43.841
0.0109789
0.000760437
0.000724428
0.000696015
103.126
1.19177
0.00119071
19.0276
0.116406
0.0978964
0.000692271
0.78005
0.000760157
0.108916
48.5459
274.189
3.12943
0.000978275
0.00184782
55.1811
0.356655
132.23
328.21
0.000838175
0.000739919
0.00073399
155.822
0.000773578
135.233
0.000749841
24.9827
12.2164
0.0244261
136.325
240.675
0.00127226
49.8407
50.8029
90.8492
90.5176
9.71839
358.119
38.7661
70.7685
141.765
94.4949
56.9593
0.338015
345.649
284.464
62.3959
33.6768
0.00100246
275.722
121.466
231.006
0.0188065
0.000867416
0.000745769
0.000811626
0.707423
1.55986
6.38681
0.124759
0.000726336
173.317
0.000746381
26.7951
23.2532
193.721
42.0626
18.383
0.00192768
0.00110669
0.469319
84.034
0.00437546
8.17109
259.685
35.8631
82.3878
198.921
61.5568
0.000821379
286.895
145.95
97.9763
0.000750477
198.951
155.153
0.00078144
30.6341
0.000751606
404.971
171.374
28.1756
80.3149
109.752
150.989
0.000764789
149.768
0.000964938
68.6678
79.5919
28.2936
283.059
3.61645
0.492494
2.56031
0.00110052
441.519
1.49896
0.002906
0.00182091
256.017
0.000953353
90.851
0.00073761
0.000750013
0.00183934
31.3258
0.193447
21.463
0.00197951
82.5125
0.307942
226.638
280.094
37.8512
344.077
0.00079406
282.588
41.5152
0.000742251
77.0367
25.2981
0.000696629
0.000727447
116.117
0.00206439
27.2397
0.467512
73.8774
0.0176993
3.38535
39.4025
120.236
32.3757
83.916
69.5866
0.00100211
0.0341405
28.709
22.7387
336.198
346.091
146.375
0.0848367
125.294
124.249
3.33318
93.6318
46.0003
25.6142
0.000822653
82.6412
393.296
0.0010761
90.537
18.8445
46.6782
0.0153307
0.0896528
270.139
0.00193033
332.293
0.00124724
1.89848
0.000738047
7.65096
170.063
0.555625
0.00132185
0.000902983
74.2895
26.9392
0.365464
5.64551
296.069
544.199
0.00139255
11.5338
27.3617
71.4675
26.321
450.479
28.8309
152.891
50.8681
3.49497
7.20717
306.471
54.6981
360.67
172.875
0.235145
170.785
59.6991
0.000792184
94.0887
29.1572
12.9804
0.00981555
96.3761
45.9199
4.05889
53.6276
0.00159346
0.000747172
0.153954
28.479
109.747
72.9728
0.000750207
0.000731324
0.000743853
28.3318
0.0282829
0.000745727
0.246076
93.3788
273.736
0.00441602
0.00454301
0.000721519
0.000738757
0.00193976
29.28
102.171
22.3147
1.88158
306.19
392.703
0.00151154
63.5085
27.8971
28.511
74.6633
448.604
0.000822
0.00446955
0.000750885
398.266
0.769275
0.000726908
10.3896
0.351719
307.259
0.000759336
333.665
8.54131
0.0668694
204.032
0.000748075
0.000736431
0.00102745
414.269
52.0019
131.272
323.648
10.6853
28.5559
0.000708814
0.00184773
0.469696
0.0152923
0.0163515
179.195
40.8285
0.000747841
26.1264
44.8834
188.464
416.911
0.00294835
420.024
0.00182712
0.0218097
145.63
0.000739239
145.499
0.000759584
0.000791557
0.0215156
34.4954
2.9193
324.28
62.4449
0.000886331
28.5055
502.146
0.208667
2.22693
7.35293
0.000774738
0.00075961
0.0023094
134.193
5.7277
0.000783676
277.311
279.905
219.342
0.110222
59.6032
0.0010908
29.4509
0.562923
0.131147
122.757
29.6131
151.831
175.105
0.000761131
0.000711611
0.00494149
73.3665
105.944
5.8575
0.00659902
0.000772799
0.000749908
0.0034425
0.128551
0.00211599
72.4079
21.4121
0.00499293
26.4798
175.638
0.000760555
38.1925
0.000742624
3.31049
0.000762491
0.013242
39.067
0.0116498
0.000744594
4.01802
373.643
271.046
0.000731094
0.00074856
1.52958
0.139094
0.000747733
101.941
0.000905413
31.777
386.374
29.2353
89.5959
296.788
132.108
341.257
0.000747579
0.0025054
0.0111818
292.648
62.2284
206.231
5.46313
4.45731
99.0155
163.785
132.073
4.92013
48.6088
0.000750535
1.50104
39.2636
32.5222
311.551
28.0603
1.15737
39.9993
0.203664
0.0098012
39.6868
0.000750987
175.359
0.000887461
2.80171
296.713
187.345
2.96784
0.00251152
7.0436
0.000768731
0.000736239
0.199573
0.0135159
49.638
0.00877064
28.7354
0.000750517
0.0190541
0.00072548
95.0102
0.00181422
85.7148
302.504
0.0143688
169.074
383.27
0.000756984
100.066
221.517
0.000785803
290.899
0.273381
0.000825251
0.000791681
289.709
0.00073162
0.00111911
0.122222
0.215258
443.103
274.339
0.000751497
0.000754668
9.12144
27.2178
0.0071129
2.29938
21.7926
0.000747663
0.000953979
0.000912785
169.529
274.092
3.37822
302.39
0.0172017
26.757
0.000772285
0.00718659
0.0160516
0.0439431
0.000749662
302.017
0.000741928
0.0160788
0.000771824
1.32558
0.0148707
0.0393061
2.54262
4.9851
35.1272
2.2082
9.07481
27.9033
188.942
0.000816349
164.227
333.651
12.4555
74.489
0.000761833
267.855
81.7852
0.000745621
421.481
65.9051
0.00617945
0.0242599
160.956
159.033
0.221349
321.794
419.661
4.38731
442.662
271.898
125.822
50.3092
22.1815
28.4836
270.061
299.101
0.0143357
317.544
43.2093
406.237
0.0008135
1.55504
2.75305
226.229
168.682
0.0118414
445.462
195.687
7.16271
0.055936
2.82926
28.0868
0.00154776
28.2389
452.059
0.0294094
222.381
14.1805
93.2294
191.73
0.000746052
0.00168066
7.24416
5.18941
0.0134542
0.000748295
0.853759
1.90129
0.00120884
0.000758696
268.663
6.89507
53.314
10.4508
0.00314882
0.00107566
0.413852
87.065
0.000823916
21.3162
29.9391
1.84488
167.463
0.00100522
0.411371
0.000740601
1.79101
85.7844
0.00162969
0.185233
40.7064
171.901
0.502804
93.3126
5.14888
0.904457
0.000987865
32.7167
342.03
0.000744062
0.000755949
149.148
0.0158061
0.000758246
72.9972
2.08965
164.976
29.6501
38.949
0.312443
16.8963
203.939
169.248
242.955
0.000763223
275.426
0.000969499
37.5132
0.000797136
0.00146662
44.8337
0.00209922
255.808
0.012211
0.0323308
45.902
7.85762
0.577114
0.00089721
189.35
0.000886763
0.00071926
353.477
163.841
39.9699
28.776
0.000813749
0.00068337
18.8095
150.136
0.000732493
226.193
37.7199
0.00075288
168.625
0.000702648
3.52374
6.32228
10.5694
1.49936
77.6416
21.0104
0.000700873
274.71
336.128
0.000744487
0.0135232
28.9066
0.000708998
240.104
160.206
404.36
0.000745522
0.000727858
198.374
0.0986441
0.000836935
30.935
81.6241
254.355
0.000720917
0.000794102
0.0157756
0.0116577
0.000746807
0.0020338
124.474
50.7583
0.00074665
13.1577
0.000747036
10.4816
0.00109159
0.000866993
26.5991
0.000748771
0.355232
0.000730523
50.4188
2.16543
20.1385
185.572
361.552
145.371
5.07117
14.9391
0.000758249
5.60856
281.816
530.043
0.156381
0.000826609
130.01
0.000746072
0.115621
0.000720618
453.247
15.6288
3.29321
202.088
52.2664
5.20498
79.1553
7.92623
224.485
111.275
0.000773751
0.000756327
0.00308684
0.000737065
0.0141037
103.328
0.000932504
258.544
0.00186689
0.29812
2.98162
152.019
0.00136098
41.3486
0.0137571
58.6541
29.7347
448.451
0.00079612
0.000955465
1.43017
83.2062
65.1519
64.2963
1.91031
7.99518
20.3552
0.0629033
10.8966
1.78748
30.0512
0.000756742
393.796
1.43167
54.6028
0.000787981
51.742
16.7992
0.00185285
90.1013
17.0074
0.084859
0.000715205
0.000746001
202.147
46.8065
14.8566
0.000737838
0.00956464
50.2316
187.926
3.44507
0.00586945
0.000735841
152.047
131.943
35.7323
34.9426
0.000743604
100.477
446.727
0.000746914
0.000749291
18.5539
0.00126341
0.00387043
0.223492
47.7676
0.00105264
36.2786
350.993
0.000731939
0.000821784
0.000727462
0.000769921
65.3297
517.036
344.581
0.0205961
33.5986
46.9696
0.133051
43.9623
0.000824398
31.1959
0.532044
30.5906
5.12599
83.2562
99.7018
0.148111
0.000759142
160.107
85.3761
280.647
5.64833
29.9973
0.522717
20.7132
0.0035353
0.0013347
148.944
144.796
0.0340621
1.19983
0.000753978
0.0995405
19.2637
0.0284194
13.8447
4.36365
387.982
36.9539
1.73666
278.993
138.258
56.304
15.2215
197.903
188.592
3.10801
37.2907
0.00360225
46.1093
44.3605
0.000743454
0.000711096
0.356888
0.000748438
0.000775586
57.3453
298.67
0.000744611
83.5395
0.000744924
0.000736799
0.000740818
0.000752972
0.00181574
29.7088
46.9086
252.443
0.000718842
0.00106382
6.54171
0.000855089
0.0283905
0.000762784
0.000866303
165.185
0.000983122
0.0046783
184.492
0.00425897
0.000749444
184.07
0.000745366
0.000760518
1.50233
0.000870664
6.60142
0.00124003
0.024153
0.000743842
0.000753576
309.207
431.82
45.007
0.0239595
106.636
15.6859
0.00130305
27.7299
309.747
235.826
477.282
0.000700816
27.9979
55.5211
0.261594
28.55
100.655
0.35139
31.7562
1.0457
28.4312
0.288321
7.31097
0.000757624
228.277
0.000757249
28.6412
31.4131
0.000747865
0.91751
0.00245692
0.0292466
0.000726526
3.86299
0.000893716
0.000741933
40.4419
0.0362337
0.164992
231.167
153.094
0.000819361
0.000968691
29.6318
265.417
0.000690358
0.000753953
0.203451
24.3579
145.129
0.0020985
15.4521
0.000745425
0.00081818
0.000718505
0.0279628
24.6409
0.00410079
276.33
29.842
263.394
175.761
0.000843061
307.75
65.2326
0.000732727
0.000754065
0.000750338
0.00115935
0.000740211
122.479
0.00074539
0.000750357
357.032
1.19015
0.00267798
0.0348455
56.8207
7.32488
0.00775651
0.000823972
187.473
0.000762692
6.73202
0.000755048
0.000845536
165.687
171.156
0.00334726
0.000835522
3.96303
0.000744253
376.032
0.000753092
156.151
0.0270882
8.75745
0.117128
3.31255
1.98621
30.1535
0.000760955
0.000859942
0.00489725
62.3931
0.294699
308.425
0.000747039
0.00124367
0.00164187
261.171
60.8075
274.644
0.00226331
0.00351789
0.823697
0.000751311
20.0821
36.8473
0.00877693
270.063
179.381
42.1752
0.00154691
1.42992
171.833
230.588
27.9344
0.0105871
117.869
0.541285
137.94
0.144533
2.25906
44.4168
0.000761953
28.5189
0.00122367
0.00509221
0.00620952
0.0477885
0.000906992
10.7144
0.000745954
46.6104
0.132321
0.000867634
1.61719
0.000756578
0.763486
0.227629
40.2316
3.89324
93.1157
0.797386
0.000748388
0.000732236
4.71703
0.160199
42.3375