/*--------------------------------*- C++ -*----------------------------------*\
| =========                 |                                                 |
| \\      /  F ield         | OpenFOAM: The Open Source CFD Toolbox           |
|  \\    /   O peration     | Version:  2.3.1                                 |
|   \\  /    A nd           | Web:      www.OpenFOAM.org                      |
|    \\/     M anipulation  |                                                 |
\*---------------------------------------------------------------------------*/
FoamFile
{
    version     2.0;
    format      ascii;
    class       volScalarField;
    location    "0.87";
    object      p;
}
// * * * * * * * * * * * * * * * * * * * * * * * * * * * * * * * * * * * * * //

dimensions      [0 2 -2 0 0 0 0];

internalField   nonuniform List<scalar> 
9648
(
0.0712284
-0.153302
-0.428613
-0.772356
-1.19395
-1.70334
-2.3117
-3.02777
-3.85864
-4.82252
-5.93069
-7.19619
-8.63176
-10.2483
-12.0554
-14.0632
-16.28
-18.7146
-21.3705
-24.2524
-27.3652
-30.7057
-34.2737
-38.0647
-42.0743
-46.2931
-50.7104
-55.3174
-60.0968
-65.0395
-70.125
-75.338
-80.6629
-86.075
-91.5628
-97.0983
-102.668
-108.252
-113.825
-119.367
-124.854
-130.278
-135.6
-140.812
-145.901
-150.834
-155.601
-160.182
-164.584
-168.774
-172.715
-176.411
-179.865
-183.046
-185.957
-188.582
-190.909
-192.943
-194.661
-196.077
-197.178
0.646382
0.415899
0.135852
-0.2038
-0.620029
-1.11301
-1.6951
-2.38112
-3.18328
-4.11031
-5.17347
-6.38476
-7.75544
-9.29613
-11.0168
-12.9267
-15.0336
-17.3447
-19.8649
-22.5985
-25.5484
-28.7142
-32.0947
-35.6857
-39.4821
-43.4761
-47.6582
-52.0182
-56.5429
-61.22
-66.033
-70.9662
-76.0037
-81.1259
-86.3162
-91.5544
-96.8235
-102.104
-107.374
-112.615
-117.806
-122.931
-127.963
-132.89
-137.691
-142.347
-146.841
-151.156
-155.277
-159.2
-162.915
-166.403
-169.652
-172.652
-175.388
-177.855
-180.036
-181.941
-183.547
-184.857
-185.856
0.471069
0.256056
0.00025963
-0.312448
-0.686353
-1.1422
-1.68677
-2.33157
-3.08702
-3.96628
-4.97995
-6.14011
-7.45763
-8.94263
-10.605
-12.4534
-14.4957
-16.7382
-19.1858
-21.8426
-24.7112
-27.7917
-31.0826
-34.58
-38.2783
-42.1699
-46.2461
-50.4964
-54.9087
-59.4701
-64.1652
-68.9783
-73.8935
-78.8931
-83.9594
-89.0738
-94.2188
-99.3753
-104.524
-109.644
-114.719
-119.727
-124.649
-129.468
-134.166
-138.725
-143.128
-147.359
-151.402
-155.245
-158.877
-162.287
-165.468
-168.397
-171.079
-173.492
-175.645
-177.506
-179.083
-180.375
-181.386
0.705661
0.489194
0.229913
-0.0805613
-0.451219
-0.89316
-1.41712
-2.03455
-2.75695
-3.59672
-4.56584
-5.67593
-6.93779
-8.36145
-9.95722
-11.7331
-13.6967
-15.8541
-18.2097
-20.7675
-23.53
-26.4969
-29.6673
-33.0364
-36.5988
-40.3469
-44.2719
-48.3644
-52.6123
-57.0026
-61.5213
-66.1524
-70.8804
-75.6896
-80.5618
-85.4793
-90.4256
-95.3816
-100.329
-105.25
-110.125
-114.936
-119.662
-124.287
-128.795
-133.166
-137.387
-141.441
-145.315
-148.997
-152.474
-155.736
-158.776
-161.577
-164.133
-166.433
-168.473
-170.239
-171.731
-172.942
-173.873
0.763183
0.579779
0.352771
0.0729945
-0.267399
-0.677698
-1.16761
-1.74772
-2.43017
-3.22595
-4.14786
-5.20608
-6.41171
-7.77374
-9.30335
-11.0073
-12.8931
-14.9667
-17.2309
-19.6906
-22.3483
-25.2029
-28.2545
-31.4969
-34.925
-38.5313
-42.3066
-46.2432
-50.3284
-54.5501
-58.8951
-63.3464
-67.8904
-72.5126
-77.1945
-81.9188
-86.6712
-91.4314
-96.1835
-100.911
-105.594
-110.214
-114.752
-119.194
-123.52
-127.715
-131.764
-135.652
-139.366
-142.894
-146.226
-149.352
-152.264
-154.951
-157.401
-159.604
-161.551
-163.238
-164.665
-165.824
-166.712
0.853224
0.685669
0.478538
0.221715
-0.0918189
-0.472473
-0.929459
-1.47321
-2.11658
-2.86924
-3.74526
-4.75292
-5.90418
-7.20516
-8.67023
-10.3035
-12.1121
-14.1026
-16.2748
-18.6354
-21.1878
-23.9281
-26.8605
-29.9743
-33.2657
-36.7273
-40.348
-44.1248
-48.0425
-52.0893
-56.2555
-60.5201
-64.872
-69.3003
-73.7839
-78.3057
-82.8554
-87.4101
-91.9566
-96.4811
-100.963
-105.383
-109.722
-113.968
-118.102
-122.109
-125.976
-129.685
-133.228
-136.592
-139.768
-142.746
-145.52
-148.081
-150.416
-152.511
-154.357
-155.954
-157.304
-158.398
-159.232
0.943412
0.792746
0.604684
0.36904
0.0805491
-0.272473
-0.69856
-1.20707
-1.81302
-2.5235
-3.35567
-4.31456
-5.41371
-6.65365
-8.05578
-9.61881
-11.3499
-13.2581
-15.3374
-17.5961
-20.0428
-22.6657
-25.4787
-28.4633
-31.615
-34.9296
-38.3896
-42.0032
-45.7492
-49.6149
-53.5999
-57.6734
-61.8238
-66.0525
-70.3344
-74.6447
-78.9853
-83.327
-87.6586
-91.9747
-96.2493
-100.466
-104.596
-108.639
-112.575
-116.387
-120.065
-123.588
-126.951
-130.142
-133.158
-135.979
-138.607
-141.04
-143.258
-145.242
-146.98
-148.476
-149.744
-150.775
-151.553
1.02788
0.895121
0.728307
0.512798
0.24985
-0.0770622
-0.474739
-0.946095
-1.51772
-2.18414
-2.9769
-3.88688
-4.94271
-6.11401
-7.45635
-8.95133
-10.6007
-12.4335
-14.4188
-16.5652
-18.9154
-21.4083
-24.1101
-26.9669
-29.9697
-33.145
-36.4269
-39.8764
-43.4537
-47.1226
-50.9381
-54.8187
-58.7433
-62.7723
-66.8669
-70.9368
-75.0681
-79.1944
-83.2916
-87.4056
-91.4633
-95.4852
-99.3844
-103.214
-106.964
-110.564
-114.062
-117.378
-120.565
-123.563
-126.426
-129.069
-131.533
-133.843
-135.956
-137.812
-139.445
-140.816
-142.002
-142.985
-143.697
1.11317
0.988882
0.858524
0.647882
0.421248
0.109395
-0.266175
-0.673313
-1.24252
-1.83027
-2.62041
-3.44984
-4.51755
-5.55279
-6.87836
-8.32284
-9.84779
-11.6506
-13.5195
-15.521
-17.8574
-20.1354
-22.7903
-25.4932
-28.3255
-31.4382
-34.4594
-37.779
-41.225
-44.6198
-48.3354
-51.9943
-55.6545
-59.5349
-63.4892
-67.146
-71.1744
-75.0826
-78.8902
-82.8611
-86.6274
-90.5277
-94.1154
-97.8027
-101.419
-104.695
-108.117
-111.12
-114.195
-116.889
-119.664
-122.028
-124.353
-126.618
-128.608
-130.274
-131.897
-133.045
-134.224
-135.16
-135.738
-197.94
-198.38
-198.501
-198.293
-197.778
-196.944
-195.796
-194.333
-192.545
-190.46
-188.054
-185.343
-182.361
-179.113
-175.59
-171.806
-167.768
-163.504
-159.005
-154.285
-149.377
-144.268
-138.982
-133.532
-127.944
-122.226
-116.362
-110.389
-104.312
-98.1661
-91.9502
-85.6852
-79.3926
-73.0726
-66.7535
-60.4374
-54.1475
-47.8959
-41.6908
-35.549
-29.4821
-23.5134
-17.6402
-11.8829
-6.25553
-0.760396
4.5867
9.77756
14.7971
19.6385
24.2971
28.7619
33.0219
37.0759
40.9132
44.529
47.918
51.0749
53.9994
56.6869
59.1373
-186.543
-186.9
-186.985
-186.766
-186.247
-185.437
-184.326
-182.919
-181.205
-179.194
-176.885
-174.289
-171.443
-168.351
-165.002
-161.398
-157.554
-153.484
-149.192
-144.692
-140.002
-135.126
-130.08
-124.873
-119.521
-114.035
-108.447
-102.757
-96.9746
-91.1162
-85.1945
-79.225
-73.2227
-67.1996
-61.1719
-55.149
-49.1469
-43.1796
-37.2583
-31.3958
-25.6054
-19.9028
-14.2954
-8.79663
-3.41883
1.83106
6.94178
11.9028
16.7024
21.3332
25.7887
30.0598
34.1372
38.0177
41.6921
45.1558
48.4019
51.4282
54.2315
56.8089
59.1593
-182.1
-182.54
-182.64
-182.432
-181.936
-181.164
-180.069
-178.679
-176.966
-174.959
-172.685
-170.145
-167.326
-164.238
-160.901
-157.327
-153.523
-149.502
-145.272
-140.845
-136.234
-131.448
-126.498
-121.396
-116.152
-110.778
-105.292
-99.7083
-94.0377
-88.2943
-82.4917
-76.6448
-70.7673
-64.8729
-58.9747
-53.0843
-47.2148
-41.3791
-35.5901
-29.8604
-24.2028
-18.6307
-13.1539
-7.78424
-2.53218
2.59379
7.58297
12.4251
17.1099
21.6302
25.9776
30.145
34.1245
37.9115
41.4981
44.8791
48.0491
51.0045
53.7425
56.26
58.5571
-174.517
-174.886
-174.956
-174.733
-174.211
-173.374
-172.255
-170.909
-169.306
-167.434
-165.279
-162.86
-160.176
-157.236
-154.051
-150.629
-146.981
-143.117
-139.049
-134.789
-130.35
-125.741
-120.974
-116.058
-111.005
-105.827
-100.539
-95.1549
-89.6865
-84.1465
-78.5479
-72.9057
-67.2337
-61.5459
-55.8531
-50.1674
-44.5007
-38.865
-33.2737
-27.739
-22.2735
-16.8897
-11.5981
-6.40952
-1.33372
3.62151
8.44488
13.1271
17.6571
22.0297
26.2353
30.267
34.1191
37.7854
41.2606
44.5366
47.6108
50.477
53.1338
55.5775
57.8091
-167.324
-167.664
-167.724
-167.508
-167.01
-166.232
-165.205
-163.845
-162.239
-160.387
-158.278
-155.918
-153.31
-150.462
-147.381
-144.074
-140.547
-136.812
-132.88
-128.765
-124.479
-120.032
-115.432
-110.688
-105.812
-100.816
-95.7142
-90.5205
-85.2461
-79.9031
-74.502
-69.06
-63.5896
-58.1065
-52.6183
-47.1371
-41.6731
-36.2379
-30.8457
-25.5078
-20.236
-15.0438
-9.94051
-4.93695
-0.0423791
4.7385
9.39032
13.9081
18.2775
22.4966
26.5549
30.4451
34.1633
37.7022
41.0596
44.225
47.1982
49.9686
52.5391
54.9033
57.0644
-159.802
-160.107
-160.143
-159.912
-159.412
-158.65
-157.622
-156.332
-154.783
-152.987
-150.948
-148.665
-146.144
-143.396
-140.427
-137.239
-133.839
-130.236
-126.444
-122.48
-118.353
-114.074
-109.65
-105.084
-100.393
-95.5839
-90.6727
-85.677
-80.6037
-75.4646
-70.2659
-65.0305
-59.767
-54.4972
-49.2211
-43.952
-38.6981
-33.4699
-28.2839
-23.1492
-18.0776
-13.0838
-8.17476
-3.36307
1.34299
5.9452
10.4208
14.7703
18.9724
23.0333
26.9387
30.6813
34.2613
37.6662
40.9032
43.9529
46.8218
49.4921
51.9745
54.2541
56.3422
-152.078
-152.345
-152.357
-152.109
-151.61
-150.863
-149.857
-148.595
-147.092
-145.358
-143.39
-141.187
-138.755
-136.111
-133.259
-130.195
-126.926
-123.454
-119.803
-115.993
-112.031
-107.928
-103.687
-99.305
-94.8017
-90.1827
-85.4675
-80.6756
-75.8097
-70.8791
-65.8855
-60.8593
-55.8071
-50.7588
-45.7013
-40.6531
-35.6177
-30.6023
-25.6281
-20.7045
-15.8389
-11.0482
-6.33896
-1.72542
2.78604
7.20586
11.5014
15.6808
19.7104
23.6074
27.3543
30.9447
34.3807
37.6464
40.7606
43.6915
46.4565
49.0228
51.4131
53.6031
55.6165
-144.176
-144.394
-144.383
-144.109
-143.615
-142.882
-141.905
-140.652
-139.181
-137.524
-135.635
-133.509
-131.164
-128.627
-125.906
-122.968
-119.831
-116.485
-112.984
-109.334
-105.536
-101.616
-97.5753
-93.3743
-89.0633
-84.6378
-80.1262
-75.5431
-70.8799
-66.1625
-61.3683
-56.557
-51.7132
-46.9003
-42.0655
-37.2583
-32.4618
-27.6505
-22.889
-18.1958
-13.5311
-8.94353
-4.44744
-0.0299229
4.27261
8.51528
12.6229
16.6382
20.481
24.2117
27.7911
31.2165
34.5135
37.6307
40.6314
43.4377
46.1055
48.5532
50.8519
52.9408
54.8834
-136.173
-136.314
-136.29
-135.986
-135.502
-134.752
-133.819
-132.504
-131.109
-129.637
-127.756
-125.708
-123.417
-120.971
-118.48
-115.599
-112.588
-109.434
-106.056
-102.583
-98.8688
-95.1135
-91.3705
-87.2557
-83.1491
-78.994
-74.6221
-70.2835
-65.7177
-61.3302
-56.6122
-52.1386
-47.3918
-42.9143
-38.2635
-33.7262
-29.2289
-24.5056
-19.9637
-15.5482
-11.0031
-6.66845
-2.42325
1.87776
5.82632
10.0325
13.816
17.7845
21.3033
24.9421
28.371
31.5352
34.81
37.6639
40.6874
43.2424
45.9197
48.1003
50.4335
52.3222
54.3021
61.3517
63.3288
65.0691
66.5734
67.8411
68.8762
69.6829
70.2661
70.6301
70.7815
70.7434
70.5589
70.2188
69.6813
68.9756
68.1067
67.0361
65.7759
64.3481
62.7683
61.0484
59.1988
57.2318
55.1583
52.9909
50.7424
48.4261
46.0562
43.6452
41.2087
38.7599
36.314
33.8863
31.4902
29.1428
26.8568
24.6474
22.5289
20.5241
18.648
16.9258
15.3622
13.9706
12.7706
11.7765
10.9979
10.4438
10.1159
10.0084
10.1031
10.3666
10.7455
11.1624
11.5164
11.6869
11.0037
9.50751
7.99483
6.75636
5.83098
5.0172
61.2831
63.1809
64.8527
66.299
67.5198
68.5173
69.295
69.8567
70.2068
70.3472
70.2938
70.1059
69.781
69.2672
68.5803
67.7252
66.6809
65.456
64.0685
62.5326
60.8599
59.061
57.1477
55.1326
53.0272
50.8438
48.5947
46.2929
43.9509
41.5828
39.2017
36.8218
34.4574
32.1222
29.8313
27.5988
25.4391
23.3636
21.3793
19.5129
17.7727
16.1945
14.7862
13.561
12.531
11.7062
11.0949
10.6994
10.5142
10.5232
10.6958
10.9831
11.3107
11.5806
11.6197
10.975
9.65869
8.31688
7.25987
6.46116
5.63986
60.6327
62.4887
64.1244
65.5415
66.7393
67.7207
68.4888
69.0478
69.3999
69.5418
69.4995
69.3359
69.0334
68.5419
67.8802
67.0556
66.0542
64.8821
63.5528
62.079
60.4718
58.7416
56.9002
54.9591
52.9291
50.8225
48.651
46.427
44.1629
41.8719
39.567
37.2618
34.9698
32.7047
30.4803
28.3103
26.208
24.1853
22.2547
20.4375
18.7521
17.2094
15.8237
14.6054
13.5654
12.7134
12.0561
11.5944
11.3227
11.2262
11.2754
11.425
11.6016
11.705
11.5626
10.9081
9.75555
8.53471
7.51363
6.67719
5.84544
59.8264
61.632
63.2244
64.6067
65.7768
66.7386
67.4932
68.0459
68.395
68.5356
68.5095
68.3755
68.0967
67.6339
67.0019
66.2099
65.2514
64.1331
62.8637
61.4549
59.9169
58.2591
56.4941
54.6323
52.6838
50.6616
48.5761
46.4399
44.2642
42.0625
39.8467
37.6302
35.4256
33.2464
31.1054
29.0159
26.9906
25.0418
23.1826
21.4291
19.7961
18.2953
16.9379
15.7321
14.6879
13.8131
13.1117
12.5827
12.219
12.0056
11.9142
11.9022
11.9026
11.824
11.5319
10.8763
9.87268
8.77146
7.7769
6.9123
6.09024
59.0172
60.7685
62.3137
63.6581
64.7963
65.7356
66.4726
67.0155
67.3578
67.4982
67.4899
67.3855
67.1288
66.6957
66.0944
65.3371
64.4205
63.3553
62.1447
60.8009
59.3329
57.7478
56.0608
54.2805
52.4152
50.48
48.483
46.4375
44.3526
42.2428
40.1183
37.993
35.8777
33.7862
31.7297
29.7222
27.7746
25.8997
24.1084
22.415
20.8316
19.3704
18.041
16.8505
15.8048
14.9095
14.1669
13.5738
13.1215
12.7943
12.5657
12.3962
12.2295
11.9924
11.5938
10.9489
10.0663
9.08184
8.13178
7.25926
6.43279
58.2261
59.9217
61.416
62.7223
63.8259
64.7422
65.4597
65.9928
66.3276
66.473
66.4815
66.4042
66.168
65.765
65.194
64.4737
63.5982
62.5861
61.4334
60.1546
58.7575
57.2445
55.6363
53.9388
52.157
50.3107
48.403
46.4499
44.4564
42.44
40.4075
38.3743
36.3483
34.345
32.3728
30.4471
28.5768
26.7745
25.0486
23.413
21.8771
20.4531
19.1486
17.9695
16.9197
16.0013
15.216
14.559
14.0206
13.5862
13.2308
12.9205
12.6097
12.2443
11.7644
11.1225
10.3214
9.43181
8.53638
7.67701
6.84964
57.4279
59.0665
60.5072
61.7751
62.8426
63.7373
64.4357
64.959
65.2873
65.4419
65.4664
65.4141
65.1985
64.8248
64.2843
63.6021
62.7681
61.8099
60.7136
59.5008
58.1766
56.7361
55.2081
53.5938
51.8955
50.1406
48.3236
46.4647
44.5632
42.642
40.7028
38.7629
36.8263
34.9113
33.0228
31.1788
29.3857
27.6554
25.9926
24.4127
22.9216
21.5328
20.2514
19.0816
18.0255
17.0834
16.2567
15.5383
14.9185
14.3859
13.9174
13.4854
13.0539
12.5846
12.0385
11.3882
10.6328
9.809
8.96448
8.12982
7.31259
56.6108
58.1976
59.5768
60.8116
61.8356
62.714
63.3898
63.9072
64.2276
64.3998
64.4339
64.4081
64.2099
63.868
63.3552
62.7139
61.9173
61.0219
59.9734
58.8298
57.5837
56.2097
54.7719
53.2409
51.6182
49.9622
48.2342
46.4752
44.6614
42.8409
40.993
39.1508
37.3009
35.4765
33.6668
31.9064
30.1889
28.5329
26.929
25.4045
23.9518
22.5978
21.3368
20.1782
19.1145
18.148
17.2858
16.512
15.8169
15.1993
14.6318
14.0984
13.5662
13.0132
12.4098
11.7436
11.0084
10.2261
9.41769
8.60812
7.80781
55.8141
57.4594
58.6771
59.9858
60.8559
61.7966
62.343
62.9494
63.1815
63.4707
63.4124
63.4921
63.232
63.011
62.4492
61.922
61.061
60.3316
59.2809
58.2144
57.0813
55.6681
54.3913
52.9755
51.3415
49.859
48.1501
46.559
44.7611
43.1011
41.282
39.5898
37.7794
36.0948
34.309
32.6709
30.9861
29.4417
27.8582
26.424
24.9682
23.6757
22.4137
21.277
20.2083
19.2011
18.3199
17.4944
16.7235
16.0505
15.3864
14.7819
14.1548
13.5428
12.8796
12.2027
11.4639
10.7168
9.92346
9.126
8.34583
4.21929
3.4956
2.81733
2.13185
1.44585
0.799899
0.206863
-0.324055
-0.77182
-1.12892
-1.39206
-1.56698
-1.65566
-1.65358
-1.59037
-1.48897
-1.36378
-1.2348
-1.11626
-1.01503
-0.934009
-0.866454
-0.806291
-0.765539
-0.716151
-0.674539
-0.62862
-0.576356
-0.512284
-0.43584
-0.344601
-0.238281
-0.117358
0.0182869
0.165421
0.324314
0.489552
0.657117
0.8235
0.983331
1.13167
1.26289
1.37688
1.46864
1.53486
1.57567
1.59013
1.57957
1.54486
1.48917
1.4165
1.33025
1.2334
1.13172
1.02669
0.921381
0.815127
0.705815
0.589365
0.45896
0.297183
4.80434
4.11817
3.49986
2.86085
2.20438
1.58943
1.02558
0.515645
0.0856555
-0.253301
-0.496891
-0.642479
-0.690818
-0.656661
-0.574699
-0.46505
-0.339541
-0.214608
-0.10246
-0.00946478
0.0639668
0.118283
0.172368
0.194378
0.236148
0.26229
0.294584
0.332638
0.380984
0.441572
0.515905
0.604902
0.708952
0.827548
0.95879
1.09948
1.24736
1.39864
1.54922
1.69513
1.83205
1.95533
2.06022
2.14401
2.20402
2.23911
2.24892
2.23376
2.19482
2.13454
2.05597
1.96251
1.85705
1.74554
1.62907
1.51208
1.39339
1.27427
1.14904
1.01062
0.846752
5.04573
4.36446
3.73377
3.04616
2.33816
1.70478
1.11973
0.573358
0.105727
-0.272172
-0.559744
-0.756227
-0.864575
-0.901216
-0.865876
-0.782373
-0.655092
-0.515304
-0.390635
-0.288118
-0.207738
-0.141808
-0.100291
-0.0454394
-0.0174033
0.0220489
0.0602091
0.105545
0.160717
0.227381
0.306996
0.400574
0.508296
0.629369
0.762115
0.904083
1.05209
1.20247
1.35116
1.49376
1.62591
1.7436
1.84317
1.92134
1.97554
2.00464
2.00831
1.98757
1.94412
1.88085
1.80112
1.70921
1.60911
1.50467
1.39904
1.29477
1.19071
1.08366
0.967703
0.832809
0.665561
5.31418
4.62162
3.96031
3.25436
2.54745
1.91476
1.31272
0.742047
0.270043
-0.101177
-0.387571
-0.578961
-0.671546
-0.680282
-0.611279
-0.481677
-0.337502
-0.22021
-0.105352
-0.00290138
0.0804386
0.145017
0.190702
0.233757
0.260516
0.288117
0.315345
0.347789
0.388299
0.439053
0.501849
0.578396
0.669229
0.773645
0.890098
1.01642
1.14963
1.28649
1.42306
1.55541
1.6793
1.79099
1.88684
1.96399
2.01998
2.05377
2.06492
2.05433
2.02331
1.97452
1.91028
1.83414
1.74875
1.65705
1.55971
1.45861
1.35573
1.25157
1.14134
1.01728
0.877777
5.65267
4.93075
4.23613
3.52061
2.81174
2.15321
1.52389
0.946666
0.473588
0.0881215
-0.224666
-0.432132
-0.534543
-0.560841
-0.517944
-0.424964
-0.313141
-0.182784
-0.0666111
0.032684
0.109918
0.170029
0.215773
0.255661
0.286579
0.315834
0.34539
0.379672
0.420716
0.469781
0.529391
0.601169
0.685838
0.782589
0.890435
1.00708
1.1302
1.25658
1.38281
1.50525
1.62
1.72379
1.81294
1.8851
1.93755
1.96952
1.97999
1.97002
1.94003
1.89262
1.82971
1.7548
1.67118
1.58162
1.48873
1.40112
1.31587
1.2282
1.13492
1.03297
0.911275
6.0559
5.30059
4.5726
3.8458
3.13066
2.45072
1.80512
1.21487
0.713462
0.29646
-0.0313204
-0.243899
-0.365475
-0.415351
-0.381757
-0.287282
-0.169214
-0.0476911
0.0628794
0.149466
0.213672
0.263261
0.301272
0.33425
0.359991
0.384096
0.407739
0.436437
0.470572
0.51142
0.561782
0.623868
0.698007
0.783652
0.87966
0.984389
1.09497
1.20905
1.32307
1.43428
1.53855
1.63361
1.71536
1.78254
1.83182
1.86338
1.87548
1.87016
1.84698
1.8091
1.7579
1.6972
1.63026
1.56108
1.49357
1.42056
1.34719
1.27263
1.19189
1.09977
0.988611
6.51555
5.74176
4.98838
4.24806
3.52426
2.83335
2.18021
1.58202
1.05603
0.611713
0.260453
0.0162622
-0.139138
-0.202367
-0.171599
-0.0896037
0.0168998
0.126413
0.224806
0.299211
0.343334
0.377577
0.401911
0.425266
0.441186
0.457857
0.472949
0.494425
0.520982
0.551447
0.592255
0.643573
0.707221
0.781321
0.865931
0.958085
1.05663
1.15813
1.26024
1.36031
1.45448
1.54097
1.61551
1.67795
1.72389
1.75503
1.76854
1.76767
1.75077
1.72204
1.6815
1.63357
1.58
1.52336
1.46603
1.40966
1.35324
1.29572
1.23186
1.15659
1.0619
7.01791
6.24231
5.4802
4.73741
4.00924
3.32026
2.66963
2.07907
1.547
1.09068
0.720948
0.449173
0.250132
0.158713
0.15407
0.199856
0.292064
0.369325
0.436775
0.490899
0.504983
0.514034
0.514938
0.528419
0.530143
0.539184
0.540634
0.55523
0.573904
0.590891
0.620412
0.662027
0.717373
0.780874
0.854417
0.936085
1.02281
1.11339
1.20489
1.29643
1.3812
1.46108
1.52845
1.58769
1.62948
1.6606
1.67411
1.67736
1.66448
1.64307
1.60929
1.5707
1.52856
1.48278
1.43714
1.39268
1.34999
1.30864
1.26141
1.20469
1.12728
7.5549
6.79839
6.03227
5.29367
4.56756
3.89925
3.26467
2.71878
2.19559
1.75715
1.40318
1.14851
0.874321
0.751187
0.714894
0.690473
0.743403
0.667652
0.670481
0.747166
0.693363
0.677139
0.629258
0.663131
0.62555
0.641077
0.602667
0.616307
0.640655
0.633674
0.639238
0.680305
0.734184
0.783144
0.84851
0.920709
0.995456
1.07919
1.162
1.25444
1.3239
1.40882
1.45867
1.52736
1.55367
1.59453
1.59289
1.61457
1.59169
1.58495
1.54549
1.50905
1.47914
1.44272
1.40928
1.37402
1.34167
1.31742
1.28268
1.25096
1.18424
4.9375
-4.29435
-5.62137
14.9021
5.8109
19.4966
18.0572
10.8431
11.601
29.0966
1.61514
23.8377
18.166
2.64779
21.79
-102.106
20.6027
12.1755
1.42171
17.5087
15.1381
3.00626
0.929522
20.1713
11.5062
17.0963
17.5721
9.50919
20.3531
6.9128
10.5044
16.7512
28.4332
1.54752
23.1246
0.819507
0.693027
57.3585
18.7041
17.609
7.65316
-2.83547
18.0815
-88.088
0.527439
31.7177
11.634
3.09395
16.2444
25.4718
-3.32093
-45.2462
17.1602
9.57905
13.9854
16.3064
7.02018
7.5837
0.87842
-30.8742
3.8816
15.5664
17.2002
-8.08894
-25.4219
14.9258
0.768174
8.76872
18.8912
18.1415
15.4504
59.5683
6.51424
13.4536
13.3744
6.24976
-12.3487
44.5276
17.2102
28.2136
-0.677204
16.6054
16.7864
-36.4915
18.0326
50.2461
12.0713
1.69541
15.39
1.66896
-13.7864
17.2005
5.20258
-31.3038
-36.8128
5.70239
44.2755
10.0304
25.4867
-101.296
14.5523
16.201
24.995
17.0905
18.1613
17.0593
15.1016
39.7403
19.8024
-77.7203
-108.913
15.9921
0.62255
1.41645
5.96033
2.03122
1.07676
19.5505
-7.58318
11.3599
12.9295
0.297245
11.352
-117.623
-26.0831
10.6363
15.3666
-47.0593
-34.8485
17.8871
21.2527
-7.92312
5.65048
11.0356
2.47304
10.8349
18.0672
-52.5824
-30.3337
11.7282
9.64065
-52.6516
14.8373
49.0457
1.50449
12.517
16.6969
1.51642
31.8253
-0.671954
16.3019
16.327
59.1378
-33.4194
-58.9221
8.92584
8.34055
-27.7986
16.6815
0.66925
16.7348
26.4143
17.4508
12.5766
14.9754
13.216
7.00002
9.63052
17.1837
0.263067
-1.52857
1.51153
5.85223
17.414
1.37909
1.41196
1.20816
8.92225
22.4757
2.05966
1.89462
-1.28678
-30.8976
9.78509
6.52504
0.861184
-10.4137
52.16
9.88928
11.93
25.4174
20.2694
-16.5085
-39.1209
16.6935
-31.6055
4.30335
0.360485
21.3323
0.722318
9.91354
15.0462
13.5252
-58.6869
-1.64127
20.8646
8.55291
16.1411
-45.4186
0.814393
41.2003
-5.70655
16.4346
-117.181
11.0849
-77.5378
-65.1606
1.73125
33.4138
1.7569
11.4318
40.152
12.0586
16.7887
1.07762
-7.63167
-9.18622
11.7851
17.0059
59.7622
1.32137
21.4183
-5.18502
-37.5944
13.6967
19.327
3.19856
-57.1617
-46.586
19.323
13.4092
8.76129
10.973
16.018
-123.386
16.6159
8.40463
-98.4878
23.9526
17.3247
8.90975
23.7476
1.38227
8.50038
11.4053
18.7049
25.2943
15.3573
6.57456
1.97221
15.7231
9.58863
-64.1689
18.5797
0.635253
12.8364
17.5808
1.18759
17.6054
0.97638
23.9868
1.28597
22.8597
11.4605
52.918
9.98611
14.351
10.8307
16.0354
20.7534
50.3235
9.66794
-71.8782
15.3546
14.9423
18.675
17.1191
-61.6374
8.02197
7.99439
-26.0219
40.5655
14.4793
17.0547
35.0792
17.4519
9.59002
4.87117
-0.56302
16.4077
11.0069
5.54208
48.6317
-3.71992
5.37505
-78.4275
21.8643
18.6853
19.436
-100.462
9.83576
11.9609
11.547
-12.4337
16.5152
14.2306
0.890316
1.29804
7.11504
1.93408
16.5615
3.52583
15.4306
15.0759
-26.2699
1.9034
15.6127
0.963608
-90.3955
6.38862
-27.1148
-43.9405
-101.001
2.15481
1.54904
16.9152
0.663666
0.959722
-123.984
35.1304
15.0947
14.8434
12.0648
11.5887
49.7751
11.3286
-9.26111
18.8228
-70.4813
15.0202
1.41357
-45.3202
-113.664
10.73
-61.7741
8.7332
2.8045
14.521
1.66377
2.48237
10.1885
0.535166
1.00477
-6.53601
0.90771
16.1667
6.84655
-113.682
-33.6885
3.81577
16.6459
-25.8217
-49.3779
12.7228
1.64611
15.7834
-5.39646
7.12114
1.56674
-73.73
0.980046
-79.5842
20.2977
-89.0594
11.3197
4.80957
21.0649
1.26906
-117.17
-27.5731
47.4293
50.1813
3.33202
0.740345
17.304
30.285
16.812
-0.124349
12.1227
-10.0696
17.3487
18.8575
21.9774
21.3752
-7.59089
-46.6164
12.1068
-82.9033
0.397201
-11.0413
1.99652
-61.8148
-1.73661
18.8126
-123.986
9.784
9.46137
23.3982
-52.7854
17.1379
18.2557
1.47974
17.7598
10.0306
14.4052
1.21409
35.9326
-26.0211
-51.4857
9.54566
-60.9712
9.16046
-54.2214
16.9001
15.743
0.968946
4.01822
-93.0099
-1.50981
1.56653
-10.7515
-61.8702
-59.4671
18.277
5.7971
-41.354
-49.9567
17.1295
2.69478
-31.4532
22.8906
13.0585
36.5355
-39.7788
-0.206877
-9.56913
0.503817
9.15618
-89.6548
2.39353
10.514
19.9106
47.0169
3.83349
44.1298
2.14549
17.4688
1.67377
1.53053
13.7962
12.421
0.317964
1.29533
16.8669
2.50355
1.5164
2.57315
1.49557
2.01819
1.423
8.11546
4.93965
15.8975
15.7419
-110.673
9.96869
-67.3707
-106.823
16.2757
0.666322
2.24446
19.1504
3.96363
1.3997
16.3814
17.0295
15.2651
5.25025
-37.4346
10.4325
26.5764
13.697
14.0045
15.6138
5.43927
0.72626
13.5568
19.2732
9.64763
1.48751
13.9209
13.6382
-12.6317
12.7899
-0.131276
-3.30416
-4.17476
17.2496
20.0417
9.48807
22.4187
3.38919
2.82395
48.7289
-21.5595
-4.97503
21.9557
8.27474
1.26228
1.49909
-80.1375
-26.7342
20.992
3.24617
10.4344
0.761491
-20.9983
18.7292
12.174
-27.241
-82.1173
12.772
-17.3098
-54.0469
4.68456
-105.216
9.39515
9.52356
9.17906
-31.6357
14.0332
-80.7166
-2.02768
13.1136
0.986691
17.3446
-0.227792
15.0044
12.8671
31.8208
2.86344
0.921926
14.9134
7.08778
0.729683
-46.3021
-30.016
8.16408
-33.5557
4.84021
28.7483
1.57813
9.48652
-95.5122
10.0014
8.61443
14.4593
1.4474
52.2035
1.6553
8.08871
8.61255
1.41461
1.15397
13.672
15.7219
16.0461
9.61626
10.3155
29.2872
-76.1395
8.30405
17.8818
-31.5567
0.693149
-86.8282
13.7072
0.727293
17.7321
-55.1776
4.34462
-20.9504
0.882917
0.848772
2.8227
-105.938
20.5932
17.401
6.64141
16.1515
-26.712
-22.3061
-6.32043
10.094
9.16324
5.07891
16.4052
-0.162896
0.694971
16.267
23.2487
1.47935
-58.0472
20.9749
1.64681
20.5676
-8.24904
17.2994
36.3842
6.75229
29.5957
18.5537
-30.0367
-20.9863
-4.46474
19.1178
10.6566
-32.3394
16.2044
12.5936
4.53855
5.6811
0.770158
-30.33
40.613
4.2529
2.04294
1.02688
-89.1806
9.64089
23.3779
15.7585
1.01623
5.54396
-22.6782
14.5403
12.4297
6.13633
1.35186
-6.92776
15.2951
2.13907
11.0367
-20.9536
1.39997
39.1591
0.89682
0.162044
8.39713
57.2929
17.043
16.789
1.31304
10.3053
6.95379
8.92966
10.0992
-115.665
2.49495
-34.795
30.603
17.498
8.57124
19.3868
-6.15757
-10.8083
1.36433
4.02154
1.47536
12.9626
-2.50154
18.626
-88.5065
16.835
6.71346
2.07174
-3.39896
2.86074
-6.77314
10.709
3.31449
0.89026
19.2842
-120.669
15.465
17.1577
10.8665
-4.12555
18.9559
3.9298
-21.2648
15.5892
-13.4896
-97.2445
17.5406
8.97757
14.643
-63.1599
-6.40797
15.8756
42.8971
12.661
9.16503
11.6493
-110.905
-125.971
16.5007
-1.29838
-11.8505
1.49449
17.8498
7.01517
-11.3535
13.8086
15.4134
0.107741
18.5866
19.6811
8.61375
14.9189
-2.95764
13.4077
-5.50107
23.1152
1.73048
-4.3736
42.6447
1.17437
6.77889
21.9632
4.09764
-44.7249
24.4472
-83.6942
20.9334
1.307
-19.5057
10.2212
-9.34037
0.745917
12.9652
13.1853
-93.4907
-39.9075
13.5683
-64.6341
-8.6186
53.7023
-15.7144
-19.8484
21.5944
0.727269
5.99045
11.9405
-55.1251
-22.4881
-4.63403
-4.09485
-6.55273
0.940024
22.6664
19.0608
13.4387
-121.555
-44.1342
27.5786
2.27536
-112.031
11.2352
14.4866
10.2944
1.16525
4.87306
1.23336
-14.4634
21.3989
-121.139
-17.1657
-85.7006
-98.2405
18.8912
25.381
-43.5787
26.1456
14.5912
12.3355
11.1004
10.4135
26.1137
17.9813
2.31457
-51.5089
-30.1172
24.5327
2.32015
3.60294
13.8716
1.44582
12.9835
-53.4177
1.33567
49.2779
5.42736
22.3372
11.6193
18.6473
15.8029
-76.7455
13.2038
44.7733
0.934438
0.832955
32.3565
61.2182
12.6178
13.3198
25.1103
-50.4883
-15.2568
17.3344
10.1171
-91.3616
27.5376
17.46
-62.9639
15.8179
3.59612
1.42093
6.17231
-16.2212
53.8366
0.659709
-8.48752
-0.163311
17.8672
0.430132
9.62397
14.948
17.3538
12.3032
0.931448
17.3338
0.571809
30.2365
0.21844
11.2888
10.2882
16.7348
8.52396
-49.5792
9.85679
18.1964
-29.074
-70.5613
34.173
1.5856
7.5945
16.8573
34.4469
-84.476
9.57214
-2.8881
11.0696
16.386
-88.1932
17.2939
9.81721
49.9843
29.9726
-19.4499
4.29483
15.9385
17.2355
-66.3103
-4.2975
10.2274
14.9366
1.284
17.5914
-127.698
7.31417
0.830895
10.6347
18.8155
0.192514
14.7806
23.0466
24.8306
4.52502
-0.426891
17.8317
20.7257
17.5539
20.3475
10.8758
18.1976
-70.3773
2.50119
18.1605
-25.5626
14.1719
7.3145
19.6734
11.7227
-62.1175
10.8588
5.14979
18.9355
-20.6467
16.8012
-24.6411
-104.069
1.67046
1.22892
-47.5997
16.2505
18.4722
-21.3445
-104.371
1.2025
-14.1539
15.9637
-82.5105
13.4604
16.6803
18.3114
-17.9062
7.09762
9.60764
-28.4377
17.3462
8.65602
-84.8561
10.4301
-119.225
47.2749
11.7447
18.2929
6.45769
16.8915
-9.09347
-6.23992
20.1507
-18.109
5.83319
12.9337
-38.0492
4.57704
17.5974
-49.1687
14.9339
1.88123
-67.3883
-13.5075
17.278
19.3633
14.816
62.2243
8.71813
-2.23758
-23.7662
15.707
-11.6798
15.4387
5.40102
15.6169
0.81002
9.95362
0.654286
-13.8834
58.9864
7.42936
59.3471
6.67121
12.8708
3.99543
20.1935
-9.35459
17.8912
11.2063
1.46041
59.8376
16.9244
9.2198
-8.43698
0.61348
-108.808
15.9651
-5.57904
10.6184
-21.6085
-61.6385
1.02213
-73.4011
9.62936
2.74569
-25.1633
18.4084
15.8214
14.0656
12.4017
21.4936
16.3
12.6888
17.6878
1.23268
-67.8446
17.6932
20.3022
17.7548
8.04406
-72.9836
1.27616
-24.0256
15.808
-43.2957
0.866152
25.0146
-67.2614
17.1054
0.76075
40.1493
1.45988
22.7568
4.0807
1.69181
16.0968
10.5577
-107.294
13.8143
-0.980341
-39.1298
1.44936
15.8374
11.0712
30.9816
2.86112
1.35768
-79.0007
15.9692
16.556
17.0697
-19.9867
-35.8685
14.0344
12.6899
15.2043
1.23727
1.63089
49.3286
0.496248
-65.594
2.17182
-58.9929
0.660027
0.706283
32.2865
51.0462
13.0816
60.1229
45.5571
18.4139
17.6805
6.34582
14.5813
18.6175
2.29871
1.94365
19.7468
1.7403
10.3558
19.2414
9.11018
18.5784
28.8316
1.56111
-5.48891
-120.653
17.9284
12.1681
-50.5648
7.77494
22.4428
14.1112
11.0345
2.17641
17.4339
-2.16005
1.85113
30.4475
12.8878
0.913322
16.8375
17.5102
15.7224
5.84219
15.6094
17.0578
-3.51359
18.583
20.6805
-76.1262
-28.2839
-18.4817
14.75
1.51603
-50.5915
17.1235
1.56744
1.10197
-125.966
0.688692
16.8374
8.72557
31.3832
-1.01291
1.25926
9.23115
46.4238
1.63631
16.249
1.11664
16.7061
53.9267
14.2782
-20.705
16.9
0.978264
-69.4707
15.763
42.4388
4.22045
13.1274
18.819
29.6041
11.0566
19.7882
1.9908
16.2899
10.7697
-123.122
4.33987
18.7012
20.0171
-65.0016
-82.0883
16.8815
18.2182
12.588
11.3274
-59.4322
24.6571
-58.7729
17.9017
11.3969
17.4151
-11.9982
5.86499
17.4941
0.673003
1.47067
-89.1455
-62.0209
8.31032
-2.59051
-74.6345
18.3465
18.4788
18.5302
7.55687
19.0029
2.21324
18.2888
9.63612
-1.51327
-25.0943
2.49421
12.8093
1.45346
36.3164
16.7984
19.6969
-103.987
15.6509
15.6306
20.1596
12.5507
-73.4459
-6.88431
1.7118
17.2879
17.1192
17.7689
-3.84152
20.3122
-17.6114
8.45163
8.25168
13.6052
9.53766
15.7122
10.932
10.7219
9.85155
-1.61901
-10.3887
2.825
-86.46
11.9606
16.8371
1.0157
-91.0568
41.2217
2.70972
23.7482
16.0253
13.0798
11.9294
16.79
60.8357
-8.2016
1.03775
-94.75
16.9716
27.961
-37.0764
3.65366
-51.358
1.31501
30.9878
1.49552
16.7686
-22.6846
-13.212
-38.0848
-8.48554
17.8794
1.48134
7.81879
22.5715
13.3284
19.6195
8.92745
56.7685
20.5497
16.7424
43.9627
10.8404
15.7551
18.5279
20.4948
-10.5645
1.27913
9.74312
11.7149
-16.5436
13.9853