/*--------------------------------*- C++ -*----------------------------------*\
| =========                 |                                                 |
| \\      /  F ield         | OpenFOAM: The Open Source CFD Toolbox           |
|  \\    /   O peration     | Version:  2.3.1                                 |
|   \\  /    A nd           | Web:      www.OpenFOAM.org                      |
|    \\/     M anipulation  |                                                 |
\*---------------------------------------------------------------------------*/
FoamFile
{
    version     2.0;
    format      ascii;
    class       volScalarField;
    location    "100";
    object      sigmaEq;
}
// * * * * * * * * * * * * * * * * * * * * * * * * * * * * * * * * * * * * * //

dimensions      [1 -1 -2 0 0 0 0];

internalField   nonuniform List<scalar> 
11800
(
73534.1
78394
46235.1
57871.3
75015.6
63484.8
76043.2
61571
71129.6
49625.5
73814.8
50203.9
13621.2
46936.8
60238.1
104503
75497.4
61156.8
77287.1
47590.2
60778.1
53550.3
121872
110311
85942.3
111982
42874.8
62375.4
49200.2
57695.1
67992.9
101743
95510.7
83615.3
81469.2
66386.5
78839.7
97538.2
79313.5
53646
45828.9
52357.8
67625.9
61569.5
70914.3
99695
110885
112098
78455.7
52838.3
47740.8
54869
87020
113085
102446
219101
49302.7
52990.2
59499
45180.8
186121
87689.1
51257.5
60811.6
85928.9
63395.1
47403.3
51724.1
52878.1
102506
84985.4
75285.4
71694.3
300568
180623
70882.7
73834.9
56685.9
75550.2
78455.4
109545
55109.6
71674.2
75393.2
57262.5
65759.7
72664.4
50369.5
48292
65102.6
81989.3
101649
76499.5
51522.2
53257.8
23219.4
2902.56
22715
83643
48593.3
62474.7
56516.2
94006.3
90722
81669.7
73735.8
60158.7
73999.1
149244
50277.3
59094.8
44528.6
70727.4
62976.1
45850.7
145215
54783.8
80044
140051
51105.9
71286.6
77255.5
60038.7
68224.4
74507.7
85655
81798.3
77438.4
73432.5
38249.6
281402
126841
65764.1
60860.6
56026.1
44061.9
41830.9
70919.4
61442.8
60308.2
45303.1
43570.2
76655.4
77478.5
60498.7
46095.3
45629.9
47664
55470
85067
77659.3
78168.4
79060.7
70709.2
64181.2
85978.7
66239.2
60403.4
66945.9
84724.5
165554
72808.3
72372.7
52207.1
55428.5
68274.8
65644.2
81429.5
209113
78902.7
70073
56364.3
76431.3
56500
59250.3
90163.4
92593.2
49946.3
43184.5
57591.5
60643.8
71763.9
64439.4
84178.5
53819.1
49573.6
76704.8
79786.7
61861.9
77000.5
65853.4
54924.3
74735.4
87803.4
38334.2
38325
282886
79346.4
53578.4
286765
71231.7
53924.3
56351.3
82242.3
81965.4
44352.8
48780.3
50969.9
53157.3
274417
85476.8
104206
389374
141800
330521
98362.6
74452.4
67826.1
53875.8
50415.5
78059.6
66039.2
72952.9
57065.3
74013
47983.1
192499
70308.8
60041.1
50142
67497.3
62260.7
74332.1
46056.7
47451.9
379635
188087
67086.1
72973.7
42383.1
56004.8
76711.1
67054.3
64566
53201.6
49680.1
85236.3
75153.1
67554.2
55682.1
53833.5
70520.7
80860.3
91864.5
44459.9
106377
322642
50007.7
51334.4
63621.8
63804.3
45670.5
52055.8
61133.7
62804.1
73434.1
82017.4
194097
65588.6
65067.5
82651.6
54512.7
39661.8
62201.5
292997
52187.4
53381.6
56940
64048.5
60573.3
66797
69869.6
72434.1
60148.7
61580.4
70244.3
69436.9
67868.1
68489.4
84278.5
103027
111857
137707
74348.8
54846.1
55297.7
82017.4
84316.6
47710.5
48932.9
47380.9
47624
76499.8
68413.6
56640.7
201014
78063.4
83259.7
58211.5
61610.5
49899.6
49171.9
42808.3
90192.7
343268
121481
49618.4
51769.3
57288
43032.8
51032.9
91593.3
89172
63022.3
65591.4
55428.8
58553.3
71968.3
62739.9
78415.4
82625.2
121423
62421.7
80093.3
235255
65395.2
67532.7
45653
49085.8
40834.5
44571.5
71704.5
71499.7
84662.4
87460.7
107210
168269
53067.1
69878
71259.4
62584.8
62034.2
67310.6
64617.9
64274.7
67328.3
46085.5
56908.7
68325
67273.3
83982.8
41097.3
45994.4
81562.7
62242.1
79479.1
67941.5
69618
68730.5
67600.6
63655.4
63946.7
78830.5
61533.7
74978.3
137598
55810.8
53639.9
135793
78872.4
80314.3
58901.6
58749.1
55921
58375.8
54041
53616.5
45833.1
45309
54044.5
50315.9
99102
69892.9
67904.8
68963.3
58677.1
61307.4
306287
83384.4
73274.9
61943.8
67953.5
150264
75550
73236.9
68008.5
106720
98437.9
92488
62166.1
12844.1
77572.7
349794
299290
75558.7
74504
58337.1
77536
49233.3
56421
58909.8
90159.5
202851
9286.67
48350.8
54929.7
252975
56930.3
57863.3
49509
74638.5
61785
77675.3
258591
83304.5
80209.1
58705
49927
44958.4
65638.4
76358.2
63958.5
54591.2
76753.5
126001
70298
178189
74374.8
79928.7
59016.5
50507.1
45190.9
124473
66436.1
67041
91479
73035.7
52455
55449.7
69428.3
65525.5
79433.6
45097
62771.9
61220.6
321558
48150.5
54488.1
49322.4
62228.1
53019.3
86465.9
46979.8
55422.5
66893.5
52059.8
62622
80785.6
79222.8
116592
82016
110671
94981
59303.9
60371.5
275722
76979
77073.4
77018.6
58293.1
220625
156071
48465.1
57518.4
82349.9
55030
74803.2
196934
125056
140235
236061
46772
51441.8
48246.4
65412.9
54421.4
64595.5
75542.9
51174.5
80665
78684.8
60262.9
51007.5
192434
67424.4
74428.5
213274
63155.5
67776.6
289590
134164
47562.4
55200.1
58868.9
61742.3
80120.3
58220.3
84876.8
78741.2
78630.8
87240.3
80661.6
59766.8
60914.2
48559.7
50943.8
43661.2
43986.2
57341.4
52931.3
77004
51479.2
225737
108175
67761.3
70266.8
125656
57693
80853.9
60802.8
50055
45047.2
66696.4
47005.7
87020.7
84589.5
87021.7
61773.7
65089.8
259866
52723.3
95453.7
54299
50433.7
54049.8
57409.7
66732.1
69701.1
64053
80727.2
185172
349424
54987.4
68507.2
53747.4
106866
61373.2
69698.2
62852.6
54054
48037.9
77957.3
54901.4
50497.7
60716.1
59672.9
54299.8
50093.7
48613.1
56692.9
80759.9
47048.7
39287.3
40457.8
46924.4
93300.2
91282.6
54760.3
211960
49425.5
77768.1
197950
37457.2
46668.7
46427.6
46637.5
56487.4
83010
90691.5
53896.6
47957.4
212465
77301.4
59172.3
77285.7
71902.5
73385.4
60604.3
98260.4
80365.3
76138.3
81328.1
64452.3
63704.9
58825.3
53487
224945
77229.8
69098.5
68568.2
182352
76214.8
249590
240609
170669
68304.5
72187.5
52170.7
175600
51235.3
66657.6
52516.7
89299.1
76557.1
46601.8
56090.5
83014.4
111690
57505.4
341506
134542
62910
77571.1
82869.9
64547
64741
81336.3
81959.2
164285
97267.9
54957
65789.2
65660.8
86584.3
75192
119885
85042.1
45462.5
44014
280582
55675.6
75341.4
68537.8
86557.2
66551.9
63782
70460
91188.6
100003
51143.8
72962.5
58957.1
73319.6
67281.4
125221
64771.3
63890.6
49618.1
52990
66786.1
36990.4
41944.4
50754.5
48417.1
57760.7
60294.5
66266.5
76540.8
55442.7
53812.1
62306
47883.9
54667.4
81828.8
49210.4
63111.8
59880.2
75481.2
206990
76079.5
78174.8
61808.9
68100.8
68602.4
61536.9
53391.2
55514.4
42026.5
40958.5
57714.5
57585.6
96270.4
60672.7
114218
207617
93294.6
79042
91462.6
62806.1
54707.2
77148
62987
13900.9
84278.9
315358
313524
54513.8
286059
71638.2
66671.4
66086.4
76948.9
62463.1
67883.9
111186
42054.4
47799.2
59598.4
81037.8
54332.8
61647.5
61332
67046.1
81219.9
76509.6
48721.8
96543.8
79914.1
83630.2
64528.4
80330.3
46601.3
49799.4
63135.5
87227.8
88404.9
40880.4
54077.6
44347
58625.1
64837.2
76594.3
65004.7
58499.7
84437.3
301792
77892
62125.2
51217.2
43817.1
71956.5
281249
63375.6
61459.9
240409
69145.9
76018.2
85563.4
309616
77486.1
62131.9
78387.1
170144
50599.6
55416.1
72455.2
62693.5
79374.8
48048.7
65744.9
51456.1
56552.7
137087
105657
79193
55112.6
47791
79740.2
53338
51758.4
57323.5
48838.9
48306
35007.6
29466.3
31991.8
53786.3
56057
59016.1
41333.6
50708.6
35474.1
49949.7
33122.6
94562.7
85668.5
81708
82815.5
68702.9
69700.3
175757
84341.7
53622.8
54384.3
57936.7
58781.6
85650.9
85143.2
56458.2
48719.1
53351.8
41433.9
40588.4
56452.1
63573.8
64627.7
58659
48517.1
87270.4
63092.5
54321.3
45342.1
48345.6
50196.9
56963.9
58025.3
81971.8
134532
74566.2
44612.7
68606.9
69068.4
58191.6
49078
72888.8
59804.6
52894.3
51263.4
59300.6
75072.9
70886.5
50177.4
58521.5
74258.5
76005
55493.8
53205.4
76036.3
64115.1
54696.8
115383
81734.2
65030.5
54182.9
46756.1
54795.3
76331.5
61540.4
50493.4
41841.3
66921.5
318847
59192.7
96861.6
173177
116552
95490
281251
54644.2
59511.4
46784.8
82002.8
57858
51157.5
57726.7
268885
68591.8
78720.9
57768.4
54843.4
59485.7
83886.8
53135
52002
58700.9
72167.6
46844.6
54911.7
86664.6
179774
275156
52708.9
78264.3
80321.4
65127.6
61558.6
46723.1
54649.8
332862
81950.9
57250.6
50794
77938.2
57036.9
66293
58259.5
56464.9
54205
38328.6
31117
32276.5
60056.5
65330.5
61040.9
43012.6
56255
36699.6
55710.7
34422.7
187034
199728
159541
52957.5
56494.1
188949
179246
58830
78742.4
75232.3
175229
187535
57465
56265.8
260284
171643
283127
289641
41492.6
44915.2
44345.6
55569.2
47369.2
107456
74260.6
56804.4
72870.9
60829.5
69837.6
53803.5
54669.2
178983
45423.9
59812
66140.6
58534.9
58269.6
135065
62323.3
63772.1
50741.7
47946.3
77221
52626.7
66066.2
195772
55911.5
45396.5
58219.2
77077.5
63753.4
51159.4
56350
98249.5
58772.7
55322.4
54700.3
59224
61325.5
57958.4
70049.3
70734
74754.6
68131.4
77840.5
68124
68416.2
45097.1
51769
38361.2
79587.8
79867.3
77755
80946.2
51836.5
52059
52472.7
49820
58673.3
60471
124830
161489
67311.7
276610
85068.3
58678.1
54577.5
67220.6
65795.8
68675.7
75803.4
80695.6
122569
52929.6
69811.9
55340.2
52219.7
78330.4
69666.7
72229
226416
98018.7
50359.4
79979.4
75498.5
73130.6
58013.6
46383.8
54265.6
61228.9
78719.3
63368.9
46911
130010
49954.2
89865.7
121648
84294.9
48589.1
48431.4
80732.8
76806.1
60095
72008.8
49999.2
73748.9
104339
56154.8
51530
58927.4
77163.5
82504.9
65999
68715
68006.4
68218.8
55414.8
53761.7
50822
52784.4
244978
78329
73431
80613.9
56260.6
80388.5
70586.1
60057.9
256235
60351.9
98114.9
73885
69868.7
60799.5
53136.6
54049.8
64605.6
64259.4
58532.3
58945
67173.9
54669.3
45546.1
40724.5
67828.7
76654.7
55734
176727
47314.2
48921.1
51583.6
64047.8
62848.5
84847
70308.8
117723
294282
57143.5
64220.6
53693.5
45462.2
51927.4
57968.2
72697.8
64410.2
53214.3
61837.5
75289.9
56549.7
56030.8
71762.5
54090.2
54670.1
60016.7
61761.3
48071.7
49400.8
108144
80743.3
48022
51664.5
54460
107845
108990
87074.5
287866
49810
53404.3
53922.2
66845.2
60084.9
81405.1
79864.2
81773.5
76918.3
120549
83597.8
80036.9
58451.1
48323
75197.6
241826
68263.5
63968.3
57810
55992.7
44453.6
43031.1
227937
171588
50466
53901.1
60453.1
93806.5
85422.6
50849.3
98636.2
36666.3
40444.9
45590.5
85701.2
86424.8
52317
347973
81265.1
60760
50302
73511.1
73613.3
58788.1
56372.7
61875.9
87050.4
247407
63100.2
76065.9
63578.3
140703
78520.3
59235.8
53551.6
68738.6
65968.2
58093.5
50360
47971.6
158207
46714
46120.6
56362.1
177759
188056
75286.5
66145.5
65440.6
54851.8
50400.2
184706
51391.4
57672.2
323705
343213
174100
95843.7
114438
85298.3
65249.2
59081
66910.4
44965.5
41305.3
47728
77574.2
67865.4
78513.7
50803.8
52242.6
59801.7
225047
228739
66995.4
86273.5
79420.7
300916
67965.6
65183.4
47659
51260.3
302648
311473
83647.9
92073.4
60496.4
49865.8
89482.6
64334.1
64241.8
89586.4
72649
81752.5
219372
66766.2
63884.5
70952.6
64172.9
74059.3
61736.2
55530.4
49014.5
73926.5
317108
92803.3
82836
52640.8
292801
92877.8
80787.4
54123.4
75496.3
69000.6
135796
52994.6
44200.6
77124.4
59492.9
52984.1
71519.3
49822.1
81616.9
82031.7
116570
299843
61750.4
55485
70548
213760
276707
95091.4
97411.5
58170.2
50559.4
46027.6
77326.4
62140.9
62268.4
53969.1
46763.4
270519
70631.3
60485.3
65005
58819.9
56099.4
79571.4
55175.6
80237.6
78354.3
93099
158436
62163.4
61195.7
53237.8
46913.9
73585.3
192022
57694.3
55847.5
45414.3
43861.6
89811.8
170073
106838
78272.9
186720
76735.8
43912.6
60129.9
48244.4
61921.8
72794.4
80678.7
71675.7
380163
128632
80544.6
145036
385717
337341
99973.7
82416.4
104681
50875.9
49384.7
70913.9
75985.6
76599.2
59351.8
76494.5
58392.1
116906
122532
74764.5
207414
62138.8
51977.5
79628.1
73681.5
41676.7
46201.5
59709.7
43198.3
46407.5
131397
76547.1
75939.6
58587.3
43611.6
57475.3
63691.7
84968.8
9068.11
65922
158705
57933.7
47817.7
35185.4
40706.4
48618.8
50720.5
56368.9
71810
59449.7
68312.7
283149
133848
82794.6
75392.4
81660.5
87865.5
56820.9
63139.2
93360.1
57514.8
72651.7
77547
71399.9
53877.1
76557.7
221536
59339
55662.3
63994.7
79459.2
379431
83631.4
275511
244194
60138.7
89904.1
68927.8
237351
63192.4
62968.1
166445
317532
67371.4
48908.2
71237.6
98273.5
74096.5
62989
60848.3
51841.6
44711.4
58451.4
82771.3
49557.3
48634
45553.6
40555.3
49375.4
43149.8
35948.8
51144.7
157036
50007.3
82123.1
147118
156229
245016
43417.9
50198.5
59574.6
60563.4
72180.9
69851.5
84756.1
264207
81984.9
60932
59380.4
52550.4
43347
83395.9
62860.7
54267.7
45303.8
115758
53705.1
234801
40029.9
61808.9
76196.3
276413
125038
56994.4
52255.8
296761
46142.8
47194.4
67304.6
48775
71339
40002.9
37055.7
71628.2
79562.4
58464.8
58887.4
311812
241583
288586
66306.8
55319.3
61810.4
86661.9
58426.9
169168
322424
65893.1
68215.6
67742
66437.8
50583.4
46771.9
54497.7
52453.9
148832
260025
59364.3
79309.7
72023.6
125073
76587.2
151206
117494
61273.7
94827.5
49007.1
70992.1
229919
83091.1
56697.4
76097.1
82397.7
210657
48995
73970.2
89128.7
53437.4
65465.9
60971
72687.7
50070.4
91160.5
150208
255304
62596.4
51224.2
50759.8
71130.1
72358.3
208319
73680
121717
74894.7
69448.8
50192.8
48336.2
132288
56092
80279.9
248685
55588.6
82220
58875.2
75802.2
83739.3
323534
140969
65158.5
52566
64979.8
48972.2
79358.5
72506.6
57478.2
67776.8
62926.2
56690.9
47747.4
42022.3
80990.5
54296.5
63608.5
232009
54715.8
249425
86987.7
53875.4
196464
398571
265659
58811.1
139805
79944.9
57296.3
71634.4
73315
89803.8
269990
73304.5
73322.8
190563
137954
280837
39611.5
35495.4
46022.1
48296.7
74790.1
58501.8
75125.6
49745
50148.5
52140.8
66896.7
62077.9
72450.8
83577.4
277808
75139.4
78602.1
69398.2
58610.5
45750.1
45541.4
86030.8
223215
300748
44379.6
53964.4
227956
248690
84627.2
157443
131718
95786
64505.8
61423.4
61273.4
102723
105404
139042
51780.8
76700.7
82430.3
66922
67248.5
155129
57683.9
83972.6
57666.2
52921.2
80897.5
61279.2
70106.8
68148.5
68253.4
6337.48
1840.45
66640.5
353646
62387.9
48619.5
82769.5
77867.7
85615.8
48327.5
56233.7
75574.6
83338.2
51961.1
72798.6
74833.2
84277
52983.7
39176.2
51500.6
318765
299987
71585.5
77432.6
70138
65413
92948.4
88319
270258
62789.4
55963.3
69149.8
49025.6
72661
68552.2
71551.4
86472.1
92519.4
57690.2
61493.3
48278.3
52599
109404
71328.2
52236.2
52343.7
79481.8
67748.1
281162
46050.7
227213
165172
116736
125510
78616.7
69284.1
65434.5
57517.5
52245.4
77877.9
95589.1
133659
80233
293464
84938
83810.4
63958.4
148560
57430
52179
103648
56100.9
69169.4
62519.6
58811.9
52192.9
61558.8
67336.2
63172.4
43346.8
39515.1
63896.8
75081.5
63990.5
57332.1
56301
45937.2
44708.6
52763.5
265994
76168.2
49727.2
52374.3
67039.2
69667.1
183747
47193
40415.1
43042.9
51200.8
43802.4
51547.9
57167.7
58434
61688.5
56763.9
80458.6
336771
83506
78223
292373
62770.2
53987.8
85339.9
119915
149741
74977.1
61969
50557
48377.8
72259
62704.2
145693
59174
65560.6
65105.2
77065.6
69212
69077.7
99971.3
74355.4
52415.4
63867.4
43660.7
56376
80129.2
68687.1
66356.3
68657.3
48122.8
39329.8
43051.6
52910.4
53708.6
99069.6
80994.3
80092.8
111043
145938
94188.7
369420
51593.5
60535.5
106093
349142
48964.2
54403
282858
115804
104845
57315.2
215249
76347.2
291097
56459
71524.3
49047
49037
51255.7
65207.5
63813
75439.7
140187
61692.2
61069.1
76248.7
59860.5
73265.4
51350.3
83723.4
91370.3
84198.5
280658
54750.3
84948.9
274824
61056.2
65537.8
58567.9
72283.8
71076.2
208936
163720
97520.9
90149.6
82591.4
159891
60611.4
59921.3
71966.4
69640.4
102031
226367
290623
185084
349185
74960.6
78032.9
48510.4
46599.9
41202.1
54408.5
59566.8
67211.3
152203
56778
54333.6
44248.3
63942.7
88216
126974
75245.5
57178.5
77425.9
76791.4
60814.1
233294
54667.5
70348.5
61793.4
54163.4
47892.5
66268.5
137792
113273
115343
83765.5
88794.1
46017.7
81561.7
52638.4
64506.9
77688
54666.4
369483
61411.9
304100
79243
91384.3
54361.7
93757.9
93408.4
73607.2
63526.4
63880.2
330666
54418.8
45856.4
60266.1
53006.1
65784.4
102907
45007.7
251363
63537.4
48907.7
63373.2
52186.4
69231
39931.8
43727.3
43335.8
35505.3
36827.5
39100.7
51589.3
39334.4
50596
81010.5
7324.75
70153.5
70347.5
64273.2
61592.6
66529.5
62742.5
70686
56144.5
45639.2
41049.5
70598.6
74001
56883.4
77380.6
56605.2
70124
73573.4
49219.3
44497.8
42727.9
49918.3
54266.2
91969.3
59741
55126.4
105709
140229
69684.1
60250.2
68723.5
58380.2
50020.4
136001
52540.3
49315.2
53529.5
144216
57524.3
78840
100780
60110.1
74709
54237.3
48132.5
61664.8
82116
85660.8
84955.2
83959.1
135250
277540
329956
59268.5
61175.1
79358.2
74461
108099
82261.8
156746
101145
319917
349524
241625
59039.3
61356.5
53706.6
138974
55179.3
63316.8
108462
68407.2
82630.5
118256
122424
76301.4
108376
278431
167385
137212
142222
345389
209160
100578
148945
75581.4
69632.5
79616.9
181645
103113
65073.8
61005.8
70834.6
67569.1
84330.1
72198.9
60680.5
50985.7
93762.8
75449.6
64745.8
52497.2
91056.3
80128.4
77950.7
95076.5
365979
58348
55801.3
113854
49532.1
78872.2
65101.3
82827
299556
2313.54
23621.3
23048.6
4769.47
55054.1
127796
47192.7
53054.6
65167.4
75400.2
160125
84212.3
75634.3
215433
217999
50147.9
75318.2
61139.3
99909.8
81726
64996.1
226415
54358.8
64329.2
56183.5
54785.2
54587.9
43602.9
34048.5
34204.4
60087.9
64907.1
65022
47475.4
54274.1
38954.1
55283.1
36002.1
57097
68160.4
69999.4
48146.7
43323.1
55746.4
44592
46523.8
72533.8
74030.3
51120.9
74157
61184.6
75896.2
90301.1
92953.5
53876.2
54321.2
46889.5
49979.7
83912.2
49922.3
57644.3
246232
124606
45881.4
40129.1
61706.6
81726.3
63529.7
46559.8
54904
79651.9
120609
94154.3
49347.9
50544.5
78372.3
70688
169205
77041.3
78623.3
80063
71706.9
72186.1
85435.6
108179
53216.5
46049.9
92766.9
48094.3
91178.8
66480.6
62415
324868
227901
40649
50570
38278
35873.5
153635
77783.3
81266.8
67717.7
56567.7
66669.5
57631.7
64689.1
308516
63987.3
66162.8
53102.1
49838.6
65864.8
72858.1
64608.2
54919.3
65044.8
316105
68725.4
80798.4
106060
103581
53819.2
72233.8
60142.3
69908.9
130585
161991
52508.7
57134.5
238401
105259
65214.5
56030.9
59408.4
45699.7
44348.3
52384
53254.4
84585.2
52531.7
36932.7
62432.2
42458.7
51401.1
65732.6
62661.1
260487
232188
79448.2
42995.7
47962.7
55162
77199.5
64094.5
143946
47248.4
48944.5
78040.2
75232.2
59138.8
62886.9
82421.6
78252.9
45208.2
46753.4
45735.2
39916.2
105054
271728
317242
141282
69311.8
41903.2
45103.9
52878.3
83580.8
140527
72276.5
159485
95240.1
54492.2
47354.3
60502.4
69603.9
59933
65795.5
70153.6
44915.9
68090.8
56080
44402.5
54320.5
66676.3
56900.5
55043.3
50409.6
51514
51619.9
50026.3
36373
40715.4
34985.1
39907.1
54149.9
60306.3
83815.1
73995.1
80070.5
60815.5
188609
46415.2
76996.7
41052.2
54034.3
37181.1
35962.8
76849.1
68160.9
61201.4
63621.3
47841.1
43713.4
64039.8
58476.7
87717.4
56801.5
66430.2
81042.2
101172
59538.8
47917
41948.3
57308.6
60983.8
68710.1
187603
51013.8
56896
142217
53646.7
49662.9
46073.5
82449
66159.7
55655
48606.8
101850
53201.6
92151.5
56079.2
49995.9
63177.4
57748.5
72480.9
131530
170868
77524.6
73946.8
61967.7
167357
240992
192853
55643.1
66358.1
64432.4
49100
45738.9
52204.7
54572.5
69469.3
75058
59629.8
43499.1
50844.5
77787.5
80058.2
62975.2
302157
59177.7
77504.3
52730.5
50591.2
49976.3
63922.8
62348.3
264283
43056.4
51524.7
62496.2
75748.7
56857.2
5259.31
1749.95
55513.2
97880.2
64125.4
69568
67554.8
111656
63198
60255.9
57370.1
70069.3
73117.2
76691.8
72157.4
59632.6
76175.2
56206.9
50398.4
56651.6
60862.4
59353.2
73616
265765
113203
70915
72422.5
69634
363890
131412
79959.5
57355.7
47515.9
58140.5
49547
49747
35286.5
40814
146683
106873
76213.7
161047
327645
150248
133309
146503
73162.1
262437
54516.4
69342.5
59451
74066.6
50159.8
73376.5
66596.5
79195
82800.5
44173.2
76832.6
134644
38531.9
45109.2
57341.7
81454.9
55736.5
59735.4
61739.5
64276.7
43867.9
73172.5
107443
3554.44
39296.7
38363.1
1968.3
71674.2
64665
64564.7
72436.8
52289.7
55668
83492.7
100743
287594
48897.1
53195.9
59765.5
51349.9
165602
186050
40043.6
92932.8
89375.3
84875.6
57269.7
51554.5
102792
203868
52638.1
53168.3
81225.9
153423
84880.3
51489.6
67479
58614.3
34735.6
43440.9
49003.9
126043
123106
55276.4
49955.2
99729.9
93266.1
79370
65188
52129
55152.1
75293.3
53595.1
50809.8
62501.1
93140.5
38931.6
48798.9
37676.8
47091.6
39251.7
48561.2
49665.2
91284.1
40113.8
50907
40212
53588.4
74099.5
80996.5
44414.5
48138
42723.4
50823.3
40009.1
52218.6
40879.3
53750.8
88725.1
357435
54087.8
52443.9
66692.2
84039.9
54788.6
80239.5
36410.7
3448.07
35541.7
3106.32
73404.1
65232.7
43382.6
38311.6
53634.9
59334
52382.4
207309
57007.1
77988.1
119766
235766
67054.9
70839.8
62271.7
281544
276229
272928
58399.3
121312
93600.5
48510.6
54285.5
92409
55690.3
49024.6
62686.5
71593.9
62076.6
362138
111455
283642
64821.8
79879.4
75767.1
56118.1
67495.6
272592
64149.9
133843
69728
99541.3
265394
51685.7
86295.4
78159.5
80979.4
89283.8
62321.5
55217
45213.3
56041.5
65893.9
75478.6
51271.7
54090
63868.6
70851.4
65507.7
52797.7
50300.7
214884
287415
322601
47619.6
53065.8
64713.1
76591.7
55780.7
48225.4
55951.2
276113
322967
132267
290471
10039.4
290496
178957
38496.6
36381.2
52570.2
39247.1
83079.8
147824
94909
47179.3
216294
61583.5
88034.2
67584.6
79052.5
64675.6
64084.3
67565.3
81076.7
84494.9
70825.5
73393.5
46807.5
50385.7
55918.2
54093
66642.5
68941
77224.6
82875.1
77835.2
79041.2
48707
63758.3
76136.2
50731.7
220429
221192
78904.4
77103.7
104143
61348.6
77559.9
56631.5
79667.1
221008
50373.6
59744.5
48436.9
94560.4
311778
162574
44329.2
294449
69015.4
62781.3
71258.1
138455
63649.9
166336
176392
52570.7
75234.6
80239.9
83698.1
58161.9
309116
52841.6
51958.5
61067.7
78581.5
82627.3
53339
65359.8
127965
56489.3
139138
70727
95440.8
52517.8
53987
105783
38692.4
48972.4
41085.7
56355.3
49063.2
76643.2
53974.1
48003.7
32343.7
31493.8
67990.2
42987.2
45873.6
49629.3
47203.8
51001
294058
81667.5
243317
54190.7
73135.1
60509
1270.43
9782.44
98972
44942.8
225348
59668.1
79398.7
57840.3
63443.2
51991.6
132814
62155.4
74202.2
62399.7
48441.4
127921
73943
48391.6
45300.8
61981.5
41492
36782
49963.4
53577.7
121914
60655
71913.5
54214.1
220087
62634.2
57887.4
57737.1
66371.4
119906
314085
97182.6
120466
296026
88108.6
125598
269776
130988
167562
99418.3
141267
66268.1
132642
44673.1
47510.8
75736.1
2237.9
23467.7
22894.8
3923.23
63019.6
262021
52903
95099.7
123846
52882.1
39355.3
37235.6
40612.1
37950.6
53914.8
50312.8
51729.7
49264.3
57827.7
56607.2
63824.5
71243.3
61961
51976.1
48565.8
45733.3
66204.7
54342.8
72276
54473.3
56800.9
76287.5
67299
62788.4
72168.6
60060.3
265181
128905
60799.2
44066.4
36820.5
55110.9
84023
184290
160677
106732
89721
87756.4
249604
146752
85556
49038.6
64326.8
54086.3
75842.5
65543.5
56029.9
45678.1
76620.2
355191
172872
66873.7
58026.4
63323.8
67755.7
73856.6
51590.3
62255.3
82791.1
85810.4
52568.7
49591.5
53944.5
72615.3
284283
251807
50150.7
97149.3
54112.8
73889.7
81484.3
64720.9
115305
244375
42512.1
45672.7
43656.2
38394.3
81160.3
49197.5
74601.5
75344.4
60536.9
56389.7
374589
287834
58176.9
65658.2
59284.1
56212.9
55727.8
49198.7
66422.2
36714.5
38372.4
156537
65409.1
52880.8
58109.8
80938.7
62333.8
228788
61182.5
123898
60588.3
257647
51374.6
54638.5
43571.6
365396
70914.6
48992.8
73605.9
45202.4
66322.8
64090.5
78621.3
53237.6
34563.5
47841
36065.6
48648.4
51534.3
69443.6
58708
57546.8
57633
53364.6
54617
56959.4
50802.9
44199.6
63636.7
67243.1
109654
115241
273973
278097
308858
112605
167469
166943
72255.5
57908.1
61772
155573
171720
67865.1
252396
109608
10513.2
50462
56438.8
36807.9
231432
87149.3
77198.8
42179.5
310176
238940
80443.7
49305.1
52470.3
72768
68013.9
59929.6
62687.7
55447.1
63492.7
69887.8
72573.5
74089.2
73661.3
49224.5
359149
149841
242080
276655
89967.7
60815.8
77115.5
41556.2
45502.3
53598.9
66992.6
220582
56791.8
135878
287933
97137.4
60645.8
269039
54393.9
58000.6
64184.3
69614.6
72164.8
69981.5
81494.7
67965.8
62232.6
75931.2
69415.6
58063.7
47943.2
42858.4
64211.7
350453
83716.5
59091
65487.4
39499
40459.9
47577
51801
49394.7
69987.4
56570.1
47110.5
36289.9
38188.6
64168.9
54611.4
59673.3
56509.4
57431.3
77139.3
87048.4
77560.8
59126.3
60230.2
45790.1
52960.2
134052
43798.4
39707.7
220385
84255.5
61201.7
77658.6
68079.3
68845.8
67392.4
69505.6
303918
76208
72998.7
80951.9
81492
78738.3
70333.3
106541
77223.5
81903.3
128237
183032
54662.7
52036.9
56286.3
70938
102013
270528
244388
198177
83216.2
50253.2
130874
84846.2
80904.4
319854
86927.6
169611
44056.7
98622.1
47505
71022.9
77387.5
204057
71939
58149.1
63788.7
70895.8
71978.7
58624.6
38338.2
46639.2
279744
47012.5
39529.8
96300
52563.2
56959.2
74745.5
77095.4
66719.5
65796.4
78260.4
52675.2
46746.8
4560.66
45639.6
3164.9
88323
134662
62449.7
59490.7
54790
44888.5
40303.1
66233.5
193724
157635
53470
86888.9
47218.5
48072
30032.6
2821.15
29311.2
3027.96
127414
135246
44551.8
58883
54521.8
68428.5
310315
55015.5
67258.8
39855.4
45941.9
78860.3
6217.41
165527
57796.4
210724
64620.3
60352.6
69129.1
52077.5
61255.3
55970.7
73143.7
76905.8
61237
73220.3
77536.1
76901.5
79339.3
64116.8
59500
66663.3
68437
72028.2
63894.4
68356.3
77898.7
88472.7
2191.06
8196.61
86380.9
48220.2
53181.1
46888.9
42006.9
64295.2
269912
319391
55819.6
78091.5
63054.1
71295.7
40628.5
4026.25
39666.8
3521.52
70972.3
60314.9
54344.6
299137
296690
125072
260881
48735.3
45267.3
51036.9
51427.3
271986
68608.3
67829.4
53712.6
55812.2
74497.8
59249.8
51165.4
46773.7
121144
135590
53793.6
41057.4
55542.8
60335.7
82572
69092.2
52093.6
62196.4
274010
68487.7
85895
77945
47771
48752.2
50260.8
47249.7
57335.5
50419.3
60358.9
49780.3
108045
62743.5
71508.3
35477.4
50474
48793.9
48497.1
78744.9
87581
83423.5
96322.7
57394
82762.6
1316.6
17142.6
5018.6
16833.7
55859.6
66390.5
71809.4
296185
5437.5
296214
77263.4
7161.12
2316.47
75438.8
53253.1
24860.2
2746.98
24278.1
57453.8
78457.2
50754
307097
224733
10075
43946.1
58553.5
53749.6
68980.7
54436.7
61156.3
96939.7
159474
48274.7
54866.7
54426.8
65233.1
55102.8
49921.7
60986.8
61592.9
240317
59417.9
57812.8
51481.2
50878.9
189924
84407.8
55498.7
158429
220042
149429
56870.6
55038.1
66510
69029
59067.9
84263.6
62488.8
48040.4
79237.1
56787.4
167620
213751
44583.4
46300.8
55948.1
64718.7
76128.1
58198.6
59908.6
82568.5
75450.6
133330
67948.6
56978.5
224932
192505
59622.7
64164.4
43098.7
57691.2
48465.1
70488
72840.5
52842.8
45957.3
190571
99383.3
50854.2
39039.1
12503.3
63961.4
69792.8
44483
58455.1
50879.9
74196.6
284979
283313
85000.4
56935
47086.4
43896.8
219163
68489.6
84782.4
81103.5
283655
282469
44721.9
83849.8
64658.1
56169
53607.3
46327.3
63547.7
61131.4
80962.7
74415.1
45437.8
289414
80357.2
47608.4
49013.5
87628.3
70307.7
68877
71357
67489.2
56256.3
59561
82321.7
47029.9
57748.9
61595.9
81093
42710
51768.9
224994
99356.5
49041.4
74366.7
175314
340650
70600.3
39306.4
55056.6
36733.8
37061.4
83633.9
80032
66403.2
83510.6
75943.8
77911.9
66217.5
56474.1
67475.2
148574
61053.3
64455.4
69014
57639.6
58898.4
61886.8
65209.8
35649.9
40495.1
76607.4
72529.4
83653.5
78724.6
74804
51270.4
56349.4
81394.2
56439.1
85095
51303
53672.6
289008
260280
240282
63761.6
82131.4
63677.9
57502.1
49959.1
64024.7
71632.8
40018.6
187049
58591.7
52579.5
49061
54486.3
118483
294197
57303.3
55176.3
52290.6
66369
251581
55159.9
88311.8
56581.7
52414.6
54394.4
49678.8
63829.4
58238.5
78313.9
194014
78291.6
23422.1
2802.32
22873
189464
130431
182831
284035
259137
86790.7
304748
134517
2533.61
18633.5
67417.5
84332.8
54100.9
56960.4
69377.8
93751.8
60219.5
79207.1
50651.1
49679
69845.6
52665.7
46976.1
63622.4
82260.4
62502.5
49895.3
153637
19067.5
162071
99131.6
39385.7
73654.1
48634.4
60805.1
53985.8
59136.7
50646
47255
91137.3
54351.8
99974.1
104260
48932
84091
48948.3
167597
70356.3
67948.7
69382.8
62915.4
78368.1
264729
62401
78860.4
83081.5
192938
99841.1
46662.5
55696
53820.4
61719.2
46891.2
63109.8
73201
75574.3
1487.68
11954.5
60720.7
54852.3
52400.3
54140.9
36499.6
42111.8
57611.1
56051.1
62961
44867.2
53695
40340.1
89629.6
52349.6
47748.9
83621.8
80809.9
72494
65372.7
77933.5
64046.8
81598.5
45173.6
70044.1
71945.1
58228.2
54220.2
56264.9
68149.1
75808.4
54046.2
46450.4
81573.5
73496.4
49623
90478.1
67778.4
63217.8
68378.6
64537.1
70511.3
67772.2
44791.6
50433.6
98254.3
58351.8
56054.6
87763.6
43447.7
48272.9
67489
58341
52807.7
74922.8
79288.7
68315.2
63983.9
43064.1
43925.3
69407
64104.4
52019.9
42316.7
121737
111184
74614.1
89166.3
258837
73691.2
71369.8
59375.6
59063.6
75786.9
61087.6
51773.4
43714.3
52936
46506
81653.5
72541.1
65234.9
64439.9
176347
64255.3
53971.3
66342.9
53903.2
50238.6
50152
62130.5
61974.7
204233
154905
53177.3
62017.2
81605.6
89861.1
89989.3
66146.8
57628.1
51445
84156.6
57541.6
71514.3
280516
51261.3
44942.2
60397
49954.7
55385.5
14669.6
46374
54446.4
76682.6
54479.8
76009.7
52444.2
61898.8
82265.3
262465
56363.3
74830.5
56117.6
207941
47668.7
45496.5
57190.4
68685.5
78338
65880.7
73897.7
64120
55422
52874.8
87642.8
52468.3
35971.5
40503.3
83111.8
67669.2
83272.2
60137.5
70231.3
56623.4
71273.9
67751.6
48482.2
55504.6
48650.9
46333.2
197647
58172.3
366823
46086.3
112919
213397
81257.1
77613.8
168510
52285.4
52528.7
156714
80033.1
58276.9
44387.3
37519.7
52252.2
76030.1
98158.9
45951.5
101286
96390.9
42989.2
67190.8
58311.6
59268
57490.8
60272.4
52228.8
58173.4
57643.4
67093.5
54919.3
67705.5
38260.3
41763.3
39545.8
43009.4
127333
133268
61053.2
273023
78852.5
81829.4
85938.5
273353
67586
57018.7
60677.3
74747.8
69336.3
88236.9
89634.6
59925.8
174797
68218
61082.6
67163.9
77962.7
86339.5
79026
91908.7
92612.6
128637
59999.3
74653.6
67596.7
64410.6
84173.2
59550.3
48977.4
45997.8
330192
90780.1
72476.5
58823.8
54370.2
67097.7
58345.2
53213.4
115010
52729.4
79398.4
84210.7
85918.1
41845.7
287813
54284
50714.6
83702.1
63835.8
81485.1
243180
117791
101306
58543.9
85718
227317
79879.3
84173.8
58370.2
95747.2
90869.6
37050.9
40965.7
185005
146826
155335
145910
197444
90804.6
48550.5
51673.8
43100.8
45722.4
168066
60104.8
77913.4
75790.5
76538.2
74431.6
66166.1
38701.8
39568.6
64705.9
72157.6
6710.74
923.367
70463.1
84096
50498.3
117879
53239.7
52417.5
55383
60299.8
60069.2
61795.3
62997.3
65736.2
66151.1
57542.7
78091.2
49562.5
54928.3
61420.4
47261.7
219773
179118
54276
44246.4
48175.9
237647
40865.8
54168.1
42721.8
58843
55232.5
79520.2
61963
56429
35287.3
35597.7
46347.7
71327.4
53588.8
53924.6
50828.3
57069.3
75263
104280
57037.8
160760
156970
214326
73434.4
88371.4
97127
76804.6
59296.4
47762.9
57091.2
167260
61983.5
58996.7
95238.6
100054
220313
44822.2
54432.5
64969.7
69555.3
73422.3
57316.4
74732.1
100244
85646.6
78101.1
82744.6
68743.3
144747
50462.8
48481.3
89208.9
85240.6
62121.2
62640
58281.8