/*--------------------------------*- C++ -*----------------------------------*\
| =========                 |                                                 |
| \\      /  F ield         | OpenFOAM: The Open Source CFD Toolbox           |
|  \\    /   O peration     | Version:  2.3.1                                 |
|   \\  /    A nd           | Web:      www.OpenFOAM.org                      |
|    \\/     M anipulation  |                                                 |
\*---------------------------------------------------------------------------*/
FoamFile
{
    version     2.0;
    format      ascii;
    class       volScalarField;
    location    "5320";
    object      sigmaEq;
}
// * * * * * * * * * * * * * * * * * * * * * * * * * * * * * * * * * * * * * //

dimensions      [1 -1 -2 0 0 0 0];

internalField   nonuniform List<scalar> 
11800
(
200515
136790
689705
584143
132876
405330
183249
202529
221826
235050
200346
837797
105106
622103
526328
2.27554e+06
139729
142644
263462
161305
463460
755500
981326
879807
1.86641e+06
1.16102e+06
1.2286e+06
609994
1.33536e+06
1.44305e+06
403200
128402
1.16742e+06
141713
149322
386765
152089
1.24521e+06
152478
168922
1.27328e+06
1.38421e+06
640617
1.49713e+06
425506
2.13075e+06
942552
1.10024e+06
185917
284680
880647
620011
147362
243643
2.4284e+06
1.97622e+06
74046.6
570634
445901
424125
1.97751e+06
164002
452368
371550
1.83028e+06
275676
906134
642506
73563.7
1.07438e+06
150534
125711
121668
1.8743e+06
1.95859e+06
374354
1.91624e+06
262062
206005
208839
2.46771e+06
141208
132217
134070
138338
1.39149e+06
433903
1.28504e+06
1.18042e+06
637177
146601
1.39033e+06
171843
70318.8
216630
179258
23260.4
179405
149339
736978
82188.7
813330
1.3192e+06
451624
159131
385799
210344
179019
1.93549e+06
1.29856e+06
1.40561e+06
1.19277e+06
440113
645950
262133
1.74718e+06
255721
158925
1.64023e+06
241490
233316
184744
209488
158079
169278
145957
149159
149117
105314
30029.7
2.20513e+06
1.47904e+06
471712
1.39546e+06
680024
1.28688e+06
1.18047e+06
411096
1.19445e+06
588110
1.10158e+06
1.01063e+06
594092
224542
286809
391820
1.45276e+06
1.48607e+06
847949
435602
237024
229103
148862
304948
279870
212988
560698
774138
1.53244e+06
155518
2.22412e+06
267784
1.95132e+06
563437
611842
660469
334544
248952
2.38895e+06
1.50114e+06
536636
740941
173044
439595
437048
2.13289e+06
2.15589e+06
1.14906e+06
1.05612e+06
1.24393e+06
562386
383204
294055
233892
532016
251730
387199
170413
197931
180957
278616
260573
248797
221023
1.10013e+06
1.39523e+06
1.94792e+06
133676
259985
2.29599e+06
155232
338017
378729
153353
159021
1.00902e+06
842644
776393
642680
2.20508e+06
679919
1.00546e+06
2.99794e+06
2.53365e+06
2.54267e+06
393328
143461
978707
899314
827520
307444
446034
142137
144191
258935
155726
1.45098e+06
292591
157751
551796
245547
198355
153332
780479
797088
2.99696e+06
1.45045e+06
258663
270354
1.3678e+06
1.121e+06
383294
561853
1.24092e+06
1.14893e+06
1.05593e+06
158589
1.34109e+06
472772
653050
611248
174484
135212
478380
426945
158444
2.54218e+06
332771
384575
271621
314308
831179
903364
975637
443968
309346
150494
1.94318e+06
178363
85766.8
148129
487425
179339
640599
2.25768e+06
459220
455260
690142
498851
574873
417490
1.41332e+06
1.18138e+06
377617
474087
298063
360125
648840
853422
301501
1.37588e+06
1.47553e+06
1.77283e+06
193145
453480
450641
2.06374e+06
2.0828e+06
1.25808e+06
1.23808e+06
1.28137e+06
1.26803e+06
145916
100001
341078
2.65328e+06
131835
138692
352506
285970
311251
1.09628e+06
1.12539e+06
1.84604e+06
2.54342e+06
797860
208998
1.047e+06
866680
602261
491968
181707
194581
301376
537626
281011
498553
141389
188948
179840
157382
1.46311e+06
181310
138712
2.12275e+06
363991
825844
925835
901486
1.14013e+06
1.09719e+06
110426
109106
739915
970497
668271
1.72901e+06
132737
968513
751754
493951
372009
367000
280993
374246
322438
427157
467468
502923
176183
149487
915535
970991
202929
258893
531790
454144
510172
229106
213625
268644
274682
1.04765e+06
510121
373579
399116
1.27698e+06
1.47966e+06
383135
223520
209275
290440
268670
513419
595402
487179
571219
450151
527820
398203
378733
756045
386911
848259
1.46519e+06
741654
542233
2.3298e+06
145688
1.53817e+06
762047
552338
2.27295e+06
158883
1.57258e+06
388743
1.31649e+06
1.21546e+06
1.18466e+06
213705
98940.1
131898
2.69205e+06
2.33004e+06
1.04651e+06
374904
511500
199659
273040
307262
163902
226976
1.78783e+06
71840.3
649904
499367
1.96885e+06
115172
194422
164905
162136
163803
163218
1.96858e+06
665228
262803
777778
717363
660209
131339
1.49594e+06
492324
691503
185160
978312
210705
1.89822e+06
146623
218950
562703
519767
478801
993347
263981
556180
484698
259056
780501
848958
918847
444969
316619
72532.1
192190
215300
2.44766e+06
857868
676256
485739
399362
205764
162428
119111
118207
209460
106315
123969
130953
183126
364244
160219
205034
662966
815414
381880
1.74159e+06
229368
413003
166770
203005
1.69316e+06
2.23196e+06
709140
769771
273145
242318
127989
1.48114e+06
2.17326e+06
1.91808e+06
2.7661e+06
915964
639302
835395
134661
204976
186365
211307
832032
154411
152513
135770
202325
1.48091e+06
332869
1.5201e+06
878611
189767
244459
1.208e+06
1.55839e+06
826899
898673
967800
438044
304822
752706
151849
153885
149992
172541
135350
206492
104633
200478
104180
198228
90166
192047
175949
182774
123020
1.69375e+06
255940
282849
631661
1.00004e+06
136230
162881
143182
140518
123769
330687
482771
135371
134764
653647
129436
196257
1.84125e+06
87627.4
178566
586830
540513
564871
611930
627850
660705
310128
229167
2.14294e+06
2.63226e+06
558780
91107.9
394541
371951
424692
299592
905454
837676
770776
188278
91288
879227
818099
363223
404536
198928
702536
761979
258048
1.24064e+06
1.25875e+06
1.2733e+06
1.25998e+06
2.11609e+06
2.07061e+06
655544
2.51601e+06
924032
147538
1.75164e+06
1.56768e+06
1.70371e+06
872803
351988
380311
201822
1.80538e+06
600444
756757
2.66429e+06
233692
293851
584704
575315
1.50131e+06
785112
2.2351e+06
146169
144436
304197
439744
975200
897030
825437
2.02769e+06
164565
448466
962757
1.44172e+06
142757
2.3806e+06
2.22609e+06
2.31541e+06
268497
365051
138186
2.36747e+06
688595
273573
471758
2.23298e+06
158594
275382
291940
152027
539785
335335
2.69363e+06
2.37901e+06
224018
672770
860584
330185
392814
289385
252345
710319
206615
677144
498876
1.27644e+06
1.11018e+06
186644
1.44864e+06
150335
459542
567473
1.92126e+06
366976
498241
275493
222738
209003
245710
471733
1.10472e+06
1.21649e+06
154387
146410
149364
200219
390995
1.46849e+06
123344
510944
926226
722615
254824
1.22914e+06
1.35932e+06
884135
1.47722e+06
1.59852e+06
664600
433727
175946
214457
409608
436322
381236
423057
211366
391147
455420
262950
151788
2.75271e+06
1.18759e+06
446952
607196
552265
266569
482846
708268
1.51741e+06
1.4005e+06
1.28534e+06
394022
466411
218275
238545
1.7206e+06
1.25434e+06
1.46733e+06
163875
223782
323267
775424
1.70215e+06
547330
106751
164257
2.48744e+06
2.33697e+06
280515
2.13936e+06
119785
176303
127784
822792
138819
246448
273436
1.54099e+06
1.67489e+06
1.81094e+06
1.95017e+06
889508
755194
627280
492967
213214
144984
485394
2.38737e+06
153369
148928
168133
157860
169024
176048
181436
1.84702e+06
931250
959641
565771
1.04563e+06
1.13399e+06
397610
1.32184e+06
316201
257230
161246
2.46065e+06
151663
187692
180944
189216
152696
2.2378e+06
319102
312347
1.19624e+06
398776
840490
296572
2.2775e+06
1.0106e+06
507007
375282
1.54554e+06
561026
208829
174791
154756
146397
264153
290237
278650
203186
548527
167214
148012
995975
1.11164e+06
126484
705165
1.01594e+06
860528
1.1691e+06
2.17404e+06
2.01453e+06
1.85556e+06
1.69502e+06
705311
860494
2.17467e+06
2.01538e+06
1.01599e+06
1.85636e+06
1.16942e+06
1.69681e+06
1.93584e+06
169866
144898
158535
280936
611574
1.33282e+06
150364
510197
701550
551808
762432
218596
285652
510662
748641
1.59199e+06
1.46913e+06
1.34784e+06
639747
473005
1.19273e+06
237894
304281
185376
391985
364718
332066
687084
535244
550181
407796
141387
813865
221891
420717
516148
1.27602e+06
696268
814775
653061
237125
310289
209926
183430
171690
202815
724673
610040
156143
246673
271560
562920
1.66791e+06
548344
771748
571662
173906
258249
242692
224022
305932
217634
740107
683123
624017
239861
1.76998e+06
846908
240670
1.09054e+06
737281
1.59552e+06
2.1501e+06
265367
296555
249891
162613
177003
899359
765398
2.24273e+06
146086
208138
418256
620638
265554
151384
908165
899137
62746.3
150533
432336
351992
95769.8
1.97091e+06
2.15118e+06
358561
130571
320319
456589
977901
830177
902738
2.45315e+06
146439
710623
801264
186119
732247
894089
1.05727e+06
1.21664e+06
2.27634e+06
2.11069e+06
1.94452e+06
1.77725e+06
731755
893971
2.27593e+06
2.10954e+06
1.05612e+06
1.94351e+06
1.21641e+06
1.77701e+06
2.10079e+06
1.80645e+06
1.36134e+06
583459
665770
1.80771e+06
1.33981e+06
401166
128852
123414
1.33948e+06
2.39158e+06
179822
499256
1.96011e+06
1.34053e+06
2.15041e+06
2.19647e+06
1.44057e+06
1.44269e+06
659991
522063
683286
277882
208531
360424
175851
216944
270027
223105
498765
2.31668e+06
681935
225143
135100
435518
466777
2.10871e+06
440365
398546
508327
539291
1.3728e+06
655295
471869
1.75105e+06
502867
656043
232881
188469
451120
390609
420897
1.0422e+06
682374
663230
1.60285e+06
1.53267e+06
654458
692372
1.20519e+06
1.29415e+06
485536
510771
150269
212882
222783
665005
517577
88641.7
185353
213670
770278
731685
399818
778093
601064
236831
143655
143506
601843
1.45762e+06
139800
2.15018e+06
311347
881434
810797
246848
309683
523713
165115
138692
1.84671e+06
469229
1.20682e+06
1.11552e+06
1.02561e+06
374020
546748
187349
1.66249e+06
2.21253e+06
197201
159435
1.21695e+06
447071
611777
1.05696e+06
1.14929e+06
1.25592e+06
376727
550273
68660.8
882689
464957
2.20689e+06
362848
1.26865e+06
1.06017e+06
1.19032e+06
152666
157283
162207
171974
174552
150881
1.82821e+06
571281
212048
243723
272591
306340
385299
426763
875210
846147
809474
780384
718657
744200
1.25619e+06
189358
152761
147048
206322
233313
165197
188005
1.49837e+06
309691
564555
484803
1.24679e+06
658508
228935
238689
542056
419180
749009
612112
1.49848e+06
1.31717e+06
1.21676e+06
1.11728e+06
621052
1.7247e+06
858654
1.70633e+06
302273
250264
325906
315101
217162
194772
216628
1.74004e+06
2.24432e+06
405641
127185
300924
680978
529596
146495
170672
288368
273641
289845
266677
355986
334130
249218
576999
640083
623436
691320
530257
588837
642392
142361
1.42666e+06
1.13427e+06
598970
1.41962e+06
1.333e+06
779981
2.24559e+06
426663
405386
459456
491240
225950
182535
195117
425948
161094
1.89208e+06
241209
154025
952311
66210.6
127063
1.86759e+06
212659
490256
1.55881e+06
721033
1.43923e+06
1.32117e+06
1.68365e+06
1.11799e+06
184339
723159
578004
235974
1.60722e+06
738964
233967
1.35325e+06
1.23479e+06
1.47033e+06
147878
150903
185813
2.71419e+06
325758
514245
629158
283332
154809
154289
491452
530957
203457
1.86774e+06
502533
1.9109e+06
290184
934559
152166
762036
910933
1.20105e+06
484010
653090
781769
311545
2.68083e+06
186873
130425
159619
2.28339e+06
1.49303e+06
379204
559968
1.2653e+06
1.17314e+06
1.07874e+06
2.3504e+06
726075
587187
2.33689e+06
2.64219e+06
1.82714e+06
85833.9
627671
1.56241e+06
1.17782e+06
643273
477826
1.19014e+06
1.06175e+06
487124
1.60233e+06
387319
312501
603884
533234
402897
1.84194e+06
2.80496e+06
136597
149353
178879
2.67272e+06
180462
214796
836761
645006
2.36305e+06
2.47548e+06
147621
704752
240373
229144
583611
248781
150303
629655
141251
159392
2.82232e+06
1.23871e+06
689363
513503
461866
328851
941554
869865
799198
235061
2.50558e+06
491318
446026
513621
2.09722e+06
859240
1.26697e+06
171080
269513
202523
940087
584842
779503
136117
332478
454337
958434
337891
209919
178349
357154
2.3369e+06
341558
462811
950612
1.50847e+06
2.13218e+06
1.45033e+06
990948
789860
935079
94158.9
269899
379405
813516
751766
692755
2.13296e+06
165125
219547
235304
234676
235643
226840
340099
149954
151540
768900
1.9395e+06
555408
1.22693e+06
1.13372e+06
1.04235e+06
380098
2.18983e+06
708188
808470
968634
835361
1.34655e+06
2.14435e+06
641820
162979
819463
127666
1.01973e+06
613012
1.11152e+06
1.20591e+06
433116
1.39693e+06
344167
2.8878e+06
992298
153343
2.0021e+06
2.89675e+06
2.49391e+06
591453
146642
1.12335e+06
186423
177183
125491
309981
164623
170830
145488
155473
1.81742e+06
1.90788e+06
154430
1.24224e+06
198243
188669
150184
260565
1.32286e+06
1.32779e+06
300351
1.34634e+06
1.34843e+06
1.71342e+06
562572
208338
264789
363130
727954
789321
264908
70326.6
177350
849404
410333
1.00729e+06
1.13395e+06
1.23774e+06
1.34363e+06
691989
487283
354083
195973
167724
2.16324e+06
1.19724e+06
138809
247357
1.07464e+06
834194
454666
492285
219315
197824
367034
325629
124425
250738
167545
1.81748e+06
719145
1.7429e+06
161512
144777
2.89685e+06
144711
2.24978e+06
2.224e+06
155542
1.04166e+06
527442
1.77854e+06
169016
990370
1.11667e+06
2.42937e+06
274015
168191
140014
550751
259898
357724
728582
668032
615031
177916
135572
205050
195365
1.29157e+06
1.42259e+06
970286
1.6571e+06
1.52439e+06
1.75738e+06
2.49022e+06
314431
793995
2.3713e+06
690349
2.21841e+06
1.07215e+06
1.16594e+06
1.26204e+06
559465
378340
466734
544369
2.04824e+06
180615
215356
323831
306659
286302
203268
427683
395342
369548
902393
945972
2.7449e+06
306624
135180
188810
2.16212e+06
618828
338805
327522
2.10891e+06
1.11729e+06
771447
116685
223308
140835
1.10247e+06
1.40462e+06
351795
1.57352e+06
213374
206743
2.82136e+06
1.84629e+06
2.25924e+06
444256
592361
1.03301e+06
318039
818026
2.36337e+06
2.48369e+06
208116
239451
407107
330704
1.19025e+06
1.33e+06
911868
1.02731e+06
2.62921e+06
2.41218e+06
308605
201328
115849
1.72842e+06
137491
2.28149e+06
447491
346871
1.22697e+06
394468
157400
2.1099e+06
236612
314299
116114
136850
1.56705e+06
548563
158344
857719
408347
223871
161633
140467
801089
143258
2.16211e+06
1.93361e+06
357861
975783
553608
158019
176804
1.6631e+06
198982
1.12418e+06
287258
621869
1.31744e+06
1.50227e+06
2.0666e+06
219944
349450
2.24445e+06
280132
172403
165241
191514
141759
2.29256e+06
1.79995e+06
417142
576894
993133
1.00085e+06
1.29949e+06
459697
633058
454663
661745
1.41055e+06
1.3028e+06
1.196e+06
1.86028e+06
882367
629439
1.77716e+06
631851
1.93351e+06
727360
815268
2.14176e+06
2.89002e+06
2.48288e+06
494387
465509
1.34497e+06
645751
466926
148311
400009
2.05206e+06
170101
201231
2.63152e+06
1.96766e+06
2.25514e+06
1.06161e+06
1.3166e+06
1.32664e+06
1.14612e+06
136055
128648
195548
131800
816360
887434
962751
451291
315173
689800
2.28749e+06
169327
227378
191355
176238
1.1998e+06
1.08406e+06
211770
2.03815e+06
2.29977e+06
1.38384e+06
1.13152e+06
1.85384e+06
2.13553e+06
130297
1.02254e+06
648419
1.429e+06
187340
306310
327625
1.83665e+06
1.82951e+06
838204
427470
123406
150035
266153
561998
1.91569e+06
253066
1.47589e+06
173136
430103
287790
386622
662495
340760
518376
50427.7
14562.4
518145
2.70735e+06
236535
192251
191826
146566
133575
204247
210546
149720
150215
613280
148738
163040
205332
1.15454e+06
1.42269e+06
1.02552e+06
1.89078e+06
2.41312e+06
162341
230092
446246
191136
1.73943e+06
237912
2.53418e+06
272192
356270
690040
513015
268940
279037
649345
140983
167389
217126
135536
209412
133336
2.26268e+06
118472
176650
330781
132599
99366.1
2.14766e+06
240734
1.86085e+06
1.98632e+06
718736
459069
378358
552239
1.24024e+06
1.15753e+06
1.06449e+06
144616
1.3633e+06
700891
140409
2.29739e+06
149623
157914
433023
1.26448e+06
1.02785e+06
1.13911e+06
1.5521e+06
220883
164738
485605
720298
1.56994e+06
837418
1.69329e+06
602020
1.44982e+06
1.33101e+06
479362
1.67739e+06
596590
1.54922e+06
708626
1.43086e+06
1.31367e+06
827334
1.66798e+06
209253
704759
551612
170046
217565
1.87919e+06
1.1922e+06
1.61323e+06
1.50128e+06
1.30973e+06
1.62006e+06
1.19748e+06
453838
497136
736655
1.77525e+06
163430
2.58879e+06
202841
163573
1.95059e+06
232620
370943
724997
715369
2.13893e+06
121643
1.36696e+06
1.26352e+06
1.16067e+06
421437
621303
2.62753e+06
445120
338908
787097
200248
824257
380591
393859
135948
227260
236067
205508
632452
132789
774030
413235
313210
1.06206e+06
1.41511e+06
1.42e+06
1.06166e+06
517526
2.48682e+06
147999
149295
2.21889e+06
2.00013e+06
1.21739e+06
2.8852e+06
1.31819e+06
1.13791e+06
1.16006e+06
2.56245e+06
1.30274e+06
1.04447e+06
2.2775e+06
487682
517487
777666
2.00981e+06
118661
1.70255e+06
202018
297364
473693
793317
863616
935678
459887
326271
515026
83075.9
89235.1
163730
176686
245500
202684
161119
216255
1.28872e+06
2.33376e+06
280340
204092
2.14859e+06
1.58124e+06
625593
849979
166108
173570
1.87424e+06
1.23625e+06
259885
991619
930498
1.23571e+06
144530
164282
168373
145337
1.47392e+06
2.37227e+06
2.31108e+06
1.57255e+06
2.49958e+06
319514
132800
417669
1.27164e+06
1.1681e+06
1.37671e+06
627338
424750
2.66016e+06
587568
743982
973209
314821
264903
1.10577e+06
388504
199751
841626
321468
419396
2.4549e+06
426944
377982
1.32704e+06
1.22634e+06
1.12836e+06
567469
1.67987e+06
1.58351e+06
2.08032e+06
648460
669149
865931
1.77764e+06
853323
611304
1.58114e+06
306162
2.89668e+06
187171
2.20964e+06
593137
677533
160826
722722
1.38959e+06
163017
189932
187630
2.55531e+06
763774
701776
825779
408900
293752
368588
745319
1.66846e+06
753433
1.46482e+06
1.72297e+06
1.59392e+06
501326
1.62361e+06
1.23678e+06
1.30842e+06
1.54921e+06
1.62774e+06
1.23843e+06
1.31916e+06
1.55756e+06
897903
743734
56876.4
354818
214683
513943
759916
630885
881229
1.76406e+06
1.63762e+06
1.51202e+06
1.3878e+06
508994
1.40621e+06
701426
186443
126327
131297
231507
121232
603394
1.43942e+06
1.46815e+06
520586
2.40895e+06
190088
172941
1.87175e+06
2.31911e+06
106057
1.48915e+06
588707
798914
1.11689e+06
606076
397279
168791
590101
827448
71821.7
152734
2.43609e+06
321756
238584
591999
545616
640957
408360
149529
156556
414510
1.45645e+06
2.24681e+06
2.60128e+06
405960
451840
1.89484e+06
1.70815e+06
2.21867e+06
126165
1.22627e+06
2.16317e+06
2.61797e+06
2.69897e+06
2.6471e+06
700379
1.21468e+06
523362
2.50523e+06
1.90593e+06
782506
1.63311e+06
177846
153937
1.94446e+06
1.94614e+06
154522
521811
2.40162e+06
2.02462e+06
1.92769e+06
1.9952e+06
2.71025e+06
1.84245e+06
2.41238e+06
2.07721e+06
177567
328988
1.53711e+06
714137
1.25447e+06
263325
172805
218293
201671
178413
243296
214802
526409
2.42098e+06
1.47128e+06
520547
720849
1.57267e+06
200168
728297
505165
2.76983e+06
391593
381413
694663
400717
645201
286088
219732
2.25504e+06
18531.2
180794
180673
37208.2
570751
599003
213285
234410
249141
169620
630685
631153
147575
2.42031e+06
2.06148e+06
754813
1.57067e+06
541722
141387
1.83283e+06
405692
2.40179e+06
674190
823882
976138
1.12545e+06
2.12347e+06
1.9702e+06
1.81557e+06
1.66224e+06
673022
823121
2.12054e+06
1.96672e+06
974064
1.81239e+06
1.12359e+06
1.65924e+06
371530
282201
686419
751434
665124
313417
252652
213293
168415
156332
182830
149831
159839
274968
1.12647e+06
1.2089e+06
1.09881e+06
614493
1.19652e+06
1.31831e+06
2.02234e+06
862274
695385
2.13261e+06
711547
242684
153123
209000
166349
336112
309992
314288
158863
450000
356297
471409
968126
158178
248262
1.12671e+06
175431
123162
156066
134629
1.7065e+06
194217
225004
810067
646166
306243
806334
249056
150137
136488
2.52665e+06
2.61593e+06
1.61005e+06
1.32005e+06
1.28856e+06
1.63867e+06
2.57277e+06
1.33517e+06
144372
861388
482427
366914
532383
252569
2.41982e+06
266981
1.44773e+06
1.33977e+06
1.23115e+06
648944
438611
756484
444111
336561
2.44431e+06
282296
144622
801496
801148
367729
225769
278611
476452
969915
1.84242e+06
781132
625033
1.12578e+06
1.50468e+06
413205
605241
1.3067e+06
1.20608e+06
1.10759e+06
625284
672375
1.07873e+06
900314
1.26395e+06
670336
1.38706e+06
1.50678e+06
435846
1.63e+06
2.89335e+06
2.03463e+06
126816
997108
1.08697e+06
1.18017e+06
358152
237668
1.75982e+06
305999
402243
494978
546807
232244
296156
234913
184678
1.70165e+06
1.31072e+06
1.37405e+06
1.64594e+06
373769
2.0343e+06
2.5218e+06
932517
159796
978476
1.06602e+06
1.15769e+06
1.07859e+06
1.24489e+06
350564
1.99705e+06
873690
820403
753239
888271
318525
445925
254473
234356
557146
654479
604310
695002
757334
820101
503879
500477
721790
724597
1.46314e+06
1.45635e+06
1.23724e+06
1.34908e+06
1.2309e+06
1.34254e+06
728293
790922
277890
169603
194617
235885
1.43373e+06
937160
153767
1.49098e+06
1.23785e+06
1.18829e+06
1.53622e+06
237814
532455
1.91076e+06
811024
1.76678e+06
1.6247e+06
125003
315021
1.31181e+06
784950
553205
1.74423e+06
604311
77588.6
1.34469e+06
1.23571e+06
1.45606e+06
653686
440706
1.77315e+06
695604
562227
2.36997e+06
699668
990861
235378
162697
397973
372213
341091
2.02272e+06
504536
331564
575451
530458
620586
311574
234264
1.33237e+06
1.49157e+06
236254
860324
178850
1.1423e+06
2.29407e+06
1.43414e+06
717874
535504
1.27468e+06
654640
581781
480310
312703
190404
479610
234345
589616
234207
394216
160820
184738
2.39493e+06
491573
2.06936e+06
1.19888e+06
1.28639e+06
695867
517704
1.22964e+06
2.18271e+06
135723
165364
167774
159059
432041
41869
13841
431846
914058
165631
974042
434815
292355
199329
653366
913389
1.89768e+06
144749
111104
196063
232055
503238
324810
1.29178e+06
1.15342e+06
272469
173894
134982
2.43401e+06
913876
147774
351097
170019
2.76993e+06
2.27881e+06
350065
264768
1.01109e+06
485524
691616
1.35852e+06
1.14737e+06
1.25177e+06
2.63687e+06
2.1017e+06
164803
1.95889e+06
2.62539e+06
2.06569e+06
2.30293e+06
984907
197295
1.31478e+06
328082
199191
248639
491286
539852
394010
393612
889333
288413
191189
140260
1.2893e+06
1.60126e+06
1.73989e+06
1.88062e+06
2.00736e+06
907364
772501
636837
499462
315415
135569
613343
28356
299282
299132
15380.6
668342
334045
262625
95287.5
422215
476840
150708
420297
1.25676e+06
1.0178e+06
701675
495136
564411
2.42219e+06
1.84572e+06
249306
793390
150775
163994
689465
812105
826856
1.63273e+06
485392
529438
157609
2.18864e+06
170098
385100
447898
417628
1.61037e+06
1.7496e+06
911244
951845
951455
689993
883128
1.63764e+06
1.55958e+06
1.56161e+06
543581
755010
129930
142209
133683
336253
154720
716426
1.53469e+06
1.36167e+06
1.66824e+06
1.21978e+06
1.67801e+06
1.21827e+06
826584
538142
1.47137e+06
1.07774e+06
1.47127e+06
1.0813e+06
349114
1.6065e+06
1.3626e+06
1.19486e+06
1.55603e+06
1.37688e+06
1.69784e+06
1.23565e+06
1.69567e+06
1.23488e+06
1.51876e+06
2.77725e+06
620210
870470
1.829e+06
665371
161389
168441
278135
27560.4
277985
24345.9
153807
522810
1.62431e+06
1.49223e+06
1.75785e+06
782807
541802
2.47386e+06
77849.5
146188
303008
1.05117e+06
356897
983943
485477
2.50715e+06
2.52911e+06
1.50295e+06
179650
322215
1.72554e+06
927651
742959
491849
918066
843326
993696
344657
486158
2.56371e+06
602705
2.28686e+06
156473
151492
144348
154816
101217
2.26113e+06
181845
1.6738e+06
98193.4
1.22585e+06
1.53711e+06
185631
153535
233962
700397
243545
595872
548946
401025
434110
468639
193968
436148
588638
730895
489729
1.64775e+06
1.52439e+06
1.40061e+06
1.69409e+06
2.26121e+06
2.49327e+06
142485
138756
138933
152959
335550
196718
363782
2.51001e+06
2.55722e+06
2.58903e+06
1.95334e+06
77308.8
1.3363e+06
2.35234e+06
1.63202e+06
1.29053e+06
1.31471e+06
1.61008e+06
778736
680273
1.40038e+06
932307
1.63537e+06
112803
293366
381360
734070
302870
298716
338646
225861
259014
189696
220314
516971
517623
560978
561182
606732
604229
709960
697366
159187
156264
675943
432801
119784
252004
961486
1.63656e+06
160678
996126
2.151e+06
670963
2.05011e+06
948034
255889
1.88544e+06
1.02172e+06
858697
1.36199e+06
2.29435e+06
2.70545e+06
1.05925e+06
461696
2.27358e+06
329208
236658
201068
498526
105787
954149
1.67913e+06
440870
662394
265396
149975
287035
2.44851e+06
446103
523594
505874
370219
1.05666e+06
331232
262398
1.03974e+06
231037
2.24574e+06
170148
1.3301e+06
497284
540904
2.08781e+06
1.79084e+06
1.08755e+06
1.94972e+06
2.10993e+06
932027
2.27098e+06
776379
620185
1.79364e+06
1.95259e+06
2.27667e+06
2.11342e+06
622351
934574
1.09092e+06
778775
2.26032e+06
223184
1.77445e+06
189854
124538
164204
10197.4
77631.6
977306
104298
1.70588e+06
357192
262733
674431
728129
621351
505745
338237
1.50612e+06
336824
363667
1.3513e+06
107890
533265
495548
493028
1.56047e+06
1.43401e+06
1.68825e+06
743602
615486
260868
452773
898282
1.70537e+06
76301.4
441940
257402
164152
562818
1.7926e+06
1.02513e+06
876043
1.89627e+06
207243
1.04715e+06
2.2228e+06
1.12938e+06
2.09013e+06
183137
2.36131e+06
276567
1.57366e+06
569294
702517
156055
17932.5
179596
179434
30631
301342
1.59143e+06
229316
1.98088e+06
890075
326649
1.54747e+06
1.48597e+06
1.68711e+06
1.62036e+06
1.82816e+06
1.75621e+06
856458
828164
582561
564188
647440
435420
1.45601e+06
1.34773e+06
1.23842e+06
387904
451651
418258
201991
1.37476e+06
1.20333e+06
98890.8
231296
169597
191659
202282
2.26885e+06
1.9135e+06
506239
1.66304e+06
1.52944e+06
1.79664e+06
134592
829225
1.54005e+06
1.61404e+06
153661
143546
1.83288e+06
576015
192080
342723
398786
370295
209654
638231
590728
546805
2.14826e+06
2.77213e+06
2.05386e+06
1.4733e+06
725038
522456
217771
237420
359059
256269
154012
134924
272253
789378
631601
156143
1.6708e+06
1.94309e+06
824221
707689
201396
193328
168087
181560
542874
1.83244e+06
1.45932e+06
1.12848e+06
1.16119e+06
1.38479e+06
147704
170712
255071
149522
154823
359092
2.86286e+06
2.27473e+06
174972
214858
991488
855420
593276
1.83749e+06
1.97677e+06
1.55596e+06
1.69601e+06
982237
518121
445121
481615
217682
277870
2.10372e+06
571135
1.34682e+06
93692.3
1.94302e+06
175313
781855
909524
2.86252e+06
151740
807302
184204
755371
198772
475672
1.43951e+06
666591
1.67005e+06
1.08755e+06
1.82204e+06
1.9752e+06
939383
2.12913e+06
789913
641259
789984
641898
304925
937792
1.05898e+06
1.38733e+06
160093
263793
1.68228e+06
725168
2.63434e+06
2.13337e+06
2.39145e+06
428571
1.88401e+06
875800
688904
337302
256345
2.58632e+06
1.33058e+06
154001
2.7966e+06
2.37506e+06
80829.9
832592
679449
103566
1.06787e+06
874003
119868
222347
1.7908e+06
2.68774e+06
156363
965270
990257
1.96629e+06
1.90467e+06
699717
717000
699725
715535
164213
164660
164442
154363
127507
2.75214e+06
2.16047e+06
1.93766e+06
2.4458e+06
930049
501937
2.01942e+06
1.14075e+06
1.24465e+06
1.35118e+06
80956.8
2.04957e+06
361209
1.54173e+06
2.18746e+06
652328
462405
2.79456e+06
761775
799625
558681
588770
1.49609e+06
1.44514e+06
243319
237044
129355
154344
487335
1.77133e+06
1.63769e+06
1.50641e+06
744773
2.75097e+06
160644
337761
146942
1.48867e+06
1.62259e+06
953418
1.75769e+06
814536
1.9098e+06
688447
1.81712e+06
1.53874e+06
1.67724e+06
1.95576e+06
551609
979106
844361
688531
149961
216859
232335
305707
578835
491339
532816
2.29118e+06
1.07884e+06
1.31589e+06
2.10365e+06
243482
381516
155279
595895
836457
285341
401341
2.11802e+06
227025
147291
148928
151995
147412
91870
239913
187116
202038
1.83918e+06
2.1689e+06
183892
160332
207406
361232
793575
2.33393e+06
2.17672e+06
958962
156065
238727
1.86991e+06
160213
160503
2.83325e+06
1.1061e+06
2.14991e+06
613159
1.4603e+06
934364
907263
246543
1.00707e+06
1.55286e+06
754058
541852
208381
480789
156024
126889
140799
2.29649e+06
1.38402e+06
1.41232e+06
2.29293e+06
355822
381756
194373
725637
170997
153832
163175
461424
357398
36424.8
357254
24931.4
151357
1.42653e+06
434902
632464
1.33698e+06
1.23443e+06
1.133e+06
222567
2.62295e+06
855174
505441
2.26944e+06
1.36742e+06
1.41937e+06
229550
22571.2
229397
23730.3
1.99898e+06
482234
844351
997234
920381
180811
2.12156e+06
508380
362724
1.1718e+06
900643
146184
48552.8
1.5659e+06
328003
1.55915e+06
403495
538421
986866
1.10857e+06
931679
197529
806304
330037
428486
200027
214758
764672
797622
264184
486390
164460
165799
1.28404e+06
646213
472997
172354
672597
17425.9
65238.5
672310
859523
694416
1.03011e+06
1.22246e+06
135175
2.60364e+06
2.70705e+06
343479
155791
173852
283567
310841
32170.1
310725
27712.7
1.38366e+06
475357
660711
2.52243e+06
2.56087e+06
2.1913e+06
1.9708e+06
1.20058e+06
1.06437e+06
1.01913e+06
903477
2.13447e+06
309671
616360
216360
136831
153894
447559
628991
901491
2.49954e+06
2.52045e+06
315703
165655
832728
904214
301036
1.37309e+06
565779
461078
1.97755e+06
191060
172545
238191
1.35277e+06
1.363e+06
1.43729e+06
911682
455286
637587
98744.9
101775
1.54209e+06
157665
1.37478e+06
178327
680817
1.10778e+06
970882
1.60301e+06
1.87515e+06
157455
215649
511939
2.22954e+06
10617.1
131269
38941.8
131996
359837
327001
99305.1
2.38625e+06
42521.9
2.25861e+06
588030
57024.4
18382.4
587781
392010
191106
22019.5
191112
498942
2.1635e+06
503268
2.35064e+06
2.71906e+06
78388.8
793182
935819
864108
1.11451e+06
537133
390098
1.1922e+06
740600
129672
291611
470018
334467
840708
1.10865e+06
307429
308910
2.61197e+06
957725
1.11216e+06
1.03444e+06
1.1945e+06
1.65322e+06
141746
165117
1.38323e+06
1.67783e+06
556041
324359
374195
186606
378211
568510
162437
296944
434003
161328
113083
1.51307e+06
1.76546e+06
347148
771234
600421
613757
1.89105e+06
868490
373740
284748
726031
591559
144679
438207
1.67781e+06
2.15881e+06
585595
406163
1.03382e+06
1.21978e+06
1.12617e+06
92822.5
156406
424235
296928
1.59934e+06
580241
121563
61029.9
96860.4
569973
397468
1.00071e+06
1.18064e+06
1.09013e+06
158489
2.32306e+06
2.65621e+06
174419
182052
173070
168724
2.33219e+06
469812
343937
998469
2.87952e+06
2.3091e+06
667189
225799
612176
565573
342740
320414
364679
199146
170731
173734
500517
2.25876e+06
123671
1.27968e+06
1.38598e+06
2.16659e+06
1.56455e+06
1.52699e+06
587049
578875
792311
804858
359034
411118
351048
154277
149118
932778
300748
2.10639e+06
1.46621e+06
374657
150081
892028
2.68544e+06
146852
1.46537e+06
1.21921e+06
1.16089e+06
1.51342e+06
1.02507e+06
443330
621339
1.36472e+06
233928
996139
431688
484634
245415
488956
306925
399726
1.09697e+06
545345
224609
193831
264067
1.41862e+06
1.16476e+06
246915
235673
219252
253752
155268
745551
574287
135674
542909
158088
310266
502800
2.45785e+06
2.16382e+06
1.46657e+06
435129
304510
973845
904064
832348
390705
387283
188611
1.32922e+06
175905
768244
997025
284524
238322
2.18843e+06
121656
442141
412636
192715
2.3155e+06
119398
149910
664447
782846
229976
218237
241738
171263
159745
1.46733e+06
123214
180675
22478.2
180620
1.46677e+06
1.40429e+06
2.65993e+06
1.57084e+06
1.98924e+06
156628
2.05162e+06
1.41248e+06
20333
147585
351440
262389
601851
653579
704132
918964
521078
2.16291e+06
1.28224e+06
1.38855e+06
216134
140289
136760
159434
169542
180686
289857
1.2301e+06