/*--------------------------------*- C++ -*----------------------------------*\
| =========                 |                                                 |
| \\      /  F ield         | OpenFOAM: The Open Source CFD Toolbox           |
|  \\    /   O peration     | Version:  2.3.1                                 |
|   \\  /    A nd           | Web:      www.OpenFOAM.org                      |
|    \\/     M anipulation  |                                                 |
\*---------------------------------------------------------------------------*/
FoamFile
{
    version     2.0;
    format      ascii;
    class       volScalarField;
    location    "0.32";
    object      nut;
}
// * * * * * * * * * * * * * * * * * * * * * * * * * * * * * * * * * * * * * //

dimensions      [0 2 -1 0 0 0 0];

internalField   nonuniform List<scalar> 
9648
(
0.000272894
0.000272623
0.000272577
0.000272391
0.000272028
0.000271411
0.000270597
0.000269598
0.000268394
0.000266969
0.000265314
0.000263472
0.000261442
0.000259238
0.000256913
0.000254515
0.000252071
0.000249603
0.000247155
0.000244769
0.000242459
0.000240246
0.000238153
0.000236181
0.000234331
0.000232618
0.000231045
0.000229609
0.000228303
0.000227135
0.000226099
0.000225188
0.000224395
0.000223718
0.000223133
0.000222657
0.000222279
0.000222012
0.000221846
0.00022177
0.000221798
0.000221911
0.000222094
0.000222363
0.000222701
0.000223097
0.000223581
0.00022416
0.000224828
0.00022557
0.000226398
0.000227328
0.000228336
0.000229425
0.000230605
0.000231872
0.000233189
0.000234499
0.000235809
0.000237119
0.000238412
0.000454813
0.000459165
0.000463985
0.000469753
0.000475917
0.000481617
0.000488695
0.000498476
0.000511012
0.000526351
0.000544559
0.000565923
0.000590384
0.000617798
0.000648
0.000680904
0.000716275
0.000753764
0.000793048
0.000833945
0.000876093
0.000919234
0.000963179
0.00100766
0.00105241
0.00109729
0.00114218
0.00118693
0.00123137
0.00127546
0.00131925
0.00136264
0.00140554
0.00144794
0.00148964
0.00153047
0.00157045
0.00160969
0.0016482
0.00168594
0.00172305
0.0017596
0.00179543
0.00183036
0.00186445
0.00189736
0.00192913
0.00195993
0.00198989
0.00201894
0.002047
0.00207415
0.00210058
0.00212578
0.00215041
0.00217428
0.00219802
0.00222061
0.00224273
0.00226461
0.00228644
0.000784702
0.000825947
0.000865376
0.000902971
0.000941953
0.000984209
0.00102904
0.00107757
0.0011293
0.001185
0.00124404
0.00130697
0.00137366
0.001444
0.00151778
0.0015947
0.00167446
0.00175655
0.00184052
0.00192594
0.00201231
0.0020993
0.00218646
0.00227347
0.00236006
0.002446
0.00253115
0.0026152
0.00269812
0.00277986
0.00286042
0.00293987
0.00301826
0.00309543
0.00317117
0.00324553
0.00331823
0.00338936
0.00345903
0.00352719
0.00359421
0.00366012
0.00372499
0.00378887
0.00385142
0.00391261
0.00397233
0.00403069
0.00408755
0.00414312
0.00419744
0.00425065
0.00430333
0.00435398
0.00440487
0.00445368
0.00450226
0.00454788
0.00459368
0.00463867
0.00468299
0.00125757
0.00133671
0.00141394
0.00149024
0.00156758
0.00164731
0.00172966
0.00181514
0.00190382
0.00199642
0.00209268
0.00219298
0.00229702
0.00240483
0.00251595
0.00263002
0.0027466
0.00286518
0.00298525
0.00310628
0.00322782
0.00334932
0.0034704
0.00359075
0.00371013
0.00382827
0.00394507
0.00406033
0.00417401
0.00428598
0.00439629
0.00450498
0.00461205
0.00471764
0.00482194
0.00492487
0.00502658
0.00512686
0.00522488
0.00532106
0.00541513
0.00550758
0.00559903
0.00568935
0.00577884
0.00586727
0.00595448
0.00604039
0.00612452
0.00620696
0.00628828
0.00636754
0.00644561
0.00652189
0.00659801
0.00667206
0.00674411
0.00681422
0.00688279
0.00694977
0.00701421
0.00180116
0.00191052
0.00202014
0.00212992
0.00224076
0.00235398
0.00247028
0.00258991
0.0027134
0.00284112
0.00297302
0.00310904
0.00324906
0.00339284
0.0035398
0.00368931
0.00384079
0.00399381
0.00414778
0.00430226
0.00445667
0.0046105
0.00476331
0.00491481
0.00506479
0.0052132
0.00535982
0.00550463
0.00564746
0.00578818
0.00592679
0.00606322
0.00619766
0.00633038
0.00646125
0.00659126
0.0067201
0.0068472
0.00697291
0.00709585
0.00721675
0.00733546
0.00745165
0.00756641
0.0076795
0.00779178
0.00790343
0.00801376
0.00812261
0.00822883
0.00833312
0.00843536
0.00853514
0.00863277
0.00872868
0.00882299
0.00891445
0.00900362
0.00909054
0.00917461
0.00925578
0.00235204
0.00248397
0.00262131
0.00276196
0.00290547
0.00305234
0.00320321
0.00335847
0.00351816
0.00368244
0.00385108
0.00402368
0.00420014
0.00437992
0.00456262
0.00474742
0.00493336
0.00512027
0.00530735
0.00549424
0.00568048
0.00586537
0.00604863
0.0062298
0.00640895
0.00658601
0.006761
0.00693375
0.00710395
0.00727161
0.00743667
0.00759935
0.0077599
0.00791801
0.00807426
0.00822789
0.00837979
0.00853053
0.00867864
0.00882673
0.00897285
0.00911605
0.00925681
0.00939245
0.00952536
0.00965693
0.00978805
0.00991837
0.010047
0.0101732
0.0102962
0.0104165
0.010534
0.0106484
0.0107606
0.0108696
0.0109759
0.0110796
0.0111802
0.0112768
0.0113708
0.00288509
0.00303596
0.00320068
0.00337315
0.00355106
0.0037338
0.00392164
0.00411468
0.00431276
0.00451528
0.00472213
0.00493233
0.00514565
0.00536156
0.00558031
0.00580041
0.00602076
0.00624134
0.00646102
0.00667958
0.00689692
0.00711196
0.00732471
0.00753426
0.00774094
0.00794518
0.00814673
0.00834586
0.00854169
0.00873399
0.00892357
0.00911004
0.00929412
0.00947655
0.00965535
0.00983104
0.0100036
0.010171
0.0103386
0.0105052
0.0106721
0.0108393
0.0110006
0.0111565
0.0113055
0.0114506
0.0115956
0.0117398
0.0118835
0.0120241
0.0121613
0.0122948
0.0124244
0.0125509
0.0126735
0.0127933
0.0129098
0.0130227
0.0131315
0.0132363
0.0133373
0.00339606
0.00356426
0.00375707
0.00396269
0.00417719
0.00439709
0.00462336
0.00485596
0.00509337
0.0053356
0.00558175
0.00583055
0.0060809
0.00633222
0.00658621
0.0068416
0.00709657
0.00735119
0.00760342
0.00785254
0.00810017
0.00834461
0.00858673
0.00882385
0.00905607
0.00928537
0.00951144
0.00973524
0.00995499
0.0101706
0.0103825
0.0105893
0.010793
0.0109952
0.0111954
0.0113916
0.0115823
0.0117681
0.011948
0.0121283
0.0123103
0.0124921
0.0126723
0.0128447
0.0130079
0.0131644
0.0133175
0.0134699
0.0136218
0.0137711
0.0139161
0.0140566
0.0141941
0.0143273
0.0144556
0.01458
0.0147005
0.0148181
0.014931
0.0150382
0.0151406
0.00389113
0.00407268
0.00429341
0.00452884
0.00478179
0.00503712
0.00530015
0.00557375
0.0058473
0.00612992
0.00641386
0.00670469
0.00699163
0.00727746
0.00756156
0.00785128
0.00814032
0.00842925
0.00871863
0.00899532
0.00927083
0.00954536
0.00981731
0.0100868
0.0103409
0.0105929
0.0108406
0.0110862
0.0113302
0.0115679
0.0118042
0.0120313
0.0122447
0.0124612
0.0126805
0.0128937
0.0131034
0.0133079
0.013501
0.0136918
0.0138829
0.0140786
0.0142672
0.0144539
0.0146349
0.0148016
0.0149613
0.0151126
0.0152696
0.0154191
0.0155693
0.0157058
0.015843
0.0159824
0.0161146
0.0162335
0.0163538
0.0164662
0.0165814
0.0166896
0.0167858
0.00023961
0.000240706
0.000241776
0.000242817
0.000243814
0.000244736
0.000245627
0.000246525
0.000247408
0.000248232
0.000248975
0.000249703
0.000250403
0.000251074
0.000251749
0.000252474
0.000253256
0.000254098
0.000255025
0.000256072
0.000257211
0.000258416
0.000259682
0.000260974
0.000262271
0.000263587
0.000264929
0.000266279
0.000267626
0.000268982
0.000270347
0.000271715
0.000273087
0.000274476
0.000275869
0.000277272
0.000278695
0.000280139
0.000281588
0.000283044
0.000284525
0.000286025
0.000287542
0.000289085
0.000290645
0.000292202
0.000293774
0.000295382
0.000297014
0.000298643
0.000300287
0.000301973
0.000303669
0.000305373
0.000307113
0.000308894
0.000310707
0.000312505
0.00031435
0.000316274
0.000318284
0.00230834
0.00232796
0.00234716
0.00236627
0.00238497
0.00240247
0.00241789
0.00243234
0.00244434
0.00245628
0.0024666
0.0024762
0.00248467
0.00249204
0.00249821
0.00250291
0.00250625
0.00250806
0.00250844
0.00250744
0.00250526
0.00250209
0.00249788
0.00249275
0.00248677
0.00247997
0.00247239
0.00246388
0.00245455
0.00244433
0.00243318
0.00242121
0.00240843
0.00239477
0.00238028
0.00236505
0.00234898
0.00233219
0.00231465
0.00229641
0.00227747
0.00225784
0.00223766
0.00221689
0.00219549
0.00217342
0.00215064
0.00212723
0.00210307
0.00207821
0.00205267
0.00202639
0.00199951
0.00197137
0.00194306
0.00191357
0.00188369
0.00185261
0.00182178
0.00179078
0.00175967
0.00472495
0.00476578
0.00480379
0.00484057
0.0048759
0.00491101
0.0049424
0.00497229
0.00499876
0.00502418
0.00504733
0.00506883
0.00508786
0.00510536
0.00512091
0.00513448
0.00514615
0.00515592
0.00516384
0.00516999
0.00517462
0.00517766
0.00517922
0.00517934
0.00517803
0.0051753
0.00517124
0.00516579
0.00515894
0.00515056
0.00514078
0.00512947
0.00511662
0.00510238
0.00508658
0.00506935
0.00505061
0.00503045
0.00500883
0.00498586
0.00496162
0.00493622
0.00490969
0.00488221
0.00485363
0.00482395
0.00479299
0.00476078
0.00472714
0.00469206
0.00465571
0.00461732
0.00457735
0.00453534
0.00449222
0.00444672
0.00439927
0.0043502
0.00430035
0.00424963
0.00419785
0.007077
0.00713717
0.00719515
0.00725009
0.00730296
0.00735376
0.00740202
0.00744645
0.00748855
0.0075285
0.00756584
0.0076003
0.00763221
0.00766203
0.00768908
0.00771388
0.00773629
0.00775635
0.00777408
0.00778962
0.00780305
0.00781456
0.0078241
0.00783183
0.00783767
0.00784163
0.00784368
0.00784389
0.00784233
0.00783891
0.00783351
0.00782611
0.00781668
0.00780517
0.00779162
0.00777603
0.00775831
0.00773839
0.00771636
0.0076923
0.00766642
0.00763877
0.00760973
0.00757938
0.00754783
0.00751498
0.00748063
0.00744468
0.00740705
0.0073675
0.00732613
0.00728244
0.0072362
0.00718737
0.00713624
0.00708222
0.00702505
0.00696567
0.00690477
0.00684189
0.00677766
0.00933385
0.00940967
0.00948246
0.00955194
0.00961777
0.00968083
0.00974103
0.00979735
0.00985028
0.00990073
0.00994789
0.00999203
0.0100335
0.010072
0.0101077
0.010141
0.0101708
0.0101978
0.0102219
0.0102432
0.0102618
0.0102781
0.010292
0.0103038
0.0103132
0.0103203
0.0103252
0.0103279
0.0103287
0.0103276
0.0103245
0.0103191
0.0103113
0.0103011
0.0102886
0.0102736
0.0102559
0.0102356
0.0102123
0.0101864
0.0101578
0.010127
0.0100943
0.0100601
0.0100246
0.00998787
0.00994971
0.00990949
0.00986781
0.00982452
0.00977904
0.00973101
0.00968015
0.00962603
0.0095689
0.0095075
0.00944273
0.00937505
0.00930501
0.00923223
0.00915804
0.011461
0.011548
0.0116308
0.0117108
0.0117866
0.0118585
0.011927
0.0119907
0.0120511
0.0121077
0.0121613
0.0122115
0.0122584
0.0123021
0.0123423
0.0123794
0.0124129
0.0124432
0.0124699
0.0124927
0.0125122
0.0125287
0.0125424
0.0125536
0.012562
0.0125675
0.0125703
0.0125706
0.0125688
0.0125654
0.0125604
0.0125532
0.0125438
0.0125319
0.0125179
0.012501
0.012481
0.0124579
0.0124314
0.0124016
0.0123685
0.0123321
0.0122931
0.0122522
0.0122099
0.0121668
0.012122
0.0120757
0.0120279
0.0119791
0.0119284
0.0118746
0.011818
0.0117584
0.011695
0.0116266
0.0115543
0.0114776
0.0113987
0.0113168
0.0112328
0.0134344
0.0135275
0.0136162
0.0137005
0.0137807
0.013857
0.0139287
0.0139958
0.0140589
0.0141179
0.014173
0.0142247
0.014273
0.014317
0.0143572
0.0143944
0.0144281
0.0144582
0.0144839
0.0145045
0.0145209
0.0145336
0.0145429
0.0145492
0.0145524
0.014552
0.014548
0.0145404
0.0145302
0.0145187
0.0145067
0.0144928
0.0144776
0.0144603
0.0144418
0.0144208
0.0143961
0.0143678
0.0143362
0.0143012
0.0142623
0.014219
0.0141719
0.0141222
0.0140707
0.0140191
0.0139649
0.0139096
0.0138528
0.0137969
0.0137393
0.0136782
0.0136151
0.0135488
0.0134796
0.0134038
0.0133236
0.013238
0.0131507
0.0130597
0.0129662
0.0152388
0.015332
0.0154203
0.0155031
0.0155813
0.0156541
0.0157227
0.0157871
0.0158478
0.0159041
0.0159554
0.0160034
0.0160483
0.0160892
0.0161247
0.0161561
0.0161857
0.0162126
0.0162352
0.0162518
0.0162618
0.016268
0.0162703
0.0162684
0.0162634
0.0162543
0.0162411
0.0162219
0.0161976
0.016171
0.0161458
0.0161187
0.016092
0.0160638
0.0160374
0.0160106
0.0159787
0.0159417
0.0159019
0.0158606
0.0158159
0.0157666
0.0157112
0.0156521
0.015591
0.0155303
0.015465
0.0153991
0.0153304
0.0152649
0.0151996
0.0151288
0.0150572
0.0149837
0.0149089
0.0148259
0.0147386
0.0146439
0.0145486
0.0144491
0.0143478
0.0168834
0.016972
0.0170575
0.0171289
0.0171987
0.0172547
0.0173129
0.0173588
0.0174072
0.017458
0.0175013
0.0175309
0.017566
0.0176004
0.0176287
0.0176481
0.0176627
0.0176777
0.0176952
0.0177077
0.0177089
0.017708
0.0177057
0.0176944
0.0176782
0.0176578
0.017636
0.0176097
0.0175707
0.0175243
0.0174807
0.0174334
0.0173876
0.0173385
0.0172964
0.0172606
0.0172199
0.017169
0.0171154
0.0170625
0.0170092
0.0169591
0.0168968
0.0168287
0.0167627
0.0166942
0.0166224
0.0165456
0.0164658
0.0163879
0.0163133
0.0162299
0.0161442
0.0160638
0.0159802
0.0158937
0.0157988
0.0156987
0.0155939
0.015488
0.0153779
0.000320293
0.000322283
0.000324353
0.000326499
0.000328694
0.000330891
0.000333121
0.000335414
0.000337747
0.000340103
0.000342482
0.000344903
0.000347344
0.000349873
0.00035308
0.000355865
0.000358643
0.000361411
0.00036418
0.000366977
0.000369785
0.000372608
0.000375453
0.0003783
0.000381136
0.000383969
0.000386797
0.00038961
0.000392389
0.000395137
0.000397844
0.000400498
0.000403088
0.000405616
0.000408056
0.000410405
0.000412653
0.000414776
0.000416623
0.000417964
0.000418886
0.000419402
0.00041951
0.000419204
0.000418429
0.000417121
0.000415236
0.000412712
0.000409425
0.000405222
0.000399968
0.000393496
0.000385519
0.000375701
0.000363683
0.00034177
0.00033111
0.000325398
0.000323065
0.000322048
0.000320079
0.00172802
0.00169633
0.00166413
0.00163174
0.00159914
0.00156661
0.00153361
0.00150087
0.001468
0.00143552
0.00140384
0.00137167
0.0013402
0.00130903
0.0012738
0.00123929
0.00120517
0.0011717
0.00113892
0.00110688
0.00107556
0.00104478
0.00101452
0.000984778
0.000955525
0.000926805
0.000898593
0.000870943
0.000843831
0.000817266
0.000791284
0.000765909
0.000741133
0.000717001
0.000693571
0.00067086
0.000648967
0.000627968
0.000607528
0.00058487
0.00056162
0.000539311
0.000518056
0.000498039
0.000479354
0.000462199
0.000446846
0.000433556
0.000422593
0.000414288
0.000409001
0.000407161
0.000409199
0.000415759
0.000424986
0.000446969
0.00048098
0.000535676
0.000619754
0.000740868
0.000867402
0.00414554
0.00409253
0.00403863
0.00398327
0.00392665
0.00386903
0.00381034
0.00375101
0.003691
0.00363095
0.00356891
0.00350764
0.00344882
0.00338983
0.00332799
0.00326379
0.00319831
0.00313265
0.00306709
0.00300193
0.00293702
0.00287203
0.00280697
0.00274184
0.00267655
0.00261117
0.00254564
0.00248
0.0024141
0.00234801
0.00228164
0.00221496
0.00214804
0.00208077
0.00201322
0.00194537
0.00187728
0.00180891
0.00174007
0.0016694
0.00159659
0.00151202
0.00141993
0.00132494
0.00122823
0.00113099
0.00103484
0.000941288
0.000852295
0.000769844
0.000695907
0.000632351
0.000580422
0.000541512
0.000515154
0.000505514
0.000515282
0.00054938
0.000617059
0.000731762
0.000894772
0.00671239
0.00664683
0.00657973
0.00651046
0.00643852
0.00636503
0.00629003
0.00621427
0.0061381
0.00606135
0.0059808
0.00590262
0.00582696
0.005751
0.0056719
0.00558939
0.00550436
0.0054185
0.00533237
0.00524631
0.00516008
0.00507293
0.00498508
0.00489659
0.00480726
0.0047171
0.00462601
0.00453397
0.00444074
0.00434624
0.0042504
0.00415325
0.00405469
0.00395478
0.00385354
0.00375094
0.00364695
0.00354155
0.00343455
0.00332536
0.00321316
0.00309465
0.00296176
0.00281158
0.00264976
0.00247655
0.00229272
0.00209949
0.00189925
0.00169602
0.00149431
0.00130131
0.00112342
0.000967454
0.000837148
0.000737586
0.000672056
0.000640635
0.00064526
0.000693024
0.000793485
0.009082
0.00900547
0.00892716
0.00884667
0.00876202
0.00867518
0.00858664
0.00849805
0.00840888
0.00831912
0.00822472
0.00813292
0.00804334
0.00795371
0.00786096
0.00776435
0.00766438
0.00756357
0.00746227
0.00736095
0.007259
0.00715528
0.0070505
0.00694479
0.00683763
0.0067292
0.00661911
0.00650736
0.00639351
0.00627753
0.00615931
0.00603905
0.00591678
0.00579265
0.00566664
0.00553887
0.00540934
0.005278
0.00514469
0.00500911
0.00487073
0.00472824
0.00457842
0.00441217
0.00422754
0.00402694
0.00380883
0.00357178
0.00331462
0.00303815
0.00274379
0.00243624
0.00212423
0.00182006
0.00153772
0.0012917
0.00109449
0.000948814
0.00085228
0.000803995
0.000807502
0.0111458
0.0110585
0.0109696
0.0108785
0.0107821
0.0106829
0.0105811
0.0104801
0.010379
0.0102777
0.0101712
0.0100668
0.00996448
0.00986295
0.00975786
0.00964899
0.00953636
0.00942359
0.00931027
0.00919694
0.00908245
0.00896498
0.00884657
0.00872744
0.00860627
0.00848338
0.00835809
0.00823051
0.0080998
0.00796627
0.00782979
0.00769105
0.00755016
0.00740751
0.00726294
0.00711676
0.00696892
0.0068195
0.00666836
0.00651539
0.00636013
0.00620205
0.00603968
0.00586928
0.00568024
0.00547583
0.00525327
0.00501103
0.004746
0.00445533
0.00413697
0.00378948
0.0034147
0.0030203
0.00261854
0.00223037
0.00187868
0.00157945
0.00133933
0.00115951
0.00103948
0.0128681
0.0127702
0.0126712
0.0125707
0.0124629
0.0123513
0.0122364
0.0121233
0.012011
0.0118996
0.0117812
0.0116652
0.0115512
0.0114393
0.0113233
0.011204
0.0110805
0.010958
0.0108349
0.0107121
0.0105874
0.0104579
0.0103286
0.0101993
0.0100669
0.0099321
0.00979377
0.00965285
0.00950738
0.00935862
0.00920644
0.00905274
0.00889715
0.00874065
0.00858252
0.00842345
0.00826311
0.0081021
0.00794015
0.00777748
0.00761343
0.00744779
0.00727979
0.00710745
0.00692642
0.00672643
0.00651061
0.00627695
0.00602273
0.00574505
0.00544003
0.00510374
0.00473355
0.00432798
0.00389168
0.00343618
0.0029812
0.00255019
0.00216192
0.00182882
0.00155836
0.0142393
0.0141302
0.0140216
0.0139125
0.0137945
0.0136715
0.0135441
0.0134189
0.0132963
0.0131754
0.0130465
0.0129197
0.0127957
0.0126753
0.0125504
0.0124223
0.01229
0.0121595
0.0120288
0.0118988
0.0117651
0.0116251
0.0114874
0.0113509
0.0112088
0.011063
0.0109126
0.0107596
0.0106
0.0104372
0.0102711
0.0101058
0.00993904
0.00977312
0.00960569
0.00943862
0.00927068
0.00910431
0.0089384
0.00877391
0.00860895
0.00844394
0.00827769
0.00810901
0.00793492
0.00774766
0.00754392
0.00732415
0.00708706
0.00683059
0.00655212
0.00624758
0.00591201
0.00554122
0.00513269
0.004688
0.00421584
0.00373073
0.00325196
0.00279832
0.00238728
0.0152646
0.0151423
0.0150261
0.0149057
0.0147823
0.0146467
0.0145111
0.0143709
0.0142406
0.014109
0.0139737
0.0138359
0.0137063
0.0135774
0.0134486
0.0133105
0.0131759
0.0130356
0.0128999
0.0127664
0.0126226
0.0124759
0.0123318
0.0121873
0.0120366
0.0118774
0.011717
0.0115501
0.0113774
0.0112006
0.0110244
0.0108513
0.0106767
0.0105048
0.0103325
0.0101618
0.0099917
0.00982871
0.00966749
0.00951121
0.00935254
0.00919604
0.00903809
0.00887789
0.00871417
0.00854251
0.00835312
0.00814771
0.00792935
0.00770137
0.00745461
0.00719082
0.00689818
0.0065786
0.00622175
0.00583092
0.00539859
0.00493609
0.00444655
0.00394514
0.00345225
0.000316144
0.000311638
0.000306726
0.000301421
0.000295932
0.000290359
0.000284858
0.000279618
0.000274798
0.00027051
0.000266822
0.000263793
0.000261382
0.000259518
0.000258142
0.000257182
0.000256538
0.00025613
0.000255911
0.000255849
0.000255899
0.000256039
0.000256262
0.000256545
0.000256881
0.000257274
0.000257723
0.000258224
0.000258767
0.000259359
0.00025999
0.000260656
0.000261353
0.000262077
0.00026281
0.000263551
0.00026429
0.000265014
0.000265699
0.000266337
0.000266929
0.000267454
0.000267905
0.00026829
0.000268596
0.000268821
0.000268992
0.000269136
0.000269261
0.000269372
0.000269501
0.000269685
0.000269902
0.000270168
0.000270488
0.000270863
0.000271254
0.000271622
0.000271985
0.000272335
0.000272656
0.000933379
0.000989359
0.00103414
0.00106182
0.00107376
0.00107505
0.00106337
0.00103923
0.00100498
0.000962806
0.000914788
0.000864173
0.000813495
0.000764829
0.000718599
0.000676403
0.000639663
0.000608936
0.000583866
0.00056397
0.00054852
0.000536728
0.000527851
0.000521289
0.000516581
0.000513397
0.000511477
0.000510619
0.000510661
0.000511459
0.00051288
0.000514794
0.000517054
0.000519501
0.00052199
0.000524374
0.000526486
0.000528182
0.000529297
0.000529678
0.000529177
0.000527652
0.000524975
0.00052103
0.00051575
0.000509128
0.000501236
0.000492266
0.000482516
0.000472437
0.000462587
0.000453581
0.000445994
0.000440261
0.000436681
0.000435269
0.000435858
0.000438076
0.000441507
0.000445639
0.000450128
0.00106581
0.00123794
0.00140639
0.00156189
0.001664
0.00174457
0.00180139
0.00182921
0.00183108
0.00181057
0.00176846
0.00170901
0.00163622
0.00155366
0.00146358
0.00137034
0.00127974
0.00119695
0.00112341
0.00106153
0.00101176
0.000973338
0.000944762
0.000924236
0.000910119
0.000901122
0.00089625
0.000894699
0.000895799
0.000898969
0.000903746
0.000909598
0.000915984
0.000922373
0.000928218
0.000933039
0.000936354
0.000937711
0.000936663
0.000932828
0.000925895
0.000915678
0.000902082
0.000885166
0.000865041
0.000842014
0.000816474
0.00078897
0.000760154
0.000730965
0.00070264
0.000676677
0.000654884
0.000638958
0.000630475
0.000630313
0.00063873
0.000655363
0.000679405
0.000709743
0.000745114
0.000943551
0.0011375
0.00136397
0.00160374
0.00182256
0.0020208
0.00220339
0.0023396
0.00243382
0.00249802
0.00252935
0.00252947
0.00250328
0.00245263
0.0023791
0.00228586
0.00217711
0.00206328
0.00195119
0.00184719
0.00175601
0.001681
0.00162292
0.00158058
0.00155178
0.00153444
0.00152666
0.00152689
0.00153361
0.00154549
0.00156145
0.00158036
0.00160095
0.00162195
0.00164214
0.00166032
0.00167534
0.00168603
0.00169132
0.00169016
0.00168165
0.00166512
0.0016401
0.00160642
0.00156414
0.00151381
0.00145621
0.00139249
0.00132383
0.00125207
0.0011795
0.0011092
0.00104515
0.000992298
0.00095616
0.000941266
0.000949211
0.000979712
0.00103049
0.00109815
0.00117656
0.000867156
0.000986726
0.00116736
0.0014014
0.00166559
0.00193951
0.00220822
0.00244964
0.00265747
0.0028388
0.0029771
0.00306609
0.0031228
0.00314713
0.0031403
0.00310727
0.00304999
0.00296954
0.00287703
0.00278116
0.0026875
0.00260305
0.00253296
0.00247961
0.00244304
0.00242232
0.00241609
0.002423
0.00244107
0.00246834
0.00250324
0.00254402
0.00258866
0.00263497
0.00268093
0.00272451
0.00276367
0.00279648
0.00282087
0.00283494
0.00283689
0.00282536
0.00279904
0.00275715
0.002699
0.00262488
0.00253524
0.00243121
0.00231419
0.00218629
0.00205039
0.00191086
0.00177344
0.00164645
0.00154148
0.00147268
0.00144476
0.00145964
0.00151363
0.00159476
0.00169396
0.000980959
0.000986199
0.0010587
0.00120083
0.00140798
0.00166837
0.00196355
0.00226741
0.00255836
0.00282507
0.00305514
0.00324368
0.00340062
0.00351333
0.00358201
0.00362519
0.00364407
0.00364113
0.00362316
0.00359338
0.00355815
0.00352198
0.0034897
0.00346555
0.0034529
0.00345308
0.00346687
0.00349498
0.00353628
0.00358888
0.00365135
0.00372173
0.00379759
0.00387613
0.00395468
0.00403044
0.00410072
0.00416272
0.00421356
0.00425049
0.00427086
0.00427261
0.00425368
0.00421255
0.00414755
0.00405861
0.00394535
0.00380848
0.00364875
0.00346811
0.00326899
0.00305584
0.00283472
0.00261483
0.00241093
0.00224346
0.00212434
0.0020665
0.00207274
0.00213289
0.00223138
0.00135532
0.00122232
0.00116135
0.00117447
0.00126265
0.00142461
0.00165407
0.00193613
0.00224891
0.00256822
0.00287093
0.00314147
0.00337488
0.00356617
0.00371852
0.00384718
0.00394169
0.00400902
0.00406674
0.00411739
0.00416984
0.00422293
0.00427612
0.0043303
0.00438655
0.00444633
0.00451238
0.00458836
0.00467435
0.00476919
0.00487218
0.00498168
0.0050956
0.00521115
0.0053256
0.00543595
0.0055391
0.00563166
0.00571013
0.0057711
0.00581135
0.00582828
0.00581939
0.00578269
0.00571559
0.00561741
0.00548701
0.00532457
0.00513035
0.00490556
0.00465197
0.00437326
0.00407422
0.00376255
0.00345232
0.00316331
0.00292007
0.00274942
0.00266992
0.00267996
0.00275994
0.00203252
0.00174491
0.00153132
0.00139613
0.00134111
0.0013666
0.0014714
0.00165113
0.00189624
0.0021899
0.0025089
0.00282888
0.00313106
0.00340076
0.00363295
0.00383085
0.00399662
0.00413683
0.00426959
0.00438061
0.0045046
0.00463747
0.00477724
0.00492261
0.00507408
0.00522891
0.0053854
0.00554167
0.00569982
0.00586059
0.00602336
0.00618634
0.00634816
0.00650722
0.00666134
0.0068082
0.00694496
0.00706796
0.00717316
0.00725667
0.00731581
0.00734679
0.00734744
0.00731565
0.00724826
0.00714324
0.00699979
0.00681619
0.00659345
0.00633158
0.00603217
0.00569724
0.00532962
0.00493507
0.00452633
0.00412081
0.00374943
0.00345348
0.00327248
0.00321845
0.00327058
0.00298234
0.00255798
0.00219422
0.00190078
0.00168788
0.00155919
0.00151601
0.00155608
0.00167585
0.00186847
0.00212111
0.00241719
0.00273752
0.00306082
0.00336891
0.00365519
0.00390564
0.00412099
0.00430454
0.00446472
0.00465227
0.00483771
0.00503065
0.00523859
0.0054682
0.00571363
0.00596961
0.00622873
0.00648513
0.00673588
0.00698089
0.00721609
0.0074386
0.00765147
0.0078514
0.00803899
0.00821238
0.00836771
0.00850029
0.00860511
0.00868385
0.00872689
0.008737
0.00870964
0.00864419
0.00853372
0.00838217
0.00817905
0.00793349
0.00763937
0.00730322
0.00692132
0.00649506
0.00603278
0.00554007
0.00503244
0.00454782
0.00414038
0.00386341
0.00374609
0.00376615
0.00510865
0.0183206
0.0185958
0.00184302
0.00522496
0.00710572
0.00125075
0.00585209
0.00128783
0.00334128
0.0107221
0.0150282
0.00125054
0.013376
0.00666367
0.0197457
0.00126277
0.00628419
0.0101211
0.00125382
0.00184723
0.0132447
0.0180981
0.00127739
0.00127786
0.00477273
0.00125361
0.00297644
0.00125932
0.00131468
0.00697539
0.00127454
0.00272492
0.00875319
0.0141256
0.00943333
0.00827179
0.0141915
0.00124715
0.0144708
0.00493907
0.013057
0.00124668
0.019527
0.0052648
0.00996105
0.00135615
0.00241536
0.0013287
0.0152306
0.0106199
0.0152721
0.00124674
0.00143982
0.00193513
0.000245569
0.00131198
0.00460439
0.0091054
0.0176456
0.00400477
0.00135411
0.00131737
0.00368304
0.019038
0.00492085
0.00933639
0.00428147
0.00148191
0.00124267
0.013351
0.0144235
0.00475332
0.000592575
0.00268842
0.018315
0.0184758
0.0173287
0.00124419
0.0145359
0.00193931
0.0137768
0.000792461
0.0189633
0.00124269
0.0120893
0.00128376
0.0118552
0.00175638
0.00158934
0.00562604
0.00124389
0.00137833
0.0170289
0.0190699
0.00133993
0.0109707
0.00442596
0.00177568
0.019094
0.00244695
0.0177424
0.00848506
0.00124383
0.00124222
0.00124677
0.00595926
0.00669176
0.00126405
0.0194934
0.0188127
0.00161499
0.00796572
0.00762985
0.00523189
0.0122848
0.0103149
0.00140392
0.00597249
0.0014359
0.00131585
0.00559865
0.00161444
0.0171641
0.012888
0.00309731
0.00124625
0.0133453
0.0137935
0.00124632
0.00348992
0.00376954
0.002878
0.00156753
0.0130736
0.00124582
0.00124236
0.0134301
0.0157083
0.00125249
0.00324256
0.0193113
0.00429169
0.00909167
0.00824274
0.0175203
0.000446175
0.00890901
0.00249922
0.0162456
0.0127938
0.000221079
0.0144839
0.01889
0.0191718
0.00128572
0.00126716
0.00829784
0.00125316
0.00849849
0.000745294
0.0016194
0.00124378
0.00124738
0.00124301
0.0178358
0.00405714
0.00644832
0.00128997
0.0144162
0.00672918
0.00221873
0.013069
0.00252347
0.00771778
0.00573838
0.0116054
0.00125805
0.00170794
0.00392861
0.0126179
0.0133215
0.0173475
0.00124732
0.00132564
0.00895605
0.00397703
0.0116791
0.00124516
0.00135734
0.00572134
0.00129803
0.0163308
0.0105596
0.00125362
0.00870052
0.00324843
0.0183216
0.00151339
0.00654767
0.00124727
0.00125306
0.0199014
0.0159529
0.0157692
0.00152142
0.00129285
0.00183439
0.0161979
0.00588246
0.0108846
0.0183491
0.0148789
0.0186947
0.0039128
0.0196072
0.0185013
0.0129192
0.0156614
0.0122006
0.00150803
0.00419567
0.00125097
0.00126823
0.0107057
0.00297856
0.00313206
0.00153664
0.00244809
0.0146321
0.00991885
0.00287424
0.0185941
0.0140288
0.00467669
0.00124479
0.00445735
0.0180953
0.0133168
0.00144904
0.00949944
0.00332294
0.00333788
0.00295932
0.0176686
0.00738456
0.00419825
0.0196633
0.00138825
0.00124356
0.00142275
0.00230925
0.00971868
0.00129767
0.00158194
0.00124599
0.00769663
0.0190586
0.0185825
0.0139295
0.0125068
0.0163114
0.0161644
0.00148596
0.00831022
0.0188444
0.00124606
0.00431163
0.0012428
0.00447314
0.00763149
0.00419035
0.00165092
0.00124642
0.0159232
0.00296139
0.00124299
0.0012546
0.00125797
0.00126113
0.00986488
0.0065122
0.0180963
0.00177083
0.00124293
0.00124409
0.00124406
0.0194518
0.00401649
0.00150524
0.0129918
0.00596852
0.00153872
0.00124647
0.00804757
0.0012427
0.00221436
0.00404644
0.00724108
0.00265646
0.00141492
0.00173631
0.0169812
0.00507024
0.00261322
0.0160989
0.00131509
0.00124334
0.00124527
0.0196105
0.00127342
0.0155116
0.00124555
0.0132506
0.0107431
0.00269655
0.00553348
0.00593005
0.00154397
0.0135316
0.0138021
0.00272348
0.021414
0.0103809
0.0158186
0.0140989
0.0191315
0.00846477
0.0193727
0.00468647
0.00668513
0.0159929
0.0174355
0.0131343
0.0121657
0.00140242
0.0161841
0.00541347
0.0185599
0.00363108
0.0013315
0.00124655
0.00129722
0.00395104
0.0102826
0.00704157
0.00616942
0.00124931
0.0194494
0.00124619
0.00711974
0.0144041
0.0192807
0.014305
0.0162025
0.00166727
0.00147341
0.00147411
0.00821294
0.00220549
0.00607985
0.00933603
0.010757
0.0185562
0.0180473
0.0168055
0.00131309
0.0172997
0.0190486
0.00282345
0.00125386
0.0190228
0.0193595
0.00127712
0.0115094
0.00125476
0.0105115
0.0164547
0.0112777
0.0194235
0.00503543
0.0195746
0.00127542
0.0196583
0.0013884
0.0174232
0.017882
0.0117483
0.0174139
0.0128952
0.00833191
0.01063
0.00147135
0.00375843
0.00132898
0.00205202
0.00123363
0.00702959
0.00138179
0.0186485
0.00124387
0.00125526
0.00176024
0.00934531
0.00519381
0.0140732
0.00154125
0.0195097
0.00785353
0.0185305
0.00617587
0.0165409
0.0102868
0.00129836
0.0174476
0.0179751
0.001249
0.0178129
0.0149117
0.00124634
0.00124202
0.00900588
0.00182867
0.012416
0.00146862
0.0065788
0.00365278
0.00965295
0.0160707
0.0180207
0.0160207
0.0171012
0.0178273
0.00140107
0.00122398
0.00908683
0.0118007
0.0156946
0.0110474
0.0183847
0.00459823
0.0192144
0.0191957
0.00661983
0.00292692
0.0160925
0.0149438
0.0013219
0.0183697
0.0144034
0.00144574
0.0196338
0.0166902
0.0161589
0.00343452
0.00466994
0.0129266
0.00166991
0.0158643
0.00153887
0.00324381
0.00125153
0.0114073
0.00284048
0.0086305
0.0015687
0.00136537
0.00869165
0.00869855
0.00140376
0.00268006
0.0105632
0.00275433
0.00128692
0.0162388
0.00903112
0.0130591
0.00777409
0.00351429
0.0120906
0.0169704
0.0183069
0.00721087
0.0118725
0.0167069
0.00612871
0.015045
0.0195541
0.000444454
0.005946
0.0121684
0.0012966
0.00317448
0.00787749
0.0125033
0.00275918
0.0212445
0.00424566