/*--------------------------------*- C++ -*----------------------------------*\
| =========                 |                                                 |
| \\      /  F ield         | OpenFOAM: The Open Source CFD Toolbox           |
|  \\    /   O peration     | Version:  2.3.1                                 |
|   \\  /    A nd           | Web:      www.OpenFOAM.org                      |
|    \\/     M anipulation  |                                                 |
\*---------------------------------------------------------------------------*/
FoamFile
{
    version     2.0;
    format      ascii;
    class       surfaceScalarField;
    location    "0.32";
    object      phi;
}
// * * * * * * * * * * * * * * * * * * * * * * * * * * * * * * * * * * * * * //

dimensions      [0 3 -1 0 0 0 0];

internalField   nonuniform List<scalar> 
15416
(
-0.000702142
-6.5498e-06
0.000705793
-0.000697784
-4.35925e-06
-0.000695062
-2.72278e-06
-0.000693583
-1.47784e-06
-0.000693432
-1.5032e-07
-0.000694921
1.49036e-06
-0.000698806
3.88567e-06
-0.000705297
6.49224e-06
-0.00071463
9.33395e-06
-0.000727132
1.25011e-05
-0.0007432
1.60676e-05
-0.000763034
1.98333e-05
-0.000786747
2.37124e-05
-0.000814398
2.76495e-05
-0.000846057
3.16572e-05
-0.000881626
3.55666e-05
-0.000920904
3.92732e-05
-0.00096367
4.27611e-05
-0.00100977
4.60985e-05
-0.00105888
4.91056e-05
-0.00111073
5.18445e-05
-0.00116506
5.43284e-05
-0.0012215
5.6454e-05
-0.0012797
5.82176e-05
-0.00133942
5.97408e-05
-0.0014004
6.10242e-05
-0.00146237
6.20067e-05
-0.001525
6.26637e-05
-0.00158806
6.30926e-05
-0.0016514
6.33402e-05
-0.00171475
6.32934e-05
-0.00177791
6.30651e-05
-0.0018408
6.27815e-05
-0.00190317
6.22958e-05
-0.00196478
6.16607e-05
-0.00202556
6.09537e-05
-0.00208535
6.01178e-05
-0.00214402
5.90001e-05
-0.00220137
5.7537e-05
-0.0022574
5.60309e-05
-0.00231216
5.45509e-05
-0.00236554
5.30207e-05
-0.00241745
5.15537e-05
-0.00246791
5.01689e-05
-0.00251656
4.84639e-05
-0.00256324
4.66666e-05
-0.00260808
4.49094e-05
-0.00265112
4.31762e-05
-0.00269222
4.12496e-05
-0.00273131
3.92025e-05
-0.00276843
3.71624e-05
-0.00280371
3.52852e-05
-0.00283665
3.2923e-05
-0.00286771
3.10298e-05
-0.00289667
2.89359e-05
-0.00292389
2.7207e-05
-0.00294843
2.4528e-05
-0.0029707
2.22717e-05
-0.00299108
2.03721e-05
-0.00300971
1.86338e-05
1.69277e-05
-0.00302664
-0.000401421
-5.85952e-06
0.000400729
-0.00040335
-2.43156e-06
-0.00040752
1.44932e-06
-0.000414783
5.78645e-06
-0.000426565
1.16338e-05
-0.000442197
1.7124e-05
-0.000461827
2.35165e-05
-0.000485308
2.99741e-05
-0.000513248
3.7274e-05
-0.00054518
4.44336e-05
-0.000581275
5.21621e-05
-0.000621376
5.99339e-05
-0.000665367
6.77021e-05
-0.000713109
7.53914e-05
-0.000764298
8.28443e-05
-0.000818788
9.00551e-05
-0.000876314
9.6796e-05
-0.000936659
0.000103103
-0.000999467
0.000108905
-0.00106454
0.000114173
-0.00113165
0.000118957
-0.00120036
0.000123045
-0.00127048
0.000126582
-0.00134179
0.000129536
-0.00141399
0.000131933
-0.00148683
0.000133851
-0.00155998
0.000135142
-0.00163339
0.000136076
-0.00170675
0.000136501
-0.00177975
0.000136425
-0.00185243
0.000136049
-0.00192466
0.000135256
-0.00199605
0.000133932
-0.00206655
0.000132359
-0.00213612
0.000130674
-0.0022043
0.00012874
-0.0022711
0.000126893
-0.00233641
0.000124741
-0.00240024
0.000122279
-0.00246241
0.000119344
-0.00252271
0.000115907
-0.00258145
0.000112517
-0.00263852
0.000108802
-0.00269364
0.000104979
-0.00274686
0.000101138
-0.0027979
9.7217e-05
-0.00284681
9.35737e-05
-0.00289318
8.95127e-05
-0.00293743
8.55966e-05
-0.00297956
8.14615e-05
-0.00301955
7.72585e-05
-0.00305773
7.3522e-05
-0.00309245
6.76662e-05
-0.00312649
6.50682e-05
-0.00315672
5.91498e-05
-0.00318541
5.58763e-05
-0.00320974
4.88455e-05
-0.0032339
4.64265e-05
-0.00325578
4.22484e-05
-0.0032755
3.83443e-05
3.22941e-05
-0.00329086
-0.000258174
2.5022e-06
0.000249812
-0.00026932
8.71862e-06
-0.000284277
1.64104e-05
-0.000303621
2.51334e-05
-0.000326634
3.46494e-05
-0.000354231
4.47217e-05
-0.000385954
5.52413e-05
-0.000422084
6.61042e-05
-0.000462523
7.77133e-05
-0.000507358
8.92686e-05
-0.000556304
0.000101108
-0.000608971
0.000112601
-0.000665475
0.000124207
-0.00072543
0.000135345
-0.000788627
0.00014604
-0.000854779
0.000156205
-0.000923663
0.000165677
-0.000994998
0.000174438
-0.00106847
0.000182374
-0.00114391
0.000189618
-0.00122086
0.000195911
-0.00129924
0.00020143
-0.00137874
0.000206089
-0.00145911
0.000209895
-0.00154006
0.000212848
-0.00162134
0.000215079
-0.00170279
0.000216544
-0.00178413
0.000217406
-0.00186509
0.000217507
-0.00194579
0.000217211
-0.00202578
0.000216093
-0.00210486
0.000214289
-0.00218323
0.000212069
-0.00226041
0.00020909
-0.00233626
0.000206029
-0.00241077
0.000202757
-0.00248378
0.000199601
-0.00255511
0.000196086
-0.00262469
0.000192115
-0.00269229
0.000187685
-0.00275799
0.00018261
-0.00282133
0.000176948
-0.0028828
0.000171308
-0.00294224
0.000164984
-0.00299957
0.000158633
-0.00305473
0.000152197
-0.00310748
0.000145951
-0.00315791
0.000139635
-0.00320575
0.000133247
-0.00325177
0.000127443
-0.00329406
0.000119595
-0.00333374
0.000113274
-0.0033718
0.000105781
-0.00340756
0.000100862
-0.00344118
9.2781e-05
-0.00347052
8.52122e-05
-0.00349971
7.80301e-05
-0.00352458
7.12853e-05
-0.00354722
6.48803e-05
-0.0035656
5.67112e-05
5.05616e-05
-0.00358387
-0.000188742
1.80604e-05
0.00017319
-0.000208507
2.84882e-05
-0.000232423
4.03309e-05
-0.000260542
5.32562e-05
-0.000292995
6.71044e-05
-0.000329932
8.16603e-05
-0.000371268
9.65787e-05
-0.000417359
0.000112196
-0.000467765
0.000128119
-0.000522576
0.00014408
-0.000581349
0.00015988
-0.000644262
0.000175514
-0.00071088
0.000190825
-0.000780777
0.000205242
-0.000853888
0.000219149
-0.000929854
0.000232168
-0.00100838
0.000244206
-0.00108918
0.000255231
-0.00117201
0.000265213
-0.00125647
0.000274082
-0.00134254
0.000281982
-0.00142971
0.000288598
-0.00151789
0.000294255
-0.00160675
0.00029873
-0.0016961
0.000302173
-0.00178552
0.000304491
-0.0018749
0.000305939
-0.00196406
0.000306591
-0.00205291
0.0003063
-0.00214099
0.000305112
-0.00222839
0.00030325
-0.00231493
0.00030061
-0.00239999
0.000297154
-0.00248369
0.000293205
-0.00256596
0.000288709
-0.00264667
0.000283732
-0.00272577
0.000278103
-0.00280349
0.000272242
-0.00287928
0.000266287
-0.00295312
0.000260147
-0.00302429
0.000253722
-0.00309323
0.000247165
-0.00315959
0.0002394
-0.00322368
0.000230935
-0.00328533
0.000221422
-0.00334451
0.000211811
-0.00340123
0.000202586
-0.00345583
0.000193811
-0.00350713
0.000184135
-0.00355587
0.000175898
-0.00360313
0.00016674
-0.00364624
0.000156379
-0.0036871
0.000146689
-0.00372384
0.000137648
-0.00376022
0.000129203
-0.00379247
0.000117483
-0.00382247
0.00010803
-0.00385022
9.90381e-05
-0.00387378
8.84316e-05
-0.0038951
7.8016e-05
6.76762e-05
-0.00391222
-0.000156904
4.06259e-05
0.000134343
-0.000183449
5.50372e-05
-0.000214507
7.13923e-05
-0.000250214
8.89672e-05
-0.000290604
0.000107497
-0.000335874
0.000126932
-0.000386196
0.000146901
-0.000441033
0.000167033
-0.000500622
0.000187708
-0.000564577
0.000208035
-0.000632929
0.000228234
-0.000705364
0.000247951
-0.000781344
0.000266805
-0.000860903
0.000284798
-0.000943827
0.000302069
-0.0010291
0.000317436
-0.00111702
0.00033213
-0.00120715
0.000345369
-0.00129912
0.000357185
-0.00139278
0.000367735
-0.00148776
0.000376953
-0.00158396
0.000384775
-0.00168096
0.00039123
-0.0017785
0.000396248
-0.00187617
0.000399876
-0.00197406
0.000402446
-0.00207166
0.000403646
-0.00216888
0.000403816
-0.00226556
0.000402823
-0.00236159
0.00040081
-0.00245667
0.000397831
-0.00255046
0.000394106
-0.00264284
0.000389745
-0.00273366
0.000384719
-0.00282248
0.00037882
-0.00290962
0.000371598
-0.00299538
0.000363645
-0.00307909
0.000354765
-0.00316094
0.000345642
-0.00324033
0.00033744
-0.00331759
0.000329548
-0.00339234
0.000321506
-0.00346457
0.000312664
-0.00353403
0.000301763
-0.00360039
0.000289544
-0.00366442
0.000277305
-0.00372382
0.000262649
-0.00378147
0.000251538
-0.00383774
0.000239995
-0.00389011
0.000227812
-0.00394012
0.000216437
-0.00398783
0.000203947
-0.0040315
0.000190342
-0.00407289
0.000179071
-0.00410829
0.00016464
-0.00414324
0.000152464
-0.00417596
0.000140771
-0.0042045
0.000127583
-0.00422888
0.000112812
-0.00425301
0.000102135
8.76212e-05
-0.00427296
-0.00014369
6.95935e-05
0.00011473
-0.000177204
8.85548e-05
-0.000215399
0.000109591
-0.000258892
0.000132463
-0.0003076
0.000156207
-0.000361351
0.000180684
-0.00042016
0.000205712
-0.000484196
0.000231069
-0.000552932
0.000256445
-0.000626603
0.000281707
-0.000704687
0.000306318
-0.000786719
0.000329983
-0.000872718
0.000352802
-0.000961881
0.000373957
-0.00105401
0.000394192
-0.00114912
0.000412554
-0.00124672
0.000429733
-0.00134662
0.000445275
-0.00144815
0.000458712
-0.00155118
0.00047074
-0.00165563
0.000481375
-0.00176092
0.000490028
-0.00186707
0.000497355
-0.00197365
0.000502853
-0.00208041
0.000506693
-0.00218694
0.000509076
-0.00229324
0.000509997
-0.00239895
0.000509558
-0.00250397
0.0005078
-0.00260809
0.000504764
-0.00271099
0.000500604
-0.00281242
0.000495308
-0.00291242
0.000489611
-0.00301073
0.000483366
-0.00310729
0.000475711
-0.00320179
0.000467244
-0.00329394
0.000457076
-0.00338375
0.000445228
-0.00347066
0.000433559
-0.00355575
0.000421504
-0.00363854
0.000410477
-0.00371955
0.000400427
-0.0037987
0.000389005
-0.0038739
0.000376118
-0.00394559
0.000361727
-0.00401363
0.000346985
-0.00407928
0.000330299
-0.00414153
0.000314584
-0.00420029
0.000298864
-0.00425706
0.000284251
-0.00430986
0.000268845
-0.00435844
0.000252318
-0.00440649
0.000238284
-0.00444869
0.000221245
-0.00449046
0.000206412
-0.00452811
0.000190127
-0.00455961
0.000172283
-0.00458882
0.000156805
-0.00461782
0.000141825
-0.00464077
0.000125085
0.000108371
-0.00466153
-0.000143839
0.000104912
0.000108527
-0.000184479
0.000129198
-0.000230503
0.000155617
-0.000282276
0.000184239
-0.00033938
0.000213312
-0.000402236
0.000243542
-0.000470479
0.000273955
-0.000543855
0.000304446
-0.000622618
0.000335208
-0.000705857
0.000364946
-0.000793982
0.000394444
-0.000886382
0.000422382
-0.000982328
0.000448745
-0.00108157
0.000473196
-0.00118441
0.000497031
-0.00128993
0.000518078
-0.00139756
0.000537371
-0.00150748
0.000555198
-0.001619
0.000570207
-0.00173214
0.00058384
-0.00184643
0.000595628
-0.00196157
0.000605136
-0.00207751
0.000613314
-0.00219372
0.000619099
-0.00230983
0.000622898
-0.00242578
0.000625043
-0.00254099
0.000625213
-0.00265584
0.000624346
-0.00276984
0.000621796
-0.00288226
0.000617575
-0.00299344
0.000612158
-0.00310286
0.000605128
-0.0032103
0.000597104
-0.0033167
0.000588757
-0.00342142
0.000579732
-0.00352402
0.000569445
-0.00362414
0.000558404
-0.00371975
0.000545429
-0.00381232
0.000529812
-0.00390158
0.000514192
-0.00398933
0.000498443
-0.00407629
0.000482794
-0.00416229
0.00046933
-0.0042454
0.000453369
-0.0043239
0.000437933
-0.00439618
0.00042066
-0.00446405
0.000400328
-0.00452977
0.000382429
-0.00459405
0.000363909
-0.00465307
0.000343233
-0.00470993
0.000325459
-0.00476446
0.000306588
-0.00481311
0.000286792
-0.00485962
0.000267652
-0.00490206
0.000248814
-0.00494027
0.000228314
-0.00497798
0.00020999
-0.00500958
0.000188413
-0.00503721
0.000169464
-0.00506087
0.000148753
0.000129811
-0.0050823
-0.000154802
0.000146807
0.000112912
-0.000202967
0.000177365
-0.000257093
0.000209745
-0.000317992
0.000245139
-0.000384595
0.000279917
-0.00045695
0.000315897
-0.000535182
0.000352188
-0.00061834
0.000387605
-0.000707511
0.00042438
-0.000801284
0.000458721
-0.000900605
0.000493767
-0.00100354
0.000525314
-0.00111111
0.000556318
-0.00122097
0.000583055
-0.00133423
0.000610294
-0.00145102
0.000634868
-0.0015697
0.000656056
-0.00169044
0.00067591
-0.00181324
0.000692982
-0.00193633
0.000706897
-0.0020614
0.000720683
-0.00218664
0.000730395
-0.0023133
0.000740011
-0.00244003
0.000745898
-0.00256613
0.000749064
-0.00269222
0.00075121
-0.00281686
0.000749759
-0.00294113
0.000748388
-0.00306462
0.000745172
-0.00318593
0.000738998
-0.00330607
0.000733208
-0.003424
0.000724366
-0.0035393
0.000713163
-0.00365324
0.000702577
-0.0037665
0.000690729
-0.00387714
0.000677472
-0.00398537
0.000665959
-0.00409019
0.000651454
-0.00418825
0.000634147
-0.00428272
0.000614896
-0.00437551
0.000594591
-0.00446798
0.000574161
-0.00455904
0.000552531
-0.00464951
0.000536266
-0.00473339
0.000517605
-0.0048105
0.00049809
-0.00488541
0.000478258
-0.00495447
0.000453243
-0.00502059
0.000430824
-0.00508448
0.000407285
-0.00514355
0.000384443
-0.00519992
0.000362908
-0.00525226
0.000339019
-0.0053028
0.000318112
-0.00534773
0.000293661
-0.00538989
0.000270434
-0.00542605
0.000246131
-0.00545752
0.00021988
-0.00548728
0.000199241
-0.00551353
0.000175008
0.000151652
-0.00553536
-0.000174311
0.000126619
0.000194501
-0.000231265
0.00023432
-0.000292806
0.000271286
-0.000364359
0.000316692
-0.000440388
0.000355945
-0.0005233
0.000398808
-0.000612378
0.000441264
-0.000704796
0.000480021
-0.000806879
0.000526463
-0.000910095
0.000561937
-0.00102305
0.000606718
-0.00113601
0.000638278
-0.00125858
0.000678881
-0.00137712
0.000701589
-0.00150314
0.00073632
-0.00163267
0.00076441
-0.00176109
0.000784459
-0.0018953
0.000810089
-0.00202944
0.000827082
-0.00216278
0.000840229
-0.00230258
0.000860519
-0.00243645
0.000864335
-0.00257561
0.000879257
-0.00271396
0.000884254
-0.00285025
0.000885329
-0.00298899
0.000889969
-0.00312196
0.000882838
-0.00325661
0.000882794
-0.0033913
0.000879107
-0.00352067
0.00086785
-0.00365155
0.000864299
-0.00377882
0.000852734
-0.003902
0.000838438
-0.00402399
0.000826366
-0.00414614
0.000812844
-0.0042613
0.000789167
-0.00438033
0.000777588
-0.00449482
0.000760707
-0.00460204
0.000742068
-0.00470566
0.000726452
-0.00479953
0.000699241
-0.00489665
0.00067807
-0.00499147
0.000646352
-0.00508406
0.000622645
-0.00517652
0.000603635
-0.00526118
0.000579761
-0.00534168
0.000560063
-0.0054136
0.00052648
-0.00548372
0.000501745
-0.00554862
0.000472693
-0.00561413
0.000450114
-0.00567269
0.000421473
-0.00572792
0.000394246
-0.00577923
0.00036938
-0.00582818
0.00034255
-0.00586926
0.000311497
-0.00590878
0.000285624
-0.00594182
0.000252896
-0.00597222
0.000229636
-0.00599914
0.000201928
-0.00602041
0.000172938
-0.00303999
1.33406e-05
-0.00305153
1.15389e-05
-0.00306139
9.85173e-06
-0.00306937
7.97782e-06
-0.0030751
5.72914e-06
-0.00307822
3.11838e-06
-0.00307959
1.36913e-06
-0.00307887
-7.1782e-07
-0.00307617
-2.7081e-06
-0.00307104
-5.12872e-06
-0.00306403
-7.01262e-06
-0.00305498
-9.04918e-06
-0.00304389
-1.10915e-05
-0.00303073
-1.31561e-05
-0.00301582
-1.49141e-05
-0.00299906
-1.6755e-05
-0.00298029
-1.87759e-05
-0.00295947
-2.08187e-05
-0.00293695
-2.25179e-05
-0.00291256
-2.43935e-05
-0.00288638
-2.61826e-05
-0.00285858
-2.78027e-05
-0.00282903
-2.95438e-05
-0.00279766
-3.13734e-05
-0.00276466
-3.30017e-05
-0.00273027
-3.43893e-05
-0.00269421
-3.6065e-05
-0.00265649
-3.77191e-05
-0.00261723
-3.92543e-05
-0.0025766
-4.06319e-05
-0.00253448
-4.21195e-05
-0.00249092
-4.35628e-05
-0.00244611
-4.48076e-05
-0.00239999
-4.61195e-05
-0.00235255
-4.74457e-05
-0.00230394
-4.86037e-05
-0.00225425
-4.96949e-05
-0.00220343
-5.0819e-05
-0.00215141
-5.20165e-05
-0.00209836
-5.30498e-05
-0.00204442
-5.39426e-05
-0.00198954
-5.48747e-05
-0.00193375
-5.57932e-05
-0.0018772
-5.65435e-05
-0.00181976
-5.74393e-05
-0.00176151
-5.82483e-05
-0.00170263
-5.88784e-05
-0.00164321
-5.94237e-05
-0.00158312
-6.00895e-05
-0.00152246
-6.06548e-05
-0.00146136
-6.11013e-05
-0.00139993
-6.14338e-05
-0.00133798
-6.19499e-05
-0.0012758
-6.21709e-05
-0.0012134
-6.24065e-05
-0.00115096
-6.24312e-05
-0.00108824
-6.27204e-05
-0.00102547
-6.27732e-05
-0.000962821
-6.26469e-05
-0.000900375
-6.2445e-05
-6.22052e-05
-0.00083817
-0.00330608
2.85575e-05
-0.00331675
2.22031e-05
-0.0033254
1.85056e-05
-0.00333184
1.44142e-05
-0.00333816
1.20426e-05
-0.0033403
5.25577e-06
-0.00334087
1.94402e-06
-0.00333767
-3.92522e-06
-0.0033338
-6.57381e-06
-0.00332636
-1.25691e-05
-0.00331709
-1.62798e-05
-0.00330551
-2.06293e-05
-0.00329193
-2.468e-05
-0.00327645
-2.86291e-05
-0.00325852
-3.2851e-05
-0.00323854
-3.67334e-05
-0.00321643
-4.08829e-05
-0.00319238
-4.48738e-05
-0.0031661
-4.8799e-05
-0.00313788
-5.26064e-05
-0.00310791
-5.61616e-05
-0.00307573
-5.99835e-05
-0.00304163
-6.36408e-05
-0.00300579
-6.72187e-05
-0.0029681
-7.06852e-05
-0.00292858
-7.39157e-05
-0.00288726
-7.73842e-05
-0.00284444
-8.05401e-05
-0.00279994
-8.37477e-05
-0.00275362
-8.69531e-05
-0.00270587
-8.98703e-05
-0.00265673
-9.27013e-05
-0.00260592
-9.56192e-05
-0.00255368
-9.83599e-05
-0.00250021
-0.000100912
-0.00244526
-0.00010356
-0.00238901
-0.000105937
-0.00233152
-0.000108314
-0.00227292
-0.000110613
-0.00221316
-0.000112816
-0.0021521
-0.000115002
-0.00209013
-0.000116841
-0.0020272
-0.00011872
-0.0019632
-0.000120539
-0.00189838
-0.000122261
-0.00183268
-0.000123947
-0.00176623
-0.000125334
-0.00169885
-0.0001268
-0.0016309
-0.000128041
-0.00156235
-0.0001292
-0.00149324
-0.000130217
-0.00142377
-0.000130903
-0.00135332
-0.000132391
-0.00128313
-0.000132363
-0.00121201
-0.000133528
-0.00114091
-0.000133533
-0.001069
-0.000134626
-0.000997712
-0.000134061
-0.000926376
-0.000133982
-0.000855058
-0.000133762
-0.000133949
-0.000783313
-0.00359781
4.24992e-05
-0.00361185
3.62368e-05
-0.00362144
2.80934e-05
-0.00362876
2.17359e-05
-0.0036318
1.50818e-05
-0.003635
8.45232e-06
-0.00363375
6.91311e-07
-0.00363049
-7.18283e-06
-0.00362489
-1.21797e-05
-0.00361763
-1.98244e-05
-0.00360791
-2.60056e-05
-0.00359446
-3.40779e-05
-0.00357926
-3.98799e-05
-0.00356146
-4.64299e-05
-0.00354135
-5.29559e-05
-0.00351884
-5.92443e-05
-0.00349417
-6.55611e-05
-0.00346728
-7.17569e-05
-0.00343814
-7.79411e-05
-0.00340704
-8.37096e-05
-0.00337344
-8.97638e-05
-0.00333793
-9.54927e-05
-0.00330038
-0.000101185
-0.00326084
-0.000106762
-0.00321924
-0.000112282
-0.00317564
-0.000117523
-0.00313022
-0.000122806
-0.00308289
-0.000127864
-0.00303361
-0.000133028
-0.0029829
-0.000137666
-0.00293031
-0.000142462
-0.00287592
-0.000147088
-0.00282024
-0.000151301
-0.00276286
-0.000155738
-0.00270393
-0.000159842
-0.00264359
-0.000163898
-0.0025818
-0.00016773
-0.00251859
-0.000171526
-0.0024541
-0.000175106
-0.00238837
-0.000178545
-0.00232157
-0.000181802
-0.00225337
-0.000185038
-0.00218423
-0.000187861
-0.00211401
-0.000190757
-0.00204284
-0.000193431
-0.00197079
-0.000195995
-0.00189781
-0.000198311
-0.00182404
-0.000200577
-0.00174943
-0.000202641
-0.00167448
-0.000204154
-0.00159824
-0.000206451
-0.00152143
-0.00020772
-0.00144448
-0.00020934
-0.00136716
-0.000209675
-0.00128957
-0.000211118
-0.00121108
-0.000212031
-0.00113317
-0.000212529
-0.00105458
-0.000212654
-0.000976022
-0.00021254
-0.000897056
-0.000212728
-0.000212261
-0.000818744
-0.00392909
5.93603e-05
-0.00394185
4.89947e-05
-0.00395234
3.85792e-05
-0.00395857
2.79678e-05
-0.00396263
1.91378e-05
-0.00396422
1.00431e-05
-0.00396149
-2.04282e-06
-0.00395882
-9.85005e-06
-0.00395215
-1.88485e-05
-0.00394341
-2.85662e-05
-0.00393042
-3.89989e-05
-0.00391624
-4.82564e-05
-0.00389954
-5.65813e-05
-0.00387942
-6.65466e-05
-0.00385712
-7.52616e-05
-0.00383227
-8.40913e-05
-0.00380493
-9.2907e-05
-0.00377505
-0.000101632
-0.00374295
-0.00011004
-0.00370818
-0.000118485
-0.00367146
-0.000126479
-0.00363223
-0.000134726
-0.00359091
-0.000142503
-0.00354737
-0.000150301
-0.00350181
-0.000157844
-0.00345388
-0.000165461
-0.00340392
-0.000172766
-0.00335202
-0.000179761
-0.00329832
-0.000186726
-0.00324238
-0.000193609
-0.00318475
-0.000200091
-0.00312547
-0.000206364
-0.00306416
-0.000212606
-0.00300134
-0.000218562
-0.00293692
-0.000224262
-0.00287094
-0.00022988
-0.00280321
-0.000235454
-0.00273411
-0.000240628
-0.00266358
-0.000245631
-0.0025918
-0.000250326
-0.00251854
-0.000255066
-0.0024443
-0.000259277
-0.00236867
-0.000263491
-0.00229204
-0.000267387
-0.00221429
-0.000271176
-0.0021355
-0.000274779
-0.00205577
-0.000278049
-0.00197531
-0.000281031
-0.00189368
-0.000284267
-0.00181134
-0.000286496
-0.00172895
-0.000288843
-0.00164525
-0.000291418
-0.0015612
-0.000293393
-0.00147608
-0.000294787
-0.00139146
-0.000295744
-0.00130603
-0.000297462
-0.0012205
-0.00029805
-0.00113503
-0.000298129
-0.00104905
-0.000298516
-0.000963268
-0.00029851
-0.000298322
-0.000877207
-0.00428871
7.50926e-05
-0.00430027
6.05529e-05
-0.0043116
4.99017e-05
-0.00431874
3.51108e-05
-0.00432169
2.20835e-05
-0.00432235
1.07003e-05
-0.0043231
-1.29135e-06
-0.00431735
-1.56019e-05
-0.00430953
-2.66775e-05
-0.00429777
-4.03191e-05
-0.00428394
-5.28301e-05
-0.00426793
-6.42685e-05
-0.0042479
-7.66155e-05
-0.0042264
-8.80463e-05
-0.00420304
-9.86154e-05
-0.00417468
-0.000112456
-0.00414439
-0.000123192
-0.00411144
-0.000134586
-0.0040758
-0.000145681
-0.0040378
-0.000156478
-0.00399716
-0.00016712
-0.00395442
-0.00017747
-0.00390909
-0.000187839
-0.00386132
-0.000198067
-0.00381099
-0.000208178
-0.00375868
-0.00021777
-0.00370408
-0.000227363
-0.00364717
-0.000236674
-0.00358818
-0.000245719
-0.00352725
-0.000254533
-0.00346419
-0.000263153
-0.00339911
-0.000271443
-0.00333229
-0.000279426
-0.00326371
-0.000287144
-0.00319324
-0.000294727
-0.00312097
-0.000302151
-0.00304731
-0.000309119
-0.0029718
-0.000316128
-0.00289476
-0.000322676
-0.00281613
-0.000328958
-0.00273633
-0.000334857
-0.00265512
-0.000340493
-0.00257277
-0.000345839
-0.00248916
-0.000350993
-0.00240442
-0.000355915
-0.00231895
-0.000360248
-0.00223128
-0.000365719
-0.00214315
-0.000369163
-0.0020548
-0.000372616
-0.00196505
-0.000376245
-0.00187483
-0.000379067
-0.00178426
-0.000381989
-0.00169259
-0.000385057
-0.00160063
-0.000386752
-0.00150703
-0.000389336
-0.00141405
-0.000390441
-0.00132104
-0.000391064
-0.00122755
-0.000391617
-0.00113366
-0.000392411
-0.00104055
-0.000391614
-0.000391705
-0.000947168
-0.0046781
9.16641e-05
-0.0046925
7.4938e-05
-0.00470073
5.8127e-05
-0.00470876
4.31348e-05
-0.00471459
2.79151e-05
-0.00471429
1.03924e-05
-0.00470995
-5.63444e-06
-0.0047053
-2.0249e-05
-0.00469471
-3.72729e-05
-0.00468393
-5.1097e-05
-0.00466912
-6.76435e-05
-0.0046503
-8.30845e-05
-0.00462937
-9.7542e-05
-0.00460452
-0.000112904
-0.00457565
-0.000127484
-0.00454488
-0.000143227
-0.00451152
-0.000156553
-0.00447567
-0.000170435
-0.00443648
-0.000184864
-0.00439454
-0.00019842
-0.00435012
-0.000211539
-0.00430279
-0.000224803
-0.00425295
-0.000237678
-0.00420061
-0.000250407
-0.00414581
-0.000262982
-0.00408829
-0.000275282
-0.00402858
-0.000287079
-0.00396638
-0.000298872
-0.00390188
-0.000310219
-0.00383532
-0.000321093
-0.00376641
-0.000332065
-0.00369536
-0.000342499
-0.00362239
-0.000352395
-0.00354758
-0.000361952
-0.00347064
-0.000371668
-0.00339202
-0.000380766
-0.00331137
-0.000389776
-0.00322898
-0.000398517
-0.00314502
-0.00040663
-0.00305955
-0.000414432
-0.00297233
-0.000422077
-0.00288387
-0.000428949
-0.00279404
-0.000435666
-0.00270268
-0.000442357
-0.0026104
-0.000448193
-0.00251698
-0.000453667
-0.00242307
-0.000459632
-0.00232747
-0.000464762
-0.0022306
-0.00046948
-0.00213324
-0.000473605
-0.00203467
-0.000477643
-0.00193505
-0.000481599
-0.00183581
-0.000484298
-0.00173498
-0.000487582
-0.00163449
-0.000489825
-0.00153337
-0.000491564
-0.00143095
-0.00049348
-0.0013289
-0.000493666
-0.00122752
-0.00049379
-0.00112552
-0.000493616
-0.000493436
-0.00102379
-0.00509961
0.000108971
-0.00511472
9.0038e-05
-0.00512573
6.91345e-05
-0.00513262
5.00102e-05
-0.00513344
2.87336e-05
-0.00513415
1.10997e-05
-0.00513072
-9.06311e-06
-0.00512318
-2.77911e-05
-0.00511356
-4.68907e-05
-0.00509816
-6.65038e-05
-0.00508072
-8.50834e-05
-0.00506107
-0.00010273
-0.00503554
-0.000123069
-0.005008
-0.000140448
-0.00497848
-0.000157001
-0.00494499
-0.000176718
-0.00490747
-0.000194076
-0.00486712
-0.000210791
-0.00482358
-0.000228398
-0.00477817
-0.000243836
-0.00472906
-0.000260642
-0.00467744
-0.000276424
-0.00462293
-0.000292191
-0.0045655
-0.000307835
-0.00450528
-0.0003232
-0.00444242
-0.000338148
-0.00437685
-0.000352649
-0.00430901
-0.000366712
-0.0042388
-0.000380425
-0.00416602
-0.000393877
-0.00409078
-0.000407301
-0.00401341
-0.000419872
-0.00393366
-0.000432146
-0.00385209
-0.000443517
-0.00376852
-0.000455241
-0.00368282
-0.000466471
-0.00359511
-0.000477486
-0.00350533
-0.000488291
-0.00341375
-0.000498215
-0.00332038
-0.000507797
-0.00322549
-0.000516966
-0.00312864
-0.000525806
-0.00303098
-0.000533318
-0.00293203
-0.000541306
-0.00283208
-0.000548147
-0.00273013
-0.000555612
-0.00262683
-0.000562937
-0.00252288
-0.000568714
-0.00241868
-0.000573671
-0.00231228
-0.000580014
-0.00220543
-0.000584493
-0.0020984
-0.000588621
-0.00198953
-0.000593173
-0.00188056
-0.000596553
-0.00177047
-0.000599911
-0.00165992
-0.00060211
-0.00154986
-0.000603541
-0.00143914
-0.000604384
-0.00132801
-0.000604916
-0.00121703
-0.000604597
-0.000604177
-0.00110629
-0.00555325
0.000126872
-0.00556681
0.000103594
-0.00557657
7.88866e-05
-0.00558399
5.74208e-05
-0.00558762
3.23582e-05
-0.00558543
8.90557e-06
-0.00558123
-1.32599e-05
-0.00557065
-3.83651e-05
-0.00555807
-5.94791e-05
-0.00554209
-8.24832e-05
-0.005524
-0.000103166
-0.00549999
-0.00012674
-0.00547363
-0.000149438
-0.00544356
-0.000170517
-0.00540815
-0.000192408
-0.0053721
-0.000212766
-0.00533215
-0.000234023
-0.00528622
-0.000256727
-0.00523982
-0.000274794
-0.00518849
-0.000295167
-0.00513395
-0.000315185
-0.00507743
-0.000332942
-0.00501813
-0.000351494
-0.00495512
-0.000370841
-0.0048892
-0.000389122
-0.00482031
-0.000407038
-0.00474867
-0.000424286
-0.0046744
-0.000440979
-0.00459759
-0.000457237
-0.00451828
-0.000473185
-0.00443609
-0.000489493
-0.00435189
-0.000504072
-0.00426504
-0.000519003
-0.0041768
-0.000531751
-0.00408589
-0.000546157
-0.00399276
-0.000559598
-0.00389752
-0.000572724
-0.00379973
-0.000586076
-0.00369971
-0.000598236
-0.00359821
-0.000609295
-0.0034951
-0.000620075
-0.00339019
-0.000630723
-0.00328309
-0.000640416
-0.00317615
-0.000648244
-0.00306701
-0.000657285
-0.00295568
-0.000666944
-0.00284507
-0.000673547
-0.00273166
-0.000682117
-0.00261802
-0.000687314
-0.00250345
-0.000694579
-0.00238684
-0.000701108
-0.00227044
-0.000705015
-0.00215274
-0.00071088
-0.00203515
-0.000714141
-0.00191515
-0.000719913
-0.00179577
-0.00072149
-0.00167476
-0.000724544
-0.00155448
-0.000724665
-0.00143397
-0.000725426
-0.001314
-0.000724568
-0.000724842
-0.00119333
-0.00603887
0.000145345
-0.00605213
0.000116859
-0.0060623
8.90609e-05
-0.00606574
6.08545e-05
-0.00606794
3.45526e-05
-0.00606638
7.35392e-06
-0.00606036
-1.92822e-05
-0.00604955
-4.91707e-05
-0.00603357
-7.54596e-05
-0.00601694
-9.9112e-05
-0.00599428
-0.000125834
-0.00596804
-0.000152979
-0.00593942
-0.000178052
-0.00590396
-0.000205978
-0.00586927
-0.000227103
-0.00582732
-0.000254713
-0.00578103
-0.000280312
-0.0057334
-0.000304355
-0.00567915
-0.000329045
-0.00562394
-0.000350379
-0.00556612
-0.000373003
-0.00550255
-0.000396515
-0.005439
-0.00041505
-0.0053697
-0.00044014
-0.00529683
-0.000461991
-0.00522239
-0.000481479
-0.00514312
-0.000503549
-0.00506289
-0.000521213
-0.00497716
-0.000542962
-0.00489282
-0.000557521
-0.0048011
-0.000581214
-0.00471099
-0.000594191
-0.00461474
-0.00061525
-0.00452076
-0.00062573
-0.0044224
-0.000644515
-0.00432098
-0.000661022
-0.00421886
-0.000674838
-0.00411175
-0.000693191
-0.00400257
-0.000707415
-0.00389392
-0.000717946
-0.00377987
-0.000734117
-0.00366444
-0.00074616
-0.00355028
-0.000754568
-0.00343129
-0.000767236
-0.00331635
-0.000772222
-0.0031936
-0.000789691
-0.00307462
-0.000792529
-0.00294966
-0.000807078
-0.00282887
-0.000808101
-0.00270477
-0.000818683
-0.00257779
-0.000828085
-0.00245395
-0.000828857
-0.00232479
-0.000840043
-0.00219896
-0.000839964
-0.00206618
-0.00085269
-0.00193844
-0.000849235
-0.0018043
-0.000858685
-0.00167787
-0.000851091
-0.00154436
-0.000858932
-0.00141667
-0.000852261
-0.00128241
-0.000859103
-0.000775771
-6.23979e-05
-0.00071373
-6.20408e-05
-0.000652064
-6.16649e-05
-0.000590813
-6.12504e-05
-0.00053004
-6.07724e-05
-0.000469791
-6.02491e-05
-0.000410326
-5.94645e-05
-0.000351698
-5.86269e-05
-0.000294123
-5.75745e-05
-0.000237742
-5.63806e-05
-0.000182318
-5.54243e-05
-0.00012595
-5.63681e-05
-6.78445e-05
-5.81048e-05
-8.56492e-06
-5.92794e-05
4.95232e-05
-5.8088e-05
0.000104852
-5.53282e-05
0.00015796
-5.31079e-05
0.000209347
-5.13875e-05
0.000259173
-4.98256e-05
0.000307437
-4.82642e-05
0.000354154
-4.67167e-05
0.000399266
-4.51123e-05
0.000442704
-4.34378e-05
0.000484334
-4.16305e-05
0.000524099
-3.97646e-05
0.000561935
-3.78357e-05
0.000597723
-3.57886e-05
0.000631333
-3.36094e-05
0.000662649
-3.13158e-05
0.000691581
-2.89319e-05
0.000717931
-2.63501e-05
0.000741542
-2.36109e-05
0.000762292
-2.07502e-05
0.000779937
-1.76449e-05
0.000794261
-1.43234e-05
0.000805071
-1.08094e-05
0.00081211
-7.03885e-06
0.000815097
-2.98705e-06
0.000814677
4.20946e-07
0.000810714
3.96319e-06
0.00080334
7.37416e-06
0.000791873
1.14676e-05
0.000775805
1.60694e-05
0.000754712
2.10939e-05
0.000727961
2.67513e-05
0.00069493
3.30328e-05
0.000654999
3.9932e-05
0.000607431
4.75683e-05
0.000551371
5.60614e-05
0.000486051
6.53217e-05
0.000410743
7.53092e-05
0.000324881
8.58636e-05
0.000227941
9.69411e-05
0.000119312
0.000108629
-7.47516e-06
0.000126788
-0.000147888
0.000140414
-0.00027839
0.000130502
-0.00038715
0.000108761
-0.000469759
8.26096e-05
-0.000531143
6.13847e-05
5.09356e-05
-0.000582078
-0.00071219
-0.00013352
-0.000640766
-0.000133465
-0.00056956
-0.00013287
-0.000498612
-0.000132198
-0.000428279
-0.000131104
-0.000358073
-0.000130455
-0.000288408
-0.000129129
-0.000219145
-0.00012789
-0.000150617
-0.000126101
-8.26612e-05
-0.000124337
-1.42188e-05
-0.000123867
5.45982e-05
-0.000125185
0.000122225
-0.000125731
0.000188599
-0.000125654
0.000254291
-0.000123779
0.000319396
-0.000120433
0.000383393
-0.000117105
0.000446069
-0.000114063
0.000507348
-0.000111105
0.00056725
-0.000108166
0.000625777
-0.000105244
0.000682786
-0.000102122
0.000738251
-9.89029e-05
0.000792166
-9.55453e-05
0.000844427
-9.20247e-05
0.000894971
-8.83805e-05
0.000943669
-8.44861e-05
0.000990539
-8.04791e-05
0.00103543
-7.62098e-05
0.00107818
-7.16748e-05
0.00111879