/*--------------------------------*- C++ -*----------------------------------*\
| =========                 |                                                 |
| \\      /  F ield         | OpenFOAM: The Open Source CFD Toolbox           |
|  \\    /   O peration     | Version:  2.3.1                                 |
|   \\  /    A nd           | Web:      www.OpenFOAM.org                      |
|    \\/     M anipulation  |                                                 |
\*---------------------------------------------------------------------------*/
FoamFile
{
    version     2.0;
    format      ascii;
    class       volScalarField;
    location    "3640";
    object      sigmaEq;
}
// * * * * * * * * * * * * * * * * * * * * * * * * * * * * * * * * * * * * * //

dimensions      [1 -1 -2 0 0 0 0];

internalField   nonuniform List<scalar> 
11800
(
183805
130286
609556
517508
126252
362660
171261
186638
200325
213946
182743
740067
94938.2
549237
468047
2.03048e+06
133189
133705
241708
147816
412012
668360
882993
791197
1.66389e+06
1.04158e+06
1.0873e+06
539849
1.18436e+06
1.28248e+06
358739
122804
1.04392e+06
136735
143078
344893
145159
1.11281e+06
144651
156223
1.1269e+06
1.22759e+06
567152
1.33038e+06
378481
1.90103e+06
845809
985912
172418
255635
776652
547749
141327
228481
2.16663e+06
1.77873e+06
69806.4
506957
395418
378840
1.77607e+06
155528
402534
331300
1.63166e+06
245989
798825
567161
69604.8
963309
144790
120909
116940
1.69768e+06
1.75878e+06
334884
1.7055e+06
233283
186908
190914
2.20258e+06
130968
126304
128583
129990
1.23625e+06
385185
1.13933e+06
1.04492e+06
562823
140177
1.243e+06
159862
66471.6
196384
161918
20992.6
161916
142711
651216
80584.7
717965
1.17975e+06
407966
151564
347059
191204
165747
1.73449e+06
1.14872e+06
1.24633e+06
1.05358e+06
390619
570939
234418
1.56612e+06
229153
149746
1.47063e+06
220419
212313
172784
192469
147242
157075
140024
142566
142234
101491
29600
1.99107e+06
1.32702e+06
418014
1.23925e+06
599818
1.13999e+06
1.04426e+06
365678
1.06074e+06
519860
975899
894164
533206
204864
256936
348489
1.28011e+06
1.31134e+06
748058
392413
216204
208424
142310
273604
250746
194609
496626
683856
1.36214e+06
148310
1.99305e+06
241798
1.73639e+06
500960
544468
588968
298396
225296
2.14627e+06
1.33761e+06
474381
653281
162201
390133
388376
1.90149e+06
1.92216e+06
1.01649e+06
932836
1.10313e+06
497957
341394
264664
213796
471468
226631
350660
159223
180645
169123
251942
235252
223957
206561
968704
1.23103e+06
1.75975e+06
128948
232566
2.07199e+06
143904
300219
336344
146563
151497
890865
745152
685260
567345
1.98935e+06
610904
901779
2.70787e+06
2.26538e+06
2.29664e+06
356537
135806
870792
798564
733746
275261
395456
135067
134954
238796
144116
1.31103e+06
266251
146214
490057
221854
182837
144302
688742
703232
2.70456e+06
1.30951e+06
232882
243619
1.20734e+06
988792
341646
497487
1.10254e+06
1.01888e+06
934791
150896
1.19525e+06
418899
576307
539991
160976
130830
428643
379881
150460
2.29424e+06
297175
342398
245601
282986
734663
799825
865811
394024
277240
144390
1.74643e+06
166639
85478.1
141566
432882
159600
566864
2.03673e+06
406726
403184
610111
441666
508660
370015
1.25703e+06
1.05132e+06
336406
420263
267807
321526
579128
760866
277398
1.23064e+06
1.32001e+06
1.58792e+06
177869
402106
399660
1.83892e+06
1.85601e+06
1.1087e+06
1.09117e+06
1.13101e+06
1.11943e+06
139316
95013.6
303976
2.37935e+06
126555
132962
314700
258295
277319
968121
991948
1.64743e+06
2.29816e+06
717449
191954
924865
764445
533799
435954
170730
179532
271247
480920
252678
445356
130980
175453
169080
149864
1.31057e+06
169499
132612
1.91088e+06
323704
735989
816699
795350
1.00516e+06
967573
107654
106520
664085
868844
599983
1.55413e+06
124997
861388
669973
438979
331612
327166
251095
333603
288234
381798
418531
451163
161753
142716
807020
856176
186825
232401
478410
405132
455731
207265
194239
242985
247578
934856
450996
332930
369305
1.12573e+06
1.30698e+06
354808
204688
193111
261097
242625
456170
529551
432297
507298
398611
467848
352764
334678
679686
344901
755285
1.30268e+06
654726
479669
2.10472e+06
139175
1.36795e+06
672909
488790
2.03465e+06
148564
1.40013e+06
346455
1.17912e+06
1.08837e+06
1.05848e+06
195665
89371.1
127459
2.43156e+06
2.10318e+06
933593
334039
452220
183857
242555
275729
151120
212037
1.61048e+06
64888.7
576700
441844
1.7772e+06
110388
180485
154036
153044
153404
154522
1.77833e+06
595493
238762
688800
634205
583227
121236
1.33353e+06
435959
609839
171305
879176
191188
1.70585e+06
139125
201466
498706
459913
423499
891954
237691
497360
438696
232877
692395
753983
817821
394504
283456
67166.7
175132
194509
2.20895e+06
757835
597589
432021
355433
188432
154626
113261
113203
195535
102274
118550
127048
167174
334107
150846
193879
596884
723379
340744
1.57695e+06
207597
373846
155947
184210
1.52874e+06
2.00002e+06
626166
681094
248291
220664
123219
1.33832e+06
1.94353e+06
1.71781e+06
2.48482e+06
807622
564030
739957
124706
188448
173181
193111
734541
147573
145627
126839
183548
1.33703e+06
298018
1.35445e+06
802961
173780
222666
1.10308e+06
1.39818e+06
730079
794976
858515
389553
274734
664692
145068
146384
142881
163674
130289
191347
98630.6
185006
98152.3
182649
86993.4
177890
163339
170221
116823
1.53049e+06
235786
253461
564877
898355
124140
154487
133310
130541
116190
295565
427952
131743
130889
586667
123276
183437
1.66217e+06
82340.2
165759
522116
480493
503282
545643
559814
590387
276239
207297
1.92322e+06
2.37807e+06
494371
87924.8
351303
340807
376761
267822
803666
742520
682071
174213
86072.2
777201
726725
323632
359255
180573
621171
675037
234169
1.0947e+06
1.10911e+06
1.12206e+06
1.11173e+06
1.88802e+06
1.84746e+06
580368
2.2596e+06
816475
140488
1.57756e+06
1.38554e+06
1.50849e+06
769483
311712
337386
187879
1.61005e+06
530573
670028
2.39165e+06
213450
263036
524619
509199
1.33644e+06
693032
1.99453e+06
138992
136335
273197
390551
867405
796466
731643
1.82634e+06
153719
398451
856215
1.29992e+06
136169
2.14212e+06
2.00372e+06
2.07519e+06
240955
326676
124951
2.12191e+06
608470
245888
418206
1.9903e+06
149326
248254
263664
144547
487891
299253
2.43084e+06
2.12758e+06
206064
602323
770072
295016
348418
259949
229210
646639
194630
598050
441993
1.13428e+06
992248
172896
1.29883e+06
143599
408137
502054
1.73575e+06
328906
446450
249407
205484
189605
221649
422436
987673
1.08811e+06
143920
138945
140162
185576
352002
1.31692e+06
117427
453055
818425
637468
228932
1.08588e+06
1.20294e+06
779696
1.31016e+06
1.42088e+06
587367
385197
163535
194543
366165
390255
340220
375826
195425
346839
404870
237806
144065
2.4693e+06
1.05826e+06
397360
536930
493790
240007
427860
624926
1.34738e+06
1.24075e+06
1.13692e+06
349585
412968
203169
218203
1.53964e+06
1.1341e+06
1.3114e+06
155145
204439
289946
683726
1.51712e+06
484219
96430
156362
2.24463e+06
2.10958e+06
252465
1.93213e+06
115309
164870
122224
734123
131112
227622
253489
1.36339e+06
1.48497e+06
1.60937e+06
1.73785e+06
784074
667008
554419
437272
196505
137828
429521
2.12852e+06
146591
143172
157189
149744
156258
162589
168283
1.64827e+06
832357
849526
499533
926722
1.00757e+06
353123
1.17967e+06
282441
233979
153199
2.21964e+06
144269
172117
165756
173105
144159
2.01949e+06
284194
281076
1.08815e+06
355799
750354
268194
2.05616e+06
901270
449172
335520
1.38973e+06
497947
191985
161455
144106
138991
240658
265454
253875
183955
500164
159538
140890
878793
981974
122589
622882
895826
759783
1.03067e+06
1.92999e+06
1.78396e+06
1.63945e+06
1.49557e+06
622709
759105
1.93306e+06
1.7868e+06
895191
1.64231e+06
1.03059e+06
1.49832e+06
1.72777e+06
160426
138417
151181
252063
546814
1.20212e+06
144587
455263
622427
492783
677326
200247
257944
451578
659867
1.41355e+06
1.30163e+06
1.19236e+06
565610
419739
1.05968e+06
215350
272667
172604
351707
326670
297155
607311
474720
487911
362541
136417
733439
201908
371860
457502
1.13557e+06
615000
719221
583604
213054
276141
192600
169809
161181
184998
639834
540745
147331
221989
242400
497411
1.48642e+06
485483
680762
516684
164151
231274
217455
200605
273078
197231
658543
606385
553498
216824
1.60528e+06
748318
224347
986176
664255
1.42545e+06
1.94215e+06
239519
267341
225206
153543
163281
794249
676169
2.02285e+06
136245
191312
371820
549160
238667
145459
801793
793369
62657
142472
385660
313526
93215.2
1.76957e+06
1.94158e+06
318980
126014
288520
406105
867256
732922
798472
2.21669e+06
140327
628384
707744
171891
647006
790299
932998
1.07317e+06
2.02089e+06
1.86893e+06
1.71784e+06
1.56789e+06
646565
789451
2.02286e+06
1.87006e+06
931171
1.71922e+06
1.07238e+06
1.56912e+06
1.88742e+06
1.62543e+06
1.22573e+06
516436
589114
1.62522e+06
1.21076e+06
357081
124922
119736
1.20949e+06
2.14478e+06
162390
443372
1.76975e+06
1.20842e+06
1.94272e+06
1.98187e+06
1.26946e+06
1.27272e+06
582978
462853
604298
257934
190559
321598
164517
198899
241778
204394
441641
2.07738e+06
603450
205650
124735
387649
415904
1.88747e+06
393028
355428
449864
477689
1.22402e+06
577347
417392
1.57698e+06
446361
579929
210317
174313
402632
347828
375549
933964
603710
585910
1.42192e+06
1.35995e+06
579020
611190
1.07263e+06
1.15223e+06
431545
452300
142651
193370
202437
589121
458261
79921.5
171753
196863
687273
654319
353898
687602
531985
211448
130431
130713
545635
1.31165e+06
130376
1.94091e+06
280229
782376
718544
222946
278497
466675
155135
133252
1.65319e+06
416316
1.07288e+06
989774
908596
333079
483786
172929
1.50099e+06
1.97434e+06
182184
151568
1.08486e+06
396077
540023
933318
1.01653e+06
1.11397e+06
336862
487829
64681.4
794163
411730
1.96717e+06
333036
1.13332e+06
936364
1.05054e+06
146116
149162
151767
161244
162143
142983
1.63428e+06
505409
190174
221294
244710
275360
342216
379623
778584
753810
718847
693781
638201
660142
1.14214e+06
173941
144752
140800
189941
216681
154112
174273
1.35846e+06
278968
507463
430435
1.10999e+06
582427
205401
214404
479660
371932
661330
541139
1.3323e+06
1.16752e+06
1.07616e+06
986633
548586
1.53573e+06
757016
1.53368e+06
270687
225855
291846
284095
198721
181471
196654
1.55632e+06
2.02737e+06
360343
120632
268026
603836
468450
132681
159280
263627
249491
258692
240500
316979
298290
225115
511558
567850
552997
613823
469043
521363
578214
136676
1.26037e+06
999176
529411
1.27118e+06
1.19436e+06
697495
2.02686e+06
382001
362935
411590
441193
203587
168290
181497
385078
151287
1.6928e+06
220963
147247
840569
61989.2
122194
1.68604e+06
193501
434245
1.38426e+06
636158
1.27536e+06
1.16888e+06
1.52e+06
1.0103e+06
165383
639755
511798
215365
1.43448e+06
654228
218111
1.19579e+06
1.0894e+06
1.30146e+06
141922
144534
166977
2.4493e+06
292666
456072
556986
253844
146571
144656
438766
474509
186951
1.68751e+06
444326
1.70105e+06
259622
841685
144261
672682
805156
1.0695e+06
428789
576674
690944
280491
2.39808e+06
173125
122804
148427
2.04885e+06
1.34608e+06
337294
495503
1.12472e+06
1.04089e+06
955456
2.10895e+06
641642
520046
2.11214e+06
2.38471e+06
1.64236e+06
86192.4
564860
1.39447e+06
1.04612e+06
568872
424000
1.04886e+06
935642
431846
1.42708e+06
344634
283511
534839
471009
359275
1.65928e+06
2.51847e+06
130347
143381
168643
2.40802e+06
166987
194264
741064
568907
2.13336e+06
2.23476e+06
142046
633666
220671
209745
524328
225862
136860
566364
134083
151790
2.53155e+06
1.09977e+06
609926
456017
410528
294715
834583
769917
706047
218277
2.26081e+06
444313
401738
454966
1.89385e+06
770408
1.12993e+06
156302
244521
184598
847952
517302
688906
130803
295626
402558
853921
301208
193834
166199
327205
2.10819e+06
304763
410879
846309
1.36248e+06
1.92578e+06
1.29667e+06
888577
697690
825847
86485.2
244151
338231
722435
666352
612888
1.92498e+06
152654
197171
211454
211060
211690
206049
303020
143251
144417
690181
1.74054e+06
491256
1.08859e+06
1.0036e+06
921351
338286
1.96699e+06
626860
714219
854709
736763
1.20367e+06
1.92399e+06
579531
153878
747848
122745
902345
541627
984726
1.07096e+06
385095
1.24631e+06
307828
2.60884e+06
893250
145973
1.79282e+06
2.61542e+06
2.25188e+06
531046
140909
1.00693e+06
173112
162273
120544
283595
155644
159430
137962
144139
1.62641e+06
1.70723e+06
145085
1.12327e+06
182180
173001
143078
235722
1.16564e+06
1.1717e+06
267653
1.18643e+06
1.1896e+06
1.53598e+06
505714
190257
237097
322739
646622
702268
239292
63520.2
165374
770187
364341
888874
1.00046e+06
1.09387e+06
1.18951e+06
610946
431470
319156
178848
155046
1.95415e+06
1.07685e+06
134185
224455
958726
746259
405057
439052
202568
179904
332342
294282
119975
225659
156107
1.63878e+06
635694
1.54672e+06
147748
137985
2.61684e+06
139475
2.02967e+06
2.00213e+06
145217
930592
467959
1.60712e+06
158682
879214
1.00701e+06
2.19397e+06
245018
155332
132555
497015
235509
320097
646229
591793
543787
160805
131377
183689
174663
1.13915e+06
1.25511e+06
857076
1.46672e+06
1.34699e+06
1.55923e+06
2.22864e+06
279089
710715
2.12256e+06
627435
1.99725e+06
947044
1.03151e+06
1.11965e+06
495321
337131
417502
490539
1.84862e+06
169284
197249
289499
274264
255645
188257
381365
351851
329345
811555
834539
2.46576e+06
271204
128545
177796
1.95152e+06
559011
301981
291388
1.90457e+06
985490
680354
111627
205247
132688
971164
1.23897e+06
314538
1.40216e+06
192600
186973
2.54137e+06
1.66626e+06
2.03994e+06
395235
523733
918883
289593
722402
2.11771e+06
2.2432e+06
189610
218071
365625
299028
1.05216e+06
1.17507e+06
803437
905172
2.35198e+06
2.17258e+06
278343
186495
111029
1.54851e+06
128360
2.04236e+06
408009
308237
1.09685e+06
349778
145859
1.89885e+06
217178
280994
111040
132044
1.41435e+06
485398
149284
767309
364103
202563
151566
133607
706799
135083
1.93736e+06
1.74696e+06
318845
862062
489490
147626
164114
1.49968e+06
182668
1.00837e+06
259104
555346
1.16158e+06
1.32661e+06
1.85008e+06
199864
317774
2.02099e+06
253504
160904
149842
175746
136239
2.0727e+06
1.61388e+06
370616
509138
884360
882917
1.15866e+06
407266
558478
403769
585275
1.25005e+06
1.15194e+06
1.05578e+06
1.65733e+06
777409
555556
1.6046e+06
559073
1.74542e+06
651201
719846
1.92471e+06
2.61263e+06
2.23512e+06
437107
427440
1.19916e+06
569613
414005
140832
361926
1.85273e+06
157365
183063
2.35978e+06
1.76262e+06
2.03455e+06
935671
1.16066e+06
1.1705e+06
1.01041e+06
130414
122422
183701
124957
724409
788370
856981
399243
281048
618330
2.06258e+06
157183
209441
176201
163715
1.05792e+06
956197
195518
1.83442e+06
2.07747e+06
1.22189e+06
997575
1.67022e+06
1.92375e+06
124984
922255
586200
1.27803e+06
171251
272351
291479
1.64003e+06
1.63379e+06
755979
378969
119897
143588
239404
502590
1.71764e+06
228921
1.31762e+06
158019
381484
260109
344512
591144
304475
468331
45508
13148.8
467728
2.44551e+06
212716
175610
177586
139488
129286
188856
195326
142265
144373
543803
141012
153727
189104
1.01878e+06
1.25668e+06
903943
1.713e+06
2.17674e+06
152385
210120
397191
174542
1.55181e+06
220426
2.28116e+06
244904
317810
614616
454547
242461
250222
580766
135870
159329
199998
128308
192314
125800
2.02068e+06
113280
163143
294474
128233
97602.7
1.94002e+06
215933
1.67788e+06
1.78286e+06
646713
418990
337384
489598
1.10221e+06
1.02699e+06
942754
138371
1.21851e+06
634324
135232
2.07359e+06
143086
149704
384101
1.1381e+06
906863
1.00673e+06
1.38711e+06
200214
152910
429879
636028
1.39172e+06
739271
1.50545e+06
532701
1.28206e+06
1.17524e+06
424432
1.49393e+06
526613
1.37589e+06
625142
1.26804e+06
1.16227e+06
729056
1.51042e+06
191272
624913
487174
157102
198397
1.68938e+06
1.05005e+06
1.42338e+06
1.32382e+06
1.1551e+06
1.43081e+06
1.05496e+06
401840
440609
651591
1.57526e+06
154102
2.33813e+06
188657
153509
1.76475e+06
208836
329249
648746
644217
1.91564e+06
117813
1.21436e+06
1.12031e+06
1.0274e+06
374139
548922
2.3499e+06
394689
302707
701716
183570
734171
339004
358588
130073
208302
216935
188539
559292
128584
688211
369009
280614
936306
1.24836e+06
1.2541e+06
935945
458380
2.2169e+06
142035
143051
1.98207e+06
1.79258e+06
1.08778e+06
2.6038e+06
1.1641e+06
1.00349e+06
1.03998e+06
2.3141e+06
1.15094e+06
920207
2.05532e+06
441582
464826
687656
1.80954e+06
115373
1.5438e+06
184550
269996
419401
703165
766408
831966
407827
291801
470026
79006.5
84672.4
154110
163556
223515
185252
148436
202204
1.14973e+06
2.10509e+06
251893
187780
1.93929e+06
1.40394e+06
553658
750808
154067
161654
1.68657e+06
1.11701e+06
239021
888433
832887
1.11561e+06
136592
153668
159300
137426
1.31704e+06
2.13342e+06
2.08594e+06
1.41517e+06
2.25975e+06
286766
127841
370009
1.12474e+06
1.03162e+06
1.22055e+06
554675
377042
2.3788e+06
521289
657144
859362
280138
238784
992931
351844
181548
751808
287144
371474
2.20751e+06
379611
336085
1.17961e+06
1.08836e+06
999411
502658
1.50564e+06
1.41768e+06
1.85966e+06
579800
599876
764845
1.58386e+06
751476
539237
1.40795e+06
272112
2.6141e+06
174216
1.99511e+06
532024
608604
144656
647455
1.24085e+06
151345
176972
172730
2.30775e+06
677292
620750
732941
362258
262225
332670
658032
1.50914e+06
664767
1.29614e+06
1.53075e+06
1.41304e+06
443706
1.43394e+06
1.08918e+06
1.15344e+06
1.36555e+06
1.43616e+06
1.09033e+06
1.16353e+06
1.37436e+06
793814
666021
51371.2
319527
196695
454984
670922
558275
777782
1.56826e+06
1.45168e+06
1.33704e+06
1.22537e+06
450407
1.25275e+06
618843
172523
119656
125417
214382
114612
534710
1.26783e+06
1.29616e+06
461268
2.14673e+06
177147
158796
1.6729e+06
2.07555e+06
103061
1.32212e+06
521725
706203
986433
551091
352779
157521
522773
747223
70546.3
145653
2.17315e+06
288072
216962
525112
483041
569043
366405
143200
149083
373495
1.30774e+06
2.02726e+06
2.34718e+06
360601
400748
1.68749e+06
1.52126e+06
1.98145e+06
123021
1.10489e+06
1.92984e+06
2.36152e+06
2.43583e+06
2.37948e+06
619381
1.07763e+06
463892
2.24074e+06
1.69141e+06
691746
1.46029e+06
163052
145636
1.73845e+06
1.74027e+06
146837
469318
2.16439e+06
1.81595e+06
1.72599e+06
1.78627e+06
2.44591e+06
1.65955e+06
2.15203e+06
1.86171e+06
164069
294774
1.3702e+06
653237
1.1233e+06
236754
156703
198280
182998
167721
220882
197166
465799
2.15754e+06
1.31101e+06
459891
635276
1.40298e+06
184161
650568
454734
2.50234e+06
349169
338169
624305
356173
578867
256218
200562
2.03669e+06
16722.7
163323
163076
33604.9
504075
541933
194076
212909
226677
158749
577091
566888
140178
2.17372e+06
1.85575e+06
665005
1.39964e+06
478428
134344
1.63313e+06
360952
2.15962e+06
595616
728236
861209
992761
1.88546e+06
1.74501e+06
1.60422e+06
1.46666e+06
594709
726623
1.88544e+06
1.74408e+06
858620
1.60362e+06
990430
1.46545e+06
329539
252864
613742
665566
587445
278570
228266
194811
157415
147308
166821
141488
148521
250708
1.0078e+06
1.0821e+06
968721
542490
1.05535e+06
1.16303e+06
1.80309e+06
762507
614384
1.92204e+06
641475
220134
136664
188926
155636
303193
278984
283024
151454
409313
322775
417295
855352
150665
224134
1.01775e+06
163182
119808
149011
127981
1.51914e+06
180162
211619
714963
570339
279029
714143
229759
138516
126168
2.28167e+06
2.34902e+06
1.42119e+06
1.16374e+06
1.13468e+06
1.4455e+06
2.30174e+06
1.19002e+06
138857
767811
427129
326971
471328
225985
2.18482e+06
238925
1.28634e+06
1.18817e+06
1.08999e+06
573281
388928
674311
393930
300520
2.20746e+06
253740
139027
724169
723253
328913
206699
251676
424436
872301
1.6546e+06
691710
551888
1.0249e+06
1.34663e+06
366532
534100
1.16095e+06
1.06929e+06
980505
552504
595046
964639
794241
1.1167e+06
592622
1.22761e+06
1.33658e+06
387243
1.44923e+06
2.5995e+06
1.83351e+06
123175
879618
960393
1.04438e+06
320785
217984
1.57717e+06
273323
359102
446267
490021
209073
266210
215203
170409
1.50306e+06
1.15427e+06
1.21101e+06
1.45092e+06
337218
1.83546e+06
2.27571e+06
840009
148980
863611
942020
1.02466e+06
962774
1.11953e+06
313205
1.7903e+06
784080
726201
665346
787417
284806
395593
229027
212735
494375
582790
536888
616634
672559
730017
446289
442740
636596
639493
1.29648e+06
1.29002e+06
1.09214e+06
1.19273e+06
1.08627e+06
1.18671e+06
645820
702599
251135
157954
179481
213156
1.2947e+06
827297
146581
1.31592e+06
1.09171e+06
1.04628e+06
1.35546e+06
216116
471842
1.69783e+06
715963
1.56613e+06
1.4373e+06
117089
281496
1.17192e+06
692495
490011
1.55481e+06
544765
75526.9
1.18955e+06
1.09152e+06
1.29138e+06
577885
391110
1.59544e+06
615112
497888
2.12076e+06
617553
873572
209634
153791
356128
332808
304732
1.80645e+06
447624
300848
511405
470482
551809
277762
211896
1.19489e+06
1.34162e+06
215683
766673
162803
1.02989e+06
2.06429e+06
1.2961e+06
634021
474754
1.13369e+06
578712
515776
425810
279336
175018
429519
212002
523118
210902
357381
150850
169179
2.16104e+06
435727
1.84263e+06
1.05614e+06
1.13652e+06
613921
458688
1.09363e+06
1.9687e+06
127614
154740
157830
150330
390332
37783.9
12497.9
389827
819891
151625
867063
385821
267294
180776
577119
806116
1.68775e+06
137674
109148
179848
209291
450852
290665
1.14094e+06
1.01744e+06
246108
160924
129035
2.19152e+06
819819
139442
318720
157022
2.50224e+06
2.03741e+06
317990
238664
891960
430094
610308
1.20308e+06
1.01237e+06
1.10638e+06
2.35742e+06
1.8762e+06
154711
1.75798e+06
2.36976e+06
1.8517e+06
2.059e+06
888981
181765
1.19459e+06
293189
182636
224552
439421
478785
351162
349953
794995
259713
176784
133915
1.15706e+06
1.41638e+06
1.54238e+06
1.67128e+06
1.78898e+06
800201
682437
563195
443138
280079
129670
551638
25588.1
270381
270017
13891.6
596151
298522
235121
94674.7
374756
424729
144782
381746
1.14681e+06
897900
619351
438182
500314
2.16937e+06
1.65902e+06
221232
711767
144195
155234
609205
717944
741773
1.47232e+06
429448
468788
150263
1.95994e+06
160105
343170
399721
372739
1.42298e+06
1.54895e+06
803688
860032
858968
608813
781551
1.46357e+06
1.39348e+06
1.39173e+06
480002
665116
121779
133587
125938
298102
141110
644153
1.353e+06
1.20099e+06
1.47174e+06
1.07454e+06
1.48189e+06
1.07327e+06
730073
485995
1.29769e+06
950203
1.299e+06
953427
312810
1.43175e+06
1.20206e+06
1.05333e+06
1.37207e+06
1.21437e+06
1.49767e+06
1.08899e+06
1.49724e+06
1.08827e+06
1.35642e+06
2.50654e+06
547348
767995
1.62688e+06
597032
148824
158496
251264
24870.7
250916
21986.8
145424
462854
1.43666e+06
1.31775e+06
1.55892e+06
691146
478937
2.22171e+06
75347.9
138954
279430
958803
317421
875668
430776
2.25843e+06
2.27852e+06
1.36282e+06
163207
297488
1.5408e+06
818718
656220
444777
812641
745043
881078
307966
431140
2.31827e+06
544470
2.0637e+06
147420
144373
138011
145797
99108.9
2.03867e+06
166098
1.49969e+06
96628
1.09655e+06
1.39381e+06
167048
147467
213002
627678
223054
529657
487058
357638
387203
418893
178867
385928
520614
644768
433333
1.46398e+06
1.35161e+06
1.23967e+06
1.52648e+06
2.04079e+06
2.25165e+06
133751
131102
132089
145110
298775
175844
323317
2.2615e+06
2.30738e+06
2.31299e+06
1.76699e+06
69832.1
1.21744e+06
2.11016e+06
1.44008e+06
1.1359e+06
1.15936e+06
1.42092e+06
697618
618671
1.2508e+06
823571
1.47684e+06
109174
266261
340589
655930
270329
266344
303479
204824
235713
172867
200895
459142
461580
500822
499177
540826
540553
634978
625974
150586
148309
597278
385410
116278
225224
877694
1.47909e+06
151064
888039
1.91989e+06
593012
1.82626e+06
835960
232078
1.69939e+06
901840
757977
1.20168e+06
2.04615e+06
2.43927e+06
957062
408123
2.05335e+06
294513
215723
184697
455593
100608
864189
1.51075e+06
392075
592630
239865
144184
256691
2.20932e+06
396254
462601
446850
329929
943487
296248
234771
935807
206627
2.00883e+06
159126
1.18856e+06
440295
478362
1.86398e+06
1.58385e+06
957928
1.72746e+06
1.87416e+06
820755
2.02211e+06
684931
547000
1.58415e+06
1.72727e+06
2.02493e+06
1.87436e+06
548833
823697
961349
687040
2.04155e+06
202822
1.60249e+06
175103
120460
153817
9204.09
70060.4
876876
94679.4
1.54122e+06
318403
237688
598470
646610
550404
460683
301481
1.34204e+06
300098
322637
1.21313e+06
103875
474436
439747
436330
1.38039e+06
1.26652e+06
1.49748e+06
656279
557703
236050
403654
792438
1.53948e+06
76528.2
392597
233219
150371
507892
1.62648e+06
918748
788655
1.71512e+06
194215
939984
2.00505e+06
1.01419e+06
1.87436e+06
167447
2.11221e+06
251517
1.41154e+06
504877
623117
147947
16182.1
162242
161958
27664.4
269783
1.43993e+06
205472
1.76697e+06
801734
290785
1.36817e+06
1.31362e+06
1.49411e+06
1.43479e+06
1.62282e+06
1.55876e+06
755020
730075
514954
498877
571990
386223
1.29361e+06
1.1952e+06
1.09626e+06
345572
403806
373216
185766
1.21447e+06
1.06077e+06
98099.2
207958
155332
176435
186397
2.04561e+06
1.71324e+06
447726
1.47183e+06
1.35138e+06
1.59401e+06
130718
754501
1.38506e+06
1.44397e+06
147617
138261
1.65676e+06
526529
179973
304027
354127
328850
190912
569588
526097
486583
1.91176e+06
2.50188e+06
1.84246e+06
1.31008e+06
640688
462304
196649
214240
321048
231050
147140
131158
242227
698846
557941
145680
1.51337e+06
1.75423e+06
727885
634731
185638
178582
158905
168899
490247
1.65508e+06
1.28913e+06
993895
1.02363e+06
1.22073e+06
140966
157494
234798
141817
144687
319115
2.5861e+06
2.05268e+06
158806
197123
874496
754505
524444
1.62872e+06
1.75703e+06
1.37372e+06
1.49952e+06
887764
461127
395288
428482
199634
249741
1.89476e+06
506236
1.20718e+06
89688.4
1.75558e+06
160650
691056
802365
2.58344e+06
142951
712418
170598
666906
181412
420904
1.28367e+06
587352
1.47575e+06
957932
1.61282e+06
1.7525e+06
828170
1.89411e+06
696867
566858
698001
567390
270204
827523
935143
1.22305e+06
149174
241496
1.50492e+06
652054
2.37073e+06
1.92696e+06
2.15974e+06
389094
1.69049e+06
793012
614684
300651
229772
2.31507e+06
1.1997e+06
142018
2.5127e+06
2.12054e+06
73014.3
734964
600965
92719.1
972086
782452
116667
198280
1.62444e+06
2.41432e+06
147667
850719
872861
1.74991e+06
1.69486e+06
617666
633003
618151
633020
152951
153930
153173
144263
115872
2.486e+06
1.93453e+06
1.74635e+06
2.20355e+06
831464
444182
1.79769e+06
1.00673e+06
1.10015e+06
1.19632e+06
80819.8
1.84433e+06
321541
1.38219e+06
1.97533e+06
585529
411164
2.51282e+06
671892
705398
493805
520854
1.33124e+06
1.28636e+06
223395
219542
122628
145392
432701
1.5739e+06
1.45175e+06
1.33252e+06
658138
2.48277e+06
151393
299942
135246
1.31648e+06
1.43728e+06
840027
1.56044e+06
717881
1.69988e+06
607302
1.61056e+06
1.35844e+06
1.48286e+06
1.73823e+06
487262
863786
744884
608843
142587
199306
212536
274841
513877
434974
472610
2.0499e+06
950945
1.16005e+06
1.89251e+06
222249
339585
145292
533005
744388
256716
357498
1.91513e+06
204344
139905
142821
145624
140602
90901.2
224184
173032
187009
1.6471e+06
1.94621e+06
170653
148083
188602
326746
711870
2.10417e+06
1.96019e+06
872745
149490
212857
1.67467e+06
151456
152543
2.55376e+06
987403
1.92772e+06
541818
1.30627e+06
825539
808190
224211
916093
1.38127e+06
665916
478979
189601
432615
146911
113582
132587
2.07173e+06
1.22085e+06
1.2447e+06
2.04532e+06
319919
343297
178876
648303
160010
144213
154940
408786
322864
32871.1
322460
22513.1
144112
1.28106e+06
385873
559109
1.18477e+06
1.09146e+06
1.00013e+06
201288
2.35125e+06
774893
447710
2.02201e+06
1.20471e+06
1.25297e+06
207372
20367.9
207059
21431
1.78812e+06
441769
745795
883999
814861
165780
1.91892e+06
449628
322686
1.03397e+06
794064
139304
43850
1.40845e+06
292259
1.4073e+06
358517
476399
877433
979076
821856
178420
719263
295668
380703
183236
196846
683219
712146
236760
430684
150770
151962
1.14187e+06
571683
419535
160903
607648
15732
58874.5
606875
758974
613374
908292
1.07815e+06
125503
2.34305e+06
2.44064e+06
306695
147399
163011
254731
280804
29031.4
280461
25025.3
1.23116e+06
420874
584136
2.27415e+06
2.30817e+06
1.95948e+06
1.77774e+06
1.05952e+06
938920
898607
797344
1.92642e+06
278050
549884
198178
129294
144337
396273
555582
795281
2.23226e+06
2.25369e+06
282920
147007
738691
803383
270232
1.22207e+06
500906
410367
1.78672e+06
177033
162629
217953
1.19319e+06
1.20029e+06
1.26916e+06
804680
403079
563376
96742.9
98550.5
1.38042e+06
143877
1.22389e+06
157792
601261
977510
856625
1.42983e+06
1.67225e+06
149738
196096
453967
1.98587e+06
9578.77
118584
35173.1
119140
320104
294518
97230.8
2.15369e+06
38402.5
2.04033e+06
531242
51461.1
16596.5
530568
347855
172629
19871.6
172488
442613
1.92675e+06
445417
2.12269e+06
2.44174e+06
70799.5
700768
829795
765180
991888
475643
346282
1.06566e+06
672596
117389
261983
415851
297895
741077
980106
274104
275246
2.34696e+06
845160
980804
914372
1.05545e+06
1.48772e+06
136047
148605
1.24493e+06
1.51506e+06
508301
287842
331384
170793
341776
503215
154127
265646
384373
151672
106099
1.36033e+06
1.59001e+06
307651
681389
531515
543174
1.68485e+06
766254
332103
256682
649039
537403
133936
389230
1.51623e+06
1.93817e+06
517976
360933
912661
1.08106e+06
995961
92183.4
145521
376127
267321
1.44105e+06
522602
115289
56324.9
87486.4
505164
354297
883223
1.04602e+06
963881
149836
2.09533e+06
2.39234e+06
164885
165034
156837
152822
2.09583e+06
416897
308524
891444
2.58985e+06
2.08205e+06
590634
206360
545438
502952
307390
286896
327273
182492
160104
160637
445402
2.03878e+06
120154
1.12876e+06
1.22255e+06
1.93143e+06
1.39254e+06
1.35904e+06
519712
512369
699619
710682
325073
364720
314208
144450
142072
823809
266884
1.89528e+06
1.31138e+06
332363
141046
810105
2.42315e+06
139191
1.29303e+06
1.07556e+06
1.02198e+06
1.33559e+06
916593
393975
548719
1.21728e+06
213030
888483
384383
430085
220660
450367
273175
355202
975809
483359
205515
178387
236954
1.25041e+06
1.02659e+06
223639
213296
200781
230471
147004
659782
507707
131250
480866
150489
275290
445106
2.21642e+06
1.95143e+06
1.32649e+06
386497
274215
864577
800477
735652
348278
347915
167247
1.20003e+06
164113
677027
882020
257206
224541
1.97765e+06
112720
392788
366165
176184
2.08585e+06
109854
144316
586938
692326
208827
197899
219475
158754
151018
1.32573e+06
119953
163199
20286.1
163013
1.32412e+06
1.25916e+06
2.38389e+06
1.42585e+06
1.79601e+06
149928
1.85442e+06
1.26681e+06
18350.7
133194
313839
237599
535014
581491
627699
822399
461329
1.92583e+06
1.12953e+06
1.22626e+06
195638
130178
126756
146780
160337
168087
260936
1.10668e+06
133304
2.39531e+06
587203
237338
1.24e+06
812227
412620
575202
265082
229706
327042
492949
318052
656475
596424
236031
151471
847866
1.17911e+06
103376
112032
203101
120011
123190
1.79704e+06
475182
348798
1.01097e+06
1.74151e+06
475340
343209
854473
726228
787122
666590
384590
276941
154524
10793.9
85424.4
816560
672286
959186
2.00015e+06
1.69658e+06
1.84703e+06
672611
815145
2.00419e+06
1.85025e+06
958129
1.69955e+06
218530
448873
373183
369385
137883
247395
219668