/*--------------------------------*- C++ -*----------------------------------*\
| =========                 |                                                 |
| \\      /  F ield         | OpenFOAM: The Open Source CFD Toolbox           |
|  \\    /   O peration     | Version:  2.3.1                                 |
|   \\  /    A nd           | Web:      www.OpenFOAM.org                      |
|    \\/     M anipulation  |                                                 |
\*---------------------------------------------------------------------------*/
FoamFile
{
    version     2.0;
    format      ascii;
    class       volScalarField;
    location    "0.5";
    object      epsilon;
}
// * * * * * * * * * * * * * * * * * * * * * * * * * * * * * * * * * * * * * //

dimensions      [0 2 -3 0 0 0 0];

internalField   nonuniform List<scalar> 
1000
(
0.00106635
0.00110135
0.00110184
0.00110177
0.00110175
0.00110174
0.00110173
0.00110173
0.00110167
0.00109861
0.00110197
0.00110535
0.0011055
0.00110548
0.00110546
0.00110545
0.00110544
0.00110543
0.00110522
0.00109923
0.00110323
0.00110636
0.00110655
0.00110653
0.00110652
0.00110651
0.00110649
0.00110648
0.00110625
0.00109998
0.00110408
0.00110748
0.00110771
0.00110771
0.0011077
0.00110769
0.00110767
0.00110766
0.00110742
0.001101
0.0011054
0.00110926
0.00110955
0.00110961
0.00110962
0.0011096
0.0011096
0.00110954
0.0011093
0.00110248
0.00110112
0.00110466
0.00110499
0.00110505
0.00110508
0.00110509
0.00110509
0.00110509
0.0011049
0.0010993
0.00110516
0.000680215
0.000663297
0.000662702
0.000662639
0.00066261
0.000662592
0.000662872
0.000678653
0.00110346
0.00110611
0.000661632
0.000643936
0.000643411
0.000643397
0.000643394
0.000643394
0.000643715
0.000660485
0.00110441
0.00110703
0.000661039
0.000643376
0.00064286
0.00064285
0.000642848
0.00064285
0.000643176
0.000660033
0.00110536
0.00110832
0.000661341
0.000643631
0.000643124
0.000643116
0.000643115
0.000643118
0.000643441
0.000660406
0.00110671
0.00110253
0.00110544
0.00110574
0.00110581
0.00110584
0.00110586
0.00110587
0.00110587
0.00110567
0.00109989
0.00110576
0.000663235
0.000645571
0.000645002
0.000644961
0.000644942
0.00064493
0.000645237
0.000661918
0.00110423
0.00110661
0.00064425
0.000625495
0.000624931
0.000624918
0.000624917
0.000624919
0.000625266
0.000643008
0.0011051
0.00110747
0.000643727
0.000624953
0.000624392
0.000624381
0.000624381
0.000624383
0.000624732
0.000642547
0.00110594
0.00110861
0.000643985
0.000625183
0.000624626
0.000624617
0.000624615
0.000624619
0.000624965
0.000642846
0.0011071
0.0011031
0.00110593
0.00110619
0.00110623
0.00110626
0.00110628
0.00110629
0.00110629
0.00110609
0.0011003
0.00110617
0.000661996
0.000644443
0.000643908
0.000643882
0.00064387
0.000643864
0.000644176
0.000660915
0.00110461
0.00110691
0.000643641
0.000624918
0.000624358
0.000624347
0.000624346
0.000624349
0.000624696
0.00064247
0.00110541
0.00110769
0.00064318
0.000624421
0.000623861
0.000623851
0.00062385
0.000623853
0.000624201
0.000642029
0.00110616
0.00110869
0.000643365
0.000624595
0.000624038
0.000624028
0.000624027
0.000624029
0.000624375
0.000642232
0.00110715
0.00110341
0.00110619
0.00110643
0.00110646
0.00110648
0.0011065
0.00110651
0.00110651
0.00110631
0.0011005
0.00110641
0.00066127
0.000643767
0.000643247
0.000643229
0.000643222
0.00064322
0.000643536
0.000660305
0.0011048
0.00110709
0.000643535
0.000624858
0.000624302
0.000624291
0.00062429
0.000624294
0.00062464
0.000642413
0.00110556
0.00110781
0.000643123
0.00062441
0.000623853
0.000623843
0.000623843
0.000623846
0.000624191
0.000642002
0.00110626
0.00110873
0.000643268
0.000624559
0.000624005
0.000623995
0.000623995
0.000623996
0.000624339
0.000642154
0.00110716
0.00110347
0.0011063
0.00110652
0.00110655
0.00110657
0.00110658
0.00110659
0.00110658
0.00110638
0.00110052
0.00110648
0.000660846
0.000643374
0.000642869
0.00064286
0.000642861
0.000642866
0.000643186
0.000659972
0.00110484
0.00110717
0.000643498
0.000624856
0.000624304
0.000624294
0.000624295
0.000624299
0.000624645
0.000642414
0.00110562
0.00110792
0.000643127
0.000624454
0.000623902
0.000623893
0.000623893
0.000623896
0.000624239
0.00064204
0.00110635
0.00110886
0.000643274
0.000624613
0.000624064
0.000624055
0.000624056
0.000624056
0.000624396
0.000642186
0.00110727
0.00110334
0.00110627
0.00110649
0.00110651
0.00110653
0.00110654
0.00110654
0.00110654
0.00110633
0.00110035
0.00110642
0.000660823
0.000643372
0.000642869
0.00064286
0.000642861
0.000642865
0.000643185
0.000659971
0.00110475
0.0011072
0.000643548
0.000624929
0.000624379
0.00062437
0.000624371
0.000624375
0.000624718
0.00064248
0.00110562
0.00110806
0.000643227
0.000624573
0.000624024
0.000624016
0.000624017
0.000624019
0.000624358
0.000642145
0.00110646
0.00110913
0.000643426
0.000624789
0.000624243
0.000624234
0.000624235
0.000624234
0.000624568
0.000642336
0.0011075
0.00110299
0.00110602
0.00110625
0.00110627
0.00110628
0.00110628
0.00110629
0.00110628
0.00110607
0.00109998
0.00110617
0.000661236
0.000643823
0.000643323
0.000643314
0.000643315
0.000643319
0.000643639
0.000660401
0.00110447
0.0011071
0.000644091
0.000625517
0.000624972
0.000624963
0.000624965
0.000624968
0.000625308
0.000643037
0.00110549
0.00110812
0.000643888
0.00062529
0.000624748
0.000624741
0.000624742
0.000624743
0.000625077
0.00064282
0.00110649
0.00110942
0.000644312
0.000625754
0.000625218
0.000625213
0.000625215
0.000625208
0.000625533
0.000643232
0.00110775
0.0011024
0.00110536
0.00110557
0.00110559
0.0011056
0.0011056
0.0011056
0.0011056
0.00110539
0.00109937
0.00110558
0.00067921
0.00066279
0.000662334
0.000662333
0.000662339
0.000662343
0.00066264
0.000678594
0.0011038
0.00110665
0.000663646
0.000646203
0.000645715
0.000645717
0.000645723
0.000645723
0.000646034
0.000662841
0.00110495
0.00110786
0.000664585
0.000647193
0.000646724
0.000646733
0.000646741
0.00064673
0.000647018
0.000663769
0.00110613
0.00110945
0.000667185
0.000649997
0.000649565
0.000649588
0.000649593
0.000649563
0.000649813
0.000666371
0.00110765
0.00109872
0.0010988
0.00109881
0.00109882
0.00109882
0.00109882
0.00109882
0.00109882
0.00109877
0.00109552
0.00109955
0.00110336
0.00110365
0.00110367
0.00110368
0.00110369
0.00110368
0.00110367
0.00110342
0.00109642
0.00110058
0.00110466
0.00110499
0.00110503
0.00110504
0.00110505
0.00110504
0.00110501
0.00110472
0.00109745
0.00110193
0.00110603
0.00110638
0.00110643
0.00110645
0.00110646
0.00110644
0.00110639
0.00110606
0.00109877
0.00110393
0.00110803
0.00110843
0.00110848
0.00110851
0.00110851
0.00110848
0.0011084
0.00110802
0.00110078
0.00110981
0.00111288
0.00111326
0.00111333
0.00111335
0.00111335
0.00111332
0.00111322
0.00111277
0.00110673
0.00111577
0.00112081
0.00112127
0.00112132
0.00112129
0.00112129
0.00112133
0.00112121
0.00112088
0.00111294
0.00115312
0.0012028
0.00120335
0.00120183
0.00120129
0.00120131
0.00120172
0.00120326
0.00120408
0.00115181
0.00161795
0.00238344
0.00239573
0.00237458
0.00236705
0.00236651
0.00237294
0.00239296
0.00240091
0.00163968
0.00583821
0.0123591
0.0129085
0.0129251
0.0129233
0.0129192
0.0129109
0.0128844
0.0124707
0.00597833
0.00111088
0.000673214
0.000656627
0.000656284
0.000656326
0.000656328
0.000656281
0.000656444
0.000672468
0.0011091
0.00111347
0.000687355
0.000671944
0.000671801
0.000671873
0.000671877
0.000671802
0.000671798
0.000686824
0.00111179
0.00112078
0.000752056
0.000741548
0.000742525
0.000742882
0.000742893
0.000742546
0.000741558
0.000752451
0.0011194
0.00124747
0.00131171
0.00133067
0.00133052
0.00133023
0.00133007
0.00133018
0.00133064
0.00132298
0.00125361
0.00877584
0.0340329
0.0355787
0.0354714
0.0354095
0.0353984
0.0354362
0.0355396
0.0345049
0.00909418
0.00110991
0.000644858
0.000626345
0.00062582
0.000625817
0.000625815
0.000625806
0.000626114
0.000643781
0.00110827
0.00111131
0.000646123
0.00062774
0.000627241
0.00062724
0.000627241
0.000627228
0.000627517
0.000645098
0.00110977
0.00111345
0.000659782
0.000642889
0.000642795
0.000642906
0.00064291
0.000642796
0.000642733
0.00065909
0.00111204
0.00120189
0.00122122
0.00123672
0.0012386
0.00123897
0.00123891
0.00123849
0.00123726
0.00123212
0.00120643
0.009252
0.0351976
0.0365083
0.0364721
0.0364374
0.0364316
0.0364559
0.0365153
0.0356994
0.00959469
0.00110914
0.000643101
0.000624411
0.000623859
0.000623849
0.000623847
0.000623844
0.000624179
0.000641995
0.00110753
0.00111008
0.000643101
0.000624402
0.000623848
0.000623834
0.000623833
0.000623833
0.000624172
0.00064201
0.00110852
0.00111128
0.000648075
0.000629811
0.000629329
0.000629336
0.000629336
0.000629321
0.000629606
0.000647145
0.00110981
0.00119426
0.00119188
0.00120385
0.00120504
0.00120523
0.00120521
0.00120502
0.00120456
0.00120267
0.00119846
0.00956799
0.0368729
0.0382415
0.0382611
0.0382464
0.0382438
0.0382554
0.0382746
0.0374268
0.00993537
0.00110867
0.000642827
0.000624099
0.000623542
0.00062353
0.000623529
0.000623529
0.000623871
0.000641725
0.00110708
0.00110949
0.000642766
0.000624022
0.000623461
0.000623448
0.000623446
0.000623448
0.000623797
0.00064167
0.00110794
0.00111061
0.000646687
0.000628253
0.000627719
0.000627712
0.000627712
0.000627711
0.000628044
0.000645723
0.00110912
0.00119283
0.00118834
0.0011993
0.00120031
0.00120047
0.00120048
0.00120035
0.0012001
0.00119919
0.00119694
0.0097047
0.0375879
0.0389965
0.0390457
0.0390425
0.039042
0.0390464
0.039043
0.0381661
0.0100834
0.00110853
0.00064284
0.000624046
0.000623486
0.000623474
0.000623472
0.000623472
0.00062382
0.000641718
0.00110696
0.00110946
0.000642871
0.000624024
0.00062346
0.000623448
0.000623447
0.000623449
0.000623801
0.000641764
0.00110791
0.00111082
0.000647232
0.000628747
0.000628241
0.000628247
0.000628247
0.000628236
0.000628547
0.000646268
0.0011093
0.0012137
0.00132088
0.0013486
0.00135706
0.0013602
0.0013603
0.00135751
0.00135044
0.00133536
0.00121905
0.00974043
0.0376776
0.0390873
0.0391436
0.0391443
0.0391443
0.039147
0.0391393
0.0382639
0.0101249
0.00110865
0.000643074
0.000624176
0.000623615
0.000623605
0.000623602
0.000623604
0.000623953
0.000641947
0.00110713
0.00110987
0.00064333
0.00062427
0.000623708
0.000623697
0.000623698
0.000623699
0.000624057
0.000642221
0.00110831
0.00111183
0.000650325
0.000631903
0.000631538
0.000631597
0.000631598
0.000631542
0.000631713
0.00064942
0.0011103
0.00126837
0.00160268
0.00166735
0.00169257
0.00170213
0.0017024
0.00169382
0.00167131
0.00162388
0.00127673
0.00972912
0.0373354
0.0387068
0.03876
0.0387609
0.0387606
0.0387659
0.0387637
0.0379238
0.010122
0.00110891
0.000643846
0.000624826
0.000624273
0.000624264
0.000624266
0.000624265
0.000624614
0.000642729
0.00110742
0.00111049
0.000644847
0.000625483
0.000624936
0.000624933
0.000624932
0.000624934
0.00062527
0.000643749
0.00110891
0.00111422
0.000661456
0.000643557
0.000643639
0.000643859
0.000643868
0.000643647
0.000643415
0.000660681
0.00111265
0.00136831
0.00180042
0.00190942
0.00196653
0.00198808
0.00198866
0.00196913
0.0019158
0.00182057
0.00138109
0.00965179
0.0361028
0.0373783
0.0374282
0.0374312
0.0374322
0.0374371
0.037443
0.0366746
0.0100574
0.00110913
0.000660987
0.000642803
0.000642293
0.000642288
0.000642287
0.000642293
0.000642619
0.000660076
0.00110758
0.00111116
0.000665446
0.000646948
0.000646535
0.000646571
0.000646576
0.000646533
0.000646772
0.000664581
0.00110946
0.00111921
0.000703835
0.000686986
0.000687585
0.000688002
0.000688008
0.000687605
0.00068689
0.000703357
0.00111774
0.00132185
0.00124653
0.00126364
0.00127159
0.00127438
0.00127441
0.00127192
0.00126483
0.00125656
0.00132731
0.00895754
0.0301412
0.0311755
0.0312975
0.0313365
0.0313386
0.0313124
0.0312393
0.0305494
0.00930787
0.00110437
0.00111047
0.0011111
0.00111119
0.00111122
0.00111124
0.00111117
0.00111115
0.00111062
0.00110131
0.00110663
0.00111458
0.00111536
0.00111547
0.00111551
0.00111548
0.00111547
0.00111537
0.00111462
0.00110352
0.00112198
0.00113604
0.00113767
0.001138
0.00113807
0.00113805
0.00113804
0.00113761
0.00113628
0.00111915
0.00117608
0.00125183
0.0012625
0.00126462
0.00126526
0.00126533
0.00126471
0.00126301
0.00125424
0.00117544
0.0047746
0.00801513
0.00818958
0.0082269
0.00823942
0.00823987
0.00823028
0.00819995
0.00806812
0.00485674
)
;

boundaryField
{
    walls
    {
        type            epsilonWallFunction;
        value           nonuniform List<scalar> 
500
(
0.00106635
0.00106635
0.00106635
0.00110135
0.00110135
0.00110184
0.00110184
0.00110177
0.00110177
0.00110175
0.00110175
0.00110174
0.00110174
0.00110173
0.00110173
0.00110173
0.00110173
0.00110167
0.00110167
0.00109861
0.00109861
0.00109861
0.00110197
0.00110197
0.00110535
0.0011055
0.00110548
0.00110546
0.00110545
0.00110544
0.00110543
0.00110522
0.00109923
0.00109923
0.00110323
0.00110323
0.00110636
0.00110655
0.00110653
0.00110652
0.00110651
0.00110649
0.00110648
0.00110625
0.00109998
0.00109998
0.00110408
0.00110408
0.00110748
0.00110771
0.00110771
0.0011077
0.00110769
0.00110767
0.00110766
0.00110742
0.001101
0.001101
0.0011054
0.0011054
0.00110926
0.00110955
0.00110961
0.00110962
0.0011096
0.0011096
0.00110954
0.0011093
0.00110248
0.00110248
0.00110112
0.00110112
0.00110466
0.00110499
0.00110505
0.00110508
0.00110509
0.00110509
0.00110509
0.0011049
0.0010993
0.0010993
0.00110516
0.00110346
0.00110611
0.00110441
0.00110703
0.00110536
0.00110832
0.00110671
0.00110253
0.00110253
0.00110544
0.00110574
0.00110581
0.00110584
0.00110586
0.00110587
0.00110587
0.00110567
0.00109989
0.00109989
0.00110576
0.00110423
0.00110661
0.0011051
0.00110747
0.00110594
0.00110861
0.0011071
0.0011031
0.0011031
0.00110593
0.00110619
0.00110623
0.00110626
0.00110628
0.00110629
0.00110629
0.00110609
0.0011003
0.0011003
0.00110617
0.00110461
0.00110691
0.00110541
0.00110769
0.00110616
0.00110869
0.00110715
0.00110341
0.00110341
0.00110619
0.00110643
0.00110646
0.00110648
0.0011065
0.00110651
0.00110651
0.00110631
0.0011005
0.0011005
0.00110641
0.0011048
0.00110709
0.00110556
0.00110781
0.00110626
0.00110873
0.00110716
0.00110347
0.00110347
0.0011063
0.00110652
0.00110655
0.00110657
0.00110658
0.00110659
0.00110658
0.00110638
0.00110052
0.00110052
0.00110648
0.00110484
0.00110717
0.00110562
0.00110792
0.00110635
0.00110886
0.00110727
0.00110334
0.00110334
0.00110627
0.00110649
0.00110651
0.00110653
0.00110654
0.00110654
0.00110654
0.00110633
0.00110035
0.00110035
0.00110642
0.00110475
0.0011072
0.00110562
0.00110806
0.00110646
0.00110913
0.0011075
0.00110299
0.00110299
0.00110602
0.00110625
0.00110627
0.00110628
0.00110628
0.00110629
0.00110628
0.00110607
0.00109998
0.00109998
0.00110617
0.00110447
0.0011071
0.00110549
0.00110812
0.00110649
0.00110942
0.00110775
0.0011024
0.0011024
0.00110536
0.00110557
0.00110559
0.0011056
0.0011056
0.0011056
0.0011056
0.00110539
0.00109937
0.00109937
0.00110558
0.0011038
0.00110665
0.00110495
0.00110786
0.00110613
0.00110945
0.00110765
0.00109872
0.00109872
0.00109872
0.0010988
0.0010988
0.00109881
0.00109881
0.00109882
0.00109882
0.00109882
0.00109882
0.00109882
0.00109882
0.00109882
0.00109882
0.00109882
0.00109882
0.00109877
0.00109877
0.00109552
0.00109552
0.00109552
0.00109955
0.00109955
0.00110336
0.00110365
0.00110367
0.00110368
0.00110369
0.00110368
0.00110367
0.00110342
0.00109642
0.00109642
0.00110058
0.00110058
0.00110466
0.00110499
0.00110503
0.00110504
0.00110505
0.00110504
0.00110501
0.00110472
0.00109745
0.00109745
0.00110193
0.00110193
0.00110603
0.00110638
0.00110643
0.00110645
0.00110646
0.00110644
0.00110639
0.00110606
0.00109877
0.00109877
0.00110393
0.00110393
0.00110803
0.00110843
0.00110848
0.00110851
0.00110851
0.00110848
0.0011084
0.00110802
0.00110078
0.00110078
0.00110981
0.00110981
0.00111288
0.00111326
0.00111333
0.00111335
0.00111335
0.00111332
0.00111322
0.00111277
0.00110673
0.00110673
0.00111577
0.00111577
0.00112081
0.00112127
0.00112132
0.00112129
0.00112129
0.00112133
0.00112121
0.00112088
0.00111294
0.00111294
0.00115312
0.00115312
0.0012028
0.00120335
0.00120183
0.00120129
0.00120131
0.00120172
0.00120326
0.00120408
0.00115181
0.00115181
0.00161795
0.00161795
0.00238344
0.00239573
0.00237458
0.00236705
0.00236651
0.00237294
0.00239296
0.00240091
0.00163968
0.00163968
0.00583821
0.00583821
0.0123591
0.0129085
0.0129251
0.0129233
0.0129192
0.0129109
0.0128844
0.0124707
0.00597833
0.00597833
0.00111088
0.0011091
0.00111347
0.00111179
0.00112078
0.0011194
0.00124747
0.00125361
0.00877584
0.00909418
0.00110991
0.00110827
0.00111131
0.00110977
0.00111345
0.00111204
0.00120189
0.00120643
0.009252
0.00959469
0.00110914
0.00110753
0.00111008
0.00110852
0.00111128
0.00110981
0.00119426
0.00119846
0.00956799
0.00993537
0.00110867
0.00110708
0.00110949
0.00110794
0.00111061
0.00110912
0.00119283
0.00119694
0.0097047
0.0100834
0.00110853
0.00110696
0.00110946
0.00110791
0.00111082
0.0011093
0.0012137
0.00121905
0.00974043
0.0101249
0.00110865
0.00110713
0.00110987
0.00110831
0.00111183
0.0011103
0.00126837
0.00127673
0.00972912
0.010122
0.00110891
0.00110742
0.00111049
0.00110891
0.00111422
0.00111265
0.00136831
0.00138109
0.00965179
0.0100574
0.00110913
0.00110758
0.00111116
0.00110946
0.00111921
0.00111774
0.00132185
0.00132731
0.00895754
0.00930787
0.00110437
0.00110437
0.00111047
0.0011111
0.00111119
0.00111122
0.00111124
0.00111117
0.00111115
0.00111062
0.00110131
0.00110131
0.00110663
0.00110663
0.00111458
0.00111536
0.00111547
0.00111551
0.00111548
0.00111547
0.00111537
0.00111462
0.00110352
0.00110352
0.00112198
0.00112198
0.00113604
0.00113767
0.001138
0.00113807
0.00113805
0.00113804
0.00113761
0.00113628
0.00111915
0.00111915
0.00117608
0.00117608
0.00125183
0.0012625
0.00126462
0.00126526
0.00126533
0.00126471
0.00126301
0.00125424
0.00117544
0.00117544
0.0047746
0.0047746
0.00801513
0.00818958
0.0082269
0.00823942
0.00823987
0.00823028
0.00819995
0.00806812
0.00485674
0.00485674
)
;
        Cmu             0.09;
        kappa           0.41;
        E               9.8;
    }
    lid
    {
        type            epsilonWallFunction;
        value           nonuniform List<scalar> 
100
(
0.00583821
0.0123591
0.0129085
0.0129251
0.0129233
0.0129192
0.0129109
0.0128844
0.0124707
0.00597833
0.00877584
0.0340329
0.0355787
0.0354714
0.0354095
0.0353984
0.0354362
0.0355396
0.0345049
0.00909418
0.009252
0.0351976
0.0365083
0.0364721
0.0364374
0.0364316
0.0364559
0.0365153
0.0356994
0.00959469
0.00956799
0.0368729
0.0382415
0.0382611
0.0382464
0.0382438
0.0382554
0.0382746
0.0374268
0.00993537
0.0097047
0.0375879
0.0389965
0.0390457
0.0390425
0.039042
0.0390464
0.039043
0.0381661
0.0100834
0.00974043
0.0376776
0.0390873
0.0391436
0.0391443
0.0391443
0.039147
0.0391393
0.0382639
0.0101249
0.00972912
0.0373354
0.0387068
0.03876
0.0387609
0.0387606
0.0387659
0.0387637
0.0379238
0.010122
0.00965179
0.0361028
0.0373783
0.0374282
0.0374312
0.0374322
0.0374371
0.037443
0.0366746
0.0100574
0.00895754
0.0301412
0.0311755
0.0312975
0.0313365
0.0313386
0.0313124
0.0312393
0.0305494
0.00930787
0.0047746
0.00801513
0.00818958
0.0082269
0.00823942
0.00823987
0.00823028
0.00819995
0.00806812
0.00485674
)
;
        Cmu             0.09;
        kappa           0.41;
        E               9.8;
    }
}


// ************************************************************************* //
