/*--------------------------------*- C++ -*----------------------------------*\
| =========                 |                                                 |
| \\      /  F ield         | OpenFOAM: The Open Source CFD Toolbox           |
|  \\    /   O peration     | Version:  2.3.1                                 |
|   \\  /    A nd           | Web:      www.OpenFOAM.org                      |
|    \\/     M anipulation  |                                                 |
\*---------------------------------------------------------------------------*/
FoamFile
{
    version     2.0;
    format      ascii;
    class       volVectorField;
    location    "960";
    object      D;
}
// * * * * * * * * * * * * * * * * * * * * * * * * * * * * * * * * * * * * * //

dimensions      [0 1 0 0 0 0 0];

internalField   nonuniform List<vector> 
11800
(
(4.13945e-06 0.000123049 0)
(-5.33388e-06 0.000136707 0)
(2.99254e-06 4.3067e-05 0)
(-3.45094e-06 5.78989e-05 0)
(-4.8769e-06 0.000136481 0)
(-2.24937e-06 5.80083e-05 0)
(-8.43636e-07 9.31808e-05 0)
(-8.09397e-07 7.25061e-05 0)
(3.63627e-07 1.18581e-05 0)
(6.22335e-07 4.46096e-05 0)
(4.60136e-06 0.000122765 0)
(-4.31686e-06 4.96545e-05 0)
(-4.73462e-09 -3.76654e-09 0)
(2.65657e-06 4.28173e-05 0)
(-3.06481e-06 5.81336e-05 0)
(3.14673e-06 7.35885e-06 0)
(-4.90394e-07 9.29185e-05 0)
(-4.78845e-07 7.22561e-05 0)
(1.97563e-07 1.1986e-05 0)
(3.7085e-07 4.43973e-05 0)
(-2.64055e-06 5.78028e-05 0)
(-3.95809e-06 4.98444e-05 0)
(-7.13882e-07 2.66331e-06 0)
(-7.61221e-07 2.77108e-06 0)
(2.79334e-06 8.38126e-06 0)
(-1.13064e-06 4.36857e-06 0)
(-4.31622e-06 3.02129e-05 0)
(5.94245e-06 8.38369e-05 0)
(-3.88931e-06 2.31385e-05 0)
(-3.40873e-06 1.68092e-05 0)
(6.27191e-06 0.00010515 0)
(2.31951e-08 2.08425e-06 0)
(1.44162e-06 5.58334e-06 0)
(-3.261e-06 0.0001402 0)
(2.56203e-06 0.000139583 0)
(-7.23523e-06 0.000112067 0)
(2.3835e-06 0.000140053 0)
(1.41756e-06 5.73676e-06 0)
(-8.25152e-07 9.82359e-05 0)
(6.20845e-07 4.88116e-05 0)
(-4.24243e-06 3.05393e-05 0)
(-3.82648e-06 2.34332e-05 0)
(5.80495e-06 8.33751e-05 0)
(-3.35746e-06 1.70711e-05 0)
(6.13185e-06 0.000104666 0)
(2.99966e-06 7.41676e-06 0)
(8.02624e-07 3.14151e-06 0)
(8.96135e-07 3.09224e-06 0)
(-1.27249e-06 9.83171e-05 0)
(9.87424e-07 4.88774e-05 0)
(-6.92893e-06 7.34284e-05 0)
(-7.35796e-06 9.41049e-05 0)
(-7.18928e-07 0.00012177 0)
(3.52038e-08 1.97993e-06 0)
(-3.87243e-06 8.72698e-06 0)
(5.44065e-07 4.74633e-07 0)
(-9.02385e-06 0.000142077 0)
(-2.35984e-06 4.15229e-05 0)
(2.57741e-06 5.96511e-05 0)
(-1.7269e-06 3.99525e-05 0)
(1.07566e-06 1.49219e-06 0)
(-1.20303e-06 0.000121859 0)
(-2.05684e-06 4.1433e-05 0)
(2.24224e-06 5.97573e-05 0)
(2.61638e-06 8.25692e-06 0)
(-8.61252e-06 0.000125994 0)
(-7.1877e-06 7.31199e-05 0)
(-7.65848e-06 9.37679e-05 0)
(-8.57277e-06 0.000141853 0)
(-1.18545e-06 4.50715e-06 0)
(-2.91226e-06 0.000140584 0)
(-5.10569e-06 0.000139841 0)
(-5.25279e-06 0.000139356 0)
(-5.24413e-08 6.23888e-08 0)
(1.14869e-06 1.55485e-06 0)
(-6.8178e-06 0.000112371 0)
(3.39755e-06 1.14826e-05 0)
(-8.75161e-06 0.000126453 0)
(-6.97782e-06 0.000127491 0)
(-6.52232e-06 0.000127906 0)
(-3.69272e-06 8.6112e-06 0)
(4.86538e-07 5.06094e-05 0)
(4.72383e-06 0.000138772 0)
(4.21153e-06 0.000138856 0)
(-6.66726e-07 5.19576e-05 0)
(-3.26325e-06 1.88614e-05 0)
(5.66777e-06 0.000101455 0)
(-3.68263e-06 2.54469e-05 0)
(-4.05802e-06 3.2761e-05 0)
(5.3534e-06 8.03236e-05 0)
(-2.03038e-07 0.000119212 0)
(1.53533e-06 5.31334e-06 0)
(-4.35256e-06 0.00012829 0)
(8.86124e-06 0.000143137 0)
(1.39012e-06 6.35504e-05 0)
(-1.26202e-09 -9.58979e-10 0)
(3.24604e-11 -2.02453e-10 0)
(1.25377e-09 -9.52557e-10 0)
(-1.40053e-07 0.000123225 0)
(-4.09696e-06 5.0709e-05 0)
(7.61924e-06 0.000142637 0)
(4.6796e-06 5.55065e-05 0)
(-1.87229e-06 7.69437e-06 0)
(-4.33323e-07 5.97869e-06 0)
(-2.95786e-07 0.000135886 0)
(4.85459e-07 1.23886e-05 0)
(-1.02783e-06 7.14865e-05 0)
(-1.06028e-06 9.20578e-05 0)
(1.65506e-06 2.93686e-06 0)
(3.65713e-06 2.54338e-05 0)
(3.2444e-06 1.88493e-05 0)
(4.02759e-06 3.27461e-05 0)
(-5.83384e-06 0.000101468 0)
(-5.5141e-06 8.03406e-05 0)
(8.15404e-07 4.37368e-05 0)
(1.30926e-06 2.68421e-06 0)
(8.44781e-06 0.000126496 0)
(-3.52037e-06 0.000129751 0)
(1.3345e-06 2.58799e-06 0)
(-6.33096e-07 4.51426e-05 0)
(-3.95487e-07 1.15538e-05 0)
(7.36335e-07 9.38415e-05 0)
(7.01744e-07 7.31014e-05 0)
(-1.1169e-06 9.01264e-05 0)
(-4.38058e-06 0.000128761 0)
(-4.26876e-07 0.000122851 0)
(-2.83057e-06 0.000135938 0)
(-6.94137e-07 0.000135578 0)
(-9.6841e-06 0.000146673 0)
(-1.00294e-05 0.000146326 0)
(-3.2398e-07 1.4895e-07 0)
(-1.42821e-06 3.46273e-06 0)
(5.81782e-06 9.85418e-05 0)
(-3.49045e-06 2.05629e-05 0)
(5.47816e-06 7.75757e-05 0)
(-3.9106e-06 2.73518e-05 0)
(-4.28712e-06 3.48496e-05 0)
(5.36451e-06 9.86286e-05 0)
(-3.21854e-06 2.05041e-05 0)
(5.05166e-06 7.76566e-05 0)
(-3.60698e-06 2.72875e-05 0)
(-3.95513e-06 3.47803e-05 0)
(-8.79016e-07 1.07238e-05 0)
(1.85801e-06 9.55749e-05 0)
(1.74162e-06 7.47808e-05 0)
(-1.57809e-06 4.65551e-05 0)
(7.41265e-06 5.09047e-05 0)
(-7.4505e-06 4.98391e-05 0)
(4.60115e-06 5.5893e-05 0)
(-6.0201e-07 6.3353e-06 0)
(-4.83842e-06 0.000118679 0)
(-4.79708e-06 0.000119289 0)
(2.29263e-06 0.000138541 0)
(-5.40542e-06 0.000112217 0)
(2.11818e-06 8.02868e-05 0)
(2.28976e-06 0.000101405 0)
(-6.03229e-06 8.97485e-05 0)
(-5.6357e-06 6.93251e-05 0)
(3.01812e-06 1.36105e-05 0)
(-4.87096e-07 0.000119646 0)
(1.80022e-06 2.98726e-06 0)
(-4.94393e-06 0.000112324 0)
(3.55581e-06 1.16434e-05 0)
(-2.30936e-06 3.40483e-05 0)
(-2.1017e-06 2.66153e-05 0)
(-1.87006e-06 1.98982e-05 0)
(2.96241e-06 7.85454e-05 0)
(3.1436e-06 9.95751e-05 0)
(-1.61347e-06 2.06819e-06 0)
(-2.80758e-06 1.311e-05 0)
(5.54314e-06 9.07083e-05 0)
(5.17327e-06 7.02292e-05 0)
(1.20418e-06 9.19603e-05 0)
(-8.23694e-06 0.000111562 0)
(-8.31948e-06 0.00011221 0)
(3.21999e-06 8.39368e-06 0)
(3.22139e-06 8.61913e-06 0)
(3.38674e-06 2.47243e-05 0)
(3.73742e-06 3.19664e-05 0)
(2.99608e-06 1.82168e-05 0)
(-5.1868e-06 8.13817e-05 0)
(-5.4817e-06 0.000102579 0)
(2.15589e-06 7.98034e-05 0)
(2.30303e-06 0.000100909 0)
(2.39473e-06 4.96535e-05 0)
(-1.204e-06 4.64545e-05 0)
(-6.7275e-07 1.07776e-05 0)
(1.39604e-06 9.54517e-05 0)
(1.30749e-06 7.46649e-05 0)
(-1.91603e-06 0.000117106 0)
(-6.97336e-07 2.19757e-05 0)
(-7.78367e-07 2.89333e-05 0)
(-7.09441e-06 0.000125052 0)
(-2.26401e-07 5.22448e-06 0)
(-6.94936e-06 6.05729e-05 0)
(6.02861e-06 4.08323e-05 0)
(7.84264e-08 7.99479e-08 0)
(-4.26595e-06 0.000140418 0)
(8.38869e-06 0.000126991 0)
(-2.81969e-07 1.75021e-07 0)
(5.50836e-06 0.000132929 0)
(6.89459e-06 0.000114121 0)
(7.39836e-06 0.000114212 0)
(-2.65427e-07 0.000136556 0)
(-6.12809e-07 0.000136983 0)
(4.02278e-06 3.98881e-05 0)
(3.54824e-06 4.00582e-05 0)
(-4.74964e-06 6.15635e-05 0)
(-4.19007e-06 6.1357e-05 0)
(3.1701e-07 1.45868e-07 0)
(-8.63579e-07 7.56497e-06 0)
(-9.80369e-07 4.27776e-06 0)
(-2.36128e-08 8.98558e-09 0)
(2.94273e-06 5.03988e-06 0)
(-7.35006e-08 2.3577e-08 0)
(3.73412e-07 4.20371e-06 0)
(-4.83226e-06 0.000135856 0)
(-2.50159e-06 1.84249e-05 0)
(-2.82155e-06 2.49652e-05 0)
(-3.11396e-06 3.22339e-05 0)
(4.35857e-06 0.000102183 0)
(4.13185e-06 8.10176e-05 0)
(2.421e-07 9.5281e-05 0)
(2.23882e-07 7.45033e-05 0)
(-1.51854e-07 1.08528e-05 0)
(-2.78216e-07 4.63219e-05 0)
(-1.0809e-07 1.8013e-08 0)
(3.70635e-07 1.34809e-05 0)
(-7.71309e-07 6.94521e-05 0)
(-2.26573e-06 4.48058e-05 0)
(5.25321e-07 1.32889e-05 0)
(-1.06787e-06 6.98047e-05 0)
(-3.31815e-06 0.000128743 0)
(4.10555e-06 5.00005e-05 0)
(3.82351e-06 4.96329e-05 0)
(2.33286e-08 8.88911e-09 0)
(1.07144e-07 1.78725e-08 0)
(-6.38717e-06 0.000120075 0)
(-6.14646e-06 0.000120569 0)
(-6.21198e-06 4.26322e-05 0)
(6.81629e-06 5.85009e-05 0)
(5.35711e-06 0.000102535 0)
(5.06476e-06 8.13442e-05 0)
(-3.03833e-06 1.82443e-05 0)
(-3.43925e-06 2.47537e-05 0)
(-3.79761e-06 3.19989e-05 0)
(-2.43803e-07 0.000122374 0)
(-2.59893e-06 1.25592e-05 0)
(5.23638e-06 9.1801e-05 0)
(4.89321e-06 7.1249e-05 0)
(3.26946e-06 5.05017e-05 0)
(2.68045e-06 0.000115605 0)
(4.23772e-06 0.000143305 0)
(4.80935e-07 4.14403e-06 0)
(-1.67771e-06 4.03456e-05 0)
(-1.04542e-08 1.56649e-06 0)
(7.27475e-08 2.33592e-08 0)
(1.54038e-06 4.24772e-05 0)
(1.321e-06 4.20519e-05 0)
(-1.72833e-06 5.86088e-05 0)
(-1.48638e-06 5.90237e-05 0)
(3.04681e-06 3.22225e-05 0)
(2.76286e-06 2.49549e-05 0)
(2.44694e-06 1.84189e-05 0)
(-4.2294e-06 8.10181e-05 0)
(-4.47097e-06 0.000102197 0)
(-2.3911e-06 0.000140459 0)
(9.08175e-07 1.15981e-06 0)
(-4.24099e-08 8.22294e-05 0)
(-3.07922e-08 1.76654e-05 0)
(3.06827e-06 0.000135652 0)
(2.56304e-06 4.93091e-05 0)
(-9.9236e-06 0.000134084 0)
(2.94708e-06 5.08513e-05 0)
(1.31226e-07 1.00869e-07 0)
(8.08086e-06 0.000110224 0)
(8.12813e-06 0.000109625 0)
(-5.05578e-06 7.13373e-05 0)
(-5.40867e-06 9.18898e-05 0)
(-4.5215e-06 7.11652e-05 0)
(-4.83799e-06 9.17068e-05 0)
(2.58438e-06 1.25128e-05 0)
(2.31432e-06 1.2594e-05 0)
(2.4056e-06 6.57554e-05 0)
(2.86931e-06 6.56819e-05 0)
(2.58913e-06 8.591e-05 0)
(3.08942e-06 8.58302e-05 0)
(-1.45928e-06 1.56001e-05 0)
(-1.73406e-06 1.56489e-05 0)
(-3.22607e-07 7.18032e-06 0)
(1.56791e-06 4.62951e-06 0)
(1.46825e-06 4.47334e-06 0)
(1.50903e-06 3.40657e-06 0)
(2.2849e-06 0.000116087 0)
(-8.10555e-06 0.000110424 0)
(-8.14899e-06 0.000109801 0)
(3.31481e-06 9.34707e-06 0)
(3.2522e-06 9.08792e-06 0)
(6.49808e-06 5.09171e-05 0)
(6.58307e-06 5.14646e-05 0)
(-6.53605e-06 4.9803e-05 0)
(-6.5732e-06 4.92637e-05 0)
(2.83934e-06 0.000138451 0)
(-7.95794e-06 0.000140212 0)
(-7.64751e-06 0.000118581 0)
(2.02126e-06 2.36564e-06 0)
(-4.69194e-06 0.000138495 0)
(-4.19455e-06 0.000138032 0)
(1.94866e-06 6.64768e-05 0)
(-1.27852e-06 6.00047e-05 0)
(1.08244e-06 4.1219e-05 0)
(-5.6049e-06 5.11019e-05 0)
(5.42019e-06 4.95747e-05 0)
(-2.8474e-06 9.19295e-06 0)
(-8.803e-08 5.77851e-08 0)
(4.54356e-07 1.96075e-06 0)
(4.64584e-07 4.38699e-05 0)
(-4.75223e-06 4.41648e-05 0)
(4.98181e-06 5.67011e-05 0)
(-2.76189e-06 4.03604e-05 0)
(3.14404e-06 6.10114e-05 0)
(1.54619e-06 0.00010408 0)
(2.14995e-06 0.000103863 0)
(-1.01804e-06 2.37486e-05 0)
(-1.39471e-06 2.38865e-05 0)
(-1.12865e-06 3.08965e-05 0)
(-1.5451e-06 3.10482e-05 0)
(2.52632e-07 1.23065e-05 0)
(-5.80496e-07 7.16404e-05 0)
(-5.84088e-07 9.22313e-05 0)
(-9.22273e-07 0.000133452 0)
(1.37912e-06 3.38579e-06 0)
(-2.90417e-07 5.85262e-05 0)
(-3.80132e-06 0.000136714 0)
(5.8657e-07 4.91785e-07 0)
(3.32968e-06 8.26077e-05 0)
(-1.97273e-06 1.74764e-05 0)
(-5.80626e-06 5.91188e-05 0)
(-5.45652e-06 5.88362e-05 0)
(5.07911e-06 4.20567e-05 0)
(4.78417e-06 4.23025e-05 0)
(-5.67136e-06 0.000142425 0)
(-5.73322e-06 0.000141828 0)
(-1.03561e-06 7.22359e-06 0)
(-1.2257e-06 7.19666e-06 0)
(4.97602e-07 2.05299e-06 0)
(-1.2027e-06 2.12802e-06 0)
(2.28248e-07 6.12962e-05 0)
(1.74567e-06 1.27362e-05 0)
(1.46442e-06 1.28156e-05 0)
(-3.41261e-06 7.08664e-05 0)
(-2.86812e-06 7.07055e-05 0)
(-3.65164e-06 9.13916e-05 0)
(-3.06907e-06 9.12204e-05 0)
(-7.3401e-06 0.000114872 0)
(-6.79548e-06 0.000114916 0)
(-1.69306e-06 3.62724e-05 0)
(-1.58061e-06 2.86412e-05 0)
(-1.41611e-06 2.17137e-05 0)
(2.26318e-06 0.000107416 0)
(-4.42954e-07 0.000121218 0)
(4.87268e-06 4.95298e-05 0)
(4.60969e-06 4.99432e-05 0)
(2.09023e-06 9.33738e-05 0)
(2.01059e-06 7.2692e-05 0)
(-1.05896e-06 1.17694e-05 0)
(9.56593e-07 1.31355e-05 0)
(7.82874e-07 1.3384e-05 0)
(-1.70056e-06 9.01091e-05 0)
(-2.01494e-06 9.05571e-05 0)
(-1.88111e-06 7.0095e-05 0)
(-1.54104e-06 6.96344e-05 0)
(-2.08723e-06 1.20702e-05 0)
(3.99674e-06 7.21535e-05 0)
(4.27262e-06 9.27699e-05 0)
(-6.18058e-08 5.95032e-07 0)
(7.22451e-06 5.62213e-05 0)
(-6.77606e-06 4.4729e-05 0)
(-3.58344e-08 5.54405e-07 0)
(-2.19555e-06 0.000102516 0)
(-2.56759e-06 0.000103062 0)
(-2.02638e-06 8.13647e-05 0)
(-2.36564e-06 8.18833e-05 0)
(1.32328e-06 1.78893e-05 0)
(1.13559e-06 1.81936e-05 0)
(1.54248e-06 2.43906e-05 0)
(1.3188e-06 2.4733e-05 0)
(1.70356e-06 3.16041e-05 0)
(1.45481e-06 3.19816e-05 0)
(7.99963e-06 0.000115084 0)
(8.1493e-06 0.000115652 0)
(-8.52238e-07 4.31217e-06 0)
(2.98953e-06 8.30038e-05 0)
(-1.76456e-06 1.72428e-05 0)
(2.83646e-06 1.37248e-05 0)
(-5.27867e-06 6.91045e-05 0)
(-5.66319e-06 8.94995e-05 0)
(-8.57184e-08 2.62557e-08 0)
(9.96844e-07 0.000119799 0)
(2.80555e-06 1.31111e-05 0)
(-5.34896e-06 7.02277e-05 0)
(-5.73567e-06 9.06854e-05 0)
(2.20886e-06 3.94064e-06 0)
(-4.01736e-06 0.000129569 0)
(2.71354e-06 1.05285e-05 0)
(-6.31635e-06 0.000106969 0)
(-1.49495e-06 5.75086e-06 0)
(-1.5932e-06 5.95666e-06 0)
(1.53995e-06 5.89505e-06 0)
(-7.28138e-07 5.8439e-05 0)
(-6.04741e-09 -4.44645e-09 0)
(-4.26326e-06 0.000141662 0)
(-7.67989e-08 3.09497e-08 0)
(8.48076e-08 2.60043e-08 0)
(-2.13912e-06 1.27145e-05 0)
(4.26523e-06 9.14579e-05 0)
(3.98381e-06 7.09267e-05 0)
(3.26346e-06 0.000119983 0)
(-9.55499e-06 0.00012849 0)
(1.20317e-06 5.4839e-05 0)
(-8.38139e-07 5.34602e-05 0)
(-2.49797e-07 6.01262e-06 0)
(-6.93607e-07 7.5673e-07 0)
(-4.36422e-09 -3.9274e-09 0)
(-2.48025e-06 4.0723e-05 0)
(2.8151e-06 6.06008e-05 0)
(2.36951e-07 8.39247e-08 0)
(-3.60425e-07 5.27031e-05 0)
(-3.4222e-07 5.22134e-05 0)
(-4.4747e-08 4.45423e-05 0)
(-7.91213e-08 1.19157e-05 0)
(6.57346e-08 7.23914e-05 0)
(5.38903e-08 9.30966e-05 0)
(-2.39735e-07 8.48715e-08 0)
(9.23935e-07 6.49049e-06 0)
(-3.32609e-06 0.00010528 0)
(1.96175e-06 2.30186e-05 0)
(2.17642e-06 3.00879e-05 0)
(2.36678e-06 3.7837e-05 0)
(6.85211e-06 0.000136105 0)
(-2.77662e-06 1.14077e-05 0)
(5.88299e-06 9.42154e-05 0)
(5.51297e-06 7.35105e-05 0)
(-3.95615e-06 0.000125802 0)
(6.39017e-07 1.7179e-06 0)
(5.2262e-06 0.000123528 0)
(-1.28439e-06 2.09621e-06 0)
(3.64812e-06 0.000136634 0)
(-2.87305e-06 0.000105291 0)
(1.68528e-06 2.30094e-05 0)
(1.86968e-06 3.00783e-05 0)
(2.03439e-06 3.78245e-05 0)
(5.57886e-07 1.62994e-06 0)
(2.4021e-06 8.50309e-05 0)
(-1.37898e-06 1.60854e-05 0)
(-4.85493e-07 6.46525e-06 0)
(-6.96569e-06 0.000123954 0)
(-2.70844e-06 3.41693e-05 0)
(-2.46584e-06 2.67265e-05 0)
(-2.1952e-06 1.99985e-05 0)
(3.4647e-06 7.84216e-05 0)
(3.67667e-06 9.94432e-05 0)
(9.46531e-06 0.000144057 0)
(5.48813e-06 0.000126819 0)
(6.08997e-06 0.000126607 0)
(8.87543e-08 6.47606e-08 0)
(3.51536e-06 4.05026e-05 0)
(-4.12564e-06 6.08378e-05 0)
(-1.8414e-06 4.10605e-05 0)
(2.0386e-06 6.02293e-05 0)
(-6.37044e-07 6.46904e-05 0)
(-4.9006e-07 0.000103164 0)
(2.67176e-07 3.15263e-05 0)
(2.42749e-07 2.4319e-05 0)
(-5.66023e-09 1.73124e-05 0)
(-1.38439e-07 6.29336e-05 0)
(-8.51792e-08 8.28571e-05 0)
(4.3049e-06 0.000143866 0)
(2.5979e-07 6.65403e-06 0)
(-1.26377e-07 1.5892e-06 0)
(7.9487e-07 8.77766e-05 0)
(4.18814e-08 1.64229e-06 0)
(-7.24713e-07 5.00521e-06 0)
(1.70432e-06 1.72702e-05 0)
(-3.09437e-06 8.29515e-05 0)
(-7.0221e-08 8.21813e-08 0)
(-6.45511e-06 0.000123897 0)
(-5.97349e-07 1.16942e-05 0)
(1.10031e-06 9.35765e-05 0)
(1.09835e-06 7.28281e-05 0)
(1.66755e-07 4.01799e-08 0)
(-2.13448e-06 4.00618e-06 0)
(2.16407e-06 3.08058e-05 0)
(1.95477e-06 2.36679e-05 0)
(-3.27159e-06 0.000104226 0)
(6.07444e-07 4.22769e-05 0)
(-4.38258e-06 0.00013988 0)
(-8.43022e-08 1.18487e-08 0)
(-2.76742e-06 6.20281e-06 0)
(1.79886e-06 3.46151e-06 0)
(-1.84768e-06 2.0921e-06 0)
(4.90196e-06 5.04012e-05 0)
(3.68854e-06 6.08495e-05 0)
(-3.28991e-06 4.049e-05 0)
(2.20855e-07 1.7141e-05 0)
(-5.71123e-07 6.31629e-05 0)
(-4.82543e-07 8.31543e-05 0)
(4.56571e-06 0.000122162 0)
(4.33566e-06 5.50104e-05 0)
(2.18945e-06 0.000140935 0)
(2.10757e-06 0.000141448 0)
(5.94813e-07 6.05779e-05 0)
(8.42694e-07 4.19723e-05 0)
(8.35595e-08 1.1758e-08 0)
(-6.23981e-06 0.000111083 0)
(2.4536e-06 8.77995e-06 0)
(8.22949e-09 1.32576e-07 0)
(1.15199e-06 8.02488e-05 0)
(1.51777e-06 8.05166e-05 0)
(2.39487e-09 1.18536e-08 0)
(-1.33372e-06 3.35453e-06 0)
(3.03933e-06 3.13006e-05 0)
(2.74912e-06 2.41182e-05 0)
(2.42755e-06 1.76505e-05 0)
(-4.28159e-06 8.22342e-05 0)
(-4.52057e-06 0.000103524 0)
(3.94601e-06 5.24572e-05 0)
(5.23857e-07 0.000119924 0)
(-2.56945e-06 0.000134808 0)
(-2.43514e-06 0.000135501 0)
(-2.85989e-07 0.000104782 0)
(-2.51596e-07 0.000105339 0)
(1.56603e-07 2.2961e-05 0)
(1.40184e-07 2.32891e-05 0)
(1.72648e-07 3.00262e-05 0)
(1.54263e-07 3.03894e-05 0)
(9.81765e-08 3.7769e-05 0)
(1.2372e-07 3.81527e-05 0)
(2.7311e-07 6.07723e-05 0)
(5.3332e-07 6.17092e-05 0)
(9.423e-07 9.25256e-05 0)
(-2.91344e-07 6.4538e-05 0)
(-1.6827e-07 4.05195e-08 0)
(-1.88291e-07 1.51703e-06 0)
(2.11128e-06 8.45961e-05 0)
(-1.2276e-06 1.63271e-05 0)
(6.33351e-07 2.09101e-06 0)
(8.32756e-06 0.000136758 0)
(-6.80942e-07 0.000105784 0)
(3.9379e-07 2.27112e-05 0)
(4.36361e-07 2.97495e-05 0)
(4.21028e-07 3.74516e-05 0)
(-6.44137e-06 0.000115448 0)
(2.23524e-06 4.2934e-05 0)
(3.21932e-06 0.000144958 0)
(3.64656e-06 0.000144643 0)
(-7.20084e-07 5.15718e-06 0)
(-4.49486e-07 8.1814e-05 0)
(2.0643e-07 1.79094e-05 0)
(1.0875e-07 1.18364e-07 0)
(8.1712e-06 0.000140522 0)
(-1.33568e-07 2.6491e-06 0)
(-1.65561e-06 2.56617e-05 0)
(-1.82421e-06 3.30027e-05 0)
(-2.17584e-06 3.33359e-05 0)
(-1.97666e-06 2.59656e-05 0)
(-1.45082e-06 1.90392e-05 0)
(-1.7495e-06 1.93176e-05 0)
(2.69167e-06 7.9489e-05 0)
(2.85489e-06 0.000100579 0)
(1.33189e-06 1.89747e-06 0)
(-8.80654e-08 5.52091e-08 0)
(-7.14285e-06 9.61311e-05 0)
(-7.43158e-06 0.000140243 0)
(2.40489e-06 6.16622e-05 0)
(-2.39732e-07 2.70944e-06 0)
(-3.89744e-06 7.93498e-05 0)
(-4.12674e-06 0.000100428 0)
(2.31235e-06 1.94289e-05 0)
(2.59943e-06 2.60886e-05 0)
(2.85737e-06 3.34687e-05 0)
(3.51048e-06 0.00012037 0)
(8.03404e-06 0.00014101 0)
(-4.48271e-06 5.08374e-05 0)
(1.89953e-06 1.74711e-05 0)
(-3.42702e-06 8.26045e-05 0)
(2.29875e-06 6.21228e-05 0)
(-9.35266e-07 4.48766e-05 0)
(2.39883e-06 3.1058e-05 0)
(2.16836e-06 2.38968e-05 0)
(-3.60192e-06 0.000103863 0)
(-6.64504e-06 5.13953e-05 0)
(6.41862e-06 4.93601e-05 0)
(6.41529e-06 4.98885e-05 0)
(-6.56111e-06 5.08348e-05 0)
(-3.29015e-06 9.08467e-06 0)
(-3.38347e-06 9.35938e-06 0)
(-3.10486e-06 4.98865e-05 0)
(-1.73955e-06 2.14206e-06 0)
(-4.99965e-06 5.0252e-05 0)
(-7.5442e-07 0.000116096 0)
(-7.17258e-07 8.96438e-07 0)
(5.07591e-06 2.99297e-05 0)
(4.57365e-06 2.28851e-05 0)
(-6.96857e-06 7.40433e-05 0)
(1.12999e-06 3.10783e-05 0)
(1.02197e-06 2.39133e-05 0)
(-1.75029e-06 0.000103817 0)
(2.50035e-06 7.86684e-06 0)
(3.81789e-06 6.0376e-05 0)
(-3.42365e-06 4.09075e-05 0)
(-2.05109e-06 2.37906e-06 0)
(1.91515e-06 9.2883e-05 0)
(1.84107e-06 7.22508e-05 0)
(-9.83393e-07 1.19951e-05 0)
(5.63559e-06 8.7887e-05 0)
(-3.00928e-06 1.45728e-05 0)
(5.24133e-06 6.76012e-05 0)
(-3.48177e-06 8.96633e-06 0)
(3.94261e-06 0.000135072 0)
(4.52844e-06 0.00013488 0)
(4.36642e-06 0.000103525 0)
(4.15456e-06 8.22425e-05 0)
(-2.46373e-06 1.77005e-05 0)
(-2.78047e-06 2.41174e-05 0)
(-3.07654e-06 3.12996e-05 0)
(-7.56739e-07 7.78034e-07 0)
(-3.5451e-06 0.000125677 0)
(3.8002e-06 8.13647e-05 0)
(-2.28922e-06 1.82148e-05 0)
(-4.60503e-07 6.0137e-07 0)
(3.22111e-06 0.000136547 0)
(9.08586e-07 7.79757e-07 0)
(7.55008e-07 5.92744e-07 0)
(1.87823e-06 2.78214e-06 0)
(3.90632e-06 0.000110431 0)
(-6.72983e-06 0.000113377 0)
(8.85879e-06 0.000136928 0)
(1.90018e-06 2.92179e-06 0)
(3.94456e-06 5.49947e-05 0)
(5.31427e-06 0.000116881 0)
(-8.65536e-06 0.00011071 0)
(3.4559e-06 8.98372e-06 0)
(-2.02174e-06 0.000117594 0)
(8.10238e-07 3.11714e-05 0)
(7.33286e-07 2.39974e-05 0)
(-1.28246e-06 0.00010368 0)
(-3.42431e-07 1.69541e-06 0)
(2.2731e-06 6.49202e-05 0)
(7.54948e-08 3.04667e-08 0)
(-2.92663e-06 6.14367e-06 0)
(-5.11309e-07 5.37792e-05 0)
(-1.29697e-06 1.09869e-05 0)
(-1.50656e-06 1.10571e-05 0)
(2.57769e-06 7.42601e-05 0)
(2.9989e-06 7.41272e-05 0)
(3.19921e-06 9.48773e-05 0)
(2.74994e-06 9.50194e-05 0)
(8.67845e-08 3.52332e-07 0)
(-3.16205e-08 4.18566e-06 0)
(-4.75976e-06 6.69983e-05 0)
(-5.12099e-06 8.72392e-05 0)
(2.66922e-06 1.49063e-05 0)
(-1.62223e-06 9.00757e-06 0)
(-9.18338e-07 8.96108e-05 0)
(-1.49571e-06 3.93965e-06 0)
(2.68705e-06 0.000135283 0)
(-2.29518e-06 4.60972e-05 0)
(-2.65392e-06 4.59855e-05 0)
(8.68281e-08 9.37648e-08 0)
(-1.53098e-06 4.76119e-05 0)
(-8.22982e-07 1.01318e-05 0)
(1.67608e-06 7.6009e-05 0)
(1.78546e-06 9.68824e-05 0)
(-2.09297e-06 8.96244e-05 0)
(-1.85823e-06 6.91873e-05 0)
(9.63004e-07 1.36314e-05 0)
(1.33107e-06 5.25102e-06 0)
(1.23663e-06 5.06502e-06 0)
(5.65524e-07 4.59684e-05 0)
(-8.03491e-07 9.48433e-05 0)
(-7.59667e-07 7.40837e-05 0)
(3.26523e-07 1.10605e-05 0)
(-7.68928e-07 1.87475e-05 0)
(-1.40819e-06 4.04739e-06 0)
(5.04417e-06 0.000138382 0)
(-5.02784e-06 8.41001e-05 0)
(3.91349e-06 4.07513e-05 0)
(-4.56603e-06 6.05622e-05 0)
(5.37975e-06 0.000117393 0)
(-5.19565e-06 3.7579e-05 0)
(-4.78069e-06 2.98473e-05 0)
(6.13306e-06 6.43052e-05 0)
(-4.30343e-06 2.28104e-05 0)
(-3.77156e-06 1.65305e-05 0)
(6.64231e-06 8.43532e-05 0)
(6.99705e-06 0.00010572 0)
(-1.8687e-06 0.000101311 0)
(-1.76828e-06 8.01812e-05 0)
(1.12927e-06 2.55012e-05 0)
(1.00341e-06 1.89027e-05 0)
(1.24267e-06 3.28268e-05 0)
(1.07795e-06 2.58549e-05 0)
(-1.77689e-06 0.000100762 0)
(1.18489e-06 3.32154e-05 0)
(9.59165e-07 1.92175e-05 0)
(-1.68061e-06 7.96628e-05 0)
(-1.00967e-06 0.000127598 0)
(-2.20754e-06 2.9811e-06 0)
(-2.30927e-06 1.35049e-05 0)
(4.47289e-06 8.98969e-05 0)
(4.17023e-06 6.94703e-05 0)
(-1.44563e-06 1.80275e-05 0)
(2.39567e-06 8.16653e-05 0)
(6.64372e-06 0.000100414 0)
(6.26862e-06 7.93426e-05 0)
(-3.875e-06 1.94774e-05 0)
(-4.36054e-06 2.61351e-05 0)
(-4.79529e-06 3.35143e-05 0)
(6.99646e-06 0.000109289 0)
(7.64056e-06 0.000109154 0)
(1.83751e-07 3.58431e-06 0)
(-7.60792e-07 5.29336e-05 0)
(-2.10633e-06 5.99538e-06 0)
(1.09899e-07 2.20822e-07 0)
(-2.06246e-06 7.57113e-06 0)
(-3.43253e-07 0.000116321 0)
(7.8323e-08 3.4337e-06 0)
(-1.60844e-06 5.65705e-05 0)
(6.38834e-06 7.40854e-05 0)
(-3.16916e-06 1.11441e-05 0)
(6.81215e-06 9.48264e-05 0)
(-7.41132e-09 -5.13091e-09 0)
(3.86922e-07 8.78575e-05 0)
(1.39777e-07 5.98201e-08 0)
(9.52174e-08 7.34018e-08 0)
(1.10843e-06 6.39197e-05 0)
(-1.60688e-07 1.3619e-07 0)
(5.15611e-06 0.000139392 0)
(3.50501e-07 8.04945e-05 0)
(-2.43388e-07 1.86923e-05 0)
(1.23406e-06 7.70468e-06 0)
(6.79779e-07 8.02535e-05 0)
(-4.51716e-07 1.88246e-05 0)
(-8.27772e-08 1.76432e-06 0)
(-5.13151e-06 2.99174e-05 0)
(-4.62047e-06 2.28752e-05 0)
(-4.05009e-06 1.6592e-05 0)
(-3.41356e-06 1.11696e-05 0)
(6.8802e-06 7.40579e-05 0)
(7.12707e-06 8.42639e-05 0)
(7.33673e-06 9.47957e-05 0)
(7.51034e-06 0.000105627 0)
(-3.38464e-06 0.000113702 0)
(-3.01366e-06 0.000134552 0)
(-9.64188e-06 0.000111688 0)
(3.77794e-06 8.6112e-06 0)
(2.1457e-06 0.00014245 0)
(2.50317e-06 0.000141849 0)
(6.45521e-07 7.85419e-05 0)
(6.99359e-07 9.95833e-05 0)
(-5.77623e-07 3.40867e-05 0)
(-5.24762e-07 2.66487e-05 0)
(-4.6582e-07 1.99258e-05 0)
(-3.02216e-06 8.9911e-06 0)
(1.09111e-06 6.5028e-06 0)
(-3.89126e-06 3.56465e-05 0)
(4.90886e-06 7.65207e-05 0)
(-3.55571e-06 2.80798e-05 0)
(-3.18163e-06 2.12144e-05 0)
(5.21994e-06 9.74222e-05 0)
(-2.29223e-06 9.93993e-06 0)
(5.2801e-06 0.000108337 0)
(8.78386e-07 5.07842e-05 0)
(-6.03982e-07 0.000120625 0)
(6.32307e-07 3.22517e-07 0)
(-4.51052e-07 0.000106326 0)
(2.53073e-07 2.23839e-05 0)
(2.80229e-07 2.93867e-05 0)
(2.51427e-07 3.70563e-05 0)
(1.61974e-06 0.00012485 0)
(-2.62438e-07 1.72689e-07 0)
(8.39883e-06 0.000122904 0)
(-1.32968e-06 5.3705e-05 0)
(-4.47839e-08 1.0228e-07 0)
(3.00144e-06 7.53751e-05 0)
(-1.46376e-06 1.04469e-05 0)
(3.19711e-06 9.62066e-05 0)
(7.59879e-08 6.20885e-08 0)
(-1.95084e-06 1.25403e-05 0)
(3.65257e-06 7.12453e-05 0)
(3.90923e-06 9.17994e-05 0)
(7.00196e-07 9.64509e-07 0)
(-2.67003e-06 4.70751e-05 0)
(5.19163e-07 5.02056e-05 0)
(-5.8913e-06 0.000131126 0)
(5.01889e-07 7.89538e-05 0)
(5.34512e-07 0.00010001 0)
(-4.92764e-07 3.37706e-05 0)
(-3.9545e-07 1.96695e-05 0)
(-4.47132e-07 2.63603e-05 0)
(8.4931e-07 5.11452e-05 0)
(-1.41245e-07 5.58011e-07 0)
(-1.27388e-07 1.85491e-06 0)
(2.11455e-07 0.000116137 0)
(5.82496e-06 5.48367e-05 0)
(-5.57663e-06 4.59858e-05 0)
(-4.14928e-06 0.000146345 0)
(-9.37403e-06 9.67727e-05 0)
(-8.81187e-06 7.59193e-05 0)
(-9.11559e-06 8.6184e-05 0)
(-8.46134e-06 6.60289e-05 0)
(4.89661e-06 1.55685e-05 0)
(5.61499e-06 2.16965e-05 0)
(6.25687e-06 2.86031e-05 0)
(6.8334e-06 3.6205e-05 0)
(9.27133e-06 9.67722e-05 0)
(9.01492e-06 8.61837e-05 0)
(-4.94619e-06 1.55717e-05 0)
(-5.67491e-06 2.17008e-05 0)
(8.71388e-06 7.59192e-05 0)
(-6.32699e-06 2.86061e-05 0)
(8.36758e-06 6.60278e-05 0)
(-6.91146e-06 3.62087e-05 0)
(-2.91119e-06 8.74632e-06 0)
(-1.48949e-06 0.000120375 0)
(-1.07546e-06 0.000120263 0)
(-1.32609e-06 0.000135894 0)
(2.09369e-06 8.35906e-05 0)
(-1.23944e-06 1.68981e-05 0)
(-4.67569e-07 7.20214e-07 0)
(-1.70348e-06 0.000143439 0)
(-1.92521e-06 3.2583e-05 0)
(-2.35182e-06 3.24645e-05 0)
(-1.74547e-06 2.528e-05 0)
(-2.13188e-06 2.5173e-05 0)
(2.65269e-06 0.000101832 0)
(3.19457e-06 0.000101878 0)
(7.07489e-06 0.000100162 0)
(6.67373e-06 7.91052e-05 0)
(-4.13867e-06 1.96321e-05 0)
(-4.65382e-06 2.6307e-05 0)
(-5.11516e-06 3.37017e-05 0)
(-4.38921e-06 6.72258e-05 0)
(-4.7208e-06 8.74846e-05 0)
(2.44529e-06 1.47686e-05 0)
(-1.41143e-06 6.04654e-05 0)
(1.14863e-06 4.08192e-05 0)
(1.36136e-06 0.000104623 0)
(-8.93703e-07 2.33764e-05 0)
(-9.92191e-07 3.04853e-05 0)
(-1.0655e-06 3.81923e-05 0)
(2.7063e-06 4.035e-05 0)
(2.2876e-06 4.04496e-05 0)
(-3.20479e-06 6.09972e-05 0)
(-2.7199e-06 6.08771e-05 0)
(-3.18825e-06 0.00014239 0)
(2.373e-07 6.9252e-07 0)
(5.18137e-06 0.000123035 0)
(1.89827e-06 4.46397e-05 0)
(5.10073e-06 8.60984e-05 0)
(-2.81777e-06 1.55282e-05 0)
(4.73281e-06 6.59377e-05 0)
(-4.51444e-06 5.31499e-05 0)
(1.13745e-06 1.18495e-05 0)
(-2.49583e-06 9.31815e-05 0)
(-2.33941e-06 7.25388e-05 0)
(2.76256e-07 4.63765e-05 0)
(-4.22484e-07 7.45592e-05 0)
(-4.44621e-07 9.53483e-05 0)
(1.59973e-07 1.08251e-05 0)
(3.01072e-06 4.21606e-05 0)
(-3.46592e-06 5.89378e-05 0)
(-1.66104e-06 0.000127596 0)
(-7.52507e-06 0.000126409 0)
(1.32186e-06 5.63251e-05 0)
(3.37804e-06 5.64938e-05 0)
(-2.97153e-06 1.15219e-05 0)
(6.27142e-06 9.39901e-05 0)
(5.87558e-06 7.33002e-05 0)
(-3.45769e-07 1.51083e-06 0)
(-1.05581e-06 0.000107042 0)
(5.71888e-07 2.19488e-05 0)
(6.35874e-07 2.89037e-05 0)
(6.87598e-07 3.65352e-05 0)
(-1.61433e-06 5.34526e-05 0)
(-6.97853e-06 0.00012645 0)
(-2.14065e-06 2.19739e-05 0)
(-2.3862e-06 2.89285e-05 0)
(-2.59788e-06 3.65766e-05 0)
(3.49272e-06 0.000107005 0)
(7.38852e-09 1.0376e-08 0)
(4.39656e-06 5.27402e-05 0)
(5.19516e-08 4.45565e-06 0)
(-2.3741e-07 4.34062e-07 0)
(-4.88752e-07 1.94517e-06 0)
(-2.26763e-06 8.06115e-06 0)
(-2.43832e-07 9.07308e-08 0)
(8.75901e-07 2.47084e-05 0)
(7.79923e-07 1.8186e-05 0)
(9.65886e-07 3.19551e-05 0)
(-1.4925e-06 0.00010255 0)
(-1.42134e-06 8.1372e-05 0)
(-4.37753e-06 4.40737e-05 0)
(4.61832e-06 5.68194e-05 0)
(-4.81501e-07 2.93224e-07 0)
(5.51225e-06 0.000135117 0)
(3.96242e-06 0.000121232 0)
(-8.58412e-06 0.00011431 0)
(3.18006e-06 5.60743e-05 0)
(1.11773e-06 6.07115e-05 0)
(-2.19576e-06 0.000143376 0)
(-6.09776e-06 6.34875e-05 0)
(-5.80285e-06 6.32184e-05 0)
(8.38859e-06 0.000143335 0)
(-7.2092e-07 0.000128216 0)
(-1.98734e-06 4.06606e-05 0)
(2.26827e-06 6.06996e-05 0)
(6.65965e-08 4.60831e-06 0)
(1.17624e-06 1.65987e-06 0)
(2.40586e-07 8.95594e-08 0)
(1.99596e-06 6.4513e-05 0)
(7.38701e-06 0.000146212 0)
(-4.11646e-06 0.000102567 0)
(-3.8928e-06 8.13694e-05 0)
(2.23363e-06 1.82051e-05 0)
(2.78869e-06 3.19599e-05 0)
(2.52703e-06 2.47158e-05 0)
(-8.87556e-08 6.44652e-08 0)
(-3.51122e-07 0.000133318 0)
(3.83525e-06 5.66536e-05 0)
(-3.59709e-06 4.42902e-05 0)
(-6.14685e-06 0.000130166 0)
(-9.16918e-06 9.72517e-05 0)
(-8.91806e-06 8.66475e-05 0)
(-8.62426e-06 7.63681e-05 0)
(-8.28345e-06 6.64605e-05 0)
(4.74954e-06 1.53097e-05 0)
(5.45496e-06 2.14015e-05 0)
(6.08523e-06 2.82757e-05 0)
(6.65127e-06 3.58484e-05 0)
(9.06563e-06 9.7249e-05 0)
(8.81732e-06 8.66471e-05 0)
(-4.79841e-06 1.53139e-05 0)
(-5.5139e-06 2.14065e-05 0)
(8.525e-06 7.63668e-05 0)
(-6.15429e-06 2.82795e-05 0)
(8.18883e-06 6.64575e-05 0)
(-6.72836e-06 3.58531e-05 0)
(-1.5079e-06 2.09113e-06 0)
(5.94386e-07 5.86903e-07 0)
(-7.96745e-07 1.51149e-06 0)
(3.41283e-06 5.56297e-05 0)
(-3.82311e-06 5.72167e-05 0)
(7.54994e-07 9.53789e-07 0)
(-1.19932e-07 2.00716e-08 0)
(-8.25609e-06 0.000114577 0)
(4.6541e-06 0.000144768 0)
(5.22905e-06 0.000145036 0)
(1.18917e-07 1.99242e-08 0)
(1.68847e-06 2.33816e-06 0)
(7.31659e-06 0.000132082 0)
(-2.87463e-06 6.30059e-05 0)
(-2.11644e-07 1.94529e-07 0)
(-4.75521e-07 7.70166e-07 0)
(-7.50477e-08 1.9295e-08 0)
(1.39055e-07 1.1347e-07 0)
(7.74065e-06 5.0658e-05 0)
(-7.80357e-06 5.00962e-05 0)
(2.37719e-06 3.86335e-05 0)
(-2.94701e-06 6.1899e-05 0)
(2.46665e-06 3.95863e-05 0)
(-1.47795e-07 2.49685e-06 0)
(-1.81004e-06 9.72347e-05 0)
(1.39419e-06 4.79141e-05 0)
(-1.02847e-06 9.62148e-05 0)
(-9.90846e-07 7.53287e-05 0)
(4.26081e-07 1.0453e-05 0)
(7.50042e-07 4.70794e-05 0)
(-3.20181e-06 6.26974e-05 0)
(1.79859e-06 2.47418e-06 0)
(2.66604e-06 3.89134e-05 0)
(9.48753e-07 5.6408e-05 0)
(7.35281e-06 0.000136293 0)
(-2.33015e-06 5.68545e-05 0)
(-2.67297e-06 5.72254e-05 0)
(-2.34623e-06 5.16321e-06 0)
(-2.59117e-06 5.89704e-05 0)
(-2.222e-06 5.85778e-05 0)
(2.26746e-06 4.20948e-05 0)
(1.98635e-06 4.24936e-05 0)
(-2.57261e-06 1.22832e-05 0)
(4.90131e-06 7.17749e-05 0)
(5.24161e-06 9.23634e-05 0)
(-7.45111e-07 8.63511e-07 0)
(-3.20849e-06 6.22146e-05 0)
(2.68348e-06 3.93305e-05 0)
(-2.045e-06 7.92688e-05 0)
(-2.16399e-06 0.000100344 0)
(1.1876e-06 1.9461e-05 0)
(1.46547e-06 3.35142e-05 0)
(1.33397e-06 2.61274e-05 0)
(-1.15995e-06 5.57018e-06 0)
(-6.60235e-06 8.3427e-05 0)
(-6.25908e-06 8.31735e-05 0)
(3.68513e-06 1.70485e-05 0)
(3.50286e-06 1.71924e-05 0)
(4.31077e-06 6.68103e-05 0)
(4.74429e-06 6.64938e-05 0)
(-2.52463e-06 1.50096e-05 0)
(-2.79235e-06 1.52017e-05 0)
(4.6404e-06 8.70385e-05 0)
(5.10916e-06 8.6697e-05 0)
(-1.92455e-06 0.000127141 0)
(3.70101e-06 0.000116394 0)
(3.75507e-06 0.000115867 0)
(-2.90122e-06 3.95903e-05 0)
(3.2629e-06 6.18842e-05 0)
(-9.88618e-06 0.000141277 0)
(-2.87593e-06 0.000113387 0)
(-2.76367e-06 0.000112872 0)
(1.02364e-06 8.01936e-06 0)
(1.05343e-06 7.82024e-06 0)
(8.4458e-06 0.000114607 0)
(-3.87716e-06 5.02965e-05 0)
(-3.3338e-06 5.03139e-05 0)
(8.35385e-06 0.000128964 0)
(-8.5411e-06 0.000135769 0)
(-8.53024e-06 0.000136399 0)
(-2.98677e-07 1.5622e-06 0)