/*--------------------------------*- C++ -*----------------------------------*\
| =========                 |                                                 |
| \\      /  F ield         | OpenFOAM: The Open Source CFD Toolbox           |
|  \\    /   O peration     | Version:  2.3.1                                 |
|   \\  /    A nd           | Web:      www.OpenFOAM.org                      |
|    \\/     M anipulation  |                                                 |
\*---------------------------------------------------------------------------*/
FoamFile
{
    version     2.0;
    format      ascii;
    class       volScalarField;
    location    "0.92";
    object      k;
}
// * * * * * * * * * * * * * * * * * * * * * * * * * * * * * * * * * * * * * //

dimensions      [0 2 -2 0 0 0 0];

internalField   nonuniform List<scalar> 
9648
(
2.71052
2.71978
2.71927
2.71615
2.70947
2.69838
2.68354
2.66484
2.64214
2.61541
2.58471
2.55028
2.51255
2.47206
2.42946
2.38548
2.34084
2.29624
2.25228
2.2095
2.16831
2.12906
2.09198
2.05723
2.0249
1.99502
1.96759
1.94258
1.91992
1.89953
1.88133
1.86524
1.85116
1.839
1.82867
1.82009
1.81318
1.80788
1.80409
1.80178
1.80089
1.80138
1.80321
1.80635
1.81078
1.81649
1.8235
1.83184
1.84152
1.85258
1.86508
1.87904
1.89454
1.91156
1.93012
1.95008
1.97119
1.99293
2.01485
2.03654
2.05764
1.72823
1.73805
1.74493
1.75004
1.75523
1.76346
1.77718
1.7975
1.82454
1.85852
1.89934
1.94654
1.99935
2.05686
2.11813
2.18221
2.24822
2.31537
2.38299
2.45053
2.51756
2.58374
2.64885
2.71273
2.77527
2.83649
2.89642
2.95508
3.01252
3.06884
3.12415
3.17852
3.23203
3.28481
3.33693
3.38843
3.43943
3.49003
3.54022
3.58997
3.63937
3.68854
3.73742
3.78601
3.83439
3.88243
3.93013
3.97762
4.02494
4.07195
4.11857
4.16468
4.21037
4.25526
4.29963
4.3432
4.38619
4.42789
4.46855
4.50823
4.54696
1.40508
1.46321
1.5256
1.59238
1.66516
1.74484
1.83098
1.92348
2.0218
2.12558
2.23386
2.34599
2.46103
2.57798
2.69582
2.81356
2.93035
3.04538
3.15801
3.26773
3.37414
3.47698
3.57609
3.67141
3.76301
3.85098
3.93552
4.01673
4.09484
4.17006
4.24255
4.31257
4.38035
4.446
4.50971
4.57168
4.63201
4.69087
4.74834
4.80451
4.8595
4.91336
4.96621
5.01811
5.06904
5.11899
5.16795
5.21598
5.26295
5.30887
5.35371
5.39753
5.44053
5.48202
5.52293
5.56225
5.60073
5.63729
5.67314
5.70787
5.74154
1.31374
1.41843
1.53244
1.65433
1.78347
1.91948
2.06159
2.20883
2.36005
2.51429
2.67031
2.82712
2.98358
3.13875
3.29158
3.44111
3.5866
3.72739
3.863
3.99307
4.11737
4.23572
4.34817
4.45484
4.55599
4.65188
4.74283
4.82914
4.91114
4.98912
5.0635
5.13457
5.20263
5.26801
5.33088
5.39152
5.45014
5.50691
5.56199
5.61554
5.66768
5.71857
5.76829
5.81697
5.86463
5.91129
5.957
6.00179
6.04558
6.08837
6.13029
6.171
6.21072
6.24927
6.28714
6.3238
6.35929
6.39359
6.42678
6.45889
6.48972
1.33932
1.48266
1.63993
1.80792
1.98445
2.16806
2.35711
2.5498
2.74458
2.93982
3.13409
3.326
3.51452
3.69868
3.87751
4.05
4.21553
4.3737
4.52416
4.66683
4.80159
4.9284
5.04747
5.15905
5.26364
5.36172
5.4537
5.54006
5.62117
5.69749
5.76947
5.83753
5.90214
5.96359
6.02216
6.07819
6.13196
6.18361
6.23336
6.28139
6.32785
6.37291
6.41678
6.45955
6.50126
6.54197
6.5817
6.62049
6.65841
6.69523
6.73114
6.76599
6.79966
6.83219
6.86374
6.89441
6.9239
6.9523
6.97952
7.00544
7.03009
1.42012
1.59694
1.79185
2.00032
2.2186
2.44407
2.67415
2.90647
3.13877
3.36886
3.59508
3.81567
4.0298
4.23637
4.43492
4.62422
4.80367
4.97332
5.13278
5.28243
5.42232
5.5523
5.67299
5.78452
5.88779
5.9835
6.07218
6.15454
6.2308
6.30161
6.3676
6.42907
6.4868
6.54114
6.59225
6.64061
6.68668
6.73045
6.77227
6.81226
6.85051
6.88735
6.923
6.95762
6.99119
7.02383
7.05568
7.0865
7.11653
7.14563
7.17372
7.20076
7.22674
7.25148
7.27523
7.29796
7.31975
7.34053
7.36
7.37796
7.39477
1.5336
1.74062
1.96962
2.21449
2.4699
2.73242
2.99855
3.26533
3.53016
3.78974
4.04272
4.2865
4.52071
4.74415
4.95757
5.15866
5.34711
5.52358
5.68727
5.83937
5.98022
6.10912
6.22758
6.33497
6.433
6.52269
6.60447
6.67969
6.74794
6.81013
6.86727
6.91921
6.96727
7.0119
7.05284
7.09089
7.12693
7.1604
7.19205
7.22191
7.24978
7.27627
7.30165
7.3262
7.34954
7.37204
7.39385
7.41481
7.43517
7.45458
7.47308
7.49049
7.50688
7.52195
7.53577
7.54884
7.56112
7.57245
7.58227
7.59041
7.59739
1.6665
1.90091
2.16098
2.43869
2.72714
3.02182
3.31925
3.61601
3.90873
4.1932
4.46854
4.73053
4.97992
5.21474
5.43877
5.64754
5.84098
6.02089
6.18474
6.33511
6.47341
6.59732
6.71089
6.81058
6.89963
6.9799
7.05138
7.11678
7.17407
7.22483
7.27083
7.31042
7.34613
7.37852
7.40675
7.43198
7.45546
7.47573
7.4948
7.51238
7.52756
7.54122
7.55398
7.56616
7.57691
7.58716
7.59644
7.60512
7.61328
7.6208
7.62734
7.63284
7.63761
7.64062
7.64239
7.64367
7.64378
7.64396
7.64206
7.63788
7.63315
1.80888
2.06539
2.35342
2.65782
2.97661
3.29798
3.62093
3.94508
4.25932
4.56575
4.85842
5.13696
5.39649
5.63804
5.86713
6.08051
6.27603
6.45622
6.62131
6.76682
6.8978
7.01435
7.1191
7.21186
7.28895
7.35574
7.41482
7.46782
7.51113
7.54828
7.58096
7.6075
7.62885
7.64595
7.65836
7.66928
7.67587
7.67996
7.68416
7.68607
7.68579
7.68274
7.68147
7.67874
7.67424
7.67108
7.66392
7.65787
7.64952
7.6413
7.63112
7.62104
7.61155
7.59984
7.587
7.57436
7.55838
7.5468
7.53035
7.51023
7.49171
2.07787
2.09709
2.11544
2.13291
2.14953
2.16545
2.18092
2.19629
2.21159
2.22601
2.23921
2.25186
2.26405
2.276
2.288
2.30066
2.31436
2.3294
2.34612
2.36494
2.38557
2.40758
2.43071
2.45454
2.47877
2.50342
2.52863
2.55411
2.57978
2.60571
2.63201
2.65857
2.68539
2.71264
2.74024
2.76817
2.79654
2.82543
2.85478
2.88452
2.91475
2.94557
2.97696
3.00887
3.04142
3.07445
3.10797
3.14212
3.17694
3.21231
3.24828
3.28493
3.32237
3.36037
3.39927
3.43899
3.47983
3.5215
3.56434
3.60848
3.65399
4.58481
4.6206
4.65548
4.68958
4.72265
4.75425
4.78392
4.81233
4.83849
4.8639
4.88759
4.91026
4.93186
4.95244
4.9719
4.99012
5.0072
5.02311
5.03788
5.05148
5.06398
5.0754
5.08562
5.09471
5.10268
5.1095
5.11504
5.11907
5.12167
5.12282
5.12252
5.12081
5.11774
5.1133
5.10751
5.10047
5.09212
5.08257
5.07177
5.05977
5.04661
5.03232
5.017
5.00059
4.98307
4.96438
4.94443
4.92327
4.90081
4.87712
4.85213
4.8258
4.79827
4.76908
4.73898
4.70735
4.67483
4.64092
4.60668
4.57197
4.53693
5.77356
5.80448
5.83382
5.86225
5.88965
5.91644
5.94136
5.96499
5.98642
6.00657
6.02509
6.04238
6.05827
6.07313
6.08673
6.09899
6.10994
6.11956
6.12784
6.13475
6.14039
6.1447
6.14771
6.14941
6.1498
6.14886
6.14661
6.14302
6.13805
6.13162
6.1238
6.1145
6.10375
6.09161
6.07806
6.06315
6.04686
6.02921
6.0102
5.98989
5.96833
5.94561
5.92179
5.89689
5.87088
5.8437
5.81521
5.78536
5.7541
5.72142
5.68732
5.65153
5.61417
5.5751
5.53453
5.49215
5.4482
5.40293
5.35679
5.30986
5.26228
6.51954
6.54807
6.57533
6.60103
6.62552
6.64881
6.67066
6.69094
6.70956
6.72655
6.74194
6.75577
6.76807
6.7789
6.78816
6.796
6.80239
6.80728
6.81065
6.81252
6.81292
6.81193
6.80956
6.80583
6.8007
6.79411
6.78608
6.77662
6.76577
6.75348
6.7397
6.72438
6.70752
6.68915
6.66932
6.64804
6.62528
6.60101
6.57523
6.54801
6.51948
6.48974
6.45896
6.42722
6.39457
6.36094
6.32613
6.29008
6.25274
6.21411
6.17405
6.13243
6.08924
6.04437
5.99777
5.94928
5.89908
5.84746
5.7949
5.74142
5.68746
7.05345
7.07565
7.09641
7.11559
7.1331
7.14904
7.16341
7.17615
7.18756
7.19762
7.20617
7.21324
7.21884
7.22287
7.22539
7.2265
7.22604
7.22404
7.22041
7.21517
7.20842
7.20029
7.19086
7.18018
7.16817
7.15476
7.13999
7.1239
7.10656
7.088
7.06815
7.04681
7.02399
6.99969
6.97405
6.947
6.91847
6.88843
6.85676
6.82354
6.78894
6.7531
6.71631
6.67879
6.64067
6.60196
6.56231
6.52173
6.48011
6.43758
6.39379
6.34854
6.30192
6.25367
6.20371
6.1516
6.09779
6.04238
5.98607
5.92881
5.87115
7.41025
7.42443
7.43704
7.4482
7.45765
7.46538
7.47153
7.47594
7.47873
7.48001
7.47993
7.47848
7.47556
7.4711
7.4651
7.45774
7.44895
7.43855
7.42639
7.41242
7.39687
7.37996
7.36187
7.34273
7.32236
7.30065
7.27765
7.25342
7.22827
7.2023
7.1755
7.14742
7.1181
7.08742
7.05568
7.02269
6.98826
6.95239
6.91485
6.87564
6.83494
6.79284
6.7498
6.70625
6.66249
6.6188
6.5744
6.52968
6.48426
6.43868
6.39215
6.34419
6.29527
6.24486
6.19301
6.13864
6.08262
6.02476
5.96646
5.90702
5.84729
7.60317
7.60767
7.61064
7.61205
7.61173
7.60967
7.60584
7.60045
7.5934
7.58452
7.57429
7.56292
7.55014
7.53583
7.51989
7.50285
7.48476
7.46504
7.44335
7.41946
7.39379
7.36685
7.33881
7.31007
7.28035
7.2492
7.21675
7.18293
7.14854
7.11395
7.07956
7.04425
7.00833
6.97125
6.93378
6.89537
6.85531
6.81398
6.77108
6.72654
6.68029
6.63222
6.58303
6.5334
6.4838
6.43534
6.38608
6.33753
6.28854
6.24095
6.193
6.14327
6.09322
6.04177
5.98958
5.9339
5.87715
5.81795
5.75953
5.69947
5.63953
7.62702
7.62
7.61133
7.60153
7.59002
7.5771
7.56208
7.54651
7.52943
7.50967
7.48854
7.46692
7.44377
7.41919
7.3923
7.36464
7.3373
7.3086
7.27788
7.24386
7.20723
7.16984
7.1312
7.09207
7.0529
7.01223
6.97012
6.92541
6.8799
6.83494
6.79247
6.74943
6.70736
6.66446
6.62277
6.58104
6.53638
6.48981
6.44254
6.39462
6.34448
6.29159
6.23719
6.182
6.12664
6.07426
6.01993
5.968
5.91539
5.86725
5.82
5.76955
5.71967
5.66851
5.6179
5.5618
5.50589
5.44626
5.38994
5.33115
5.27344
7.46995
7.449
7.42462
7.40146
7.37539
7.35166
7.32355
7.2983
7.2729
7.24441
7.21389
7.18392
7.15126
7.11837
7.08024
7.0399
7.00348
6.96819
6.93295
6.89281
6.84427
6.79815
6.7502
6.69996
6.65154
6.60291
6.55507
6.5012
6.44164
6.38346
6.33181
6.27989
6.23162
6.18358
6.14183
6.10197
6.05597
6.00384
5.95275
5.90473
5.85543
5.80026
5.74189
5.68341
5.62356
5.5691
5.50896
5.45411
5.39674
5.35092
5.30737
5.25678
5.20916
5.16068
5.11426
5.05839
5.00502
4.94529
4.89332
4.83809
4.78584
3.70088
3.7488
3.79801
3.84851
3.90035
3.95364
4.00832
4.06451
4.12195
4.1806
4.24062
4.30156
4.36341
4.42854
4.50954
4.58342
4.65619
4.72965
4.80385
4.87893
4.95492
5.03187
5.10965
5.18821
5.26734
5.34681
5.4265
5.50622
5.58577
5.66482
5.74326
5.82078
5.89698
5.97164
6.0444
6.11471
6.1821
6.24586
6.30167
6.34248
6.37021
6.38557
6.38852
6.37837
6.3541
6.3143
6.25708
6.1801
6.08064
5.95553
5.80097
5.61246
5.38497
5.11189
4.76982
4.22584
3.97345
3.84392
3.79213
3.76711
3.71494
4.50127
4.46529
4.42854
4.39115
4.35314
4.3152
4.2771
4.2396
4.20219
4.16528
4.12974
4.08904
4.04502
4.00361
3.95701
3.91233
3.86759
3.82275
3.77825
3.73439
3.69118
3.64836
3.60583
3.56355
3.52144
3.47951
3.43777
3.39633
3.35518
3.31442
3.27413
3.23446
3.19552
3.15752
3.12074
3.08545
3.05207
3.02119
2.99345
2.97042
2.94956
2.93102
2.91514
2.9025
2.894
2.89055
2.89318
2.90318
2.92201
2.95093
2.99117
3.04386
3.11027
3.19233
3.2806
3.41436
3.58944
3.8595
4.24289
4.74083
5.06382
5.21424
5.16571
5.11641
5.06606
5.01463
4.96267
4.91048
4.85852
4.8064
4.75411
4.69864
4.63544
4.57308
4.51403
4.45518
4.39711
4.33831
4.27875
4.2188
4.15892
4.09916
4.03928
3.97925
3.91904
3.85855
3.7978
3.73674
3.67539
3.61368
3.55163
3.4892
3.42641
3.3633
3.2999
3.23629
3.17255
3.10881
3.04516
2.98176
2.91885
2.85636
2.79398
2.73226
2.67199
2.61349
2.55734
2.50439
2.45587
2.41343
2.37921
2.35598
2.34731
2.35788
2.39305
2.45588
2.55751
2.70215
2.92042
3.25712
3.76403
4.37944
5.63314
5.57879
5.52381
5.46783
5.4105
5.35261
5.29452
5.23688
5.17904
5.1205
5.05523
4.98441
4.91638
4.85186
4.78861
4.72623
4.66345
4.60037
4.53711
4.47402
4.41105
4.34775
4.28426
4.22061
4.15667
4.09251
4.02807
3.96332
3.89816
3.83255
3.76646
3.6999
3.63289
3.5655
3.49775
3.42974
3.36153
3.29316
3.22464
3.15599
3.08717
3.01814
2.94821
2.87737
2.80625
2.73496
2.66375
2.59304
2.52354
2.4563
2.39276
2.33508
2.28618
2.24976
2.22957
2.23172
2.26454
2.34573
2.50485
2.78532
3.21374
5.81314
5.75552
5.69752
5.63865
5.57794
5.51662
5.45504
5.3943
5.33326
5.27125
5.20108
5.1276
5.05764
4.99132
4.92628
4.86214
4.7978
4.73395
4.6704
4.60741
4.54462
4.48126
4.41776
4.35423
4.29041
4.22646
4.16223
4.09771
4.03269
3.96717
3.9011
3.83459
3.76768
3.70049
3.63308
3.56557
3.49802
3.4305
3.36301
3.29555
3.22814
3.1608
3.09337
3.02532
2.95644
2.88686
2.81666
2.7459
2.67473
2.60349
2.53258
2.46262
2.39454
2.32957
2.26928
2.21661
2.17761
2.16307
2.18983
2.28321
2.47327
5.78687
5.72764
5.66833
5.60841
5.5457
5.48238
5.41844
5.35608
5.29358
5.23049
5.15859
5.08534
5.01582
4.95041
4.88573
4.82194
4.75783
4.69524
4.63344
4.57274
4.51235
4.45087
4.38958
4.32861
4.26729
4.20601
4.14433
4.08242
4.01977
3.95657
3.89271
3.82856
3.76411
3.69964
3.63514
3.57081
3.5067
3.44291
3.37941
3.3163
3.25355
3.19126
3.12941
3.06784
3.00612
2.94374
2.88073
2.81714
2.75304
2.68849
2.6236
2.55842
2.49292
2.42711
2.36083
2.29471
2.23117
2.17556
2.13683
2.12854
2.16961
5.57763
5.51821
5.45912
5.40025
5.33662
5.27259
5.20715
5.14482
5.0826
5.02106
4.94935
4.87833
4.81088
4.74878
4.68625
4.62489
4.56244
4.503
4.44461
4.38786
4.33149
4.27296
4.21554
4.15934
4.10243
4.04577
3.98825
3.93074
3.87193
3.8126
3.75238
3.69233
3.63215
3.57247
3.5129
3.45392
3.39534
3.3375
3.28024
3.22385
3.16817
3.11347
3.05965
3.00669
2.95436
2.90226
2.84961
2.79645
2.7429
2.68912
2.63516
2.58099
2.52643
2.47106
2.41423
2.35536
2.29456
2.23355
2.17614
2.12881
2.10159
5.21083
5.15227
5.09502
5.03984
4.97664
4.91354
4.84738
4.78702
4.7271
4.66984
4.59965
4.53212
4.46765
4.41097
4.35169
4.29465
4.23478
4.18016
4.12645
4.07452
4.0231
3.96767
3.91522
3.8662
3.81515
3.76416
3.71136
3.65945
3.60494
3.55016
3.494
3.43939
3.38469
3.33155
3.27835
3.22638
3.17459
3.12422
3.07477
3.027
2.98025
2.93513
2.89143
2.84883
2.80724
2.76671
2.72593
2.68459
2.64315
2.60183
2.56093
2.52041
2.48013
2.43955
2.39796
2.35441
2.30817
2.25907
2.20803
2.15742
2.11163
4.72355
4.66558
4.61227
4.56366
4.50257
4.4419
4.37544
4.3197
4.26461
4.21408
4.14652
4.08289
4.02124
3.97189
3.9161
3.86519
3.80816
3.76009
3.71184
3.66399
3.61751
3.56415
3.51761
3.47976
3.43491
3.38829
3.3392
3.29387
3.24246
3.19173
3.13841
3.09093
3.04213
2.99714
2.95062
2.90658
2.86081
2.81853
2.77774
2.74013
2.70369
2.66933
2.63698
2.60582
2.57467
2.54411
2.51395
2.48297
2.45345
2.42424
2.39781
2.37238
2.34872
2.32513
2.30148
2.27641
2.24927
2.21906
2.18579
2.14916
2.11063
3.62216
3.51855
3.40597
3.28593
3.164
3.0435
2.9272
2.81869
2.72104
2.63623
2.56509
2.50754
2.4626
2.42878
2.4043
2.38734
2.37619
2.36957
2.36642
2.36588
2.36735
2.37041
2.37476
2.38027
2.38686
2.39435
2.4028
2.41213
2.42235
2.43341
2.44524
2.45779
2.47096
2.4846
2.49857
2.5127
2.52677
2.54057
2.55387
2.56648
2.57815
2.58869
2.59797
2.60592
2.61255
2.61799
2.62243
2.62611
2.62937
2.63265
2.63629
2.64058
2.64574
2.652
2.65925
2.66738
2.67602
2.68501
2.69373
2.70152
2.70761
5.05748
4.98526
4.86335
4.69049
4.49792
4.28777
4.05828
3.8168
3.57178
3.33119
3.10121
2.88812
2.69552
2.5245
2.37549
2.24971
2.14657
2.06331
1.99674
1.94419
1.90314
1.87133
1.84695
1.82842
1.81522
1.8058
1.80018
1.79775
1.79827
1.80148
1.80716
1.81509
1.82498
1.83653
1.8494
1.86319
1.87742
1.89166
1.90536
1.91792
1.92865
1.93683
1.94162
1.94213
1.93765
1.92764
1.91178
1.89024
1.86374
1.83365
1.80179
1.77038
1.74182
1.71818
1.70082
1.69066
1.68743
1.69051
1.69835
1.70911
1.71989
4.88204
5.23994
5.43732
5.44605
5.31297
5.11631
4.85748
4.56118
4.24433
3.91881
3.59668
3.28913
3.00349
2.74464
2.51564
2.31793
2.14999
2.00784
1.88892
1.79234
1.71561
1.65578
1.60979
1.5749
1.54844
1.52911
1.51524
1.5061
1.50092
1.49911
1.50023
1.50382
1.50941
1.51647
1.52448
1.53294
1.54133
1.54912
1.55572
1.56053
1.56292
1.56231
1.55814
1.54988
1.53708
1.51938
1.49655
1.46862
1.43597
1.39945
1.36053
1.32146
1.28507
1.25446
1.23245
1.22164
1.22349
1.23853
1.26612
1.30489
1.35243
3.74923
4.3391
4.90354
5.33674
5.55658
5.59781
5.47431
5.22474
4.9095
4.54892
4.17086
3.79873
3.44462
3.11942
2.82799
2.57044
2.34406
2.14752
1.9797
1.83996
1.72635
1.63655
1.56727
1.51478
1.47539
1.44651
1.42592
1.41212
1.40387
1.40014
1.40024
1.40354
1.40933
1.41687
1.42543
1.43433
1.44286
1.45033
1.456
1.45913
1.45899
1.45491
1.44627
1.43256
1.41338
1.38857
1.35816
1.32243
1.28188
1.23737
1.19022
1.14251
1.09705
1.05746
1.02794
1.01293
1.0158
1.03833
1.08073
1.14211
1.22089
2.77987
3.21263
3.75652
4.35152
4.8977
5.31618
5.55559
5.59068
5.45814
5.18598
4.82526
4.43402
4.03205
3.64548
3.28896
2.96529
2.6761
2.41952
2.1973
2.00956
1.8544
1.73014
1.63341
1.55965
1.50406
1.4628
1.43303
1.4126
1.39975
1.39295
1.39124
1.39384
1.3999
1.40846
1.41863
1.42956
1.4404
1.45031
1.45843
1.46387
1.46573
1.46325
1.45566
1.44237
1.42282
1.39682
1.36436
1.32574
1.28138
1.23211
1.17916
1.12447
1.07076
1.02166
0.982202
0.958605
0.956409
0.979733
1.03099
1.10996
1.21408
2.282
2.48943
2.81098
3.24961
3.77645
4.33509
4.84878
5.23549
5.44751
5.47253
5.32508
5.04947
4.67875
4.27148
3.87017
3.4841
3.13048
2.8104
2.52272
2.27368
2.06588
1.89855
1.76786
1.6677
1.59157
1.53418
1.49192
1.46207
1.44229
1.43039
1.42509
1.42548
1.43056
1.43916
1.45021
1.46272
1.47569
1.48817
1.49916
1.50767
1.51265
1.51327
1.50863
1.49805
1.48079
1.4566
1.42536
1.38734
1.34279
1.29247
1.23746
1.17959
1.12145
1.06646
1.01967
0.988107
0.97865
0.998245
1.0524
1.14286
1.26719
2.10836
2.16707
2.29847
2.52234
2.84984
3.27634
3.77305
4.28509
4.7442
5.08512
5.26284
5.26788
5.1186
4.84779
4.50011
4.10034
3.70425
3.32567
2.96319
2.6393
2.36301
2.13863
1.9632
1.82784
1.72399
1.64438
1.5846
1.54127
1.5114
1.49172
1.4805
1.4766
1.4789
1.48597
1.49656
1.50947
1.52357
1.53777
1.55095
1.56199
1.56975
1.57335
1.57179
1.56434
1.55003
1.52862
1.49984
1.46399
1.42114
1.37204
1.31763
1.25972
1.20075
1.14391
1.09397
1.05782
1.0434
1.05979
1.1154
1.21467
1.35612
2.07776
2.06613
2.0906
2.1681
2.31627
2.5495
2.87332
3.27673
3.73028
4.18438
4.57955
4.86431
5.01041
5.00713
4.86954
4.62066
4.29708
3.92603
3.51116
3.1143
2.75515
2.45781
2.22522
2.04451
1.90411
1.79441
1.70994
1.64724
1.60307
1.5722
1.55225
1.54155
1.53897
1.54271
1.55124
1.56316
1.57715
1.59196
1.60633
1.61898
1.62875
1.63473
1.63585
1.63139
1.6201
1.60177
1.57599
1.54305
1.50289
1.45626
1.40403
1.34796
1.29032
1.23422
1.18406
1.14661
1.13016
1.14538
1.20294
1.3102
1.46687
2.07307
2.04114
2.02268
2.02797
2.07017
2.16404
2.32357
2.55799
2.86654
3.23669
3.6337
4.02134
4.35665
4.6048
4.736
4.74138
4.62308
4.38733
4.06977
3.66984
3.23591
2.86484
2.57032
2.33599
2.14635
1.99461
1.87507
1.78572
1.72155
1.67459
1.64228
1.62146
1.61121
1.60943
1.61405
1.62337
1.6359
1.65009
1.66454
1.67762
1.68858
1.69607
1.69935
1.69745
1.68917
1.67388
1.65163
1.62181
1.58508
1.54151
1.49264
1.43964
1.38486
1.33156
1.28343
1.24707
1.23093
1.24708
1.30693
1.42132
1.5897
0.297124
6.69503
6.38846
0.216169
0.362404
0.125889
0.00316222
2.4537
0.00337837
0.0233441
3.31318
1.05145
0.00316393
6.0034
0.110355
5.39305
0.00326084
2.55093
3.61737
0.00315829
0.215278
5.82128
6.43926
0.0032993
0.0033326
0.105031
0.00316046
0.523105
0.00324721
0.00346012
0.705027
0.00324768
0.0163051
2.48532
0.77305
3.39503
2.53723
1.51998
0.00316523
2.61669
1.90018
2.08324
0.003209
4.6766
3.15798
0.279395
0.00360818
0.0151319
0.138989
1.07296
6.67433
7.88295
0.00310787
0.00405465
0.0374877
0.00883007
0.00345081
0.696153
2.40967
7.58067
2.55166
0.00369521
0.143857
0.0317829
6.63918
0.434695
1.98247
1.77434
0.00431993
0.00321286
1.21556
2.46384
1.73126
0.0144284
0.0395298
4.0497
6.99443
3.14518
0.00310859
0.915145
0.00709708
2.61112
0.010778
4.69613
0.00321772
1.03807
0.00336162
2.22671
0.0148405
0.00491146
0.118539
0.00310417
0.00378252
7.74972
5.58977
0.00359446
0.434683
0.298843
0.00604212
6.64795
0.202383
2.56814
0.725951
0.0031001
0.00316494
0.00309733
0.302461
0.124448
0.00324119
6.17582
6.83804
0.00931742
4.55356
1.52561
2.64011
2.72964
1.78777
0.00390617
0.0850429
0.00418049
0.00435574
3.42034
0.00727498
7.4356
7.82312
1.00345
0.00321413
0.987688
0.998152
0.00320978
0.0340915
0.0333291
1.75092
0.00566915
3.04156
0.00321951
0.00316027
7.77985
7.94403
0.00322916
0.162745
5.7197
0.104479
0.299959
1.57027
4.7648
0.0401032
1.65519
0.0120767
7.13311
1.25052
0.00920589
2.70947
4.63287
6.41041
0.00330602
0.00326711
0.214395
0.00311584
1.9548
0.030678
0.00510815
0.00319863
0.00321884
0.00323666
2.72089
1.82949
1.5794
0.00332118
6.79112
4.82933
3.19082
4.87014
0.0139747
3.62767
1.67159
1.89953
0.00324008
0.00567767
2.95613
3.05865
2.13883
3.77081
0.00321478
0.00352222
4.85971
0.0359152
0.559955
0.00323738
0.00360441
0.104307
0.00339204
7.89433
0.659122
0.0031047
0.25193
1.85891
5.47634
0.0044902
1.93526
0.00321723
0.00323266
4.79583
2.34858
7.35469
0.00453405
0.00339402
0.0076519
2.71028
2.21196
1.05275
5.11832
1.5549
6.95069
0.190407
4.22944
4.10001
2.02155
1.32011
2.33008
0.00488101
0.0369286
0.00322451
0.00320163
1.82501
0.0181261
0.0201135
0.00570522
0.0131157
2.6657
4.58891
0.0188842
6.05818
1.04218
0.395484
0.00318307
0.161754
2.67852
0.995634
0.00413925
1.15462
1.17168
0.182255
0.274465
7.31314
0.776229
0.494866
5.1157
0.00383912
0.0031614
0.00403216
0.0104969
1.75233
0.00336139
0.00649623
0.00316475
0.37834
3.965
3.99371
2.74512
1.2943
1.39015
7.72914
0.00434076
2.08249
4.51217
0.00320938
1.93166
0.00321715
4.02502
0.376909
1.52384
0.00533199
0.00321957
1.82065
0.515175
0.00323891
0.00323598
0.00325035
0.00324555
0.356542
1.61786
2.89543
0.0147615
0.00324057
0.00316418
0.00309845
4.64095
0.228126
0.00446536
1.64017
0.0875678
0.0411115
0.00309194
0.261463
0.00323971
0.0506153
1.47934
4.71458
0.309518
0.00391376
0.00595881
3.13743
0.139401
1.98138
7.66571
0.00350146
0.00319724
0.00318704
5.76691
0.00331071
4.76133
0.00322115
1.91355
1.22426
0.0270713
2.88076
3.95118
0.00467389
2.72451
2.69097
1.66696
4.7029
1.0986
7.94903
2.4681
3.8808
3.61426
4.45639
1.72253
0.156378
7.85342
7.41157
2.99714
2.14788
0.00395479
7.02062
2.68704
6.85409
0.0274887
0.0035853
0.00321401
0.00342298
0.176051
0.417566
0.701447
0.0918162
0.00317469
6.1145
0.00321477
1.47496
1.8947
6.39935
2.55342
1.75702
0.00596323
0.00425474
0.0877926
2.74936
0.0103029
0.743146
5.17771
2.05382
4.02578
6.29821
3.31669
0.00346225
7.40467
5.57052
1.75843
0.00323424
6.50542
5.78349
0.00333222
1.99083
0.00323797
6.89175
5.4669
1.88048
4.08456
2.46181
5.71384
0.00329182
5.69322
0.00386161
3.65343
3.88274
1.91331
7.37726
0.70105
0.212328
0.540076
0.00423904
4.30684
0.142677
0.00813929
0.00509781
4.48587
0.00382925
4.24233
0.00319227
0.00323514
0.00600082
1.79111
0.104292
1.79655
0.0057042
4.15894
0.162441
6.84239
4.39692
2.59296
6.27789
0.0033842
7.37381
2.79287
0.00321109
3.81062
2.00657
0.00310271
0.00316806
3.37104
0.00648233
1.92554
0.0876039
2.31746
0.0267642
0.588553
2.62074
4.80628
2.35249
3.94627
3.69041
0.00395412
0.0217005
1.69096
1.72531
7.65915
6.52032
5.46424
0.0651803
5.16024
5.13787
0.491235
1.769
2.84751
2.02287
0.00347866
4.01045
7.94876
0.00416045
4.42985
1.81028
2.87665
0.024112
0.0674876
6.1907
0.00597143
7.65568
0.00461573
0.262654
0.00320384
0.95855
2.34353
0.229706
0.00479573
0.00370097
2.67132
1.61708
0.0815473
0.412953
5.88536
4.10182
0.00450654
1.40173
1.65801
3.22891
1.51515
4.20862
1.96025
5.23183
3.12478
0.49513
0.981064
7.52801
1.92855
7.77604
6.09004
0.0334499
3.35318
2.85753
0.00337783
1.85192
1.61989
1.35414
0.0173756
4.80278
1.47296
0.671742
1.9307
0.00545188
0.00321494
0.0420918
2.38633
4.61086
2.59172
0.00322111
0.00318936
0.0032153
1.71842
0.0277521
0.00321532
0.123256
4.37344
4.97984
0.0105133
0.0107385
0.00315549
0.00320511
0.00599311
1.73269
1.76065
1.69255
0.451298
7.70211
5.95192
0.00526042
3.35087
1.84065
1.94603
3.93039
7.54189
0.0034617
0.0104537
0.00323799
3.87917
0.239088
0.0031691
1.32439
0.1607
7.57364
0.00323853
7.85621
1.09359
0.047297
6.57409
0.00323173
0.00319503
0.00404753
7.87728
3.13565
5.31179
5.06972
1.00998
1.76587
0.00312664
0.00602261
0.0874805
0.0134137
0.0251097
1.99005
2.14675
0.00322448
1.29317
1.84084
6.35479
7.87015
0.00821888
7.83127
0.00591063
0.0302522
3.49698
0.00320139
5.5627
0.00324076
0.00336662
0.0222615
2.14764
0.617177
2.58374
1.89931
0.0036595
1.76833
4.62424
0.051577
0.21041
0.868653
0.00331473
0.00326707
0.00692979
5.31801
0.544321
0.00335746
7.45288
5.9541
6.78439
0.0317938
2.04018
0.00420877
2.30602
0.163649
0.0907271
2.65995
1.67378
1.92996
6.13086
0.00327887
0.00313287
0.010452
4.17146
4.66925
0.945521
0.0138418
0.00333403
0.00323887
0.00880826
0.026425
0.00660119
2.18552
1.75407
0.0115756
1.57412
6.13844
0.00327098
2.39058
0.00321745
0.528872
0.00324484
0.0221664
2.44795
0.0200828
0.00320606
0.743954
7.98598
7.277
0.00318973
0.00326425
0.37953
0.0274379
0.0032164
4.42782
0.0037001
1.68067
7.96271
2.28126
1.73588
2.47438
3.6781
7.67644
0.0032291
0.0074394
0.0148119
4.23712
1.46669
6.6185
0.682116
0.36431
4.28416
3.56039
5.22439
0.720087
2.81082
0.00322239
0.350878
1.66929
2.42166
3.94358
1.99357
0.224444
2.43624
0.1021
0.00937671
1.74133
0.00323936
5.64408
0.00366401
0.382475
7.46746
2.78036
0.546932
0.00741035
0.752628
0.00329878
0.00319164
0.106199
0.022453
1.77344
0.0152714
1.74624
0.00322131
0.0279014
0.00316629
4.47127
0.0050957
4.11168
2.54013
0.0218926
1.94538
7.66341
0.00325801
1.7362
4.39546
0.00335833
7.42811
0.0607223
0.00348383
0.0033948
7.39448
0.00317845
0.00428916
0.0865429
0.100497
7.25469
7.33166
0.00322105
0.00327012
1.09445
2.21283
0.0145681
0.26734
1.94404
0.00321771
0.00383254
0.00372394
6.03861
7.30941
0.48842
7.25519
0.0260294
1.61246
0.00332413
0.0147563
0.0248304
0.0363331
0.00322989
6.90474
0.00320089
0.0249929
0.00332186
0.238076
0.0224151
0.0147543
0.441814
0.665358
2.30016
0.400174
1.03157
1.82733
5.04247
0.00343839
4.74378
7.8035
1.10823
3.92662
0.00327851
4.35135
3.99493
0.00321581
7.55638
2.32134
0.00809251
0.0107161
5.82383
5.59342
0.0577526
7.68802
7.48012
0.779736
7.44972
7.40678
4.81477
1.93655
1.70377
1.01804
7.36151
7.64024
0.0218652
7.52029
2.65268
4.35596
0.00343246
0.333536
0.3876
6.79483
6.01409
0.0201968
4.28327
6.39302
0.475668
0.0336671
0.385651
1.81868
0.00534629
1.855
7.06603
0.0337963
6.74624
1.35461
4.41871
6.39642
0.00322214
0.00565685
1.01961
0.68573
0.0182477
0.00321834
0.192243
0.263374
0.00450959
0.00323647
4.25808
0.953499
3.11655
0.992745
0.00861014
0.00417141
0.0890489
3.36081
0.00345943
1.80734
1.69319
0.47319
2.35049
0.00397039
0.118452
0.00320211
0.353759
4.23381
0.00434775
0.118071
2.10739
5.8774
0.223643
3.8746
0.594158
0.169474
0.00392603
2.34529
7.88245
0.00321145
0.00328246
5.68243
0.0244747
0.00323561
3.8062
0.25423
1.94588
2.01167
1.48823
0.144059
1.66438
3.49658
5.94526
4.3915
0.00327529
5.583
0.00389213
2.53768
0.00340092
0.00452102
2.11491
0.00656041
3.87611
0.0207116
0.0396525
1.85461
0.728691
0.0652547
0.00367322
6.37323
0.00364261
0.00315331
7.9281
5.93942
2.71113
1.93715
0.00343408
0.00307303
1.80154
5.68574
0.00319864
6.75338
1.6931
0.00324237
5.92941
0.00311728
0.361967
0.885472
1.31745
0.350779
1.60954
1.9542
0.00311327
7.3784
7.53656
0.00321543
0.0168323
1.92979
0.00313173
6.97118
5.29248
4.40945
0.00321767
0.0031707
3.50045
0.0411465
0.00350153
1.81055
1.7326
4.19172
0.00315386
0.00337935
0.0242854
0.0194538
0.00321705
0.00641657
5.10671
2.88572
0.00322232
1.31756
0.00321472
0.722407
0.00421376
0.00358532
2.17342
0.00326668
0.121663
0.00317614
3.0017
0.185171
1.70745
6.2242
4.38622
3.58366
0.788213
1.23692
0.00323548
0.907841
7.38806
4.09436
0.106255
0.00346622
5.28352
0.00321469
0.030657
0.00315608
7.298
0.794929
0.374482
6.55566
2.20985
0.493122
4.06784
0.723411
6.76146
4.40577
0.00330991
0.00327453
0.00818566
0.00323355
0.0227165
4.52935
0.00377915
7.25935
0.00600386
0.0759468
0.564768
4.58447
0.00487694
2.70726
0.0169548
3.19295
2.32893
7.07954
0.00339904
0.00384395
0.246895
3.55518
1.72868
3.54993
0.411407
1.04673
1.66225
0.0505556
1.05169
0.261607
1.68994
0.00328318
4.33206
0.409731
3.01491
0.00336466
2.92629
0.998211
0.00459683
1.65985
1.72766
0.065084
0.00314938
0.00321799
4.7976
2.70162
1.39166
0.00320708
0.0175405
2.00186
6.27195
0.46813
0.0125886
0.00322433
5.67276
5.32771
2.08079
2.54949
0.00321318
3.44642
7.56854
0.00321103
0.00321771
1.24218
0.0041019
0.00986124
0.0326393
1.94797
0.00410707
2.21206
7.75988
0.00320515
0.00346256
0.00316812
0.0033058
3.6409
4.64282
7.90152
0.0289445
2.35673
2.20109
0.0867901
2.8518
0.00348227
1.69496
0.220067
2.08499
0.673169
1.66797
3.03444
0.0282625
0.00323893
5.87423
4.49539
4.68591
0.879841
1.78725
0.173596
1.59818
0.00927617
0.00483122
3.35659
5.57711
0.0216387
0.134358
0.00324506
0.0776929
1.82766
0.0277664
1.03792
0.683623
3.83216
2.15898
0.430836
6.85782
5.36224
2.94615
1.57279
4.15241
3.53997
0.549349
2.55343
0.00610623
2.69156
2.82609
0.00320396
0.00313657
0.122025
0.00322657
0.00333014
3.01123
4.39899
0.00321993
3.22312
0.00321471
0.00319228
0.00321561
0.0032626
0.00594238
1.94806
2.80064
7.12301
0.00315993
0.00390464
0.923131
0.00355384
0.0330042
0.00324572
0.0036105
4.2836
0.00390854
0.0109342
2.86425
0.0104737
0.00321965
3.88255
0.00321417
0.00326641
0.262455
0.00360485
0.931011
0.00457619
0.0299764
0.00320422
0.00325371
7.59604
7.76087
2.77726
0.0267752
2.87511
1.51265
0.00473284
1.77229
4.16973
6.91054
4.5836
0.00312653
1.95172
2.50803
0.145694
1.74218
4.47286
0.172798
2.06705
0.216799
1.72059
0.0391015
0.991087
0.00323487
6.90759
0.00329271
1.79905
2.38784
0.00321514
0.311324
0.00729745
0.0193376
0.00317633
0.751824
0.00366233
0.00322133
2.54006
0.00949045
0.109856
6.85053
1.92821
0.00345897
0.00387933
2.31221
7.27089
0.00309371
0.00324633
0.0726561
1.37053
5.46381
0.00658895
1.58103
0.0032179
0.00344266
0.00314814
0.0347316
1.01297
0.0101392
6.51589
1.8208
7.25225
6.14057
0.00351842
7.43402
3.63418
0.00317934
0.00322625
0.00321814
0.00439745
0.00320252
3.69748
0.003208
0.00323927
6.80138
0.317335
0.00774315
0.0217701
1.94481
0.891535
0.00829453
0.00345876
6.3273
0.00324544
0.827623
0.00326188
0.00352291
5.97511
5.98607
0.00868907
0.00351262
0.340076
0.00320642
6.87175
0.00325502
5.74691
0.0248749
0.738132
0.0328637
0.376613
0.371614
1.51897
0.00324274
0.00356536
0.0115445
3.35963
0.119505
7.56744
0.00321939
0.00458661
0.00555435
7.22546
2.7442
3.11139
0.00693685
0.00898937
0.211065
0.00322348
1.28345
2.38307
0.0169461
5.89529
6.10875
1.96133
0.00533673
0.379464
2.91431
6.94627
1.80427
0.0188078
3.0231
0.063411
5.38272
0.0909669
0.508617
2.70614
0.00324365
1.76551
0.00455169
0.0118418
0.00804943
0.0499167
0.00370084
1.24181
0.0032263
3.11192
0.0953968
0.00361239
0.242904
0.00323205
0.281897
0.116625
2.30642
0.468632
4.67055
0.238446
0.00321696
0.00319025
0.71323
0.0911558
2.78911
7.27604
0.00322405
3.86217
2.59927
0.0231447
2.02331
0.557115
2.36589
2.17323
0.0334381
0.00588123
7.28704
1.55796
5.79107
0.00321076
1.6628
0.0032154