/*--------------------------------*- C++ -*----------------------------------*\
| =========                 |                                                 |
| \\      /  F ield         | OpenFOAM: The Open Source CFD Toolbox           |
|  \\    /   O peration     | Version:  2.3.1                                 |
|   \\  /    A nd           | Web:      www.OpenFOAM.org                      |
|    \\/     M anipulation  |                                                 |
\*---------------------------------------------------------------------------*/
FoamFile
{
    version     2.0;
    format      ascii;
    class       volScalarField;
    location    "0.92";
    object      nut;
}
// * * * * * * * * * * * * * * * * * * * * * * * * * * * * * * * * * * * * * //

dimensions      [0 2 -1 0 0 0 0];

internalField   nonuniform List<scalar> 
9648
(
0.000272933
0.000273346
0.00027331
0.000273172
0.000272861
0.000272292
0.000271529
0.000270581
0.000269434
0.000268068
0.000266479
0.000264706
0.000262746
0.00026061
0.000258347
0.000256004
0.000253605
0.000251172
0.000248746
0.00024637
0.00024406
0.000241837
0.000239726
0.000237728
0.000235845
0.000234095
0.000232482
0.000231002
0.000229649
0.000228427
0.000227329
0.000226352
0.000225491
0.000224748
0.000224109
0.000223578
0.000223154
0.00022283
0.000222593
0.000222443
0.000222388
0.000222419
0.00022253
0.00022273
0.000223006
0.000223348
0.000223771
0.000224287
0.000224886
0.000225554
0.000226306
0.00022716
0.000228093
0.000229107
0.000230215
0.000231414
0.000232669
0.000233925
0.000235189
0.000236459
0.000237717
0.000451883
0.00045947
0.000467551
0.000475943
0.000484147
0.000491343
0.000499525
0.000510084
0.000523059
0.000538556
0.000556685
0.000577796
0.00060188
0.000628832
0.000658507
0.000690839
0.000725604
0.000762462
0.000801106
0.000841368
0.000882903
0.000925457
0.000968845
0.0010128
0.00105703
0.00110142
0.00114588
0.00119024
0.00123433
0.00127806
0.00132143
0.0013643
0.00140658
0.00144832
0.00148943
0.00152982
0.00156955
0.00160866
0.00164705
0.00168456
0.00172125
0.00175722
0.00179236
0.00182657
0.00185998
0.00189231
0.00192359
0.00195396
0.0019835
0.00201205
0.00203966
0.00206628
0.00209213
0.00211672
0.00214072
0.00216393
0.00218696
0.00220883
0.00223019
0.0022513
0.00227234
0.00077041
0.000818784
0.000866929
0.000912397
0.000957725
0.00100526
0.00105427
0.00110591
0.0011597
0.00121654
0.00127595
0.00133868
0.0014048
0.00147432
0.00154713
0.001623
0.00170164
0.00178257
0.00186536
0.00194961
0.00203484
0.00212075
0.0022069
0.00229294
0.00237861
0.00246367
0.00254801
0.00263134
0.00271362
0.00279472
0.00287453
0.00295304
0.00303027
0.0031061
0.0031805
0.00325357
0.00332522
0.00339555
0.0034645
0.00353206
0.00359826
0.00366302
0.00372651
0.00378867
0.00384945
0.00390884
0.00396678
0.0040235
0.00407878
0.00413277
0.00418546
0.00423693
0.00428776
0.00433649
0.0043854
0.00443217
0.00447868
0.00452222
0.0045659
0.00460874
0.00465091
0.00122535
0.00132039
0.00141525
0.00150762
0.00159856
0.00168934
0.00178012
0.00187154
0.00196389
0.00205832
0.00215497
0.00225467
0.00235751
0.00246378
0.00257322
0.00268555
0.0028004
0.00291725
0.0030356
0.00315495
0.00327486
0.0033948
0.00351442
0.00363339
0.00375144
0.00386832
0.0039839
0.00409799
0.00421052
0.00432132
0.00443049
0.00453797
0.00464371
0.00474782
0.0048502
0.00495093
0.00505
0.00514749
0.00524338
0.00533771
0.00543049
0.00552178
0.00561151
0.00569985
0.00578667
0.00587202
0.00595592
0.00603843
0.00611935
0.00619875
0.00627709
0.00635331
0.00642818
0.00650113
0.00657381
0.00664432
0.00671278
0.00677924
0.00684411
0.00690735
0.006968
0.00174963
0.00188403
0.00202116
0.00215674
0.00228969
0.00242058
0.00254999
0.00267852
0.00280732
0.00293751
0.00306978
0.00320479
0.00334296
0.0034845
0.00362909
0.00377624
0.00392543
0.00407624
0.00422805
0.00438044
0.00453283
0.00468476
0.00483578
0.0049856
0.00513399
0.00528083
0.00542587
0.00556903
0.00571018
0.00584928
0.0059863
0.00612129
0.00625432
0.00638536
0.00651438
0.00664153
0.0067668
0.00689014
0.00701162
0.00713124
0.00724909
0.00736511
0.00747943
0.00759199
0.0077028
0.00781182
0.00791897
0.00802431
0.00812803
0.00822948
0.00832929
0.00842707
0.00852226
0.0086151
0.00870604
0.00879522
0.00888142
0.00896522
0.00904666
0.00912516
0.00920066
0.00227778
0.00244259
0.00261695
0.00279323
0.00296771
0.00313942
0.00330873
0.00347658
0.00364395
0.00381205
0.00398173
0.00415348
0.00432796
0.00450522
0.00468523
0.00486737
0.00505075
0.00523521
0.00541993
0.00560455
0.00578864
0.00597151
0.0061529
0.00633233
0.00650976
0.00668511
0.00685825
0.00702909
0.00719738
0.00736312
0.0075264
0.00768712
0.00784551
0.0080016
0.00815527
0.00830664
0.00845584
0.00860276
0.00874743
0.0088898
0.00902979
0.00916756
0.00930314
0.00943656
0.00956772
0.0096967
0.00982371
0.00994765
0.0100695
0.0101888
0.0103055
0.0104197
0.010531
0.0106389
0.0107444
0.0108465
0.0109456
0.0110419
0.011135
0.0112239
0.0113099
0.0027867
0.00297545
0.00318481
0.00340166
0.00361903
0.00383405
0.00404633
0.00425654
0.00446563
0.0046743
0.00488375
0.00509409
0.00530601
0.00551971
0.00573596
0.00595353
0.00617144
0.00638968
0.00660711
0.00682354
0.0070389
0.00725213
0.00746324
0.00767119
0.00787629
0.0080788
0.0082785
0.00847567
0.00866953
0.00886017
0.00904786
0.00923208
0.00941345
0.00959222
0.00976792
0.00994069
0.0101111
0.0102785
0.0104433
0.0106052
0.0107639
0.0109195
0.0110723
0.0112224
0.0113692
0.0115132
0.0116545
0.0117925
0.0119277
0.0120596
0.0121883
0.0123135
0.012435
0.0125529
0.0126667
0.0127772
0.0128844
0.0129874
0.0130861
0.0131806
0.0132711
0.00327502
0.00348255
0.00372489
0.00398185
0.00424337
0.00450289
0.00476003
0.00501503
0.00526765
0.00551925
0.00577045
0.00602121
0.00627148
0.00652153
0.00677371
0.00702716
0.0072802
0.00753301
0.00778357
0.00803106
0.0082772
0.00852035
0.00876134
0.00899742
0.00922845
0.00945642
0.00968085
0.00990278
0.0101207
0.0103345
0.0105451
0.0107503
0.0109514
0.0111499
0.0113448
0.0115357
0.0117237
0.0119082
0.0120898
0.0122685
0.012443
0.0126129
0.0127782
0.0129403
0.0130981
0.013252
0.0134021
0.0135478
0.0136903
0.0138288
0.0139631
0.0140931
0.0142198
0.0143418
0.0144586
0.0145711
0.0146792
0.014784
0.0148835
0.014977
0.0150656
0.00374895
0.00396819
0.00424062
0.00453273
0.00483896
0.00514128
0.00544206
0.00574381
0.00603757
0.00633353
0.00662574
0.00692118
0.00721011
0.0074964
0.00777972
0.0080684
0.00835641
0.00864438
0.00893329
0.00920937
0.00948395
0.00975797
0.0100295
0.010299
0.0105528
0.0108043
0.0110513
0.0112954
0.0115371
0.0117729
0.0120081
0.0122349
0.012448
0.0126623
0.0128763
0.0130815
0.0132817
0.0134805
0.0136744
0.0138692
0.0140602
0.0142468
0.0144199
0.0145905
0.0147581
0.0149161
0.0150715
0.0152168
0.015363
0.0154999
0.0156361
0.0157598
0.0158838
0.0160081
0.0161248
0.0162288
0.0163333
0.0164295
0.0165268
0.0166166
0.0166949
0.000238882
0.000239948
0.000240987
0.000241999
0.000242965
0.000243857
0.000244715
0.000245578
0.000246441
0.000247245
0.000247967
0.000248674
0.000249353
0.000250001
0.000250653
0.000251352
0.000252108
0.000252921
0.000253817
0.000254833
0.000255941
0.000257117
0.000258356
0.000259623
0.000260896
0.000262188
0.000263509
0.00026484
0.000266168
0.000267506
0.000268854
0.000270206
0.000271563
0.000272938
0.000274318
0.000275709
0.000277121
0.000278555
0.000279995
0.000281443
0.000282917
0.000284411
0.000285923
0.000287461
0.000289018
0.000290573
0.000292145
0.000293753
0.000295387
0.00029702
0.00029867
0.000300362
0.000302067
0.00030378
0.000305532
0.000307327
0.000309155
0.00031097
0.000312832
0.000314774
0.000316803
0.00229345
0.00231231
0.00233074
0.00234909
0.00236706
0.00238385
0.0023986
0.00241242
0.00242367
0.00243487
0.00244446
0.00245335
0.00246114
0.00246783
0.00247335
0.00247747
0.00248026
0.00248156
0.00248146
0.00248002
0.0024774
0.00247382
0.00246921
0.0024637
0.00245735
0.00245018
0.00244226
0.00243343
0.00242381
0.00241331
0.0024019
0.00238969
0.00237669
0.00236283
0.00234816
0.00233278
0.00231658
0.00229968
0.00228206
0.00226376
0.00224478
0.00222512
0.00220495
0.00218419
0.00216281
0.00214079
0.00211807
0.00209474
0.00207068
0.00204594
0.00202054
0.00199443
0.00196775
0.00193985
0.00191181
0.00188263
0.00185309
0.0018224
0.00179196
0.00176137
0.00173067
0.00469072
0.00472943
0.00476525
0.00479985
0.00483301
0.00486595
0.00489523
0.00492311
0.00494746
0.00497081
0.00499187
0.00501131
0.00502831
0.0050438
0.00505741
0.00506909
0.00507892
0.00508691
0.00509311
0.00509758
0.00510058
0.00510202
0.00510204
0.00510066
0.00509789
0.00509374
0.0050883
0.00508152
0.00507341
0.0050638
0.00505286
0.00504043
0.00502653
0.00501129
0.00499457
0.00497647
0.00495694
0.00493606
0.00491381
0.00489028
0.00486555
0.00483972
0.00481283
0.00478505
0.00475621
0.00472633
0.00469523
0.00466294
0.00462928
0.00459425
0.00455801
0.00451983
0.00448015
0.00443853
0.0043959
0.00435103
0.00430432
0.0042561
0.00420716
0.00415744
0.0041067
0.00702697
0.0070833
0.00713739
0.00718838
0.00723725
0.00728399
0.00732807
0.00736911
0.00740726
0.00744325
0.00747663
0.00750715
0.00753516
0.0075611
0.00758432
0.00760532
0.00762401
0.00764041
0.00765454
0.00766655
0.00767653
0.00768465
0.00769088
0.00769537
0.00769804
0.00769893
0.00769799
0.00769529
0.00769091
0.00768475
0.0076767
0.00766674
0.00765485
0.00764097
0.00762516
0.00760743
0.00758769
0.00756589
0.00754211
0.00751646
0.00748912
0.00746016
0.00742993
0.00739851
0.00736599
0.00733227
0.00729716
0.00726057
0.00722241
0.00718245
0.00714079
0.00709696
0.00705074
0.00700211
0.00695136
0.00689795
0.00684162
0.00678327
0.00672356
0.00666204
0.00659929
0.009273
0.00934299
0.00940988
0.00947341
0.00953325
0.0095903
0.00964449
0.00969439
0.009741
0.00978513
0.00982597
0.0098638
0.00989899
0.00993119
0.00996065
0.00998774
0.0100113
0.0100323
0.0100504
0.0100658
0.0100787
0.0100892
0.0100976
0.0101039
0.010108
0.0101099
0.0101098
0.0101077
0.0101038
0.010098
0.0100904
0.0100807
0.0100687
0.0100544
0.010038
0.0100192
0.00999791
0.00997416
0.00994775
0.00991883
0.00988757
0.00985424
0.00981924
0.00978296
0.00974556
0.00970713
0.00966741
0.00962584
0.00958296
0.00953862
0.00949228
0.00944359
0.0093923
0.00933801
0.00928099
0.00922004
0.00915604
0.00908944
0.00902072
0.00894953
0.00887713
0.0113921
0.0114709
0.0115454
0.011617
0.0116843
0.0117474
0.011807
0.0118621
0.0119134
0.0119609
0.0120054
0.0120464
0.0120842
0.0121187
0.0121498
0.0121778
0.0122022
0.0122235
0.0122413
0.0122554
0.0122663
0.0122745
0.01228
0.0122831
0.0122837
0.0122816
0.012277
0.0122702
0.0122616
0.0122516
0.0122402
0.0122268
0.0122113
0.0121935
0.0121737
0.0121513
0.012126
0.0120979
0.0120668
0.0120326
0.0119953
0.0119552
0.0119128
0.0118688
0.0118236
0.0117779
0.0117308
0.0116825
0.0116329
0.0115826
0.0115304
0.0114756
0.0114182
0.011358
0.0112945
0.0112265
0.0111549
0.0110794
0.011002
0.0109219
0.01084
0.0133574
0.0134394
0.013517
0.0135899
0.0136587
0.0137233
0.0137832
0.0138382
0.013889
0.0139355
0.0139781
0.0140173
0.014053
0.0140846
0.0141123
0.0141372
0.0141586
0.0141764
0.0141899
0.0141986
0.0142032
0.0142044
0.0142025
0.0141979
0.0141905
0.0141798
0.0141658
0.0141486
0.0141294
0.0141092
0.014089
0.0140672
0.0140443
0.0140195
0.0139936
0.0139655
0.013934
0.0138993
0.0138616
0.013821
0.0137768
0.0137286
0.013677
0.0136234
0.0135683
0.0135134
0.0134563
0.0133986
0.0133398
0.0132821
0.013223
0.0131606
0.0130966
0.0130298
0.0129603
0.012885
0.0128057
0.0127217
0.0126363
0.0125476
0.0124568
0.0151495
0.0152283
0.0153018
0.0153698
0.015433
0.0154906
0.0155439
0.0155927
0.0156375
0.0156775
0.0157125
0.0157442
0.0157725
0.0157969
0.0158163
0.0158319
0.015846
0.0158572
0.0158642
0.0158652
0.01586
0.0158512
0.0158388
0.0158229
0.0158045
0.0157824
0.0157564
0.015725
0.0156891
0.0156519
0.0156167
0.0155806
0.0155452
0.0155086
0.0154739
0.0154389
0.015399
0.0153546
0.0153081
0.0152604
0.0152097
0.0151547
0.0150944
0.0150308
0.0149658
0.0149014
0.014833
0.0147647
0.0146942
0.0146274
0.0145609
0.0144893
0.0144173
0.0143437
0.0142691
0.0141869
0.014101
0.0140086
0.013916
0.0138197
0.0137218
0.0167731
0.0168434
0.0169088
0.0169617
0.0170118
0.0170489
0.017087
0.0171141
0.0171435
0.0171738
0.0171962
0.0172063
0.0172203
0.0172332
0.0172407
0.0172402
0.0172368
0.017234
0.0172326
0.0172264
0.0172086
0.0171892
0.0171684
0.0171393
0.0171074
0.0170721
0.0170351
0.0169939
0.0169404
0.0168808
0.0168251
0.0167682
0.0167136
0.0166568
0.016607
0.0165632
0.0165142
0.0164554
0.0163951
0.0163364
0.0162776
0.0162217
0.0161547
0.0160828
0.0160132
0.0159409
0.0158662
0.0157874
0.0157067
0.0156285
0.015554
0.0154712
0.0153866
0.0153074
0.0152252
0.0151401
0.0150476
0.0149507
0.0148502
0.0147486
0.0146435
0.000318831
0.000320841
0.000322931
0.000325099
0.000327317
0.00032954
0.000331798
0.00033412
0.000336486
0.000338877
0.00034129
0.000343747
0.00034622
0.000348785
0.000351955
0.000354839
0.00035766
0.000360467
0.000363274
0.000366104
0.000368945
0.000371798
0.000374672
0.000377548
0.00038041
0.000383268
0.000386121
0.000388957
0.000391758
0.000394526
0.000397251
0.000399923
0.000402529
0.000405071
0.000407524
0.000409883
0.000412139
0.000414268
0.00041611
0.000417445
0.000418359
0.000418865
0.000418961
0.000418641
0.000417851
0.000416524
0.000414619
0.000412069
0.000408753
0.000404514
0.000399216
0.00039269
0.000384643
0.00037475
0.000361981
0.000340741
0.000330422
0.000324962
0.00032274
0.000321684
0.000319496
0.00169944
0.00166818
0.00163639
0.00160442
0.00157226
0.0015402
0.00150771
0.00147552
0.00144324
0.0014114
0.00138033
0.00134897
0.00131815
0.00128758
0.00125345
0.00121951
0.00118601
0.00115314
0.00112098
0.00108959
0.00105893
0.00102882
0.000999262
0.000970217
0.000941665
0.000913644
0.000886124
0.000859157
0.000832716
0.000806809
0.000781471
0.000756722
0.000732556
0.000709017
0.000686162
0.000664009
0.000642656
0.000622179
0.000602173
0.000580013
0.000557228
0.000535431
0.000514658
0.000495093
0.000476833
0.000460079
0.000445101
0.000432163
0.000421531
0.000413537
0.000408547
0.000406993
0.000409305
0.000416004
0.00042591
0.000448469
0.000483425
0.000539486
0.000625732
0.000749974
0.000870296
0.00405546
0.00400353
0.00395072
0.00389649
0.00384105
0.0037847
0.00372739
0.00366956
0.00361116
0.0035528
0.00349274
0.00343289
0.00337569
0.00331848
0.00325863
0.00319642
0.00313284
0.00306903
0.00300533
0.00294206
0.00287907
0.00281605
0.002753
0.0026899
0.00262666
0.00256333
0.00249985
0.00243624
0.00237235
0.00230825
0.00224384
0.00217909
0.00211406
0.00204863
0.00198289
0.0019168
0.00185042
0.00178371
0.00171645
0.00164735
0.00157608
0.00149281
0.00140228
0.00130887
0.00121372
0.00111805
0.00102344
0.0009314
0.000843884
0.000762859
0.000690281
0.000627999
0.000577242
0.000539348
0.000514141
0.000505728
0.000516851
0.000552681
0.000622872
0.000741488
0.000905048
0.00653559
0.00647164
0.00640619
0.00633864
0.00626857
0.00619709
0.00612429
0.00605091
0.0059773
0.00590325
0.00582564
0.00574982
0.00567684
0.00560385
0.00552796
0.00544886
0.00536725
0.00528478
0.00520204
0.00511942
0.00503672
0.00495321
0.00486909
0.00478438
0.00469888
0.0046126
0.0045254
0.00443725
0.00434792
0.0042573
0.00416532
0.00407199
0.00397721
0.00388102
0.00378344
0.00368444
0.00358396
0.00348201
0.00337836
0.00327245
0.00316347
0.00304805
0.00291791
0.00277088
0.0026122
0.00244212
0.00226139
0.00207124
0.00187408
0.00167391
0.00147527
0.00128531
0.00111037
0.000957177
0.000829612
0.000732731
0.000669639
0.000640529
0.000647679
0.000698787
0.000802484
0.00880306
0.00872862
0.00865248
0.00857427
0.0084921
0.00840794
0.00832233
0.0082369
0.00815113
0.00806493
0.00797429
0.0078859
0.00780007
0.0077146
0.00762636
0.00753456
0.00743954
0.00734371
0.00724744
0.00715126
0.0070546
0.00695637
0.00685721
0.00675723
0.00665593
0.00655345
0.00644938
0.00634369
0.00623594
0.00612608
0.00601399
0.00589984
0.00578363
0.00566551
0.00554545
0.00542355
0.00529981
0.00517416
0.00504642
0.00491631
0.00478329
0.00464604
0.0045013
0.00433978
0.00416029
0.00396475
0.00375162
0.00351944
0.00326704
0.00299522
0.00270542
0.00240241
0.00209496
0.00179539
0.00151781
0.0012766
0.00108384
0.000942042
0.000848926
0.000804065
0.000811225
0.0107555
0.0106708
0.0105848
0.0104966
0.0104033
0.0103074
0.0102093
0.0101122
0.0100153
0.00991845
0.00981649
0.00971662
0.0096191
0.00952291
0.00942364
0.00932097
0.00921479
0.00910855
0.00900188
0.00889537
0.00878797
0.0086779
0.00856708
0.00845571
0.00834254
0.00822781
0.00811081
0.0079916
0.00786938
0.00774441
0.00761655
0.00748641
0.00735409
0.00721996
0.00708388
0.00694612
0.0068066
0.00666541
0.00652237
0.00637736
0.00622993
0.00607954
0.00592473
0.0057617
0.00557991
0.00538273
0.0051673
0.00493204
0.00467378
0.00438965
0.00407754
0.00373605
0.00336706
0.0029784
0.00258257
0.00220061
0.00185514
0.00156172
0.00132674
0.00115152
0.00103587
0.0123618
0.0122671
0.0121718
0.012075
0.0119711
0.0118638
0.0117533
0.011645
0.0115378
0.0114315
0.0113186
0.0112081
0.0111
0.0109945
0.0108856
0.0107738
0.010658
0.0105434
0.0104285
0.0103141
0.0101981
0.0100779
0.00995805
0.00983853
0.00971621
0.00959182
0.00946404
0.00933381
0.00919926
0.00906154
0.00892049
0.0087779
0.00863343
0.00848804
0.00834103
0.00819306
0.00804375
0.00789364
0.00774247
0.00759043
0.00743691
0.00728165
0.00712391
0.00696165
0.00679025
0.00660021
0.00639416
0.00617004
0.00592506
0.00565622
0.0053596
0.0050312
0.00466839
0.00426977
0.00384016
0.00339135
0.00294317
0.0025189
0.00213704
0.00180989
0.00154497
0.0136172
0.0135125
0.0134086
0.0133044
0.0131914
0.0130735
0.0129515
0.012832
0.0127153
0.0126005
0.0124779
0.0123575
0.0122404
0.0121275
0.0120106
0.0118908
0.0117673
0.0116457
0.0115243
0.0114039
0.0112805
0.0111513
0.0110247
0.0108997
0.0107697
0.0106363
0.0104985
0.0103582
0.0102118
0.0100622
0.00990952
0.00975765
0.00960437
0.00945197
0.00929827
0.00914496
0.00899072
0.00883784
0.00868532
0.00853414
0.00838257
0.00823088
0.0080779
0.00792243
0.00776136
0.00758677
0.00739587
0.00718865
0.00696372
0.00671885
0.00645138
0.00615713
0.00583113
0.0054691
0.00506858
0.00463131
0.00416616
0.00368778
0.0032155
0.00276812
0.00236309
0.0145349
0.0144182
0.0143082
0.0141946
0.0140771
0.0139481
0.0138186
0.0136854
0.0135614
0.0134372
0.0133086
0.0131785
0.0130561
0.0129357
0.0128148
0.0126858
0.01256
0.0124293
0.0123034
0.0121803
0.0120479
0.0119128
0.0117809
0.0116495
0.0115122
0.0113667
0.0112202
0.0110677
0.0109097
0.0107477
0.0105865
0.0104284
0.0102693
0.0101129
0.00995671
0.00980212
0.00964794
0.00950035
0.00935489
0.00921437
0.0090725
0.00893243
0.00879131
0.00864806
0.00850112
0.00834598
0.00817285
0.00798331
0.00778055
0.00756709
0.00733445
0.00708381
0.006804
0.00649583
0.00614932
0.00576764
0.00534344
0.00488784
0.00440436
0.00390868
0.00342102
0.000315481
0.000310889
0.000305865
0.00030045
0.000294854
0.000289177
0.000283584
0.00027828
0.000273426
0.000269134
0.000265469
0.000262482
0.000260127
0.000258327
0.000257016
0.000256116
0.000255528
0.000255168
0.000254991
0.000254963
0.000255042
0.000255206
0.000255448
0.000255748
0.000256095
0.000256497
0.000256953
0.000257458
0.000258004
0.000258596
0.000259225
0.000259889
0.000260582
0.000261302
0.000262031
0.000262768
0.000263506
0.000264231
0.00026492
0.000265567
0.000266173
0.000266719
0.000267197
0.000267615
0.00026796
0.00026823
0.000268449
0.000268643
0.000268819
0.000268978
0.000269155
0.000269384
0.000269644
0.000269954
0.00027032
0.000270746
0.000271191
0.000271618
0.000272036
0.000272438
0.000272785
0.000935603
0.000990991
0.00103441
0.00106041
0.00107116
0.00107082
0.00105702
0.0010307
0.000994364
0.000950217
0.000900518
0.000848628
0.000797141
0.000748044
0.000701834
0.000660075
0.000624232
0.000594509
0.000570457
0.000551485
0.000536798
0.000525595
0.000517145
0.000510839
0.000506323
0.000503137
0.000501162
0.00050016
0.000500002
0.000500555
0.000501699
0.000503314
0.000505267
0.00050741
0.000509611
0.000511729
0.00051361
0.00051512
0.0005161
0.000516402
0.000515883
0.000514405
0.000511844
0.000508083
0.00050305
0.000496732
0.000489194
0.000480609
0.000471245
0.00046152
0.000451946
0.000443107
0.000435567
0.000429791
0.000426149
0.000424768
0.000425616
0.000428462
0.000433018
0.000438789
0.000445177
0.00107617
0.00124807
0.0014167
0.00156619
0.00166559
0.00174307
0.00179571
0.00181858
0.00181578
0.00179047
0.00174374
0.00168008
0.00160352
0.00151767
0.00142478
0.00132962
0.0012385
0.00115582
0.00108315
0.00102257
0.00097425
0.000937177
0.000909725
0.000890013
0.000876304
0.000867503
0.000862517
0.000860665
0.000861314
0.000863928
0.000868086
0.000873299
0.000879071
0.000884915
0.000890329
0.000894874
0.0008981
0.000899582
0.000898899
0.000895686
0.000889637
0.000880552
0.00086831
0.000852947
0.000834543
0.000813356
0.000789732
0.000764169
0.000737269
0.000709896
0.000683177
0.000658461
0.000637378
0.000621483
0.000612312
0.000610897
0.000617902
0.000633402
0.000657119
0.000688386
0.00072625
0.000955588
0.00115206
0.00138028
0.0016179
0.0018339
0.00202872
0.00220748
0.00233506
0.00242268
0.00248003
0.00250379
0.00249696
0.00246409
0.0024069
0.00232714
0.00222814
0.00211415
0.00199683
0.0018823
0.00177701
0.00168556
0.00161103
0.00155374
0.0015122
0.00148387
0.00146673
0.00145876
0.00145849
0.00146445
0.00147538
0.00149028
0.00150811
0.00152769
0.00154781
0.00156734
0.00158519
0.00160024
0.00161142
0.00161768
0.00161804
0.00161161
0.00159772
0.00157589
0.0015459
0.00150775
0.00146188
0.00140898
0.00135006
0.00128619
0.00121906
0.00115077
0.00108411
0.00102255
0.000970391
0.000932508
0.000913289
0.00091543
0.000939719
0.000985709
0.00105169
0.00113431
0.00087482
0.000998591
0.00118337
0.00141975
0.00168428
0.00195652
0.00222185
0.00245684
0.00265773
0.00283225
0.00295926
0.00303929
0.00308738
0.00310243
0.00308687
0.00304537
0.0029796
0.00289092
0.00279184
0.00269049
0.00259258
0.00250525
0.00243348
0.00237927
0.00234206
0.0023207
0.0023137
0.0023196
0.0023364
0.00236223
0.00239559
0.00243485
0.00247808
0.00252323
0.00256838
0.0026116
0.00265097
0.00268461
0.00271058
0.00272702
0.00273219
0.00272473
0.00270336
0.00266725
0.00261567
0.00254882
0.002467
0.00237116
0.00226252
0.00214295
0.00201498
0.00188246
0.00175027
0.00162536
0.00151749
0.00143876
0.0013981
0.00139858
0.00144148
0.00152116
0.00162644
0.000981709
0.000991514
0.0010689
0.00121575
0.00142675
0.00168932
0.0019843
0.00228484
0.00257025
0.00282994
0.00305064
0.0032296
0.00337749
0.00347733
0.00353523
0.00356804
0.0035757
0.00356197
0.00353365
0.00349447
0.0034513
0.00340862
0.00337137
0.00334409
0.00332886
0.00332675
0.00333863
0.00336482
0.00340406
0.00345451
0.00351485
0.00358321
0.00365728
0.0037344
0.00381202
0.00388744
0.00395811
0.00402131
0.00407427
0.00411432
0.00413887
0.00414594
0.00413346
0.00409993
0.00404368
0.00396455
0.00386205
0.00373669
0.00358897
0.00342049
0.0032332
0.00303073
0.00281787
0.00260179
0.00239441
0.00221465
0.00207582
0.00199421
0.00198012
0.00203185
0.00213678
0.00134718
0.00121929
0.00116352
0.00118194
0.00127537
0.00144209
0.00167503
0.00195823
0.0022693
0.00258408
0.00287958
0.00314129
0.00336499
0.00354506
0.00368601
0.0038035
0.00388292
0.00393665
0.00398123
0.00401924
0.00406097
0.00410472
0.00415016
0.00419747
0.00424834
0.00430423
0.00436782
0.00444134
0.00452476
0.00461692
0.00471729
0.00482437
0.00493619
0.00505012
0.00516355
0.00527364
0.00537736
0.00547149
0.00555257
0.00561736
0.0056627
0.00568609
0.00568506
0.0056577
0.00560144
0.00551556
0.0053988
0.00525116
0.00507256
0.0048638
0.00462598
0.00436168
0.004074
0.00376804
0.00345375
0.00314951
0.00287987
0.00267639
0.00256587
0.00255813
0.00264059
0.00201417
0.00173225
0.00152431
0.00139479
0.00134546
0.00137654
0.00148656
0.0016705
0.00191802
0.00221155
0.0025274
0.00284146
0.0031356
0.00339555
0.00361687
0.00380281
0.00395471
0.00408004
0.00419662
0.00428983
0.00439897
0.00451776
0.00464622
0.00478315
0.0049284
0.00507842
0.00523041
0.00538332
0.00553952
0.00569791
0.00585827
0.00601898
0.00617881
0.00633637
0.00648966
0.0066365
0.00677422
0.00689926
0.00700773
0.00709591
0.00716118
0.00719992
0.00720999
0.00718948
0.00713522
0.00704524
0.00691853
0.00675322
0.00654985
0.00630792
0.00602826
0.00571143
0.00535829
0.004972
0.00455783
0.00413321
0.00372866
0.00339205
0.00316873
0.00308536
0.00313196
0.00295633
0.00253722
0.00217875
0.00189088
0.00168366
0.00156077
0.00152328
0.00156871
0.00169307
0.00188893
0.00214272
0.00243738
0.00275362
0.00307029
0.00336959
0.00364495
0.00388228
0.00408226
0.00424839
0.00438981
0.00455994
0.0047232
0.00489879
0.00509388
0.00531427
0.00555337
0.00580531
0.00606158
0.00631524
0.00656459
0.00680839
0.00704239
0.00726383
0.00747598
0.00767578
0.00786408
0.00803917
0.0081975
0.00833433
0.0084451
0.00853139
0.00858397
0.00860533
0.0085917
0.00854201
0.00844983
0.00831839
0.00813739
0.00791501
0.00764459
0.00733198
0.00697137
0.00656192
0.00610906
0.0056103
0.00508139
0.00455731
0.0041009
0.00376955
0.00360968
0.00361325
0.00520717
0.0189337
0.0192456
0.00182312
0.00537794
0.00704574
0.0012501
0.0060629
0.00128988
0.00334512
0.0105328
0.0146999
0.00124988
0.0133424
0.0066127
0.0191185
0.00126352
0.0064598
0.00996353
0.00125343
0.00180338
0.0131389
0.0185967
0.00127734
0.00127969
0.00472223
0.00125321
0.00316256
0.00126001
0.00131447
0.00694278
0.00127755
0.00272949
0.00869793
0.0139062
0.0092472
0.0080463
0.0136512
0.0012467
0.0137558
0.00494086
0.0135761
0.00124682
0.0188754
0.00530581
0.00988438
0.00134813
0.00238638
0.00131306
0.0148895
0.0109265
0.0155994
0.00124447
0.00143733
0.00200534
0.000196643
0.00131203
0.00480367
0.00887252
0.0181035
0.00414922
0.00135667
0.00118975
0.00364305
0.0195588
0.00713321
0.00912633
0.00451899
0.00148389
0.00124254
0.0136389
0.013688
0.00477909
0.000497451
0.00274264
0.0184368
0.0190627
0.0164271
0.00124201
0.0142615
0.00193662
0.0128798
0.000815631
0.0179916
0.00124255
0.0116418
0.00128568
0.0120594
0.0017823
0.00158808
0.00548806
0.00124147
0.00137907
0.0174622
0.0193702
0.00134086
0.0108832
0.00432084
0.00177898
0.0190674
0.00362235
0.018667
0.00810343
0.00124103
0.00124185
0.00124353
0.00579937
0.00666456
0.00126399
0.0195325
0.018782
0.00163057
0.00804117
0.00778208
0.00550253
0.0123998
0.0101464
0.001405
0.00590951
0.00142286
0.00105241
0.00566649
0.00154532
0.0172191
0.013193
0.00325954
0.00124627
0.0126696
0.0132364
0.0012464
0.00349811
0.00372696
0.00296594
0.00154641
0.0131382
0.00124573
0.00124186
0.0136748
0.0160956
0.00125326
0.00311142
0.0194697
0.00425193
0.00903252
0.00830455
0.0170345
0.000475063
0.00891737
0.00249861
0.0166395
0.0126694
0.000199491
0.0137349
0.0179153
0.0194148
0.00128418
0.00126872
0.00813706
0.00125548
0.0082932
0.000730792
0.00162135
0.00124362
0.00124748
0.00124291
0.0168985
0.00430161
0.00647061
0.00129141
0.0146519
0.00694673
0.00224482
0.0129107
0.00254218
0.00754221
0.0057132
0.0114803
0.00125969
0.00171087
0.00401972
0.0124117
0.0139226
0.0173767
0.00124788
0.00132611
0.00899138
0.00393147
0.0115535
0.00124469
0.0013483
0.00568807
0.00129803
0.0167897
0.00990089
0.00125441
0.00850164
0.00338643
0.0189969
0.00151534
0.00637015
0.00124767
0.00125366
0.0190901
0.014974
0.0161793
0.00152352
0.00129494
0.00184036
0.0155219
0.00571447
0.0103924
0.0190688
0.0152117
0.0186246
0.00398611
0.0185857
0.0180356
0.0135824
0.0152199
0.0123978
0.00148695
0.00418784
0.00125157
0.00126983
0.0105401
0.00295502
0.00310327
0.00148072
0.00246732
0.0138834
0.00974154
0.00288614
0.0192672
0.0134353
0.00475992
0.00124495
0.00442415
0.0169964
0.0126325
0.00145056
0.00903588
0.00352364
0.00349123
0.00273163
0.0176546
0.00714321
0.00440746
0.0189764
0.00138897
0.0012422
0.00142535
0.00231592
0.0095958
0.00129618
0.00152325
0.00124565
0.00746045
0.0184442
0.0186749
0.0138167
0.012465
0.0157963
0.0164553
0.00148801
0.00809613
0.0184663
0.00124612
0.00415019
0.00124266
0.00441371
0.00739373
0.00405443
0.00165392
0.00124636
0.0152944
0.00314776
0.00124291
0.00125565
0.00125878
0.00126154
0.00978446
0.00652388
0.0169771
0.00180012
0.00124286
0.00124387
0.00124133
0.018477
0.00403677
0.00150776
0.0124198
0.00594504
0.00158649
0.00124275
0.00794912
0.00124266
0.0020792
0.00410515
0.00742911
0.00269555
0.00140948
0.00172913
0.0160913
0.00492645
0.00267414
0.0163242
0.00131665
0.00124339
0.00124547
0.0189442
0.00127524
0.0149868
0.00124535
0.0132195
0.0108764
0.00272483
0.00544749
0.00583038
0.00154607
0.0133826
0.0128286
0.00275842
0.021708
0.0112233
0.016226
0.0141684
0.0187195
0.00828575
0.018585
0.00471371
0.00654914
0.016347
0.017573
0.0129418
0.0123493
0.0014041
0.0165324
0.00528843
0.0182352
0.0036226
0.00133388
0.0012466
0.00129933
0.00399728
0.0101862
0.00691386
0.00610273
0.0012489
0.0195367
0.00124617
0.00725763
0.0135197
0.0189966
0.0139194
0.0151676
0.00165831
0.00147278
0.00148608
0.00801973
0.00218764
0.00611673
0.00942513
0.0105508
0.0175457
0.0185203
0.0160807
0.00131357
0.0173618
0.0193719
0.00283708
0.00125444
0.0195247
0.0195536
0.00127886
0.0116723
0.00125544
0.0108198
0.0158088
0.0113243
0.018385
0.00490313
0.0194659
0.00127538
0.0194363
0.00139118
0.0174469
0.0169086
0.0116385
0.0174589
0.0125222
0.0082914
0.0104515
0.0014701
0.00376935
0.00120943
0.00205447
0.00128062
0.00718945
0.00138456
0.0176528
0.00124343
0.00125593
0.00176452
0.00903677
0.00507528
0.0131722
0.00148042
0.0185166
0.00775406
0.0191329
0.00618996
0.015599
0.0105554
0.00129844
0.017441
0.0170245
0.00125023
0.0168442
0.0139607
0.00124365
0.00124175
0.00881655
0.0018356
0.0125012
0.00149565
0.00640679
0.00364988
0.00904239
0.0153102
0.0173962
0.0150236
0.0169407
0.0173467
0.00140394
0.00123611
0.00891288
0.0124366
0.0158838
0.011324
0.0190283
0.00452591
0.0191114
0.0191128
0.00638261
0.00302072
0.0155677
0.0140065
0.00132376
0.0173709
0.0147434
0.0014482
0.0193803
0.0160442
0.0156708
0.00342015
0.00459561
0.0130057
0.00166082
0.0160632
0.00153829
0.00344005
0.00125175
0.0109777
0.00290086
0.00858344
0.001567
0.00136568
0.00855399
0.00875659
0.00163145
0.00281063
0.0107299
0.00277257
0.00131056
0.0157019
0.00906208
0.0130529
0.00786026
0.00352756
0.0119965
0.01612
0.0173112
0.00635837
0.012092
0.0168078
0.00611521
0.0152973
0.0192503
0.000418444
0.00594272
0.0122324
0.0012966
0.0032982
0.00804722
0.0125617
0.00278035
0.0212713
0.00430625
0.00993676