/*--------------------------------*- C++ -*----------------------------------*\
| =========                 |                                                 |
| \\      /  F ield         | OpenFOAM: The Open Source CFD Toolbox           |
|  \\    /   O peration     | Version:  2.3.1                                 |
|   \\  /    A nd           | Web:      www.OpenFOAM.org                      |
|    \\/     M anipulation  |                                                 |
\*---------------------------------------------------------------------------*/
FoamFile
{
    version     2.0;
    format      ascii;
    class       surfaceScalarField;
    location    "0.92";
    object      phi;
}
// * * * * * * * * * * * * * * * * * * * * * * * * * * * * * * * * * * * * * //

dimensions      [0 3 -1 0 0 0 0];

internalField   nonuniform List<scalar> 
15416
(
-0.000695661
-2.45289e-06
0.000701095
-0.000692925
-2.73636e-06
-0.000690426
-2.5002e-06
-0.000689005
-1.42099e-06
-0.000688914
-9.01935e-08
-0.000690477
1.56411e-06
-0.000694428
3.95181e-06
-0.000700919
6.49239e-06
-0.000710183
9.26483e-06
-0.000722519
1.2338e-05
-0.000738318
1.58e-05
-0.000757779
1.94634e-05
-0.000781029
2.32516e-05
-0.000808141
2.71146e-05
-0.000839206
3.10671e-05
-0.000874144
3.49412e-05
-0.000912772
3.8631e-05
-0.000954887
4.21175e-05
-0.00100035
4.54655e-05
-0.00104884
4.84931e-05
-0.00110009
5.12609e-05
-0.00115387
5.37797e-05
-0.00120981
5.59453e-05
-0.00126755
5.77509e-05
-0.00132686
5.93162e-05
-0.0013875
6.06439e-05
-0.00144916
6.16756e-05
-0.00151155
6.23915e-05
-0.00157443
6.28896e-05
-0.00163763
6.32112e-05
-0.00170087
6.32453e-05
-0.00176393
6.30746e-05
-0.00182673
6.28117e-05
-0.00188903
6.23118e-05
-0.00195064
6.16185e-05
-0.0020115
6.08742e-05
-0.00207151
6.00206e-05
-0.00213049
5.89869e-05
-0.0021882
5.77284e-05
-0.00224465
5.64539e-05
-0.0022998
5.51648e-05
-0.00235349
5.36986e-05
-0.00240559
5.21157e-05
-0.00245616
5.05777e-05
-0.00250491
4.87616e-05
-0.00255182
4.69197e-05
-0.00259699
4.51867e-05
-0.00264044
4.34553e-05
-0.00268194
4.15051e-05
-0.00272151
3.95781e-05
-0.00275904
3.75431e-05
-0.00279473
3.56934e-05
-0.00282807
3.33512e-05
-0.00285953
3.14652e-05
-0.0028889
2.93718e-05
-0.00291653
2.76382e-05
-0.00294149
2.49581e-05
-0.00296419
2.26983e-05
-0.00298498
2.07953e-05
-0.00300403
1.90528e-05
1.73491e-05
-0.00302138
-0.000395995
-3.57953e-06
0.00039712
-0.000397185
-1.54745e-06
-0.000401044
1.35823e-06
-0.000408018
5.55118e-06
-0.000419583
1.14737e-05
-0.000435026
1.70062e-05
-0.000454436
2.33589e-05
-0.00047766
2.97144e-05
-0.000505257
3.68594e-05
-0.000536771
4.38488e-05
-0.000572373
5.13995e-05
-0.000611922
5.90094e-05
-0.000655316
6.66429e-05
-0.000702435
7.42308e-05
-0.00075299
8.16193e-05
-0.000806849
8.87979e-05
-0.000863758
9.55376e-05
-0.000923511
0.000101868
-0.000985759
0.000107712
-0.0010503
0.000113037
-0.00111693
0.000117888
-0.00118521
0.000122058
-0.00125495
0.000125685
-0.00132594
0.000128736
-0.00139786
0.000131239
-0.00147049
0.000133265
-0.00154347
0.000134664
-0.00161678
0.000135694
-0.00169009
0.0001362
-0.00176309
0.000136209
-0.00183578
0.000135944
-0.00190802
0.000135307
-0.00197939
0.000134189
-0.00204989
0.000132806
-0.0021195
0.000131228
-0.00218783
0.000129212
-0.00225493
0.000127116
-0.00232064
0.000124702
-0.00238497
0.000122056
-0.0024477
0.000119186
-0.00250853
0.000116
-0.00256775
0.000112917
-0.00262516
0.000109523
-0.00268049
0.000105909
-0.00273391
0.00010219
-0.00278525
9.82553e-05
-0.00283456
9.45007e-05
-0.00288142
9.03166e-05
-0.00292622
8.63066e-05
-0.00296884
8.2203e-05
-0.00300935
7.805e-05
-0.00304803
7.43738e-05
-0.00308325
6.85753e-05
-0.00311778
6.59974e-05
-0.0031485
6.00946e-05
-0.00317767
5.68137e-05
-0.0032025
4.97876e-05
-0.00322716
4.73531e-05
-0.00324953
4.31683e-05
-0.00326973
3.92536e-05
3.32085e-05
-0.00328558
-0.000251863
2.8957e-06
0.000245387
-0.000261854
8.44376e-06
-0.00027622
1.57248e-05
-0.00029513
2.44617e-05
-0.00031775
3.40945e-05
-0.000344973
4.42282e-05
-0.000376317
5.47015e-05
-0.000412028
6.5424e-05
-0.000451993
7.68231e-05
-0.000496296
8.81489e-05
-0.000544659
9.97602e-05
-0.00059671
0.000111058
-0.000652573
0.000122504
-0.00071188
0.000133535
-0.000774435
0.000144172
-0.000839963
0.000154324
-0.00090825
0.000163822
-0.000979024
0.00017264
-0.00105197
0.000180657
-0.00112693
0.000187998
-0.00120346
0.00019441
-0.00128146
0.000200061
-0.00136065
0.00020487
-0.00144075
0.000208843
-0.00152149
0.000211975
-0.00160261
0.000214389
-0.00168397
0.000216014
-0.00176527
0.000216998
-0.00184625
0.000217176
-0.001927
0.00021696
-0.00200706
0.000216001
-0.00208621
0.000214464
-0.00216466
0.000212638
-0.00224193
0.00021007
-0.00231792
0.000207216
-0.00239259
0.000203886
-0.00246577
0.000200302
-0.00253732
0.00019625
-0.00260719
0.000191925
-0.00267528
0.000187271
-0.00274162
0.000182344
-0.00280566
0.000176962
-0.00286779
0.000171646
-0.00292773
0.000165858
-0.0029855
0.000159956
-0.0030411
0.000153858
-0.00309429
0.00014769
-0.00314518
0.000141211
-0.00319352
0.000134652
-0.00324006
0.000128745
-0.00328291
0.0001209
-0.00332317
0.000114634
-0.0033618
0.000107208
-0.00339813
0.00010233
-0.00343231
9.42758e-05
-0.00346221
8.67142e-05
-0.00349195
7.95294e-05
-0.00351736
7.27736e-05
-0.00354055
6.63547e-05
-0.00355946
5.81725e-05
5.2014e-05
-0.00357827
-0.000181956
1.66816e-05
0.00016817
-0.000200403
2.68915e-05
-0.000223399
3.87225e-05
-0.000250803
5.18662e-05
-0.000282638
6.59304e-05
-0.000318999
8.05889e-05
-0.000359771
9.54725e-05
-0.000405273
0.000110925
-0.000455065
0.000126614
-0.000509232
0.000142313
-0.000567339
0.000157866
-0.000629567
0.000173284
-0.000695498
0.000188432
-0.000764718
0.000202753
-0.000837171
0.000216622
-0.000912507
0.000229658
-0.000990444
0.000241757
-0.00107069
0.000252879
-0.00115302
0.000262983
-0.00123702
0.000272002
-0.00132269
0.000280073
-0.00140951
0.000286885
-0.00149741
0.000292759
-0.00158604
0.000297471
-0.00167522
0.000301158
-0.00176454
0.000303707
-0.00185389
0.000305364
-0.00194308
0.000306181
-0.00203196
0.000306057
-0.00212007
0.000305063
-0.00220748
0.000303412
-0.00229406
0.000301049
-0.00237929
0.000297865
-0.00246337
0.000294148
-0.00254609
0.000289935
-0.00262729
0.000285083
-0.00270665
0.000279652
-0.00278432
0.000273924
-0.0028601
0.000267699
-0.00293401
0.000261179
-0.00300562
0.000253957
-0.00307532
0.000246663
-0.00314246
0.000238779
-0.00320738
0.000230782
-0.00326981
0.000222386
-0.00332974
0.000213787
-0.00338712
0.000205069
-0.00344224
0.000196335
-0.00349402
0.000186422
-0.00354325
0.000177976
-0.00359107
0.000168721
-0.00363479
0.00015836
-0.0036763
0.000148713
-0.00371368
0.000139711
-0.0037507
0.000131295
-0.00378358
0.000119593
-0.00381419
0.000110142
-0.00384256
0.000101141
-0.00386672
9.05229e-05
-0.00388864
8.00904e-05
6.97316e-05
-0.00390636
-0.000149982
3.75097e-05
0.000129154
-0.000175082
5.1992e-05
-0.00020495
6.85921e-05
-0.00023963
8.65464e-05
-0.000279101
0.000105402
-0.000323519
0.000125007
-0.000373021
0.000144974
-0.000427068
0.000164971
-0.000485874
0.000185419
-0.000549054
0.000205491
-0.000616637
0.000225447
-0.000688312
0.000244956
-0.000763555
0.000263673
-0.000842398
0.000281593
-0.000924638
0.00029886
-0.00100928
0.000314292
-0.00109661
0.000329086
-0.0011862
0.000342467
-0.00127767
0.000354458
-0.00137089
0.000365213
-0.00146549
0.000374669
-0.00156135
0.000382752
-0.00165809
0.000389491
-0.00175542
0.000394803
-0.00185298
0.000398712
-0.00195083
0.000401551
-0.00204846
0.000402994
-0.00214572
0.000403442
-0.00224244
0.000402769
-0.00233849
0.000401111
-0.00243356
0.00039848
-0.00252741
0.0003949
-0.00262005
0.000390505
-0.00271131
0.000385403
-0.00280084
0.000379463
-0.00288859
0.000372834
-0.00297475
0.000365805
-0.00305877
0.000357937
-0.00314068
0.00034961
-0.00322028
0.000340774
-0.00329784
0.000331514
-0.00337285
0.000321673
-0.00344547
0.000311404
-0.00351546
0.000300766
-0.00358278
0.000289711
-0.00364807
0.000279073
-0.0037086
0.000265597
-0.00376707
0.000254803
-0.00382387
0.000243222
-0.00387671
0.000230814
-0.00392725
0.000219261
-0.00397559
0.000206698
-0.00401995
0.000193074
-0.00406205
0.000181812
-0.00409816
0.000167403
-0.00413381
0.000155243
-0.00416722
0.000143553
-0.00419644
0.000130362
-0.0042215
0.000115582
-0.00424629
0.000104879
9.03402e-05
-0.00426689
-0.000136812
6.47395e-05
0.000109582
-0.000168714
8.38945e-05
-0.000205458
0.000105337
-0.000247608
0.000128698
-0.000295068
0.000152863
-0.000347663
0.000177602
-0.000405392
0.000202703
-0.000468398
0.000227977
-0.000536166
0.000253187
-0.000608904
0.000278228
-0.000686101
0.000302642
-0.000767288
0.000326142
-0.000852484
0.000348867
-0.000940893
0.00037
-0.00103232
0.000390288
-0.00112679
0.00040876
-0.0012238
0.000426087
-0.00132316
0.000441827
-0.0014242
0.000455498
-0.0015268
0.000467806
-0.00163088
0.000478752
-0.00173586
0.000487729
-0.00184177
0.000495395
-0.00194819
0.000501219
-0.00205487
0.000505388
-0.00216139
0.000508074
-0.00226771
0.000509307
-0.00237346
0.00050919
-0.00247853
0.000507837
-0.00258273
0.000505312
-0.00268583
0.000501573
-0.00278749
0.000496562
-0.00288777
0.000490777
-0.00298644
0.000484075
-0.0030832
0.000476214
-0.00317811
0.000467748
-0.00327087
0.000458559
-0.00336147
0.000448538
-0.0034499
0.000438033
-0.00353605
0.000426923
-0.00361943
0.000414894
-0.00370032
0.000402566
-0.00377838
0.000389452
-0.00385319
0.000375574
-0.00392546
0.000361979
-0.00399507
0.000348684
-0.00406264
0.000333162
-0.00412617
0.000318333
-0.00418573
0.000302782
-0.00424302
0.000288105
-0.00429633
0.000272571
-0.00434557
0.000255928
-0.00439433
0.000241841
-0.0044373
0.000224776
-0.00447984
0.000209942
-0.00451825
0.000193657
-0.00455052
0.000175815
-0.00458048
0.000160325
-0.00461022
0.000145326
-0.00463391
0.000128562
0.00011181
-0.00465538
-0.000137101
9.82011e-05
0.00010364
-0.000175924
0.000122718
-0.000220213
0.000149626
-0.000270333
0.000178818
-0.000325878
0.000208409
-0.000387264
0.000238989
-0.000454139
0.000269578
-0.000526246
0.000300084
-0.000603831
0.000330772
-0.000685983
0.000360379
-0.000773097
0.000389755
-0.000864546
0.000417589
-0.000959624
0.000443943
-0.00105806
0.000468438
-0.00116017
0.000492392
-0.00126503
0.000513615
-0.00137206
0.000533122
-0.00148145
0.00055121
-0.00159249
0.000566533
-0.0017052
0.000580517
-0.00181915
0.000592697
-0.001934
0.000602578
-0.00204974
0.000611132
-0.00216581
0.000617291
-0.0022819
0.000621467
-0.00239784
0.000624012
-0.00251307
0.000624537
-0.00262791
0.000624026
-0.00274191
0.000621832
-0.00285459
0.000617993
-0.00296618
0.000613161
-0.00307622
0.000606595
-0.00318427
0.000598823
-0.00329068
0.000590486
-0.00339524
0.000580763
-0.00349737
0.000569875
-0.0035974
0.00055859
-0.00369493
0.000546068
-0.00378991
0.000533015
-0.00388232
0.00051933
-0.00397217
0.000504733
-0.00405843
0.000488828
-0.00414241
0.000473432
-0.00422324
0.000456396
-0.00430131
0.000440048
-0.00437538
0.000422755
-0.00444556
0.00040334
-0.00451333
0.000386093
-0.00457879
0.000368239
-0.00463849
0.000347812
-0.00469595
0.000330029
-0.00475114
0.000311111
-0.00480055
0.00029125
-0.00484785
0.00027208
-0.00489112
0.000253211
-0.00493016
0.000232694
-0.00496869
0.000214346
-0.00500111
0.000192741
-0.00502955
0.000173763
-0.005054
0.000153015
0.000134026
-0.00507621
-0.000148219
0.000138065
0.000108354
-0.000194347
0.000168846
-0.000246477
0.000201758
-0.000305421
0.000237762
-0.000370151
0.00027314
-0.000440743
0.000309583
-0.000517323
0.000346159
-0.000598969
0.00038173
-0.000686753
0.000418556
-0.000779259
0.000452884
-0.000877423
0.000487918
-0.000979297
0.000519463
-0.00108591
0.00055055
-0.0011949
0.000577428
-0.0013074
0.000604895
-0.00142349
0.000629704
-0.00154156
0.000651186
-0.00166175
0.000671403
-0.00178406
0.000688838
-0.00190676
0.000703208
-0.00203152
0.000717461
-0.00215652
0.000727576
-0.00228301
0.000737613
-0.00240964
0.000743916
-0.00253571
0.000747541
-0.00266188
0.000750172
-0.00278657
0.000749224
-0.00291084
0.000748291
-0.00303433
0.000745321
-0.00315574
0.0007394
-0.00327648
0.0007339
-0.00339541
0.000725524
-0.00351168
0.000715088
-0.00362636
0.000705164
-0.00373923
0.000693624
-0.00384873
0.000679371
-0.00395621
0.00066607
-0.00406101
0.000650865
-0.0041624
0.000634403
-0.00426152
0.000618443
-0.00435816
0.000601377
-0.00445194
0.0005826
-0.00454007
0.000561556
-0.00462746
0.00054378
-0.00470982
0.000522413
-0.00478779
0.000500721
-0.00486544
0.000480978
-0.00493677
0.000457425
-0.00500453
0.000435995
-0.00506943
0.00041271
-0.00512922
0.000389815
-0.00518634
0.000368233
-0.00523949
0.000344394
-0.00529088
0.000323475
-0.00533667
0.000299
-0.00537971
0.000275733
-0.00541676
0.000251389
-0.00544909
0.000225079
-0.00547972
0.000204389
-0.00550682
0.00018011
0.000156682
-0.00552947
-0.00016788
0.00012237
0.000183579
-0.000222546
0.000223521
-0.0002819
0.00026112
-0.00035121
0.000307082
-0.000425112
0.000347051
-0.000505999
0.000390477
-0.000593145
0.000433314
-0.000683818
0.000472409
-0.000784277
0.00051902
-0.000886045
0.000554656
-0.00099767
0.000599547
-0.00110945
0.000631242
-0.00123092
0.000672021
-0.00134849
0.000695005
-0.00147371
0.000730114
-0.0016025
0.000758495
-0.00173029
0.000778971
-0.00186392
0.00080504
-0.00199755
0.00082246
-0.00213052
0.000836176
-0.00227007
0.000857012
-0.00240373
0.000861242
-0.00254274
0.00087662
-0.00268097
0.000882145
-0.00281728
0.000883848
-0.0029561
0.000888992
-0.0030893
0.00088242
-0.0032242
0.000883189
-0.00335889
0.000880006
-0.00348829
0.000868799
-0.00361957
0.000865185
-0.00374759
0.000853545
-0.00387213
0.000839623
-0.00399554
0.000828573
-0.00411887
0.000816947
-0.00423395
0.000794449
-0.00435071
0.000782831
-0.00446292
0.000763077
-0.00457034
0.000741818
-0.0046783
0.000726406
-0.00477824
0.00070131
-0.0048789
0.00068326
-0.00497356
0.000656209
-0.00506489
0.000635107
-0.00515525
0.000612775
-0.00523812
0.00058359
-0.00531981
0.000562659
-0.0053944
0.00053202
-0.00546699
0.000508579
-0.00553334
0.000479063
-0.00559966
0.000456135
-0.00565894
0.000427511
-0.00571512
0.000400568
-0.00576736
0.000375713
-0.00581724
0.000348883
-0.00585924
0.000317728
-0.00589969
0.000291846
-0.00593362
0.000259002
-0.0059649
0.000235675
-0.00599272
0.000207929
-0.00601483
0.000178794
-0.00303515
1.37737e-05
-0.00304709
1.19371e-05
-0.00305734
1.02469e-05
-0.00306571
8.3689e-06
-0.00307182
6.11001e-06
-0.00307531
3.48904e-06
-0.00307706
1.74488e-06
-0.00307671
-3.50407e-07
-0.00307438
-2.33778e-06
-0.0030696
-4.77553e-06
-0.00306294
-6.67006e-06
-0.00305424
-8.71023e-06
-0.00304345
-1.07883e-05
-0.0030306
-1.28567e-05
-0.00301599
-1.46189e-05
-0.00299953
-1.64672e-05
-0.00298104
-1.84969e-05
-0.0029605
-2.05493e-05
-0.00293825
-2.2258e-05
-0.00291412
-2.41433e-05
-0.00288819
-2.5942e-05
-0.00286062
-2.75716e-05
-0.00283131
-2.93223e-05
-0.00280015
-3.11615e-05
-0.00276735
-3.28063e-05
-0.00273316
-3.42e-05
-0.00269731
-3.58623e-05
-0.00265978
-3.75384e-05
-0.0026207
-3.90842e-05
-0.00258024
-4.04706e-05
-0.00253828
-4.19672e-05
-0.00249487
-4.34196e-05
-0.0024502
-4.46729e-05
-0.00240421
-4.59934e-05
-0.00235689
-4.7328e-05
-0.0023084
-4.84935e-05
-0.00225882
-4.9592e-05
-0.0022081
-5.07233e-05
-0.00215618
-5.19279e-05
-0.00210322
-5.29677e-05
-0.00204935
-5.38665e-05
-0.00199455
-5.48047e-05
-0.00193883
-5.5729e-05
-0.00188235
-5.64845e-05
-0.00182497
-5.73858e-05
-0.00176677
-5.81999e-05
-0.00170794
-5.88346e-05
-0.00164856
-5.93843e-05
-0.0015885
-6.00552e-05
-0.00152788
-6.06252e-05
-0.00146681
-6.1076e-05
-0.0014054
-6.14123e-05
-0.00134346
-6.1933e-05
-0.00128131
-6.21574e-05
-0.00121891
-6.23971e-05
-0.00115649
-6.24257e-05
-0.00109377
-6.27207e-05
-0.00103099
-6.2779e-05
-0.000968335
-6.26571e-05
-0.000905876
-6.24594e-05
-6.22225e-05
-0.000843654
-0.00330132
2.95081e-05
-0.00331242
2.30411e-05
-0.00332153
1.93604e-05
-0.00332842
1.52614e-05
-0.00333518
1.28659e-05
-0.00333772
6.04119e-06
-0.00333873
2.75019e-06
-0.00333593
-3.1438e-06
-0.0033325
-5.77089e-06
-0.00332546
-1.1809e-05
-0.00331659
-1.5546e-05
-0.00330541
-1.98885e-05
-0.00329214
-2.405e-05
-0.00327702
-2.79843e-05
-0.00325942
-3.22153e-05
-0.00323977
-3.61157e-05
-0.00321798
-4.02852e-05
-0.00319423
-4.42977e-05
-0.00316824
-4.82449e-05
-0.00314031
-5.20744e-05
-0.0031106
-5.56513e-05
-0.00307868
-5.9494e-05
-0.00304483
-6.31713e-05
-0.00300922
-6.67697e-05
-0.00297177
-7.02594e-05
-0.00293246
-7.35094e-05
-0.00289133
-7.69897e-05
-0.0028487
-8.01664e-05
-0.00280439
-8.33943e-05
-0.00275824
-8.66198e-05
-0.00271065
-8.95569e-05
-0.00266167
-9.2408e-05
-0.00261099
-9.53461e-05
-0.00255888
-9.81065e-05
-0.00250553
-0.000100677
-0.00245068
-0.000103344
-0.00239454
-0.000105737
-0.00233713
-0.000108131
-0.00227861
-0.000110445
-0.00221892
-0.000112664
-0.00215792
-0.000114865
-0.00209601
-0.000116718
-0.00203313
-0.000118611
-0.00196917
-0.000120443
-0.00190438
-0.000122177
-0.00183871
-0.000123874
-0.00177227
-0.000125272
-0.00170491
-0.00012675
-0.00163696
-0.000128001
-0.00156842
-0.000129171
-0.0014993
-0.000130198
-0.00142982
-0.000130893
-0.00135936
-0.000132393
-0.00128915
-0.00013237
-0.001218
-0.000133546
-0.00114687
-0.000133558
-0.00107493
-0.000134666
-0.0010036
-0.000134108
-0.000932218
-0.000134039
-0.00086085
-0.000133829
-0.000134028
-0.000789046
-0.00359271
4.39495e-05
-0.0036073
3.76369e-05
-0.00361741
2.94729e-05
-0.00362524
2.30939e-05
-0.00362878
1.64095e-05
-0.0036324
9.66214e-06
-0.00363166
2.01846e-06
-0.00362884
-5.96444e-06
-0.00362375
-1.08576e-05
-0.00361693
-1.86307e-05
-0.00360763
-2.48449e-05
-0.00359457
-3.29451e-05
-0.00357981
-3.88071e-05
-0.0035624
-4.5387e-05
-0.00354268
-5.19414e-05
-0.00352053
-5.82612e-05
-0.0034962
-6.46116e-05
-0.00346965
-7.08424e-05
-0.00344083
-7.70629e-05
-0.00341004
-8.28678e-05
-0.00337673
-8.89584e-05
-0.0033415
-9.4722e-05
-0.00330422
-0.000100448
-0.00326493
-0.000106057
-0.00322358
-0.00011161
-0.00318021
-0.000116881
-0.003135
-0.000122193
-0.00308789
-0.000127281
-0.0030388
-0.000132478
-0.00298827
-0.000137148
-0.00293585
-0.000141976
-0.00288162
-0.000146636
-0.00282609
-0.000150881
-0.00276884
-0.000155351
-0.00271003
-0.000159486
-0.00264981
-0.000163572
-0.00258811
-0.000167432
-0.00252499
-0.000171256
-0.00246057
-0.000174862
-0.00239491
-0.000178327
-0.00232816
-0.000181607
-0.00226001
-0.000184868
-0.00219091
-0.000187713
-0.00212072
-0.000190631
-0.00204957
-0.000193326
-0.00197754
-0.000195909
-0.00190457
-0.000198244
-0.00183079
-0.000200529
-0.00175618
-0.000202612
-0.00168121
-0.000204141
-0.00160495
-0.000206458
-0.0015281
-0.000207742
-0.00145112
-0.000209377
-0.00137377
-0.000209722
-0.00129614
-0.000211179
-0.00121759
-0.000212108
-0.00113963
-0.000212621
-0.00106098
-0.000212763
-0.000982357
-0.000212663
-0.000903316
-0.000212871
-0.000212418
-0.000824927
-0.0039238
6.13877e-05
-0.00393715
5.09851e-05
-0.00394821
4.05364e-05
-0.00395501
2.98928e-05
-0.00395961
2.10161e-05
-0.00396183
1.18792e-05
-0.00395958
-2.29987e-07
-0.00395742
-8.12165e-06
-0.00395119
-1.70889e-05
-0.00394295
-2.68739e-05
-0.00393043
-3.7362e-05
-0.0039167
-4.66724e-05
-0.00390045
-5.50542e-05
-0.00388077
-6.50697e-05
-0.00385888
-7.38322e-05
-0.00383443
-8.27098e-05
-0.00380747
-9.15753e-05
-0.00377796
-0.000100351
-0.00374621
-0.000108812
-0.00371176
-0.00011731
-0.00367536
-0.000125357
-0.00363643
-0.000133655
-0.0035954
-0.00014148
-0.00355213
-0.000149324
-0.00350683
-0.000156912
-0.00345914
-0.000164573
-0.00340941
-0.000171921
-0.00335773
-0.000178961
-0.00330424
-0.000185971
-0.00324848
-0.0001929
-0.00319103
-0.000199428
-0.00313192
-0.000205748
-0.00307076
-0.000212037
-0.00300807
-0.000218041
-0.00294378
-0.000223785
-0.0028779
-0.000229445
-0.00281027
-0.00023506
-0.00274126
-0.000240273
-0.00267081
-0.000245315
-0.00259909
-0.000250046
-0.00252587
-0.000254821
-0.00245168
-0.000259066
-0.00237608
-0.000263313
-0.00229947
-0.000267241
-0.00222173
-0.000271061
-0.00214295
-0.00027469
-0.00206321
-0.000277988
-0.00198275
-0.000280995
-0.0019011
-0.000284261
-0.00181873
-0.000286514
-0.0017363
-0.000288886
-0.00165256
-0.000291486
-0.00156845
-0.000293481
-0.00148328
-0.000294893
-0.0013986
-0.000295863
-0.00131311
-0.000297605
-0.00122752
-0.000298211
-0.00114197
-0.000298312
-0.00105591
-0.000298722
-0.000970044
-0.000298741
-0.000298576
-0.000883888
-0.00428328
7.77727e-05
-0.00429548
6.31902e-05
-0.00430744
5.24906e-05
-0.0043152
3.76529e-05
-0.00431875
2.45714e-05
-0.00432
1.31353e-05
-0.00432134
1.10215e-06
-0.00431617
-1.32827e-05
-0.00430886
-2.43998e-05
-0.00429763
-3.81036e-05
-0.00428431
-5.06824e-05
-0.00426879
-6.21906e-05
-0.00424924
-7.4607e-05
-0.0042282
-8.61047e-05
-0.00420529
-9.6739e-05
-0.00417735
-0.000110646
-0.00414748
-0.00012145
-0.00411491
-0.000132914
-0.00407964
-0.000144081
-0.004042
-0.00015495
-0.00400169
-0.000165663
-0.00395927
-0.000176082
-0.00391423
-0.000186515
-0.00386675
-0.000196804
-0.00381668
-0.000206976
-0.00376463
-0.000216626
-0.00371027
-0.000226278
-0.00365358
-0.000235648
-0.0035948
-0.000244752
-0.00353407
-0.000253628
-0.00347119
-0.000262307
-0.00340628
-0.000270661
-0.00333961
-0.000278706
-0.00327116
-0.000286487
-0.00320081
-0.00029413
-0.00312865
-0.00030161
-0.00305508
-0.000308632
-0.00297966
-0.000315694
-0.00290268
-0.000322293
-0.0028241
-0.000328621
-0.00274436
-0.000334565
-0.00266318
-0.000340248
-0.00258085
-0.000345638
-0.00249726
-0.000350834
-0.00241253
-0.000355797
-0.00232705
-0.000360163
-0.00223937
-0.000365675
-0.00215121
-0.000369151
-0.00206283
-0.000372641
-0.00197304
-0.000376304
-0.00188277
-0.000379159
-0.00179215
-0.000382113
-0.00170042
-0.000385209
-0.00160839
-0.000386926
-0.00151472
-0.000389532
-0.00142167
-0.000390661
-0.00132857
-0.000391303
-0.001235
-0.000391886
-0.00114102
-0.000392708
-0.00104782
-0.000391939
-0.000392061
-0.000954337
-0.00467266
9.50583e-05
-0.00468775
7.8277e-05
-0.00469666
6.14081e-05
-0.00470536
4.6352e-05
-0.00471185
3.10646e-05
-0.00471219
1.34742e-05
-0.00470846
-2.62313e-06
-0.00470443
-1.73166e-05
-0.00469441
-3.44157e-05
-0.00468419
-4.83203e-05
-0.00466992
-6.49518e-05
-0.00465163
-8.04808e-05
-0.00463121
-9.5024e-05
-0.00460684
-0.000110473
-0.00457844
-0.000125137
-0.00454812
-0.000140966
-0.00451519
-0.000154381
-0.00447975
-0.000168353
-0.00444095
-0.000182875
-0.00439937
-0.000196527
-0.00435529
-0.000209739
-0.00430828
-0.000223094
-0.00425874
-0.000236052
-0.00420669
-0.000248856
-0.00415215
-0.000261507
-0.0040949
-0.000273881
-0.00403542
-0.000285751
-0.00397345
-0.00029762
-0.00390916
-0.00030904
-0.00384279
-0.000319991
-0.00377406
-0.000331036
-0.00370317
-0.000341552
-0.00363035
-0.000351525
-0.00355567
-0.000361166
-0.00347884
-0.000370957
-0.00340032
-0.000380125
-0.00331975
-0.000389203
-0.00323743
-0.00039801
-0.00315354
-0.000406189
-0.00306811
-0.000414046
-0.00298093
-0.000421744
-0.0028925
-0.000428677
-0.00280269
-0.000435449
-0.00271133
-0.000442193
-0.00261905
-0.000448082
-0.00252562
-0.000453594
-0.00243168
-0.000459608
-0.00233606
-0.000464777
-0.00223915
-0.000469547
-0.00214174
-0.000473713
-0.00204311
-0.000477795
-0.00194343
-0.000481795
-0.00184412
-0.000484522
-0.0017432
-0.00048784
-0.00164264
-0.000490099
-0.00154143
-0.000491868
-0.00143893
-0.000493808
-0.00133679
-0.000494028
-0.00123532
-0.000494178
-0.00113322
-0.000494043
-0.000493897
-0.00103138
-0.00509428
0.000113129
-0.00511014
9.41299e-05
-0.00512188
7.31559e-05
-0.00512948
5.39513e-05
-0.00513101
3.25922e-05
-0.0051324
1.48653e-05
-0.00512963
-5.39071e-06
-0.00512272
-2.42206e-05
-0.00511372
-4.34215e-05
-0.0050989
-6.31366e-05
-0.00508203
-8.18224e-05
-0.00506292
-9.95799e-05
-0.00503792
-0.000120024
-0.00501088
-0.000137511
-0.00498184
-0.000154171
-0.00494881
-0.000173993
-0.00491173
-0.000191462
-0.00487179
-0.000208292
-0.00482864
-0.000226015
-0.00478359
-0.000241577
-0.00473483
-0.000258504
-0.00468351
-0.000274404
-0.00462929
-0.000290273
-0.00457214
-0.000306004
-0.00451218
-0.00032146
-0.00444956
-0.000336503
-0.00438422
-0.000351087
-0.00431659
-0.000365243
-0.00424659
-0.000379043
-0.00417399
-0.000392591
-0.00409892
-0.000406095
-0.00402171
-0.000418768
-0.0039421
-0.000431131
-0.00386065
-0.000442611
-0.00377718
-0.000454426
-0.00369156
-0.00046574
-0.00360393
-0.000476838
-0.00351421
-0.000487723
-0.00342267
-0.000497734
-0.00332934
-0.000507374
-0.00323448
-0.000516596
-0.00313764
-0.000525515
-0.00304
-0.000533093
-0.00294105
-0.000541142
-0.00284108
-0.000548053
-0.00273912
-0.000555554
-0.00263578
-0.000562946
-0.0025318
-0.000568758
-0.00242757
-0.00057378
-0.00232111
-0.000580174
-0.0022142
-0.000584705
-0.0021071
-0.00058889
-0.00199815
-0.000593477
-0.00188909
-0.000596899
-0.00177892
-0.000600268
-0.00166828
-0.000602507
-0.00155815
-0.000603948
-0.00144734
-0.000604838
-0.00133612
-0.000605395
-0.00122504
-0.000605122
-0.000604733
-0.00111421
-0.00554818
0.000131838
-0.00556253
0.000108475
-0.00557305
8.36854e-05
-0.00558122
6.21152e-05
-0.00558558
3.69547e-05
-0.00558409
1.33786e-05
-0.00558058
-8.90245e-06
-0.00557066
-3.41391e-05
-0.00555869
-5.53887e-05
-0.00554331
-7.85144e-05
-0.0055258
-9.93229e-05
-0.00550234
-0.000123042
-0.0054765
-0.000145862
-0.00544693
-0.000167076
-0.00541199
-0.000189103
-0.0053764
-0.00020958
-0.00533689
-0.000230971
-0.00529136
-0.000253819
-0.00524535
-0.000272017
-0.00519437
-0.000292555
-0.00514015
-0.000312724
-0.00508391
-0.000330638
-0.00502486
-0.000349319
-0.00496211
-0.000368754
-0.00489642
-0.000387142
-0.00482774
-0.000405179
-0.00475632
-0.000422509
-0.00468224
-0.000439322
-0.00460561
-0.000455669
-0.00452645
-0.000471745
-0.00444442
-0.000488119
-0.00436036
-0.000502833
-0.00427364
-0.00051784
-0.00418552
-0.000530737
-0.00409469
-0.000545248
-0.00400164
-0.000558785
-0.00390647
-0.00057201
-0.00380874
-0.000585452
-0.00370873
-0.000597745
-0.00360724
-0.000608856
-0.00350417
-0.000619665
-0.00339927
-0.000630424
-0.00329217
-0.000640191
-0.00318523
-0.000648076
-0.00307606
-0.000657226
-0.00296472
-0.000666894
-0.00285407
-0.000673591
-0.00274066
-0.000682177
-0.00262697
-0.000687466
-0.00251237
-0.000694779
-0.0023957
-0.000701376
-0.00227923
-0.000705358
-0.00216145
-0.000711256
-0.00204377
-0.000714578
-0.0019237
-0.000720342
-0.00180423
-0.000721977
-0.00168316
-0.000725017
-0.0015628
-0.000725201
-0.00144222
-0.000725972
-0.00132217
-0.000725176
-0.00072547
-0.00120143
-0.00603414
0.000151148
-0.00604819
0.000122518
-0.00605916
9.46587e-05
-0.00606333
6.62839e-05
-0.00606629
3.99115e-05
-0.00606541
1.24996e-05
-0.00606008
-1.42273e-05
-0.00604993
-4.42887e-05
-0.00603455
-7.07702e-05
-0.0060185
-9.45623e-05
-0.00599642
-0.0001214
-0.00597069
-0.000148765
-0.0059426
-0.000173953
-0.00590762
-0.000202061
-0.00587335
-0.000223363
-0.00583184
-0.00025109
-0.00578596
-0.000276851
-0.00573872
-0.000301052
-0.00568485
-0.000325883
-0.00562997
-0.000347438
-0.00557246
-0.000370227
-0.0055091
-0.000393984
-0.00544574
-0.000412677
-0.00537665
-0.000437843
-0.00530398
-0.00045981
-0.00522971
-0.000479443
-0.00515061
-0.000501607
-0.00507051
-0.000519425
-0.00498493
-0.000541244
-0.00490069
-0.000555983
-0.00480912
-0.000579689
-0.00471909
-0.000592858
-0.004623
-0.000613934
-0.00452913
-0.000624601
-0.00443087
-0.000643508
-0.00432954
-0.000660117
-0.00422749
-0.000674053
-0.00412046
-0.000692487
-0.00401124
-0.000706957
-0.00390259
-0.00071751
-0.00378859
-0.000733666
-0.00367315
-0.000745855
-0.00355901
-0.000754335
-0.00344001
-0.000767073
-0.00332504
-0.000772205
-0.0032023
-0.000789631
-0.00308327
-0.00079262
-0.00295832
-0.000807127
-0.00283753
-0.000808258
-0.00271342
-0.00081889
-0.00258641
-0.00082839
-0.00246253
-0.000829239
-0.0023333
-0.000840482
-0.0022074
-0.000840484
-0.00207456
-0.000853175
-0.00194674
-0.000849802
-0.00181256
-0.000859197
-0.00168611
-0.000851649
-0.00155256
-0.000859531
-0.00142481
-0.000852923
-0.0012905
-0.000859784
-0.000781234
-6.24208e-05
-0.000719171
-6.20635e-05
-0.000657485
-6.16863e-05
-0.000596214
-6.12706e-05
-0.000535419
-6.07957e-05
-0.000475149
-6.02703e-05
-0.00041566
-5.94897e-05
-0.000357
-5.86604e-05
-0.000299378
-5.76227e-05
-0.000242926
-5.64516e-05
-0.000187498
-5.54292e-05
-0.000131244
-5.62537e-05
-7.32343e-05
-5.80108e-05
-1.40581e-05
-5.91768e-05
4.40841e-05
-5.81429e-05
9.96104e-05
-5.55268e-05
0.000152818
-5.32083e-05
0.000204236
-5.14181e-05
0.000254061
-4.98256e-05
0.00030231
-4.82498e-05
0.000349003
-4.66941e-05
0.000394086
-4.50839e-05
0.000437494
-4.34082e-05
0.000479095
-4.16017e-05
0.000518829
-3.97355e-05
0.000556634
-3.78062e-05
0.000592392
-3.57582e-05
0.000625968
-3.35776e-05
0.000657248
-3.12816e-05
0.000686142
-2.88942e-05
0.000712449
-2.63085e-05
0.000736012
-2.35642e-05
0.000756708
-2.06971e-05
0.000774292
-1.75846e-05
0.000788546
-1.42552e-05
0.000799278
-1.07326e-05
0.000806231
-6.9538e-06
0.000809136
-2.9052e-06
0.00080863
5.05903e-07
0.000804603
4.02751e-06
0.000797131
7.47185e-06
0.000785564
1.15671e-05
0.000769386
1.6179e-05
0.000748168
2.12196e-05
0.000721273
2.68952e-05
0.000688076
3.31988e-05
0.000647953
4.01245e-05
0.000600163
4.77916e-05
0.000543847
5.63182e-05
0.000478234
6.56144e-05
0.000402597
7.56392e-05
0.000316365
8.62341e-05
0.000218939
9.74276e-05
0.00010942
0.000109521
-1.8086e-05
0.000127508
-0.000157947
0.000139862
-0.000287177
0.000129231
-0.000394201
0.000107024
-0.000475253
8.10526e-05
-0.000535906
6.06527e-05
5.09324e-05
-0.000586839
-0.000717862
-0.000133606
-0.00064637
-0.000133556
-0.000575098
-0.00013296
-0.000504085
-0.000132284
-0.000433696
-0.000131186
-0.000363428
-0.000130539
-0.000293704
-0.000129215
-0.000224378
-0.000127987
-0.000155785
-0.000126217
-8.77583e-05
-0.000124479
-1.93569e-05
-0.000123832
4.94863e-05
-0.000125098
0.000117279
-0.000125805
0.000183786
-0.000125684
0.000249546
-0.000123903
0.000314676
-0.000120658
0.000378733
-0.000117266
0.000441468
-0.000114154
0.000502791
-0.000111149
0.00056272
-0.00010818
0.000621262
-0.000105237
0.000678278
-0.000102102
0.000733744
-9.88751e-05
0.000787653
-9.55117e-05
0.000839903
-9.19864e-05
0.000890433
-8.83374e-05
0.000939112
-8.44382e-05
0.000985957
-8.04248e-05
0.00103082
-7.6148e-05
0.00107353
-7.16041e-05
0.0011141
-6.68828e-05