/*--------------------------------*- C++ -*----------------------------------*\
| =========                 |                                                 |
| \\      /  F ield         | OpenFOAM: The Open Source CFD Toolbox           |
|  \\    /   O peration     | Version:  2.3.1                                 |
|   \\  /    A nd           | Web:      www.OpenFOAM.org                      |
|    \\/     M anipulation  |                                                 |
\*---------------------------------------------------------------------------*/
FoamFile
{
    version     2.0;
    format      ascii;
    class       volVectorField;
    location    "0.92";
    object      U;
}
// * * * * * * * * * * * * * * * * * * * * * * * * * * * * * * * * * * * * * //

dimensions      [0 1 -1 0 0 0 0];

internalField   nonuniform List<vector> 
9648
(
(0.163086 -4.73368 -2.5306e-23)
(0.280318 -4.70983 -1.0097e-22)
(0.398082 -4.67885 0)
(0.517975 -4.6532 0)
(0.638698 -4.63241 1.01795e-20)
(0.760942 -4.6181 1.58168e-20)
(0.887383 -4.61447 -2.8116e-20)
(1.01997 -4.62282 -1.29231e-20)
(1.15955 -4.64438 1.28895e-20)
(1.3069 -4.68109 3.89369e-20)
(1.46414 -4.73444 -3.87707e-20)
(1.63309 -4.80539 -5.56791e-20)
(1.81572 -4.89451 2.95871e-19)
(2.01404 -5.00175 7.6395e-20)
(2.22971 -5.12634 -7.16564e-19)
(2.46399 -5.26705 0)
(2.71801 -5.4222 0)
(2.99265 -5.58979 1.30052e-19)
(3.28859 -5.76724 4.19056e-19)
(3.60592 -5.95183 -1.20551e-18)
(3.94467 -6.14096 -2.10668e-20)
(4.30474 -6.3316 3.32053e-19)
(4.68536 -6.52087 3.92555e-19)
(5.08588 -6.70601 -1.78407e-18)
(5.50535 -6.88434 0)
(5.94278 -7.05326 1.06825e-18)
(6.39685 -7.21026 -1.12017e-18)
(6.8662 -7.3533 0)
(7.3494 -7.48019 0)
(7.84482 -7.58926 -6.80077e-19)
(8.35097 -7.67883 -1.50474e-18)
(8.86605 -7.74744 2.36302e-18)
(9.38846 -7.79396 0)
(9.91643 -7.81717 0)
(10.4481 -7.81639 1.8108e-18)
(10.9819 -7.79075 -1.94895e-18)
(11.5159 -7.73983 0)
(12.0485 -7.66336 4.1851e-18)
(12.578 -7.56092 1.12903e-18)
(13.1026 -7.4324 -3.34249e-18)
(13.6203 -7.27782 6.31138e-20)
(14.1298 -7.09767 2.37863e-18)
(14.6294 -6.89182 -3.16024e-18)
(15.1172 -6.66081 6.3571e-19)
(15.5921 -6.40539 0)
(16.0528 -6.12572 0)
(16.4975 -5.82248 4.79671e-18)
(16.9251 -5.49648 7.02059e-19)
(17.3348 -5.14865 -2.16973e-18)
(17.726 -4.77899 -7.30417e-19)
(18.0967 -4.3881 -7.59838e-19)
(18.4449 -3.97835 7.55112e-19)
(18.7706 -3.55146 3.90145e-19)
(19.0727 -3.10822 -3.88031e-19)
(19.3502 -2.65034 1.98088e-18)
(19.6027 -2.17889 -1.95052e-18)
(19.8291 -1.69533 -2.17153e-20)
(20.0291 -1.20089 0)
(20.2022 -0.697007 -3.96274e-19)
(20.348 -0.185367 -5.12548e-20)
(20.4664 0.332825 -4.85939e-20)
(-0.0576946 -2.44527 1.20993e-22)
(0.00645637 -2.44546 0)
(0.073796 -2.45913 0)
(0.146981 -2.48832 5.79896e-21)
(0.225572 -2.53836 -6.10321e-21)
(0.313664 -2.61248 -3.72126e-20)
(0.412563 -2.70741 0)
(0.524055 -2.82182 0)
(0.649574 -2.95638 -4.4027e-20)
(0.789815 -3.11064 0)
(0.946186 -3.28361 -1.05234e-19)
(1.11955 -3.47378 8.28691e-20)
(1.31086 -3.67987 -4.47751e-20)
(1.52108 -3.90025 0)
(1.75097 -4.133 2.78604e-19)
(2.00086 -4.37607 1.64847e-19)
(2.27109 -4.62724 -1.62188e-19)
(2.56179 -4.8843 2.10636e-19)
(2.87316 -5.14476 -6.4156e-19)
(3.20495 -5.40619 5.10786e-19)
(3.55687 -5.66625 -5.65531e-19)
(3.92864 -5.92243 -3.04748e-19)
(4.31946 -6.1724 -3.12518e-19)
(4.72857 -6.41385 1.07424e-18)
(5.15506 -6.64457 3.71976e-19)
(5.598 -6.86241 4.42242e-19)
(6.05626 -7.06537 -3.91983e-19)
(6.52857 -7.25168 0)
(7.01369 -7.41957 0)
(7.5101 -7.56768 0)
(8.01647 -7.69454 0)
(8.53118 -7.79896 0)
(9.0527 -7.87992 0)
(9.57953 -7.93644 0)
(10.1099 -7.96793 -8.1192e-19)
(10.6423 -7.97361 7.37314e-19)
(11.1749 -7.95321 8.1341e-19)
(11.7064 -7.9064 -4.13251e-18)
(12.2349 -7.83286 -8.77267e-19)
(12.7588 -7.73255 2.69821e-18)
(13.2765 -7.60557 1.89369e-18)
(13.7862 -7.45235 -1.95466e-18)
(14.2866 -7.27276 9.33557e-19)
(14.7759 -7.06749 9.85288e-19)
(15.2528 -6.83718 -1.04757e-18)
(15.7157 -6.58205 1.0383e-18)
(16.1633 -6.30296 -2.2262e-18)
(16.5942 -6.00075 0)
(17.007 -5.67635 -5.68825e-19)
(17.4011 -5.32992 1.14314e-18)
(17.7757 -4.9621 -5.74469e-19)
(18.1295 -4.57478 0)
(18.4614 -4.16934 1.18109e-18)
(18.7705 -3.7466 0)
(19.0558 -3.30802 0)
(19.3166 -2.85477 2.8006e-18)
(19.5521 -2.38816 -1.26235e-18)
(19.7618 -1.90982 -3.07127e-19)
(19.9451 -1.42061 3.24215e-19)
(20.1016 -0.922256 0)
(20.2309 -0.416018 8.15426e-20)
(0.0495784 -1.3903 -2.65272e-22)
(0.104119 -1.43203 0)
(0.165589 -1.4952 -4.55912e-22)
(0.235232 -1.58173 -3.12411e-22)
(0.313318 -1.68861 0)
(0.402658 -1.81463 3.17763e-20)
(0.50427 -1.96109 2.13113e-20)
(0.619676 -2.12675 0)
(0.750714 -2.31102 2.28265e-21)
(0.898983 -2.51233 4.49044e-20)
(1.06549 -2.72957 8.9507e-20)
(1.2509 -2.96087 -3.10039e-20)
(1.45579 -3.20445 0)
(1.68055 -3.45827 0)
(1.92546 -3.7203 2.11184e-19)
(2.19047 -3.98843 -1.34297e-19)
(2.47557 -4.26049 -1.43879e-19)
(2.78058 -4.53429 0)
(3.10525 -4.8076 5.54373e-19)
(3.44926 -5.07826 -5.75435e-19)
(3.81213 -5.3442 -4.30181e-19)
(4.19332 -5.60332 -4.73766e-19)
(4.59205 -5.85359 0)
(5.00744 -6.09303 -8.49491e-19)
(5.43856 -6.31973 -2.98728e-19)
(5.88443 -6.53184 3.55103e-19)
(6.34395 -6.72765 3.9229e-19)
(6.81593 -6.90563 0)
(7.29911 -7.06434 0)
(7.79212 -7.20252 0)
(8.29354 -7.31899 0)
(8.80191 -7.41274 0)
(9.31579 -7.48285 0)
(9.83364 -7.5286 0)
(10.3539 -7.54942 -1.77866e-18)
(10.875 -7.54478 5.90927e-19)
(11.3953 -7.51442 -6.52072e-19)
(11.9134 -7.4581 3.28203e-18)
(12.4277 -7.37565 0)
(12.9366 -7.26714 1.39679e-18)
(13.4385 -7.13276 1.44488e-18)
(13.9319 -6.9728 7.15896e-19)
(14.4152 -6.7874 -8.20471e-19)
(14.887 -6.57712 -1.58037e-18)
(15.346 -6.34248 2.4629e-18)
(15.7907 -6.08402 -8.33238e-19)
(16.2199 -5.8025 -1.7e-18)
(16.6324 -5.49873 0)
(17.027 -5.17372 0)
(17.4024 -4.82845 -4.64333e-19)
(17.7578 -4.46404 -4.54025e-19)
(18.0923 -4.08139 -9.28804e-19)
(18.4053 -3.68157 -9.72438e-19)
(18.6954 -3.26601 0)
(18.9622 -2.83552 -9.62032e-19)
(19.2048 -2.39182 -1.00279e-18)
(19.4228 -1.93566 0)
(19.6153 -1.46922 1.63091e-20)
(19.7818 -0.992822 0)
(19.9222 -0.508228 0)
(20.0361 -0.0164538 -6.21603e-20)
(0.0193063 -0.887626 5.65275e-22)
(0.0794422 -0.967069 -7.35586e-22)
(0.151583 -1.06735 -2.04738e-23)
(0.235306 -1.18728 -1.94983e-21)
(0.33011 -1.32567 0)
(0.436156 -1.48211 -1.32297e-20)
(0.554989 -1.65655 -1.83596e-20)
(0.688076 -1.84825 0)
(0.837007 -2.05619 3.06827e-21)
(1.00277 -2.27912 -3.82994e-20)
(1.18632 -2.51557 8.57608e-20)
(1.38806 -2.76383 1.03473e-19)
(1.60839 -3.02194 0)
(1.84752 -3.28789 -8.13044e-20)
(2.10569 -3.5597 -1.72396e-19)
(2.38264 -3.83538 -9.18121e-20)
(2.67825 -4.11286 3.53428e-19)
(2.99228 -4.39007 -2.55316e-19)
(3.32436 -4.66501 2.86214e-19)
(3.67417 -4.93565 4.87459e-19)
(4.0413 -5.2002 7.05517e-19)
(4.42503 -5.45682 3.97962e-19)
(4.82471 -5.70369 1.91392e-19)
(5.23942 -5.93909 6.95821e-19)
(5.66829 -6.16124 2.28497e-19)
(6.11038 -6.3685 2.60051e-19)
(6.56466 -6.55934 3.06916e-19)
(7.03013 -6.73233 -9.1862e-19)
(7.50555 -6.88627 6.59568e-19)
(7.98963 -7.01998 7.45463e-19)
(8.48116 -7.1324 -1.52415e-18)
(8.97867 -7.22262 7.78344e-19)
(9.48081 -7.28978 -8.34009e-19)
(9.98629 -7.33322 4.15735e-19)
(10.4935 -7.35248 4.5583e-19)
(11.0011 -7.34708 5.06019e-19)
(11.5075 -7.3167 -4.99669e-19)
(12.0115 -7.26121 -5.44637e-19)
(12.5113 -7.18049 -1.63271e-18)
(13.0057 -7.07461 -1.17826e-18)
(13.493 -6.9438 -2.38913e-18)
(13.9718 -6.78828 -3.09568e-18)
(14.4407 -6.60831 1.26943e-18)
(14.8982 -6.40431 2.87696e-20)
(15.3431 -6.17682 -7.11271e-19)
(15.7741 -5.92637 -6.97797e-19)
(16.19 -5.65363 4.21953e-18)
(16.5895 -5.3594 -7.07359e-19)
(16.9717 -5.04446 0)
(17.3355 -4.70972 0)
(17.6799 -4.35622 -7.10837e-19)
(18.0041 -3.98514 3.18181e-20)
(18.3072 -3.59748 7.63102e-19)
(18.5884 -3.19438 0)
(18.847 -2.77712 8.13095e-19)
(19.0821 -2.34702 0)
(19.2932 -1.90524 0)
(19.4798 -1.45274 6.19999e-19)
(19.6413 -0.991087 1.9721e-19)
(19.7775 -0.521725 -2.01004e-19)
(19.888 -0.0461351 1.02882e-19)
(0.105925 -0.641131 4.10629e-23)
(0.168814 -0.742564 6.4299e-22)
(0.245867 -0.861785 -8.73921e-22)
(0.336998 -0.999082 1.0112e-21)
(0.44141 -1.15417 -2.9733e-21)
(0.55953 -1.32653 5.33027e-21)
(0.692032 -1.51564 2.29893e-21)
(0.839825 -1.72044 -1.34999e-20)
(1.00418 -1.93988 3.97343e-20)
(1.18542 -2.17261 -5.72853e-20)
(1.38428 -2.41702 6.42338e-20)
(1.60064 -2.6714 -7.99005e-20)
(1.83481 -2.9337 -4.60158e-20)
(2.08664 -3.20197 0)
(2.35646 -3.4742 8.4242e-20)
(2.64367 -3.74871 8.07307e-20)
(2.9481 -4.02347 0)
(3.26952 -4.29653 1.99774e-19)
(3.60734 -4.56605 0)
(3.96142 -4.83008 -2.64731e-19)
(4.33136 -5.0871 2.88869e-19)
(4.71632 -5.33553 1.00648e-20)
(5.1158 -5.57366 -1.69475e-20)
(5.52872 -5.80005 2.87917e-20)
(5.95431 -6.01293 -8.12515e-19)
(6.39172 -6.21083 -4.66516e-19)
(6.83991 -6.39235 9.60476e-19)
(7.29811 -6.55613 1.04231e-18)
(7.76508 -6.70123 -5.64398e-19)
(8.23964 -6.82649 0)
(8.72066 -6.93094 0)
(9.20669 -7.01383 0)
(9.69655 -7.07423 7.15025e-19)
(10.189 -7.11158 -2.95367e-18)
(10.6827 -7.12555 1.54605e-18)
(11.176 -7.11564 -7.86377e-19)
(11.6679 -7.08151 -1.69692e-18)
(12.1569 -7.02319 1.72165e-18)
(12.6415 -6.9405 3.97138e-20)
(13.1205 -6.83355 -9.72656e-19)
(13.5923 -6.70265 1.00504e-18)
(14.0556 -6.54797 1.03951e-18)
(14.5089 -6.36978 0)
(14.951 -6.16841 -1.05605e-18)
(15.3806 -5.94442 0)
(15.7965 -5.69834 -1.68804e-18)
(16.1975 -5.43083 5.2184e-19)
(16.5825 -5.1426 0)
(16.9505 -4.83435 -6.12712e-19)
(17.3006 -4.5071 -1.47248e-20)
(17.6318 -4.16167 1.30601e-18)
(17.9433 -3.79923 -6.20706e-19)
(18.2343 -3.42087 -3.4537e-19)
(18.5042 -3.02769 6.32442e-19)
(18.752 -2.62105 -4.85282e-21)
(18.977 -2.20193 3.29996e-19)
(19.1785 -1.77163 1.59439e-19)
(19.3561 -1.3311 3.3664e-19)
(19.5095 -0.881542 -8.45925e-19)
(19.6383 -0.424471 3.39854e-19)
(19.7422 0.0385601 -4.35003e-20)
(0.184766 -0.512566 -2.89779e-22)
(0.261869 -0.629429 0)
(0.353976 -0.762444 1.60636e-21)
(0.460975 -0.912244 0)
(0.581489 -1.07863 7.90459e-22)
(0.716338 -1.26093 7.38799e-21)
(0.865831 -1.45861 8.3997e-21)
(1.03064 -1.67036 2.60684e-20)
(1.212 -1.89511 3.65926e-21)
(1.40958 -2.13157 5.62165e-21)
(1.62425 -2.378 1.04802e-21)
(1.85519 -2.63285 -3.03088e-20)
(2.1029 -2.894 4.44939e-20)
(2.36652 -3.15947 -1.35571e-19)
(2.64711 -3.42728 1.15386e-19)
(2.9436 -3.69632 -8.34622e-21)
(3.25556 -3.96428 -1.42964e-19)
(3.58313 -4.22947 -1.72332e-19)
(3.92529 -4.49021 0)
(4.28212 -4.74448 2.051e-19)
(4.65356 -4.9911 8.18478e-21)
(5.03826 -5.22881 -5.32005e-19)
(5.43626 -5.45587 -2.28896e-20)
(5.84604 -5.6713 -2.8835e-19)
(6.26693 -5.87317 1.01815e-18)
(6.69825 -6.06013 3.48908e-20)
(7.13886 -6.23094 -3.78823e-19)
(7.58845 -6.38419 -4.05737e-20)
(8.04566 -6.51934 0)
(8.50927 -6.6352 0)
(8.97856 -6.73082 0)
(9.4518 -6.80574 0)
(9.92794 -6.85883 0)
(10.4062 -6.88956 5.66607e-20)
(10.885 -6.89788 -6.61951e-19)
(11.3628 -6.88328 -3.86692e-20)
(11.8389 -6.84518 2.88449e-20)
(12.3116 -6.78395 6.83687e-19)
(12.7797 -6.69927 1.56354e-18)
(13.2422 -6.59128 -2.3589e-18)
(13.6974 -6.46051 1.64249e-18)
(14.1441 -6.30698 -8.29192e-19)
(14.5807 -6.13107 0)
(15.0063 -5.9328 9.2177e-19)
(15.4196 -5.71287 0)
(15.8194 -5.47182 9.70988e-19)
(16.2047 -5.2101 -9.93914e-19)
(16.5742 -4.92873 4.66922e-19)
(16.9271 -4.62802 4.98979e-19)
(17.2626 -4.309 -5.20919e-19)
(17.5799 -3.97251 3.73451e-20)
(17.878 -3.61981 -1.06693e-20)
(18.1564 -3.25163 1.06058e-18)
(18.4144 -2.86938 -1.09196e-18)
(18.6511 -2.47429 -5.38925e-19)
(18.8656 -2.06767 -2.63929e-19)
(19.0573 -1.65028 -8.39982e-19)
(19.2257 -1.22299 0)
(19.3708 -0.786898 5.67809e-19)
(19.4923 -0.343842 -1.45828e-19)
(19.5898 0.104909 0)
(0.284676 -0.453145 0)
(0.376773 -0.58087 0)
(0.48503 -0.724181 -9.18759e-22)
(0.61 -0.88348 2.51911e-22)
(0.74825 -1.05817 -2.15988e-21)
(0.901596 -1.24714 -1.17343e-20)
(1.06945 -1.44988 6.05681e-21)
(1.25182 -1.66481 -1.8572e-20)
(1.45121 -1.89111 -1.22036e-21)
(1.66506 -2.12754 4.75629e-20)
(1.89598 -2.37236 -8.71918e-20)
(2.14104 -2.62434 0)
(2.40212 -2.88105 0)
(2.67631 -3.14073 1.54087e-19)
(2.96729 -3.4009 9.85514e-20)
(3.27222 -3.6618 -2.17254e-19)
(3.59054 -3.92052 3.52281e-19)
(3.92356 -4.17549 1.47285e-19)
(4.26879 -4.42567 -2.94704e-19)
(4.6271 -4.66825 -1.78563e-19)
(4.99946 -4.90251 2.054e-19)
(5.38254 -5.12809 -5.0955e-21)
(5.77847 -5.34238 0)
(6.18406 -5.54586 5.30103e-19)
(6.59911 -5.73571 -8.73356e-19)
(7.02361 -5.91064 2.90891e-19)
(7.45521 -6.06998 6.4346e-19)
(7.89533 -6.21155 -1.79099e-18)
(8.34193 -6.33593 3.64839e-19)
(8.79338 -6.44173 0)
(9.25024 -6.52759 0)
(9.70968 -6.59418 0)
(10.1709 -6.63953 5.01234e-19)
(10.6341 -6.66284 1.55216e-18)
(11.0973 -6.66503 -1.04999e-18)
(11.5582 -6.64566 5.79781e-19)
(12.0176 -6.60287 6.35658e-19)
(12.473 -6.53843 -1.2612e-18)
(12.9234 -6.45145 0)
(13.3684 -6.3418 -1.29598e-18)
(13.806 -6.21096 6.73301e-19)
(14.2352 -6.05834 3.49389e-20)
(14.6539 -5.88483 -3.14129e-20)
(15.0619 -5.68941 7.42414e-19)
(15.458 -5.47341 3.1412e-20)
(15.8405 -5.23765 -2.37254e-18)
(16.2092 -4.98168 8.0415e-19)
(16.5621 -4.70738 -1.67105e-18)
(16.899 -4.4141 0)
(17.2188 -4.10371 0)
(17.5213 -3.77612 1.76653e-18)
(17.805 -3.43359 -4.22094e-19)
(18.0697 -3.07601 -9.16014e-19)
(18.315 -2.70466 -4.40417e-19)
(18.54 -2.32165 1.40702e-18)
(18.7434 -1.92799 7.09965e-19)
(18.9245 -1.52396 2.45503e-19)
(19.0827 -1.11074 -4.62503e-21)
(19.2187 -0.688422 -2.45819e-19)
(19.3324 -0.259475 0)
(19.423 0.174244 0)
(0.40124 -0.437109 3.2904e-22)
(0.511481 -0.572665 0)
(0.636961 -0.723381 0)
(0.782506 -0.889971 -4.39168e-22)
(0.938936 -1.07073 0)
(1.11187 -1.26384 4.61625e-21)
(1.29847 -1.46894 5.85868e-21)
(1.4976 -1.68409 -1.2072e-20)
(1.71643 -1.9092 0)
(1.94535 -2.14297 -2.84402e-20)
(2.19368 -2.38368 3.75059e-21)
(2.45136 -2.63082 0)
(2.72669 -2.88112 0)
(3.00853 -3.13342 -6.47602e-20)
(3.31034 -3.3827 7.07445e-20)
(3.62347 -3.63415 -8.86772e-20)
(3.94626 -3.88223 -1.02016e-19)
(4.28472 -4.12529 0)
(4.63162 -4.36453 1.3161e-19)
(4.98987 -4.59411 -2.7786e-19)
(5.36392 -4.81456 -3.1146e-19)
(5.74302 -5.02772 -3.65252e-19)
(6.13717 -5.22765 -3.27017e-20)
(6.53762 -5.4193 -4.64191e-19)
(6.94582 -5.59669 4.45508e-19)
(7.36363 -5.75879 4.96966e-19)
(7.78411 -5.90676 -5.65838e-19)
(8.21444 -6.03526 3.11118e-20)
(8.65009 -6.14852 4.18454e-20)
(9.08742 -6.24433 -6.53571e-19)
(9.53164 -6.31939 0)
(9.97633 -6.3781 -7.96091e-19)
(10.4213 -6.41533 1.57939e-18)
(10.869 -6.43006 -4.43191e-20)
(11.3162 -6.42634 9.27493e-19)
(11.758 -6.40342 -9.23026e-19)
(12.2007 -6.3546 1.01793e-18)
(12.6379 -6.28706 1.0622e-18)
(13.0689 -6.19769 -2.1003e-18)
(13.4957 -6.08556 1.14953e-18)
(13.9143 -5.95512 1.13076e-18)
(14.3255 -5.803 1.78681e-18)
(14.7246 -5.63229 -6.36253e-19)
(15.114 -5.43859 0)
(15.4921 -5.22663 3.41442e-20)
(15.8557 -4.99714 6.91794e-19)
(16.2073 -4.74653 -6.72666e-19)
(16.5419 -4.48066 7.24636e-19)
(16.8619 -4.19477 0)
(17.1644 -3.89406 0)
(17.4512 -3.57526 -3.97787e-20)
(17.7195 -3.24394 7.79497e-19)
(17.9692 -2.89629 0)
(18.2011 -2.53564 3.87452e-19)
(18.4139 -2.16585 3.90951e-19)
(18.6054 -1.78627 -7.96744e-19)
(18.7753 -1.39619 -3.90951e-19)
(18.922 -0.998154 -2.07808e-19)
(19.0476 -0.589159 0)
(19.1533 -0.175401 0)
(19.2364 0.241809 2.49121e-20)
(0.534787 -0.448114 -9.28882e-22)
(0.669328 -0.588295 1.79473e-21)
(0.811487 -0.74207 -3.31802e-23)
(0.983744 -0.914135 -1.23971e-21)
(1.15466 -1.09789 9.86384e-22)
(1.34684 -1.29508 -5.2619e-22)
(1.55302 -1.49859 0)
(1.76524 -1.71009 1.35729e-21)
(2.00878 -1.93252 -1.43015e-20)
(2.24705 -2.16023 0)
(2.51871 -2.39554 5.77469e-20)
(2.78192 -2.63734 -3.59996e-20)
(3.07511 -2.88119 3.66557e-20)
(3.35721 -3.12636 4.6665e-20)
(3.67263 -3.35895 -6.10923e-20)
(3.99357 -3.60192 -7.46328e-20)
(4.31659 -3.83924 2.46453e-19)
(4.66494 -4.06679 -2.5675e-19)
(5.00691 -4.29757 0)
(5.36022 -4.51563 -9.01559e-21)
(5.74271 -4.72088 7.64728e-19)
(6.10959 -4.92438 -2.91017e-20)
(6.50965 -5.10445 -3.63047e-19)
(6.89882 -5.28723 6.95831e-19)
(7.29823 -5.45459 0)
(7.71253 -5.60379 -4.28458e-19)
(8.11542 -5.74207 -4.3913e-19)
(8.53778 -5.8559 9.74268e-19)
(8.96351 -5.95897 -6.47389e-21)
(9.38244 -6.0464 5.78839e-19)
(9.81673 -6.10779 -1.1833e-18)
(10.2426 -6.16111 1.88227e-18)
(10.669 -6.19189 -1.35028e-18)
(11.1019 -6.1979 -1.41668e-18)
(11.5358 -6.18748 0)
(11.9535 -6.16169 8.07528e-19)
(12.3851 -6.10405 0)
(12.8003 -6.03657 -3.00829e-21)
(13.2095 -5.94679 9.58148e-19)
(13.6208 -5.82893 -1.78259e-18)
(14.0178 -5.69809 -6.61456e-21)
(14.4123 -5.54655 -1.97335e-18)
(14.7858 -5.38146 0)
(15.1557 -5.19074 -5.65621e-19)
(15.5166 -4.98418 2.17091e-18)
(15.8567 -4.76214 -5.52268e-19)
(16.1949 -4.51631 5.85226e-19)
(16.5073 -4.26004 0)
(16.8121 -3.98053 6.02788e-19)
(17.0948 -3.68864 -1.81983e-18)
(17.3669 -3.37489 -2.54475e-20)
(17.6182 -3.05495 0)
(17.8497 -2.72006 6.26282e-19)
(18.0686 -2.37059 -1.88659e-20)
(18.2703 -2.01167 0)
(18.4469 -1.64474 3.53555e-19)
(18.6074 -1.27626 -3.21106e-19)
(18.7397 -0.895518 3.36889e-19)
(18.8532 -0.501014 3.34334e-19)
(18.9536 -0.0988691 -1.67991e-19)
(19.0258 0.302451 -6.35968e-20)
(20.5567 0.856651 1.5119e-19)
(20.6183 1.38439 -5.12616e-20)
(20.6519 1.91556 0)
(20.6573 2.44766 0)
(20.6348 2.97894 8.14808e-19)
(20.5848 3.50828 1.17239e-18)
(20.5072 4.03388 -1.20738e-18)
(20.4024 4.55431 -3.97945e-19)
(20.2704 5.06807 3.97888e-19)
(20.1118 5.57407 7.78816e-19)
(19.9269 6.07172 -7.79278e-19)
(19.7158 6.55918 -7.57781e-19)
(19.4799 7.03535 3.76903e-18)
(19.2205 7.49911 7.33131e-19)
(18.938 7.94895 -6.46949e-18)
(18.6331 8.38336 0)
(18.3067 8.80143 0)
(17.9599 9.20219 6.73124e-19)
(17.5935 9.5851 1.98833e-18)
(17.2083 9.9488 -5.11119e-18)
(16.806 10.2926 -7.50651e-20)
(16.3871 10.6162 1.17147e-18)
(15.9529 10.9181 1.20558e-18)
(15.5045 11.1982 -4.4987e-18)
(15.0432 11.4561 0)
(14.5702 11.6919 2.11349e-18)
(14.0857 11.905 -1.95838e-18)
(13.5915 12.0937 0)
(13.0894 12.2577 0)
(12.581 12.3966 -8.97687e-19)
(12.0675 12.5105 -1.6415e-18)
(11.5501 12.599 2.33989e-18)
(11.0305 12.6624 0)
(10.5097 12.7006 0)
(9.98908 12.7135 1.1812e-18)
(9.46989 12.7014 -1.12333e-18)
(8.95344 12.6644 0)
(8.44104 12.6031 1.77132e-18)
(7.93371 12.5176 3.69329e-19)
(7.43273 12.4083 -1.02171e-18)
(6.93929 12.2756 3.57878e-20)
(6.45483 12.1203 4.30926e-19)
(5.98012 11.9429 -4.27066e-19)
(5.51637 11.7439 7.47973e-20)
(5.06475 11.5241 0)
(4.62598 11.2844 0)
(4.20112 11.0253 -1.69966e-19)
(3.79109 10.7477 -3.67694e-20)
(3.3969 10.4527 2.20079e-19)
(3.01924 10.1413 9.16278e-20)
(2.65873 9.81438 1.435e-19)
(2.3162 9.47279 -1.45376e-19)
(1.99242 9.11782 -9.74658e-20)
(1.68767 8.75066 9.87984e-20)
(1.40268 8.37224 -5.90279e-19)
(1.13784 7.98399 6.4422e-19)
(0.893585 7.58704 -1.36756e-21)
(0.670216 7.18289 0)
(0.467901 6.7726 1.64143e-19)
(0.286995 6.35726 2.22956e-20)
(0.127576 5.93811 2.36038e-20)
(20.3323 0.0964885 -8.16311e-20)
(20.4052 0.613202 0)
(20.4501 1.13154 0)
(20.4678 1.65127 9.37578e-19)
(20.4579 2.17102 -6.26968e-19)
(20.4208 2.68957 -2.20975e-18)
(20.3567 3.20519 0)
(20.2655 3.71681 0)
(20.1476 4.22288 -1.20365e-18)
(20.003 4.72179 0)
(19.8321 5.21291 -1.76403e-18)
(19.6355 5.69397 1.17048e-18)
(19.4145 6.16315 -5.81098e-19)
(19.1703 6.62009 0)
(18.9031 7.06442 2.29905e-18)
(18.6133 7.49481 1.07685e-18)
(18.3016 7.91007 -1.07906e-18)
(17.9691 8.30902 1.02658e-18)
(17.6167 8.69101 -3.03382e-18)
(17.2452 9.05483 2.04347e-18)
(16.8561 9.39936 -1.9848e-18)
(16.4502 9.72414 -1.01211e-18)
(16.0286 10.028 -9.15318e-19)
(15.5927 10.3101 2.65622e-18)
(15.1434 10.5698 8.51356e-19)
(14.6818 10.8068 7.79102e-19)
(14.2088 11.0215 -7.0372e-19)
(13.7264 11.2128 0)
(13.2356 11.3801 0)
(12.738 11.5226 0)
(12.2347 11.6406 0)
(11.7271 11.7335 0)
(11.2165 11.8015 0)
(10.7042 11.8444 0)
(10.1917 11.8623 -4.92e-19)
(9.68004 11.8551 4.36475e-19)
(9.17071 11.8231 3.49675e-19)
(8.66487 11.7665 -1.69762e-18)
(8.16365 11.6856 -2.65043e-19)
(7.66839 11.5809 7.9101e-19)
(7.18033 11.4525 4.35618e-19)
(6.70082 11.3012 -3.47592e-19)
(6.23075 11.1275 1.28865e-19)
(5.77145 10.9318 9.46267e-20)
(5.32403 10.7149 -7.84754e-21)
(4.88931 10.4775 7.93607e-21)
(4.46835 10.2203 9.2524e-20)
(4.06214 9.94407 0)
(3.67172 9.64977 8.06888e-20)
(3.29787 9.3384 -1.83101e-19)
(2.94127 9.01084 1.02705e-19)
(2.60283 8.66797 0)
(2.28339 8.31093 -3.0629e-19)
(1.98321 7.9409 0)
(1.70321 7.55881 0)
(1.44363 7.16607 -9.51949e-19)
(1.20513 6.76389 4.59209e-19)
(0.98789 6.35368 1.27013e-19)
(0.792495 5.93644 -1.32821e-19)
(0.619253 5.51345 0)
(0.468394 5.08594 -3.74735e-20)
(20.1236 0.480458 6.22158e-20)
(20.1847 0.981308 0)
(20.2192 1.48261 -2.48319e-19)
(20.2259 1.9843 -1.64025e-20)
(20.2057 2.485 0)
(20.1595 2.98403 1.99355e-18)
(20.0871 3.48054 9.73414e-19)
(19.9882 3.97426 0)
(19.8632 4.46293 3.2251e-20)
(19.7121 4.9444 9.42872e-19)
(19.5361 5.41693 1.43268e-18)
(19.3362 5.87913 -4.71027e-19)
(19.113 6.32939 0)
(18.8668 6.76678 0)
(18.598 7.19087 1.73562e-18)
(18.3075 7.6008 -8.56586e-19)
(17.9963 7.99556 -8.02646e-19)
(17.6653 8.37417 0)
(17.3154 8.73586 2.42554e-18)
(16.9476 9.07964 -2.32754e-18)
(16.563 9.4046 -1.48671e-18)
(16.1627 9.71004 -1.43881e-18)
(15.7477 9.99502 0)
(15.3191 10.2589 -2.05639e-18)
(14.8782 10.5009 -6.71112e-19)
(14.426 10.7206 6.13177e-19)
(13.9639 10.9173 6.03624e-19)
(13.4931 11.0909 0)
(13.0147 11.2412 0)
(12.5301 11.3676 0)
(12.0404 11.4701 0)
(11.5469 11.5485 0)
(11.0509 11.6028 0)
(10.5537 11.6329 0)
(10.0567 11.6388 -1.05515e-18)
(9.56105 11.6206 3.37832e-19)
(9.06794 11.5785 -2.69326e-19)
(8.57856 11.5126 1.28292e-18)
(8.09406 11.4234 0)
(7.61565 11.3111 3.60186e-19)
(7.14454 11.1763 2.93621e-19)
(6.68195 11.0195 1.25546e-19)
(6.2289 10.8411 -7.51519e-20)
(5.78656 10.6417 -9.38578e-20)
(5.35595 10.422 2.83982e-20)
(4.93797 10.1825 -8.50411e-22)
(4.53351 9.92403 1.04071e-19)
(4.14352 9.6474 0)
(3.76894 9.35355 0)
(3.41059 9.0433 8.11367e-20)
(3.06922 8.71758 9.80711e-20)
(2.7455 8.37732 2.1121e-19)
(2.4402 8.02349 2.41726e-19)
(2.15375 7.65721 0)
(1.88686 7.27936 3.01009e-19)
(1.63978 6.8914 3.31932e-19)
(1.41302 6.49441 0)
(1.20695 6.08983 -1.76039e-21)
(1.02211 5.67859 0)
(0.858721 5.26198 0)
(0.717057 4.84111 2.8842e-20)
(19.9727 0.434624 -1.02961e-19)
(20.0316 0.918975 2.01435e-19)
(20.0645 1.4064 -3.9728e-19)
(20.071 1.89488 -2.13751e-19)
(20.0513 2.38288 0)
(20.0051 2.86921 -8.28202e-19)
(19.9319 3.35322 -8.22479e-19)
(19.8332 3.83325 0)
(19.71 4.30899 3.42472e-20)
(19.5626 4.77854 -7.95472e-19)
(19.3911 5.23966 1.50206e-18)
(19.1958 5.69132 1.47895e-18)
(18.9773 6.13238 0)
(18.736 6.5617 -7.21072e-19)
(18.4729 6.97799 -1.4325e-18)
(18.1887 7.38005 -7.06498e-19)
(17.8842 7.767 2.06994e-18)
(17.5604 8.13796 -1.33006e-18)
(17.2181 8.49217 1.29438e-18)
(16.8583 8.82879 1.87946e-18)
(16.4823 9.14699 2.44062e-18)
(16.091 9.44599 1.20684e-18)
(15.6855 9.72495 5.55459e-19)
(15.2668 9.98317 1.67966e-18)
(14.8359 10.2201 5.14078e-19)
(14.3941 10.4353 5.14792e-19)
(13.9424 10.6283 4.66507e-19)
(13.4822 10.7987 -1.35857e-18)
(13.0147 10.9461 8.42441e-19)
(12.5411 11.0702 7.86357e-19)
(12.0626 11.1709 -1.52612e-18)
(11.5803 11.2481 7.39684e-19)
(11.0956 11.3017 -6.43583e-19)
(10.6099 11.3318 3.02077e-19)
(10.1243 11.3382 2.91932e-19)
(9.64009 11.321 2.37075e-19)
(9.15843 11.2804 -2.38657e-19)
(8.68039 11.2166 -2.25035e-19)
(8.20712 11.13 -5.13668e-19)
(7.73983 11.0209 -2.98033e-19)
(7.2797 10.8899 -4.64845e-19)
(6.82782 10.7373 -4.31264e-19)
(6.38539 10.5638 1.23932e-19)
(5.95343 10.3698 7.42784e-21)
(5.53298 10.156 -1.15526e-21)
(5.12495 9.92279 3.18034e-20)
(4.73004 9.67108 -2.71149e-19)
(4.34929 9.40165 5.8592e-20)
(3.9835 9.11543 0)
(3.63362 8.8132 0)
(3.30025 8.4958 1.50776e-19)
(2.9842 8.16432 9.34468e-22)
(2.68608 7.81956 -1.97367e-19)
(2.40638 7.46258 0)
(2.14568 7.0942 -2.44978e-19)
(1.90421 6.71587 0)
(1.68251 6.32874 0)
(1.48081 5.93408 -2.35619e-19)
(1.29992 5.53302 -8.39583e-20)
(1.13981 5.12671 8.72201e-20)
(1.00104 4.71633 -4.62664e-20)
(19.821 0.506402 1.86748e-21)
(19.8745 0.977816 -1.74117e-19)
(19.9025 1.45188 5.10405e-19)
(19.9052 1.92702 3.38731e-19)
(19.8823 2.40207 -4.99082e-19)
(19.8339 2.87573 3.34447e-19)
(19.7609 3.34608 -2.39371e-21)
(19.6631 3.81085 -6.47865e-19)
(19.5405 4.26999 9.87142e-19)
(19.3944 4.72264 -1.28612e-18)
(19.2251 5.16776 1.21055e-18)
(19.0328 5.60388 -1.2875e-18)
(18.8182 6.02989 -6.18696e-19)
(18.5817 6.44474 0)
(18.3242 6.84708 6.37469e-19)
(18.0463 7.23569 5.44014e-19)
(17.7488 7.60981 0)
(17.4324 7.96848 1.07203e-18)
(17.0982 8.311 0)
(16.7471 8.6366 -1.06107e-18)
(16.3803 8.94442 9.36953e-19)
(15.9987 9.23366 -4.07423e-20)
(15.6036 9.50343 -4.57745e-20)
(15.1957 9.75301 1.83313e-21)
(14.7761 9.98198 -1.76535e-18)
(14.3459 10.1898 -8.02909e-19)
(13.9061 10.3762 1.56929e-18)
(13.4581 10.5407 1.45111e-18)
(13.003 10.683 -7.23925e-19)
(12.5421 10.8028 0)
(12.0765 10.8997 0)
(11.6071 10.9739 0)
(11.1355 11.0253 5.52021e-19)
(10.6627 11.054 -1.93262e-18)
(10.1904 11.0597 8.97028e-19)
(9.71936 11.0425 -4.277e-19)
(9.2508 11.0026 -6.83915e-19)
(8.78578 10.94 6.42069e-19)
(8.32529 10.8554 2.18347e-20)
(7.87061 10.7491 -2.01996e-19)
(7.42287 10.6214 2.22106e-19)
(6.98313 10.4731 1.43949e-19)
(6.55262 10.3044 0)
(6.13235 10.116 -3.90782e-20)
(5.72329 9.90835 0)
(5.32641 9.68185 7.95894e-20)
(4.94219 9.43742 -4.1462e-20)
(4.57163 9.17581 0)
(4.21542 8.89798 9.57279e-20)
(3.87484 8.60462 1.97494e-20)
(3.55017 8.29647 -2.50616e-19)
(3.24224 7.97464 1.47538e-19)
(2.95182 7.63994 9.69482e-20)
(2.67914 7.29333 -1.77964e-19)
(2.42506 6.93559 8.18935e-21)
(2.18918 6.56801 -1.07925e-19)
(1.97253 6.19184 -5.82162e-20)
(1.77503 5.80837 -1.29347e-19)
(1.59781 5.41869 3.42961e-19)
(1.44049 5.02392 -1.45875e-19)
(1.30417 4.62518 1.93097e-20)
(19.663 0.558152 3.65878e-20)
(19.7117 1.01473 0)
(19.7358 1.4735 -5.70747e-19)
(19.7353 1.93329 0)
(19.7102 2.39278 2.84173e-19)
(19.6608 2.85057 8.3162e-19)
(19.5871 3.30528 5.45701e-19)
(19.4894 3.75624 1.10702e-18)
(19.368 4.20165 9.7117e-21)
(19.2238 4.64058 -6.73837e-21)
(19.0572 5.07162 -5.99229e-20)
(18.8684 5.49376 -5.26988e-19)
(18.6579 5.90598 5.09004e-19)
(18.4265 6.30732 -1.49258e-18)
(18.1748 6.69657 1.01309e-18)
(17.9037 7.07244 -4.87391e-20)
(17.6134 7.43415 -9.19008e-19)
(17.3049 7.78081 -9.41868e-19)
(16.979 8.1119 0)
(16.6367 8.42681 8.43522e-19)
(16.2795 8.72456 -3.7891e-20)
(15.9081 9.00437 -1.66053e-18)
(15.5238 9.26533 -5.90443e-21)
(15.1273 9.50653 -6.88996e-19)
(14.7193 9.72778 2.09809e-18)
(14.3011 9.92858 -3.4789e-20)
(13.8737 10.1086 -6.70214e-19)
(13.4383 10.2677 -7.11117e-20)
(12.9964 10.4052 0)
(12.5487 10.521 0)
(12.0966 10.6146 0)
(11.6407 10.6863 0)
(11.1826 10.7359 0)
(10.7235 10.7639 5.46043e-20)
(10.2649 10.7695 -3.4797e-19)
(9.80767 10.7528 3.94086e-20)
(9.35284 10.7141 5.37769e-20)
(8.9014 10.6533 2.22816e-19)
(8.45413 10.5712 4.24181e-19)
(8.01246 10.4681 -5.27419e-19)
(7.57754 10.3445 3.09911e-19)
(7.15026 10.2008 -9.52477e-20)
(6.73201 10.0377 0)
(6.3238 9.85557 3.41432e-20)
(5.92651 9.655 0)
(5.54133 9.43593 -4.16563e-20)
(5.168 9.19958 7.90056e-20)
(4.80812 8.9466 -5.48841e-20)
(4.46175 8.67815 -6.90352e-20)
(4.13081 8.39459 1.03395e-19)
(3.81512 8.0966 1.95727e-20)
(3.51554 7.78546 1.55123e-20)
(3.23307 7.46171 -2.84717e-19)
(2.9676 7.12645 3.24455e-19)
(2.72032 6.78008 1.77744e-19)
(2.49012 6.42421 9.29871e-20)
(2.27873 6.05986 3.09181e-19)
(2.08511 5.68852 0)
(1.91151 5.31113 -2.36572e-19)
(1.7568 4.9289 6.2825e-20)
(1.62281 4.54267 0)
(19.4901 0.612299 0)
(19.5335 1.05339 0)
(19.5533 1.49661 2.47498e-19)
(19.5494 1.94052 -4.74267e-19)
(19.5219 2.38416 -2.44866e-19)
(19.4711 2.82622 -1.18924e-18)
(19.3971 3.26502 4.59341e-19)
(19.2997 3.69957 -9.50192e-19)
(19.1794 4.12945 1.5409e-20)
(19.0373 4.5534 1.34765e-18)
(18.8739 4.96944 -1.79965e-18)
(18.6889 5.37668 0)
(18.4831 5.77407 0)
(18.2569 6.16135 1.70591e-18)
(18.0115 6.53705 8.24755e-19)
(17.7477 6.89921 -1.67451e-18)
(17.4652 7.2477 2.39812e-18)
(17.1649 7.58159 7.6303e-19)
(16.8476 7.90054 -1.4961e-18)
(16.5146 8.20426 -7.51192e-19)
(16.1673 8.49129 6.93168e-19)
(15.8067 8.76125 -7.11924e-20)
(15.4338 9.01306 0)
(15.0494 9.24518 1.29943e-18)
(14.6537 9.45818 -1.83354e-18)
(14.2481 9.65151 5.90753e-19)
(13.8337 9.82472 1.06313e-18)
(13.4115 9.97812 -2.58216e-18)
(12.9833 10.1106 5.05391e-19)
(12.5498 10.2224 0)
(12.1121 10.3121 0)
(11.6703 10.3814 0)
(11.2268 10.4292 3.50577e-19)
(10.7819 10.4567 9.92144e-19)
(10.3384 10.4625 -5.84712e-19)
(9.8958 10.4466 2.55038e-19)
(9.45565 10.4094 2.44557e-19)
(9.01896 10.3503 -4.3482e-19)
(8.58567 10.2708 0)
(8.15767 10.1713 -2.42439e-19)
(7.73644 10.0517 1.26382e-19)
(7.32205 9.91302 1.44814e-20)
(6.91651 9.75575 9.76056e-21)
(6.521 9.58033 2.90351e-20)
(6.1359 9.38761 -1.05785e-20)
(5.76355 9.1763 1.56385e-19)
(5.40153 8.94877 -6.66526e-20)
(5.05319 8.70487 2.26116e-19)
(4.71675 8.44674 0)
(4.39649 8.17394 0)
(4.09032 7.8868 -4.06092e-19)
(3.7993 7.58726 1.10563e-19)
(3.52574 7.2754 2.5334e-19)
(3.26762 6.95243 1.49834e-19)
(3.02829 6.61809 -4.71794e-19)
(2.80368 6.27461 -2.64074e-19)
(2.59813 5.92265 -9.71562e-20)
(2.40802 5.56442 -2.14288e-21)
(2.23877 5.20024 1.04112e-19)
(2.08626 4.83137 0)
(1.9551 4.45847 0)
(19.2969 0.663649 -2.49518e-20)
(19.3343 1.08814 0)
(19.3493 1.51493 0)
(19.3413 1.94226 2.10205e-19)
(19.3111 2.36907 0)
(19.259 2.79435 8.10458e-19)
(19.1852 3.21643 3.99984e-19)
(19.0883 3.63366 -7.8585e-19)
(18.9687 4.04788 0)
(18.8289 4.45703 -7.98546e-19)
(18.6699 4.85644 4.39974e-20)
(18.4893 5.24795 0)
(18.2887 5.62932 0)
(18.0679 6.00164 -7.45844e-19)
(17.8291 6.36389 6.88849e-19)
(17.5739 6.71112 -7.13917e-19)
(17.2998 7.04566 -6.96322e-19)
(17.0082 7.3664 0)
(16.7003 7.67204 6.58537e-19)
(16.3767 7.964 -1.20104e-18)
(16.0404 8.23939 -1.16082e-18)
(15.691 8.49904 -1.19273e-18)
(15.3298 8.7419 -9.67514e-21)
(14.9593 8.9637 -9.85068e-19)
(14.5761 9.16792 1.04529e-18)
(14.1833 9.35367 9.42293e-19)
(13.783 9.51904 -9.57016e-19)
(13.3741 9.66672 6.02896e-20)
(12.9608 9.79331 1.15278e-21)
(12.5413 9.90184 -8.00489e-19)
(12.1198 9.98648 0)
(11.6919 10.0541 -6.38448e-19)
(11.2645 10.0991 1.23002e-18)
(10.8338 10.1276 -4.68686e-20)
(10.4074 10.1338 5.26779e-19)
(9.9808 10.1189 -4.28441e-19)
(9.55649 10.0835 3.64171e-19)
(9.13665 10.0259 2.60608e-19)
(8.71809 9.94921 -5.73778e-19)
(8.30434 9.85346 2.41301e-19)
(7.89844 9.73813 1.53582e-19)
(7.49681 9.60449 1.62095e-19)
(7.10406 9.45306 -3.47305e-20)