/*--------------------------------*- C++ -*----------------------------------*\
| =========                 |                                                 |
| \\      /  F ield         | OpenFOAM: The Open Source CFD Toolbox           |
|  \\    /   O peration     | Version:  2.3.1                                 |
|   \\  /    A nd           | Web:      www.OpenFOAM.org                      |
|    \\/     M anipulation  |                                                 |
\*---------------------------------------------------------------------------*/
FoamFile
{
    version     2.0;
    format      ascii;
    class       volScalarField;
    location    "2160";
    object      sigmaEq;
}
// * * * * * * * * * * * * * * * * * * * * * * * * * * * * * * * * * * * * * //

dimensions      [1 -1 -2 0 0 0 0];

internalField   nonuniform List<scalar> 
11800
(
151683
115271
462687
395289
110995
282481
143986
152752
161091
171693
149824
561601
76160.5
416171
360123
1.58241e+06
115576
112767
199799
120331
317052
508652
702013
628325
1.29379e+06
822229
828859
412163
907875
988711
278032
111155
817861
123162
127249
269577
128206
870684
124956
129124
859145
940885
433253
1.02533e+06
293017
1.48097e+06
668348
776583
143711
200313
587755
417645
125708
197770
1.68734e+06
1.41553e+06
61464.5
389357
302428
293917
1.4064e+06
135927
310229
256210
1.26885e+06
193447
604023
431695
61826.8
759551
129678
108420
104546
1.36935e+06
1.39214e+06
263414
1.32028e+06
182593
152542
157739
1.71705e+06
109093
111669
114420
110646
952014
296984
872454
796837
427565
123546
973472
135568
59241.9
156335
129889
16810.5
129658
126080
494447
74770.7
543695
923819
327006
133449
275452
153411
137612
1.36621e+06
875289
955537
799472
301000
434561
182330
1.23444e+06
181485
129843
1.15977e+06
178019
173121
145510
156486
123214
132754
124573
126262
125344
94652.1
29222.6
1.59536e+06
1.04779e+06
320704
952998
454026
871135
795032
282674
815898
395149
745992
681144
420810
166050
200335
268280
965748
992748
565794
312754
176521
169570
125937
216380
195906
158878
380361
519199
1.0511e+06
130346
1.56959e+06
193430
1.3435e+06
385755
420383
457311
230935
180304
1.70005e+06
1.0377e+06
361648
493742
137116
301416
301211
1.4785e+06
1.49483e+06
774689
707846
846154
380371
265215
208116
174144
359868
178789
282193
134335
145656
143242
201736
187344
179223
177462
729895
931364
1.41159e+06
116097
183512
1.65825e+06
121674
232016
260270
129890
133618
675144
566483
518744
429870
1.59114e+06
483556
711574
2.17142e+06
1.77433e+06
1.84171e+06
288319
118468
672884
613707
561647
216119
302751
116514
113063
199354
119445
1.05212e+06
216375
121255
376023
178160
149926
124442
521074
531901
2.16452e+06
1.04906e+06
185625
194645
914755
747448
265707
379811
849394
780818
713153
132500
927948
320875
436325
409540
133328
118341
338056
292724
134019
1.83636e+06
230601
264137
195367
223155
558224
610667
665150
302510
218047
128644
1.38506e+06
139267
81336.4
125687
331862
125242
431433
1.62888e+06
312728
309826
464007
337880
387849
283926
971496
813475
259428
321067
210427
249812
451034
590948
230796
964885
1.03539e+06
1.24912e+06
146898
310109
308311
1.42803e+06
1.44147e+06
836638
823603
856683
848150
122879
84837.6
237270
1.87743e+06
113196
118960
243580
204768
214421
734040
748757
1.28358e+06
1.84434e+06
569858
156492
701732
578012
407990
332583
146276
149605
215048
375596
199518
346305
111370
145369
143448
132030
1.03108e+06
142340
117758
1.52108e+06
249471
570915
617728
601929
759264
731232
98428.3
97546.3
524447
682311
475038
1.23223e+06
105962
665857
520310
337536
256826
253713
195776
260618
226749
296820
327051
354544
132460
125907
609233
646804
154046
182068
379312
315710
356034
165188
156132
193209
195743
727753
342790
258189
311328
849942
991608
299637
167575
160227
205258
192205
351745
409044
331932
389994
304208
357641
271607
256207
539180
266900
584849
1.00566e+06
496503
366366
1.68838e+06
122818
1.05682e+06
510608
373701
1.59822e+06
127198
1.08506e+06
269787
926918
855119
827791
159136
71698.2
114924
1.94981e+06
1.68407e+06
726396
259035
343832
153043
188693
215677
124862
181798
1.28356e+06
52050.2
441746
336247
1.42319e+06
96828.1
149963
129287
133629
128716
132537
1.42652e+06
467826
192950
526553
482351
442498
101995
1.03607e+06
333704
461288
143784
697245
155186
1.35193e+06
121628
166402
382075
350604
322237
706161
187269
388960
352910
185556
530427
579489
632213
301849
222276
58064.6
142904
156489
1.76811e+06
574993
453578
332596
273827
152546
134794
98435.2
100285
166255
89381.8
102650
115475
138135
277013
128950
170602
475009
555647
264192
1.27108e+06
167725
300410
131663
147039
1.22481e+06
1.57455e+06
474960
519611
200826
177649
110453
1.07409e+06
1.52221e+06
1.35091e+06
1.96784e+06
610035
426586
564686
105625
153475
143530
158667
556330
130741
128795
106911
147060
1.07115e+06
234631
1.0521e+06
659959
141068
178972
905083
1.10401e+06
553565
606013
659146
300261
218704
503823
127951
128371
125632
141763
115313
160176
86251.5
152939
84903.2
149764
77106.9
146825
135048
142560
100064
1.22834e+06
197556
198040
441631
711755
102413
133455
113277
109694
98626.8
232101
326947
120690
119343
463766
106084
156301
1.33128e+06
71900.7
141594
403137
369980
389113
423010
434721
460356
213387
165966
1.52028e+06
1.90779e+06
378132
80285.3
270492
281860
288848
209268
617560
568219
519538
146380
75482.8
590420
559699
250426
275397
144984
472386
516241
189015
828643
836600
846648
841401
1.47034e+06
1.43876e+06
442470
1.78838e+06
619838
122600
1.25678e+06
1.05282e+06
1.15186e+06
581962
238188
259265
158034
1.25314e+06
402530
511026
1.89103e+06
173228
204766
413648
389132
1.03435e+06
525043
1.55401e+06
122577
118837
215901
300060
669967
612068
559692
1.45528e+06
131166
306278
661080
1.03831e+06
120133
1.70342e+06
1.59445e+06
1.63503e+06
189733
257305
101365
1.67187e+06
461702
194711
322263
1.54667e+06
128104
196380
210026
125903
392031
231465
1.94544e+06
1.66668e+06
168845
472655
603332
228967
266771
205104
184452
527398
169706
453811
338706
874492
775826
143565
1.02384e+06
127600
313203
382353
1.39251e+06
257015
351464
198318
169978
151914
175665
331671
773628
853201
120456
119539
117915
156747
279191
1.0386e+06
103092
347436
621182
482283
181418
824276
916861
589277
1.00425e+06
1.0957e+06
447267
297571
137227
155326
285340
305191
263637
289244
162407
265468
312682
188651
125447
1.94918e+06
821213
306463
408168
385929
189379
328306
473428
1.03622e+06
948522
865574
269611
317131
173678
176966
1.20765e+06
911472
1.02556e+06
133965
168963
227222
517222
1.17837e+06
370212
77367.2
135589
1.7963e+06
1.68942e+06
198191
1.54901e+06
103401
138031
108796
572230
111449
189678
214785
1.0386e+06
1.13737e+06
1.24043e+06
1.34914e+06
592723
507253
423011
336961
163133
120774
329872
1.65525e+06
129964
128210
131541
129186
129648
135212
141692
1.28435e+06
651405
647696
378826
708815
775642
272088
919201
220996
187657
133923
1.77483e+06
125168
141949
135697
140469
124431
1.61628e+06
222137
221458
885624
275553
585459
214245
1.64714e+06
700835
342837
261829
1.10339e+06
381559
156814
135797
120027
120260
194125
217094
205404
146679
409474
142729
122743
664833
745151
111885
475037
678121
577728
778882
1.48454e+06
1.36308e+06
1.24527e+06
1.13195e+06
474142
576014
1.49117e+06
1.36893e+06
676176
1.25127e+06
778021
1.13628e+06
1.34666e+06
139002
121934
133389
197450
427332
960775
129669
353153
477176
383350
521165
164113
205870
345086
498916
1.0868e+06
994963
907821
429987
322465
816701
171534
212941
145690
276742
255627
231655
461393
363108
373025
278859
122806
585622
164626
282376
350444
878264
466413
545010
456001
167555
212855
156741
139775
136383
151903
484931
413258
127137
177941
187939
377518
1.1541e+06
371730
515371
415092
140965
181973
170711
156780
211970
160285
508670
465449
423750
172939
1.2984e+06
567758
191853
792871
529656
1.11366e+06
1.5576e+06
190604
212769
178089
132185
133970
602419
512860
1.61708e+06
116296
158888
288692
417880
187383
130190
607464
600438
60025.1
123346
298531
241806
87181.2
1.40019e+06
1.55445e+06
245194
114198
229207
312983
665426
555661
608484
1.77909e+06
124784
477519
537109
144913
493711
602322
707505
811829
1.55471e+06
1.42778e+06
1.3045e+06
1.18633e+06
493151
600473
1.56017e+06
1.4324e+06
704354
1.30958e+06
810175
1.18984e+06
1.49497e+06
1.29256e+06
975646
393205
448823
1.28991e+06
971915
278033
113429
108802
969200
1.69254e+06
130660
339893
1.41786e+06
964723
1.55857e+06
1.5856e+06
957963
962923
442260
353736
459564
218940
154899
249073
138444
161320
190742
165982
336746
1.63888e+06
459370
166192
104973
299005
321257
1.4818e+06
304578
275303
342712
364415
951027
435768
318782
1.25623e+06
341869
440635
166592
145001
313430
268458
291554
735189
460587
445706
1.09176e+06
1.0445e+06
440582
463035
829934
891998
332489
345923
124563
156149
163319
449787
348988
65124.5
143884
162970
535761
512653
272186
522144
405351
166261
106620
107847
441089
1.04276e+06
111376
1.55432e+06
222389
600883
549530
177090
219028
362464
133159
119318
1.29831e+06
318934
827505
759251
694095
258684
368934
143311
1.20252e+06
1.53815e+06
150287
130912
842435
303412
409171
707856
774573
854962
263894
373646
57175.7
631629
316524
1.52884e+06
276560
885100
710174
795607
129961
128266
126982
139223
134816
123038
1.27893e+06
384726
150851
176560
193013
217579
262877
292294
601423
584017
552551
534474
490039
505825
928675
145467
125619
124897
155785
183653
131873
143922
1.09793e+06
220171
402908
331015
859442
443013
160551
168217
366720
286221
501675
411953
1.02862e+06
894433
819652
748247
417473
1.18958e+06
571996
1.21658e+06
211860
179043
228759
226215
160584
152551
158075
1.22009e+06
1.62616e+06
276388
105271
206633
461780
356150
107385
135238
215172
201927
201703
190971
244375
231006
179153
391723
435331
424468
472054
357009
397582
460203
121958
956683
753164
404623
998904
939695
546769
1.62287e+06
298279
283035
322263
347847
160565
139329
151715
309105
130233
1.32732e+06
182915
130604
636422
54565.8
109501
1.35052e+06
156088
333112
1.06477e+06
482063
975380
890240
1.21757e+06
811048
132124
486855
390357
177406
1.11808e+06
498741
186651
908329
824359
993286
126773
128856
133258
1.96019e+06
232501
349149
424386
201067
127044
122241
340801
369812
154409
1.35404e+06
340060
1.3173e+06
202368
670880
124832
509490
611757
828134
328183
437139
524739
221064
1.88039e+06
143304
104685
124115
1.61825e+06
1.07499e+06
261335
378057
867262
798440
729537
1.66564e+06
487245
396670
1.69604e+06
1.90909e+06
1.30227e+06
84466.9
449580
1.0868e+06
805579
432841
325886
791478
705949
330367
1.1067e+06
267608
229445
408228
357163
278005
1.32293e+06
1.99223e+06
112700
126276
146975
1.92027e+06
138126
156655
565375
429928
1.70889e+06
1.78981e+06
127646
502699
181644
171024
415389
180737
112229
449549
117070
133567
1.99858e+06
846138
464458
350917
315752
231310
639505
587434
536024
184199
1.80884e+06
357006
320288
347222
1.51778e+06
607119
879551
126203
198324
149138
677576
393417
523159
114770
228115
307710
662610
233237
161365
140811
270691
1.68604e+06
236639
315101
655758
1.09252e+06
1.54411e+06
1.01485e+06
700337
529054
626484
72803.1
195502
261898
555919
510018
466608
1.54089e+06
126520
157387
168927
168513
168519
167798
233647
126648
125235
545453
1.37516e+06
374512
835784
765839
700105
262355
1.55736e+06
477745
542110
646738
557016
941888
1.51928e+06
464274
132090
612862
110077
687422
411323
752573
823606
297441
970471
241251
2.09269e+06
710676
126603
1.40943e+06
2.09532e+06
1.80445e+06
420436
125953
793398
143783
132273
108665
232985
133152
132798
118962
119207
1.27623e+06
1.33937e+06
124995
902962
150653
141889
124851
189948
879444
886973
209602
895196
900122
1.21038e+06
400440
154506
184733
248159
496872
542070
191440
50949.3
138615
622837
279656
672606
757090
831307
908379
463331
330457
254393
144518
128249
1.56757e+06
855095
121570
181106
746935
585482
313497
340977
168727
144201
267250
236370
107972
177746
131163
1.3092e+06
484402
1.1885e+06
121969
121441
2.09882e+06
125419
1.62327e+06
1.59375e+06
121932
727644
359391
1.28991e+06
134223
676236
804880
1.75871e+06
193237
128246
115569
397705
188843
249507
496115
452449
413525
129873
119164
145607
138033
861246
949804
650324
1.11918e+06
1.02309e+06
1.1974e+06
1.7496e+06
216844
557591
1.66652e+06
510123
1.59021e+06
718651
786274
859574
378498
262264
327286
390704
1.4799e+06
143984
159861
226571
214325
198581
157063
296346
271907
254748
644479
631174
1.95253e+06
209075
110494
154144
1.56267e+06
448622
236298
227186
1.52676e+06
745125
514918
99119.2
167710
115043
732406
936807
246804
1.08919e+06
154620
150728
2.02555e+06
1.33369e+06
1.63452e+06
304800
397780
710043
236442
547626
1.66753e+06
1.79859e+06
152763
175357
288699
239421
799667
891941
605950
682851
1.84388e+06
1.73116e+06
219966
155023
99246.9
1.21848e+06
110970
1.60441e+06
333927
239501
859007
270241
123344
1.51055e+06
177805
218778
102314
119025
1.13232e+06
369923
128738
601787
281827
163414
127487
118316
534987
118940
1.52522e+06
1.40173e+06
248050
654227
374572
125685
138339
1.19823e+06
149990
796133
205261
433104
877337
1.00581e+06
1.45302e+06
159689
258362
1.60968e+06
201669
135796
121581
145653
122142
1.66538e+06
1.27234e+06
285181
385373
684889
667956
900252
312076
422677
311277
445905
957292
876897
800138
1.28557e+06
586672
422260
1.2857e+06
425491
1.39802e+06
511873
545675
1.52542e+06
2.09848e+06
1.77906e+06
334293
354985
931793
430884
317661
121548
291326
1.48434e+06
132899
150317
1.86129e+06
1.38649e+06
1.62738e+06
706445
876527
885648
763260
113954
105170
158645
107390
555243
606233
662610
304140
218577
486867
1.64771e+06
131171
174974
147026
135838
799223
722833
164616
1.45957e+06
1.6664e+06
926366
753323
1.33197e+06
1.53358e+06
112982
737516
471372
1.00129e+06
138931
211230
226232
1.28043e+06
1.27592e+06
604612
292045
109126
127439
188327
393009
1.35474e+06
181500
1.02751e+06
127962
292158
207202
265846
460425
239249
375809
36435.5
10540.3
374650
1.96125e+06
167856
142463
149319
120963
115651
156275
163364
122862
129081
415990
121386
131403
157601
771137
953666
682490
1.38236e+06
1.74051e+06
130312
172894
306947
143202
1.20869e+06
186405
1.8155e+06
193022
245885
476826
346765
193600
195960
454250
120825
139164
165424
111849
157445
108351
1.57748e+06
100835
133939
229148
116303
90251.1
1.556e+06
169007
1.34035e+06
1.40923e+06
514451
343645
262641
374923
849689
787786
719802
122597
953819
510914
121746
1.66032e+06
127070
131273
295976
905093
686014
764637
1.08529e+06
159540
127973
329358
483075
1.06641e+06
560596
1.16229e+06
407221
976116
891088
325307
1.15775e+06
400101
1.05861e+06
473583
970022
885315
550250
1.21772e+06
156794
478007
369313
130285
161158
1.34009e+06
791894
1.07707e+06
1.00042e+06
873212
1.08537e+06
795625
306250
336424
497102
1.21016e+06
132699
1.87469e+06
157816
130366
1.42007e+06
164268
252213
509182
513494
1.5066e+06
106984
935077
858060
783500
288504
417173
1.84106e+06
301617
235230
544996
151871
568832
261986
292524
113724
170321
179041
153595
427491
116435
531820
286484
219687
707219
944387
951293
706830
352749
1.72333e+06
126977
127494
1.54837e+06
1.41186e+06
850465
2.08407e+06
882692
758390
819427
1.85482e+06
873648
693911
1.64489e+06
356337
368703
522554
1.44062e+06
105259
1.24796e+06
148743
218603
322284
537792
588122
641821
312037
228137
385675
70950.7
75350.9
131101
134823
182359
149919
125165
173925
895668
1.68302e+06
197345
156214
1.55263e+06
1.08036e+06
423166
569901
129765
136714
1.34135e+06
896468
199432
698866
653860
893781
116274
128740
139316
120415
1.03006e+06
1.6939e+06
1.67001e+06
1.1257e+06
1.81544e+06
227214
112757
284634
856792
782544
935564
422473
290630
1.86375e+06
399191
498315
651493
218464
191640
785785
283011
145281
586523
223759
283477
1.75231e+06
291901
260061
909766
835346
763128
384498
1.18645e+06
1.11332e+06
1.45526e+06
454384
472825
580331
1.2286e+06
566592
409369
1.09136e+06
211657
2.09213e+06
145479
1.59853e+06
419716
481999
116090
509938
968799
128628
147831
141851
1.85012e+06
518636
472300
563074
276589
204127
267014
498458
1.21374e+06
504045
987579
1.17882e+06
1.08186e+06
339966
1.08767e+06
820796
871140
1.0312e+06
1.08676e+06
821422
879491
1.04053e+06
603362
523458
41203.2
253916
159700
348667
509421
426849
589495
1.21052e+06
1.11221e+06
1.01786e+06
929014
344118
971438
468338
145461
102044
108875
180530
98193.3
408584
955885
982050
355017
1.66741e+06
148187
130204
1.30861e+06
1.62893e+06
94388.5
1.01741e+06
399873
536749
748167
448300
270789
131901
398805
599302
65754.8
128352
1.69166e+06
224660
175134
402569
368336
437733
289866
127518
131562
298165
1.03447e+06
1.62179e+06
1.87805e+06
278731
308991
1.30848e+06
1.17971e+06
1.547e+06
112950
881106
1.50324e+06
1.88814e+06
1.94983e+06
1.88715e+06
470987
827610
354188
1.75608e+06
1.29983e+06
527192
1.14415e+06
135153
126517
1.36156e+06
1.36362e+06
126598
373350
1.72718e+06
1.43355e+06
1.35645e+06
1.40345e+06
1.95766e+06
1.32247e+06
1.67539e+06
1.46649e+06
137573
232699
1.06538e+06
537920
882508
188096
127419
161199
149211
144009
179225
160148
357549
1.67578e+06
1.01714e+06
350092
479572
1.09276e+06
152315
508251
362248
2.00748e+06
269842
258567
495524
274030
456606
200032
163212
1.63297e+06
13388.8
131041
130608
26950.3
382000
436555
156452
171572
183787
134146
475637
448316
122330
1.72114e+06
1.47693e+06
501740
1.08609e+06
363981
119944
1.26828e+06
280338
1.71397e+06
454391
555001
652645
751092
1.45103e+06
1.33399e+06
1.2188e+06
1.11016e+06
453679
552197
1.45537e+06
1.337e+06
649117
1.22222e+06
748025
1.11183e+06
252091
197924
479730
507978
445231
215396
181308
157801
132595
125731
134774
121016
123430
204826
790257
849328
731676
410765
798091
879583
1.40166e+06
580102
465975
1.53376e+06
512502
175907
108213
152261
132270
241231
219775
223895
133545
333600
260829
320655
649203
132696
179654
816275
138663
109337
131915
112303
1.17663e+06
151872
184170
541260
431852
228380
544934
192819
115951
105951
1.82865e+06
1.85909e+06
1.07667e+06
878738
854975
1.09328e+06
1.80556e+06
925156
124684
596036
325396
252989
361575
178238
1.7505e+06
188884
990869
910391
831476
435731
299238
523481
301086
233244
1.7696e+06
201512
124713
581168
579390
255694
168113
199136
329904
692977
1.30941e+06
527693
418158
835701
1.05675e+06
281918
404740
894011
818766
747839
419650
453193
755470
600720
847849
451476
935971
1.02495e+06
299224
1.1183e+06
2.05984e+06
1.46269e+06
112515
665490
729405
796862
252409
177644
1.24253e+06
212443
278423
355597
385503
164600
208776
175636
141026
1.14043e+06
869606
914017
1.09575e+06
270590
1.46831e+06
1.82122e+06
669985
124932
653961
715561
781964
750968
888718
245208
1.41155e+06
619383
554084
504875
603307
222445
302948
181174
170849
378978
451013
413036
472337
516699
564298
342160
338645
481898
484635
992016
986423
827352
907308
822530
902345
494587
540626
200847
134148
148264
168664
1.03765e+06
626611
129280
996673
825079
788213
1.02566e+06
175134
362855
1.30793e+06
543858
1.19882e+06
1.09452e+06
100612
218444
915331
524365
375525
1.2081e+06
434878
69451.1
906474
828285
990654
440156
301507
1.26824e+06
467664
379842
1.66387e+06
469881
660558
163922
132795
278776
259442
236560
1.41021e+06
342411
244032
393528
360073
425714
214713
169246
943062
1.06602e+06
175606
595823
133061
822777
1.64158e+06
1.04057e+06
480697
363719
875549
439520
394481
325188
216878
143511
337668
168516
400568
166636
288303
128225
137359
1.72922e+06
335435
1.42833e+06
796394
862568
464434
351011
844548
1.57371e+06
108420
131204
135824
128876
313223
30251.7
10019.2
312258
647064
125087
670780
296001
220698
144688
439505
610905
1.30414e+06
120349
101068
147027
165516
354760
226410
865516
769205
196850
132629
114115
1.7451e+06
647589
120615
257243
129467
2.00709e+06
1.59563e+06
257951
187966
674585
329902
462423
919334
766178
840961
1.84584e+06
1.46392e+06
133019
1.38912e+06
1.89727e+06
1.45905e+06
1.61256e+06
711549
151726
970048
227775
149057
177859
344571
366203
273608
269303
621969
206017
145923
116792
914610
1.07858e+06
1.18115e+06
1.2883e+06
1.38929e+06
605459
519156
430142
341583
217290
114651
438510
20484.3
216953
216272
11142.3
463929
232412
183925
89058.9
287513
327881
129639
309990
939526
679148
469583
335291
382597
1.70629e+06
1.31603e+06
171696
561685
127837
135090
462259
545812
585807
1.17634e+06
327115
360157
132519
1.54102e+06
137589
265103
311069
289475
1.08098e+06
1.18269e+06
608291
690235
688157
460568
595432
1.14432e+06
1.08897e+06
1.08016e+06
365146
501794
102514
116494
106686
230963
115861
510876
1.02189e+06
908201
1.11364e+06
810584
1.12413e+06
809307
553777
389409
981300
717927
984867
720270
246711
1.11272e+06
909184
795676
1.03684e+06
918132
1.13283e+06
822411
1.13527e+06
821363
1.05901e+06
2.00653e+06
416114
581709
1.25753e+06
471194
122372
136393
201598
19910.8
200957
17631
125815
354969
1.09435e+06
999430
1.19565e+06
524979
365691
1.7584e+06
68614.7
122040
234568
784891
245268
677791
330410
1.80028e+06
1.81672e+06
1.10195e+06
132389
250034
1.20232e+06
619930
497665
357193
620057
565570
675465
240336
330116
1.8632e+06
436805
1.65146e+06
124891
125475
123300
124092
91174.9
1.62841e+06
136238
1.18078e+06
89771.3
860018
1.12687e+06
133760
131833
173551
494182
182904
408346
373669
276889
300424
326960
147878
293721
395770
488718
331884
1.12738e+06
1.03506e+06
945010
1.21775e+06
1.63371e+06
1.80497e+06
113511
113234
116078
125379
232618
139325
248230
1.8034e+06
1.84611e+06
1.80809e+06
1.42147e+06
56024.4
994106
1.66558e+06
1.08978e+06
855205
875840
1.07615e+06
548741
503470
977338
624906
1.18377e+06
97080.4
213955
264051
512447
210704
206071
236892
164665
190408
140037
162793
352748
357380
389141
385098
419569
422413
497462
494049
129801
129780
453542
300473
106406
177271
719712
1.18763e+06
130511
690527
1.49726e+06
452416
1.41658e+06
632385
187170
1.35632e+06
683244
573955
909297
1.59155e+06
1.94816e+06
768034
309992
1.64624e+06
231245
173679
151000
374866
89124.6
697159
1.20065e+06
301616
464167
191247
129155
201955
1.7677e+06
303662
350900
339159
256071
735450
230076
185768
744327
163409
1.57508e+06
135264
929766
335782
363963
1.45471e+06
1.20531e+06
722739
1.32072e+06
1.44236e+06
619911
1.56656e+06
520229
416155
1.20188e+06
1.31606e+06
1.56481e+06
1.43774e+06
417556
623425
726067
522000
1.63695e+06
165610
1.2845e+06
143252
109618
129061
7372.2
56092.9
692127
78043
1.23671e+06
246222
190194
459110
497569
420192
376528
234902
1.04224e+06
233579
249434
959456
96696.9
365274
337030
334414
1.05185e+06
960906
1.14903e+06
498125
450247
187375
314545
599238
1.23311e+06
72795.9
302821
185524
124474
407000
1.31651e+06
723212
627668
1.37933e+06
167665
743651
1.60309e+06
802986
1.47897e+06
139268
1.65608e+06
202044
1.11385e+06
386361
476847
128810
12954.8
130167
129706
22186.1
212732
1.15898e+06
162724
1.37586e+06
638858
226115
1.04039e+06
998679
1.14108e+06
1.09546e+06
1.24701e+06
1.19748e+06
571089
552186
393222
381179
434787
297303
996360
915759
836006
267223
315399
289933
152502
921501
801027
92371.9
166403
128047
146486
152446
1.63383e+06
1.34594e+06
342694
1.12275e+06
1.02622e+06
1.22395e+06
119098
614582
1.09967e+06
1.13208e+06
132330
124527
1.3307e+06
433113
153200
232937
272930
252977
154849
442715
406535
374837
1.47948e+06
2.00265e+06
1.45493e+06
1.01188e+06
486890
353355
158827
172729
249677
182928
130267
119877
189023
532941
423010
124156
1.22082e+06
1.40519e+06
552009
501230
152527
150164
136336
140303
393346
1.32711e+06
978217
749102
773148
921988
124763
129735
195501
122093
121041
246890
2.07417e+06
1.64271e+06
128799
160784
661648
571580
400603
1.24757e+06
1.35561e+06
1.04135e+06
1.14115e+06
712841
356682
303383
330597
163626
196077
1.50968e+06
386740
951494
80360.6
1.40873e+06
131212
524972
606930
2.06792e+06
123130
539375
143146
505115
148524
321733
997911
443476
1.12084e+06
722324
1.2304e+06
1.34518e+06
626520
1.46409e+06
528885
432958
531735
433451
208869
626192
709053
923690
124422
198259
1.17971e+06
517955
1.88575e+06
1.5453e+06
1.73138e+06
315885
1.33571e+06
639466
478626
232722
180092
1.81805e+06
958137
119110
1.99146e+06
1.65452e+06
58576.9
556747
457182
74298.9
792523
614209
107076
155677
1.31423e+06
1.91221e+06
128741
642263
659199
1.35386e+06
1.31092e+06
469330
481130
470742
483646
129380
131043
130527
123631
95513.7
1.99383e+06
1.52064e+06
1.39379e+06
1.75722e+06
651132
340488
1.39246e+06
762246
836266
913717
76662.2
1.46673e+06
250321
1.0898e+06
1.5832e+06
463033
319465
1.99499e+06
508129
533579
376210
397485
1.02934e+06
995401
185634
183947
104951
125608
334035
1.21269e+06
1.11158e+06
1.01473e+06
500934
1.98744e+06
130957
231607
112812
1.00164e+06
1.09824e+06
633819
1.19943e+06
542763
1.31559e+06
460788
1.23347e+06
1.02958e+06
1.12833e+06
1.34093e+06
371588
654009
564692
464713
123965
165429
173398
215895
395376
331685
362379
1.60766e+06
718125
876123
1.50418e+06
181786
263657
124931
416664
575586
202061
276157
1.53921e+06
163548
121964
127589
129786
122609
85130.5
192777
144433
156408
1.29458e+06
1.53781e+06
141040
121680
150912
262273
562231
1.68029e+06
1.56165e+06
711130
133009
166894
1.3165e+06
131384
133755
2.03833e+06
770350
1.52067e+06
411046
1.02389e+06
626590
627406
181688
745747
1.06764e+06
505455
365379
152665
342841
124896
90517.1
112797
1.65676e+06
923446
939424
1.59179e+06
252060
271050
147664
506752
134211
124127
136767
311797
259043
26317
258254
18049.1
126913
1.01381e+06
296863
425532
907085
830762
757842
160432
1.85326e+06
625833
344420
1.56966e+06
908585
949262
166388
16306.4
165840
17185.4
1.40215e+06
364993
565742
677095
621775
135577
1.5433e+06
342056
249439
782539
599782
121775
35164.5
1.11845e+06
228476
1.12682e+06
276212
362908
677264
742599
621548
143212
559561
231486
292177
149994
161305
533954
555783
186449
328341
124952
126131
882117
435525
322219
137316
487594
12606.7
47136.8
486099
575185
465420
686363
815166
106252
1.86367e+06
1.94928e+06
237654
128555
137627
202385
225304
23244.3
224628
20063.9
952484
322013
444355
1.81627e+06
1.8423e+06
1.53446e+06
1.42141e+06
802051
710225
679151
603718
1.54216e+06
218103
427663
160498
110269
124180
303528
421913
601579
1.74354e+06
1.76483e+06
220703
114545
565966
618215
213470
946110
381895
316220
1.43364e+06
146357
139284
179679
902052
904432
962077
609302
308490
428076
89142.4
88421.1
1.08386e+06
118295
948084
122129
455786
739875
648406
1.11261e+06
1.30059e+06
131121
160701
350023
1.54051e+06
7665.95
95144.1
28212.3
95420.3
249472
232450
89883.6
1.72403e+06
30795.3
1.63659e+06
426286
41203.6
13301.1
424984
268476
138493
15911.1
138132
341449
1.49425e+06
342100
1.70129e+06
1.93229e+06
56783.1
531848
635992
584137
767765
363080
266340
834080
545900
95691.7
205779
316631
230841
559428
745083
213241
214033
1.86024e+06
639651
741200
694752
801295
1.18342e+06
121186
119243
990020
1.21413e+06
418342
222203
254780
138507
273275
385945
134390
209178
296328
131191
91453.9
1.07976e+06
1.26697e+06
238129
517151
404883
415565
1.30753e+06
580355
255022
203719
507400
436416
113122
298541
1.21714e+06
1.53338e+06
394672
278579
691650
827856
758381
86732
123544
289666
210707
1.14918e+06
416685
99549.6
48605.5
70177.1
386400
275124
669131
800609
733762
129717
1.67509e+06
1.90625e+06
142084
133154
125843
122067
1.66165e+06
319374
242611
695139
2.05725e+06
1.66325e+06
450134
168547
422552
387556
241246
223835
257891
148311
136359
135378
343183
1.63239e+06
109615
853608
924419
1.50083e+06
1.07761e+06
1.05153e+06
397455
391509
530316
538840
262015
279286
244694
121058
123542
624725
207150
1.50696e+06
1.02747e+06
257118
121892
657256
1.93889e+06
119665
978901
813302
769669
1.01104e+06
717394
304107
416380
947144
173146
691890
296440
329825
175887
376193
212223
273695
754486
369582
166429
145815
187446
944040
775126
180662
171770
165477
186737
127546
502377
385948
119059
366695
132181
213158
339083
1.77087e+06
1.55955e+06
1.06693e+06
297286
218051
664862
611316
558941
272193
275321
130069
961331
137389
510727
671461
204292
196002
1.5875e+06
95573.1
301638
280613
143092
1.6626e+06
92179.9
129679
445135
526680
168116
158347
177393
131031
129835
1.06387e+06
109637
130919
16243.6
130536
1.06069e+06
993243
1.87752e+06
1.1552e+06
1.43895e+06
133418
1.48929e+06
999732
14695.1
106651
243386
190318
411856
448807
487061
645697
354341
1.49249e+06
851527
929906
156460
109494
105733
122458
137984
139484
205509
879917
106928
1.88084e+06
466693
183807
960207
615167
315836
437244
208318
179360
253591
389094
248093
517546
476442
186660
132421
642619
938699
91379.8
96903
171772
103673
111467
1.44215e+06
360595
270280
787553
1.38298e+06
379134
264459
646474
554800
603685
506887
296404
217867
131051
8644.5
68400.4
620454
511899
725390
1.53751e+06
1.28896e+06
1.41069e+06
511754
617758
1.54495e+06
1.41652e+06
723620
1.29453e+06
179872
343422
285944
291331
121172
197606
173341
511208
243628
194102
228815
402239
1.13005e+06
549244
130177
202892
120757
133446
217648
334376
122500
121756
120551
825156
301367
397511
271783
352321
734011
623917
745204
597191
1.03667e+06
308860
179906
261678
643962
485478
233771
315340
447872
131613
263444
158542
155342
520136
521463
190277
662355
203211
215924
1.19212e+06
997326
120021
140590
1.59983e+06
100819
167424
106336
200616
246563
798232
729401
662730
433892
438269
795513
185714
135603
126141
1.07094e+06
202158
188849
188644
180313
175303
172038
100895
158660
1.26012e+06
1.26058e+06
382374
301208
131779
856479
731002
306016
423559
604538
123301
90573.5
135430
1.6126e+06
607780
730878
63352.3
518555
200839
82545.8
195186
211216
186864
505667
128485
308454
239610
134772
1.9875e+06
326095
951552
268677
1.52356e+06
657637
769376
403245
293377
917835
108810
137115
166422
355420
432307
284269
198213
118215
85090.3
720192
309595
231511
109367
117501
121031
127511
311032
260598
287882
68059.2
149265
1.43446e+06
135111
1.96283e+06
442442
165263
710912
148092
109281
523470
192625
190645
881959
114924
604272
1.24148e+06
1.13444e+06
1.34974e+06
102462
183425
397681
1.19341e+06
1.12936e+06
316201
133020
338884
343232
492866
574750
1.0689e+06
492248
562796
1.17104e+06
1.05556e+06
1.13847e+06
892748
978381
881375
965943
1.43033e+06
283597
228220
1.64226e+06
110769
155894
589927
1.36594e+06
437809
240661
190647
115487
105845
135336
153181
112117
1.09021e+06
276257
361316
658963
130256
777333
173259
276391
294513
440656
166158