/*--------------------------------*- C++ -*----------------------------------*\
| =========                 |                                                 |
| \\      /  F ield         | OpenFOAM: The Open Source CFD Toolbox           |
|  \\    /   O peration     | Version:  2.3.1                                 |
|   \\  /    A nd           | Web:      www.OpenFOAM.org                      |
|    \\/     M anipulation  |                                                 |
\*---------------------------------------------------------------------------*/
FoamFile
{
    version     2.0;
    format      ascii;
    class       volScalarField;
    location    "0.86";
    object      epsilon;
}
// * * * * * * * * * * * * * * * * * * * * * * * * * * * * * * * * * * * * * //

dimensions      [0 2 -3 0 0 0 0];

internalField   nonuniform List<scalar> 
1000
(
0.000854235
0.000884102
0.000885054
0.000885035
0.00088502
0.000885015
0.000885007
0.000885002
0.000884894
0.000882344
0.000885486
0.000894809
0.000895584
0.000895618
0.000895621
0.000895618
0.000895603
0.00089556
0.000894793
0.00088416
0.000888692
0.000898215
0.000899137
0.000899202
0.000899216
0.000899208
0.000899181
0.000899113
0.000898195
0.000886226
0.000891469
0.000901939
0.000903008
0.000903131
0.00090317
0.000903166
0.000903117
0.000903005
0.000901964
0.000889097
0.000893571
0.000905787
0.000907035
0.000907204
0.000907256
0.000907251
0.000907211
0.000907061
0.000905889
0.000891297
0.000884804
0.000892349
0.000893109
0.000893207
0.000893235
0.000893248
0.000893249
0.000893229
0.000892612
0.000884068
0.000893397
0.000603777
0.000587202
0.000586441
0.000586398
0.000586377
0.000586359
0.000586895
0.000602785
0.00089211
0.00089594
0.000583885
0.000565442
0.000564639
0.00056462
0.000564617
0.00056462
0.000565269
0.000583074
0.000894622
0.00089848
0.000583115
0.00056444
0.000563629
0.000563612
0.000563611
0.00056362
0.00056429
0.000582403
0.000897174
0.000900903
0.000586257
0.000567444
0.000566761
0.000566813
0.000566816
0.000566766
0.00056732
0.00058562
0.000899631
0.000887524
0.000894446
0.000895218
0.000895311
0.000895345
0.000895362
0.000895367
0.000895343
0.000894652
0.000885522
0.000895156
0.000586748
0.0005686
0.000567784
0.000567751
0.000567737
0.000567728
0.000568348
0.00058584
0.000893956
0.000897398
0.000565852
0.000545524
0.000544608
0.000544586
0.000544584
0.000544593
0.000545339
0.000564963
0.000896242
0.000899579
0.000565239
0.000544668
0.000543746
0.000543729
0.000543728
0.000543737
0.000544494
0.000564398
0.000898411
0.000902068
0.000566926
0.000546173
0.000545308
0.000545323
0.000545324
0.000545304
0.00054601
0.000566124
0.000900908
0.000888679
0.000895569
0.000896321
0.0008964
0.000896432
0.000896447
0.000896452
0.000896425
0.000895727
0.000886551
0.000896123
0.000584583
0.000566357
0.000565556
0.000565529
0.000565521
0.00056552
0.000566159
0.000583836
0.000894911
0.000898113
0.000564671
0.000544288
0.000543368
0.000543344
0.000543343
0.000543356
0.00054411
0.000563838
0.000896969
0.000900012
0.000564195
0.000543608
0.000542688
0.00054267
0.00054267
0.000542678
0.000543435
0.000563375
0.000898851
0.000902397
0.000564996
0.000544256
0.000543348
0.000543341
0.000543341
0.000543339
0.000544084
0.00056419
0.000901227
0.000889309
0.000896186
0.00089692
0.000896989
0.000897015
0.000897028
0.000897031
0.000897
0.000896298
0.00088709
0.000896685
0.00058306
0.000564785
0.000563986
0.000563959
0.000563954
0.000563963
0.000564616
0.000582396
0.000895431
0.000898524
0.00056431
0.000543968
0.000543051
0.000543027
0.000543027
0.000543041
0.000543796
0.000563516
0.000897358
0.000900275
0.000563933
0.000543442
0.000542529
0.000542512
0.000542512
0.00054252
0.00054327
0.000563139
0.000899098
0.000902546
0.000564387
0.000543814
0.000542904
0.000542888
0.000542888
0.000542893
0.000543641
0.000563596
0.000901357
0.000889402
0.000896522
0.00089727
0.000897339
0.000897364
0.000897375
0.000897374
0.000897336
0.000896612
0.00088714
0.000896818
0.000582131
0.000563828
0.000563034
0.000563013
0.000563013
0.000563029
0.000563691
0.000581537
0.000895539
0.000898667
0.000564187
0.00054388
0.000542969
0.000542946
0.000542947
0.000542962
0.000543715
0.000563427
0.000897484
0.000900452
0.000563891
0.000543471
0.000542568
0.000542552
0.000542552
0.00054256
0.000543303
0.000563123
0.000899261
0.000902752
0.000564299
0.00054387
0.000542973
0.00054296
0.00054296
0.000542963
0.000543698
0.000563529
0.000901546
0.000888994
0.000896719
0.000897515
0.000897588
0.000897613
0.000897621
0.000897615
0.000897566
0.000896794
0.000886705
0.000896539
0.000582132
0.000563843
0.000563052
0.000563031
0.000563032
0.000563047
0.000563708
0.000581551
0.000895233
0.000898577
0.000564393
0.000544124
0.00054322
0.0005432
0.0005432
0.000543212
0.000543959
0.000563645
0.000897369
0.000900613
0.0005642
0.000543827
0.000542935
0.000542922
0.000542923
0.000542926
0.000543659
0.000563438
0.000899395
0.000903164
0.00056491
0.000544567
0.000543702
0.000543699
0.0005437
0.00054369
0.000544394
0.000564143
0.00090193
0.000888064
0.000896344
0.000897184
0.000897264
0.000897289
0.000897295
0.000897283
0.000897224
0.000896409
0.000885759
0.0008958
0.000583338
0.000565202
0.000564425
0.000564407
0.000564409
0.000564421
0.000565071
0.000582778
0.000894468
0.000898155
0.000566117
0.000546067
0.000545193
0.00054518
0.000545182
0.000545187
0.000545909
0.000565394
0.000896918
0.000900595
0.000566442
0.000546356
0.000545511
0.000545513
0.000545515
0.000545504
0.000546194
0.000565708
0.000899342
0.000903627
0.000568556
0.000548692
0.000547949
0.000547989
0.000547992
0.000547941
0.000548529
0.000567831
0.000902354
0.000886554
0.000894566
0.000895348
0.000895425
0.00089545
0.000895454
0.000895438
0.000895377
0.00089461
0.000884225
0.000894019
0.000604393
0.000588223
0.000587586
0.000587591
0.000587596
0.000587593
0.000588131
0.000604003
0.000892585
0.000896695
0.000590753
0.000573139
0.00057247
0.000572499
0.000572505
0.000572478
0.00057303
0.000590242
0.000895338
0.000899598
0.000594451
0.000577166
0.000576619
0.000576693
0.000576701
0.000576627
0.000577058
0.000593948
0.00089821
0.000903377
0.000604171
0.000587956
0.00058776
0.000587949
0.000587957
0.000587768
0.000587861
0.000603731
0.000901957
0.0008825
0.000882819
0.000882864
0.00088288
0.000882886
0.000882889
0.000882883
0.000882868
0.000882748
0.000880029
0.000884588
0.000891722
0.000892469
0.000892545
0.000892568
0.000892571
0.000892551
0.000892489
0.000891763
0.00088219
0.000887159
0.000894996
0.000895899
0.000896027
0.00089607
0.000896076
0.000896033
0.000895921
0.000895047
0.000884761
0.000890611
0.000898657
0.000899687
0.000899885
0.000899957
0.000899961
0.000899887
0.000899695
0.000898686
0.000888208
0.000896015
0.00090497
0.000906289
0.000906599
0.000906694
0.000906694
0.000906589
0.000906271
0.000904989
0.000893653
0.00090916
0.000931397
0.000935165
0.000935242
0.000935124
0.000935108
0.000935183
0.000935102
0.000931829
0.000907086
0.000968983
0.00123651
0.00127851
0.00126628
0.00126042
0.00126012
0.00126527
0.00127759
0.00124463
0.000970757
0.00157553
0.00469753
0.00518891
0.00501417
0.00494145
0.0049378
0.00500168
0.00517772
0.00478634
0.00161556
0.00581917
0.0280024
0.0318164
0.0312751
0.0309689
0.0309475
0.0312053
0.0317655
0.0285046
0.00607343
0.0234804
0.123
0.142003
0.142869
0.142564
0.142494
0.142661
0.141897
0.124753
0.0243394
0.000909392
0.000624963
0.000611049
0.000611359
0.000611634
0.000611637
0.000611365
0.000610973
0.000624728
0.000907999
0.00091875
0.000702694
0.000698334
0.000699287
0.000699241
0.000699214
0.000699216
0.000698303
0.000703874
0.000917722
0.000987247
0.0012954
0.00135907
0.00133277
0.00132201
0.00132155
0.00133117
0.00135807
0.0013094
0.000989985
0.00199503
0.013893
0.0151336
0.0140014
0.0135714
0.01356
0.0139648
0.0151182
0.0141569
0.00204965
0.0387352
0.290658
0.325304
0.326537
0.325986
0.32589
0.32627
0.325372
0.294177
0.0402592
0.000906989
0.000572744
0.000553442
0.000552929
0.000553048
0.00055305
0.000552922
0.000553287
0.00057207
0.000905762
0.00091141
0.000581539
0.000563596
0.0005633
0.000563395
0.000563394
0.000563291
0.00056346
0.000581087
0.000910273
0.000923443
0.000711053
0.000709976
0.000711317
0.000711502
0.000711478
0.000711261
0.000710103
0.000713255
0.000922952
0.00148438
0.00808923
0.00880468
0.00874209
0.00870358
0.00870155
0.0087373
0.00881342
0.00821573
0.00151131
0.0409543
0.300961
0.327498
0.32766
0.327081
0.327039
0.327563
0.327865
0.304647
0.0425473
0.000905037
0.000566255
0.000546057
0.0005453
0.000545348
0.000545348
0.00054529
0.000545886
0.0005655
0.000903831
0.00090893
0.00056642
0.000546302
0.000545466
0.000545455
0.000545455
0.000545451
0.000546129
0.000565713
0.000907778
0.000916159
0.00066258
0.000651072
0.000650949
0.000651417
0.00065145
0.000651051
0.000651263
0.000663797
0.000915494
0.00142899
0.00811778
0.00879859
0.00883295
0.00883075
0.00883031
0.00883324
0.00881507
0.00824377
0.00145348
0.0447934
0.33005
0.357297
0.358606
0.358463
0.358452
0.35862
0.357908
0.334229
0.046604
0.000903915
0.000565284
0.000544945
0.000544142
0.000544173
0.000544174
0.000544132
0.000544777
0.000564524
0.000902719
0.000907707
0.000564267
0.0005438
0.000542876
0.000542846
0.000542844
0.000542862
0.000543624
0.000563518
0.000906552
0.000913118
0.000646268
0.000634189
0.000634711
0.000635378
0.000635418
0.000634855
0.000634449
0.000647348
0.000912379
0.0014685
0.00912454
0.00992076
0.010053
0.0100908
0.0100914
0.0100588
0.00994939
0.00927418
0.00149668
0.0466668
0.340472
0.368003
0.36981
0.369866
0.369868
0.369881
0.368728
0.344843
0.0485855
0.000903705
0.000565922
0.00054538
0.000544579
0.00054462
0.000544621
0.000544573
0.000545216
0.000565152
0.000902521
0.000907802
0.000564936
0.000543764
0.000542803
0.00054277
0.000542769
0.000542791
0.00054359
0.000564167
0.000906659
0.000914117
0.000656703
0.00064825
0.000650358
0.000651329
0.000651352
0.000650477
0.000648539
0.000657971
0.000913392
0.00184169
0.0113553
0.012468
0.0129004
0.0130546
0.0130577
0.0129187
0.012518
0.0115315
0.00188849
0.047341
0.335673
0.362157
0.363914
0.363995
0.364001
0.364014
0.362929
0.339979
0.0493093
0.000904237
0.000567712
0.000546936
0.000546165
0.00054623
0.000546233
0.000546165
0.000546781
0.000566943
0.000903089
0.000908714
0.000567284
0.00054523
0.000544295
0.000544281
0.000544283
0.00054429
0.000545067
0.00056651
0.000907571
0.000920117
0.000680715
0.00067454
0.00068004
0.000682459
0.000682521
0.000680314
0.000675055
0.00068212
0.000919602
0.00232262
0.0100052
0.0109854
0.011542
0.0117861
0.0117928
0.0115686
0.0110346
0.0101351
0.002386
0.0473307
0.314631
0.338008
0.339898
0.340134
0.340147
0.340041
0.338787
0.318491
0.0492654
0.000905587
0.000570467
0.000549508
0.00054875
0.000548826
0.000548832
0.000548754
0.000549364
0.00056971
0.000904457
0.000909526
0.000574957
0.000552515
0.000551903
0.00055201
0.000552015
0.000551915
0.000552381
0.000574241
0.000908369
0.000930477
0.000698276
0.000690305
0.000695149
0.000697364
0.000697425
0.000695392
0.000690744
0.000699402
0.000930038
0.00224781
0.00732881
0.00802415
0.00822604
0.00830388
0.00830548
0.00823517
0.00804938
0.00742672
0.00227965
0.0437369
0.254761
0.271635
0.273776
0.274391
0.274417
0.273952
0.272285
0.257496
0.0453428
0.000907187
0.000588606
0.000569294
0.000568581
0.000568629
0.000568634
0.000568587
0.000569174
0.000587996
0.000905983
0.000908662
0.000611611
0.000591983
0.000592285
0.000592685
0.0005927
0.000592327
0.000591943
0.000611206
0.000907408
0.000940507
0.000742909
0.000732772
0.000735732
0.000737154
0.000737188
0.000735871
0.000733024
0.000743677
0.000939944
0.0015287
0.004651
0.00505885
0.00512787
0.00515095
0.00515101
0.00513038
0.00506991
0.0047069
0.00154908
0.0307234
0.149301
0.157959
0.159375
0.159861
0.15988
0.159484
0.158308
0.150629
0.0315666
0.000901155
0.000916491
0.000918415
0.000918835
0.000919
0.000919015
0.00091885
0.000918498
0.000916708
0.000898863
0.000896212
0.000920767
0.000923693
0.000924123
0.000924247
0.000924256
0.000924162
0.00092381
0.000921045
0.000893898
0.000943868
0.000982715
0.000987962
0.000989354
0.000989804
0.000989801
0.000989423
0.000988075
0.000983277
0.000941964
0.00112736
0.00149928
0.00156478
0.00157558
0.00157865
0.00157866
0.00157586
0.00156632
0.00150678
0.00113143
0.00956081
0.0218016
0.0228038
0.0230753
0.0231621
0.0231649
0.0230899
0.0228458
0.0219504
0.00970161
)
;

boundaryField
{
    walls
    {
        type            epsilonWallFunction;
        value           nonuniform List<scalar> 
500
(
0.000854235
0.000854235
0.000854235
0.000884102
0.000884102
0.000885054
0.000885054
0.000885035
0.000885035
0.00088502
0.00088502
0.000885015
0.000885015
0.000885007
0.000885007
0.000885002
0.000885002
0.000884894
0.000884894
0.000882344
0.000882344
0.000882344
0.000885486
0.000885486
0.000894809
0.000895584
0.000895618
0.000895621
0.000895618
0.000895603
0.00089556
0.000894793
0.00088416
0.00088416
0.000888692
0.000888692
0.000898215
0.000899137
0.000899202
0.000899216
0.000899208
0.000899181
0.000899113
0.000898195
0.000886226
0.000886226
0.000891469
0.000891469
0.000901939
0.000903008
0.000903131
0.00090317
0.000903166
0.000903117
0.000903005
0.000901964
0.000889097
0.000889097
0.000893571
0.000893571
0.000905787
0.000907035
0.000907204
0.000907256
0.000907251
0.000907211
0.000907061
0.000905889
0.000891297
0.000891297
0.000884804
0.000884804
0.000892349
0.000893109
0.000893207
0.000893235
0.000893248
0.000893249
0.000893229
0.000892612
0.000884068
0.000884068
0.000893397
0.00089211
0.00089594
0.000894622
0.00089848
0.000897174
0.000900903
0.000899631
0.000887524
0.000887524
0.000894446
0.000895218
0.000895311
0.000895345
0.000895362
0.000895367
0.000895343
0.000894652
0.000885522
0.000885522
0.000895156
0.000893956
0.000897398
0.000896242
0.000899579
0.000898411
0.000902068
0.000900908
0.000888679
0.000888679
0.000895569
0.000896321
0.0008964
0.000896432
0.000896447
0.000896452
0.000896425
0.000895727
0.000886551
0.000886551
0.000896123
0.000894911
0.000898113
0.000896969
0.000900012
0.000898851
0.000902397
0.000901227
0.000889309
0.000889309
0.000896186
0.00089692
0.000896989
0.000897015
0.000897028
0.000897031
0.000897
0.000896298
0.00088709
0.00088709
0.000896685
0.000895431
0.000898524
0.000897358
0.000900275
0.000899098
0.000902546
0.000901357
0.000889402
0.000889402
0.000896522
0.00089727
0.000897339
0.000897364
0.000897375
0.000897374
0.000897336
0.000896612
0.00088714
0.00088714
0.000896818
0.000895539
0.000898667
0.000897484
0.000900452
0.000899261
0.000902752
0.000901546
0.000888994
0.000888994
0.000896719
0.000897515
0.000897588
0.000897613
0.000897621
0.000897615
0.000897566
0.000896794
0.000886705
0.000886705
0.000896539
0.000895233
0.000898577
0.000897369
0.000900613
0.000899395
0.000903164
0.00090193
0.000888064
0.000888064
0.000896344
0.000897184
0.000897264
0.000897289
0.000897295
0.000897283
0.000897224
0.000896409
0.000885759
0.000885759
0.0008958
0.000894468
0.000898155
0.000896918
0.000900595
0.000899342
0.000903627
0.000902354
0.000886554
0.000886554
0.000894566
0.000895348
0.000895425
0.00089545
0.000895454
0.000895438
0.000895377
0.00089461
0.000884225
0.000884225
0.000894019
0.000892585
0.000896695
0.000895338
0.000899598
0.00089821
0.000903377
0.000901957
0.0008825
0.0008825
0.0008825
0.000882819
0.000882819
0.000882864
0.000882864
0.00088288
0.00088288
0.000882886
0.000882886
0.000882889
0.000882889
0.000882883
0.000882883
0.000882868
0.000882868
0.000882748
0.000882748
0.000880029
0.000880029
0.000880029
0.000884588
0.000884588
0.000891722
0.000892469
0.000892545
0.000892568
0.000892571
0.000892551
0.000892489
0.000891763
0.00088219
0.00088219
0.000887159
0.000887159
0.000894996
0.000895899
0.000896027
0.00089607
0.000896076
0.000896033
0.000895921
0.000895047
0.000884761
0.000884761
0.000890611
0.000890611
0.000898657
0.000899687
0.000899885
0.000899957
0.000899961
0.000899887
0.000899695
0.000898686
0.000888208
0.000888208
0.000896015
0.000896015
0.00090497
0.000906289
0.000906599
0.000906694
0.000906694
0.000906589
0.000906271
0.000904989
0.000893653
0.000893653
0.00090916
0.00090916
0.000931397
0.000935165
0.000935242
0.000935124
0.000935108
0.000935183
0.000935102
0.000931829
0.000907086
0.000907086
0.000968983
0.000968983
0.00123651
0.00127851
0.00126628
0.00126042
0.00126012
0.00126527
0.00127759
0.00124463
0.000970757
0.000970757
0.00157553
0.00157553
0.00469753
0.00518891
0.00501417
0.00494145
0.0049378
0.00500168
0.00517772
0.00478634
0.00161556
0.00161556
0.00581917
0.00581917
0.0280024
0.0318164
0.0312751
0.0309689
0.0309475
0.0312053
0.0317655
0.0285046
0.00607343
0.00607343
0.0234804
0.0234804
0.123
0.142003
0.142869
0.142564
0.142494
0.142661
0.141897
0.124753
0.0243394
0.0243394
0.000909392
0.000907999
0.00091875
0.000917722
0.000987247
0.000989985
0.00199503
0.00204965
0.0387352
0.0402592
0.000906989
0.000905762
0.00091141
0.000910273
0.000923443
0.000922952
0.00148438
0.00151131
0.0409543
0.0425473
0.000905037
0.000903831
0.00090893
0.000907778
0.000916159
0.000915494
0.00142899
0.00145348
0.0447934
0.046604
0.000903915
0.000902719
0.000907707
0.000906552
0.000913118
0.000912379
0.0014685
0.00149668
0.0466668
0.0485855
0.000903705
0.000902521
0.000907802
0.000906659
0.000914117
0.000913392
0.00184169
0.00188849
0.047341
0.0493093
0.000904237
0.000903089
0.000908714
0.000907571
0.000920117
0.000919602
0.00232262
0.002386
0.0473307
0.0492654
0.000905587
0.000904457
0.000909526
0.000908369
0.000930477
0.000930038
0.00224781
0.00227965
0.0437369
0.0453428
0.000907187
0.000905983
0.000908662
0.000907408
0.000940507
0.000939944
0.0015287
0.00154908
0.0307234
0.0315666
0.000901155
0.000901155
0.000916491
0.000918415
0.000918835
0.000919
0.000919015
0.00091885
0.000918498
0.000916708
0.000898863
0.000898863
0.000896212
0.000896212
0.000920767
0.000923693
0.000924123
0.000924247
0.000924256
0.000924162
0.00092381
0.000921045
0.000893898
0.000893898
0.000943868
0.000943868
0.000982715
0.000987962
0.000989354
0.000989804
0.000989801
0.000989423
0.000988075
0.000983277
0.000941964
0.000941964
0.00112736
0.00112736
0.00149928
0.00156478
0.00157558
0.00157865
0.00157866
0.00157586
0.00156632
0.00150678
0.00113143
0.00113143
0.00956081
0.00956081
0.0218016
0.0228038
0.0230753
0.0231621
0.0231649
0.0230899
0.0228458
0.0219504
0.00970161
0.00970161
)
;
        Cmu             0.09;
        kappa           0.41;
        E               9.8;
    }
    lid
    {
        type            epsilonWallFunction;
        value           nonuniform List<scalar> 
100
(
0.0234804
0.123
0.142003
0.142869
0.142564
0.142494
0.142661
0.141897
0.124753
0.0243394
0.0387352
0.290658
0.325304
0.326537
0.325986
0.32589
0.32627
0.325372
0.294177
0.0402592
0.0409543
0.300961
0.327498
0.32766
0.327081
0.327039
0.327563
0.327865
0.304647
0.0425473
0.0447934
0.33005
0.357297
0.358606
0.358463
0.358452
0.35862
0.357908
0.334229
0.046604
0.0466668
0.340472
0.368003
0.36981
0.369866
0.369868
0.369881
0.368728
0.344843
0.0485855
0.047341
0.335673
0.362157
0.363914
0.363995
0.364001
0.364014
0.362929
0.339979
0.0493093
0.0473307
0.314631
0.338008
0.339898
0.340134
0.340147
0.340041
0.338787
0.318491
0.0492654
0.0437369
0.254761
0.271635
0.273776
0.274391
0.274417
0.273952
0.272285
0.257496
0.0453428
0.0307234
0.149301
0.157959
0.159375
0.159861
0.15988
0.159484
0.158308
0.150629
0.0315666
0.00956081
0.0218016
0.0228038
0.0230753
0.0231621
0.0231649
0.0230899
0.0228458
0.0219504
0.00970161
)
;
        Cmu             0.09;
        kappa           0.41;
        E               9.8;
    }
}


// ************************************************************************* //
