/*--------------------------------*- C++ -*----------------------------------*\
| =========                 |                                                 |
| \\      /  F ield         | OpenFOAM: The Open Source CFD Toolbox           |
|  \\    /   O peration     | Version:  2.3.1                                 |
|   \\  /    A nd           | Web:      www.OpenFOAM.org                      |
|    \\/     M anipulation  |                                                 |
\*---------------------------------------------------------------------------*/
FoamFile
{
    version     2.0;
    format      ascii;
    class       volScalarField;
    location    "0.86";
    object      p;
}
// * * * * * * * * * * * * * * * * * * * * * * * * * * * * * * * * * * * * * //

dimensions      [0 2 -2 0 0 0 0];

internalField   nonuniform List<scalar> 
1000
(
-0.00205542
-0.0019323
-0.00192741
-0.00192294
-0.00192075
-0.00191714
-0.00190285
-0.00188204
-0.00185886
-0.00185421
-0.00286061
-0.00283091
-0.00284548
-0.0028587
-0.00286654
-0.00286394
-0.00284598
-0.00281752
-0.00279276
-0.00279314
-0.00481596
-0.00482455
-0.00486331
-0.00490384
-0.00492625
-0.00492482
-0.00489344
-0.00484876
-0.00480473
-0.00478993
-0.00734027
-0.00734663
-0.00736912
-0.00740361
-0.00742517
-0.00742
-0.00739347
-0.00735585
-0.00733003
-0.00731616
-0.0144732
-0.0146285
-0.0148137
-0.0149855
-0.015079
-0.0150775
-0.0149905
-0.0148244
-0.0146418
-0.0144873
-0.00102083
-0.00101421
-0.00102251
-0.00102853
-0.00103002
-0.00102696
-0.00101459
-0.00099277
-0.000970158
-0.000956182
-0.00186663
-0.00187066
-0.00188971
-0.00190834
-0.00191755
-0.00191641
-0.00189822
-0.00187096
-0.00184482
-0.00183488
-0.00370234
-0.00373292
-0.00377604
-0.00381673
-0.00384102
-0.00383786
-0.00380978
-0.0037636
-0.00372054
-0.00368905
-0.006179
-0.00623769
-0.00628091
-0.006328
-0.00635251
-0.00635054
-0.00631876
-0.00627324
-0.00622765
-0.00616266
-0.0125844
-0.0127588
-0.0129472
-0.0131267
-0.0132241
-0.0132221
-0.013135
-0.0129605
-0.012776
-0.0126035
0.000800889
0.00079421
0.000785058
0.000775129
0.000771611
0.000773257
0.000783875
0.000802422
0.000822128
0.000834616
7.39119e-05
6.01415e-05
4.13335e-05
2.28757e-05
1.2679e-05
1.41014e-05
2.86103e-05
5.4018e-05
7.5523e-05
8.92632e-05
-0.0014802
-0.00151674
-0.00155889
-0.00159831
-0.00161897
-0.0016188
-0.00159138
-0.00155212
-0.00151014
-0.0014733
-0.00368826
-0.00376932
-0.00382563
-0.00387872
-0.00391085
-0.00390532
-0.003877
-0.00381911
-0.00376566
-0.00368357
-0.00882223
-0.00900872
-0.00919803
-0.00937781
-0.00946876
-0.0094753
-0.00938114
-0.00921222
-0.0090278
-0.00883978
0.00334799
0.00334251
0.00333826
0.00333253
0.00333142
0.00333241
0.00333961
0.0033521
0.00336308
0.0033682
0.00281318
0.00280567
0.00279341
0.00278153
0.00277511
0.00277602
0.00278728
0.00280353
0.00281736
0.00282368
0.00168331
0.00165369
0.00162229
0.00159526
0.00157866
0.0015815
0.00159945
0.00163043
0.00165883
0.00168906
-1.76368e-05
-7.81332e-05
-0.000129021
-0.000178083
-0.000201254
-0.000202169
-0.000171676
-0.000127125
-7.4432e-05
-8.10458e-06
-0.00355969
-0.00372626
-0.00388321
-0.00402552
-0.00410524
-0.00410087
-0.00403506
-0.00388942
-0.00374169
-0.00357842
0.00644144
0.00644173
0.00644531
0.00644946
0.00645202
0.00645493
0.00645668
0.00645876
0.00645658
0.00645222
0.00615568
0.00615467
0.00615449
0.00615484
0.00615621
0.00615772
0.00616163
0.00616573
0.00616583
0.00616618
0.00554699
0.00553622
0.00552482
0.00551605
0.00551115
0.00551305
0.00552176
0.00553243
0.00554544
0.00556152
0.00458423
0.00454726
0.0045191
0.00449596
0.00448085
0.00448439
0.00449665
0.00452502
0.00455399
0.00459655
0.00265094
0.00255339
0.00246074
0.00237703
0.00234014
0.00233572
0.00238114
0.00245554
0.00254949
0.00264749
0.00981951
0.00983275
0.00985064
0.00986707
0.00987962
0.00988194
0.00987799
0.00986505
0.00984733
0.00982962
0.00982715
0.0098398
0.00985763
0.00987651
0.0098871
0.00989137
0.00988472
0.00987138
0.00985389
0.0098434
0.00982131
0.00983537
0.00985433
0.00987182
0.00988405
0.009885
0.00987738
0.00986373
0.00984982
0.00984545
0.00971818
0.00973437
0.00974914
0.00976285
0.00977035
0.00976929
0.00976536
0.00975259
0.0097487
0.00974246
0.00938175
0.00937255
0.00937157
0.00938098
0.00937611
0.00938365
0.0093793
0.00938177
0.00938477
0.00938776
0.0131795
0.0132093
0.013243
0.0132779
0.0132977
0.013304
0.0132899
0.0132612
0.0132233
0.0131938
0.0135038
0.0135363
0.0135786
0.0136182
0.0136441
0.013647
0.0136294
0.013594
0.0135543
0.0135278
0.0141442
0.0141942
0.0142507
0.0143032
0.0143309
0.0143344
0.0143073
0.0142593
0.0142121
0.0141725
0.0150074
0.0150843
0.0151593
0.0152284
0.0152662
0.0152652
0.0152304
0.0151665
0.0151008
0.0150334
0.0161423
0.0162592
0.0163707
0.0164769
0.0165324
0.0165353
0.0164884
0.0163852
0.0162939
0.016176
0.0161797
0.0162265
0.0162815
0.0163326
0.0163655
0.0163708
0.0163479
0.016301
0.0162457
0.0162025
0.01682
0.0168797
0.0169488
0.0170142
0.0170516
0.0170573
0.017026
0.0169655
0.0169008
0.016851
0.0181227
0.0182166
0.0183212
0.0184128
0.0184661
0.0184673
0.0184179
0.0183306
0.0182345
0.0181499
0.0200043
0.0201862
0.0203446
0.0204864
0.0205587
0.0205627
0.020492
0.0203499
0.0202119
0.0200333
0.0226431
0.0229355
0.023196
0.0234293
0.0235507
0.023557
0.0234425
0.0232309
0.0229856
0.022694
0.0184762
0.0185383
0.01861
0.0186784
0.0187196
0.0187262
0.0186953
0.0186315
0.0185621
0.0185124
0.019399
0.0194733
0.0195702
0.0196575
0.0197097
0.019715
0.0196698
0.0195881
0.0194975
0.0194339
0.0212981
0.021448
0.0216
0.0217347
0.0218088
0.0218111
0.0217431
0.0216066
0.0214699
0.0213303
0.0242242
0.0245156
0.0247785
0.0250037
0.0251201
0.0251272
0.0250072
0.0247992
0.024546
0.0242534
0.0282965
0.0289026
0.0293636
0.0297445
0.0299337
0.0299366
0.0297697
0.0294023
0.0289887
0.0283809
0.0197299
0.0197897
0.0198739
0.0199511
0.0199987
0.020005
0.0199668
0.0198954
0.0198179
0.0197722
0.0208418
0.0209304
0.0210462
0.0211494
0.0212099
0.0212143
0.0211624
0.0210619
0.0209567
0.0208809
0.0232344
0.0234294
0.0236306
0.0238006
0.0238912
0.0238969
0.0238057
0.0236441
0.023454
0.0232631
0.0271077
0.0276243
0.0280118
0.0283135
0.0284667
0.0284652
0.0283287
0.0280334
0.0276833
0.0271685
0.0330514
0.0343173
0.0350848
0.0356212
0.0358553
0.035869
0.0356288
0.0351603
0.0344153
0.0331384
0.0410984
0.0445107
0.0459329
0.0468035
0.0471427
0.0471262
0.0468564
0.0459878
0.0446746
0.041288
0.0540681
0.0597996
0.0619902
0.0633012
0.0637432
0.0637788
0.0633229
0.0620868
0.0598915
0.0541796
0.0667482
0.0832194
0.0881334
0.0902921
0.0908991
0.0909
0.0903514
0.0881543
0.0834725
0.0671382
0.101958
0.135693
0.147239
0.149635
0.15025
0.150248
0.149627
0.147347
0.136253
0.102655
0.0121059
-0.000200107
-0.00110852
-0.00117199
-0.000941354
-0.000959411
-0.00120391
-0.00108701
-0.000304774
0.0119343
0.0320647
0.0332507
0.0339523
0.0345238
0.0347764
0.0347808
0.0345543
0.0340191
0.033334
0.0321615
0.0391937
0.040453
0.0413404
0.0422156
0.042597
0.0426097
0.0422716
0.0413887
0.0405132
0.0392978
0.0342666
0.0317182
0.031425
0.0323078
0.0327052
0.03273
0.0323515
0.0314524
0.0316424
0.0342467
0.0212328
0.0122768
0.00995679
0.0102182
0.0104687
0.0104828
0.0102518
0.00997022
0.0120844
0.0210234
0.00706839
-0.0051757
-0.00862578
-0.0096993
-0.00981674
-0.00982701
-0.00972408
-0.00867067
-0.00533926
0.00682447
0.0242976
0.0248799
0.0252397
0.0255396
0.0256847
0.0256847
0.0255612
0.0252786
0.0249432
0.0243671
0.0292392
0.0299268
0.0303757
0.0308075
0.0309954
0.0310082
0.0308345
0.0304265
0.0299768
0.0293138
0.0261474
0.0266195
0.0268281
0.0271333
0.0272698
0.0272706
0.0271515
0.026837
0.0266409
0.0262655
0.031998
0.0318817
0.0318356
0.0322056
0.0323603
0.0323707
0.032222
0.0318605
0.0318913
0.0319267
0.0174106
0.0135993
0.0124574
0.0120762
0.0120414
0.0120265
0.0120596
0.0124367
0.0135434
0.0173085
0.0164661
0.0166504
0.0167774
0.0169059
0.016951
0.0169679
0.0169069
0.0168052
0.0166865
0.0164841
0.0185406
0.0187272
0.018857
0.0190089
0.0190997
0.0190931
0.0190328
0.0188771
0.0187525
0.0185663
0.016252
0.0162761
0.016232
0.016301
0.01632
0.0163289
0.0162885
0.0162355
0.01626
0.0162327
0.0201725
0.0199293
0.0197797
0.020075
0.0202446
0.0202326
0.020113
0.0197986
0.0199226
0.0201878
0.0148297
0.0139696
0.0137793
0.0138116
0.0138581
0.0138618
0.0138098
0.0137631
0.0139307
0.0147591
0.00879809
0.00876962
0.00874686
0.00872762
0.00873317
0.00872541
0.00874465
0.00875017
0.00877638
0.00879628
0.00767635
0.00736482
0.00721866
0.00713328
0.00707954
0.00709955
0.00711423
0.00722976
0.00734372
0.00761932
0.00677209
0.00642824
0.00619798
0.00605546
0.00600404
0.00599278
0.00605659
0.00616989
0.00636943
0.00674212
0.00626963
0.00328912
0.00202509
0.00172699
0.00163138
0.0016592
0.00173424
0.00203219
0.00315476
0.00615158
0.00673592
0.00619202
0.00586847
0.00578358
0.00574997
0.00575295
0.00576975
0.00580938
0.006159
0.00673037
0.001724
0.00151827
0.00138007
0.00126085
0.00119841
0.00120608
0.00125195
0.00138269
0.00150626
0.00169163
-0.00368652
-0.00457327
-0.005083
-0.00545013
-0.00557621
-0.0055899
-0.00545064
-0.00510181
-0.00463023
-0.003757
-0.00203894
-0.00291675
-0.00333827
-0.00355355
-0.00364525
-0.00364661
-0.0035342
-0.00333424
-0.00300213
-0.00214878
-0.011431
-0.019142
-0.0214778
-0.022835
-0.0232345
-0.023204
-0.0228491
-0.0215879
-0.0193037
-0.0116072
-0.00208787
-0.00235747
-0.00274904
-0.0028427
-0.00300706
-0.00305166
-0.00293238
-0.00277472
-0.00246187
-0.00216285
-0.00452702
-0.00479734
-0.00498093
-0.00516566
-0.00524465
-0.00525585
-0.00515995
-0.00498458
-0.00481896
-0.00454747
-0.0150148
-0.0163987
-0.0171632
-0.0176962
-0.0179271
-0.0179262
-0.0176854
-0.0171712
-0.0164841
-0.0151366
-0.0101609
-0.0111645
-0.0114692
-0.011609
-0.011465
-0.0114294
-0.0115485
-0.011494
-0.011158
-0.0102252
-0.035499
-0.0465276
-0.0495145
-0.0519737
-0.0525366
-0.052557
-0.0520171
-0.0497042
-0.0466566
-0.0360067
-0.00867322
-0.00849092
-0.00877349
-0.00850515
-0.00895861
-0.00901265
-0.0086313
-0.00872031
-0.00873281
-0.00861081
-0.00937961
-0.00966499
-0.00981721
-0.00998795
-0.0100714
-0.0100682
-0.00998428
-0.00981617
-0.00967995
-0.00940078
-0.0254653
-0.0268394
-0.0276372
-0.028266
-0.0285472
-0.0285491
-0.0282476
-0.0276545
-0.0269281
-0.0256001
-0.0161781
-0.0167166
-0.0167798
-0.0168888
-0.0168947
-0.0168656
-0.0168423
-0.0167573
-0.0167429
-0.0162708
-0.0641839
-0.0732012
-0.0761283
-0.0786092
-0.0795507
-0.0795875
-0.0786982
-0.0762988
-0.0734849
-0.0649407
-0.00690786
-0.00519317
-0.00391197
-0.00322418
-0.00304047
-0.00306847
-0.00328083
-0.00388299
-0.00501234
-0.00643589
-0.0124336
-0.0126357
-0.0127167
-0.012844
-0.0129053
-0.0129044
-0.0128457
-0.012717
-0.0126387
-0.0124354
-0.0329356
-0.0341342
-0.0348695
-0.0355117
-0.0358197
-0.0358294
-0.035524
-0.0348958
-0.0341981
-0.0330335
-0.0189506
-0.0187267
-0.0183908
-0.0183912
-0.0184032
-0.0184044
-0.0183709
-0.0183669
-0.0187136
-0.0189645
-0.0832046
-0.0927066
-0.0956247
-0.0981172
-0.0991035
-0.0991225
-0.0982084
-0.0957689
-0.0929083
-0.0835672
0.0016888
0.0136169
0.01744
0.0190278
0.0194225
0.0194156
0.0190357
0.017504
0.0138953
0.00205923
-0.0136975
-0.0137192
-0.0137219
-0.0137973
-0.0138359
-0.0138393
-0.0138014
-0.0137229
-0.0137082
-0.0136854
-0.0362202
-0.0372708
-0.0379475
-0.0385532
-0.0388583
-0.0388743
-0.0385833
-0.0379835
-0.0373169
-0.0362865
-0.0196154
-0.0187866
-0.0182649
-0.0181634
-0.0181656
-0.018173
-0.0181572
-0.018254
-0.0187536
-0.0195911
-0.0918697
-0.101183
-0.104173
-0.106586
-0.107566
-0.107581
-0.106657
-0.104303
-0.101377
-0.0921548
0.00912787
0.0261185
0.0301073
0.0318739
0.0322736
0.0322936
0.0319112
0.0301698
0.026386
0.00951331
)
;

boundaryField
{
    walls
    {
        type            zeroGradient;
    }
    lid
    {
        type            zeroGradient;
    }
}


// ************************************************************************* //
