/*--------------------------------*- C++ -*----------------------------------*\
| =========                 |                                                 |
| \\      /  F ield         | OpenFOAM: The Open Source CFD Toolbox           |
|  \\    /   O peration     | Version:  2.3.1                                 |
|   \\  /    A nd           | Web:      www.OpenFOAM.org                      |
|    \\/     M anipulation  |                                                 |
\*---------------------------------------------------------------------------*/
FoamFile
{
    version     2.0;
    format      ascii;
    class       volVectorField;
    location    "0.86";
    object      U;
}
// * * * * * * * * * * * * * * * * * * * * * * * * * * * * * * * * * * * * * //

dimensions      [0 1 -1 0 0 0 0];

internalField   nonuniform List<vector> 
1000
(
(-0.00203328 0.00267169 0.000347045)
(-0.00233178 0.00243059 0.000282999)
(-0.0023729 0.00242064 0.000138551)
(-0.00241066 0.00240329 0.000129032)
(-0.0024184 0.00240882 4.79873e-05)
(-0.00242289 0.00240582 -3.76487e-06)
(-0.00242283 0.00239586 -5.07958e-05)
(-0.0024222 0.00238068 -7.25704e-05)
(-0.00242268 0.00236532 -5.95734e-05)
(-0.0024236 0.00235496 -2.39138e-05)
(-0.00258587 0.00731339 9.07651e-05)
(-0.00270854 0.00719611 0.000106124)
(-0.00272776 0.00726119 0.000137622)
(-0.00274523 0.00728067 0.000122231)
(-0.0027515 0.00731093 5.33333e-05)
(-0.00275427 0.00730825 -1.50216e-05)
(-0.00275337 0.00727667 -7.43229e-05)
(-0.00275161 0.00722283 -0.000101336)
(-0.00274533 0.00716453 -6.98303e-05)
(-0.00267304 0.0071106 -2.53757e-05)
(-0.00315602 0.012416 0.000112615)
(-0.00327808 0.012529 0.000199983)
(-0.00329512 0.0126344 0.000221921)
(-0.00330767 0.0127173 0.000178454)
(-0.00331415 0.012771 7.62042e-05)
(-0.00331632 0.012771 -3.74223e-05)
(-0.0033137 0.0127193 -0.000135755)
(-0.00331019 0.0126266 -0.000184902)
(-0.0033002 0.0125291 -0.000147396)
(-0.00320712 0.0123998 -6.57791e-05)
(-0.0040574 0.0212393 0.00012693)
(-0.00415555 0.021652 0.000292871)
(-0.00416059 0.0220226 0.000327718)
(-0.00416521 0.0223178 0.000258736)
(-0.00417005 0.0224771 0.000106853)
(-0.00417137 0.0224823 -6.65927e-05)
(-0.00416955 0.0223354 -0.000218604)
(-0.00416918 0.0220469 -0.000293284)
(-0.00416735 0.0216914 -0.000262223)
(-0.00407733 0.0212618 -0.000106271)
(-0.00606744 0.0202375 0.000551489)
(-0.00627008 0.0205195 0.000934121)
(-0.0063176 0.0206036 0.000888874)
(-0.00634524 0.0207346 0.000631378)
(-0.00636215 0.0208031 0.000240102)
(-0.00636399 0.0208049 -0.000178744)
(-0.0063504 0.0207401 -0.000569934)
(-0.00632696 0.0206073 -0.000830288)
(-0.00628347 0.0205269 -0.0008848)
(-0.00608413 0.0202418 -0.00052826)
(-0.00663082 0.00215988 7.49279e-05)
(-0.00684119 0.00221734 8.37879e-05)
(-0.00684705 0.00224475 9.26689e-05)
(-0.00689327 0.00224884 9.18929e-05)
(-0.00690348 0.00225631 3.97503e-05)
(-0.00690939 0.00225506 -6.88284e-06)
(-0.00690601 0.00224547 -5.00174e-05)
(-0.00689909 0.00223006 -7.32527e-05)
(-0.00689168 0.00220797 -7.64479e-05)
(-0.00685219 0.0021247 -3.49405e-05)
(-0.0075047 0.0064012 5.59679e-05)
(-0.00763312 0.00653628 9.79587e-05)
(-0.00764782 0.00661891 0.000124199)
(-0.00767402 0.00666232 0.000106532)
(-0.00768566 0.00669301 4.82904e-05)
(-0.00768973 0.00669231 -1.54731e-05)
(-0.00768409 0.00666241 -7.20196e-05)
(-0.00767403 0.00660957 -0.000101169)
(-0.00765643 0.00654461 -9.09309e-05)
(-0.00754036 0.00640797 -3.93528e-05)
(-0.00891675 0.0111392 0.000102569)
(-0.0090847 0.0113196 0.000197863)
(-0.00911599 0.0114398 0.00021086)
(-0.00914549 0.011535 0.000165404)
(-0.00916234 0.0115898 7.07901e-05)
(-0.00916581 0.0115907 -3.58975e-05)
(-0.00915543 0.0115386 -0.00013036)
(-0.00913748 0.0114421 -0.000182067)
(-0.00911011 0.0113322 -0.000173738)
(-0.00896831 0.0111579 -8.30944e-05)
(-0.0111669 0.0185408 0.000176444)
(-0.0113289 0.018917 0.000362523)
(-0.0113529 0.0192547 0.000340689)
(-0.011378 0.0195325 0.000256671)
(-0.0113954 0.0196805 0.000104176)
(-0.0113986 0.0196856 -6.62276e-05)
(-0.0113864 0.0195494 -0.000219929)
(-0.0113687 0.0192814 -0.000308596)
(-0.0113479 0.0189592 -0.00033928)
(-0.0111926 0.0185897 -0.000163671)
(-0.0160959 0.0179325 0.000519938)
(-0.0163983 0.0186369 0.000909344)
(-0.0165179 0.0188387 0.000834495)
(-0.0166109 0.0190188 0.000590428)
(-0.0166651 0.0191053 0.000223351)
(-0.0166692 0.0191072 -0.000166616)
(-0.0166244 0.0190257 -0.000533844)
(-0.0165404 0.0188478 -0.000780619)
(-0.0164289 0.0186559 -0.000865575)
(-0.0161335 0.0179515 -0.000500576)
(-0.0107052 0.00172863 8.54144e-05)
(-0.0108012 0.00176974 0.00012322)
(-0.0108109 0.00178674 8.9435e-05)
(-0.0108456 0.00179331 7.41852e-05)
(-0.0108606 0.00179941 3.31563e-05)
(-0.010865 0.00179869 -5.86576e-06)
(-0.0108562 0.00179088 -4.08726e-05)
(-0.0108382 0.00177769 -6.11503e-05)
(-0.0108157 0.0017587 -6.9168e-05)
(-0.0107204 0.00168691 -3.34939e-05)
(-0.0117347 0.00511633 6.22766e-05)
(-0.0118317 0.00520958 0.000110297)
(-0.011859 0.00526885 0.000109546)
(-0.0118934 0.00530689 8.81602e-05)
(-0.0119127 0.00533126 4.01393e-05)
(-0.0119168 0.00533105 -1.25621e-05)
(-0.0119043 0.00530581 -5.93734e-05)
(-0.0118803 0.00526099 -8.51066e-05)
(-0.0118504 0.00520377 -8.40417e-05)
(-0.0117481 0.0050767 -3.9329e-05)
(-0.0137984 0.00882688 9.27044e-05)
(-0.0139225 0.00898986 0.000180992)
(-0.0139724 0.00909756 0.000179732)
(-0.0140214 0.00918346 0.000137162)
(-0.0140506 0.0092315 5.84706e-05)
(-0.0140549 0.00923209 -2.97969e-05)
(-0.0140335 0.0091861 -0.000108732)
(-0.0139939 0.0090992 -0.000154443)
(-0.0139474 0.00899539 -0.000158273)
(-0.0138292 0.00882433 -7.82031e-05)
(-0.0170451 0.0141803 0.000168679)
(-0.0172149 0.014541 0.000336328)
(-0.0172839 0.0148264 0.000302408)
(-0.0173499 0.0150566 0.000222021)
(-0.0173898 0.0151777 8.88496e-05)
(-0.0173942 0.015182 -5.75159e-05)
(-0.0173629 0.0150694 -0.000191573)
(-0.0173053 0.0148475 -0.000275132)
(-0.0172417 0.0145731 -0.000315311)
(-0.0170751 0.014216 -0.000158499)
(-0.0232295 0.0140728 0.000448065)
(-0.0235175 0.0147361 0.000790164)
(-0.0237098 0.0149684 0.000698522)
(-0.0238786 0.0151497 0.000487809)
(-0.0239729 0.015235 0.000183487)
(-0.0239799 0.0152368 -0.000137767)
(-0.0238989 0.0151551 -0.000442597)
(-0.0237439 0.0149775 -0.000654382)
(-0.0235633 0.0147557 -0.000755352)
(-0.0232841 0.0140932 -0.000433539)
(-0.0134621 0.00112772 3.83403e-05)
(-0.0136313 0.00116348 6.1489e-05)
(-0.0136721 0.00117517 5.18799e-05)
(-0.0137154 0.00118159 4.25087e-05)
(-0.0137385 0.00118594 2.04387e-05)
(-0.0137432 0.00118556 -2.43172e-06)
(-0.0137291 0.00118029 -2.33881e-05)
(-0.0137009 0.00117159 -3.60316e-05)
(-0.013665 0.00115934 -4.25032e-05)
(-0.0135346 0.001116 -2.11131e-05)
(-0.0147434 0.00336764 3.29206e-05)
(-0.0148875 0.0034405 6.40578e-05)
(-0.0149375 0.00348073 6.74317e-05)
(-0.0149856 0.00350919 5.40665e-05)
(-0.015014 0.00352608 2.54701e-05)
(-0.0150187 0.00352584 -6.80968e-06)
(-0.0149993 0.00350877 -3.56635e-05)
(-0.0149621 0.00347809 -5.16966e-05)
(-0.0149169 0.00343927 -4.99279e-05)
(-0.0147847 0.00335851 -2.24023e-05)
(-0.0172258 0.00583219 5.53261e-05)
(-0.0173889 0.00594725 0.000113728)
(-0.0174661 0.00602642 0.000116017)
(-0.0175366 0.00608984 8.82647e-05)
(-0.0175783 0.00612411 3.78994e-05)
(-0.0175834 0.00612474 -1.86576e-05)
(-0.0175513 0.00609133 -6.9613e-05)
(-0.0174912 0.00602858 -9.96759e-05)
(-0.0174209 0.00595152 -0.000100547)
(-0.0172652 0.00583421 -4.78589e-05)
(-0.0210726 0.00910945 0.00011176)
(-0.0213083 0.009365 0.000228024)
(-0.021428 0.00956471 0.000209125)
(-0.0215345 0.00972265 0.000151569)
(-0.0215964 0.00980533 6.03861e-05)
(-0.0216021 0.00980767 -3.92643e-05)
(-0.0215513 0.00973096 -0.000131275)
(-0.0214554 0.00957826 -0.000190656)
(-0.0213443 0.0093859 -0.000215036)
(-0.0211136 0.00913391 -0.000105928)
(-0.0274862 0.00926564 0.00029721)
(-0.0278943 0.00973076 0.000538126)
(-0.0281622 0.00993237 0.000474517)
(-0.0283903 0.0100787 0.000328346)
(-0.0285164 0.0101471 0.000122668)
(-0.0285248 0.0101486 -9.27588e-05)
(-0.0284156 0.0100823 -0.000298487)
(-0.0282038 0.00993917 -0.000445846)
(-0.0279513 0.0097459 -0.000515526)
(-0.0275528 0.00928184 -0.000288266)
(-0.0150812 0.000471813 1.12771e-05)
(-0.0152404 0.000485075 1.51223e-05)
(-0.015291 0.000488972 9.19549e-06)
(-0.0153376 0.000490998 7.91445e-06)
(-0.0153653 0.000492202 5.34271e-06)
(-0.0153698 0.000491967 3.55087e-06)
(-0.0153509 0.000490015 1.35131e-06)
(-0.0153142 0.000486893 -8.47287e-07)
(-0.0152686 0.000482332 -5.4932e-06)
(-0.0151202 0.000466259 -3.85372e-06)
(-0.0164628 0.00142513 9.00752e-06)
(-0.0166148 0.00145206 1.52209e-05)
(-0.0166778 0.00146728 1.43905e-05)
(-0.0167352 0.00147792 1.17918e-05)
(-0.0167701 0.00148391 7.06185e-06)
(-0.016775 0.00148365 2.14194e-06)
(-0.0167493 0.00147685 -2.85574e-06)
(-0.0167012 0.001465 -6.37495e-06)
(-0.0166439 0.00144922 -7.86659e-06)
(-0.0164974 0.00141829 -4.04424e-06)
(-0.0191596 0.00249815 1.76216e-05)
(-0.0193388 0.00254648 3.4744e-05)
(-0.0194361 0.00258179 3.35693e-05)
(-0.0195235 0.00260899 2.49681e-05)
(-0.0195756 0.00262357 1.16529e-05)
(-0.0195808 0.00262329 -2.8301e-06)
(-0.0195393 0.00260885 -1.64615e-05)
(-0.0194618 0.00258107 -2.60705e-05)
(-0.0193722 0.00254584 -2.91973e-05)
(-0.0191979 0.00249599 -1.45804e-05)
(-0.0232992 0.00391698 4.3851e-05)
(-0.0235687 0.00403454 8.77027e-05)
(-0.0237282 0.00412928 7.63955e-05)
(-0.0238679 0.00420165 5.3411e-05)
(-0.023948 0.00423836 2.13797e-05)
(-0.0239543 0.00423936 -1.23651e-05)
(-0.0238865 0.00420392 -4.47126e-05)
(-0.0237588 0.0041338 -6.88901e-05)
(-0.0236094 0.00404148 -8.24872e-05)
(-0.0233448 0.00392533 -4.15796e-05)
(-0.0295388 0.0040662 0.00012975)
(-0.0300016 0.00429328 0.000234954)
(-0.0303189 0.00441249 0.000200477)
(-0.0305864 0.00449338 0.000133542)
(-0.0307332 0.00453085 4.91692e-05)
(-0.0307424 0.00453081 -3.7056e-05)
(-0.0306136 0.00449469 -0.000121516)
(-0.0303639 0.00441462 -0.00018849)
(-0.0300636 0.00429933 -0.000226485)
(-0.0296095 0.00407399 -0.00012643)
(-0.0153212 -0.0002206 -1.4554e-05)
(-0.0154825 -0.000234215 -3.69063e-05)
(-0.0155409 -0.000239879 -4.11585e-05)
(-0.0155923 -0.000244681 -3.16857e-05)
(-0.0156233 -0.000247345 -1.17951e-05)
(-0.0156276 -0.000247836 1.19637e-05)
(-0.0156048 -0.000245697 3.20947e-05)
(-0.0155617 -0.000241896 4.22367e-05)
(-0.0155088 -0.00023704 3.91729e-05)
(-0.0153537 -0.000224611 1.69363e-05)
(-0.0167557 -0.000631801 -1.70201e-05)
(-0.0169164 -0.000657259 -4.30434e-05)
(-0.016991 -0.000672057 -4.96046e-05)
(-0.0170571 -0.00068502 -3.82063e-05)
(-0.0170971 -0.000692496 -1.42982e-05)
(-0.0171017 -0.000693231 1.3967e-05)
(-0.0170708 -0.000687127 3.80851e-05)
(-0.0170131 -0.000675954 4.9821e-05)
(-0.0169449 -0.000662888 4.39119e-05)
(-0.0167884 -0.0006397 1.82088e-05)
(-0.0195609 -0.00100362 -2.55789e-05)
(-0.0197584 -0.00103351 -6.05383e-05)
(-0.0198757 -0.00105447 -6.71143e-05)
(-0.0199793 -0.00107371 -5.14338e-05)
(-0.02004 -0.0010847 -1.95015e-05)
(-0.0200454 -0.00108546 1.76697e-05)
(-0.0199951 -0.00107661 4.95153e-05)
(-0.0199013 -0.00105926 6.53772e-05)
(-0.0197922 -0.00104077 5.89947e-05)
(-0.0195987 -0.00101256 2.52398e-05)
(-0.0238634 -0.00126963 -3.90384e-05)
(-0.024172 -0.00130185 -8.58456e-05)
(-0.0243709 -0.00132289 -9.00361e-05)
(-0.0245419 -0.00134516 -6.85389e-05)
(-0.0246386 -0.00135713 -2.60184e-05)
(-0.0246449 -0.00135869 2.21804e-05)
(-0.0245617 -0.00134818 6.45254e-05)
(-0.0244031 -0.00132864 8.58884e-05)
(-0.0242153 -0.00130955 8.20191e-05)
(-0.0239117 -0.00127754 3.77052e-05)
(-0.0299866 -0.00132957 -4.99732e-05)
(-0.0305085 -0.00135194 -0.000104745)
(-0.0308739 -0.00134636 -0.000111713)
(-0.0311783 -0.00135096 -8.63568e-05)
(-0.0313434 -0.00135495 -3.32286e-05)
(-0.0313527 -0.00135556 2.68387e-05)
(-0.0312061 -0.0013544 8.02225e-05)
(-0.0309201 -0.00135048 0.000105126)
(-0.030573 -0.0013575 0.00010038)
(-0.0300593 -0.00133442 4.86868e-05)
(-0.0141481 -0.00092771 -4.0607e-05)
(-0.0143018 -0.000972947 -9.20665e-05)
(-0.0143637 -0.000991026 -9.63669e-05)
(-0.0144169 -0.00100458 -7.42782e-05)
(-0.014449 -0.00101265 -2.99238e-05)
(-0.0144528 -0.00101299 2.19777e-05)
(-0.014428 -0.00100615 6.71083e-05)
(-0.0143816 -0.00099356 9.10912e-05)
(-0.0143249 -0.000977019 8.92169e-05)
(-0.0141749 -0.000932402 3.99673e-05)
(-0.0155688 -0.00273684 -4.76482e-05)
(-0.0157349 -0.00282541 -0.000111275)
(-0.0158185 -0.00287764 -0.000122704)
(-0.0158906 -0.00292023 -9.43274e-05)
(-0.0159333 -0.00294411 -3.76031e-05)
(-0.0159376 -0.00294532 2.84373e-05)
(-0.0159031 -0.00292399 8.56783e-05)
(-0.0158385 -0.00288406 0.00011571)
(-0.0157611 -0.00283538 0.000106478)
(-0.0155982 -0.00274853 4.60368e-05)
(-0.018393 -0.00461128 -8.02163e-05)
(-0.0186143 -0.00473774 -0.00017747)
(-0.0187526 -0.00483059 -0.000186023)
(-0.0188709 -0.00490882 -0.000139598)
(-0.0189384 -0.00495107 -5.44732e-05)
(-0.0189435 -0.00495305 4.21394e-05)
(-0.0188859 -0.00491489 0.000127815)
(-0.018777 -0.00484118 0.000175156)
(-0.0186467 -0.00475324 0.000169252)
(-0.0184289 -0.00462898 7.71512e-05)
(-0.0228168 -0.00650572 -0.000146594)
(-0.0231899 -0.00671595 -0.000304423)
(-0.0234365 -0.00686953 -0.000294142)
(-0.0236412 -0.00699769 -0.000214904)
(-0.0237527 -0.00706519 -8.17805e-05)
(-0.0237594 -0.00706813 6.46778e-05)
(-0.0236608 -0.0070074 0.000197735)
(-0.0234688 -0.0068856 0.000277707)
(-0.0232346 -0.00673973 0.000291999)
(-0.0228662 -0.00653225 0.000141979)
(-0.0290446 -0.00717908 -0.000267455)
(-0.0297035 -0.00752667 -0.000510789)
(-0.0301455 -0.00768062 -0.000470797)
(-0.0304999 -0.00780361 -0.000336321)
(-0.0306861 -0.00786041 -0.000125175)
(-0.0306947 -0.00786348 0.000100197)
(-0.0305274 -0.00781055 0.000311366)
(-0.0301918 -0.00769368 0.000445649)
(-0.0297699 -0.00754833 0.000491449)
(-0.0291198 -0.00720036 0.000261004)
(-0.0115615 -0.00161323 -6.59506e-05)
(-0.0116884 -0.00169776 -0.000147501)
(-0.0117459 -0.00173133 -0.000152287)
(-0.0117949 -0.00175621 -0.000116849)
(-0.0118244 -0.00177 -4.76763e-05)
(-0.0118273 -0.00177074 3.29014e-05)
(-0.0118039 -0.00175825 0.000103198)
(-0.0117602 -0.00173491 0.000141444)
(-0.0117075 -0.00170331 0.000140289)
(-0.0115833 -0.0016193 6.33885e-05)
(-0.0128604 -0.00480501 -8.60345e-05)
(-0.0130155 -0.00497188 -0.000190652)
(-0.0130998 -0.00507107 -0.000201709)
(-0.0131703 -0.00515011 -0.000152986)
(-0.0132112 -0.00519331 -6.12419e-05)
(-0.0132148 -0.00519515 4.42185e-05)
(-0.0131805 -0.00515574 0.00013709)
(-0.0131165 -0.00508098 0.000188147)
(-0.0130377 -0.00498671 0.000180917)
(-0.0128851 -0.00482165 8.22883e-05)
(-0.0155322 -0.00825423 -0.000154336)
(-0.0157669 -0.00851032 -0.000324016)
(-0.0159186 -0.00869678 -0.000322484)
(-0.0160424 -0.00884884 -0.000237335)
(-0.016111 -0.00892882 -9.204e-05)
(-0.0161152 -0.00893203 7.02259e-05)
(-0.0160556 -0.00885886 0.000216098)
(-0.0159398 -0.00871376 0.000303056)
(-0.0157965 -0.00853619 0.000309736)
(-0.0155648 -0.00828316 0.000148964)
(-0.0199245 -0.0119186 -0.00030288)
(-0.0203726 -0.0123782 -0.000596378)
(-0.0206659 -0.0127 -0.000542178)
(-0.0208956 -0.0129572 -0.000385242)
(-0.0210153 -0.0130875 -0.00014437)
(-0.0210215 -0.0130925 0.000114206)
(-0.0209133 -0.0129727 0.000355624)
(-0.0206965 -0.0127276 0.00051265)
(-0.0204167 -0.0124196 0.000574137)
(-0.0199732 -0.0119658 0.000295269)
(-0.0263691 -0.0138647 -0.000587033)
(-0.0272892 -0.0147466 -0.0010653)
(-0.027843 -0.0151506 -0.000909223)
(-0.028255 -0.015452 -0.000626588)
(-0.0284567 -0.0155866 -0.000227652)
(-0.0284641 -0.01559 0.000185321)
(-0.0282798 -0.0154656 0.000582708)
(-0.0278867 -0.0151754 0.000863365)
(-0.0273591 -0.0147926 0.00103067)
(-0.0264475 -0.0139145 0.000575413)
(-0.00761971 -0.00221026 -8.25989e-05)
(-0.00769102 -0.00232096 -0.000188148)
(-0.00773176 -0.00236972 -0.000199036)
(-0.00776676 -0.00240587 -0.000152509)
(-0.00778793 -0.0024258 -6.23519e-05)
(-0.00778991 -0.00242667 4.24203e-05)
(-0.00777246 -0.00240842 0.000134055)
(-0.00774104 -0.00237433 0.000183877)
(-0.00770365 -0.00232798 0.000177317)
(-0.00763446 -0.00221755 7.8323e-05)
(-0.00862282 -0.00664827 -0.000113517)
(-0.00880472 -0.00687481 -0.000253966)
(-0.00888021 -0.00702327 -0.000272323)
(-0.00893563 -0.00714105 -0.000205017)
(-0.00896731 -0.00720402 -8.18533e-05)
(-0.00896956 -0.0072064 5.90152e-05)
(-0.00894263 -0.00714872 0.000183429)
(-0.00889163 -0.00703631 0.000253523)
(-0.00882093 -0.0068949 0.000240313)
(-0.00864029 -0.00667056 0.000108147)
(-0.0108243 -0.0116774 -0.000226513)
(-0.0111309 -0.0120708 -0.000467371)
(-0.0112821 -0.0123688 -0.000457421)
(-0.0113903 -0.0126057 -0.0003312)
(-0.0114468 -0.0127266 -0.0001269)
(-0.01145 -0.0127311 9.73221e-05)
(-0.0113994 -0.0126191 0.000302517)
(-0.0112981 -0.0123933 0.000430384)
(-0.0111546 -0.0121078 0.000446878)
(-0.0108497 -0.0117191 0.000218962)
(-0.0148312 -0.0173339 -0.000486545)
(-0.0154756 -0.018139 -0.000929996)
(-0.0158022 -0.0186813 -0.00081406)
(-0.0160222 -0.0190946 -0.000563501)
(-0.0161279 -0.0192941 -0.000207287)
(-0.0161316 -0.0193003 0.000166561)
(-0.0160356 -0.0191157 0.000521952)
(-0.0158267 -0.0187195 0.000771332)
(-0.0155166 -0.0182022 0.000898567)
(-0.0148762 -0.0174059 0.000475808)
(-0.0216903 -0.0219068 -0.00105025)
(-0.0232767 -0.0236975 -0.00182575)
(-0.0239769 -0.0245222 -0.00143162)
(-0.0244081 -0.0251152 -0.000946591)
(-0.0245898 -0.0253632 -0.000332898)
(-0.0245951 -0.0253685 0.000276006)
(-0.0244248 -0.0251374 0.000885687)
(-0.0240137 -0.0245635 0.00136154)
(-0.0233512 -0.0237838 0.00177059)
(-0.0217713 -0.0220037 0.00103364)
(-0.00275085 -0.00259918 -8.39302e-05)
(-0.00276277 -0.0026511 -0.000195848)
(-0.00277698 -0.00270394 -0.000222896)
(-0.00278978 -0.0027473 -0.000171152)
(-0.00279778 -0.00277086 -7.01612e-05)
(-0.00279851 -0.00277172 4.78375e-05)
(-0.00279187 -0.0027502 0.000150363)
(-0.00278047 -0.00270882 0.000205369)
(-0.00276762 -0.00265857 0.000182998)
(-0.00275654 -0.00260771 7.87129e-05)
(-0.00316204 -0.00792261 -0.000128235)
(-0.00326707 -0.00813915 -0.000284089)
(-0.00330135 -0.00832731 -0.000316808)
(-0.00332388 -0.00847575 -0.000236576)
(-0.00333656 -0.00855268 -9.39302e-05)
(-0.0033374 -0.00855559 6.82129e-05)
(-0.00332667 -0.00848426 0.000212126)
(-0.00330584 -0.00834281 0.000295029)
(-0.00327391 -0.00816292 0.000267586)
(-0.00316921 -0.00794957 0.00012171)
(-0.00413679 -0.0143927 -0.000295144)
(-0.0043225 -0.0150076 -0.000582681)
(-0.0043984 -0.0154347 -0.00056268)
(-0.0044466 -0.0157484 -0.000397683)
(-0.0044707 -0.015901 -0.000150299)
(-0.00447213 -0.0159056 0.000116702)
(-0.00445002 -0.0157645 0.000364392)
(-0.00440538 -0.0154644 0.000529825)
(-0.00433315 -0.0150573 0.000558176)
(-0.00414765 -0.0144491 0.00028641)
(-0.0061039 -0.0227394 -0.000743013)
(-0.00651419 -0.0243325 -0.00131163)
(-0.00669508 -0.0251986 -0.00106668)
(-0.00680184 -0.025776 -0.000705688)
(-0.00684954 -0.0260297 -0.000251834)
(-0.00685051 -0.0260367 0.000205331)
(-0.00680768 -0.0257989 0.000655952)
(-0.00670552 -0.0252467 0.00101071)
(-0.00653542 -0.0244244 0.00126796)
(-0.00612687 -0.0228425 0.000729566)
(-0.0100876 -0.0338335 -0.00195197)
(-0.0112756 -0.0383742 -0.00307966)
(-0.011731 -0.0400564 -0.00203145)
(-0.0119663 -0.0410277 -0.00123547)
(-0.012052 -0.0413715 -0.000411988)
(-0.0120543 -0.041376 0.000348532)
(-0.0119718 -0.0410537 0.00116073)
(-0.0117494 -0.0401145 0.00192757)
(-0.0113202 -0.0385453 0.00299905)
(-0.0101342 -0.0340268 0.00193205)
(-0.0193859 -0.0541168 -0.00539722)
(-0.0230727 -0.064111 -0.00771985)
(-0.0242558 -0.0670857 -0.00377646)
(-0.024786 -0.0685238 -0.00203375)
(-0.0249373 -0.0689533 -0.000602383)
(-0.0249373 -0.0689594 0.000525153)
(-0.0247954 -0.0685503 0.00192964)
(-0.0242853 -0.0671587 0.00357141)
(-0.0231897 -0.0644118 0.00754068)
(-0.0195176 -0.0544425 0.00536351)
(-0.0341029 -0.0677886 -0.0122805)
(-0.0407407 -0.103288 -0.0162085)
(-0.0429734 -0.10943 -0.00639796)
(-0.0439159 -0.110263 -0.00305284)
(-0.0440909 -0.110063 -0.000823692)
(-0.0440898 -0.110041 0.000731026)
(-0.0439159 -0.110205 0.00291501)
(-0.0430122 -0.109418 0.00603699)
(-0.0409075 -0.103963 0.0158808)
(-0.034314 -0.068539 0.0122355)
(-0.0557209 -0.137557 -0.0310868)
(-0.0526359 -0.205484 -0.0328285)
(-0.0569361 -0.215689 -0.00909223)
(-0.0602119 -0.213348 -0.00293031)
(-0.0610356 -0.212291 -0.000544465)
(-0.0610437 -0.212248 0.000514109)
(-0.0602715 -0.213201 0.00281548)
(-0.0570837 -0.215586 0.00853523)
(-0.0526819 -0.206608 0.03218)
(-0.0560042 -0.138814 0.030914)
(-0.0128219 -0.0920534 -0.0343075)
(0.0502225 -0.238798 -0.0246936)
(0.0484731 -0.243994 -0.00777265)
(0.0436819 -0.232529 -0.00156076)
(0.0420808 -0.228522 -0.000353363)
(0.0420489 -0.228422 0.00033758)
(0.0435306 -0.232124 0.0014817)
(0.0482533 -0.243532 0.00748221)
(0.0508222 -0.240208 0.0242222)
(-0.0119348 -0.0942875 0.0339355)
(0.235673 -0.36281 0.0305803)
(0.323018 -0.556023 0.0313815)
(0.336786 -0.572665 0.00869246)
(0.337284 -0.567526 0.00287264)
(0.336904 -0.565265 0.000494167)
(0.33687 -0.565197 -0.000466551)
(0.337182 -0.567295 -0.00275763)
(0.336809 -0.572558 -0.00812578)
(0.324271 -0.557663 -0.0307635)
(0.237518 -0.366179 -0.0303097)
(-0.0342516 -0.0334084 -0.00224028)
(-0.03852 -0.0361508 -0.00358401)
(-0.040038 -0.0375916 -0.00225992)
(-0.0408956 -0.0386756 -0.00140241)
(-0.041202 -0.0391277 -0.00045861)
(-0.0412068 -0.0391398 0.000390762)
(-0.040921 -0.0387181 0.00132459)
(-0.0400942 -0.037666 0.00215109)
(-0.0386768 -0.0362938 0.00349565)
(-0.0344305 -0.0335857 0.00221883)
(-0.0528559 -0.0152292 -0.00438175)
(-0.0610826 -0.0201698 -0.00659938)
(-0.0636317 -0.0208034 -0.00405277)
(-0.0649426 -0.021326 -0.0024835)
(-0.0653332 -0.0213727 -0.000792364)
(-0.0653379 -0.0213695 0.000682057)
(-0.0649632 -0.0213266 0.00236048)
(-0.0636958 -0.0207985 0.00387605)
(-0.0613174 -0.0202495 0.00644007)
(-0.0531168 -0.0153105 0.00433487)
(-0.0768515 -0.0346967 -0.00494776)
(-0.100182 -0.0456163 -0.00688931)
(-0.105214 -0.0482477 -0.00271704)
(-0.107219 -0.0499129 -0.00162776)
(-0.107584 -0.0504385 -0.000410587)
(-0.107582 -0.0504542 0.000356289)
(-0.107228 -0.0499668 0.00156728)
(-0.105297 -0.0483534 0.00257425)
(-0.100665 -0.0458848 0.00673596)
(-0.0774816 -0.0350457 0.00491709)
(-0.146542 0.0386244 -0.0122235)
(-0.161919 0.0272343 -0.0103246)
(-0.173369 0.0292286 -0.00552237)
(-0.178759 0.0338935 -0.00368705)
(-0.180298 0.0354152 -0.0011505)
(-0.180301 0.0354519 0.000977963)
(-0.178811 0.0340383 0.00351773)
(-0.173511 0.0294318 0.0053762)
(-0.162314 0.0272759 0.0101264)
(-0.147364 0.0387476 0.0120917)
(0.233962 -0.00379333 0.0194002)
(0.355006 -0.083488 0.0214689)
(0.368973 -0.0837238 0.00696119)
(0.36988 -0.079452 0.00237065)
(0.369586 -0.0778538 0.000425945)
(0.36956 -0.0778496 -0.000396461)
(0.369817 -0.0794468 -0.00226753)
(0.369072 -0.0838583 -0.006606)
(0.356299 -0.0839935 -0.0210838)
(0.236354 -0.00496094 -0.0192732)
(-0.0345692 -0.0215823 -0.00105994)
(-0.0366485 -0.0227925 -0.00178809)
(-0.0376243 -0.0235346 -0.0012527)
(-0.0383176 -0.0241343 -0.000820601)
(-0.0386239 -0.0244101 -0.000281772)
(-0.038632 -0.0244198 0.000234706)
(-0.03835 -0.0241658 0.00076956)
(-0.0376827 -0.0235884 0.00119046)
(-0.0367582 -0.0228806 0.00173914)
(-0.0346924 -0.0216937 0.00104725)
(-0.0491252 -0.00677783 -0.00212458)
(-0.0525091 -0.00844628 -0.00330331)
(-0.0542298 -0.0084443 -0.00234175)
(-0.055478 -0.00846589 -0.00152964)
(-0.0560076 -0.00840488 -0.000520495)
(-0.0560219 -0.0084005 0.000436178)
(-0.0555266 -0.00845769 0.00144006)
(-0.0543175 -0.00842738 0.00223512)
(-0.0526777 -0.00845199 0.00321138)
(-0.0493255 -0.0067817 0.00209285)
(-0.0441933 -0.0246992 -0.00170254)
(-0.0493491 -0.0274293 -0.00243744)
(-0.0505445 -0.0280359 -0.00102998)
(-0.0516131 -0.0288062 -0.000666196)
(-0.0519433 -0.0290834 -0.000181841)
(-0.05195 -0.0290979 0.000153323)
(-0.0516472 -0.0288553 0.000635269)
(-0.050598 -0.0281161 0.000966383)
(-0.0494975 -0.0275539 0.00236721)
(-0.0443587 -0.0248762 0.00168228)
(-0.0645889 0.028474 -0.00612621)
(-0.063471 0.0362264 -0.00713946)
(-0.0671339 0.0395175 -0.00380664)
(-0.0702181 0.0417621 -0.00259313)
(-0.0713424 0.0424048 -0.000826209)
(-0.0713676 0.0424189 0.000676207)
(-0.0703077 0.0418253 0.00243711)
(-0.0672769 0.0396468 0.0036358)
(-0.0636018 0.0364974 0.00696785)
(-0.0648253 0.0288684 0.00604986)
(0.223399 0.0241804 0.00741509)
(0.32671 0.0144395 0.00742106)
(0.337015 0.0184268 0.00221981)
(0.337689 0.0200862 0.000673286)
(0.337541 0.0205375 7.71759e-05)
(0.337531 0.0205195 -6.87987e-05)
(0.337678 0.0200219 -0.000636374)
(0.337193 0.0182747 -0.00210744)
(0.327924 0.0142999 -0.00729668)
(0.225492 0.0239837 -0.00736346)
(-0.0352908 -0.0112701 -0.00040619)
(-0.036553 -0.0117268 -0.000736871)
(-0.0372084 -0.0120517 -0.000570647)
(-0.0377056 -0.0123351 -0.000394494)
(-0.0379453 -0.0124761 -0.000141427)
(-0.0379547 -0.0124818 0.000114413)
(-0.0377352 -0.0123554 0.000367367)
(-0.0372609 -0.0120849 0.000539447)
(-0.0366381 -0.0117754 0.00071498)
(-0.0353846 -0.0113312 0.000400795)
(-0.0492255 -0.00278638 -0.000868731)
(-0.0512409 -0.00322878 -0.00141885)
(-0.0524907 -0.00310063 -0.00112326)
(-0.0534565 -0.00304007 -0.0007759)
(-0.0539179 -0.00299096 -0.000276494)
(-0.0539336 -0.00298786 0.00022485)
(-0.0535106 -0.00303373 0.000722475)
(-0.0525823 -0.0030877 0.00106777)
(-0.051389 -0.00321717 0.00137182)
(-0.0494033 -0.00276809 0.000851565)
(-0.0411393 -0.0132922 -0.000375385)
(-0.0435548 -0.0148162 -0.000589642)
(-0.0442236 -0.0152762 -0.000294813)
(-0.0447522 -0.0158059 -0.000252407)
(-0.0449429 -0.0160259 -7.97929e-05)
(-0.0449479 -0.0160377 6.41189e-05)
(-0.0447741 -0.0158462 0.0002377)
(-0.0442607 -0.0153414 0.000273564)
(-0.0436432 -0.0149087 0.00057023)
(-0.0412351 -0.0134273 0.000370078)
(-0.0602569 0.00822413 -0.00280709)
(-0.054849 0.011442 -0.00380456)
(-0.0561996 0.0125539 -0.00219867)
(-0.0578608 0.0132313 -0.00156095)
(-0.0585418 0.0134049 -0.000521484)
(-0.0585646 0.0134114 0.000414989)
(-0.0579389 0.0132578 0.00145085)
(-0.056319 0.0126133 0.00208758)
(-0.0549492 0.0115657 0.00368889)
(-0.0603704 0.00837805 0.00274883)
(0.21042 0.00449386 0.00178603)
(0.313305 -0.00231783 0.00149049)
(0.32311 -0.00170805 0.000255844)
(0.324224 -0.00168967 -4.7156e-05)
(0.324319 -0.00171833 -5.87806e-05)
(0.32432 -0.00173053 5.99244e-05)
(0.324245 -0.00173479 6.04615e-05)
(0.323325 -0.00181132 -0.000226863)
(0.314514 -0.00245105 -0.00146266)
(0.212564 0.00424012 -0.00177086)
(-0.0350832 -0.0017034 -3.81333e-05)
(-0.0359661 -0.00160298 -8.29472e-05)
(-0.0364346 -0.00157105 -8.88347e-05)
(-0.0368066 -0.00158234 -7.71864e-05)
(-0.0369961 -0.00159397 -3.05779e-05)
(-0.0370054 -0.00159682 2.27436e-05)
(-0.0368344 -0.00158821 6.96712e-05)
(-0.0364816 -0.00158151 8.2478e-05)
(-0.0360368 -0.0016126 7.76223e-05)
(-0.0351603 -0.00171609 3.68043e-05)
(-0.0496831 2.06437e-06 1.49511e-05)
(-0.0513781 0.000195531 -6.97135e-06)
(-0.0525053 0.00036725 -0.000107666)
(-0.0533759 0.000453926 -0.000117266)
(-0.0538049 0.000493178 -5.03794e-05)
(-0.0538223 0.000494115 3.48429e-05)
(-0.053431 0.000457706 0.000102984)
(-0.0526003 0.00037562 9.64992e-05)
(-0.0515255 0.00021118 2.53327e-08)
(-0.0498576 1.80053e-05 -1.89663e-05)
(-0.0403876 -0.0039075 0.000283849)
(-0.041865 -0.00292554 0.00040179)
(-0.0423486 -0.00269385 0.000189943)
(-0.042746 -0.00278505 5.52751e-05)
(-0.0429107 -0.00287248 1.15246e-05)
(-0.0429166 -0.00288136 -1.41714e-05)
(-0.0427649 -0.00281388 -5.4731e-05)
(-0.042383 -0.00273376 -0.000183457)
(-0.041932 -0.00294843 -0.00040113)
(-0.0404579 -0.00396722 -0.000287433)
(-0.058883 0.000389773 0.000764783)
(-0.0558006 0.000977933 0.000948322)
(-0.0576873 0.00113469 -4.99928e-05)
(-0.0593615 0.00116124 -0.000335084)
(-0.0600169 0.00114261 -0.000157362)
(-0.0600379 0.00114336 0.000103169)
(-0.0594392 0.00116842 0.000287938)
(-0.0578139 0.00115272 4.13377e-05)
(-0.0559564 0.00100631 -0.000975049)
(-0.0590276 0.000419367 -0.000802542)
(0.208355 -0.00773392 -0.000274405)
(0.310698 -0.00722376 -0.000565578)
(0.320376 -0.00751843 -0.000401036)
(0.321647 -0.00827261 -0.000308356)
(0.321841 -0.00858908 -0.000100929)
(0.321842 -0.00859809 9.8139e-05)
(0.321678 -0.00832025 0.000311472)
(0.32061 -0.00760416 0.00039562)
(0.311919 -0.00730231 0.000558017)
(0.210527 -0.00798782 0.000286918)
(-0.0338896 0.00831669 0.000219167)
(-0.0346459 0.00903341 0.000395104)
(-0.0350008 0.00946068 0.000275041)
(-0.0352909 0.00973544 0.00017191)
(-0.035443 0.00985449 5.89031e-05)
(-0.0354515 0.00985664 -4.85594e-05)
(-0.0353165 0.00974225 -0.000161045)
(-0.0350422 0.00947561 -0.000263064)
(-0.0347072 0.00906701 -0.000384631)
(-0.0339563 0.00835596 -0.00021537)
(-0.0511438 0.00288641 0.000911176)
(-0.0529277 0.0036285 0.00142034)
(-0.0540503 0.00386614 0.000902699)
(-0.0549105 0.00398027 0.000520005)
(-0.0553325 0.00401383 0.000167564)
(-0.055351 0.0040139 -0.000146934)
(-0.0549648 0.00397886 -0.000495572)
(-0.0541489 0.00386984 -0.000864181)
(-0.053082 0.0036469 -0.0013891)
(-0.0513333 0.00290341 -0.000903661)
(-0.0398266 0.00698981 0.000809788)
(-0.0412262 0.0122854 0.00121064)
(-0.0415795 0.013605 0.000602186)
(-0.0418968 0.0141204 0.000314257)
(-0.0420206 0.014204 9.12721e-05)
(-0.0420241 0.0141967 -8.2252e-05)
(-0.0419144 0.0141114 -0.000300039)
(-0.0416132 0.0136072 -0.000571934)
(-0.0412796 0.0123723 -0.00118674)
(-0.0398953 0.00704554 -0.000806293)
(-0.0635934 -0.00301707 0.00578937)
(-0.0652939 -0.00328832 0.00753088)
(-0.0674014 -0.00354874 0.00251955)
(-0.0690084 -0.0038975 0.000985007)
(-0.069586 -0.00403734 0.000206696)
(-0.06961 -0.00403667 -0.000205712)
(-0.0690782 -0.00389977 -0.000956385)
(-0.0675352 -0.0035552 -0.0023935)
(-0.0655088 -0.00329735 -0.00745074)
(-0.0638322 -0.0030481 -0.0058051)
(0.215908 -0.0219722 -0.00255467)
(0.318362 -0.00622859 -0.00298856)
(0.328787 -0.00607468 -0.00135411)
(0.330815 -0.00796894 -0.000743239)
(0.331299 -0.00877529 -0.000192199)
(0.331306 -0.00879117 0.000187573)
(0.330874 -0.00805507 0.000723525)
(0.329084 -0.00619195 0.00130505)
(0.319636 -0.00611965 0.00294418)
(0.218254 -0.0221569 0.00256883)
(-0.031065 0.0198867 0.000431492)
(-0.031743 0.0213333 0.000782056)
(-0.0319761 0.0221748 0.000552079)
(-0.0321821 0.0227567 0.000366377)
(-0.0322913 0.0230199 0.000130446)
(-0.0322987 0.0230264 -0.000104105)
(-0.0322028 0.0227778 -0.000340851)