/*--------------------------------*- C++ -*----------------------------------*\
| =========                 |                                                 |
| \\      /  F ield         | OpenFOAM: The Open Source CFD Toolbox           |
|  \\    /   O peration     | Version:  2.3.1                                 |
|   \\  /    A nd           | Web:      www.OpenFOAM.org                      |
|    \\/     M anipulation  |                                                 |
\*---------------------------------------------------------------------------*/
FoamFile
{
    version     2.0;
    format      ascii;
    class       surfaceScalarField;
    location    "0.18";
    object      phi;
}
// * * * * * * * * * * * * * * * * * * * * * * * * * * * * * * * * * * * * * //

dimensions      [0 3 -1 0 0 0 0];

internalField   nonuniform List<scalar> 
15416
(
-0.000688673
7.0653e-06
0.000695339
-0.000692638
3.96268e-06
-0.000693391
7.51313e-07
-0.0006947
1.30639e-06
-0.00069783
3.12756e-06
-0.000703383
5.5504e-06
-0.000711558
8.17247e-06
-0.000722746
1.11858e-05
-0.00073729
1.45417e-05
-0.000755352
1.80594e-05
-0.000777218
2.18645e-05
-0.00080297
2.57494e-05
-0.000832601
2.96283e-05
-0.000866053
3.34496e-05
-0.000903299
3.7243e-05
-0.000944152
4.08495e-05
-0.000988333
4.41772e-05
-0.00103557
4.72326e-05
-0.00108569
5.01084e-05
-0.00113832
5.26273e-05
-0.0011932
5.4875e-05
-0.00125008
5.6875e-05
-0.00130861
5.85253e-05
-0.00136844
5.98245e-05
-0.00142936
6.09063e-05
-0.00149116
6.17732e-05
-0.00155356
6.23698e-05
-0.00161628
6.26823e-05
-0.00167912
6.28257e-05
-0.00174197
6.28486e-05
-0.00180455
6.26274e-05
-0.0018667
6.22271e-05
-0.00192834
6.17405e-05
-0.00198923
6.09942e-05
-0.00204918
6.00235e-05
-0.0021082
5.9017e-05
-0.00216623
5.78932e-05
-0.0022231
5.66706e-05
-0.00227862
5.52962e-05
-0.00233279
5.39913e-05
-0.00238559
5.27637e-05
-0.00243683
5.13044e-05
-0.00248636
4.96477e-05
-0.0025342
4.79874e-05
-0.00258008
4.6011e-05
-0.00262407
4.40587e-05
-0.00266634
4.22882e-05
-0.00270703
4.06577e-05
-0.0027456
3.84999e-05
-0.00278213
3.64415e-05
-0.00281672
3.45201e-05
-0.00284948
3.27197e-05
-0.00287988
3.03943e-05
-0.00290841
2.85358e-05
-0.00293486
2.64557e-05
-0.0029596
2.47499e-05
-0.00298167
2.20714e-05
-0.00300151
1.98398e-05
-0.00301948
1.7969e-05
-0.00303575
1.62706e-05
1.45598e-05
-0.00305031
-0.000408365
9.48438e-06
0.000405944
-0.00041311
8.70463e-06
-0.000422618
1.02577e-05
-0.000436548
1.52338e-05
-0.000454822
2.13993e-05
-0.000476749
2.74744e-05
-0.000502959
3.43799e-05
-0.000533014
4.1239e-05
-0.000567341
4.88663e-05
-0.000605438
5.61538e-05
-0.000647457
6.38816e-05
-0.000693189
7.1479e-05
-0.000742473
7.89098e-05
-0.000795138
8.61119e-05
-0.000850837
9.29391e-05
-0.000909416
9.94253e-05
-0.000970591
0.000105347
-0.00103414
0.000110778
-0.0010997
0.000115662
-0.00116708
0.000119996
-0.00123607
0.000123855
-0.00130622
0.000127026
-0.00137739
0.000129681
-0.00144937
0.000131795
-0.00152187
0.000133404
-0.00159468
0.00013459
-0.00166748
0.000135195
-0.00174026
0.000135494
-0.00181272
0.000135317
-0.00188456
0.000134688
-0.00195585
0.000133856
-0.00202646
0.000132733
-0.002096
0.000131214
-0.00216445
0.000129518
-0.00223182
0.000127681
-0.00229773
0.000125321
-0.00236224
0.000122778
-0.00242521
0.000119796
-0.00248669
0.000116571
-0.0025465
0.000113308
-0.00260439
0.000109918
-0.00266067
0.000106847
-0.00271507
0.000103562
-0.00276727
0.000100026
-0.00281744
9.63446e-05
-0.0028654
9.23381e-05
-0.00291129
8.84638e-05
-0.00295466
8.41654e-05
-0.00299611
7.99713e-05
-0.00303547
7.57501e-05
-0.00307263
7.16153e-05
-0.00310798
6.80099e-05
-0.00313985
6.22322e-05
-0.00317109
5.97596e-05
-0.0031985
5.38671e-05
-0.00322443
5.06766e-05
-0.00324598
4.36289e-05
-0.00326744
4.13056e-05
-0.00328664
3.71732e-05
-0.00330372
3.33482e-05
2.72756e-05
-0.00331644
-0.000279413
2.00108e-05
0.000268883
-0.000296217
2.55067e-05
-0.00031835
3.23877e-05
-0.000344599
4.14804e-05
-0.000374712
5.15099e-05
-0.000409286
6.20457e-05
-0.000447832
7.2924e-05
-0.000490589
8.39937e-05
-0.000537398
9.56738e-05
-0.000588287
0.000107041
-0.000642916
0.000118509
-0.000700825
0.000129385
-0.000762158
0.00014024
-0.00082649
0.000150442
-0.000893615
0.000160061
-0.000963241
0.000169048
-0.00103515
0.000177256
-0.00110908
0.000184699
-0.00118471
0.00019128
-0.00126189
0.000197169
-0.00134015
0.000202114
-0.00141946
0.000206328
-0.00149952
0.000209736
-0.0015801
0.000212366
-0.00166092
0.000214224
-0.00174175
0.000215452
-0.00182247
0.000215961
-0.0019028
0.000215896
-0.0019825
0.00021505
-0.0020617
0.000213877
-0.00213994
0.000212024
-0.00221707
0.000209726
-0.00229331
0.00020736
-0.00236817
0.000204409
-0.00244157
0.00020127
-0.00251349
0.00019758
-0.00258377
0.000193354
-0.00265223
0.000188481
-0.00271883
0.000183262
-0.00278354
0.000177824
-0.00284647
0.000172498
-0.00290708
0.000166903
-0.00296575
0.000161599
-0.00302216
0.000155973
-0.00307635
0.000150221
-0.00312834
0.000144294
-0.00317787
0.000138138
-0.00322505
0.000131519
-0.00326967
0.000124755
-0.00331251
0.000118683
-0.00335163
0.000110753
-0.00338817
0.000104529
-0.00342314
9.71628e-05
-0.00345582
9.24142e-05
-0.0034864
8.4428e-05
-0.00351268
7.69554e-05
-0.00353891
6.98537e-05
-0.00356081
6.32094e-05
-0.00358054
5.69064e-05
-0.00359603
4.8834e-05
4.27433e-05
-0.00361149
-0.000225154
4.14863e-05
0.000203675
-0.000251316
5.16662e-05
-0.000282374
6.34432e-05
-0.000317719
7.68229e-05
-0.000357425
9.12137e-05
-0.000401544
0.000106162
-0.000449847
0.000121225
-0.000502679
0.000136823
-0.000559462
0.000152456
-0.000620273
0.00016785
-0.000684573
0.000182807
-0.000752587
0.000197397
-0.000823831
0.000211481
-0.000897847
0.000224456
-0.000974604
0.000236815
-0.00105374
0.000248184
-0.00113499
0.000258496
-0.00121804
0.000267749
-0.00130271
0.000275942
-0.00138857
0.000283024
-0.00147564
0.000289181
-0.00156341
0.000294103
-0.00165183
0.000298158
-0.00174058
0.000301125
-0.00182951
0.000303163
-0.0019182
0.000304143
-0.00200659
0.000304334
-0.00209449
0.000303767
-0.00218181
0.00030236
-0.00226804
0.000300177
-0.00235333
0.000297448
-0.00243753
0.000294135
-0.00252013
0.000290052
-0.00260137
0.00028556
-0.00268113
0.000280678
-0.00275935
0.00027516
-0.0028356
0.000269236
-0.00291004
0.00026298
-0.00298236
0.000256184
-0.00305248
0.000249089
-0.00312019
0.00024095
-0.00318588
0.00023281
-0.00324894
0.000224269
-0.00330985
0.000215999
-0.00336826
0.000207922
-0.00342428
0.000199774
-0.00347778
0.000191417
-0.00352895
0.000182755
-0.00357668
0.00017264
-0.00362182
0.000164006
-0.00366557
0.000154627
-0.00370522
0.000144235
-0.00374271
0.00013465
-0.00377608
0.000125764
-0.00380917
0.000117491
-0.00383812
0.000105894
-0.00386487
9.65892e-05
-0.00388941
8.77518e-05
-0.00390979
7.72824e-05
-0.00392796
6.70049e-05
5.67873e-05
-0.003942
-0.000205603
7.04247e-05
0.000176661
-0.000239404
8.54646e-05
-0.000278255
0.000102292
-0.000321812
0.000120378
-0.000369933
0.000139332
-0.000422759
0.000158987
-0.000480405
0.00017887
-0.000542139
0.000198556
-0.000608221
0.000218536
-0.000678179
0.000237806
-0.000752059
0.000256684
-0.000829524
0.00027486
-0.000909976
0.000291931
-0.000993523
0.000308
-0.00107995
0.000323244
-0.00116817
0.000336395
-0.00125858
0.000348908
-0.00135074
0.000359907
-0.00144429
0.000369487
-0.0015391
0.000377827
-0.0016348
0.000384895
-0.00173135
0.000390655
-0.00182831
0.000395136
-0.00192546
0.000398289
-0.00202244
0.000400129
-0.00211936
0.000401017
-0.00221573
0.000400604
-0.0023114
0.00039935
-0.00240623
0.000397149
-0.00250011
0.000394177
-0.00259271
0.000390367
-0.00268385
0.000385601
-0.00277349
0.000379978
-0.00286152
0.000373509
-0.00294774
0.000366205
-0.00303205
0.000358614
-0.00311481
0.000350977
-0.00319532
0.000343112
-0.00327347
0.000334955
-0.00334918
0.000325744
-0.00342257
0.000315743
-0.00349315
0.000304391
-0.00356115
0.000292585
-0.00362633
0.000281171
-0.00368904
0.000270002
-0.00375
0.000260016
-0.00380634
0.000247106
-0.00386064
0.00023664
-0.00391314
0.000225111
-0.00396153
0.000212541
-0.0040076
0.000200876
-0.0040515
0.000188273
-0.00409146
0.000174669
-0.00412922
0.000163533
-0.00416098
0.000149236
-0.00419237
0.000137258
-0.00422157
0.000125775
-0.00424661
0.000112785
-0.00426753
9.81954e-05
-0.00428826
8.77321e-05
7.34008e-05
-0.00430487
-0.000205629
0.000106522
0.000169529
-0.000247049
0.000126883
-0.000293521
0.000148762
-0.000345387
0.000172242
-0.000402338
0.000196281
-0.000463999
0.000220646
-0.000530322
0.000245191
-0.000601484
0.000269717
-0.00067679
0.00029384
-0.000756576
0.00031759
-0.0008402
0.000340307
-0.000927191
0.000361848
-0.00101761
0.00038235
-0.00111061
0.000401001
-0.001206
0.000418632
-0.0013039
0.000434292
-0.00140379
0.0004488
-0.00150553
0.000461642
-0.00160842
0.00047237
-0.00171234
0.000481763
-0.00181728
0.000489842
-0.00192263
0.000496025
-0.00202846
0.000500979
-0.0021344
0.000504212
-0.00224021
0.000505903
-0.0023455
0.00050623
-0.00245023
0.000505275
-0.00255403
0.000503091
-0.00265679
0.000499934
-0.00275842
0.000495828
-0.00285873
0.000490656
-0.00295738
0.000484339
-0.00305448
0.000477092
-0.0031497
0.000468804
-0.00324263
0.000459291
-0.00333359
0.000449162
-0.00342207
0.000439068
-0.00350847
0.000428686
-0.00359297
0.000418368
-0.00367507
0.000407837
-0.00375457
0.00039528
-0.003831
0.000381793
-0.00390376
0.000367021
-0.00397303
0.000351547
-0.0040397
0.000337634
-0.00410439
0.000324454
-0.00416753
0.000309358
-0.00422663
0.000295037
-0.00428163
0.000279635
-0.00433415
0.00026501
-0.00438256
0.000249418
-0.00442692
0.000232746
-0.00447091
0.000218752
-0.00450912
0.000201776
-0.00454699
0.00018712
-0.00458077
0.000171035
-0.00460841
0.00015341
-0.00463384
0.000138196
-0.00465913
0.000123477
-0.00467838
0.000106986
9.05284e-05
-0.00469551
-0.000220225
0.000149916
0.000176828
-0.000269468
0.000176123
-0.000324344
0.000203636
-0.000384945
0.000232841
-0.000450596
0.000261929
-0.00052171
0.000291758
-0.000597733
0.000321213
-0.000678346
0.000350327
-0.000763824
0.000379317
-0.000853135
0.0004069
-0.00094677
0.000433941
-0.00104411
0.000459188
-0.00114433
0.000482563
-0.00124728
0.000503952
-0.0013533
0.00052465
-0.00146144
0.000542431
-0.00157114
0.000558507
-0.00168266
0.000573156
-0.00179529
0.000585004
-0.0019091
0.000595583
-0.00202359
0.000604355
-0.00213853
0.000610979
-0.00225388
0.00061632
-0.00236914
0.000619424
-0.00248403
0.00062071
-0.00259838
0.000620542
-0.00271166
0.000618542
-0.00282411
0.000615669
-0.00293534
0.000611259
-0.00304497
0.000605375
-0.00315328
0.000598689
-0.00326009
0.000590428
-0.00336475
0.000581314
-0.00346749
0.000571684
-0.00356809
0.000560385
-0.00366537
0.000547842
-0.00376028
0.000534362
-0.00385262
0.000520441
-0.00394254
0.000507126
-0.00403118
0.000493501
-0.00411736
0.000479879
-0.00419941
0.000463817
-0.00427814
0.000447408
-0.00435226
0.000429459
-0.00442397
0.000411859
-0.00449229
0.000393852
-0.00455735
0.000374123
-0.00462047
0.000356979
-0.0046811
0.000339507
-0.00473569
0.000319262
-0.00478786
0.00030158
-0.00483778
0.000282754
-0.00488197
0.000263008
-0.00492414
0.000244004
-0.00496233
0.000225332
-0.00499632
0.000205048
-0.00502991
0.000187003
-0.00505743
0.000165714
-0.00508103
0.000147068
-0.0051007
0.000126651
0.000108052
-0.00511823
-0.00024715
0.00020085
0.000196213
-0.000304617
0.000233587
-0.000368097
0.000267114
-0.000438307
0.000303049
-0.000513883
0.000337504
-0.000594729
0.000372602
-0.000680967
0.000407448
-0.000771419
0.000440778
-0.000867358
0.000475253
-0.000967249
0.00050679
-0.00107211
0.000538804
-0.00117987
0.000566941
-0.00129169
0.000594384
-0.00140514
0.000617397
-0.00152131
0.000640826
-0.00164056
0.000661681
-0.00176113
0.000679071
-0.00188317
0.000695203
-0.00200689
0.000708721
-0.00213031
0.000719012
-0.00225528
0.00072934
-0.00238005
0.000735742
-0.00250582
0.000742053
-0.00263123
0.000744798
-0.00275568
0.000745106
-0.00287984
0.000744608
-0.00300215
0.000740854
-0.00312361
0.000737245
-0.00324387
0.000731789
-0.00336169
0.000723372
-0.00347868
0.000715324
-0.00359367
0.000704762
-0.003706
0.000692663
-0.00381691
0.000681745
-0.0039255
0.000669472
-0.00403042
0.000653752
-0.00413189
0.000638095
-0.00422986
0.000620204
-0.00432538
0.000601519
-0.00441923
0.000585671
-0.00451252
0.000569664
-0.0046027
0.000551845
-0.00468511
0.000531563
-0.00476592
0.00051323
-0.00484103
0.000490623
-0.00491229
0.000466728
-0.0049842
0.000445511
-0.00505022
0.000422121
-0.00511286
0.000401422
-0.00517235
0.000378529
-0.00522641
0.000355595
-0.0052778
0.000334106
-0.0053253
0.000310527
-0.0053712
0.000289916
-0.0054115
0.000265653
-0.00544912
0.000242689
-0.00548078
0.000218684
-0.00550786
0.00019279
-0.00553331
0.000172513
-0.00555528
0.000148614
0.000125679
-0.00557292
-0.000284063
0.00022647
0.000258438
-0.000351172
0.000300694
-0.000422482
0.000338422
-0.000503953
0.000384519
-0.000589276
0.000422824
-0.000681025
0.00046435
-0.000778396
0.000504817
-0.000878139
0.000540518
-0.000987183
0.000584296
-0.00109651
0.000616118
-0.00121506
0.000657345
-0.00133274
0.000684625
-0.00145955
0.00072119
-0.00158147
0.000739321
-0.00171029
0.000769642
-0.00184208
0.000793467
-0.00197202
0.000809008
-0.00210738
0.000830569
-0.00224209
0.000843428
-0.00237541
0.000852314
-0.00251491
0.000868817
-0.00264795
0.00086874
-0.00278588
0.000879942
-0.00292237
0.00088128
-0.0030565
0.000879303
-0.00319277
0.000880957
-0.00332303
0.000870963
-0.00345463
0.000868729
-0.00358574
0.00086306
-0.00371123
0.000849261
-0.00383812
0.000842762
-0.00396124
0.000828185
-0.0040806
0.000811726
-0.00419927
0.000799135
-0.00431839
0.000786589
-0.00442928
0.000763942
-0.00454011
0.000751077
-0.00464516
0.00072911
-0.00474427
0.000704594
-0.00484506
0.000686837
-0.00494083
0.00066202
-0.00503708
0.0006436
-0.00512693
0.000618053
-0.00521175
0.000599656
-0.00529563
0.000577082
-0.00537114
0.00054395
-0.00544515
0.000520135
-0.00551347
0.000490776
-0.00558056
0.000468115
-0.00564146
0.000439132
-0.00570159
0.00041564
-0.00575453
0.000387008
-0.00580456
0.000360564
-0.00585098
0.000336315
-0.00589493
0.000309602
-0.00593114
0.000278903
-0.00596575
0.000253298
-0.00599413
0.00022119
-0.00601994
0.000198323
-0.00604219
0.000170866
-0.00605906
0.00014254
-0.00306122
1.09065e-05
-0.00307057
9.34177e-06
-0.00307825
7.67886e-06
-0.00308409
5.84321e-06
-0.00308772
3.63269e-06
-0.00308872
1.00489e-06
-0.00308802
-6.98804e-07
-0.00308521
-2.80644e-06
-0.00308048
-4.72843e-06
-0.00307339
-7.0912e-06
-0.00306443
-8.9563e-06
-0.00305356
-1.08728e-05
-0.0030407
-1.28501e-05
-0.0030258
-1.48993e-05
-0.00300916
-1.66316e-05
-0.00299072
-1.84364e-05
-0.0029703
-2.04176e-05
-0.00294788
-2.24188e-05
-0.0029238
-2.40769e-05
-0.00289789
-2.59098e-05
-0.00287023
-2.7655e-05
-0.00284099
-2.92306e-05
-0.00281006
-3.09288e-05
-0.00277734
-3.27116e-05
-0.00274314
-3.41985e-05
-0.00270736
-3.57741e-05
-0.00267004
-3.73137e-05
-0.00263112
-3.89144e-05
-0.00259071
-4.0409e-05
-0.00254895
-4.17507e-05
-0.00250575
-4.32004e-05
-0.00246114
-4.4606e-05
-0.00241532
-4.58163e-05
-0.00236822
-4.70919e-05
-0.00231983
-4.83813e-05
-0.00227032
-4.95048e-05
-0.00221975
-5.0562e-05
-0.0021681
-5.1651e-05
-0.00211528
-5.28107e-05
-0.00206147
-5.38084e-05
-0.00200679
-5.46678e-05
-0.00195122
-5.5565e-05
-0.00189477
-5.64477e-05
-0.0018376
-5.71656e-05
-0.00177957
-5.80245e-05
-0.00172077
-5.87972e-05
-0.00166137
-5.93938e-05
-0.00160146
-5.99067e-05
-0.00154092
-6.05352e-05
-0.00147985
-6.10642e-05
-0.00141837
-6.14753e-05
-0.00135659
-6.17741e-05
-0.00129434
-6.22483e-05
-0.0012319
-6.24335e-05
-0.00116927
-6.26301e-05
-0.00110664
-6.26198e-05
-0.00104378
-6.28583e-05
-0.000980912
-6.28647e-05
-0.000918211
-6.26978e-05
-0.00085575
-6.24591e-05
-6.21871e-05
-0.00079356
-0.00332883
2.32961e-05
-0.0033372
1.77025e-05
-0.00334342
1.39001e-05
-0.00334746
9.88484e-06
-0.0033515
7.67369e-06
-0.00335129
7.97681e-07
-0.00334964
-2.35561e-06
-0.00334408
-8.3567e-06
-0.00333796
-1.08499e-05
-0.00332835
-1.67034e-05
-0.00331688
-2.04232e-05
-0.00330332
-2.44241e-05
-0.00328781
-2.83595e-05
-0.00327039
-3.23154e-05
-0.00325054
-3.64808e-05
-0.00322869
-4.02822e-05
-0.00320476
-4.43469e-05
-0.00317892
-4.82498e-05
-0.00315091
-5.20873e-05
-0.00312101
-5.58071e-05
-0.00308939
-5.9275e-05
-0.0030556
-6.30099e-05
-0.00301995
-6.6581e-05
-0.00298259
-7.00617e-05
-0.00294338
-7.34087e-05
-0.00290253
-7.66191e-05
-0.00285984
-7.99973e-05
-0.00281568
-8.30685e-05
-0.00276989
-8.61955e-05
-0.00272231
-8.93219e-05
-0.00267335
-9.2163e-05
-0.00262303
-9.49188e-05
-0.00257108
-9.77605e-05
-0.00251774
-0.000100426
-0.00246321
-0.000102906
-0.00240723
-0.00010548
-0.00235
-0.000107785
-0.00229156
-0.000110089
-0.00223205
-0.000112314
-0.00217141
-0.000114445
-0.00210952
-0.000116555
-0.00204675
-0.000118325
-0.00198306
-0.000120133
-0.00191834
-0.00012188
-0.00185283
-0.000123531
-0.00178648
-0.000125144
-0.00171941
-0.000126463
-0.00165145
-0.000127856
-0.00158296
-0.000129026
-0.0015139
-0.000130114
-0.00144432
-0.00013106
-0.0013744
-0.000131682
-0.00130357
-0.000133074
-0.00123301
-0.000132998
-0.00116157
-0.000134063
-0.00109018
-0.000134005
-0.00101806
-0.000134977
-0.000946566
-0.000134355
-0.000875069
-0.000134192
-0.000803634
-0.000133892
-0.000133975
-0.000731843
-0.0036229
3.47021e-05
-0.00363396
2.87634e-05
-0.00364083
2.07609e-05
-0.0036455
1.45596e-05
-0.00364622
8.3901e-06
-0.00364666
1.24478e-06
-0.00364311
-5.90575e-06
-0.00363713
-1.43385e-05
-0.00362911
-1.88716e-05
-0.00361955
-2.62581e-05
-0.00360763
-3.23444e-05
-0.00359186
-4.01919e-05
-0.00357439
-4.58264e-05
-0.00355444
-5.22598e-05
-0.00353225
-5.86637e-05
-0.00350771
-6.48211e-05
-0.00348105
-7.10027e-05
-0.00345224
-7.70624e-05
-0.00342121
-8.31092e-05
-0.00338828
-8.87419e-05
-0.00335289
-9.46578e-05
-0.00331565
-0.000100251
-0.00327642
-0.000105806
-0.00323523
-0.000111242
-0.00319201
-0.000116624
-0.00314688
-0.000121752
-0.00309996
-0.000126912
-0.00305118
-0.000131845
-0.00300049
-0.000136883
-0.0029484
-0.000141402
-0.00289448
-0.000146077
-0.00283881
-0.000150584
-0.00278189
-0.000154681
-0.00272331
-0.000159
-0.00266322
-0.00016299
-0.00260177
-0.000166932
-0.0025389
-0.000170651
-0.00247465
-0.000174333
-0.00240916
-0.000177798
-0.00234248
-0.000181124
-0.00227476
-0.000184268
-0.00220569
-0.000187389
-0.00213572
-0.000190103
-0.00206471
-0.000192887
-0.00199278
-0.00019545
-0.00192002
-0.000197905
-0.00184636
-0.000200111
-0.00177195
-0.000202266
-0.00169675
-0.000204218
-0.00162123
-0.000205632
-0.00154449
-0.000207799
-0.0014672
-0.000208962
-0.00138982
-0.000210459
-0.0013121
-0.000210712
-0.00123414
-0.000212021
-0.00115534
-0.000212804
-0.00107713
-0.000213175
-0.000998315
-0.000213172
-0.000919575
-0.000212931
-0.000840501
-0.000212964
-0.000212385
-0.000762089
-0.00395594
4.86394e-05
-0.00396567
3.84919e-05
-0.00397318
2.82736e-05
-0.00397651
1.78881e-05
-0.00397749
9.37413e-06
-0.00397611
-1.29961e-07
-0.00397088
-1.11375e-05
-0.00396582
-1.93983e-05
-0.00395654
-2.81498e-05
-0.0039452
-3.76029e-05
-0.00392972
-4.78202e-05
-0.00391307
-5.68435e-05
-0.00389394
-6.4952e-05
-0.00387148
-7.47206e-05
-0.00384689
-8.32442e-05
-0.00381983
-9.18827e-05
-0.00379032
-0.000100506
-0.00375834
-0.000109039
-0.00372419
-0.000117256
-0.00368742
-0.000125509
-0.00364877
-0.000133313
-0.00360764
-0.000141368
-0.00356449
-0.000148954
-0.00351917
-0.000156561
-0.00347187
-0.000163923
-0.00342225
-0.000171366
-0.00337066
-0.000178498
-0.00331718
-0.000185321
-0.00326195
-0.000192115
-0.00320452
-0.000198827
-0.00314545
-0.000205142
-0.00308478
-0.000211251
-0.00302213
-0.000217328
-0.002958
-0.000223123
-0.00289232
-0.000228666
-0.00282512
-0.000234125
-0.00275623
-0.00023954
-0.002686
-0.000244556
-0.0026144
-0.0002494
-0.00254158
-0.00025394
-0.00246732
-0.00025852
-0.00239213
-0.000262577
-0.0023156
-0.000266633
-0.0022381
-0.000270377
-0.00215954
-0.000274011
-0.00207998
-0.00027746
-0.00199951
-0.000280578
-0.00191836
-0.00028341
-0.00183609
-0.000286481
-0.00175315
-0.00028857
-0.00167018
-0.000290764
-0.00158597
-0.000293168
-0.00150145
-0.000294986
-0.00141592
-0.000296232
-0.00133089
-0.000297052
-0.00124511
-0.000298577
-0.00115928
-0.000299003
-0.00107354
-0.000298914
-0.000987367
-0.000299101
-0.000901431
-0.000298898
-0.000298524
-0.000815291
-0.00431732
6.1094e-05
-0.00432562
4.67926e-05
-0.00433375
3.64089e-05
-0.00433775
2.18848e-05
-0.00433746
9.09491e-06
-0.00433545
-2.14604e-06
-0.00433283
-1.37487e-05
-0.00432434
-2.78925e-05
-0.00431374
-3.87476e-05
-0.00429922
-5.21217e-05
-0.00428268
-6.43568e-05
-0.00426401
-7.55135e-05
-0.00424137
-8.75889e-05
-0.00421733
-9.8756e-05
-0.00419151
-0.000109069
-0.00416074
-0.000122649
-0.00412811
-0.000133131
-0.00409287
-0.000144274
-0.00405501
-0.000155119
-0.00401485
-0.000165665
-0.0039721
-0.000176058
-0.0039273
-0.000186158
-0.00387998
-0.000196277
-0.00383028
-0.000206259
-0.00377807
-0.000216131
-0.00372393
-0.000225496
-0.00366757
-0.000234861
-0.00360894
-0.000243946
-0.00354828
-0.000252767
-0.00348575
-0.00026136
-0.00342113
-0.00026976
-0.00335454
-0.000277833
-0.00328626
-0.000285603
-0.00321627
-0.00029311
-0.00314445
-0.000300486
-0.00307086
-0.000307704
-0.00299593
-0.000314469
-0.00291921
-0.000321271
-0.002841
-0.000327611
-0.00276125
-0.000333687
-0.00268038
-0.000339383
-0.00259814
-0.000344816
-0.00251481
-0.00034996
-0.00243027
-0.000354913
-0.00234464
-0.000359633
-0.00225832
-0.000363778
-0.00216988
-0.000369016
-0.00208101
-0.000372277
-0.00199195
-0.000375536
-0.00190156
-0.000378962
-0.00181073
-0.000381594
-0.00171958
-0.00038431
-0.00162741
-0.000387157
-0.00153497
-0.000388667
-0.00144099
-0.000391024
-0.00134764
-0.000391933
-0.00125427
-0.000392363
-0.00116051
-0.000392678
-0.00106641
-0.000393201
-0.000973109
-0.000392194
-0.000392026
-0.000879605
-0.00470851
7.4097e-05
-0.00471938
5.76641e-05
-0.00472413
4.11566e-05
-0.00472873
2.64894e-05
-0.0047312
1.15695e-05
-0.00472769
-5.65181e-06
-0.00472008
-2.13607e-05
-0.00471231
-3.56637e-05
-0.00469867
-5.23834e-05
-0.0046849
-6.58844e-05
-0.00466716
-8.21003e-05
-0.00464547
-9.72012e-05
-0.00462173
-0.000111326
-0.00459413
-0.000126355
-0.00456259
-0.000140605
-0.00452921
-0.00015602
-0.00449332
-0.000169025
-0.00445499
-0.000182593
-0.0044134
-0.000196707
-0.00436912
-0.000209949
-0.00432241
-0.000222757
-0.00427286
-0.000235705
-0.00422087
-0.000248268
-0.00416643
-0.00026069
-0.0041096
-0.000272964
-0.00405011
-0.000284974
-0.00398848
-0.000296489
-0.00392443
-0.000307996
-0.00385813
-0.000319061
-0.00378983
-0.000329657
-0.00371924
-0.000340352
-0.00364656
-0.000350512
-0.00357201
-0.000360141
-0.00349569
-0.000369432
-0.00341728
-0.000378887
-0.00333725
-0.00038773
-0.00325524
-0.000396484
-0.00317154
-0.000404969
-0.00308632
-0.000412823
-0.00299964
-0.000420368
-0.00291126
-0.000427756
-0.0028217
-0.000434377
-0.00273081
-0.000440841
-0.00263845
-0.000447274
-0.00254521
-0.000452862
-0.00245088
-0.000458105
-0.0023561
-0.000463801
-0.00225969
-0.000468682
-0.00216208
-0.000473141
-0.00206401
-0.000477028
-0.00196479
-0.000480811
-0.00186461
-0.000484492
-0.0017648
-0.000486963
-0.00166349
-0.000489967
-0.00156253
-0.000491982
-0.001461
-0.000493465
-0.00135826
-0.000495102
-0.00125592
-0.000495013
-0.00115426
-0.000494858
-0.00105209
-0.000494365
-0.000493883
-0.000950232
-0.00513168
8.75407e-05
-0.00514298
6.89734e-05
-0.00515025
4.84221e-05
-0.00515343
2.96756e-05
-0.00515062
8.76358e-06
-0.0051478
-8.46868e-06
-0.00514092
-2.82473e-05
-0.00512999
-4.65852e-05
-0.00511708
-6.52938e-05
-0.00509844
-8.45204e-05
-0.00507783
-0.000102705
-0.00505509
-0.000119942
-0.00502653
-0.000139884
-0.00499602
-0.000156854
-0.00496362
-0.000173004
-0.00492732
-0.000192321
-0.00488706
-0.000209278
-0.00484404
-0.000225611
-0.00479791
-0.000242838
-0.00474996
-0.000257897
-0.00469839
-0.000274324
-0.00464437
-0.000289722
-0.00458753
-0.000305104
-0.00452784
-0.000320372
-0.00446544
-0.000335366
-0.00440045
-0.000349962
-0.00433281
-0.00036412
-0.00426297
-0.000377836
-0.00419082
-0.000391205
-0.00411616
-0.000404313
-0.00403911
-0.000417401
-0.00395999
-0.000429635
-0.00387855
-0.000441578
-0.00379535
-0.000452623
-0.00371021
-0.00046403
-0.00362298
-0.000474949
-0.00353381
-0.000485653
-0.00344263
-0.000496148
-0.00334969
-0.000505756
-0.00325504
-0.00051502
-0.00315891
-0.000523884
-0.00306087
-0.000532409
-0.00296208
-0.000539629
-0.00286205
-0.000547306
-0.00276106
-0.00055385
-0.00265814
-0.000561022
-0.00255392
-0.000568011
-0.0024491
-0.000573499
-0.00234408
-0.000578161
-0.00223693
-0.000584176
-0.00212938
-0.00058836
-0.0020217
-0.000592172
-0.00191226
-0.000596401
-0.00180276
-0.000599459
-0.00169221
-0.000602532
-0.00158126
-0.000604418
-0.00147077
-0.000605584
-0.00135973
-0.000606057
-0.00124835
-0.000606239
-0.00113719
-0.000605523
-0.000604754
-0.00102631
-0.00558667
0.00010129
-0.00559615
7.84521e-05
-0.00560187
5.41483e-05
-0.00560534
3.31408e-05
-0.00560506
8.48911e-06
-0.00559908
-1.44515e-05
-0.00559118
-3.61499e-05
-0.00557697
-6.07916e-05
-0.00556084
-8.14198e-05
-0.00554139
-0.000103964
-0.00551989
-0.0001242
-0.00549255
-0.000147279
-0.00546291
-0.000169518
-0.00542966
-0.000190107
-0.00539115
-0.000211507
-0.00535208
-0.000231397
-0.00530919
-0.000252167
-0.00526039
-0.000274403
-0.00521119
-0.000292034
-0.00515714
-0.000311944
-0.00509994
-0.000331522
-0.00504084
-0.00034882
-0.00497904
-0.000366909
-0.0049136
-0.000385804
-0.00484533
-0.000403635
-0.00477416
-0.000421129
-0.0047003
-0.000437975
-0.00462388
-0.000454253
-0.00454498
-0.000470103
-0.00446366
-0.000485635
-0.00437951
-0.000501542
-0.00429342
-0.00051572
-0.00420475
-0.000530246
-0.00411477
-0.000542603
-0.00402217
-0.000556627
-0.00392742
-0.000569695
-0.00383063
-0.000582445
-0.00373133
-0.000595437
-0.00362987
-0.000607213
-0.00352701
-0.000617879
-0.00342257
-0.000628319
-0.00331638
-0.000638597
-0.0032081
-0.000647908
-0.00309998
-0.000655422
-0.00298975
-0.000664072
-0.00287739
-0.000673386
-0.00276576
-0.000679638
-0.00265144
-0.000687819
-0.00253693
-0.000692665
-0.00242153
-0.00069957
-0.00230418
-0.00070571
-0.0021871
-0.000709251
-0.00206877
-0.000714726
-0.00195062
-0.00071761
-0.00183014
-0.000723009
-0.00171031
-0.000724244
-0.00158892
-0.000726978
-0.0014683
-0.000726674
-0.0013475
-0.000727035
-0.00122731
-0.00072571
-0.000725559
-0.00110651
-0.006073
0.000115232
-0.00608199
8.74409e-05
-0.00608782
5.99701e-05
-0.00608713
3.24592e-05
-0.00608511
6.46754e-06
-0.00607965
-1.99168e-05
-0.00606964
-4.61604e-05
-0.00605496
-7.54761e-05
-0.00603518
-0.000101192
-0.00601488
-0.000124256
-0.00598849
-0.000150591
-0.00595877
-0.00017699
-0.00592662
-0.000201668
-0.00588773
-0.000228992
-0.00584974
-0.000249496
-0.00580453
-0.000276611
-0.00575508
-0.000301608
-0.00570443
-0.000325049
-0.00564714
-0.000349322
-0.00558906
-0.000370017
-0.00552837
-0.000392208
-0.00546202
-0.000415165
-0.0053958
-0.000433127
-0.00532389
-0.000457719
-0.00524851
-0.000479014
-0.00517166
-0.00049797
-0.00508998
-0.000519654
-0.00500746
-0.000536764
-0.00491947
-0.000558089
-0.00483301
-0.000572092
-0.00473916
-0.000595386
-0.00464706
-0.000607824
-0.00454883
-0.000628468
-0.00445301
-0.000638418
-0.00435283
-0.000656804
-0.00424966
-0.000672863
-0.00414591
-0.000686193
-0.00403719
-0.000704154
-0.00392648
-0.000717913
-0.00381638
-0.000727974
-0.00370096
-0.000743735
-0.00358421
-0.000755346
-0.00346878
-0.000763339
-0.00334856
-0.000775641
-0.00323247
-0.000780157
-0.00310857
-0.00079728
-0.00298855
-0.000799657
-0.00286258
-0.000813783
-0.0027409
-0.000814345
-0.00261587
-0.000824595
-0.00248805
-0.000833525
-0.00236348
-0.000833819
-0.00223362
-0.000844584
-0.00210727
-0.000843963
-0.00197398
-0.000856301
-0.00184584
-0.000852373
-0.00171128
-0.000861538
-0.00158445
-0.000853505
-0.00145066
-0.000860825
-0.00132274
-0.000853626
-0.0011883
-0.000859999
-0.000731237
-6.23212e-05
-0.000669296
-6.19389e-05
-0.000607761
-6.15345e-05
-0.000546692
-6.10676e-05
-0.000486165
-6.05265e-05
-0.000426249
-5.99155e-05
-0.000367238
-5.90103e-05
-0.000309218
-5.80204e-05
-0.000252444
-5.67746e-05
-0.000196829
-5.5616e-05
-0.000140869
-5.59619e-05
-8.31096e-05
-5.77609e-05
-2.40776e-05
-5.90342e-05
3.44633e-05
-5.85433e-05
9.08217e-05
-5.63612e-05
0.000144934
-5.41158e-05
0.000197256
-5.23244e-05
0.000248027
-5.07745e-05
0.000297293
-4.92704e-05
0.000345008
-4.77183e-05
0.000391166
-4.6162e-05
0.000435715
-4.45532e-05
0.000478529
-4.2819e-05
0.000519488
-4.09628e-05
0.000558536
-3.90534e-05
0.000595612
-3.70805e-05
0.000630595
-3.49878e-05
0.00066335
-3.27602e-05
0.000693764
-3.04184e-05
0.000721745
-2.79867e-05
0.000747094
-2.53542e-05
0.000769652
-2.25629e-05
0.000789297
-1.96501e-05
0.00080578
-1.64885e-05
0.000818882
-1.31075e-05
0.000828404
-9.52746e-06
0.000834025
-5.62657e-06
0.000835926
-1.90584e-06
0.000834356
1.56404e-06
0.000829321
5.02943e-06
0.000820696
8.61942e-06
0.000807875
1.2815e-05
0.000790371
1.74991e-05
0.000767757
2.26079e-05
0.000739399
2.83523e-05
0.000704673
3.47196e-05
0.000662966
4.17019e-05
0.000613542
4.94173e-05
0.000555555
5.7982e-05
0.000488249
6.72993e-05
0.00041092
7.73229e-05
0.000323027
8.7887e-05
0.00022403
9.89909e-05
0.000113147
0.000110879
-1.56866e-05
0.000128829
-0.00015707
0.000141379
-0.000287534
0.00013046
-0.00039537
0.000107832
-0.00047664
8.12662e-05
-0.000536855
6.02101e-05
4.98096e-05
-0.000586669
-0.000660679
-0.000133484
-0.000589271
-0.000133345
-0.000518103
-0.000132701
-0.000447204
-0.000131966
-0.000376916
-0.000130814
-0.000306829
-0.000130002
-0.000237328
-0.000128511
-0.000168341
-0.000127008
-0.000100103
-0.000125013
-3.17521e-05
-0.000123968
3.70106e-05
-0.000124726
0.000105044
-0.000125796
0.000171744
-0.000125736
0.000237718
-0.00012452
0.000303153
-0.000121798
0.000367767
-0.000118732
0.000431187
-0.000115748
0.000493315
-0.000112905
0.000554079
-0.000110038
0.000613485
-0.000107128
0.000671518
-0.000104198
0.000728002
-0.00010104
0.000782934
-9.77544e-05
0.00083629
-9.43229e-05
0.000887959
-9.07268e-05
0.000937878
-8.70031e-05
0.000985908
-8.30226e-05
0.00103207
-7.89298e-05
0.00107622
-7.45713e-05
0.00111817
-6.99439e-05
0.00115796
-6.51424e-05