/*--------------------------------*- C++ -*----------------------------------*\
| =========                 |                                                 |
| \\      /  F ield         | OpenFOAM: The Open Source CFD Toolbox           |
|  \\    /   O peration     | Version:  2.3.1                                 |
|   \\  /    A nd           | Web:      www.OpenFOAM.org                      |
|    \\/     M anipulation  |                                                 |
\*---------------------------------------------------------------------------*/
FoamFile
{
    version     2.0;
    format      ascii;
    class       volScalarField;
    location    "350";
    object      p;
}
// * * * * * * * * * * * * * * * * * * * * * * * * * * * * * * * * * * * * * //

dimensions      [0 2 -2 0 0 0 0];

internalField   nonuniform List<scalar> 
10720
(
1.63825e-05
-80.7906
-175.46
-265.966
-346.599
-427.796
-497.397
-553.351
-600.4
-634.911
-659.03
-675.025
-684.143
-686.94
-683.838
-674.368
-659.74
-638.645
-612.325
-579.4
-540.975
-496.245
-447.521
-395.752
-344.483
-298.834
-257.716
-217.427
-177.655
-138.601
-100.061
-61.8696
-23.9031
14.0916
52.3781
92.1018
133.438
182.362
228.952
83.7236
160.372
245.784
328.291
401.994
462.575
506.101
530.075
537.57
534.463
521.813
502.687
481.43
460.021
439.212
419.064
399.867
381.396
363.466
345.644
327.891
309.913
291.79
273.884
257.972
245.096
234.315
225.289
218.027
212.595
208.915
206.878
206.398
207.473
210.106
214.682
221.698
234.723
257.473
148.659
86.4588
17.9293
-53.4962
-125.67
-198.476
-267.903
-331.83
-389.79
-440.029
-482.65
-517.729
-545.098
-564.936
-577.169
-581.953
-579.946
-570.671
-554.737
-531.552
-501.766
-465.148
-423.497
-378.03
-331.929
-289.598
-250.524
-211.807
-173.243
-135.132
-97.3541
-59.7798
-22.3116
15.287
53.2675
92.7569
133.917
182.763
228.635
205.305
260.053
315.796
371.338
422.407
466.267
499.692
520.21
528.466
526.544
516.143
500.251
481.714
462.142
442.385
422.83
403.806
385.308
367.233
349.32
331.497
313.583
295.655
278.093
262.285
249.129
237.988
228.581
220.939
215.127
211.082
208.714
207.941
208.757
211.172
215.575
222.456
235.4
257.165
172.257
116.483
54.7589
-12.5196
-81.1597
-150.352
-218.504
-282.723
-341.403
-393.673
-438.375
-475.081
-503.872
-525.217
-539.259
-546.289
-546.482
-539.722
-526.282
-505.98
-479.191
-446.015
-407.789
-365.849
-322.816
-282.309
-244.404
-206.844
-169.288
-132.003
-94.9078
-57.887
-20.8604
16.3883
54.0971
93.3719
134.358
183.03
228.483
223.317
274.023
325.589
375.819
420.976
459.373
488.736
507.4
516.013
515.819
508.077
494.997
478.649
460.584
441.821
422.934
404.298
386.042
368.132
350.401
332.762
315.099
297.478
280.249
264.519
251.162
239.831
230.258
222.458
216.483
212.281
209.768
208.861
209.555
211.869
216.192
223.014
235.845
256.676
209.724
162.793
109.936
52.5331
-6.96378
-68.3731
-129.903
-189.631
-246.147
-298.333
-345.082
-385.749
-420.024
-447.793
-468.923
-483.239
-490.495
-490.582
-483.549
-469.357
-448.26
-420.543
-387.307
-349.952
-310.751
-272.79
-236.635
-200.624
-164.36
-128.118
-91.8839
-55.5661
-19.105
17.6933
55.0502
94.0399
134.787
183.16
228.215
252.224
293.74
336.156
378.229
416.491
449.672
475.737
493.08
502.032
503.337
497.902
487.416
473.471
457.411
440.217
422.503
404.683
386.979
369.442
351.998
334.594
317.182
299.838
282.897
267.272
253.787
242.287
232.526
224.516
218.314
213.884
211.148
210.035
210.544
212.703
216.903
223.622
236.269
256.172
224.59
182.772
135.436
83.6079
29.7006
-26.6377
-83.9064
-140.323
-194.786
-246.12
-293.16
-335.127
-371.411
-401.578
-425.317
-442.302
-452.379
-455.462
-451.533
-440.645
-422.967
-398.851
-369.202
-335.352
-299.258
-263.498
-228.878
-194.231
-159.154
-123.91
-88.5327
-52.9447
-17.0947
19.1979
56.1423
94.7829
135.22
183.187
227.709
262.587
299.507
337.281
374.648
408.556
438.207
461.89
478.272
487.482
489.989
486.543
478.394
466.755
452.729
437.207
420.799
403.949
386.948
369.922
352.882
335.823
318.742
301.737
285.123
269.667
256.123
244.486
234.567
226.378
219.983
215.357
212.433
211.146
211.499
213.526
217.615
224.23
236.668
255.634
236.112
199.052
156.823
110.6
62.44
11.6606
-40.3179
-92.0813
-142.808
-191.401
-236.851
-278.388
-315.301
-347.01
-373.074
-393.106
-406.834
-413.989
-414.347
-407.854
-394.583
-374.845
-349.399
-319.473
-286.783
-253.512
-220.642
-187.47
-153.654
-119.455
-84.9616
-50.126
-14.9114
20.8456
57.3404
95.5813
135.643
183.088
226.963
269.754
302.278
335.746
369.06
399.395
426.204
447.974
463.55
472.904
476.341
474.519
468.377
458.845
446.806
433.032
418.082
402.397
386.294
369.957
353.464
336.859
320.185
303.561
287.292
272.036
258.483
246.742
236.688
228.337
221.754
216.931
213.811
212.339
212.521
214.399
218.36
224.85
237.034
255.051
241.967
208.503
170.249
128.32
84.6965
38.4181
-9.24139
-57.0379
-104.408
-150.356
-193.996
-234.614
-271.457
-303.865
-331.298
-353.262
-369.274
-379.027
-382.21
-378.757
-368.718
-352.38
-330.386
-303.829
-274.191
-243.293
-212.17
-180.475
-147.941
-114.812
-81.2226
-47.1566
-12.5956
22.6035
58.6196
96.4207
136.045
182.851
225.985
272.369
301.645
331.89
362.078
389.622
414.159
434.382
449.245
458.629
462.777
462.258
457.798
450.125
439.938
427.877
414.43
400.003
384.92
369.397
353.563
337.507
321.314
305.124
289.233
274.222
260.721
248.922
238.764
230.273
223.519
218.51
215.201
213.547
213.559
215.288
219.115
225.467
237.357
254.426
245.227
214.844
180.014
141.859
102.244
60.054
16.4685
-27.428
-71.2599
-114.172
-155.384
-194.293
-230.189
-262.403
-290.345
-313.461
-331.217
-343.254
-349.19
-348.825
-342.113
-329.255
-310.765
-287.589
-261.012
-232.566
-203.295
-173.148
-141.955
-109.949
-77.3058
-44.0435
-10.1638
24.455
59.967
97.2933
136.423
182.48
224.78
272.859
299.392
326.93
354.518
379.755
402.396
421.32
435.53
444.849
449.525
450.03
446.957
440.885
432.37
421.933
409.975
396.857
382.884
368.282
353.212
337.799
322.163
306.46
290.986
276.262
262.868
251.056
240.825
232.215
225.307
220.12
216.626
214.792
214.631
216.204
219.886
226.083
237.637
253.763
246.416
218.594
186.646
151.665
115.443
76.7831
36.7546
-3.6622
-44.2485
-84.2509
-123.011
-160.033
-194.66
-226.254
-254.224
-277.98
-296.946
-310.667
-318.708
-320.776
-316.778
-306.86
-291.436
-271.31
-247.576
-221.51
-194.106
-165.528
-135.704
-104.86
-73.2012
-40.7801
-7.61569
26.392
61.3733
98.1936
136.782
181.993
223.368
271.748
296.02
321.313
346.731
370.031
391.069
408.875
422.48
431.67
436.719
438.021
436.076
431.363
424.324
415.379
404.851
393.043
380.225
366.617
352.393
337.702
322.691
307.53
292.513
278.12
264.89
253.111
242.842
234.141
227.097
221.746
218.075
216.062
215.729
217.142
220.669
226.693
237.873
253.062
246.32
220.7
191.246
159.029
125.762
90.2127
53.3776
16.1392
-21.3967
-58.5631
-94.8175
-129.756
-162.789
-193.352
-220.871
-244.746
-264.395
-279.321
-289.075
-293.274
-291.752
-284.571
-272.031
-254.801
-233.802
-210.087
-184.583
-157.606
-129.183
-99.5387
-68.902
-37.3581
-4.94467
28.4175
62.835
99.115
137.125
181.404
221.784
269.681
292.022
315.4
338.964
360.606
380.26
397.083
410.114
419.132
424.43
426.347
425.311
421.734
415.977
408.378
399.189
388.654
377.004
364.433
351.117
337.216
322.89
308.324
293.806
279.789
266.775
255.079
244.809
236.045
228.886
223.385
219.546
217.359
216.852
218.1
221.463
227.297
238.064
252.326
245.33
221.615
194.327
164.514
133.827
101.012
67.0067
32.612
-2.13076
-36.6426
-70.4788
-103.323
-134.651
-163.965
-190.737
-214.396
-234.358
-250.1
-261.15
-267.074
-267.629
-262.817
-252.848
-238.258
-219.81
-198.366
-174.758
-149.399
-122.4
-93.9874
-64.4071
-33.7745
-2.14678
30.5349
64.3529
100.054
137.45
180.725
220.058
266.986
287.668
309.39
331.35
351.548
369.999
385.936
398.419
407.243
412.694
415.075
414.767
412.135
407.479
401.073
393.113
383.789
373.285
361.768
349.398
336.337
322.752
308.829
294.851
281.252
268.507
256.944
246.711
237.915
230.665
225.03
221.033
218.677
217.998
219.077
222.265
227.89
238.211
251.557
243.752
221.708
196.328
168.635
140.219
109.829
78.3531
46.5275
14.3369
-17.703
-49.227
-79.9946
-109.551
-137.471
-163.273
-186.424
-206.366
-222.574
-234.563
-241.885
-244.213
-241.49
-233.843
-221.682
-205.628
-186.374
-164.648
-140.917
-115.36
-88.2067
-59.7156
-30.0281
0.779833
32.7457
65.9283
101.009
137.754
179.959
218.213
263.918
283.151
303.425
323.972
342.901
360.286
375.417
387.381
395.987
401.517
404.246
404.519
402.664
398.943
393.585
386.736
378.54
369.139
358.668
347.264
335.078
322.275
309.036
295.64
282.501
270.074
258.691
248.536
239.74
232.424
226.675
222.532
220.013
219.163
220.07
223.073
228.472
238.315
250.759
241.792
221.223
197.536
171.724
145.323
117.094
87.8801
58.3712
28.5042
-1.26164
-30.6142
-59.3826
-87.1731
-113.626
-138.322
-160.771
-180.449
-196.846
-209.464
-217.87
-221.663
-220.732
-215.134
-205.17
-191.329
-174.16
-154.283
-132.177
-108.07
-82.2001
-54.8276
-26.1172
3.83654
35.0511
67.5608
101.98
138.033
179.111
216.26
260.635
278.596
297.583
316.878
334.677
351.109
365.501
376.967
385.344
390.895
393.877
394.608
393.393
390.463
386.012
380.154
372.995
364.639
355.185
344.745
333.454
321.461
308.943
296.163
283.524
271.461
260.306
250.271
241.509
234.154
228.311
224.036
221.363
220.345
221.076
223.883
229.04
238.376
249.935
239.593
220.339
198.167
174.038
149.438
123.145
95.9636
68.5476
40.7934
13.12
-14.2075
-41.071
-67.1363
-92.1004
-115.606
-137.212
-156.432
-172.782
-185.767
-194.976
-199.96
-200.555
-196.755
-188.767
-176.966
-161.77
-143.693
-123.197
-100.544
-75.9724
-49.7445
-22.0415
7.02483
37.4521
69.2508
102.965
138.283
178.186
214.208
257.254
274.08
291.923
310.091
326.877
342.445
356.154
367.15
375.284
380.815
383.977
385.067
384.372
382.106
378.437
373.455
367.236
359.854
351.374
341.882
331.486
320.322
308.549
296.418
284.315
272.658
261.778
251.904
243.209
235.846
229.93
225.539
222.72
221.538
222.092
224.694
229.591
238.397
249.087
237.256
219.185
198.378
175.766
152.782
128.231
102.888
77.3631
51.5348
25.786
0.337612
-24.7324
-49.1398
-72.6362
-94.9116
-115.581
-134.2
-150.32
-163.459
-173.226
-179.151
-181.019
-178.774
-172.544
-162.601
-149.253
-132.911
-113.999
-92.7934
-69.5309
-44.4692
-17.8018
10.3453
39.9494
70.9985
103.964
138.505
177.188
212.067
253.856
269.662
286.471
303.623
319.49
334.268
347.344
357.892
365.78
371.254
374.537
375.905
375.636
373.925
370.925
366.712
361.338
354.851
347.29
338.712
329.202
318.871
307.862
296.405
284.868
273.656
263.094
253.421
244.831
237.487
231.524
227.033
224.081
222.739
223.114
225.503
230.123
238.379
248.22
234.853
217.855
198.286
177.048
155.524
132.552
108.875
85.0676
60.996
37.0128
13.3013
-10.0904
-32.919
-54.9836
-76.0244
-95.7022
-113.62
-129.364
-142.48
-152.59
-159.236
-162.15
-161.233
-156.549
-148.287
-136.658
-121.974
-104.61
-84.8362
-62.8856
-39.007
-13.3998
13.7971
42.5434
72.8042
104.979
138.695
176.123
209.847
250.492
265.378
281.248
297.472
312.504
326.554
339.039
349.162
356.8
362.194
365.551
367.133
367.206
365.958
363.53
359.985
355.364
349.692
342.987
335.28
326.632
317.129
306.891
296.125
285.182
274.45
264.244
254.812
246.361
239.069
233.083
228.512
225.437
223.943
224.137
226.305
230.634
238.324
247.338
232.439
216.418
197.975
177.991
157.793
136.259
114.095
91.8541
69.388
47.0214
24.9149
3.09135
-18.2464
-38.9338
-58.7563
-77.4187
-94.5677
-109.83
-122.781
-133.053
-140.223
-143.974
-144.175
-140.838
-134.082
-124.035
-110.922
-95.0563
-76.6917
-56.0489
-33.3647
-8.83932
17.3793
45.2336
74.6677
106.008
138.858
174.999
207.557
247.202
261.25
276.262
291.635
305.904
319.277
331.207
340.927
348.315
353.609
357.004
358.746
359.095
358.233
356.29
353.326
349.37
344.433
338.517
331.631
323.811
315.119
305.651
295.587
285.257
275.033
265.22
256.066
247.789
240.58
234.598
229.967
226.783
225.144
225.159
227.098
231.121
238.235
246.445
230.051
214.923
197.516
178.677
159.692
139.468
118.689
97.8777
76.8819
56.0017
35.3776
15.0092
-4.92723
-24.304
-42.9405
-60.5831
-76.9241
-91.624
-104.295
-114.582
-122.103
-126.506
-127.633
-125.456
-120.036
-111.435
-99.7958
-85.3699
-68.382
-49.0359
-27.5515
-4.12521
21.0892
48.0191
76.5885
107.053
138.993
173.824
205.209
244.01
257.291
271.515
286.105
299.668
312.413
323.82
333.156
340.298
345.478
348.88
350.74
351.312
350.768
349.236
346.773
343.402
339.124
333.929
327.807
320.774
312.868
304.158
294.799
285.096
275.404
266.015
257.174
249.106
242.01
236.058
231.388
228.112
226.335
226.172
227.877
231.584
238.115
245.545
227.715
213.409
196.954
179.171
161.296
142.276
122.766
103.266
83.6178
64.1049
44.8484
25.8323
7.20625
-10.9266
-28.421
-45.0577
-60.5701
-74.6548
-86.9592
-97.1432
-104.865
-109.756
-111.636
-110.444
-106.197
-98.9034
-88.6367
-75.5832
-59.9319
-41.8633
-21.5783
0.735862
24.9233
50.8983
78.5667
108.116
139.105
172.606
202.814
240.933
253.508
267.005
280.87
293.777
305.937
316.852
325.82
332.718
337.774
341.163
343.107
343.855
343.575
342.391
340.359
337.499
333.809
329.266
323.85
317.557
310.403
302.432
293.773
284.706
275.564
266.624
258.127
250.3
243.349
237.455
232.769
229.416
227.512
227.173
228.64
232.021
237.967
244.643
225.45
211.904
196.329
179.52
162.668
144.755
126.414
108.119
89.71
71.4563
53.4647
35.703
18.3032
1.34346
-15.0592
-30.7168
-45.3976
-58.8342
-70.7061
-80.6932
-88.4895
-93.7263
-96.203
-95.8358
-92.6074
-86.4873
-77.4867
-65.7309
-51.3678
-34.551
-15.4584
5.73557
28.8768
53.8687
80.6011
109.196
139.195
171.357
200.387
237.982
249.906
262.728
275.919
288.216
299.826
310.276
318.892
325.552
330.477
333.835
335.836
336.722
336.661
335.771
334.109
331.696
328.524
324.569
319.799
314.194
307.753
300.497
292.528
284.096
275.516
267.046
258.92
251.364
244.587
238.777
234.098
230.686
228.666
228.156
229.382
232.429
237.793
243.743
223.269
210.428
195.669
179.764
163.856
146.966
129.703
112.518
95.2531
78.1615
61.3368
44.7396
28.4816
12.6245
-2.7389
-17.4508
-31.3085
-44.077
-55.4687
-65.1878
-72.9523
-78.4128
-81.349
-81.6603
-79.3084
-74.2298
-66.3874
-55.8487
-42.7185
-27.1205
-9.2071
10.8638
32.9435
56.9274
82.691
110.295
139.27
170.085
197.939
235.165
246.483
258.677
271.24
282.966
294.059
304.069
312.349
318.777
323.566
326.879
328.915
329.91
330.028
329.386
328.041
326.016
323.302
319.873
315.689
310.721
304.95
298.377
291.078
283.277
275.263
267.281
259.549
252.29
245.715
240.017
235.368
231.914
229.79
229.116
230.099
232.807
237.597
242.85
221.18
208.995
194.997
179.931
164.9
148.958
132.692
116.533
100.327
84.3086
68.5642
53.0454
37.852
23.0284
8.64666
-5.15592
-18.2088
-30.3037
-41.184
-50.5793
-58.2262
-63.8061
-67.0819
-67.9404
-66.3321
-62.1705
-55.3781
-45.9723
-34.0138
-19.5955
-2.84175
16.109
37.1162
60.0701
84.8354
111.417
139.333
168.804
195.487
232.483
243.238
254.844
266.818
278.009
288.616
298.21
306.167
312.368
317.021
320.278
322.331
323.41
323.675
323.242
322.169
320.48
318.169
315.208
311.553
307.168
302.022
296.097
289.444
282.262
274.816
267.329
260.01
253.072
246.724
241.164
236.568
233.092
230.877
230.045
230.788
233.154
237.381
241.969
219.189
207.616
194.328
180.046
165.828
150.768
135.428
120.22
104.993
89.9699
75.226
60.7096
46.507
32.6505
19.1953
6.2586
-6.01329
-17.4391
-27.7897
-36.8202
-44.2823
-49.8923
-53.4036
-54.6954
-53.7087
-50.3451
-44.4967
-36.1367
-25.2848
-12.0009
3.61875
21.4572
41.386
63.2926
87.0327
112.561
139.39
167.523
193.043
229.937
240.166
251.221
262.644
273.331
283.479
292.678
300.326
306.306
310.821
314.016
316.072
317.215
317.601
317.343
316.502
315.105
313.146
310.599
307.421
303.567
298.998
293.681
287.648
281.067
274.182
267.196
260.302
253.705
247.609
242.211
237.691
234.211
231.92
230.938
231.444
233.469
237.149
241.103
217.299
206.298
193.675
180.127
166.667
152.428
137.949
123.625
109.307
95.2052
81.3898
67.804
54.525
41.5734
28.9908
16.8763
5.35526
-5.41208
-15.2244
-23.8604
-31.087
-36.6542
-40.3116
-41.935
-41.4604
-38.7854
-33.7793
-26.3776
-16.5636
-4.36334
10.1536
26.8945
45.7428
66.5886
89.2816
113.732
139.45
166.254
190.622
227.526
237.262
247.8
258.705
268.918
278.629
287.453
294.805
300.571
304.95
308.076
310.124
311.314
311.798
311.688
311.046
309.901
308.25
306.069
303.316
299.943
295.904
291.156
285.709
279.709
273.373
266.887
260.428
254.188
248.363
243.149
238.726
235.263
232.91
231.789
232.063
233.751
236.903
240.257
215.509
205.047
193.048
180.187
167.436
153.964
140.288
126.787
113.313
100.068
87.1154
74.3955
61.9757
49.8685
38.1059
26.77
15.9687
5.84188
-3.43244
-11.6541
-18.6079
-24.0725
-27.8006
-29.6669
-29.608
-27.5201
-23.2584
-16.728
-7.88035
3.28978
16.7419
32.403
50.1757
69.9528
91.5797
114.932
139.518
165.009
188.24
225.248
234.521
244.573
254.988
264.752
274.05
282.517
289.586
295.146
299.388
302.442
304.474
305.698
306.262
306.275
305.803
304.876
303.494
301.636
299.261
296.322
292.767
288.544
283.649
278.204
272.403
266.412
260.39
254.517
248.981
243.971
239.667
236.239
233.839
232.591
232.641
233.999
236.645
239.434
213.82
203.865
192.452
180.236
168.15
155.396
142.471
129.737
117.05
104.603
92.4515
80.5374
68.919
57.6006
46.6069
36.0067
25.8917
16.3835
7.64123
-0.156643
-6.80953
-12.1252
-15.8614
-17.896
-18.1667
-16.5733
-12.9635
-7.21942
0.734763
10.9323
23.3588
37.9664
54.6727
73.3766
93.926
116.163
139.604
163.8
185.912
223.099
231.937
241.529
251.481
260.821
269.727
277.854
284.653
290.013
294.122
297.101
299.11
300.356
300.984
301.102
300.775
300.035
298.888
297.313
295.274
292.723
289.607
285.869
281.49
276.571
271.285
265.778
260.193
254.695
249.461
244.672
240.506
237.131
234.701
233.338
233.174
234.211
236.377
238.637
212.232
202.753
191.893
180.284
168.822
156.741
144.518
132.501
120.549
108.846
97.4414
86.2773
75.4049
64.8242
54.5507
44.6439
35.1812
26.2684
18.0472
10.6758
4.34167
-0.787178
-4.48122
-6.61933
-7.14464
-5.9638
-2.92153
2.11765
9.25135
18.5363
29.9826
43.5649
59.2201
76.8539
96.3159
117.429
139.715
162.638
183.652
221.076
229.503
238.661
248.176
257.113
265.647
273.449
279.988
285.157
289.134
292.037
294.018
295.277
295.957
296.162
295.959
295.382
294.438
293.112
291.369
289.166
286.446
283.151
279.251
274.829
270.034
264.997
259.844
254.724
249.801
245.248
241.237
237.933
235.489
234.024
233.658
234.388
236.101
237.868
210.74
201.711
191.373
180.337
169.462
158.012
146.45
135.102
123.838
112.829
102.12
91.6549
81.4793
71.5865
61.9885
52.7345
43.8897
35.5467
27.8315
20.8853
14.8792
9.96569
6.35367
4.16514
3.44988
4.29184
6.84578
11.2568
17.641
26.074
36.5889
49.1808
63.8034
80.375
98.7485
118.731
139.857
161.536
181.471
219.173
227.213
235.96
245.06
253.615
261.795
269.287
275.577
280.561
284.41
287.237
289.186
290.452
291.173
291.451
291.353
290.916
290.149
289.04
287.559
285.664
283.302
280.41
276.952
272.994
268.665
264.08
259.349
254.606
250
245.695
241.854
238.637
236.195
234.644
234.089
234.527
235.817
237.13
209.343
200.74
190.895
180.4
170.076
159.222
148.278
137.56
126.939
116.578
106.521
96.7071
87.1806
77.9318
68.9658
60.3243
52.0636
44.2643
37.0375
30.5107
24.8374
20.1583
16.6611
14.4643
13.6139
14.1824
16.3181
20.1743
25.8773
33.5197
43.1537
54.793
68.4093
83.9305
101.219
120.073
140.043
160.501
179.384
217.388
225.06
233.418
242.123
250.316
258.159
265.355
271.407
276.212
279.937
282.687
284.601
285.868
286.622
286.96
286.953
286.636
286.023
285.104
283.854
282.233
280.19
277.663
274.611
271.084
267.194
263.041
258.719
254.347
250.061
246.011
242.353
239.239
236.813
235.191
234.465
234.628
235.526
236.423
208.038
199.837
190.46
180.475
170.673
160.379
150.018
139.89
129.872
120.118
110.669
101.465
92.5446
83.8967
75.5223
67.4565
59.7466
52.464
45.7061
39.5877
34.2472
29.8152
26.4568
24.2882
23.3485
23.6989
25.4805
28.8484
33.9366
40.8493
49.6543
60.3824
73.0214
87.5119
103.725
121.456
140.277
159.547
177.403
215.714
223.038
231.027
239.357
247.204
254.726
261.64
267.463
272.096
275.7
278.376
280.253
281.516
282.295
282.684
282.754
282.541
282.061
281.308
280.26
278.881
277.123
274.925
272.243
269.115
265.636
261.892
257.963
253.954
249.986
246.197
242.731
239.733
237.34
235.661
234.781
234.69
235.228
235.747
206.82
199.001
190.066
180.566
171.255
161.49
151.678
142.105
132.653
123.468
114.587
105.953
97.5996
89.514
81.6933
74.1673
66.9762
60.1829
53.8739
48.1513
43.1401
38.9616
35.7599
33.6471
32.6561
32.8371
34.3209
37.2615
41.7969
48.0392
56.0684
65.9295
77.6249
91.1077
106.261
122.883
140.568
158.68
175.537
214.147
221.141
228.778
236.752
244.271
251.486
258.129
263.734
268.203
271.689
274.29
276.13
277.385
278.182
278.614
278.749
278.626
278.261
277.653
276.782
275.617
274.112
272.21
269.864
267.102
264.005
260.646
257.092
253.434
249.78
246.253
242.987
240.116
237.769
236.051
235.035
234.712
234.924
235.101
205.687
198.23
189.715
180.673
171.827
162.561
153.267
144.216
135.295
126.644
118.296
110.195
102.372
94.8121
87.5095
80.4896
73.7869
67.4561
61.5743
56.2327
51.5445
47.6209
44.5889
42.5537
41.5422
41.5943
42.8301
45.3989
49.4396
55.0686
62.3748
71.4147
82.2044
94.7084
108.823
124.353
140.921
157.91
173.795
212.682
219.362
226.665
234.3
241.505
248.429
254.813
260.208
264.518
267.891
270.419
272.221
273.465
274.276
274.743
274.934
274.888
274.623
274.14
273.424
272.447
271.167
269.53
267.488
265.06
262.316
259.315
256.116
252.796
249.447
246.182
243.12
240.385
238.098
236.356
235.223
234.693
234.611
234.485
204.634
197.521
189.405
180.798
172.392
163.598
154.792
146.234
137.812
129.663
121.814
114.212
106.885
99.8158
92.9985
86.453
80.2093
74.3148
68.8385
63.8623
59.4877
55.8176
52.9625
51.0206
50.0135
49.971
51.0018
53.2489
56.8482
61.9186
68.5541
76.8207
86.7447
98.3034
111.406
125.869
141.343
157.243
172.187
211.313
217.696
224.681
231.992
238.898
245.543
251.68
256.874
261.031
264.296
266.752
268.514
269.746
270.566
271.062
271.3
271.32
271.142
270.768
270.188
269.376
268.295
266.893
265.125
263.001
260.581
257.914
255.048
252.048
248.995
245.987
243.131
240.54
238.324
236.574
235.345
234.631
234.289
233.896
203.657
196.872
189.134
180.94
172.951
164.604
156.26
148.165
140.215
132.536
125.155
118.021
111.158
104.549
98.1849
92.0838
86.2707
80.7869
75.6949
71.0671
66.9954
63.5744
60.8999
59.063
58.0792
57.9696
58.8326
60.802
64.0095
68.5725
74.5888
82.1298
91.2316
101.882
114.004
127.429
141.839
156.685
170.717
210.037
216.136
222.818
229.82
236.441
242.82
248.719
253.722
257.733
260.891
263.278
265.001
266.217
267.043
267.563
267.841
267.918
267.814
267.536
267.073
266.406
265.5
264.308
262.785
260.937
258.812
256.453
253.897
251.2
248.431
245.673
243.023
240.581
238.447
236.702
235.397
234.526
233.957
233.331
202.754
196.28
188.902
181.1
173.506
165.582
157.673
150.017
142.51
135.274
128.333
121.637
115.209
109.03
103.091
97.4056
91.9963
86.8991
82.1694
77.8727
74.0917
70.9129
68.419
66.6943
65.749
65.5956
66.3216
68.0519
70.9123
75.0168
80.4629
87.3266
95.6511
105.434
116.611
129.033
142.41
156.242
169.393
208.847
214.676
221.071
227.778
234.126
240.25
245.923
250.741
254.611
257.668
259.987
261.67
262.871
263.7
264.238
264.55
264.676
264.636
264.44
264.08
263.539
262.787
261.78
260.477
258.877
257.021
254.944
252.676
250.263
247.762
245.247
242.8
240.51
238.466
236.741
235.379
234.375
233.612
232.788
201.92
195.741
188.706
181.276
174.057
166.534
159.038
151.795
144.706
137.887
131.359
125.075
119.053
113.277
107.735
102.439
97.4085
92.6743
88.2861
84.3029
80.799
77.854
75.5385
73.9304
73.034
72.8549
73.4701
74.9955
77.5488
81.2396
86.1629
92.3969
99.9901
108.948
119.222
130.677
143.059
155.915
168.216
207.74
213.312
219.432
225.858
231.946
237.826
243.282
247.923
251.658
254.616
256.87
258.514
259.697
260.526
261.079
261.42
261.587
261.603
261.478
261.207
260.776
260.159
259.316
258.208
256.831
255.218
253.398
251.395
249.245
246.998
244.715
242.466
240.33
238.383
236.691
235.291
234.179
233.253
232.262
201.15
195.253
188.545
181.469
174.605
167.462
160.357
153.504
146.809
140.382
134.244
128.345
122.705
117.305
112.135
107.204
102.527
98.1335
94.0665
90.3789
87.1385
84.4177
82.2765
80.7858
79.9456
79.7552
80.2819
81.6315
83.9137
87.2316
91.6773
97.3285
104.237
112.416
121.829
132.36
143.787
155.707
167.189
206.712
212.038
217.895
224.053
229.892
235.539
240.787
245.258
248.864
251.727
253.916
255.522
256.687
257.515
258.079
258.443
258.645
258.709
258.645
258.451
258.116
257.617
256.919
255.983
254.805
253.412
251.824
250.064
248.158
246.148
244.085
242.028
240.044
238.199
236.552
235.132
233.937
232.877
231.75
200.442
194.814
188.416
181.677
175.151
168.367
161.632
155.149
148.826
142.769
136.995
131.458
126.176
121.129
116.307
111.716
107.371
103.296
99.5304
96.1216
93.1299
90.6223
88.6498
87.2758
86.4967
86.3056
86.7617
87.9607
90.0038
92.9865
96.9969
102.111
108.381
115.828
124.426
134.078
144.593
155.618
166.312
205.756
210.849
216.455
222.356
227.958
233.382
238.431
242.739
246.22
248.992
251.119
252.687
253.833
254.656
255.23
255.613
255.845
255.949
255.938
255.81
255.559
255.162
254.59
253.808
252.807
251.61
250.233
248.693
247.011
245.221
243.364
241.491
239.657
237.919
236.326
234.903
233.647
232.483
231.248
199.792
194.419
188.317
181.899
175.693
169.251
162.867
156.732
150.76
145.051
139.621
134.424
129.477
124.761
120.263
115.992
111.956
108.179
104.696
101.549
98.792
96.4861
94.6754
93.4155
92.6994
92.5159
92.9161
93.9859
95.8179
98.4999
102.115
106.734
112.413
119.176
127.006
135.826
145.474
155.646
165.585
204.87
209.741
215.107
220.763
226.137
231.348
236.206
240.358
243.719
246.402
248.469
250
251.126
251.944
252.523
252.922
253.179
253.318
253.352
253.282
253.101
252.795
252.333
251.686
250.842
249.819
248.632
247.29
245.813
244.226
242.563
240.864
239.177
237.547
236.016
234.606
233.311
232.068
230.751
199.196
194.067
188.246
182.133
176.232
170.115
164.062
158.257
152.617
147.236
142.128
137.251
132.618
128.211
124.018
120.044
116.298
112.8
109.58
106.678
104.142
102.026
100.369
99.2193
98.5668
98.3969
98.7528
99.7117
101.357
103.77
107.025
111.193
116.326
122.451
129.562
137.599
146.427
155.789
165.005
204.049
208.707
213.845
219.266
224.423
229.43
234.105
238.107
241.353
243.951
245.958
247.453
248.559
249.37
249.953
250.364
250.642
250.81
250.882
250.861
250.742
250.513
250.148
249.619
248.914
248.047
247.028
245.866
244.574
243.173
241.689
240.155
238.608
237.088
235.627
234.242
232.928
231.63
230.256
198.651
193.754
188.202
182.379
176.766
170.957
165.219
159.726
154.399
149.327
144.524
139.946
135.608
131.491
127.582
123.886
120.41
117.172
114.198
111.525
109.195
107.258
105.747
104.702
104.112
103.959
104.28
105.144
106.624
108.795
111.726
115.481
120.111
125.647
132.088
139.391
147.447
156.043
164.568
203.289
207.745
212.665
217.861
222.81
227.622
232.12
235.978
239.114
241.63
243.58
245.038
246.124
246.927
247.511
247.932
248.227
248.42
248.524
248.545
248.479
248.317
248.036
247.61
247.027
246.297
245.428
244.427
243.302
242.07
240.751
239.371
237.96
236.548
235.162
233.814
232.498
231.169
229.759
198.154
193.478
188.181
182.635
177.297
171.78
166.34
161.142
156.111
151.33
146.812
142.516
138.454
134.608
130.965
127.529
124.305
121.309
118.565
116.105
113.968
112.198
110.823
109.878
109.348
109.215
109.509
110.29
111.624
113.579
116.216
119.595
123.765
128.757
134.578
141.196
148.529
156.402
164.269
202.587
206.849
211.56
216.543
221.292
225.917
230.247
233.967
236.996
239.432
241.327
242.749
243.814
244.608
245.192
245.62
245.929
246.142
246.273
246.329
246.309
246.204
245.995
245.659
245.184
244.575
243.839
242.98
242.006
240.927
239.759
238.522
237.239
235.934
234.626
233.326
232.024
230.682
229.257
197.7
193.236
188.183
182.899
177.822
172.582
167.424
162.506
157.754
153.248
148.999
144.967
141.165
137.572
134.177
130.983
127.994
125.223
122.693
120.432
118.474
116.859
115.612
114.76
114.289
114.176
114.448
115.157
116.363
118.123
120.496
123.534
127.283
131.776
137.024
143.008
149.666
156.859
164.102
201.938
206.016
210.528
215.306
219.865
224.31
228.478
232.065
234.992
237.351
239.192
240.579
241.623
242.407
242.989
243.422
243.742
243.971
244.125
244.211
244.229
244.172
244.026
243.768
243.386
242.884
242.265
241.533
240.693
239.751
238.721
237.616
236.455
235.253
234.026
232.781
231.506
230.17
228.746
197.289
193.025
188.204
183.17
178.341
173.364
168.474
163.82
159.331
155.084
151.088
147.305
143.745
140.389
137.227
134.258
131.488
128.927
126.595
124.519
122.728
121.256
120.128
119.363
118.946
118.854
119.108
119.754
120.846
122.433
124.567
127.296
130.663
134.699
139.421
144.82
150.851
157.409
164.06
201.34
205.241
209.563
214.145
218.522
222.795
226.809
230.268
233.096
235.381
237.17
238.522
239.544
240.317
240.896
241.331
241.659
241.902
242.074
242.185
242.236
242.221
242.128
241.938
241.637
241.227
240.711
240.091
239.369
238.552
237.646
236.662
235.614
234.512
233.368
232.183
230.947
229.631
228.224
196.915
192.843
188.243
183.447
178.853
174.126
169.489
165.085
160.845
156.842
153.084
149.534
146.201
143.067
140.121
137.363
134.796
132.43
130.283
128.377
126.74
125.403
124.383
123.699
123.333
123.262
123.501
124.092
125.081
126.513
128.433
130.882
133.903
137.524
141.765
146.625
152.077
158.041
164.135
200.788
204.522
208.662
213.056
217.259
221.368
225.233
228.57
231.302
233.515
235.253
236.571
237.572
238.332
238.906
239.343
239.677
239.93
240.118
240.249
240.327
240.347
240.299
240.167
239.936
239.607
239.181
238.659
238.043
237.335
236.541
235.669
234.726
233.72
232.657
231.538
230.35
229.067
227.689
196.577
192.687
188.298
183.728
179.358
174.867
170.471
166.302
162.298
158.525
154.99
151.659
148.538
145.612
142.868
140.306
137.927
135.743
133.766
132.019
130.524
129.31
128.392
127.782
127.463
127.411
127.638
128.18
129.078
130.371
132.097
134.296
137.002
140.246
144.049
148.416
153.335
158.748
164.318
200.281
203.854
207.821
212.036
216.072
220.023
223.745
226.964
229.605
231.749
233.436
234.721
235.7
236.448
237.016
237.453
237.79
238.051
238.251
238.399
238.498
238.548
238.539
238.456
238.286
238.026
237.679
237.243
236.719
236.109
235.416
234.644
233.798
232.883
231.901
230.85
229.717
228.477
227.14
196.272
192.556
188.366
184.012
179.854
175.588
171.419
167.473
163.69
160.134
156.809
153.683
150.762
148.03
145.474
143.094
140.891
138.874
137.056
135.454
134.092
132.99
132.165
131.623
131.347
131.313
131.529
132.029
132.845
134.013
135.566
137.538
139.962