/*--------------------------------*- C++ -*----------------------------------*\
| =========                 |                                                 |
| \\      /  F ield         | OpenFOAM: The Open Source CFD Toolbox           |
|  \\    /   O peration     | Version:  2.3.1                                 |
|   \\  /    A nd           | Web:      www.OpenFOAM.org                      |
|    \\/     M anipulation  |                                                 |
\*---------------------------------------------------------------------------*/
FoamFile
{
    version     2.0;
    format      ascii;
    class       volVectorField;
    location    "350";
    object      U;
}
// * * * * * * * * * * * * * * * * * * * * * * * * * * * * * * * * * * * * * //

dimensions      [0 1 -1 0 0 0 0];

internalField   nonuniform List<vector> 
10720
(
(-0.197761 31.7387 4.74213e-18)
(1.8363 33.9866 -4.43531e-18)
(4.31796 36.121 0)
(7.11615 37.688 -3.09785e-16)
(10.16 38.8024 3.41177e-16)
(13.3756 39.431 2.47943e-16)
(16.5972 39.4709 3.79414e-16)
(19.7308 38.9743 0)
(22.6973 38.0159 0)
(25.4193 36.6348 0)
(27.8745 34.9431 1.25348e-16)
(30.0199 32.9628 0)
(31.8533 30.7447 2.01495e-15)
(33.3928 28.356 0)
(34.6336 25.8324 0)
(35.5916 23.2317 0)
(36.2568 20.5804 -3.29322e-15)
(36.6351 17.9332 -4.93694e-15)
(36.7076 15.3131 4.33993e-15)
(36.4852 12.7766 0)
(35.9478 10.3547 3.40938e-15)
(35.1315 8.11383 -6.538e-15)
(34.0828 6.09948 3.16297e-15)
(32.9118 4.36776 -9.32662e-17)
(31.8206 2.96019 0)
(30.8938 1.82036 1.08746e-15)
(30.0312 0.857995 1.63675e-17)
(29.131 0.0306164 -4.14009e-16)
(28.1561 -0.684151 -1.35776e-15)
(27.1029 -1.30011 -4.30701e-15)
(25.9746 -1.82292 1.55403e-15)
(24.7741 -2.25504 2.00568e-15)
(23.4977 -2.59671 7.90728e-16)
(22.1349 -2.84782 -1.983e-15)
(20.6338 -3.00278 3.68587e-15)
(18.9558 -3.05916 4.11814e-17)
(16.7769 -2.95851 -9.55242e-17)
(14.2572 -2.70181 -6.17813e-14)
(8.61748 -2.10117 9.29803e-14)
(-1.85812 29.2964 -5.48755e-18)
(-3.26679 26.5013 -2.29724e-17)
(-4.3533 23.3183 7.78887e-17)
(-4.97026 19.5553 -2.17894e-16)
(-4.95322 15.6324 -6.34838e-16)
(-4.23998 11.6638 1.02186e-15)
(-2.84617 7.90005 4.66184e-15)
(-0.928357 4.64162 2.62838e-15)
(1.20358 2.06726 0)
(3.35348 -0.0807101 0)
(5.6266 -1.84438 4.51056e-15)
(7.84096 -3.10113 1.63573e-15)
(9.84047 -3.89475 -2.67282e-15)
(11.598 -4.35021 2.24225e-15)
(13.1428 -4.5817 3.83473e-15)
(14.5094 -4.66141 2.54646e-15)
(15.7255 -4.6416 3.40818e-15)
(16.8212 -4.55567 2.38341e-15)
(17.8277 -4.42721 0)
(18.768 -4.26254 0)
(19.6609 -4.06536 -4.07471e-15)
(20.5187 -3.82738 -2.24479e-16)
(21.3445 -3.53482 3.56104e-15)
(22.1102 -3.15858 -3.03427e-15)
(22.7524 -2.69364 2.2571e-17)
(23.2527 -2.17617 0)
(23.6353 -1.63205 1.20337e-15)
(23.9158 -1.07733 0)
(24.0996 -0.523267 0)
(24.1911 0.0190066 1.04483e-15)
(24.182 0.539635 0)
(24.0628 1.0317 -3.98902e-15)
(23.8483 1.48986 -7.69666e-15)
(23.5559 1.9092 -3.83276e-14)
(23.1852 2.28589 1.53816e-14)
(22.7308 2.62052 -5.98923e-17)
(22.0744 2.90573 0)
(21.1612 3.10587 3.33839e-14)
(18.4851 3.27419 3.83895e-14)
(7.30131 27.6554 -1.67778e-17)
(9.44136 29.3729 1.14365e-17)
(12.0127 30.8882 0)
(14.936 32.0959 0)
(18.0406 32.944 -9.36312e-17)
(21.332 33.3723 -2.37828e-16)
(24.684 33.3412 0)
(27.9534 32.8832 0)
(31.0835 32.0148 5.01141e-16)
(33.9866 30.7983 0)
(36.6004 29.2912 1.96385e-15)
(38.9314 27.6168 0)
(40.9679 25.8085 7.02637e-16)
(42.7046 23.8827 -6.93144e-16)
(44.1136 21.8695 1.37461e-15)
(45.1836 19.7918 -2.74444e-15)
(45.9198 17.6626 2.99167e-15)
(46.3161 15.51 2.66261e-15)
(46.3773 13.3463 2.58543e-15)
(46.0926 11.2075 1.54833e-16)
(45.468 9.12326 -2.66558e-15)
(44.5024 7.15286 2.47068e-15)
(43.2277 5.34036 -1.36899e-16)
(41.6869 3.74612 0)
(39.9976 2.42119 0)
(38.3108 1.30915 0)
(36.6814 0.329562 8.26182e-17)
(35.096 -0.529943 -1.63972e-17)
(33.5508 -1.27408 9.81484e-16)
(32.0368 -1.91116 3.67516e-17)
(30.535 -2.44515 -2.90025e-17)
(29.0252 -2.87934 -5.27021e-17)
(27.4867 -3.21639 5.00977e-16)
(25.9023 -3.45865 6.80029e-16)
(24.2268 -3.6052 2.62543e-17)
(22.4389 -3.65602 8.71782e-15)
(20.2555 -3.56553 0)
(17.9177 -3.33894 1.73502e-14)
(12.3124 -2.52702 4.87248e-14)
(5.45385 25.802 2.29658e-17)
(3.81403 23.7167 -7.47932e-17)
(2.30545 21.2517 -7.98182e-16)
(1.08295 18.4162 9.25651e-16)
(0.327988 15.2999 0)
(0.136177 12.029 -1.74338e-15)
(0.558913 8.78602 -1.19235e-15)
(1.55934 5.82658 -9.64251e-15)
(2.98434 3.3048 4.049e-15)
(4.66573 1.16132 -3.61999e-15)
(6.51068 -0.538427 4.3992e-15)
(8.39034 -1.73887 -1.24446e-15)
(10.1846 -2.52741 0)
(11.8398 -3.02016 -9.03857e-16)
(13.3457 -3.31053 4.64372e-17)
(14.7119 -3.45557 -2.16974e-15)
(15.9497 -3.50305 0)
(17.0787 -3.48293 0)
(18.1213 -3.41719 -2.65868e-16)
(19.0996 -3.3072 2.54159e-16)
(20.029 -3.15371 -3.38706e-15)
(20.9218 -2.9426 -4.09059e-16)
(21.7806 -2.6559 1.91142e-16)
(22.5834 -2.25876 2.70828e-15)
(23.2784 -1.76357 -2.52966e-15)
(23.8417 -1.23505 -2.22692e-15)
(24.2879 -0.701414 0)
(24.6292 -0.17399 0)
(24.8698 0.340638 0)
(25.0099 0.834026 8.32994e-18)
(25.0674 1.29835 0)
(25.06 1.72815 0)
(24.981 2.12258 1.31505e-14)
(24.8217 2.48091 1.27995e-14)
(24.5709 2.805 -1.25844e-14)
(24.2364 3.10047 1.25172e-14)
(23.7183 3.36619 -2.49247e-14)
(23.2119 3.59944 -2.52808e-14)
(21.2358 3.66031 -2.66399e-14)
(8.19654 25.4302 -4.62585e-18)
(9.75507 26.9421 -4.85801e-17)
(11.622 28.3882 3.56856e-17)
(13.7411 29.6944 7.27169e-18)
(16.0471 30.7384 -8.54975e-17)
(18.5399 31.4949 3.47982e-16)
(21.1387 31.9279 -2.58145e-16)
(23.7626 32.0034 -3.26621e-16)
(26.3548 31.7237 1.2304e-19)
(28.8571 31.1061 -4.87255e-16)
(31.2183 30.1722 4.20407e-16)
(33.4092 28.9499 -1.23024e-15)
(35.4074 27.4774 -5.66346e-16)
(37.1975 25.7932 0)
(38.7914 23.9243 -1.42505e-15)
(40.1939 21.9016 2.83826e-15)
(41.3953 19.7546 0)
(42.3712 17.5284 -5.25096e-15)
(43.1096 15.2526 -2.62019e-15)
(43.5801 12.9786 2.96161e-16)
(43.7687 10.7429 -2.93866e-16)
(43.6524 8.61225 -1.26943e-16)
(43.2325 6.63513 -1.76037e-15)
(42.5184 4.87256 8.5289e-16)
(41.5671 3.36993 0)
(40.4632 2.07138 6.74625e-16)
(39.2334 0.907673 -7.57956e-17)
(37.8777 -0.122029 0)
(36.4182 -1.01556 8.29612e-16)
(34.885 -1.77846 1.3541e-15)
(33.2992 -2.41486 -1.92359e-15)
(31.6729 -2.92982 -1.17499e-15)
(30.0057 -3.32911 -4.50569e-17)
(28.2902 -3.61761 6.77832e-16)
(26.4859 -3.79689 2.21233e-15)
(24.5714 -3.86531 -7.4551e-15)
(22.2846 -3.78556 0)
(19.8673 -3.51854 1.39691e-14)
(14.6881 -2.79916 -7.24608e-14)
(6.89564 23.8169 -2.89333e-17)
(5.73008 22.0297 -8.59499e-17)
(4.70917 19.9013 3.3423e-16)
(3.8385 17.4925 0)
(3.27797 14.882 5.64992e-16)
(3.08193 12.1288 0)
(3.29518 9.34993 3.63896e-15)
(3.91481 6.73111 2.41263e-15)
(4.88662 4.39985 2.75753e-15)
(6.14241 2.3724 0)
(7.59707 0.705088 -4.30441e-15)
(9.13312 -0.580829 -9.48999e-16)
(10.6572 -1.53407 4.31464e-15)
(12.1135 -2.22007 0)
(13.4781 -2.69502 -2.13868e-15)
(14.746 -3.00468 -6.59508e-16)
(15.9195 -3.18949 2.93151e-15)
(17.0082 -3.27934 1.60538e-15)
(18.027 -3.29606 4.81975e-16)
(18.9918 -3.24812 -2.43346e-16)
(19.9149 -3.14031 3.08877e-15)
(20.8051 -2.9663 0)
(21.6631 -2.71435 0)
(22.4707 -2.36409 2.16734e-17)
(23.1858 -1.92838 0)
(23.7854 -1.45381 4.4451e-15)
(24.2792 -0.959645 -6.58926e-17)
(24.6779 -0.454098 -4.89724e-16)
(24.9852 0.0547234 0)
(25.2029 0.556552 -8.9489e-16)
(25.3347 1.0424 1.75283e-15)
(25.3867 1.50655 0)
(25.3619 1.94397 -6.60106e-15)
(25.2619 2.34938 0)
(25.0762 2.72073 0)
(24.8055 3.05867 3.8972e-17)
(24.3412 3.36323 3.56595e-17)
(23.809 3.59522 2.53052e-14)
(22.0448 3.66527 5.16602e-14)
(10.8937 23.2825 -2.55698e-17)
(12.3401 24.573 -3.55308e-17)
(14.0485 25.8077 4.73291e-17)
(15.9893 26.9118 4.32885e-17)
(18.1042 27.7943 0)
(20.3988 28.4349 0)
(22.8102 28.7929 -3.57748e-16)
(25.2714 28.8374 5.19269e-16)
(27.7328 28.5641 0)
(30.1366 27.9809 -6.91966e-16)
(32.4301 27.106 -9.83771e-16)
(34.574 25.9684 -8.95147e-16)
(36.5342 24.606 1.13993e-15)
(38.2888 23.0536 1.04139e-15)
(39.8194 21.3455 0)
(41.0994 19.5231 1.64837e-15)
(42.1104 17.6228 5.77626e-16)
(42.8536 15.6715 4.64245e-15)
(43.3317 13.6951 2.7677e-16)
(43.5526 11.7233 -2.74945e-16)
(43.5259 9.78835 2.24973e-15)
(43.2669 7.93551 -3.64798e-16)
(42.8019 6.20554 1.93808e-15)
(42.1641 4.64296 7.54004e-16)
(41.4046 3.27944 -4.25338e-17)
(40.5773 2.07674 -6.08457e-16)
(39.6824 0.979264 4.04256e-18)
(38.6851 -0.0172437 -4.05523e-18)
(37.5667 -0.908627 -7.90207e-16)
(36.3234 -1.69474 -1.63981e-17)
(34.9569 -2.37141 9.21196e-16)
(33.4747 -2.93447 -1.0553e-15)
(31.8849 -3.3818 -3.62844e-16)
(30.1937 -3.71254 5.15825e-17)
(28.3765 -3.92498 -1.99939e-15)
(26.4212 -4.01269 0)
(24.0905 -3.94318 -9.42231e-15)
(21.587 -3.63069 -1.21258e-14)
(16.6723 -2.9579 2.9966e-14)
(9.65332 21.9176 -4.24665e-17)
(8.51749 20.4192 1.34829e-16)
(7.4829 18.636 5.1296e-16)
(6.57485 16.5996 0)
(5.93097 14.38 -5.1184e-16)
(5.59346 12.0165 0)
(5.60021 9.60026 -3.0747e-15)
(5.95524 7.28782 -1.03405e-16)
(6.61767 5.17262 2.07057e-15)
(7.54473 3.27913 1.86983e-15)
(8.67319 1.66702 4.44947e-17)
(9.91593 0.364455 3.18579e-15)
(11.2025 -0.649262 -2.17525e-15)
(12.4796 -1.41354 6.86964e-16)
(13.7145 -1.96906 2.47967e-15)
(14.8916 -2.35582 2.85156e-15)
(16.004 -2.60894 -2.65353e-15)
(17.052 -2.75745 2.34847e-18)
(18.0428 -2.82337 0)
(18.9868 -2.8184 3.2982e-15)
(19.8925 -2.74788 1.84224e-16)
(20.7657 -2.60831 -2.9549e-15)
(21.6062 -2.39052 0)
(22.3982 -2.0792 2.02022e-17)
(23.1065 -1.68164 0)
(23.7084 -1.23526 -2.02006e-15)
(24.2092 -0.762668 0)
(24.6183 -0.275943 4.58861e-16)
(24.9397 0.214593 -2.03212e-17)
(25.1756 0.698227 1.33105e-17)
(25.3304 1.16607 -1.57922e-15)
(25.4093 1.61065 -5.0448e-17)
(25.4161 2.02684 0)
(25.3533 2.41174 6.08865e-15)
(25.2124 2.76553 9.52233e-17)
(24.9941 3.08857 -1.21156e-14)
(24.5964 3.38281 4.8922e-14)
(24.1137 3.58298 9.27595e-17)
(22.529 3.64132 0)
(12.3966 21.6471 -3.75893e-17)
(13.6212 22.7933 -2.90996e-17)
(15.0773 23.9145 9.41144e-17)
(16.7239 24.9478 -2.33751e-16)
(18.5114 25.8086 3.88691e-17)
(20.4621 26.4894 -1.08197e-17)
(22.5239 26.9519 1.37885e-16)
(24.6447 27.1619 0)
(26.7923 27.1102 6.89216e-16)
(28.9182 26.7926 3.97268e-16)
(30.9802 26.2126 0)
(32.9439 25.383 8.63559e-16)
(34.7768 24.3236 -4.58776e-16)
(36.4531 23.055 1.2275e-15)
(37.9516 21.5989 0)
(39.254 19.9776 -2.19417e-15)
(40.3549 18.2052 2.00108e-15)
(41.2374 16.3154 -1.7472e-16)
(41.8861 14.3447 0)
(42.2866 12.3393 2.134e-15)
(42.432 10.3454 -2.16317e-15)
(42.3245 8.42084 -1.05598e-16)
(41.985 6.6177 -1.56767e-15)
(41.4519 4.98631 -1.4128e-15)
(40.7858 3.56081 0)
(40.0532 2.31191 0)
(39.2775 1.18596 -1.27473e-16)
(38.4443 0.168757 -1.26463e-17)
(37.5402 -0.741747 7.28157e-16)
(36.5546 -1.5501 -1.53061e-17)
(35.4704 -2.25615 1.52632e-17)
(34.2688 -2.8566 9.85199e-16)
(32.9314 -3.34721 0)
(31.4458 -3.72289 -1.37185e-15)
(29.7808 -3.97712 9.98508e-18)
(27.9257 -4.09649 0)
(25.6663 -4.04967 -2.76806e-17)
(23.1756 -3.712 0)
(18.4731 -3.05794 -2.59919e-14)
(11.3425 20.4417 5.73369e-17)
(10.3766 19.132 -2.95642e-16)
(9.47615 17.5735 3.17779e-16)
(8.65608 15.7982 4.3659e-16)
(8.03928 13.8711 -1.77243e-15)
(7.65729 11.8101 -2.17667e-15)
(7.54767 9.68566 2.63397e-15)
(7.72559 7.62823 -3.20249e-15)
(8.16894 5.71191 -1.60616e-15)
(8.85229 3.96482 -1.46083e-15)
(9.72682 2.44064 2.80122e-15)
(10.7289 1.16623 -2.7075e-15)
(11.8051 0.132154 -1.24351e-15)
(12.9094 -0.685317 1.20446e-15)
(14.0083 -1.31162 -2.76888e-15)
(15.0816 -1.7768 5.16284e-16)
(16.1173 -2.10764 0)
(17.1099 -2.3278 -2.21576e-15)
(18.0606 -2.45613 8.23585e-16)
(18.9743 -2.50474 -3.42181e-15)
(19.856 -2.47936 0)
(20.7088 -2.37886 2.56127e-15)
(21.5305 -2.19703 2.22243e-15)
(22.307 -1.92412 -2.03112e-15)
(23.0081 -1.56618 0)
(23.6114 -1.15429 -1.90835e-15)
(24.1181 -0.711787 0)
(24.5353 -0.250826 0)
(24.8664 0.218671 0)
(25.1134 0.686235 7.88188e-16)
(25.2802 1.14253 0)
(25.3718 1.58012 0)
(25.3919 1.99413 -5.88512e-15)
(25.3437 2.38017 -5.76215e-15)
(25.2198 2.7366 0)
(25.0225 3.06125 -1.14891e-14)
(24.6577 3.35528 6.32372e-17)
(24.2164 3.53965 0)
(22.8152 3.58684 -2.29971e-14)
(13.9045 20.2091 5.4623e-17)
(15.0161 21.225 -4.03336e-17)
(16.333 22.2252 0)
(17.817 23.1507 6.21258e-18)
(19.4207 23.9276 1.49282e-16)
(21.1759 24.5535 1.02413e-17)
(23.0373 24.9917 4.8775e-17)
(24.9622 25.2115 -2.57147e-16)
(26.928 25.2005 -1.06749e-16)
(28.8941 24.9504 6.46862e-16)
(30.8234 24.4592 -2.45743e-16)
(32.6851 23.7326 5.8892e-16)
(34.4457 22.7836 2.93612e-16)
(36.0767 21.6284 1.52882e-16)
(37.553 20.2869 0)
(38.8522 18.783 -4.56339e-16)
(39.9477 17.152 -1.02769e-15)
(40.819 15.4286 -3.6726e-15)
(41.4529 13.6432 1.05658e-15)
(41.8429 11.8268 -1.37963e-15)
(41.9866 10.0146 -2.11477e-16)
(41.8899 8.24874 0)
(41.5707 6.5732 1.40928e-15)
(41.0627 5.03112 8.74118e-17)
(40.4183 3.65516 -3.57336e-17)
(39.6965 2.43142 -4.78586e-16)
(38.9266 1.32082 1.05015e-16)
(38.1079 0.311902 1.99651e-16)
(37.24 -0.594978 -6.82888e-16)
(36.3256 -1.40339 -2.82154e-17)
(35.3599 -2.11519 7.77003e-16)
(34.3294 -2.72934 8.34996e-16)
(33.2101 -3.2432 0)
(31.9721 -3.65131 -6.88247e-17)
(30.5601 -3.94434 1.96223e-15)
(28.94 -4.10192 0)
(26.8917 -4.08984 1.67399e-14)
(24.5628 -3.74982 0)
(20.1273 -3.12248 2.34814e-14)
(12.9385 19.1454 -5.56239e-17)
(12.0499 17.9974 1.32656e-16)
(11.2076 16.6289 0)
(10.4275 15.0663 0)
(9.81857 13.3713 7.89739e-16)
(9.40253 11.5516 3.77165e-15)
(9.21389 9.66501 0)
(9.2681 7.82123 -2.57254e-15)
(9.55419 6.0831 -2.5281e-15)
(10.0554 4.47881 2.49588e-15)
(10.732 3.05177 -6.09615e-17)
(11.5373 1.82754 1.1366e-15)
(12.4321 0.802882 2.57734e-17)
(13.3789 -0.035633 3.15023e-15)
(14.3471 -0.702451 2.95538e-15)
(15.3161 -1.21858 -2.83309e-15)
(16.2713 -1.60385 4.30324e-16)
(17.2033 -1.87708 -8.19481e-16)
(18.1084 -2.05415 3.8925e-16)
(18.9871 -2.14637 2.4762e-15)
(19.8408 -2.15983 3.3398e-16)
(20.6698 -2.09512 -2.92695e-16)
(21.4704 -1.94805 -1.92105e-15)
(22.2293 -1.71237 0)
(22.9203 -1.3932 1.16803e-16)
(23.5217 -1.01582 3.47376e-15)
(24.0312 -0.602601 -2.59542e-17)
(24.4537 -0.166192 2.56966e-17)
(24.7917 0.282961 0)
(25.0468 0.733747 -7.39221e-16)
(25.2223 1.1762 0)
(25.3229 1.60232 0)
(25.3519 2.00614 5.44014e-15)
(25.3124 2.3828 5.53053e-15)
(25.1973 2.73044 0)
(25.0089 3.0454 1.06975e-14)
(24.6594 3.32856 -4.32548e-14)
(24.2348 3.48938 1.62045e-16)
(22.9784 3.51312 2.10702e-14)
(15.1055 18.9903 6.74998e-18)
(16.1051 19.9031 -3.93349e-17)
(17.2896 20.81 9.59442e-17)
(18.6193 21.6561 -9.37711e-17)
(20.0478 22.375 -8.82215e-17)
(21.6132 22.9706 0)
(23.2742 23.4103 -1.14051e-18)
(24.9948 23.6657 1.95651e-17)
(26.7615 23.7254 -1.88267e-16)
(28.5393 23.5791 -3.80381e-16)
(30.2986 23.2208 0)
(32.0143 22.6508 -1.03545e-15)
(33.6554 21.8749 -9.56653e-16)
(35.1949 20.9026 -2.35178e-15)
(36.6081 19.7475 0)
(37.8696 18.4278 -1.46968e-15)
(38.9581 16.9629 -1.54644e-15)
(39.8572 15.3717 1.70613e-15)
(40.549 13.6838 -1.67408e-15)
(41.019 11.9359 1.50006e-15)
(41.2577 10.1693 1.8259e-16)
(41.2631 8.43268 -1.54483e-15)
(41.0463 6.77418 0)
(40.6335 5.23819 -1.2459e-15)
(40.0682 3.85643 7.24626e-17)
(39.4021 2.62125 5.02496e-16)
(38.666 1.50086 0)
(37.8662 0.483345 -1.79236e-17)
(37.0076 -0.431206 2.77102e-17)
(36.0999 -1.24598 9.17184e-16)
(35.1494 -1.96335 -6.93915e-16)
(34.157 -2.58368 -8.06701e-16)
(33.1155 -3.10655 1.82835e-16)
(32.0091 -3.5294 -5.99417e-17)
(30.7892 -3.84515 -1.89576e-15)
(29.4165 -4.03259 -6.12944e-15)
(27.659 -4.05633 -8.21181e-15)
(25.6382 -3.7308 1.49726e-16)
(21.5957 -3.14878 -7.67983e-17)
(14.2315 18.0371 2.5355e-17)
(13.4247 17.015 2.59838e-16)
(12.6474 15.7951 3.07126e-16)
(11.9143 14.4015 -6.05597e-16)
(11.3245 12.8928 -2.21608e-15)
(10.8934 11.2694 7.69844e-16)
(10.6539 9.57891 1.96858e-15)
(10.6226 7.91542 5.44016e-15)
(10.7945 6.33506 2.16281e-15)
(11.1579 4.86379 -2.05823e-15)
(11.6803 3.53606 -4.8486e-17)
(12.3268 2.37497 -1.01716e-15)
(13.068 1.37948 0)
(13.8747 0.542055 -3.06675e-17)
(14.7207 -0.144809 -1.80312e-15)
(15.5872 -0.695321 8.37334e-16)
(16.4592 -1.12327 -8.19327e-16)
(17.3252 -1.44219 0)
(18.1787 -1.66423 1.40982e-15)
(19.0167 -1.79891 -2.62806e-15)
(19.8375 -1.85151 0)
(20.6389 -1.8233 2.25729e-15)
(21.416 -1.71174 0)
(22.1556 -1.51312 -1.1814e-16)
(22.8346 -1.23212 1.16686e-16)
(23.4321 -0.889503 -1.646e-15)
(23.9429 -0.50619 -2.69282e-17)
(24.3697 -0.0953388 -2.44798e-17)
(24.7141 0.33219 1.13e-17)
(24.977 0.765061 -7.21407e-16)
(25.1611 1.19295 -1.38106e-15)
(25.2703 1.60741 2.62466e-15)
(25.3078 2.00217 8.2905e-17)
(25.2763 2.37172 2.54789e-17)
(25.1687 2.71329 0)
(24.987 3.02113 1.59818e-16)
(24.6486 3.29495 1.98339e-14)
(24.2338 3.43489 -9.37377e-18)
(23.087 3.4326 1.96246e-14)
(16.1668 17.9175 1.06897e-17)
(17.0831 18.7414 7.10655e-17)
(18.1677 19.5639 0)
(19.3811 20.3333 -2.84139e-17)
(20.6773 20.9901 -1.39327e-16)
(22.0978 21.5419 0)
(23.605 21.9585 4.47663e-17)
(25.1676 22.2147 2.01842e-16)
(26.7776 22.3 -4.23397e-16)
(28.4064 22.2032 1.21982e-16)
(30.029 21.9164 2.81767e-16)
(31.6251 21.4364 1.19476e-15)
(33.1675 20.7644 8.91125e-16)
(34.6309 19.905 1.18854e-15)
(35.9907 18.8672 3.16869e-16)
(37.2212 17.6644 1.09363e-15)
(38.2995 16.3144 1.49784e-15)
(39.2015 14.844 1.36831e-15)
(39.9068 13.2832 -1.00501e-15)
(40.4013 11.6627 -3.12639e-15)
(40.6763 10.0173 0)
(40.7307 8.38714 8.72692e-17)
(40.5741 6.81462 1.14262e-15)
(40.2289 5.33987 1.18377e-15)
(39.7309 3.9931 -6.53696e-17)
(39.1225 2.77443 -4.35834e-16)
(38.4323 1.66209 2.84815e-18)
(37.6683 0.64702 -1.93879e-16)
(36.8355 -0.269195 1.93246e-17)
(35.9429 -1.08762 -1.70465e-15)
(34.9986 -1.80953 -8.12443e-18)
(34.0082 -2.43458 -1.52136e-17)
(32.9735 -2.962 -1.81184e-16)
(31.8939 -3.3899 -5.99869e-17)
(30.7428 -3.71343 1.90354e-15)
(29.5082 -3.91361 1.19047e-14)
(27.9861 -3.9604 -7.95102e-15)
(26.3224 -3.65237 -9.25157e-15)
(22.8049 -3.12933 2.04609e-14)
(15.3606 17.0591 -1.06013e-16)
(14.615 16.1425 -3.62788e-16)
(13.8877 15.047 -2.53357e-16)
(13.1932 13.7936 -5.92608e-16)
(12.6219 12.4385 1.29908e-15)
(12.1845 10.9781 -4.31228e-17)
(11.9112 9.45149 -5.14304e-15)
(11.8196 7.94159 -1.87091e-15)
(11.908 6.5005 6.62689e-18)
(12.1664 5.15017 0)
(12.5684 3.91856 -1.78387e-15)
(13.0867 2.82603 1.72761e-15)
(13.6993 1.8718 -1.6993e-15)
(14.3835 1.05122 -8.62956e-16)
(15.118 0.36106 7.87321e-16)
(15.8869 -0.208122 7.7861e-16)
(16.6762 -0.664986 2.94662e-15)
(17.4741 -1.01848 -7.11217e-16)
(18.2724 -1.27723 -1.31364e-15)
(19.0657 -1.44858 0)
(19.8498 -1.53672 -2.28408e-15)
(20.6207 -1.54298 -1.85944e-15)
(21.3718 -1.46571 -1.252e-17)
(22.0905 -1.30299 -2.35971e-16)
(22.7555 -1.05916 -1.05345e-16)
(23.3467 -0.751057 1.73636e-15)
(23.8568 -0.397987 -4.7185e-17)
(24.2863 -0.0133379 4.14844e-16)
(24.6357 0.391778 9.89681e-17)
(24.9055 0.805913 6.64295e-16)
(25.0974 1.21841 -9.69172e-18)
(25.2149 1.62035 -5.2538e-15)
(25.2606 2.00486 -4.93092e-15)
(25.2369 2.36575 -4.92361e-15)
(25.1369 2.69946 -1.51736e-16)
(24.962 2.99848 7.41684e-17)
(24.6347 3.26119 -1.90796e-14)
(24.2308 3.38088 -1.85744e-14)
(23.1768 3.35302 -1.8032e-14)
(17.0818 16.9697 -3.8393e-17)
(17.926 17.7179 -3.08917e-17)
(18.9242 18.468 -1.90063e-16)
(20.037 19.1717 6.7281e-16)
(21.2194 19.7742 -2.72091e-16)
(22.5139 20.2867 1.72814e-16)
(23.886 20.6818 -1.4582e-16)
(25.3073 20.9367 0)
(26.7748 21.0432 1.17264e-16)
(28.2635 20.9901 6.91156e-18)
(29.753 20.7689 -2.06242e-16)
(31.228 20.3748 -1.06358e-15)
(32.6646 19.806 -4.98078e-16)
(34.04 19.0635 0)
(35.3315 18.1522 0)
(36.5145 17.0816 0)
(37.5649 15.8662 0)
(38.4609 14.5235 -1.33302e-15)
(39.1822 13.0763 1.31987e-15)
(39.7115 11.5535 1.28843e-15)
(40.0371 9.99009 -9.96735e-16)
(40.1539 8.42705 8.91073e-16)
(40.0674 6.90692 -8.94809e-16)
(39.7955 5.46965 -6.36209e-17)
(39.3681 4.14461 -2.66545e-17)
(38.8216 2.93583 4.41475e-16)
(38.1832 1.82812 8.68307e-17)
(37.4637 0.814197 0)
(36.6686 -0.103989 0)
(35.8063 -0.926195 3.86744e-17)
(34.8836 -1.65293 0)
(33.9058 -2.28309 5.86107e-16)
(32.8753 -2.81522 -9.08053e-17)
(31.7956 -3.24669 7.57994e-16)
(30.6504 -3.57266 -3.62126e-15)
(29.451 -3.77413 -5.74339e-15)
(28.0374 -3.82764 7.64799e-15)
(26.6397 -3.5249 1.80946e-14)
(23.6973 -3.05824 -1.97298e-14)
(16.3353 16.1911 0)
(15.6433 15.3629 1.08228e-16)
(14.961 14.3713 4.73729e-16)
(14.3022 13.2355 -2.06134e-15)
(13.7509 12.0091 1.73633e-15)
(13.3138 10.6862 -1.35968e-15)
(13.0188 9.29825 -1.19895e-18)
(12.8845 7.92035 1.48565e-15)
(12.9112 6.60223 1.53874e-15)
(13.089 5.36115 0)
(13.3966 4.22014 7.65929e-16)
(13.8118 3.19734 -2.33469e-15)
(14.3174 2.29122 3.81799e-15)
(14.8959 1.49829 7.32306e-16)
(15.5305 0.817251 -1.47935e-15)
(16.2084 0.242088 -1.42592e-15)
(16.9176 -0.232265 -1.36386e-15)
(17.6468 -0.611056 0)
(18.3875 -0.899655 0)
(19.133 -1.10291 0)
(19.8773 -1.22362 2.14296e-15)
(20.6146 -1.26265 0)
(21.3376 -1.21873 -1.63558e-15)
(22.0336 -1.091 -2.23608e-16)
(22.6826 -0.883295 -1.64686e-15)
(23.2654 -0.609425 -1.54596e-15)
(23.7729 -0.28684 0)
(24.2036 0.0710984 -3.49854e-16)
(24.5571 0.453168 -1.04701e-16)
(24.8328 0.847843 2.06866e-17)
(25.0321 1.24421 2.5361e-15)
(25.1576 1.63295 -1.66547e-17)
(25.2114 2.00668 4.80699e-15)
(25.1955 2.35861 -4.68737e-15)
(25.103 2.6843 0)
(24.9353 2.97448 -1.44812e-16)
(24.6197 3.22596 9.10232e-17)
(24.2285 3.32726 1.76601e-14)
(23.2605 3.27574 -1.26837e-16)
(17.8876 16.1208 3.99401e-17)
(18.6714 16.803 0)
(19.5972 17.4889 3.86556e-16)
(20.6259 18.133 -3.44972e-16)
(21.7134 18.6851 1.21107e-16)
(22.9026 19.1582 -1.62643e-16)
(24.161 19.5272 8.67947e-17)
(25.4628 19.7725 4.61634e-17)
(26.8081 19.8868 0)
(28.1751 19.8599 -1.45391e-16)
(29.5476 19.6834 -1.70825e-16)
(30.9135 19.3513 1.67748e-16)
(32.2524 18.8602 8.47795e-16)
(33.5449 18.208 3.961e-16)
(34.7701 17.3967 -1.1947e-15)
(35.9045 16.4321 -8.95405e-16)
(36.9249 15.325 7.17035e-16)
(37.809 14.0906 5.51133e-16)
(38.5347 12.7513 -2.72218e-16)
(39.0832 11.3337 2.72102e-16)
(39.4417 9.8691 7.07726e-16)
(39.604 8.39343 1.27703e-16)
(39.5729 6.94545 -1.14913e-16)
(39.3627 5.56247 -7.39454e-16)
(38.9979 4.27269 0)
(38.5086 3.08364 -3.55631e-16)
(37.9201 1.98696 -1.61083e-16)
(37.2447 0.97851 -1.34479e-16)
(36.4894 0.0613308 -4.423e-16)
(35.662 -0.762811 1.42239e-15)
(34.7694 -1.49333 4.41105e-16)
(33.8159 -2.12839 -3.77089e-17)
(32.8027 -2.66557 3.88108e-17)
(31.732 -3.10113 0)
(30.5885 -3.42941 1.7507e-15)
(29.3895 -3.62948 0)
(28 -3.68208 0)
(26.7165 -3.37077 -8.78342e-15)
(24.2791 -2.94094 1.31989e-16)
(17.1913 15.4113 -1.30029e-16)
(16.5449 14.6586 3.95098e-16)
(15.9015 13.7562 7.70942e-18)
(15.2748 12.7209 4.66714e-16)
(14.7432 11.6042 -1.61236e-15)
(14.3105 10.3986 1.22481e-15)
(14.0021 9.12944 4.86328e-17)
(13.8375 7.86644 -1.26948e-15)
(13.8182 6.65686 -1.26366e-15)
(13.934 5.51384 -1.31384e-15)
(14.1672 4.45703 -2.66644e-15)
(14.4991 3.50249 0)
(14.9161 2.64755 -1.38444e-15)
(15.4043 1.88886 -2.74849e-17)
(15.9506 1.22615 0)
(16.5452 0.655131 -1.2855e-15)
(17.1782 0.173343 -6.25542e-16)
(17.84 -0.221829 -6.06436e-16)
(18.5223 -0.533068 2.25881e-15)
(19.218 -0.762825 2.13496e-15)
(19.92 -0.912228 -2.46163e-16)
(20.6215 -0.981446 1.89162e-15)
(21.3142 -0.969198 4.36481e-16)
(21.9857 -0.874946 -2.1192e-16)
(22.617 -0.702096 1.46278e-15)
(23.1892 -0.46193 9.49866e-17)
(23.6922 -0.169888 0)
(24.1226 0.160977 0)
(24.4788 0.519403 -1.99595e-17)
(24.7598 0.893906 5.86498e-17)
(24.9657 1.2734 -2.48212e-15)
(25.0987 1.64819 -1.61623e-17)
(25.1604 2.0104 4.83023e-15)
(25.1523 2.35263 4.50203e-15)
(25.0677 2.66957 1.40818e-16)
(24.9075 2.95032 2.81152e-18)
(24.6042 3.19007 3.44631e-14)
(24.227 3.27429 -1.67822e-14)
(23.3414 3.20154 1.1916e-16)
(18.5992 15.3546 1.77481e-17)
(19.3304 15.9791 0)
(20.1933 16.6082 -1.8943e-16)
(21.1492 17.1991 0)
(22.1546 17.7057 2.22805e-16)
(23.2526 18.142 -2.16512e-16)
(24.412 18.4855 -1.32615e-16)
(25.6093 18.7186 -4.36381e-17)
(26.8464 18.8355 0)
(28.1042 18.8272 -3.19507e-18)
(29.3695 18.6857 2.04106e-16)
(30.6336 18.4049 -4.24208e-16)
(31.8789 17.9802 -2.72086e-16)
(33.0888 17.4082 -2.72555e-16)
(34.2449 16.6882 7.61228e-16)
(35.3257 15.8235 8.57602e-16)
(36.3089 14.8215 -9.44251e-16)
(37.1729 13.6944 -9.09073e-16)
(37.8961 12.4593 0)
(38.4591 11.1396 2.40952e-16)
(38.8471 9.76357 -4.65777e-16)
(39.052 8.36539 1.16339e-16)
(39.0736 6.98208 5.10889e-18)
(38.9222 5.64938 1.73126e-15)
(38.6174 4.39438 -9.09462e-17)
(38.1841 3.22661 6.32068e-17)
(37.6449 2.14282 1.45398e-16)
(37.0134 1.1417 1.42251e-16)
(36.2976 0.227227 3.83617e-16)
(35.5057 -0.597424 -6.42439e-16)
(34.6449 -1.33061 -4.10081e-16)
(33.7197 -1.96981 -9.29332e-16)
(32.7309 -2.5118 5.22906e-17)
(31.6797 -2.95176 5.64074e-18)
(30.5498 -3.28311 -1.77104e-15)
(29.3563 -3.48229 1.29688e-16)
(27.974 -3.53353 -9.29489e-17)
(26.699 -3.20897 1.41157e-16)
(24.6232 -2.78979 -1.79283e-14)
(17.9469 14.7054 7.5266e-17)
(17.3405 14.018 -1.93352e-16)
(16.732 13.1927 3.75007e-16)
(16.1348 12.2443 0)
(15.6225 11.2226 9.72199e-16)
(15.1967 10.118 0)
(14.8811 8.95212 0)
(14.6953 7.78998 0)
(14.6413 6.67648 2.31347e-15)
(14.7092 5.62145 -1.16452e-15)
(14.8835 4.64215 1.25608e-15)
(15.1483 3.75294 0)
(15.4918 2.94994 0)
(15.9032 2.22934 -1.24133e-15)
(16.3722 1.59122 0)
(16.8916 1.03219 1.195e-15)
(17.4537 0.551004 1.51229e-17)
(18.0505 0.147133 0)
(18.6748 -0.179957 -1.59745e-15)
(19.3196 -0.430806 -2.51289e-15)
(19.9776 -0.605027 -1.88196e-15)
(20.6412 -0.701743 -1.77217e-15)
(21.302 -0.719203 3.32393e-15)
(21.9473 -0.656848 0)
(22.559 -0.517498 1.39976e-15)
(23.1187 -0.310195 1.50951e-15)
(23.6152 -0.0485031 6.77332e-16)
(24.0438 0.255087 0)
(24.4016 0.589417 -7.81694e-17)
(24.6867 0.943112 -6.05958e-16)
(24.8987 1.30503 2.35592e-15)
(25.0388 1.66518 -1.56411e-17)
(25.1081 2.01519 -4.4325e-15)
(25.1078 2.34716 4.17097e-15)
(25.0312 2.65483 -1.28333e-18)
(24.8788 2.9258 1.31003e-16)
(24.5887 3.15351 -3.30213e-14)
(24.2266 3.22227 1.5743e-14)
(23.4198 3.13097 2.9605e-14)
(19.2325 14.6579 1.37252e-17)
(19.9176 15.2313 -5.93937e-17)
(20.7255 15.8096 0)
(21.618 16.3525 -3.13774e-16)
(22.5523 16.8174 0)
(23.571 17.219 0)
(24.6443 17.537 1.70195e-17)
(25.7503 17.7557 -7.17032e-17)
(26.8922 17.8704 -7.23659e-17)
(28.0531 17.8731 1.27898e-16)
(29.2222 17.757 1.38285e-16)
(30.3933 17.516 2.41672e-16)
(31.5514 17.1449 0)
(32.6829 16.6391 7.02044e-16)
(33.7715 15.9965 -2.64521e-16)
(34.7977 15.218 0)
(35.7411 14.3082 7.01736e-16)
(36.5806 13.2767 8.72554e-16)
(37.2954 12.1377 0)
(37.8653 10.9121 8.04814e-16)
(38.2745 9.62522 -7.88938e-16)
(38.5135 8.30775 0)
(38.5798 6.99356 -9.18369e-17)
(38.4807 5.71615 -4.5226e-18)
(38.2311 4.5013 4.24638e-17)
(37.851 3.35996 5.92418e-16)
(37.3602 2.29303 -4.06193e-18)
(36.7724 1.30226 -1.27809e-17)
(36.096 0.392911 -7.56243e-18)
(35.3397 -0.430507 2.03806e-17)
(34.5107 -1.16504 3.65671e-16)
(33.6142 -1.80735 7.60846e-16)
(32.6514 -2.35345 -3.20466e-17)
(31.6239 -2.79753 8.6208e-16)
(30.5154 -3.13224 1.57976e-15)
(29.3383 -3.33146 5.09097e-15)
(27.9765 -3.38232 6.7035e-15)
(26.6793 -3.04921 -2.3924e-16)
(24.8279 -2.62076 1.69292e-14)
(18.6189 14.0618 -1.52971e-16)
(18.0478 13.4317 -5.18186e-16)
(17.4707 12.6738 9.95799e-16)
(16.9007 11.8015 0)
(16.4073 10.8627 1.71529e-15)
(15.9899 9.84639 0)
(15.6716 8.77093 -9.62456e-16)
(15.4713 7.6981 3.85706e-15)
(15.3911 6.66988 -2.96567e-15)
(15.4217 5.69409 0)
(15.5493 4.78584 2.15875e-15)
(15.7595 3.95806 2.16329e-15)
(16.0424 3.20601 0)
(16.3888 2.52544 -2.20481e-15)
(16.7907 1.91608 5.48399e-16)
(17.2428 1.37465 -5.48314e-16)
(17.7396 0.900641 5.43206e-16)
(18.2749 0.494722 1.02226e-15)
(18.8427 0.157855 -1.48917e-17)
(19.4366 -0.108874 1.38556e-15)
(20.0495 -0.303673 4.41541e-16)
(20.6739 -0.42463 -4.25677e-16)
(21.3011 -0.469458 -1.57017e-15)
(21.9188 -0.437123 1.48715e-15)
(22.5093 -0.329638 -1.23848e-15)
(23.0545 -0.154221 -1.51882e-15)
(23.5427 0.077468 -6.43702e-16)
(23.9677 0.353698 -9.52987e-18)
(24.3258 0.66355 8.40938e-17)
(24.6141 0.995887 5.79016e-16)
(24.8315 1.33958 8.22086e-18)
(24.9782 1.6844 -1.50841e-17)
(25.0549 2.02154 4.44989e-15)
(25.0623 2.34259 -4.28648e-15)
(24.9938 2.6404 1.31248e-16)
(24.8497 2.90116 -8.28383e-15)
(24.5735 3.11663 1.58994e-14)
(24.2273 3.17138 0)
(23.496 3.06381 -2.83749e-14)
(19.7987 14.0206 3.09976e-17)
(20.4431 14.5484 0)
(21.2021 15.081 0)
(22.0385 15.5805 5.69769e-16)
(22.9102 16.0075 -1.91768e-17)
(23.859 16.3769 0)
(24.8564 16.6702 0)
(25.8816 16.8735 3.73924e-16)
(26.9389 16.9833 -4.29285e-17)
(28.0132 16.9927 -5.02539e-17)
(29.0953 16.8955 -2.78494e-16)
(30.1811 16.686 -1.56427e-16)
(31.258 16.3593 2.56155e-16)
(32.3145 15.91 -7.57101e-17)
(33.337 15.335 0)
(34.308 14.6335 0)
(35.209 13.8081 -1.84194e-15)
(36.0198 12.8656 -3.58385e-16)
(36.7207 11.8173 3.57539e-16)
(37.2919 10.6807 -7.80584e-16)
(37.7166 9.47834 1.4542e-15)
(37.984 8.23814 6.70316e-16)
(38.0897 6.99137 -6.40037e-16)
(38.0377 5.76947 -7.29613e-16)
(37.8393 4.59683 1.10408e-16)
(37.5101 3.48496 -5.64677e-16)
(37.0667 2.43782 -6.05358e-17)
(36.5223 1.45993 1.14325e-17)
(35.8858 0.557867 -1.14314e-17)
(35.1654 -0.262514 2.62019e-17)
(34.3686 -0.997009 -4.08503e-17)
(33.5011 -1.64136 -3.56897e-16)
(32.5648 -2.19072 -3.07349e-17)
(31.5615 -2.63837 4.97481e-17)
(30.4769 -2.97617 0)
(29.3216 -3.17602 -4.76253e-15)
(27.9929 -3.22655 -6.23524e-15)
(26.687 -2.89245 0)
(24.9727 -2.44562 0)
(19.2197 13.4717 0)
(18.6801 12.8921 4.8009e-16)
(18.1317 12.1938 -1.53128e-15)
(17.587 11.3887 -6.97011e-16)
(17.1118 10.523 -1.59254e-15)
(16.7041 9.58444 0)
(16.386 8.58903 0)
(16.1762 7.59575 -1.73145e-15)
(16.0764 6.64379 1.79481e-15)
(16.078 5.73936 0)
(16.1682 4.89597 -9.53291e-16)
(16.3342 4.12555 -1.01152e-15)
(16.5668 3.42274 9.98976e-16)
(16.8584 2.78251 1.03164e-15)
(17.2022 2.20414 -2.00222e-15)
(17.5948 1.68429 0)
(18.0323 1.22256 -4.82719e-16)
(18.51 0.820197 1.15112e-17)
(19.0235 0.479038 2.27534e-15)
(19.5672 0.201344 -4.42566e-16)
(20.1349 -0.00987064 4.30622e-16)
(20.7192 -0.151757 -3.85154e-16)
(21.3117 -0.221337 5.60474e-16)
(21.9004 -0.216956 -2.99484e-15)
(22.468 -0.139628 -1.18196e-15)
(22.9969 0.0051417 1.20427e-15)
(23.475 0.207413 -7.89292e-17)
(23.895 0.4564 0)
(24.252 0.741581 -7.21477e-17)
(24.5424 1.05212 5.26804e-16)
(24.7643 1.37699 -1.05621e-15)
(24.9172 1.70583 2.15065e-15)
(25.001 2.02944 -8.57432e-15)
(25.016 2.33895 8.48228e-15)
(24.9557 2.62632 -1.25886e-16)
(24.8203 2.87653 7.84142e-15)
(24.5588 3.07952 2.43801e-16)
(24.2294 3.12182 -4.54886e-16)