/*--------------------------------*- C++ -*----------------------------------*\
| =========                 |                                                 |
| \\      /  F ield         | OpenFOAM: The Open Source CFD Toolbox           |
|  \\    /   O peration     | Version:  2.3.1                                 |
|   \\  /    A nd           | Web:      www.OpenFOAM.org                      |
|    \\/     M anipulation  |                                                 |
\*---------------------------------------------------------------------------*/
FoamFile
{
    version     2.0;
    format      ascii;
    class       volScalarField;
    location    "1640";
    object      sigmaEq;
}
// * * * * * * * * * * * * * * * * * * * * * * * * * * * * * * * * * * * * * //

dimensions      [1 -1 -2 0 0 0 0];

internalField   nonuniform List<scalar> 
11800
(
134688
107522
383417
329610
103158
240143
129741
135409
142342
150238
132545
464830
65907.4
344286
302528
1.33773e+06
106602
102562
180381
106909
266342
422367
604197
540104
1.09206e+06
702972
688187
342936
757334
828403
234454
108673
695222
115893
118766
228906
119102
739271
114855
116398
713469
784889
360719
858673
246845
1.25213e+06
572572
662993
128830
171561
484949
346981
117401
184490
1.42607e+06
1.21757e+06
57616.2
326459
252678
248717
1.2052e+06
125559
261083
216497
1.07101e+06
165398
497863
358019
58397.7
648804
121538
101895
98072.9
1.1928e+06
1.19283e+06
224859
1.1104e+06
155475
134635
140320
1.45213e+06
99268.2
103913
106907
101995
797248
249437
727468
662027
354318
114669
826869
122791
56065.1
135888
112404
14527.2
112044
117221
409622
71929.7
449214
785087
284350
123741
238576
134099
123099
1.1659e+06
726790
797500
661284
252608
360575
155179
1.05413e+06
155836
119385
990838
156596
153257
131212
137878
110963
120002
116334
117623
116290
90929.2
29759.7
1.37996e+06
895716
267996
797765
374666
725372
659768
237908
683144
327472
621252
565521
359962
145654
170382
225506
794478
818977
467121
270451
155403
149049
117168
185658
166843
140433
317424
429870
881758
120761
1.33897e+06
167561
1.12985e+06
323940
353680
386905
195063
156734
1.45676e+06
874514
300733
407279
124107
253323
253937
1.24782e+06
1.26179e+06
643269
585339
706361
316695
224224
178068
153378
299775
154046
246471
121500
127599
129395
176857
163213
155573
163452
599571
768077
1.22301e+06
109247
157100
1.43329e+06
110188
195148
219097
120969
124043
558210
470334
428298
355298
1.37445e+06
414996
608108
1.87927e+06
1.50664e+06
1.59403e+06
253547
109393
565965
513810
468662
184641
252844
106989
102133
180204
107766
911020
191528
108922
315148
156305
133150
113950
430071
438923
1.87053e+06
907057
160357
168491
755270
616217
224931
316234
711333
651494
592728
122693
782491
267941
360571
339064
118785
111612
289820
246179
128670
1.58714e+06
195890
222806
169642
192045
462591
508328
556580
253129
186383
120161
1.18837e+06
125061
82036.1
117267
277723
106879
358558
1.40798e+06
261656
259151
384697
281735
322601
237641
816167
684188
218387
267715
180056
211533
381991
498842
207121
820449
880852
1.06529e+06
130517
260206
258780
1.20365e+06
1.21533e+06
688627
677819
707056
700419
114088
80091.8
201172
1.60372e+06
106235
111719
205770
177331
181668
606863
616146
1.08538e+06
1.59784e+06
490879
139075
580270
477065
339914
277077
133648
134279
186657
320306
172566
294274
104178
130114
130045
122527
879448
129414
110038
1.30891e+06
209710
481951
509507
496928
625210
602544
93508.2
92774.5
448815
580944
408208
1.05735e+06
97141.1
559150
439100
283127
217196
214420
166554
221189
193747
251926
279041
304346
117084
116971
501468
532958
137122
155809
326270
268082
302746
143155
136226
167305
168847
615588
284593
218190
282436
699779
819979
271932
147881
142846
175423
165363
295750
344619
278051
326919
253453
298358
227617
213690
463022
225078
492607
844276
410616
304949
1.46179e+06
114139
887798
422498
311383
1.36046e+06
115996
913464
228365
789786
728078
702814
141132
62045.3
108177
1.68752e+06
1.45603e+06
613920
218915
285537
136756
159716
184558
112270
167758
1.10614e+06
45044.7
369116
279405
1.23036e+06
91139.5
135245
117633
126022
116415
121094
1.23502e+06
399427
168584
438470
400027
366305
92371.8
874138
278327
380628
129285
598937
136172
1.1591e+06
112335
147844
319024
291729
267612
605612
160631
331087
307777
160446
442833
485075
532029
251999
189743
53802
125804
136226
1.52933e+06
476176
375585
279516
230480
134164
124345
92601.8
95879.7
153056
83696.1
94701.4
109237
125029
248499
117991
161149
409311
464514
222936
1.10566e+06
146765
261904
119295
127904
1.0591e+06
1.34256e+06
392672
431679
175592
156476
103696
930141
1.29264e+06
1.15158e+06
1.686e+06
502579
352184
469829
98471.1
135849
128111
140471
459637
121667
119723
98313.9
129396
926282
200494
887368
586394
124122
155967
803976
943536
457552
503401
550712
252088
188814
416739
118834
118784
116474
130135
107399
146562
83511.3
138192
80934.9
133950
74021.3
131764
120849
128175
92043.8
1.06368e+06
179351
168632
376025
610965
91319.9
122273
105883
101203
91346.1
197996
272950
114706
113114
397058
97401.3
144267
1.15231e+06
66833.7
131341
339156
310666
328000
357220
367864
391269
179959
144476
1.30086e+06
1.65176e+06
314944
76819.3
227577
251874
241504
177981
517155
474364
431873
131701
70285
489243
469002
211050
230699
127489
391582
429962
165105
683656
688118
696549
694134
1.24242e+06
1.21564e+06
368377
1.53188e+06
513325
113044
1.08277e+06
871633
958186
479800
199145
217818
142130
1.05852e+06
333692
424969
1.61804e+06
152189
173904
354237
324247
869689
433977
1.31339e+06
113955
109718
185464
251384
562500
512532
466819
1.25371e+06
119332
256692
555656
896292
111599
1.46486e+06
1.37197e+06
1.39497e+06
162435
219923
89226.1
1.4263e+06
382214
167335
270155
1.30456e+06
116855
169871
182829
116086
340654
195586
1.68131e+06
1.41532e+06
150379
402312
513048
193970
223169
176168
160944
465827
158967
375634
282957
733534
658433
128525
874083
119170
262354
317602
1.20731e+06
219332
300360
171586
151404
132329
152066
283887
657162
725671
109611
109557
106812
144158
241799
887119
95511.8
290338
514653
398036
156080
681900
761062
485656
837529
918362
371164
250186
123411
134604
242696
260652
223210
243217
144959
222257
263941
162559
115465
1.66564e+06
692277
257742
338749
328677
162626
274329
390995
866680
789587
717865
226316
265130
160344
156208
1.02684e+06
793450
870366
122592
151982
194273
426722
993610
308406
66953.6
125012
1.55265e+06
1.46181e+06
169832
1.3406e+06
97155.2
124075
104674
485084
101432
171825
196233
861932
948192
1.03954e+06
1.13746e+06
488409
420257
351511
282561
145403
111805
275689
1.39733e+06
120988
120158
118442
118388
117266
122472
130029
1.08584e+06
553683
538119
313290
590618
649959
228353
777473
187939
164208
123623
1.53246e+06
115051
129290
122408
125033
113858
1.39705e+06
188816
190701
778539
232696
495792
185660
1.42532e+06
591483
285821
222468
947858
318939
139342
122314
107807
110571
170764
193407
181068
128232
361479
136254
113115
548819
616322
106112
394529
559498
478564
641638
1.24163e+06
1.13371e+06
1.03043e+06
933706
393250
476279
1.25023e+06
1.14109e+06
556862
1.03806e+06
640406
938868
1.13905e+06
127624
113186
123866
168496
363829
829939
121586
298774
398590
324995
436629
145336
178340
287258
411229
908939
828137
752907
356609
269936
684752
149311
182146
131806
237931
218670
197190
382645
303300
311011
234130
115452
506333
144905
234345
292785
737969
386063
450495
387459
143490
179287
139017
124372
123441
136866
401238
344565
116343
154739
159457
312850
972623
310110
425623
360631
128604
158123
147826
134997
179895
140956
427997
389365
353679
149534
1.13535e+06
470044
177324
688679
457090
944219
1.34837e+06
165929
185067
154174
120977
118699
498127
424667
1.39613e+06
105927
141732
243543
346995
161052
121919
502004
495609
59025.9
113094
252173
203908
86929.7
1.1993e+06
1.34382e+06
205994
107801
197497
262766
555787
459204
505217
1.54111e+06
116493
396137
444587
130735
410233
499929
584661
669386
1.30087e+06
1.18726e+06
1.07912e+06
978282
409574
497471
1.30809e+06
1.19402e+06
580732
1.08646e+06
667290
983087
1.28159e+06
1.11145e+06
840092
326747
373395
1.10726e+06
841696
235181
107222
102874
838124
1.44566e+06
113974
284056
1.22651e+06
832342
1.34939e+06
1.37098e+06
788131
794111
365933
294812
381491
200631
136315
211080
124833
141907
164643
147093
280020
1.3996e+06
381787
146399
95034.1
251629
270838
1.26074e+06
257773
232794
285230
303577
802865
358855
265437
1.08208e+06
285491
365585
143668
129641
266843
226795
247434
627055
382913
369547
911812
873079
365750
382757
697386
750128
279262
288556
114929
136424
142512
374135
290386
57714.8
129189
144923
454656
437324
227865
432484
337169
142016
94461.9
96180.9
385741
896749
101578
1.34381e+06
191682
502695
458126
152904
187978
306762
121393
111977
1.10484e+06
266881
694128
634126
577681
218847
306988
127611
1.04089e+06
1.30024e+06
134600
120239
711082
253604
338439
585236
643206
714118
224672
311804
53742
544090
264777
1.28995e+06
248547
750261
587290
656748
121202
117420
114415
129856
121709
112408
1.08557e+06
319402
129846
153641
165693
186930
220301
245411
505991
492895
462609
448446
410079
422440
815434
130596
115343
116413
139094
167808
122633
128787
957862
189620
346937
277538
722447
367629
137222
144491
305567
239889
414968
341860
863575
745875
680215
618495
346285
1.00157e+06
471325
1.04426e+06
181321
155216
195890
196763
140485
137383
137739
1.03701e+06
1.40781e+06
231763
97153.2
173983
385092
295689
94452.6
122431
191726
178391
171134
164744
205504
195028
154877
327353
363957
355111
395549
296651
331026
396962
114133
791562
619046
336760
850635
801203
465317
1.403e+06
254176
241209
275122
299084
138037
124489
136248
269135
119124
1.12834e+06
165275
121585
525743
51389.6
102824
1.16767e+06
136273
278304
890720
398250
812307
738677
1.05372e+06
703195
114481
404548
324966
159509
945809
414936
172185
751518
680303
825701
118762
120595
115394
1.69493e+06
201228
291799
353065
172965
116549
111836
289021
314469
137660
1.1724e+06
283520
1.1084e+06
172847
579107
114626
421390
506691
696713
274019
361636
434818
189975
1.59824e+06
128639
96569.2
112761
1.38352e+06
927757
220538
314629
726843
666937
606985
1.42425e+06
404060
330084
1.47003e+06
1.651e+06
1.11717e+06
86600.2
387891
918986
674995
359284
272968
651286
580705
275922
932708
225996
203171
340332
295831
234810
1.14047e+06
1.70544e+06
104175
117522
138954
1.65464e+06
122829
136685
470026
354706
1.478e+06
1.54734e+06
119837
431912
162873
151948
357067
158248
99723.7
386813
108110
123806
1.70807e+06
708239
385775
294163
264763
197365
533453
488485
443702
168732
1.5629e+06
310774
276616
289617
1.31381e+06
518427
743888
111296
174425
130451
586008
326272
433775
106629
191921
256661
558469
197823
144115
127466
241871
1.45694e+06
200067
263631
551924
946565
1.33597e+06
861855
598105
438002
518054
65967.3
169608
220890
465968
425315
387329
1.33142e+06
112959
136267
146360
145732
145378
147727
196664
117781
115371
467143
1.17618e+06
311278
698524
636743
579858
221554
1.33438e+06
397568
449084
533851
459624
799565
1.29908e+06
402514
120521
542314
103476
570691
340665
626528
689407
250159
820476
205433
1.81175e+06
611420
116867
1.20148e+06
1.8136e+06
1.56189e+06
361073
117937
677094
129597
117556
104690
207633
121411
119223
109277
106609
1.08534e+06
1.13883e+06
114442
785878
135905
126920
115121
167931
723446
731751
178432
736617
742233
1.03304e+06
343474
135882
157211
208476
416549
456172
166269
44089.2
126171
544007
234574
555035
624867
688163
755643
383096
275667
221150
127124
114534
1.35686e+06
734753
114722
157993
632782
498448
265182
289158
151170
126121
234200
206595
101474
153351
118365
1.12974e+06
402167
993603
108561
112638
1.81691e+06
117861
1.40217e+06
1.37166e+06
111048
617901
300737
1.11701e+06
122854
565842
695757
1.52191e+06
165628
115807
106613
344547
163948
211651
415027
377089
342995
113668
112594
125281
118542
709800
783773
538186
930118
846573
1.00028e+06
1.48831e+06
183226
474954
1.41784e+06
448910
1.36894e+06
594468
653276
718232
315233
221959
279441
338077
1.27947e+06
130543
140094
194024
183128
168810
140691
251283
229447
215079
553946
520761
1.67311e+06
175436
101823
144491
1.35066e+06
390758
200766
192448
1.32241e+06
614290
424892
92612
149111
105833
602265
771923
210347
918731
134355
131412
1.74434e+06
1.15355e+06
1.41362e+06
256244
329614
596072
209803
453018
1.42186e+06
1.55674e+06
133556
152869
248994
209328
662240
737857
498727
561870
1.56676e+06
1.49041e+06
190206
138646
93299.2
1.03846e+06
103471
1.36589e+06
295658
202443
729390
227077
111703
1.2992e+06
157386
186104
97617.5
112124
979587
307814
117755
512917
238635
142556
115581
113438
441879
113222
1.30067e+06
1.2136e+06
209835
541676
312058
114128
124700
1.03456e+06
132724
681116
176875
367511
722390
831168
1.23643e+06
139165
227155
1.38592e+06
175096
123177
106840
129868
114724
1.44408e+06
1.08637e+06
239330
318311
576496
551048
759813
260822
349295
261197
370258
797999
727370
660989
1.08346e+06
482847
349852
1.11181e+06
353416
1.20864e+06
436844
451381
1.30782e+06
1.81949e+06
1.53084e+06
278507
317861
786562
355707
265664
111239
254866
1.28374e+06
120081
133159
1.58966e+06
1.18164e+06
1.40548e+06
581503
721393
730636
628527
105507
96751.9
147936
99583
463930
507853
557939
252785
185230
416307
1.42198e+06
117964
159281
133899
121866
657975
595631
149851
1.25585e+06
1.44233e+06
765668
620181
1.14798e+06
1.32197e+06
109331
638016
410495
850487
121880
178424
191130
1.08491e+06
1.08099e+06
523615
244857
103316
118812
161349
334483
1.15707e+06
156813
869872
113808
244506
179323
223675
390213
204166
325367
31482.4
9116.43
323909
1.69774e+06
143999
126066
134487
111681
108577
140556
148257
113101
120819
347633
110894
119441
141108
636438
788842
561800
1.20518e+06
1.50306e+06
118467
154051
258352
126587
1.02198e+06
170199
1.56224e+06
165451
207677
401998
289153
167528
167244
387037
112931
128644
149335
106048
140743
101469
1.33551e+06
94507.5
119162
193791
109820
86281
1.34706e+06
144724
1.15667e+06
1.20581e+06
443814
305031
222528
313004
712139
658041
598847
114160
809735
444829
114424
1.43497e+06
118596
121572
248307
778833
566310
633058
921251
138868
114845
274915
399986
889157
463558
975358
339156
809552
736284
271664
975002
331444
885667
391269
807767
734446
452956
1.05974e+06
138615
398967
305603
116111
141330
1.15019e+06
651078
888164
824065
719657
897312
654266
255082
280659
413178
1.01127e+06
121336
1.62242e+06
141839
118606
1.23324e+06
140627
211345
434343
443681
1.2839e+06
101172
782629
715437
650785
242403
345843
1.56369e+06
251672
199239
459986
135189
479904
220712
258726
105098
152851
162415
136930
355781
109886
446897
242569
187277
582649
778616
786427
582123
295327
1.45413e+06
118812
119064
1.3118e+06
1.20443e+06
722365
1.8015e+06
729432
625188
699538
1.606e+06
722895
570684
1.42155e+06
312139
317756
433270
1.24018e+06
99896
1.08951e+06
130434
192505
269466
448169
491510
538978
260366
194128
342484
67445.5
71038.8
119205
120242
162774
132498
115182
160940
757796
1.4531e+06
168851
139741
1.34221e+06
904178
352391
471667
116986
123386
1.15364e+06
776083
180989
595859
556454
772593
106417
116508
131393
114456
874168
1.45463e+06
1.44341e+06
968660
1.57434e+06
195318
105313
238260
710944
646792
780326
350773
243971
1.58323e+06
333559
412091
539086
185324
167524
673931
247541
126622
497815
190190
236152
1.50446e+06
245216
219164
762177
697923
634761
320701
1.013e+06
947652
1.23475e+06
387030
404662
480188
1.03546e+06
465981
338863
918954
179115
1.80865e+06
131592
1.38404e+06
359296
413523
101234
435514
820863
116775
133889
127297
1.60121e+06
433267
391869
471190
230429
173086
233215
412212
1.05402e+06
416626
819777
987596
901819
283818
898876
674581
717238
848988
896406
674733
724724
858520
499896
446115
35655.4
220023
140391
291000
421633
355520
487149
1.01588e+06
927486
844242
767661
286734
818645
386771
131169
93447.9
100389
165278
91149.2
340372
785743
810833
297261
1.40594e+06
134609
116784
1.11051e+06
1.38544e+06
89781.3
851229
333979
444957
618779
393934
227131
119754
332136
520099
63536.9
119090
1.42901e+06
190830
152970
336671
306582
367086
249199
119240
122302
257737
885937
1.40126e+06
1.62307e+06
234369
259228
1.10218e+06
993728
1.31063e+06
107499
759507
1.27056e+06
1.62983e+06
1.68597e+06
1.61913e+06
390672
691129
295006
1.49182e+06
1.08628e+06
437790
972142
120519
116518
1.15644e+06
1.15852e+06
116074
322204
1.48886e+06
1.22508e+06
1.1557e+06
1.19552e+06
1.69229e+06
1.13973e+06
1.41552e+06
1.25091e+06
123676
199328
899431
479491
751629
162029
112133
141533
131405
131401
158607
141190
298677
1.41315e+06
857497
290650
395047
923807
135591
432037
312989
1.73819e+06
227861
216348
426246
230312
390992
170436
143816
1.41336e+06
11567
113417
112876
23320.3
316063
380812
138194
151172
163113
121219
422931
384880
112810
1.47463e+06
1.27073e+06
413072
915206
301940
115314
1.06943e+06
236764
1.47141e+06
377508
460702
539034
619331
1.21441e+06
1.11012e+06
1.00871e+06
915738
376945
457244
1.22112e+06
1.11529e+06
534950
1.01452e+06
616017
919038
210574
168873
407951
422620
368219
181389
157328
139649
119468
114380
119169
110510
110980
182878
671840
722825
602732
339638
657869
725287
1.1826e+06
481043
385947
1.32246e+06
443934
153329
93133.7
132770
120245
209948
189022
193726
123854
295166
228775
268093
537403
122959
155973
707310
125728
103754
122660
104061
990083
137036
172682
447075
356955
202909
453164
174936
104342
95592.7
1.58165e+06
1.5924e+06
889075
723319
702488
901064
1.53513e+06
780961
116995
503014
270643
213372
301935
152841
1.51388e+06
162135
829894
759597
691131
361225
250870
441835
251248
197346
1.53127e+06
173538
116943
503233
501001
217239
147746
171463
279448
596056
1.12126e+06
438839
346213
736755
898556
236218
334486
748881
682838
621523
347965
376697
641844
495467
701583
374918
777143
855123
251598
937640
1.76579e+06
1.26099e+06
106713
549222
603545
662209
215651
157252
1.06082e+06
180679
235938
307259
328739
141427
178590
154956
125991
942999
714374
752210
901941
236120
1.26905e+06
1.57333e+06
578318
112246
540241
592238
650262
636763
763275
208646
1.20534e+06
529913
460826
417740
503281
189091
253057
155588
148545
316879
380471
346519
394392
432588
475102
285607
282088
397647
400338
826808
821548
683501
752177
679140
747469
413017
453232
174248
121617
132044
145293
897447
517874
119922
822853
679764
647367
845793
153355
303740
1.0956e+06
450168
998811
907914
92191.7
184912
775870
433141
313537
1.01869e+06
375977
66651
752686
685025
827089
365438
253065
1.09055e+06
388396
316137
1.41457e+06
389497
544394
139349
121761
239027
221552
201065
1.19444e+06
286034
214270
330477
300916
358122
181227
146824
806477
916406
154258
503355
117413
710867
1.41192e+06
901276
397584
303791
734855
364684
329201
271278
184456
127113
289289
145998
334443
144097
252670
116747
121287
1.49432e+06
281032
1.20222e+06
654925
713562
383334
292929
708837
1.35857e+06
99962.6
121526
127743
117480
271158
26137.7
8666.54
269937
553141
111240
564754
247731
197744
125625
364769
504723
1.09519e+06
111070
96708.9
129935
142750
304132
193036
715513
634367
172399
118011
106187
1.50224e+06
554431
110656
226248
115419
1.7377e+06
1.35503e+06
226977
161732
556102
275536
381952
765448
632516
696520
1.56694e+06
1.23906e+06
121526
1.188e+06
1.63978e+06
1.24501e+06
1.36948e+06
615916
138419
851820
193761
131488
153541
294428
305725
231805
226222
528223
177661
131022
107787
783737
894622
984362
1.0797e+06
1.1713e+06
499445
430223
357787
286496
183267
106655
378401
17698.5
187815
186959
9642.64
392823
197582
156869
86052.9
240983
276426
121423
272334
832144
560345
388233
279532
319332
1.45353e+06
1.12959e+06
144963
480310
119251
124397
383066
452712
501681
1.01539e+06
272151
301075
123000
1.31318e+06
125772
224184
265070
246079
894673
983541
501840
597613
594949
380315
494662
971107
923490
910840
302911
413032
93476.1
109348
97612.6
194677
102857
439091
841142
748820
918520
666537
929349
665343
458299
337581
808813
591318
813842
593258
211133
938825
749575
655276
853980
756931
933976
677039
938093
675884
897180
1.73493e+06
344811
480330
1.05647e+06
403581
109296
124584
174519
17203.1
173716
15254.7
115306
296482
907810
825837
997446
434680
304108
1.50588e+06
65455.8
113176
212513
694690
206704
570462
276464
1.55074e+06
1.5647e+06
963880
116113
226657
1.01818e+06
512109
411834
311321
515912
468313
563988
204014
275614
1.6164e+06
379423
1.42711e+06
113776
115739
118667
114457
86910.3
1.40482e+06
120470
1.00778e+06
86109
731611
984031
116086
123438
152665
421731
161827
343130
312724
233938
254422
278440
131555
244377
328505
403920
277034
944387
863094
784889
1.05e+06
1.41164e+06
1.56172e+06
105240
106552
111296
114949
196852
119866
208278
1.55368e+06
1.59568e+06
1.53274e+06
1.23418e+06
48481.1
877540
1.42349e+06
898876
702064
721393
888201
467656
442454
828810
517131
1.02414e+06
92160.7
186423
223502
434282
178744
174145
201592
143791
166575
122908
142607
295661
302144
329848
323970
354897
360167
422940
423410
118724
119874
375805
254425
101059
151471
637922
1.02886e+06
119705
583488
1.26648e+06
375943
1.19313e+06
521531
163310
1.16956e+06
564138
474494
749837
1.34355e+06
1.68057e+06
666143
257271
1.42485e+06
198341
152018
133549
333397
83347.7
607234
1.03217e+06
252959
395623
165848
121016
172479
1.5275e+06
254091
290761
281233
216627
622719
195209
159659
640862
140364
1.33882e+06
122448
788812
279746
302397
1.2316e+06
999017
594572
1.09909e+06
1.20708e+06
510473
1.31838e+06
430517
344931
993547
1.09199e+06
1.31407e+06
1.19971e+06
346109
514303
597838
432104
1.41634e+06
147260
1.11213e+06
127145
106827
116724
6371.96
48474.3
591946
69604.1
1.07079e+06
207596
165113
384295
417590
350276
332982
199000
879020
197734
209738
821133
92779.4
306839
281694
279150
873133
794488
959048
412097
393403
161814
267261
494288
1.06617e+06
70861.4
254877
160134
111048
353893
1.15091e+06
617211
540549
1.19879e+06
155976
637413
1.38448e+06
688166
1.26352e+06
127206
1.40746e+06
176670
951517
322424
397941
118528
11192.6
112676
112115
19197.3
182005
1.00907e+06
139810
1.16276e+06
550705
191135
861656
827005
948723
910635
1.04209e+06
1.00066e+06
470918
455259
327072
317201
360501
249374
833838
763604
694242
225659
269026
245920
134877
762199
659451
89353.1
144428
113712
130589
135330
1.40978e+06
1.14522e+06
285695
932775
848951
1.02261e+06
112826
542831
944767
962126
124234
117321
1.15292e+06
384286
138956
195623
230306
213085
135955
375102
342669
314947
1.24438e+06
1.73157e+06
1.2441e+06
849654
403422
294400
138856
150821
212466
158425
121241
113786
160414
443337
350071
112922
1.06474e+06
1.21493e+06
456682
429214
136462
136990
124630
125860
342454
1.14823e+06
809019
615660
636667
758991
116185
116390
176624
111936
109218
207838
1.79562e+06
1.41988e+06
113000
143147
545750
471951
333228
1.04016e+06
1.13714e+06
860413
946064
618965
301482
254647
278675
144786
167812
1.30013e+06
322233
812853
75744.6
1.21979e+06
117224
435238
500785
1.78772e+06
112629
445617
128550
417599
131058
267992
843016
365208
927427
593687
1.02211e+06
1.12339e+06
516578
1.23046e+06
437297
360091
441138
360537
175894
517034
586092
760573
111778
177546
1.00255e+06
446179
1.62189e+06
1.33759e+06
1.49834e+06
278291
1.14292e+06
558229
405015
196777
153872
1.54699e+06
827377
107325
1.70726e+06
1.4001e+06
50695.8
460251
379494
64802.5
698476
523254
101855
132740
1.14866e+06
1.63853e+06
118823
528559
542795
1.13848e+06
1.10233e+06
388547
398488
390521
402469
116840
118858
118649
112872
85001.3
1.72585e+06
1.29544e+06
1.20223e+06
1.5137e+06
553778
284240
1.17175e+06
629428
692502
760131
74587.8
1.26149e+06
211765
931347
1.36944e+06
397840
269650
1.71258e+06
419279
440433
312586
330831
864641
837066
167560
167637
96093.2
115097
280578
1.01573e+06
926294
841646
415439
1.71789e+06
120273
194789
101337
830215
913727
521315
1.00303e+06
447339
1.10691e+06
380976
1.02826e+06
850604
935482
1.12487e+06
308720
539721
466563
386237
114035
147672
152598
184391
331803
276090
303099
1.36668e+06
591077
721486
1.29308e+06
160324
222582
114441
354973
484757
173109
232532
1.3347e+06
143787
112333
119323
121200
113117
82182.6
178645
129335
140176
1.10277e+06
1.31551e+06
126290
108692
131638
228759
481512
1.4495e+06
1.3447e+06
625527
124084
142271
1.12113e+06
120860
123682
1.75735e+06
652905
1.29837e+06
340583
869956
518750
529188
159071
655496
897438
418173
303805
133522
296042
114841
78413.2
103690
1.43114e+06
761219
773091
1.34435e+06
216964
233571
131164
431436
120878
116326
130466
259761
224243
22739.6
223243
15613.3
117978
868384
248654
353013
756159
689152
626079
138810
1.58157e+06
546006
288296
1.32284e+06
747295
783628
144016
14087.4
143332
14869.9
1.19204e+06
325402
467853
564606
517247
119751
1.33961e+06
283887
210094
645394
494361
112441
30428
961262
194022
974867
231943
301676
569250
614094
512813
124482
473397
197434
244743
132428
142477
454306
472393
159585
273685
111579
112779
740995
361907
269729
124871
422149
10900.8
40730.4
420268
475678
385288
565340
672175
96408.2
1.60261e+06
1.68122e+06
201204
118555
125646
174464
195010
20083.1
194142
17357.7
800737
268531
368523
1.56662e+06
1.58807e+06
1.30286e+06
1.2283e+06
662211
585989
559665
498662
1.33294e+06
186215
362461
141315
101644
113649
253398
349422
496595
1.47706e+06
1.49825e+06
188202
97357.9
472877
518422
183358
795521
318001
266017
1.24196e+06
130837
127225
161064
743634
743164
794750
503662
257348
354749
88309
85546.4
922196
105085
797815
103044
377071
610610
535338
939652
1.09851e+06
121159
143907
293577
1.2973e+06
6620.18
82346.9
24415
82462.5
211231
200230
86161.6
1.48974e+06
26645.4
1.4168e+06
369032
35599.8
11502.7
367385
225448
119861
13748.1
119376
286509
1.25816e+06
285919
1.47195e+06
1.65461e+06
49135.6
440112
530726
486089
645435
302325
223344
708750
479614
84452.6
176471
263010
194860
460800
617284
180558
181154
1.59533e+06
528186
611240
575565
663032
1.01793e+06
113278
103948
851773
1.04998e+06
372837
186832
213342
121800
238166
322221
123894
178808
248481
120430
83899.1
927299
1.09177e+06
200422
428414
336479
346274
1.1015e+06
479245
213722
175958
431376
382919
102498
250236
1.05411e+06
1.31322e+06
327784
234013
571561
690355
629457
83805.8
112151
242725
181227
990595
359792
93220.3
45074.2
60724.6
322129
232377
552610
666998
608691
118914
1.446e+06
1.64118e+06
129942
118435
111220
107329
1.4255e+06
267018
207515
588673
1.76719e+06
1.43544e+06
374043
148758
356873
325822
206751
190919
222106
130414
123908
122138
288442
1.41117e+06
104069
703634
762210
1.26624e+06
906327
884228
331226
326049
438390
445532
229974
233812
208065
108958
113846
517012
174959
1.29556e+06
872826
216309
111872
575778
1.67557e+06
109219
807646
670569
631883
834174
609541
255735
344703
800817
151957
585452
250120
276418
152106
338662
179492
229917
633596
308261
146427
128698
162930
776693
638141
157864
149744
146890
163482
117119
417878
320094
112431
305356
122377
179635
282261
1.52829e+06
1.3464e+06
928405
249183
188186
556505
508623
462931
231007
237526
110201
832004
124670
420442
557112
177648
183139
1.37493e+06
86794.5
252965
234887
125617
1.43168e+06
83190.1
121880
368736
436883
147997
138797
157115
116671
118684
921118
104064
113299
14036.9
112806
917065
849160
1.60165e+06
1.01135e+06
1.24436e+06
124614
1.29259e+06
854903
12700
92161.4
205889
165504
346004
377648
412076
550187
296326
1.25596e+06
699969
768421
135810
100488
96371.7
112064
126143
124498
177122
757105
92533.7
1.60017e+06
401811
154871
807646
508481
263522
362452
177722
152973
214826
333156
210194
442849
412390
161800
122288
530997
808557
85637.4
89464.6
157505
95347.4
105254
1.2489e+06
298790
228221
666332
1.18826e+06
328210
221723
533329
462192
504376
420490
248933
186277
118650
7470.47
59106.7
513653
424527
597966
1.28545e+06
1.06697e+06
1.17313e+06
424125
510185
1.29486e+06
1.18028e+06
595821
1.07397e+06
160558
286812
238560
250294
112351
170991
148717
434702
205720
168542
191279
334666
951004
453455
119681
171291
109198
121829
184636
279608
115069
110921
104682
701328
252759
330200
229734
294622
615971
522876
614182
492954
878851
259128
155498
230477
532941
400826
197937
263430
371977
119800
231721
140018
138285
430866
430868
163535
553383
174164
181546
1.01417e+06
849066
109766
129182
1.37899e+06
96849.3
154121
98124.1
171187
209000
668075
607553
549544
360295
362239
673216
161430
121916
116415
922865
174184
161967
170744
161263
149985
153112
93167.3
139080
1.08449e+06
1.07797e+06
319808
253023
122697
725704
621327
256569
351769
499855
116276
83129.9
121782
1.3927e+06
502169
602379
62161.7
429664
171535
71433
164673
179708
163141
419382
118054
259319
203540
123879
1.70645e+06
273938
800675
225472
1.30839e+06
542027
635431
333086
245651
775794
98245.5
123915
143157
294671
361029
247319
168677
99873.9
74990.4
610903
258263
197598
101413
106738
111315
113915
268755
223238
247202
62071.3
128083
1.23173e+06
118400
1.69948e+06
367029
155943
627593
133763
101970
463916
168006
163704
760531
108729
499128
1.03203e+06
938969
1.12738e+06
97777.4
169315
331596
1.01271e+06
958479
263844
118851
282617
286210
407707
474713
891006
407085
464372
982360
880157
955322
737509
811288
728322
801166
1.21672e+06
258302
195928
1.41642e+06
105182
138995
503364
1.18481e+06
368801
204066
163127
106892
97449.7
124305
138835
104074
937298
232716
301018
552726
120498
659301
152071
241625
255007
385208
144342
122629
162365
124531
111438
165432
154935
145408
1.40211e+06
138232
113941
286329
361527
83398
194728
198495
1.07717e+06
211252
145575
127904
135582
142978
1.38901e+06
239671
218356
530654
237853
188424
1.34726e+06
1.04483e+06
1.1129e+06
353074
127191
1.19205e+06
356992
405567
175138
698687
558936
800123
648159
874774
446575
1.16734e+06
759154
998317
774129
528693
421913
109814
124144
1.23086e+06
103505
116521
114445
116859
113646
102033
731846
764059
162857
343132
33254
4570.35
341593
148907
99864.5
1.22584e+06
420493
571901
218799
184004
207092
151171
167125
302165
346782
116536
162113
464376
324831
236129
448591
690451
584764
101866
694079
582871
1.67866e+06
1.03138e+06
621628
1.13503e+06
1.24701e+06
535143
1.36191e+06
451714
364071
1.02638e+06
1.12809e+06
1.23976e+06
1.35815e+06
537687
363820
623910
453706
115400
611615
90805.1
764034