/*--------------------------------*- C++ -*----------------------------------*\
| =========                 |                                                 |
| \\      /  F ield         | OpenFOAM: The Open Source CFD Toolbox           |
|  \\    /   O peration     | Version:  2.3.1                                 |
|   \\  /    A nd           | Web:      www.OpenFOAM.org                      |
|    \\/     M anipulation  |                                                 |
\*---------------------------------------------------------------------------*/
FoamFile
{
    version     2.0;
    format      ascii;
    class       volScalarField;
    location    "0.53";
    object      k;
}
// * * * * * * * * * * * * * * * * * * * * * * * * * * * * * * * * * * * * * //

dimensions      [0 2 -2 0 0 0 0];

internalField   nonuniform List<scalar> 
15166
(
1.07916
1.32439
1.70741
2.10979
2.42108
2.73165
2.95357
3.0865
3.13283
3.11042
3.02685
2.91536
1.07952
1.29576
1.71125
2.10202
2.4127
2.7021
2.90353
3.01968
3.05557
3.02826
2.94594
2.82563
1.08757
1.2642
1.69586
2.07997
2.38997
2.66273
2.84856
2.95208
2.98078
2.95008
2.86787
2.7443
1.0981
1.23887
1.67425
2.05154
2.35869
2.61734
2.7908
2.88478
2.90838
2.87529
2.79235
2.66394
1.1095
1.2198
1.65113
2.02091
2.32319
2.56921
2.73226
2.81873
2.83855
2.8038
2.72036
2.59126
1.12182
1.2053
1.62764
1.98944
2.28552
2.52004
2.67408
2.75445
2.77137
2.7354
2.65151
2.52117
1.13508
1.19427
1.6044
1.95775
2.2467
2.47074
2.61688
2.69219
2.70679
2.66988
2.58526
2.45194
1.14908
1.18607
1.58192
1.92628
2.20751
2.42192
2.56102
2.63205
2.64477
2.60717
2.52227
2.38963
1.16361
1.18021
1.56057
1.8955
2.16856
2.37401
2.50676
2.57409
2.58524
2.54718
2.46233
2.33048
1.17849
1.17622
1.54045
1.86557
2.13024
2.32731
2.45425
2.5183
2.52813
2.48982
2.40553
2.27626
1.19357
1.17379
1.5216
1.83662
2.09276
2.28197
2.40355
2.46466
2.47337
2.43504
2.35182
2.22608
1.20876
1.17256
1.50398
1.8087
2.05628
2.23808
2.35468
2.4131
2.42086
2.38279
2.3014
2.18152
1.22395
1.17233
1.48753
1.7818
2.0209
2.19566
2.3076
2.36355
2.3705
2.33292
2.25383
2.13986
1.23907
1.17293
1.47219
1.75592
1.98664
2.15471
2.26227
2.31593
2.3222
2.28522
2.20793
2.09439
1.25405
1.17413
1.45788
1.73108
1.95352
2.11523
2.21864
2.27017
2.27588
2.23964
2.16451
2.05575
1.26884
1.17582
1.4445
1.70722
1.92155
2.07716
2.17665
2.22619
2.23141
2.19599
2.12312
2.01823
1.28338
1.17788
1.43196
1.68431
1.8907
2.04048
2.13624
2.18389
2.1887
2.15417
2.0835
1.98177
1.29764
1.18022
1.42021
1.66233
1.86097
2.00514
2.09733
2.1432
2.14767
2.11406
2.04549
1.94659
1.31159
1.18277
1.40916
1.64122
1.83228
1.97107
2.05986
2.10404
2.10823
2.07555
2.00912
1.91364
1.32518
1.18544
1.39875
1.62096
1.80465
1.93823
2.02377
2.06634
2.07027
2.03856
1.97425
1.88204
1.33841
1.18819
1.38892
1.60149
1.77799
1.90657
1.98897
2.03
2.03372
2.00295
1.94059
1.85048
1.35127
1.19097
1.37959
1.58279
1.7523
1.87603
1.95542
1.99498
1.99849
1.96863
1.90804
1.81976
1.36372
1.19376
1.37075
1.56479
1.72751
1.84658
1.92306
1.9612
1.96453
1.93553
1.87648
1.78944
1.37575
1.19651
1.36232
1.54748
1.70361
1.81815
1.89183
1.9286
1.93175
1.90356
1.8459
1.76019
1.38736
1.19922
1.35428
1.53083
1.68055
1.79071
1.86168
1.89713
1.9001
1.87264
1.81628
1.73203
1.39852
1.20185
1.34657
1.51479
1.6583
1.76422
1.83257
1.86672
1.86951
1.84274
1.78763
1.705
1.40926
1.20439
1.33917
1.49932
1.63681
1.73862
1.80443
1.83733
1.83993
1.8138
1.75996
1.67932
1.41956
1.20686
1.33206
1.4844
1.61606
1.71388
1.77722
1.80891
1.81131
1.7858
1.73328
1.65512
1.42939
1.20923
1.3252
1.47002
1.596
1.68996
1.75091
1.7814
1.7836
1.75871
1.70752
1.6316
1.4388
1.21149
1.31858
1.45611
1.57662
1.66683
1.72545
1.75478
1.75677
1.73247
1.68256
1.60846
1.44774
1.21366
1.31214
1.44266
1.55788
1.64444
1.70081
1.729
1.73078
1.70705
1.65842
1.58621
1.45624
1.21572
1.30591
1.42965
1.53974
1.62278
1.67694
1.70402
1.70559
1.68241
1.63499
1.56446
1.46427
1.21768
1.29985
1.41706
1.52219
1.6018
1.65382
1.67981
1.68116
1.65852
1.61228
1.54358
1.4719
1.21955
1.29397
1.40487
1.5052
1.58149
1.63142
1.65634
1.65747
1.63534
1.59026
1.52318
1.47903
1.2213
1.28824
1.39305
1.48874
1.56179
1.6097
1.63357
1.63448
1.61285
1.56889
1.50352
1.48576
1.22298
1.28266
1.38158
1.47278
1.54271
1.58864
1.61148
1.61217
1.59101
1.54815
1.48433
1.49204
1.22455
1.27721
1.37045
1.45732
1.5242
1.5682
1.59003
1.59049
1.56979
1.52803
1.46607
1.49789
1.22604
1.2719
1.35964
1.44231
1.50624
1.54836
1.5692
1.56943
1.54918
1.50851
1.44847
1.50332
1.22745
1.26671
1.34913
1.42775
1.48881
1.5291
1.54897
1.54897
1.52917
1.48955
1.43103
1.50833
1.22878
1.26164
1.33891
1.41362
1.4719
1.5104
1.52931
1.52909
1.50972
1.47119
1.41467
1.51288
1.23004
1.25668
1.32898
1.3999
1.45548
1.49223
1.51021
1.50976
1.49078
1.45316
1.39697
1.51698
1.23121
1.25181
1.31932
1.38657
1.43953
1.47458
1.49164
1.49095
1.47234
1.43547
1.37963
1.52065
1.23228
1.24706
1.30991
1.37362
1.42403
1.45742
1.47358
1.47265
1.45437
1.41827
1.36369
1.5239
1.23324
1.24241
1.30076
1.36103
1.40896
1.44074
1.45601
1.45483
1.43687
1.40149
1.34794
1.52673
1.23407
1.23786
1.29187
1.34879
1.39431
1.42451
1.43891
1.43749
1.41981
1.38517
1.33297
1.52914
1.23476
1.23341
1.28322
1.33688
1.38006
1.40873
1.42228
1.42059
1.40319
1.36924
1.31789
1.53115
1.23535
1.22907
1.27479
1.32528
1.3662
1.39338
1.40608
1.40413
1.38698
1.35375
1.30391
1.53277
1.23579
1.22482
1.26658
1.31399
1.35272
1.37842
1.3903
1.38809
1.37117
1.33865
1.28989
1.534
1.23613
1.22064
1.25857
1.303
1.3396
1.36386
1.37491
1.37244
1.35575
1.32394
1.2766
1.53485
1.23637
1.21654
1.25077
1.29231
1.32682
1.34968
1.35992
1.35717
1.3407
1.30956
1.26314
1.53532
1.23652
1.21251
1.24316
1.2819
1.31438
1.33586
1.34531
1.34227
1.326
1.29552
1.25032
1.53541
1.23661
1.20856
1.23572
1.27176
1.30225
1.3224
1.33106
1.32774
1.31165
1.28184
1.23787
1.53514
1.23661
1.20467
1.22847
1.26189
1.29044
1.30928
1.31716
1.31356
1.29766
1.26845
1.22519
1.53451
1.23655
1.20085
1.22138
1.25226
1.27894
1.29649
1.30361
1.29972
1.28398
1.2554
1.21339
1.53353
1.23641
1.19709
1.21446
1.24288
1.26773
1.28402
1.2904
1.28622
1.27064
1.24268
1.20202
1.5322
1.23619
1.1934
1.20771
1.23373
1.2568
1.27187
1.2775
1.27304
1.25761
1.23031
1.19103
1.53052
1.23588
1.18977
1.20111
1.22481
1.24615
1.26002
1.26493
1.26017
1.2449
1.21822
1.17996
1.52851
1.23554
1.18622
1.19466
1.21612
1.23577
1.24847
1.25266
1.24762
1.23249
1.20641
1.1692
1.52616
1.23511
1.18273
1.18836
1.20763
1.22564
1.23721
1.2407
1.23537
1.22037
1.19481
1.15793
1.52348
1.23463
1.17931
1.18221
1.19936
1.21577
1.22622
1.22902
1.2234
1.20853
1.18347
1.14745
1.52047
1.23409
1.17595
1.1762
1.19128
1.20614
1.2155
1.21762
1.21172
1.19695
1.17241
1.13759
1.51714
1.23349
1.17266
1.17033
1.18339
1.19674
1.20504
1.2065
1.20031
1.18565
1.16164
1.12803
1.51349
1.23283
1.16944
1.1646
1.17571
1.18758
1.19484
1.19565
1.18918
1.17462
1.15112
1.11838
1.50952
1.23213
1.16629
1.15901
1.1682
1.17864
1.18489
1.18506
1.17831
1.16384
1.14083
1.10896
1.50524
1.23138
1.16322
1.15356
1.16089
1.16992
1.17519
1.17473
1.1677
1.15332
1.13076
1.09949
1.50064
1.23061
1.16021
1.14824
1.15375
1.16142
1.16572
1.16464
1.15734
1.14304
1.1209
1.09037
1.49575
1.22976
1.15728
1.14306
1.14679
1.15313
1.15648
1.15481
1.14723
1.13299
1.11124
1.08124
1.49054
1.22888
1.15442
1.138
1.14001
1.14504
1.14748
1.14521
1.13736
1.12317
1.1018
1.07254
1.48502
1.22798
1.15165
1.13309
1.13339
1.13716
1.13869
1.13585
1.12773
1.11358
1.09257
1.06398
1.47921
1.22701
1.14895
1.12831
1.12695
1.12947
1.13012
1.12671
1.11832
1.10421
1.08355
1.05573
1.4731
1.22602
1.14633
1.12366
1.12067
1.12198
1.12177
1.1178
1.10914
1.09506
1.07473
1.04743
1.4667
1.22496
1.14378
1.11914
1.11456
1.11467
1.11362
1.1091
1.10018
1.08611
1.06609
1.03944
1.46
1.22389
1.14131
1.11475
1.10862
1.10756
1.10568
1.10062
1.09143
1.07738
1.05766
1.03164
1.453
1.2228
1.13895
1.11051
1.10284
1.10064
1.09794
1.09236
1.0829
1.06886
1.04943
1.02394
1.44571
1.22167
1.13665
1.10639
1.09722
1.09389
1.0904
1.0843
1.07458
1.06053
1.04137
1.01645
1.43815
1.22049
1.13443
1.10241
1.09176
1.08733
1.08306
1.07644
1.06646
1.05241
1.03349
1.0089
1.43031
1.21924
1.13231
1.09857
1.08647
1.08095
1.07591
1.06879
1.05855
1.04447
1.02576
1.00154
1.42216
1.21799
1.13026
1.09486
1.08134
1.07475
1.06895
1.06133
1.05083
1.03673
1.01821
0.994269
1.41373
1.21672
1.12832
1.0913
1.07638
1.06873
1.06218
1.05408
1.04332
1.02918
1.01082
0.987234
1.40502
1.2154
1.12647
1.08788
1.07157
1.06288
1.05561
1.04702
1.036
1.02181
1.00361
0.980222
1.39603
1.21406
1.12471
1.0846
1.06694
1.05722
1.04921
1.04014
1.02886
1.01462
0.99655
0.97354
1.38677
1.21266
1.12303
1.08147
1.06246
1.05173
1.043
1.03346
1.02191
1.0076
0.989654
0.967054
1.37723
1.21123
1.12145
1.07848
1.05816
1.04642
1.03698
1.02697
1.01516
1.00078
0.982947
0.96064
1.3674
1.20977
1.11997
1.07564
1.05402
1.04129
1.03115
1.02067
1.00859
0.994136
0.976408
0.954276
1.3573
1.20828
1.1186
1.07295
1.05005
1.03634
1.0255
1.01456
1.00221
0.987668
0.970026
0.948187
1.34693
1.20674
1.11732
1.07042
1.04626
1.03156
1.02003
1.00863
0.996016
0.981382
0.96381
0.942102
1.33629
1.20513
1.11613
1.06804
1.04264
1.02697
1.01475
1.00288
0.990002
0.975263
0.957743
0.936361
1.32537
1.20349
1.11504
1.06583
1.0392
1.02257
1.00965
0.99733
0.984176
0.969338
0.951875
0.93065
1.31417
1.20182
1.11406
1.06377
1.03595
1.01835
1.00475
0.991967
0.978536
0.963592
0.946174
0.925137
1.3027
1.20013
1.11319
1.0619
1.03288
1.01432
1.00003
0.986788
0.97308
0.958016
0.940604
0.919461
1.29094
1.19837
1.11242
1.06017
1.02999
1.01048
0.995503
0.981795
0.967803
0.952612
0.935223
0.914587
1.27892
1.19658
1.11175
1.05864
1.0273
1.00684
0.991174
0.976999
0.962731
0.947428
0.93009
0.90971
1.26664
1.1947
1.1112
1.05727
1.02481
1.0034
0.987042
0.972402
0.957846
0.942411
0.925096
0.904948
1.25407
1.19281
1.11074
1.05609
1.02252
1.00017
0.983115
0.967999
0.953154
0.937581
0.920282
0.900234
1.24124
1.19083
1.1104
1.05509
1.02044
0.997143
0.979388
0.9638
0.948654
0.932937
0.915629
0.895656
1.22814
1.18876
1.11016
1.05427
1.01857
0.994331
0.975875
0.959801
0.944357
0.928493
0.911164
0.891148
1.21476
1.18665
1.11005
1.05367
1.01692
0.991743
0.972575
0.956013
0.940255
0.924225
0.906841
0.886878
1.20109
1.18452
1.11004
1.05326
1.01551
0.989384
0.969497
0.952432
0.93636
0.920159
0.902724
0.882731
1.18717
1.18224
1.11015
1.05305
1.01432
0.987258
0.966641
0.949072
0.93267
0.916289
0.898777
0.878787
1.17296
1.17993
1.11037
1.05306
1.01339
0.985375
0.964025
0.945934
0.929201
0.912629
0.895047
0.87497
1.15848
1.17752
1.11071
1.05329
1.0127
0.983742
0.961642
0.943026
0.925938
0.909162
0.891483
0.871474
1.1437
1.17509
1.11116
1.05374
1.01227
0.982371
0.959514
0.94035
0.922905
0.905916
0.88814
0.868154
1.12865
1.17257
1.11174
1.05443
1.01212
0.981274
0.95765
0.937933
0.920119
0.902916
0.885044
0.864967
1.11332
1.16993
1.11242
1.05534
1.01224
0.98046
0.956057
0.935769
0.917575
0.900142
0.882168
0.862074
1.09773
1.16715
1.11323
1.0565
1.01264
0.979942
0.954741
0.933868
0.915276
0.897599
0.879512
0.859487
1.08186
1.16432
1.11414
1.0579
1.01335
0.979726
0.953718
0.932242
0.913239
0.89532
0.877126
0.857024
1.06571
1.16134
1.11516
1.05956
1.01437
0.979826
0.953003
0.930907
0.911469
0.893273
0.874923
0.85483
1.04929
1.15827
1.1163
1.06147
1.01571
0.980267
0.952611
0.92988
0.90999
0.891511
0.873004
0.852804
1.03257
1.15519
1.11756
1.06367
1.01739
0.981062
0.952566
0.929172
0.908814
0.890035
0.871352
0.851033
1.01558
1.15188
1.11895
1.06615
1.01944
0.982229
0.952882
0.928801
0.907948
0.888838
0.869933
0.849437
0.998298
1.14851
1.12047
1.06893
1.02186
0.983791
0.953579
0.928793
0.907424
0.887963
0.868841
0.848181
0.980727
1.14505
1.12209
1.072
1.02467
0.985764
0.954678
0.929167
0.907258
0.887434
0.868092
0.847339
0.962887
1.14133
1.12384
1.07539
1.02788
0.988181
0.956204
0.929948
0.907483
0.887297
0.867758
0.84679
0.944751
1.13755
1.12572
1.0791
1.03153
0.991048
0.95818
0.931141
0.908088
0.887482
0.867641
0.846129
0.926321
1.13367
1.12769
1.08315
1.03562
0.994398
0.960619
0.932772
0.909083
0.888016
0.867837
0.845978
0.907614
1.12955
1.12983
1.08754
1.04019
0.998255
0.96356
0.934873
0.910523
0.88898
0.868489
0.846348
0.888594
1.12536
1.13208
1.09232
1.04526
1.00267
0.967048
0.937493
0.912437
0.890377
0.869492
0.847022
0.869284
1.12088
1.1345
1.09749
1.05087
1.00768
0.971129
0.940674
0.914888
0.892285
0.871035
0.848348
0.849675
1.11626
1.137
1.10306
1.05706
1.01333
0.975848
0.94446
0.917904
0.894737
0.873114
0.850251
0.829795
1.11156
1.13966
1.10905
1.06385
1.01965
0.981252
0.948907
0.92153
0.897768
0.875753
0.852495
0.809616
1.1066
1.14246
1.11549
1.07129
1.02671
0.987381
0.954039
0.925783
0.901321
0.878737
0.854674
0.789125
1.1014
1.14542
1.12242
1.07943
1.03456
0.994314
0.959922
0.930732
0.905519
0.882359
0.857869
0.768348
1.09594
1.14851
1.12983
1.0883
1.04327
1.00213
0.966659
0.936483
0.910491
0.886799
0.862012
0.747294
1.09044
1.15174
1.1378
1.098
1.05292
1.01091
0.974318
0.943074
0.916203
0.891801
0.866438
0.725923
1.08455
1.15516
1.14635
1.10857
1.06361
1.02076
0.983
0.950613
0.922775
0.897627
0.871584
0.704255
1.07841
1.15877
1.15555
1.12012
1.07545
1.0318
0.99282
0.959198
0.930274
0.904232
0.877494
0.682305
1.07221
1.16259
1.16545
1.13276
1.08858
1.04418
1.00395
0.968993
0.938879
0.911885
0.884434
0.660021
1.06559
1.16673
1.17619
1.14664
1.10318
1.05808
1.01653
0.980132
0.948708
0.920622
0.892116
0.637419
1.05881
1.17123
1.1879
1.16196
1.11944
1.0737
1.03076
0.992745
0.959836
0.930531
0.901081
0.614443
1.05177
1.17626
1.20087
1.17897
1.13765
1.09128
1.04681
1.007
0.972375
0.941617
0.911007
0.591095
1.04474
1.18221
1.21544
1.1981
1.15815
1.11112
1.06495
1.02312
0.986554
0.954226
0.922449
0.567259
1.03786
1.18964
1.2323
1.21986
1.18133
1.13354
1.08545
1.04128
1.00247
0.968265
0.935046
0.542867
1.03241
1.19976
1.25239
1.24488
1.20762
1.15877
1.10845
1.06163
1.0202
0.983759
0.94863
0.517795
1.0319
1.2158
1.27809
1.27447
1.23785
1.18755
1.1347
1.08476
1.04022
1.001
0.963636
0.488283
1.03319
1.23067
1.30439
1.30268
1.26677
1.21531
1.16112
1.10813
1.06118
1.01912
0.980072
1.04074
0.0046801
0.347427
0.321812
0.320749
0.288913
0.279334
0.646842
0.830986
0.777952
0.567807
0.00777938
0.0326167
3.01869
0.27707
0.00354998
2.83105
0.110622
0.107658
0.00348339
0.140588
0.176123
0.144824
0.0269072
1.05621
0.346515
0.16002
0.375058
0.604676
0.813005
0.538094
1.16683
0.00420063
0.558295
0.0311401
0.165945
0.3873
0.470864
0.393049
0.00818307
0.0704805
0.00337731
0.0716756
0.531601
0.268444
0.173097
0.0608496
0.0248538
0.271382
0.140035
0.1641
0.634585
0.262994
0.00321463
1.98793
0.00444693
0.0106638
0.00337425
0.471563
0.266437
0.155742
1.19157
0.0032091
0.0168831
0.183605
0.00453283
0.888936
0.252358
1.53223
0.689217
1.88405
0.0535766
0.383404
0.729145
0.0273713
0.00323012
0.797608
0.00309478
0.0702116
0.241062
0.103481
0.00310386
0.40574
0.2953
0.0163661
1.11911
0.884582
0.00319468
0.391008
0.237786
0.353799
0.65382
0.00319826
0.00392208
0.456858
0.00326193
0.362498
0.0128423
0.00317208
0.899079
1.10876
0.203703
0.00335325
0.00434063
0.00312134
0.514832
0.512252
0.689483
0.533186
0.00885951
0.0944777
0.00312705
0.202573
0.00372682
0.00318215
0.219925
0.0195244
0.219998
1.09336
0.176133
1.02455
0.0293431
1.69988
0.199706
0.125671
1.29238
0.00405453
1.96535
0.032386
0.00320012
0.231677
0.00323636
0.233188
0.00434541
0.16279
0.00514928
0.23331
0.595979
0.208029
0.00585727
0.0170212
0.145387
0.26957
0.0254508
0.174604
1.89737
0.298919
0.00454294
0.98313
0.374162
0.0640738
0.214048
0.00309226
0.114726
0.156553
0.00314728
0.248543
0.00320199
1.28001
0.00708537
0.0270427
0.00356928
0.128087
0.0132886
0.149782
0.0844485
0.98466
0.291699
0.335186
0.00307307
1.88829
0.758535
1.99271
0.0179162
0.00305944
0.574599
0.00311686
0.305931
0.138031
0.719717
1.00917
0.438065
0.0629278
0.371207
0.00339039
0.262746
0.00317801
0.00315336
0.175348
0.00318555
0.487636
0.00310671
0.936801
0.00475753
0.284103
0.296508
0.27177
0.165147
0.00312702
3.17562
1.01998
0.318213
0.413982
0.217263
0.324905
0.105017
0.0915493
0.228941
0.703514
0.216985
0.288254
0.9001
0.500564
0.39657
0.00315442
0.283575
0.0129684
0.427449
3.25244
0.210306
0.294663
1.02113
0.338898
0.00315697
0.0031882
1.30877
1.11842
0.00327022
4.20627
0.0324087
0.31249
0.12139
0.00311783
0.94751
0.414212
0.253645
0.246316
1.07902
0.657012
0.322201
0.154778
0.161403
1.25521
1.687
0.375296
0.28182
0.227988
0.00350597
1.39598
0.289873
0.650717
0.726859
0.378971
3.95182
0.236703
0.240424
0.21044
0.310505
0.578084
0.341713
0.216428
0.258166
0.0157562
0.089969
0.683892
0.261856
0.922087
0.506962
0.361398
1.49129
0.288104
0.050289
1.6395
0.209098
0.208348
1.69589
0.242283
0.260471
0.301818
0.2036
0.866181
0.238754
0.372657
0.331604
0.61423
0.273145
0.474512
0.207982
1.12083
0.128593
0.201676
1.66877
0.226325
0.224878
0.28301
0.91984
0.119717
0.206075
0.0677757
0.480361
0.183645
0.106141
1.36667
2.05761
0.154303
0.954135
0.323519
0.00318779
0.201472
0.166125
0.211171
0.288916
0.00315766
1.18636
0.32004
0.0673995
0.225815
0.762354
0.00315195
0.638775
0.0388445
0.579594
0.422683
4.92993
0.503343
0.758464
0.539112
0.00313881
0.00316295
0.285044
0.447204
0.00307749
0.517312
0.00311577
0.00316228
0.00322465
0.00311707
0.140401
0.0031637
0.00580786
1.03859
0.512299
0.003229
0.334972
0.00987187
0.195849
0.295647
1.28836
4.14652
0.481137
0.00301098
0.00323876
0.08196
0.134228
0.208969
0.00306429
0.0988757
0.315836
0.878588
0.377792
0.177646
0.273295
1.02611
4.08667
0.157125
0.325544
0.0036491
0.00318514
0.159087
0.258144
0.116377
0.173461
0.505845
2.744
1.69552
0.14383
0.34337
1.01424
0.00319835
0.419848
0.753671
0.00527053
0.0031629
0.520381
3.82734
0.734978
0.00308019
0.0489295
0.154769
0.0256737
0.00319884
0.833409
0.382701
0.277375
0.282028
0.00374825
3.8144
0.00314286
0.235835
0.544839
0.00649077
0.0111338
0.962753
0.00879752
1.4094
0.76708
1.15121
0.653599
0.172242
0.681599
0.00313953
0.00309425
0.00317226
1.03847
0.0754695
1.2625
2.76263
0.164715
0.592063
0.00317911
0.0109204
0.274332
0.00308086
0.00317183
0.703333
0.00306837
0.227936
0.916468
0.371903
0.00302994
0.00749536
0.110591
0.116057
0.237031
0.144977
0.00310505
3.34355
0.836853
0.109499
0.0123937
0.327383
0.199604
0.00711836
0.279664
0.00690477
0.846267
0.00352821
0.250307
0.133139
0.00311625
1.30281
0.238424
0.322182
0.00930175
0.471308
0.144123
0.00516828
0.217477
0.490092
0.352358
1.10892
0.0240655
0.0509019
0.0115467
1.3122
0.67645
0.0630459
0.137585
0.163221
0.334921
0.18217
0.51103
1.1034
0.00304566
2.04951
0.914999
0.22664
0.00309809
0.267642
0.963254
0.0255233
0.436738
0.348868
0.256781
0.126721
0.177134
0.25943
0.00358646
0.0189264
0.875681
0.0391557
0.00438467
0.923018
4.08782
0.0395633
0.199887
0.788991
0.0904703
0.491434
0.259212
0.84377
0.321201
0.290976
0.00323006
0.0851869
0.447593
0.382344
1.33294
0.214163
1.42376
0.937611
3.75215
0.888751
0.310549
0.00316689
1.26405
0.204165
0.801726
0.416492
0.16378
0.0844202
0.426559
0.00321463
0.297436
0.00317781
0.340864
0.421646
0.213241
0.175067
1.27233
0.241275
1.04353
0.642787
1.97782
0.00321794
0.123865
0.93328
2.44934
0.196094
0.717573
0.00361721
0.0282478
0.350289
1.85839
0.592244
0.00310244
0.0582281
0.00312257
0.0586935
0.351309
0.0375857
0.84683
0.142977
0.589648
0.155846
0.125206
1.23016
0.709019
0.00319514
0.00319639
0.25777
1.21777
0.275635
0.598525
0.441275
0.667516
0.266629
0.00302343
0.187568
0.253727
0.00485938
1.04939
0.265185
0.176371
0.274329
0.0127536
0.00302466
0.0237208
0.00313934
0.647215
0.817814
0.709543
0.638205
0.00319305
1.4783
0.0898894
0.742948
0.135477
1.73239
0.00866885
0.154669
0.00307426
0.497144
0.716682
0.315648
0.409623
0.00300695
1.30181
0.806011
0.510929
0.0031165
0.0709158
0.813963
0.617978
0.00610463
2.17327
0.00373911
0.805281
0.614651
0.0036302
0.131747
0.0877349
0.202523
0.00310546
0.00319887
1.15779
0.431721
0.322116
0.526602
0.00488086
0.128053
0.0982837
0.768987
0.208425
0.00395863
0.209074
1.20891
0.00307799
0.0082127
0.286305
0.635125
1.11624
0.0031581
0.729457
0.221372
1.30869
0.0298763
0.151753
0.816498
0.00319987
0.199383
0.137928
0.376255
0.383374
0.726097
0.276569
1.21711
1.17704
0.282367
2.70768
0.00323658
0.00315036
1.49715
0.783667
0.00475884
0.00315674
0.473425
0.00320625
0.82379
0.54044
0.248063
0.00311693
0.808232
0.0530127
0.291406
1.21617
0.235408
0.148539
0.145238
1.3469
0.0031921
0.285567
0.981645
0.234538
0.557326
0.00673614
0.533462
0.263324
2.03174
0.00313014
0.148926
0.683768
0.305788
0.00332102
0.0953
0.34218
0.439227
1.26979
0.0592661
1.87652
0.406347
0.0928423
0.404964
0.00313422
0.00737537
0.36306
0.00306755
0.175298
0.00316529
0.244709
0.0107786
0.839645
0.00321716
0.110648
0.493966
1.61082
0.356935
0.669947
0.163599
2.44864
0.0156037
0.0934964
0.571864
0.00309936
0.00320601
0.380335
0.15605
0.248862
0.390768
0.00328418
0.216262
0.218749
0.201009
0.49238
1.14829
0.200076
0.00319667
1.88295
2.42484
0.506893
0.00323832
0.010835
2.09396
0.260423
0.00311983
1.29448
0.00310059
0.080471
2.74583
0.00354818
0.291541
0.00314941
0.056623
0.751427
0.00324368
0.00401706
0.00318308
0.00379997
0.0216804
3.81133
0.805156
0.0939111
0.242142
0.00316397
0.765575
0.0031734
0.248067
0.232758
0.0247998
0.159765
0.0139112
1.1511
0.00318443
4.32703
0.218278
0.629224
0.351573
0.16303
0.00309676
0.193398
1.09778
0.129339
0.752546
0.886113
1.69384
0.349812
0.0419628
0.627907
0.0840792
0.00406577
0.106703
2.47093
1.14894
0.120017
0.00845754
0.297496
0.00375592
0.443735
0.87207
1.08657
0.842973
0.896356
0.0372012
0.00583192
0.325978
0.224507
0.0483659
0.269496
0.00316116
0.261376
1.96585
0.00330254
1.69707
0.783314
0.114535
0.101941
1.45077
0.0236553
0.101418
0.457696
0.310697
0.294142
0.00322322
0.674013
0.0763079
0.271381
0.383126
0.199043
0.223025
0.00685742
0.689007
0.00317337
0.00316055
0.228473
0.104966
0.160171
1.91875
0.00303326
1.14087
0.0646121
0.0578803
0.00338878
1.72246
0.363869
0.0899691
0.784629
0.0598034
1.1601
0.154627
0.00314252
1.19383
2.08948
0.00546393
0.00876354
0.203565
1.03766
0.0993774
1.32474
0.0352609
0.233517
0.104151
0.156983
0.681019
0.203264
0.00318776
1.17585
0.328873
0.0151647
0.197118
4.25605
0.276459
0.00317662
0.00307078
0.764176
0.184075
1.01368
0.00306548
0.715171
0.295969
0.408493
0.00376693
0.314003
0.777375
0.00538494
0.25858
0.00321639
1.12343
0.211096
0.345387
0.262359
0.00314612
0.00314548
0.345558
1.40595
0.385981
0.732519
0.00302803
0.0454093
0.0032083
0.00626197
1.15989
0.0742192
0.0971232
0.124895
0.325373
0.305709
0.356475
1.21032
0.00317283
0.304334
0.732087
0.245563
0.00319247
0.943208
0.00320555
0.00316624
0.0885931
0.211991
0.0251622
1.36395
0.203233
2.80236
0.00328522
0.00476028
0.0397785
0.903269
0.306067
0.962738
0.00316826
0.00314853
0.0062917
0.00835925
1.10579
0.805864
0.640754
0.123545
0.044896
0.315554
0.16421
0.57807
0.275874
0.879574
0.312612
0.00308098
0.332983
0.0053689
0.19464
0.889105
0.184409
0.231725
0.133303
0.00380968
1.34387
0.516366
0.48909
0.31453
0.00315936
0.588636
0.762574
0.334204
0.00825254
0.913131
0.479537
0.83859
0.32877
0.336683
0.59012
0.120065
0.861583
0.258615
0.0979705
0.236258
0.00317894
1.21455
0.862553
0.00311821
0.684698
0.00477403
0.538045
0.204621
0.237274
0.266689
0.730719
0.953226
0.262309
0.131372
0.174754
0.219549
0.0125467
0.00310406
1.0279
0.0615872
0.938048
0.549804
0.224624
0.834641
0.544976
0.00314509
0.278249
1.53429
1.06108
0.226809
0.239313
0.570725
1.89729
0.19082
0.234682
0.0249319
0.0837601
0.546903
1.19629
0.111642
0.842181
0.821306
0.785959
0.239829
0.231327
0.425516
0.692715
0.00319155
1.94175
0.66991
0.205015
0.00319069
0.592514
0.474481
0.294874
0.00317437
0.591407
0.00317258
0.243213
0.0912336
0.00319457
0.823344
0.347649
0.00310567
0.531877
0.373559
0.608905
0.258806
0.519385
0.279644
0.705983
0.169205
0.157387
0.00312932
0.00470829
0.343421
0.173406
0.0243146
0.00322962
0.354896
0.00604337
0.119786
0.11856
0.445756
0.207249
0.0574983
0.0943246
0.549422
1.63711
0.329528
4.11891
0.870198
0.00311844
0.541079
0.589078
1.67756
0.00312663
0.173387
0.00318786
0.0035916
0.27728
0.289798
0.0391321
0.00340826
0.806101
3.72625
0.00739247
0.00317653
0.129321
0.26304
0.0240212
0.074052
3.85308
0.140589
0.0033906
0.00317762
0.969226
0.262618
0.135719
0.0592929
0.651856
1.13165
0.392037
0.247355
0.679547
0.00317322
0.502317
0.00315978
0.231097
0.274217
5.38275
0.178327
0.0898091
0.00382911
1.18569
0.0031945
0.00313404
0.00585743
0.272527
0.287285
0.977149
0.00314931
0.507711
0.00317252
0.692937
0.97728
0.00320493
0.725387
0.225068
0.00317313
0.00330209
0.0319707
1.10735
0.383695
0.0264358
0.0031745
0.0031327
0.848848
0.685865
0.327466
0.753977
0.117761
0.438706
0.00314897
0.0103099
0.382907
0.810795
0.759524
0.0088761
0.00317631
0.397861
0.00319771
0.203648
0.805841
0.353961
0.0431424
0.200869
0.506444
0.157242
0.00316976
0.513361
1.33291
0.64822
0.00644099
0.0306077
0.690398
3.69258
0.05485
0.373721
0.00311028
0.0030866
0.00321469
0.0187783
0.40177
1.07559
0.0106733
0.220962
0.633984
1.23462
0.206222
0.0197133
0.0079666
0.00757989
0.158539
0.171371
0.236786
0.00322348
1.34467
0.00314333
0.0136508
0.844381
0.853047
0.0364536
0.372737
0.468158
0.00409997
0.130326
0.255684
0.0031548
0.00378136
1.12398
0.00365649
0.0032248
0.707211
0.23537
2.09315
0.209265
2.4132
0.00356024
0.00311456
3.24584
0.296049
0.225244
0.498447
0.0604046
0.232635
0.196505
1.0213
0.814701
0.588456
0.582169
0.233364
0.111227
0.321589
0.72851
0.0146494
0.351352
0.00392246
0.439655
0.366688
0.107071
0.384343
0.188559
0.413356
0.207948
0.262178
1.11067
0.459674
0.215609
0.317314
0.710853
0.326207
0.00421341
0.00315953
0.111001
2.22853
0.00316167
1.78898
0.00312464
0.0098979
0.340471
0.221509
0.820607
0.680632
0.902953
1.14005
0.522654
0.38628
0.00316724
0.290831
1.05827
0.00323919
1.24784
0.00714272
1.70953
0.940771
1.13402
0.274173
0.206241
0.283969
0.0918519
0.28453
1.23624
0.360735
0.780255
0.169828
0.203106
0.0853804
0.231787
0.954694
0.00955266
0.666503
0.00319427
0.0039339
0.300201
1.51846
0.338434
0.273869
0.164442
0.110686
0.121765
0.00346917
0.341079
0.00346718
0.70637
0.00341831
0.0580708
0.943397
0.171794
0.306311
0.334161
0.318442
0.00623966
0.00321491
0.0992482
0.266843
0.114831
0.517123
0.0424989
0.365999
0.240408
0.374544
0.791937
0.00359435
0.00314781
1.68921
0.226578
0.172016
0.811089
0.688282
0.81773
0.00987934
1.68544
0.335795
0.21318
0.00347803
0.196954
0.40371
0.205464
0.207747
0.266034
0.00323059
0.472975
0.00313414
0.628396
0.0106742
0.439934
0.118069
0.409646
0.00324326
6.5458
0.00319251
1.51067
0.0256339
0.00317523
0.0145937
0.274992
0.0031708
0.00318046
0.396921
0.0328118
0.32749
0.056988
0.00332665
0.218977
0.186484
0.445023
0.00334123
0.224019
0.189938
1.35632
0.707307
0.394662
0.415604
0.215744
0.30665
0.778723
0.832232
0.211252
0.00322413
0.145047
0.362392
0.306282
0.0047178
0.00856018
0.23432
1.57404
0.00318406
0.2063
1.23552
0.00305007
0.84974
0.935918
0.357315
0.594758
0.796973
0.259126
0.130054
2.59095
0.411594
0.885395
0.821885
0.222433
0.107513
0.0031663
0.420477
0.00587456
0.00321786
0.00313426
0.30048
0.00316628
0.00373377
0.537782
4.05844
0.40696
0.212653
0.833929
0.239592
0.00318234
0.165933
1.14395
0.025263
0.164366
1.01911
0.313002
0.125611
0.0312138
0.00314371
0.00316818
0.0272995
0.0449197
0.302824
0.299992
1.23642
0.26741
0.268776
0.0039555
0.503374
0.213619
0.0032118
0.342804
3.37891
0.0032085
0.362742
1.01679
0.739495
0.65623
0.189883
1.10333
0.00356308
0.210233
0.00331898
0.00633666
0.00320971
0.835226
0.568584
0.0741402
0.00319328
0.00307303
1.11331
0.386833
0.289232
0.235304
0.354578
0.43531
0.306092
0.349974
0.350035
0.0031772
0.151185
0.123621
0.136328
0.385293
1.0593
0.767829
0.59083
0.363228
1.11618
0.826556
0.963188
0.416022
0.881497
0.0647134
0.825371
0.393178
0.0281202
1.01268
0.855908
0.447215
0.0031141
0.00320084
0.00361083
0.00444259
0.472234
0.00304521
0.494347
0.165091
0.996387
0.76686
0.00317142
0.474281
0.283348
0.186883
0.276007
0.390345
0.552753
0.00326543
0.00319927
0.00911241
0.100531
0.00313252
0.637532
0.267333
0.253047
0.760443
0.514632
0.441393
0.532102
0.00316787
0.319243
0.669145
0.00381457
0.0789455
0.409222
0.315015
0.53763
0.193286
0.00325607
0.375569
0.358444
0.00385281
0.0204924
0.0031579
0.178787
0.00440687
0.14397
1.2876
0.111603
0.0735173
1.00147
1.81236
0.00326947
0.628967
0.00305226
0.224977
0.346935
0.247796
0.48421
0.691016
0.676948
0.802333
1.22354
0.746843
0.00317862
0.00314518
0.0531827
0.101389
0.606613
0.172314
0.0031937
1.58826
0.253985
0.00825343
0.788526
0.0587058
0.00816885
0.0403926
0.997813
0.00646973
0.003195
0.258377
0.205953
0.640884
0.11825
0.226223
0.202943
0.00321397
0.291333
0.0902796
0.0600346
0.00337581
0.20259
0.534401
0.173664
1.44936
1.33538
0.316585
0.413425
0.00316339
0.359716
0.0031951
2.73037
0.0103366
0.430728
0.0942403
0.840438
0.0163773
0.00933731
0.248386
0.30778
1.30284
0.00356464
0.212147
0.482239
0.609092
0.185546
0.999391
0.120689
0.00343511
0.00320506
0.479172
0.635635
1.06298
0.289466
0.084887
0.530372
0.328529
0.819078
0.0460131
0.00316921
0.00318277
0.12229
0.707422
0.689944
0.993147
0.00353339
0.0109609
0.167989
0.452391
0.268479
0.7592
0.349921
0.879227
0.00319888
0.00320957
1.13666
0.275257
0.885372
2.87803
0.359995
0.0246364
1.41156
0.00318407
1.02332
0.0277224
0.0308307
0.00317113
0.0418024
0.0845714
0.837387
0.7943
0.00322673
0.758405
0.00316013
0.60109
1.56612
0.00314505
0.157379
0.00322657
0.259035
0.127544
0.17471
0.00308787
0.262055
0.211772
0.257335
1.0237
0.170231
1.22481
0.217522
0.833573
0.23736
1.11765
0.638034
0.00384253
0.00320865
0.375457
0.195134
0.823757
0.00317726
2.11185
0.00315893
0.00478216
0.0389093
0.00316026
1.14232
0.974625
0.00324379
0.665487
0.256689
0.102531
0.709373
0.00608354
0.0031292
0.422963
0.38599
0.0097735
0.776475
6.66918
1.35835
0.155345
1.19734
0.104351
0.00318524
0.00368817
0.0351793
0.137071
0.844336
1.09012
1.31568
0.795704
0.531628
0.509213
0.257841
0.65206
1.94385
0.591111
0.0430513
0.0783248
0.278806
1.50669
0.00338241
0.194299
0.655495
0.333473
0.00317286
0.423945
0.00305911
0.0138657
0.843745
0.00338758
0.298122
1.84993
0.00318984
0.352642
0.00351438
0.337266
0.0141163
0.00406728
0.76711
0.25519
0.915578
0.39977
1.1207
1.64652
0.48966
0.175873
0.752204
0.388513
0.0031157
0.577475
0.058535
1.24009
0.284834