/*--------------------------------*- C++ -*----------------------------------*\
| =========                 |                                                 |
| \\      /  F ield         | OpenFOAM: The Open Source CFD Toolbox           |
|  \\    /   O peration     | Version:  2.3.1                                 |
|   \\  /    A nd           | Web:      www.OpenFOAM.org                      |
|    \\/     M anipulation  |                                                 |
\*---------------------------------------------------------------------------*/
FoamFile
{
    version     2.0;
    format      ascii;
    class       volScalarField;
    location    "0.76";
    object      epsilon;
}
// * * * * * * * * * * * * * * * * * * * * * * * * * * * * * * * * * * * * * //

dimensions      [0 2 -3 0 0 0 0];

internalField   nonuniform List<scalar> 
1000
(
0.000904567
0.000936629
0.000937484
0.000937454
0.000937437
0.000937431
0.000937423
0.000937419
0.000937325
0.00093467
0.000937787
0.000945371
0.000945939
0.000945954
0.000945952
0.000945947
0.000945934
0.000945904
0.000945322
0.000936091
0.000940415
0.000947984
0.00094866
0.000948698
0.000948704
0.000948694
0.000948671
0.000948624
0.000947939
0.000937738
0.000942497
0.000950791
0.000951573
0.000951655
0.000951678
0.000951671
0.000951634
0.000951559
0.000950793
0.000939941
0.000944674
0.000954214
0.000955127
0.000955257
0.000955297
0.000955289
0.00095526
0.000955142
0.000954295
0.000942224
0.000937002
0.000943554
0.000944184
0.000944273
0.000944301
0.000944314
0.000944317
0.000944304
0.000943819
0.000936051
0.000944431
0.000624297
0.000607298
0.000606564
0.000606513
0.000606489
0.000606472
0.000606955
0.000623156
0.000943036
0.000946467
0.000604433
0.000585835
0.000585091
0.000585072
0.000585069
0.000585072
0.000585648
0.000603531
0.000945043
0.000948438
0.000603728
0.000584982
0.000584239
0.000584224
0.000584222
0.00058423
0.000584819
0.000602939
0.00094703
0.000950683
0.000605611
0.000586738
0.000586071
0.000586094
0.000586096
0.000586071
0.000586595
0.000604895
0.000949312
0.000939368
0.000945229
0.000945852
0.000945936
0.00094597
0.000945987
0.000945994
0.00094598
0.000945443
0.000937212
0.000945814
0.000606965
0.000588578
0.000587813
0.000587777
0.000587761
0.000587751
0.000588301
0.000605943
0.000944529
0.000947603
0.000586241
0.000565958
0.000565123
0.000565103
0.000565101
0.000565109
0.000565759
0.000585257
0.000946353
0.000949331
0.000585614
0.00056516
0.000564324
0.000564307
0.000564307
0.000564314
0.000564973
0.000584683
0.000948066
0.00095145
0.000586672
0.00056608
0.000565275
0.000565276
0.000565276
0.000565269
0.0005659
0.000585781
0.000950192
0.000940325
0.000946133
0.000946729
0.000946798
0.000946828
0.000946845
0.000946851
0.000946835
0.000946294
0.000938031
0.000946585
0.00060508
0.000586673
0.00058593
0.000585903
0.000585893
0.000585891
0.000586455
0.000604242
0.000945284
0.000948166
0.000585244
0.000564935
0.000564101
0.00056408
0.000564079
0.000564089
0.000564744
0.000584321
0.000946928
0.000949686
0.000584701
0.000564242
0.000563406
0.000563389
0.000563388
0.000563396
0.000564054
0.000583794
0.000948427
0.000951616
0.000585259
0.000564698
0.00056387
0.000563859
0.000563858
0.00056386
0.000564512
0.000584368
0.000950346
0.000940842
0.000946626
0.000947201
0.000947258
0.000947283
0.000947296
0.000947301
0.000947281
0.000946739
0.000938453
0.000947031
0.000603817
0.000585397
0.00058466
0.000584635
0.00058463
0.000584635
0.00058521
0.000603073
0.000945686
0.000948489
0.000584983
0.000564719
0.000563889
0.000563868
0.000563867
0.000563878
0.000564533
0.000584103
0.000947228
0.00094989
0.000584515
0.000564135
0.000563305
0.000563288
0.000563287
0.000563296
0.000563949
0.000583634
0.000948615
0.000951691
0.000584868
0.000564442
0.000563616
0.0005636
0.0005636
0.000563605
0.000564255
0.000583994
0.0009504
0.000940922
0.000946875
0.000947455
0.000947509
0.000947531
0.000947542
0.000947545
0.00094752
0.000946964
0.000938487
0.000947137
0.000603061
0.000584636
0.000583909
0.000583891
0.000583891
0.000583903
0.000584485
0.000602396
0.000945763
0.000948603
0.000584892
0.000564663
0.000563839
0.000563819
0.00056382
0.000563831
0.000564485
0.000584048
0.000947325
0.000950032
0.000584492
0.00056417
0.000563348
0.000563332
0.000563332
0.00056334
0.000563989
0.00058364
0.000948743
0.000951854
0.00058481
0.000564485
0.000563669
0.000563655
0.000563655
0.000563659
0.000564301
0.000583957
0.000950548
0.0009406
0.000946966
0.000947573
0.000947627
0.000947647
0.000947654
0.000947653
0.000947621
0.000947037
0.000938135
0.000946923
0.000603044
0.000584634
0.000583909
0.000583891
0.000583891
0.000583903
0.000584484
0.000602393
0.000945521
0.000948543
0.000585027
0.000564828
0.000564008
0.000563989
0.00056399
0.000564
0.00056465
0.000584196
0.000947237
0.000950169
0.000584709
0.00056442
0.000563605
0.00056359
0.000563591
0.000563597
0.000564238
0.000583862
0.000948851
0.000952204
0.000585191
0.00056492
0.00056412
0.000564111
0.000564112
0.000564109
0.000564733
0.000584339
0.000950868
0.00093986
0.000946607
0.000947239
0.000947296
0.000947314
0.00094732
0.000947315
0.000947276
0.000946665
0.000937378
0.000946344
0.000603983
0.000585683
0.000584967
0.000584951
0.000584952
0.000584962
0.000585537
0.000603352
0.000944917
0.000948218
0.000586334
0.000566287
0.000565484
0.00056547
0.000565472
0.000565478
0.000566113
0.000585524
0.000946885
0.00095016
0.00058637
0.000566275
0.000565488
0.000565482
0.000565484
0.000565481
0.000566097
0.000585547
0.000948809
0.000952598
0.00058772
0.000567755
0.000567023
0.000567037
0.000567039
0.000567012
0.000567573
0.000586897
0.000951225
0.000938654
0.000945186
0.000945777
0.00094583
0.000945848
0.000945852
0.000945843
0.000945804
0.000945226
0.000936146
0.000944954
0.00062437
0.000607777
0.000607168
0.000607168
0.000607174
0.000607175
0.00060767
0.000623922
0.000943429
0.000947089
0.000609681
0.000591697
0.000591047
0.000591062
0.000591068
0.000591054
0.000591571
0.000609092
0.000945643
0.000949392
0.000612275
0.000594492
0.000593916
0.000593959
0.000593967
0.000593922
0.000594364
0.000611686
0.000947914
0.000952409
0.000619095
0.000602008
0.00060164
0.000601754
0.00060176
0.000601644
0.000601884
0.000618543
0.000950899
0.000934794
0.000935028
0.000935059
0.000935071
0.000935075
0.000935078
0.000935074
0.000935064
0.000934963
0.000932139
0.000936453
0.000942704
0.000943306
0.000943362
0.000943379
0.000943382
0.000943368
0.000943325
0.000942748
0.000933872
0.000938483
0.000945299
0.000946015
0.000946107
0.000946136
0.000946143
0.000946113
0.000946035
0.00094535
0.000935901
0.000941187
0.000948118
0.00094892
0.000949057
0.000949108
0.000949112
0.000949059
0.000948927
0.000948143
0.000938595
0.00094537
0.000952643
0.000953597
0.000953804
0.000953873
0.000953873
0.000953797
0.000953575
0.000952643
0.000942811
0.000954897
0.000964891
0.000966354
0.000966593
0.000966635
0.000966632
0.000966571
0.000966317
0.00096493
0.000952473
0.00098076
0.00106364
0.00107286
0.00106998
0.00106854
0.00106846
0.00106972
0.00107254
0.00106593
0.000979776
0.00126883
0.00237297
0.00248609
0.00242659
0.0024041
0.00240298
0.00242255
0.00248135
0.00240311
0.00128451
0.00367672
0.0134809
0.0147439
0.0144462
0.0143115
0.0143019
0.0144142
0.0147098
0.0137063
0.00381059
0.0158105
0.0689525
0.0775806
0.0778102
0.0776457
0.0776049
0.0776838
0.0774663
0.0699238
0.0163445
0.000956704
0.000633568
0.000617989
0.000617949
0.000618132
0.000618137
0.000617953
0.000617881
0.000633148
0.000955211
0.000962367
0.000677241
0.000666217
0.000666927
0.000667102
0.000667097
0.000666919
0.000666163
0.000677499
0.000961052
0.000997215
0.000955508
0.000966495
0.000961024
0.000958901
0.000958786
0.000960595
0.000966211
0.000960745
0.000997569
0.00158859
0.00652618
0.00681824
0.0062562
0.00606145
0.00605625
0.00623787
0.00680393
0.00665771
0.00161947
0.0259764
0.181921
0.200384
0.200528
0.200072
0.200001
0.200319
0.200315
0.184285
0.0270046
0.000954919
0.000590274
0.000570636
0.000570031
0.00057009
0.000570091
0.00057002
0.000570456
0.000589482
0.000953591
0.000958186
0.000594871
0.000575877
0.000575375
0.00057542
0.00057542
0.000575365
0.000575709
0.000594203
0.000956941
0.00096561
0.000665488
0.000654835
0.00065608
0.000656517
0.000656517
0.000656086
0.000654864
0.000666244
0.00096475
0.00131376
0.00454652
0.00484794
0.00482465
0.00481154
0.00481055
0.00482223
0.00485135
0.00461689
0.00133049
0.0276048
0.186884
0.200759
0.200611
0.200251
0.200219
0.200525
0.200912
0.189344
0.0286895
0.000953449
0.000585721
0.000565503
0.000564756
0.000564772
0.000564772
0.000564743
0.000565312
0.000584869
0.00095214
0.000956209
0.000585529
0.000565306
0.000564505
0.000564485
0.000564484
0.000564489
0.000565113
0.000584703
0.000954952
0.000960562
0.000634885
0.000619004
0.000618663
0.000618876
0.000618892
0.0006187
0.000619
0.000635142
0.000959617
0.00128195
0.00457962
0.00487944
0.00489327
0.00489239
0.0048921
0.00489311
0.00488701
0.00465121
0.00129743
0.0297506
0.203902
0.218133
0.218605
0.218482
0.21847
0.218592
0.218452
0.206713
0.0309709
0.000952626
0.000585018
0.000564703
0.000563926
0.000563932
0.000563932
0.000563914
0.000564515
0.000584164
0.000951327
0.000955208
0.000584389
0.000563988
0.000563146
0.000563118
0.000563117
0.00056313
0.000563797
0.000583542
0.000953945
0.000958522
0.00062589
0.000609547
0.000609306
0.000609543
0.000609558
0.000609356
0.000609555
0.000626045
0.000957511
0.00128469
0.00484284
0.00516477
0.00519837
0.00520644
0.00520657
0.00519999
0.0051767
0.00492316
0.00130096
0.0308329
0.211204
0.225717
0.226513
0.22652
0.226519
0.226542
0.226123
0.214182
0.0321251
0.000952465
0.00058536
0.000564895
0.000564117
0.000564127
0.000564127
0.000564106
0.00056471
0.000584492
0.000951179
0.000955258
0.000584837
0.000563985
0.00056312
0.000563092
0.00056309
0.000563107
0.000563796
0.000583973
0.000954001
0.000959003
0.000630413
0.000615381
0.000615711
0.000616066
0.000616075
0.00061575
0.000615404
0.000630655
0.000957985
0.00148403
0.00647182
0.0070191
0.00718611
0.0072452
0.0072463
0.00719342
0.00704312
0.00658337
0.00151075
0.031189
0.210169
0.224394
0.225195
0.22522
0.225222
0.225244
0.224837
0.213163
0.0325205
0.00095285
0.000586541
0.000565885
0.000565129
0.000565156
0.000565156
0.000565123
0.000565707
0.000585673
0.000951598
0.000956061
0.000586368
0.000564813
0.000563942
0.00056392
0.000563922
0.000563934
0.000564633
0.0005855
0.000954798
0.00096274
0.000651128
0.000638498
0.000640608
0.000641647
0.000641672
0.000640729
0.000638681
0.00065169
0.000961846
0.00179971
0.00722016
0.00788809
0.00826798
0.0084143
0.00841803
0.00828468
0.0079255
0.00732564
0.0018406
0.0313529
0.202385
0.215538
0.216286
0.216331
0.216336
0.216356
0.216007
0.205244
0.0327105
0.00095379
0.000588745
0.00056793
0.000567198
0.000567239
0.000567243
0.000567197
0.000567765
0.000587891
0.000952552
0.00095693
0.000591628
0.000569565
0.000568868
0.000568911
0.000568914
0.000568873
0.000569402
0.000590798
0.000955648
0.000970959
0.000672929
0.000660499
0.000663883
0.000665499
0.000665547
0.000664054
0.000660748
0.000673388
0.00097019
0.00196365
0.0048701
0.00529415
0.00546809
0.00553955
0.00554126
0.00547636
0.00531311
0.00493599
0.00199853
0.0301781
0.175604
0.186084
0.187158
0.187426
0.187438
0.187263
0.186536
0.177873
0.0314252
0.000954909
0.000607207
0.000587841
0.000587167
0.000587198
0.000587201
0.00058717
0.000587703
0.000606518
0.000953594
0.000956648
0.00062344
0.000603549
0.000603515
0.00060377
0.000603782
0.000603542
0.000603465
0.000622903
0.000955257
0.000980849
0.000725757
0.000712605
0.000714917
0.000716089
0.000716117
0.000715026
0.000712756
0.00072616
0.00098003
0.00140867
0.00325029
0.00347861
0.00352701
0.00354458
0.00354472
0.00352902
0.00348627
0.0032903
0.00142433
0.023282
0.110566
0.116302
0.117223
0.117543
0.117557
0.117304
0.116575
0.111727
0.0240334
0.000949173
0.000961722
0.000963218
0.000963537
0.000963661
0.000963674
0.000963544
0.000963288
0.000961914
0.000946674
0.000946429
0.000965424
0.00096751
0.000967796
0.000967881
0.000967883
0.00096782
0.000967596
0.000965626
0.000943894
0.000985844
0.00101644
0.00102049
0.00102158
0.00102192
0.00102191
0.00102164
0.00102056
0.00101691
0.000983715
0.00112332
0.00138421
0.00142661
0.00143403
0.00143625
0.0014363
0.00143428
0.0014278
0.00139003
0.00112592
0.00812734
0.017288
0.0179504
0.0181264
0.0181848
0.0181867
0.0181374
0.0179819
0.0174075
0.00825463
)
;

boundaryField
{
    walls
    {
        type            epsilonWallFunction;
        value           nonuniform List<scalar> 
500
(
0.000904567
0.000904567
0.000904567
0.000936629
0.000936629
0.000937484
0.000937484
0.000937454
0.000937454
0.000937437
0.000937437
0.000937431
0.000937431
0.000937423
0.000937423
0.000937419
0.000937419
0.000937325
0.000937325
0.00093467
0.00093467
0.00093467
0.000937787
0.000937787
0.000945371
0.000945939
0.000945954
0.000945952
0.000945947
0.000945934
0.000945904
0.000945322
0.000936091
0.000936091
0.000940415
0.000940415
0.000947984
0.00094866
0.000948698
0.000948704
0.000948694
0.000948671
0.000948624
0.000947939
0.000937738
0.000937738
0.000942497
0.000942497
0.000950791
0.000951573
0.000951655
0.000951678
0.000951671
0.000951634
0.000951559
0.000950793
0.000939941
0.000939941
0.000944674
0.000944674
0.000954214
0.000955127
0.000955257
0.000955297
0.000955289
0.00095526
0.000955142
0.000954295
0.000942224
0.000942224
0.000937002
0.000937002
0.000943554
0.000944184
0.000944273
0.000944301
0.000944314
0.000944317
0.000944304
0.000943819
0.000936051
0.000936051
0.000944431
0.000943036
0.000946467
0.000945043
0.000948438
0.00094703
0.000950683
0.000949312
0.000939368
0.000939368
0.000945229
0.000945852
0.000945936
0.00094597
0.000945987
0.000945994
0.00094598
0.000945443
0.000937212
0.000937212
0.000945814
0.000944529
0.000947603
0.000946353
0.000949331
0.000948066
0.00095145
0.000950192
0.000940325
0.000940325
0.000946133
0.000946729
0.000946798
0.000946828
0.000946845
0.000946851
0.000946835
0.000946294
0.000938031
0.000938031
0.000946585
0.000945284
0.000948166
0.000946928
0.000949686
0.000948427
0.000951616
0.000950346
0.000940842
0.000940842
0.000946626
0.000947201
0.000947258
0.000947283
0.000947296
0.000947301
0.000947281
0.000946739
0.000938453
0.000938453
0.000947031
0.000945686
0.000948489
0.000947228
0.00094989
0.000948615
0.000951691
0.0009504
0.000940922
0.000940922
0.000946875
0.000947455
0.000947509
0.000947531
0.000947542
0.000947545
0.00094752
0.000946964
0.000938487
0.000938487
0.000947137
0.000945763
0.000948603
0.000947325
0.000950032
0.000948743
0.000951854
0.000950548
0.0009406
0.0009406
0.000946966
0.000947573
0.000947627
0.000947647
0.000947654
0.000947653
0.000947621
0.000947037
0.000938135
0.000938135
0.000946923
0.000945521
0.000948543
0.000947237
0.000950169
0.000948851
0.000952204
0.000950868
0.00093986
0.00093986
0.000946607
0.000947239
0.000947296
0.000947314
0.00094732
0.000947315
0.000947276
0.000946665
0.000937378
0.000937378
0.000946344
0.000944917
0.000948218
0.000946885
0.00095016
0.000948809
0.000952598
0.000951225
0.000938654
0.000938654
0.000945186
0.000945777
0.00094583
0.000945848
0.000945852
0.000945843
0.000945804
0.000945226
0.000936146
0.000936146
0.000944954
0.000943429
0.000947089
0.000945643
0.000949392
0.000947914
0.000952409
0.000950899
0.000934794
0.000934794
0.000934794
0.000935028
0.000935028
0.000935059
0.000935059
0.000935071
0.000935071
0.000935075
0.000935075
0.000935078
0.000935078
0.000935074
0.000935074
0.000935064
0.000935064
0.000934963
0.000934963
0.000932139
0.000932139
0.000932139
0.000936453
0.000936453
0.000942704
0.000943306
0.000943362
0.000943379
0.000943382
0.000943368
0.000943325
0.000942748
0.000933872
0.000933872
0.000938483
0.000938483
0.000945299
0.000946015
0.000946107
0.000946136
0.000946143
0.000946113
0.000946035
0.00094535
0.000935901
0.000935901
0.000941187
0.000941187
0.000948118
0.00094892
0.000949057
0.000949108
0.000949112
0.000949059
0.000948927
0.000948143
0.000938595
0.000938595
0.00094537
0.00094537
0.000952643
0.000953597
0.000953804
0.000953873
0.000953873
0.000953797
0.000953575
0.000952643
0.000942811
0.000942811
0.000954897
0.000954897
0.000964891
0.000966354
0.000966593
0.000966635
0.000966632
0.000966571
0.000966317
0.00096493
0.000952473
0.000952473
0.00098076
0.00098076
0.00106364
0.00107286
0.00106998
0.00106854
0.00106846
0.00106972
0.00107254
0.00106593
0.000979776
0.000979776
0.00126883
0.00126883
0.00237297
0.00248609
0.00242659
0.0024041
0.00240298
0.00242255
0.00248135
0.00240311
0.00128451
0.00128451
0.00367672
0.00367672
0.0134809
0.0147439
0.0144462
0.0143115
0.0143019
0.0144142
0.0147098
0.0137063
0.00381059
0.00381059
0.0158105
0.0158105
0.0689525
0.0775806
0.0778102
0.0776457
0.0776049
0.0776838
0.0774663
0.0699238
0.0163445
0.0163445
0.000956704
0.000955211
0.000962367
0.000961052
0.000997215
0.000997569
0.00158859
0.00161947
0.0259764
0.0270046
0.000954919
0.000953591
0.000958186
0.000956941
0.00096561
0.00096475
0.00131376
0.00133049
0.0276048
0.0286895
0.000953449
0.00095214
0.000956209
0.000954952
0.000960562
0.000959617
0.00128195
0.00129743
0.0297506
0.0309709
0.000952626
0.000951327
0.000955208
0.000953945
0.000958522
0.000957511
0.00128469
0.00130096
0.0308329
0.0321251
0.000952465
0.000951179
0.000955258
0.000954001
0.000959003
0.000957985
0.00148403
0.00151075
0.031189
0.0325205
0.00095285
0.000951598
0.000956061
0.000954798
0.00096274
0.000961846
0.00179971
0.0018406
0.0313529
0.0327105
0.00095379
0.000952552
0.00095693
0.000955648
0.000970959
0.00097019
0.00196365
0.00199853
0.0301781
0.0314252
0.000954909
0.000953594
0.000956648
0.000955257
0.000980849
0.00098003
0.00140867
0.00142433
0.023282
0.0240334
0.000949173
0.000949173
0.000961722
0.000963218
0.000963537
0.000963661
0.000963674
0.000963544
0.000963288
0.000961914
0.000946674
0.000946674
0.000946429
0.000946429
0.000965424
0.00096751
0.000967796
0.000967881
0.000967883
0.00096782
0.000967596
0.000965626
0.000943894
0.000943894
0.000985844
0.000985844
0.00101644
0.00102049
0.00102158
0.00102192
0.00102191
0.00102164
0.00102056
0.00101691
0.000983715
0.000983715
0.00112332
0.00112332
0.00138421
0.00142661
0.00143403
0.00143625
0.0014363
0.00143428
0.0014278
0.00139003
0.00112592
0.00112592
0.00812734
0.00812734
0.017288
0.0179504
0.0181264
0.0181848
0.0181867
0.0181374
0.0179819
0.0174075
0.00825463
0.00825463
)
;
        Cmu             0.09;
        kappa           0.41;
        E               9.8;
    }
    lid
    {
        type            epsilonWallFunction;
        value           nonuniform List<scalar> 
100
(
0.0158105
0.0689525
0.0775806
0.0778102
0.0776457
0.0776049
0.0776838
0.0774663
0.0699238
0.0163445
0.0259764
0.181921
0.200384
0.200528
0.200072
0.200001
0.200319
0.200315
0.184285
0.0270046
0.0276048
0.186884
0.200759
0.200611
0.200251
0.200219
0.200525
0.200912
0.189344
0.0286895
0.0297506
0.203902
0.218133
0.218605
0.218482
0.21847
0.218592
0.218452
0.206713
0.0309709
0.0308329
0.211204
0.225717
0.226513
0.22652
0.226519
0.226542
0.226123
0.214182
0.0321251
0.031189
0.210169
0.224394
0.225195
0.22522
0.225222
0.225244
0.224837
0.213163
0.0325205
0.0313529
0.202385
0.215538
0.216286
0.216331
0.216336
0.216356
0.216007
0.205244
0.0327105
0.0301781
0.175604
0.186084
0.187158
0.187426
0.187438
0.187263
0.186536
0.177873
0.0314252
0.023282
0.110566
0.116302
0.117223
0.117543
0.117557
0.117304
0.116575
0.111727
0.0240334
0.00812734
0.017288
0.0179504
0.0181264
0.0181848
0.0181867
0.0181374
0.0179819
0.0174075
0.00825463
)
;
        Cmu             0.09;
        kappa           0.41;
        E               9.8;
    }
}


// ************************************************************************* //
