/*--------------------------------*- C++ -*----------------------------------*\
| =========                 |                                                 |
| \\      /  F ield         | OpenFOAM: The Open Source CFD Toolbox           |
|  \\    /   O peration     | Version:  2.3.1                                 |
|   \\  /    A nd           | Web:      www.OpenFOAM.org                      |
|    \\/     M anipulation  |                                                 |
\*---------------------------------------------------------------------------*/
FoamFile
{
    version     2.0;
    format      ascii;
    class       volScalarField;
    location    "0.76";
    object      k;
}
// * * * * * * * * * * * * * * * * * * * * * * * * * * * * * * * * * * * * * //

dimensions      [0 2 -2 0 0 0 0];

internalField   nonuniform List<scalar> 
1000
(
0.00232631
0.00238089
0.00238236
0.00238231
0.00238229
0.00238228
0.00238226
0.00238226
0.00238209
0.00237759
0.0023829
0.00239609
0.00239709
0.00239712
0.00239712
0.00239711
0.00239709
0.00239703
0.00239601
0.00238007
0.00238747
0.00240066
0.00240184
0.00240191
0.00240192
0.00240191
0.00240187
0.00240178
0.00240059
0.00238295
0.00239112
0.00240556
0.00240693
0.00240708
0.00240712
0.00240711
0.00240704
0.00240691
0.00240557
0.0023868
0.00239482
0.00241144
0.00241304
0.00241326
0.00241333
0.00241332
0.00241327
0.00241306
0.00241158
0.00239069
0.00238158
0.00239291
0.002394
0.00239415
0.0023942
0.00239422
0.00239422
0.0023942
0.00239335
0.00238
0.00239442
0.0027036
0.00272502
0.00272621
0.0027263
0.00272633
0.00272633
0.00272563
0.00270675
0.00239207
0.00239796
0.00272902
0.00275252
0.00275378
0.00275385
0.00275386
0.00275382
0.00275298
0.0027321
0.00239556
0.0024014
0.00273191
0.0027556
0.00275688
0.00275696
0.00275695
0.00275691
0.00275604
0.0027349
0.00239903
0.00240524
0.00273795
0.00276252
0.00276414
0.00276435
0.00276436
0.0027642
0.00276302
0.00274102
0.00240293
0.00238567
0.00239582
0.0023969
0.00239705
0.0023971
0.00239713
0.00239714
0.00239712
0.00239618
0.00238202
0.00239683
0.00272512
0.00274834
0.0027496
0.00274968
0.0027497
0.0027497
0.00274891
0.00272835
0.00239467
0.00239994
0.00275162
0.00277726
0.00277866
0.00277873
0.00277873
0.0027787
0.00277776
0.00275501
0.00239784
0.00240295
0.00275431
0.00278019
0.00278162
0.0027817
0.0027817
0.00278165
0.00278067
0.00275765
0.00240082
0.0024066
0.00275713
0.00278346
0.00278506
0.0027852
0.0027852
0.0027851
0.00278396
0.00276048
0.00240449
0.00238733
0.00239739
0.00239843
0.00239855
0.0023986
0.00239863
0.00239864
0.00239861
0.00239766
0.00238345
0.00239817
0.0027273
0.00275052
0.00275175
0.00275182
0.00275184
0.00275183
0.00275103
0.00273034
0.00239598
0.00240092
0.0027528
0.00277845
0.00277985
0.00277992
0.00277992
0.00277989
0.00277895
0.00275613
0.00239884
0.00240356
0.00275524
0.00278112
0.00278255
0.00278263
0.00278263
0.00278258
0.0027816
0.00275856
0.00240144
0.00240691
0.00275665
0.00278269
0.00278418
0.00278428
0.00278428
0.00278421
0.00278317
0.00275994
0.00240477
0.00238823
0.00239825
0.00239925
0.00239935
0.00239939
0.00239941
0.00239942
0.00239939
0.00239844
0.00238419
0.00239895
0.00272853
0.00275173
0.00275294
0.00275301
0.00275302
0.00275301
0.00275219
0.00273146
0.00239668
0.00240148
0.00275295
0.00277853
0.00277991
0.00277998
0.00277998
0.00277995
0.00277901
0.00275622
0.00239936
0.00240392
0.00275518
0.00278095
0.00278237
0.00278244
0.00278244
0.0027824
0.00278142
0.00275846
0.00240177
0.00240704
0.00275618
0.00278198
0.00278341
0.0027835
0.0027835
0.00278344
0.00278244
0.00275942
0.00240487
0.00238836
0.00239868
0.0023997
0.00239979
0.00239983
0.00239985
0.00239985
0.00239981
0.00239883
0.00238425
0.00239913
0.0027294
0.0027526
0.00275381
0.00275387
0.00275388
0.00275386
0.00275303
0.00273224
0.00239682
0.00240168
0.00275318
0.00277872
0.00278011
0.00278018
0.00278018
0.00278015
0.0027792
0.00275641
0.00239953
0.00240416
0.00275535
0.00278106
0.00278247
0.00278255
0.00278255
0.00278251
0.00278152
0.00275859
0.00240199
0.00240733
0.00275638
0.00278206
0.0027835
0.00278358
0.00278358
0.00278353
0.00278252
0.00275957
0.00240513
0.0023878
0.00239885
0.00239991
0.00240001
0.00240004
0.00240006
0.00240005
0.0024
0.00239897
0.00238363
0.00239876
0.00272975
0.00275296
0.00275418
0.00275424
0.00275424
0.00275422
0.00275338
0.00273257
0.00239639
0.00240158
0.00275351
0.00277905
0.00278044
0.00278052
0.00278052
0.00278049
0.00277952
0.00275672
0.00239938
0.0024044
0.00275581
0.00278151
0.00278294
0.00278303
0.00278303
0.00278298
0.00278197
0.00275902
0.00240218
0.00240793
0.0027572
0.00278293
0.0027844
0.0027845
0.00278451
0.00278443
0.00278337
0.00276036
0.00240568
0.00238651
0.00239824
0.00239934
0.00239944
0.00239948
0.00239949
0.00239948
0.00239941
0.00239834
0.00238232
0.00239775
0.002729
0.00275214
0.00275336
0.00275342
0.00275342
0.0027534
0.00275255
0.00273179
0.00239534
0.00240101
0.00275261
0.00277803
0.00277942
0.0027795
0.00277951
0.00277947
0.0027785
0.00275578
0.00239876
0.00240438
0.00275496
0.00278053
0.00278197
0.00278206
0.00278206
0.00278201
0.00278098
0.00275812
0.0024021
0.0024086
0.00275702
0.0027827
0.00278425
0.00278438
0.00278439
0.00278427
0.00278313
0.00276011
0.00240629
0.00238441
0.00239577
0.0023968
0.0023969
0.00239693
0.00239693
0.00239692
0.00239685
0.00239584
0.00238017
0.00239533
0.00270631
0.0027275
0.00272858
0.00272863
0.00272864
0.00272861
0.00272785
0.00270876
0.00239275
0.00239904
0.00272711
0.00275021
0.00275144
0.00275149
0.0027515
0.00275146
0.00275061
0.00272988
0.0023966
0.00240304
0.00272796
0.00275104
0.00275229
0.00275235
0.00275236
0.0027523
0.00275141
0.00273067
0.00240055
0.00240827
0.00272909
0.00275221
0.00275363
0.00275376
0.00275377
0.00275364
0.00275254
0.00273168
0.00240572
0.0023778
0.00237821
0.00237827
0.00237829
0.0023783
0.0023783
0.0023783
0.00237828
0.0023781
0.00237331
0.0023807
0.0023915
0.00239254
0.00239264
0.00239267
0.00239268
0.00239265
0.00239258
0.00239157
0.00237633
0.00238424
0.00239601
0.00239726
0.00239742
0.00239747
0.00239748
0.00239743
0.00239729
0.0023961
0.00237987
0.00238896
0.00240093
0.00240232
0.00240256
0.00240265
0.00240266
0.00240257
0.00240233
0.00240097
0.00238458
0.00239625
0.00240884
0.00241051
0.00241087
0.00241099
0.00241099
0.00241086
0.00241047
0.00240884
0.00239194
0.00241286
0.00243089
0.00243355
0.00243395
0.00243401
0.00243401
0.00243391
0.00243348
0.00243099
0.0024088
0.00246007
0.00261409
0.00263153
0.00262607
0.00262337
0.00262323
0.0026256
0.00263096
0.00261833
0.00245871
0.00295604
0.00461924
0.00477972
0.00469902
0.00466808
0.00466654
0.00469349
0.00477341
0.00466036
0.00298244
0.00612048
0.0148639
0.0158208
0.0156084
0.01551
0.0155031
0.0155851
0.0157969
0.0150311
0.00627138
0.0161432
0.043726
0.0473902
0.0474921
0.0474243
0.0474077
0.0474409
0.0473458
0.0441373
0.016508
0.00241581
0.00272828
0.00275095
0.00275237
0.00275247
0.00275246
0.00275236
0.00275122
0.00273073
0.0024133
0.00242579
0.00278113
0.00281117
0.00281424
0.00281436
0.00281435
0.00281423
0.00281157
0.00278474
0.00242361
0.00248821
0.00322575
0.00329883
0.00330244
0.00330192
0.00330179
0.00330201
0.00329935
0.00323576
0.00248906
0.00344245
0.00696555
0.00719484
0.00695879
0.00687532
0.00687262
0.00695003
0.00718895
0.0070415
0.00348865
0.0224945
0.0829159
0.0885379
0.0885992
0.0884689
0.0884484
0.0885389
0.088521
0.0836281
0.0230842
0.0024127
0.00275924
0.00278535
0.00278715
0.00278739
0.00278739
0.00278717
0.00278577
0.00276232
0.00241047
0.0024184
0.00276165
0.00278802
0.00278979
0.00278987
0.00278987
0.00278981
0.00278845
0.00276491
0.00241631
0.00243153
0.00289432
0.00294037
0.00294831
0.00295002
0.00295005
0.00294844
0.00294138
0.00290015
0.00243012
0.00301405
0.00577191
0.00599276
0.00599625
0.00599384
0.00599336
0.00599533
0.00599595
0.00581645
0.00304056
0.0234193
0.0844499
0.0886595
0.0886217
0.0885154
0.0885059
0.0885972
0.0887068
0.0851846
0.0240285
0.00241014
0.00275884
0.002785
0.00278667
0.00278685
0.00278685
0.00278669
0.00278544
0.00276202
0.00240794
0.00241498
0.00275643
0.00278211
0.00278353
0.00278358
0.00278358
0.00278355
0.00278254
0.00275963
0.00241287
0.00242273
0.00281923
0.00285101
0.00285377
0.00285431
0.00285433
0.00285387
0.00285173
0.00282376
0.00242118
0.00296294
0.00562639
0.00582983
0.00584482
0.00584654
0.00584644
0.00584498
0.00583488
0.00567028
0.00298766
0.0246432
0.0895522
0.0937484
0.0938917
0.0938571
0.0938538
0.0938886
0.0938413
0.0903669
0.025312
0.0024087
0.00275752
0.00278361
0.00278521
0.00278537
0.00278537
0.00278524
0.00278407
0.00276074
0.00240651
0.00241326
0.0027548
0.0027804
0.00278176
0.0027818
0.00278179
0.00278177
0.00278084
0.00275801
0.00241114
0.00241913
0.00280284
0.00283293
0.00283512
0.00283549
0.0028355
0.00283521
0.00283359
0.00280713
0.00241746
0.00296974
0.00567189
0.00587244
0.00589189
0.0058963
0.00589639
0.00589274
0.00587905
0.00571835
0.00299584
0.0252485
0.091671
0.0958986
0.0961322
0.0961348
0.0961346
0.0961408
0.0960147
0.0925235
0.0259484
0.00240842
0.002758
0.00278438
0.00278604
0.00278621
0.00278621
0.00278607
0.00278487
0.00276129
0.00240626
0.00241335
0.00275448
0.00278056
0.00278197
0.00278201
0.00278201
0.00278199
0.00278103
0.00275776
0.00241124
0.00242
0.00280646
0.00283823
0.00284094
0.0028414
0.00284141
0.00284102
0.00283892
0.00281086
0.00241832
0.00328645
0.00642005
0.00671401
0.00679283
0.00682039
0.00682093
0.00679625
0.0067258
0.00647811
0.00332736
0.0254483
0.0913285
0.0954749
0.0957094
0.0957171
0.0957177
0.0957234
0.0956018
0.0921862
0.0261665
0.0024091
0.00276063
0.00278761
0.00278943
0.00278967
0.00278967
0.00278948
0.00278813
0.00276402
0.00240699
0.00241474
0.00275578
0.00278299
0.0027846
0.00278467
0.00278467
0.00278464
0.00278352
0.00275917
0.00241262
0.00242663
0.00284344
0.00288089
0.00288612
0.00288745
0.00288748
0.0028863
0.00288179
0.00284846
0.00242518
0.003751
0.00689708
0.00726775
0.00744949
0.00751904
0.00752082
0.00745739
0.00728623
0.00695327
0.00380901
0.0255348
0.0889318
0.0928045
0.0930272
0.0930416
0.0930428
0.0930477
0.0929401
0.0897578
0.026264
0.00241076
0.00276385
0.0027914
0.00279339
0.00279368
0.00279369
0.00279345
0.00279198
0.00276735
0.00240868
0.00241621
0.00276613
0.00279657
0.00279908
0.00279938
0.00279938
0.00279916
0.00279718
0.00276981
0.00241406
0.00244092
0.00293492
0.00298211
0.00299116
0.0029939
0.00299398
0.00299144
0.00298338
0.00294087
0.00243968
0.00395513
0.00590583
0.00620764
0.00631363
0.00635583
0.00635684
0.00631843
0.00621934
0.00594651
0.00400156
0.0248395
0.0805448
0.0837583
0.0840932
0.0841787
0.0841827
0.0841253
0.083894
0.0812257
0.0255127
0.00241274
0.00274662
0.00277244
0.00277426
0.0027745
0.00277451
0.00277433
0.002773
0.00274985
0.00241053
0.00241564
0.00279153
0.00282747
0.00283217
0.00283321
0.00283324
0.0028323
0.00282827
0.00279561
0.00241331
0.00245763
0.0030577
0.00311166
0.00312226
0.0031256
0.00312567
0.00312258
0.00311303
0.00306366
0.0024563
0.00315222
0.00504788
0.00529436
0.00532676
0.00533611
0.00533611
0.00532787
0.00530019
0.00507976
0.00317611
0.0207654
0.0588351
0.0608768
0.0612027
0.0613157
0.0613204
0.061231
0.0609716
0.0592395
0.0212033
0.00240297
0.00242467
0.00242726
0.00242782
0.00242803
0.00242806
0.00242783
0.00242738
0.002425
0.00239876
0.00239793
0.00243097
0.00243462
0.00243512
0.00243527
0.00243527
0.00243516
0.00243477
0.00243133
0.00239366
0.00246585
0.0025181
0.002525
0.00252684
0.00252742
0.0025274
0.00252694
0.00252511
0.00251889
0.00246232
0.00269772
0.00311586
0.00318162
0.003193
0.00319638
0.00319644
0.00319337
0.00318342
0.00312476
0.00270212
0.0102074
0.0169676
0.0174063
0.0175224
0.0175606
0.0175619
0.0175295
0.0174268
0.0170456
0.0103131
)
;

boundaryField
{
    walls
    {
        type            kqRWallFunction;
        value           nonuniform List<scalar> 
500
(
0.00232631
0.00232631
0.00232631
0.00238089
0.00238089
0.00238236
0.00238236
0.00238231
0.00238231
0.00238229
0.00238229
0.00238228
0.00238228
0.00238226
0.00238226
0.00238226
0.00238226
0.00238209
0.00238209
0.00237759
0.00237759
0.00237759
0.0023829
0.0023829
0.00239609
0.00239709
0.00239712
0.00239712
0.00239711
0.00239709
0.00239703
0.00239601
0.00238007
0.00238007
0.00238747
0.00238747
0.00240066
0.00240184
0.00240191
0.00240192
0.00240191
0.00240187
0.00240178
0.00240059
0.00238295
0.00238295
0.00239112
0.00239112
0.00240556
0.00240693
0.00240708
0.00240712
0.00240711
0.00240704
0.00240691
0.00240557
0.0023868
0.0023868
0.00239482
0.00239482
0.00241144
0.00241304
0.00241326
0.00241333
0.00241332
0.00241327
0.00241306
0.00241158
0.00239069
0.00239069
0.00238158
0.00238158
0.00239291
0.002394
0.00239415
0.0023942
0.00239422
0.00239422
0.0023942
0.00239335
0.00238
0.00238
0.00239442
0.00239207
0.00239796
0.00239556
0.0024014
0.00239903
0.00240524
0.00240293
0.00238567
0.00238567
0.00239582
0.0023969
0.00239705
0.0023971
0.00239713
0.00239714
0.00239712
0.00239618
0.00238202
0.00238202
0.00239683
0.00239467
0.00239994
0.00239784
0.00240295
0.00240082
0.0024066
0.00240449
0.00238733
0.00238733
0.00239739
0.00239843
0.00239855
0.0023986
0.00239863
0.00239864
0.00239861
0.00239766
0.00238345
0.00238345
0.00239817
0.00239598
0.00240092
0.00239884
0.00240356
0.00240144
0.00240691
0.00240477
0.00238823
0.00238823
0.00239825
0.00239925
0.00239935
0.00239939
0.00239941
0.00239942
0.00239939
0.00239844
0.00238419
0.00238419
0.00239895
0.00239668
0.00240148
0.00239936
0.00240392
0.00240177
0.00240704
0.00240487
0.00238836
0.00238836
0.00239868
0.0023997
0.00239979
0.00239983
0.00239985
0.00239985
0.00239981
0.00239883
0.00238425
0.00238425
0.00239913
0.00239682
0.00240168
0.00239953
0.00240416
0.00240199
0.00240733
0.00240513
0.0023878
0.0023878
0.00239885
0.00239991
0.00240001
0.00240004
0.00240006
0.00240005
0.0024
0.00239897
0.00238363
0.00238363
0.00239876
0.00239639
0.00240158
0.00239938
0.0024044
0.00240218
0.00240793
0.00240568
0.00238651
0.00238651
0.00239824
0.00239934
0.00239944
0.00239948
0.00239949
0.00239948
0.00239941
0.00239834
0.00238232
0.00238232
0.00239775
0.00239534
0.00240101
0.00239876
0.00240438
0.0024021
0.0024086
0.00240629
0.00238441
0.00238441
0.00239577
0.0023968
0.0023969
0.00239693
0.00239693
0.00239692
0.00239685
0.00239584
0.00238017
0.00238017
0.00239533
0.00239275
0.00239904
0.0023966
0.00240304
0.00240055
0.00240827
0.00240572
0.0023778
0.0023778
0.0023778
0.00237821
0.00237821
0.00237827
0.00237827
0.00237829
0.00237829
0.0023783
0.0023783
0.0023783
0.0023783
0.0023783
0.0023783
0.00237828
0.00237828
0.0023781
0.0023781
0.00237331
0.00237331
0.00237331
0.0023807
0.0023807
0.0023915
0.00239254
0.00239264
0.00239267
0.00239268
0.00239265
0.00239258
0.00239157
0.00237633
0.00237633
0.00238424
0.00238424
0.00239601
0.00239726
0.00239742
0.00239747
0.00239748
0.00239743
0.00239729
0.0023961
0.00237987
0.00237987
0.00238896
0.00238896
0.00240093
0.00240232
0.00240256
0.00240265
0.00240266
0.00240257
0.00240233
0.00240097
0.00238458
0.00238458
0.00239625
0.00239625
0.00240884
0.00241051
0.00241087
0.00241099
0.00241099
0.00241086
0.00241047
0.00240884
0.00239194
0.00239194
0.00241286
0.00241286
0.00243089
0.00243355
0.00243395
0.00243401
0.00243401
0.00243391
0.00243348
0.00243099
0.0024088
0.0024088
0.00246007
0.00246007
0.00261409
0.00263153
0.00262607
0.00262337
0.00262323
0.0026256
0.00263096
0.00261833
0.00245871
0.00245871
0.00295604
0.00295604
0.00461924
0.00477972
0.00469902
0.00466808
0.00466654
0.00469349
0.00477341
0.00466036
0.00298244
0.00298244
0.00612048
0.00612048
0.0148639
0.0158208
0.0156084
0.01551
0.0155031
0.0155851
0.0157969
0.0150311
0.00627138
0.00627138
0.0161432
0.0161432
0.043726
0.0473902
0.0474921
0.0474243
0.0474077
0.0474409
0.0473458
0.0441373
0.016508
0.016508
0.00241581
0.0024133
0.00242579
0.00242361
0.00248821
0.00248906
0.00344245
0.00348865
0.0224945
0.0230842
0.0024127
0.00241047
0.0024184
0.00241631
0.00243153
0.00243012
0.00301405
0.00304056
0.0234193
0.0240285
0.00241014
0.00240794
0.00241498
0.00241287
0.00242273
0.00242118
0.00296294
0.00298766
0.0246432
0.025312
0.0024087
0.00240651
0.00241326
0.00241114
0.00241913
0.00241746
0.00296974
0.00299584
0.0252485
0.0259484
0.00240842
0.00240626
0.00241335
0.00241124
0.00242
0.00241832
0.00328645
0.00332736
0.0254483
0.0261665
0.0024091
0.00240699
0.00241474
0.00241262
0.00242663
0.00242518
0.003751
0.00380901
0.0255348
0.026264
0.00241076
0.00240868
0.00241621
0.00241406
0.00244092
0.00243968
0.00395513
0.00400156
0.0248395
0.0255127
0.00241274
0.00241053
0.00241564
0.00241331
0.00245763
0.0024563
0.00315222
0.00317611
0.0207654
0.0212033
0.00240297
0.00240297
0.00242467
0.00242726
0.00242782
0.00242803
0.00242806
0.00242783
0.00242738
0.002425
0.00239876
0.00239876
0.00239793
0.00239793
0.00243097
0.00243462
0.00243512
0.00243527
0.00243527
0.00243516
0.00243477
0.00243133
0.00239366
0.00239366
0.00246585
0.00246585
0.0025181
0.002525
0.00252684
0.00252742
0.0025274
0.00252694
0.00252511
0.00251889
0.00246232
0.00246232
0.00269772
0.00269772
0.00311586
0.00318162
0.003193
0.00319638
0.00319644
0.00319337
0.00318342
0.00312476
0.00270212
0.00270212
0.0102074
0.0102074
0.0169676
0.0174063
0.0175224
0.0175606
0.0175619
0.0175295
0.0174268
0.0170456
0.0103131
0.0103131
)
;
    }
    lid
    {
        type            kqRWallFunction;
        value           nonuniform List<scalar> 
100
(
0.0161432
0.043726
0.0473902
0.0474921
0.0474243
0.0474077
0.0474409
0.0473458
0.0441373
0.016508
0.0224945
0.0829159
0.0885379
0.0885992
0.0884689
0.0884484
0.0885389
0.088521
0.0836281
0.0230842
0.0234193
0.0844499
0.0886595
0.0886217
0.0885154
0.0885059
0.0885972
0.0887068
0.0851846
0.0240285
0.0246432
0.0895522
0.0937484
0.0938917
0.0938571
0.0938538
0.0938886
0.0938413
0.0903669
0.025312
0.0252485
0.091671
0.0958986
0.0961322
0.0961348
0.0961346
0.0961408
0.0960147
0.0925235
0.0259484
0.0254483
0.0913285
0.0954749
0.0957094
0.0957171
0.0957177
0.0957234
0.0956018
0.0921862
0.0261665
0.0255348
0.0889318
0.0928045
0.0930272
0.0930416
0.0930428
0.0930477
0.0929401
0.0897578
0.026264
0.0248395
0.0805448
0.0837583
0.0840932
0.0841787
0.0841827
0.0841253
0.083894
0.0812257
0.0255127
0.0207654
0.0588351
0.0608768
0.0612027
0.0613157
0.0613204
0.061231
0.0609716
0.0592395
0.0212033
0.0102074
0.0169676
0.0174063
0.0175224
0.0175606
0.0175619
0.0175295
0.0174268
0.0170456
0.0103131
)
;
    }
}


// ************************************************************************* //
