/*--------------------------------*- C++ -*----------------------------------*\
| =========                 |                                                 |
| \\      /  F ield         | OpenFOAM: The Open Source CFD Toolbox           |
|  \\    /   O peration     | Version:  2.3.1                                 |
|   \\  /    A nd           | Web:      www.OpenFOAM.org                      |
|    \\/     M anipulation  |                                                 |
\*---------------------------------------------------------------------------*/
FoamFile
{
    version     2.0;
    format      ascii;
    class       volScalarField;
    location    "0.76";
    object      nut;
}
// * * * * * * * * * * * * * * * * * * * * * * * * * * * * * * * * * * * * * //

dimensions      [0 2 -1 0 0 0 0];

internalField   nonuniform List<scalar> 
1000
(
0.000538439
0.000544695
0.000544872
0.000544867
0.000544864
0.000544863
0.000544861
0.000544861
0.000544841
0.000544323
0.000544941
0.000546572
0.000546699
0.000546703
0.000546703
0.000546702
0.0005467
0.000546693
0.000546565
0.000544634
0.000545505
0.000547144
0.000547295
0.000547304
0.000547306
0.000547304
0.000547299
0.000547288
0.000547137
0.000544992
0.000545965
0.00054776
0.000547934
0.000547953
0.000547959
0.000547958
0.00054795
0.000547932
0.000547763
0.000545475
0.000546395
0.000548465
0.000548668
0.000548696
0.000548704
0.000548703
0.000548696
0.000548671
0.000548483
0.000545926
0.000544793
0.000546169
0.000546303
0.000546321
0.000546326
0.000546329
0.000546329
0.000546326
0.000546221
0.000544622
0.000546354
0.00105375
0.00110048
0.00110277
0.00110294
0.001103
0.00110304
0.00110159
0.00105814
0.000546087
0.000546792
0.00110894
0.00116393
0.00116648
0.00116658
0.00116659
0.00116655
0.0011647
0.00111311
0.000546521
0.00054722
0.00111258
0.00116824
0.00117082
0.00117091
0.00117091
0.00117086
0.00116894
0.00111648
0.000546952
0.000547678
0.00111404
0.0011706
0.00117331
0.00117344
0.00117344
0.00117336
0.00117131
0.00111786
0.000547416
0.000545289
0.00054653
0.000546664
0.000546681
0.000546687
0.000546691
0.000546692
0.000546688
0.000546571
0.000544874
0.000546654
0.00110116
0.00115499
0.00115755
0.0011577
0.00115775
0.00115776
0.00115602
0.00110564
0.000546408
0.000547039
0.00116236
0.00122657
0.00122962
0.00122973
0.00122973
0.00122969
0.00122744
0.00116719
0.000546801
0.000547411
0.00116588
0.00123089
0.00123398
0.00123409
0.00123409
0.00123404
0.00123173
0.00117057
0.00054717
0.000547855
0.00116617
0.00123178
0.00123496
0.00123508
0.00123508
0.001235
0.00123262
0.00117078
0.000547616
0.000545492
0.000546724
0.000546852
0.000546867
0.000546873
0.000546876
0.000546877
0.000546873
0.000546755
0.000545051
0.00054682
0.00110636
0.00116058
0.00116309
0.00116321
0.00116324
0.00116324
0.00116144
0.00111037
0.000546571
0.00054716
0.00116534
0.00122985
0.0012329
0.00123301
0.00123301
0.00123296
0.0012307
0.00117001
0.000546925
0.000547486
0.0011685
0.00123372
0.00123682
0.00123693
0.00123693
0.00123687
0.00123456
0.00117313
0.000547247
0.000547898
0.00116857
0.00123412
0.00123725
0.00123736
0.00123736
0.0012373
0.00123495
0.00117316
0.000547656
0.000545602
0.000546829
0.000546954
0.000546966
0.000546971
0.000546974
0.000546975
0.00054697
0.000546851
0.000545143
0.000546916
0.00110967
0.00116413
0.00116663
0.00116674
0.00116676
0.00116674
0.0011649
0.00111342
0.000546658
0.00054723
0.00116599
0.00123038
0.00123342
0.00123353
0.00123353
0.00123348
0.00123121
0.00117053
0.00054699
0.00054753
0.00116882
0.0012338
0.00123688
0.00123699
0.00123699
0.00123693
0.00123463
0.00117337
0.000547288
0.000547916
0.00116896
0.00123404
0.00123713
0.00123724
0.00123724
0.00123718
0.00123486
0.00117347
0.000547671
0.000545619
0.000546884
0.000547011
0.000547023
0.000547027
0.000547029
0.00054703
0.000547024
0.000546902
0.000545151
0.000546938
0.00111177
0.00116639
0.00116887
0.00116896
0.00116896
0.00116892
0.00116705
0.00111532
0.000546676
0.000547255
0.00116637
0.00123067
0.0012337
0.00123381
0.00123381
0.00123376
0.00123148
0.0011708
0.000547011
0.000547561
0.00116901
0.00123382
0.00123688
0.00123699
0.00123699
0.00123693
0.00123463
0.00117347
0.000547315
0.000547951
0.00116924
0.00123403
0.00123709
0.00123719
0.00123719
0.00123713
0.00123483
0.00117367
0.000547703
0.000545549
0.000546909
0.000547042
0.000547054
0.000547059
0.00054706
0.000547059
0.000547052
0.000546923
0.000545075
0.000546892
0.00111209
0.0011667
0.00116918
0.00116927
0.00116927
0.00116923
0.00116735
0.00111559
0.000546623
0.00054724
0.00116638
0.00123061
0.00123363
0.00123374
0.00123374
0.00123369
0.00123141
0.00117077
0.000546991
0.000547589
0.00116896
0.00123367
0.00123673
0.00123684
0.00123684
0.00123678
0.00123449
0.00117339
0.000547338
0.000548023
0.00116918
0.00123384
0.0012369
0.00123701
0.00123701
0.00123695
0.00123464
0.00117357
0.000547769
0.000545389
0.000546837
0.000546976
0.000546989
0.000546993
0.000546994
0.000546992
0.000546983
0.000546849
0.000544912
0.000546766
0.00110975
0.00116391
0.00116637
0.00116645
0.00116645
0.00116641
0.00116455
0.00111319
0.000546493
0.000547169
0.00116302
0.00122653
0.00122951
0.00122961
0.00122961
0.00122956
0.00122732
0.00116731
0.000546915
0.000547586
0.00116493
0.00122877
0.00123175
0.00123185
0.00123185
0.0012318
0.00122955
0.00116925
0.000547328
0.000548104
0.001164
0.00122748
0.00123043
0.00123052
0.00123052
0.00123048
0.00122825
0.00116824
0.000547843
0.000545128
0.000546531
0.000546661
0.000546673
0.000546677
0.000546678
0.000546675
0.000546666
0.000546539
0.000544645
0.000546464
0.00105573
0.00110161
0.00110359
0.00110363
0.00110362
0.0011036
0.00110209
0.00105841
0.00054617
0.000546923
0.00109786
0.00115047
0.00115276
0.00115278
0.00115277
0.00115277
0.00115105
0.00110115
0.000546645
0.000547417
0.00109389
0.00114575
0.0011479
0.00114787
0.00114786
0.00114791
0.0011463
0.00109712
0.000547134
0.000548061
0.00108273
0.00113241
0.00113428
0.00113417
0.00113416
0.00113427
0.00113292
0.00108576
0.000547772
0.00054435
0.000544403
0.00054441
0.000544412
0.000544413
0.000544414
0.000544413
0.000544411
0.000544389
0.000543837
0.00054471
0.000546017
0.000546147
0.000546159
0.000546163
0.000546163
0.00054616
0.00054615
0.000546025
0.000544213
0.000545151
0.000546577
0.000546732
0.000546752
0.000546759
0.00054676
0.000546753
0.000546736
0.000546587
0.000544654
0.000545738
0.00054719
0.000547363
0.000547394
0.000547406
0.000547406
0.000547395
0.000547365
0.000547195
0.00054524
0.000546646
0.000548186
0.000548396
0.000548443
0.000548458
0.000548458
0.000548441
0.000548392
0.000548187
0.000546157
0.000548719
0.000551182
0.000551551
0.000551597
0.000551601
0.000551601
0.000551592
0.000551543
0.000551205
0.000548268
0.00055536
0.000578214
0.000580923
0.000580073
0.000579659
0.000579638
0.000579999
0.000580842
0.000578844
0.000555303
0.000619814
0.000809268
0.000827049
0.000818953
0.00081577
0.000815608
0.000818393
0.000826443
0.000813407
0.000623231
0.000916967
0.001475
0.00152788
0.00151776
0.0015128
0.00151246
0.0015166
0.0015268
0.00148355
0.000928915
0.00148346
0.00249559
0.00260535
0.00260885
0.00260692
0.00260646
0.00260747
0.00260431
0.00250744
0.00150058
0.000549022
0.00105737
0.00110211
0.00110333
0.00110307
0.00110306
0.00110331
0.00110252
0.00105998
0.000548739
0.000550313
0.00102788
0.00106758
0.00106878
0.00106859
0.00106858
0.00106878
0.00106797
0.00103016
0.000550073
0.000558765
0.000980096
0.00101336
0.00102136
0.0010233
0.00102334
0.00102155
0.00101397
0.000980816
0.000558946
0.000671376
0.000669105
0.000683301
0.000696625
0.000701862
0.000701913
0.000696914
0.000683618
0.000670267
0.00067637
0.00175314
0.00340122
0.00352078
0.00352312
0.00352077
0.00352038
0.003522
0.00352064
0.00341552
0.00177597
0.000548633
0.00116083
0.00122361
0.0012265
0.00122657
0.00122657
0.00122653
0.00122436
0.00116498
0.000548382
0.000549348
0.00115387
0.0012148
0.0012174
0.00121738
0.00121738
0.00121744
0.00121553
0.0011579
0.000549113
0.000551059
0.00113291
0.00118827
0.00119243
0.00119302
0.00119304
0.00119252
0.00118903
0.00113619
0.000550913
0.000622338
0.000659482
0.000666714
0.000670711
0.000671998
0.000672029
0.000670844
0.000666953
0.000659491
0.000625371
0.00178815
0.00343454
0.00352386
0.00352345
0.00352131
0.00352113
0.003523
0.00352492
0.00344915
0.00181122
0.000548313
0.00116951
0.00123441
0.00123752
0.00123765
0.00123765
0.00123757
0.00123521
0.00117391
0.000548065
0.000548932
0.00116785
0.00123227
0.00123529
0.00123537
0.00123537
0.00123533
0.00123307
0.00117222
0.000548694
0.000549957
0.0011267
0.00118181
0.00118475
0.00118479
0.00118478
0.00118476
0.00118242
0.00112986
0.000549792
0.000616337
0.000622118
0.00062688
0.000628326
0.000628811
0.000628826
0.000628381
0.000626993
0.000622136
0.000619184
0.00183714
0.00353975
0.00362618
0.00362942
0.00362879
0.00362873
0.00362939
0.00362807
0.00355545
0.00186184
0.000548132
0.0011698
0.00123492
0.00123805
0.00123818
0.00123818
0.0012381
0.00123574
0.00117425
0.000547885
0.000548722
0.00116875
0.00123364
0.00123669
0.00123678
0.00123678
0.00123673
0.00123445
0.00117318
0.000548483
0.000549487
0.00112964
0.00118497
0.00118727
0.00118712
0.0011871
0.00118725
0.00118551
0.00113282
0.000549309
0.000617845
0.000597858
0.000600935
0.000601014
0.00060098
0.000600984
0.000601001
0.000600903
0.000597777
0.000620894
0.0018608
0.003581
0.00366692
0.00367186
0.00367195
0.00367194
0.00367205
0.00366922
0.0035972
0.00188634
0.000548098
0.00116953
0.00123519
0.00123836
0.0012385
0.0012385
0.00123841
0.00123602
0.00117406
0.000547854
0.000548735
0.00116758
0.00123378
0.00123693
0.00123703
0.00123703
0.00123698
0.00123461
0.00117209
0.000548499
0.000549607
0.00112443
0.00117813
0.00117975
0.00117945
0.00117944
0.00117974
0.00117866
0.00112753
0.000549428
0.000655019
0.000573183
0.000577997
0.000577895
0.000577845
0.000577847
0.00057789
0.000578049
0.000573708
0.000659553
0.00186878
0.00357179
0.00365603
0.00366094
0.00366111
0.00366114
0.00366122
0.00365852
0.00358808
0.00189486
0.000548183
0.00116939
0.00123589
0.00123916
0.00123931
0.00123931
0.00123921
0.00123674
0.00117401
0.000547947
0.000548904
0.00116563
0.00123414
0.00123747
0.00123757
0.00123757
0.00123752
0.00123499
0.00117023
0.000548667
0.00055048
0.00111754
0.00116986
0.00117025
0.00116943
0.00116941
0.00117018
0.00117027
0.00112052
0.000550334
0.000703613
0.000592961
0.000602657
0.000604082
0.000604713
0.000604732
0.000604144
0.000602867
0.000593985
0.000709427
0.00187166
0.00351705
0.00359631
0.00360108
0.00360146
0.00360147
0.00360151
0.00359898
0.00353278
0.00189792
0.000548399
0.00116774
0.00123479
0.00123814
0.00123831
0.00123831
0.0012382
0.00123566
0.00117239
0.000548165
0.000549074
0.00116396
0.00123581
0.00123955
0.00123972
0.00123971
0.0012396
0.0012367
0.0011687
0.000548833
0.000552267
0.00115203
0.00121176
0.00121292
0.00121219
0.00121216
0.00121283
0.00121234
0.00115592
0.000552144
0.00071697
0.000644565
0.000655089
0.000656093
0.000656316
0.000656322
0.000656097
0.000655212
0.000644753
0.000721092
0.00184008
0.00332494
0.00339304
0.00340061
0.00340265
0.00340274
0.00340129
0.0033958
0.00333825
0.00186414
0.000548656
0.00111816
0.00117682
0.00117971
0.00117985
0.00117985
0.00117976
0.00117756
0.00112206
0.000548407
0.000548978
0.00112495
0.00119214
0.00119617
0.00119654
0.00119655
0.00119623
0.00119298
0.00112921
0.000548717
0.00055421
0.00115942
0.00122287
0.00122723
0.00122784
0.00122785
0.00122729
0.00122368
0.0011633
0.000554073
0.000634843
0.000705569
0.000725208
0.000724039
0.000722983
0.000722953
0.000723928
0.000725212
0.000705819
0.000637417
0.00166688
0.00281769
0.00286786
0.00287588
0.00287864
0.00287876
0.00287655
0.00287006
0.00282689
0.00168357
0.000547512
0.000550171
0.000550492
0.000550562
0.000550589
0.000550591
0.000550563
0.000550506
0.00055021
0.000547037
0.000546797
0.000550916
0.000551377
0.000551442
0.000551461
0.000551461
0.000551447
0.000551396
0.00055096
0.000546315
0.000555093
0.000561443
0.000562281
0.000562505
0.000562576
0.000562574
0.000562517
0.000562297
0.000561538
0.000554703
0.000583087
0.000631243
0.000638606
0.000639854
0.00064022
0.000640225
0.000639892
0.000638798
0.000632197
0.000583637
0.00115379
0.00149877
0.00151909
0.00152446
0.00152621
0.00152627
0.00152478
0.00152
0.00150221
0.00115964
)
;

boundaryField
{
    walls
    {
        type            nutkWallFunction;
        Cmu             0.09;
        kappa           0.41;
        E               9.8;
        value           nonuniform List<scalar> 
500
(
6.55754e-05
6.55754e-05
6.55754e-05
6.63333e-05
6.63333e-05
6.63536e-05
6.63536e-05
6.6353e-05
6.6353e-05
6.63526e-05
6.63526e-05
6.63524e-05
6.63524e-05
6.63522e-05
6.63522e-05
6.63521e-05
6.63521e-05
6.63499e-05
6.63499e-05
6.62877e-05
6.62877e-05
6.62877e-05
6.6361e-05
6.6361e-05
6.65427e-05
6.65564e-05
6.65568e-05
6.65568e-05
6.65566e-05
6.65563e-05
6.65556e-05
6.65416e-05
6.6322e-05
6.6322e-05
6.6424e-05
6.6424e-05
6.66054e-05
6.66217e-05
6.66226e-05
6.66228e-05
6.66226e-05
6.6622e-05
6.66209e-05
6.66044e-05
6.63617e-05
6.63617e-05
6.64743e-05
6.64743e-05
6.66727e-05
6.66915e-05
6.66935e-05
6.66941e-05
6.6694e-05
6.66931e-05
6.66912e-05
6.66728e-05
6.64148e-05
6.64148e-05
6.65252e-05
6.65252e-05
6.67533e-05
6.67752e-05
6.67783e-05
6.67792e-05
6.67791e-05
6.67783e-05
6.67755e-05
6.67552e-05
6.64683e-05
6.64683e-05
6.63428e-05
6.63428e-05
6.64989e-05
6.65139e-05
6.6516e-05
6.65166e-05
6.65169e-05
6.6517e-05
6.65167e-05
6.6505e-05
6.6321e-05
6.6321e-05
6.65197e-05
6.64874e-05
6.65684e-05
6.65354e-05
6.66156e-05
6.6583e-05
6.66684e-05
6.66367e-05
6.63992e-05
6.63992e-05
6.65389e-05
6.65538e-05
6.65558e-05
6.65566e-05
6.6557e-05
6.65571e-05
6.65568e-05
6.65439e-05
6.63489e-05
6.63489e-05
6.65529e-05
6.65231e-05
6.65956e-05
6.65667e-05
6.66368e-05
6.66076e-05
6.6687e-05
6.6658e-05
6.64221e-05
6.64221e-05
6.65605e-05
6.65748e-05
6.65764e-05
6.65771e-05
6.65775e-05
6.65776e-05
6.65772e-05
6.65643e-05
6.63686e-05
6.63686e-05
6.65713e-05
6.65411e-05
6.66091e-05
6.65804e-05
6.66453e-05
6.66162e-05
6.66912e-05
6.66619e-05
6.64344e-05
6.64344e-05
6.65723e-05
6.65861e-05
6.65874e-05
6.6588e-05
6.65883e-05
6.65884e-05
6.65879e-05
6.65749e-05
6.63788e-05
6.63788e-05
6.65819e-05
6.65508e-05
6.66168e-05
6.65876e-05
6.66502e-05
6.66207e-05
6.6693e-05
6.66633e-05
6.64363e-05
6.64363e-05
6.65783e-05
6.65922e-05
6.65935e-05
6.6594e-05
6.65943e-05
6.65943e-05
6.65937e-05
6.65804e-05
6.63796e-05
6.63796e-05
6.65845e-05
6.65526e-05
6.66195e-05
6.65899e-05
6.66535e-05
6.66237e-05
6.66969e-05
6.66668e-05
6.64286e-05
6.64286e-05
6.65806e-05
6.65952e-05
6.65965e-05
6.6597e-05
6.65971e-05
6.65971e-05
6.65963e-05
6.65823e-05
6.63712e-05
6.63712e-05
6.65793e-05
6.65468e-05
6.6618e-05
6.65878e-05
6.66567e-05
6.66263e-05
6.67052e-05
6.66743e-05
6.64108e-05
6.64108e-05
6.65722e-05
6.65874e-05
6.65887e-05
6.65892e-05
6.65893e-05
6.65892e-05
6.65882e-05
6.65735e-05
6.6353e-05
6.6353e-05
6.65655e-05
6.65324e-05
6.66102e-05
6.65794e-05
6.66565e-05
6.66253e-05
6.67144e-05
6.66828e-05
6.63818e-05
6.63818e-05
6.65382e-05
6.65524e-05
6.65537e-05
6.65542e-05
6.65542e-05
6.6554e-05
6.65531e-05
6.65391e-05
6.63233e-05
6.63233e-05
6.65322e-05
6.64967e-05
6.65832e-05
6.65496e-05
6.66381e-05
6.66039e-05
6.67098e-05
6.66749e-05
6.62907e-05
6.62907e-05
6.62907e-05
6.62964e-05
6.62964e-05
6.62971e-05
6.62971e-05
6.62974e-05
6.62974e-05
6.62975e-05
6.62975e-05
6.62976e-05
6.62976e-05
6.62975e-05
6.62975e-05
6.62973e-05
6.62973e-05
6.62948e-05
6.62948e-05
6.62286e-05
6.62286e-05
6.62286e-05
6.63307e-05
6.63307e-05
6.64794e-05
6.64939e-05
6.64952e-05
6.64956e-05
6.64957e-05
6.64954e-05
6.64943e-05
6.64805e-05
6.62703e-05
6.62703e-05
6.63795e-05
6.63795e-05
6.65416e-05
6.65587e-05
6.65609e-05
6.65616e-05
6.65618e-05
6.65611e-05
6.65592e-05
6.65428e-05
6.63193e-05
6.63193e-05
6.64445e-05
6.64445e-05
6.66091e-05
6.66283e-05
6.66316e-05
6.66328e-05
6.66329e-05
6.66316e-05
6.66284e-05
6.66097e-05
6.63842e-05
6.63842e-05
6.65449e-05
6.65449e-05
6.67177e-05
6.67405e-05
6.67455e-05
6.67472e-05
6.67472e-05
6.67453e-05
6.674e-05
6.67177e-05
6.64855e-05
6.64855e-05
6.67727e-05
6.67727e-05
6.70192e-05
6.70554e-05
6.70609e-05
6.70617e-05
6.70616e-05
6.70603e-05
6.70545e-05
6.70205e-05
6.67172e-05
6.67172e-05
6.74158e-05
6.74158e-05
6.94669e-05
6.9695e-05
6.96238e-05
6.95885e-05
6.95866e-05
6.96175e-05
6.96876e-05
6.95226e-05
6.73973e-05
6.73973e-05
7.3792e-05
7.3792e-05
9.16314e-05
9.31472e-05
9.23884e-05
9.20957e-05
9.20811e-05
9.23362e-05
9.30881e-05
9.20225e-05
7.4114e-05
7.4114e-05
0.000104835
0.000104835
0.000159146
0.000163836
0.000162808
0.00016233
0.000162296
0.000162695
0.000163721
0.000159977
0.000106057
0.000106057
0.00016538
0.00016538
0.000261981
0.000271834
0.000272102
0.000271924
0.00027188
0.000271968
0.000271717
0.000263109
0.000167107
0.000167107
6.68131e-05
6.67788e-05
6.69496e-05
6.69198e-05
6.77958e-05
6.78072e-05
7.94879e-05
8.00048e-05
0.000192888
0.00019521
6.67705e-05
6.674e-05
6.68485e-05
6.68199e-05
6.70278e-05
6.70087e-05
7.44974e-05
7.48172e-05
0.000196515
0.000198862
6.67355e-05
6.67053e-05
6.68018e-05
6.67729e-05
6.69078e-05
6.68866e-05
7.38763e-05
7.41774e-05
0.000201197
0.0002037
6.67157e-05
6.66858e-05
6.67782e-05
6.67492e-05
6.68585e-05
6.68357e-05
7.39592e-05
7.42768e-05
0.000203464
0.000206049
6.67119e-05
6.66823e-05
6.67795e-05
6.67506e-05
6.68704e-05
6.68474e-05
7.77129e-05
7.81829e-05
0.000204206
0.000206847
6.67212e-05
6.66923e-05
6.67984e-05
6.67694e-05
6.69611e-05
6.69413e-05
8.28708e-05
8.34893e-05
0.000204526
0.000207202
6.67439e-05
6.67154e-05
6.68186e-05
6.67892e-05
6.71558e-05
6.71389e-05
8.50243e-05
8.55055e-05
0.000201935
0.000204445
6.67711e-05
6.67408e-05
6.68108e-05
6.67789e-05
6.73828e-05
6.73647e-05
7.61478e-05
7.64291e-05
0.000185878
0.000187683
6.66371e-05
6.66371e-05
6.69342e-05
6.69697e-05
6.69772e-05
6.69802e-05
6.69805e-05
6.69774e-05
6.69713e-05
6.69387e-05
6.65794e-05
6.65794e-05
6.65679e-05
6.65679e-05
6.70203e-05
6.707e-05
6.70768e-05
6.70788e-05
6.70789e-05
6.70774e-05
6.7072e-05
6.70251e-05
6.65092e-05
6.65092e-05
6.7494e-05
6.7494e-05
6.81968e-05
6.82889e-05
6.83136e-05
6.83213e-05
6.83211e-05
6.83149e-05
6.82904e-05
6.82074e-05
6.74462e-05
6.74462e-05
7.05526e-05
7.05526e-05
7.57175e-05
7.64937e-05
7.66272e-05
7.66668e-05
7.66675e-05
7.66315e-05
7.65149e-05
7.58231e-05
7.06092e-05
7.06092e-05
0.000133501
0.000133501
0.000169254
0.000171273
0.000171802
0.000171976
0.000171982
0.000171835
0.000171367
0.000169615
0.000134148
0.000134148
)
;
    }
    lid
    {
        type            nutkWallFunction;
        Cmu             0.09;
        kappa           0.41;
        E               9.8;
        value           nonuniform List<scalar> 
100
(
0.00016538
0.000261981
0.000271834
0.000272102
0.000271924
0.00027188
0.000271968
0.000271717
0.000263109
0.000167107
0.000192888
0.000351146
0.000361827
0.000361941
0.000361698
0.000361659
0.000361828
0.000361795
0.000352521
0.00019521
0.000196515
0.000354099
0.000362053
0.000361983
0.000361785
0.000361767
0.000361937
0.000362142
0.000355503
0.000198862
0.000201197
0.000363713
0.000371398
0.000371657
0.000371594
0.000371588
0.000371651
0.000371566
0.000365221
0.0002037
0.000203464
0.000367618
0.000375262
0.000375679
0.000375684
0.000375683
0.000375694
0.000375469
0.000369174
0.000206049
0.000204206
0.00036699
0.000374504
0.000374924
0.000374938
0.000374939
0.000374949
0.000374731
0.000368559
0.000206847
0.000204526
0.000362561
0.000369686
0.00037009
0.000370117
0.000370119
0.000370128
0.000369932
0.000364095
0.000207202
0.000201935
0.000346523
0.000352771
0.000353415
0.000353579
0.000353587
0.000353477
0.000353032
0.000347858
0.000204445
0.000185878
0.000300159
0.000304883
0.000305629
0.000305887
0.000305898
0.000305694
0.0003051
0.000301102
0.000187683
0.000133501
0.000169254
0.000171273
0.000171802
0.000171976
0.000171982
0.000171835
0.000171367
0.000169615
0.000134148
)
;
    }
}


// ************************************************************************* //
