/*--------------------------------*- C++ -*----------------------------------*\
| =========                 |                                                 |
| \\      /  F ield         | OpenFOAM: The Open Source CFD Toolbox           |
|  \\    /   O peration     | Version:  2.3.1                                 |
|   \\  /    A nd           | Web:      www.OpenFOAM.org                      |
|    \\/     M anipulation  |                                                 |
\*---------------------------------------------------------------------------*/
FoamFile
{
    version     2.0;
    format      ascii;
    class       volScalarField;
    location    "0.76";
    object      p;
}
// * * * * * * * * * * * * * * * * * * * * * * * * * * * * * * * * * * * * * //

dimensions      [0 2 -2 0 0 0 0];

internalField   nonuniform List<scalar> 
1000
(
-0.00239547
-0.00221191
-0.0022198
-0.00221474
-0.00221018
-0.00220771
-0.00219843
-0.00218475
-0.00217139
-0.00216677
-0.00305851
-0.00301147
-0.00302635
-0.00303802
-0.00304327
-0.003042
-0.00303045
-0.00301234
-0.00299707
-0.00300019
-0.00479606
-0.00479869
-0.00482828
-0.00486411
-0.00488326
-0.00488389
-0.00486434
-0.00483083
-0.00480351
-0.00479704
-0.00745978
-0.0074671
-0.00749206
-0.00753464
-0.00755865
-0.0075586
-0.00753364
-0.00749303
-0.0074721
-0.00746154
-0.0139037
-0.0141079
-0.0143366
-0.0145352
-0.0146412
-0.0146433
-0.0145374
-0.0143467
-0.0141307
-0.0139292
-0.00140208
-0.00138281
-0.00139251
-0.00139925
-0.00139953
-0.00139707
-0.00138834
-0.00137431
-0.00135936
-0.00134568
-0.00213063
-0.00212794
-0.00214345
-0.00215968
-0.00216691
-0.00216604
-0.00215483
-0.00213593
-0.00211856
-0.00211057
-0.00375084
-0.00377286
-0.00380634
-0.00384289
-0.00386231
-0.00386311
-0.00384387
-0.00380959
-0.00377981
-0.00375905
-0.00627046
-0.00632722
-0.00637288
-0.00642431
-0.00645193
-0.00645257
-0.00642401
-0.00637499
-0.00633758
-0.00628295
-0.011873
-0.0120853
-0.0123075
-0.0124974
-0.0125993
-0.0126005
-0.0124995
-0.0123188
-0.0121113
-0.0119053
0.000243264
0.000240949
0.000234875
0.00022562
0.000223214
0.000224984
0.000232166
0.000244347
0.00025828
0.000273286
-0.000367064
-0.00037443
-0.000387937
-0.000403694
-0.000411117
-0.000410603
-0.000401039
-0.000383984
-0.000367298
-0.000355878
-0.00170029
-0.00173008
-0.00176247
-0.00179566
-0.00181317
-0.00181423
-0.00179703
-0.00176583
-0.00173746
-0.00171265
-0.00383344
-0.00390305
-0.0039591
-0.00401221
-0.00404054
-0.00404141
-0.00401195
-0.00396279
-0.00391619
-0.00385254
-0.00808832
-0.00830225
-0.00850234
-0.00866546
-0.00875303
-0.00875263
-0.00866756
-0.00851363
-0.00832948
-0.00812633
0.00250905
0.00250663
0.00250487
0.00250061
0.0024998
0.00250132
0.00250574
0.00251325
0.00252226
0.00253225
0.00208305
0.00207913
0.00207165
0.00206226
0.00205797
0.00205839
0.00206466
0.00207581
0.00208671
0.00209269
0.0011505
0.00113121
0.00110861
0.0010855
0.00107353
0.00107291
0.00108497
0.00110697
0.00112722
0.00114227
-0.000365512
-0.000420368
-0.000468465
-0.000511497
-0.000533754
-0.000534699
-0.00051131
-0.000470692
-0.000430997
-0.000382104
-0.00310889
-0.00326684
-0.00341698
-0.0035352
-0.00359792
-0.00359894
-0.00353529
-0.00342497
-0.00328627
-0.00313737
0.00522466
0.00522565
0.00523001
0.00523292
0.00523588
0.00523727
0.00523769
0.00523776
0.00523848
0.00524037
0.00501942
0.00502052
0.00502213
0.00502248
0.00502365
0.00502446
0.00502548
0.00502715
0.0050284
0.0050279
0.00456461
0.00455826
0.00455171
0.00454498
0.00454229
0.00454208
0.00454612
0.00455305
0.00455878
0.00456305
0.00380584
0.00377988
0.00375687
0.00373747
0.00372828
0.00372831
0.00373895
0.00375722
0.00377677
0.00380041
0.0025006
0.00241828
0.00234274
0.00228499
0.00225646
0.00225634
0.0022864
0.00234242
0.00241217
0.00249033
0.00815184
0.00816237
0.00817649
0.00818937
0.00819806
0.00819986
0.00819495
0.00818528
0.00817492
0.00816658
0.00819319
0.00820394
0.00821895
0.00823284
0.00824212
0.00824336
0.00823765
0.00822629
0.00821422
0.008205
0.00826415
0.00827641
0.00829317
0.00830895
0.00831881
0.00832016
0.00831274
0.00829906
0.00828417
0.00827374
0.00833044
0.00834424
0.00836115
0.00837819
0.00838931
0.00839004
0.0083825
0.00836721
0.00835222
0.00834241
0.00835824
0.00836723
0.00838089
0.00839583
0.00840717
0.00840866
0.0084005
0.00838751
0.00837783
0.0083722
0.0110352
0.011058
0.0110849
0.0111099
0.0111259
0.0111283
0.0111174
0.011096
0.0110728
0.0110521
0.011337
0.0113609
0.0113935
0.0114241
0.011443
0.0114455
0.0114313
0.0114046
0.0113759
0.0113555
0.0119585
0.011997
0.0120437
0.0120873
0.0121136
0.0121156
0.0120952
0.0120559
0.0120149
0.0119835
0.0128882
0.0129558
0.0130266
0.0130892
0.0131252
0.0131286
0.0130969
0.0130403
0.0129791
0.0129217
0.0141742
0.0142898
0.0144027
0.0145016
0.0145584
0.0145592
0.0145112
0.0144197
0.0143176
0.0142132
0.0135984
0.0136341
0.0136753
0.0137137
0.0137374
0.0137407
0.0137232
0.0136896
0.0136521
0.0136194
0.0141582
0.0142015
0.0142546
0.0143038
0.0143339
0.014337
0.014314
0.0142702
0.0142225
0.0141853
0.0153384
0.0154137
0.0154975
0.0155726
0.015616
0.0156203
0.0155838
0.0155166
0.0154426
0.0153791
0.0171562
0.017305
0.0174412
0.0175597
0.0176265
0.0176287
0.0175729
0.017464
0.017343
0.0172109
0.0197053
0.019963
0.0201946
0.0203888
0.0204919
0.0204981
0.0204026
0.0202215
0.0200094
0.0197626
0.0155564
0.015601
0.015655
0.0157048
0.0157358
0.0157394
0.0157162
0.0156719
0.0156224
0.0155817
0.0163487
0.0164054
0.0164779
0.0165443
0.0165839
0.0165882
0.0165566
0.0164974
0.0164319
0.016384
0.0180416
0.0181536
0.0182743
0.0183806
0.0184416
0.018446
0.0183954
0.0182993
0.0181916
0.0180941
0.0207202
0.0209574
0.0211688
0.0213471
0.0214424
0.0214485
0.0213633
0.0211977
0.0210073
0.0207872
0.0244736
0.0249285
0.0252945
0.025597
0.0257531
0.025757
0.025617
0.0253305
0.0249894
0.0245463
0.0166176
0.0166612
0.0167227
0.0167795
0.0168142
0.0168184
0.0167913
0.0167411
0.0166848
0.0166479
0.0175765
0.0176394
0.017726
0.0178036
0.0178497
0.0178541
0.017817
0.0177477
0.01767
0.0176179
0.0196732
0.0198196
0.0199731
0.020103
0.0201748
0.0201802
0.0201188
0.0200006
0.0198625
0.0197314
0.0231352
0.0234949
0.0237835
0.0240122
0.0241302
0.0241352
0.0240304
0.0238167
0.0235518
0.0232062
0.0283202
0.0292098
0.0297545
0.0301577
0.0303474
0.0303554
0.0301804
0.0297936
0.0292891
0.0284068
0.034853
0.0374446
0.0384747
0.0391559
0.0394216
0.0394274
0.0391796
0.0385304
0.0375726
0.034977
0.0478181
0.0521639
0.0538498
0.0549206
0.0553375
0.0553454
0.0549657
0.0539303
0.0523835
0.0480415
0.0553625
0.0694395
0.0730441
0.0746282
0.0749912
0.0750007
0.0746323
0.0731511
0.0697892
0.0557374
0.0918021
0.119925
0.128808
0.130656
0.131076
0.131063
0.130683
0.128936
0.120488
0.0925188
0.00698268
-0.00606965
-0.00729523
-0.00760949
-0.00751054
-0.00747591
-0.00757627
-0.00726713
-0.00620109
0.00682437
0.0273581
0.0283605
0.0288902
0.0293179
0.0295105
0.0295196
0.0293391
0.0289294
0.0284395
0.0274312
0.0359118
0.0373526
0.0382577
0.0390499
0.0394352
0.0394437
0.0390991
0.0383392
0.0374768
0.0360461
0.0301225
0.0303477
0.0308
0.0314732
0.0317645
0.0317735
0.031508
0.0308491
0.0304112
0.0302193
0.0250573
0.0206155
0.0194914
0.0201164
0.0204507
0.0204739
0.0201753
0.0195413
0.0205314
0.0249472
0.00685144
-0.00419474
-0.00675594
-0.00764576
-0.00778673
-0.00778331
-0.00766026
-0.0068037
-0.00441906
0.00661372
0.0210524
0.0215429
0.0218173
0.0220558
0.0221676
0.0221691
0.0220758
0.0218476
0.0215871
0.0210999
0.0271251
0.0278444
0.0283015
0.0287364
0.0289589
0.0289788
0.0287694
0.0283552
0.0279303
0.0272048
0.0229718
0.0237087
0.0241712
0.0245353
0.0246855
0.0246893
0.0245499
0.0241975
0.023764
0.023025
0.0313875
0.0316233
0.0315457
0.0319532
0.0321538
0.0321632
0.0319874
0.0315835
0.0316119
0.0314139
0.0163821
0.0126651
0.0118505
0.0114928
0.0114687
0.011468
0.0114751
0.0117961
0.0125555
0.0162653
0.0146196
0.0148024
0.0149131
0.0150114
0.0150633
0.0150644
0.0150234
0.0149301
0.0148255
0.0146434
0.0177498
0.0180146
0.0181987
0.0183936
0.0184994
0.0185083
0.0184193
0.0182364
0.0180553
0.0177836
0.0151418
0.0153692
0.015503
0.0156403
0.015704
0.0157067
0.015652
0.0155149
0.0153799
0.0151435
0.0209884
0.0217321
0.0220057
0.022408
0.0225901
0.0226013
0.022425
0.0220351
0.021752
0.0210271
0.0146333
0.0140171
0.0140207
0.014067
0.0141309
0.0141203
0.0140487
0.0139809
0.0139643
0.014593
0.00826879
0.00826248
0.00825624
0.00826129
0.0082676
0.00826897
0.00826726
0.00826666
0.0082711
0.0082724
0.00800538
0.00789466
0.00781958
0.00780978
0.00781205
0.00781184
0.00782538
0.00783263
0.00790081
0.00800639
0.00762693
0.00742974
0.00735948
0.00734346
0.00733893
0.00734954
0.00734258
0.00736329
0.00741624
0.00758976
0.00857482
0.00751749
0.00724971
0.00726032
0.00729521
0.00728315
0.00727658
0.00725249
0.00748295
0.00858609
0.00821125
0.00802063
0.00794023
0.00794372
0.00794726
0.00794677
0.00792211
0.00791961
0.00797446
0.00815744
0.00220165
0.00207312
0.00198609
0.0019311
0.0019048
0.00190342
0.00193635
0.00198677
0.00206881
0.00219057
-0.00221819
-0.00280868
-0.0031499
-0.00336438
-0.00346702
-0.00346041
-0.00337277
-0.00316421
-0.00284595
-0.00227562
0.000134776
-0.000397437
-0.000643594
-0.000777792
-0.000820559
-0.000832157
-0.000775927
-0.000665455
-0.000447354
8.49795e-05
-0.00608287
-0.0103883
-0.0116084
-0.0121676
-0.012315
-0.0123033
-0.0121953
-0.0116396
-0.0105132
-0.00621
0.000383641
0.000418618
0.000178109
0.000107269
3.5472e-05
1.39467e-05
0.000136894
0.000177423
0.000370345
0.00035212
-0.00329943
-0.00353571
-0.0036618
-0.00375381
-0.00380124
-0.00379576
-0.0037553
-0.00366604
-0.00355072
-0.00332801
-0.0129666
-0.0140738
-0.0146743
-0.015107
-0.0153005
-0.0153109
-0.0151372
-0.0147311
-0.0141556
-0.0130595
-0.00698806
-0.00787709
-0.0081807
-0.00841752
-0.00850098
-0.0084943
-0.00846802
-0.00823346
-0.00793544
-0.0070618
-0.0265378
-0.0357986
-0.0382722
-0.0395805
-0.0399963
-0.0400492
-0.0395848
-0.0383667
-0.0360941
-0.0268435
-0.00637822
-0.00573255
-0.0058069
-0.00585445
-0.00597615
-0.00592756
-0.00582772
-0.00579251
-0.00571483
-0.00642038
-0.00775946
-0.00801547
-0.00812708
-0.008228
-0.00827533
-0.0082736
-0.00822896
-0.00813643
-0.00802951
-0.00777451
-0.0235061
-0.0249006
-0.0256526
-0.026275
-0.0265678
-0.0265801
-0.0263426
-0.0257347
-0.0249964
-0.0236165
-0.0127776
-0.0133931
-0.0135718
-0.0138132
-0.0138812
-0.0139144
-0.0138652
-0.0136315
-0.0134419
-0.0128128
-0.0532189
-0.0635146
-0.0662932
-0.0684396
-0.0692185
-0.0692038
-0.0685354
-0.0664418
-0.0638007
-0.0537421
-0.00787141
-0.00596046
-0.00528969
-0.00472185
-0.00464222
-0.00464109
-0.00465105
-0.00523446
-0.00588065
-0.00773306
-0.0106233
-0.0108107
-0.0108682
-0.0109519
-0.010991
-0.010988
-0.010947
-0.0108658
-0.0108105
-0.0106195
-0.0318333
-0.0331577
-0.0339281
-0.0345801
-0.034902
-0.0349125
-0.0346305
-0.0340023
-0.0332457
-0.0319343
-0.015653
-0.0156705
-0.0155053
-0.0155822
-0.015609
-0.0156191
-0.0156247
-0.0155454
-0.0156779
-0.0156521
-0.0762415
-0.0861364
-0.0889358
-0.0912588
-0.0921543
-0.0921875
-0.0913582
-0.0890831
-0.0863712
-0.076629
-0.00126521
0.00795575
0.0106254
0.0117286
0.01193
0.011941
0.0117588
0.0107262
0.00822808
-0.000989455
-0.0117791
-0.0118075
-0.0118049
-0.0118592
-0.0118859
-0.0118812
-0.0118508
-0.0117943
-0.0117967
-0.0117625
-0.0360833
-0.037274
-0.0380071
-0.0386365
-0.0389532
-0.038962
-0.0386733
-0.0380658
-0.0373482
-0.0361685
-0.0163011
-0.0156723
-0.0153115
-0.0152783
-0.015271
-0.0152773
-0.0153013
-0.015333
-0.0156455
-0.0162641
-0.0873298
-0.0964247
-0.0991043
-0.101358
-0.10227
-0.102305
-0.101462
-0.0992322
-0.0965996
-0.0876122
0.00472245
0.0191294
0.0221553
0.0234704
0.0236681
0.0236705
0.0234934
0.0222586
0.0194408
0.0051143
)
;

boundaryField
{
    walls
    {
        type            zeroGradient;
    }
    lid
    {
        type            zeroGradient;
    }
}


// ************************************************************************* //
