/*--------------------------------*- C++ -*----------------------------------*\
| =========                 |                                                 |
| \\      /  F ield         | OpenFOAM: The Open Source CFD Toolbox           |
|  \\    /   O peration     | Version:  2.3.1                                 |
|   \\  /    A nd           | Web:      www.OpenFOAM.org                      |
|    \\/     M anipulation  |                                                 |
\*---------------------------------------------------------------------------*/
FoamFile
{
    version     2.0;
    format      ascii;
    class       volScalarField;
    location    "0.29";
    object      k;
}
// * * * * * * * * * * * * * * * * * * * * * * * * * * * * * * * * * * * * * //

dimensions      [0 2 -2 0 0 0 0];

internalField   nonuniform List<scalar> 
15166
(
1.07806
1.32092
1.70166
2.10176
2.41112
2.71974
2.94003
3.07163
3.11707
3.09405
3.01014
2.89861
1.07846
1.29214
1.70527
2.09383
2.40259
2.69016
2.89007
3.00502
3.04009
3.01221
2.92958
2.80926
1.08654
1.26045
1.68974
2.0717
2.3798
2.65082
2.83524
2.93766
2.96558
2.93435
2.85187
2.7283
1.09711
1.23501
1.66804
2.04323
2.34852
2.60552
2.77765
2.8706
2.89346
2.85988
2.77669
2.64829
1.10855
1.21582
1.64485
2.01258
2.31305
2.5575
2.71929
2.80479
2.82392
2.7887
2.70504
2.57595
1.1209
1.2012
1.62129
1.9811
2.27543
2.50846
2.66131
2.74076
2.75702
2.72062
2.63651
2.50619
1.1342
1.19005
1.598
1.94942
2.23668
2.45931
2.6043
2.67875
2.69272
2.65539
2.57057
2.43727
1.14824
1.18175
1.57548
1.91797
2.19758
2.41063
2.54865
2.61886
2.63097
2.59297
2.50788
2.37526
1.1628
1.17578
1.55408
1.88721
2.15871
2.36287
2.4946
2.56113
2.57172
2.53327
2.44823
2.31639
1.1777
1.17169
1.53392
1.8573
2.12048
2.31633
2.44229
2.50558
2.51486
2.47618
2.3917
2.26244
1.19281
1.16915
1.51504
1.82838
2.08309
2.27113
2.39178
2.45217
2.46035
2.42167
2.33826
2.2125
1.20802
1.16784
1.49737
1.80049
2.04671
2.22738
2.3431
2.40083
2.40808
2.36966
2.28809
2.16817
1.22324
1.16752
1.48089
1.77362
2.01142
2.18511
2.2962
2.35149
2.35796
2.32004
2.24076
2.12674
1.23838
1.16803
1.46552
1.74778
1.97725
2.1443
2.25105
2.30408
2.30988
2.27257
2.19508
2.0815
1.25338
1.16915
1.45118
1.72297
1.94422
2.10495
2.20759
2.25852
2.26377
2.22721
2.15189
2.04307
1.26819
1.17078
1.43777
1.69914
1.91233
2.06702
2.16577
2.21473
2.21951
2.18377
2.11071
2.00576
1.28275
1.17277
1.4252
1.67626
1.88157
2.03046
2.12552
2.17261
2.177
2.14216
2.07129
1.9695
1.29703
1.17505
1.41343
1.65431
1.85192
1.99525
2.08677
2.13211
2.13616
2.10224
2.03348
1.9345
1.311
1.17754
1.40235
1.63324
1.82331
1.9613
2.04945
2.09312
2.0969
2.06393
1.99731
1.90174
1.32462
1.18016
1.39193
1.613
1.79575
1.92858
2.01349
2.05557
2.05912
2.02712
1.96262
1.87031
1.33786
1.18288
1.38208
1.59356
1.76917
1.89702
1.97884
2.0194
2.02274
1.99169
1.92914
1.83892
1.35074
1.18562
1.37274
1.57489
1.74355
1.86659
1.94542
1.98452
1.98768
1.95754
1.89676
1.80838
1.36321
1.18836
1.36388
1.55692
1.71883
1.83723
1.91318
1.95089
1.95387
1.9246
1.86536
1.77822
1.37527
1.19109
1.35544
1.53964
1.69499
1.80891
1.88208
1.91843
1.92125
1.89279
1.83494
1.74913
1.38689
1.19378
1.34739
1.52302
1.672
1.78156
1.85205
1.88709
1.88974
1.86202
1.80548
1.72112
1.39807
1.19639
1.33968
1.50701
1.64981
1.75515
1.82304
1.85681
1.8593
1.83227
1.77697
1.69423
1.40883
1.19892
1.33227
1.49156
1.62838
1.72964
1.79501
1.82755
1.82985
1.80348
1.74945
1.66869
1.41915
1.20137
1.32516
1.47667
1.60768
1.70498
1.76791
1.79924
1.80136
1.77562
1.72291
1.64462
1.42901
1.20374
1.3183
1.46231
1.58768
1.68115
1.74169
1.77186
1.77378
1.74865
1.69728
1.62123
1.43843
1.206
1.31169
1.44843
1.56836
1.65809
1.71633
1.74534
1.74707
1.72255
1.67246
1.59822
1.4474
1.20817
1.30526
1.43501
1.54966
1.63578
1.69178
1.71967
1.7212
1.69725
1.64844
1.5761
1.45592
1.21023
1.29904
1.42202
1.53157
1.61418
1.668
1.69479
1.69612
1.67273
1.62513
1.55447
1.46397
1.21221
1.29299
1.40947
1.51407
1.59327
1.64497
1.67068
1.6718
1.64895
1.60254
1.53369
1.47163
1.21408
1.28712
1.39729
1.49712
1.57302
1.62265
1.64731
1.64821
1.62589
1.58063
1.5134
1.47878
1.21585
1.2814
1.38551
1.48071
1.55339
1.60101
1.62463
1.62533
1.6035
1.55937
1.49386
1.48553
1.21755
1.27585
1.37406
1.46479
1.53437
1.58002
1.60263
1.60311
1.58177
1.53873
1.47477
1.49184
1.21914
1.27042
1.36296
1.44937
1.51592
1.55965
1.58126
1.58153
1.56065
1.51872
1.45661
1.49771
1.22065
1.26512
1.35217
1.4344
1.49802
1.53988
1.56052
1.56057
1.54014
1.4993
1.4391
1.50317
1.22209
1.25995
1.34169
1.41988
1.48064
1.52069
1.54037
1.54019
1.52022
1.48044
1.42176
1.5082
1.22345
1.2549
1.33151
1.40579
1.46378
1.50206
1.52079
1.5204
1.50086
1.46217
1.4055
1.51277
1.22474
1.24997
1.3216
1.39211
1.44741
1.48395
1.50176
1.50115
1.48201
1.44423
1.38789
1.5169
1.22594
1.24513
1.31197
1.37881
1.4315
1.46636
1.48326
1.48242
1.46366
1.42663
1.37064
1.52059
1.22705
1.2404
1.30259
1.3659
1.41605
1.44926
1.46526
1.46419
1.44577
1.40951
1.35479
1.52386
1.22805
1.23578
1.29347
1.35335
1.40103
1.43263
1.44776
1.44645
1.42835
1.39282
1.33911
1.52671
1.22892
1.23126
1.28461
1.34115
1.38642
1.41646
1.43073
1.42918
1.41137
1.37658
1.32422
1.52915
1.22965
1.22684
1.27599
1.32927
1.37221
1.40073
1.41415
1.41235
1.39482
1.36072
1.30922
1.53118
1.23028
1.22253
1.26758
1.31771
1.3584
1.38543
1.39801
1.39596
1.37868
1.34532
1.29531
1.53282
1.23077
1.21831
1.25941
1.30645
1.34496
1.37052
1.38229
1.37998
1.36295
1.33029
1.28136
1.53407
1.23115
1.21417
1.25143
1.29549
1.33188
1.35601
1.36697
1.36439
1.34759
1.31565
1.26815
1.53494
1.23144
1.21011
1.24366
1.28484
1.31914
1.34188
1.35203
1.34919
1.3326
1.30133
1.25475
1.53542
1.23164
1.20611
1.23608
1.27446
1.30673
1.3281
1.33746
1.33434
1.31797
1.28736
1.242
1.53554
1.23177
1.20219
1.22867
1.26436
1.29465
1.31468
1.32326
1.31987
1.30369
1.27374
1.22961
1.53529
1.23182
1.19834
1.22145
1.25451
1.28288
1.3016
1.30941
1.30574
1.28975
1.26041
1.21699
1.53468
1.23181
1.19456
1.2144
1.24492
1.27141
1.28885
1.29591
1.29196
1.27613
1.24742
1.20526
1.53372
1.23172
1.19084
1.20751
1.23557
1.26023
1.27642
1.28274
1.2785
1.26284
1.23477
1.19394
1.53241
1.23155
1.18719
1.20079
1.22646
1.24933
1.26431
1.26989
1.26537
1.24987
1.22245
1.18301
1.53076
1.2313
1.1836
1.19422
1.21757
1.23872
1.2525
1.25735
1.25255
1.23721
1.21041
1.172
1.52876
1.23101
1.18008
1.18781
1.2089
1.22837
1.24098
1.24513
1.24004
1.22485
1.19866
1.1613
1.52644
1.23063
1.17664
1.18154
1.20045
1.21827
1.22975
1.2332
1.22783
1.21278
1.18711
1.15008
1.52377
1.23022
1.17326
1.17542
1.1922
1.20843
1.2188
1.22156
1.21591
1.20098
1.17581
1.13965
1.52078
1.22973
1.16994
1.16945
1.18416
1.19883
1.20811
1.2102
1.20427
1.18944
1.1648
1.12984
1.51747
1.22918
1.1667
1.16362
1.1763
1.18947
1.19768
1.19911
1.1929
1.17818
1.15408
1.12032
1.51384
1.22858
1.16352
1.15792
1.16864
1.18033
1.18751
1.18829
1.1818
1.16719
1.1436
1.11072
1.50989
1.22794
1.16041
1.15236
1.16117
1.17142
1.17759
1.17773
1.17096
1.15645
1.13336
1.10135
1.50563
1.22724
1.15738
1.14694
1.15388
1.16273
1.16791
1.16743
1.16039
1.14596
1.12332
1.09192
1.50105
1.22652
1.15442
1.14166
1.14677
1.15425
1.15847
1.15737
1.15006
1.13572
1.11351
1.08284
1.49619
1.22574
1.15153
1.13651
1.13984
1.14599
1.14926
1.14757
1.13998
1.12571
1.10389
1.07376
1.491
1.22491
1.14872
1.13148
1.13308
1.13793
1.14028
1.138
1.13014
1.11592
1.09448
1.0651
1.48549
1.22408
1.14599
1.1266
1.1265
1.13007
1.13152
1.12866
1.12053
1.10636
1.08528
1.05658
1.47971
1.22317
1.14334
1.12185
1.12008
1.12241
1.12298
1.11955
1.11115
1.09702
1.0763
1.04836
1.47362
1.22223
1.14076
1.11724
1.11383
1.11494
1.11464
1.11066
1.102
1.0879
1.06751
1.04009
1.46723
1.22123
1.13825
1.11275
1.10775
1.10766
1.10652
1.10198
1.09306
1.07898
1.0589
1.03214
1.46056
1.22022
1.13583
1.1084
1.10183
1.10057
1.0986
1.09352
1.08434
1.07027
1.0505
1.02437
1.45358
1.21919
1.13352
1.10419
1.09608
1.09366
1.09088
1.08528
1.07583
1.06177
1.04229
1.0167
1.44631
1.21812
1.13126
1.1001
1.09048
1.08694
1.08336
1.07723
1.06752
1.05347
1.03426
1.00925
1.43878
1.217
1.12909
1.09616
1.08505
1.0804
1.07603
1.0694
1.05942
1.04536
1.0264
1.00172
1.43096
1.21582
1.12701
1.09235
1.07978
1.07404
1.0689
1.06176
1.05153
1.03745
1.0187
0.994393
1.42283
1.21463
1.12501
1.08867
1.07468
1.06786
1.06196
1.05432
1.04383
1.02973
1.01117
0.987148
1.41442
1.21342
1.12312
1.08514
1.06974
1.06185
1.05521
1.04708
1.03633
1.02219
1.00381
0.980139
1.40574
1.21216
1.12132
1.08176
1.06496
1.05603
1.04865
1.04003
1.02902
1.01484
0.996605
0.973149
1.39677
1.21087
1.1196
1.07851
1.06035
1.05038
1.04227
1.03317
1.0219
1.00766
0.989567
0.966488
1.38752
1.20954
1.11798
1.07541
1.0559
1.04491
1.03607
1.0265
1.01496
1.00066
0.982689
0.960024
1.378
1.20817
1.11644
1.07245
1.05161
1.03962
1.03006
1.02002
1.00821
0.993843
0.975997
0.953631
1.3682
1.20676
1.11501
1.06965
1.0475
1.0345
1.02424
1.01373
1.00166
0.987214
0.969472
0.947285
1.35812
1.20534
1.11369
1.067
1.04356
1.02956
1.0186
1.00763
0.995289
0.980755
0.963102
0.941214
1.34777
1.20386
1.11246
1.0645
1.03978
1.02481
1.01314
1.00171
0.9891
0.974478
0.956897
0.935143
1.33715
1.20231
1.11132
1.06216
1.03619
1.02023
1.00787
0.99597
0.983092
0.968366
0.95084
0.929415
1.32625
1.20073
1.11028
1.05997
1.03277
1.01584
1.00279
0.990421
0.977269
0.962445
0.944979
0.923713
1.31507
1.19912
1.10935
1.05795
1.02954
1.01164
0.997892
0.985062
0.971633
0.956702
0.939282
0.918208
1.30362
1.19748
1.10853
1.05611
1.02649
1.00762
0.993182
0.979888
0.966178
0.951128
0.933715
0.912536
1.29188
1.19579
1.1078
1.05442
1.02363
1.00379
0.988661
0.974897
0.960903
0.945725
0.928336
0.907668
1.27988
1.19405
1.10718
1.05291
1.02096
1.00016
0.984337
0.970104
0.955831
0.94054
0.923203
0.902794
1.26762
1.19223
1.10668
1.05158
1.01848
0.996733
0.98021
0.965506
0.950945
0.935521
0.918209
0.898037
1.25507
1.19039
1.10627
1.05043
1.01621
0.99351
0.976284
0.961104
0.946249
0.930689
0.913393
0.893326
1.24226
1.18847
1.10598
1.04946
1.01415
0.990491
0.972561
0.956901
0.941747
0.926041
0.908738
0.888752
1.22919
1.18647
1.10578
1.04868
1.01229
0.987686
0.969046
0.952902
0.937446
0.921593
0.904269
0.884243
1.21583
1.18441
1.10572
1.0481
1.01066
0.985102
0.965746
0.949109
0.933339
0.917318
0.899941
0.879972
1.20218
1.18234
1.10576
1.04772
1.00926
0.982746
0.962665
0.945525
0.929437
0.913245
0.895815
0.875821
1.18829
1.18011
1.10592
1.04754
1.00809
0.98062
0.959809
0.942158
0.925741
0.909366
0.89186
0.871872
1.1741
1.17785
1.10618
1.04758
1.00716
0.978741
0.957186
0.939017
0.922263
0.905697
0.88812
0.868046
1.15964
1.17551
1.10656
1.04783
1.00648
0.977106
0.954801
0.9361
0.918993
0.902219
0.884545
0.864539
1.14489
1.17312
1.10706
1.04831
1.00606
0.975732
0.952664
0.933416
0.915948
0.898961
0.88119
0.861207
1.12987
1.17066
1.10768
1.04901
1.0059
0.974628
0.950792
0.930987
0.913149
0.895946
0.878077
0.858006
1.11457
1.16808
1.10841
1.04994
1.00603
0.973807
0.949186
0.928808
0.91059
0.893154
0.875183
0.855094
1.09901
1.16537
1.10926
1.05112
1.00643
0.973278
0.947856
0.926891
0.908273
0.890592
0.872507
0.852489
1.08316
1.1626
1.11023
1.05255
1.00714
0.973053
0.946816
0.925247
0.906216
0.888293
0.8701
0.850007
1.06703
1.15968
1.11131
1.05424
1.00817
0.973142
0.946083
0.92389
0.904423
0.886223
0.867875
0.847791
1.05062
1.15668
1.11251
1.05619
1.00951
0.97357
0.94567
0.922837
0.902919
0.884435
0.86593
0.845743
1.03391
1.15366
1.11383
1.05843
1.01121
0.974353
0.945599
0.922102
0.901713
0.882931
0.86425
0.843946
1.01692
1.15042
1.1153
1.06095
1.01326
0.975505
0.945888
0.921698
0.900815
0.881702
0.862801
0.842324
0.999642
1.14711
1.11689
1.06377
1.0157
0.977055
0.946556
0.921654
0.900253
0.880791
0.861675
0.841034
0.982071
1.14371
1.11859
1.0669
1.01853
0.979015
0.947624
0.921988
0.900045
0.880221
0.860887
0.840155
0.964229
1.14005
1.12042
1.07034
1.02176
0.981423
0.949119
0.922725
0.900224
0.880038
0.860508
0.839564
0.94609
1.13633
1.12237
1.07411
1.02543
0.984283
0.951063
0.923874
0.900777
0.880173
0.860344
0.838862
0.927657
1.1325
1.12442
1.07823
1.02956
0.98763
0.953471
0.925456
0.90172
0.880652
0.860489
0.838664
0.908946
1.12843
1.12663
1.08269
1.03416
0.991486
0.956383
0.927511
0.903102
0.881558
0.861084
0.838981
0.889923
1.12429
1.12895
1.08753
1.03927
0.995911
0.959843
0.930082
0.904958
0.882892
0.862026
0.839598
0.870609
1.11985
1.13144
1.09276
1.04492
1.00092
0.963901
0.933216
0.907347
0.884734
0.863502
0.840859
0.850996
1.11527
1.13401
1.0984
1.05115
1.00658
0.968597
0.936954
0.9103
0.887115
0.865509
0.842693
0.831111
1.11061
1.13672
1.10445
1.05799
1.01292
0.973982
0.941355
0.913861
0.890071
0.868071
0.844864
0.810924
1.10568
1.13958
1.11095
1.06547
1.01999
0.980095
0.946441
0.918048
0.893548
0.870976
0.846971
0.790422
1.10051
1.14259
1.11793
1.07364
1.02785
0.987011
0.952281
0.922931
0.897667
0.874515
0.850081
0.769631
1.09508
1.14573
1.1254
1.08256
1.03659
0.99481
0.958974
0.928615
0.902555
0.878864
0.854132
0.748559
1.08961
1.14901
1.13341
1.0923
1.04625
1.00359
0.966591
0.935137
0.908183
0.883775
0.858467
0.727165
1.08375
1.15248
1.14201
1.10291
1.05696
1.01342
0.975231
0.942608
0.914668
0.889504
0.863519
0.705468
1.07763
1.15614
1.15127
1.11449
1.06881
1.02445
0.985011
0.951125
0.922077
0.896009
0.869326
0.683484
1.07146
1.16002
1.16122
1.12718
1.08196
1.03682
0.996096
0.960849
0.93059
0.903556
0.876157
0.661158
1.06487
1.16421
1.17202
1.1411
1.09658
1.05071
1.00864
0.971917
0.940324
0.912184
0.883726
0.638508
1.05811
1.16878
1.18379
1.15646
1.11286
1.06632
1.02282
0.98446
0.951356
0.921979
0.892569
0.615476
1.05111
1.17387
1.19683
1.17352
1.1311
1.0839
1.03883
0.998644
0.963797
0.932949
0.902369
0.592065
1.0441
1.17989
1.21148
1.19271
1.15162
1.10373
1.05694
1.01469
0.977877
0.945436
0.913676
0.568156
1.03726
1.18741
1.22844
1.21454
1.17484
1.12615
1.07741
1.03279
0.993692
0.959353
0.926136
0.543681
1.03184
1.19762
1.24863
1.23966
1.20118
1.15139
1.10037
1.05308
1.01133
0.974728
0.939587
0.518515
1.03136
1.21378
1.27447
1.26935
1.23148
1.18019
1.1266
1.07614
1.03125
0.991846
0.954454
0.488893
1.03272
1.22879
1.30093
1.29772
1.26051
1.20801
1.15302
1.09947
1.05213
1.00986
0.97075
1.03284
0.00466795
0.343573
0.318478
0.317439
0.286464
0.277038
0.64661
0.824059
0.771288
0.563118
0.00774388
0.0323614
3.00092
0.273094
0.00354631
2.81377
0.109651
0.106714
0.00348016
0.139156
0.174921
0.143463
0.0267389
1.04806
0.342692
0.158497
0.36996
0.599205
0.806229
0.533048
1.16589
0.00419198
0.553675
0.0308995
0.16358
0.387926
0.466173
0.392917
0.00814562
0.0696279
0.00337439
0.0709681
0.524209
0.269668
0.171881
0.06033
0.024633
0.272612
0.13862
0.16179
0.634362
0.264178
0.00321462
1.97429
0.00443569
0.0105784
0.00337137
0.466874
0.262511
0.154126
1.19057
0.0032091
0.0167557
0.181428
0.00452092
0.8791
0.253539
1.53143
0.683221
1.8709
0.0531425
0.383245
0.721282
0.0272005
0.00323048
0.790845
0.00309529
0.0696245
0.240839
0.10257
0.00310396
0.406623
0.296444
0.0162373
1.11028
0.874869
0.00319465
0.38733
0.238915
0.353475
0.647876
0.00319824
0.00391465
0.458098
0.00326028
0.357492
0.0126798
0.00317187
0.889685
1.09871
0.201017
0.00335075
0.00432987
0.0031213
0.516012
0.509133
0.689888
0.527563
0.00864387
0.0939358
0.00312689
0.201824
0.00372186
0.00318213
0.218669
0.0194046
0.217712
1.08472
0.174527
1.0144
0.0291195
1.68811
0.197156
0.12473
1.28281
0.00404243
1.96349
0.0320066
0.00320011
0.231788
0.00323636
0.23365
0.00433504
0.161238
0.0051325
0.234392
0.5907
0.207332
0.00583148
0.0169118
0.14469
0.270183
0.0248749
0.175316
1.88432
0.299406
0.00453213
0.975324
0.374059
0.0614337
0.212825
0.00309437
0.113747
0.154741
0.00314694
0.248028
0.0032068
1.27024
0.00705749
0.0268506
0.00356569
0.127051
0.0132184
0.148009
0.0836111
0.983767
0.292963
0.335218
0.00307644
1.8754
0.751191
1.97905
0.0178024
0.00306909
0.569181
0.0031169
0.307006
0.136405
0.713324
1.00823
0.434642
0.0624463
0.371632
0.0033879
0.262269
0.0031775
0.00315328
0.176086
0.00318553
0.48316
0.00310853
0.936336
0.00474701
0.283663
0.295738
0.271361
0.16439
0.00312691
3.15642
1.01189
0.318876
0.415196
0.21667
0.325117
0.104103
0.0908283
0.226813
0.696174
0.214974
0.288906
0.892779
0.500523
0.397745
0.0031544
0.283822
0.0128999
0.42279
3.23271
0.211362
0.295806
1.01303
0.339969
0.0031562
0.00318728
1.29905
1.1096
0.00326836
4.18537
0.0320383
0.312276
0.120484
0.00311757
0.937853
0.409714
0.253782
0.245814
1.07054
0.648752
0.321907
0.153452
0.159732
1.24684
1.67521
0.374403
0.282446
0.228436
0.00350206
1.38663
0.290293
0.644987
0.719102
0.375323
3.93776
0.237892
0.23819
0.206862
0.310162
0.572835
0.342737
0.214423
0.258434
0.0156456
0.0892658
0.68344
0.262235
0.914787
0.506723
0.357087
1.48833
0.283771
0.0498685
1.62841
0.209282
0.208545
1.68452
0.243575
0.260538
0.303101
0.204566
0.866005
0.240012
0.373282
0.331787
0.608341
0.272721
0.469816
0.208126
1.11257
0.127664
0.202634
1.65723
0.2264
0.224957
0.283803
0.919416
0.118416
0.206278
0.0671385
0.481532
0.182699
0.104158
1.3621
2.04344
0.152544
0.946392
0.324822
0.00318778
0.19917
0.16462
0.209361
0.290013
0.0031572
1.17784
0.32071
0.0667254
0.225854
0.75575
0.00315192
0.637726
0.038448
0.574338
0.418142
4.90918
0.503982
0.751885
0.533791
0.00313854
0.00316357
0.286125
0.441925
0.00310994
0.512548
0.00311555
0.00316266
0.00322357
0.00311705
0.139115
0.00316351
0.00579389
1.0277
0.512142
0.003229
0.334639
0.00979882
0.196044
0.295437
1.27853
4.12429
0.475939
0.00306068
0.00323729
0.0812693
0.132667
0.208999
0.00307154
0.0981483
0.317074
0.871433
0.374178
0.178456
0.274549
1.01826
4.0644
0.155092
0.322199
0.00364529
0.00318509
0.156901
0.253775
0.115338
0.174239
0.506455
2.74233
1.68378
0.142534
0.343214
1.00628
0.0031974
0.415704
0.744916
0.00525673
0.00316726
0.520295
3.81381
0.734719
0.00309667
0.0484181
0.153535
0.0254475
0.00319832
0.826582
0.378927
0.27846
0.282816
0.00374335
3.79343
0.00314234
0.233655
0.539481
0.00646229
0.0110784
0.952969
0.0087536
1.39995
0.766082
1.14255
0.647655
0.172821
0.682012
0.00313933
0.00311267
0.00317209
1.03064
0.0748444
1.26165
2.7558
0.163954
0.591803
0.00317866
0.0105138
0.274541
0.00308302
0.00317114
0.703101
0.00310482
0.225822
0.909077
0.372772
0.00306048
0.00746185
0.109743
0.115063
0.236701
0.143672
0.00310525
3.3253
0.830012
0.108495
0.0123174
0.328694
0.199734
0.00708156
0.279444
0.00686723
0.837611
0.00352466
0.249796
0.1316
0.00311622
1.29278
0.238103
0.321889
0.00926335
0.466803
0.143444
0.00515572
0.217636
0.491078
0.349332
1.10843
0.023882
0.0503803
0.0114692
1.30299
0.670235
0.0622942
0.136363
0.161631
0.334622
0.180642
0.512057
1.10264
0.00306853
2.03538
0.907683
0.226072
0.00309852
0.268834
0.953832
0.0236631
0.437537
0.349378
0.254308
0.125773
0.177912
0.259371
0.00358281
0.0187986
0.868641
0.0388388
0.00438723
0.922592
4.06602
0.0392361
0.200865
0.781777
0.0889065
0.491318
0.260406
0.83689
0.320837
0.292234
0.00323063
0.0843441
0.448793
0.381928
1.32347
0.215223
1.41298
0.936994
3.73209
0.879699
0.307648
0.00316677
1.25554
0.204377
0.794991
0.41198
0.161641
0.0835632
0.421901
0.00322233
0.297917
0.00317773
0.342264
0.417111
0.213381
0.175842
1.26246
0.241352
1.0331
0.636477
1.96437
0.00321788
0.122551
0.925845
2.44018
0.195302
0.711286
0.00361263
0.0280304
0.346651
1.84564
0.586784
0.00310257
0.0577553
0.00312258
0.0581867
0.35133
0.0372962
0.838629
0.141655
0.59023
0.154417
0.123844
1.22937
0.708659
0.00319512
0.00319636
0.257128
1.20835
0.276746
0.593233
0.43788
0.661298
0.267817
0.00306022
0.185315
0.253861
0.00484697
1.04156
0.265313
0.177191
0.275461
0.012644
0.00306779
0.0235367
0.00313892
0.641251
0.811145
0.710081
0.632353
0.00319211
1.46793
0.0890297
0.743056
0.133987
1.72082
0.00826881
0.153357
0.00308356
0.496914
0.716047
0.316365
0.405902
0.00306083
1.29219
0.799212
0.511089
0.00311978
0.0689286
0.806758
0.611823
0.0060774
2.17126
0.00373349
0.796041
0.607553
0.00362559
0.130629
0.0870202
0.200705
0.00310552
0.00319885
1.14873
0.432452
0.322315
0.526892
0.00486676
0.127119
0.097474
0.762346
0.207691
0.0039475
0.206056
1.20794
0.00308043
0.00816676
0.287575
0.636259
1.10815
0.0031576
0.729144
0.222507
1.29948
0.0295317
0.15116
0.816319
0.00319891
0.199593
0.136717
0.375854
0.379387
0.717516
0.272212
1.20807
1.1686
0.281923
2.70131
0.0032352
0.00315013
1.48668
0.776968
0.00474561
0.00315672
0.468982
0.00320625
0.816994
0.540151
0.245863
0.00311889
0.801337
0.0493877
0.292595
1.20665
0.236526
0.147154
0.143572
1.33735
0.00319209
0.28372
0.973852
0.235683
0.552008
0.00670324
0.528623
0.260724
2.03089
0.00313004
0.147182
0.676909
0.305373
0.00331973
0.0945963
0.343451
0.440477
1.25994
0.0586721
1.86372
0.406962
0.0919253
0.404803
0.003134
0.00733621
0.358207
0.00307247
0.176116
0.00316514
0.244807
0.0107256
0.832724
0.00322332
0.109682
0.494938
1.59894
0.352775
0.663721
0.161931
2.43263
0.015516
0.09277
0.566467
0.00309962
0.003206
0.380175
0.15444
0.248928
0.390491
0.00328315
0.216319
0.218872
0.201175
0.487998
1.13923
0.200298
0.00319665
1.88222
2.41969
0.507048
0.00323832
0.0107544
2.08035
0.261615
0.00311955
1.28461
0.0031009
0.0797716
2.7285
0.00354391
0.291111
0.00314937
0.0560453
0.751451
0.00324368
0.00401043
0.00318307
0.00379538
0.0215413
3.79094
0.79833
0.0929786
0.241899
0.00316395
0.757458
0.00317322
0.245647
0.230578
0.0245066
0.158814
0.0137941
1.14209
0.00318364
4.3156
0.214717
0.622301
0.350561
0.162028
0.00309715
0.194303
1.09003
0.128474
0.743759
0.879085
1.68246
0.349467
0.0416488
0.621578
0.0832763
0.00405722
0.1056
2.46524
1.13896
0.118785
0.00800996
0.29863
0.00375031
0.439426
0.864975
1.07873
0.83424
0.889308
0.0369275
0.00581809
0.32731
0.225664
0.0480228
0.270815
0.00316036
0.261368
1.95249
0.00330056
1.68535
0.77647
0.113835
0.100971
1.44078
0.0235052
0.100382
0.452712
0.307749
0.291328
0.00322322
0.667955
0.0757631
0.271218
0.382812
0.19923
0.219046
0.00683462
0.680396
0.00317333
0.00316037
0.227911
0.103993
0.15792
1.90567
0.00306074
1.13194
0.0640523
0.0572915
0.00339026
1.71029
0.359558
0.0891255
0.777933
0.0592237
1.15917
0.153404
0.00314234
1.19341
2.07587
0.00544187
0.00870886
0.203749
1.0301
0.0983949
1.32406
0.0349708
0.231261
0.103089
0.155591
0.674774
0.203418
0.00318771
1.1674
0.329873
0.015023
0.19526
4.23481
0.277361
0.0031765
0.0030821
0.757549
0.184986
1.00576
0.00307189
0.708821
0.293138
0.409092
0.00376299
0.313746
0.770665
0.00536296
0.259648
0.00321522
1.11518
0.211989
0.346635
0.263348
0.00314576
0.00314544
0.344866
1.39547
0.382294
0.726028
0.00307717
0.0450995
0.00320747
0.0062355
1.15126
0.0734974
0.0961526
0.123517
0.32637
0.305424
0.35619
1.20087
0.00317257
0.30562
0.725617
0.246741
0.00319245
0.935437
0.00320432
0.00316613
0.0876967
0.213029
0.0249759
1.35934
0.204195
2.78468
0.00328324
0.0047531
0.0392958
0.902956
0.302768
0.962431
0.00316784
0.00314788
0.00626995
0.00831868
1.09584
0.799079
0.640989
0.122623
0.0444719
0.312469
0.163581
0.57782
0.275428
0.87262
0.312217
0.00308297
0.332041
0.00535481
0.192291
0.882127
0.185284
0.229978
0.13177
0.00380378
1.33388
0.511833
0.482275
0.31582
0.00315905
0.588592
0.755992
0.333808
0.00816434
0.905939
0.480454
0.831695
0.32821
0.336507
0.587564
0.119106
0.860589
0.254215
0.0969995
0.23639
0.00317835
1.20553
0.862373
0.00311799
0.677867
0.00476215
0.538836
0.204792
0.235079
0.267866
0.730494
0.942919
0.261819
0.129862
0.175289
0.218958
0.0124565
0.00310649
1.0205
0.0610804
0.931289
0.549734
0.221043
0.827815
0.54576
0.00314483
0.279136
1.5332
1.06031
0.226241
0.239763
0.565359
1.88436
0.191006
0.23252
0.02475
0.0829417
0.547887
1.18709
0.11069
0.83532
0.813655
0.778096
0.239597
0.229005
0.420999
0.686447
0.00319152
1.929
0.669884
0.202104
0.00319069
0.585437
0.468815
0.295558
0.00317471
0.591279
0.0031723
0.24268
0.0905105
0.00319371
0.816325
0.348264
0.00310588
0.531596
0.374406
0.603068
0.259085
0.519116
0.279376
0.696974
0.169657
0.155217
0.0031291
0.00469497
0.344759
0.17254
0.0221077
0.00323051
0.355554
0.00601591
0.118544
0.117554
0.441308
0.206564
0.0570988
0.0937854
0.550572
1.62601
0.330695
4.09844
0.863245
0.00311837
0.540805
0.583651
1.66629
0.0031265
0.172185
0.00318786
0.00358721
0.278363
0.286687
0.0388113
0.00340566
0.797666
3.71215
0.00735664
0.003176
0.128695
0.25896
0.0237885
0.0733422
3.83845
0.139001
0.00338844
0.00317685
0.961777
0.26383
0.134281
0.0588037
0.651661
1.13135
0.392476
0.247433
0.672718
0.0031732
0.496952
0.00315951
0.231183
0.275062
5.35833
0.177363
0.0890799
0.00382187
1.17717
0.00319448
0.00313381
0.00583255
0.272086
0.288379
0.969403
0.00314912
0.502435
0.00317201
0.691808
0.969535
0.00320492
0.725823
0.222072
0.00317286
0.00330027
0.0315698
1.09733
0.380018
0.026242
0.00317393
0.00313219
0.848402
0.6856
0.327088
0.74745
0.116488
0.438426
0.00314871
0.0102633
0.379132
0.810468
0.751573
0.0088265
0.0031762
0.398918
0.00319827
0.203874
0.80566
0.349952
0.0427775
0.201033
0.501173
0.155375
0.00316956
0.508851
1.32277
0.648436
0.00640571
0.0304123
0.684163
3.68686
0.0542926
0.370224
0.00311038
0.0030927
0.00321351
0.0186634
0.402611
1.06715
0.0102405
0.221042
0.628187
1.23357
0.205468
0.0195765
0.00792313
0.00754625
0.156448
0.171904
0.237936
0.00322348
1.33445
0.00314304
0.0135774
0.836188
0.846026
0.0360835
0.369165
0.463693
0.00409211
0.129559
0.251558
0.00315474
0.0037774
1.11411
0.00365195
0.0032248
0.707448
0.236506
2.09223
0.208585
2.40412
0.00355855
0.00311709
3.23512
0.296731
0.22314
0.494762
0.0598313
0.233779
0.194805
1.02055
0.807891
0.588314
0.582093
0.233439
0.110535
0.322885
0.728132
0.0145585
0.35204
0.00391923
0.439644
0.365238
0.10609
0.380356
0.18766
0.409884
0.204835
0.2632
1.10624
0.460763
0.216595
0.318351
0.704446
0.322332
0.00420367
0.00315947
0.110196
2.21359
0.00316166
1.77722
0.00312491
0.00983331
0.339694
0.221651
0.813728
0.678464
0.902051
1.13121
0.516792
0.387617
0.00316663
0.290388
1.0502
0.00323919
1.23861
0.00710815
1.70802
0.940288
1.13311
0.274672
0.206444
0.280487
0.0912605
0.285231
1.22699
0.360661
0.774501
0.168783
0.203341
0.0847727
0.23185
0.951089
0.00949899
0.659343
0.00319425
0.00392722
0.300115
1.50747
0.338236
0.274381
0.163099
0.109731
0.120487
0.00347405
0.340778
0.00347361
0.704183
0.00342087
0.0575698
0.942894
0.170727
0.303415
0.333715
0.317599
0.00620969
0.00321377
0.0982584
0.267313
0.11379
0.517561
0.042153
0.36654
0.236678
0.37516
0.790743
0.00358998
0.00314779
1.67693
0.224827
0.170961
0.803901
0.68212
0.810785
0.00981489
1.67353
0.336773
0.213223
0.00347413
0.195106
0.403396
0.205693
0.205824
0.265721
0.00323184
0.468355
0.00313386
0.627439
0.01062
0.439671
0.117028
0.405149
0.00324326
6.52169
0.00319249
1.50002
0.025322
0.00317461
0.0144603
0.275194
0.00317075
0.00318038
0.391993
0.0324068
0.327683
0.0565377
0.00332508
0.220065
0.185367
0.44588
0.00333868
0.223996
0.189419
1.35547
0.700733
0.395107
0.417121
0.215738
0.303334
0.777675
0.831426
0.211362
0.00322413
0.14342
0.362111
0.306923
0.00470872
0.00848016
0.23546
1.57296
0.00318406
0.204127
1.22674
0.00306899
0.842837
0.928769
0.356692
0.595312
0.789962
0.259171
0.128973
2.57511
0.407376
0.876079
0.815099
0.222994
0.106405
0.00316623
0.421122
0.00585426
0.00321786
0.00313398
0.301098
0.00316626
0.00373114
0.532468
4.04785
0.40374
0.209311
0.827099
0.239325
0.00318142
0.166411
1.14344
0.0250872
0.163104
1.01087
0.314028
0.124321
0.0309468
0.00314356
0.0031678
0.0270957
0.0444384
0.304118
0.30114
1.22696
0.268036
0.268827
0.00394906
0.50251
0.214599
0.0032118
0.342506
3.3605
0.00320762
0.358918
1.01601
0.73238
0.656751
0.188132
1.09337
0.00355883
0.208288
0.00331676
0.00631755
0.0032097
0.827225
0.563234
0.0735044
0.00319325
0.00307619
1.11298
0.386522
0.286476
0.236449
0.350927
0.435294
0.305684
0.346108
0.351162
0.00317718
0.149888
0.12227
0.135109
0.384855
1.05135
0.760141
0.591825
0.364316
1.10808
0.826526
0.952974
0.41735
0.874132
0.0640917
0.818368
0.393687
0.0278299
1.01112
0.848988
0.442759
0.00311818
0.00320083
0.00360619
0.00443383
0.473417
0.00306088
0.494901
0.165537
0.99575
0.760217
0.0031709
0.469598
0.284044
0.187244
0.275566
0.390156
0.547682
0.00326371
0.00319927
0.00905408
0.099653
0.00313224
0.638004
0.267171
0.249376
0.753033
0.509644
0.442251
0.532563
0.00316786
0.31887
0.662954
0.00380851
0.0782802
0.410454
0.314853
0.531755
0.192742
0.00325441
0.376807
0.359788
0.00384597
0.0203499
0.00315772
0.179376
0.00439683
0.142346
1.27851
0.111041
0.0729161
0.994374
1.81164
0.00326768
0.622006
0.00307853
0.224403
0.347119
0.249004
0.477915
0.690574
0.670716
0.801135
1.21418
0.739458
0.00317852
0.00314513
0.0527424
0.100626
0.600212
0.171696
0.00319286
1.57745
0.251221
0.00821908
0.781231
0.0581562
0.00812212
0.0399641
0.990381
0.00643905
0.00319414
0.259599
0.206158
0.635018
0.115091
0.22679
0.202245
0.00321261
0.290897
0.0895775
0.059551
0.00337362
0.203543
0.528554
0.172858
1.43935
1.32524
0.316367
0.410206
0.00316328
0.360577
0.00319636
2.71425
0.0102623
0.430447
0.0935201
0.833588
0.0162122
0.00929614
0.244234
0.304771
1.30033
0.00356301
0.209781
0.482949
0.610036
0.184439
0.998662
0.119605
0.0034321
0.00320505
0.476129
0.629827
1.0591
0.286762
0.0840424
0.530636
0.329237
0.811435
0.0455634
0.00316876
0.00318276
0.1211
0.706736
0.683953
0.982827
0.00353143
0.0109052
0.165778
0.453645
0.269705
0.752427
0.350917
0.872283
0.00319886
0.00320854
1.1283
0.275229
0.878419
2.86727
0.361193
0.0244722
1.40178
0.00318338
1.02259
0.0274237
0.0304868
0.00317069
0.0413496
0.0837634
0.830547
0.787581
0.00322673
0.758206
0.00315929
0.602011
1.55502
0.003145
0.155657
0.00322657
0.260097
0.12656
0.173541
0.00308983
0.26219
0.211865
0.257004
1.01536
0.167947
1.21531
0.214534
0.825032
0.23836
1.10931
0.631251
0.00383653
0.00320738
0.376042
0.193095
0.814597
0.00317718
2.0985
0.00315891
0.00477285
0.0351726
0.00315952
1.13726
0.965139
0.00324379
0.659538
0.254167
0.101623
0.703052
0.00606526
0.00312873
0.424248
0.381544
0.0096722
0.769761
6.63997
1.34826
0.153232
1.1882
0.103386
0.00318521
0.00368297
0.0349013
0.136526
0.83742
1.08075
1.31068
0.788688
0.531812
0.504544
0.253926
0.643176
1.93035
0.588518
0.0427161
0.0776465
0.274896
1.49563
0.0033802
0.192593
0.649716
0.332844
0.00317227
0.425276
0.00306699
0.0137749
0.84333
0.00338988
0.298845
1.84373
0.00318984
0.351984
0.00351773
0.33657
0.0139835
0.00406312
0.760161
0.256234
0.908528
0.395684
1.11215
1.6454
0.490262
0.174919
0.745699
0.385865