/*--------------------------------*- C++ -*----------------------------------*\
| =========                 |                                                 |
| \\      /  F ield         | OpenFOAM: The Open Source CFD Toolbox           |
|  \\    /   O peration     | Version:  2.3.1                                 |
|   \\  /    A nd           | Web:      www.OpenFOAM.org                      |
|    \\/     M anipulation  |                                                 |
\*---------------------------------------------------------------------------*/
FoamFile
{
    version     2.0;
    format      ascii;
    class       volScalarField;
    location    "0.29";
    object      nut;
}
// * * * * * * * * * * * * * * * * * * * * * * * * * * * * * * * * * * * * * //

dimensions      [0 2 -1 0 0 0 0];

internalField   nonuniform List<scalar> 
15166
(
9.7205e-05
0.000156875
0.000261458
0.000375223
0.000475029
0.000589251
0.000707
0.000834786
0.000954003
0.0010766
0.00119292
0.00129269
9.72211e-05
0.000170731
0.000282086
0.000395693
0.000499089
0.000612313
0.000728744
0.000851697
0.000968585
0.00108668
0.00119867
0.00129926
9.75857e-05
0.000181994
0.000298272
0.000412572
0.000518838
0.000631439
0.000746588
0.000865815
0.000980501
0.0010948
0.00120323
0.00130361
9.80603e-05
0.00019208
0.000312067
0.000427121
0.000535425
0.000647469
0.000761353
0.000877599
0.000990164
0.0011012
0.00120663
0.00130685
9.85677e-05
0.000201199
0.000324268
0.000440034
0.000549699
0.000661147
0.000773726
0.000887466
0.00099799
0.00110615
0.00120908
0.00130871
9.91163e-05
0.000209398
0.000335208
0.000451622
0.000562167
0.000672938
0.0007842
0.000895751
0.00100428
0.00110988
0.00121059
0.0013095
9.9701e-05
0.000216765
0.000345146
0.000462116
0.000573136
0.00068319
0.000793134
0.000902696
0.00100931
0.00111258
0.00121129
0.0013099
0.00010032
0.000223384
0.000354283
0.000471678
0.000582881
0.000692162
0.0008008
0.000908526
0.00101329
0.00111444
0.00121151
0.00131044
0.000100953
0.00022932
0.00036277
0.000480498
0.00059163
0.000700078
0.000807418
0.000913431
0.00101641
0.00111562
0.00121127
0.00131015
0.000101597
0.000234612
0.000370697
0.00048867
0.000599553
0.000707125
0.000813166
0.000917541
0.00101881
0.00111625
0.00121071
0.00130935
0.000102248
0.000239313
0.000378129
0.000496289
0.000606769
0.000713428
0.000818184
0.000920988
0.00102061
0.00111647
0.00121005
0.00130954
0.000102897
0.000243455
0.000385102
0.000503426
0.000613383
0.0007191
0.000822583
0.000923875
0.00102194
0.0011164
0.00120932
0.00130891
0.000103542
0.000247082
0.000391653
0.000510121
0.000619488
0.000724236
0.000826452
0.000926286
0.00102287
0.00111606
0.00120839
0.00130724
0.00010418
0.000250251
0.000397804
0.000516421
0.000625139
0.000728893
0.000829868
0.000928286
0.00102347
0.00111549
0.00120702
0.00130469
0.000104811
0.000252973
0.00040357
0.000522373
0.000630394
0.000733151
0.000832894
0.000929952
0.00102379
0.00111472
0.00120553
0.00130246
0.000105427
0.000255303
0.000408951
0.000527992
0.000635297
0.00073704
0.000835571
0.000931307
0.00102388
0.00111378
0.00120385
0.00129953
0.000106033
0.000257261
0.000413951
0.000533305
0.000639887
0.000740615
0.000837952
0.000932417
0.00102378
0.00111269
0.00120197
0.0012966
0.00010662
0.000258892
0.000418593
0.000538338
0.000644205
0.00074392
0.000840082
0.000933292
0.0010235
0.00111145
0.00119989
0.0012932
0.00010719
0.000260231
0.000422869
0.000543095
0.000648256
0.000746963
0.000841966
0.000933985
0.00102307
0.00111009
0.0011977
0.00128986
0.000107745
0.000261292
0.000426797
0.000547589
0.000652083
0.000749783
0.000843656
0.000934503
0.00102251
0.00110862
0.0011954
0.00128653
0.000108286
0.000262118
0.000430372
0.00055183
0.000655683
0.000752401
0.000845156
0.000934865
0.00102183
0.00110704
0.00119293
0.00128273
0.000108808
0.000262718
0.000433602
0.000555835
0.000659092
0.000754827
0.000846488
0.000935091
0.00102105
0.00110537
0.00119031
0.00127883
0.000109303
0.000263131
0.000436505
0.000559589
0.000662306
0.000757089
0.000847677
0.000935205
0.00102017
0.0011036
0.00118761
0.00127573
0.00010979
0.000263369
0.000439081
0.00056311
0.000665343
0.0007592
0.000848739
0.000935217
0.0010192
0.00110173
0.00118481
0.00127207
0.000110252
0.000263446
0.000441338
0.000566413
0.000668215
0.000761173
0.000849678
0.000935124
0.00101816
0.00109979
0.00118201
0.00126903
0.000110696
0.000263396
0.000443289
0.000569489
0.000670928
0.00076301
0.000850505
0.000934948
0.00101704
0.00109778
0.00117916
0.00126551
0.000111125
0.000263219
0.000444942
0.000572331
0.000673488
0.000764728
0.000851237
0.000934691
0.00101585
0.00109573
0.00117637
0.00126274
0.000111531
0.000262949
0.000446324
0.000574954
0.000675891
0.000766328
0.000851881
0.00093436
0.00101461
0.00109365
0.00117367
0.00126018
0.000111917
0.000262581
0.000447424
0.000577369
0.000678151
0.000767823
0.00085243
0.000933969
0.00101332
0.00109156
0.00117095
0.0012568
0.000112283
0.000262117
0.000448277
0.00057956
0.000680272
0.000769212
0.000852906
0.000933511
0.00101198
0.00108944
0.00116827
0.00125399
0.000112626
0.000261604
0.000448869
0.000581538
0.000682247
0.000770507
0.000853308
0.000933005
0.00101062
0.00108732
0.00116554
0.00125056
0.000112959
0.000261019
0.000449242
0.000583299
0.000684087
0.000771706
0.000853647
0.000932442
0.00100922
0.00108519
0.00116284
0.00124767
0.000113279
0.000260381
0.000449383
0.000584866
0.000685796
0.00077282
0.000853914
0.000931841
0.0010078
0.00108304
0.00116011
0.00124408
0.000113568
0.00025971
0.000449331
0.000586223
0.000687365
0.000773843
0.000854127
0.000931199
0.00100635
0.00108088
0.00115738
0.00124101
0.000113844
0.000259002
0.000449075
0.000587392
0.000688806
0.000774779
0.000854281
0.000930519
0.00100487
0.00107872
0.00115462
0.00123739
0.000114112
0.000258267
0.000448653
0.000588348
0.00069011
0.000775637
0.000854387
0.000929803
0.00100338
0.00107655
0.0011519
0.00123461
0.000114347
0.000257503
0.000448051
0.000589126
0.000691286
0.00077641
0.000854431
0.000929046
0.00100187
0.00107438
0.00114925
0.0012321
0.000114576
0.000256724
0.000447294
0.000589709
0.000692328
0.000777107
0.000854432
0.000928267
0.00100034
0.00107222
0.0011466
0.00122881
0.000114784
0.000255931
0.000446395
0.000590115
0.000693246
0.000777715
0.000854384
0.000927462
0.000998815
0.00107006
0.00114395
0.00122561
0.000114972
0.000255131
0.000445366
0.000590347
0.00069404
0.000778259
0.00085429
0.000926625
0.00099727
0.0010679
0.0011413
0.00122225
0.000115152
0.000254313
0.000444214
0.000590403
0.000694704
0.000778716
0.000854149
0.000925772
0.000995716
0.00106574
0.00113853
0.00121838
0.000115306
0.000253415
0.000442928
0.000590297
0.00069524
0.000779101
0.000853965
0.000924889
0.000994154
0.00106356
0.00113575
0.00121558
0.000115453
0.000252488
0.000441548
0.000590034
0.000695655
0.000779408
0.000853737
0.000923991
0.000992584
0.00106137
0.00113297
0.00121221
0.000115574
0.000251495
0.000440025
0.000589605
0.000695944
0.000779636
0.000853466
0.000923066
0.000990998
0.00105917
0.00113023
0.00120946
0.000115677
0.000250499
0.000438339
0.000589028
0.000696113
0.000779785
0.000853153
0.000922121
0.000989406
0.00105697
0.00112748
0.001206
0.00011577
0.000249539
0.000436529
0.000588279
0.000696155
0.000779864
0.000852805
0.000921157
0.000987805
0.00105476
0.00112478
0.00120346
0.00011585
0.000248526
0.000434626
0.000587325
0.000696052
0.000779864
0.000852409
0.000920173
0.000986193
0.00105256
0.00112208
0.00120009
0.000115905
0.000247544
0.000432631
0.000586234
0.000695815
0.000779777
0.000851967
0.00091917
0.000984574
0.00105037
0.00111942
0.00119749
0.00011595
0.000246565
0.000430596
0.000584973
0.000695441
0.000779611
0.000851486
0.000918137
0.000982947
0.00104817
0.00111677
0.00119427
0.000115982
0.000245592
0.000428453
0.000583568
0.00069494
0.000779348
0.000850957
0.000917089
0.000981305
0.00104598
0.00111415
0.00119168
0.000116003
0.000244661
0.000426253
0.000582023
0.000694313
0.000779014
0.00085038
0.000916018
0.000979663
0.00104379
0.00111148
0.0011881
0.000116008
0.000243692
0.000423999
0.000580324
0.000693546
0.000778579
0.000849752
0.000914918
0.00097801
0.0010416
0.00110882
0.00118476
0.000115998
0.000242777
0.000421705
0.000578521
0.000692655
0.00077806
0.000849076
0.000913804
0.000976354
0.00103943
0.00110621
0.00118245
0.00011598
0.000241868
0.000419373
0.000576574
0.000691625
0.000777457
0.000848355
0.000912666
0.000974694
0.00103726
0.00110364
0.00117973
0.000115941
0.000240967
0.00041701
0.000574512
0.000690472
0.000776757
0.000847581
0.000911505
0.000973029
0.0010351
0.00110111
0.00117705
0.000115886
0.000240074
0.000414619
0.000572343
0.000689196
0.000775961
0.000846752
0.000910319
0.000971361
0.00103295
0.00109857
0.00117372
0.000115828
0.000239236
0.000412213
0.00057007
0.000687786
0.000775078
0.000845874
0.000909111
0.000969684
0.00103082
0.00109604
0.00117083
0.000115752
0.000238364
0.000409789
0.000567679
0.000686258
0.000774104
0.000844933
0.000907876
0.000968012
0.00102869
0.00109348
0.00116715
0.000115659
0.000237544
0.000407353
0.000565198
0.000684598
0.000773021
0.000843947
0.000906622
0.000966334
0.00102657
0.00109095
0.0011652
0.000115564
0.000236739
0.000404943
0.000562657
0.000682839
0.000771856
0.000842891
0.000905331
0.00096464
0.00102444
0.00108844
0.00116242
0.00011545
0.000235969
0.000402494
0.000560012
0.000680952
0.000770587
0.000841778
0.000904015
0.000962944
0.00102232
0.00108593
0.00115932
0.000115321
0.000235176
0.000400044
0.000557289
0.000678939
0.000769215
0.000840598
0.00090266
0.000961233
0.00102021
0.00108341
0.00115588
0.000115181
0.000234434
0.000397602
0.0005545
0.000676835
0.000767748
0.000839353
0.000901279
0.000959515
0.00101809
0.0010809
0.00115294
0.000115034
0.000233706
0.000395201
0.000551626
0.000674607
0.000766178
0.000838047
0.000899865
0.000957794
0.00101599
0.00107836
0.00114949
0.000114872
0.000233021
0.000392776
0.000548718
0.000672279
0.000764515
0.000836671
0.000898416
0.000956057
0.00101388
0.00107582
0.00114666
0.000114705
0.000232344
0.000390395
0.000545755
0.000669837
0.000762755
0.000835225
0.000896937
0.000954314
0.00101177
0.00107327
0.0011434
0.000114501
0.000231658
0.000388021
0.000542721
0.000667311
0.00076089
0.000833715
0.000895415
0.000952547
0.00100965
0.00107073
0.00114074
0.000114329
0.000231027
0.00038568
0.000539662
0.000664685
0.000758932
0.000832136
0.000893853
0.000950769
0.00100752
0.00106818
0.00113746
0.00011411
0.000230415
0.00038335
0.000536565
0.000661956
0.000756871
0.000830478
0.000892248
0.000948964
0.0010054
0.00106563
0.0011345
0.000113869
0.000229821
0.000381045
0.000533425
0.000659156
0.000754725
0.000828746
0.000890601
0.000947147
0.00100326
0.00106306
0.00113112
0.000113643
0.000229221
0.000378776
0.000530239
0.000656255
0.000752477
0.000826944
0.000888904
0.000945304
0.00100111
0.0010605
0.0011282
0.000113398
0.000228716
0.000376519
0.000527041
0.000653279
0.000750122
0.000825066
0.00088716
0.000943436
0.000998944
0.00105791
0.00112472
0.000113145
0.000228148
0.000374337
0.00052386
0.000650235
0.000747684
0.0008231
0.000885367
0.000941547
0.00099677
0.00105529
0.00112133
0.000112875
0.000227666
0.000372106
0.000520594
0.000647076
0.000745134
0.000821048
0.000883518
0.00093962
0.000994581
0.00105268
0.00111828
0.000112596
0.000227204
0.000369982
0.000517356
0.000643889
0.000742506
0.000818934
0.000881618
0.000937673
0.000992381
0.00105007
0.00111501
0.000112278
0.000226695
0.000367865
0.00051409
0.000640612
0.000739794
0.000816732
0.000879671
0.000935697
0.000990165
0.00104747
0.00111227
0.000111978
0.000226256
0.000365802
0.000510832
0.000637264
0.000736977
0.000814447
0.000877653
0.000933676
0.000987931
0.00104484
0.00110896
0.000111684
0.00022589
0.000363788
0.000507562
0.000633869
0.000734069
0.00081208
0.000875585
0.000931628
0.000985676
0.00104221
0.00110603
0.000111348
0.000225475
0.000361793
0.000504302
0.000630411
0.000731085
0.000809632
0.000873456
0.000929534
0.0009834
0.00103955
0.00110264
0.000110985
0.000225104
0.000359852
0.000501037
0.000626912
0.000728012
0.000807099
0.000871264
0.000927407
0.000981095
0.00103691
0.00109993
0.000110643
0.000224765
0.000357924
0.000497792
0.000623351
0.00072485
0.00080448
0.000868999
0.000925236
0.000978763
0.00103424
0.00109675
0.000110277
0.000224436
0.000356081
0.000494539
0.000619731
0.000721593
0.000801784
0.000866668
0.000923015
0.000976407
0.00103154
0.00109316
0.000109899
0.00022414
0.00035429
0.000491323
0.000616089
0.000718281
0.000798991
0.000864269
0.000920746
0.00097403
0.00102882
0.00108986
0.000109511
0.000223866
0.000352525
0.000488134
0.0006124
0.000714881
0.000796111
0.000861794
0.000918431
0.000971619
0.00102612
0.00108714
0.000109109
0.00022361
0.000350814
0.000484968
0.000608664
0.000711406
0.000793156
0.000859247
0.000916065
0.00096918
0.00102339
0.00108391
0.000108669
0.000223361
0.000349141
0.000481781
0.000604929
0.000707863
0.000790103
0.000856641
0.000913642
0.000966699
0.00102066
0.00108108
0.000108247
0.000223146
0.000347517
0.000478649
0.000601153
0.000704227
0.000786973
0.00085394
0.00091117
0.000964191
0.0010179
0.00107762
0.000107807
0.000222958
0.000345953
0.000475571
0.000597325
0.000700534
0.000783741
0.000851165
0.000908646
0.000961654
0.00101516
0.00107483
0.000107355
0.000222798
0.000344443
0.000472516
0.000593513
0.000696762
0.000780421
0.00084831
0.000906052
0.000959082
0.00101242
0.00107208
0.00010689
0.000222661
0.000342946
0.000469471
0.000589661
0.00069292
0.000777023
0.000845371
0.000903384
0.000956453
0.00100968
0.00106974
0.000106411
0.000222549
0.000341551
0.000466506
0.000585822
0.000689046
0.00077354
0.000842358
0.000900667
0.000953801
0.00100689
0.00106601
0.00010592
0.000222468
0.000340211
0.00046355
0.000581951
0.000685084
0.000769981
0.000839265
0.000897885
0.000951115
0.00100411
0.00106307
0.000105389
0.000222351
0.000338887
0.000460645
0.000578083
0.000681075
0.000766335
0.000836076
0.000895032
0.000948384
0.00100125
0.00105949
0.000104898
0.000222339
0.000337631
0.000457799
0.000574213
0.000676988
0.000762597
0.000832803
0.000892107
0.000945595
0.000998354
0.00105618
0.000104338
0.000222286
0.00033644
0.000455006
0.00057033
0.000672891
0.000758768
0.000829434
0.000889118
0.000942753
0.000995381
0.00105249
0.000103792
0.000222279
0.000335317
0.00045228
0.000566495
0.000668719
0.000754865
0.000825986
0.000886045
0.000939846
0.000992393
0.00104943
0.000103232
0.000222263
0.000334223
0.000449583
0.000562647
0.000664513
0.000750877
0.000822439
0.000882884
0.00093687
0.000989317
0.00104574
0.000102656
0.000222335
0.000333202
0.00044696
0.000558823
0.000660247
0.000746799
0.000818814
0.000879646
0.000933844
0.000986239
0.00104255
0.000102038
0.000222325
0.00033225
0.000444406
0.000555002
0.000655975
0.000742654
0.000815087
0.000876332
0.000930742
0.000983072
0.00103887
0.000101431
0.000222419
0.000331331
0.000441893
0.000551216
0.000651631
0.000738432
0.000811251
0.000872915
0.000927571
0.000979921
0.001036
0.00010081
0.000222508
0.000330493
0.000439466
0.000547473
0.000647295
0.000734123
0.000807328
0.000869409
0.000924313
0.000976705
0.00103254
0.000100173
0.000222641
0.000329733
0.000437089
0.000543745
0.000642916
0.000729751
0.000803325
0.000865817
0.000921005
0.00097341
0.00102871
9.95187e-05
0.000222812
0.000329007
0.000434804
0.000540072
0.000638528
0.000725299
0.000799212
0.000862128
0.000917614
0.00097009
0.00102541
9.8849e-05
0.000222976
0.000328366
0.000432611
0.000536427
0.000634109
0.00072079
0.000795008
0.000858334
0.000914134
0.00096674
0.00102231
9.81353e-05
0.000223125
0.000327767
0.00043048
0.000532845
0.000629671
0.00071622
0.000790699
0.000854444
0.000910579
0.000963325
0.00101859
9.74301e-05
0.000223338
0.000327254
0.000428414
0.000529301
0.000625246
0.000711577
0.000786306
0.00085046
0.000906934
0.000959855
0.00101514
9.66801e-05
0.000223532
0.000326783
0.000426459
0.000525843
0.000620839
0.000706867
0.000781805
0.000846359
0.000903194
0.000956255
0.00101112
9.59366e-05
0.000223796
0.000326412
0.000424617
0.00052244
0.000616426
0.000702116
0.000777203
0.000842146
0.000899348
0.000952557
0.00100698
9.52061e-05
0.000224137
0.000326093
0.00042282
0.000519128
0.000612021
0.000697306
0.000772524
0.000837834
0.000895401
0.000948803
0.00100324
9.44034e-05
0.000224396
0.000325833
0.000421183
0.000515886
0.000607654
0.000692452
0.000767761
0.000833405
0.000891341
0.0009449
0.000999038
9.36015e-05
0.000224728
0.000325672
0.000419594
0.00051272
0.00060331
0.000687577
0.000762879
0.000828856
0.000887171
0.000940968
0.000995402
9.2783e-05
0.000225117
0.000325566
0.000418139
0.000509675
0.000599024
0.000682664
0.000757932
0.000824208
0.00088289
0.000936939
0.000991198
9.19167e-05
0.000225446
0.000325561
0.000416786
0.000506713
0.000594752
0.000677741
0.000752898
0.000819446
0.000878524
0.000932844
0.000986906
9.10519e-05
0.000225859
0.000325625
0.000415572
0.000503857
0.000590555
0.000672771
0.00074779
0.000814554
0.000873995
0.000928572
0.000983028
9.01687e-05
0.00022633
0.000325713
0.000414428
0.00050111
0.00058642
0.000667809
0.000742571
0.000809526
0.000869315
0.000924162
0.000978491
8.92634e-05
0.000226769
0.000325965
0.000413445
0.000498522
0.000582388
0.000662848
0.000737305
0.000804404
0.00086453
0.000919688
0.000974355
8.83336e-05
0.000227286
0.00032625
0.000412589
0.000496059
0.00057842
0.000657923
0.00073198
0.000799159
0.000859583
0.00091503
0.000969564
8.73514e-05
0.00022775
0.000326659
0.000411897
0.000493745
0.000574584
0.000652998
0.000726596
0.000793791
0.000854535
0.000910322
0.000965172
8.63379e-05
0.000228281
0.000327102
0.000411302
0.000491585
0.000570864
0.000648147
0.000721195
0.000788344
0.000849342
0.000905461
0.00096026
8.53546e-05
0.000228923
0.000327687
0.000410888
0.000489595
0.000567273
0.000643324
0.000715739
0.00078281
0.000844039
0.00090047
0.00095523
8.43276e-05
0.000229531
0.000328361
0.000410602
0.000487812
0.000563837
0.000638599
0.000710264
0.000777141
0.000838543
0.000895201
0.000950207
8.32378e-05
0.000230153
0.000329134
0.000410512
0.000486191
0.000560572
0.00063397
0.000704806
0.000771384
0.000832903
0.000889811
0.000944779
8.21122e-05
0.0002308
0.000330007
0.000410587
0.000484785
0.0005575
0.000629455
0.000699346
0.000765561
0.000827148
0.000884339
0.000939789
8.10112e-05
0.000231576
0.000330985
0.000410822
0.000483633
0.000554639
0.000625067
0.000693944
0.000759666
0.000821217
0.000878598
0.000933819
7.98358e-05
0.000232303
0.000332084
0.000411283
0.000482698
0.000552021
0.000620875
0.000688584
0.000753725
0.000815174
0.00087268
0.000927957
7.86135e-05
0.000233067
0.000333304
0.000411955
0.000482058
0.000549676
0.00061689
0.000683343
0.000747759
0.000808991
0.000866536
0.00092156
7.74097e-05
0.000233962
0.000334651
0.000412817
0.000481681
0.000547625
0.00061312
0.000678206
0.000741799
0.000802706
0.000860224
0.000915109
7.61267e-05
0.000234814
0.000336142
0.000413951
0.000481625
0.000545911
0.000609654
0.000673243
0.00073586
0.000796302
0.000853712
0.000908327
7.48161e-05
0.000235726
0.000337772
0.000415314
0.00048192
0.000544561
0.000606478
0.000668476
0.000729955
0.000789792
0.000847034
0.000901937
7.34407e-05
0.000236649
0.000339535
0.000416995
0.000482588
0.000543605
0.000603678
0.000663933
0.000724087
0.000783169
0.000840087
0.000894667
7.20351e-05
0.000237623
0.000341511
0.000418966
0.000483682
0.000543116
0.000601246
0.000659643
0.000718315
0.000776467
0.000832972
0.000887552
7.05523e-05
0.00023855
0.000343648
0.000421284
0.000485193
0.000543054
0.000599193
0.000655608
0.000712646
0.000769663
0.000825579
0.000879651
6.90202e-05
0.000239529
0.000345966
0.000423913
0.000487111
0.000543418
0.000597527
0.000651817
0.00070701
0.00076271
0.000817846
0.000871659
6.74155e-05
0.000240389
0.000348391
0.000426868
0.000489369
0.000544142
0.000596231
0.000648384
0.000701586
0.000755726
0.000809882
0.000863542
6.54502e-05
0.000239439
0.00034883
0.000428727
0.000490526
0.000544112
0.000594413
0.000644746
0.000695977
0.000748924
0.000801932
0.00085504
0.000472606
0.00154457
0.00163337
0.00187667
0.00187838
0.000618027
0.000606198
0.000463278
0.00136833
0.0020538
0.00380598
0.00201428
0.00422334
0.001422
0.000557149
0.00133137
0.00149304
0.00503211
0.00501668
0.00131758
0.000717734
0.000486641
0.00734791
0.00353998
0.000473261
0.0016355
0.000564368
0.000769099
0.00193643
0.00122183
0.00177513
0.000335453
0.00146072
0.00377056
0.00410846
0.00104207
0.000155009
0.00156364
0.000466357
0.00206723
0.00184651
0.00129195
0.00383948
0.00104945
0.000275176
0.000488464
0.00575925
0.00372898
0.000278254
0.000722009
0.00104287
0.00046577
0.000339151
0.00124158
0.00164416
0.00150465
0.00237899
0.00129131
0.00156405
0.0005548
0.000611373
0.00033643
0.00124141
0.00285675
0.00419885
0.00152085
0.000927992
0.000319659
0.000655443
0.00227093
0.00171638
0.00529806
0.000464602
0.0010916
0.00356863
0.00127028
0.00138128
0.00123818
0.00558392
0.00046482
0.00454545
0.0012397
0.000197165
0.00038352
0.00284168
0.00159898
0.000929519
0.00124134
0.00264119
0.000198807
0.000574364
0.00146446
0.00124139
0.00140493
0.000350944
0.00127326
0.000767419
0.00163333
0.00124225
0.000939148
0.000758094
0.00319479
0.00128823
0.001485
0.00123883
0.000350857
0.000354317
0.000422013
0.00131746
0.000242556
0.00151078
0.00123989
0.0004421
0.00136709
0.00124078
0.000516046
0.00315104
0.00225759
0.00154652
0.00429095
0.000778616
0.00377147
0.00146825
0.00355573
0.00444029
0.00281221
0.00141191
0.00026022
0.00401865
0.00124136
3.92698e-05
0.00124223
5.60994e-05
0.00148527
0.000559459
0.00162943
0.000173425
0.00241314
0.000443808
0.00174773
0.00296239
0.000680719
0.000461251
0.000440295
8.82571e-05
0.00162633
0.000465857
0.00152291
0.00140305
0.000577762
0.000601293
0.000509371
0.00124198
0.00443622
0.00353288
0.00124354
0.000440701
0.00126968
0.0016493
0.00192549
0.00367682
0.00133628
0.00452264
0.00260556
0.000759582
0.00332803
0.000276656
0.000255
0.000546628
0.0012377
0.00155428
0.00108509
0.00163989
0.00304026
0.00123955
0.00159799
0.00123853
0.00041232
0.00233252
0.00133353
0.000276668
0.00524076
0.00426467
0.000469951
0.00129784
0.000459238
0.00125522
0.00124027
9.24315e-05
0.00124087
0.00231524
0.00124516
0.000395294
0.00155859
0.000447996
0.000554609
0.000608471
0.000532798
0.00123979
0.00220783
0.0014597
0.000461311
0.000282152
0.000459703
0.000471779
0.00694224
0.00416484
0.0031677
0.00112475
0.00271679
5.35756e-05
0.00137862
0.000467369
0.000413321
0.00123976
0.00046742
0.00250814
0.00145821
0.00222365
0.000190907
0.000386185
0.00145784
0.000420985
0.00124808
0.00125123
0.00276726
0.00159529
0.00126863
0.00106851
0.00411389
5.24591e-05
0.00445655
0.00124151
0.000900006
0.00149246
0.000473495
0.00046181
0.00147908
0.00110736
0.000454215
0.00424221
0.00590477
0.00433465
0.00267675
6.46368e-05
5.38904e-05
5.6489e-05
0.00132015
0.00389878
0.00046609
0.00220855
0.0010932
0.00232498
0.000349572
0.000233073
0.00283254
0.000977263
0.000451206
0.00206708
0.000427566
0.00271399
0.000472182
0.00293623
0.00416328
7.28114e-05
0.000468694
0.00130281
0.000475855
0.00145561
0.0012134
0.000683992
0.00523781
0.00137956
4.49299e-05
4.56975e-05
0.00138439
0.000176757
5.76309e-05
0.000282587
0.000137971
0.000377017
0.00017398
0.000465934
0.00047018
0.00133486
0.000606433
0.00161057
4.73446e-05
0.00130723
0.000751679
0.000137385
0.00146023
4.63383e-05
4.60287e-05
0.000445467
0.000396945
0.00187294
4.49025e-05
0.00582909
0.000381304
0.000456768
0.000987511
0.000496173
0.00177173
0.00371978
0.00150891
0.000287026
0.00124093
0.00523506
0.00473448
0.00564797
0.000185086
0.00124549
0.00128685
0.000460503
0.00431209
4.91587e-05
0.00120631
0.00123979
8.2883e-05
0.00461279
0.00207513
0.00148788
0.000236022
0.000453139
0.00120563
0.00140688
0.00124125
0.00125532
0.000183766
0.00132307
0.00125114
0.00217121
0.00124162
0.00125459
0.0012643
0.0012387
0.00760618
0.0012419
0.00172959
0.000779697
0.000472518
0.00124211
0.000525709
0.00228707
4.55694e-05
5.33914e-05
0.00164274
0.00140028
0.0013723
0.00124089
0.00126792
0.00631804
0.00224627
4.08907e-05
0.00123938
0.00493197
0.000367131
0.00134069
0.00235465
0.000103212
0.000268171
0.00132241
0.00148503
0.000838967
0.00191191
0.00135571
0.00124132
0.00141088
0.00142039
0.0050047
9.68925e-05
0.000453295
0.000134102
0.00147208
0.000621763
0.000462402
0.00139557
0.00125278
0.00176804
0.00101638
0.00164864
0.00126051
0.000468738
0.000348672
0.000597863
0.00124739
0.00428507
0.000534388
0.00378177
0.00126056
0.00116811
0.00191239
0.000394295
0.00044571
0.0013742
0.00141721
0.00124383
0.00299606
0.00140731
0.00184872
0.00237095
0.000891846
0.00217366
0.00392429
0.000168506
0.00138916
0.00146362
6.50618e-05
0.000421989
0.00124071
0.00125134
0.00124192
0.00128967
0.00604851
0.000453856
0.000128083
0.00053268
0.00052649
0.0012559
0.000236933
0.000466911
0.00123832
0.00124748
0.00045556
0.00125027
0.00271147
0.00136388
0.00044985
0.00124009
0.00197173
0.00424574
0.0050514
0.000458564
0.00463215
0.00123832
0.001238
0.00115612
0.00130544
0.00252954
0.000290134
4.03258e-05
0.00193938
0.00045671
0.00189958
0.000980822
0.00132658
0.000440822
0.00151819
0.00123899
0.00197564
0.000458578
5.42619e-05
0.00220858
0.00198476
0.000684442
0.00163337
4.7591e-05
0.000423173
0.00442814
0.000523727
0.00340947
0.00496122
0.00244913
0.00131815
0.00129214
0.00174473
0.000682739
0.000565216
5.9003e-05
0.00359455
0.000282401
9.53698e-05
0.0012414
0.00178538
0.0013288
0.000440963
0.00123874
0.000328322
0.000876943
0.00035714
0.000203577
0.000468392
0.00244725
0.00442214
9.45979e-05
5.0228e-05
0.00134017
0.00310165
0.00124044
0.0041905
0.000913712
0.000317835
0.0013788
0.00423407
0.00015882
0.00106621
0.00116213
0.000469142
0.000225198
0.00122162
0.00047852
0.000312501
0.00127067
0.00341817
0.000401516
0.000704503
0.00136436
0.000191187
0.00185277
0.00044874
0.00127408
0.000939644
0.00335874
0.00124131
0.000657929
4.12548e-05
0.0012425
0.00149305
0.0021226
0.00426816
0.00145767
0.00127324
0.000466041
0.00124134
0.000294155
0.00148791
4.44168e-05
9.45305e-05
0.00186012
4.71873e-05
0.000809194
0.00124247
0.00158713
0.00126866
0.00401224
0.00134162
0.000377853
0.000443917
0.0019304
0.00134425
0.0036808
0.00177363
0.00262363
0.00172599
0.00123895
0.00465364
0.00123871
0.00569858
0.000558389
0.0045101
0.000968723
0.000639264
0.000433801
0.00488817
0.00315043
0.000455475
6.86609e-05
0.0012414
0.00124142
0.00108234
0.000711429
0.00038984
0.00243011
0.00534741
0.00128876
0.000329255
0.00124033
0.00415984
0.000472421
0.00157977
0.00127217
0.000491734
0.000104624
0.00038975
0.002582
0.00124233
0.00340608
0.00124278
0.00139082
0.00295631
0.00036891
0.00159082
0.001254
0.00140472
0.00586446
0.000418056
0.000902444
0.00138587
0.000209892
0.00423269
0.00124261
0.000569655
8.14242e-05
0.000458917
0.00327493
0.00124098
0.00145363
0.00129327
0.000463884
0.00124824
0.000717648
0.00104324
0.0012682
0.00178705
0.000395915
0.00136934
0.000978029
0.00116289
0.00134704
0.000748672
0.00489613
0.00338024
0.00123901
0.00124142
0.00159091
0.000460101
0.00047114
0.000460967
0.00158283
0.000756584
0.0039396
0.00118108
0.000467242
0.00139722
0.00245577
0.0003254
0.00123775
0.00209325
0.00028168
0.000277822
0.00126076
0.00124614
6.87839e-05
0.000186004
0.00132512
0.00395426
0.000815326
0.000413525
0.00125234
3.53329e-05
0.000679435
0.000700477
0.00167736
0.00103727
0.000850483
0.00140613
0.00128053
0.000447932
0.000132673
0.00126234
0.00124195
0.00140618
0.00116057
0.00156108
0.00123992
0.00214435
0.00124132
0.00116742
0.000498454
0.00485176
0.0012469
0.00146519
0.000587904
0.000357298
0.00199197
0.000195914
0.00739259
0.000789377
0.00136574
0.00124096
0.00308585
0.00140199
0.000231249
0.00152899
0.00175301
0.00238468
0.00226971
0.000133157
0.00123981
0.000762214
0.00116759
0.00045667
0.00128698
0.00490754
0.000366798
0.000312213
0.00186971
0.00517541
0.00153985
0.000465734
0.00252231
0.00046629
0.00124061
0.0019784
0.00129348
0.00123779
0.00010489
0.0012415
4.6836e-05
0.0022948
0.00110265
0.00127289
0.00117386
0.000423037
0.0018324
0.00150182
0.00129029
0.00615844
0.00222548
0.00280573
0.00504831
0.00159138
0.00123915
0.00124153
0.000464484
0.00567225
5.87922e-05
0.000528269
0.00127928
4.63643e-05
4.07173e-05
4.47659e-05
0.00302122
0.000689721
3.76518e-05
0.00124133
0.00013297
0.000125491
0.000463963
0.0012423
0.00241412
0.0014371
0.000113225
0.00124304
0.00165273
0.00123913
0.00521137
0.00222875
0.00132907
0.00045038
0.00123977
0.00446289
0.000417841
0.00124246
0.00142543
0.0012407
0.00138364
0.00307584
0.00127961
0.00112594
0.00253256
0.000461402
0.00124018
0.00106133
0.00124195
0.000606955
0.00266946
0.00348509
0.000510885
0.00275772
0.00160567
0.00125853
0.000157292
0.000996795
0.00116842
5.33284e-05
0.000492952
0.00123811
0.000130042
0.000596515
0.000745937
0.00101603
0.00120343
0.00139131
0.000474341
0.00433395
0.0012305
0.00361581
0.00143283
0.00346684
0.000133303
0.000759468
0.00123382
0.000207608
0.000386758
0.00137237
0.00187613
0.00130164
0.000603169
0.00098467
0.00118758
0.00412089
0.00173321
0.000294908
0.000187016
0.00427941
0.000153779
0.00124836
5.09448e-05
0.00158239
0.00127942
0.00146332
0.00112236
0.00101076
0.00608444
0.00134609
0.00323336
0.00288814
0.00139604
0.00288496
0.00272986
0.00124195
0.0014988
0.00469558
4.41253e-05
0.000468404
4.4653e-05
0.000710689
0.00188977
0.00107882
0.0012407
0.00124164
0.000441365
0.00659262
0.00131174
0.00155711
0.00123991
0.00160313
0.00250895
0.00511476
0.00130632
0.00159862
0.00145729
0.00206584
0.0013537
0.00546714
0.000390528
0.000535014
0.00124064
0.000540707
0.00144586
0.00168255
0.00216419
4.80481e-05
0.00363683
0.00209622
0.000675045
0.00401461
0.00242651
0.00392947
0.00564788
0.00129301
3.94441e-05
0.00124134
0.00128708
0.000441848
0.0028007
0.00270598
0.00108469
0.000430897
0.0012416
0.00124279
0.00147448
0.000130445
0.00137353
0.00123873
0.0013324
0.0027188
0.000465321
0.0013778
5.29645e-05
0.0011578
0.00166524
0.000367136
0.0012563
0.00130087
0.000125344
0.000379627
0.000154772
0.0012438
0.00123962
0.00108897
0.00160492
0.00235351
0.00126236
0.00124468
0.00424521
0.00126143
0.00181218
0.00303624
0.00555573
0.00240936
0.0015043
0.000438634
5.5219e-05
0.00045963
0.00200067
0.00124283
0.000284358
0.00126423
0.000263869
0.00124123
0.00180725
0.00125738