/*--------------------------------*- C++ -*----------------------------------*\
| =========                 |                                                 |
| \\      /  F ield         | OpenFOAM: The Open Source CFD Toolbox           |
|  \\    /   O peration     | Version:  2.3.1                                 |
|   \\  /    A nd           | Web:      www.OpenFOAM.org                      |
|    \\/     M anipulation  |                                                 |
\*---------------------------------------------------------------------------*/
FoamFile
{
    version     2.0;
    format      ascii;
    class       surfaceScalarField;
    location    "0.29";
    object      phi;
}
// * * * * * * * * * * * * * * * * * * * * * * * * * * * * * * * * * * * * * //

dimensions      [0 3 -1 0 0 0 0];

internalField   nonuniform List<scalar> 
23326
(
-1.24253e-05
0.000111583
-9.91569e-05
-2.13359e-05
0.00012702
-0.000118109
-2.69675e-05
0.000141395
-0.000135763
-3.06075e-05
0.000156942
-0.000153302
-3.37234e-05
0.000169551
-0.000166435
-3.5924e-05
0.000181839
-0.000179637
-3.7433e-05
0.000192421
-0.000190912
-3.82039e-05
0.000201068
-0.000200297
-3.85965e-05
0.00020761
-0.000207218
-3.86562e-05
0.000212659
-0.000212599
-3.85676e-05
0.000216431
-0.000216519
0.000219165
-3.8405e-05
-0.000219327
-6.91822e-06
0.000118501
-1.36762e-05
0.000133778
-1.97128e-05
0.000147431
-2.41945e-05
0.000161424
-2.78699e-05
0.000173227
-3.05835e-05
0.000184553
-3.24832e-05
0.000194321
-3.3739e-05
0.000202324
-3.45288e-05
0.0002084
-3.49849e-05
0.000213115
-3.52067e-05
0.000216653
0.00021926
-3.53015e-05
-5.58496e-06
0.000124086
-1.0884e-05
0.000139077
-1.58914e-05
0.000152438
-1.99969e-05
0.000165529
-2.3535e-05
0.000176765
-2.63007e-05
0.000187319
-2.83553e-05
0.000196375
-2.98167e-05
0.000203785
-3.08828e-05
0.000209466
-3.16143e-05
0.000213847
-3.20854e-05
0.000217124
0.000219628
-3.24535e-05
-4.70325e-06
0.00012879
-9.27407e-06
0.000143648
-1.3557e-05
0.000156721
-1.71727e-05
0.000169144
-2.03677e-05
0.00017996
-2.29651e-05
0.000189916
-2.5027e-05
0.000198437
-2.65693e-05
0.000205327
-2.77394e-05
0.000210636
-2.8641e-05
0.000214748
-2.93131e-05
0.000217796
0.000220193
-2.98785e-05
-3.85047e-06
0.000132641
-7.88731e-06
0.000147685
-1.1689e-05
0.000160522
-1.49612e-05
0.000172416
-1.78525e-05
0.000182851
-2.02987e-05
0.000192362
-2.22552e-05
0.000200393
-2.37982e-05
0.00020687
-2.50531e-05
0.000211891
-2.59955e-05
0.000215691
-2.68084e-05
0.000218609
0.000220841
-2.74564e-05
-3.20586e-06
0.000135847
-6.76765e-06
0.000151247
-1.01571e-05
0.000163912
-1.31327e-05
0.000175392
-1.582e-05
0.000185539
-1.80532e-05
0.000194596
-1.99161e-05
0.000202256
-2.14542e-05
0.000208408
-2.26722e-05
0.000213109
-2.36918e-05
0.00021671
-2.45436e-05
0.000219461
0.000221574
-2.52766e-05
-2.75869e-06
0.000138605
-5.91993e-06
0.000154408
-8.95153e-06
0.000166943
-1.1673e-05
0.000178114
-1.40916e-05
0.000187958
-1.61911e-05
0.000196695
-1.79507e-05
0.000204016
-1.93987e-05
0.000209856
-2.06304e-05
0.00021434
-2.16731e-05
0.000217753
-2.25828e-05
0.000220371
0.000222388
-2.3396e-05
-2.42469e-06
0.00014103
-5.26279e-06
0.000157246
-7.98825e-06
0.000169669
-1.04308e-05
0.000180556
-1.26646e-05
0.000190192
-1.46089e-05
0.00019864
-1.62677e-05
0.000205675
-1.76457e-05
0.000211234
-1.88567e-05
0.000215551
-1.99041e-05
0.000218801
-2.08089e-05
0.000221276
0.000223187
-2.16083e-05
-2.15911e-06
0.000143189
-4.73234e-06
0.000159819
-7.20255e-06
0.000172139
-9.45568e-06
0.00018281
-1.14885e-05
0.000192225
-1.3263e-05
0.000200415
-1.48165e-05
0.000207228
-1.61653e-05
0.000212583
-1.73114e-05
0.000216697
-1.83248e-05
0.000219814
-1.9229e-05
0.00022218
0.000224057
-2.00991e-05
-1.93511e-06
0.000145124
-4.27616e-06
0.00016216
-6.5345e-06
0.000174397
-8.59577e-06
0.000184871
-1.04877e-05
0.000194117
-1.21376e-05
0.000202065
-1.35707e-05
0.000208661
-1.48208e-05
0.000213833
-1.59509e-05
0.000217827
-1.69436e-05
0.000220807
-1.7844e-05
0.00022308
0.000224873
-1.86597e-05
-1.74911e-06
0.000146873
-3.89946e-06
0.000164311
-5.96864e-06
0.000176467
-7.86975e-06
0.000186772
-9.60129e-06
0.000195848
-1.1132e-05
0.000203595
-1.24799e-05
0.000210009
-1.36657e-05
0.000215018
-1.47296e-05
0.000218891
-1.56909e-05
0.000221768
-1.66055e-05
0.000223995
0.000225663
-1.7395e-05
-1.58512e-06
0.000148458
-3.55977e-06
0.000166285
-5.46524e-06
0.000178372
-7.25004e-06
0.000188557
-8.82997e-06
0.000197429
-1.02606e-05
0.000205026
-1.1523e-05
0.000211271
-1.26466e-05
0.000216142
-1.36605e-05
0.000219905
-1.45898e-05
0.000222697
-1.54121e-05
0.000224817
0.000226458
-1.6207e-05
-1.44711e-06
0.000149905
-3.26657e-06
0.000168105
-5.03887e-06
0.000180145
-6.67856e-06
0.000190197
-8.17481e-06
0.000198925
-9.50901e-06
0.00020636
-1.06714e-05
0.000212434
-1.17393e-05
0.00021721
-1.26834e-05
0.000220849
-1.35657e-05
0.00022358
-1.4373e-05
0.000225625
0.000227137
-1.50526e-05
-1.32806e-06
0.000151233
-3.03317e-06
0.00016981
-4.66617e-06
0.000181778
-6.17764e-06
0.000191709
-7.57157e-06
0.000200319
-8.79748e-06
0.000207586
-9.92086e-06
0.000213557
-1.09071e-05
0.000218196
-1.18361e-05
0.000221778
-1.27082e-05
0.000224452
-1.35146e-05
0.000226431
0.000227968
-1.43451e-05
-1.21772e-06
0.000152451
-2.78842e-06
0.000171381
-4.33535e-06
0.000183325
-5.74939e-06
0.000193123
-7.03156e-06
0.000201601
-8.20732e-06
0.000208762
-9.24029e-06
0.00021459
-1.02066e-05
0.000219162
-1.10423e-05
0.000222613
-1.18424e-05
0.000225252
-1.26089e-05
0.000227198
0.000228637
-1.32782e-05
-1.12164e-06
0.000153572
-2.59057e-06
0.000172849
-4.02235e-06
0.000184757
-5.34158e-06
0.000194442
-6.54725e-06
0.000202807
-7.62925e-06
0.000209844
-8.6076e-06
0.000215568
-9.49277e-06
0.000220047
-1.03449e-05
0.000223466
-1.11409e-05
0.000226048
-1.18645e-05
0.000227921
0.000229303
-1.25298e-05
-1.03591e-06
0.000154608
-2.39314e-06
0.000174207
-3.7312e-06
0.000186095
-4.97708e-06
0.000195688
-6.10715e-06
0.000203937
-7.12674e-06
0.000210864
-8.04916e-06
0.000216491
-8.92368e-06
0.000220922
-9.70628e-06
0.000224248
-1.04223e-05
0.000226764
-1.11208e-05
0.00022862
0.000229964
-1.1782e-05
-9.46506e-07
0.000155555
-2.22782e-06
0.000175488
-3.49358e-06
0.000187361
-4.66456e-06
0.000196859
-5.72965e-06
0.000205002
-6.69595e-06
0.00021183
-7.56689e-06
0.000217362
-8.31793e-06
0.000221673
-9.07181e-06
0.000225002
-9.78127e-06
0.000227473
-1.04562e-05
0.000229295
0.000230609
-1.11009e-05
-8.79008e-07
0.000156434
-2.08241e-06
0.000176691
-3.25064e-06
0.000188529
-4.35488e-06
0.000197964
-5.33487e-06
0.000205982
-6.24441e-06
0.000212739
-7.04983e-06
0.000218167
-7.84069e-06
0.000222463
-8.53004e-06
0.000225692
-9.20801e-06
0.000228151
-9.82924e-06
0.000229916
0.000231228
-1.04486e-05
-8.17454e-07
0.000157251
-1.92757e-06
0.000177802
-3.05183e-06
0.000189653
-4.07174e-06
0.000198984
-5.02425e-06
0.000206935
-5.86004e-06
0.000213575
-6.64611e-06
0.000218953
-7.34691e-06
0.000223164
-8.02966e-06
0.000226374
-8.62179e-06
0.000228744
-9.23463e-06
0.000230529
0.000231779
-9.78507e-06
-7.61338e-07
0.000158012
-1.80474e-06
0.000178845
-2.84526e-06
0.000190694
-3.81181e-06
0.000199951
-4.68228e-06
0.000207806
-5.49811e-06
0.000214391
-6.21849e-06
0.000219673
-6.88757e-06
0.000223833
-7.5127e-06
0.000226999
-8.13204e-06
0.000229363
-8.69284e-06
0.00023109
0.000232338
-9.25178e-06
-6.85163e-07
0.000158697
-1.66878e-06
0.000179829
-2.65563e-06
0.000191681
-3.58853e-06
0.000200884
-4.41545e-06
0.000208633
-5.14154e-06
0.000215117
-5.82562e-06
0.000220357
-6.46038e-06
0.000224468
-7.08632e-06
0.000227625
-7.6585e-06
0.000229935
-8.21378e-06
0.000231645
0.000232862
-8.73821e-06
-6.43628e-07
0.00015934
-1.56752e-06
0.000180752
-2.49872e-06
0.000192612
-3.33784e-06
0.000201723
-4.12319e-06
0.000209418
-4.83022e-06
0.000215824
-5.48345e-06
0.00022101
-6.0859e-06
0.00022507
-6.65812e-06
0.000228197
-7.20742e-06
0.000230484
-7.72877e-06
0.000232166
0.000233368
-8.23489e-06
-5.83015e-07
0.000159923
-1.45105e-06
0.00018162
-2.33182e-06
0.000193493
-3.12552e-06
0.000202517
-3.86714e-06
0.00021016
-4.54094e-06
0.000216498
-5.15933e-06
0.000221629
-5.73634e-06
0.000225647
-6.25856e-06
0.000228719
-6.7525e-06
0.000230978
-7.26471e-06
0.000232678
0.000233868
-7.76403e-06
-5.38326e-07
0.000160461
-1.33817e-06
0.00018242
-2.17313e-06
0.000194328
-2.94949e-06
0.000203293
-3.62824e-06
0.000210839
-4.26806e-06
0.000217138
-4.82963e-06
0.00022219
-5.35522e-06
0.000226173
-5.8751e-06
0.000229239
-6.38053e-06
0.000231483
-6.83753e-06
0.000233135
0.000234347
-7.3165e-06
-5.06033e-07
0.000160967
-1.25609e-06
0.00018317
-2.02459e-06
0.000195097
-2.76143e-06
0.00020403
-3.4045e-06
0.000211482
-3.98616e-06
0.000217719
-4.51891e-06
0.000222723
-5.04061e-06
0.000226694
-5.51542e-06
0.000229714
-5.96805e-06
0.000231936
-6.44493e-06
0.000233612
0.000234787
-6.88573e-06
-4.49057e-07
0.000161416
-1.15457e-06
0.000183876
-1.8813e-06
0.000195824
-2.55571e-06
0.000204705
-3.18989e-06
0.000212116
-3.74108e-06
0.000218271
-4.24669e-06
0.000223228
-4.71905e-06
0.000227167
-5.16788e-06
0.000230163
-5.62725e-06
0.000232396
-6.01646e-06
0.000234002
0.000235199
-6.42772e-06
-3.99172e-07
0.000161815
-1.08484e-06
0.000184561
-1.77054e-06
0.000196509
-2.38781e-06
0.000205322
-2.96208e-06
0.00021269
-3.48649e-06
0.000218795
-3.9902e-06
0.000223732
-4.4118e-06
0.000227588
-4.83916e-06
0.00023059
-5.2522e-06
0.000232809
-5.68194e-06
0.000234431
0.000235555
-6.03816e-06
-3.72797e-07
0.000162188
-9.90614e-07
0.000185179
-1.61963e-06
0.000197138
-2.24792e-06
0.00020595
-2.77142e-06
0.000213214
-3.26396e-06
0.000219287
-3.69205e-06
0.00022416
-4.14824e-06
0.000228045
-4.52607e-06
0.000230968
-4.92447e-06
0.000233207
-5.28552e-06
0.000234793
0.000235975
-5.70597e-06
-3.16175e-07
0.000162504
-8.81836e-07
0.000185745
-1.51914e-06
0.000197776
-2.06872e-06
0.0002065
-2.58654e-06
0.000213731
-3.02915e-06
0.00021973
-3.46059e-06
0.000224592
-3.83648e-06
0.00022842
-4.22687e-06
0.000231359
-4.57379e-06
0.000233554
-4.97051e-06
0.000235189
0.00023631
-5.30517e-06
-2.92446e-07
0.000162796
-8.41452e-07
0.000186294
-1.37674e-06
0.000198311
-1.92062e-06
0.000207044
-2.38325e-06
0.000214194
-2.82717e-06
0.000220174
-3.21133e-06
0.000224976
-3.59614e-06
0.000228805
-3.93563e-06
0.000231698
-4.29548e-06
0.000233914
-4.59633e-06
0.00023549
0.000236662
-4.94802e-06
-2.59166e-07
0.000163055
-7.41798e-07
0.000186777
-1.28932e-06
0.000198859
-1.75335e-06
0.000207508
-2.21693e-06
0.000214658
-2.61044e-06
0.000220567
-2.99551e-06
0.000225361
-3.30568e-06
0.000229115
-3.65845e-06
0.000232051
-3.97218e-06
0.000234228
-4.30352e-06
0.000235822
0.000236927
-4.56918e-06
-2.30278e-07
0.000163286
-6.63351e-07
0.00018721
-1.1559e-06
0.000199351
-1.64164e-06
0.000207994
-2.05434e-06
0.00021507
-2.42491e-06
0.000220938
-2.73713e-06
0.000225673
-3.0832e-06
0.000229461
-3.38737e-06
0.000232355
-3.68689e-06
0.000234527
-3.98449e-06
0.000236119
0.000237226
-4.28281e-06
-1.70709e-07
0.000163456
-6.12336e-07
0.000187651
-1.07549e-06
0.000199815
-1.48465e-06
0.000208403
-1.87256e-06
0.000215458
-2.22054e-06
0.000221286
-2.53956e-06
0.000225992
-2.83789e-06
0.000229759
-3.12677e-06
0.000232644
-3.3817e-06
0.000234782
-3.66062e-06
0.000236398
0.000237527
-3.96185e-06
-1.79006e-07
0.000163635
-5.41198e-07
0.000188014
-9.50052e-07
0.000200224
-1.38253e-06
0.000208836
-1.7196e-06
0.000215795
-2.01945e-06
0.000221585
-2.31835e-06
0.00022629
-2.60123e-06
0.000230042
-2.84262e-06
0.000232885
-3.10919e-06
0.000235049
-3.37683e-06
0.000236666
0.000237771
-3.62086e-06
-1.15551e-07
0.000163751
-4.72252e-07
0.00018837
-8.75902e-07
0.000200628
-1.2075e-06
0.000209167
-1.54845e-06
0.000216136
-1.85349e-06
0.00022189
-2.13118e-06
0.000226568
-2.36586e-06
0.000230277
-2.59027e-06
0.00023311
-2.83614e-06
0.000235295
-3.04636e-06
0.000236876
0.000238017
-3.29161e-06
-9.82979e-08
0.000163849
-4.01369e-07
0.000188674
-7.56457e-07
0.000200983
-1.11264e-06
0.000209524
-1.4058e-06
0.000216429
-1.66379e-06
0.000222148
-1.89636e-06
0.0002268
-2.1112e-06
0.000230491
-2.3476e-06
0.000233346
-2.57603e-06
0.000235523
-2.77388e-06
0.000237074
0.000238198
-2.95506e-06
-6.83826e-08
0.000163918
-3.39237e-07
0.000188944
-6.63998e-07
0.000201308
-9.71916e-07
0.000209831
-1.24308e-06
0.0002167
-1.50649e-06
0.000222411
-1.72253e-06
0.000227016
-1.92278e-06
0.000230691
-2.11397e-06
0.000233537
-2.30417e-06
0.000235714
-2.49431e-06
0.000237264
0.000238387
-2.68332e-06
-3.03379e-08
0.000163948
-2.74788e-07
0.000189189
-5.75477e-07
0.000201608
-8.60066e-07
0.000210116
-1.11032e-06
0.00021695
-1.30236e-06
0.000222603
-1.52545e-06
0.000227239
-1.71003e-06
0.000230876
-1.88948e-06
0.000233717
-2.04249e-06
0.000235867
-2.23938e-06
0.000237461
0.000238618
-2.47065e-06
-3.606e-09
0.000163952
-2.16975e-07
0.000189402
-4.90958e-07
0.000201882
-7.5111e-07
0.000210376
-9.80716e-07
0.00021718
-1.18079e-06
0.000222803
-1.33292e-06
0.000227391
-1.47261e-06
0.000231016
-1.6329e-06
0.000233877
-1.78833e-06
0.000236022
-1.92587e-06
0.000237599
0.000238727
-2.03525e-06
6.54364e-09
0.000163945
-1.59973e-07
0.000189569
-4.06751e-07
0.000202129
-6.19355e-07
0.000210589
-8.28042e-07
0.000217389
-9.81248e-07
0.000222957
-1.1428e-06
0.000227553
-1.29384e-06
0.000231167
-1.41286e-06
0.000233996
-1.56231e-06
0.000236172
-1.69414e-06
0.000237731
0.000238905
-1.8714e-06
3.85648e-08
0.000163906
-9.73953e-08
0.000189704
-2.95745e-07
0.000202327
-5.13904e-07
0.000210807
-6.765e-07
0.000217552
-8.403e-07
0.000223121
-9.57213e-07
0.00022767
-1.06419e-06
0.000231274
-1.19755e-06
0.00023413
-1.30097e-06
0.000236275
-1.43415e-06
0.000237864
0.00023901
-1.5397e-06
6.24695e-08
0.000163843
-6.51753e-08
0.000189832
-2.41479e-07
0.000202503
-4.10463e-07
0.000210976
-5.54964e-07
0.000217697
-6.73005e-07
0.000223239
-7.74434e-07
0.000227772
-8.94842e-07
0.000231395
-9.83792e-07
0.000234219
-1.07461e-06
0.000236366
-1.17092e-06
0.00023796
0.000239115
-1.2752e-06
9.60773e-08
0.000163747
1.55182e-08
0.000189912
-1.31667e-07
0.00020265
-2.81273e-07
0.000211126
-4.08173e-07
0.000217824
-5.09041e-07
0.000223341
-5.94307e-07
0.000227858
-6.71474e-07
0.000231472
-7.46434e-07
0.000234294
-8.22589e-07
0.000236442
-8.9842e-07
0.000238036
0.000239186
-9.69815e-07
1.19899e-07
0.000163627
6.75975e-08
0.000189964
-5.25872e-08
0.000202771
-1.8136e-07
0.000211255
-2.90712e-07
0.000217934
-3.48934e-07
0.000223399
-4.17803e-07
0.000227927
-4.79937e-07
0.000231534
-5.41102e-07
0.000234355
-6.0482e-07
0.000236506
-6.77673e-07
0.000238109
0.00023928
-7.71595e-07
1.25712e-07
0.000163501
1.17612e-07
0.000189972
2.03642e-08
0.000202868
-6.40151e-08
0.000211339
-1.51929e-07
0.000218022
-2.17808e-07
0.000223465
-2.71244e-07
0.00022798
-2.90794e-07
0.000231553
-3.36466e-07
0.0002344
-3.5606e-07
0.000236525
-4.01344e-07
0.000238154
0.000239286
-4.07155e-07
1.73303e-07
0.000163328
1.64773e-07
0.000189981
1.17774e-07
0.000202915
2.79878e-08
0.000211429
-9.07444e-09
0.000218059
-6.07972e-08
0.000223517
-7.22137e-08
0.000227991
-1.04701e-07
0.000231585
-1.0922e-07
0.000234404
-1.45842e-07
0.000236561
-1.64882e-07
0.000238173
0.000239354
-2.33533e-07
1.83176e-07
0.000163144
2.22152e-07
0.000189942
1.66953e-07
0.00020297
1.24995e-07
0.000211472
9.87058e-08
0.000218085
9.11343e-08
0.000223524
6.86466e-08
0.000228013
7.86715e-08
0.000231575
8.85985e-08
0.000234394
9.56846e-08
0.000236554
7.22935e-08
0.000238196
0.000239341
8.56991e-08
2.07594e-07
0.000162937
2.45506e-07
0.000189904
2.61447e-07
0.000202955
2.40827e-07
0.000211492
2.07027e-07
0.000218119
2.15429e-07
0.000223515
2.62456e-07
0.000227965
2.59452e-07
0.000231577
2.83724e-07
0.000234369
3.03586e-07
0.000236534
3.13539e-07
0.000238187
0.000239353
3.01482e-07
2.32581e-07
0.000162705
3.20571e-07
0.000189817
3.32841e-07
0.000202943
3.30626e-07
0.000211495
3.66283e-07
0.000218083
3.63987e-07
0.000223517
3.99223e-07
0.000227929
4.66335e-07
0.00023151
5.05149e-07
0.000234331
5.12526e-07
0.000236528
5.76269e-07
0.000238123
0.000239306
6.23311e-07
2.39799e-07
0.000162465
3.69883e-07
0.000189687
4.02569e-07
0.00020291
4.1913e-07
0.000211478
4.44688e-07
0.000218057
5.11387e-07
0.000223449
5.61138e-07
0.000227879
6.14328e-07
0.000231457
6.9378e-07
0.000234252
7.67284e-07
0.000236455
8.021e-07
0.000238089
0.00023928
8.2862e-07
2.85164e-07
0.00016218
4.17627e-07
0.000189555
4.96123e-07
0.000202831
5.32297e-07
0.000211441
6.01277e-07
0.000217988
6.57445e-07
0.000223393
7.49631e-07
0.000227787
8.16455e-07
0.000231391
8.79261e-07
0.00023419
9.33027e-07
0.000236402
9.99023e-07
0.000238024
0.000239274
1.00499e-06
2.89302e-07
0.000161891
4.6482e-07
0.000189379
5.40071e-07
0.000202756
6.19573e-07
0.000211362
7.05539e-07
0.000217901
8.04262e-07
0.000223294
8.8361e-07
0.000227708
9.92869e-07
0.000231282
1.07086e-06
0.000234113
1.17114e-06
0.000236302
1.26717e-06
0.000237928
0.000239177
1.36388e-06
3.15845e-07
0.000161576
5.1312e-07
0.000189182
6.33136e-07
0.000202636
7.3199e-07
0.000211263
8.08826e-07
0.000217825
9.23278e-07
0.00022318
1.0455e-06
0.000227586
1.16943e-06
0.000231159
1.28915e-06
0.000233993
1.40235e-06
0.000236189
1.47646e-06
0.000237853
0.000239094
1.55934e-06
3.40072e-07
0.000161235
5.59907e-07
0.000188962
7.0182e-07
0.000202493
8.19012e-07
0.000211146
9.39158e-07
0.000217705
1.06992e-06
0.00022305
1.20692e-06
0.00022745
1.34389e-06
0.000231022
1.47769e-06
0.000233859
1.60258e-06
0.000236064
1.72162e-06
0.000237734
0.000238969
1.84642e-06
3.65895e-07
0.000160869
6.0794e-07
0.000188719
7.70043e-07
0.000202332
9.06095e-07
0.00021101
1.06974e-06
0.000217542
1.21512e-06
0.000222905
1.36634e-06
0.000227298
1.51731e-06
0.000230871
1.68982e-06
0.000233686
1.82595e-06
0.000235927
1.94898e-06
0.000237611
0.000238866
2.05182e-06
3.68768e-07
0.0001605
6.54723e-07
0.000188434
8.38188e-07
0.000202148
1.01914e-06
0.000210829
1.17259e-06
0.000217389
1.3336e-06
0.000222744
1.52649e-06
0.000227105
1.71842e-06
0.000230678
1.84885e-06
0.000233555
2.02644e-06
0.000235749
2.16945e-06
0.000237467
0.000238683
2.35283e-06
4.16193e-07
0.000160083
7.01862e-07
0.000188148
9.31541e-07
0.000201919
1.10619e-06
0.000210655
1.27718e-06
0.000217218
1.50741e-06
0.000222513
1.68731e-06
0.000226925
1.86449e-06
0.0002305
2.06339e-06
0.000233356
2.22214e-06
0.00023559
2.41222e-06
0.000237277
0.000238611
2.48492e-06
4.20387e-07
0.000159663
7.51654e-07
0.000187817
1.00166e-06
0.00020167
1.21909e-06
0.000210438
1.43344e-06
0.000217003
1.59901e-06
0.000222347
1.8202e-06
0.000226703
2.04228e-06
0.000230278
2.25703e-06
0.000233141
2.46689e-06
0.00023538
2.64945e-06
0.000237095
0.000238389
2.87121e-06
4.46387e-07
0.000159217
7.76635e-07
0.000187487
1.04595e-06
0.000201401
1.28191e-06
0.000210202
1.51196e-06
0.000216772
1.77306e-06
0.000222085
2.01088e-06
0.000226464
2.24656e-06
0.000230042
2.47914e-06
0.000232908
2.69985e-06
0.00023516
2.90652e-06
0.000236889
0.0002382
3.09611e-06
4.58675e-07
0.000158758
8.50056e-07
0.000187096
1.1406e-06
0.00020111
1.39527e-06
0.000209946
1.64372e-06
0.000216523
1.89236e-06
0.000221836
2.14458e-06
0.000226212
2.39503e-06
0.000229791
2.66554e-06
0.000232639
2.89923e-06
0.000234927
3.12147e-06
0.000236667
0.000237976
3.34562e-06
5.01203e-07
0.000158257
8.98057e-07
0.0001867
1.21038e-06
0.000200797
1.50927e-06
0.000209647
1.7722e-06
0.00021626
2.03795e-06
0.00022157
2.33243e-06
0.000225918
2.59649e-06
0.000229528
2.82479e-06
0.000232411
3.09656e-06
0.000234656
3.32121e-06
0.000236443
0.000237752
3.54554e-06
5.07163e-07
0.00015775
9.46339e-07
0.00018626
1.27779e-06
0.000200466
1.57058e-06
0.000209354
1.87753e-06
0.000215953
2.18596e-06
0.000221262
2.46633e-06
0.000225638
2.77221e-06
0.000229223
3.06973e-06
0.000232114
3.30031e-06
0.000234426
3.57938e-06
0.000236164
0.000237495
3.83616e-06
5.33462e-07
0.000157217
9.70447e-07
0.000185823
1.37408e-06
0.000200062
1.68484e-06
0.000209043
2.01017e-06
0.000215628
2.30632e-06
0.000220966
2.6321e-06
0.000225313
2.92416e-06
0.000228931
3.23241e-06
0.000231806
3.52855e-06
0.000234129
3.80404e-06
0.000235888
0.000237282
4.01662e-06
5.42767e-07
0.000156674
1.04398e-06
0.000185321
1.41908e-06
0.000199686
1.77518e-06
0.000208687
2.11779e-06
0.000215286
2.45823e-06
0.000220626
2.79741e-06
0.000224974
3.12925e-06
0.000228599
3.42728e-06
0.000231508
3.76515e-06
0.000233791
4.04051e-06
0.000235612
0.000236955
4.36791e-06
5.71577e-07
0.000156101
1.07296e-06
0.000184819
1.49074e-06
0.000199268
1.89361e-06
0.000208285
2.22633e-06
0.000214954
2.61109e-06
0.000220242
2.9362e-06
0.000224649
3.27823e-06
0.000228257
3.65711e-06
0.000231128
3.94923e-06
0.000233498
4.27594e-06
0.000235285
0.00023672
4.51096e-06
6.07089e-07
0.000155494
1.12515e-06
0.000184301
1.58501e-06
0.000198809
1.96785e-06
0.000207902
2.36534e-06
0.000214557
2.72997e-06
0.000219878
3.11327e-06
0.000224266
3.50271e-06
0.000227867
3.8337e-06
0.000230796
4.19269e-06
0.000233139
4.52244e-06
0.000234955
0.000236358
4.8841e-06
6.15077e-07
0.000154878
1.16379e-06
0.000183752
1.64606e-06
0.000198327
2.06446e-06
0.000207484
2.47895e-06
0.000214143
2.86512e-06
0.000219492
3.27442e-06
0.000223856
3.64903e-06
0.000227492
4.04049e-06
0.000230405
4.4185e-06
0.000232761
4.74606e-06
0.000234628
0.000236048
5.05661e-06
6.38695e-07
0.000154239
1.22459e-06
0.000183166
1.71163e-06
0.00019784
2.19099e-06
0.000207005
2.6061e-06
0.000213727
3.03093e-06
0.000219066
3.4332e-06
0.000223453
3.8728e-06
0.000227052
4.22408e-06
0.000230053
4.61844e-06
0.000232367
5.0013e-06
0.000234246
0.000235658
5.39109e-06
6.60879e-07
0.000153579
1.27203e-06
0.000182556
1.79825e-06
0.000197314
2.25293e-06
0.00020655
2.70413e-06
0.000213276
3.17561e-06
0.000218594
3.5881e-06
0.00022304
4.02087e-06
0.000226619
4.44175e-06
0.000229633
4.84918e-06
0.00023196
5.23002e-06
0.000233865
0.000235337
5.55181e-06
7.00327e-07
0.000152879
1.31215e-06
0.000181944
1.88669e-06
0.000196739
2.38276e-06
0.000206054
2.83077e-06
0.000212827
3.2932e-06
0.000218132
3.77289e-06
0.00022256
4.22108e-06
0.000226171
4.6572e-06
0.000229197
5.08082e-06
0.000231536
5.49369e-06
0.000233452
0.000234916
5.9141e-06
6.81171e-07
0.000152198
1.37736e-06
0.000181248
1.94943e-06
0.000196167
2.46653e-06
0.000205537
2.98188e-06
0.000212312
3.43524e-06
0.000217678
3.93353e-06
0.000222062
4.39652e-06
0.000225708
4.87203e-06
0.000228721
5.28108e-06
0.000231127
5.72344e-06
0.00023301
0.000234532
6.10717e-06
7.52095e-07
0.000151447
1.39048e-06
0.00018061
1.98681e-06
0.000195571
2.54915e-06
0.000204974
3.08403e-06
0.000211777
3.60611e-06
0.000217156
4.09361e-06
0.000221575
4.57056e-06
0.000225231
5.06105e-06
0.000228231
5.53285e-06
0.000230655
5.95755e-06
0.000232585
0.000234132
6.35729e-06
7.40314e-07
0.000150706
1.50645e-06
0.000179843
2.12564e-06
0.000194951
2.71044e-06
0.00020439
3.23971e-06
0.000211248
3.77973e-06
0.000216617
4.28343e-06
0.000221071
4.80279e-06
0.000224712
5.28146e-06
0.000227752
5.77173e-06
0.000230164
6.22016e-06
0.000232136
0.000233636
6.71688e-06
7.6298e-07
0.000149942
1.50202e-06
0.000179104
2.16327e-06
0.00019429
2.74267e-06
0.000203811
3.34375e-06
0.000210648
3.87457e-06
0.000216087
4.44675e-06
0.0002205
4.95442e-06
0.000224204
5.47439e-06
0.000227231
5.94905e-06
0.000229689
6.42583e-06
0.000231659
0.000233207
6.85487e-06
8.21648e-07
0.00014912
1.57092e-06
0.000178354
2.25753e-06
0.000193603
2.88335e-06
0.000203186
3.4471e-06
0.000210085
4.05117e-06
0.000215483
4.58713e-06
0.000219964
5.13706e-06
0.000223654
5.69996e-06
0.000226668
6.22e-06
0.000229169
6.75714e-06
0.000231122
0.000232726
7.23794e-06
8.20996e-07
0.000148298
1.61027e-06
0.000177564
2.32062e-06
0.000192893
2.99838e-06
0.000202508
3.61044e-06
0.000209473
4.19881e-06
0.000214895
4.80901e-06
0.000219353
5.37514e-06
0.000223087
5.89864e-06
0.000226144
6.42955e-06
0.000228638
6.93355e-06
0.000230618
0.000232246
7.41359e-06
8.16367e-07
0.000147481
1.65695e-06
0.000176723
2.41345e-06
0.000192137
3.08423e-06
0.000201838
3.74093e-06
0.000208817
4.35756e-06
0.000214278
4.94842e-06
0.000218762
5.53076e-06
0.000222505
6.12948e-06
0.000225546
6.70503e-06
0.000228063
7.23822e-06
0.000230085
0.00023171
7.77398e-06
8.80281e-07
0.000146601
1.72439e-06
0.000175879
2.4842e-06
0.000191377
3.20131e-06
0.000201121
3.85289e-06
0.000208165
4.508e-06
0.000213623
5.12153e-06
0.000218149
5.77999e-06
0.000221846
6.33045e-06
0.000224995
6.92587e-06
0.000227468
7.48679e-06
0.000229525
0.000231234
7.96289e-06
8.92564e-07
0.000145709
1.7663e-06
0.000175006
2.58078e-06
0.000190563
3.28722e-06
0.000200414
3.99253e-06
0.000207459
4.66641e-06
0.000212949
5.29755e-06
0.000217517
5.94129e-06
0.000221203
6.60226e-06
0.000224335
7.17916e-06
0.000226891
7.75003e-06
0.000228954
0.000230609
8.37599e-06
9.10297e-07
0.000144799
1.84758e-06
0.000174069
2.64553e-06
0.000189765
3.41606e-06
0.000199643
4.13423e-06
0.000206741
4.82725e-06
0.000212255
5.50204e-06
0.000216842
6.13624e-06
0.000220568
6.80667e-06
0.000223664
7.43817e-06
0.00022626
8.0401e-06
0.000228352
0.000230081
8.56777e-06
9.41749e-07
0.000143858
1.86516e-06
0.000173146
2.75253e-06
0.000188877
3.53783e-06
0.000198857
4.3022e-06
0.000205976
4.95389e-06
0.000211603
5.68208e-06
0.000216114
6.35805e-06
0.000219892
7.01483e-06
0.000223008
7.64822e-06
0.000225626
8.25216e-06
0.000227748
0.000229448
8.88489e-06
9.60868e-07
0.000142897
1.91317e-06
0.000172194
2.81626e-06
0.000187974
3.6252e-06
0.000198048
4.38686e-06
0.000205214
5.15439e-06
0.000210836
5.86576e-06
0.000215403
6.58467e-06
0.000219174
7.23088e-06
0.000222361
7.90728e-06
0.00022495
8.5299e-06
0.000227125
0.00022887
9.10876e-06
9.87036e-07
0.00014191
1.98423e-06
0.000171196
2.892e-06
0.000187066
3.74922e-06
0.000197191
4.54622e-06
0.000204417
5.32374e-06
0.000210059
6.08006e-06
0.000214646
6.79197e-06
0.000218462
7.51087e-06
0.000221642
8.15665e-06
0.000224304
8.87735e-06
0.000226405
0.00022822
9.5272e-06
1.0157e-06
0.000140894
2.0363e-06
0.000170175
2.97008e-06
0.000186132
3.88922e-06
0.000196272
4.68347e-06
0.000203624
5.45727e-06
0.000209285
6.27158e-06
0.000213832
7.00154e-06
0.000217732
7.71065e-06
0.000220933
8.44901e-06
0.000223565
9.10245e-06
0.000225751
0.000227628
9.6942e-06
1.04857e-06
0.000139845
2.09559e-06
0.000169128
3.10954e-06
0.000185118
3.95708e-06
0.000195425
4.81082e-06
0.00020277
5.66936e-06
0.000208427
6.40036e-06
0.000213101
7.23997e-06
0.000216892
7.99326e-06
0.00022018
8.73744e-06
0.000222821
9.4114e-06
0.000225077
0.000226904
1.01348e-05
1.06764e-06
0.000138777
2.15179e-06
0.000168044
3.17639e-06
0.000184094
4.08672e-06
0.000194515
5.00415e-06
0.000201853
5.80595e-06
0.000207625
6.66118e-06
0.000212246
7.42861e-06
0.000216124
8.19776e-06
0.00021941
8.94125e-06
0.000222078
9.64555e-06
0.000224373
0.00022623
1.03198e-05
1.09274e-06
0.000137684
2.20442e-06
0.000166932
3.23581e-06
0.000183063
4.25806e-06
0.000193493
5.12098e-06
0.00020099
6.02508e-06
0.00020672
6.86122e-06
0.000211409
7.6326e-06
0.000215353
8.46269e-06
0.00021858
9.22748e-06
0.000221313
1.00082e-05
0.000223592
0.000225561
1.06773e-05
1.11723e-06
0.000136567
2.26191e-06
0.000165788
3.34163e-06
0.000181983
4.32968e-06
0.000192505
5.29736e-06
0.000200022
6.20836e-06
0.000205809
7.06588e-06
0.000210552
7.89832e-06
0.00021452
8.70841e-06
0.00021777
9.52045e-06
0.000220501
1.02781e-05
0.000222835
0.000224813
1.10262e-05
1.14436e-06
0.000135423
2.35631e-06
0.000164576
3.46126e-06
0.000180878
4.48397e-06
0.000191482
5.46046e-06
0.000199045
6.37002e-06
0.000204899
7.27354e-06
0.000209648
8.16872e-06
0.000213625
9.02248e-06
0.000216917
9.82417e-06
0.000219699
1.06266e-05
0.000222033
0.000224041
1.13994e-05
1.17035e-06
0.000134253
2.37731e-06
0.000163369
3.51567e-06
0.00017974
4.58125e-06
0.000190416
5.55944e-06
0.000198066
6.55931e-06
0.000203899
7.45838e-06
0.000208749
8.35428e-06
0.000212729
9.22215e-06
0.000216049
1.00299e-05
0.000218892
1.08113e-05
0.000221251
0.00022335
1.15017e-05
1.19378e-06
0.00013306
2.43525e-06
0.000162128
3.64925e-06
0.000178526
4.74195e-06
0.000189323
5.77047e-06
0.000197038
6.72845e-06
0.000202941
7.67477e-06
0.000207802
8.61795e-06
0.000211786
9.52837e-06
0.000215138
1.03934e-05
0.000218027
1.12181e-05
0.000220427
0.000222469
1.20996e-05
1.25495e-06
0.000131805
2.52903e-06
0.000160854
3.7405e-06
0.000177315
4.86303e-06
0.0001882
5.91894e-06
0.000195982
6.92649e-06
0.000201933
7.92121e-06
0.000206807
8.88218e-06
0.000210825
9.74985e-06
0.000214271
1.0678e-05
0.000217099
1.15213e-05
0.000219583
0.000221645
1.23449e-05
1.23749e-06
0.000130567
2.58656e-06
0.000159505
3.8314e-06
0.00017607
4.99367e-06
0.000187038
6.13944e-06
0.000194836
7.12748e-06
0.000200945
8.14318e-06
0.000205792
9.13075e-06
0.000209837
1.00628e-05
0.000213339
1.09646e-05
0.000216197
1.18632e-05
0.000218685
0.000220771
1.27378e-05
1.30238e-06
0.000129265
2.64371e-06
0.000158164
3.92681e-06
0.000174787
5.16456e-06
0.000185801
6.22644e-06
0.000193774
7.35507e-06
0.000199816
8.39803e-06
0.000204748
9.35857e-06
0.000208877
1.03362e-05
0.000212361
1.12821e-05
0.000215251
1.21811e-05
0.000217786
0.000219944
1.30084e-05
1.31787e-06
0.000127947
2.6997e-06
0.000156782
4.01863e-06
0.000173468
5.24945e-06
0.00018457
6.45693e-06
0.000192566
7.54157e-06
0.000198731
8.60974e-06
0.00020368
9.64355e-06
0.000207843
1.0668e-05
0.000211336
1.16151e-05
0.000214304
1.25657e-05
0.000216835
0.000218983
1.35261e-05
1.37017e-06
0.000126577
2.79447e-06
0.000155358
4.15608e-06
0.000172106
5.42626e-06
0.0001833
6.61742e-06
0.000191375
7.75643e-06
0.000197592
8.87443e-06
0.000202562
9.93138e-06
0.000206785
1.09547e-05
0.000210313
1.19427e-05
0.000213316
1.2885e-05
0.000215893
0.000218152
1.37165e-05
1.36414e-06
0.000125213
2.85548e-06
0.000153867
4.25252e-06
0.000170709
5.56008e-06
0.000181992
6.83482e-06
0.0001901
7.99989e-06
0.000196427
9.07249e-06
0.000201489
1.0203e-05
0.000205655
1.12248e-05
0.000209291
1.22369e-05
0.000212304
1.32206e-05
0.00021491
0.000217118
1.42547e-05
1.45694e-06
0.000123756
2.91403e-06
0.00015241
4.35099e-06
0.000169273
5.7442e-06
0.000180599
6.96111e-06
0.000188883
8.20695e-06
0.000195181
9.34948e-06
0.000200347
1.04571e-05
0.000204547
1.15518e-05
0.000208196
1.26343e-05
0.000211221
1.36195e-05
0.000213925
0.00021625
1.4488e-05
1.44293e-06
0.000122313
3.01399e-06
0.000150839
4.49454e-06
0.000167792
5.88141e-06
0.000179212
7.22996e-06
0.000187535
8.41886e-06
0.000193992
9.65882e-06
0.000199107