/*--------------------------------*- C++ -*----------------------------------*\
| =========                 |                                                 |
| \\      /  F ield         | OpenFOAM: The Open Source CFD Toolbox           |
|  \\    /   O peration     | Version:  2.3.1                                 |
|   \\  /    A nd           | Web:      www.OpenFOAM.org                      |
|    \\/     M anipulation  |                                                 |
\*---------------------------------------------------------------------------*/
FoamFile
{
    version     2.0;
    format      ascii;
    class       volVectorField;
    location    "4780";
    object      D;
}
// * * * * * * * * * * * * * * * * * * * * * * * * * * * * * * * * * * * * * //

dimensions      [0 1 0 0 0 0 0];

internalField   nonuniform List<vector> 
11800
(
(1.05547e-05 0.000298744 0)
(-1.33074e-05 0.000333 0)
(7.39209e-06 9.98232e-05 0)
(-8.42725e-06 0.000136103 0)
(-1.21566e-05 0.000332435 0)
(-5.45725e-06 0.000136372 0)
(-2.00715e-06 0.000223866 0)
(-1.90798e-06 0.000172261 0)
(8.79997e-07 2.60794e-05 0)
(1.61843e-06 0.000103567 0)
(1.17177e-05 0.000298034 0)
(-1.04957e-05 0.000115877 0)
(-1.00879e-08 -8.0317e-09 0)
(6.57089e-06 9.92159e-05 0)
(-7.47396e-06 0.000136681 0)
(7.12703e-06 1.59608e-05 0)
(-1.11919e-06 0.000223209 0)
(-1.08287e-06 0.000171639 0)
(4.99163e-07 2.63699e-05 0)
(1.00361e-06 0.00010305 0)
(-6.42379e-06 0.000135866 0)
(-9.61686e-06 0.00011634 0)
(-1.55724e-06 5.61024e-06 0)
(-1.6624e-06 5.8434e-06 0)
(6.3643e-06 1.82427e-05 0)
(-2.49519e-06 9.32486e-06 0)
(-1.02518e-05 6.88954e-05 0)
(1.50109e-05 0.000200508 0)
(-9.1164e-06 5.21658e-05 0)
(-7.8749e-06 3.74342e-05 0)
(1.59075e-05 0.000253853 0)
(6.70055e-08 4.36318e-06 0)
(3.25973e-06 1.2003e-05 0)
(-8.08716e-06 0.000341753 0)
(6.58069e-06 0.000340208 0)
(-1.80997e-05 0.000271194 0)
(6.13108e-06 0.000341386 0)
(3.20866e-06 1.2342e-05 0)
(-1.96249e-06 0.000236523 0)
(1.62364e-06 0.000113811 0)
(-1.00808e-05 6.96726e-05 0)
(-8.97352e-06 5.28572e-05 0)
(1.46644e-05 0.000199354 0)
(-7.76083e-06 3.80387e-05 0)
(1.55547e-05 0.000252639 0)
(6.79918e-06 1.60881e-05 0)
(1.79703e-06 6.64863e-06 0)
(2.00294e-06 6.54236e-06 0)
(-3.08763e-06 0.000236727 0)
(2.52319e-06 0.000113972 0)
(-1.71808e-05 0.000174563 0)
(-1.83691e-05 0.000226185 0)
(-1.6807e-06 0.000295541 0)
(9.28888e-08 4.13967e-06 0)
(-8.73443e-06 1.90255e-05 0)
(1.18007e-06 9.73038e-07 0)
(-2.25885e-05 0.000346455 0)
(-5.64805e-06 9.60774e-05 0)
(6.48869e-06 0.000140419 0)
(-4.10137e-06 9.2273e-05 0)
(2.36007e-06 3.10956e-06 0)
(-2.90057e-06 0.000295763 0)
(-4.91011e-06 9.58589e-05 0)
(5.65926e-06 0.000140681 0)
(5.96122e-06 1.79621e-05 0)
(-2.15666e-05 0.000306135 0)
(-1.78237e-05 0.000173795 0)
(-1.91217e-05 0.000225341 0)
(-2.14546e-05 0.000345894 0)
(-2.61877e-06 9.62903e-06 0)
(-7.2082e-06 0.000342715 0)
(-1.27323e-05 0.000340855 0)
(-1.31027e-05 0.000339639 0)
(-1.11107e-07 1.23298e-07 0)
(2.52023e-06 3.24368e-06 0)
(-1.70487e-05 0.000271958 0)
(7.82359e-06 2.5245e-05 0)
(-2.19166e-05 0.000307283 0)
(-1.74509e-05 0.000309889 0)
(-1.63032e-05 0.000310929 0)
(-8.32602e-06 1.87635e-05 0)
(1.29697e-06 0.000118206 0)
(1.20259e-05 0.000338177 0)
(1.07355e-05 0.000338387 0)
(-1.538e-06 0.000121506 0)
(-7.57326e-06 4.21813e-05 0)
(1.43806e-05 0.000244594 0)
(-8.66601e-06 5.75941e-05 0)
(-9.67132e-06 7.49736e-05 0)
(1.35187e-05 0.000191739 0)
(-3.80653e-07 0.000289125 0)
(3.46397e-06 1.14077e-05 0)
(-1.08359e-05 0.000311895 0)
(2.24345e-05 0.000349115 0)
(3.55897e-06 0.000150049 0)
(-2.68759e-09 -2.04432e-09 0)
(6.95169e-11 -4.34582e-10 0)
(2.69004e-09 -2.04644e-09 0)
(-2.225e-07 0.000299188 0)
(-9.96529e-06 0.000118456 0)
(1.93119e-05 0.000347864 0)
(1.16517e-05 0.000130224 0)
(-4.20017e-06 1.66953e-05 0)
(-9.44431e-07 1.28718e-05 0)
(-6.18061e-07 0.000330939 0)
(1.16265e-06 2.72864e-05 0)
(-2.45165e-06 0.000169726 0)
(-2.55103e-06 0.000221056 0)
(3.66957e-06 6.21348e-06 0)
(8.7494e-06 5.75691e-05 0)
(7.64646e-06 4.2159e-05 0)
(9.76465e-06 7.49454e-05 0)
(-1.45608e-05 0.000244624 0)
(-1.36898e-05 0.000191781 0)
(2.08727e-06 0.000101445 0)
(2.90402e-06 5.66321e-06 0)
(2.14001e-05 0.00030739 0)
(-8.73939e-06 0.000315559 0)
(2.95678e-06 5.45593e-06 0)
(-1.44895e-06 0.000104863 0)
(-8.62927e-07 2.53878e-05 0)
(1.96392e-06 0.000225519 0)
(1.86343e-06 0.000173741 0)
(-2.69047e-06 0.000216225 0)
(-1.09068e-05 0.000313074 0)
(-9.45333e-07 0.00029825 0)
(-7.00313e-06 0.00033107 0)
(-1.6212e-06 0.000330168 0)
(-2.42405e-05 0.000357962 0)
(-2.51067e-05 0.000357094 0)
(-6.90256e-07 3.09918e-07 0)
(-3.14273e-06 7.34823e-06 0)
(1.47518e-05 0.000237293 0)
(-8.13376e-06 4.61402e-05 0)
(1.38153e-05 0.000184887 0)
(-9.23746e-06 6.20985e-05 0)
(-1.02516e-05 7.99799e-05 0)
(1.36121e-05 0.00023751 0)
(-7.49515e-06 4.60017e-05 0)
(1.27493e-05 0.000185088 0)
(-8.51426e-06 6.19448e-05 0)
(-9.45079e-06 7.98123e-05 0)
(-1.96887e-06 2.35067e-05 0)
(4.78552e-06 0.000229859 0)
(4.46289e-06 0.000177921 0)
(-3.76395e-06 0.000108305 0)
(1.83142e-05 0.000118952 0)
(-1.81827e-05 0.000116342 0)
(1.14619e-05 0.000131174 0)
(-1.32443e-06 1.36625e-05 0)
(-1.20634e-05 0.000287787 0)
(-1.1959e-05 0.000289317 0)
(5.90184e-06 0.000337598 0)
(-1.34923e-05 0.000271573 0)
(5.41754e-06 0.000191643 0)
(5.88009e-06 0.000244465 0)
(-1.50252e-05 0.000215285 0)
(-1.3927e-05 0.000164364 0)
(7.00803e-06 3.00873e-05 0)
(-1.09639e-06 0.000290213 0)
(3.98904e-06 6.3245e-06 0)
(-1.23298e-05 0.000271843 0)
(8.18943e-06 2.56119e-05 0)
(-5.47805e-06 7.80508e-05 0)
(-4.92573e-06 6.03484e-05 0)
(-4.3251e-06 4.45852e-05 0)
(7.52595e-06 0.0001873 0)
(8.02589e-06 0.00023988 0)
(-3.51515e-06 4.33834e-06 0)
(-6.41848e-06 2.89387e-05 0)
(1.40374e-05 0.00021768 0)
(1.30031e-05 0.00016661 0)
(3.13963e-06 0.000220811 0)
(-2.06199e-05 0.000269927 0)
(-2.0828e-05 0.000271552 0)
(7.32717e-06 1.82753e-05 0)
(7.33767e-06 1.8781e-05 0)
(8.09605e-06 5.58959e-05 0)
(9.05572e-06 7.30803e-05 0)
(7.05427e-06 4.06902e-05 0)
(-1.28755e-05 0.000194378 0)
(-1.36779e-05 0.000247404 0)
(5.51076e-06 0.000190437 0)
(5.91245e-06 0.000243223 0)
(5.98041e-06 0.000115871 0)
(-2.84759e-06 0.000108059 0)
(-1.49704e-06 2.36283e-05 0)
(3.62304e-06 0.000229551 0)
(3.37773e-06 0.000177632 0)
(-4.69824e-06 0.00028384 0)
(-1.57727e-06 4.94313e-05 0)
(-1.7814e-06 6.58411e-05 0)
(-1.77451e-05 0.000303773 0)
(-4.79963e-07 1.12042e-05 0)
(-1.71049e-05 0.000142705 0)
(1.47469e-05 9.44218e-05 0)
(1.69084e-07 1.60825e-07 0)
(-1.06182e-05 0.000342299 0)
(2.12509e-05 0.000308632 0)
(-6.02339e-07 3.58783e-07 0)
(1.40008e-05 0.000323527 0)
(1.74867e-05 0.000276358 0)
(1.87542e-05 0.000276585 0)
(-5.41786e-07 0.00033262 0)
(-1.41652e-06 0.000333689 0)
(9.86239e-06 9.21261e-05 0)
(8.71257e-06 9.25356e-05 0)
(-1.16677e-05 0.000145143 0)
(-1.0279e-05 0.000144632 0)
(6.80662e-07 3.0569e-07 0)
(-1.91931e-06 1.64021e-05 0)
(-2.15985e-06 9.12506e-06 0)
(-5.03723e-08 1.89412e-08 0)
(6.5821e-06 1.08216e-05 0)
(-1.56693e-07 4.9763e-08 0)
(8.56206e-07 8.96183e-06 0)
(-1.20444e-05 0.000330867 0)
(-5.78789e-06 4.11652e-05 0)
(-6.61921e-06 5.64549e-05 0)
(-7.39815e-06 7.37101e-05 0)
(1.10887e-05 0.000246415 0)
(1.04632e-05 0.000193468 0)
(7.21577e-07 0.000229124 0)
(6.71114e-07 0.000177229 0)
(-3.05016e-07 2.37978e-05 0)
(-5.81631e-07 0.000107736 0)
(-2.29846e-07 3.82071e-08 0)
(9.0351e-07 2.97777e-05 0)
(-1.80992e-06 0.000164674 0)
(-5.43731e-06 0.000104045 0)
(1.25931e-06 2.9339e-05 0)
(-2.54935e-06 0.000165549 0)
(-8.23018e-06 0.000313032 0)
(1.01846e-05 0.000116724 0)
(9.48847e-06 0.000115824 0)
(5.01748e-08 1.88753e-08 0)
(2.29565e-07 3.81633e-08 0)
(-1.5965e-05 0.000291289 0)
(-1.53584e-05 0.000292528 0)
(-1.50385e-05 9.8781e-05 0)
(1.69635e-05 0.000137599 0)
(1.36016e-05 0.000247299 0)
(1.28012e-05 0.000194284 0)
(-7.03821e-06 4.07499e-05 0)
(-8.07932e-06 5.59597e-05 0)
(-9.03617e-06 7.31517e-05 0)
(-4.83998e-07 0.000297053 0)
(-5.93018e-06 2.76818e-05 0)
(1.32715e-05 0.000220413 0)
(1.23129e-05 0.000169142 0)
(8.13587e-06 0.000117948 0)
(6.88076e-06 0.000280078 0)
(1.08015e-05 0.000349536 0)
(1.09519e-06 8.83166e-06 0)
(-3.98331e-06 9.32244e-05 0)
(-9.54474e-09 3.25692e-06 0)
(1.56309e-07 4.96641e-08 0)
(3.84913e-06 9.83879e-05 0)
(3.31299e-06 9.73567e-05 0)
(-4.16982e-06 0.00013785 0)
(-3.57181e-06 0.000138872 0)
(7.40182e-06 7.36883e-05 0)
(6.62229e-06 5.64353e-05 0)
(5.77605e-06 4.11552e-05 0)
(-1.04767e-05 0.000193469 0)
(-1.11356e-05 0.000246446 0)
(-5.89515e-06 0.000342402 0)
(1.98703e-06 2.40476e-06 0)
(7.59439e-09 0.000196491 0)
(-1.48824e-08 3.94014e-05 0)
(7.85571e-06 0.000330351 0)
(6.39173e-06 0.000115029 0)
(-2.48608e-05 0.000326424 0)
(7.34604e-06 0.000118803 0)
(2.8295e-07 2.06157e-07 0)
(2.04666e-05 0.00026658 0)
(2.05845e-05 0.000265076 0)
(-1.24953e-05 0.000169358 0)
(-1.34675e-05 0.000220639 0)
(-1.11622e-05 0.000168929 0)
(-1.2034e-05 0.00022018 0)
(5.9875e-06 2.75802e-05 0)
(5.36882e-06 2.77629e-05 0)
(6.08912e-06 0.00015551 0)
(7.24179e-06 0.000155328 0)
(6.61111e-06 0.000205686 0)
(7.86564e-06 0.000205487 0)
(-3.33353e-06 3.46374e-05 0)
(-3.9713e-06 3.47506e-05 0)
(-6.95621e-07 1.55425e-05 0)
(3.52179e-06 9.90288e-06 0)
(3.29688e-06 9.55938e-06 0)
(3.36232e-06 7.23049e-06 0)
(5.88466e-06 0.000281286 0)
(-2.02881e-05 0.000267072 0)
(-2.03965e-05 0.000265511 0)
(7.57193e-06 2.04179e-05 0)
(7.42214e-06 1.98342e-05 0)
(1.60703e-05 0.000118977 0)
(1.62877e-05 0.000120317 0)
(-1.59405e-05 0.000116249 0)
(-1.60237e-05 0.000114931 0)
(7.27906e-06 0.000337371 0)
(-1.99091e-05 0.000341784 0)
(-1.91382e-05 0.00028754 0)
(4.44109e-06 4.98971e-06 0)
(-1.16911e-05 0.000337482 0)
(-1.04387e-05 0.000336321 0)
(4.95553e-06 0.000157296 0)
(-3.05896e-06 0.00014129 0)
(2.72897e-06 9.53389e-05 0)
(-1.36725e-05 0.000119422 0)
(1.34051e-05 0.000115688 0)
(-6.43302e-06 2.00618e-05 0)
(-1.87611e-07 1.18586e-07 0)
(1.01382e-06 4.10047e-06 0)
(1.23148e-06 0.000101768 0)
(-1.15026e-05 0.000102495 0)
(1.24098e-05 0.000133162 0)
(-6.61806e-06 9.32625e-05 0)
(7.89863e-06 0.000143776 0)
(4.01007e-06 0.000251168 0)
(5.53053e-06 0.000250625 0)
(-2.33908e-06 5.35879e-05 0)
(-3.23109e-06 5.39125e-05 0)
(-2.62486e-06 7.05133e-05 0)
(-3.6242e-06 7.08757e-05 0)
(6.26946e-07 2.7099e-05 0)
(-1.33617e-06 0.000170109 0)
(-1.35446e-06 0.00022149 0)
(-2.19603e-06 0.000324838 0)
(3.0753e-06 7.18403e-06 0)
(-6.12154e-07 0.000137646 0)
(-9.44815e-06 0.000333017 0)
(1.27158e-06 1.00962e-06 0)
(8.45909e-06 0.000197437 0)
(-4.54345e-06 3.89672e-05 0)
(-1.42603e-05 0.000139114 0)
(-1.33926e-05 0.000138416 0)
(1.24612e-05 9.73815e-05 0)
(1.17473e-05 9.79758e-05 0)
(-1.41548e-05 0.000347327 0)
(-1.43108e-05 0.000345831 0)
(-2.30596e-06 1.56404e-05 0)
(-2.73482e-06 1.55811e-05 0)
(1.10995e-06 4.29824e-06 0)
(-2.62383e-06 4.46164e-06 0)
(6.7366e-07 0.000144476 0)
(4.06397e-06 2.80834e-05 0)
(3.41799e-06 2.82627e-05 0)
(-8.39634e-06 0.000168186 0)
(-7.0384e-06 0.000167786 0)
(-9.05492e-06 0.000219391 0)
(-7.59226e-06 0.000218962 0)
(-1.83631e-05 0.000278232 0)
(-1.69922e-05 0.000278343 0)
(-4.00358e-06 8.33926e-05 0)
(-3.69659e-06 6.51482e-05 0)
(-3.26994e-06 4.88192e-05 0)
(5.81902e-06 0.000259533 0)
(-9.85484e-07 0.000294157 0)
(1.20615e-05 0.000115576 0)
(1.14213e-05 0.000116586 0)
(5.36664e-06 0.000224348 0)
(5.12862e-06 0.000172724 0)
(-2.38557e-06 2.58784e-05 0)
(2.25211e-06 2.89902e-05 0)
(1.85381e-06 2.95573e-05 0)
(-4.15529e-06 0.000216182 0)
(-4.94526e-06 0.000217303 0)
(-4.57659e-06 0.00016627 0)
(-3.72837e-06 0.000165127 0)
(-4.74854e-06 2.65658e-05 0)
(1.0083e-05 0.000171388 0)
(1.08531e-05 0.000222837 0)
(-1.27473e-07 1.20974e-06 0)
(1.7941e-05 0.000131991 0)
(-1.64497e-05 0.000103878 0)
(-7.13743e-08 1.12523e-06 0)
(-5.41118e-06 0.000247248 0)
(-6.3473e-06 0.000248615 0)
(-4.96093e-06 0.000194333 0)
(-5.81083e-06 0.000195627 0)
(3.14576e-06 3.99223e-05 0)
(2.71055e-06 4.06269e-05 0)
(3.72426e-06 5.51006e-05 0)
(3.19728e-06 5.5906e-05 0)
(4.1704e-06 7.22045e-05 0)
(3.57624e-06 7.31057e-05 0)
(2.02678e-05 0.000278774 0)
(2.06452e-05 0.000280199 0)
(-1.87488e-06 9.19988e-06 0)
(7.60755e-06 0.000198426 0)
(-4.05608e-06 3.84263e-05 0)
(6.59222e-06 3.03472e-05 0)
(-1.30365e-05 0.000163816 0)
(-1.40981e-05 0.000214662 0)
(-1.8267e-07 5.54352e-08 0)
(2.64244e-06 0.000290597 0)
(6.50805e-06 2.89451e-05 0)
(-1.32191e-05 0.000166603 0)
(-1.42841e-05 0.000217627 0)
(4.92037e-06 8.40205e-06 0)
(-9.99149e-06 0.000315103 0)
(6.23922e-06 2.30775e-05 0)
(-1.57821e-05 0.000258407 0)
(-3.32474e-06 1.2371e-05 0)
(-3.54753e-06 1.28271e-05 0)
(3.4858e-06 1.2693e-05 0)
(-1.69506e-06 0.000137432 0)
(-1.28836e-08 -9.48153e-09 0)
(-1.06104e-05 0.000345416 0)
(-1.63799e-07 6.50232e-08 0)
(1.82139e-07 5.52984e-08 0)
(-4.87583e-06 2.80329e-05 0)
(1.0831e-05 0.000219554 0)
(1.00434e-05 0.00016834 0)
(8.34996e-06 0.000291057 0)
(-2.39371e-05 0.000312391 0)
(3.07257e-06 0.000128577 0)
(-1.96223e-06 0.00012519 0)
(-5.31898e-07 1.2947e-05 0)
(-1.49538e-06 1.55394e-06 0)
(-9.30109e-09 -8.37551e-09 0)
(-5.93593e-06 9.41398e-05 0)
(7.08173e-06 0.000142762 0)
(5.07865e-07 1.77782e-07 0)
(-7.8441e-07 0.000123333 0)
(-7.39537e-07 0.000122133 0)
(-1.12949e-08 0.000103403 0)
(-1.36505e-07 2.621e-05 0)
(2.75951e-07 0.000171975 0)
(2.48792e-07 0.000223655 0)
(-5.09955e-07 1.78483e-07 0)
(2.11157e-06 1.401e-05 0)
(-8.25509e-06 0.000254172 0)
(4.70065e-06 5.18798e-05 0)
(5.28846e-06 6.85915e-05 0)
(5.82441e-06 8.7167e-05 0)
(1.73834e-05 0.00033149 0)
(-6.31735e-06 2.50648e-05 0)
(1.49045e-05 0.000226458 0)
(1.38758e-05 0.000174767 0)
(-9.83791e-06 0.000305652 0)
(1.41498e-06 3.58347e-06 0)
(1.32911e-05 0.000299945 0)
(-2.80146e-06 4.39428e-06 0)
(9.31655e-06 0.000332815 0)
(-7.11476e-06 0.0002542 0)
(4.04782e-06 5.18571e-05 0)
(4.5542e-06 6.85675e-05 0)
(5.01907e-06 8.71359e-05 0)
(1.23612e-06 3.39531e-06 0)
(6.13996e-06 0.000203489 0)
(-3.15039e-06 3.57541e-05 0)
(-1.06239e-06 1.39509e-05 0)
(-1.74213e-05 0.000301018 0)
(-6.44045e-06 7.83421e-05 0)
(-5.79289e-06 6.06125e-05 0)
(-5.08854e-06 4.48196e-05 0)
(8.78266e-06 0.000186992 0)
(9.36738e-06 0.00023955 0)
(2.39513e-05 0.000351419 0)
(1.39507e-05 0.000308202 0)
(1.54657e-05 0.00030767 0)
(1.91168e-07 1.33032e-07 0)
(8.63773e-06 9.36105e-05 0)
(-1.01156e-05 0.000143349 0)
(-4.38414e-06 9.49561e-05 0)
(5.15695e-06 0.000141844 0)
(-1.47423e-06 0.00015287 0)
(-1.11874e-06 0.000248872 0)
(7.2333e-07 7.20161e-05 0)
(6.45758e-07 5.49292e-05 0)
(4.31571e-08 3.85848e-05 0)
(-2.35399e-07 0.000148523 0)
(-9.93371e-08 0.000198058 0)
(1.09708e-05 0.000350942 0)
(6.17248e-07 1.43711e-05 0)
(-2.63551e-07 3.30505e-06 0)
(2.11093e-06 0.00021035 0)
(1.05636e-07 3.41851e-06 0)
(-1.59463e-06 1.07218e-05 0)
(4.02719e-06 3.8491e-05 0)
(-7.63792e-06 0.000198296 0)
(-1.49038e-07 1.62939e-07 0)
(-1.6135e-05 0.000300876 0)
(-1.32617e-06 2.57068e-05 0)
(2.87862e-06 0.000224856 0)
(2.85278e-06 0.000173062 0)
(3.57151e-07 8.56843e-08 0)
(-4.71311e-06 8.5401e-06 0)
(5.26676e-06 7.03016e-05 0)
(4.69203e-06 5.34034e-05 0)
(-8.11824e-06 0.000251533 0)
(1.57611e-06 9.79017e-05 0)
(-1.09119e-05 0.00034095 0)
(-1.79298e-07 2.51359e-08 0)
(-6.17848e-06 1.33817e-05 0)
(4.00198e-06 7.35302e-06 0)
(-4.02146e-06 4.39319e-06 0)
(1.21445e-05 0.000117707 0)
(9.24622e-06 0.000143378 0)
(-7.90213e-06 9.35778e-05 0)
(5.70693e-07 3.81888e-05 0)
(-1.30934e-06 0.000149091 0)
(-1.09495e-06 0.000198801 0)
(1.16279e-05 0.00029652 0)
(1.07987e-05 0.000129004 0)
(5.64235e-06 0.000343597 0)
(5.43609e-06 0.000344885 0)
(1.58092e-06 0.000142703 0)
(2.14817e-06 9.71634e-05 0)
(1.79067e-07 2.51058e-08 0)
(-1.55936e-05 0.000268726 0)
(5.60676e-06 1.91338e-05 0)
(1.95027e-08 2.60394e-07 0)
(2.99795e-06 0.000191548 0)
(3.91426e-06 0.000192216 0)
(5.23983e-09 2.26078e-08 0)
(-2.93236e-06 7.11213e-06 0)
(7.3713e-06 7.14869e-05 0)
(6.57694e-06 5.44664e-05 0)
(5.71831e-06 3.93753e-05 0)
(-1.06113e-05 0.000196505 0)
(-1.12613e-05 0.000249771 0)
(9.8162e-06 0.000122737 0)
(1.45052e-06 0.00029091 0)
(-6.34521e-06 0.000328237 0)
(-6.00691e-06 0.000329977 0)
(-6.02686e-07 0.000252926 0)
(-5.15105e-07 0.000254324 0)
(4.37955e-07 5.1739e-05 0)
(4.00138e-07 5.25087e-05 0)
(4.92809e-07 6.84394e-05 0)
(4.49717e-07 6.93041e-05 0)
(3.28417e-07 8.69976e-05 0)
(3.91092e-07 8.79236e-05 0)
(7.84165e-07 0.000143183 0)
(1.43026e-06 0.000145497 0)
(2.48148e-06 0.000222226 0)
(-6.15438e-07 0.000152493 0)
(-3.57683e-07 8.58066e-08 0)
(-3.99457e-07 3.15148e-06 0)
(5.4094e-06 0.000202402 0)
(-2.79994e-06 3.63111e-05 0)
(1.40855e-06 4.38063e-06 0)
(2.1097e-05 0.000333127 0)
(-1.59542e-06 0.000255439 0)
(9.96864e-07 5.11537e-05 0)
(1.1227e-06 6.77811e-05 0)
(1.10944e-06 8.62325e-05 0)
(-1.61012e-05 0.000279678 0)
(5.54492e-06 9.9498e-05 0)
(8.2365e-06 0.000353681 0)
(9.31271e-06 0.00035289 0)
(-1.58503e-06 1.10567e-05 0)
(-1.01228e-06 0.000195454 0)
(5.39409e-07 3.99665e-05 0)
(2.34959e-07 2.3767e-07 0)
(2.07012e-05 0.000342564 0)
(-2.76739e-07 5.5785e-06 0)
(-3.859e-06 5.80944e-05 0)
(-4.30391e-06 7.55456e-05 0)
(-5.15195e-06 7.63438e-05 0)
(-4.62369e-06 5.88126e-05 0)
(-3.33691e-06 4.25872e-05 0)
(-4.03808e-06 4.32348e-05 0)
(6.85131e-06 0.000189653 0)
(7.30112e-06 0.000242397 0)
(2.92933e-06 3.97539e-06 0)
(-1.87732e-07 1.13635e-07 0)
(-1.7836e-05 0.000231258 0)
(-1.85849e-05 0.000341862 0)
(6.07055e-06 0.000145382 0)
(-5.11139e-07 5.70884e-06 0)
(-9.64038e-06 0.000189307 0)
(-1.02678e-05 0.000242016 0)
(5.47697e-06 4.34996e-05 0)
(6.2504e-06 5.91088e-05 0)
(6.96198e-06 7.66693e-05 0)
(8.97169e-06 0.000292028 0)
(2.0356e-05 0.000343786 0)
(-1.09139e-05 0.000118771 0)
(4.48473e-06 3.89569e-05 0)
(-8.47086e-06 0.000197429 0)
(5.80928e-06 0.00014652 0)
(-2.18711e-06 0.000104216 0)
(5.83234e-06 7.09044e-05 0)
(5.19997e-06 5.39424e-05 0)
(-8.94964e-06 0.000250622 0)
(-1.6231e-05 0.000120145 0)
(1.58498e-05 0.000115169 0)
(1.58503e-05 0.000116461 0)
(-1.60168e-05 0.000118773 0)
(-7.43218e-06 1.98223e-05 0)
(-7.65069e-06 2.04415e-05 0)
(-7.52268e-06 0.000116441 0)
(-3.79044e-06 4.49839e-06 0)
(-1.21773e-05 0.00011734 0)
(-1.77263e-06 0.000281307 0)
(-1.54899e-06 1.84526e-06 0)
(1.22203e-05 6.82332e-05 0)
(1.08575e-05 5.15851e-05 0)
(-1.72849e-05 0.000176093 0)
(2.7909e-06 7.09479e-05 0)
(2.4885e-06 5.39762e-05 0)
(-4.29039e-06 0.000250508 0)
(5.68887e-06 1.70877e-05 0)
(9.56307e-06 0.00014221 0)
(-8.2309e-06 9.45891e-05 0)
(-4.47318e-06 5.01184e-06 0)
(4.92633e-06 0.00022312 0)
(4.7046e-06 0.000171627 0)
(-2.21316e-06 2.63913e-05 0)
(1.42599e-05 0.000210628 0)
(-6.90898e-06 3.22862e-05 0)
(1.31538e-05 0.000160089 0)
(-7.86168e-06 1.95583e-05 0)
(1.00578e-05 0.000328899 0)
(1.15335e-05 0.000328417 0)
(1.111e-05 0.000249779 0)
(1.05249e-05 0.000196525 0)
(-5.69038e-06 3.94878e-05 0)
(-6.51194e-06 5.44597e-05 0)
(-7.29839e-06 7.14797e-05 0)
(-1.63128e-06 1.5995e-06 0)
(-8.80263e-06 0.000305338 0)
(9.63383e-06 0.000194334 0)
(-5.28952e-06 4.06776e-05 0)
(-9.91276e-07 1.22747e-06 0)
(8.24084e-06 0.000332597 0)
(1.9715e-06 1.61157e-06 0)
(1.63488e-06 1.22176e-06 0)
(4.15139e-06 5.88259e-06 0)
(9.95983e-06 0.000267097 0)
(-1.68269e-05 0.000274483 0)
(2.2433e-05 0.000333553 0)
(4.20489e-06 6.18448e-06 0)
(9.83415e-06 0.000128964 0)
(1.35126e-05 0.000283278 0)
(-2.16712e-05 0.00026779 0)
(7.87888e-06 1.96024e-05 0)
(-4.96443e-06 0.000285065 0)
(2.02463e-06 7.11694e-05 0)
(1.80577e-06 5.41733e-05 0)
(-3.11277e-06 0.000250164 0)
(-7.37163e-07 3.53159e-06 0)
(5.75644e-06 0.000153441 0)
(1.62345e-07 6.4491e-08 0)
(-6.53165e-06 1.32525e-05 0)
(-1.15681e-06 0.000125973 0)
(-2.92676e-06 2.4104e-05 0)
(-3.40713e-06 2.42638e-05 0)
(6.54985e-06 0.000176625 0)
(7.60175e-06 0.000176295 0)
(8.15837e-06 0.000228112 0)
(7.02824e-06 0.000228468 0)
(1.92088e-07 7.08397e-07 0)
(-4.64188e-08 8.92149e-06 0)
(-1.17311e-05 0.000158592 0)
(-1.27302e-05 0.000209009 0)
(6.23037e-06 3.30527e-05 0)
(-3.65036e-06 1.96372e-05 0)
(-2.19145e-06 0.000214935 0)
(-3.29996e-06 8.38867e-06 0)
(6.89517e-06 0.000329428 0)
(-5.51643e-06 0.00010719 0)
(-6.39338e-06 0.000106919 0)
(1.8737e-07 1.88099e-07 0)
(-3.65182e-06 0.000110883 0)
(-1.83823e-06 2.21678e-05 0)
(4.30112e-06 0.000180979 0)
(4.60367e-06 0.000233134 0)
(-5.1393e-06 0.00021497 0)
(-4.51803e-06 0.000164017 0)
(2.27123e-06 3.01232e-05 0)
(3.00654e-06 1.12685e-05 0)
(2.79234e-06 1.08578e-05 0)
(1.48263e-06 0.000106875 0)
(-1.90689e-06 0.000228028 0)
(-1.78516e-06 0.000176185 0)
(7.91044e-07 2.4269e-05 0)
(-1.74014e-06 4.19092e-05 0)
(-3.10768e-06 8.62352e-06 0)
(1.28327e-05 0.0003372 0)
(-1.2487e-05 0.000201166 0)
(9.60796e-06 9.42136e-05 0)
(-1.12044e-05 0.00014267 0)
(1.36777e-05 0.000284563 0)
(-1.24878e-05 8.65531e-05 0)
(-1.13553e-05 6.80286e-05 0)
(1.53397e-05 0.000151927 0)
(-1.0086e-05 5.13994e-05 0)
(-8.7114e-06 3.67938e-05 0)
(1.67671e-05 0.000201798 0)
(1.77325e-05 0.000255283 0)
(-4.58868e-06 0.000244227 0)
(-4.31415e-06 0.000191379 0)
(2.75308e-06 5.77173e-05 0)
(2.40721e-06 4.22717e-05 0)
(3.07195e-06 7.51271e-05 0)
(2.63354e-06 5.8552e-05 0)
(-4.35772e-06 0.000242851 0)
(2.93534e-06 7.60572e-05 0)
(2.30607e-06 4.30029e-05 0)
(-4.09431e-06 0.000190085 0)
(-2.41475e-06 0.000310158 0)
(-4.83868e-06 6.31172e-06 0)
(-5.27766e-06 2.98375e-05 0)
(1.13482e-05 0.00021565 0)
(1.04992e-05 0.000164723 0)
(-3.31846e-06 4.0241e-05 0)
(6.11553e-06 0.000195083 0)
(1.68324e-05 0.000241986 0)
(1.58027e-05 0.000189295 0)
(-9.01369e-06 4.36159e-05 0)
(-1.02849e-05 5.92225e-05 0)
(-1.14541e-05 7.67803e-05 0)
(1.77366e-05 0.000264232 0)
(1.93571e-05 0.000263895 0)
(4.30145e-07 7.60871e-06 0)
(-1.77084e-06 0.000123899 0)
(-4.69676e-06 1.29164e-05 0)
(2.39674e-07 4.41166e-07 0)
(-4.6272e-06 1.64211e-05 0)
(-7.36488e-07 0.000281872 0)
(1.95242e-07 7.28036e-06 0)
(-3.86957e-06 0.000132832 0)
(1.60637e-05 0.000176198 0)
(-7.20814e-06 2.44704e-05 0)
(1.72398e-05 0.000227988 0)
(-1.57884e-08 -1.09418e-08 0)
(1.08638e-06 0.000210552 0)
(3.00483e-07 1.2614e-07 0)
(2.05142e-07 1.50181e-07 0)
(2.86038e-06 0.000150963 0)
(-3.4286e-07 2.75064e-07 0)
(1.31142e-05 0.000339732 0)
(9.90761e-07 0.000192161 0)
(-5.10589e-07 4.17813e-05 0)
(2.82646e-06 1.67161e-05 0)
(1.8154e-06 0.000191559 0)
(-9.98099e-07 4.20883e-05 0)
(-1.67313e-07 3.6785e-06 0)
(-1.21944e-05 6.81978e-05 0)
(-1.08337e-05 5.15538e-05 0)
(-9.35865e-06 3.6938e-05 0)
(-7.76601e-06 2.45305e-05 0)
(1.72906e-05 0.000176131 0)
(1.79812e-05 0.000201576 0)
(1.8557e-05 0.000227911 0)
(1.90236e-05 0.00025505 0)
(-8.40235e-06 0.000275298 0)
(-7.46419e-06 0.000327596 0)
(-2.41533e-05 0.000270243 0)
(8.59113e-06 1.877e-05 0)
(5.53203e-06 0.000347394 0)
(6.43249e-06 0.00034589 0)
(1.7279e-06 0.000187289 0)
(1.87412e-06 0.000239899 0)
(-1.30655e-06 7.81424e-05 0)
(-1.17494e-06 6.04262e-05 0)
(-1.03183e-06 4.46483e-05 0)
(-6.82384e-06 1.96094e-05 0)
(2.48788e-06 1.40382e-05 0)
(-9.30808e-06 8.18923e-05 0)
(1.23863e-05 0.000182257 0)
(-8.40402e-06 6.38219e-05 0)
(-7.41957e-06 4.76579e-05 0)
(1.32463e-05 0.000234488 0)
(-5.18672e-06 2.17412e-05 0)
(1.34155e-05 0.000261844 0)
(2.2606e-06 0.000118634 0)
(-1.39102e-06 0.000292668 0)
(1.35317e-06 6.734e-07 0)
(-1.0158e-06 0.000256798 0)
(6.63605e-07 5.03868e-05 0)
(7.48205e-07 6.69183e-05 0)
(6.98068e-07 8.52796e-05 0)
(4.20957e-06 0.000303263 0)
(-5.6071e-07 3.53049e-07 0)
(2.12784e-05 0.000298382 0)
(-3.17431e-06 0.000125792 0)
(-9.43959e-08 2.00556e-07 0)
(7.61261e-06 0.000179401 0)
(-3.30387e-06 2.2882e-05 0)
(8.15503e-06 0.000231441 0)
(1.63658e-07 1.26613e-07 0)
(-4.44079e-06 2.76351e-05 0)
(9.21928e-06 0.000169131 0)
(9.93734e-06 0.000220408 0)
(1.53199e-06 1.99097e-06 0)
(-6.43956e-06 0.000109575 0)
(1.37666e-06 0.000117218 0)
(-1.47102e-05 0.000319005 0)
(1.36875e-06 0.000188316 0)
(1.4594e-06 0.000240968 0)
(-1.10189e-06 7.73845e-05 0)
(-8.66694e-07 4.40518e-05 0)
(-9.9003e-07 5.9744e-05 0)
(2.18998e-06 0.000119518 0)
(-3.00159e-07 1.1331e-06 0)
(-2.64995e-07 3.87204e-06 0)
(6.61011e-07 0.00028141 0)
(1.44699e-05 0.000128582 0)
(-1.35401e-05 0.000106929 0)
(-1.03199e-05 0.000357153 0)
(-2.34395e-05 0.000232867 0)
(-2.19026e-05 0.000180771 0)
(-2.27402e-05 0.000206377 0)
(-2.09232e-05 0.000156201 0)
(1.13938e-05 3.45952e-05 0)
(1.32704e-05 4.88121e-05 0)
(1.50019e-05 6.50894e-05 0)
(1.65908e-05 8.32629e-05 0)
(2.34226e-05 0.000232863 0)
(2.27229e-05 0.000206377 0)
(-1.14035e-05 3.45957e-05 0)
(-1.32808e-05 4.88133e-05 0)
(2.18841e-05 0.00018077 0)
(-1.5014e-05 6.50904e-05 0)
(2.0907e-05 0.000156201 0)
(-1.66044e-05 8.32639e-05 0)
(-6.56702e-06 1.90586e-05 0)
(-3.62211e-06 0.000292042 0)
(-2.57877e-06 0.000291762 0)
(-3.21291e-06 0.000330961 0)
(5.36288e-06 0.00019989 0)
(-2.83055e-06 3.76287e-05 0)
(-1.0076e-06 1.47406e-06 0)
(-4.16135e-06 0.000349874 0)
(-4.54467e-06 7.45413e-05 0)
(-5.56939e-06 7.42589e-05 0)
(-4.07015e-06 5.71937e-05 0)
(-4.98621e-06 5.69424e-05 0)
(6.79462e-06 0.000245536 0)
(8.15875e-06 0.000245651 0)
(1.79154e-05 0.000241354 0)
(1.68141e-05 0.000188704 0)
(-9.63291e-06 4.39774e-05 0)
(-1.09839e-05 5.96305e-05 0)
(-1.22261e-05 7.7231e-05 0)
(-1.08109e-05 0.000159155 0)
(-1.17273e-05 0.000209622 0)
(5.71004e-06 3.27352e-05 0)
(-3.38892e-06 0.000142426 0)
(2.88817e-06 9.43709e-05 0)
(3.54547e-06 0.000252528 0)
(-2.04383e-06 5.27137e-05 0)
(-2.29653e-06 6.95332e-05 0)
(-2.49112e-06 8.80194e-05 0)
(6.67085e-06 9.32391e-05 0)
(5.65417e-06 9.34789e-05 0)
(-7.8345e-06 0.000143741 0)
(-6.63202e-06 0.000143444 0)
(-7.90192e-06 0.000347243 0)
(5.23492e-07 1.41504e-06 0)
(1.31782e-05 0.000298709 0)
(4.73495e-06 0.000103643 0)
(1.29109e-05 0.000206158 0)
(-6.48185e-06 3.44782e-05 0)
(1.18763e-05 0.000155965 0)
(-1.10137e-05 0.000124436 0)
(2.65608e-06 2.60619e-05 0)
(-6.15768e-06 0.000223869 0)
(-5.72558e-06 0.000172343 0)
(7.75496e-07 0.000107869 0)
(-9.4336e-07 0.000177369 0)
(-1.00498e-06 0.000229292 0)
(4.08649e-07 2.37353e-05 0)
(7.42767e-06 9.76238e-05 0)
(-8.47011e-06 0.000138662 0)
(-4.05567e-06 0.000310153 0)
(-1.88295e-05 0.000307173 0)
(3.37055e-06 0.000132229 0)
(8.44757e-06 0.000132649 0)
(-6.76502e-06 2.53255e-05 0)
(1.58793e-05 0.000225894 0)
(1.47787e-05 0.000174245 0)
(-7.44321e-07 3.13859e-06 0)
(-2.53719e-06 0.000258592 0)
(1.41301e-06 4.93691e-05 0)
(1.59587e-06 6.57711e-05 0)
(1.75114e-06 8.40254e-05 0)
(-3.87495e-06 0.000125173 0)
(-1.74528e-05 0.000307277 0)
(-4.97886e-06 4.94297e-05 0)
(-5.62291e-06 6.58326e-05 0)
(-6.19262e-06 8.41268e-05 0)
(8.91417e-06 0.000258502 0)
(1.58402e-08 2.04055e-08 0)
(1.09277e-05 0.000123432 0)
(1.40854e-07 9.51302e-06 0)
(-5.08701e-07 8.78178e-07 0)
(-1.05858e-06 4.0655e-06 0)
(-5.09859e-06 1.75178e-05 0)
(-5.18899e-07 1.90489e-07 0)
(2.14741e-06 5.58471e-05 0)
(1.87996e-06 4.06082e-05 0)
(2.40207e-06 7.30414e-05 0)
(-3.64194e-06 0.000247332 0)
(-3.44614e-06 0.000194351 0)
(-1.05871e-05 0.000102272 0)
(1.15131e-05 0.000133452 0)
(-1.02915e-06 6.02254e-07 0)
(1.40104e-05 0.000329012 0)
(1.01091e-05 0.00029419 0)
(-2.14935e-05 0.00027682 0)
(7.95598e-06 0.000131616 0)
(2.87681e-06 0.000143033 0)
(-5.40152e-06 0.000349715 0)
(-1.50282e-05 0.000149904 0)
(-1.4294e-05 0.000149238 0)
(2.12459e-05 0.000349611 0)
(-1.68761e-06 0.000311707 0)
(-4.73736e-06 9.39876e-05 0)
(5.72768e-06 0.000143005 0)
(1.74132e-07 9.84814e-06 0)
(2.58355e-06 3.467e-06 0)
(5.15903e-07 1.89412e-07 0)
(5.06631e-06 0.000152432 0)
(1.87263e-05 0.000356817 0)
(-1.02441e-05 0.000247375 0)
(-9.63472e-06 0.000194345 0)
(5.27459e-06 4.06585e-05 0)
(6.77865e-06 7.30596e-05 0)
(6.06005e-06 5.58708e-05 0)
(-1.89041e-07 1.31315e-07 0)
(-7.57434e-07 0.000324503 0)
(9.57778e-06 0.000133043 0)
(-8.68431e-06 0.000102795 0)
(-1.53545e-05 0.000316598 0)
(-2.29269e-05 0.000234066 0)
(-2.22477e-05 0.000207535 0)
(-2.1438e-05 0.000181888 0)
(-2.04865e-05 0.00015727 0)
(1.10458e-05 3.39988e-05 0)
(1.28859e-05 4.81212e-05 0)
(1.45839e-05 6.43108e-05 0)
(1.61427e-05 8.24039e-05 0)
(2.29079e-05 0.000234058 0)
(2.22306e-05 0.000207535 0)
(-1.10549e-05 3.40015e-05 0)
(-1.2895e-05 4.81243e-05 0)
(2.14169e-05 0.000181884 0)
(-1.45945e-05 6.43139e-05 0)
(2.04684e-05 0.000157265 0)
(-1.61545e-05 8.24072e-05 0)
(-3.28729e-06 4.38598e-06 0)
(1.29229e-06 1.20427e-06 0)
(-1.72966e-06 3.1428e-06 0)
(8.52756e-06 0.000130524 0)
(-9.34271e-06 0.000134424 0)
(1.64994e-06 1.96967e-06 0)
(-2.54965e-07 4.25836e-08 0)
(-2.06682e-05 0.000277491 0)
(1.18498e-05 0.000353204 0)
(1.32971e-05 0.000353873 0)
(2.54726e-07 4.25502e-08 0)
(3.72019e-06 4.92422e-06 0)
(1.85522e-05 0.000321403 0)
(-7.02459e-06 0.000148705 0)
(-4.52332e-07 3.9255e-07 0)
(-1.02517e-06 1.57815e-06 0)
(-1.5985e-07 4.0833e-08 0)
(3.00022e-07 2.31128e-07 0)
(1.9114e-05 0.000118351 0)
(-1.90529e-05 0.000116973 0)
(5.85698e-06 8.90894e-05 0)
(-7.19955e-06 0.000145968 0)
(6.08216e-06 9.13915e-05 0)
(-3.08438e-07 5.25006e-06 0)
(-4.43854e-06 0.000234017 0)
(3.5177e-06 0.00011162 0)
(-2.47304e-06 0.000231463 0)
(-2.36377e-06 0.000179285 0)
(1.01549e-06 2.28936e-05 0)
(1.93683e-06 0.000109584 0)
(-7.8354e-06 0.000147942 0)
(3.96502e-06 5.21826e-06 0)
(6.55999e-06 8.97663e-05 0)
(2.44914e-06 0.000132433 0)
(1.86443e-05 0.000331962 0)
(-5.65346e-06 0.000133532 0)
(-6.50165e-06 0.000134445 0)
(-5.21269e-06 1.10806e-05 0)
(-6.30576e-06 0.000138741 0)
(-5.39128e-06 0.000137774 0)
(5.61723e-06 9.74621e-05 0)
(4.93553e-06 9.84288e-05 0)
(-5.86534e-06 2.7053e-05 0)
(1.23368e-05 0.000170449 0)
(1.32865e-05 0.000221821 0)
(-1.60833e-06 1.77702e-06 0)
(-7.84966e-06 0.000146749 0)
(6.60613e-06 9.07739e-05 0)
(-5.00571e-06 0.000189103 0)
(-5.33181e-06 0.000241805 0)
(2.84317e-06 4.35695e-05 0)
(3.61269e-06 7.67734e-05 0)
(3.24392e-06 5.91964e-05 0)
(-2.57258e-06 1.19699e-05 0)
(-1.64295e-05 0.000199486 0)
(-1.55684e-05 0.000198853 0)
(8.63282e-06 3.79927e-05 0)
(8.21257e-06 3.83239e-05 0)
(1.08329e-05 0.000158126 0)
(1.19089e-05 0.000157343 0)
(-5.79548e-06 3.32847e-05 0)
(-6.41791e-06 3.37276e-05 0)
(1.17595e-05 0.000208507 0)
(1.29343e-05 0.000207653 0)
(-4.71956e-06 0.000309011 0)
(9.45109e-06 0.000282057 0)
(9.58697e-06 0.000280734 0)
(-6.95072e-06 9.14e-05 0)
(8.1983e-06 0.000145932 0)
(-2.47562e-05 0.000344452 0)
(-7.12072e-06 0.000274509 0)
(-6.83803e-06 0.000273216 0)
(2.35455e-06 1.7419e-05 0)
(2.41954e-06 1.69737e-05 0)
(2.13897e-05 0.000277577 0)
(-9.42202e-06 0.000117446 0)
(-8.08779e-06 0.000117487 0)
(2.11627e-05 0.000313582 0)
(-2.13818e-05 0.000330649 0)
(-2.13541e-05 0.000332231 0)