/*--------------------------------*- C++ -*----------------------------------*\
| =========                 |                                                 |
| \\      /  F ield         | OpenFOAM: The Open Source CFD Toolbox           |
|  \\    /   O peration     | Version:  2.3.1                                 |
|   \\  /    A nd           | Web:      www.OpenFOAM.org                      |
|    \\/     M anipulation  |                                                 |
\*---------------------------------------------------------------------------*/
FoamFile
{
    version     2.0;
    format      ascii;
    class       volVectorField;
    location    "2600";
    object      D;
}
// * * * * * * * * * * * * * * * * * * * * * * * * * * * * * * * * * * * * * //

dimensions      [0 1 0 0 0 0 0];

internalField   nonuniform List<vector> 
11800
(
(8.23491e-06 0.000235225 0)
(-1.04241e-05 0.000262033 0)
(5.80145e-06 7.93079e-05 0)
(-6.62802e-06 0.000107834 0)
(-9.5242e-06 0.00026159 0)
(-4.2974e-06 0.000108045 0)
(-1.58644e-06 0.000176622 0)
(-1.51076e-06 0.0001362 0)
(6.9333e-07 2.09394e-05 0)
(1.2583e-06 8.22561e-05 0)
(9.14445e-06 0.000234669 0)
(-8.26173e-06 9.19395e-05 0)
(-8.15163e-09 -6.49041e-09 0)
(5.15569e-06 7.88298e-05 0)
(-5.87979e-06 0.000108288 0)
(5.68789e-06 1.28519e-05 0)
(-8.91825e-07 0.000176108 0)
(-8.64468e-07 0.000135713 0)
(3.90148e-07 2.11711e-05 0)
(7.74849e-07 8.18493e-05 0)
(-5.05592e-06 0.000107648 0)
(-7.5709e-06 9.2304e-05 0)
(-1.25229e-06 4.54544e-06 0)
(-1.33654e-06 4.73328e-06 0)
(5.07318e-06 1.46786e-05 0)
(-2.00179e-06 7.53379e-06 0)
(-8.1058e-06 5.49135e-05 0)
(1.17319e-05 0.000158331 0)
(-7.22655e-06 4.16741e-05 0)
(-6.26014e-06 2.99796e-05 0)
(1.24234e-05 0.000200094 0)
(5.11706e-08 3.53981e-06 0)
(2.60235e-06 9.68295e-06 0)
(-6.34199e-06 0.000268884 0)
(5.12752e-06 0.000267674 0)
(-1.41711e-05 0.000213666 0)
(4.77593e-06 0.000268597 0)
(2.56105e-06 9.95488e-06 0)
(-1.55124e-06 0.000186531 0)
(1.2611e-06 9.03154e-05 0)
(-7.96992e-06 5.55278e-05 0)
(-7.11261e-06 4.22221e-05 0)
(1.1461e-05 0.000157428 0)
(-6.16877e-06 3.04603e-05 0)
(1.21475e-05 0.000199144 0)
(5.42541e-06 1.29542e-05 0)
(1.43746e-06 5.38134e-06 0)
(1.60273e-06 5.29567e-06 0)
(-2.43129e-06 0.00018669 0)
(1.96795e-06 9.04421e-05 0)
(-1.3474e-05 0.000138003 0)
(-1.43876e-05 0.000178436 0)
(-1.33292e-06 0.000232718 0)
(7.20378e-08 3.35937e-06 0)
(-6.97648e-06 1.53034e-05 0)
(9.50083e-07 7.93068e-07 0)
(-1.76834e-05 0.000272564 0)
(-4.45919e-06 7.63579e-05 0)
(5.07455e-06 0.000111223 0)
(-3.24288e-06 7.33611e-05 0)
(1.89563e-06 2.52522e-06 0)
(-2.28673e-06 0.000232892 0)
(-3.87851e-06 7.61859e-05 0)
(4.42382e-06 0.000111429 0)
(4.75186e-06 1.44545e-05 0)
(-1.68824e-05 0.000241009 0)
(-1.3978e-05 0.000137402 0)
(-1.49768e-05 0.000177776 0)
(-1.67964e-05 0.000272125 0)
(-2.10051e-06 7.77811e-06 0)
(-5.65476e-06 0.000269637 0)
(-9.97449e-06 0.000268181 0)
(-1.02642e-05 0.00026723 0)
(-8.99088e-08 1.01325e-07 0)
(2.02429e-06 2.63351e-06 0)
(-1.33492e-05 0.000214264 0)
(6.22334e-06 2.02709e-05 0)
(-1.71561e-05 0.000241907 0)
(-1.36638e-05 0.000243947 0)
(-1.27664e-05 0.00024476 0)
(-6.65076e-06 1.50943e-05 0)
(1.00398e-06 9.37719e-05 0)
(9.38541e-06 0.000266084 0)
(8.37643e-06 0.000266249 0)
(-1.22298e-06 9.63662e-05 0)
(-6.01495e-06 3.37527e-05 0)
(1.12302e-05 0.000192847 0)
(-6.86428e-06 4.59747e-05 0)
(-7.64185e-06 5.97157e-05 0)
(1.05663e-05 0.000151463 0)
(-3.16428e-07 0.000227697 0)
(2.76663e-06 9.20523e-06 0)
(-8.49153e-06 0.000245516 0)
(1.75263e-05 0.000274646 0)
(2.77482e-06 0.000118781 0)
(-2.17187e-09 -1.65222e-09 0)
(5.60933e-11 -3.50678e-10 0)
(2.17036e-09 -1.65141e-09 0)
(-1.92686e-07 0.000235572 0)
(-7.84356e-06 9.39671e-05 0)
(1.50837e-05 0.000273666 0)
(9.13088e-06 0.000103216 0)
(-3.35847e-06 1.34423e-05 0)
(-7.59617e-07 1.03807e-05 0)
(-5.01523e-07 0.00026042 0)
(9.17842e-07 2.19019e-05 0)
(-1.93683e-06 0.000134213 0)
(-2.012e-06 0.000174422 0)
(2.94112e-06 5.02948e-06 0)
(6.90833e-06 4.5954e-05 0)
(6.05491e-06 3.3734e-05 0)
(7.69045e-06 5.96923e-05 0)
(-1.14052e-05 0.000192871 0)
(-1.07336e-05 0.000151495 0)
(1.62744e-06 8.05855e-05 0)
(2.32735e-06 4.58678e-06 0)
(1.67165e-05 0.000241992 0)
(-6.85217e-06 0.000248384 0)
(2.37015e-06 4.41965e-06 0)
(-1.15397e-06 8.32763e-05 0)
(-6.93893e-07 2.03878e-05 0)
(1.52005e-06 0.000177917 0)
(1.4434e-06 0.00013736 0)
(-2.1215e-06 0.000170639 0)
(-8.54686e-06 0.000246439 0)
(-7.57857e-07 0.000234838 0)
(-5.49431e-06 0.000260523 0)
(-1.28597e-06 0.000259816 0)
(-1.89768e-05 0.000281573 0)
(-1.96547e-05 0.000280893 0)
(-5.57788e-07 2.51764e-07 0)
(-2.52277e-06 5.94418e-06 0)
(1.15214e-05 0.000187133 0)
(-6.45496e-06 3.68955e-05 0)
(1.08008e-05 0.000146095 0)
(-7.31155e-06 4.95394e-05 0)
(-8.09518e-06 6.36673e-05 0)
(1.06299e-05 0.000187303 0)
(-5.94892e-06 3.67859e-05 0)
(9.96606e-06 0.000146252 0)
(-6.74004e-06 4.9418e-05 0)
(-7.46385e-06 6.35352e-05 0)
(-1.5748e-06 1.88866e-05 0)
(3.72697e-06 0.000181314 0)
(3.47896e-06 0.000140636 0)
(-2.97364e-06 8.59845e-05 0)
(1.43727e-05 9.43546e-05 0)
(-1.43024e-05 9.23032e-05 0)
(8.98137e-06 0.000103962 0)
(-1.06322e-06 1.10144e-05 0)
(-9.45087e-06 0.00022665 0)
(-9.36927e-06 0.000227847 0)
(4.59673e-06 0.000265631 0)
(-1.05681e-05 0.000213963 0)
(4.22457e-06 0.000151388 0)
(4.58186e-06 0.000192746 0)
(-1.17735e-05 0.000169903 0)
(-1.09291e-05 0.000130008 0)
(5.56548e-06 2.41321e-05 0)
(-8.76068e-07 0.000228548 0)
(3.19756e-06 5.1186e-06 0)
(-9.6591e-06 0.000214173 0)
(6.51413e-06 2.05633e-05 0)
(-4.33242e-06 6.21458e-05 0)
(-3.9047e-06 4.81557e-05 0)
(-3.43746e-06 3.56624e-05 0)
(5.87589e-06 0.000147986 0)
(6.26051e-06 0.000189158 0)
(-2.8275e-06 3.51815e-06 0)
(-5.11293e-06 2.32177e-05 0)
(1.09661e-05 0.000171779 0)
(1.01721e-05 0.000131769 0)
(2.4398e-06 0.00017423 0)
(-1.61422e-05 0.000212675 0)
(-1.63049e-05 0.000213946 0)
(5.84217e-06 1.47039e-05 0)
(5.84938e-06 1.51083e-05 0)
(6.39343e-06 4.46291e-05 0)
(7.13293e-06 5.82196e-05 0)
(5.58705e-06 3.25675e-05 0)
(-1.00954e-05 0.00015353 0)
(-1.07142e-05 0.000195048 0)
(4.29772e-06 0.000150443 0)
(4.60732e-06 0.000191774 0)
(4.68401e-06 9.19351e-05 0)
(-2.25334e-06 8.57911e-05 0)
(-1.19899e-06 1.89837e-05 0)
(2.81779e-06 0.000181072 0)
(2.62919e-06 0.00014041 0)
(-3.6922e-06 0.000223561 0)
(-1.25913e-06 3.95077e-05 0)
(-1.41875e-06 5.25008e-05 0)
(-1.38938e-05 0.00023916 0)
(-3.88272e-07 9.0432e-06 0)
(-1.3433e-05 0.000113016 0)
(1.15948e-05 7.50511e-05 0)
(1.36302e-07 1.31651e-07 0)
(-8.32121e-06 0.000269311 0)
(1.65999e-05 0.000242963 0)
(-4.86476e-07 2.92431e-07 0)
(1.09299e-05 0.00025462 0)
(1.36566e-05 0.000217705 0)
(1.46479e-05 0.000217883 0)
(-4.41851e-07 0.000261736 0)
(-1.12589e-06 0.000262572 0)
(7.75111e-06 7.3244e-05 0)
(6.84544e-06 7.3567e-05 0)
(-9.16637e-06 0.000114931 0)
(-8.07747e-06 0.000114529 0)
(5.49154e-07 2.47934e-07 0)
(-1.53758e-06 1.32083e-05 0)
(-1.73337e-06 7.37338e-06 0)
(-4.06952e-08 1.53442e-08 0)
(5.26616e-06 8.73212e-06 0)
(-1.26606e-07 4.0304e-08 0)
(6.81635e-07 7.24238e-06 0)
(-9.43645e-06 0.000260363 0)
(-4.59969e-06 3.2946e-05 0)
(-5.24617e-06 4.50731e-05 0)
(-5.84921e-06 5.87184e-05 0)
(8.65513e-06 0.000194273 0)
(8.17393e-06 0.000152817 0)
(5.48206e-07 0.000180738 0)
(5.09409e-07 0.000140094 0)
(-2.49611e-07 1.91192e-05 0)
(-4.71927e-07 8.55368e-05 0)
(-1.85812e-07 3.09003e-08 0)
(7.10877e-07 2.38875e-05 0)
(-1.43438e-06 0.000130252 0)
(-4.29061e-06 8.26319e-05 0)
(9.93964e-07 2.3538e-05 0)
(-2.01368e-06 0.000130939 0)
(-6.45397e-06 0.000246406 0)
(7.98669e-06 9.26052e-05 0)
(7.44031e-06 9.18975e-05 0)
(4.04679e-08 1.52638e-08 0)
(1.85293e-07 3.081e-08 0)
(-1.25017e-05 0.00022939 0)
(-1.20274e-05 0.00023036 0)
(-1.18473e-05 7.84852e-05 0)
(1.32947e-05 0.000109006 0)
(1.06205e-05 0.000194964 0)
(1.00039e-05 0.000153457 0)
(-5.59202e-06 3.26155e-05 0)
(-6.40171e-06 4.46805e-05 0)
(-7.14218e-06 5.82769e-05 0)
(-3.97143e-07 0.000233902 0)
(-4.72573e-06 2.2216e-05 0)
(1.03661e-05 0.000173919 0)
(9.63016e-06 0.000133755 0)
(6.37642e-06 9.3568e-05 0)
(5.36193e-06 0.000220617 0)
(8.42802e-06 0.000274975 0)
(8.73081e-07 7.13768e-06 0)
(-3.14972e-06 7.41106e-05 0)
(-9.85497e-09 2.64624e-06 0)
(1.26091e-07 4.01543e-08 0)
(3.01443e-06 7.81782e-05 0)
(2.59281e-06 7.7366e-05 0)
(-3.28706e-06 0.000109206 0)
(-2.81779e-06 0.000110009 0)
(5.8273e-06 5.87003e-05 0)
(5.22694e-06 4.50569e-05 0)
(4.57243e-06 3.29375e-05 0)
(-8.21779e-06 0.000152818 0)
(-8.72569e-06 0.000194298 0)
(-4.62806e-06 0.000269392 0)
(1.59692e-06 1.95502e-06 0)
(-1.0488e-08 0.000155185 0)
(-2.05998e-08 3.15452e-05 0)
(6.12455e-06 0.00025996 0)
(5.00748e-06 9.1273e-05 0)
(-1.94594e-05 0.000256886 0)
(5.75559e-06 9.424e-05 0)
(2.28081e-07 1.68158e-07 0)
(1.59879e-05 0.000210054 0)
(1.60804e-05 0.000208878 0)
(-9.8054e-06 0.000133924 0)
(-1.05536e-05 0.000174095 0)
(-8.76111e-06 0.000133588 0)
(-9.43206e-06 0.000173736 0)
(4.7571e-06 2.21344e-05 0)
(4.26447e-06 2.22804e-05 0)
(4.75731e-06 0.000123065 0)
(5.66087e-06 0.000122922 0)
(5.15684e-06 0.000162387 0)
(6.13865e-06 0.000162231 0)
(-2.65586e-06 2.77567e-05 0)
(-3.1624e-06 2.78466e-05 0)
(-5.6075e-07 1.25203e-05 0)
(2.81531e-06 7.99719e-06 0)
(2.63569e-06 7.7214e-06 0)
(2.69218e-06 5.84868e-06 0)
(4.58299e-06 0.000221563 0)
(-1.58829e-05 0.00021044 0)
(-1.59678e-05 0.000209219 0)
(6.03272e-06 1.64167e-05 0)
(5.91446e-06 1.59503e-05 0)
(1.26095e-05 9.43752e-05 0)
(1.27789e-05 9.54289e-05 0)
(-1.25402e-05 9.22304e-05 0)
(-1.26068e-05 9.1194e-05 0)
(5.67363e-06 0.000265454 0)
(-1.55875e-05 0.000268908 0)
(-1.49831e-05 0.000226457 0)
(3.56605e-06 4.04154e-06 0)
(-9.16014e-06 0.000265541 0)
(-8.18081e-06 0.000264632 0)
(3.86837e-06 0.000124466 0)
(-2.41521e-06 0.000111907 0)
(2.13368e-06 7.57765e-05 0)
(-1.07556e-05 9.47264e-05 0)
(1.05181e-05 9.179e-05 0)
(-5.13659e-06 1.61336e-05 0)
(-1.51603e-07 9.6637e-08 0)
(8.11524e-07 3.32739e-06 0)
(9.5423e-07 8.08399e-05 0)
(-9.062e-06 8.14104e-05 0)
(9.72417e-06 0.000105523 0)
(-5.22386e-06 7.41404e-05 0)
(6.17957e-06 0.000113858 0)
(3.11915e-06 0.000197993 0)
(4.30814e-06 0.000197568 0)
(-1.86144e-06 4.28027e-05 0)
(-2.56713e-06 4.30598e-05 0)
(-2.08389e-06 5.61937e-05 0)
(-2.87249e-06 5.648e-05 0)
(4.91644e-07 2.17526e-05 0)
(-1.06293e-06 0.000134513 0)
(-1.07591e-06 0.000174762 0)
(-1.73543e-06 0.000255645 0)
(2.46197e-06 5.81151e-06 0)
(-4.95817e-07 0.000109046 0)
(-7.40622e-06 0.000262046 0)
(1.02387e-06 8.22627e-07 0)
(6.6044e-06 0.000155926 0)
(-3.61397e-06 3.11996e-05 0)
(-1.12036e-05 0.000110197 0)
(-1.05232e-05 0.000109649 0)
(9.79224e-06 7.73835e-05 0)
(9.22979e-06 7.78519e-05 0)
(-1.10871e-05 0.000273247 0)
(-1.12091e-05 0.000272076 0)
(-1.84663e-06 1.25985e-05 0)
(-2.18915e-06 1.25509e-05 0)
(8.8853e-07 3.48704e-06 0)
(-2.10995e-06 3.61852e-06 0)
(5.12634e-07 0.000114408 0)
(3.2258e-06 2.25364e-05 0)
(2.71169e-06 2.26796e-05 0)
(-6.59437e-06 0.000133006 0)
(-5.53055e-06 0.000132693 0)
(-7.10119e-06 0.000173118 0)
(-5.95675e-06 0.000172783 0)
(-1.43772e-05 0.000219173 0)
(-1.33051e-05 0.00021926 0)
(-3.16822e-06 6.63606e-05 0)
(-2.93156e-06 5.19528e-05 0)
(-2.59969e-06 3.90222e-05 0)
(4.53326e-06 0.00020454 0)
(-7.89305e-07 0.000231635 0)
(9.4624e-06 9.17019e-05 0)
(8.95854e-06 9.24963e-05 0)
(4.18194e-06 0.000177 0)
(4.00124e-06 0.000136563 0)
(-1.9059e-06 2.0779e-05 0)
(1.78374e-06 2.32598e-05 0)
(1.46663e-06 2.37118e-05 0)
(-3.26771e-06 0.000170606 0)
(-3.88571e-06 0.000171483 0)
(-3.60198e-06 0.000131504 0)
(-2.93749e-06 0.000130607 0)
(-3.78631e-06 2.13267e-05 0)
(7.88243e-06 0.000135516 0)
(8.47368e-06 0.000175816 0)
(-1.03708e-07 9.87787e-07 0)
(1.40664e-05 0.000104602 0)
(-1.29522e-05 8.24973e-05 0)
(-5.85046e-08 9.19131e-07 0)
(-4.24843e-06 0.000194925 0)
(-4.98058e-06 0.000195995 0)
(-3.89987e-06 0.000153495 0)
(-4.56513e-06 0.000154509 0)
(2.48687e-06 3.19588e-05 0)
(2.14115e-06 3.25187e-05 0)
(2.93544e-06 4.40007e-05 0)
(2.51812e-06 4.46387e-05 0)
(3.27854e-06 5.75294e-05 0)
(2.80926e-06 5.82413e-05 0)
(1.58317e-05 0.000219596 0)
(1.61267e-05 0.000220711 0)
(-1.50511e-06 7.43359e-06 0)
(5.93777e-06 0.000156701 0)
(-3.22754e-06 3.07698e-05 0)
(5.23433e-06 2.43393e-05 0)
(-1.02315e-05 0.000129579 0)
(-1.10482e-05 0.000169415 0)
(-1.47607e-07 4.4893e-08 0)
(2.04739e-06 0.000228849 0)
(5.16942e-06 2.32222e-05 0)
(-1.03735e-05 0.000131764 0)
(-1.11931e-05 0.000171737 0)
(3.93991e-06 6.78981e-06 0)
(-7.83122e-06 0.000248026 0)
(4.9645e-06 1.85419e-05 0)
(-1.23593e-05 0.000203659 0)
(-2.66312e-06 9.97852e-06 0)
(-2.84088e-06 1.03441e-05 0)
(2.78223e-06 1.02363e-05 0)
(-1.34545e-06 0.000108877 0)
(-1.04109e-08 -7.66217e-09 0)
(-8.31523e-06 0.000271751 0)
(-1.32335e-07 5.27165e-08 0)
(1.46942e-07 4.47039e-08 0)
(-3.88634e-06 2.24964e-05 0)
(8.45694e-06 0.000173246 0)
(7.85249e-06 0.000133126 0)
(6.51068e-06 0.000229209 0)
(-1.87364e-05 0.000245905 0)
(2.39669e-06 0.000101922 0)
(-1.5558e-06 9.92617e-05 0)
(-4.29887e-07 1.04409e-05 0)
(-1.20543e-06 1.26603e-06 0)
(-7.51541e-09 -6.76785e-09 0)
(-4.68653e-06 7.48315e-05 0)
(5.5391e-06 0.000113062 0)
(4.09895e-07 1.43843e-07 0)
(-6.31109e-07 9.78024e-05 0)
(-5.95876e-07 9.68589e-05 0)
(-2.33756e-08 8.21267e-05 0)
(-1.1573e-07 2.10436e-05 0)
(1.9995e-07 0.000135976 0)
(1.78318e-07 0.000176457 0)
(-4.12225e-07 1.44658e-07 0)
(1.68216e-06 1.12924e-05 0)
(-6.47279e-06 0.000200345 0)
(3.71043e-06 4.14482e-05 0)
(4.16334e-06 5.46744e-05 0)
(4.57432e-06 6.93362e-05 0)
(1.35753e-05 0.000260851 0)
(-5.03715e-06 2.01287e-05 0)
(1.16424e-05 0.000178651 0)
(1.0852e-05 0.000138164 0)
(-7.71105e-06 0.000240631 0)
(1.1344e-06 2.90945e-06 0)
(1.03748e-05 0.000236165 0)
(-2.25289e-06 3.56401e-06 0)
(7.26681e-06 0.000261888 0)
(-5.58098e-06 0.000200367 0)
(3.19367e-06 4.14303e-05 0)
(3.58365e-06 5.46556e-05 0)
(3.93998e-06 6.93118e-05 0)
(9.90886e-07 2.75751e-06 0)
(4.78842e-06 0.000160666 0)
(-2.5099e-06 2.86451e-05 0)
(-8.53794e-07 1.12456e-05 0)
(-1.36405e-05 0.000237004 0)
(-5.09115e-06 6.23756e-05 0)
(-4.59e-06 4.83645e-05 0)
(-4.04244e-06 3.58483e-05 0)
(6.85982e-06 0.000147744 0)
(7.30968e-06 0.000188899 0)
(1.8713e-05 0.000276449 0)
(1.08906e-05 0.000242627 0)
(1.20754e-05 0.00024221 0)
(1.54131e-07 1.08393e-07 0)
(6.78577e-06 7.4414e-05 0)
(-7.94982e-06 0.000113523 0)
(-3.46481e-06 7.54748e-05 0)
(4.0295e-06 0.000112342 0)
(-1.17151e-06 0.000120994 0)
(-8.91414e-07 0.000196196 0)
(5.58437e-07 5.7381e-05 0)
(5.00071e-07 4.38653e-05 0)
(2.55389e-08 3.08962e-05 0)
(-2.00324e-07 0.000117584 0)
(-9.422e-08 0.000156413 0)
(8.56038e-06 0.000276076 0)
(4.88007e-07 1.15822e-05 0)
(-2.13935e-07 2.68518e-06 0)
(1.63506e-06 0.000166039 0)
(8.25991e-08 2.77682e-06 0)
(-1.28007e-06 8.65593e-06 0)
(3.18737e-06 3.08211e-05 0)
(-5.99507e-06 0.000156599 0)
(-1.20552e-07 1.33801e-07 0)
(-1.26348e-05 0.000236893 0)
(-1.06263e-06 2.06423e-05 0)
(2.23561e-06 0.000177397 0)
(2.21843e-06 0.000136828 0)
(2.883e-07 6.92126e-08 0)
(-3.7807e-06 6.9017e-06 0)
(4.14501e-06 5.60258e-05 0)
(3.7024e-06 4.26557e-05 0)
(-6.36572e-06 0.000198279 0)
(1.2259e-06 7.77953e-05 0)
(-8.55085e-06 0.000268256 0)
(-1.44941e-07 2.03275e-08 0)
(-4.94512e-06 1.07873e-05 0)
(3.20534e-06 5.94677e-06 0)
(-3.23541e-06 3.56179e-06 0)
(9.52592e-06 9.3378e-05 0)
(7.2368e-06 0.000113545 0)
(-6.23458e-06 7.43885e-05 0)
(4.44238e-07 3.05814e-05 0)
(-1.04241e-06 0.000118029 0)
(-8.73516e-07 0.000156994 0)
(9.0742e-06 0.000233485 0)
(8.46192e-06 0.000102257 0)
(4.39376e-06 0.000270327 0)
(4.23248e-06 0.000271335 0)
(1.2244e-06 0.000113017 0)
(1.67619e-06 7.72138e-05 0)
(1.44527e-07 2.02664e-08 0)
(-1.22113e-05 0.000211734 0)
(4.46671e-06 1.53918e-05 0)
(1.54143e-08 2.14313e-07 0)
(2.33049e-06 0.000151313 0)
(3.04775e-06 0.000151837 0)
(4.20936e-09 1.87409e-08 0)
(-2.3543e-06 5.75431e-06 0)
(5.80512e-06 5.69614e-05 0)
(5.19302e-06 4.34972e-05 0)
(4.52855e-06 3.15232e-05 0)
(-8.3226e-06 0.000155196 0)
(-8.82391e-06 0.0001969 0)
(7.69381e-06 9.73329e-05 0)
(1.11544e-06 0.000229094 0)
(-4.97988e-06 0.000258305 0)
(-4.71533e-06 0.000259667 0)
(-4.88167e-07 0.000199369 0)
(-4.19818e-07 0.000200463 0)
(3.36247e-07 4.13374e-05 0)
(3.06168e-07 4.19475e-05 0)
(3.77074e-07 5.45549e-05 0)
(3.42918e-07 5.52383e-05 0)
(2.45179e-07 6.92035e-05 0)
(2.94429e-07 6.99334e-05 0)
(5.99403e-07 0.000113393 0)
(1.10598e-06 0.000115209 0)
(1.92493e-06 0.000175338 0)
(-4.98238e-07 0.000120699 0)
(-2.89181e-07 6.94316e-08 0)
(-3.23084e-07 2.56102e-06 0)
(4.21687e-06 0.000159815 0)
(-2.23143e-06 2.90882e-05 0)
(1.12824e-06 3.55338e-06 0)
(1.64795e-05 0.000262132 0)
(-1.26475e-06 0.000201336 0)
(7.78839e-07 4.08734e-05 0)
(8.74574e-07 5.40346e-05 0)
(8.60551e-07 6.86002e-05 0)
(-1.26082e-05 0.000220305 0)
(4.34833e-06 7.90521e-05 0)
(6.42226e-06 0.000278219 0)
(7.26379e-06 0.0002776 0)
(-1.27227e-06 8.92472e-06 0)
(-8.08788e-07 0.000154373 0)
(4.19054e-07 3.19942e-05 0)
(1.89316e-07 1.94638e-07 0)
(1.61703e-05 0.000269518 0)
(-2.24965e-07 4.52003e-06 0)
(-3.06236e-06 4.63718e-05 0)
(-3.40737e-06 6.01683e-05 0)
(-4.07594e-06 6.07984e-05 0)
(-3.66665e-06 4.69402e-05 0)
(-2.65496e-06 3.4076e-05 0)
(-3.21062e-06 3.45902e-05 0)
(5.34728e-06 0.000149829 0)
(5.69341e-06 0.000191128 0)
(2.3517e-06 3.22461e-06 0)
(-1.51692e-07 9.25419e-08 0)
(-1.39695e-05 0.000182408 0)
(-1.45518e-05 0.000268969 0)
(4.7452e-06 0.000115119 0)
(-4.12995e-07 4.62506e-06 0)
(-7.56387e-06 0.000149558 0)
(-8.04726e-06 0.000190829 0)
(4.33283e-06 3.47995e-05 0)
(4.93042e-06 4.71738e-05 0)
(5.478e-06 6.10542e-05 0)
(6.99691e-06 0.000229969 0)
(1.59003e-05 0.000270475 0)
(-8.58866e-06 9.42149e-05 0)
(3.55007e-06 3.11912e-05 0)
(-6.64712e-06 0.00015592 0)
(4.54002e-06 0.000116012 0)
(-1.73449e-06 8.27667e-05 0)
(4.59099e-06 5.65018e-05 0)
(4.10391e-06 4.30826e-05 0)
(-7.01594e-06 0.000197566 0)
(-1.27651e-05 9.52939e-05 0)
(1.24399e-05 9.13808e-05 0)
(1.24391e-05 9.23967e-05 0)
(-1.2598e-05 9.4215e-05 0)
(-5.93456e-06 1.59415e-05 0)
(-6.10781e-06 1.64362e-05 0)
(-5.92539e-06 9.23834e-05 0)
(-3.04883e-06 3.64704e-06 0)
(-9.58219e-06 9.30898e-05 0)
(-1.40444e-06 0.000221579 0)
(-1.24821e-06 1.50256e-06 0)
(9.63728e-06 5.43883e-05 0)
(8.58563e-06 4.12117e-05 0)
(-1.35548e-05 0.000139203 0)
(2.19042e-06 5.65369e-05 0)
(1.95829e-06 4.31102e-05 0)
(-3.3719e-06 0.000197477 0)
(4.53603e-06 1.37552e-05 0)
(7.48586e-06 0.000112628 0)
(-6.49284e-06 7.51851e-05 0)
(-3.59734e-06 4.06056e-06 0)
(3.83753e-06 0.000176038 0)
(3.66924e-06 0.000135703 0)
(-1.7685e-06 2.11881e-05 0)
(1.11415e-05 0.000166257 0)
(-5.49901e-06 2.5884e-05 0)
(1.02929e-05 0.000126656 0)
(-6.27805e-06 1.57302e-05 0)
(7.84654e-06 0.000258824 0)
(9.00043e-06 0.000258447 0)
(8.67158e-06 0.000196906 0)
(8.22153e-06 0.000155212 0)
(-4.52375e-06 3.16131e-05 0)
(-5.16283e-06 4.34927e-05 0)
(-5.77199e-06 5.69565e-05 0)
(-1.31502e-06 1.30281e-06 0)
(-6.90149e-06 0.000240385 0)
(7.52452e-06 0.000153496 0)
(-4.20472e-06 3.25587e-05 0)
(-7.99331e-07 1.00138e-06 0)
(6.42568e-06 0.000261718 0)
(1.58712e-06 1.3111e-06 0)
(1.31669e-06 9.9458e-07 0)
(3.3294e-06 4.76226e-06 0)
(7.77091e-06 0.000210459 0)
(-1.31758e-05 0.000216239 0)
(1.75245e-05 0.000262466 0)
(3.37149e-06 5.00552e-06 0)
(7.70474e-06 0.000102226 0)
(1.05481e-05 0.000223121 0)
(-1.69647e-05 0.000211002 0)
(6.2797e-06 1.57646e-05 0)
(-3.90036e-06 0.00022452 0)
(1.58559e-06 5.6712e-05 0)
(1.41803e-06 4.32664e-05 0)
(-2.45094e-06 0.000197208 0)
(-5.94412e-07 2.86823e-06 0)
(4.49701e-06 0.000121442 0)
(1.3094e-07 5.21941e-08 0)
(-5.22815e-06 1.06834e-05 0)
(-9.23414e-07 9.98769e-05 0)
(-2.33747e-06 1.93632e-05 0)
(-2.71994e-06 1.94906e-05 0)
(5.11363e-06 0.000139621 0)
(5.93749e-06 0.000139362 0)
(6.36521e-06 0.000179947 0)
(5.48126e-06 0.000180225 0)
(1.54022e-07 5.79894e-07 0)
(-4.10675e-08 7.2101e-06 0)
(-9.21049e-06 0.000125482 0)
(-9.97888e-06 0.000164989 0)
(4.94285e-06 2.6494e-05 0)
(-2.91707e-06 1.57955e-05 0)
(-1.73112e-06 0.00016963 0)
(-2.64757e-06 6.78094e-06 0)
(5.37349e-06 0.000259237 0)
(-4.35177e-06 8.5107e-05 0)
(-5.04136e-06 8.48933e-05 0)
(1.51011e-07 1.54076e-07 0)
(-2.88502e-06 8.80124e-05 0)
(-1.47114e-06 1.78178e-05 0)
(3.35198e-06 0.000143033 0)
(3.58465e-06 0.000183877 0)
(-4.03781e-06 0.000169657 0)
(-3.55632e-06 0.000129737 0)
(1.79826e-06 2.41626e-05 0)
(2.40073e-06 9.09385e-06 0)
(2.22984e-06 8.76434e-06 0)
(1.15105e-06 8.48592e-05 0)
(-1.50791e-06 0.00017988 0)
(-1.41437e-06 0.000139276 0)
(6.23121e-07 1.94951e-05 0)
(-1.38896e-06 3.35377e-05 0)
(-2.49317e-06 6.96985e-06 0)
(1.00163e-05 0.00026532 0)
(-9.78992e-06 0.000158846 0)
(7.54916e-06 7.4889e-05 0)
(-8.80423e-06 0.00011299 0)
(1.06772e-05 0.000224126 0)
(-9.85136e-06 6.88509e-05 0)
(-8.97825e-06 5.42279e-05 0)
(1.20109e-05 0.000120253 0)
(-7.9953e-06 4.10662e-05 0)
(-6.92537e-06 2.94699e-05 0)
(1.31062e-05 0.000159342 0)
(1.38506e-05 0.000201213 0)
(-3.60515e-06 0.000192561 0)
(-3.39362e-06 0.000151181 0)
(2.166e-06 4.60729e-05 0)
(1.8997e-06 3.38252e-05 0)
(2.4106e-06 5.98375e-05 0)
(2.07112e-06 4.67338e-05 0)
(-3.42451e-06 0.000191484 0)
(2.30248e-06 6.05718e-05 0)
(1.81913e-06 3.4406e-05 0)
(-3.22157e-06 0.000150168 0)
(-1.90667e-06 0.000244157 0)
(-3.88727e-06 5.10824e-06 0)
(-4.20441e-06 2.39344e-05 0)
(8.8622e-06 0.000170189 0)
(8.21089e-06 0.00013029 0)
(-2.6413e-06 3.22122e-05 0)
(4.77051e-06 0.000154083 0)
(1.31483e-05 0.000190806 0)
(1.23554e-05 0.000149547 0)
(-7.15578e-06 3.48913e-05 0)
(-8.14299e-06 4.72632e-05 0)
(-9.0466e-06 6.11416e-05 0)
(1.3853e-05 0.000208217 0)
(1.51204e-05 0.000207953 0)
(3.41053e-07 6.15444e-06 0)
(-1.40565e-06 9.82467e-05 0)
(-3.76012e-06 1.04152e-05 0)
(1.92744e-07 3.61679e-07 0)
(-3.69986e-06 1.32226e-05 0)
(-5.94294e-07 0.000222021 0)
(1.52967e-07 5.89033e-06 0)
(-3.05203e-06 0.000105265 0)
(1.25654e-05 0.000139285 0)
(-5.7478e-06 1.96539e-05 0)
(1.34693e-05 0.000179849 0)
(-1.27584e-08 -8.84232e-09 0)
(8.33467e-07 0.000166197 0)
(2.42371e-07 1.02171e-07 0)
(1.65388e-07 1.22472e-07 0)
(2.22696e-06 0.000119498 0)
(-2.76982e-07 2.24938e-07 0)
(1.02365e-05 0.000267302 0)
(7.59258e-07 0.000151794 0)
(-4.13951e-07 3.3436e-05 0)
(2.25071e-06 1.34593e-05 0)
(1.40479e-06 0.000151322 0)
(-8.00523e-07 3.36799e-05 0)
(-1.36734e-07 2.98695e-06 0)
(-9.64082e-06 5.43613e-05 0)
(-8.58731e-06 4.11881e-05 0)
(-7.43931e-06 2.95843e-05 0)
(-6.19233e-06 1.97015e-05 0)
(1.35265e-05 0.000139233 0)
(1.40566e-05 0.000159167 0)
(1.44999e-05 0.000179789 0)
(1.48605e-05 0.000201031 0)
(-6.58795e-06 0.000216877 0)
(-5.85485e-06 0.000257804 0)
(-1.8906e-05 0.000212922 0)
(6.85085e-06 1.50984e-05 0)
(4.30751e-06 0.000273298 0)
(5.01162e-06 0.000272121 0)
(1.33654e-06 0.000147977 0)
(1.44934e-06 0.000189173 0)
(-1.043e-06 6.22182e-05 0)
(-9.39867e-07 4.82174e-05 0)
(-8.27165e-07 3.57126e-05 0)
(-5.44929e-06 1.57718e-05 0)
(1.98285e-06 1.13149e-05 0)
(-7.34964e-06 6.51764e-05 0)
(9.68268e-06 0.000144034 0)
(-6.65112e-06 5.0903e-05 0)
(-5.88734e-06 3.81002e-05 0)
(1.03441e-05 0.000184937 0)
(-4.14019e-06 1.74759e-05 0)
(1.04738e-05 0.000206348 0)
(1.76087e-06 9.41082e-05 0)
(-1.10643e-06 0.000230469 0)
(1.09246e-06 5.46634e-07 0)
(-8.11585e-07 0.0002024 0)
(5.15192e-07 4.02654e-05 0)
(5.79023e-07 5.33525e-05 0)
(5.3659e-07 6.78489e-05 0)
(3.27308e-06 0.000238761 0)
(-4.52841e-07 2.87928e-07 0)
(1.66211e-05 0.000234942 0)
(-2.50737e-06 9.97341e-05 0)
(-7.64681e-08 1.65115e-07 0)
(5.94534e-06 0.000141796 0)
(-2.63855e-06 1.83876e-05 0)
(6.36231e-06 0.000182552 0)
(1.31954e-07 1.03327e-07 0)
(-3.54052e-06 2.21794e-05 0)
(7.20654e-06 0.000133746 0)
(7.75767e-06 0.000173915 0)
(1.23122e-06 1.62019e-06 0)
(-5.07667e-06 8.69833e-05 0)
(1.06665e-06 9.29952e-05 0)
(-1.15213e-05 0.00025108 0)
(1.05531e-06 0.000148782 0)
(1.12497e-06 0.00019001 0)
(-8.8165e-07 6.16201e-05 0)
(-6.9629e-07 3.52391e-05 0)
(-7.93744e-07 4.76776e-05 0)
(1.70527e-06 9.4803e-05 0)
(-2.42682e-07 9.2546e-07 0)
(-2.15225e-07 3.14328e-06 0)
(4.98452e-07 0.00022166 0)
(1.13442e-05 0.000101925 0)
(-1.06609e-05 8.49002e-05 0)
(-8.08858e-06 0.000280937 0)
(-1.83536e-05 0.000183667 0)
(-1.71694e-05 0.000142867 0)
(-1.78138e-05 0.000162927 0)
(-1.64174e-05 0.000123605 0)
(9.04472e-06 2.77183e-05 0)
(1.05026e-05 3.90114e-05 0)
(1.18402e-05 5.19015e-05 0)
(1.30631e-05 6.62534e-05 0)
(1.83057e-05 0.000183665 0)
(1.77664e-05 0.000162927 0)
(-9.06881e-06 2.77198e-05 0)
(-1.05309e-05 3.90137e-05 0)
(1.71221e-05 0.000142867 0)
(-1.18732e-05 5.19031e-05 0)
(1.63732e-05 0.000123604 0)
(-1.30999e-05 6.62554e-05 0)
(-5.2452e-06 1.53316e-05 0)
(-2.85095e-06 0.00022998 0)
(-2.03517e-06 0.00022976 0)
(-2.53062e-06 0.000260437 0)
(4.18081e-06 0.000157848 0)
(-2.25525e-06 3.01359e-05 0)
(-8.12303e-07 1.20183e-06 0)
(-3.27257e-06 0.00027524 0)
(-3.5976e-06 5.93753e-05 0)
(-4.40608e-06 5.91522e-05 0)
(-3.22966e-06 4.56587e-05 0)
(-3.95423e-06 4.54596e-05 0)
(5.29694e-06 0.000193585 0)
(6.36375e-06 0.000193675 0)
(1.39956e-05 0.000190311 0)
(1.31476e-05 0.000149084 0)
(-7.64646e-06 3.51781e-05 0)
(-8.69525e-06 4.75858e-05 0)
(-9.65517e-06 6.14971e-05 0)
(-8.48901e-06 0.000125924 0)
(-9.19386e-06 0.000165469 0)
(4.52969e-06 2.62414e-05 0)
(-2.67393e-06 0.000112799 0)
(2.25925e-06 7.50139e-05 0)
(2.75571e-06 0.000199057 0)
(-1.62799e-06 4.21099e-05 0)
(-1.82493e-06 5.54193e-05 0)
(-1.97569e-06 7.00089e-05 0)
(5.23749e-06 7.41216e-05 0)
(4.437e-06 7.43108e-05 0)
(-6.16057e-06 0.00011383 0)
(-5.21754e-06 0.000113597 0)
(-6.19743e-06 0.000273181 0)
(4.20015e-07 1.15412e-06 0)
(1.02865e-05 0.000235198 0)
(3.70936e-06 8.23153e-05 0)
(1.00869e-05 0.000162756 0)
(-5.15707e-06 2.76291e-05 0)
(9.29346e-06 0.000123422 0)
(-8.66381e-06 9.86681e-05 0)
(2.10704e-06 2.09251e-05 0)
(-4.83361e-06 0.000176624 0)
(-4.50124e-06 0.000136264 0)
(5.94997e-07 8.56416e-05 0)
(-7.55024e-07 0.000140204 0)
(-8.02361e-07 0.00018087 0)
(3.18766e-07 1.90692e-05 0)
(5.83074e-06 7.75758e-05 0)
(-6.66079e-06 0.000109843 0)
(-3.18977e-06 0.000244153 0)
(-1.47418e-05 0.000241821 0)
(2.62984e-06 0.000104792 0)
(6.61465e-06 0.00010512 0)
(-5.39343e-06 2.03365e-05 0)
(1.24052e-05 0.00017821 0)
(1.15596e-05 0.000137754 0)
(-6.00184e-07 2.55055e-06 0)
(-2.00153e-06 0.000203804 0)
(1.10893e-06 3.94583e-05 0)
(1.2488e-06 5.24454e-05 0)
(1.36663e-06 6.68597e-05 0)
(-3.0576e-06 9.92476e-05 0)
(-1.36653e-05 0.000241902 0)
(-3.95271e-06 3.9506e-05 0)
(-4.45268e-06 5.24937e-05 0)
(-4.89295e-06 6.69393e-05 0)
(6.95381e-06 0.000203733 0)
(1.2786e-08 1.67916e-08 0)
(8.56631e-06 9.78789e-05 0)
(1.08711e-07 7.68542e-06 0)
(-4.10599e-07 7.17851e-07 0)
(-8.52518e-07 3.29946e-06 0)
(-4.07501e-06 1.41001e-05 0)
(-4.19415e-07 1.54446e-07 0)
(1.68771e-06 4.45922e-05 0)
(1.48227e-06 3.2504e-05 0)
(1.88284e-06 5.81906e-05 0)
(-2.86472e-06 0.000194991 0)
(-2.71402e-06 0.000153509 0)
(-8.34202e-06 8.12351e-05 0)
(9.02025e-06 0.000105751 0)
(-8.31093e-07 4.90654e-07 0)
(1.09374e-05 0.000258912 0)
(7.88643e-06 0.000231661 0)
(-1.68255e-05 0.000218069 0)
(6.22922e-06 0.00010431 0)
(2.24081e-06 0.000113275 0)
(-4.24229e-06 0.000275116 0)
(-1.17993e-05 0.000118666 0)
(-1.12239e-05 0.000118143 0)
(1.65966e-05 0.000275034 0)
(-1.33805e-06 0.000245369 0)
(-3.74309e-06 7.47118e-05 0)
(4.47691e-06 0.000113253 0)
(1.35253e-07 7.95459e-06 0)
(2.07468e-06 2.81408e-06 0)
(4.1634e-07 1.53312e-07 0)
(3.9562e-06 0.000120651 0)
(1.4626e-05 0.000280674 0)
(-8.02837e-06 0.000195025 0)
(-7.55857e-06 0.000153505 0)
(4.17515e-06 3.2543e-05 0)
(5.33611e-06 5.8204e-05 0)
(4.78271e-06 4.461e-05 0)
(-1.5278e-07 1.07186e-07 0)
(-6.10508e-07 0.000255383 0)
(7.50153e-06 0.00010543 0)
(-6.84502e-06 8.16474e-05 0)
(-1.20249e-05 0.000249197 0)
(-1.79522e-05 0.000184606 0)
(-1.7428e-05 0.000163834 0)
(-1.68049e-05 0.000143743 0)
(-1.60743e-05 0.000124443 0)
(8.76937e-06 2.72439e-05 0)
(1.01993e-05 3.84636e-05 0)
(1.15113e-05 5.1286e-05 0)
(1.27111e-05 6.5576e-05 0)
(1.79027e-05 0.0001846 0)
(1.73806e-05 0.000163834 0)
(-8.79278e-06 2.72472e-05 0)
(-1.02263e-05 3.84674e-05 0)
(1.67555e-05 0.00014374 0)
(-1.15429e-05 5.12893e-05 0)
(1.60286e-05 0.000124439 0)
(-1.27465e-05 6.55799e-05 0)
(-2.64386e-06 3.55687e-06 0)
(1.03992e-06 9.81322e-07 0)
(-1.39229e-06 2.55349e-06 0)
(6.6783e-06 0.000103451 0)
(-7.34704e-06 0.000106516 0)
(1.32633e-06 1.60271e-06 0)
(-2.06129e-07 3.44363e-08 0)
(-1.618e-05 0.000218594 0)
(9.2478e-06 0.000277846 0)
(1.03796e-05 0.00027837 0)
(2.05613e-07 3.43482e-08 0)
(2.9855e-06 3.98979e-06 0)
(1.44893e-05 0.000252957 0)
(-5.5241e-06 0.000117726 0)
(-3.65293e-07 3.21077e-07 0)
(-8.26394e-07 1.28636e-06 0)
(-1.2918e-07 3.30493e-08 0)
(2.41811e-07 1.88668e-07 0)
(1.50019e-05 9.38817e-05 0)
(-1.49856e-05 9.27988e-05 0)
(4.59888e-06 7.08516e-05 0)
(-5.66198e-06 0.000115579 0)
(4.77499e-06 7.26659e-05 0)
(-2.50346e-07 4.25528e-06 0)
(-3.48811e-06 0.000184568 0)
(2.74995e-06 8.85922e-05 0)
(-1.9507e-06 0.000182569 0)
(-1.86736e-06 0.000141705 0)
(8.02412e-07 1.83973e-05 0)
(1.50775e-06 8.69902e-05 0)
(-6.16005e-06 0.000117128 0)
(3.18162e-06 4.22672e-06 0)
(5.15215e-06 7.1385e-05 0)
(1.90667e-06 0.000104951 0)
(1.45612e-05 0.00026122 0)
(-4.45187e-06 0.000105815 0)
(-5.11734e-06 0.000106532 0)
(-4.17623e-06 8.94214e-06 0)
(-4.96271e-06 0.000109906 0)
(-4.24539e-06 0.000109146 0)
(4.40614e-06 7.74488e-05 0)
(3.86928e-06 7.82102e-05 0)
(-4.67481e-06 2.17148e-05 0)
(9.6484e-06 0.000134779 0)
(1.03776e-05 0.000175021 0)
(-1.29616e-06 1.44708e-06 0)
(-6.17158e-06 0.000116191 0)
(5.18792e-06 7.21791e-05 0)
(-3.93519e-06 0.000149398 0)
(-4.18635e-06 0.000190665 0)
(2.24462e-06 3.48557e-05 0)
(2.83638e-06 6.11371e-05 0)
(2.55339e-06 4.72437e-05 0)
(-2.0618e-06 9.65709e-06 0)
(-1.28762e-05 0.000157531 0)
(-1.22024e-05 0.000157034 0)
(6.844e-06 3.04227e-05 0)
(6.50979e-06 3.06862e-05 0)
(8.47473e-06 0.000125117 0)
(9.31842e-06 0.000124502 0)
(-4.61287e-06 2.66795e-05 0)
(-5.10705e-06 2.70318e-05 0)
(9.18539e-06 0.000164595 0)
(1.01049e-05 0.000163927 0)
(-3.70888e-06 0.000243259 0)
(7.37186e-06 0.000222166 0)
(7.47816e-06 0.000221131 0)
(-5.48662e-06 7.26727e-05 0)
(6.41387e-06 0.00011555 0)
(-1.93791e-05 0.000270997 0)
(-5.58581e-06 0.00021626 0)
(-5.36475e-06 0.000215248 0)
(1.87335e-06 1.40218e-05 0)
(1.92561e-06 1.36655e-05 0)
(1.67092e-05 0.000218659 0)
(-7.41725e-06 9.31731e-05 0)
(-6.36896e-06 9.32055e-05 0)
(1.6531e-05 0.000246837 0)
(-1.67385e-05 0.000260193 0)
(-1.67169e-05 0.00026143 0)