/*--------------------------------*- C++ -*----------------------------------*\
| =========                 |                                                 |
| \\      /  F ield         | OpenFOAM: The Open Source CFD Toolbox           |
|  \\    /   O peration     | Version:  2.3.1                                 |
|   \\  /    A nd           | Web:      www.OpenFOAM.org                      |
|    \\/     M anipulation  |                                                 |
\*---------------------------------------------------------------------------*/
FoamFile
{
    version     2.0;
    format      ascii;
    class       volScalarField;
    location    "0.2";
    object      epsilon;
}
// * * * * * * * * * * * * * * * * * * * * * * * * * * * * * * * * * * * * * //

dimensions      [0 2 -3 0 0 0 0];

internalField   nonuniform List<scalar> 
9648
(
2417.49
2418.88
2410.48
2397.27
2378.59
2355.4
2327.14
2293.53
2254.67
2210.93
2162.87
2110.98
2056.34
2000.05
1942.99
1886.04
1830.16
1776.19
1724.58
1675.68
1629.81
1587.13
1547.66
1511.46
1478.48
1448.58
1421.61
1397.44
1375.94
1356.94
1340.33
1325.97
1313.77
1303.58
1295.33
1288.88
1284.1
1280.96
1279.47
1279.55
1281.13
1284.19
1288.68
1294.58
1301.92
1310.76
1321.09
1332.89
1346.31
1361.5
1378.48
1397.24
1417.98
1440.57
1464.81
1490.27
1516.48
1542.94
1568.95
1594.12
1618.19
585.098
576.388
567.282
560.102
556.176
554.815
555.525
558.261
562.846
568.789
575.791
583.192
590.632
597.831
604.58
610.642
615.957
620.582
624.575
627.925
630.76
633.16
635.186
636.959
638.604
640.177
641.72
643.295
644.964
646.76
648.696
650.829
653.205
655.831
658.736
661.951
665.453
669.233
673.309
677.681
682.345
687.297
692.534
698.094
703.944
710.108
716.579
723.309
730.259
737.435
744.807
752.313
759.887
767.549
775.139
782.63
789.866
796.978
803.845
810.413
816.661
238.743
244.038
251.396
260.669
271.785
284.467
298.739
314.277
330.876
348.038
365.525
382.902
399.874
416.175
431.602
446.01
459.319
471.516
482.607
492.626
501.637
509.698
516.903
523.346
529.127
534.332
539.037
543.318
547.235
550.847
554.211
557.384
560.413
563.337
566.195
568.989
571.757
574.502
577.215
579.935
582.656
585.415
588.231
591.078
593.954
596.817
599.658
602.472
605.258
608.012
610.72
613.363
615.902
618.391
620.714
622.976
625.081
627.179
629.105
630.909
632.584
144.977
156.56
169.83
184.694
201.05
218.754
237.628
257.382
277.693
298.168
318.483
338.295
357.338
375.387
392.28
407.897
422.188
435.144
446.79
457.177
466.368
474.435
481.475
487.584
492.872
497.437
501.367
504.749
507.648
510.142
512.298
514.167
515.813
517.267
518.556
519.746
520.845
521.876
522.87
523.776
524.658
525.527
526.385
527.274
528.139
528.992
529.834
530.661
531.49
532.302
533.069
533.816
534.516
535.187
535.779
536.358
536.919
537.455
537.946
538.401
538.858
114.514
129.218
145.583
163.484
182.769
203.244
224.632
246.601
268.791
290.802
312.296
332.946
352.52
370.824
387.739
403.161
417.071
429.487
440.453
450.048
458.347
465.426
471.395
476.354
480.432
483.734
486.362
488.405
489.937
491.041
491.781
492.227
492.425
492.414
492.254
491.956
491.598
491.183
490.672
490.136
489.532
488.919
488.357
487.786
487.229
486.655
486.081
485.537
485.013
484.513
484.008
483.49
482.97
482.441
481.902
481.355
480.827
480.292
479.735
479.169
478.6
104.331
121.221
139.842
159.999
181.428
203.876
226.994
250.409
273.728
296.528
318.479
339.257
358.678
376.572
392.89
407.515
420.459
431.787
441.547
449.872
456.845
462.53
467.071
470.553
473.135
474.946
476.077
476.65
476.708
476.342
475.642
474.638
473.431
472.061
470.524
468.93
467.269
465.532
463.801
461.964
460.148
458.393
456.666
455.045
453.395
451.745
450.127
448.552
447.052
445.597
444.177
442.77
441.372
439.983
438.598
437.249
435.926
434.605
433.272
431.938
430.589
102.668
121.409
141.918
163.919
187.017
210.936
235.258
259.581
283.526
306.584
328.504
348.904
367.706
384.738
400.099
413.562
425.191
435.131
443.389
450.192
455.638
459.727
462.698
464.556
465.544
465.793
465.388
464.486
463.084
461.29
459.194
456.825
454.301
451.652
448.908
446.09
443.3
440.49
437.587
434.729
431.841
429.034
426.428
423.881
421.379
418.908
416.453
414.074
411.765
409.535
407.367
405.233
403.141
401.038
398.957
396.921
394.927
392.972
391.002
389.003
387.018
105.026
125.401
147.545
171.087
195.467
220.412
245.508
270.341
294.535
317.45
338.981
358.573
376.389
392.171
406.364
418.433
428.522
436.923
443.452
448.56
452.377
454.717
456.092
456.226
455.56
454.225
452.252
449.93
447.08
443.886
440.51
436.825
433.076
429.258
425.299
421.394
417.579
413.647
409.85
405.979
402.104
398.38
394.829
391.488
388.177
384.992
381.848
378.756
375.732
372.81
369.972
367.2
364.466
361.706
358.987
356.359
353.748
351.237
348.674
346.065
343.542
109.057
130.652
154.214
178.819
204.297
229.842
255.264
280.486
304.502
327.153
347.973
366.663
383.136
397.399
410.264
420.871
429.373
436.121
441.132
444.578
446.554
447.104
446.653
445.234
443
439.949
436.545
432.85
428.449
423.919
419.191
414.38
409.708
404.723
399.459
394.571
389.58
384.608
379.919
375.07
370.183
365.201
360.902
356.602
352.376
348.659
344.73
341.077
337.157
333.535
329.825
326.457
323.151
319.674
316.301
313.224
309.891
307.109
303.911
300.593
297.642
1641.42
1663.76
1684.98
1705.09
1724.37
1743.31
1762.09
1780.84
1798.2
1814.68
1829.98
1844.64
1858.99
1873.45
1888.21
1904.01
1921.47
1941.11
1963.25
1988.19
2015.45
2044.44
2074.76
2106.07
2138.06
2170.81
2204.17
2238.09
2272.51
2307.44
2343.05
2379.22
2415.97
2453.45
2491.69
2530.57
2570.21
2610.74
2652.23
2694.54
2737.69
2781.93
2827.24
2873.47
2920.93
2969.49
3019.05
3069.64
3121.47
3174.59
3228.92
3284.34
3341.41
3399.73
3459.65
3520.98
3584.46
3650.11
3717.95
3787.87
3860
822.598
828.671
834.527
840.114
845.475
850.752
856.111
861.429
866.65
871.639
876.623
881.55
886.506
891.493
896.526
901.664
906.923
912.339
917.892
923.543
929.245
934.938
940.606
946.228
951.784
957.234
962.511
967.626
972.566
977.355
982.01
986.504
990.856
995.09
999.199
1003.18
1007.07
1010.85
1014.52
1018.09
1021.57
1024.98
1028.3
1031.52
1034.68
1037.74
1040.71
1043.56
1046.35
1049.04
1051.64
1054.14
1056.54
1059
1061.28
1063.66
1066.01
1068.59
1071.06
1073.62
1076.34
634.249
635.879
637.538
639.16
640.755
642.233
643.754
645.207
646.596
647.868
649.109
650.315
651.549
652.745
653.91
655.042
656.136
657.189
658.186
659.115
659.961
660.725
661.395
661.969
662.441
662.812
663.072
663.217
663.242
663.153
662.941
662.611
662.165
661.601
660.932
660.155
659.272
658.28
657.182
655.974
654.662
653.251
651.747
650.135
648.428
646.613
644.678
642.615
640.431
638.129
635.681
633.135
630.453
627.663
624.685
621.627
618.484
615.271
611.979
608.647
605.34
539.288
539.706
540.086
540.461
540.802
541.089
541.344
541.577
541.714
541.774
541.779
541.738
541.632
541.45
541.22
540.925
540.567
540.137
539.628
539.032
538.351
537.583
536.734
535.797
534.769
533.644
532.425
531.11
529.697
528.188
526.582
524.871
523.059
521.151
519.155
517.07
514.896
512.633
510.273
507.822
505.285
502.675
499.994
497.25
494.442
491.569
488.609
485.563
482.424
479.21
475.892
472.48
468.987
465.397
461.682
457.851
453.949
449.962
445.922
441.868
437.832
478.028
477.419
476.778
476.101
475.387
474.614
473.816
473.018
472.193
471.309
470.388
469.425
468.4
467.321
466.183
464.983
463.749
462.444
461.068
459.618
458.098
456.514
454.873
453.178
451.42
449.595
447.7
445.735
443.706
441.611
439.446
437.202
434.877
432.478
430.015
427.49
424.898
422.233
419.487
416.666
413.78
410.837
407.854
404.843
401.811
398.759
395.652
392.514
389.312
386.066
382.756
379.369
375.93
372.422
368.822
365.122
361.341
357.473
353.583
349.682
345.79
429.246
427.884
426.509
425.085
423.632
422.146
420.626
419.09
417.517
415.912
414.266
412.595
410.885
409.124
407.321
405.483
403.62
401.695
399.704
397.649
395.539
393.385
391.202
388.997
386.755
384.467
382.134
379.756
377.348
374.913
372.446
369.921
367.342
364.704
362.031
359.321
356.557
353.742
350.855
347.898
344.886
341.826
338.743
335.662
332.602
329.573
326.518
323.475
320.403
317.347
314.254
311.101
307.93
304.695
301.416
298.013
294.548
291.004
287.472
283.902
280.358
385.045
383.075
381.091
379.088
377.043
374.951
372.84
370.732
368.586
366.39
364.181
361.964
359.712
357.436
355.113
352.778
350.444
348.061
345.614
343.094
340.52
337.927
335.324
332.737
330.142
327.512
324.855
322.162
319.48
316.816
314.191
311.53
308.857
306.138
303.425
300.695
297.906
295.085
292.203
289.257
286.251
283.179
280.091
277.018
273.984
271.055
268.104
265.234
262.357
259.587
256.823
253.98
251.151
248.268
245.383
242.324
239.254
236.074
232.985
229.829
226.724
341.012
338.534
336.04
333.58
331.087
328.598
326.065
323.598
321.099
318.488
315.883
313.318
310.71
308.077
305.362
302.679
300.072
297.427
294.72
291.866
288.938
286.033
283.112
280.235
277.419
274.569
271.694
268.726
265.785
262.926
260.245
257.546
254.929
252.282
249.722
247.181
244.506
241.769
239.024
236.27
233.415
230.435
227.434
224.435
221.456
218.695
215.849
213.183
210.502
208.104
205.77
203.285
200.858
198.371
195.944
193.232
190.591
187.78
185.21
182.52
179.933
294.451
291.499
288.382
285.607
282.667
280.143
277.299
274.84
272.348
269.644
266.933
264.463
261.768
259.091
256.114
253.117
250.463
247.907
245.373
242.567
239.35
236.362
233.291
230.19
227.259
224.381
221.62
218.521
215.213
212.092
209.38
206.652
204.162
201.717
199.64
197.63
195.294
192.676
190.151
187.824
185.432
182.666
179.829
177.048
174.175
171.685
168.856
166.405
163.81
161.909
160.113
157.986
156.055
154.039
152.181
149.765
147.582
145.071
143.07
140.884
138.927
3935.43
4013.68
4094.04
4176.47
4261.35
4349.56
4440.47
4533.98
4629.83
4728.47
4829.8
4932.58
5041.51
5166.87
5304.91
5431.32
5560.54
5692.42
5826.92
5963.96
6103.75
6246.27
6391.2
6538.68
6688.41
6839.69
6992.21
7145.72
7300
7454.14
7608.06
7761.11
7912.39
8061.26
8207.2
8348.75
8484.84
8611.9
8719.22
8797.46
8849.12
8875.34
8875.67
8848.19
8791.21
8702.18
8577
8410.97
8199.77
7938.77
7621.76
7241.98
6794.36
6272.33
5620.02
4699.37
4299.34
4104.59
4031.51
3996.05
3912.97
1079.33
1082.46
1085.83
1089.27
1092.82
1096.61
1100.91
1105.62
1110.76
1116.34
1121.21
1122.66
1125.35
1129.17
1134.12
1139.99
1145.78
1151.56
1157.5
1163.66
1170.06
1176.71
1183.59
1190.72
1198.09
1205.67
1213.51
1221.64
1230.1
1238.96
1248.26
1258.07
1268.53
1279.75
1291.85
1305.08
1319.66
1335.86
1357.84
1389.33
1426.3
1465.95
1508.84
1555.09
1605.37
1660.01
1719.06
1782.78
1851.4
1924.42
2000.89
2079.12
2157.63
2234.93
2303.16
2368.23
2429.7
2518.77
2625.45
2728.76
2664.67
602.032
598.752
595.46
592.159
588.805
585.469
582.221
579.085
575.947
572.868
567.969
561.789
556.688
552.221
548.371
544.906
541.376
537.717
533.993
530.247
526.511
522.781
519.052
515.325
511.602
507.881
504.178
500.497
496.862
493.272
489.75
486.321
482.997
479.825
476.834
474.075
471.596
469.472
467.973
467.481
468.752
474.476
483.617
496.13
512.495
533.385
559.533
591.972
631.694
679.766
737.177
804.696
883.539
973.957
1075.55
1184.88
1293.91
1413.91
1561.63
1751.64
1933.37
433.818
429.838
425.878
421.916
417.906
413.888
409.894
405.944
401.898
397.609
391.899
385.924
380.692
375.945
371.604
367.501
363.403
359.272
355.115
350.964
346.819
342.669
338.519
334.377
330.24
326.12
322.02
317.944
313.895
309.877
305.893
301.949
298.058
294.231
290.478
286.819
283.273
279.859
276.613
273.598
270.936
268.936
268.518
269.657
272.422
277.174
284.398
294.77
309.156
328.6
354.532
388.275
431.473
485.178
549.901
623.518
702.08
787.429
888.292
1018.39
1178.57
341.932
338.159
334.428
330.689
326.883
323.068
319.241
315.444
311.545
307.321
302.163
297.058
292.461
288.252
284.302
280.526
276.778
273.07
269.384
265.739
262.118
258.476
254.846
251.234
247.633
244.057
240.509
236.989
233.491
230.018
226.57
223.155
219.776
216.443
213.164
209.952
206.816
203.767
200.816
197.981
195.296
192.828
190.738
189.464
188.897
189.182
190.55
193.314
197.923
204.933
215.163
229.64
249.576
276.215
310.51
352.488
400.721
454.82
517.23
593.666
690.019
276.822
273.429
270.086
266.759
263.293
259.824
256.319
252.886
249.372
245.608
241.181
236.925
233.031
229.472
226.059
222.774
219.5
216.326
213.206
210.16
207.149
204.093
201.065
198.076
195.096
192.157
189.237
186.353
183.478
180.621
177.778
174.964
172.179
169.437
166.741
164.105
161.532
159.033
156.611
154.276
152.044
149.938
148.002
146.338
145.192
144.441
144.217
144.647
145.947
148.403
152.398
158.472
167.313
179.697
196.494
218.235
245.011
276.88
314.484
359.521
415.058
223.537
220.562
217.651
214.808
211.708
208.634
205.474
202.483
199.447
196.306
192.579
189.084
185.836
182.938
180.064
177.309
174.505
171.878
169.31
166.837
164.406
161.876
159.421
157.048
154.67
152.348
150.024
147.747
145.448
143.166
140.876
138.625
136.399
134.226
132.09
130.017
127.997
126.047
124.162
122.358
120.638
119.025
117.53
116.192
115.12
114.348
113.857
113.713
114.022
114.92
116.601
119.324
123.417
129.322
137.513
148.483
162.637
180.288
201.893
228.232
260.572
177.084
174.527
172.072
169.788
167.071
164.428
161.61
159.118
156.61
154.167
151.063
148.228
145.529
143.267
140.877
138.656
136.278
134.186
132.127
130.155
128.242
126.142
124.197
122.444
120.626
118.862
117.048
115.323
113.509
111.72
109.883
108.135
106.401
104.755
103.123
101.567
100.036
98.5788
97.1782
95.8698
94.6338
93.5058
92.4887
91.5797
90.8177
90.3176
89.9861
89.8516
89.9796
90.4429
91.3423
92.8028
94.9982
98.13
102.452
108.254
115.834
125.525
137.693
152.833
171.596
136.393
134.189
132.205
130.561
128.223
126.036
123.523
121.596
119.638
117.916
115.348
113.061
110.756
109.12
107.095
105.427
103.384
101.836
100.216
98.6016
97.1302
95.316
93.8318
92.7951
91.4442
90.0916
88.6343
87.4223
85.9334
84.5181
82.9619
81.6837
80.3535
79.1982
77.9705
76.8593
75.6572
74.5829
73.5772
72.6953
71.8925
71.1873
70.6059
70.111
69.655
69.3342
69.1889
69.1553
69.34
69.6715
70.3894
71.4126
72.9482
74.9625
77.6714
81.1126
85.5795
91.1682
98.2739
107.16
118.175
3771.29
3617.31
3454.12
3285.28
3119.61
2961.72
2813.93
2679.42
2560.74
2459.04
2374.17
2304.87
2249.71
2206.84
2174.11
2149.59
2131.6
2118.99
2110.71
2105.88
2103.98
2104.58
2107.27
2111.98
2118.63
2126.98
2136.93
2148.42
2161.47
2175.89
2191.58
2208.39
2226.12
2244.41
2263.08
2281.72
2299.86
2317.13
2333.19
2347.62
2359.91
2369.79
2377.15
2381.81
2384.03
2384.24
2382.82
2380.28
2377.44
2375.27
2374.22
2374.52
2376.7
2380.85
2386.5
2393.14
2400.21
2407.47
2413.69
2417.88
2419.41
2463.45
2251.61
2045.69
1851.54
1683.57
1531.53
1393.96
1270.99
1161.97
1067
985.584
916.643
858.626
810.183
770.888
739.691
714.78
694.52
677.788
663.856
652.235
642.534
634.516
628.039
623.025
619.352
616.928
615.742
615.755
616.954
619.347
622.914
627.638
633.445
640.245
647.965
656.488
665.671
675.31
685.147
694.804
703.789
711.536
717.414
720.813
721.167
718.046
711.375
701.558
689.387
675.706
661.583
648.196
636.639
627.287
620.133
614.541
609.858
605.01
599.539
593.174
2009.68
1983.8
1868.59
1684.74
1500.76
1325.92
1159.56
1011.93
882.378
769.402
673.186
592.575
525.999
472.004
429.551
396.632
370.292
348.843
331.207
316.724
304.773
294.856
286.587
279.672
273.902
269.106
265.161
261.993
259.545
257.777
256.656
256.17
256.288
256.966
258.166
259.831
261.9
264.309
266.985
269.824
272.703
275.482
277.987
279.988
281.252
281.501
280.466
277.933
273.855
268.342
261.662
254.338
247.025
240.416
235.035
231.436
229.738
229.786
231.11
233.026
235.346
1342.78
1484.89
1573.33
1579.39
1501.38
1370.23
1200.4
1033.15
881.421
743.62
625.285
527.208
446.993
383.109
333.086
293.978
263.156
238.263
218.142
201.923
188.86
178.343
169.861
162.968
157.306
152.609
148.703
145.466
142.812
140.669
138.996
137.762
136.927
136.44
136.247
136.296
136.53
136.896
137.333
137.772
138.139
138.362
138.36
138.048
137.349
136.189
134.513
132.299
129.569
126.373
122.828
119.135
115.542
112.456
110.41
109.95
111.295
114.512
119.572
126.488
134.998
807.078
941.762
1082.33
1204.81
1280.38
1292.73
1238.37
1131.04
995.433
844.604
703.36
583.246
481.016
398.306
333.036
281.458
240.903
208.788
183.166
162.835
146.792
134.22
124.389
116.641
110.449
105.425
101.316
97.9466
95.1922
92.9466
91.1465
89.7529
88.7181
87.9836
87.4918
87.1878
87.0182
86.9296
86.8694
86.7802
86.6024
86.2802
85.7604
84.9935
83.9372
82.5633
80.8676
78.866
76.5911
74.1096
71.5214
68.9786
66.726
65.0645
64.53
65.5393
68.4895
73.6099
80.921
90.289
101.513
484.045
569.395
671.746
786.806
902.42
1001.13
1063.29
1074.11
1031.83
944.735
830.003
706.624
583.831
477.964
392.002
321.484
265.75
221.492
185.956
158.06
136.478
120.019
107.545
98.0063
90.5849
84.6924
79.9677
76.1679
73.1134
70.6468
68.6761
67.1467
66.0002
65.1672
64.5837
64.1923
63.9374
63.7687
63.6358
63.4868
63.2683
62.9353
62.4422
61.7524
60.8295
59.657
58.235
56.585
54.7331
52.735
50.6777
48.7042
47.0487
46.0585
46.0936
47.6366
51.1931
57.1246
65.5474
76.3414
89.3136
300.606
350.51
412.508
487.949
575.841
671.541
765.262
843.082
890.747
897.81
862.233
791.568
698.251
596.378
497.527
405.368
329.828
268.338
217.251
177.105
146.277
123.29
106.369
93.7508
84.146
76.6725
70.8017
66.1758
62.5337
59.6312
57.3312
55.5524
54.2215
53.2496
52.5623
52.0937
51.7848
51.5841
51.4424
51.3097
51.1345
50.8804
50.5035
49.9729
49.2496
48.3251
47.1964
45.8861
44.4101
42.8213
41.1941
39.656
38.4174
37.7951
38.1374
39.9486
43.8336
50.2792
59.5334
71.5007
85.9518
194.925
224.008
260.366
305.56
360.875
426.543
500.902
579.069
653.205
712.546
746.551
748.829
719.728
663.853
590.218
507.159
424.458
347.304
276.016
218.938
173.935
140.869
117.181
99.8429
86.8208
76.7988
69.0207
63.0185
58.4086
54.7811
51.9333
49.7336
48.0926
46.8864
46.0244
45.4246
45.0211
44.7567
44.5829
44.4481
44.3002
44.1116
43.8385
43.4524
42.9072
42.2018
41.3266
40.3075
39.1507
37.9051
36.6378
35.4632
34.5748
34.2478
34.847
36.8768
41.0409
47.9285
57.9292
70.9821
86.7903
131.983
149.093
170.431
197.231
230.528
271.344
320.09
376.307
437.601
499.968
555.536
598.187
621.597
622.971
600.71
556.98
497.594
427.12
355.246
283.929
219.661
173.117
140.25
116.238
97.9846
84.0169
73.2296
65.0808
58.9531
54.1756
50.4748
47.6004
45.4725
43.8951
42.7582
41.9434
41.3808
40.9925
40.7407
40.5566
40.3982
40.2373
40.0381
39.761
39.3627
38.8357
38.1806
37.4058
36.5268
35.5725
34.6215
33.7723
33.209
33.1803
34.0497
36.3423
40.77
48.0461
58.6428
72.6291
89.4946
0.996489
196.303
174.879
2.78682
1.38888
0.185667
0.000738038
113.688
0.000779801
0.014481
107.413
6.62745
0.0007371
257.458
0.151259
131.876
0.000753427
114.763
131.946
0.000752314
2.79817
248.108
184.838
0.000777553
0.000767615
0.21011
0.000749714
9.00268
0.000749745
0.000798359
4.08029
0.00100155
0.00882135
87.387
3.75178
126.918
87.9861
15.3745
0.000730635
38.818
66.2036
23.2627
0.000741881
99.5425
209.688
0.678294
0.000810482
0.00781878
6.88422
6.86131
379.096
346.039
0.000723981
0.00101295
0.0778133
0.0583605
0.000795332
9.65003
74.2465
271.404
155.303
0.000874383
1.8009
0.023783
190.539
6.70022
52.749
81.6433
0.0011686
0.000747414
7.42418
40.1294
57.0169
0.185833
0.0564696
99.2496
214.651
53.8986
0.00071617
5.17915
0.00218657
40.7798
0.0220549
107.325
0.000749682
8.41126
0.000776555
48.3541
0.012921
0.00129956
0.208177
0.000714188
0.000897146
295.386
136.241
0.000837958
1.51138
1.06326
0.001865
202.693
3.91338
22.5269
5.92007
0.000712857
0.000729149
0.000719558
1.42292
0.206103
0.000756219
169.021
218.306
0.00554304
270.357
35.3139
139.869
70.8677
38.9729
0.00100616
0.102346
0.00101198
0.0028598
226.596
0.00233748
283.182
404.697
36.4985
0.000744898
6.60472
6.48225
0.000742635
0.0301334
0.0256568
99.0412
0.00163634
82.3095
0.000747668
0.000727838
386.596
338.563
0.000745214
0.394511
143.558
0.23397
0.89141
34.2337
111.48
1.92227
35.6629
0.00497532
266.243
9.73246
0.0881799
48.2561
104.94
182.249
0.00075228
0.000744564
0.479884
0.000777686
56.6023
0.187153
0.00145078
0.000744918
0.000746145
0.000758367
38.8973
87.4216
35.0003
0.000863499
286.124
333.16
411.913
168.571
0.00711603
196.54
63.7045
37.808
0.000741894
0.00158333
207.304
78.8777
23.8725
66.746
0.000743242
0.000818029
272.207
0.0282156
2.39807
0.000756437
0.00080008
0.168441
0.000812575
318.499
3.63862
0.000764046
0.628263
100.959
127.46
0.0012281
70.9274
0.000744631
0.000746746
103.538
30.8915
292.629
0.00124572
0.000781694
0.00304127
39.0809
96.2243
9.69022
110.849
6.94492
227.902
0.883242
83.4591
78.6915
21.4993
10.203
51.4874
0.00127018
0.0281019
0.000744782
0.000919455
38.8742
0.00941173
0.0109732
0.00155256
0.00647779
46.2349
228.656
0.0112127
156.361
6.9755
1.14756
0.000732685
0.377984
36.5847
6.74239
0.00109788
7.86347
45.5831
0.958485
9.50481
267.063
7.62724
5.41934
119.257
0.00096246
0.0007298
0.000977112
0.00440298
38.3466
0.000768264
0.00195037
0.000729146
1.73737
68.495
92.7025
58.7992
11.2527
10.8122
316.956
0.001176
64.0053
98.5855
0.000742616
112.597
0.000749338
334.685
1.73593
74.7476
0.00145197
0.00074728
19.5561
8.77698
0.000759452
0.000745757
0.00075021
0.000750734
1.13833
36.392
42.4535
0.012679
0.000760291
0.000727882
0.000712906
101.489
0.696959
0.00112098
17.0048
0.112164
0.12146
0.000716534
0.775029
0.000760071
0.0594248
49.0895
304.967
11.8236
0.000942114
0.00176994
54.5955
0.290961
138.315
315.657
0.000823636
0.000739417
0.000733968
152.9
0.000761355
129.886
0.000748884
21.2079
14.6072
0.0255194
176.887
246.068
0.00119692
59.9642
43.9383
92.8951
92.8132
2.88956
336.039
48.506
64.4895
154.887
91.7514
57.2206
0.31206
326.794
275.124
72.7882
43.725
0.00117327
260.863
161.728
226.425
0.0179486
0.000841141
0.000744537
0.000793317
0.744712
1.48399
4.01493
0.115835
0.000733924
164.927
0.000745293
35.56
21.6831
188.552
31.8815
17.5305
0.00180353
0.00105813
0.583238
114.657
0.00413936
8.27137
289.234
48.1859
81.3986
177.599
54.1619
0.000799508
278.475
135.158
99.2104
0.000746683
183.711
146.16
0.000769066
39.7988
0.000747541
401.661
172.697
36.6699
78.6672
148.372
144.482
0.000774016
144.272
0.000922843
80.6291
78.8322
37.6402
274.794
3.35346
0.478148
2.515
0.00105704
448.344
1.80007
0.00281314
0.00357266
289.658
0.000913801
89.8771
0.000742088
0.000745984
0.00187001
31.7632
0.170834
20.0918
0.00151759
80.6971
0.285386
204.058
289.938
36.0801
355.324
0.00081819
274.965
40.6892
0.000738801
76.2691
23.8937
0.000720547
0.000730021
130.678
0.00209622
19.8167
0.586074
106.041
0.0167237
3.08121
37.0276
108.641
30.9334
68.7744
65.8441
0.00120348
0.04292
40.1122
16.6854
324.844
353.744
126.613
0.0775147
119.072
118.017
3.43893
99.4784
42.7546
24.1951
0.000934953
81.7016
372.161
0.00103767
94.8635
18.2782
43.3435
0.0139338
0.0814338
280.098
0.00180722
320.838
0.00118871
2.02069
0.00073857
7.64229
178.281
0.535261
0.00126077
0.000943676
101.821
34.5631
0.596777
6.62081
315.92
548.814
0.00208898
10.9939
35.2179
93.5776
33.6218
457.157
38.0471
157.033
49.9517
6.64099
8.1856
297.294
55.0156
345.654
167.774
2.36877
211.551
78.9768
0.000814472
102.067
39.3672
12.1597
0.0101964
100.437
46.3291
3.7678
53.9685
0.00160094
0.000746398
0.809362
18.3884
92.3846
88.9849
0.000749488
0.000738078
0.000740576
36.8702
0.0310115
0.000744221
0.222281
87.2945
304.017
0.00415877
0.00425616
0.000727437
0.000738638
0.00181929
29.7468
103.702
16.4242
1.8607
283.703
399.347
0.00153215
50.2726
37.5781
37.4336
72.9781
429.633
0.000832208
0.00424912
0.000745462
406.851
0.695624
0.000729009
9.92499
0.326209
295.592
0.000759072
310.303
8.09721
0.0501566
197.371
0.000741907
0.000733078
0.00101005
393.25
51.1322
126.092
346.12
6.18731
39.7502
0.000718521
0.00174345
0.578872
0.00611549
0.0153785
182.033
54.2251
0.00074515
26.1426
62.2774
176.884
395.835
0.00266609
399.507
0.00175237
0.0199414
185.411
0.000736036
142.731
0.000758435
0.000774415
0.0244914
44.9599
2.81569
328.815
62.8329
0.000868032
37.9079
505.149
0.431288
2.65576
10.3125
0.000761693
0.00075099
0.00228214
132.168
5.86066
0.000817623
258.469
297.387
210.765
0.486386
78.5272
0.0011273
28.3589
0.382638
0.12178
140.468
41.9849
155.782
169.956
0.000766236
0.000720225
0.00438196
80.9376
95.4337
5.47007
0.00614902
0.000761772
0.000742323
0.00327893
0.154531
0.00196968
91.8155
23.6169
0.00510986
33.9499
166.198
0.000756247
47.7087
0.000742054
2.66918
0.000762427
0.0126419
29.1931
0.0109747
0.000744376
3.74207
350.149
247.082
0.000739294
0.000739877
1.42797
0.164534
0.000746844
85.0357
0.00087135
45.4623
365.072
28.5498
95.365
301.398
145.703
329.656
0.000742109
0.00252255
0.0129265
296.833
65.256
189.259
1.37713
5.11461
100.559
205.162
114.625
6.32168
37.6439
0.00074948
1.33995
57.7366
31.8552
315.785
21.2544
0.675478
40.0602
0.205839
0.0201502
57.5701
0.000744967
170.361
0.00086983
2.87835
288.168
198.574
2.72757
0.00238674
7.23709
0.000755428
0.000735518
0.175972
0.0125733
74.2969
0.00794497
37.8311
0.00074984
0.0173664
0.000728311
92.2669
0.0031732
91.8653
307.472
0.0132726
171.78
366.248
0.000749501
101.566
258.476
0.000805603
282.802
0.341635
0.000910871
0.00077302
266.352
0.00073206
0.0010784
0.113071
0.219339
429.361
264.932
0.000751281
0.000741511
3.48773
26.2165
0.00666753
9.2091
21.1608
0.000746615
0.000914365
0.000849359
164.915
266.85
3.4919
287
0.0160847
34.693
0.000808339
0.0065045
0.0149317
0.04634
0.000746754
296.887
0.000741564
0.0148398
0.000756899
3.27613
0.013786
0.183755
1.9815
5.10847
44.7469
1.6833
9.09918
37.7815
196.139
0.000805016
186.493
315.569
12.7398
72.706
0.000762837
274.821
72.5286
0.000743575
405.511
83.0998
0.0062709
0.114721
158.196
157.602
0.0684573
307.624
405.198
4.24079
425.938
250.001
125.312
68.3108
16.2
36.2593
256.212
277.365
0.0133102
297.238
35.37
408.361
0.000810985
1.58085
1.03461
221.633
157.788
0.010888
451.879
191.992
8.47431
0.0680734
2.91377
38.3532
0.00144615
38.2855
439.007
0.0292956
217.887
12.2634
90.1603
185.206
0.000743017
0.00168873
6.78818
5.33602
0.0148966
0.000747242
0.900586
2.02599
0.00116698
0.000758614
281.322
6.51843
48.1679
10.7298
0.00285798
0.00103104
0.195211
99.234
0.000803656
20.174
40.215
1.75458
175.835
0.000970349
0.447533
0.000739446
3.23118
84.1025
0.00288336
0.177738
54.3676
150.249
0.479232
93.5118
5.27743
0.236348
0.000974275
30.8384
318.092
0.000742402
0.000746252
143.756
0.0144511
0.000758111
69.6563
8.54093
167.421
38.8779
39.1371
0.283278
16.5016
212.716
149.788
278.171
0.000756429
299.712
0.000950678
28.4261
0.000860014
0.00117967
59.7753
0.00212886
261.259
0.012118
0.0298434
46.1253
7.97326
2.13149
0.000861858
177.877
0.000854696
0.00072704
331.922
156.002
39.2216
37.3811
0.000791334
0.000718164
18.1847
144.215
0.000723386
202.599
37.8806
0.000748329
165.903
0.000725291
3.75058
6.24885
10.1443
1.34023
78.8784
17.9436
0.000724897
261.924
318.937
0.000741687
0.0155025
38.6883
0.000727255
235.047
164.544
407.678
0.000742925
0.00072933
236.408
0.122019
0.000834708
31.4294
82.3985
287.269
0.000726507
0.000805005
0.0145797
0.0116817
0.000745288
0.00207077
122.549
60.452
0.000743799
11.7243
0.000746257
10.8173
0.00112435
0.000839304
25.6042
0.000740289
0.241942
0.000731165
44.266
3.65968
17.9875
182.138
364.343
183.862
4.76965
19.7474
0.000758198
5.23076
272.58
535.067
0.1456
0.000807701
124.944
0.000744909
0.171735
0.000727205
437.081
16.4617
3.44485
186.976
52.7201
5.40377
77.4177
8.01324
220.347
111.008
0.000762204
0.000785071
0.00293542
0.000900848
0.0134085
88.1632
0.000955746
236.375
0.00179462
0.0689171
2.77073
175.106
0.00140361
38.8904
0.0157666
46.719
28.685
435.928
0.000866444
0.000984217
2.587
83.6701
80.9264
63.3669
1.71248
8.17107
16.8049
0.0633471
7.43153
3.96217
42.7313
0.000745586
395.702
1.32442
54.3151
0.000769617
51.5252
16.9885
0.003335
92.1633
16.4544
0.076892
0.0007348
0.000743756
232.594
47.0161
16.9596
0.000730663
0.00892792
67.6145
184.348
7.31646
0.00546722
0.000727905
137.6
125.245
47.6838
33.7669
0.000740712
128.003
427.688
0.000746698
0.000748812
18.8006
0.00140437
0.00354623
2.28163
48.0666
0.00109042
46.9022
336.487
0.000771339
0.00083891
0.000731286
0.000754561
63.788
520.182
322.279
0.0190777
31.1707
61.6721
0.130871
42.271
0.000918277
44.5434
0.517287
39.4927
5.25234
84.3807
132.411
0.177065
0.000758477
155.955
97.9932
310.57
5.28206
39.6816
0.529079
14.598
0.00337586
0.00125375
190.454
138.658
0.0427476
6.91631
0.000749711
0.0926343
18.3726
0.0311296
14.0346
7.91243
396.916
48.8718
1.71178
270.232
136.367
65.9265
14.5159
236.81
197.608
3.1404
36.6939
0.00677316
46.1697
43.7309
0.000743125
0.000727868
0.241409
0.000745512
0.000800207
66.7925
307.526
0.00074207
96.4868
0.000742809
0.000736085
0.000733319
0.000775865
0.00176021
38.5746
37.9206
245.268
0.000738536
0.000959876
6.16777
0.000826622
0.0283168
0.000762655
0.000834323
196.921
0.00094655
0.00446754
196.352
0.00403315
0.00074865
224.395
0.000743884
0.000754557
2.20355
0.000840746
8.45372
0.00128693
0.0219094
0.000743616
0.000755231
296.487
411.323
39.103
0.0250748
144.418
14.8656
0.00135012
36.1045
312.9
231.189
480.046
0.000782341
20.3234
56.0803
0.242269
38.6251
100.723
0.340089
41.1573
1.68092
39.068
2.12289
7.12054
0.000757342
208.901
0.000943956
39.665
30.2876
0.000747297
0.880987
0.00224579
0.0101017
0.000735761
3.67088
0.000861522
0.000748228
50.5881
0.0384815
0.151946
226.761
155.412
0.000847096
0.000995831
28.6274
254.969
0.000736822
0.000749179
0.237011
24.5064
143.284
0.00212085
14.7194
0.000742876
0.000798404
0.000724483
0.0263627
25.5905
0.0041782
278.057
39.2223
253.631
166.499
0.000816487
288.319
63.7259
0.000733906
0.000753976
0.000750405
0.00114201
0.00073877
152.945
0.000745099
0.000743336
358.997
1.09437
0.00244717
0.0114373
84.0965
7.37381
0.0219449
0.00080742
181.528
0.000762584
10.0743
0.000762572
0.00082181
158.131
151.37
0.00314362
0.000897842
10.6833
0.000743811
375.973
0.000759045
140.767
0.0172343
8.84433
0.415996
3.46866
3.48579
30.2967
0.000760386
0.00083215
0.00445594
52.6001
0.223823
297.092
0.0007452
0.001289
0.00156762
251.636
61.3528
286.439
0.00227749
0.00360814
0.842774
0.000750482
19.7625
36.8969
0.00817764
287.745
176.49
37.2783
0.00148628
1.3366
186.569
217.843
37.602
0.0105256
156.966
2.60143
125.044
0.13274
2.11503
36.5279
0.000761898
37.6846
0.00120039
0.00461228
0.0112739
0.0429508
0.000871295
10.4732
0.000743456
47.1094
0.127084
0.000841412
3.13594
0.000756631
0.70042
0.203266
51.4086
3.99421
107.888
0.704745
0.000747705
0.000726851
7.30569
0.138865