/*--------------------------------*- C++ -*----------------------------------*\
| =========                 |                                                 |
| \\      /  F ield         | OpenFOAM: The Open Source CFD Toolbox           |
|  \\    /   O peration     | Version:  2.3.1                                 |
|   \\  /    A nd           | Web:      www.OpenFOAM.org                      |
|    \\/     M anipulation  |                                                 |
\*---------------------------------------------------------------------------*/
FoamFile
{
    version     2.0;
    format      ascii;
    class       volVectorField;
    location    "0.2";
    object      U;
}
// * * * * * * * * * * * * * * * * * * * * * * * * * * * * * * * * * * * * * //

dimensions      [0 1 -1 0 0 0 0];

internalField   nonuniform List<vector> 
9648
(
(0.16134 -4.71192 -8.24346e-23)
(0.280632 -4.69373 -9.47417e-23)
(0.400711 -4.67325 0)
(0.522519 -4.65891 0)
(0.64628 -4.65158 1.27179e-20)
(0.77448 -4.65563 2.06444e-20)
(0.90911 -4.67216 -3.5379e-20)
(1.05036 -4.70262 -1.61892e-20)
(1.19954 -4.74911 1.61297e-20)
(1.35851 -4.81336 4.82982e-20)
(1.52953 -4.89617 -4.80314e-20)
(1.71434 -4.99783 -6.8147e-20)
(1.9147 -5.11818 3.6085e-19)
(2.13236 -5.25641 9.21075e-20)
(2.36869 -5.411 -8.61654e-19)
(2.6246 -5.58005 0)
(2.90091 -5.7613 0)
(3.19816 -5.95233 1.52104e-19)
(3.51671 -6.15023 4.87765e-19)
(3.85637 -6.35205 -1.3953e-18)
(4.21691 -6.55511 -2.3442e-20)
(4.598 -6.7564 3.8112e-19)
(4.99869 -6.95313 4.46412e-19)
(5.41817 -7.14269 -2.01121e-18)
(5.85537 -7.32258 0)
(6.30919 -7.49035 1.1898e-18)
(6.77825 -7.64374 -1.24133e-18)
(7.26114 -7.78092 0)
(7.75646 -7.89999 0)
(8.26257 -7.99954 -7.44371e-19)
(8.77796 -8.07813 -1.6356e-18)
(9.30071 -8.13446 2.56014e-18)
(9.82914 -8.16754 0)
(10.3613 -8.1762 0)
(10.8955 -8.15989 1.9386e-18)
(11.4301 -8.11791 -2.07908e-18)
(11.9635 -8.05008 0)
(12.4945 -7.95645 4.43881e-18)
(13.0216 -7.8368 1.19229e-18)
(13.543 -7.69135 -3.52839e-18)
(14.0569 -7.52025 6.5809e-20)
(14.5614 -7.32383 2.49625e-18)
(15.0545 -7.10176 -3.30491e-18)
(15.5343 -6.85439 6.64245e-19)
(15.9999 -6.58259 0)
(16.4503 -6.28686 0)
(16.8845 -5.9681 4.97092e-18)
(17.3014 -5.62681 7.26921e-19)
(17.7 -5.26343 -2.24096e-18)
(18.0787 -4.87893 -7.53545e-19)
(18.4359 -4.47498 -7.80658e-19)
(18.7705 -4.05323 7.76156e-19)
(19.082 -3.61522 3.99462e-19)
(19.3697 -3.16164 -3.97467e-19)
(19.6325 -2.69426 2.02338e-18)
(19.8699 -2.2141 -1.9903e-18)
(20.0812 -1.72262 -2.20438e-20)
(20.2661 -1.22098 0)
(20.424 -0.710666 -4.02575e-19)
(20.5545 -0.193259 -5.19524e-20)
(20.6576 0.330086 -4.91914e-20)
(-0.0533103 -2.4538 1.69431e-22)
(0.014579 -2.47734 0)
(0.0861718 -2.51886 0)
(0.165647 -2.58198 7.97418e-21)
(0.254221 -2.66723 -8.31506e-21)
(0.353601 -2.7726 -4.8015e-20)
(0.465925 -2.89824 0)
(0.591997 -3.04452 0)
(0.732754 -3.21078 -5.58612e-20)
(0.889197 -3.39582 0)
(1.06274 -3.59861 -1.30703e-19)
(1.25409 -3.81736 1.02048e-19)
(1.46399 -4.05047 -5.48579e-20)
(1.69322 -4.29596 0)
(1.94237 -4.55165 3.32862e-19)
(2.21162 -4.81527 1.95187e-19)
(2.50114 -5.08444 -1.91921e-19)
(2.81094 -5.35681 2.45569e-19)
(3.14108 -5.62983 -7.4638e-19)
(3.4912 -5.90102 5.88367e-19)
(3.86085 -6.16808 -6.47167e-19)
(4.24965 -6.42858 -3.47379e-19)
(4.6567 -6.68029 -3.54624e-19)
(5.08114 -6.92106 1.20923e-18)
(5.522 -7.14881 4.17136e-19)
(5.97828 -7.36154 4.90303e-19)
(6.44875 -7.55738 -4.35894e-19)
(6.93205 -7.73472 0)
(7.42689 -7.89192 0)
(7.9317 -8.02778 0)
(8.44527 -8.141 0)
(8.96602 -8.23065 0)
(9.49256 -8.29607 0)
(10.0233 -8.33653 0)
(10.5561 -8.3517 -8.66025e-19)
(11.0892 -8.34074 7.87983e-19)
(11.6206 -8.30331 8.63654e-19)
(12.1491 -8.23871 -4.38402e-18)
(12.6733 -8.14652 -9.26617e-19)
(13.1923 -8.02702 2.84818e-18)
(13.7047 -7.8808 1.9926e-18)
(14.2091 -7.70892 -2.05111e-18)
(14.7036 -7.51142 9.79045e-19)
(15.1858 -7.28883 1.02997e-18)
(15.6544 -7.04175 -1.08885e-18)
(16.1077 -6.77047 1.0798e-18)
(16.5443 -6.47576 -2.30743e-18)
(16.9634 -6.15808 0)
(17.3643 -5.81797 -5.86867e-19)
(17.7464 -5.45624 1.17862e-18)
(18.1083 -5.07422 -5.91916e-19)
(18.4488 -4.67349 0)
(18.7669 -4.25548 1.21147e-18)
(19.0619 -3.82102 0)
(19.3328 -3.37153 0)
(19.5789 -2.90817 2.85819e-18)
(19.7996 -2.43222 -1.28645e-18)
(19.9942 -1.9454 -3.12348e-19)
(20.1625 -1.44849 3.29449e-19)
(20.3038 -0.943196 0)
(20.4175 -0.430912 8.26299e-20)
(0.0815765 -1.45814 -3.34685e-22)
(0.141816 -1.53606 0)
(0.208981 -1.63545 -6.36561e-22)
(0.286211 -1.75419 -4.95379e-22)
(0.374791 -1.8926 0)
(0.476064 -2.05061 4.13281e-20)
(0.591194 -2.22826 2.74015e-20)
(0.722111 -2.42426 0)
(0.87014 -2.63763 2.85383e-21)
(1.0363 -2.86666 5.62144e-20)
(1.22125 -3.10998 1.10645e-19)
(1.42541 -3.3655 -3.81655e-20)
(1.64914 -3.63126 0)
(1.89266 -3.90507 0)
(2.15612 -4.18476 2.53168e-19)
(2.43938 -4.46815 -1.58825e-19)
(2.74234 -4.75303 -1.69447e-19)
(3.06476 -5.0372 0)
(3.40633 -5.31842 6.42794e-19)
(3.76664 -5.59455 -6.65009e-19)
(4.14514 -5.86359 -4.93517e-19)
(4.54123 -6.12351 -5.40105e-19)
(4.95408 -6.37241 0)
(5.38276 -6.60842 -9.57464e-19)
(5.82632 -6.82973 -3.35402e-19)
(6.2837 -7.03464 3.94197e-19)
(6.75365 -7.22158 4.33043e-19)
(7.23483 -7.3892 0)
(7.72585 -7.53617 0)
(8.22545 -7.66129 0)
(8.73239 -7.76328 0)
(9.24546 -7.84122 0)
(9.76336 -7.89441 0)
(10.2843 -7.92269 0)
(10.8061 -7.92624 -1.90582e-18)
(11.327 -7.9051 6.32969e-19)
(11.8451 -7.8591 -6.93318e-19)
(12.3594 -7.78724 3.4863e-18)
(12.8688 -7.68839 0)
(13.372 -7.56215 1.47334e-18)
(13.868 -7.40876 1.52024e-18)
(14.3546 -7.22919 7.52148e-19)
(14.8305 -7.02424 -8.58256e-19)
(15.2941 -6.79487 -1.65108e-18)
(15.7441 -6.54227 2.56638e-18)
(16.1793 -6.26733 -8.67941e-19)
(16.5981 -5.97079 -1.76542e-18)
(16.9991 -5.65301 0)
(17.3812 -5.31451 0)
(17.7438 -4.9559 -4.78669e-19)
(18.086 -4.5782 -4.67162e-19)
(18.4069 -4.18274 -9.55037e-19)
(18.7059 -3.77088 -9.98022e-19)
(18.9819 -3.34417 0)
(19.2342 -2.90336 -9.84184e-19)
(19.4622 -2.45018 -1.02407e-18)
(19.6654 -1.9853 0)
(19.8431 -1.51097 1.65293e-20)
(19.9947 -1.02742 0)
(20.1201 -0.536379 0)
(20.2194 -0.0389695 -6.30297e-20)
(0.0797624 -1.00381 6.97607e-22)
(0.149008 -1.11927 -8.44014e-22)
(0.229476 -1.253 -3.31566e-22)
(0.321596 -1.40472 -2.47107e-21)
(0.425759 -1.57426 0)
(0.5433 -1.76141 -1.71046e-20)
(0.675554 -1.96565 -2.35294e-20)
(0.823649 -2.18591 0)
(0.988678 -2.42094 3.52977e-21)
(1.17125 -2.6693 -4.78565e-20)
(1.37198 -2.92931 1.06997e-19)
(1.591 -3.19915 1.27894e-19)
(1.82849 -3.47669 0)
(2.08454 -3.75985 -9.80362e-20)
(2.35925 -4.04661 -2.07163e-19)
(2.65235 -4.33494 -1.09786e-19)
(2.96364 -4.62278 4.16813e-19)
(3.29286 -4.9081 -2.99472e-19)
(3.6396 -5.18891 3.33348e-19)
(4.00348 -5.46324 5.63521e-19)
(4.38405 -5.72937 8.11119e-19)
(4.78055 -5.98554 4.54258e-19)
(5.19234 -6.23001 2.18584e-19)
(5.61846 -6.46113 7.85954e-19)
(6.05801 -6.67721 2.57869e-19)
(6.50995 -6.87676 2.91219e-19)
(6.97309 -7.05842 3.39954e-19)
(7.44628 -7.22098 -1.01672e-18)
(7.92834 -7.36336 7.25934e-19)
(8.41801 -7.48431 8.14331e-19)
(8.91418 -7.58274 -1.66203e-18)
(9.4154 -7.65757 8.47395e-19)
(9.92007 -7.70805 -9.03376e-19)
(10.427 -7.73404 4.50029e-19)
(10.9344 -7.7356 4.91467e-19)
(11.4411 -7.71323 5.41447e-19)
(11.9464 -7.6669 -5.34982e-19)
(12.4482 -7.59603 -5.80606e-19)
(12.9449 -7.50042 -1.73156e-18)
(13.4344 -7.37932 -1.245e-18)
(13.9144 -7.23257 -2.51639e-18)
(14.3846 -7.06026 -3.25066e-18)
(14.8438 -6.86178 1.33021e-18)
(15.2919 -6.638 3.0506e-20)
(15.7282 -6.3907 -7.41508e-19)
(16.1505 -6.12191 -7.26152e-19)
(16.5573 -5.8333 4.38797e-18)
(16.9466 -5.52511 -7.34986e-19)
(17.3171 -5.19721 0)
(17.6683 -4.84974 0)
(17.9997 -4.48349 -7.33044e-19)
(18.3106 -4.09995 3.27016e-20)
(18.6002 -3.70043 7.83939e-19)
(18.8677 -3.28624 0)
(19.1123 -2.85873 8.32366e-19)
(19.3332 -2.4192 0)
(19.53 -1.96882 0)
(19.7021 -1.50848 6.31485e-19)
(19.8492 -1.03977 2.0047e-19)
(19.9708 -0.564141 -2.04196e-19)
(20.067 -0.0830548 1.04367e-19)
(0.182441 -0.785874 6.37228e-23)
(0.256284 -0.921044 7.34362e-22)
(0.343957 -1.07357 -8.4527e-22)
(0.445853 -1.2434 1.50092e-21)
(0.561799 -1.43013 -4.15886e-21)
(0.692761 -1.63303 7.0286e-21)
(0.839413 -1.85128 2.88984e-21)
(1.0024 -2.08355 -1.77051e-20)
(1.18258 -2.32861 5.03759e-20)
(1.37998 -2.585 -7.23892e-20)
(1.59503 -2.85103 8.107e-20)
(1.82738 -3.1249 -9.92015e-20)
(2.0772 -3.40452 -5.67861e-20)
(2.34426 -3.68791 0)
(2.62882 -3.97306 1.0051e-19)
(2.93029 -4.2583 9.66657e-20)
(3.24848 -4.54164 0)
(3.58314 -4.8212 2.35815e-19)
(3.93369 -5.09518 0)
(4.29993 -5.3617 -3.07159e-19)
(4.68143 -5.61929 3.32807e-19)
(5.07739 -5.86642 1.07132e-20)
(5.48726 -6.10146 -1.86458e-20)
(5.90997 -6.32301 3.08494e-20)
(6.34467 -6.52942 -9.1614e-19)
(6.79042 -6.71938 -5.21077e-19)
(7.24606 -6.89163 1.07023e-18)
(7.71086 -7.04492 1.15429e-18)
(8.18365 -7.17825 -6.22295e-19)
(8.66332 -7.29061 0)
(9.1484 -7.38118 0)
(9.63698 -7.44953 0)
(10.1277 -7.49503 7.75856e-19)
(10.6193 -7.51679 -3.19369e-18)
(11.1112 -7.51433 1.66751e-18)
(11.6034 -7.48674 -8.47059e-19)
(12.0946 -7.43376 -1.81486e-18)
(12.5839 -7.35687 1.8393e-18)
(13.0676 -7.25711 3.97085e-20)
(13.5425 -7.1361 -1.02704e-18)
(14.0074 -6.99369 1.06051e-18)
(14.46 -6.82739 1.09272e-18)
(14.9013 -6.63486 0)
(15.3322 -6.41477 -1.10085e-18)
(15.752 -6.16957 0)
(16.1601 -5.90303 -1.75932e-18)
(16.5533 -5.6179 5.4474e-19)
(16.9293 -5.31514 0)
(17.2868 -4.99407 -6.34669e-19)
(17.6246 -4.6546 -1.3501e-20)
(17.943 -4.29705 1.34794e-18)
(18.2413 -3.92268 -6.3957e-19)
(18.5191 -3.53286 -3.54097e-19)
(18.7755 -3.12883 6.49936e-19)
(19.0097 -2.71206 -4.31545e-21)
(19.221 -2.28354 3.37944e-19)
(19.4085 -1.84462 1.63028e-19)
(19.5721 -1.3962 3.43314e-19)
(19.7114 -0.939533 -8.61494e-19)
(19.8261 -0.476128 3.45525e-19)
(19.916 -0.00754166 -4.41589e-20)
(0.290984 -0.67898 -3.63068e-22)
(0.378552 -0.828514 0)
(0.480782 -0.99441 1.74436e-21)
(0.598321 -1.17669 0)
(0.730274 -1.37462 1.22518e-21)
(0.877709 -1.58709 1.02029e-20)
(1.04082 -1.81321 1.12699e-20)
(1.22003 -2.05142 3.40909e-20)
(1.41618 -2.30048 4.43954e-21)
(1.62866 -2.55908 6.85979e-21)
(1.85805 -2.82547 1.56407e-21)
(2.10336 -3.09809 -3.80561e-20)
(2.36494 -3.37484 5.47657e-20)
(2.64191 -3.65376 -1.66681e-19)
(2.9353 -3.93291 1.3973e-19)
(3.2441 -4.21119 -9.37945e-21)
(3.56788 -4.48638 -1.70917e-19)
(3.90678 -4.75687 -2.03672e-19)
(4.25976 -5.02106 0)
(4.62689 -5.277 2.39535e-19)
(5.00809 -5.52351 8.6919e-21)
(5.40207 -5.75939 -6.11342e-19)
(5.80879 -5.98295 -2.48511e-20)
(6.22675 -6.19325 -3.28387e-19)
(6.65521 -6.38852 1.14961e-18)
(7.09338 -6.56763 3.66979e-20)
(7.5401 -6.72933 -4.24639e-19)
(7.99501 -6.87212 -4.43775e-20)
(8.45704 -6.99534 0)
(8.92482 -7.09794 0)
(9.39751 -7.1798 0)
(9.8729 -7.24117 0)
(10.3492 -7.28131 0)
(10.8259 -7.29935 6.25576e-20)
(11.3016 -7.29337 -7.12307e-19)
(11.776 -7.26154 -3.90362e-20)
(12.2503 -7.20305 3.49781e-20)
(12.722 -7.11929 7.31699e-19)
(13.1903 -7.01453 1.66643e-18)
(13.6522 -6.8912 -2.51267e-18)
(14.1021 -6.75029 1.74027e-18)
(14.5399 -6.58962 -8.73363e-19)
(14.9633 -6.40325 0)
(15.3746 -6.18906 9.62357e-19)
(15.7767 -5.94908 0)
(16.1672 -5.68712 1.01327e-18)
(16.5457 -5.40724 -1.03685e-18)
(16.908 -5.11054 4.87423e-19)
(17.2515 -4.79661 5.19431e-19)
(17.5758 -4.46541 -5.39214e-19)
(17.8805 -4.11715 3.95748e-20)
(18.1658 -3.753 -9.72227e-21)
(18.4312 -3.37381 1.09263e-18)
(18.6761 -2.98111 -1.12225e-18)
(18.8997 -2.57617 -5.52921e-19)
(19.1009 -2.16034 -2.70596e-19)
(19.2791 -1.73444 -8.59147e-19)
(19.4339 -1.29934 0)
(19.5655 -0.856197 5.78737e-19)
(19.6734 -0.406834 -1.48398e-19)
(19.7573 0.0474941 0)
(0.419526 -0.637337 0)
(0.523179 -0.797608 0)
(0.641961 -0.973475 -1.03545e-21)
(0.777494 -1.1648 -7.21938e-23)
(0.926755 -1.37049 -3.00203e-21)
(1.09194 -1.5889 -1.62566e-20)
(1.27234 -1.81915 8.29267e-21)
(1.46774 -2.05939 -2.46405e-20)
(1.6804 -2.30869 -1.57375e-21)
(1.9075 -2.56584 6.17234e-20)
(2.15134 -2.82914 -1.11075e-19)
(2.40892 -3.09742 0)
(2.68191 -3.36829 0)
(2.96747 -3.64004 1.90003e-19)
(3.26923 -3.91024 1.19712e-19)
(3.58449 -4.17916 -2.62108e-19)
(3.91267 -4.44402 4.22987e-19)
(4.2551 -4.70335 1.7439e-19)
(4.60932 -4.9562 -3.48685e-19)
(4.97613 -5.19985 -2.08813e-19)
(5.3565 -5.4335 2.37768e-19)
(5.7472 -5.65684 -6.08991e-21)
(6.15018 -5.86737 0)
(6.56232 -6.06553 6.03644e-19)
(6.98343 -6.24878 -9.88062e-19)
(7.41341 -6.41598 3.28755e-19)
(7.84984 -6.56645 7.21209e-19)
(8.29401 -6.69787 -1.99395e-18)
(8.74371 -6.81049 4.05504e-19)
(9.19782 -6.90347 0)
(9.65691 -6.9758 0)
(10.1182 -7.02905 0)
(10.581 -7.06205 5.44692e-19)
(11.0438 -7.07318 1.68172e-18)
(11.5041 -7.0628 -1.1305e-18)
(11.9598 -7.02875 6.20347e-19)
(12.4116 -6.96716 6.81717e-19)
(12.8623 -6.8816 -1.35081e-18)
(13.3112 -6.77227 0)
(13.7567 -6.64354 -1.39237e-18)
(14.1964 -6.50035 7.20712e-19)
(14.6209 -6.33864 3.29597e-20)
(15.0285 -6.156 -2.86001e-20)
(15.4217 -5.94749 7.73976e-19)
(15.8014 -5.71461 3.40859e-20)
(16.1727 -5.46163 -2.46917e-18)
(16.5336 -5.18911 8.38258e-19)
(16.8798 -4.89969 -1.7433e-18)
(17.2092 -4.59273 0)
(17.5188 -4.26965 0)
(17.8094 -3.93029 1.82953e-18)
(18.0807 -3.57651 -4.36785e-19)
(18.3327 -3.20822 -9.44882e-19)
(18.5655 -2.82676 -4.52752e-19)
(18.7778 -2.43423 1.44515e-18)
(18.9684 -2.03164 7.27247e-19)
(19.1365 -1.6193 2.50845e-19)
(19.2818 -1.19839 -4.93897e-21)
(19.4047 -0.769121 -2.50791e-19)
(19.5055 -0.333934 0)
(19.5831 0.105381 0)
(0.566737 -0.637359 4.16504e-22)
(0.689265 -0.805316 0)
(0.825326 -0.988062 0)
(0.981379 -1.18593 -3.92711e-22)
(1.14801 -1.39684 0)
(1.33169 -1.6183 6.89506e-21)
(1.52937 -1.84984 8.03415e-21)
(1.73967 -2.08909 -1.6585e-20)
(1.96999 -2.33587 0)
(2.21019 -2.58911 -3.6893e-20)
(2.46946 -2.847 4.34587e-21)
(2.73762 -3.10918 0)
(3.02284 -3.37246 0)
(3.31394 -3.63569 -8.01463e-20)
(3.62439 -3.89396 8.71151e-20)
(3.94591 -4.15238 -1.07589e-19)
(4.2766 -4.40571 -1.22679e-19)
(4.62259 -4.65241 0)
(4.97673 -4.89371 1.55692e-19)
(5.34167 -5.12384 -3.27049e-19)
(5.72204 -5.34325 -3.63556e-19)
(6.1072 -5.55382 -4.22436e-19)
(6.50669 -5.74986 -3.5536e-20)
(6.91201 -5.93607 -5.27436e-19)
(7.32469 -6.10686 5.07672e-19)
(7.74653 -6.26138 5.615e-19)
(8.17074 -6.40062 -6.3512e-19)
(8.60397 -6.51924 3.43676e-20)
(9.04151 -6.62163 4.45606e-20)
(9.47959 -6.70551 -7.23808e-19)
(9.92407 -6.76804 0)
(10.3696 -6.81354 -8.72002e-19)
(10.8162 -6.83674 1.72885e-18)
(11.2658 -6.83766 -4.6105e-20)
(11.7128 -6.82094 1.0002e-18)
(12.1491 -6.78529 -9.89754e-19)
(12.5819 -6.72392 1.08434e-18)
(13.0067 -6.63955 1.13195e-18)
(13.4299 -6.52975 -2.24318e-18)
(13.8583 -6.39697 1.23621e-18)
(14.2816 -6.24707 1.2187e-18)
(14.6964 -6.0809 1.90758e-18)
(15.0904 -5.89733 -6.67838e-19)
(15.4646 -5.69067 0)
(15.825 -5.46849 3.44969e-20)
(16.1718 -5.2282 7.2058e-19)
(16.5131 -4.96448 -7.00272e-19)
(16.8417 -4.68365 7.56773e-19)
(17.155 -4.38309 0)
(17.449 -4.06965 0)
(17.7246 -3.73949 -4.10429e-20)
(17.9808 -3.39707 8.06418e-19)
(18.2184 -3.03874 0)
(18.4383 -2.66815 3.99595e-19)
(18.639 -2.28926 4.02421e-19)
(18.8183 -1.90098 -8.17776e-19)
(18.9759 -1.50288 -4.00563e-19)
(19.1102 -1.09729 -2.12563e-19)
(19.2235 -0.681538 0)
(19.3168 -0.261704 0)
(19.3876 0.161123 2.53584e-20)
(0.73352 -0.662966 -1.17645e-21)
(0.880951 -0.83497 2.18384e-21)
(1.03263 -1.0199 -6.96311e-23)
(1.21548 -1.22228 -1.19266e-21)
(1.3947 -1.43529 4.08312e-22)
(1.59646 -1.65955 -1.74349e-22)
(1.81191 -1.88837 0)
(2.03272 -2.12278 1.61887e-21)
(2.28601 -2.36564 -1.92989e-20)
(2.53312 -2.61181 0)
(2.81364 -2.86346 7.4696e-20)
(3.08487 -3.11939 -4.58563e-20)
(3.3859 -3.37548 4.67213e-20)
(3.67503 -3.63058 5.87605e-20)
(3.99689 -3.87143 -7.52853e-20)
(4.32439 -4.12066 -9.07885e-20)
(4.6533 -4.36242 2.97854e-19)
(5.00707 -4.5933 -3.08928e-19)
(5.35451 -4.82591 0)
(5.71276 -5.04388 -9.59952e-21)
(6.09987 -5.24786 8.95545e-19)
(6.47157 -5.44817 -3.15637e-20)
(6.87525 -5.62476 -4.15555e-19)
(7.26753 -5.80203 7.98318e-19)
(7.66982 -5.96258 0)
(8.08654 -6.10475 -4.84883e-19)
(8.49161 -6.23404 -4.94015e-19)
(8.91632 -6.33791 1.0896e-18)
(9.34404 -6.43024 -5.142e-21)
(9.76313 -6.5068 6.38945e-19)
(10.1956 -6.55771 -1.3018e-18)
(10.6191 -6.59856 2.06287e-18)
(11.0443 -6.6148 -1.47899e-18)
(11.4779 -6.60477 -1.54442e-18)
(11.9147 -6.57792 0)
(12.3327 -6.53845 8.67335e-19)
(12.7576 -6.46927 0)
(13.158 -6.39288 -5.49267e-21)
(13.5506 -6.29188 1.03032e-18)
(13.9528 -6.15664 -1.90182e-18)
(14.3531 -6.00453 -7.604e-21)
(14.7548 -5.83167 -2.12267e-18)
(15.1318 -5.64278 0)
(15.4968 -5.43552 -5.85815e-19)
(15.841 -5.22356 2.27212e-18)
(16.1599 -5.00059 -5.76172e-19)
(16.4817 -4.74592 6.10277e-19)
(16.7872 -4.47096 0)
(17.0862 -4.17611 6.28505e-19)
(17.3618 -3.87279 -1.89617e-18)
(17.6235 -3.54943 -2.5383e-20)
(17.863 -3.21842 0)
(18.0828 -2.87252 6.47442e-19)
(18.2905 -2.51327 -1.93974e-20)
(18.4808 -2.14562 0)
(18.6459 -1.76987 3.62868e-19)
(18.7945 -1.394 -3.29367e-19)
(18.9153 -1.00568 3.4523e-19)
(19.0172 -0.604799 3.41587e-19)
(19.106 -0.196804 -1.71559e-19)
(19.1667 0.210369 -6.47904e-20)
(20.7322 0.858574 1.52936e-19)
(20.7788 1.39053 -5.18443e-20)
(20.7978 1.92438 0)
(20.7889 2.45844 0)
(20.7524 2.99097 8.20559e-19)
(20.6885 3.52068 1.17976e-18)
(20.5972 4.04586 -1.21278e-18)
(20.4788 4.56506 -3.9896e-19)
(20.3334 5.07757 3.99028e-19)
(20.1618 5.58189 7.79013e-19)
(19.9642 6.07734 -7.79707e-19)
(19.7411 6.56216 -7.56289e-19)
(19.494 7.03501 3.76059e-18)
(19.224 7.49465 7.3004e-19)
(18.9313 7.93995 -6.43997e-18)
(18.6166 8.36945 0)
(18.2807 8.78226 0)
(17.925 9.17744 6.67049e-19)
(17.5502 9.55447 1.96884e-18)
(17.1572 9.91204 -5.05564e-18)
(16.7474 10.2495 -7.42573e-20)
(16.3217 10.5665 1.15635e-18)
(15.8811 10.8617 1.18841e-18)
(15.4269 11.1351 -4.42348e-18)
(14.9603 11.3865 0)
(14.4819 11.6157 2.07085e-18)
(13.9928 11.8213 -1.91476e-18)
(13.495 12.0023 0)
(12.9898 12.1585 0)
(12.4789 12.2896 -8.72885e-19)
(11.9633 12.3958 -1.58943e-18)
(11.4445 12.4766 2.25971e-18)
(10.9238 12.5322 0)
(10.4024 12.5628 0)
(9.88165 12.5682 1.12462e-18)
(9.36277 12.5488 -1.06426e-18)
(8.84709 12.5046 0)
(8.33588 12.4361 1.65036e-18)
(7.83015 12.3437 3.3824e-19)
(7.33116 12.2276 -9.28896e-19)
(6.84012 12.0883 3.44617e-20)
(6.35841 11.9266 3.68186e-19)
(5.8868 11.7432 -3.46443e-19)
(5.42649 11.5382 5.854e-20)
(4.97863 11.3129 0)
(4.54394 11.0678 0)
(4.12343 10.8036 -2.83165e-19)
(3.71803 10.5213 -5.31979e-20)
(3.32871 10.2217 2.69048e-19)
(2.95616 9.90617 1.07976e-19)
(2.60098 9.57539 1.5942e-19)
(2.26398 9.23029 -1.61531e-19)
(1.94589 8.87216 -1.05265e-19)
(1.647 8.5022 1.06722e-19)
(1.36801 8.12134 -6.28681e-19)
(1.10929 7.73103 6.81753e-19)
(0.871256 7.33243 -1.12874e-21)
(0.654185 6.92704 0)
(0.458236 6.51593 1.71152e-19)
(0.283736 6.1002 2.3141e-20)
(0.130749 5.68105 2.43997e-20)
(20.503 0.0860854 -8.26097e-20)
(20.5609 0.605551 0)
(20.5917 1.12714 0)
(20.5951 1.64972 9.45291e-19)
(20.5711 2.17156 -6.3151e-19)
(20.5203 2.69104 -2.22287e-18)
(20.4425 3.20736 0)
(20.3377 3.71875 0)
(20.2062 4.22423 -1.20564e-18)
(20.0484 4.72204 0)
(19.8648 5.21096 -1.76247e-18)
(19.6563 5.68887 1.16844e-18)
(19.4244 6.15479 -5.79844e-19)
(19.1694 6.60865 0)
(18.8915 7.04947 2.28689e-18)
(18.5914 7.47584 1.06911e-18)
(18.2699 7.88662 -1.07157e-18)
(17.9282 8.28064 1.01659e-18)
(17.567 8.65729 -3.00332e-18)
(17.1873 9.01541 2.01974e-18)
(16.7905 9.35389 -1.95898e-18)
(16.3775 9.67231 -9.98337e-19)
(15.9493 9.96949 -9.01409e-19)
(15.5073 10.2447 2.61011e-18)
(15.0523 10.4975 8.35607e-19)
(14.5853 10.728 7.61677e-19)
(14.1079 10.9356 -6.87763e-19)
(13.6216 11.1195 0)
(13.1275 11.2793 0)
(12.627 11.4142 0)
(12.1213 11.5245 0)
(11.6118 11.6098 0)
(11.1 11.67 0)
(10.5868 11.7054 0)
(10.0739 11.7157 -4.67414e-19)
(9.5624 11.7011 4.13499e-19)
(9.05364 11.6617 3.26051e-19)
(8.54882 11.5978 -1.57767e-18)
(8.04906 11.5099 -2.4082e-19)
(7.55569 11.3982 7.16477e-19)
(7.06992 11.2631 3.85047e-19)
(6.5931 11.1052 -2.96653e-19)
(6.12608 10.9252 1.04385e-19)
(5.67021 10.7234 6.94426e-20)
(5.22656 10.5006 1.71907e-20)
(4.79593 10.2576 -1.73875e-20)
(4.37938 9.99498 1.44016e-19)
(3.97786 9.71367 0)
(3.59242 9.41459 9.30696e-20)
(3.22381 9.09875 -2.07947e-19)
(2.87268 8.76703 1.15177e-19)
(2.53993 8.42033 0)
(2.22638 8.05979 -3.3016e-19)
(1.93227 7.6866 0)
(1.6585 7.3017 0)
(1.4053 6.90651 -1.00399e-18)
(1.17328 6.50226 4.82085e-19)
(0.962627 6.09038 1.32314e-19)
(0.773902 5.67189 -1.38332e-19)
(0.607392 5.24807 0)
(0.463325 4.82015 -3.87738e-20)
(20.2926 0.462133 6.30046e-20)
(20.339 0.965262 0)
(20.3583 1.46901 -2.50766e-19)
(20.3508 1.97269 -1.65089e-20)
(20.3172 2.47508 0)
(20.2574 2.97611 2.00545e-18)
(20.1713 3.47477 9.77512e-19)
(20.0588 3.96903 0)
(19.9202 4.45661 3.21044e-20)
(19.7567 4.93612 9.42934e-19)
(19.569 5.40618 1.43047e-18)
(19.3579 5.86504 -4.7019e-19)
(19.1233 6.31156 0)
(18.866 6.74539 0)
(18.5868 7.16575 1.72501e-18)
(18.2865 7.57158 -8.49567e-19)
(17.966 7.96183 -7.95143e-19)
(17.6261 8.33556 0)
(17.2678 8.692 2.3974e-18)
(16.8921 9.03022 -2.29851e-18)
(16.5001 9.34932 -1.46562e-18)
(16.093 9.64862 -1.4162e-18)
(15.6717 9.92724 0)
(15.2374 10.1845 -2.01795e-18)
(14.7912 10.4196 -6.57778e-19)
(14.3344 10.6322 5.98538e-19)
(13.8681 10.8219 5.88057e-19)
(13.3936 10.9884 0)
(12.9121 11.1314 0)
(12.4247 11.2505 0)
(11.9328 11.3457 0)
(11.4376 11.4168 0)
(10.9404 11.4637 0)
(10.4425 11.4866 0)
(9.94519 11.4853 -9.99315e-19)
(9.44967 11.4601 3.19229e-19)
(8.95717 11.4109 -2.50356e-19)
(8.46883 11.3381 1.18753e-18)
(7.98578 11.2422 0)
(7.50924 11.1234 3.22075e-19)
(7.04038 10.9822 2.55326e-19)
(6.58042 10.8191 1.06631e-19)
(6.13035 10.6348 -5.50874e-20)
(5.69134 10.4296 -5.54296e-20)
(5.26439 10.2043 -2.93183e-20)
(4.85038 9.95957 1.87317e-20)
(4.45018 9.69609 1.42008e-19)
(4.06474 9.41472 0)
(3.69495 9.1164 0)
(3.34164 8.80199 9.03878e-20)
(3.00554 8.47241 1.06864e-19)
(2.68729 8.12862 2.29092e-19)
(2.38765 7.77156 2.59865e-19)
(2.10702 7.40238 0)
(1.8461 7.02195 3.17848e-19)
(1.6051 6.63177 3.48893e-19)
(1.38452 6.23289 0)
(1.18471 5.8268 -2.00592e-21)
(1.00619 5.41443 0)
(0.849189 4.99709 0)
(0.713967 4.57589 2.97147e-20)
(20.1376 0.402626 -1.04305e-19)
(20.1823 0.891591 2.03781e-19)
(20.2009 1.38232 -4.01199e-19)
(20.1933 1.87332 -2.1548e-19)
(20.1592 2.36342 0)
(20.0983 2.85189 -8.33299e-19)
(20.0119 3.33694 -8.2559e-19)
(19.9012 3.81864 0)
(19.7659 4.29426 3.41085e-20)
(19.6063 4.76238 -7.9526e-19)
(19.4229 5.22165 1.50003e-18)
(19.216 5.67116 1.47507e-18)
(18.9863 6.10952 0)
(18.7343 6.53545 -7.16774e-19)
(18.461 6.94796 -1.42294e-18)
(18.1671 7.34587 -7.01465e-19)
(17.8535 7.72833 2.05021e-18)
(17.521 8.09445 -1.31598e-18)
(17.1705 8.44352 1.27883e-18)
(16.8031 8.77469 1.8535e-18)
(16.4199 9.08718 2.40389e-18)
(16.0219 9.38022 1.18674e-18)
(15.6102 9.653 5.45801e-19)
(15.1859 9.90485 1.64649e-18)
(14.7499 10.1352 5.03303e-19)
(14.3034 10.3437 5.03028e-19)
(13.8477 10.5297 4.53792e-19)
(13.3839 10.6931 -1.32049e-18)
(12.9133 10.8335 8.1628e-19)
(12.4371 10.9506 7.58587e-19)
(11.9564 11.0442 -1.46985e-18)
(11.4725 11.1142 7.11171e-19)
(10.9866 11.1608 -6.14846e-19)
(10.5002 11.1838 2.8784e-19)
(10.0144 11.1832 2.76879e-19)
(9.53036 11.1591 2.21746e-19)
(9.04933 11.1117 -2.2324e-19)
(8.57235 11.0412 -2.08769e-19)
(8.10054 10.9481 -4.67378e-19)
(7.63511 10.8326 -2.65971e-19)
(7.17721 10.6954 -4.01996e-19)
(6.72793 10.5368 -3.52896e-19)
(6.28846 10.3575 9.26875e-20)
(5.85979 10.1579 6.73455e-21)
(5.44296 9.93868 1.48269e-20)
(5.03885 9.70039 4.69408e-20)
(4.64815 9.44382 -3.61911e-19)
(4.27186 9.1698 7.36877e-20)
(3.9108 8.87928 0)
(3.56588 8.57304 0)
(3.23768 8.25192 1.64043e-19)
(2.92701 7.91704 3.64893e-22)
(2.63445 7.56919 -2.10567e-19)
(2.36047 7.20944 0)
(2.10564 6.8386 -2.5795e-19)
(1.87012 6.45814 0)
(1.65447 6.06921 0)
(1.45888 5.67311 -2.44194e-19)
(1.28415 5.27097 -8.64923e-20)
(1.13024 4.86395 8.97683e-20)
(0.997744 4.45325 -4.75008e-20)
(19.9808 0.46523 1.88858e-21)
(20.0204 0.941111 -1.76251e-19)
(20.0346 1.41886 5.16095e-19)
(20.0235 1.89703 3.41961e-19)
(19.9871 2.3744 -5.0329e-19)
(19.9259 2.84923 3.3646e-19)
(19.84 3.31914 -2.93035e-21)
(19.7292 3.78383 -6.49915e-19)
(19.5947 4.24303 9.87652e-19)
(19.4368 4.69517 -1.28597e-18)
(19.256 5.13905 1.20885e-18)
(19.0526 5.5734 -1.28485e-18)
(18.8272 5.99709 -6.16622e-19)
(18.5803 6.40906 0)
(18.3129 6.80805 6.3266e-19)
(18.0257 7.19289 5.39153e-19)
(17.7192 7.56289 0)
(17.3944 7.91708 1.06022e-18)
(17.0522 8.25479 0)
(16.6936 8.57529 -1.04615e-18)
(16.3198 8.87773 9.21459e-19)
(15.9318 9.16135 -4.09116e-20)
(15.5307 9.42527 -4.49359e-20)
(15.1174 9.6688 9.64032e-22)
(14.6928 9.89153 -1.72598e-18)
(14.2581 10.093 -7.82026e-19)
(13.8144 10.2728 1.52673e-18)
(13.3629 10.4307 1.40719e-18)
(12.9049 10.5663 -7.00695e-19)
(12.4414 10.6793 0)
(11.9737 10.7695 0)
(11.5028 10.8369 0)
(11.03 10.8816 5.267e-19)
(10.5566 10.9036 -1.83268e-18)
(10.084 10.9026 8.46282e-19)
(9.6132 10.8788 -4.02118e-19)
(9.14526 10.8324 -6.32891e-19)
(8.68126 10.7635 5.90769e-19)
(8.22218 10.6726 2.06427e-20)
(7.7693 10.5602 -1.7613e-19)
(7.32372 10.4266 1.94863e-19)
(6.8865 10.2725 1.17519e-19)
(6.45884 10.0983 0)
(6.04175 9.90451 -1.42234e-20)
(5.63619 9.69175 0)
(5.2431 9.46036 1.1609e-19)
(4.86295 9.21129 -5.26917e-20)
(4.49672 8.94529 0)
(4.14508 8.66336 1.07282e-19)
(3.80929 8.36617 1.93564e-20)
(3.48962 8.05448 -2.74003e-19)
(3.18689 7.72942 1.58125e-19)
(2.90186 7.39179 1.02116e-19)
(2.63471 7.04256 -1.88127e-19)
(2.38632 6.6825 7.93727e-21)
(2.15621 6.3129 -1.1274e-19)
(1.94541 5.93502 -6.04193e-20)
(1.7538 5.55016 -1.33605e-19)
(1.58251 5.15944 3.53124e-19)
(1.43117 4.76399 -1.4968e-19)
(1.30087 4.36494 1.97659e-20)
(19.817 0.50565 3.71215e-20)
(19.8523 0.966527 0)
(19.8631 1.42892 -5.77412e-19)
(19.8493 1.8917 0)
(19.8112 2.35346 2.86882e-19)
(19.7491 2.81278 8.3788e-19)
(19.6629 3.26892 5.4801e-19)
(19.5531 3.71999 1.11005e-18)
(19.42 4.16517 9.32032e-21)
(19.2644 4.60348 -7.51579e-21)
(19.0867 5.03338 -6.05544e-20)
(18.8872 5.45391 -5.25955e-19)
(18.6664 5.864 5.06561e-19)
(18.4249 6.26274 -1.48479e-18)
(18.1638 6.64894 1.00607e-18)
(17.8836 7.02136 -4.83008e-20)
(17.5847 7.37926 -9.09989e-19)
(17.2681 7.72176 -9.31183e-19)
(16.9345 8.04837 0)
(16.585 8.35853 8.31294e-19)
(16.2211 8.65125 -3.79831e-20)
(15.8435 8.92581 -1.63091e-18)
(15.4535 9.18128 -5.07338e-21)
(15.0517 9.41678 -6.7404e-19)
(14.639 9.63215 2.04775e-18)
(14.2165 9.82693 -3.5417e-20)
(13.7853 10.0008 -6.52184e-19)
(13.3466 10.1536 -6.92073e-20)
(12.9017 10.2848 0)
(12.4517 10.3942 0)
(11.9976 10.4814 0)
(11.5401 10.5467 0)
(11.081 10.5899 0)
(10.6212 10.6115 5.2464e-20)
(10.1625 10.6108 -3.26335e-19)
(9.70545 10.588 3.94112e-20)
(9.25123 10.5431 5.21399e-20)
(8.80079 10.4762 2.02501e-19)
(8.35489 10.3882 3.79828e-19)
(7.91497 10.2794 -4.6231e-19)
(7.48215 10.1501 2.6564e-19)
(7.05728 10.001 -7.41418e-20)
(6.64178 9.83256 0)
(6.23663 9.64533 1.24079e-20)
(5.8427 9.4399 0)
(5.46118 9.21616 -6.27272e-20)
(5.09175 8.97539 9.96691e-20)
(4.73604 8.71823 -6.44025e-20)
(4.39404 8.44586 -7.87998e-20)
(4.06772 8.15866 1.1255e-19)
(3.75684 7.8573 1.82552e-20)
(3.46225 7.5431 1.51173e-20)
(3.18497 7.21657 -3.01557e-19)
(2.92483 6.87884 3.40635e-19)
(2.68305 6.53027 1.85268e-19)
(2.45841 6.17249 9.65853e-20)
(2.25268 5.8065 3.19746e-19)
(2.0647 5.43382 0)
(1.8968 5.05541 -2.42729e-19)
(1.74779 4.67251 6.4298e-20)
(1.61958 4.28596 0)
(19.6373 0.54835 0)
(19.6678 0.993736 0)
(19.6748 1.44059 2.50569e-19)
(19.6583 1.88753 -4.79277e-19)
(19.6183 2.33353 -2.4681e-19)
(19.5553 2.77738 -1.19774e-18)
(19.4693 3.21743 4.61438e-19)
(19.3603 3.65258 -9.53453e-19)
(19.2288 4.08253 1.57498e-20)
(19.0758 4.50605 1.34833e-18)
(18.9018 4.92116 -1.79751e-18)
(18.7066 5.32704 0)
(18.4908 5.72257 0)
(18.2551 6.10756 1.69647e-18)
(18.0007 6.48054 8.18365e-19)
(17.7282 6.8396 -1.66025e-18)
(17.4375 7.18464 2.37461e-18)
(17.1295 7.51474 7.53561e-19)
(16.8049 7.82957 -1.47687e-18)
(16.4649 8.12893 -7.39989e-19)
(16.1113 8.41133 6.81034e-19)
(15.7447 8.67645 -7.05548e-20)
(15.3664 8.92319 0)
(14.9771 9.15003 1.2705e-18)
(14.5768 9.35758 -1.78825e-18)
(14.1672 9.5453 5.75675e-19)
(13.7492 9.71274 1.03212e-18)
(13.3238 9.86029 -2.49973e-18)
(12.8929 9.98685 4.88678e-19)
(12.457 10.0927 0)
(12.0175 10.1764 0)
(11.5742 10.2397 0)
(11.1297 10.2814 3.32301e-19)
(10.6842 10.3031 9.36721e-19)
(10.2405 10.3029 -5.48508e-19)
(9.79813 10.2812 2.36374e-19)
(9.35858 10.2382 2.2477e-19)
(8.92286 10.1735 -3.96227e-19)
(8.49087 10.0884 0)
(8.06458 9.98349 -2.06819e-19)
(7.64539 9.85858 1.07746e-19)
(7.23328 9.71474 1.34671e-20)
(6.83036 9.55248 1.0046e-20)
(6.43778 9.37224 1.09833e-20)
(6.05586 9.17492 -1.08109e-20)
(5.68703 8.95918 2.07505e-19)
(5.3287 8.72745 -8.37281e-20)
(4.98434 8.47958 2.58935e-19)
(4.65205 8.21771 0)
(4.3362 7.94144 0)
(4.03461 7.65108 -4.35907e-19)
(3.74832 7.34864 1.17503e-19)
(3.47973 7.03414 2.67446e-19)
(3.22668 6.70884 1.55795e-19)
(2.99266 6.37243 -4.9061e-19)
(2.77338 6.02714 -2.72584e-19)
(2.5733 5.67361 -9.9793e-20)
(2.38856 5.31405 -1.96083e-21)
(2.22476 4.94887 1.06578e-19)
(2.07765 4.57931 0)
(1.95199 4.20605 0)
(19.4359 0.587796 -2.5358e-20)
(19.4611 1.01664 0)
(19.464 1.44702 0)
(19.4441 1.87749 2.12633e-19)
(19.4021 2.30674 0)
(19.3384 2.73406 8.16751e-19)
(19.2534 3.1575 4.01607e-19)
(19.1455 3.57564 -7.88756e-19)
(19.0152 3.99022 0)
(18.8652 4.39917 -7.9883e-19)
(18.6961 4.79788 4.39606e-20)
(18.5058 5.18839 0)
(18.2959 5.56813 0)
(18.0661 5.93851 -7.41613e-19)
(17.8188 6.29845 6.83873e-19)
(17.5554 6.64292 -7.07648e-19)
(17.2734 6.97444 -6.89104e-19)
(16.9745 7.29182 0)
(16.6597 7.59372 6.49529e-19)
(16.3296 7.88179 -1.18246e-18)
(15.9872 8.15299 -1.14073e-18)
(15.6322 8.40828 -1.17001e-18)
(15.2659 8.64657 -8.50553e-21)
(14.8908 8.86355 -9.60045e-19)
(14.5033 9.0628 1.01997e-18)
(14.1067 9.24343 9.16178e-19)
(13.7031 9.40348 -9.28318e-19)
(13.2912 9.5458 5.86162e-20)
(12.8753 9.6669 1.11921e-22)
(12.4536 9.76998 -7.70529e-19)
(12.0304 9.84899 0)
(11.6011 9.91108 -6.07077e-19)
(11.1727 9.95052 1.16766e-18)
(10.7413 9.97351 -4.49785e-20)
(10.3147 9.97424 4.93617e-19)
(9.88834 9.95379 -3.97053e-19)
(9.46458 9.91311 3.31961e-19)
(9.04565 9.85018 2.29526e-19)
(8.6283 9.76837 -5.10226e-19)
(8.2162 9.66759 2.08374e-19)
(7.81229 9.54729 1.2283e-19)
(7.4128 9.40883 1.15615e-19)
(7.02253 9.25273 -1.88348e-20)
(6.64353 9.07977 0)
(6.27291 8.89197 8.95012e-21)