/*--------------------------------*- C++ -*----------------------------------*\
| =========                 |                                                 |
| \\      /  F ield         | OpenFOAM: The Open Source CFD Toolbox           |
|  \\    /   O peration     | Version:  2.3.1                                 |
|   \\  /    A nd           | Web:      www.OpenFOAM.org                      |
|    \\/     M anipulation  |                                                 |
\*---------------------------------------------------------------------------*/
FoamFile
{
    version     2.0;
    format      ascii;
    class       volScalarField;
    location    "0.42";
    object      nut;
}
// * * * * * * * * * * * * * * * * * * * * * * * * * * * * * * * * * * * * * //

dimensions      [0 2 -1 0 0 0 0];

internalField   nonuniform List<scalar> 
9648
(
0.000272245
0.00027293
0.000272837
0.000272696
0.000272418
0.000271908
0.000271198
0.000270314
0.000269237
0.00026795
0.000266445
0.00026476
0.000262893
0.000260855
0.000258696
0.000256461
0.000254173
0.00025185
0.000249536
0.000247271
0.00024507
0.000242959
0.000240959
0.000239071
0.000237297
0.00023565
0.000234139
0.000232758
0.000231499
0.000230369
0.000229362
0.000228472
0.000227695
0.000227029
0.000226465
0.000226007
0.000225653
0.000225396
0.000225223
0.000225134
0.000225138
0.000225222
0.000225384
0.000225631
0.000225949
0.000226329
0.000226786
0.00022733
0.000227953
0.000228639
0.000229403
0.000230264
0.000231197
0.000232207
0.000233307
0.000234497
0.000235749
0.00023701
0.000238291
0.00023959
0.000240886
0.000449464
0.000454987
0.000461129
0.000467718
0.000474599
0.00048135
0.000488798
0.000498734
0.000511608
0.000527239
0.000545731
0.000567392
0.000592172
0.000619935
0.000650521
0.00068384
0.000719646
0.000757571
0.000797286
0.000838619
0.000881231
0.000924886
0.000969407
0.00101452
0.00105995
0.00110555
0.00115123
0.0011968
0.00124212
0.00128709
0.0013317
0.00137583
0.00141936
0.00146237
0.00150476
0.00154644
0.00158749
0.00162792
0.00166764
0.00170649
0.00174453
0.00178186
0.00181836
0.00185394
0.00188872
0.00192244
0.00195508
0.00198682
0.00201772
0.00204757
0.00207655
0.00210449
0.00213161
0.00215743
0.00218261
0.00220692
0.002231
0.00225383
0.0022761
0.00229806
0.00231993
0.0007706
0.00081172
0.000853177
0.00089298
0.000932947
0.00097635
0.00102218
0.00107182
0.00112492
0.00118213
0.00124275
0.00130732
0.0013757
0.00144779
0.00152337
0.00160214
0.00168377
0.0017677
0.00185346
0.00194065
0.00202883
0.00211769
0.0022068
0.00229585
0.00238455
0.00247268
0.00256012
0.00264658
0.00273203
0.00281633
0.00289934
0.00298105
0.00306148
0.0031405
0.00321813
0.00329448
0.00336943
0.00344307
0.00351533
0.00358619
0.00365569
0.00372372
0.00379047
0.00385589
0.00391989
0.00398246
0.00404355
0.00410338
0.00416171
0.00421868
0.00427431
0.00432864
0.00438227
0.0044337
0.00448526
0.00453459
0.0045836
0.00462953
0.00467557
0.00472074
0.00476521
0.00123052
0.00131195
0.00139305
0.00147255
0.00155215
0.00163396
0.00171847
0.00180642
0.00189788
0.00199348
0.00209288
0.00219641
0.00230378
0.00241502
0.00252968
0.00264739
0.00276768
0.00288994
0.00301364
0.00313826
0.00326337
0.00338846
0.00351322
0.00363732
0.00376057
0.00388271
0.00400361
0.00412308
0.00424104
0.00435727
0.00447183
0.00458465
0.00469567
0.0048051
0.00491286
0.00501905
0.00512359
0.00522655
0.00532785
0.00542756
0.00552567
0.00562224
0.00571723
0.00581078
0.00590276
0.00599319
0.00608211
0.00616957
0.00625536
0.00633953
0.00642258
0.0065034
0.00658279
0.00666016
0.00673722
0.00681201
0.00688467
0.00695524
0.00702417
0.00709139
0.00715594
0.00176836
0.00188094
0.00199447
0.00210753
0.00222112
0.0023371
0.00245645
0.00257962
0.00270711
0.00283921
0.00297573
0.00311659
0.00326161
0.00341058
0.00356295
0.00371805
0.00387526
0.00403403
0.00419373
0.00435383
0.00451379
0.00467316
0.00483153
0.00498877
0.00514472
0.00529923
0.00545205
0.00560305
0.005752
0.00589883
0.00604348
0.00618597
0.00632654
0.00646515
0.0066019
0.00673685
0.00686994
0.00700102
0.00713016
0.00725735
0.00738271
0.00750618
0.00762789
0.0077478
0.00786587
0.00798208
0.00809632
0.00820865
0.00831927
0.00842751
0.00853402
0.00863839
0.00874006
0.00883926
0.00893645
0.0090318
0.00912404
0.00921378
0.00930105
0.00938525
0.00946631
0.00231818
0.00245229
0.00259233
0.00273557
0.00288169
0.00303155
0.00318605
0.00334571
0.00351053
0.00368054
0.00385537
0.0040345
0.00421778
0.00440469
0.00459484
0.0047874
0.00498132
0.0051763
0.00537142
0.00556625
0.00576023
0.00595278
0.00614388
0.00633318
0.00652081
0.00670658
0.00689018
0.00707138
0.00724994
0.00742567
0.00759886
0.00776955
0.00793793
0.00810425
0.00826823
0.00843
0.00858957
0.00874672
0.00890145
0.00905382
0.0092037
0.00935131
0.00949666
0.00963975
0.0097805
0.00991895
0.0100553
0.0101885
0.0103194
0.0104477
0.0105733
0.0106961
0.0108159
0.0109322
0.0110459
0.011156
0.011263
0.011367
0.0114677
0.0115638
0.0116571
0.00285142
0.00300242
0.00316803
0.00334197
0.003522
0.00370774
0.00389962
0.00409781
0.00430208
0.00451168
0.00472631
0.00494482
0.00516689
0.00539199
0.00562041
0.00585063
0.0060814
0.00631258
0.00654287
0.0067718
0.00699932
0.00722456
0.00744779
0.00766843
0.00788665
0.00810247
0.00831537
0.00852556
0.00873196
0.00893509
0.00913531
0.00933216
0.00952653
0.00971831
0.00990726
0.0100933
0.0102769
0.0104573
0.0106349
0.0108095
0.0109809
0.011149
0.0113142
0.0114766
0.0116355
0.0117915
0.0119446
0.0120942
0.0122409
0.012384
0.0125237
0.0126598
0.0127919
0.0129203
0.0130442
0.0131647
0.0132814
0.0133939
0.0135018
0.0136051
0.0137041
0.00336246
0.00352827
0.00371994
0.00392571
0.00414166
0.00436441
0.00459498
0.00483332
0.00507785
0.0053284
0.00558384
0.00584269
0.0061037
0.00636633
0.0066323
0.00690026
0.00716825
0.00743616
0.00770165
0.00796383
0.00822439
0.00848198
0.00873795
0.00898957
0.00923665
0.00948078
0.0097211
0.00995855
0.010192
0.0104211
0.0106472
0.0108684
0.0110854
0.0113002
0.0115114
0.0117186
0.0119229
0.0121237
0.0123214
0.0125161
0.0127063
0.0128919
0.0130726
0.01325
0.0134228
0.0135914
0.0137561
0.013916
0.0140725
0.0142247
0.0143724
0.0145154
0.0146549
0.0147894
0.0149183
0.0150424
0.0151619
0.0152778
0.015388
0.0154919
0.0155902
0.00385744
0.00403401
0.00425151
0.0044857
0.00473913
0.00499702
0.00526443
0.00554405
0.00582549
0.00611729
0.00641189
0.00671416
0.00701352
0.00731261
0.00761087
0.00791571
0.00822043
0.00852528
0.00883084
0.00912329
0.00941489
0.0097062
0.00999584
0.0102835
0.0105558
0.0108261
0.0110914
0.0113538
0.0116147
0.0118697
0.0121242
0.0123703
0.0126019
0.0128355
0.0130694
0.0132941
0.0135143
0.0137335
0.0139473
0.0141621
0.0143729
0.0145794
0.0147711
0.0149599
0.0151463
0.0153218
0.0154951
0.0156573
0.0158206
0.0159738
0.0161264
0.0162652
0.0164037
0.0165429
0.0166739
0.016791
0.0169085
0.0170169
0.0171265
0.0172282
0.0173172
0.000242092
0.000243201
0.000244285
0.000245342
0.000246351
0.000247284
0.000248182
0.000249081
0.000249993
0.000250847
0.000251618
0.000252373
0.0002531
0.000253795
0.000254493
0.00025524
0.000256042
0.000256901
0.000257839
0.000258891
0.000260027
0.000261224
0.000262478
0.000263757
0.000265039
0.000266338
0.000267664
0.000268999
0.000270328
0.000271666
0.000273012
0.000274361
0.000275713
0.00027708
0.00027845
0.00027983
0.000281229
0.000282647
0.00028407
0.000285499
0.000286951
0.000288422
0.000289909
0.000291421
0.000292948
0.000294472
0.000296009
0.000297582
0.000299178
0.000300771
0.000302377
0.000304025
0.000305682
0.000307345
0.000309044
0.000310784
0.000312555
0.000314309
0.000316107
0.000317985
0.000319947
0.00234186
0.00236149
0.00238069
0.00239979
0.00241851
0.00243605
0.00245152
0.00246605
0.00247782
0.00248955
0.00249963
0.00250899
0.00251724
0.00252436
0.0025303
0.00253481
0.00253797
0.00253964
0.00253989
0.0025388
0.00253653
0.00253329
0.00252901
0.00252381
0.00251775
0.00251086
0.00250319
0.0024946
0.00248519
0.00247488
0.00246364
0.00245157
0.00243868
0.00242491
0.0024103
0.00239495
0.00237875
0.00236183
0.00234416
0.00232578
0.0023067
0.00228692
0.00226659
0.00224567
0.0022241
0.00220187
0.00217892
0.00215535
0.00213101
0.00210599
0.00208029
0.00205386
0.00202683
0.00199857
0.00197015
0.00194055
0.00191057
0.00187939
0.00184844
0.00181733
0.00178607
0.00480727
0.00484819
0.0048862
0.00492282
0.00495797
0.00499286
0.00502398
0.00505371
0.00507968
0.00510467
0.00512726
0.00514816
0.00516654
0.00518335
0.00519819
0.00521106
0.00522201
0.00523105
0.00523823
0.00524364
0.00524752
0.00524979
0.00525057
0.0052499
0.00524779
0.00524424
0.00523935
0.00523306
0.00522539
0.00521615
0.00520553
0.00519336
0.00517964
0.00516452
0.00514783
0.00512971
0.00511007
0.00508901
0.0050665
0.00504264
0.00501751
0.00499121
0.0049638
0.00493544
0.00490599
0.00487543
0.00484362
0.00481055
0.00477607
0.00474017
0.00470302
0.00466387
0.0046232
0.00458055
0.00453686
0.00449086
0.00444296
0.00439347
0.00434322
0.00429211
0.00423992
0.00721874
0.00727881
0.00733658
0.00739111
0.0074434
0.00749344
0.00754063
0.00758482
0.00762586
0.00766466
0.00770071
0.00773377
0.00776421
0.00779246
0.00781785
0.00784091
0.00786152
0.00787971
0.00789552
0.00790909
0.0079205
0.00792997
0.00793743
0.00794306
0.00794677
0.00794859
0.00794849
0.00794654
0.00794283
0.00793725
0.00792969
0.00792011
0.00790849
0.00789478
0.00787902
0.00786122
0.00784129
0.00781917
0.00779495
0.00776873
0.00774071
0.00771093
0.00767979
0.00764736
0.00761376
0.00757887
0.00754252
0.00750458
0.007465
0.00742353
0.00738029
0.00733482
0.00728689
0.0072365
0.00718395
0.00712866
0.00707034
0.00700991
0.00694801
0.0068842
0.00681905
0.00954407
0.00961938
0.00969146
0.00976002
0.00982473
0.00988653
0.00994532
0.00999959
0.0100503
0.0100984
0.010143
0.0101844
0.010223
0.0102585
0.010291
0.0103209
0.0103472
0.0103706
0.010391
0.0104085
0.0104233
0.0104355
0.0104455
0.0104532
0.0104586
0.0104616
0.0104624
0.0104611
0.0104579
0.0104527
0.0104456
0.0104362
0.0104245
0.0104103
0.0103938
0.0103748
0.0103531
0.0103288
0.0103017
0.0102719
0.0102396
0.010205
0.0101686
0.0101308
0.0100918
0.0100516
0.01001
0.00996647
0.00992148
0.00987493
0.00982627
0.00977519
0.00972142
0.0096646
0.009605
0.00954141
0.00947465
0.00940518
0.00933344
0.00925909
0.00918342
0.0117462
0.0118317
0.0119127
0.0119907
0.012064
0.0121329
0.0121981
0.0122592
0.0123158
0.0123681
0.0124173
0.0124628
0.0125047
0.0125431
0.0125779
0.0126094
0.012637
0.0126613
0.0126817
0.0126982
0.0127112
0.0127212
0.0127283
0.0127328
0.0127345
0.0127334
0.0127295
0.0127232
0.0127149
0.0127051
0.0126938
0.0126804
0.0126648
0.0126468
0.0126265
0.0126034
0.0125773
0.0125482
0.0125158
0.0124802
0.0124414
0.0123994
0.012355
0.0123088
0.0122613
0.0122131
0.0121635
0.0121124
0.0120599
0.0120065
0.0119512
0.011893
0.0118322
0.0117686
0.0117017
0.0116302
0.0115551
0.0114759
0.0113947
0.0113107
0.0112247
0.0137987
0.0138887
0.0139739
0.0140542
0.0141301
0.0142016
0.0142681
0.0143294
0.0143861
0.0144381
0.0144858
0.0145298
0.0145701
0.0146059
0.0146376
0.0146661
0.0146909
0.0147117
0.0147279
0.0147387
0.0147453
0.014748
0.0147472
0.0147436
0.0147368
0.0147264
0.0147124
0.0146948
0.0146749
0.014654
0.014633
0.0146103
0.0145865
0.0145605
0.0145334
0.0145038
0.0144704
0.0144338
0.0143941
0.0143512
0.0143045
0.0142537
0.0141992
0.0141424
0.014084
0.0140257
0.0139652
0.0139038
0.0138411
0.0137792
0.0137158
0.013649
0.0135805
0.0135091
0.0134352
0.0133555
0.013272
0.0131835
0.0130935
0.013
0.0129042
0.0156835
0.0157713
0.0158534
0.0159295
0.0160002
0.0160651
0.0161252
0.0161803
0.016231
0.0162765
0.0163165
0.0163527
0.0163852
0.0164135
0.0164364
0.0164552
0.0164721
0.0164858
0.0164948
0.0164974
0.0164932
0.0164849
0.0164728
0.0164568
0.016438
0.016415
0.0163876
0.0163542
0.0163159
0.016276
0.0162382
0.0161997
0.0161619
0.0161228
0.0160852
0.0160472
0.016004
0.0159562
0.0159061
0.0158548
0.0158004
0.0157414
0.0156768
0.0156088
0.0155393
0.0154702
0.0153973
0.0153243
0.0152489
0.0151767
0.0151046
0.0150271
0.014949
0.0148693
0.0147888
0.0147014
0.0146105
0.0145131
0.014415
0.0143131
0.0142094
0.017406
0.0174861
0.017561
0.0176224
0.0176808
0.0177246
0.0177691
0.0178015
0.0178358
0.0178708
0.0178973
0.0179104
0.017927
0.0179419
0.0179515
0.0179528
0.0179509
0.0179492
0.0179482
0.017942
0.0179236
0.0179027
0.01788
0.017849
0.0178153
0.0177778
0.0177371
0.0176916
0.017633
0.0175672
0.0175054
0.0174442
0.0173849
0.0173238
0.0172686
0.0172197
0.0171649
0.0171004
0.0170343
0.01697
0.0169058
0.016844
0.0167707
0.0166925
0.0166172
0.0165379
0.0164579
0.0163731
0.0162869
0.0162021
0.0161208
0.0160302
0.0159379
0.0158505
0.0157596
0.0156688
0.0155703
0.0154684
0.0153613
0.0152537
0.0151412
0.000321906
0.000323845
0.000325862
0.000327957
0.0003301
0.000332245
0.000334425
0.000336669
0.000338957
0.00034127
0.000343605
0.000345995
0.000348401
0.000350892
0.000353903
0.000356721
0.000359443
0.000362157
0.000364873
0.000367615
0.000370369
0.000373137
0.000375927
0.00037872
0.000381502
0.000384281
0.000387056
0.000389817
0.000392546
0.000395244
0.000397901
0.000400508
0.000403052
0.000405535
0.000407933
0.000410241
0.000412451
0.00041455
0.000416405
0.000417754
0.000418687
0.000419219
0.000419348
0.00041907
0.000418329
0.000417062
0.000415226
0.000412757
0.000409533
0.000405401
0.000400224
0.000393836
0.000385949
0.000376215
0.000364621
0.000342263
0.000331325
0.000325409
0.000322961
0.000321901
0.000319945
0.00175425
0.00172237
0.00168996
0.00165736
0.00162455
0.00159186
0.00155869
0.00152582
0.00149286
0.00146032
0.00142839
0.00139637
0.00136477
0.00133341
0.00129879
0.00126401
0.00122968
0.00119597
0.00116297
0.00113073
0.00109922
0.00106825
0.00103782
0.00100788
0.00097843
0.000949489
0.000921035
0.000893117
0.000865709
0.000838817
0.00081248
0.000786717
0.00076152
0.000736937
0.000713025
0.000689801
0.000667362
0.000645782
0.000625144
0.000601984
0.000578112
0.000554948
0.0005328
0.00051185
0.000492188
0.000474013
0.000457601
0.000443219
0.000431139
0.000421703
0.000415283
0.000412318
0.000413256
0.000418812
0.000426705
0.00044757
0.000480417
0.000533909
0.000616778
0.000737012
0.000865202
0.00418719
0.00413372
0.00407936
0.00402357
0.00396658
0.00390868
0.00384979
0.00379038
0.00373043
0.0036705
0.00360919
0.00354746
0.00348861
0.00342982
0.00336845
0.00330469
0.0032395
0.00317409
0.0031088
0.00304394
0.00297935
0.0029147
0.00284999
0.00278521
0.00272025
0.00265518
0.00258992
0.0025245
0.00245876
0.00239277
0.00232642
0.00225971
0.00219268
0.00212525
0.00205746
0.00198932
0.00192086
0.00185207
0.00178293
0.00171186
0.00163859
0.00155438
0.00146182
0.0013661
0.00126835
0.00116974
0.00107185
0.000976149
0.000884616
0.00079927
0.000722161
0.000655277
0.000599985
0.000557826
0.00052819
0.000515512
0.000522617
0.000554337
0.000619795
0.000732395
0.000894519
0.00675289
0.0066864
0.00661838
0.00654826
0.00647562
0.00640159
0.00632623
0.00625028
0.00617416
0.00609763
0.00601796
0.00593944
0.00586403
0.0057887
0.00571048
0.00562907
0.00554514
0.0054604
0.00537541
0.00529054
0.00520554
0.00511968
0.00503315
0.00494601
0.004858
0.00476915
0.00467931
0.00458845
0.00449632
0.00440284
0.00430792
0.00421159
0.00411376
0.00401447
0.00391375
0.00381159
0.00370793
0.00360279
0.00349598
0.00338693
0.00327479
0.00315652
0.00302483
0.00287503
0.00271345
0.00254025
0.00235611
0.0021621
0.00196043
0.00175493
0.00154991
0.00135256
0.00116937
0.00100745
0.000870813
0.000765096
0.000694187
0.000658289
0.000659193
0.000703757
0.000801677
0.00910597
0.00902802
0.00894832
0.00886655
0.00878088
0.00869326
0.00860422
0.00851537
0.00842625
0.00833677
0.00824329
0.00815171
0.00806287
0.0079745
0.0078834
0.00778882
0.00769108
0.0075926
0.0074937
0.00739484
0.00729543
0.00719436
0.0070923
0.00698936
0.00688497
0.0067793
0.00667191
0.00656278
0.00645145
0.0063379
0.006222
0.00610393
0.00598372
0.00586153
0.00573733
0.00561123
0.00548324
0.0053533
0.00522123
0.00508676
0.00494933
0.00480771
0.00465888
0.00449429
0.00431046
0.00411053
0.00389289
0.00365608
0.00339879
0.00312166
0.00282585
0.00251571
0.00219962
0.00188966
0.00159988
0.00134532
0.00113957
0.000986191
0.000883075
0.000829299
0.000828344
0.0111359
0.0110468
0.0109562
0.0108635
0.0107659
0.0106658
0.0105635
0.0104624
0.0103615
0.0102607
0.0101553
0.0100519
0.00995097
0.00985155
0.00974922
0.00964365
0.00953472
0.00942582
0.00931647
0.00920719
0.00909689
0.00898381
0.00886991
0.00875538
0.00863887
0.00852065
0.00839996
0.0082769
0.00815066
0.00802151
0.00788931
0.00775472
0.00761782
0.00747902
0.00733815
0.00719551
0.00705102
0.00690476
0.00675656
0.0066063
0.00645352
0.0062977
0.00613739
0.00596897
0.00578213
0.00557918
0.00535773
0.00511624
0.00485155
0.00456078
0.00424176
0.0038929
0.0035157
0.00311742
0.00270989
0.00231391
0.00195294
0.00164388
0.00139423
0.00120576
0.00107821
0.0128042
0.0127044
0.0126036
0.0125012
0.0123923
0.01228
0.0121648
0.012052
0.0119403
0.0118297
0.0117131
0.0115986
0.0114869
0.0113782
0.0112664
0.011152
0.0110339
0.010917
0.0107997
0.0106828
0.0105641
0.0104411
0.0103184
0.0101959
0.0100705
0.00994269
0.00981132
0.0096773
0.00953879
0.00939696
0.00925163
0.00910461
0.00895556
0.00880545
0.00865359
0.00850065
0.0083462
0.0081908
0.00803417
0.00787652
0.00771722
0.00755599
0.00739207
0.00722348
0.00704605
0.00684912
0.00663576
0.00640393
0.00615089
0.0058737
0.00556847
0.00523121
0.00485918
0.00445069
0.00401007
0.00354852
0.00308566
0.00264522
0.00224653
0.0019027
0.00162182
0.0140993
0.0139886
0.0138783
0.0137675
0.0136487
0.0135253
0.0133982
0.0132738
0.0131526
0.0130333
0.0129068
0.0127822
0.0126614
0.0125453
0.0124263
0.0123047
0.01218
0.0120569
0.0119339
0.0118115
0.0116859
0.0115547
0.011426
0.0112987
0.0111663
0.0110303
0.0108895
0.0107461
0.0105966
0.0104439
0.0102878
0.0101322
0.00997514
0.00981873
0.00966098
0.00950341
0.00934467
0.00918703
0.00902952
0.00887309
0.00871603
0.0085585
0.0083993
0.0082372
0.00806919
0.00788775
0.00768865
0.00747268
0.00723852
0.00698403
0.00670654
0.00640193
0.0060652
0.00569204
0.00527981
0.00482996
0.00435105
0.00385757
0.00336894
0.00290424
0.00248142
0.0150276
0.0149045
0.0147871
0.014665
0.0145417
0.0144065
0.0142719
0.0141333
0.0140057
0.0138767
0.0137446
0.0136094
0.0134837
0.01336
0.0132391
0.0131091
0.0129844
0.0128531
0.0127267
0.0126023
0.0124685
0.0123329
0.0122004
0.0120675
0.0119297
0.0117831
0.0116351
0.0114808
0.0113222
0.0111588
0.0109963
0.0108359
0.0106748
0.0105158
0.0103579
0.010201
0.0100441
0.00989302
0.00974397
0.00959934
0.00945337
0.00930826
0.00916156
0.0090121
0.00885832
0.00869561
0.00851452
0.00831629
0.0081042
0.00788101
0.0076377
0.00737589
0.00708403
0.00676341
0.00640378
0.00600863
0.00557012
0.00509968
0.00460032
0.00408773
0.00358239
0.000315976
0.000311411
0.000306414
0.000300994
0.000295366
0.000289637
0.000283976
0.000278587
0.000273639
0.000269258
0.000265515
0.000262469
0.000260074
0.000258253
0.000256937
0.000256042
0.000255465
0.00025512
0.00025496
0.000254948
0.000255041
0.000255219
0.000255468
0.000255779
0.000256132
0.00025654
0.000257
0.000257508
0.000258057
0.000258652
0.000259284
0.000259952
0.00026065
0.000261374
0.00026211
0.000262855
0.000263601
0.000264335
0.000265033
0.00026569
0.000266306
0.00026686
0.000267346
0.00026777
0.00026812
0.000268393
0.000268613
0.000268807
0.000268981
0.000269135
0.000269303
0.000269518
0.000269757
0.000270035
0.000270358
0.000270725
0.000271098
0.000271434
0.000271747
0.000272034
0.000272261
0.000931628
0.000988002
0.00103311
0.00106091
0.00107266
0.0010733
0.00106046
0.0010346
0.000998163
0.00095344
0.000902743
0.000849585
0.000796758
0.000746497
0.00069934
0.000656891
0.000620669
0.00059081
0.000566778
0.000547926
0.000533416
0.000522414
0.000514174
0.000508104
0.00050372
0.000500776
0.00049896
0.000498133
0.000498139
0.000498854
0.000500162
0.000501947
0.000504077
0.000506407
0.000508806
0.000511135
0.000513236
0.000514971
0.00051618
0.000516714
0.000516425
0.000515176
0.000512842
0.000509308
0.00050451
0.000498444
0.000491185
0.000482923
0.000473943
0.000464673
0.000455631
0.000447387
0.000440466
0.000435265
0.000432057
0.000430852
0.000431503
0.000433676
0.000437035
0.000441085
0.00044528
0.00106512
0.00123723
0.00140579
0.00156121
0.00166279
0.00174224
0.00179717
0.00182234
0.00182086
0.00179628
0.00174949
0.00168494
0.00160684
0.00151905
0.00142411
0.0013269
0.0012339
0.00114986
0.00107623
0.00101509
0.000966529
0.000929497
0.000902237
0.000882831
0.000869626
0.000861213
0.000856731
0.000855352
0.000856461
0.000859521
0.000864111
0.000869745
0.000875931
0.000882183
0.000887997
0.000892926
0.000896517
0.000898338
0.000897958
0.000895003
0.000889161
0.000880227
0.000868085
0.000852774
0.000834383
0.000813193
0.00078958
0.000764082
0.000737356
0.00071034
0.000684257
0.000660559
0.000640962
0.000627037
0.000620206
0.000621218
0.000630246
0.000646842
0.000670172
0.000699073
0.00073244
0.000949779
0.00114232
0.00136785
0.0016069
0.00182475
0.00202152
0.00220181
0.0023346
0.00242478
0.00248401
0.00250946
0.00250303
0.00246963
0.00241123
0.00232965
0.00222838
0.00211195
0.00199201
0.00187511
0.00176778
0.00167472
0.00159906
0.00154116
0.00149943
0.00147139
0.00145468
0.00144739
0.00144787
0.00145463
0.00146638
0.00148208
0.00150067
0.00152099
0.00154181
0.00156199
0.00158043
0.00159598
0.00160757
0.00161411
0.0016146
0.00160814
0.00159403
0.00157178
0.00154117
0.0015022
0.00145536
0.00140138
0.00134134
0.00127642
0.00120844
0.00113971
0.00107334
0.00101329
0.000964344
0.000931776
0.000919764
0.000929765
0.000960953
0.00101086
0.00107615
0.00115182
0.000884509
0.00100139
0.00117995
0.00141226
0.00167475
0.0019467
0.00221289
0.00245087
0.00265438
0.00283035
0.00296173
0.0030431
0.00309119
0.00310589
0.00308886
0.00304527
0.00297723
0.00288599
0.00278412
0.00268007
0.00257952
0.00248981
0.0024161
0.00236054
0.00232266
0.00230116
0.0022945
0.00230108
0.00231881
0.00234569
0.00238017
0.00242054
0.00246484
0.002511
0.00255706
0.00260108
0.0026411
0.00267521
0.00270143
0.00271785
0.0027227
0.00271459
0.00269219
0.00265465
0.00260122
0.00253212
0.00244769
0.002349
0.00223736
0.00211488
0.00198442
0.00185037
0.00171848
0.00159697
0.00149721
0.00143253
0.00140915
0.00142728
0.00148255
0.00156349
0.00166112
0.00101352
0.00101394
0.00108281
0.00122217
0.00142698
0.00168499
0.00197736
0.00227768
0.00256425
0.00282562
0.00304902
0.00322964
0.00337722
0.0034785
0.00353491
0.00356489
0.00356978
0.00355284
0.00352133
0.00347904
0.00343292
0.0033874
0.00334748
0.0033178
0.00330073
0.0032974
0.00330866
0.00333486
0.0033746
0.00342592
0.00348733
0.00355687
0.00363213
0.00371038
0.003789
0.00386528
0.0039366
0.00400018
0.00405322
0.00409299
0.00411688
0.00412282
0.00410871
0.00407301
0.00401398
0.00393148
0.00382504
0.00369529
0.00354288
0.0033697
0.00317815
0.00297267
0.00275928
0.00254703
0.00235046
0.00219002
0.00207812
0.00202643
0.00203663
0.00209834
0.00219682
0.00140929
0.00126817
0.00120067
0.00120882
0.00129328
0.00145225
0.00167884
0.00195755
0.00226616
0.00258031
0.00287673
0.00313974
0.00336413
0.00354449
0.00368403
0.00379782
0.00387491
0.00392415
0.00396377
0.00399718
0.0040346
0.00407476
0.00411687
0.00416109
0.00420917
0.00426267
0.00432421
0.00439643
0.00447917
0.00457123
0.00467195
0.00477964
0.00489218
0.00500684
0.00512091
0.00523144
0.00533537
0.00542937
0.00550997
0.00557384
0.00561781
0.00563931
0.00563581
0.00560535
0.00554529
0.00545492
0.005333
0.00517969
0.00499511
0.00478048
0.00453749
0.00426985
0.00398225
0.0036821
0.00338308
0.00310497
0.00287185
0.00270961
0.00263546
0.00264735
0.00272687
0.00211476
0.00181582
0.00159209
0.00144843
0.00138674
0.00140719
0.00150807
0.00168434
0.00192576
0.00221496
0.00252835
0.00284146
0.00313536
0.00339512
0.00361537
0.00379882
0.00394717
0.00406715
0.00417745
0.00426465
0.0043669
0.00448033
0.00460391
0.00473613
0.00487708
0.00502326
0.0051721
0.00532211
0.00547565
0.00563215
0.00579121
0.00595109
0.00611032
0.0062674
0.00642017
0.00656636
0.00670312
0.00682691
0.00693366
0.00701967
0.00708224
0.00711777
0.00712402
0.00709902
0.00703956
0.00694368
0.00681041
0.00663814
0.00642766
0.0061791
0.00589398
0.0055744
0.00522306
0.00484518
0.00445297
0.00406313
0.00370613
0.00342003
0.00324432
0.00319067
0.00324012
0.0030991
0.0026612
0.0022842
0.00197844
0.00175483
0.00161741
0.00156745
0.00160228
0.00171772
0.0019062
0.0021542
0.00244458
0.00275777
0.0030722
0.00336944
0.00364226
0.00387635
0.00407187
0.00423222
0.00436594
0.004526
0.00468343
0.00485225
0.00504032
0.00525423
0.00548745
0.00573401
0.00598531
0.00623466
0.00647987
0.00672002
0.00695103
0.00716962
0.00737924
0.00757648
0.00776222
0.00793435
0.00808949
0.00822254
0.00832913
0.00841057
0.00845794
0.00847343
0.00845331
0.00839649
0.00829658
0.00815683
0.00796746
0.00773686
0.00745942
0.00714143
0.00677945
0.00637467
0.00593475
0.00546442
0.00497812
0.0045118
0.00411577
0.00384339
0.00372417
0.00373865
0.00555428
0.0188976
0.019302
0.00188666
0.00569185
0.00714193
0.00124765
0.00579782
0.00129518
0.00336439
0.0104515
0.0146765
0.00124762
0.0132578
0.0067051
0.0200159
0.00126545
0.0062019
0.00987151
0.00124953
0.00188517
0.0131116
0.0184302
0.00127639
0.0012845
0.00477416
0.00124962
0.00313185
0.00126184
0.00131656
0.0072819
0.00125483
0.00274046
0.00873858
0.013919
0.00915491
0.00795001
0.0136624
0.00124565
0.0139869
0.00513738
0.0144424
0.00124779
0.0198329
0.00521629
0.00997558
0.00134429
0.00243659
0.00105224
0.0148596
0.0106304
0.015788
0.00123939
0.00143426
0.00203863
0.000134245
0.00131451
0.00490603
0.0087727
0.0183474
0.00402119
0.00136362
0.00126491
0.0037228
0.0200169
0.00909445
0.00900237
0.00427705
0.00148134
0.00124266
0.0138173
0.0139494
0.00496311
0.000860246
0.00278205
0.0182259
0.0191997
0.0167325
0.00123847
0.0142418
0.00195757
0.0131488
0.000823442
0.0186332
0.00124263
0.0116495
0.00129059
0.0116833
0.00181383
0.00159984
0.00559143
0.00123781
0.00138529
0.0176593
0.0202096
0.00134603
0.0109208
0.00459666
0.00178101
0.019877
0.00518834
0.0185137
0.00830024
0.00123701
0.00124123
0.00123721
0.00596473
0.00672842
0.00126333
0.0204004
0.0195603
0.00165373
0.00789098
0.0075269
0.00521223
0.0122025
0.00997708
0.00140274
0.00598992
0.00142449
0.00130361
0.00554883
0.00158681
0.0178169
0.0131873
0.00312868
0.00124699
0.0127142
0.0132646
0.00124724
0.00351762
0.00381091
0.00296766
0.00156176
0.0130099
0.0012465
0.00124099
0.0138415
0.0162012
0.00125569
0.00333027
0.0203586
0.00431927
0.00904451
0.00806316
0.0169806
0.00042203
0.00868893
0.00251887
0.0163716
0.0119021
0.000146725
0.0140377
0.018541
0.0201667
0.00128287
0.00127275
0.00821065
0.00121835
0.00817852
0.000750281
0.00162354
0.00124196
0.00124843
0.00124294
0.0171194
0.00407718
0.00673667
0.00128504
0.0143899
0.00671129
0.00226076
0.0128077
0.00254942
0.00763464
0.00573217
0.0112443
0.00126388
0.00172334
0.0039453
0.0123118
0.0147112
0.0184815
0.00124999
0.00133015
0.00886584
0.00401588
0.0115413
0.00124496
0.00134407
0.00572315
0.00129654
0.0167811
0.0100026
0.00121206
0.00855893
0.00330679
0.0190345
0.00151376
0.00628582
0.00124946
0.00125563
0.0200504
0.0157192
0.0159036
0.00152186
0.00130057
0.00185127
0.0165321
0.00564419
0.0105053
0.0194108
0.0157494
0.0193886
0.00411596
0.0192961
0.0190783
0.0141912
0.0151831
0.0120337
0.00149822
0.00422221
0.00125359
0.00124571
0.0103578
0.00300739
0.00315996
0.00151936
0.00247427
0.0141675
0.00980498
0.00289951
0.0193811
0.0134666
0.00515194
0.00124554
0.0047127
0.0173961
0.0126781
0.00144804
0.00987604
0.00336082
0.00357041
0.00219236
0.0183168
0.00745047
0.00450061
0.0198698
0.00138934
0.00123885
0.00143468
0.00231943
0.00942464
0.00129517
0.00156047
0.00124492
0.00752855
0.0193092
0.0184021
0.0135929
0.0116082
0.0157843
0.0167963
0.00148545
0.00798784
0.0183063
0.00124696
0.00427805
0.00124275
0.00439269
0.00746979
0.00417317
0.00166516
0.00124714
0.0153262
0.00311231
0.00124294
0.00125865
0.00126129
0.00126258
0.00978637
0.00679444
0.0175087
0.00182843
0.00124288
0.00124349
0.00123726
0.0191665
0.00423926
0.00151902
0.0133916
0.00600569
0.00162027
0.00123612
0.0079604
0.00124267
0.00221148
0.00424373
0.00719636
0.00220649
0.00140494
0.00173922
0.0163932
0.00515659
0.00269799
0.0167261
0.00132051
0.00124391
0.00124614
0.0197818
0.00127994
0.0150166
0.00124581
0.014379
0.00979136
0.00274802
0.00547926
0.00576143
0.00155805
0.0131955
0.0130933
0.00284043
0.0217985
0.0119877
0.0162983
0.013791
0.0194369
0.0081899
0.0194845
0.00489256
0.00661874
0.0165595
0.0181571
0.0128159
0.0119391
0.00139671
0.0162679
0.00536129
0.0190123
0.0036571
0.00134025
0.00124743
0.00130485
0.00412414
0.0101736
0.00731538
0.00618728
0.00124789
0.0204013
0.00124686
0.00703364
0.0142969
0.0198577
0.0145062
0.0154212
0.00166561
0.0014809
0.00153274
0.0081871
0.00221995
0.00639095
0.00925091
0.0104049
0.0180437
0.0183566
0.0162058
0.00131697
0.0179721
0.0202005
0.00294785
0.00125645
0.02004
0.0204186
0.00128336
0.0112745
0.0012576
0.0105626
0.0162922
0.0109882
0.0190617
0.00498955
0.020414
0.0012746
0.0203889
0.00139959
0.0171408
0.0173749
0.0113881
0.018084
0.0125478
0.00832767
0.0104115
0.00147717
0.00375747
0.00127624
0.00206364
0.00125644
0.00697814
0.00139259
0.0181872
0.00124117
0.00125797
0.00176485
0.00945143
0.00522054
0.0138749
0.00152652
0.0192724
0.00784972
0.0192833
0.00607292
0.01643
0.0102569
0.00129587
0.0180796
0.0172583
0.0012535
0.0172938
0.0146855
0.00123826
0.0012413
0.00872317
0.00183592
0.0128329
0.00153203
0.00655528
0.0036804
0.0093041
0.0162652
0.0179441
0.0157434
0.0172537
0.018406
0.00139533
0.00127992
0.00878198
0.0129237
0.0163037
0.01102
0.0190205
0.00462536
0.0201073
0.0201114
0.00658307
0.00301437
0.0166313
0.0147564
0.00131656
0.0178645
0.0148101
0.00145485
0.0191759
0.0160587
0.0167545
0.003473
0.00470942
0.0128307
0.00166772
0.0164897
0.00154879
0.00347982
0.0012525
0.0109982
0.00290624
0.0086522
0.00157743
0.00136227
0.0086711
0.00850292
0.00218485
0.00279218
0.0104876
0.00277789
0.00130311
0.0157124
0.0088148
0.013018
0.00762075
0.00352136
0.0117267
0.0168482
0.0176217
0.00610586
0.0123633
0.017349
0.0063647
0.0155867
0.0201482
0.000338342
0.00588727
0.0121131
0.00129425
0.00323697
0.00779747
0.0117317
0.00279178
0.0215408
0.00445636
0.0100557
0.00650769
0.00168257
0.00124543
0.00167397