/*--------------------------------*- C++ -*----------------------------------*\
| =========                 |                                                 |
| \\      /  F ield         | OpenFOAM: The Open Source CFD Toolbox           |
|  \\    /   O peration     | Version:  2.3.1                                 |
|   \\  /    A nd           | Web:      www.OpenFOAM.org                      |
|    \\/     M anipulation  |                                                 |
\*---------------------------------------------------------------------------*/
FoamFile
{
    version     2.0;
    format      ascii;
    class       volScalarField;
    location    "0.42";
    object      p;
}
// * * * * * * * * * * * * * * * * * * * * * * * * * * * * * * * * * * * * * //

dimensions      [0 2 -2 0 0 0 0];

internalField   nonuniform List<scalar> 
9648
(
-0.213542
-0.492693
-0.820141
-1.18723
-1.62618
-2.15063
-2.7725
-3.50194
-4.34363
-5.31592
-6.43003
-7.69927
-9.13659
-10.753
-12.5568
-14.5568
-16.7612
-19.1803
-21.8199
-24.6839
-27.7746
-31.0858
-34.6159
-38.3638
-42.3302
-46.5068
-50.8819
-55.4423
-60.1727
-65.0675
-70.1099
-75.2805
-80.5579
-85.9144
-91.3429
-96.8193
-102.333
-107.865
-113.389
-118.886
-124.33
-129.716
-135.001
-140.178
-145.235
-150.14
-154.879
-159.436
-163.817
-167.998
-171.932
-175.624
-179.078
-182.264
-185.184
-187.823
-190.167
-192.222
-193.963
-195.406
-196.537
0.303854
0.0448765
-0.263089
-0.622052
-1.05675
-1.56641
-2.16319
-2.86165
-3.67542
-4.6121
-5.68259
-6.89922
-8.27343
-9.81582
-11.5349
-13.438
-15.5336
-17.8315
-20.3385
-23.059
-25.9912
-29.1304
-32.4757
-36.0257
-39.783
-43.7407
-47.8852
-52.2033
-56.6835
-61.3169
-66.0912
-70.9861
-75.9796
-81.0512
-86.1866
-91.37
-96.5874
-101.819
-107.044
-112.243
-117.396
-122.484
-127.484
-132.379
-137.152
-141.781
-146.252
-150.547
-154.654
-158.559
-162.265
-165.748
-168.998
-172.003
-174.747
-177.227
-179.424
-181.348
-182.977
-184.312
-185.341
0.11825
-0.118214
-0.401259
-0.737148
-1.12943
-1.60178
-2.16143
-2.8198
-3.58704
-4.47598
-5.49727
-6.66316
-7.98503
-9.47202
-11.1319
-12.9718
-15.001
-17.2299
-19.6671
-22.3145
-25.1681
-28.2225
-31.4747
-34.9291
-38.5878
-42.4441
-46.4849
-50.6949
-55.0632
-59.5822
-64.2374
-69.0107
-73.8808
-78.8292
-83.8412
-88.9017
-93.995
-99.1022
-104.205
-109.282
-114.317
-119.288
-124.175
-128.962
-133.631
-138.162
-142.54
-146.751
-150.779
-154.607
-158.229
-161.634
-164.814
-167.747
-170.436
-172.861
-175.028
-176.907
-178.505
-179.82
-180.855
0.339061
0.102919
-0.176492
-0.506389
-0.895584
-1.35489
-1.89493
-2.52697
-3.26221
-4.11276
-5.0907
-6.20826
-7.47609
-8.90256
-10.4945
-12.2591
-14.2082
-16.3546
-18.7069
-21.2641
-24.0153
-26.9524
-30.0789
-33.4015
-36.9298
-40.6523
-44.5476
-48.6034
-52.8081
-57.1557
-61.6379
-66.233
-70.9202
-75.6838
-80.505
-85.3707
-90.2666
-95.1747
-100.078
-104.958
-109.795
-114.571
-119.265
-123.862
-128.342
-132.69
-136.888
-140.924
-144.783
-148.453
-151.922
-155.181
-158.22
-161.027
-163.591
-165.903
-167.957
-169.742
-171.255
-172.491
-173.447
0.395432
0.19106
-0.0567992
-0.356216
-0.715336
-1.14341
-1.64988
-2.24515
-2.94098
-3.74833
-4.68034
-5.74758
-6.96052
-8.32442
-9.84693
-11.5365
-13.4077
-15.4767
-17.7494
-20.2151
-22.859
-25.6742
-28.6699
-31.8691
-35.2766
-38.8706
-42.6254
-46.5215
-50.5546
-54.7307
-59.0438
-63.4697
-67.9862
-72.5693
-77.2025
-81.8721
-86.568
-91.2737
-95.9794
-100.666
-105.313
-109.9
-114.408
-118.822
-123.123
-127.294
-131.323
-135.193
-138.892
-142.409
-145.733
-148.855
-151.767
-154.457
-156.914
-159.129
-161.09
-162.794
-164.241
-165.422
-166.333
0.484668
0.296504
0.0687311
-0.207998
-0.540761
-0.939737
-1.41394
-1.97345
-2.63091
-3.39619
-4.28364
-5.30193
-6.46051
-7.76172
-9.21594
-10.8321
-12.6303
-14.6274
-16.8195
-19.1902
-21.7163
-24.3968
-27.2674
-30.3459
-33.6433
-37.1158
-40.715
-44.4372
-48.2893
-52.2856
-56.4362
-60.7041
-65.0469
-69.4482
-73.874
-78.3259
-82.8038
-87.2931
-91.7903
-96.2769
-100.725
-105.117
-109.429
-113.65
-117.762
-121.747
-125.595
-129.288
-132.816
-136.169
-139.338
-142.313
-145.087
-147.652
-149.994
-152.1
-153.96
-155.572
-156.94
-158.056
-158.912
0.577221
0.40615
0.19769
-0.0580256
-0.366131
-0.73804
-1.18191
-1.70694
-2.32781
-3.05217
-3.89726
-4.86744
-5.97449
-7.21123
-8.59972
-10.1477
-11.8752
-13.8043
-15.9142
-18.1699
-20.5715
-23.1178
-25.8643
-28.8495
-32.0376
-35.3714
-38.798
-42.3337
-45.9973
-49.842
-53.8482
-57.9514
-62.1093
-66.2877
-70.4911
-74.7029
-78.9448
-83.2131
-87.5126
-91.7997
-96.0498
-100.243
-104.35
-108.371
-112.288
-116.081
-119.743
-123.25
-126.6
-129.78
-132.79
-135.607
-138.235
-140.671
-142.897
-144.891
-146.643
-148.154
-149.438
-150.489
-151.289
0.667631
0.514606
0.327485
0.0918536
-0.191045
-0.537214
-0.953262
-1.44179
-2.02941
-2.71101
-3.51766
-4.44095
-5.50264
-6.67119
-8.0001
-9.48253
-11.1426
-13.0062
-15.0122
-17.1435
-19.4254
-21.8334
-24.5067
-27.3945
-30.4545
-33.6345
-36.8399
-40.1895
-43.7352
-47.4386
-51.3236
-55.2447
-59.1223
-63.0583
-67.0107
-70.9332
-74.9467
-79.0506
-83.1583
-87.2659
-91.3029
-95.3038
-99.1801
-102.991
-106.728
-110.311
-113.796
-117.097
-120.271
-123.258
-126.114
-128.754
-131.219
-133.531
-135.651
-137.518
-139.164
-140.548
-141.749
-142.75
-143.483
0.762285
0.618148
0.4675
0.236946
-0.00996853
-0.341257
-0.735324
-1.16127
-1.74659
-2.35173
-3.15657
-4.00136
-5.07563
-6.10858
-7.41906
-8.85987
-10.4068
-12.2376
-14.1172
-16.0783
-18.3412
-20.5637
-23.2347
-25.9991
-28.8887
-31.9585
-34.8496
-38.0747
-41.5775
-45.1034
-48.8829
-52.4666
-55.9517
-59.6718
-63.483
-67.0485
-71.0015
-74.9712
-78.8384
-82.8101
-86.5267
-90.3838
-93.944
-97.6169
-101.227
-104.486
-107.9
-110.887
-113.953
-116.629
-119.399
-121.758
-124.088
-126.354
-128.349
-130.022
-131.662
-132.822
-134.015
-134.969
-135.563
-197.334
-197.81
-197.964
-197.792
-197.313
-196.516
-195.409
-193.987
-192.244
-190.204
-187.842
-185.175
-182.234
-179.028
-175.546
-171.803
-167.805
-163.579
-159.117
-154.433
-149.559
-144.483
-139.229
-133.807
-128.246
-122.553
-116.714
-110.764
-104.708
-98.5804
-92.3813
-86.131
-79.8512
-73.5422
-67.2321
-60.9231
-54.6385
-48.3905
-42.1872
-36.0455
-29.9769
-24.0051
-18.1271
-12.3637
-6.72875
-1.22473
4.13246
9.33449
14.3662
19.2207
23.8932
28.3727
32.6481
36.7184
40.5728
44.2065
47.6141
50.7903
53.7345
56.4421
58.9128
-186.063
-186.454
-186.563
-186.376
-185.89
-185.111
-184.037
-182.668
-180.997
-179.027
-176.758
-174.202
-171.391
-168.337
-165.025
-161.46
-157.652
-153.617
-149.359
-144.892
-140.233
-135.387
-130.369
-125.189
-119.862
-114.399
-108.831
-103.162
-97.3972
-91.5554
-85.6485
-79.692
-73.7008
-67.687
-61.6669
-55.6497
-49.6518
-43.6868
-37.7663
-31.9028
-26.11
-20.4035
-14.7907
-9.28516
-3.8993
1.3599
6.48106
11.4535
16.2655
20.9096
25.3791
29.6649
33.7577
37.6544
41.3457
44.8271
48.0915
51.1367
53.9594
56.5566
58.927
-181.594
-182.064
-182.205
-182.031
-181.565
-180.82
-179.772
-178.422
-176.759
-174.788
-172.552
-170.049
-167.274
-164.224
-160.924
-157.386
-153.618
-149.632
-145.435
-141.04
-136.461
-131.704
-126.782
-121.706
-116.488
-111.137
-105.672
-100.108
-94.4561
-88.7294
-82.9417
-77.1081
-71.2419
-65.3571
-59.4667
-53.5824
-47.7174
-41.8846
-36.0968
-30.3666
-24.7071
-19.1315
-13.6498
-8.27388
-3.01426
2.1205
7.11961
11.9727
16.6694
21.2025
25.5634
29.745
33.7394
37.542
41.1449
44.543
47.7307
50.7045
53.4613
55.9979
58.3145
-174.118
-174.514
-174.617
-174.429
-173.946
-173.153
-172.056
-170.74
-169.164
-167.333
-165.215
-162.833
-160.186
-157.283
-154.133
-150.745
-147.13
-143.298
-139.261
-135.031
-130.62
-126.039
-121.298
-116.406
-111.376
-106.219
-100.951
-95.5841
-90.1321
-84.607
-79.0217
-73.3911
-67.729
-62.0493
-56.363
-50.6822
-45.0189
-39.3849
-33.7939
-28.2579
-22.7896
-17.4016
-12.1045
-6.90906
-1.82517
3.13931
7.97302
12.6666
17.2088
21.5944
25.8138
29.8599
33.727
37.4089
40.9002
44.1932
47.2849
50.1692
52.8446
55.3072
57.558
-166.971
-167.337
-167.426
-167.24
-166.776
-166.031
-165.03
-163.715
-162.141
-160.323
-158.25
-155.925
-153.352
-150.539
-147.492
-144.217
-140.722
-137.018
-133.115
-129.029
-124.77
-120.349
-115.774
-111.052
-106.198
-101.222
-96.1383
-90.9614
-85.7024
-80.3735
-74.9847
-69.5535
-64.0921
-58.6164
-53.134
-47.6571
-42.1959
-36.7618
-31.3694
-26.0298
-20.7549
-15.5581
-10.449
-5.43827
-0.53541
4.25491
8.91724
13.4465
17.8284
22.0606
26.1327
30.0373
33.7704
37.3247
40.698
43.8801
46.8706
49.6588
52.2476
54.6304
56.8103
-159.507
-159.838
-159.902
-159.7
-159.23
-158.499
-157.509
-156.248
-154.73
-152.967
-150.96
-148.71
-146.221
-143.506
-140.568
-137.411
-134.041
-130.467
-126.703
-122.765
-118.663
-114.409
-110.007
-105.462
-100.79
-95.9992
-91.1045
-86.1241
-81.0647
-75.9385
-70.7511
-65.5254
-60.2698
-55.0064
-49.7351
-44.4695
-39.2176
-33.99
-28.8032
-23.6661
-18.5909
-13.5921
-8.67684
-3.85772
0.856846
5.46869
9.95495
14.3162
18.5308
22.6049
26.5241
30.281
33.8758
37.2958
40.5485
43.6144
46.5003
49.188
51.6882
53.9859
56.0924
-151.836
-152.128
-152.166
-151.946
-151.474
-150.756
-149.783
-148.552
-147.078
-145.374
-143.437
-141.265
-138.862
-136.248
-133.425
-130.389
-127.148
-123.702
-120.077
-116.292
-112.352
-108.272
-104.052
-99.6885
-95.2026
-90.5993
-85.8984
-81.12
-76.2664
-71.3474
-66.364
-61.3465
-56.3008
-51.2577
-46.204
-41.1585
-36.1243
-31.1087
-26.133
-21.2064
-16.3365
-11.5405
-6.82465
-2.20334
2.31687
6.74649
11.0528
15.2441
19.2863
23.1965
26.9571
30.5617
34.0123
37.2928
40.4221
43.3688
46.1502
48.7335
51.1411
53.3486
55.3796
-143.984
-144.224
-144.238
-143.99
-143.522
-142.815
-141.865
-140.642
-139.2
-137.57
-135.71
-133.612
-131.294
-128.785
-126.09
-123.178
-120.066
-116.743
-113.264
-109.637
-105.859
-101.96
-97.9383
-93.7538
-89.4583
-85.0464
-80.5464
-75.9749
-71.3216
-66.6146
-61.829
-57.0255
-52.1868
-47.3779
-42.5456
-37.7403
-32.9444
-28.132
-23.3685
-18.6717
-14.0022
-9.40876
-4.90566
-0.479999
3.83156
8.08418
12.2027
16.2299
20.0853
23.8291
27.4219
30.8613
34.1725
37.3041
40.3194
43.1409
45.8244
48.2885
50.6037
52.7092
54.6686
-136.023
-136.181
-136.184
-135.902
-135.442
-134.714
-133.806
-132.518
-131.153
-129.709
-127.852
-125.828
-123.562
-121.143
-118.677
-115.815
-112.827
-109.694
-106.338
-102.883
-99.1842
-95.4485
-91.7239
-87.6208
-83.5279
-79.3853
-75.0239
-70.6947
-66.1342
-61.7562
-57.0439
-52.5781
-47.8334
-43.3594
-38.7098
-34.1746
-29.6778
-24.9507
-20.4059
-15.9875
-11.4363
-7.09521
-2.8429
1.46721
5.42449
9.64156
13.4351
17.4163
20.9475
24.599
28.0408
31.2182
34.5072
37.375
40.4125
42.982
45.6743
47.8706
50.2194
52.1236
54.119
61.1478
63.1453
64.9061
66.4306
67.7183
68.7736
69.6002
70.2031
70.5867
70.757
70.7344
70.5615
70.2358
69.7171
69.0261
68.1719
67.1207
65.8784
64.4669
62.9026
61.1977
59.3625
57.4095
55.3495
53.1948
50.958
48.6524
46.2923
43.89
41.461
39.0185
36.5776
34.1537
31.7601
29.4139
27.1279
24.9175
22.7955
20.7861
18.902
17.172
15.5986
14.1952
12.9819
11.9732
11.1791
10.6094
10.2666
10.1459
10.2308
10.4894
10.8702
11.2972
11.6695
11.917
11.3076
9.81529
8.2803
7.00654
6.05948
5.23697
61.0709
62.9889
64.6808
66.1471
67.3878
68.4049
69.202
69.783
70.1522
70.312
70.2745
70.0969
69.7852
69.2898
68.6184
67.7786
66.7525
65.545
64.1736
62.6532
60.9954
59.2109
57.3114
55.3091
53.2161
51.0443
48.8059
46.5139
44.1808
41.8206
39.4462
37.072
34.712
32.3802
30.0914
27.8598
25.7
23.6245
21.637
19.7669
18.0214
16.4321
15.013
13.7762
12.7332
11.8946
11.2693
10.8603
10.663
10.6629
10.8308
11.1195
11.4569
11.7499
11.8484
11.2629
9.9533
8.58789
7.49738
6.69077
5.86638
60.4097
62.2853
63.9407
65.3772
66.5944
67.5951
68.3822
68.9601
69.3312
69.4933
69.4642
69.3104
69.0232
68.5492
67.903
67.0937
66.1095
64.9542
63.6407
62.1821
60.5896
58.8735
57.0456
55.1173
53.0996
51.0046
48.8438
46.6297
44.3745
42.0914
39.7934
37.494
35.2067
32.9452
30.7232
28.5546
26.4526
24.4293
22.4959
20.6743
18.9803
17.4321
16.038
14.8098
13.7589
12.8954
12.2264
11.7537
11.4725
11.3691
11.4156
11.5684
11.7568
11.8851
11.788
11.1781
10.0364
8.79935
7.75394
6.91024
6.06976
59.5945
61.4195
63.0312
64.4326
65.6217
66.6024
67.3756
67.9468
68.3147
68.4756
68.4608
68.3358
68.0737
67.6278
67.0114
66.2347
65.2925
64.1903
62.9362
61.5422
60.0184
58.3744
56.6227
54.7735
52.837
50.826
48.751
46.6243
44.4574
42.2634
40.0543
37.8436
35.6438
33.4683
31.3299
29.242
27.2172
25.2678
23.4065
21.6493
20.0107
18.5047
17.1406
15.9265
14.8732
13.989
13.2783
12.7408
12.3701
12.1522
12.0601
12.0526
12.0652
12.0086
11.7501
11.127
10.1358
9.02682
8.01657
7.14272
6.31066
58.782
60.5523
62.1163
63.4795
64.6363
65.5941
66.3493
66.9103
67.2711
67.4311
67.4327
67.3368
67.0972
66.6806
66.0947
65.3525
64.4513
63.4011
62.2052
60.8755
59.4213
57.8494
56.175
54.4068
52.553
50.6286
48.6416
46.6053
44.5288
42.4266
40.3087
38.189
36.0784
33.9907
31.9371
29.9313
27.9846
26.1093
24.3165
22.6203
21.0329
19.567
18.2318
17.0345
15.9817
15.0789
14.3291
13.7297
13.2725
12.943
12.7152
12.5511
12.3957
12.1765
11.8018
11.1799
10.3089
9.32271
8.3639
7.48333
6.64831
57.9948
59.7089
61.2215
62.5461
63.6677
64.6019
65.337
65.8876
66.2403
66.4042
66.4219
66.3529
66.1334
65.7462
65.1902
64.4844
63.6234
62.6254
61.4863
60.2209
58.8367
57.3362
55.74
54.0538
52.2828
50.4467
48.5484
46.604
44.6184
42.6091
40.5829
38.5551
36.5336
34.534
32.5647
30.6409
28.7716
26.9693
25.2423
23.6047
22.0656
20.6378
19.3286
18.1442
17.0888
16.1646
15.3739
14.7123
14.1707
13.7353
13.3818
13.0769
12.7757
12.4241
11.9613
11.3355
10.544
9.65569
8.75601
7.89107
7.05721
57.2089
58.8654
60.3238
61.6091
62.6939
63.6058
64.3211
64.8611
65.2065
65.3783
65.4115
65.3673
65.1675
64.8089
64.2825
63.614
62.7934
61.8483
60.7645
59.564
58.2519
56.8229
55.3061
53.7024
52.0139
50.2684
48.46
46.609
44.7148
42.8002
40.8666
38.9317
36.9992
35.0877
33.2019
31.3599
29.5676
27.8375
26.174
24.5925
23.099
21.7073
20.4221
19.2481
18.1876
17.2412
16.4104
15.6889
15.067
14.5344
14.068
13.6408
13.2171
12.7582
12.224
11.585
10.837
10.0156
9.16945
8.33111
7.50918
56.4131
58.0172
59.4132
60.6644
61.7048
62.5995
63.2912
63.8241
64.1604
64.3484
64.3915
64.3735
64.19
63.8621
63.3624
62.7337
61.9494
61.0657
60.0284
58.8961
57.661
56.2977
54.8701
53.3484
51.7345
50.087
48.3666
46.6147
44.8072
42.9926
41.1495
39.3116
37.4652
35.6441
33.8365
32.0779
30.361
28.7052
27.1006
25.5751
24.1203
22.7641
21.4999
20.338
19.271
18.301
17.4358
16.66
15.9636
15.3463
14.7807
14.2514
13.725
13.1796
12.5845
11.9259
11.1961
10.4163
9.60762
8.7958
7.99177
55.6474
57.309
58.5428
59.8666
60.7519
61.7077
62.2693
62.8891
63.1361
63.4381
63.3919
63.4781
63.2316
63.0226
62.4731
61.9567
61.1072
60.3879
59.3471
58.2906
57.1674
55.764
54.4962
53.0882
51.4614
49.9868
48.2838
46.6991
44.9059
43.2513
41.4355
39.7471
37.9389
36.2574
34.4725
32.8361
31.151
29.6072
28.0221
26.5877
25.1294
23.8355
22.5703
21.4308
20.3596
19.3489
18.4659
17.6396
16.8672
16.1948
15.5318
14.9306
14.3075
13.7009
13.043
12.3713
11.6362
10.8913
10.0985
9.29938
8.51666
4.42565
3.68899
3.0015
2.307
1.60877
0.94931
0.342702
-0.201953
-0.663861
-1.0349
-1.31149
-1.49963
-1.60211
-1.61281
-1.56081
-1.46998
-1.35434
-1.23366
-1.12244
-1.02892
-0.95629
-0.900563
-0.857698
-0.821507
-0.794673
-0.761363
-0.726558
-0.68416
-0.630635
-0.565454
-0.485329
-0.389427
-0.278159
-0.151134
-0.0118241
0.139164
0.298017
0.460237
0.622081
0.77821
0.923735
1.0526
1.16386
1.25332
1.31735
1.35585
1.36772
1.35417
1.31596
1.25618
1.17876
1.08704
0.983973
0.875066
0.761335
0.64538
0.527461
0.406531
0.268772
0.0949746
-0.0918974
5.01097
4.30975
3.68277
3.03635
2.36775
1.73941
1.16237
0.639225
0.195403
-0.157206
-0.414155
-0.573037
-0.634168
-0.613017
-0.540761
-0.440784
-0.324409
-0.207701
-0.10307
-0.017628
0.0472138
0.094235
0.125341
0.152691
0.164624
0.187219
0.207211
0.235535
0.273124
0.322413
0.385667
0.464208
0.558462
0.667967
0.790977
0.92483
1.06608
1.21143
1.35683
1.49823
1.63113
1.75089
1.85296
1.93382
1.99078
2.02257
2.02868
2.00926
1.96541
1.8995
1.81464
1.71429
1.60146
1.48197
1.35683
1.23027
1.10102
0.969221
0.828635
0.67357
0.501987
5.25281
4.55742
3.9209
3.22606
2.50287
1.85511
1.25682
0.697338
0.215297
-0.176411
-0.477255
-0.686824
-0.807406
-0.855037
-0.831544
-0.758857
-0.642199
-0.509632
-0.391714
-0.296504
-0.224621
-0.172946
-0.133524
-0.110267
-0.080406
-0.0595533
-0.0298569
0.00521612
0.0497417
0.105505
0.174567
0.258192
0.356585
0.468963
0.593692
0.72844
0.870036
1.01478
1.1586
1.29706
1.42563
1.54012
1.6368
1.71229
1.76394
1.79047
1.79145
1.7678
1.72109
1.65409
1.57002
1.47294
1.3666
1.25468
1.13975
1.02389
0.90641
0.784074
0.649948
0.494614
0.313592
5.52074
4.81609
4.14844
3.43361
2.71209
2.06466
1.45008
0.866172
0.378649
-0.00637941
-0.305628
-0.510358
-0.61549
-0.636089
-0.578422
-0.45754
-0.318565
-0.208185
-0.100713
-0.00525115
0.0702441
0.125638
0.163444
0.187329
0.207294
0.221164
0.237916
0.259241
0.288275
0.327487
0.379232
0.445294
0.526299
0.621542
0.729659
0.848329
0.974669
1.10532
1.23652
1.36419
1.48401
1.59204
1.68455
1.75851
1.81133
1.84184
1.84942
1.83483
1.79923
1.74518
1.67484
1.59165
1.49816
1.3972
1.28968
1.17769
1.06284
0.945631
0.822799
0.684911
0.529862
5.85733
5.12498
4.42266
3.69761
2.97566
2.30334
1.66125
1.06995
0.581443
0.182935
-0.142791
-0.364308
-0.479465
-0.517399
-0.485498
-0.401722
-0.298019
-0.174728
-0.0649187
0.0288646
0.0996556
0.151337
0.187819
0.214079
0.235159
0.252662
0.271262
0.294354
0.323977
0.361894
0.410753
0.472378
0.547375
0.635135
0.734569
0.843568
0.959565
1.07959
1.20022
1.31782
1.42825
1.52814
1.6137
1.68246
1.73159
1.76017
1.76705
1.75321
1.71902
1.66703
1.59916
1.51891
1.42958
1.33406
1.23448
1.13476
1.03589
0.932278
0.819738
0.699146
0.561152
6.25539
5.49143
4.75536
4.01916
3.29229
2.59969
1.94144
1.33736
0.821409
0.391018
0.0494929
-0.177241
-0.311068
-0.372719
-0.350265
-0.264811
-0.154164
-0.0382143
0.0681596
0.150185
0.208466
0.251178
0.28031
0.302306
0.31747
0.330313
0.342344
0.359015
0.381418
0.410702
0.450225
0.501891
0.566301
0.642638
0.730111
0.826629
0.929859
1.03717
1.14543
1.25151
1.35126
1.44211
1.52003
1.58357
1.62934
1.65735
1.66572
1.65643
1.62895
1.58639
1.53004
1.46361
1.39003
1.31252
1.23398
1.1523
1.06658
0.977084
0.879247
0.768768
0.639113
6.70595
5.92522
5.16457
4.41566
3.68161
2.97918
2.31388
1.70265
1.16295
0.705302
0.339937
0.0819685
-0.0860016
-0.16116
-0.141321
-0.0679405
0.0320215
0.137104
0.232815
0.302804
0.343403
0.371257
0.387597
0.401734
0.407937
0.413647
0.416806
0.426174
0.440574
0.45946
0.488877
0.529713
0.583248
0.647802
0.723168
0.807037
0.897422
0.991958
1.08792
1.18275
1.27197
1.35402
1.42437
1.48289
1.5251
1.55249
1.56211
1.55708
1.53576
1.50219
1.45639
1.4026
1.34241
1.27782
1.21179
1.14501
1.07615
1.00374
0.923182
0.82953
0.715569
7.19693
6.41551
5.64682
4.89647
4.1594
3.46021
2.79834
2.19544
1.65061
1.18123
0.797973
0.512807
0.301169
0.197179
0.181825
0.219834
0.307502
0.382368
0.446508
0.498995
0.510099
0.515442
0.509852
0.515226
0.507292
0.505275
0.495366
0.497527
0.504719
0.509213
0.527099
0.557287
0.602036
0.655413
0.719892
0.792135
0.870673
0.953554
1.03857
1.12407
1.20367
1.27861
1.34154
1.3965
1.43437
1.46158
1.471
1.46994
1.45249
1.42619
1.38711
1.34278
1.29397
1.2405
1.18669
1.1326
1.07825
1.02254
0.95879
0.883842
0.787107
7.72105
6.95947
6.18752
5.44166
4.70759
4.02986
3.38482
2.82715
2.29186
1.84164
1.47448
1.2066
0.919458
0.784748
0.737289
0.706731
0.756352
0.67982
0.680751
0.75647
0.705658
0.6871
0.634934
0.661192
0.613983
0.619181
0.57085
0.572512
0.583484
0.563348
0.556591
0.585047
0.628072
0.666624
0.722789
0.784949
0.850732
0.926038
1.00172
1.08697
1.15131
1.23064
1.2761
1.33974
1.36207
1.39881
1.39322
1.41026
1.38296
1.37119
1.32659
1.28452
1.24801
1.20457
1.16355
1.11895
1.07636
1.03938
0.988583
0.939134
0.85338
4.93722
-4.45945
-5.77302
14.9312
5.81461
19.3847
18.2055
10.7506
11.5511
29.1879
1.42235
23.6945
18.3141
2.5528
21.684
-102.122
20.6449
12.1021
1.22486
17.6557
15.1652
2.93135
0.886402
20.2573
11.4543
17.1811
17.7256
9.41359
20.396
6.79279
10.5183
16.9011
28.5227
1.39076
22.975
0.636561
0.59556
57.4622
18.842
17.5937
7.78945
-2.80525
18.1102
-87.9906
0.112051
31.6114
11.4306
3.03708
16.3176
25.3442
-3.7841
-44.6774
17.388
9.45235
13.9997
16.4269
6.89932
7.52135
0.7813
-30.8202
3.61194
15.5397
17.1656
-8.14315
-25.6276
14.9086
0.677223
8.70409
18.9588
18.1968
15.4428
59.6613
6.60104
13.3087
13.3748
6.19517
-12.6107
44.4144
17.4709
28.1024
-0.748896
16.5853
16.81
-36.8241
18.0839
50.4035
12.0243
1.51705
15.4202
1.59081
-13.8297
17.4831
5.11505
-30.9951
-37.1305
5.60412
44.2176
10.0262
25.5613
-101.167
14.5479
16.2143
25.1536
17.4034
18.3624
17.3062
15.1948
39.7012
19.8981
-77.6161
-108.778
16.0286
0.261744
1.18776
5.76752
1.89634
0.936279
19.6227
-7.69149
11.212
12.6627
-0.119181
11.2518
-117.386
-26.5771
10.613
15.3516
-47.1682
-34.9845
17.915
21.3356
-7.97453
4.27641
10.9187
2.36276
10.7278
18.2792
-52.491
-30.7246
11.6627
9.6256
-51.5066
14.9113
49.1072
1.28908
12.5303
16.7562
1.31076
31.8229
-0.840179
16.3526
16.4577
59.2384
-33.75
-58.107
8.75521
8.21008
-27.883
16.881
0.606103
16.7421
26.4797
17.7791
12.5173
14.956
13.0371
6.82241
9.73718
17.2901
0.091588
-2.03991
1.53178
5.63951
17.463
1.12265
1.16024
1.04474
8.806
22.4555
1.7156
1.70049
-1.26343
-31.0937
9.62728
6.41719
0.551059
-10.4701
52.1897
9.71857
11.7194
25.5307
20.3515
-17.0169
-39.1581
16.9097
-31.687
4.04921
0.359529
21.4028
0.689118
9.76421
15.0236
13.4982
-58.6558
-1.89022
20.9362
8.47531
16.1828
-45.3968
0.800538
41.3802
-5.778
16.4222
-117.045
11.0859
-77.7241
-65.1318
1.77414
33.3136
1.58469
11.298
40.2079
11.9973
16.9514
0.934779
-7.69383
-9.24373
11.6593
17.0497
59.8521
1.16585
21.4982
-5.29745
-37.7259
13.6818
19.4244
3.18484
-57.3162
-46.7018
19.392
13.4245
8.7188
10.9301
16.1014
-123.184
16.7425
8.29886
-98.4902
24.0145
17.6537
8.85325
23.8272
1.20367
8.34756
11.295
18.8455
25.4396
15.3078
6.50409
1.78331
15.7688
9.4503
-64.8264
18.6469
0.573661
12.8764
17.6031
0.849092
17.6413
0.986276
24.1287
0.984695
22.845
11.3724
52.9371
9.89965
14.3203
10.7507
16.0228
20.8217
50.3845
9.77956
-71.9571
15.385
14.9225
18.8216
17.4063
-61.896
8.01809
7.93756
-26.0168
40.5352
14.4977
17.3251
35.2146
17.4883
9.55258
4.97756
-1.01111
16.4813
10.8519
5.45811
48.5502
-3.75033
3.96554
-78.5132
21.8877
18.7462
19.5284
-100.64
9.76309
11.9671
11.4595
-12.4333
16.5781
14.2548
0.531295
1.19842
7.05518
1.74968
16.5445
3.53319
15.3705
15.0364
-26.7512
1.72732
15.566
0.80379
-90.3714
6.47113
-27.1696
-43.4464
-100.855
1.95948
1.36176
16.9824
0.520606
0.615793
-124.03
35.1191
15.0664
14.8205
12.019
11.6076
49.8478
11.345
-9.36457
18.9537
-70.4161
15.0001
1.18121
-45.2978
-113.604
10.7613
-61.8259
8.64323
2.7203
14.542
1.50548
2.41958
10.2916
0.218129
0.883103
-6.82036
0.886107
16.1587
6.73293
-113.455
-33.994
3.90211
16.6432
-25.9773
-48.3892
12.6798
1.45012
15.7692
-5.88505
7.21271
1.37172
-73.9148
0.634
-79.4862
20.3836
-88.9524
11.2732
4.68384
20.8374
1.10356
-116.957
-27.7153
47.4925
50.2942
3.24598
0.699818
17.2628
30.34
16.8715
-0.564848
12.0785
-10.3769
17.6971
18.8831
22.0496
21.519
-7.63104
-46.6062
11.982
-82.9806
0.26421
-11.2737
1.79998
-61.7735
-2.15595
18.9
-123.759
9.61416
9.2973
23.1797
-52.7657
17.3856
18.4474
1.31076
17.8135
10.0635
14.4266
0.992832
35.9961
-26.0511
-51.4851
9.61428
-60.9369
9.21828
-54.1567
16.9663
15.7714
0.83261
4.0633
-92.8489
-1.91391
1.57951
-10.7975
-61.711
-59.3459
18.4009
4.60879
-41.352
-49.9427
17.2255
2.41269
-32.1961
22.8978
13.1039
36.4574
-39.7502
-0.289866
-9.61385
0.360925
9.0599
-89.5306
2.31471
10.4486
19.9969
47.1849
2.48766
44.0965
2.06439
17.5426
1.52518
1.31889
13.7207
12.4151
-0.00256832
1.32028
16.9265
2.33174
1.30919
2.47857
1.27421
1.97773
1.24936
8.20368
4.72537
15.9588
15.7417
-110.427
10.1155
-68.0746
-106.699
16.3728
0.283901
2.12479
19.2362
3.69705
1.17615
16.4404
17.0771
15.2205
5.36069
-37.4774
10.5795
26.6452
13.6558
13.9105
15.6252
5.51662
0.629976
13.5134
19.3863
9.50516
1.29131
13.9309
13.5976
-12.6742
12.7699
-0.539168
-3.36842
-4.24311
17.5928
20.1244
9.39467
22.5681
3.46875
2.86993
48.8313
-21.7388
-5.52619
22.0266
8.33263
1.09675
1.32094
-80.2793
-27.3257
21.0701
3.18404
10.349
0.699948
-21.0422
18.8741
12.0447
-27.2815
-81.9545
12.7099
-17.808
-54.1127
4.64964
-105.111
9.27471
9.23553
9.05741
-32.2325
13.8303
-80.5915
-2.53598
13.1255
0.853831
17.6284
-0.30274
15.0285
12.7632
31.7931
2.93162
0.807695
14.8901
7.1757
0.680996
-47.0867
-30.5029
8.10081
-34.109
4.76046
28.6926
1.3401
9.21113
-95.6855
9.83763
8.53353
14.4781
1.26203
52.2213
1.71486
8.21742
8.48006
1.23386
1.15414
13.581
15.7443
16.07
9.53972
10.2376
29.343
-76.4243
8.29874
17.9766
-31.6346
0.449571
-86.7116
13.5856
0.70528
17.7958
-55.3182
4.33202
-21.0152
0.89045
0.73304
2.82699
-105.786
20.6767
17.6878
6.57541
16.1502
-26.7816
-22.4654
-6.38871
9.90629
9.04865
5.01135
16.4852
-0.233945
0.681708
16.277
23.3316
1.26215
-56.836
21.0205
1.46806
20.6391
-8.2631
17.3315
36.4434
6.79387
29.5673
18.627
-30.1781
-21.5199
-4.71802
19.2353
10.4281
-32.3867
16.2817
12.5318
4.61121
5.59962
0.672559
-30.9902
40.5585
3.81335
2.0972
0.824727
-89.0205
9.52617
23.4537
15.791
0.930951
5.22849
-22.9223
14.4912
12.4239
5.99541
1.03963
-7.00991
15.2768
2.17452
10.9331
-20.9948
1.15986
39.0862
0.914529
0.198703
8.39053
57.4139
17.122
16.8241
1.08548
10.2164
7.05088
8.79451
10.2074
-115.421
2.01325
-34.8339
30.6179
17.628
8.46911
19.4613
-6.19463
-10.8756
1.11361
3.96632
1.2865
12.9065
-2.58826
18.7776
-88.4497
16.8938
6.60805
2.11816
-3.45398
2.93115
-7.19574
10.6369
3.36901
0.545891
19.3711
-120.429
15.4867
17.2468
10.6679
-4.38886
19.0773
3.8409
-21.331
15.6644
-13.9262
-97.1138
17.5764
8.79944
14.6031
-63.256
-6.47545
15.9643
42.8125
12.6026
9.10917
11.469
-110.869
-125.766
16.6123
-1.50547
-11.9143
1.27657
17.9506
6.93973
-11.4185
13.8256
15.396
-0.10021
18.6491
19.6131
8.45367
14.8566
-3.00957
13.2759
-5.51458
23.2632
1.55029
-4.38293
42.8253
1.01418
6.58336
21.9917
4.11309
-44.6365
24.606
-83.7725
21.0073
1.20041
-19.5281
10.097
-9.82578
0.684547
12.8367
12.9963
-93.7173
-40.3195
13.4852
-65.0299
-9.12646
53.728
-16.1004
-20.0453
21.278
0.687983
6.0279
11.9244
-54.9342
-22.5567
-4.68884
-4.38949
-6.53436
0.945618
22.7221
19.1819
13.4145
-121.582
-44.6629
27.5418
2.2386
-112.184
11.2167
14.5066
10.4194
1.01629
4.80917
1.07537
-14.9579
21.485
-121.211
-17.1778
-85.6342
-98.1295
18.9208
25.4535
-43.6951
26.3059
14.6123
12.2683
11.0761
10.3474
26.1365
18.0374
2.1046
-51.5764
-30.2853
24.6929
2.25488
3.5154
13.7986
1.26098
12.9447
-53.3997
1.11754
49.2656
3.69384
22.3408
11.5946
18.6889
15.8689
-76.8954
12.9269
44.8328
0.83015
0.833994
32.2582
61.1751
12.7074
13.2725
25.1527
-50.486
-15.7256
17.3464
9.91423
-91.2694
27.4875
17.4959
-62.9239
15.9008
3.70064
1.24828
6.26217
-16.2643
53.8594
0.695794
-8.62871
-0.572264
17.8704
0.136155
9.4856
14.9508
17.4459
12.1449
0.846976
17.3826
0.60729
30.3256
0.121285
11.4319
10.3644
16.7666
8.46159
-50.3614
9.80224
18.3716
-29.3137
-70.4714
34.0688
1.39087
7.5088
17.148
34.35
-84.3625
9.34052
-3.0354
11.1946
16.377
-88.4453
17.5207
9.72872
50.133
29.8658
-19.4947
4.32816
15.9334
17.4566
-65.8292
-4.60984
10.1131
14.9627
1.12248
17.7946
-127.663
7.40566
0.807163
10.538
18.9528
-0.243952
14.8019
23.1003
24.9833
4.61421
-0.902925
18.0685
20.8065
17.481
20.4204
10.7728
18.2544
-70.6432
2.31821
18.1792
-25.5636
14.1385
7.14587
19.743
11.6775
-62.2135
10.6323
5.12968
19.0634
-20.6952
16.7894
-24.6142
-104.247
1.61572
1.02508
-47.6668
16.2316
18.5634
-21.5099
-104.231
1.21816
-14.2608
15.942
-82.3884
13.4182
16.6959
18.4808
-18.3699
6.90579
9.51868
-28.5571
17.4879
8.54963
-84.988
10.5415
-119.346
47.0808
11.6916
18.3945
6.38525
17.0378
-9.15216
-6.29318
20.2255
-18.3638
5.75349
12.8743
-38.095
4.58438
17.6555
-49.1595
14.9581
1.9272
-67.48
-14.0147
17.3724
19.4371
14.7439
62.2505
8.56574
-2.48845
-23.7969
15.7049
-11.7055
15.4923
5.43071
15.6835
0.700484
9.7484
0.662676
-14.0352
59.0009
7.30135
59.3751
6.98735
12.6515
3.99403
20.0484
-9.40099
18.0578
11.1218
1.32053
59.9244
16.9294
9.01231
-8.49943
0.564786
-108.966
16.0098
-5.64487
10.3732
-21.7553
-61.6944
0.892416
-73.4514
9.47463
2.67535
-25.7684
18.4751
15.8164
14.196
12.2069
21.4487
16.3955
12.8333
17.7538
1.08314
-68.689
17.8234
20.3827
18.0194
7.92428
-73.1318
1.28054
-24.449
15.7269
-43.2993
0.770304
25.1238
-67.2088
17.1947
0.660036
40.2689
1.27958
22.9056
4.12731
1.54496
16.1912
10.4286
-107.247
13.8209
-1.44163
-39.2475
1.2405
15.9276
11.0894
30.9923
2.79123
1.06194
-78.9168
15.998
16.6293
17.0709
-20.0598
-36.0316
14.0435
12.7967
15.2162
1.15998
1.44894
49.4161
0.35485
-65.9187
1.9772
-59.0573
0.361805
0.628489
32.4502
50.9947
12.9269
60.1995
45.4542
18.4757
17.8712
6.32897
14.5529
18.7102
2.10068
1.81492
19.794
1.54685
10.24
19.3134
8.92163
18.6821
28.8813
1.36416
-5.47456
-120.529
18.0851
11.9727
-50.6394
7.70172
22.5314
14.0759
10.8536
2.06762
17.4129
-2.22565
1.56364
30.4503
12.8309
0.606412
16.8428
17.5114
15.7874
5.74163
15.6236
17.1153
-3.56141
18.6616
20.7581
-75.9772
-28.7635
-18.501
14.7791
1.29561
-50.5927
17.1802
1.36871
1.088
-125.99
0.674551
17.0289
8.75415
31.5437
-1.14136
1.0915
9.16585
46.478
1.44334
16.327
0.962806
16.7695
54.0367
14.2461
-20.9667
17.032
0.845038
-69.5325
15.7564
42.3748
4.15331
13.0345
18.9465
29.4891
11.009
19.8856
1.81802
16.4192
10.6303
-123.197
4.45165
18.7846
20.0901
-65.0743
-82.0071
17.1176
18.232
12.5692
11.4342
-59.765
24.732
-58.8112
17.9192
11.3472
17.7156
-12.0586
5.65618
17.5428
0.535716
1.26497
-88.9652
-60.7254
8.24018
-2.84436
-74.7684
18.5273
18.5689
18.6687
7.45346
19.0462
2.15676
18.3459
9.53438
-1.93103
-25.1349
2.42586
12.7246
1.20664
36.4967
16.8464
19.6986
-103.862
15.6451
15.6759
20.2489
12.5098
-73.354
-7.01287
1.6448
17.3737
17.1104
17.8032
-4.27936
20.3991
-17.7649
8.40194
8.46811
13.4832
9.44832
15.8047
11.0492
10.5995
9.79424
-1.69459
-10.4161
2.8041
-86.339
11.8925
16.892
0.938594
-90.8993
41.3753
2.20621
23.8237
16.0622
13.1816
11.8508
16.7039
60.9048
-8.27003
0.834004
-94.9726
16.9914
27.9826
-37.1528
3.42816
-51.7105
1.14486
31.0731
1.25796
16.7957
-22.8362
-13.259
-38.1847
-8.49899
17.9317
1.29438
7.71927
22.5238
13.1873
19.5296
8.86912
56.8627
20.6078
16.7224
44.0143
10.6732
15.8212
18.664