/*--------------------------------*- C++ -*----------------------------------*\
| =========                 |                                                 |
| \\      /  F ield         | OpenFOAM: The Open Source CFD Toolbox           |
|  \\    /   O peration     | Version:  2.3.1                                 |
|   \\  /    A nd           | Web:      www.OpenFOAM.org                      |
|    \\/     M anipulation  |                                                 |
\*---------------------------------------------------------------------------*/
FoamFile
{
    version     2.0;
    format      ascii;
    class       volVectorField;
    location    "0.42";
    object      U;
}
// * * * * * * * * * * * * * * * * * * * * * * * * * * * * * * * * * * * * * //

dimensions      [0 1 -1 0 0 0 0];

internalField   nonuniform List<vector> 
9648
(
(0.170431 -4.74496 1.22281e-22)
(0.284519 -4.7287 -1.49768e-22)
(0.40008 -4.69624 0)
(0.519678 -4.66926 0)
(0.640464 -4.64571 1.10477e-20)
(0.762218 -4.62805 1.70864e-20)
(0.887331 -4.61954 -2.9278e-20)
(1.01825 -4.62297 -1.3289e-20)
(1.15656 -4.63946 1.32572e-20)
(1.30243 -4.67095 3.95705e-20)
(1.4579 -4.71916 -3.94091e-20)
(1.62482 -4.78517 -5.62005e-20)
(1.80518 -4.86961 2.98384e-19)
(2.00102 -4.97249 7.68014e-20)
(2.21404 -5.09302 -7.20187e-19)
(2.44548 -5.22998 0)
(2.69651 -5.38164 0)
(2.96802 -5.54597 1.30128e-19)
(3.26074 -5.72044 4.19139e-19)
(3.57483 -5.90238 -1.20557e-18)
(3.91033 -6.08923 -2.07505e-20)
(4.26711 -6.27795 3.32113e-19)
(4.64443 -6.46561 3.92005e-19)
(5.04157 -6.64935 -1.7804e-18)
(5.45766 -6.82651 0)
(5.89172 -6.99451 1.06528e-18)
(6.3424 -7.15087 -1.11726e-18)
(6.80839 -7.29351 0)
(7.28827 -7.42019 0)
(7.78044 -7.52929 -6.77901e-19)
(8.28353 -7.61919 -1.50009e-18)
(8.79579 -7.6885 2.35585e-18)
(9.31561 -7.73604 0)
(9.84118 -7.7605 0)
(10.3705 -7.76111 1.80555e-18)
(10.9021 -7.73701 -1.94272e-18)
(11.434 -7.68778 0)
(11.9648 -7.61314 4.17203e-18)
(12.4925 -7.51269 1.12547e-18)
(13.0156 -7.3863 -3.33235e-18)
(13.532 -7.23397 6.24838e-20)
(14.0403 -7.05617 2.37187e-18)
(14.539 -6.85277 -3.1509e-18)
(15.0261 -6.62428 6.3383e-19)
(15.5005 -6.37146 0)
(15.9608 -6.09443 0)
(16.4053 -5.79389 4.78406e-18)
(16.8328 -5.47064 7.00142e-19)
(17.2426 -5.12569 -2.16398e-18)
(17.6341 -4.7591 -7.28508e-19)
(18.0054 -4.37099 -7.58016e-19)
(18.3545 -3.96392 7.53258e-19)
(18.6812 -3.53966 3.89274e-19)
(18.9845 -3.09898 -3.8714e-19)
(19.2633 -2.64359 1.97669e-18)
(19.5173 -2.17456 -1.94675e-18)
(19.7453 -1.69333 -2.15525e-20)
(19.9472 -1.20113 0)
(20.1222 -0.699393 -3.95639e-19)
(20.27 -0.189806 -5.11739e-20)
(20.3906 0.326416 -4.85378e-20)
(-0.0501125 -2.46408 2.61462e-23)
(0.00921648 -2.46217 0)
(0.0733691 -2.47438 0)
(0.145676 -2.50071 7.0905e-21)
(0.222875 -2.54578 -6.92795e-21)
(0.309173 -2.61346 -4.00981e-20)
(0.40619 -2.70258 0)
(0.515581 -2.81112 0)
(0.639302 -2.93948 -4.55363e-20)
(0.777818 -3.08805 0)
(0.932384 -3.2557 -1.07256e-19)
(1.10381 -3.44091 8.41137e-20)
(1.29303 -3.64239 -4.53769e-20)
(1.501 -3.85852 0)
(1.72847 -4.08739 2.80482e-19)
(1.97577 -4.32688 1.65667e-19)
(2.24323 -4.57472 -1.62992e-19)
(2.53107 -4.82865 2.11174e-19)
(2.83956 -5.08624 -6.43122e-19)
(3.16849 -5.3451 5.1129e-19)
(3.51754 -5.60299 -5.65764e-19)
(3.88638 -5.85737 -3.04634e-19)
(4.27412 -6.10578 -3.12456e-19)
(4.68005 -6.34583 1.07276e-18)
(5.10328 -6.57526 3.71391e-19)
(5.54295 -6.792 4.41286e-19)
(5.99796 -6.99414 -3.91543e-19)
(6.46708 -7.17988 0)
(6.94908 -7.34742 0)
(7.44254 -7.49544 0)
(7.9461 -7.62252 0)
(8.45822 -7.72755 0)
(8.97734 -7.80943 0)
(9.50188 -7.86702 0)
(10.03 -7.89972 -8.08697e-19)
(10.5602 -7.90673 7.34706e-19)
(11.0909 -7.8878 8.10423e-19)
(11.6204 -7.84262 -4.11655e-18)
(12.1472 -7.77087 -8.7395e-19)
(12.6696 -7.67249 2.68737e-18)
(13.1859 -7.54758 1.88594e-18)
(13.6944 -7.39653 -1.94665e-18)
(14.1938 -7.21921 9.29837e-19)
(14.6823 -7.01629 9.81401e-19)
(15.1585 -6.78838 -1.04354e-18)
(15.621 -6.53573 1.03419e-18)
(16.0683 -6.25914 -2.21704e-18)
(16.4991 -5.95949 0)
(16.9121 -5.63779 -5.66635e-19)
(17.3063 -5.29418 1.13867e-18)
(17.6812 -4.92906 -5.72192e-19)
(18.0355 -4.54441 0)
(18.3682 -4.14164 1.1765e-18)
(18.6782 -3.72154 0)
(18.9647 -3.28558 0)
(19.2267 -2.83491 2.78989e-18)
(19.4637 -2.37083 -1.25758e-18)
(19.6749 -1.89494 -3.06011e-19)
(19.8599 -1.40812 3.23e-19)
(20.0183 -0.912088 0)
(20.1495 -0.408086 8.12473e-20)
(0.0551991 -1.40123 -1.65431e-22)
(0.106234 -1.44053 0)
(0.164561 -1.50178 -8.62033e-22)
(0.232346 -1.58552 -2.84827e-22)
(0.308133 -1.68881 0)
(0.395459 -1.80979 3.48851e-20)
(0.495369 -1.95081 2.28643e-20)
(0.609138 -2.11087 0)
(0.738271 -2.28959 2.19361e-21)
(0.884555 -2.48561 4.63473e-20)
(1.04898 -2.69787 9.14779e-20)
(1.23221 -2.92452 -3.16624e-20)
(1.43481 -3.1638 0)
(1.65712 -3.41371 0)
(1.89941 -3.67219 2.13457e-19)
(2.16162 -3.93709 -1.35199e-19)
(2.44379 -4.20612 -1.44671e-19)
(2.74585 -4.47709 0)
(3.06766 -4.74782 5.55987e-19)
(3.40888 -5.01626 -5.77153e-19)
(3.76891 -5.28042 -4.31206e-19)
(4.14708 -5.53815 -4.74391e-19)
(4.54258 -5.78724 0)
(4.95459 -6.02553 -8.48592e-19)
(5.38232 -6.25113 -2.98257e-19)
(5.82488 -6.46236 3.54292e-19)
(6.28118 -6.65763 3.91189e-19)
(6.75009 -6.83541 0)
(7.23035 -6.99423 0)
(7.72058 -7.13276 0)
(8.21942 -7.24989 0)
(8.72537 -7.34459 0)
(9.23692 -7.4159 0)
(9.75254 -7.46299 0)
(10.2706 -7.48529 -1.77058e-18)
(10.7896 -7.48226 5.88137e-19)
(11.308 -7.45367 -6.48843e-19)
(11.8243 -7.39928 3.26539e-18)
(12.337 -7.31891 0)
(12.8445 -7.21262 1.38948e-18)
(13.3452 -7.08059 1.43717e-18)
(13.8375 -6.92308 7.12081e-19)
(14.32 -6.74022 -8.15915e-19)
(14.7912 -6.53255 -1.57157e-18)
(15.2497 -6.30059 2.44894e-18)
(15.6942 -6.04484 -8.2833e-19)
(16.1233 -5.76607 -1.6902e-18)
(16.5359 -5.46508 0)
(16.9307 -5.14283 0)
(17.3066 -4.80028 -4.61551e-19)
(17.6627 -4.43861 -4.51414e-19)
(17.9981 -4.05869 -9.23253e-19)
(18.312 -3.66159 -9.66509e-19)
(18.6034 -3.24869 0)
(18.8715 -2.82081 -9.56255e-19)
(19.1157 -2.37967 -9.96669e-19)
(19.3353 -1.926 0)
(19.5296 -1.46194 1.61614e-20)
(19.6981 -0.987859 0)
(19.8405 -0.505489 0)
(19.9566 -0.0158585 -6.17925e-20)
(0.0233414 -0.891768 3.86817e-22)
(0.0795792 -0.970497 -3.761e-22)
(0.146998 -1.06928 -7.34707e-22)
(0.226664 -1.1869 -2.31534e-21)
(0.318618 -1.3221 0)
(0.422489 -1.47452 -1.46242e-20)
(0.539643 -1.64439 -1.97345e-20)
(0.671312 -1.8312 0)
(0.818876 -2.03419 3.0279e-21)
(0.983225 -2.25224 -3.95983e-20)
(1.16524 -2.48398 8.84082e-20)
(1.36529 -2.72778 1.06069e-19)
(1.58372 -2.98174 0)
(1.82073 -3.24389 -8.24593e-20)
(2.07654 -3.51226 -1.7455e-19)
(2.35093 -3.78477 -9.27981e-20)
(2.64387 -4.05924 3.55726e-19)
(2.95529 -4.33359 -2.56713e-19)
(3.28487 -4.60591 2.87516e-19)
(3.63219 -4.87439 4.89398e-19)
(3.99666 -5.13733 7.077e-19)
(4.37743 -5.39271 3.98493e-19)
(4.77386 -5.63841 1.9159e-19)
(5.18527 -5.87253 6.9517e-19)
(5.61098 -6.09337 2.28244e-19)
(6.0501 -6.29962 2.59553e-19)
(6.50159 -6.48993 3.0618e-19)
(6.96436 -6.66284 -9.16316e-19)
(7.43718 -6.817 6.57549e-19)
(7.91881 -6.9511 7.42719e-19)
(8.40805 -7.06404 -1.51816e-18)
(8.90342 -7.155 7.75101e-19)
(9.40351 -7.22309 -8.30574e-19)
(9.9069 -7.26764 4.14069e-19)
(10.4121 -7.28821 4.53568e-19)
(10.9177 -7.28428 5.03303e-19)
(11.4223 -7.25554 -4.96868e-19)
(11.9245 -7.20183 -5.41217e-19)
(12.423 -7.12299 -1.62285e-18)
(12.9161 -7.01911 -1.17066e-18)
(13.4024 -6.89041 -2.37365e-18)
(13.8803 -6.73708 -3.07526e-18)
(14.3484 -6.55939 1.26093e-18)
(14.8054 -6.35773 2.83614e-20)
(15.2499 -6.13263 -7.06171e-19)
(15.6807 -5.88463 -6.92938e-19)
(16.0966 -5.61437 4.1894e-18)
(16.4963 -5.32265 -7.02224e-19)
(16.8788 -5.01023 0)
(17.243 -4.67799 0)
(17.5881 -4.32699 -7.05783e-19)
(17.9131 -3.95839 3.13992e-20)
(18.2172 -3.57318 7.57396e-19)
(18.4996 -3.1725 0)
(18.7595 -2.75761 8.06763e-19)
(18.996 -2.32981 0)
(19.2087 -1.89027 0)
(19.397 -1.43994 6.15178e-19)
(19.5603 -0.98035 1.95732e-19)
(19.6985 -0.512953 -1.99466e-19)
(19.8111 -0.0392199 1.02081e-19)
(0.109386 -0.63849 4.1409e-23)
(0.168267 -0.739746 3.28694e-22)
(0.240606 -0.858315 6.11503e-23)
(0.327265 -0.994223 1.63527e-21)
(0.427967 -1.14709 -3.90367e-21)
(0.543211 -1.31645 5.95348e-21)
(0.673556 -1.50196 2.30608e-21)
(0.819669 -1.70273 -1.47358e-20)
(0.982585 -1.91791 4.15733e-20)
(1.16248 -2.14629 -5.97286e-20)
(1.35995 -2.3864 6.6748e-20)
(1.5748 -2.63661 -8.21924e-20)
(1.80726 -2.89499 -4.71782e-20)
(2.05714 -3.15965 0)
(2.32477 -3.42859 8.51561e-20)
(2.60962 -3.69999 8.15513e-20)
(2.91166 -3.97172 0)
(3.23077 -4.24186 2.0123e-19)
(3.56637 -4.50878 0)
(3.91814 -4.77083 -2.66031e-19)
(4.28544 -5.02646 2.90252e-19)
(4.66738 -5.27379 9.86746e-21)
(5.06363 -5.5107 -1.69767e-20)
(5.47337 -5.73558 2.87589e-20)
(5.89615 -5.947 -8.11385e-19)
(6.33108 -6.14394 -4.6587e-19)
(6.77688 -6.32514 9.58738e-19)
(7.23271 -6.48914 1.03982e-18)
(7.69734 -6.63462 -5.6244e-19)
(8.16957 -6.76018 0)
(8.6485 -6.86493 0)
(9.13261 -6.94823 0)
(9.62056 -7.00934 7.11668e-19)
(10.1112 -7.04777 -2.9403e-18)
(10.6029 -7.0631 1.53816e-18)
(11.0943 -7.05476 -7.82078e-19)
(11.5845 -7.02235 -1.6868e-18)
(12.0718 -6.96582 1.71072e-18)
(12.5551 -6.88493 3.92733e-20)
(13.033 -6.77988 -9.65901e-19)
(13.504 -6.65096 9.97635e-19)
(13.9665 -6.49836 1.03177e-18)
(14.4192 -6.32236 0)
(14.8609 -6.12323 -1.04807e-18)
(15.2902 -5.90154 0)
(15.706 -5.65782 -1.6748e-18)
(16.1071 -5.39269 5.17828e-19)
(16.4924 -5.10687 0)
(16.8608 -4.80104 -6.07654e-19)
(17.2114 -4.47619 -1.46706e-20)
(17.5434 -4.13315 1.29465e-18)
(17.8558 -3.7731 -6.15415e-19)
(18.1479 -3.39709 -3.42373e-19)
(18.419 -3.00623 6.26906e-19)
(18.6682 -2.60186 -4.85732e-21)
(18.8947 -2.18496 3.27034e-19)
(19.0978 -1.75682 1.58028e-19)
(19.2772 -1.31837 3.3361e-19)
(19.4325 -0.870813 -8.38262e-19)
(19.5634 -0.415649 3.36769e-19)
(19.6694 0.0455779 -4.31005e-20)
(0.188604 -0.504145 -2.20689e-22)
(0.260862 -0.621125 0)
(0.347553 -0.75398 5.18671e-22)
(0.449463 -0.903116 0)
(0.565696 -1.06818 1.32212e-21)
(0.697212 -1.24849 8.99804e-21)
(0.844231 -1.44354 9.48055e-21)
(1.0072 -1.65216 2.8249e-20)
(1.18708 -1.8734 3.6759e-21)
(1.38338 -2.10611 5.65076e-21)
(1.59679 -2.34871 1.13297e-21)
(1.82638 -2.59977 -3.13924e-20)
(2.07257 -2.8573 4.55776e-20)
(2.33442 -3.11942 -1.38682e-19)
(2.61306 -3.3841 1.17213e-19)
(2.90748 -3.65007 -8.34885e-21)
(3.21735 -3.91495 -1.44376e-19)
(3.54291 -4.17717 -1.73641e-19)
(3.88306 -4.43543 0)
(4.23765 -4.68797 2.06856e-19)
(4.60648 -4.93346 8.01936e-21)
(4.98818 -5.17009 -5.33487e-19)
(5.38306 -5.39569 -2.26711e-20)
(5.79009 -5.60934 -2.88197e-19)
(6.20861 -5.80966 1.01806e-18)
(6.63793 -5.99593 3.4978e-20)
(7.07661 -6.16689 -3.7854e-19)
(7.52415 -6.32057 -4.00598e-20)
(7.97916 -6.45598 0)
(8.44074 -6.5717 0)
(8.90801 -6.66704 0)
(9.37936 -6.74208 0)
(9.85378 -6.79588 0)
(10.3302 -6.82787 5.50518e-20)
(10.8073 -6.83784 -6.58681e-19)
(11.2834 -6.825 -3.81657e-20)
(11.7578 -6.78865 2.87153e-20)
(12.2291 -6.72901 6.78944e-19)
(12.6962 -6.64582 1.55216e-18)
(13.1578 -6.53948 -2.34121e-18)
(13.6123 -6.4105 1.62969e-18)
(14.0584 -6.25889 -8.22687e-19)
(14.4946 -6.085 0)
(14.9199 -5.88881 9.14055e-19)
(15.3331 -5.67101 0)
(15.733 -5.43214 9.62539e-19)
(16.1185 -5.17263 -9.85103e-19)
(16.4883 -4.8935 4.62834e-19)
(16.8418 -4.59502 4.94433e-19)
(17.178 -4.27823 -5.16156e-19)
(17.4961 -3.94395 3.67174e-20)
(17.7952 -3.59344 -1.06349e-20)
(18.0748 -3.22742 1.05045e-18)
(18.334 -2.84731 -1.0814e-18)
(18.5722 -2.4543 -5.33718e-19)
(18.7884 -2.0497 -2.61363e-19)
(18.9817 -1.63429 -8.3163e-19)
(19.1519 -1.20889 0)
(19.2989 -0.774608 5.62098e-19)
(19.4225 -0.333262 -1.44339e-19)
(19.5221 0.113872 0)
(0.288718 -0.439764 0)
(0.375522 -0.567762 0)
(0.477845 -0.711239 -4.45133e-22)
(0.597177 -0.87042 -6.69771e-22)
(0.730603 -1.04455 -2.63543e-21)
(0.880144 -1.23238 -1.40621e-20)
(1.04517 -1.4334 6.98488e-21)
(1.22546 -1.64606 -2.04603e-20)
(1.42325 -1.86962 -1.23419e-21)
(1.63582 -2.10296 5.04399e-20)
(1.86553 -2.34449 -9.10956e-20)
(2.10937 -2.59312 0)
(2.36907 -2.84659 0)
(2.64174 -3.10321 1.57759e-19)
(2.93104 -3.3604 1.00098e-19)
(3.2342 -3.61828 -2.20092e-19)
(3.55076 -3.87391 3.56229e-19)
(3.88198 -4.12598 1.48938e-19)
(4.22528 -4.37397 -2.9805e-19)
(4.58144 -4.61517 -1.80121e-19)
(4.95124 -4.84837 2.06288e-19)
(5.33156 -5.0727 -5.72068e-21)
(5.72488 -5.28512 0)
(6.12812 -5.48653 5.29729e-19)
(6.54134 -5.67515 -8.73663e-19)
(6.96422 -5.84999 2.91092e-19)
(7.39409 -6.0099 6.43546e-19)
(7.83241 -6.15185 -1.7871e-18)
(8.2773 -6.27578 3.63768e-19)
(8.72681 -6.38055 0)
(9.18182 -6.46583 0)
(9.63942 -6.53275 0)
(10.0987 -6.57937 4.99882e-19)
(10.5603 -6.60454 1.54669e-18)
(11.0218 -6.60868 -1.04525e-18)
(11.4811 -6.59121 5.76264e-19)
(11.9392 -6.54992 6.31155e-19)
(12.3937 -6.48637 -1.2518e-18)
(12.8433 -6.40029 0)
(13.2878 -6.29205 -1.2857e-18)
(13.7249 -6.16287 6.67719e-19)
(14.1537 -6.01206 3.45366e-20)
(14.5722 -5.84044 -3.11394e-20)
(14.9801 -5.64694 7.35857e-19)
(15.3763 -5.43288 3.10998e-20)
(15.759 -5.19911 -2.35095e-18)
(16.1281 -4.94518 7.96616e-19)
(16.4815 -4.67293 -1.65516e-18)
(16.8191 -4.38171 0)
(17.1397 -4.07337 0)
(17.4431 -3.74778 1.74884e-18)
(17.728 -3.40724 -4.1787e-19)
(17.9939 -3.05162 -9.06515e-19)
(18.2407 -2.6822 -4.35961e-19)
(18.4672 -2.30106 1.39217e-18)
(18.6723 -1.90923 7.02466e-19)
(18.8551 -1.50698 2.42881e-19)
(19.0153 -1.09546 -4.53547e-21)
(19.1532 -0.674755 -2.43117e-19)
(19.269 -0.247312 0)
(19.3618 0.184987 0)
(0.405487 -0.419782 2.77457e-22)
(0.510144 -0.555614 0)
(0.629328 -0.706666 0)
(0.768828 -0.873484 -3.8612e-23)
(0.919971 -1.05424 0)
(1.08864 -1.24689 6.17497e-21)
(1.27202 -1.45104 6.66094e-21)
(1.46878 -1.6647 -1.36463e-20)
(1.6858 -1.8878 0)
(1.91335 -2.11916 -3.01282e-20)
(2.16043 -2.35715 3.77963e-21)
(2.41699 -2.60143 0)
(2.69107 -2.84892 0)
(2.97162 -3.09844 -6.63825e-20)
(3.27198 -3.34499 7.21642e-20)
(3.58365 -3.5935 -8.99256e-20)
(3.90496 -3.83856 -1.03247e-19)
(4.24175 -4.07908 0)
(4.58681 -4.3165 1.33211e-19)
(4.94298 -4.54486 -2.80742e-19)
(5.31479 -4.76422 -3.13118e-19)
(5.69167 -4.97563 -3.65934e-19)
(6.08379 -5.17324 -3.26822e-20)
(6.48245 -5.36307 -4.66131e-19)
(6.88925 -5.53975 4.46278e-19)
(7.30567 -5.70243 4.98491e-19)
(7.72452 -5.85117 -5.65873e-19)
(8.1531 -5.97924 3.13443e-20)
(8.58725 -6.09077 4.16823e-20)
(9.02315 -6.18515 -6.51713e-19)
(9.46548 -6.26024 0)
(9.90805 -6.32057 -7.95618e-19)
(10.3511 -6.36028 1.57708e-18)
(10.7972 -6.37706 -4.48211e-20)
(11.2435 -6.37508 9.2298e-19)
(11.6845 -6.35328 -9.15848e-19)
(12.1262 -6.30491 1.00941e-18)
(12.5625 -6.23713 1.05354e-18)
(12.9932 -6.14838 -2.08273e-18)
(13.4199 -6.0377 1.13978e-18)
(13.8382 -5.90912 1.12126e-18)
(14.2491 -5.75884 1.7711e-18)
(14.6482 -5.58991 -6.30443e-19)
(15.0377 -5.39793 0)
(15.416 -5.18769 3.36774e-20)
(15.7801 -4.96002 6.85063e-19)
(16.1324 -4.71123 -6.66148e-19)
(16.4677 -4.44725 7.17283e-19)
(16.7886 -4.1632 0)
(17.092 -3.86435 0)
(17.3799 -3.5473 -3.91947e-20)
(17.6495 -3.21775 7.71003e-19)
(17.9006 -2.87183 0)
(18.134 -2.51289 3.83119e-19)
(18.3485 -2.14473 3.86539e-19)
(18.5418 -1.76674 -7.877e-19)
(18.7137 -1.3782 -3.86514e-19)
(18.8623 -0.98166 -2.05386e-19)
(18.9899 -0.574045 0)
(19.0977 -0.161526 0)
(19.1829 0.254507 2.46202e-20)
(0.539044 -0.428083 -7.95147e-22)
(0.667832 -0.568398 1.44528e-21)
(0.803464 -0.722577 -2.63279e-23)
(0.969427 -0.89491 -5.8152e-22)
(1.13476 -1.07901 -3.14321e-22)
(1.32235 -1.27613 7.02925e-23)
(1.52493 -1.47927 0)
(1.73447 -1.68994 1.38962e-21)
(1.97587 -1.91103 -1.55974e-20)
(2.21265 -2.13695 0)
(2.48291 -2.37017 6.07102e-20)
(2.74508 -2.60959 -3.74843e-20)
(3.03708 -2.85115 3.81336e-20)
(3.31811 -3.09391 4.80902e-20)
(3.63224 -3.32406 -6.23462e-20)
(3.95201 -3.5642 -7.59068e-20)
(4.27393 -3.79877 2.50526e-19)
(4.62068 -4.02428 -2.6097e-19)
(4.96066 -4.25369 0)
(5.31214 -4.47067 -8.3866e-21)
(5.69274 -4.67439 7.6888e-19)
(6.05854 -4.8755 -2.89037e-20)
(6.45739 -5.05318 -3.64073e-19)
(6.84501 -5.23472 6.97764e-19)
(7.24302 -5.40215 0)
(7.65627 -5.55225 -4.29755e-19)
(8.05782 -5.69079 -4.38768e-19)
(8.47875 -5.80277 9.71869e-19)
(8.90325 -5.90305 -7.85753e-21)
(9.32069 -5.98991 5.77676e-19)
(9.75306 -6.05379 -1.18491e-18)
(10.1761 -6.11098 1.8803e-18)
(10.6008 -6.14452 -1.34768e-18)
(11.0322 -6.1515 -1.40672e-18)
(11.4662 -6.14042 0)
(11.8848 -6.11347 8.00896e-19)
(12.3166 -6.0548 0)
(12.7313 -5.98658 -2.36897e-21)
(13.1402 -5.8982 9.50479e-19)
(13.5516 -5.78247 -1.76841e-18)
(13.9483 -5.65415 -6.36661e-21)
(14.3423 -5.50469 -1.95415e-18)
(14.7157 -5.34118 0)
(15.086 -5.15195 -5.60075e-19)
(15.4474 -4.94679 2.14837e-18)
(15.7882 -4.7264 -5.46523e-19)
(16.1274 -4.48211 5.78825e-19)
(16.4407 -4.22762 0)
(16.7467 -3.94974 5.96028e-19)
(17.0305 -3.65961 -1.7993e-18)
(17.3039 -3.34725 -2.51096e-20)
(17.5566 -3.02882 0)
(17.7898 -2.69549 6.18919e-19)
(18.0105 -2.34755 -1.85817e-20)
(18.2139 -1.98984 0)
(18.3923 -1.6242 3.49125e-19)
(18.555 -1.25699 -3.17015e-19)
(18.6893 -0.877596 3.32612e-19)
(18.8048 -0.484298 3.30052e-19)
(18.9075 -0.0830273 -1.65759e-19)
(18.9819 0.317312 -6.27695e-20)
(20.4832 0.848336 1.5099e-19)
(20.5473 1.37424 -5.1188e-20)
(20.5833 1.90359 0)
(20.5911 2.43419 0)
(20.5712 2.9641 8.1392e-19)
(20.5237 3.4922 1.17141e-18)
(20.4487 4.01677 -1.20631e-18)
(20.3466 4.53632 -3.97672e-19)
(20.2173 5.04927 3.9759e-19)
(20.0614 5.55456 7.78438e-19)
(19.8792 6.05162 -7.78853e-19)
(19.6708 6.53861 -7.57565e-19)
(19.4376 7.01443 3.76797e-18)
(19.1808 7.478 7.33069e-19)
(18.901 7.92779 -6.46945e-18)
(18.5987 8.36225 0)
(18.2747 8.78048 0)
(17.9304 9.18151 6.73363e-19)
(17.5665 9.56479 1.98916e-18)
(17.1837 9.92896 -5.11417e-18)
(16.7836 10.2733 -7.47141e-20)
(16.367 10.5975 1.17265e-18)
(15.9349 10.9002 1.20655e-18)
(15.4885 11.1811 -4.5038e-18)
(15.0293 11.4398 0)
(14.5582 11.6765 2.11636e-18)
(14.0754 11.8907 -1.96178e-18)
(13.5831 12.0805 0)
(13.0826 12.2456 0)
(12.5757 12.3857 -8.99507e-19)
(12.0637 12.5008 -1.64547e-18)
(11.5477 12.5906 2.34608e-18)
(11.0294 12.6553 0)
(10.5097 12.6948 0)
(9.99019 12.7091 1.18612e-18)
(9.47198 12.6984 -1.12821e-18)
(8.95644 12.6629 0)
(8.44484 12.603 1.78187e-18)
(7.93822 12.5189 3.72014e-19)
(7.43785 12.411 -1.03002e-18)
(6.94495 12.2797 3.56153e-20)
(6.46092 12.1257 4.36757e-19)
(5.98656 11.9497 -4.34268e-19)
(5.52307 11.752 7.6253e-20)
(5.07163 11.5336 0)
(4.63296 11.2952 0)
(4.20813 11.0373 -1.59287e-19)
(3.79806 10.7609 -3.52512e-20)
(3.40375 10.4671 2.15512e-19)
(3.02591 10.1568 9.00963e-20)
(2.66516 9.83097 1.41993e-19)
(2.32233 9.49043 -1.43843e-19)
(1.99819 9.13646 -9.67198e-20)
(1.69305 8.77024 9.80381e-20)
(1.4076 8.3927 -5.86577e-19)
(1.14228 8.00525 6.40482e-19)
(0.897491 7.60903 -1.33679e-21)
(0.673554 7.20553 0)
(0.470643 6.79581 1.63439e-19)
(0.289116 6.38096 2.22144e-20)
(0.129059 5.96221 2.35214e-20)
(20.2531 0.102322 -8.13416e-20)
(20.3283 0.617204 0)
(20.3755 1.13408 0)
(20.3954 1.65216 9.34576e-19)
(20.3878 2.17029 -6.24995e-19)
(20.3531 2.68733 -2.20264e-18)
(20.2913 3.20171 0)
(20.2027 3.71205 0)
(20.0874 4.21709 -1.20031e-18)
(19.9455 4.71497 0)
(19.7772 5.20521 -1.75945e-18)
(19.5832 5.68559 1.16752e-18)
(19.3648 6.15424 -5.79623e-19)
(19.1232 6.61065 0)
(18.8586 7.05455 2.29338e-18)
(18.5713 7.48463 1.07457e-18)
(18.2621 7.89971 -1.07668e-18)
(17.9321 8.29859 1.0246e-18)
(17.5821 8.68061 -3.0279e-18)
(17.2131 9.04458 2.03938e-18)
(16.8263 9.38936 -1.98103e-18)
(16.4227 9.71448 -1.01003e-18)
(16.0034 10.0187 -9.13878e-19)
(15.5695 10.3014 2.65222e-18)
(15.1224 10.5617 8.50241e-19)
(14.6628 10.7994 7.78382e-19)
(14.1917 11.0148 -7.03414e-19)
(13.7112 11.2069 0)
(13.2222 11.3751 0)
(12.7263 11.5186 0)
(12.2246 11.6375 0)
(11.7185 11.7316 0)
(11.2094 11.8006 0)
(10.6985 11.8447 0)
(10.1872 11.8638 -4.92388e-19)
(9.67678 11.8579 4.37236e-19)
(9.16855 11.8271 3.50808e-19)
(8.66372 11.7717 -1.70338e-18)
(8.16343 11.6922 -2.66518e-19)
(7.669 11.5888 7.95332e-19)
(7.18168 11.4618 4.38827e-19)
(6.70282 11.3117 -3.51155e-19)
(6.23331 11.1394 1.30957e-19)
(5.77448 10.945 9.67906e-20)
(5.32745 10.7294 -1.03204e-20)
(4.89303 10.4933 1.04361e-20)
(4.47229 10.2374 8.72624e-20)
(4.06621 9.96241 0)
(3.67584 9.66936 7.91439e-20)
(3.30198 9.35922 -1.79913e-19)
(2.94528 9.03286 1.01059e-19)
(2.60667 8.69118 0)
(2.287 8.3353 -3.0261e-19)
(1.98653 7.96639 0)
(1.70618 7.58539 0)
(1.44619 7.19368 -9.42928e-19)
(1.20721 6.79247 4.55116e-19)
(0.989453 6.38317 1.25923e-19)
(0.793479 5.96677 -1.31753e-19)
(0.619606 5.54455 0)
(0.468072 5.11776 -3.71959e-20)
(20.0463 0.479057 6.18485e-20)
(20.1097 0.978165 0)
(20.1466 1.47818 -2.46871e-19)
(20.1559 1.97851 -1.62522e-20)
(20.1383 2.47792 0)
(20.0945 2.97564 1.98196e-18)
(20.0247 3.47068 9.67853e-19)
(19.9286 3.96316 0)
(19.8064 4.45075 3.19674e-20)
(19.6582 4.93147 9.3779e-19)
(19.4849 5.40335 1.42489e-18)
(19.2877 5.86506 -4.68432e-19)
(19.0673 6.31502 0)
(18.8237 6.75217 0)
(18.5576 7.17609 1.72678e-18)
(18.2698 7.58596 -8.52228e-19)
(17.9612 7.98078 -7.98883e-19)
(17.6328 8.35956 0)
(17.2853 8.72153 2.41363e-18)
(16.9199 9.0657 -2.31642e-18)
(16.5378 9.39116 -1.47989e-18)
(16.1397 9.69717 -1.43236e-18)
(15.727 9.98283 0)
(15.3006 10.2474 -2.04744e-18)
(14.8617 10.4903 -6.6815e-19)
(14.4115 10.7109 6.10708e-19)
(13.9513 10.9086 6.01259e-19)
(13.4823 11.0833 0)
(13.0056 11.2347 0)
(12.5226 11.3623 0)
(12.0344 11.466 0)
(11.5423 11.5457 0)
(11.0477 11.6012 0)
(10.5518 11.6327 0)
(10.056 11.64 -1.05354e-18)
(9.56134 11.6233 3.37391e-19)
(9.06919 11.5825 -2.69406e-19)
(8.58068 11.5181 1.28389e-18)
(8.09695 11.4303 0)
(7.61923 11.3196 3.61799e-19)
(7.1487 11.1862 2.95725e-19)
(6.68661 11.0308 1.26827e-19)
(6.23396 10.8539 -7.66077e-20)
(5.79193 10.6559 -9.74252e-20)
(5.36154 10.4376 3.44876e-20)
(4.94371 10.1995 -2.91178e-21)
(4.5393 9.94241 9.90761e-20)
(4.14929 9.66711 0)
(3.77459 9.37455 0)
(3.41606 9.06558 7.95385e-20)
(3.07443 8.7411 9.62878e-20)
(2.75039 8.40207 2.07585e-19)
(2.44471 8.04941 2.38001e-19)
(2.15782 7.68427 0)
(1.89045 7.30752 2.96762e-19)
(1.64283 6.9206 3.27597e-19)
(1.41548 6.52457 0)
(1.20878 6.1209 -1.81241e-21)
(1.02324 5.71049 0)
(0.859123 5.29464 0)
(0.716682 4.87446 2.85123e-20)
(19.8979 0.439784 -1.02158e-19)
(19.959 0.922455 1.99886e-19)
(19.9942 1.40819 -3.94279e-19)
(20.0032 1.89524 -2.12039e-19)
(19.986 2.38195 0)
(19.9424 2.86704 -8.21646e-19)
(19.872 3.34968 -8.15976e-19)
(19.7758 3.82858 0)
(19.6552 4.30316 3.38109e-20)
(19.5103 4.77189 -7.89417e-19)
(19.3415 5.23233 1.49103e-18)
(19.1488 5.6834 1.46815e-18)
(18.9329 6.12396 0)
(18.6943 6.55294 -7.15875e-19)
(18.4338 6.969 -1.42199e-18)
(18.1521 7.37094 -7.01357e-19)
(17.8502 7.75789 2.055e-18)
(17.5288 8.12895 -1.32066e-18)
(17.1889 8.48337 1.28533e-18)
(16.8315 8.8203 1.86644e-18)
(16.4578 9.13891 2.42388e-18)
(16.0687 9.43841 1.1985e-18)
(15.6653 9.71795 5.51867e-19)
(15.2487 9.97683 1.66848e-18)
(14.8198 10.2145 5.10896e-19)
(14.3799 10.4305 5.11541e-19)
(13.9301 10.6244 4.63769e-19)
(13.4716 10.7957 -1.35074e-18)
(13.0057 10.9441 8.37871e-19)
(12.5337 11.0693 7.82298e-19)
(12.0566 11.1711 -1.51839e-18)
(11.5757 11.2495 7.36023e-19)
(11.0923 11.3043 -6.40957e-19)
(10.6078 11.3356 3.00985e-19)
(10.1233 11.3433 2.90868e-19)
(9.6401 11.3274 2.36563e-19)
(9.15936 11.2881 -2.3812e-19)
(8.68216 11.2256 -2.24512e-19)
(8.20962 11.1403 -5.1414e-19)
(7.74299 11.0326 -2.98611e-19)
(7.28341 10.9029 -4.67492e-19)
(6.832 10.7516 -4.36048e-19)
(6.38995 10.5794 1.26335e-19)
(5.95829 10.3868 7.23788e-21)
(5.53805 10.1742 -2.82142e-21)
(5.13014 9.94226 2.97043e-20)
(4.73528 9.69179 -2.57759e-19)
(4.35448 9.42356 5.62168e-20)
(3.98858 9.13852 0)
(3.6385 8.83744 0)
(3.30486 8.52116 1.4739e-19)
(2.98848 8.19076 8.20456e-22)
(2.68998 7.84706 -1.93651e-19)
(2.40984 7.4911 0)
(2.14867 7.1237 -2.40932e-19)
(1.90668 6.74629 0)
(1.68442 6.36002 0)
(1.48211 5.96616 -2.32118e-19)
(1.30057 5.56582 -8.27141e-20)
(1.13975 5.16016 8.59559e-20)
(1.00024 4.75036 -4.562e-20)
(19.7504 0.511723 1.8436e-21)
(19.8061 0.981522 -1.72503e-19)
(19.8366 1.45401 5.05691e-19)
(19.8416 1.92771 3.35597e-19)
(19.8213 2.40143 -4.94472e-19)
(19.7755 2.87393 3.31364e-19)
(19.705 3.34342 -2.31567e-21)
(19.6098 3.80741 -6.4204e-19)
(19.4898 4.26583 9.78276e-19)
(19.3463 4.71777 -1.27457e-18)
(19.1796 5.16234 1.19994e-18)
(18.9899 5.59802 -1.27578e-18)
(18.7779 6.02369 -6.13138e-19)
(18.544 6.43833 0)
(18.2889 6.84058 6.31668e-19)
(18.0136 7.22919 5.39423e-19)
(17.7184 7.60343 0)
(17.4045 7.96231 1.0629e-18)
(17.0725 8.30514 0)
(16.7237 8.63115 -1.05195e-18)
(16.359 8.93946 9.29472e-19)
(15.9796 9.22928 -4.0173e-20)
(15.5865 9.4997 -4.51451e-20)
(15.1806 9.75 1.80734e-21)
(14.7629 9.97975 -1.75124e-18)
(14.3344 10.1885 -7.96862e-19)
(13.8963 10.3757 1.55755e-18)
(13.4499 10.5412 1.4408e-18)
(12.9963 10.6845 -7.18699e-19)
(12.5368 10.8054 0)
(12.0725 10.9034 0)
(11.6044 10.9788 0)
(11.1339 11.0314 5.48783e-19)
(10.6622 11.0613 -1.92315e-18)
(10.1909 11.0682 8.93081e-19)
(9.72071 11.0523 -4.25961e-19)
(9.25295 11.0136 -6.82505e-19)
(8.78863 10.9523 6.41139e-19)
(8.32876 10.869 2.14612e-20)
(7.87462 10.7639 -2.0289e-19)
(7.42731 10.6375 2.22651e-19)
(6.98793 10.4904 1.45443e-19)
(6.55769 10.3229 0)
(6.13761 10.1357 -4.1905e-20)
(5.72867 9.92927 0)
(5.33182 9.70392 7.3813e-20)
(4.94756 9.46062 -3.92391e-20)
(4.5769 9.2001 0)
(4.22049 8.92332 9.30567e-20)
(3.87964 8.63099 1.95538e-20)
(3.55463 8.32383 -2.44747e-19)
(3.24631 8.00296 1.44248e-19)
(2.95545 7.66918 9.51377e-20)
(2.68229 7.32346 -1.74343e-19)
(2.42769 6.96656 8.11837e-21)
(2.19127 6.59978 -1.05928e-19)
(1.97405 6.22434 -5.7157e-20)
(1.77595 5.84153 -1.2714e-19)
(1.59808 5.45244 3.3725e-19)
(1.44007 5.05819 -1.4351e-19)
(1.30301 4.65991 1.90067e-20)
(19.5975 0.5656 3.62102e-20)
(19.6485 1.02075 0)
(19.675 1.47818 -5.6486e-19)
(19.6769 1.93675 0)
(19.6543 2.39511 2.81196e-19)
(19.6074 2.85193 8.22999e-19)
(19.5363 3.30583 5.40164e-19)
(19.4412 3.75596 1.09584e-18)
(19.3223 4.20074 9.60754e-21)
(19.1806 4.63911 -6.58043e-21)
(19.0165 5.0697 -5.90045e-20)
(18.8303 5.49151 -5.21653e-19)
(18.6223 5.90349 5.03956e-19)
(18.3934 6.30472 -1.47775e-18)
(18.1442 6.69394 1.00292e-18)
(17.8754 7.0699 -4.80411e-20)
(17.5874 7.43179 -9.10097e-19)
(17.2812 7.77874 -9.32585e-19)
(16.9574 8.11021 0)
(16.6173 8.42559 8.35569e-19)
(16.2621 8.72389 -3.73164e-20)
(15.8928 9.00434 -1.64485e-18)
(15.5103 9.26599 -5.82491e-21)
(15.1157 9.50792 -6.83111e-19)
(14.7094 9.72996 2.07984e-18)
(14.2929 9.93162 -3.42832e-20)
(13.867 10.1126 -6.64461e-19)
(13.433 10.2726 -7.00753e-20)
(12.9924 10.4112 0)
(12.546 10.528 0)
(12.095 10.6226 0)
(11.6402 10.6954 0)
(11.1831 10.7462 0)
(10.7249 10.7753 5.3782e-20)
(10.2672 10.7821 -3.46436e-19)
(9.81067 10.7667 3.88896e-20)
(9.35649 10.7291 5.29978e-20)
(8.90562 10.6695 2.22977e-19)
(8.45884 10.5886 4.24566e-19)
(8.01757 10.4867 -5.2948e-19)
(7.58298 10.3642 3.11763e-19)
(7.15592 10.2217 -9.69771e-20)
(6.73783 10.0596 0)
(6.32969 9.87859 3.65723e-20)
(5.93241 9.67909 0)
(5.54717 9.46105 -3.82842e-20)
(5.17371 9.22569 7.51751e-20)
(4.81363 8.97366 -5.2722e-20)
(4.46698 8.70612 -6.67279e-20)
(4.13569 8.42345 1.00693e-19)
(3.81959 8.1263 1.92781e-20)
(3.51954 7.81597 1.53501e-20)
(3.23657 7.49298 -2.78357e-19)
(2.97055 7.15846 3.17674e-19)
(2.72271 6.81278 1.74155e-19)
(2.49194 6.45755 9.11304e-20)
(2.27996 6.09378 3.03344e-19)
(2.08573 5.72296 0)
(1.91149 5.34601 -2.32361e-19)
(1.75609 4.96415 6.17405e-20)
(1.62139 4.57824 0)
(19.4311 0.621719 0)
(19.4768 1.06156 0)
(19.4989 1.50365 2.44702e-19)
(19.4974 1.94652 -4.6898e-19)
(19.4723 2.38922 -2.42117e-19)
(19.424 2.83046 -1.17584e-18)
(19.3525 3.26857 4.54353e-19)
(19.2576 3.70254 -9.39689e-19)
(19.1399 4.13194 1.51496e-20)
(19.0002 4.55549 1.33296e-18)
(18.8392 4.97125 -1.78e-18)
(18.6567 5.3783 0)
(18.4533 5.77559 0)
(18.2294 6.16288 1.68749e-18)
(17.9864 6.53867 8.15982e-19)
(17.7248 6.90101 -1.65647e-18)
(17.4445 7.24978 2.37262e-18)
(17.1463 7.58404 7.55096e-19)
(16.8311 7.90344 -1.48053e-18)
(16.5 8.20771 -7.43365e-19)
(16.1547 8.49537 6.86215e-19)
(15.7959 8.76604 -7.01348e-20)
(15.4248 9.01859 0)
(15.0421 9.25149 1.28667e-18)
(14.6479 9.4653 -1.81608e-18)
(14.2438 9.6595 5.85209e-19)
(13.8307 9.83361 1.05374e-18)
(13.4098 9.98797 -2.55979e-18)
(12.9828 10.1214 5.0107e-19)
(12.5503 10.2342 0)
(12.1136 10.325 0)
(11.6727 10.3954 0)
(11.23 10.4442 3.4845e-19)
(10.7858 10.4729 9.86544e-19)
(10.3429 10.4797 -5.82051e-19)
(9.90089 10.465 2.54233e-19)
(9.46122 10.4288 2.43865e-19)
(9.02494 10.3709 -4.34212e-19)
(8.59197 10.2925 0)
(8.16425 10.194 -2.44484e-19)
(7.7432 10.0755 1.27337e-19)
(7.32888 9.93778 1.42716e-20)
(6.92336 9.78148 9.63818e-21)
(6.52779 9.60701 3.12893e-20)
(6.14256 9.41521 -1.04521e-20)
(5.77005 9.20478 1.46488e-19)
(5.40778 8.9781 -6.31544e-20)
(5.05915 8.735 2.18001e-19)
(4.72233 8.47762 0)
(4.40163 8.20554 0)
(4.09497 7.91909 -3.95763e-19)
(3.80339 7.62019 1.07857e-19)
(3.52926 7.30892 2.47569e-19)
(3.27051 6.98651 1.46669e-19)
(3.03057 6.65269 -4.62076e-19)
(2.80534 6.30968 -2.58914e-19)
(2.59918 5.95814 -9.5344e-20)
(2.40846 5.60026 -2.12434e-21)
(2.23857 5.23637 1.02216e-19)
(2.08537 4.86771 0)
(1.95351 4.49497 0)
(19.2458 0.675276 -2.46579e-20)
(19.2855 1.09874 0)
(19.3027 1.52463 0)
(19.2972 1.95112 2.07655e-19)
(19.2693 2.37721 0)
(19.2195 2.80186 8.00644e-19)
(19.1482 3.22344 3.95337e-19)
(19.0536 3.64029 -7.76668e-19)
(18.9364 4.05422 0)
(18.799 4.46313 -7.89178e-19)
(18.6423 4.86243 4.33329e-20)
(18.464 5.2539 0)
(18.2657 5.63532 0)
(18.0471 6.00778 -7.37262e-19)
(17.8105 6.37024 6.81126e-19)
(17.5574 6.71775 -7.05814e-19)
(17.2853 7.05265 -6.88485e-19)
(16.9956 7.37385 0)
(16.6895 7.68004 6.51274e-19)
(16.3678 7.97263 -1.18824e-18)
(16.0331 8.24871 -1.14862e-18)
(15.6854 8.50916 -1.18015e-18)
(15.3258 8.75282 -9.59217e-21)
(14.9569 8.97542 -9.75635e-19)
(14.5751 9.18046 1.03493e-18)
(14.1835 9.36708 9.33463e-19)
(13.7844 9.53338 -9.48038e-19)
(13.3765 9.682 5.94562e-20)
(12.9642 9.80954 1.21053e-21)
(12.5455 9.91909 -7.93875e-19)
(12.1248 10.0047 0)
(11.6976 10.0733 -6.34248e-19)
(11.2708 10.1193 1.22224e-18)
(10.8405 10.1488 -4.62708e-20)
(10.4145 10.156 5.24228e-19)
(9.98826 10.1421 -4.27229e-19)
(9.56422 10.1078 3.63915e-19)
(9.14458 10.0511 2.61737e-19)
(8.72617 9.97541 -5.75426e-19)
(8.31254 9.88059 2.4279e-19)
(7.90669 9.76613 1.56186e-19)
(7.50497 9.63336 1.66974e-19)