/*--------------------------------*- C++ -*----------------------------------*\
| =========                 |                                                 |
| \\      /  F ield         | OpenFOAM: The Open Source CFD Toolbox           |
|  \\    /   O peration     | Version:  2.3.1                                 |
|   \\  /    A nd           | Web:      www.OpenFOAM.org                      |
|    \\/     M anipulation  |                                                 |
\*---------------------------------------------------------------------------*/
FoamFile
{
    version     2.0;
    format      ascii;
    class       volVectorField;
    location    "520";
    object      D;
}
// * * * * * * * * * * * * * * * * * * * * * * * * * * * * * * * * * * * * * //

dimensions      [0 1 0 0 0 0 0];

internalField   nonuniform List<vector> 
11800
(
(2.41791e-06 7.56226e-05 0)
(-3.1935e-06 8.3753e-05 0)
(1.80152e-06 2.76943e-05 0)
(-2.10534e-06 3.67219e-05 0)
(-2.92268e-06 8.36186e-05 0)
(-1.3818e-06 3.67882e-05 0)
(-5.29869e-07 5.78499e-05 0)
(-5.12457e-07 4.55088e-05 0)
(2.2393e-07 8.01647e-06 0)
(3.53032e-07 2.86405e-05 0)
(2.69156e-06 7.54541e-05 0)
(-2.64447e-06 3.17185e-05 0)
(-3.29394e-09 -2.61856e-09 0)
(1.59693e-06 2.75415e-05 0)
(-1.87256e-06 3.68639e-05 0)
(2.06982e-06 5.03834e-06 0)
(-3.20518e-07 5.76937e-05 0)
(-3.1532e-07 4.53591e-05 0)
(1.16046e-07 8.10033e-06 0)
(1.99914e-07 2.85107e-05 0)
(-1.61744e-06 3.66639e-05 0)
(-2.42647e-06 3.18345e-05 0)
(-4.86018e-07 1.87062e-06 0)
(-5.17725e-07 1.94459e-06 0)
(1.82688e-06 5.72004e-06 0)
(-7.61658e-07 3.0336e-06 0)
(-2.7068e-06 1.9739e-05 0)
(3.50013e-06 5.22794e-05 0)
(-2.47177e-06 1.52831e-05 0)
(-2.19789e-06 1.12322e-05 0)
(3.68264e-06 6.4974e-05 0)
(1.14305e-08 1.47167e-06 0)
(9.50021e-07 3.85301e-06 0)
(-1.96522e-06 8.58352e-05 0)
(1.48447e-06 8.54666e-05 0)
(-4.31584e-06 6.909e-05 0)
(1.37869e-06 8.57467e-05 0)
(9.33238e-07 3.95628e-06 0)
(-5.18572e-07 6.08599e-05 0)
(3.49896e-07 3.12067e-05 0)
(-2.65941e-06 1.99432e-05 0)
(-2.43065e-06 1.54702e-05 0)
(3.41878e-06 5.2004e-05 0)
(-2.16361e-06 1.14011e-05 0)
(3.59966e-06 6.46859e-05 0)
(1.97165e-06 5.07748e-06 0)
(5.34056e-07 2.19773e-06 0)
(5.97213e-07 2.16384e-06 0)
(-7.83606e-07 6.09081e-05 0)
(5.72249e-07 3.12468e-05 0)
(-4.16293e-06 4.60593e-05 0)
(-4.39445e-06 5.83991e-05 0)
(-4.59924e-07 7.48611e-05 0)
(1.96917e-08 1.39946e-06 0)
(-2.55614e-06 5.94733e-06 0)
(3.72677e-07 3.4099e-07 0)
(-5.38359e-06 8.6954e-05 0)
(-1.46889e-06 2.67466e-05 0)
(1.52093e-06 3.7781e-05 0)
(-1.08334e-06 2.57814e-05 0)
(7.2917e-07 1.0577e-06 0)
(-7.46477e-07 7.49138e-05 0)
(-1.28369e-06 2.66915e-05 0)
(1.31933e-06 3.78452e-05 0)
(1.71116e-06 5.63798e-06 0)
(-5.13458e-06 7.73756e-05 0)
(-4.31798e-06 4.58746e-05 0)
(-4.57323e-06 5.81985e-05 0)
(-5.11567e-06 8.68205e-05 0)
(-7.9786e-07 3.12745e-06 0)
(-1.75876e-06 8.60639e-05 0)
(-3.05848e-06 8.56213e-05 0)
(-3.14565e-06 8.53324e-05 0)
(-3.66372e-08 4.61087e-08 0)
(7.78688e-07 1.10111e-06 0)
(-4.06866e-06 6.92707e-05 0)
(2.19883e-06 7.76514e-06 0)
(-5.21712e-06 7.76484e-05 0)
(-4.16595e-06 7.82667e-05 0)
(-3.89628e-06 7.85133e-05 0)
(-2.43837e-06 5.87112e-06 0)
(2.67707e-07 3.23015e-05 0)
(2.76525e-06 8.49834e-05 0)
(2.46171e-06 8.50333e-05 0)
(-4.30595e-07 3.31215e-05 0)
(-2.09456e-06 1.25537e-05 0)
(3.32574e-06 6.27751e-05 0)
(-2.33118e-06 1.67454e-05 0)
(-2.53619e-06 2.133e-05 0)
(3.1534e-06 5.01821e-05 0)
(-1.54568e-07 7.33385e-05 0)
(1.0139e-06 3.67093e-06 0)
(-2.61159e-06 7.87417e-05 0)
(5.22026e-06 8.75854e-05 0)
(8.04841e-07 4.01317e-05 0)
(-8.78377e-10 -6.66841e-10 0)
(2.24908e-11 -1.39985e-10 0)
(8.6735e-10 -6.58173e-10 0)
(-1.17138e-07 7.57271e-05 0)
(-2.5088e-06 3.23606e-05 0)
(4.48278e-06 8.72873e-05 0)
(2.79487e-06 3.52723e-05 0)
(-1.24211e-06 5.266e-06 0)
(-2.94934e-07 4.12041e-06 0)
(-2.08528e-07 8.32646e-05 0)
(3.02185e-07 8.36379e-06 0)
(-6.43109e-07 4.48979e-05 0)
(-6.58411e-07 5.71811e-05 0)
(1.11107e-06 2.05518e-06 0)
(2.27673e-06 1.67356e-05 0)
(2.05125e-06 1.25444e-05 0)
(2.47286e-06 2.13186e-05 0)
(-3.48663e-06 6.27836e-05 0)
(-3.3101e-06 5.01926e-05 0)
(4.71397e-07 2.81062e-05 0)
(8.78662e-07 1.88283e-06 0)
(4.97193e-06 7.76753e-05 0)
(-2.11883e-06 7.9611e-05 0)
(8.965e-07 1.81656e-06 0)
(-4.11823e-07 2.89669e-05 0)
(-2.6868e-07 7.8171e-06 0)
(4.06671e-07 5.82435e-05 0)
(3.88948e-07 4.58653e-05 0)
(-6.92658e-07 5.60301e-05 0)
(-2.62816e-06 7.90215e-05 0)
(-2.86906e-07 7.55046e-05 0)
(-1.7101e-06 8.32955e-05 0)
(-4.4458e-07 8.30813e-05 0)
(-5.77789e-06 8.9697e-05 0)
(-5.98352e-06 8.94893e-05 0)
(-2.25351e-07 1.05698e-07 0)
(-9.64878e-07 2.41679e-06 0)
(3.41566e-06 6.10413e-05 0)
(-2.2313e-06 1.36432e-05 0)
(3.23105e-06 4.85405e-05 0)
(-2.46607e-06 1.79453e-05 0)
(-2.67031e-06 2.26275e-05 0)
(3.14698e-06 6.10931e-05 0)
(-2.0588e-06 1.36059e-05 0)
(2.97699e-06 4.85892e-05 0)
(-2.27621e-06 1.79052e-05 0)
(-2.4654e-06 2.25849e-05 0)
(-5.83654e-07 7.2718e-06 0)
(1.07107e-06 5.92756e-05 0)
(1.00829e-06 4.68704e-05 0)
(-9.85992e-07 2.98298e-05 0)
(4.4635e-06 3.24753e-05 0)
(-4.54592e-06 3.18276e-05 0)
(2.74661e-06 3.55064e-05 0)
(-4.06431e-07 4.35967e-06 0)
(-2.89752e-06 7.30216e-05 0)
(-2.87318e-06 7.33842e-05 0)
(1.32493e-06 8.48464e-05 0)
(-3.23221e-06 6.91787e-05 0)
(1.22959e-06 5.01612e-05 0)
(1.32506e-06 6.27455e-05 0)
(-3.61069e-06 5.58037e-05 0)
(-3.39738e-06 4.36006e-05 0)
(1.93718e-06 9.1578e-06 0)
(-3.22713e-07 7.35966e-05 0)
(1.20917e-06 2.0892e-06 0)
(-2.95903e-06 6.92424e-05 0)
(2.30083e-06 7.87024e-06 0)
(-1.45025e-06 2.21319e-05 0)
(-1.33576e-06 1.74837e-05 0)
(-1.20422e-06 1.32199e-05 0)
(1.73283e-06 4.9121e-05 0)
(1.83129e-06 6.16565e-05 0)
(-1.10018e-06 1.45779e-06 0)
(-1.829e-06 8.8329e-06 0)
(3.25733e-06 5.6377e-05 0)
(3.06088e-06 4.41427e-05 0)
(6.83935e-07 5.71231e-05 0)
(-4.90952e-06 6.87899e-05 0)
(-4.95848e-06 6.91751e-05 0)
(2.10841e-06 5.72693e-06 0)
(2.10727e-06 5.87656e-06 0)
(2.11016e-06 1.62874e-05 0)
(2.29613e-06 2.08333e-05 0)
(1.89619e-06 1.21387e-05 0)
(-3.11431e-06 5.08144e-05 0)
(-3.27742e-06 6.34449e-05 0)
(1.25228e-06 4.98726e-05 0)
(1.33315e-06 6.24506e-05 0)
(1.42491e-06 3.1719e-05 0)
(-7.58687e-07 2.97686e-05 0)
(-4.49313e-07 7.30726e-06 0)
(7.97548e-07 5.92024e-05 0)
(7.49735e-07 4.68012e-05 0)
(-1.16807e-06 7.20861e-05 0)
(-4.58505e-07 1.45465e-05 0)
(-5.06148e-07 1.89407e-05 0)
(-4.23459e-06 7.68145e-05 0)
(-1.57709e-07 3.61309e-06 0)
(-4.20467e-06 3.83343e-05 0)
(3.66739e-06 2.63177e-05 0)
(5.40147e-08 5.83071e-08 0)
(-2.56069e-06 8.5965e-05 0)
(4.93706e-06 7.79696e-05 0)
(-1.95667e-07 1.25715e-07 0)
(3.23006e-06 8.15039e-05 0)
(4.05022e-06 7.0309e-05 0)
(4.34888e-06 7.03628e-05 0)
(-1.90493e-07 8.36641e-05 0)
(-3.96361e-07 8.39182e-05 0)
(2.44123e-06 2.57396e-05 0)
(2.14965e-06 2.58447e-05 0)
(-2.88006e-06 3.89336e-05 0)
(-2.54445e-06 3.88096e-05 0)
(2.19104e-07 1.0294e-07 0)
(-5.77704e-07 5.18097e-06 0)
(-6.61429e-07 2.97222e-06 0)
(-1.64062e-08 6.3074e-09 0)
(1.959e-06 3.48177e-06 0)
(-5.10996e-08 1.65318e-08 0)
(2.43006e-07 2.92229e-06 0)
(-2.89614e-06 8.32463e-05 0)
(-1.61045e-06 1.22744e-05 0)
(-1.79161e-06 1.6442e-05 0)
(-1.95237e-06 2.10026e-05 0)
(2.54978e-06 6.32082e-05 0)
(2.42628e-06 5.05971e-05 0)
(1.13765e-07 5.91006e-05 0)
(1.03842e-07 4.67044e-05 0)
(-1.10191e-07 7.35689e-06 0)
(-1.95681e-07 2.96876e-05 0)
(-7.53167e-08 1.258e-08 0)
(2.26449e-07 9.07701e-06 0)
(-4.90456e-07 4.3678e-05 0)
(-1.40664e-06 2.87605e-05 0)
(3.26643e-07 8.9518e-06 0)
(-6.67511e-07 4.38894e-05 0)
(-1.99896e-06 7.90112e-05 0)
(2.46111e-06 3.19291e-05 0)
(2.29103e-06 3.17056e-05 0)
(1.60999e-08 6.20428e-09 0)
(7.41985e-08 1.24171e-08 0)
(-3.81469e-06 7.38521e-05 0)
(-3.67228e-06 7.41459e-05 0)
(-3.82113e-06 2.74242e-05 0)
(4.07407e-06 3.70826e-05 0)
(3.14124e-06 6.34181e-05 0)
(2.98062e-06 5.07919e-05 0)
(-1.95376e-06 1.21575e-05 0)
(-2.18089e-06 1.63075e-05 0)
(-2.37729e-06 2.08553e-05 0)
(-1.78539e-07 7.52204e-05 0)
(-1.6962e-06 8.47345e-06 0)
(3.07444e-06 5.70282e-05 0)
(2.89178e-06 4.47542e-05 0)
(1.95322e-06 3.22346e-05 0)
(1.55306e-06 7.11926e-05 0)
(2.47729e-06 8.76846e-05 0)
(3.14999e-07 2.88164e-06 0)
(-1.05283e-06 2.60233e-05 0)
(-1.06476e-08 1.11242e-06 0)
(5.02511e-08 1.6286e-08 0)
(9.1552e-07 2.73334e-05 0)
(7.81898e-07 2.70723e-05 0)
(-1.06797e-06 3.71513e-05 0)
(-9.22281e-07 3.74021e-05 0)
(1.86666e-06 2.09939e-05 0)
(1.71673e-06 1.64343e-05 0)
(1.54469e-06 1.22695e-05 0)
(-2.54526e-06 5.05976e-05 0)
(-2.67842e-06 6.32174e-05 0)
(-1.45009e-06 8.59893e-05 0)
(6.17215e-07 8.25555e-07 0)
(-5.52615e-08 5.13208e-05 0)
(-3.48659e-08 1.17872e-05 0)
(1.78434e-06 8.31255e-05 0)
(1.52742e-06 3.15093e-05 0)
(-5.91453e-06 8.21909e-05 0)
(1.75738e-06 3.24475e-05 0)
(9.03661e-08 7.26513e-08 0)
(4.7538e-06 6.79922e-05 0)
(4.78193e-06 6.7636e-05 0)
(-3.04789e-06 4.48081e-05 0)
(-3.23903e-06 5.70802e-05 0)
(-2.72912e-06 4.47051e-05 0)
(-2.90054e-06 5.69713e-05 0)
(1.66259e-06 8.44203e-06 0)
(1.48696e-06 8.49563e-06 0)
(1.41152e-06 4.14576e-05 0)
(1.68918e-06 4.14131e-05 0)
(1.50656e-06 5.35159e-05 0)
(1.80369e-06 5.34683e-05 0)
(-9.51076e-07 1.04535e-05 0)
(-1.12748e-06 1.04848e-05 0)
(-2.21519e-07 4.92481e-06 0)
(1.03979e-06 3.20888e-06 0)
(9.74029e-07 3.10331e-06 0)
(1.00841e-06 2.37726e-06 0)
(1.31884e-06 7.14793e-05 0)
(-4.83169e-06 6.81128e-05 0)
(-4.85752e-06 6.77427e-05 0)
(2.16235e-06 6.35846e-06 0)
(2.12343e-06 6.18717e-06 0)
(3.90863e-06 3.24841e-05 0)
(3.95799e-06 3.28172e-05 0)
(-3.9908e-06 3.18069e-05 0)
(-4.01531e-06 3.14783e-05 0)
(1.64878e-06 8.47924e-05 0)
(-4.75045e-06 8.58423e-05 0)
(-4.5612e-06 7.29635e-05 0)
(1.36824e-06 1.65981e-06 0)
(-2.81307e-06 8.48194e-05 0)
(-2.51823e-06 8.45434e-05 0)
(1.13737e-06 4.18913e-05 0)
(-7.96906e-07 3.79947e-05 0)
(6.36842e-07 2.65605e-05 0)
(-3.42177e-06 3.25984e-05 0)
(3.25987e-06 3.16685e-05 0)
(-1.87645e-06 6.25903e-06 0)
(-6.12066e-08 4.14673e-08 0)
(3.03374e-07 1.38566e-06 0)
(2.57312e-07 2.81877e-05 0)
(-2.924e-06 2.83658e-05 0)
(2.97412e-06 3.59954e-05 0)
(-1.71699e-06 2.60318e-05 0)
(1.85989e-06 3.86017e-05 0)
(8.84544e-07 6.43378e-05 0)
(1.24187e-06 6.42088e-05 0)
(-6.59604e-07 1.5673e-05 0)
(-8.96539e-07 1.57602e-05 0)
(-7.22753e-07 2.01692e-05 0)
(-9.81199e-07 2.02638e-05 0)
(1.51415e-07 8.31017e-06 0)
(-3.76047e-07 4.49902e-05 0)
(-3.761e-07 5.72844e-05 0)
(-5.79665e-07 8.18152e-05 0)
(9.20942e-07 2.36342e-06 0)
(-2.02971e-07 3.71014e-05 0)
(-2.28526e-06 8.37576e-05 0)
(4.01981e-07 3.52913e-07 0)
(1.94828e-06 5.15464e-05 0)
(-1.27564e-06 1.16646e-05 0)
(-3.52094e-06 3.74579e-05 0)
(-3.31112e-06 3.72875e-05 0)
(3.08013e-06 2.70719e-05 0)
(2.89874e-06 2.72232e-05 0)
(-3.39433e-06 8.71612e-05 0)
(-3.43091e-06 8.68055e-05 0)
(-6.91693e-07 4.95328e-06 0)
(-8.17174e-07 4.9351e-06 0)
(3.32336e-07 1.44947e-06 0)
(-8.18992e-07 1.5006e-06 0)
(1.08412e-07 3.87741e-05 0)
(1.11775e-06 8.58959e-06 0)
(9.35322e-07 8.64191e-06 0)
(-2.06727e-06 4.45262e-05 0)
(-1.74226e-06 4.44298e-05 0)
(-2.19666e-06 5.67837e-05 0)
(-1.85094e-06 5.66817e-05 0)
(-4.37867e-06 7.07585e-05 0)
(-4.05597e-06 7.07846e-05 0)
(-1.06663e-06 2.35108e-05 0)
(-1.00666e-06 1.87573e-05 0)
(-9.13241e-07 1.43795e-05 0)
(1.30828e-06 6.63227e-05 0)
(-2.9651e-07 7.45326e-05 0)
(2.9278e-06 3.16419e-05 0)
(2.76699e-06 3.18937e-05 0)
(1.20922e-06 5.79651e-05 0)
(1.17001e-06 4.56199e-05 0)
(-6.99408e-07 7.95819e-06 0)
(6.05774e-07 8.85138e-06 0)
(4.92897e-07 9.01362e-06 0)
(-1.03911e-06 5.60196e-05 0)
(-1.2255e-06 5.62865e-05 0)
(-1.15315e-06 4.40636e-05 0)
(-9.50183e-07 4.37873e-05 0)
(-1.36607e-06 8.15425e-06 0)
(2.35529e-06 4.52966e-05 0)
(2.50238e-06 5.76055e-05 0)
(-4.4075e-08 4.30303e-07 0)
(4.32747e-06 3.57029e-05 0)
(-4.15634e-06 2.87086e-05 0)
(-2.62298e-08 4.01465e-07 0)
(-1.33031e-06 6.34074e-05 0)
(-1.55074e-06 6.37322e-05 0)
(-1.23498e-06 5.08047e-05 0)
(-1.4367e-06 5.11142e-05 0)
(8.29494e-07 1.19306e-05 0)
(7.08893e-07 1.21264e-05 0)
(9.51206e-07 1.60789e-05 0)
(8.0977e-07 1.62956e-05 0)
(1.03521e-06 2.06101e-05 0)
(8.80099e-07 2.08456e-05 0)
(4.70529e-06 7.08818e-05 0)
(4.79394e-06 7.12195e-05 0)
(-5.75687e-07 2.99573e-06 0)
(1.74598e-06 5.17827e-05 0)
(-1.14316e-06 1.15144e-05 0)
(1.81896e-06 9.23266e-06 0)
(-3.18428e-06 4.34684e-05 0)
(-3.39176e-06 5.56553e-05 0)
(-5.96136e-08 1.84053e-08 0)
(5.55745e-07 7.36878e-05 0)
(1.80256e-06 8.8325e-06 0)
(-3.22457e-06 4.41425e-05 0)
(-3.43398e-06 5.63622e-05 0)
(1.47628e-06 2.73919e-06 0)
(-2.41314e-06 7.95028e-05 0)
(1.75886e-06 7.13975e-06 0)
(-3.77172e-06 6.60584e-05 0)
(-9.99918e-07 3.96632e-06 0)
(-1.06443e-06 4.10447e-06 0)
(1.01374e-06 4.06246e-06 0)
(-4.66312e-07 3.70488e-05 0)
(-4.20768e-09 -3.09122e-09 0)
(-2.5594e-06 8.67063e-05 0)
(-5.33692e-08 2.17855e-08 0)
(5.86052e-08 1.81278e-08 0)
(-1.39746e-06 8.57561e-06 0)
(2.49868e-06 5.68241e-05 0)
(2.34928e-06 4.45614e-05 0)
(1.89842e-06 7.37972e-05 0)
(-5.69417e-06 7.88616e-05 0)
(6.98131e-07 3.48697e-05 0)
(-5.33661e-07 3.40338e-05 0)
(-1.73355e-07 4.14321e-06 0)
(-4.77404e-07 5.4284e-07 0)
(-3.03562e-09 -2.73021e-09 0)
(-1.54387e-06 2.62549e-05 0)
(1.66273e-06 3.83542e-05 0)
(1.64029e-07 5.86936e-08 0)
(-2.45295e-07 3.35744e-05 0)
(-2.343e-07 3.32769e-05 0)
(-5.34171e-08 2.85995e-05 0)
(-6.33887e-08 8.05435e-06 0)
(9.59231e-09 4.54402e-05 0)
(2.10276e-09 5.77998e-05 0)
(-1.66989e-07 5.96942e-08 0)
(6.0275e-07 4.46287e-06 0)
(-2.0005e-06 6.50525e-05 0)
(1.21942e-06 1.52082e-05 0)
(1.33311e-06 1.96625e-05 0)
(1.43032e-06 2.44765e-05 0)
(4.02691e-06 8.33957e-05 0)
(-1.81734e-06 7.71885e-06 0)
(3.45622e-06 5.84657e-05 0)
(3.25775e-06 4.61083e-05 0)
(-2.3765e-06 7.72603e-05 0)
(4.29624e-07 1.21665e-06 0)
(3.06183e-06 7.59078e-05 0)
(-8.74821e-07 1.47836e-06 0)
(2.12781e-06 8.37107e-05 0)
(-1.73221e-06 6.50591e-05 0)
(1.045e-06 1.52028e-05 0)
(1.14226e-06 1.96569e-05 0)
(1.22607e-06 2.4469e-05 0)
(3.74877e-07 1.15568e-06 0)
(1.39594e-06 5.29917e-05 0)
(-8.98623e-07 1.07676e-05 0)
(-3.29276e-07 4.44678e-06 0)
(-4.1581e-06 7.61604e-05 0)
(-1.69666e-06 2.22068e-05 0)
(-1.56351e-06 1.75534e-05 0)
(-1.41052e-06 1.32837e-05 0)
(2.03173e-06 4.90469e-05 0)
(2.14693e-06 6.1578e-05 0)
(5.57952e-06 8.81336e-05 0)
(3.21735e-06 7.78668e-05 0)
(3.57407e-06 7.77406e-05 0)
(6.11767e-08 4.64553e-08 0)
(2.12821e-06 2.61183e-05 0)
(-2.50668e-06 3.84966e-05 0)
(-1.15233e-06 2.64627e-05 0)
(1.19646e-06 3.81303e-05 0)
(-4.10435e-07 4.08176e-05 0)
(-3.20353e-07 6.37929e-05 0)
(1.43843e-07 2.05624e-05 0)
(1.33754e-07 1.60343e-05 0)
(-1.86572e-08 1.15599e-05 0)
(-1.11737e-07 3.97605e-05 0)
(-8.07402e-08 5.16954e-05 0)
(2.51709e-06 8.8019e-05 0)
(1.6321e-07 4.57298e-06 0)
(-8.92975e-08 1.12829e-06 0)
(4.41148e-07 5.46292e-05 0)
(2.4726e-08 1.16512e-06 0)
(-4.89366e-07 3.46489e-06 0)
(1.07491e-06 1.15317e-05 0)
(-1.86963e-06 5.17513e-05 0)
(-4.8987e-08 6.05891e-08 0)
(-3.85572e-06 7.61269e-05 0)
(-3.99732e-07 7.90908e-06 0)
(6.22444e-07 5.80857e-05 0)
(6.25641e-07 4.57017e-05 0)
(1.15513e-07 2.79429e-08 0)
(-1.43756e-06 2.78513e-06 0)
(1.32332e-06 2.01113e-05 0)
(1.21289e-06 1.56205e-05 0)
(-1.96803e-06 6.44257e-05 0)
(3.45484e-07 2.72107e-05 0)
(-2.62981e-06 8.56444e-05 0)
(-5.87323e-08 8.2743e-09 0)
(-1.84464e-06 4.26708e-06 0)
(1.20375e-06 2.41393e-06 0)
(-1.26104e-06 1.47331e-06 0)
(2.94277e-06 3.21721e-05 0)
(2.18737e-06 3.85038e-05 0)
(-2.04022e-06 2.61111e-05 0)
(1.2626e-07 1.14494e-05 0)
(-3.71209e-07 3.98985e-05 0)
(-3.16929e-07 5.18727e-05 0)
(2.67041e-06 7.50947e-05 0)
(2.58847e-06 3.4972e-05 0)
(1.26371e-06 8.62722e-05 0)
(1.21522e-06 8.65784e-05 0)
(3.28864e-07 3.83409e-05 0)
(4.89507e-07 2.70236e-05 0)
(5.78568e-08 8.16997e-09 0)
(-3.72605e-06 6.85043e-05 0)
(1.60013e-06 5.98547e-06 0)
(5.20133e-09 9.84512e-08 0)
(6.55096e-07 5.01385e-05 0)
(8.72531e-07 5.02985e-05 0)
(1.6302e-09 8.9927e-09 0)
(-9.01719e-07 2.34312e-06 0)
(1.86537e-06 2.04189e-05 0)
(1.71154e-06 1.59046e-05 0)
(1.53574e-06 1.17754e-05 0)
(-2.57548e-06 5.13234e-05 0)
(-2.70774e-06 6.40076e-05 0)
(2.35858e-06 3.34233e-05 0)
(2.75806e-07 7.37621e-05 0)
(-1.55542e-06 8.26226e-05 0)
(-1.47587e-06 8.30357e-05 0)
(-2.00158e-07 6.47558e-05 0)
(-1.80061e-07 6.50874e-05 0)
(8.05869e-08 1.51732e-05 0)
(6.99706e-08 1.53816e-05 0)
(8.61671e-08 1.96253e-05 0)
(7.44822e-08 1.98525e-05 0)
(3.61441e-08 2.44359e-05 0)
(5.16305e-08 2.46727e-05 0)
(1.35526e-07 3.84581e-05 0)
(2.91506e-07 3.9023e-05 0)
(5.28731e-07 5.74597e-05 0)
(-2.03297e-07 4.0726e-05 0)
(-1.17284e-07 2.83341e-08 0)
(-1.31244e-07 1.07803e-06 0)
(1.22352e-06 5.27326e-05 0)
(-8.01197e-07 1.09239e-05 0)
(4.24115e-07 1.47552e-06 0)
(4.9019e-06 8.37843e-05 0)
(-4.34438e-07 6.53522e-05 0)
(2.30547e-07 1.50144e-05 0)
(2.50613e-07 1.94521e-05 0)
(2.34854e-07 2.42399e-05 0)
(-3.84617e-06 7.1101e-05 0)
(1.33936e-06 2.76133e-05 0)
(1.87389e-06 8.86703e-05 0)
(2.127e-06 8.84822e-05 0)
(-4.86065e-07 3.56743e-06 0)
(-2.97218e-07 5.10729e-05 0)
(1.16407e-07 1.19442e-05 0)
(7.47602e-08 8.64451e-08 0)
(4.80999e-06 8.60268e-05 0)
(-9.48204e-08 1.86118e-06 0)
(-1.05793e-06 1.68828e-05 0)
(-1.15179e-06 2.14821e-05 0)
(-1.36889e-06 2.16891e-05 0)
(-1.2587e-06 1.70743e-05 0)
(-9.39259e-07 1.26697e-05 0)
(-1.12882e-06 1.2848e-05 0)
(1.57111e-06 4.96848e-05 0)
(1.65996e-06 6.22542e-05 0)
(9.00843e-07 1.33893e-06 0)
(-6.12191e-08 3.95244e-08 0)
(-4.26552e-06 5.96056e-05 0)
(-4.43816e-06 8.58609e-05 0)
(1.41505e-06 3.89944e-05 0)
(-1.66344e-07 1.90264e-06 0)
(-2.34889e-06 4.96013e-05 0)
(-2.47467e-06 6.21643e-05 0)
(1.45466e-06 1.29177e-05 0)
(1.60984e-06 1.71503e-05 0)
(1.74521e-06 2.17698e-05 0)
(2.04486e-06 7.40278e-05 0)
(4.72866e-06 8.63173e-05 0)
(-2.74229e-06 3.24384e-05 0)
(1.19899e-06 1.16608e-05 0)
(-2.06744e-06 5.15443e-05 0)
(1.35089e-06 3.9272e-05 0)
(-5.95949e-07 2.88042e-05 0)
(1.46841e-06 2.02685e-05 0)
(1.34667e-06 1.57652e-05 0)
(-2.16363e-06 6.42096e-05 0)
(-4.05119e-06 3.27757e-05 0)
(3.86684e-06 3.15364e-05 0)
(3.86262e-06 3.18581e-05 0)
(-4.00232e-06 3.24349e-05 0)
(-2.1686e-06 6.18624e-06 0)
(-2.22796e-06 6.36771e-06 0)
(-1.90904e-06 3.18607e-05 0)
(-1.186e-06 1.50842e-06 0)
(-3.05711e-06 3.20818e-05 0)
(-4.80193e-07 7.14855e-05 0)
(-4.92926e-07 6.41816e-07 0)
(3.13935e-06 1.95586e-05 0)
(2.8701e-06 1.51184e-05 0)
(-4.18543e-06 4.64272e-05 0)
(6.80079e-07 2.02825e-05 0)
(6.24629e-07 1.57771e-05 0)
(-1.06675e-06 6.41818e-05 0)
(1.63753e-06 5.37894e-06 0)
(2.26595e-06 3.82179e-05 0)
(-2.12119e-06 2.63678e-05 0)
(-1.39732e-06 1.67085e-06 0)
(1.10547e-06 5.76728e-05 0)
(1.0691e-06 4.53557e-05 0)
(-6.50056e-07 8.10612e-06 0)
(3.31404e-06 5.46948e-05 0)
(-1.95224e-06 9.78502e-06 0)
(3.10587e-06 4.25654e-05 0)
(-2.29587e-06 6.1073e-06 0)
(2.30234e-06 8.27804e-05 0)
(2.64939e-06 8.26658e-05 0)
(2.55423e-06 6.40077e-05 0)
(2.43873e-06 5.13283e-05 0)
(-1.58881e-06 1.18083e-05 0)
(-1.76847e-06 1.59054e-05 0)
(-1.9318e-06 2.04196e-05 0)
(-5.20924e-07 5.57612e-07 0)
(-2.13301e-06 7.71859e-05 0)
(2.22882e-06 5.08045e-05 0)
(-1.47563e-06 1.21395e-05 0)
(-3.17372e-07 4.33499e-07 0)
(1.87486e-06 8.36591e-05 0)
(6.22118e-07 5.56521e-07 0)
(5.17923e-07 4.23987e-07 0)
(1.26452e-06 1.94793e-06 0)
(2.28058e-06 6.81154e-05 0)
(-4.01682e-06 6.9869e-05 0)
(5.21722e-06 8.38858e-05 0)
(1.27788e-06 2.04382e-06 0)
(2.35244e-06 3.49628e-05 0)
(3.11327e-06 7.19512e-05 0)
(-5.15771e-06 6.82832e-05 0)
(2.25866e-06 6.11748e-06 0)
(-1.23071e-06 7.23763e-05 0)
(4.8137e-07 2.03408e-05 0)
(4.42776e-07 1.58305e-05 0)
(-7.89725e-07 6.41e-05 0)
(-2.35823e-07 1.20208e-06 0)
(1.33296e-06 4.09554e-05 0)
(5.21094e-08 2.13206e-08 0)
(-1.95143e-06 4.22689e-06 0)
(-3.36276e-07 3.42274e-05 0)
(-8.55343e-07 7.44442e-06 0)
(-9.91586e-07 7.49034e-06 0)
(1.50693e-06 4.65586e-05 0)
(1.758e-06 4.6479e-05 0)
(1.86559e-06 5.88604e-05 0)
(1.59952e-06 5.8945e-05 0)
(5.84117e-08 2.57034e-07 0)
(-2.75171e-08 2.91026e-06 0)
(-2.87712e-06 4.22038e-05 0)
(-3.07131e-06 5.43084e-05 0)
(1.70433e-06 1.00012e-05 0)
(-1.07296e-06 6.13849e-06 0)
(-5.74954e-07 5.57228e-05 0)
(-1.008e-06 2.74161e-06 0)
(1.55857e-06 8.2906e-05 0)
(-1.42277e-06 2.95499e-05 0)
(-1.64121e-06 2.94815e-05 0)
(5.97537e-08 6.85298e-08 0)
(-9.56544e-07 3.04748e-05 0)
(-5.47867e-07 6.88206e-06 0)
(9.68821e-07 4.76051e-05 0)
(1.02803e-06 6.0054e-05 0)
(-1.27222e-06 5.57305e-05 0)
(-1.13982e-06 4.3519e-05 0)
(6.08721e-07 9.17473e-06 0)
(8.78096e-07 3.62938e-06 0)
(8.16076e-07 3.50411e-06 0)
(3.17656e-07 2.94716e-05 0)
(-5.05947e-07 5.88399e-05 0)
(-4.82493e-07 4.64533e-05 0)
(2.00881e-07 7.49329e-06 0)
(-5.05392e-07 1.24828e-05 0)
(-9.48765e-07 2.81504e-06 0)
(2.95505e-06 8.47515e-05 0)
(-3.01785e-06 5.24362e-05 0)
(2.37141e-06 2.6271e-05 0)
(-2.77177e-06 3.833e-05 0)
(3.15208e-06 7.22558e-05 0)
(-3.21941e-06 2.4315e-05 0)
(-2.998e-06 1.95094e-05 0)
(3.64709e-06 4.05834e-05 0)
(-2.73529e-06 1.50739e-05 0)
(-2.43234e-06 1.10515e-05 0)
(3.91561e-06 5.25873e-05 0)
(4.11232e-06 6.53134e-05 0)
(-1.13665e-06 6.26901e-05 0)
(-1.08153e-06 5.00982e-05 0)
(6.89297e-07 1.6781e-05 0)
(6.23098e-07 1.25817e-05 0)
(7.47187e-07 2.13719e-05 0)
(6.56483e-07 1.70042e-05 0)
(-1.08222e-06 6.23633e-05 0)
(7.10784e-07 2.16137e-05 0)
(5.94272e-07 1.27836e-05 0)
(-1.02944e-06 4.97887e-05 0)
(-6.31748e-07 7.83297e-05 0)
(-1.49698e-06 2.08473e-06 0)
(-1.50473e-06 9.09121e-06 0)
(2.6227e-06 5.58935e-05 0)
(2.46267e-06 4.36878e-05 0)
(-9.37703e-07 1.20199e-05 0)
(1.39393e-06 5.09842e-05 0)
(3.90462e-06 6.21555e-05 0)
(3.6994e-06 4.95957e-05 0)
(-2.48159e-06 1.29477e-05 0)
(-2.75395e-06 1.71786e-05 0)
(-2.99014e-06 2.17977e-05 0)
(4.11132e-06 6.74362e-05 0)
(4.49303e-06 6.7356e-05 0)
(1.17258e-07 2.50098e-06 0)
(-4.87145e-07 3.37143e-05 0)
(-1.40553e-06 4.12946e-06 0)
(7.49396e-08 1.61893e-07 0)
(-1.36821e-06 5.1836e-06 0)
(-2.36881e-07 7.16191e-05 0)
(4.68192e-08 2.39833e-06 0)
(-9.96666e-07 3.59185e-05 0)
(3.77924e-06 4.64523e-05 0)
(-2.07498e-06 7.54475e-06 0)
(4.0072e-06 5.88296e-05 0)
(-5.15691e-09 -3.56685e-09 0)
(1.99229e-07 5.46774e-05 0)
(9.65063e-08 4.19983e-08 0)
(6.5617e-08 5.2823e-08 0)
(6.35774e-07 4.03539e-05 0)
(-1.11608e-07 9.89841e-08 0)
(3.02151e-06 8.5353e-05 0)
(1.78564e-07 5.02852e-05 0)
(-1.70705e-07 1.24473e-05 0)
(8.03226e-07 5.27352e-06 0)
(3.7433e-07 5.01413e-05 0)
(-3.03347e-07 1.25322e-05 0)
(-5.9898e-08 1.25001e-06 0)
(-3.21642e-06 1.95526e-05 0)
(-2.93553e-06 1.51144e-05 0)
(-2.61092e-06 1.10905e-05 0)
(-2.23447e-06 7.56095e-06 0)
(4.07283e-06 4.64355e-05 0)
(4.20384e-06 5.25339e-05 0)
(4.31852e-06 5.88113e-05 0)
(4.41652e-06 6.52582e-05 0)
(-2.03605e-06 7.00613e-05 0)
(-1.81855e-06 8.24704e-05 0)
(-5.74272e-06 6.88647e-05 0)
(2.47521e-06 5.86939e-06 0)
(1.23784e-06 8.71751e-05 0)
(1.44961e-06 8.68174e-05 0)
(3.54351e-07 4.91195e-05 0)
(3.8411e-07 6.16619e-05 0)
(-3.7974e-07 2.21559e-05 0)
(-3.48195e-07 1.7505e-05 0)
(-3.12113e-07 1.32378e-05 0)
(-1.99277e-06 6.12499e-06 0)
(7.1335e-07 4.47088e-06 0)
(-2.42299e-06 2.3122e-05 0)
(2.89326e-06 4.79101e-05 0)
(-2.24095e-06 1.84033e-05 0)
(-2.03235e-06 1.40597e-05 0)
(3.06165e-06 6.03751e-05 0)
(-1.50823e-06 6.75366e-06 0)
(3.09464e-06 6.68701e-05 0)
(5.04868e-07 3.24078e-05 0)
(-3.9188e-07 7.4179e-05 0)
(4.38284e-07 2.28282e-07 0)
(-2.98552e-07 6.56744e-05 0)
(1.42033e-07 1.48063e-05 0)
(1.53674e-07 1.9225e-05 0)
(1.30754e-07 2.39957e-05 0)
(9.25277e-07 7.66943e-05 0)
(-1.82085e-07 1.2431e-07 0)
(4.94189e-06 7.55371e-05 0)
(-8.30346e-07 3.41823e-05 0)
(-3.14136e-08 7.60407e-08 0)
(1.7585e-06 4.72258e-05 0)
(-9.65228e-07 7.08899e-06 0)
(1.86401e-06 5.96518e-05 0)
(5.2381e-08 4.48002e-08 0)
(-1.27605e-06 8.46207e-06 0)
(2.15111e-06 4.47525e-05 0)
(2.28745e-06 5.70275e-05 0)
(4.75888e-07 6.89046e-07 0)
(-1.6493e-06 3.01468e-05 0)
(2.87585e-07 3.20557e-05 0)
(-3.52371e-06 8.04301e-05 0)
(2.6883e-07 4.93655e-05 0)
(2.86473e-07 6.19158e-05 0)
(-3.27347e-07 2.19596e-05 0)
(-2.67439e-07 1.30738e-05 0)
(-2.99652e-07 1.73234e-05 0)
(4.87048e-07 3.26273e-05 0)
(-9.83708e-08 4.03914e-07 0)
(-9.01786e-08 1.31286e-06 0)
(9.14736e-08 7.15094e-05 0)
(3.48765e-06 3.48657e-05 0)
(-3.42035e-06 2.94791e-05 0)
(-2.4928e-06 8.94976e-05 0)
(-5.58975e-06 5.99872e-05 0)
(-5.28121e-06 4.75479e-05 0)
(-5.44563e-06 5.36782e-05 0)
(-5.09586e-06 4.16186e-05 0)
(3.13586e-06 1.04247e-05 0)
(3.53955e-06 1.43595e-05 0)
(3.88613e-06 1.8725e-05 0)
(4.18943e-06 2.34605e-05 0)
(5.46533e-06 5.99875e-05 0)
(5.32379e-06 5.36779e-05 0)
(-3.1958e-06 1.04286e-05 0)
(-3.61237e-06 1.43646e-05 0)
(5.16296e-06 4.7548e-05 0)
(-3.97137e-06 1.87284e-05 0)
(4.98221e-06 4.16173e-05 0)
(-4.28429e-06 2.34649e-05 0)
(-1.92135e-06 5.96304e-06 0)
(-9.1608e-07 7.40305e-05 0)
(-6.71027e-07 7.39641e-05 0)
(-8.18989e-07 8.32697e-05 0)
(1.21361e-06 5.21329e-05 0)
(-8.07921e-07 1.12924e-05 0)
(-3.21911e-07 5.18038e-07 0)
(-1.04318e-06 8.77651e-05 0)
(-1.21488e-06 2.12208e-05 0)
(-1.47937e-06 2.11468e-05 0)
(-1.11491e-06 1.66418e-05 0)
(-1.35771e-06 1.6574e-05 0)
(1.53973e-06 6.29997e-05 0)
(1.86053e-06 6.3027e-05 0)
(4.16042e-06 6.20051e-05 0)
(3.94103e-06 4.94537e-05 0)
(-2.64885e-06 1.30464e-05 0)
(-2.93724e-06 1.72864e-05 0)
(-3.18746e-06 2.19137e-05 0)
(-2.65503e-06 4.23407e-05 0)
(-2.8335e-06 5.44548e-05 0)
(1.56074e-06 9.91213e-06 0)
(-8.766e-07 3.82728e-05 0)
(6.77823e-07 2.63145e-05 0)
(7.74962e-07 6.46607e-05 0)
(-5.81606e-07 1.54369e-05 0)
(-6.38302e-07 1.99123e-05 0)
(-6.78908e-07 2.46971e-05 0)
(1.63277e-06 2.6025e-05 0)
(1.37605e-06 2.60866e-05 0)
(-1.95339e-06 3.85932e-05 0)
(-1.66237e-06 3.85209e-05 0)
(-1.92267e-06 8.71401e-05 0)
(1.60143e-07 4.98821e-07 0)
(3.03524e-06 7.56146e-05 0)
(1.13063e-06 2.86583e-05 0)
(2.99795e-06 5.36282e-05 0)
(-1.82447e-06 1.04053e-05 0)
(2.80451e-06 4.15661e-05 0)
(-2.75612e-06 3.38438e-05 0)
(7.26237e-07 8.0103e-06 0)
(-1.50975e-06 5.785e-05 0)
(-1.42534e-06 4.55282e-05 0)
(1.41518e-07 2.9721e-05 0)
(-2.81422e-07 4.67379e-05 0)
(-2.93193e-07 5.91406e-05 0)
(9.27976e-08 7.33866e-06 0)
(1.81488e-06 2.71382e-05 0)
(-2.11297e-06 3.73499e-05 0)
(-1.0175e-06 7.83284e-05 0)
(-4.48994e-06 7.7622e-05 0)
(7.68446e-07 3.57698e-05 0)
(2.00796e-06 3.58709e-05 0)
(-1.94375e-06 7.79335e-06 0)
(3.68681e-06 5.83315e-05 0)
(3.47454e-06 4.59822e-05 0)
(-2.38149e-07 1.07363e-06 0)
(-6.56963e-07 6.61003e-05 0)
(3.44107e-07 1.45292e-05 0)
(3.75931e-07 1.89221e-05 0)
(3.9976e-07 2.36734e-05 0)
(-1.00247e-06 3.40291e-05 0)
(-4.16623e-06 7.76465e-05 0)
(-1.37088e-06 1.45448e-05 0)
(-1.50842e-06 1.89369e-05 0)
(-1.62347e-06 2.36984e-05 0)
(2.0364e-06 6.60783e-05 0)
(5.1141e-09 7.69901e-09 0)
(2.63041e-06 3.35949e-05 0)
(2.80242e-08 3.09342e-06 0)
(-1.64253e-07 3.15096e-07 0)
(-3.3485e-07 1.3753e-06 0)
(-1.50122e-06 5.50946e-06 0)
(-1.69776e-07 6.39036e-08 0)
(5.31438e-07 1.62804e-05 0)
(4.81966e-07 1.21217e-05 0)
(5.7692e-07 2.08294e-05 0)
(-9.13922e-07 6.34274e-05 0)
(-8.751e-07 5.08091e-05 0)
(-2.69574e-06 2.83105e-05 0)
(2.75483e-06 3.60672e-05 0)
(-3.33975e-07 2.10295e-07 0)
(3.23256e-06 8.28073e-05 0)
(2.31283e-06 7.45415e-05 0)
(-5.11592e-06 7.04242e-05 0)
(1.88927e-06 3.56171e-05 0)
(6.42925e-07 3.84214e-05 0)
(-1.33479e-06 8.77274e-05 0)
(-3.68507e-06 4.00913e-05 0)
(-3.50873e-06 3.99296e-05 0)
(4.93967e-06 8.77034e-05 0)
(-4.60672e-07 7.86971e-05 0)
(-1.2421e-06 2.62169e-05 0)
(1.33403e-06 3.8414e-05 0)
(3.76324e-08 3.19681e-06 0)
(7.96549e-07 1.17428e-06 0)
(1.66476e-07 6.27195e-08 0)
(1.16731e-06 4.07106e-05 0)
(4.34536e-06 8.9419e-05 0)
(-2.46833e-06 6.34382e-05 0)
(-2.34491e-06 5.08074e-05 0)
(1.40951e-06 1.21324e-05 0)
(1.70748e-06 2.08306e-05 0)
(1.5694e-06 1.62834e-05 0)
(-6.17419e-08 4.65373e-08 0)
(-2.41307e-07 8.17355e-05 0)
(2.28325e-06 3.59673e-05 0)
(-2.21927e-06 2.8444e-05 0)
(-3.67487e-06 7.98586e-05 0)
(-5.46786e-06 6.02724e-05 0)
(-5.32774e-06 5.39546e-05 0)
(-5.1685e-06 4.78163e-05 0)
(-4.98805e-06 4.18783e-05 0)
(3.04331e-06 1.02574e-05 0)
(3.44039e-06 1.41719e-05 0)
(3.78126e-06 1.85199e-05 0)
(4.07932e-06 2.32402e-05 0)
(5.34292e-06 6.02713e-05 0)
(5.20576e-06 5.39543e-05 0)
(-3.10252e-06 1.02619e-05 0)
(-3.51233e-06 1.41774e-05 0)
(5.04937e-06 4.78158e-05 0)
(-3.86558e-06 1.85239e-05 0)
(4.87383e-06 4.18758e-05 0)
(-4.17344e-06 2.32452e-05 0)
(-1.02758e-06 1.4741e-06 0)
(4.06282e-07 4.21342e-07 0)
(-5.44944e-07 1.07328e-06 0)
(2.03036e-06 3.53477e-05 0)
(-2.33052e-06 3.63091e-05 0)
(5.1367e-07 6.81155e-07 0)
(-8.35865e-08 1.4015e-08 0)
(-4.92154e-06 7.05831e-05 0)
(2.72414e-06 8.85573e-05 0)
(3.06504e-06 8.87167e-05 0)
(8.23688e-08 1.38409e-08 0)
(1.14011e-06 1.64265e-06 0)
(4.3021e-06 8.0999e-05 0)
(-1.75314e-06 3.98033e-05 0)
(-1.46789e-07 1.41486e-07 0)
(-3.2726e-07 5.53444e-07 0)
(-5.22162e-08 1.34999e-08 0)
(9.57049e-08 8.19469e-08 0)
(4.66372e-06 3.23246e-05 0)
(-4.75913e-06 3.19837e-05 0)
(1.4348e-06 2.49679e-05 0)
(-1.79764e-06 3.91367e-05 0)
(1.48759e-06 2.55549e-05 0)
(-1.04335e-07 1.75643e-06 0)
(-1.10233e-06 6.02636e-05 0)
(8.19893e-07 3.06593e-05 0)
(-6.39184e-07 5.96564e-05 0)
(-6.20019e-07 4.71982e-05 0)
(2.66627e-07 7.09372e-06 0)
(4.2922e-07 3.015e-05 0)
(-1.94963e-06 3.96175e-05 0)
(1.21382e-06 1.73606e-06 0)
(1.61147e-06 2.51402e-05 0)
(5.4359e-07 3.58201e-05 0)
(4.32368e-06 8.35076e-05 0)
(-1.43124e-06 3.60903e-05 0)
(-1.63749e-06 3.63146e-05 0)
(-1.57108e-06 3.56849e-06 0)
(-1.58676e-06 3.73698e-05 0)
(-1.36493e-06 3.71326e-05 0)
(1.36064e-06 2.70983e-05 0)
(1.18806e-06 2.73433e-05 0)
(-1.68036e-06 8.29296e-06 0)
(2.89574e-06 4.50693e-05 0)
(3.07716e-06 5.73632e-05 0)
(-5.12308e-07 6.18369e-07 0)
(-1.95419e-06 3.93267e-05 0)
(1.62118e-06 2.53972e-05 0)
(-1.24636e-06 4.95533e-05 0)
(-1.31144e-06 6.21149e-05 0)
(7.3902e-07 1.29395e-05 0)
(8.83831e-07 2.17993e-05 0)
(8.16423e-07 1.71759e-05 0)
(-7.77761e-07 3.84525e-06 0)
(-3.95424e-06 5.20344e-05 0)
(-3.75041e-06 5.18833e-05 0)
(2.3442e-06 1.13849e-05 0)
(2.22643e-06 1.14781e-05 0)
(2.55046e-06 4.20907e-05 0)
(2.81043e-06 4.19003e-05 0)
(-1.63796e-06 1.00695e-05 0)
(-1.80953e-06 1.01937e-05 0)
(2.72394e-06 5.41889e-05 0)
(3.0025e-06 5.39852e-05 0)
(-1.17353e-06 7.80574e-05 0)
(2.15746e-06 7.16617e-05 0)
(2.18949e-06 7.13481e-05 0)
(-1.80387e-06 2.55577e-05 0)
(1.93007e-06 3.91278e-05 0)
(-5.89567e-06 8.64777e-05 0)
(-1.73494e-06 6.98742e-05 0)
(-1.66842e-06 6.95676e-05 0)
(6.63551e-07 5.48319e-06 0)
(6.83826e-07 5.35067e-06 0)
(4.96988e-06 7.05977e-05 0)
(-2.37646e-06 3.21098e-05 0)
(-2.04709e-06 3.21208e-05 0)
(4.91682e-06 7.91435e-05 0)
(-5.0947e-06 8.31941e-05 0)
(-5.0884e-06 8.357e-05 0)