/*--------------------------------*- C++ -*----------------------------------*\
| =========                 |                                                 |
| \\      /  F ield         | OpenFOAM: The Open Source CFD Toolbox           |
|  \\    /   O peration     | Version:  2.3.1                                 |
|   \\  /    A nd           | Web:      www.OpenFOAM.org                      |
|    \\/     M anipulation  |                                                 |
\*---------------------------------------------------------------------------*/
FoamFile
{
    version     2.0;
    format      ascii;
    class       volScalarField;
    location    "0.2";
    object      k;
}
// * * * * * * * * * * * * * * * * * * * * * * * * * * * * * * * * * * * * * //

dimensions      [0 2 -2 0 0 0 0];

internalField   nonuniform List<scalar> 
1000
(
0.0029714
0.00299548
0.00299588
0.00299584
0.00299581
0.0029958
0.00299578
0.00299578
0.00299577
0.00299032
0.00299575
0.00299615
0.0029961
0.00299608
0.00299606
0.00299605
0.00299603
0.00299603
0.00299602
0.00299059
0.00299653
0.00299649
0.00299646
0.00299644
0.00299642
0.00299641
0.0029964
0.0029964
0.0029964
0.00299098
0.00299702
0.00299701
0.00299699
0.00299698
0.00299697
0.00299696
0.00299695
0.00299695
0.00299695
0.00299154
0.0029978
0.00299784
0.00299783
0.00299783
0.00299782
0.0029978
0.0029978
0.0029978
0.00299782
0.00299235
0.00299529
0.00299595
0.00299608
0.00299614
0.00299615
0.00299616
0.00299616
0.00299616
0.00299616
0.00299072
0.00299623
0.00310979
0.00311422
0.00311437
0.00311439
0.0031144
0.00311439
0.0031144
0.00311256
0.00299332
0.00299671
0.00311448
0.00311906
0.0031192
0.0031192
0.0031192
0.0031192
0.00311921
0.0031173
0.00299385
0.0029973
0.00311485
0.00311939
0.00311952
0.00311953
0.00311953
0.00311953
0.00311953
0.00311763
0.00299442
0.00299814
0.0031152
0.00311971
0.00311985
0.00311985
0.00311985
0.00311985
0.00311986
0.00311796
0.00299524
0.00299613
0.00299628
0.00299639
0.00299645
0.00299648
0.0029965
0.0029965
0.00299651
0.00299651
0.00299108
0.00299648
0.00311429
0.00311888
0.00311904
0.00311906
0.00311907
0.00311907
0.00311908
0.00311717
0.00299378
0.00299693
0.00311913
0.00312394
0.00312409
0.0031241
0.0031241
0.00312411
0.00312411
0.00312213
0.00299429
0.00299751
0.00311949
0.00312428
0.00312442
0.00312443
0.00312443
0.00312443
0.00312443
0.00312246
0.00299483
0.00299828
0.00311978
0.00312454
0.00312468
0.00312469
0.00312468
0.00312469
0.00312469
0.00312272
0.00299556
0.00299653
0.00299658
0.00299664
0.00299668
0.00299671
0.00299673
0.00299674
0.00299675
0.00299675
0.00299132
0.00299674
0.00311458
0.00311914
0.00311929
0.0031193
0.00311931
0.00311932
0.00311932
0.00311741
0.002994
0.00299711
0.00311933
0.00312413
0.00312428
0.00312429
0.00312429
0.0031243
0.0031243
0.00312232
0.00299447
0.00299763
0.00311966
0.00312444
0.00312459
0.00312459
0.00312459
0.0031246
0.0031246
0.00312263
0.00299496
0.0029983
0.00311989
0.00312466
0.0031248
0.0031248
0.0031248
0.0031248
0.0031248
0.00312283
0.00299559
0.00299672
0.00299674
0.00299678
0.0029968
0.00299682
0.00299684
0.00299685
0.00299685
0.00299685
0.00299142
0.00299688
0.00311469
0.00311923
0.00311937
0.00311939
0.00311939
0.0031194
0.0031194
0.00311749
0.00299409
0.00299719
0.00311935
0.00312414
0.00312428
0.00312429
0.0031243
0.0031243
0.0031243
0.00312232
0.00299452
0.00299765
0.00311963
0.00312442
0.00312456
0.00312456
0.00312456
0.00312457
0.00312456
0.00312259
0.00299497
0.00299825
0.00311982
0.00312458
0.00312472
0.00312473
0.00312473
0.00312473
0.00312473
0.00312275
0.00299554
0.00299677
0.00299678
0.0029968
0.00299682
0.00299683
0.00299684
0.00299685
0.00299685
0.00299685
0.00299142
0.00299693
0.00311476
0.00311929
0.00311942
0.00311943
0.00311944
0.00311944
0.00311944
0.00311753
0.0029941
0.00299724
0.00311937
0.00312415
0.0031243
0.0031243
0.0031243
0.00312431
0.0031243
0.00312232
0.00299456
0.0029977
0.00311963
0.00312441
0.00312455
0.00312456
0.00312456
0.00312456
0.00312456
0.00312258
0.00299501
0.00299829
0.0031198
0.00312455
0.00312469
0.0031247
0.0031247
0.0031247
0.0031247
0.00312272
0.00299559
0.00299671
0.00299672
0.00299673
0.00299674
0.00299675
0.00299676
0.00299676
0.00299676
0.00299677
0.00299132
0.00299694
0.0031148
0.00311932
0.00311945
0.00311946
0.00311946
0.00311946
0.00311945
0.00311755
0.00299408
0.00299731
0.00311943
0.0031242
0.00312434
0.00312435
0.00312435
0.00312435
0.00312435
0.00312237
0.0029946
0.00299783
0.00311971
0.00312447
0.00312461
0.00312462
0.00312462
0.00312463
0.00312462
0.00312263
0.00299513
0.0029985
0.00311988
0.00312463
0.00312477
0.00312477
0.00312477
0.00312478
0.00312477
0.00312279
0.0029958
0.00299654
0.00299655
0.00299655
0.00299655
0.00299656
0.00299656
0.00299657
0.00299656
0.00299657
0.00299112
0.00299683
0.0031148
0.00311933
0.00311946
0.00311947
0.00311947
0.00311947
0.00311947
0.00311756
0.00299395
0.00299729
0.00311947
0.00312425
0.00312439
0.00312439
0.00312439
0.0031244
0.00312439
0.00312241
0.00299456
0.00299791
0.00311978
0.00312455
0.00312469
0.00312469
0.00312469
0.0031247
0.00312469
0.00312271
0.00299519
0.00299872
0.00312001
0.00312474
0.00312488
0.00312488
0.00312489
0.00312489
0.00312487
0.00312289
0.00299601
0.00299625
0.00299626
0.00299626
0.00299626
0.00299627
0.00299627
0.00299627
0.00299627
0.00299628
0.0029908
0.00299663
0.00311284
0.00311729
0.00311742
0.00311742
0.00311742
0.00311743
0.00311742
0.00311551
0.00299368
0.00299718
0.00311744
0.00312214
0.00312227
0.00312228
0.00312228
0.00312228
0.00312228
0.00312029
0.00299437
0.0029979
0.00311773
0.00312241
0.00312255
0.00312255
0.00312256
0.00312256
0.00312255
0.00312056
0.0029951
0.0029989
0.00311795
0.00312259
0.00312272
0.00312273
0.00312273
0.00312272
0.00312271
0.00312072
0.00299612
0.00299041
0.00299041
0.00299041
0.00299042
0.00299041
0.00299042
0.00299042
0.00299041
0.00299042
0.00298469
0.00299089
0.00299328
0.00299342
0.00299343
0.00299343
0.00299343
0.00299343
0.00299343
0.00299339
0.00298528
0.0029915
0.00299402
0.00299418
0.00299418
0.00299419
0.00299419
0.00299419
0.00299419
0.00299413
0.00298592
0.00299229
0.0029948
0.00299496
0.00299496
0.00299497
0.00299497
0.00299497
0.00299496
0.00299489
0.00298674
0.00299348
0.00299593
0.00299609
0.00299609
0.00299609
0.00299609
0.00299609
0.00299607
0.00299601
0.00298798
0.00300058
0.00300061
0.00300059
0.00300059
0.00300059
0.00300059
0.00300059
0.00300055
0.00300059
0.00299531
0.00300438
0.00300437
0.00300435
0.00300435
0.00300436
0.00300437
0.00300435
0.00300433
0.00300448
0.00299929
0.00301218
0.00301193
0.00301199
0.003012
0.00301201
0.00301202
0.00301196
0.00301211
0.00301198
0.00300721
0.00302408
0.0030242
0.00302411
0.00302411
0.00302412
0.00302408
0.00302417
0.003024
0.00302429
0.0030195
0.00445878
0.00512849
0.00514162
0.00514184
0.00514183
0.00514187
0.00514177
0.00514182
0.00514137
0.0044961
0.0029994
0.00311471
0.00311911
0.00311922
0.00311923
0.00311922
0.00311922
0.0031192
0.00311734
0.00299656
0.00300077
0.00311482
0.00311914
0.00311926
0.00311927
0.00311927
0.00311926
0.00311926
0.0031175
0.002998
0.00300172
0.0031167
0.00312102
0.00312114
0.00312115
0.00312115
0.00312114
0.00312119
0.00311938
0.00299887
0.00300574
0.00312607
0.00313023
0.00313035
0.00313035
0.00313034
0.00313036
0.00313034
0.00312861
0.00300299
0.00509154
0.00711037
0.00714902
0.0071497
0.00714969
0.00714971
0.0071497
0.00714975
0.0071498
0.0051678
0.00299832
0.00311938
0.00312411
0.00312424
0.00312424
0.00312424
0.00312424
0.00312423
0.00312225
0.00299564
0.00299884
0.00311941
0.00312413
0.00312426
0.00312426
0.00312426
0.00312426
0.00312426
0.00312232
0.00299621
0.00299879
0.00311929
0.00312402
0.00312416
0.00312416
0.00312416
0.00312416
0.00312417
0.00312224
0.00299612
0.0029994
0.00312999
0.0031349
0.00313505
0.00313505
0.00313505
0.00313504
0.00313506
0.00313304
0.00299689
0.0051507
0.00724396
0.00728549
0.00728628
0.00728629
0.0072863
0.00728631
0.00728633
0.00728633
0.0052323
0.0029977
0.00311926
0.00312404
0.00312417
0.00312418
0.00312418
0.00312417
0.00312417
0.00312217
0.00299501
0.00299796
0.00311917
0.00312394
0.00312407
0.00312408
0.00312407
0.00312407
0.00312407
0.0031221
0.00299531
0.002998
0.003119
0.00312377
0.00312391
0.00312391
0.00312391
0.00312391
0.00312392
0.00312195
0.00299534
0.00299775
0.00312476
0.00312963
0.00312977
0.00312977
0.00312978
0.00312978
0.00312978
0.00312778
0.00299518
0.00516716
0.00727775
0.00732
0.00732084
0.00732085
0.00732086
0.00732086
0.00732088
0.00732089
0.00525018
0.00299735
0.00311915
0.00312395
0.00312408
0.00312409
0.00312409
0.00312409
0.00312408
0.00312209
0.00299465
0.00299764
0.0031191
0.00312388
0.00312402
0.00312402
0.00312402
0.00312402
0.00312402
0.00312204
0.00299496
0.00299782
0.00311904
0.00312382
0.00312396
0.00312396
0.00312396
0.00312396
0.00312397
0.00312199
0.00299514
0.00299748
0.00312358
0.00312843
0.00312858
0.00312858
0.00312859
0.00312858
0.00312859
0.00312659
0.00299486
0.005172
0.00728754
0.00733
0.00733085
0.00733088
0.00733089
0.00733089
0.00733089
0.00733088
0.00525541
0.00299732
0.0031192
0.003124
0.00312414
0.00312414
0.00312414
0.00312414
0.00312414
0.00312214
0.00299459
0.0029977
0.00311923
0.00312402
0.00312416
0.00312417
0.00312417
0.00312417
0.00312417
0.00312219
0.00299499
0.002998
0.00311924
0.00312404
0.00312418
0.00312419
0.00312419
0.0031242
0.0031242
0.00312221
0.00299526
0.0029977
0.00312369
0.00312854
0.00312869
0.0031287
0.0031287
0.0031287
0.00312869
0.0031267
0.00299504
0.00517233
0.0072879
0.00733035
0.0073312
0.00733122
0.00733122
0.00733121
0.00733121
0.00733119
0.00525567
0.00299749
0.00311934
0.00312414
0.00312428
0.00312429
0.00312428
0.00312428
0.00312429
0.0031223
0.00299474
0.00299799
0.00311946
0.00312426
0.00312441
0.00312441
0.00312442
0.00312442
0.00312443
0.00312243
0.00299521
0.0029984
0.0031195
0.0031243
0.00312445
0.00312446
0.00312446
0.00312447
0.00312445
0.00312245
0.00299557
0.00299853
0.00312493
0.00312979
0.00312994
0.00312994
0.00312994
0.00312993
0.00312993
0.00312793
0.00299583
0.00516832
0.00727905
0.0073213
0.00732214
0.00732216
0.00732215
0.00732215
0.00732213
0.00732216
0.00525129
0.00299766
0.00311947
0.00312428
0.00312443
0.00312443
0.00312443
0.00312443
0.00312444
0.00312244
0.00299487
0.00299828
0.00311971
0.0031245
0.00312466
0.00312467
0.00312466
0.00312467
0.00312465
0.00312264
0.00299541
0.002999
0.00311997
0.00312478
0.00312492
0.00312492
0.00312492
0.0031249
0.0031249
0.00312284
0.00299607
0.00300139
0.00313064
0.00313554
0.00313567
0.00313567
0.00313567
0.00313565
0.00313568
0.00313356
0.00299877
0.00515408
0.00724819
0.00728972
0.00729056
0.00729057
0.00729055
0.00729056
0.00729051
0.00729076
0.00523584
0.00299778
0.0031176
0.00312233
0.00312248
0.00312248
0.00312247
0.00312248
0.00312248
0.00312049
0.00299491
0.00299865
0.00311837
0.00312312
0.00312326
0.00312326
0.00312325
0.00312324
0.00312325
0.00312117
0.00299567
0.00300039
0.00312291
0.00312777
0.00312788
0.00312787
0.00312787
0.00312784
0.00312789
0.00312558
0.00299751
0.00301008
0.0031388
0.00314344
0.00314359
0.00314359
0.00314356
0.00314363
0.00314343
0.00314172
0.00300787
0.00511061
0.00715353
0.00719316
0.0071939
0.00719389
0.00719392
0.0071938
0.00719412
0.0071939
0.00518857
0.00299279
0.00299574
0.00299593
0.00299593
0.00299592
0.00299591
0.00299591
0.00299592
0.00299582
0.00298713
0.00299441
0.00299782
0.00299804
0.00299803
0.00299802
0.00299801
0.00299801
0.00299801
0.00299779
0.00298881
0.0029977
0.00300271
0.00300297
0.00300298
0.00300297
0.00300296
0.00300301
0.00300284
0.00300285
0.00299244
0.0030005
0.00300875
0.00300929
0.00300931
0.0030093
0.00300933
0.00300925
0.00300938
0.00300916
0.00299536
0.00447507
0.00518441
0.00519934
0.00519973
0.00519976
0.00519973
0.00519979
0.00519962
0.00519932
0.00451521
)
;

boundaryField
{
    walls
    {
        type            kqRWallFunction;
        value           nonuniform List<scalar> 
500
(
0.0029714
0.0029714
0.0029714
0.00299548
0.00299548
0.00299588
0.00299588
0.00299584
0.00299584
0.00299581
0.00299581
0.0029958
0.0029958
0.00299578
0.00299578
0.00299578
0.00299578
0.00299577
0.00299577
0.00299032
0.00299032
0.00299032
0.00299575
0.00299575
0.00299615
0.0029961
0.00299608
0.00299606
0.00299605
0.00299603
0.00299603
0.00299602
0.00299059
0.00299059
0.00299653
0.00299653
0.00299649
0.00299646
0.00299644
0.00299642
0.00299641
0.0029964
0.0029964
0.0029964
0.00299098
0.00299098
0.00299702
0.00299702
0.00299701
0.00299699
0.00299698
0.00299697
0.00299696
0.00299695
0.00299695
0.00299695
0.00299154
0.00299154
0.0029978
0.0029978
0.00299784
0.00299783
0.00299783
0.00299782
0.0029978
0.0029978
0.0029978
0.00299782
0.00299235
0.00299235
0.00299529
0.00299529
0.00299595
0.00299608
0.00299614
0.00299615
0.00299616
0.00299616
0.00299616
0.00299616
0.00299072
0.00299072
0.00299623
0.00299332
0.00299671
0.00299385
0.0029973
0.00299442
0.00299814
0.00299524
0.00299613
0.00299613
0.00299628
0.00299639
0.00299645
0.00299648
0.0029965
0.0029965
0.00299651
0.00299651
0.00299108
0.00299108
0.00299648
0.00299378
0.00299693
0.00299429
0.00299751
0.00299483
0.00299828
0.00299556
0.00299653
0.00299653
0.00299658
0.00299664
0.00299668
0.00299671
0.00299673
0.00299674
0.00299675
0.00299675
0.00299132
0.00299132
0.00299674
0.002994
0.00299711
0.00299447
0.00299763
0.00299496
0.0029983
0.00299559
0.00299672
0.00299672
0.00299674
0.00299678
0.0029968
0.00299682
0.00299684
0.00299685
0.00299685
0.00299685
0.00299142
0.00299142
0.00299688
0.00299409
0.00299719
0.00299452
0.00299765
0.00299497
0.00299825
0.00299554
0.00299677
0.00299677
0.00299678
0.0029968
0.00299682
0.00299683
0.00299684
0.00299685
0.00299685
0.00299685
0.00299142
0.00299142
0.00299693
0.0029941
0.00299724
0.00299456
0.0029977
0.00299501
0.00299829
0.00299559
0.00299671
0.00299671
0.00299672
0.00299673
0.00299674
0.00299675
0.00299676
0.00299676
0.00299676
0.00299677
0.00299132
0.00299132
0.00299694
0.00299408
0.00299731
0.0029946
0.00299783
0.00299513
0.0029985
0.0029958
0.00299654
0.00299654
0.00299655
0.00299655
0.00299655
0.00299656
0.00299656
0.00299657
0.00299656
0.00299657
0.00299112
0.00299112
0.00299683
0.00299395
0.00299729
0.00299456
0.00299791
0.00299519
0.00299872
0.00299601
0.00299625
0.00299625
0.00299626
0.00299626
0.00299626
0.00299627
0.00299627
0.00299627
0.00299627
0.00299628
0.0029908
0.0029908
0.00299663
0.00299368
0.00299718
0.00299437
0.0029979
0.0029951
0.0029989
0.00299612
0.00299041
0.00299041
0.00299041
0.00299041
0.00299041
0.00299041
0.00299041
0.00299042
0.00299042
0.00299041
0.00299041
0.00299042
0.00299042
0.00299042
0.00299042
0.00299041
0.00299041
0.00299042
0.00299042
0.00298469
0.00298469
0.00298469
0.00299089
0.00299089
0.00299328
0.00299342
0.00299343
0.00299343
0.00299343
0.00299343
0.00299343
0.00299339
0.00298528
0.00298528
0.0029915
0.0029915
0.00299402
0.00299418
0.00299418
0.00299419
0.00299419
0.00299419
0.00299419
0.00299413
0.00298592
0.00298592
0.00299229
0.00299229
0.0029948
0.00299496
0.00299496
0.00299497
0.00299497
0.00299497
0.00299496
0.00299489
0.00298674
0.00298674
0.00299348
0.00299348
0.00299593
0.00299609
0.00299609
0.00299609
0.00299609
0.00299609
0.00299607
0.00299601
0.00298798
0.00298798
0.00300058
0.00300058
0.00300061
0.00300059
0.00300059
0.00300059
0.00300059
0.00300059
0.00300055
0.00300059
0.00299531
0.00299531
0.00300438
0.00300438
0.00300437
0.00300435
0.00300435
0.00300436
0.00300437
0.00300435
0.00300433
0.00300448
0.00299929
0.00299929
0.00301218
0.00301218
0.00301193
0.00301199
0.003012
0.00301201
0.00301202
0.00301196
0.00301211
0.00301198
0.00300721
0.00300721
0.00302408
0.00302408
0.0030242
0.00302411
0.00302411
0.00302412
0.00302408
0.00302417
0.003024
0.00302429
0.0030195
0.0030195
0.00445878
0.00445878
0.00512849
0.00514162
0.00514184
0.00514183
0.00514187
0.00514177
0.00514182
0.00514137
0.0044961
0.0044961
0.0029994
0.00299656
0.00300077
0.002998
0.00300172
0.00299887
0.00300574
0.00300299
0.00509154
0.0051678
0.00299832
0.00299564
0.00299884
0.00299621
0.00299879
0.00299612
0.0029994
0.00299689
0.0051507
0.0052323
0.0029977
0.00299501
0.00299796
0.00299531
0.002998
0.00299534
0.00299775
0.00299518
0.00516716
0.00525018
0.00299735
0.00299465
0.00299764
0.00299496
0.00299782
0.00299514
0.00299748
0.00299486
0.005172
0.00525541
0.00299732
0.00299459
0.0029977
0.00299499
0.002998
0.00299526
0.0029977
0.00299504
0.00517233
0.00525567
0.00299749
0.00299474
0.00299799
0.00299521
0.0029984
0.00299557
0.00299853
0.00299583
0.00516832
0.00525129
0.00299766
0.00299487
0.00299828
0.00299541
0.002999
0.00299607
0.00300139
0.00299877
0.00515408
0.00523584
0.00299778
0.00299491
0.00299865
0.00299567
0.00300039
0.00299751
0.00301008
0.00300787
0.00511061
0.00518857
0.00299279
0.00299279
0.00299574
0.00299593
0.00299593
0.00299592
0.00299591
0.00299591
0.00299592
0.00299582
0.00298713
0.00298713
0.00299441
0.00299441
0.00299782
0.00299804
0.00299803
0.00299802
0.00299801
0.00299801
0.00299801
0.00299779
0.00298881
0.00298881
0.0029977
0.0029977
0.00300271
0.00300297
0.00300298
0.00300297
0.00300296
0.00300301
0.00300284
0.00300285
0.00299244
0.00299244
0.0030005
0.0030005
0.00300875
0.00300929
0.00300931
0.0030093
0.00300933
0.00300925
0.00300938
0.00300916
0.00299536
0.00299536
0.00447507
0.00447507
0.00518441
0.00519934
0.00519973
0.00519976
0.00519973
0.00519979
0.00519962
0.00519932
0.00451521
0.00451521
)
;
    }
    lid
    {
        type            kqRWallFunction;
        value           nonuniform List<scalar> 
100
(
0.00445878
0.00512849
0.00514162
0.00514184
0.00514183
0.00514187
0.00514177
0.00514182
0.00514137
0.0044961
0.00509154
0.00711037
0.00714902
0.0071497
0.00714969
0.00714971
0.0071497
0.00714975
0.0071498
0.0051678
0.0051507
0.00724396
0.00728549
0.00728628
0.00728629
0.0072863
0.00728631
0.00728633
0.00728633
0.0052323
0.00516716
0.00727775
0.00732
0.00732084
0.00732085
0.00732086
0.00732086
0.00732088
0.00732089
0.00525018
0.005172
0.00728754
0.00733
0.00733085
0.00733088
0.00733089
0.00733089
0.00733089
0.00733088
0.00525541
0.00517233
0.0072879
0.00733035
0.0073312
0.00733122
0.00733122
0.00733121
0.00733121
0.00733119
0.00525567
0.00516832
0.00727905
0.0073213
0.00732214
0.00732216
0.00732215
0.00732215
0.00732213
0.00732216
0.00525129
0.00515408
0.00724819
0.00728972
0.00729056
0.00729057
0.00729055
0.00729056
0.00729051
0.00729076
0.00523584
0.00511061
0.00715353
0.00719316
0.0071939
0.00719389
0.00719392
0.0071938
0.00719412
0.0071939
0.00518857
0.00447507
0.00518441
0.00519934
0.00519973
0.00519976
0.00519973
0.00519979
0.00519962
0.00519932
0.00451521
)
;
    }
}


// ************************************************************************* //
