/*--------------------------------*- C++ -*----------------------------------*\
| =========                 |                                                 |
| \\      /  F ield         | OpenFOAM: The Open Source CFD Toolbox           |
|  \\    /   O peration     | Version:  2.3.1                                 |
|   \\  /    A nd           | Web:      www.OpenFOAM.org                      |
|    \\/     M anipulation  |                                                 |
\*---------------------------------------------------------------------------*/
FoamFile
{
    version     2.0;
    format      ascii;
    class       volScalarField;
    location    "0.2";
    object      nut;
}
// * * * * * * * * * * * * * * * * * * * * * * * * * * * * * * * * * * * * * //

dimensions      [0 2 -1 0 0 0 0];

internalField   nonuniform List<scalar> 
1000
(
0.000535071
0.000543779
0.000543926
0.00054391
0.000543899
0.000543895
0.000543888
0.000543889
0.000543885
0.000541908
0.000543876
0.000544022
0.000544006
0.000543996
0.000543988
0.000543984
0.000543979
0.000543979
0.000543976
0.000542005
0.000544161
0.000544146
0.000544134
0.000544126
0.00054412
0.000544116
0.000544112
0.000544113
0.000544113
0.000542145
0.000544338
0.000544336
0.000544329
0.000544324
0.000544319
0.000544315
0.000544311
0.000544314
0.000544314
0.000542351
0.000544621
0.000544636
0.000544633
0.000544631
0.000544628
0.000544621
0.000544623
0.000544622
0.00054463
0.000542642
0.00054371
0.00054395
0.000543998
0.000544017
0.000544023
0.000544026
0.000544025
0.000544027
0.000544024
0.000542053
0.000544052
0.00117069
0.00119373
0.00119429
0.00119436
0.00119438
0.0011944
0.00119441
0.00117452
0.000542996
0.000544226
0.00119483
0.00121901
0.00121946
0.00121948
0.00121948
0.00121948
0.00121948
0.00119847
0.000543187
0.000544441
0.00119552
0.00121958
0.00122002
0.00122003
0.00122003
0.00122003
0.00122003
0.00119902
0.000543395
0.000544744
0.00119572
0.00121967
0.00122011
0.00122012
0.00122012
0.00122012
0.00122012
0.00119914
0.00054369
0.000544016
0.00054407
0.00054411
0.00054413
0.000544142
0.000544148
0.00054415
0.000544153
0.000544152
0.000542182
0.000544143
0.00119377
0.00121798
0.0012185
0.00121855
0.00121857
0.00121858
0.00121859
0.00119764
0.000543164
0.000544306
0.00121889
0.00124469
0.00124518
0.00124519
0.00124519
0.00124519
0.00124519
0.00122303
0.000543346
0.000544518
0.00121951
0.00124525
0.00124573
0.00124574
0.00124574
0.00124574
0.00124574
0.00122358
0.000543542
0.000544797
0.00121963
0.00124529
0.00124577
0.00124577
0.00124577
0.00124577
0.00124577
0.00122364
0.000543807
0.000544158
0.000544179
0.000544201
0.000544215
0.000544226
0.000544232
0.000544236
0.000544239
0.000544238
0.000542268
0.000544236
0.00119479
0.00121885
0.00121933
0.00121937
0.00121938
0.00121939
0.0012194
0.00119841
0.000543243
0.000544371
0.00121944
0.00124519
0.00124567
0.00124568
0.00124568
0.00124568
0.00124569
0.00122351
0.000543414
0.000544561
0.00121999
0.00124572
0.0012462
0.00124621
0.00124621
0.00124621
0.00124621
0.00122404
0.000543589
0.000544805
0.00122007
0.00124574
0.00124622
0.00124623
0.00124622
0.00124622
0.00124623
0.00122408
0.00054382
0.000544229
0.000544238
0.000544249
0.000544258
0.000544266
0.000544271
0.000544275
0.000544277
0.000544277
0.000542305
0.000544287
0.0011953
0.00121929
0.00121975
0.00121977
0.00121978
0.00121979
0.00121979
0.0011988
0.000543274
0.0005444
0.0012195
0.00124521
0.00124569
0.0012457
0.0012457
0.00124571
0.00124571
0.00122354
0.000543432
0.000544568
0.00122
0.00124571
0.00124619
0.0012462
0.00124619
0.0012462
0.00124619
0.00122403
0.000543593
0.000544784
0.00122006
0.00124571
0.00124619
0.0012462
0.0012462
0.0012462
0.0012462
0.00122406
0.0005438
0.000544246
0.000544252
0.000544258
0.000544264
0.00054427
0.000544273
0.000544277
0.000544277
0.000544277
0.000542306
0.000544305
0.00119559
0.00121955
0.00121999
0.00122
0.00122
0.00122001
0.00122
0.001199
0.00054328
0.000544418
0.00121954
0.00124522
0.0012457
0.00124571
0.00124571
0.00124571
0.0012457
0.00122354
0.000543444
0.000544584
0.00122001
0.00124568
0.00124616
0.00124617
0.00124617
0.00124617
0.00124617
0.00122401
0.000543607
0.000544798
0.00122005
0.00124567
0.00124615
0.00124616
0.00124616
0.00124616
0.00124616
0.00122403
0.00054382
0.000544226
0.00054423
0.000544234
0.000544237
0.000544241
0.000544242
0.000544245
0.000544244
0.000544246
0.000542271
0.000544308
0.00119562
0.00121956
0.00122
0.00122001
0.00122001
0.00122001
0.00122001
0.00119901
0.000543272
0.000544443
0.00121956
0.00124521
0.00124569
0.0012457
0.0012457
0.0012457
0.0012457
0.00122354
0.000543459
0.000544634
0.00122002
0.00124567
0.00124615
0.00124616
0.00124616
0.00124616
0.00124615
0.00122401
0.000543652
0.000544875
0.00122006
0.00124564
0.00124612
0.00124613
0.00124613
0.00124613
0.00124612
0.00122402
0.000543894
0.000544162
0.000544166
0.000544167
0.000544169
0.000544171
0.000544172
0.000544174
0.000544172
0.000544175
0.000542198
0.000544269
0.00119563
0.00121957
0.00122001
0.00122002
0.00122001
0.00122002
0.00122001
0.00119901
0.000543223
0.000544436
0.00121958
0.00124522
0.0012457
0.00124571
0.00124571
0.00124571
0.00124571
0.00122356
0.000543446
0.000544662
0.00122004
0.00124567
0.00124615
0.00124616
0.00124616
0.00124616
0.00124616
0.00122402
0.000543673
0.000544956
0.00122008
0.00124563
0.00124611
0.00124612
0.00124612
0.00124612
0.00124611
0.00122402
0.000543972
0.000544059
0.000544062
0.000544064
0.000544064
0.000544066
0.000544065
0.000544066
0.000544066
0.000544069
0.000542081
0.000544196
0.00117452
0.00119733
0.00119774
0.00119775
0.00119775
0.00119774
0.00119774
0.00117743
0.000543126
0.000544395
0.00119709
0.00122148
0.00122193
0.00122194
0.00122194
0.00122194
0.00122193
0.00120054
0.000543376
0.000544657
0.00119703
0.00122137
0.00122182
0.00122183
0.00122183
0.00122182
0.00122182
0.00120047
0.000543641
0.00054502
0.00119612
0.00122032
0.00122076
0.00122077
0.00122077
0.00122076
0.00122076
0.0011995
0.000544011
0.000541939
0.000541941
0.000541941
0.000541942
0.000541941
0.000541942
0.000541942
0.000541941
0.000541942
0.000539869
0.000542112
0.000542979
0.000543031
0.000543034
0.000543034
0.000543035
0.000543034
0.000543035
0.000543019
0.000540083
0.000542333
0.000543249
0.000543306
0.000543309
0.000543309
0.000543311
0.000543311
0.000543309
0.000543289
0.000540312
0.000542621
0.000543533
0.000543589
0.000543592
0.000543593
0.000543595
0.000543593
0.000543591
0.000543566
0.00054061
0.000543051
0.000543943
0.000543999
0.000543999
0.000544001
0.000544001
0.000544
0.000543995
0.000543971
0.000541059
0.000545634
0.000545642
0.000545637
0.000545634
0.000545636
0.000545635
0.000545636
0.000545621
0.000545634
0.000543718
0.000547016
0.000547012
0.000547003
0.000547005
0.000547009
0.00054701
0.000547006
0.000546997
0.000547052
0.000545164
0.000549858
0.000549767
0.00054979
0.000549791
0.000549795
0.000549801
0.00054978
0.000549833
0.000549785
0.000548046
0.000554212
0.000554257
0.000554225
0.000554222
0.000554226
0.000554211
0.000554246
0.000554183
0.000554289
0.000552536
0.00120482
0.00159392
0.0016021
0.00160224
0.00160223
0.00160226
0.00160219
0.00160223
0.00160195
0.00122507
0.000545204
0.00119027
0.00121364
0.00121406
0.00121407
0.00121406
0.00121406
0.00121406
0.00119343
0.000544171
0.000545702
0.00118535
0.00120831
0.00120872
0.00120873
0.00120872
0.00120872
0.00120872
0.00118842
0.000544694
0.000546047
0.00117198
0.00119407
0.00119446
0.00119447
0.00119447
0.00119447
0.0011945
0.00117475
0.000545012
0.00054751
0.00112401
0.00114289
0.00114321
0.00114321
0.00114321
0.00114322
0.00114322
0.00112571
0.00054651
0.00157104
0.0030639
0.0030973
0.00309788
0.00309787
0.00309789
0.00309789
0.00309792
0.00309797
0.00161846
0.000544812
0.00121928
0.00124486
0.00124534
0.00124535
0.00124535
0.00124534
0.00124534
0.00122321
0.000543838
0.000544998
0.00121905
0.00124462
0.00124509
0.0012451
0.0012451
0.0012451
0.0012451
0.00122298
0.000544044
0.000544981
0.00121841
0.00124401
0.00124449
0.0012445
0.0012445
0.0012445
0.0012445
0.00122234
0.000544012
0.000545203
0.00119843
0.00122271
0.00122317
0.00122317
0.00122317
0.00122317
0.00122318
0.00120186
0.000544292
0.00160776
0.00318011
0.00321667
0.00321737
0.00321738
0.00321738
0.00321739
0.00321742
0.00321742
0.00165911
0.000544584
0.00121994
0.00124567
0.00124614
0.00124615
0.00124615
0.00124615
0.00124615
0.00122392
0.000543609
0.000544681
0.00121992
0.00124565
0.00124613
0.00124614
0.00124614
0.00124614
0.00124614
0.0012239
0.000543718
0.000544695
0.00121989
0.00124565
0.00124613
0.00124614
0.00124614
0.00124614
0.00124614
0.00122388
0.000543727
0.000544604
0.00120024
0.00122482
0.00122528
0.00122529
0.00122529
0.00122529
0.00122529
0.0012038
0.000543669
0.00161806
0.00320985
0.00324722
0.00324796
0.00324798
0.00324798
0.00324799
0.003248
0.00324801
0.00167047
0.00054446
0.00121995
0.00124574
0.00124622
0.00124623
0.00124623
0.00124623
0.00124623
0.00122396
0.000543478
0.000544565
0.00121995
0.00124573
0.00124621
0.00124622
0.00124622
0.00124622
0.00124622
0.00122395
0.000543591
0.00054463
0.00121995
0.00124574
0.00124622
0.00124623
0.00124623
0.00124623
0.00124623
0.00122396
0.000543654
0.000544505
0.0012001
0.0012247
0.00122516
0.00122517
0.00122517
0.00122517
0.00122517
0.00120366
0.000543555
0.00162109
0.00321849
0.00325609
0.00325686
0.00325688
0.00325688
0.00325689
0.00325689
0.00325688
0.0016738
0.000544448
0.00121998
0.00124579
0.00124628
0.00124629
0.00124629
0.00124629
0.00124629
0.00122401
0.000543457
0.000544587
0.00122001
0.00124581
0.0012463
0.0012463
0.0012463
0.00124631
0.00124631
0.00122403
0.0005436
0.000544693
0.00122002
0.00124582
0.00124631
0.00124632
0.00124632
0.00124632
0.00124632
0.00122404
0.000543698
0.000544584
0.00119957
0.00122414
0.0012246
0.00122461
0.0012246
0.0012246
0.0012246
0.00120312
0.000543619
0.00162129
0.0032188
0.00325641
0.00325716
0.00325718
0.00325718
0.00325717
0.00325717
0.00325716
0.00167396
0.000544508
0.00122003
0.00124584
0.00124633
0.00124634
0.00124634
0.00124634
0.00124634
0.00122406
0.000543509
0.000544691
0.00122008
0.00124589
0.00124638
0.00124639
0.00124639
0.00124639
0.0012464
0.0012241
0.00054368
0.000544838
0.00122009
0.0012459
0.00124639
0.0012464
0.0012464
0.0012464
0.0012464
0.00122408
0.000543811
0.000544887
0.00119769
0.00122209
0.00122254
0.00122255
0.00122254
0.00122254
0.00122254
0.00120116
0.000543905
0.00161878
0.00321099
0.00324837
0.00324912
0.00324913
0.00324913
0.00324912
0.00324911
0.00324914
0.00167117
0.000544571
0.00122005
0.00124587
0.00124636
0.00124637
0.00124637
0.00124637
0.00124637
0.00122408
0.000543559
0.000544795
0.00122014
0.00124594
0.00124644
0.00124645
0.00124644
0.00124645
0.00124644
0.00122413
0.000543755
0.000545056
0.00122018
0.00124598
0.00124647
0.00124648
0.00124648
0.00124647
0.00124647
0.00122414
0.000543993
0.000545926
0.00119216
0.00121602
0.00121646
0.00121646
0.00121645
0.00121645
0.00121647
0.00119543
0.000544974
0.00160987
0.00318382
0.00322041
0.00322115
0.00322116
0.00322115
0.00322115
0.0032211
0.00322132
0.00166135
0.000544616
0.00119903
0.00122367
0.00122414
0.00122414
0.00122414
0.00122415
0.00122414
0.00120259
0.000543573
0.000544931
0.00119934
0.00122397
0.00122443
0.00122444
0.00122443
0.00122443
0.00122443
0.00120284
0.000543849
0.000545561
0.00120032
0.00122492
0.00122537
0.00122538
0.00122538
0.00122537
0.00122539
0.00120375
0.000544517
0.000549092
0.00115683
0.0011782
0.00117859
0.00117858
0.00117857
0.0011786
0.00117856
0.00115926
0.000548287
0.00158283
0.00310121
0.00313566
0.0031363
0.0031363
0.00313632
0.00313622
0.0031365
0.0031363
0.00163149
0.000542804
0.000543872
0.000543942
0.000543942
0.000543939
0.000543937
0.000543934
0.00054394
0.000543902
0.000540752
0.000543389
0.000544627
0.000544709
0.000544706
0.000544701
0.000544697
0.000544699
0.000544697
0.000544618
0.000541358
0.000544585
0.000546408
0.000546503
0.000546506
0.000546503
0.000546497
0.000546516
0.000546455
0.000546458
0.000542675
0.000545604
0.000548607
0.000548806
0.00054881
0.000548807
0.000548819
0.000548789
0.000548838
0.000548758
0.000543736
0.00121364
0.00162888
0.00163827
0.00163852
0.00163853
0.00163852
0.00163856
0.00163845
0.00163826
0.00123551
)
;

boundaryField
{
    walls
    {
        type            nutkWallFunction;
        Cmu             0.09;
        kappa           0.41;
        E               9.8;
        value           nonuniform List<scalar> 
500
(
7.39795e-05
7.39795e-05
7.39795e-05
7.42724e-05
7.42724e-05
7.42773e-05
7.42773e-05
7.42768e-05
7.42768e-05
7.42764e-05
7.42764e-05
7.42763e-05
7.42763e-05
7.4276e-05
7.4276e-05
7.42761e-05
7.42761e-05
7.42759e-05
7.42759e-05
7.42098e-05
7.42098e-05
7.42098e-05
7.42756e-05
7.42756e-05
7.42805e-05
7.428e-05
7.42797e-05
7.42794e-05
7.42793e-05
7.42791e-05
7.42791e-05
7.4279e-05
7.4213e-05
7.4213e-05
7.42852e-05
7.42852e-05
7.42847e-05
7.42843e-05
7.4284e-05
7.42838e-05
7.42837e-05
7.42835e-05
7.42836e-05
7.42836e-05
7.42177e-05
7.42177e-05
7.42911e-05
7.42911e-05
7.4291e-05
7.42908e-05
7.42906e-05
7.42904e-05
7.42903e-05
7.42902e-05
7.42903e-05
7.42903e-05
7.42246e-05
7.42246e-05
7.43005e-05
7.43005e-05
7.4301e-05
7.43009e-05
7.43009e-05
7.43008e-05
7.43005e-05
7.43006e-05
7.43006e-05
7.43008e-05
7.42344e-05
7.42344e-05
7.42701e-05
7.42701e-05
7.42781e-05
7.42797e-05
7.42804e-05
7.42805e-05
7.42807e-05
7.42806e-05
7.42807e-05
7.42806e-05
7.42146e-05
7.42146e-05
7.42815e-05
7.42462e-05
7.42874e-05
7.42526e-05
7.42945e-05
7.42596e-05
7.43046e-05
7.42694e-05
7.42803e-05
7.42803e-05
7.42821e-05
7.42835e-05
7.42841e-05
7.42845e-05
7.42847e-05
7.42848e-05
7.42849e-05
7.42849e-05
7.42189e-05
7.42189e-05
7.42846e-05
7.42518e-05
7.429e-05
7.42579e-05
7.42971e-05
7.42645e-05
7.43064e-05
7.42733e-05
7.42851e-05
7.42851e-05
7.42858e-05
7.42865e-05
7.4287e-05
7.42873e-05
7.42875e-05
7.42877e-05
7.42878e-05
7.42878e-05
7.42218e-05
7.42218e-05
7.42877e-05
7.42545e-05
7.42922e-05
7.42602e-05
7.42985e-05
7.42661e-05
7.43067e-05
7.42738e-05
7.42874e-05
7.42874e-05
7.42877e-05
7.42881e-05
7.42884e-05
7.42887e-05
7.42888e-05
7.4289e-05
7.4289e-05
7.4289e-05
7.42231e-05
7.42231e-05
7.42894e-05
7.42555e-05
7.42931e-05
7.42608e-05
7.42988e-05
7.42662e-05
7.4306e-05
7.42731e-05
7.4288e-05
7.4288e-05
7.42882e-05
7.42884e-05
7.42886e-05
7.42888e-05
7.42889e-05
7.4289e-05
7.4289e-05
7.42891e-05
7.42231e-05
7.42231e-05
7.429e-05
7.42557e-05
7.42938e-05
7.42612e-05
7.42993e-05
7.42667e-05
7.43064e-05
7.42738e-05
7.42873e-05
7.42873e-05
7.42875e-05
7.42876e-05
7.42877e-05
7.42878e-05
7.42879e-05
7.4288e-05
7.4288e-05
7.4288e-05
7.42219e-05
7.42219e-05
7.42901e-05
7.42554e-05
7.42946e-05
7.42617e-05
7.4301e-05
7.42682e-05
7.4309e-05
7.42763e-05
7.42852e-05
7.42852e-05
7.42853e-05
7.42854e-05
7.42854e-05
7.42855e-05
7.42855e-05
7.42856e-05
7.42855e-05
7.42856e-05
7.42195e-05
7.42195e-05
7.42888e-05
7.42538e-05
7.42944e-05
7.42613e-05
7.43019e-05
7.42689e-05
7.43117e-05
7.42788e-05
7.42818e-05
7.42818e-05
7.42818e-05
7.42819e-05
7.42819e-05
7.4282e-05
7.4282e-05
7.4282e-05
7.4282e-05
7.42821e-05
7.42156e-05
7.42156e-05
7.42863e-05
7.42506e-05
7.4293e-05
7.42589e-05
7.43017e-05
7.42678e-05
7.43139e-05
7.42802e-05
7.42108e-05
7.42108e-05
7.42108e-05
7.42109e-05
7.42109e-05
7.42109e-05
7.42109e-05
7.42109e-05
7.42109e-05
7.42109e-05
7.42109e-05
7.42109e-05
7.42109e-05
7.42109e-05
7.42109e-05
7.42109e-05
7.42109e-05
7.42109e-05
7.42109e-05
7.41413e-05
7.41413e-05
7.41413e-05
7.42166e-05
7.42166e-05
7.42457e-05
7.42474e-05
7.42475e-05
7.42475e-05
7.42475e-05
7.42475e-05
7.42475e-05
7.4247e-05
7.41485e-05
7.41485e-05
7.4224e-05
7.4224e-05
7.42547e-05
7.42566e-05
7.42567e-05
7.42567e-05
7.42568e-05
7.42567e-05
7.42567e-05
7.4256e-05
7.41562e-05
7.41562e-05
7.42337e-05
7.42337e-05
7.42642e-05
7.4266e-05
7.42661e-05
7.42662e-05
7.42663e-05
7.42662e-05
7.42661e-05
7.42653e-05
7.41662e-05
7.41662e-05
7.42481e-05
7.42481e-05
7.42779e-05
7.42798e-05
7.42798e-05
7.42798e-05
7.42798e-05
7.42798e-05
7.42796e-05
7.42788e-05
7.41813e-05
7.41813e-05
7.43343e-05
7.43343e-05
7.43346e-05
7.43344e-05
7.43343e-05
7.43344e-05
7.43344e-05
7.43344e-05
7.43339e-05
7.43343e-05
7.42704e-05
7.42704e-05
7.43804e-05
7.43804e-05
7.43802e-05
7.43799e-05
7.438e-05
7.43801e-05
7.43802e-05
7.438e-05
7.43797e-05
7.43816e-05
7.43187e-05
7.43187e-05
7.44748e-05
7.44748e-05
7.44717e-05
7.44725e-05
7.44725e-05
7.44727e-05
7.44728e-05
7.44722e-05
7.44739e-05
7.44723e-05
7.44146e-05
7.44146e-05
7.46186e-05
7.46186e-05
7.46201e-05
7.4619e-05
7.46189e-05
7.46191e-05
7.46186e-05
7.46197e-05
7.46177e-05
7.46211e-05
7.45633e-05
7.45633e-05
9.00862e-05
9.00862e-05
9.63465e-05
9.64645e-05
9.64666e-05
9.64664e-05
9.64668e-05
9.64659e-05
9.64664e-05
9.64624e-05
9.04483e-05
9.04483e-05
7.432e-05
7.42855e-05
7.43366e-05
7.4303e-05
7.43481e-05
7.43136e-05
7.43968e-05
7.43635e-05
9.60134e-05
9.66995e-05
7.43069e-05
7.42744e-05
7.43131e-05
7.42813e-05
7.43125e-05
7.42802e-05
7.432e-05
7.42895e-05
9.65461e-05
9.72753e-05
7.42993e-05
7.42667e-05
7.43025e-05
7.42704e-05
7.4303e-05
7.42707e-05
7.43e-05
7.42687e-05
9.66937e-05
9.74343e-05
7.42951e-05
7.42624e-05
7.42986e-05
7.42661e-05
7.43008e-05
7.42682e-05
7.42966e-05
7.42649e-05
9.67371e-05
9.74806e-05
7.42948e-05
7.42616e-05
7.42994e-05
7.42664e-05
7.43029e-05
7.42697e-05
7.42993e-05
7.42671e-05
9.674e-05
9.74829e-05
7.42967e-05
7.42634e-05
7.43029e-05
7.42691e-05
7.43078e-05
7.42735e-05
7.43094e-05
7.42766e-05
9.67041e-05
9.74441e-05
7.42989e-05
7.4265e-05
7.43063e-05
7.42716e-05
7.43151e-05
7.42796e-05
7.43441e-05
7.43123e-05
9.65764e-05
9.73068e-05
7.43004e-05
7.42655e-05
7.43109e-05
7.42747e-05
7.43319e-05
7.42971e-05
7.44493e-05
7.44226e-05
9.61855e-05
9.68853e-05
7.42398e-05
7.42398e-05
7.42755e-05
7.42779e-05
7.42779e-05
7.42777e-05
7.42777e-05
7.42776e-05
7.42778e-05
7.42765e-05
7.4171e-05
7.4171e-05
7.42594e-05
7.42594e-05
7.43007e-05
7.43035e-05
7.43034e-05
7.43032e-05
7.43031e-05
7.43031e-05
7.43031e-05
7.43005e-05
7.41913e-05
7.41913e-05
7.42993e-05
7.42993e-05
7.43601e-05
7.43633e-05
7.43634e-05
7.43633e-05
7.43631e-05
7.43637e-05
7.43617e-05
7.43618e-05
7.42355e-05
7.42355e-05
7.43333e-05
7.43333e-05
7.44332e-05
7.44398e-05
7.444e-05
7.44399e-05
7.44403e-05
7.44393e-05
7.44409e-05
7.44383e-05
7.4271e-05
7.4271e-05
9.02444e-05
9.02444e-05
9.68482e-05
9.69815e-05
9.6985e-05
9.69852e-05
9.6985e-05
9.69856e-05
9.69841e-05
9.69814e-05
9.06331e-05
9.06331e-05
)
;
    }
    lid
    {
        type            nutkWallFunction;
        Cmu             0.09;
        kappa           0.41;
        E               9.8;
        value           nonuniform List<scalar> 
100
(
9.00862e-05
9.63465e-05
9.64645e-05
9.64666e-05
9.64664e-05
9.64668e-05
9.64659e-05
9.64664e-05
9.64624e-05
9.04483e-05
9.60134e-05
0.000112572
0.000112861
0.000112867
0.000112866
0.000112867
0.000112867
0.000112867
0.000112867
9.66995e-05
9.65461e-05
0.000113569
0.000113877
0.000113883
0.000113883
0.000113883
0.000113883
0.000113883
0.000113883
9.72753e-05
9.66937e-05
0.00011382
0.000114132
0.000114138
0.000114138
0.000114138
0.000114139
0.000114139
0.000114139
9.74343e-05
9.67371e-05
0.000113892
0.000114206
0.000114212
0.000114212
0.000114212
0.000114212
0.000114212
0.000114212
9.74806e-05
9.674e-05
0.000113895
0.000114209
0.000114215
0.000114215
0.000114215
0.000114215
0.000114215
0.000114215
9.74829e-05
9.67041e-05
0.000113829
0.000114142
0.000114148
0.000114148
0.000114148
0.000114148
0.000114148
0.000114148
9.74441e-05
9.65764e-05
0.0001136
0.000113908
0.000113915
0.000113915
0.000113914
0.000113915
0.000113914
0.000113916
9.73068e-05
9.61855e-05
0.000112895
0.000113191
0.000113197
0.000113197
0.000113197
0.000113196
0.000113198
0.000113197
9.68853e-05
9.02444e-05
9.68482e-05
9.69815e-05
9.6985e-05
9.69852e-05
9.6985e-05
9.69856e-05
9.69841e-05
9.69814e-05
9.06331e-05
)
;
    }
}


// ************************************************************************* //
