/*--------------------------------*- C++ -*----------------------------------*\
| =========                 |                                                 |
| \\      /  F ield         | OpenFOAM: The Open Source CFD Toolbox           |
|  \\    /   O peration     | Version:  2.3.1                                 |
|   \\  /    A nd           | Web:      www.OpenFOAM.org                      |
|    \\/     M anipulation  |                                                 |
\*---------------------------------------------------------------------------*/
FoamFile
{
    version     2.0;
    format      ascii;
    class       volScalarField;
    location    "0.2";
    object      p;
}
// * * * * * * * * * * * * * * * * * * * * * * * * * * * * * * * * * * * * * //

dimensions      [0 2 -2 0 0 0 0];

internalField   nonuniform List<scalar> 
1000
(
-0.0008869
-0.00174964
-0.00208852
-0.00225024
-0.00234071
-0.00239575
-0.00243027
-0.00245253
-0.00246551
-0.0024719
-0.00200989
-0.00225389
-0.00243304
-0.00254734
-0.00262034
-0.00266802
-0.0026992
-0.0027197
-0.00273188
-0.0027381
-0.00291472
-0.00299844
-0.00308866
-0.00316048
-0.00321305
-0.00325031
-0.00327604
-0.00329358
-0.00330421
-0.00330945
-0.00401209
-0.00404844
-0.00409606
-0.00414024
-0.00417616
-0.00420347
-0.00422324
-0.00423696
-0.00424489
-0.00424804
-0.00553132
-0.0055512
-0.00557853
-0.00560619
-0.00563026
-0.00564921
-0.0056635
-0.00567263
-0.00567685
-0.00567513
-0.00148205
-0.00172596
-0.00190535
-0.00201998
-0.00209342
-0.00214152
-0.00217306
-0.00219378
-0.00220602
-0.0022121
-0.00195751
-0.00207605
-0.0021922
-0.00227937
-0.00234061
-0.00238286
-0.00241151
-0.00243068
-0.00244224
-0.00244806
-0.00263423
-0.00268926
-0.00275665
-0.00281537
-0.00286107
-0.00289471
-0.0029186
-0.00293506
-0.00294517
-0.00295021
-0.00355574
-0.00358323
-0.0036221
-0.00366009
-0.00369226
-0.0037173
-0.0037359
-0.00374887
-0.00375669
-0.00375981
-0.00481691
-0.00483233
-0.00485564
-0.00488028
-0.00490228
-0.00492005
-0.00493357
-0.00494253
-0.00494702
-0.00494684
-0.00131356
-0.00139705
-0.00148765
-0.00156014
-0.00161368
-0.00165198
-0.00167865
-0.00169666
-0.00170751
-0.00171275
-0.00157594
-0.00163092
-0.00169852
-0.00175762
-0.00180387
-0.00183812
-0.00186257
-0.00187935
-0.00188962
-0.00189461
-0.00204504
-0.00207696
-0.0021215
-0.00216439
-0.00220044
-0.00222841
-0.00224915
-0.00226367
-0.00227278
-0.002277
-0.00271678
-0.00273525
-0.00276355
-0.0027931
-0.00281954
-0.00284094
-0.00285738
-0.00286898
-0.00287618
-0.00287896
-0.00361442
-0.00362554
-0.00364367
-0.00366378
-0.00368249
-0.00369812
-0.00371031
-0.00371869
-0.00372338
-0.00372379
-0.000788835
-0.000824241
-0.000871966
-0.000916818
-0.000954099
-0.000982976
-0.00100429
-0.00101907
-0.00102813
-0.00103231
-0.000936157
-0.000963266
-0.00100222
-0.0010407
-0.00107385
-0.0011001
-0.00111984
-0.00113367
-0.0011423
-0.00114627
-0.001218
-0.00123635
-0.00126467
-0.0012944
-0.00132129
-0.00134329
-0.00136033
-0.00137247
-0.00138023
-0.0013836
-0.00162631
-0.00163831
-0.00165791
-0.00167963
-0.00170019
-0.00171755
-0.00173141
-0.00174132
-0.00174775
-0.00174993
-0.00215844
-0.00216633
-0.00217973
-0.00219527
-0.00221041
-0.00222357
-0.00223415
-0.00224173
-0.00224629
-0.0022471
-8.2614e-05
-9.97571e-05
-0.000126282
-0.000154235
-0.000179718
-0.000200781
-0.000217127
-0.000228675
-0.000235879
-0.000238998
-0.000137904
-0.000152273
-0.000175209
-0.000200067
-0.00022323
-0.000242652
-0.000257933
-0.000268793
-0.000275686
-0.000278669
-0.000243985
-0.00025478
-0.000272715
-0.000292905
-0.000312344
-0.000329023
-0.000342459
-0.00035212
-0.000358433
-0.000361048
-0.000394663
-0.0004024
-0.000415697
-0.000431208
-0.000446656
-0.000460247
-0.000471487
-0.000479645
-0.000485131
-0.00048708
-0.000584668
-0.000590177
-0.00059981
-0.000611408
-0.000623239
-0.000633947
-0.000642904
-0.000649551
-0.000653999
-0.000655343
0.000695842
0.000686589
0.000671015
0.00065324
0.000635863
0.000620768
0.000608544
0.000599845
0.000594302
0.00059206
0.00072416
0.000715992
0.000702011
0.000685795
0.000669725
0.000655626
0.000644093
0.000635858
0.000630533
0.000628412
0.000785981
0.000779417
0.000767898
0.00075421
0.000740328
0.000727927
0.000717586
0.000710137
0.000705185
0.000703156
0.00088596
0.000880938
0.000871931
0.000860972
0.000849542
0.000839097
0.000830155
0.000823637
0.000819075
0.000817258
0.00102515
0.00102138
0.0010146
0.00100613
0.000997045
0.000988463
0.000981024
0.00097529
0.000971089
0.000968896
0.00145499
0.0014495
0.00143979
0.00142812
0.00141611
0.00140528
0.0013962
0.0013897
0.0013855
0.00138417
0.00156102
0.00155605
0.00154715
0.00153631
0.00152504
0.00151479
0.00150612
0.00149996
0.0014959
0.00149451
0.00178354
0.00177936
0.00177172
0.00176229
0.00175229
0.00174304
0.00173507
0.00172936
0.00172558
0.00172429
0.00213061
0.00212729
0.00212113
0.00211333
0.00210483
0.00209674
0.00208961
0.00208447
0.00208079
0.00207912
0.00260623
0.00260369
0.00259897
0.00259283
0.00258585
0.00257894
0.00257272
0.00256783
0.00256386
0.00256119
0.00211299
0.00210937
0.00210294
0.00209485
0.00208628
0.00207823
0.00207135
0.00206652
0.00206342
0.00206279
0.00228873
0.00228543
0.00227939
0.00227178
0.00226361
0.00225591
0.00224925
0.00224452
0.00224157
0.00224115
0.00265954
0.00265672
0.00265147
0.00264469
0.00263726
0.00263009
0.00262382
0.00261948
0.00261673
0.00261608
0.00324689
0.00324467
0.00324034
0.00323464
0.00322813
0.00322165
0.00321588
0.00321172
0.00320885
0.00320772
0.00407652
0.00407493
0.00407174
0.00406728
0.00406181
0.00405604
0.00405081
0.00404653
0.00404288
0.00403994
0.00259909
0.00259651
0.00259173
0.00258569
0.00257903
0.00257274
0.00256728
0.00256342
0.00256122
0.00256159
0.00282994
0.00282757
0.00282315
0.00281736
0.00281102
0.0028048
0.00279948
0.00279583
0.00279378
0.00279404
0.00332262
0.00332069
0.00331679
0.00331157
0.00330568
0.00329979
0.00329474
0.00329117
0.00328929
0.00328944
0.00412087
0.00411958
0.00411654
0.00411217
0.00410693
0.00410139
0.00409663
0.00409319
0.00409098
0.00408997
0.0052975
0.00529727
0.00529537
0.00529213
0.00528763
0.00528268
0.00527815
0.00527415
0.00527057
0.00526689
0.00285423
0.00285213
0.00284822
0.00284299
0.00283732
0.00283169
0.00282697
0.00282365
0.00282205
0.00282269
0.00311589
0.00311412
0.00311044
0.00310548
0.00309995
0.00309446
0.00308985
0.00308657
0.00308508
0.00308564
0.003679
0.00367774
0.00367459
0.00367015
0.00366499
0.00365969
0.00365524
0.00365213
0.00365067
0.00365065
0.0046075
0.00460732
0.00460512
0.0046015
0.00459684
0.00459193
0.00458771
0.0045844
0.00458227
0.00458031
0.00602653
0.00602851
0.00602768
0.00602521
0.0060212
0.00601678
0.00601241
0.00600849
0.00600421
0.00599847
0.00817042
0.00817418
0.00817499
0.00817348
0.00817007
0.00816588
0.00816108
0.00815614
0.00814804
0.00813909
0.0115204
0.0115218
0.011523
0.011522
0.0115189
0.0115147
0.0115096
0.0115022
0.0114912
0.0114866
0.0175142
0.0174995
0.0175018
0.0175025
0.0175002
0.017496
0.0174906
0.0174792
0.0174709
0.0174854
0.0287812
0.0289433
0.0289754
0.0289804
0.028979
0.0289758
0.0289682
0.0289587
0.0289166
0.0287542
-0.00485783
-0.00496584
-0.00498914
-0.00499493
-0.00499821
-0.0050021
-0.00500441
-0.00500659
-0.00498892
-0.00488314
0.00694725
0.00694702
0.00694613
0.00694389
0.00694009
0.00693564
0.00693086
0.00692589
0.00691945
0.00691379
0.00915067
0.00914616
0.00914503
0.00914329
0.00913993
0.00913565
0.0091305
0.00912389
0.00911558
0.00911484
0.0117912
0.0117785
0.0117775
0.0117767
0.011774
0.0117699
0.0117644
0.011756
0.0117488
0.0117596
0.0133086
0.013332
0.0133405
0.0133416
0.0133396
0.013336
0.0133301
0.0133222
0.013307
0.013281
0.0041193
0.0041003
0.00409206
0.0040882
0.00408508
0.00408138
0.00407808
0.00407515
0.00407789
0.00409337
0.00515129
0.00514989
0.00514776
0.00514449
0.00513998
0.00513501
0.00512997
0.00512498
0.00511938
0.00511417
0.00639152
0.00638946
0.00638788
0.00638548
0.00638169
0.00637719
0.00637201
0.00636589
0.00635863
0.00635385
0.00748133
0.00748056
0.00748024
0.00747864
0.0074755
0.0074713
0.00746595
0.00745914
0.00745121
0.0074471
0.00751047
0.00752422
0.00752702
0.00752613
0.00752351
0.00751963
0.00751473
0.00750814
0.00749943
0.00748133
0.00505326
0.00504005
0.00503523
0.0050321
0.00502897
0.00502531
0.00502158
0.00501826
0.00501753
0.00502612
0.00318867
0.00318671
0.00318333
0.00317871
0.00317312
0.00316733
0.00316184
0.00315672
0.00315169
0.00314693
0.00379955
0.00379825
0.00379597
0.00379255
0.00378804
0.00378311
0.00377789
0.00377232
0.00376612
0.00376037
0.00424649
0.00424699
0.00424592
0.00424336
0.00423965
0.00423525
0.00423022
0.00422446
0.00421786
0.00421146
0.00419885
0.00420285
0.00420268
0.0042005
0.00419731
0.00419328
0.00418882
0.00418363
0.00417774
0.00416875
0.00350513
0.00349916
0.00349586
0.00349285
0.00348953
0.00348581
0.00348204
0.00347853
0.00347624
0.00347765
0.00119325
0.00119042
0.00118544
0.00117903
0.00117195
0.00116507
0.00115889
0.00115364
0.00114919
0.00114585
0.00136396
0.00136194
0.0013583
0.00135344
0.00134788
0.00134229
0.00133698
0.00133197
0.00132733
0.0013234
0.00147829
0.00147711
0.00147446
0.00147058
0.00146608
0.00146136
0.00145665
0.0014521
0.00144768
0.00144408
0.00145954
0.00145908
0.00145695
0.00145363
0.0014498
0.00144565
0.00144164
0.00143774
0.00143417
0.00143089
0.00131084
0.00130831
0.00130559
0.00130236
0.00129876
0.001295
0.00129144
0.00128827
0.00128584
0.00128501
-0.000803083
-0.000807105
-0.000814107
-0.000822737
-0.000831675
-0.000839908
-0.000846837
-0.00085223
-0.000855797
-0.00085731
-0.00101614
-0.00101951
-0.00102492
-0.00103157
-0.00103842
-0.00104478
-0.00105023
-0.0010544
-0.0010571
-0.00105752
-0.00116213
-0.00116562
-0.00117017
-0.00117561
-0.00118103
-0.00118611
-0.00119029
-0.00119331
-0.00119472
-0.00119313
-0.00116049
-0.0011639
-0.00116765
-0.00117208
-0.00117648
-0.00118062
-0.00118394
-0.00118618
-0.00118709
-0.00118497
-0.00101793
-0.00101823
-0.00102068
-0.00102416
-0.00102796
-0.0010316
-0.00103465
-0.0010371
-0.00103889
-0.00103982
-0.002793
-0.00279846
-0.00280791
-0.00281915
-0.00283016
-0.00283981
-0.00284753
-0.00285289
-0.00285552
-0.00285496
-0.00344688
-0.00345167
-0.00345899
-0.00346761
-0.00347577
-0.00348288
-0.0034882
-0.00349127
-0.00349142
-0.00348772
-0.00392406
-0.0039301
-0.00393644
-0.00394335
-0.00394952
-0.00395465
-0.00395805
-0.00395894
-0.00395691
-0.00394972
-0.00389335
-0.00390106
-0.00390676
-0.0039121
-0.0039168
-0.00392066
-0.0039229
-0.00392352
-0.00392082
-0.00391178
-0.00320674
-0.00320357
-0.00320524
-0.00320877
-0.00321254
-0.00321585
-0.0032183
-0.00321985
-0.00322147
-0.00322377
-0.0047442
-0.00475141
-0.00476355
-0.00477758
-0.00479066
-0.0048017
-0.00481009
-0.00481527
-0.00481674
-0.00481421
-0.00602674
-0.00603197
-0.00604073
-0.00605096
-0.00606018
-0.00606767
-0.00607283
-0.00607444
-0.00607237
-0.0060667
-0.00714536
-0.00715028
-0.00715783
-0.00716544
-0.00717193
-0.00717682
-0.00717923
-0.00717862
-0.00717338
-0.00716611
-0.00719346
-0.0072096
-0.00721825
-0.00722436
-0.00722919
-0.0072326
-0.00723398
-0.00723278
-0.00722499
-0.00720773
-0.00474339
-0.0047349
-0.00473465
-0.00473789
-0.00474145
-0.00474433
-0.00474628
-0.00474726
-0.00475065
-0.00475638
-0.00652484
-0.00653467
-0.00654955
-0.00656603
-0.00658089
-0.00659294
-0.00660194
-0.00660662
-0.00660699
-0.0066027
-0.00877034
-0.0087724
-0.00878229
-0.00879328
-0.00880315
-0.00881088
-0.00881574
-0.00881677
-0.00881262
-0.00881101
-0.0114431
-0.0114317
-0.0114389
-0.0114467
-0.0114534
-0.0114582
-0.0114601
-0.0114584
-0.0114513
-0.0114646
-0.0129746
-0.0130054
-0.0130184
-0.0130265
-0.0130317
-0.0130347
-0.0130361
-0.0130301
-0.013021
-0.012992
-0.00380078
-0.00378463
-0.0037812
-0.00378332
-0.00378649
-0.0037893
-0.00379045
-0.00379403
-0.00379584
-0.00380992
-0.00773708
-0.00775018
-0.00776772
-0.00778555
-0.00780143
-0.0078142
-0.00782326
-0.00782787
-0.00782603
-0.00781971
-0.0111311
-0.011137
-0.0111485
-0.0111602
-0.0111705
-0.0111785
-0.0111835
-0.0111832
-0.0111774
-0.0111763
-0.0171589
-0.0171459
-0.0171551
-0.0171646
-0.0171719
-0.0171768
-0.017179
-0.0171731
-0.0171692
-0.0171882
-0.0284464
-0.0286115
-0.0286488
-0.0286603
-0.0286663
-0.0286701
-0.0286686
-0.0286629
-0.0286262
-0.028463
0.00518247
0.00528745
0.00530644
0.00530643
0.00530357
0.00530121
0.00529829
0.00529612
0.00527711
0.00517155
)
;

boundaryField
{
    walls
    {
        type            zeroGradient;
    }
    lid
    {
        type            zeroGradient;
    }
}


// ************************************************************************* //
