/*--------------------------------*- C++ -*----------------------------------*\
| =========                 |                                                 |
| \\      /  F ield         | OpenFOAM: The Open Source CFD Toolbox           |
|  \\    /   O peration     | Version:  2.3.1                                 |
|   \\  /    A nd           | Web:      www.OpenFOAM.org                      |
|    \\/     M anipulation  |                                                 |
\*---------------------------------------------------------------------------*/
FoamFile
{
    version     2.0;
    format      ascii;
    class       volVectorField;
    location    "0.56";
    object      U;
}
// * * * * * * * * * * * * * * * * * * * * * * * * * * * * * * * * * * * * * //

dimensions      [0 1 -1 0 0 0 0];

internalField   nonuniform List<vector> 
15166
(
(5.97401 0.559936 3.19325e-19)
(7.18673 1.03438 1.59856e-18)
(8.26902 0.902223 -8.94015e-19)
(9.30106 0.956291 8.01746e-19)
(10.0961 1.02019 8.23982e-19)
(10.8727 1.07498 4.34254e-19)
(11.5267 1.17342 -8.59507e-19)
(12.0689 1.23918 8.32989e-19)
(12.4642 1.33353 -4.22539e-19)
(12.7711 1.39302 1.67145e-18)
(12.997 1.44849 -1.22765e-18)
(13.1508 1.5068 1.22175e-18)
(6.66611 1.02632 4.89024e-19)
(7.60219 1.42492 5.24157e-20)
(8.55501 1.2094 2.74517e-20)
(9.47679 1.22948 4.56102e-19)
(10.2373 1.24939 -3.96013e-19)
(10.965 1.27589 0)
(11.5823 1.33751 4.25025e-19)
(12.0879 1.38345 1.45196e-21)
(12.4665 1.44389 4.18305e-19)
(12.7601 1.4857 -8.4336e-19)
(12.9764 1.52576 1.65665e-18)
(13.1344 1.56471 -1.23424e-18)
(7.20865 1.25742 -4.63377e-19)
(8.03758 1.56821 -2.4781e-18)
(8.89938 1.37642 4.88144e-19)
(9.72198 1.4105 -9.25309e-19)
(10.4313 1.41722 -1.65937e-20)
(11.1023 1.43291 8.84021e-19)
(11.6751 1.47251 -1.26961e-18)
(12.1419 1.50343 -4.35703e-19)
(12.4973 1.54164 8.31622e-19)
(12.7724 1.56904 5.99612e-21)
(12.9766 1.5953 -1.23788e-18)
(13.1301 1.6201 1.62281e-18)
(7.5148 1.37413 0)
(8.35037 1.62659 -1.08485e-18)
(9.18109 1.47815 2.54417e-18)
(9.94677 1.52639 -1.44515e-18)
(10.6198 1.53135 9.25284e-19)
(11.2454 1.54615 1.36581e-18)
(11.7793 1.57484 -4.23949e-19)
(12.2125 1.59689 4.35711e-19)
(12.5453 1.62124 -8.51554e-19)
(12.8023 1.63803 8.4124e-19)
(12.9949 1.65298 4.17411e-19)
(13.1437 1.66615 8.27411e-19)
(7.72609 1.44766 -6.25658e-19)
(8.59199 1.6623 -5.80185e-19)
(9.40729 1.5533 -1.5753e-18)
(10.1388 1.60712 1.48603e-18)
(10.7878 1.61244 -4.70723e-19)
(11.3802 1.62865 -4.56033e-19)
(11.8831 1.6515 -4.44791e-19)
(12.2893 1.66819 4.5112e-19)
(12.6024 1.68384 -4.2979e-19)
(12.8434 1.69336 -4.23431e-19)
(13.0255 1.70077 -1.26308e-18)
(13.1674 1.70719 -4.66283e-21)
(7.91376 1.49909 1.23993e-18)
(8.80886 1.68485 1.17545e-18)
(9.60758 1.60958 -1.09929e-18)
(10.3124 1.66476 2.07597e-18)
(10.9415 1.67167 -1.9844e-18)
(11.5069 1.68943 9.50203e-19)
(11.9844 1.70865 0)
(12.3682 1.72175 9.05148e-19)
(12.6644 1.73169 -1.76277e-18)
(12.8915 1.73607 8.61725e-19)
(13.0638 1.73806 0)
(13.1987 1.73922 1.25612e-18)
(8.08655 1.53345 -6.74611e-19)
(9.01001 1.69515 6.209e-19)
(9.79239 1.64854 0)
(10.4749 1.70355 0)
(11.0854 1.71328 5.19073e-19)
(11.6276 1.73265 4.97772e-19)
(12.0831 1.74964 -9.5113e-19)
(12.4478 1.76031 1.38427e-18)
(12.7291 1.76637 4.54196e-19)
(12.9442 1.7669 0)
(13.1082 1.76444 4.35635e-19)
(13.2378 1.76133 0)
(8.24113 1.55405 -1.36311e-18)
(9.19329 1.69573 1.25579e-18)
(9.96183 1.6731 5.748e-19)
(10.6261 1.72706 5.61889e-19)
(11.2201 1.74013 -2.61912e-18)
(11.7421 1.76103 5.09648e-19)
(12.1786 1.77682 0)
(12.5268 1.78599 -4.65764e-19)
(12.7951 1.7895 4.64869e-19)
(13 1.7874 2.75857e-21)
(13.1565 1.78198 -8.71e-19)
(13.2798 1.77626 8.59084e-19)
(8.37869 1.56381 1.40258e-18)
(9.3592 1.68907 -1.29117e-18)
(10.1164 1.68648 5.90165e-19)
(10.7659 1.73874 -1.69066e-18)
(11.3453 1.75507 2.1564e-18)
(11.85 1.77722 -2.06481e-18)
(12.2701 1.79243 9.94063e-19)
(12.6042 1.80072 0)
(12.8614 1.80266 4.72833e-19)
(13.0574 1.79884 0)
(13.2072 1.79136 9.01334e-19)
(13.3251 1.78319 -4.37036e-19)
(8.5024 1.56508 1.44224e-18)
(9.51035 1.67688 0)
(10.258 1.69107 6.23244e-19)
(10.8952 1.74123 5.88078e-19)
(11.4616 1.76048 5.58652e-19)
(11.9513 1.78352 5.34354e-19)
(12.3573 1.79846 0)
(12.6792 1.80628 0)
(12.9268 1.80725 -1.42735e-18)
(13.1152 1.80234 2.33102e-18)
(13.2593 1.79357 -9.02405e-19)
(13.3721 1.78522 -1.3397e-18)
(8.61497 1.55963 1.47161e-18)
(9.6493 1.66033 -2.01474e-18)
(10.3888 1.68851 1.89428e-18)
(11.0154 1.73635 -1.77354e-18)
(11.57 1.7581 -5.56674e-19)
(12.0466 1.78169 -5.33035e-19)
(12.4401 1.79654 1.03609e-18)
(12.7515 1.80409 -1.00413e-18)
(12.9908 1.80452 -1.4631e-18)
(13.1726 1.79896 -4.675e-19)
(13.3117 1.78908 1.8565e-18)
(13.4196 1.77935 -8.93839e-19)
(8.71813 1.54864 -1.5076e-18)
(9.7777 1.64008 -2.05018e-18)
(10.5103 1.67995 -3.1814e-19)
(11.1275 1.72536 1.21231e-18)
(11.6712 1.7492 8.56873e-19)
(12.1361 1.77307 -2.20021e-18)
(12.5188 1.78789 2.11549e-18)
(12.821 1.79533 -3.85526e-21)
(13.053 1.79554 -1.49096e-18)
(13.2291 1.78987 9.65944e-19)
(13.3634 1.77983 -4.66327e-19)
(13.4667 1.76926 9.05397e-19)
(8.81299 1.53306 -1.14851e-18)
(9.89673 1.61673 -3.53612e-19)
(10.6236 1.66628 3.22596e-19)
(11.2322 1.70924 0)
(11.766 1.73476 2.89665e-19)
(12.2205 1.7587 -2.82766e-19)
(12.5935 1.77352 0)
(12.8875 1.78091 0)
(13.113 1.78106 2.54176e-19)
(13.2838 1.77547 0)
(13.4131 1.76583 0)
(13.5105 1.75539 -9.15806e-19)
(8.90055 1.51362 -3.86923e-19)
(10.0075 1.59069 3.51963e-19)
(10.7295 1.64824 0)
(11.3304 1.68877 0)
(11.855 1.7156 1.18759e-18)
(12.3001 1.73939 -8.60623e-19)
(12.6644 1.75416 1.09231e-18)
(12.9513 1.76146 -1.0607e-18)
(13.1711 1.76142 7.67888e-19)
(13.3375 1.75536 -5.67756e-21)
(13.4632 1.74488 -1.93846e-18)
(13.5579 1.73723 1.17932e-18)
(8.98156 1.49087 -1.59008e-18)
(10.1108 1.56228 0)
(10.8288 1.62641 1.34315e-18)
(11.4226 1.66455 -1.59645e-18)
(11.9387 1.69236 0)
(12.3753 1.71588 2.91876e-19)
(12.7318 1.73057 1.10939e-18)
(13.0123 1.73783 -2.4197e-18)
(13.2272 1.73792 2.08201e-18)
(13.3897 1.73222 -1.01447e-18)
(13.5123 1.72176 9.81267e-19)
(13.6039 1.70852 -1.19473e-18)
(9.05668 1.46531 3.47808e-21)
(10.2074 1.53177 7.35635e-19)
(10.9221 1.6013 0)
(11.5093 1.63711 3.1972e-19)
(12.0175 1.66561 0)
(12.4463 1.68874 8.797e-19)
(12.7959 1.70334 -7.81697e-21)
(13.0707 1.71058 -8.23968e-19)
(13.2811 1.7108 0)
(13.44 1.70542 -2.58306e-19)
(13.5592 1.69542 2.51262e-19)
(13.648 1.68082 0)
(9.1265 1.43735 4.02394e-19)
(10.2978 1.49942 -1.11951e-18)
(11.0099 1.57329 1.03885e-18)
(11.591 1.60684 -4.57396e-21)
(12.0918 1.63579 3.0911e-19)
(12.5135 1.65844 -2.97823e-19)
(12.8567 1.67291 0)
(13.1264 1.6801 0)
(13.3329 1.68042 1.0675e-18)
(13.4885 1.67525 -7.85951e-19)
(13.6047 1.66577 -5.05977e-19)
(13.6902 1.65219 -2.45542e-19)
(9.19138 1.40722 4.11457e-19)
(10.3826 1.46532 3.72753e-19)
(11.0927 1.5427 -3.47716e-19)
(11.6681 1.57407 6.59463e-19)
(12.1621 1.60325 -1.57336e-18)
(12.5771 1.62537 3.06285e-19)
(12.9146 1.63968 0)
(13.1796 1.64683 5.58369e-19)
(13.3825 1.64727 -5.45095e-19)
(13.5353 1.64232 -7.90408e-19)
(13.649 1.63326 2.58657e-19)
(13.7322 1.62089 7.43773e-19)
(9.25179 1.37525 0)
(10.4623 1.42967 0)
(11.1709 1.50982 0)
(11.7409 1.53909 3.37063e-19)
(12.2284 1.56832 0)
(12.6374 1.58984 6.08632e-19)
(12.9695 1.60396 -8.86144e-19)
(13.2304 1.61108 0)
(13.43 1.61171 -5.47648e-19)
(13.5803 1.60709 5.32754e-19)
(13.6918 1.59847 0)
(13.7731 1.58637 0)
(9.30808 1.34163 2.12259e-18)
(10.5372 1.39259 -1.53823e-18)
(11.2447 1.47488 7.18587e-19)
(11.8097 1.50211 -1.01053e-18)
(12.2911 1.53124 1.29025e-18)
(12.6944 1.55213 -9.25308e-19)
(13.0217 1.56602 8.92915e-19)
(13.2787 1.5731 2.8313e-19)
(13.4754 1.57394 -1.11309e-18)
(13.6232 1.56972 8.11215e-19)
(13.7325 1.56173 0)
(13.8119 1.5493 0)
(9.36051 1.30654 -1.71734e-18)
(10.6077 1.35419 0)
(11.3146 1.4381 0)
(11.8747 1.46335 -6.81273e-19)
(12.3504 1.49222 6.546e-19)
(12.7485 1.51243 -9.32879e-19)
(13.0712 1.52606 5.11643e-21)
(13.3247 1.53306 8.72415e-19)
(13.5187 1.53404 5.60488e-19)
(13.6642 1.53011 -5.48965e-19)
(13.7714 1.52262 -2.67086e-19)
(13.8486 1.50989 0)
(9.40925 1.27018 -1.2999e-18)
(10.6739 1.31459 1.18166e-18)
(11.3806 1.39965 0)
(11.9363 1.42295 -6.87777e-19)
(12.4066 1.45145 9.92274e-19)
(12.7997 1.47096 0)
(13.1183 1.48427 0)
(13.3685 1.49113 2.9526e-19)
(13.56 1.49216 5.66468e-19)
(13.7037 1.48834 -5.54961e-19)
(13.8092 1.481 5.3708e-19)
(13.8853 1.47008 0)
(9.45476 1.23255 -4.25419e-21)
(10.7364 1.27374 -1.18798e-18)
(11.4431 1.35964 0)
(11.9946 1.38108 1.04427e-18)
(12.4597 1.40911 -9.98063e-19)
(12.8482 1.42788 3.20479e-19)
(13.163 1.44085 3.08616e-19)
(13.4102 1.44758 -8.85783e-19)
(13.5996 1.44872 5.77484e-19)
(13.7415 1.44518 -2.80485e-19)
(13.8457 1.43824 2.68463e-21)
(13.9207 1.4285 0)
(9.49656 1.19374 -8.79833e-19)
(10.795 1.23178 8.0168e-19)
(11.5023 1.31826 0)
(12.0497 1.33785 -3.49579e-19)
(12.51 1.36535 0)
(12.8942 1.38335 -3.20085e-19)
(13.2054 1.39598 3.08954e-21)
(13.45 1.40258 3.00983e-19)
(13.6373 1.40382 -2.91643e-19)
(13.7776 1.40051 -2.69169e-21)
(13.8806 1.39377 -2.53347e-21)
(13.9547 1.38524 -1.07125e-18)
(9.53533 1.15424 -4.48032e-19)
(10.8501 1.18913 -8.02058e-19)
(11.5582 1.27569 7.51769e-19)
(12.1019 1.29343 3.55948e-19)
(12.5577 1.3203 0)
(12.9378 1.33755 3.26043e-19)
(13.2456 1.34981 -6.25386e-19)
(13.4877 1.35625 -5.99006e-19)
(13.6731 1.35758 8.80372e-19)
(13.8121 1.35452 -2.57994e-21)
(13.9141 1.34802 -2.47273e-21)
(13.9873 1.33994 2.68965e-19)
(9.57157 1.11382 4.42968e-19)
(10.902 1.14547 -8.14537e-19)
(11.611 1.23195 -3.79427e-19)
(12.1513 1.2479 -3.55306e-19)
(12.6027 1.27411 -3.42388e-19)
(12.979 1.29057 3.2577e-19)
(13.2837 1.30244 -1.26446e-18)
(13.5235 1.30872 2.92177e-21)
(13.7072 1.31012 0)
(13.845 1.3073 8.5735e-19)
(13.9461 1.30104 -2.83116e-19)
(14.0189 1.29393 -2.71762e-19)
(9.60487 1.07254 -4.5499e-19)
(10.9507 1.10091 0)
(11.661 1.18714 3.14482e-21)
(12.198 1.20134 3.6113e-19)
(12.6453 1.22684 6.86783e-19)
(13.0179 1.24252 3.25395e-19)
(13.3198 1.254 -1.27449e-18)
(13.5574 1.26012 3.12002e-19)
(13.7396 1.26162 8.98371e-19)
(13.8762 1.25914 0)
(13.9766 1.25325 0)
(14.0489 1.24602 0)
(9.63519 1.03041 1.82564e-18)
(10.9964 1.05548 -8.19853e-19)
(11.7082 1.14139 7.71373e-19)
(12.242 1.15384 -3.60558e-19)
(12.6855 1.17859 6.97417e-19)
(13.0547 1.19349 9.92256e-19)
(13.3539 1.20455 -9.62422e-19)
(13.5894 1.21049 5.93855e-21)
(13.7702 1.21205 1.20433e-18)
(13.9058 1.20982 -8.79747e-19)
(14.0053 1.20443 2.84965e-19)
(14.0768 1.19802 -5.44869e-19)
(9.66289 0.987797 -4.57789e-19)
(11.0391 1.00954 -4.1526e-19)
(11.7526 1.09479 -3.84062e-19)
(12.2837 1.10548 -7.25743e-19)
(12.7234 1.12945 -3.40779e-19)
(13.0893 1.14355 3.36324e-19)
(13.386 1.15418 3.18455e-19)
(13.6197 1.15992 -9.35496e-19)
(13.7992 1.1615 3.06906e-19)
(13.9338 1.1594 5.88302e-19)
(14.0327 1.15419 -2.85074e-19)
(14.1036 1.14936 -2.7969e-19)
(9.68806 0.944605 -9.20667e-19)
(11.0789 0.96299 1.66947e-18)
(11.7945 1.04744 0)
(12.3229 1.05633 0)
(12.7591 1.07949 0)
(13.122 1.09279 6.73441e-19)
(13.4162 1.10298 6.49809e-19)
(13.6483 1.10852 -3.13281e-19)
(13.8266 1.11013 3.06036e-19)
(13.9604 1.10826 2.05496e-21)
(14.0588 1.10328 -5.73549e-19)
(14.1293 1.09876 5.60802e-19)
(9.71114 0.901073 9.31178e-19)
(11.1164 0.915908 -2.07201e-19)
(11.8339 0.999272 -1.95765e-19)
(12.3598 1.00644 0)
(12.7926 1.02879 0)
(13.1526 1.04127 -3.37676e-19)
(13.4446 1.05102 3.25017e-19)
(13.6751 1.05636 -6.36138e-19)
(13.8524 1.058 3.05076e-19)
(13.9855 1.05635 -8.97236e-19)
(14.0835 1.05164 0)
(14.1536 1.04767 -2.81513e-19)
(9.7316 0.85703 -1.86888e-18)
(11.151 0.868126 6.36717e-19)
(11.8709 0.950292 1.95555e-19)
(12.3945 0.955819 -5.52515e-19)
(12.8241 0.977362 7.12031e-19)
(13.1814 0.98905 0)
(13.4713 0.998358 6.54903e-19)
(13.7003 1.0035 -6.40199e-19)
(13.8766 1.00516 0)
(14.0091 1.00376 0)
(14.1065 0.999414 0)
(14.1763 0.994881 5.6043e-19)
(9.74969 0.81299 0)
(11.183 0.820198 0)
(11.9054 0.900729 -3.92726e-19)
(12.427 0.904586 1.69414e-21)
(12.8536 0.925308 0)
(13.2082 0.936206 -6.82272e-19)
(13.4961 0.94507 1.48976e-18)
(13.7238 0.949984 -4.83396e-19)
(13.8992 0.951632 -6.18837e-19)
(14.0312 0.950363 1.57706e-19)
(14.1282 0.946287 6.05065e-21)
(14.1976 0.942045 5.77303e-19)
(9.76573 0.768557 4.71182e-19)
(11.2126 0.771628 -2.1434e-19)
(11.9376 0.850533 1.98749e-19)
(12.4573 0.852813 -1.86245e-19)
(12.8811 0.872693 8.95841e-19)
(13.2332 0.882795 -1.73406e-19)
(13.5193 0.89121 -4.97107e-19)
(13.7457 0.895911 -3.19068e-19)
(13.9204 0.897566 3.14369e-19)
(14.0519 0.896497 -3.04096e-19)
(14.1487 0.892805 1.48348e-19)
(14.2178 0.888588 -1.41534e-19)
(9.77973 0.723712 7.1211e-19)
(11.2397 0.722557 -6.42909e-19)
(11.9676 0.799806 -1.98606e-19)
(12.4856 0.800498 1.88624e-19)
(12.9067 0.819551 -5.37678e-19)
(13.2564 0.828869 5.19834e-19)
(13.5407 0.83684 -3.22566e-21)
(13.766 0.841345 -1.64031e-19)
(13.94 0.843034 -3.12976e-19)
(14.0712 0.842158 4.59951e-19)
(14.1678 0.838802 1.47665e-19)
(14.2369 0.835119 -4.38254e-19)
(9.79118 0.678732 2.39691e-19)
(11.2644 0.673253 0)
(11.9954 0.748644 -2.00513e-19)
(12.5118 0.74771 9.26821e-22)
(12.9304 0.765919 0)
(13.2778 0.774454 1.74356e-19)
(13.5605 0.781994 0)
(13.7847 0.786323 0)
(13.958 0.788084 0)
(14.0889 0.787518 0)
(14.1853 0.78467 -2.97735e-19)
(14.2546 0.780804 5.8075e-19)
(9.80108 0.633551 -4.80339e-19)
(11.2868 0.623648 0)
(12.021 0.697066 4.01718e-19)
(12.536 0.694445 -1.89309e-19)
(12.9522 0.711833 -3.61331e-19)
(13.2974 0.719591 1.76735e-19)
(13.5786 0.726689 -3.36014e-19)
(13.8018 0.73081 3.28835e-19)
(13.9745 0.732581 -3.16166e-19)
(14.1049 0.732231 3.16345e-21)
(14.201 0.729995 1.53788e-19)
(14.2701 0.727319 2.91536e-19)
(9.80875 0.58788 0)
(11.3069 0.573483 -2.16945e-19)
(12.0446 0.645018 -2.01229e-19)
(12.5583 0.640713 0)
(12.9722 0.657311 -3.6277e-19)
(13.3154 0.66428 7.01592e-19)
(13.595 0.670926 -3.40726e-19)
(13.8173 0.674807 0)
(13.9894 0.676513 0)
(14.1195 0.676162 -1.55532e-19)
(14.2154 0.673958 -1.50782e-19)
(14.2837 0.673966 0)
(9.81432 0.542237 4.81898e-19)
(11.3248 0.523331 -4.21832e-21)
(12.066 0.592664 -2.93487e-21)
(12.5787 0.586566 -3.37267e-21)
(12.9904 0.602406 -5.50577e-19)
(13.3316 0.608585 0)
(13.6099 0.614761 0)
(13.8313 0.618392 0)
(14.0031 0.620028 0)
(14.1331 0.619643 1.55609e-19)
(14.2294 0.616889 -1.49788e-19)
(14.2987 0.618751 2.94504e-21)
(9.8181 0.496141 -6.05495e-19)
(11.3405 0.472706 6.55999e-19)
(12.0854 0.539926 4.04405e-19)
(12.5971 0.532019 -3.85394e-19)
(13.0068 0.547168 9.12526e-20)
(13.3462 0.552567 0)
(13.6232 0.558308 3.40022e-19)
(13.8439 0.561736 -3.30979e-21)
(14.0153 0.563467 -3.23536e-19)
(14.1452 0.563598 0)
(14.2415 0.561606 -2.28528e-19)
(14.3105 0.558229 0)
(9.81992 0.449944 2.05212e-21)
(11.3541 0.421967 4.39739e-19)
(12.1027 0.486872 1.02049e-19)
(12.6136 0.477143 2.86851e-19)
(13.0216 0.49166 -2.77862e-19)
(13.3592 0.496264 0)
(13.6349 0.501559 3.41211e-19)
(13.8549 0.504751 -3.32594e-21)
(14.0259 0.506412 -2.43853e-19)
(14.1557 0.506592 0)
(14.2518 0.504981 1.53046e-19)
(14.3212 0.505116 0)
(9.82043 0.403771 1.2135e-21)
(11.3655 0.370951 3.30417e-19)
(12.1179 0.433352 -1.02037e-19)
(12.6283 0.42202 1.92962e-19)
(13.0345 0.435935 0)
(13.3705 0.439699 0)
(13.6451 0.444545 -8.61207e-20)
(13.8644 0.447493 -8.35344e-20)
(14.0352 0.449109 -8.09368e-20)
(14.165 0.44942 -7.89874e-20)
(14.2613 0.448041 -1.5258e-19)
(14.331 0.44853 1.4892e-19)
(9.81904 0.357346 -1.22541e-19)
(11.3747 0.319414 -1.09856e-19)
(12.1313 0.379379 2.0401e-19)
(12.6412 0.366664 -4.83664e-19)
(13.0458 0.379995 1.85915e-19)
(13.3802 0.382901 0)
(13.6538 0.387297 8.61348e-20)
(13.8725 0.390002 8.35575e-20)
(14.0431 0.391593 -1.61807e-19)
(14.1729 0.392025 2.38137e-19)
(14.2694 0.390794 1.53536e-19)
(14.3392 0.391362 -1.51191e-19)
(9.81595 0.311186 0)
(11.3815 0.268019 0)
(12.1427 0.325069 1.02872e-19)
(12.6523 0.311048 0)
(13.0555 0.323911 -9.29014e-20)
(13.3884 0.325888 8.94934e-20)
(13.6609 0.329839 1.72127e-19)
(13.8791 0.332305 -2.52664e-19)
(14.0495 0.333875 0)
(14.1794 0.334491 -7.94818e-20)
(14.276 0.333638 7.66135e-20)
(14.3461 0.333479 -2.25084e-19)
(9.81128 0.26483 6.17455e-20)
(11.3864 0.216233 2.20472e-19)
(12.1518 0.270471 -3.09401e-19)
(12.6617 0.25533 0)
(13.0637 0.267643 4.63485e-20)
(13.395 0.268644 8.88501e-20)
(13.6666 0.272184 -3.46807e-19)
(13.8843 0.274406 4.20551e-19)
(14.0546 0.275928 -1.64417e-19)
(14.1846 0.276626 1.19377e-19)
(14.2814 0.275987 0)
(14.3518 0.275651 7.5773e-20)
(9.8048 0.218588 -6.17657e-20)
(11.3894 0.164385 0)
(12.1589 0.215799 -5.1065e-20)
(12.6694 0.199685 9.7863e-20)
(13.0701 0.211181 1.39311e-19)
(13.4 0.211128 -9.02201e-20)
(13.6707 0.214355 -4.34818e-20)
(13.888 0.216357 4.21998e-20)
(14.0582 0.217867 8.15703e-20)
(14.1883 0.218785 -1.20118e-19)
(14.2854 0.218785 -3.89111e-20)
(14.3564 0.217488 -3.75875e-20)
(9.79672 0.172412 -9.22902e-20)
(11.3904 0.112335 1.39275e-19)
(12.1641 0.161142 -7.7491e-20)
(12.6753 0.144052 1.21563e-19)
(13.0747 0.154364 -2.10039e-19)
(13.4035 0.153429 1.79918e-19)
(13.6734 0.156437 -6.57713e-20)
(13.8903 0.158156 4.18632e-20)
(14.0604 0.159596 -1.64351e-19)
(14.1907 0.16052 6.0413e-20)
(14.2881 0.160711 3.89404e-20)
(14.3591 0.15957 3.8113e-20)
(9.78715 0.126574 -9.27756e-20)
(11.3897 0.0600923 2.8082e-20)
(12.1675 0.106472 2.58582e-20)
(12.6795 0.0882648 -2.44051e-20)
(13.0776 0.0972867 -2.31642e-20)
(13.4054 0.095842 4.52478e-20)
(13.6745 0.0983733 2.1782e-20)
(13.8911 0.0998269 0)
(14.0613 0.101243 0)
(14.1918 0.102319 2.00239e-20)
(14.2895 0.103047 0)
(14.3611 0.102129 0)
(9.77611 0.0808025 -1.55434e-20)
(11.3871 0.00762798 1.38725e-20)
(12.1692 0.0517656 7.13603e-22)
(12.6818 0.0323984 -1.2664e-20)
(13.079 0.0400657 0)
(13.4059 0.0381891 0)
(13.6742 0.0402048 1.15367e-20)
(13.8905 0.041394 -2.11781e-20)
(14.0607 0.0427702 1.03526e-20)
(14.1915 0.0438973 6.27128e-22)
(14.2896 0.0447855 0)
(14.3614 0.0444128 0)
(9.76326 0.0352143 4.67023e-20)
(11.3825 -0.0449228 2.77746e-20)
(12.1691 -0.00308948 -1.38505e-20)
(12.6824 -0.0235091 3.82243e-22)
(13.0789 -0.0171756 -1.17062e-20)
(13.4047 -0.0195534 1.12792e-20)
(13.6725 -0.0180574 -1.16023e-20)
(13.8885 -0.0171023 -3.16883e-20)
(14.0587 -0.0157652 -1.00992e-20)
(14.1898 -0.0144804 9.51262e-21)
(14.2882 -0.013092 -9.78212e-21)
(14.3607 -0.0128911 0)
(9.74888 -0.0100952 4.64538e-20)
(11.376 -0.0972548 -8.37584e-20)
(12.1672 -0.0579124 1.31309e-20)
(12.6813 -0.0794826 -2.42776e-20)
(13.0772 -0.0744346 3.55512e-20)
(13.4021 -0.0773373 3.40613e-20)
(13.6692 -0.0763753 1.09188e-20)
(13.8851 -0.0756798 1.06003e-20)
(14.0554 -0.0744466 1.03114e-20)
(14.1867 -0.0732151 3.01301e-20)
(14.2854 -0.0718872 -9.79007e-21)
(14.3575 -0.0707943 5.72816e-20)
(9.7331 -0.0553362 -6.1793e-20)
(11.3676 -0.149567 -8.28393e-20)
(12.1636 -0.11272 1.30183e-19)
(12.6785 -0.135497 -2.44986e-20)
(13.074 -0.13169 -1.16694e-19)
(13.398 -0.135145 1.8054e-19)
(13.6646 -0.134703 -4.41209e-20)
(13.8803 -0.134277 0)
(14.0508 -0.133166 4.12739e-20)
(14.1826 -0.131978 -2.00921e-20)
(14.282 -0.130923 1.95767e-20)
(14.3552 -0.128455 -1.91327e-20)
(9.71554 -0.100417 -1.25501e-19)
(11.3575 -0.201751 -5.53097e-22)
(12.1582 -0.167498 0)
(12.6741 -0.191522 -9.7628e-20)
(13.0692 -0.188888 9.41375e-20)
(13.3924 -0.192908 0)
(13.6585 -0.192973 -2.72715e-24)
(13.8741 -0.192773 0)
(14.0449 -0.191684 -4.12762e-20)
(14.1772 -0.190231 0)
(14.2773 -0.188824 0)
(14.3518 -0.186009 -7.50507e-20)
(9.69647 -0.145066 6.24926e-20)
(11.3455 -0.253575 5.52288e-20)
(12.151 -0.222185 -4.15617e-19)
(12.6681 -0.247507 3.923e-19)
(13.0628 -0.246028 -1.88258e-19)
(13.3854 -0.250621 0)
(13.651 -0.251168 -4.37003e-20)
(13.8665 -0.251197 0)
(14.0376 -0.25017 0)
(14.1703 -0.248603 0)
(14.2709 -0.247057 0)
(14.3457 -0.244402 -1.50768e-19)
(9.67605 -0.189465 1.24973e-19)
(11.3318 -0.305251 2.2349e-19)
(12.142 -0.276819 0)
(12.6603 -0.303431 2.93302e-19)
(13.0549 -0.303079 -9.45433e-20)
(13.3768 -0.308268 0)
(13.6421 -0.309298 -8.65293e-20)
(13.8575 -0.309577 8.6502e-20)
(14.0288 -0.30864 1.65891e-19)
(14.1619 -0.306972 2.40266e-19)
(14.2631 -0.305043 -1.57455e-19)
(14.3384 -0.302827 7.5402e-20)
(9.65432 -0.233587 -5.00164e-19)
(11.3162 -0.35671 -1.1179e-19)
(12.1313 -0.331357 1.03934e-19)
(12.651 -0.359273 -8.29546e-23)
(13.0455 -0.360022 -9.36959e-20)
(13.3668 -0.365826 9.0149e-20)
(13.6317 -0.367346 8.64129e-20)
(13.8471 -0.36789 -2.55208e-19)
(14.0188 -0.367079 0)
(14.1524 -0.365443 -2.40174e-19)
(14.2541 -0.363437 3.13078e-19)
(14.3297 -0.361252 -3.0605e-19)
(9.63084 -0.277747 2.50089e-19)
(11.2989 -0.408204 2.22799e-19)
(12.1188 -0.385755 -2.08636e-19)
(12.64 -0.415004 -9.80427e-20)
(13.0345 -0.416846 1.86335e-19)
(13.3553 -0.423265 -9.1882e-20)
(13.6199 -0.42526 -8.81431e-20)
(13.8354 -0.42606 8.4659e-20)
(14.0074 -0.425352 0)
(14.1416 -0.423636 0)
(14.2439 -0.421244 0)
(14.3202 -0.418851 7.76244e-22)
(9.60585 -0.321282 -2.50026e-19)
(11.2796 -0.459132 0)
(12.1045 -0.439965 -1.43172e-22)
(12.6273 -0.470594 0)
(13.0219 -0.473515 9.34554e-20)
(13.3424 -0.480539 -3.58458e-19)
(13.6067 -0.483005 2.63106e-19)
(13.8223 -0.484063 -8.4683e-20)
(13.9947 -0.483472 0)
(14.1296 -0.481843 -3.1914e-19)
(14.2328 -0.479792 3.14246e-19)
(14.3098 -0.477543 -7.67017e-20)
(9.57951 -0.364849 -3.74844e-19)
(11.2586 -0.510061 2.23022e-19)
(12.0884 -0.493969 -3.11376e-19)
(12.613 -0.525996 1.95524e-19)
(13.0078 -0.530001 -2.80171e-19)
(13.3279 -0.537646 0)
(13.5921 -0.540549 0)
(13.8078 -0.541817 3.36409e-19)
(13.9806 -0.541211 -4.94987e-19)
(14.1161 -0.539195 -1.58724e-19)
(14.2203 -0.536225 1.57926e-19)
(14.2997 -0.534594 0)
(9.55139 -0.408014 0)
(11.2358 -0.560596 -1.3048e-21)
(12.0707 -0.547736 -2.08542e-19)
(12.5971 -0.581209 -1.65781e-21)
(12.9922 -0.586278 -1.88092e-19)
(13.312 -0.594541 5.36993e-19)
(13.5759 -0.597897 -3.49394e-19)
(13.7918 -0.599404 1.67279e-19)
(13.965 -0.59889 -1.65777e-19)
(14.101 -0.596865 1.58181e-19)
(14.2057 -0.593634 -1.57382e-19)
(14.2855 -0.590148 2.99417e-19)
(9.52209 -0.450807 7.48452e-19)
(11.2115 -0.610761 2.23014e-19)
(12.0511 -0.601245 0)
(12.5795 -0.636208 3.90499e-19)
(12.975 -0.642362 3.71002e-19)
(13.2946 -0.651261 -1.8295e-19)
(13.5584 -0.655086 -3.48833e-19)
(13.7744 -0.656866 3.66573e-22)
(13.948 -0.656486 0)
(14.0846 -0.654538 0)
(14.19 -0.651228 0)
(14.2699 -0.647012 0)
(9.49148 -0.493372 -7.4828e-19)
(11.1852 -0.660743 -2.22241e-19)
(12.0298 -0.654588 0)
(12.5603 -0.691008 -1.95218e-19)
(12.9562 -0.698244 -1.85819e-19)
(13.2757 -0.707789 -1.77545e-19)
(13.5394 -0.712089 3.39044e-21)
(13.7556 -0.714162 8.41197e-19)
(13.9297 -0.713936 -3.29015e-19)
(14.0671 -0.712075 0)
(14.1733 -0.709052 3.09002e-19)
(14.2538 -0.705056 -3.04356e-19)
(9.4591 -0.535724 -2.49411e-19)
(11.1572 -0.71048 1.30749e-21)
(12.0067 -0.707646 2.08188e-19)
(12.5394 -0.745575 0)
(12.936 -0.753877 1.70579e-21)
(13.2554 -0.764065 3.58571e-19)
(13.5191 -0.768838 -3.44086e-19)
(13.7355 -0.771188 5.05007e-19)
(13.9101 -0.771069 0)
(14.0483 -0.769103 0)
(14.1554 -0.7657 0)
(14.2371 -0.761909 4.47319e-19)
(9.42514 -0.577599 -9.94692e-19)
(11.1274 -0.75971 -6.64505e-19)
(11.982 -0.76033 6.20438e-19)
(12.5168 -0.799833 0)
(12.9141 -0.809228 -3.70695e-19)
(13.2336 -0.820065 -1.78543e-19)
(13.4973 -0.8253 0)
(13.714 -0.827934 3.3277e-19)
(13.8893 -0.827966 -3.27569e-19)
(14.0282 -0.826084 0)
(14.1362 -0.822833 0)
(14.2185 -0.81841 -1.50998e-19)
(9.38979 -0.619151 9.90742e-19)
(11.0959 -0.808589 -2.23882e-19)
(11.9553 -0.812678 -2.044e-19)
(12.4927 -0.853767 1.95999e-19)
(12.8908 -0.864257 1.85242e-19)
(13.2103 -0.875742 -5.31592e-19)
(13.4742 -0.881442 3.45829e-19)
(13.6912 -0.884348 -3.34056e-19)
(13.867 -0.884495 -3.23389e-19)
(14.0068 -0.882516 3.18281e-19)
(14.1158 -0.878977 0)
(14.1995 -0.874463 -1.48597e-19)
(9.35294 -0.660205 4.92426e-19)
(11.0627 -0.856958 -6.65414e-19)
(11.927 -0.86465 -2.058e-19)
(12.4669 -0.907362 1.1576e-18)
(12.8658 -0.918955 -7.41203e-19)
(13.1856 -0.931089 1.77712e-19)
(13.4495 -0.937249 6.83056e-19)
(13.667 -0.940432 -5.02768e-19)
(13.8434 -0.940702 1.61796e-19)
(13.984 -0.938741 0)
(14.094 -0.935255 0)
(14.1786 -0.930934 1.49795e-19)
(9.31509 -0.700845 -9.21936e-22)
(11.0277 -0.90486 0)
(11.897 -0.916282 6.11622e-19)
(12.4393 -0.960618 -9.69009e-19)
(12.8394 -0.973293 -7.32681e-19)
(13.1594 -0.986097 7.10972e-19)
(13.4235 -0.992702 5.10271e-19)
(13.6413 -0.996134 -8.33545e-19)
(13.8184 -0.996532 -1.6188e-19)
(13.9599 -0.994451 -7.83356e-19)
(14.0708 -0.990476 4.63731e-19)
(14.1569 -0.986734 0)
(9.27518 -0.741387 -2.4725e-19)
(10.9909 -0.952694 0)
(11.8651 -0.967571 1.01903e-18)
(12.4102 -1.01351 -1.54009e-18)
(12.8113 -1.02729 3.70917e-19)
(13.1317 -1.04073 -3.52041e-19)
(13.3961 -1.0478 1.70906e-19)
(13.6143 -1.05151 4.94335e-19)
(13.792 -1.05207 -6.47528e-19)
(13.9343 -1.05012 1.57179e-19)
(14.0463 -1.04619 4.56273e-19)
(14.133 -1.04325 -5.97607e-19)
(9.23356 -0.781047 4.91151e-19)
(10.9522 -0.999633 4.37772e-19)
(11.8314 -1.0183 8.1204e-19)
(12.3793 -1.06594 -1.53602e-18)
(12.7817 -1.08087 1.10161e-18)
(13.1025 -1.09498 -3.47514e-19)
(13.3671 -1.10251 3.44022e-19)
(13.5858 -1.1065 3.30648e-19)
(13.7643 -1.10717 0)
(13.9075 -1.10515 0)
(14.0206 -1.10064 -3.00991e-19)
(14.1087 -1.09786 6.3109e-21)
(9.19102 -0.820292 -2.26681e-21)
(10.912 -1.04606 -2.00808e-21)
(11.796 -1.06857 0)
(12.3468 -1.11797 -3.80304e-19)
(12.7505 -1.13404 1.09617e-18)
(13.0718 -1.14881 -3.4959e-19)
(13.3368 -1.15681 -6.72554e-19)
(13.5559 -1.1611 3.32821e-19)
(13.7352 -1.1619 3.17219e-19)
(13.8793 -1.16 -9.36952e-19)
(13.9934 -1.15544 0)
(14.082 -1.1535 -2.95299e-19)
(9.147 -0.859116 -2.38797e-21)
(10.8698 -1.09203 4.32287e-19)
(11.7588 -1.11844 -4.08699e-19)
(12.3125 -1.16953 -1.14203e-18)
(12.7177 -1.18679 -3.57686e-19)
(13.0396 -1.20225 1.39951e-18)
(13.305 -1.21069 1.64943e-21)
(13.5246 -1.21526 1.59987e-21)
(13.7046 -1.21618 3.1927e-19)
(13.8497 -1.21424 3.11025e-19)
(13.9649 -1.20912 0)
(14.0554 -1.20593 8.74281e-19)
(9.10151 -0.89758 -4.89085e-19)
(10.8263 -1.1376 -4.33363e-19)
(11.7198 -1.16777 -4.04904e-19)
(12.2766 -1.22064 -3.77834e-19)
(12.6833 -1.23907 7.27154e-19)
(13.0058 -1.25525 -1.04073e-18)
(13.2717 -1.26416 3.43457e-19)
(13.4919 -1.26903 6.5708e-19)
(13.6727 -1.27012 0)
(13.8187 -1.26837 3.06519e-19)
(13.9349 -1.26352 -1.20381e-18)
(14.0255 -1.26053 5.91446e-19)
(9.05417 -0.935468 4.83471e-19)
(10.7805 -1.18263 -4.35835e-19)
(11.6791 -1.21669 -1.2022e-18)
(12.2391 -1.27129 3.46468e-21)
(12.6474 -1.29089 0)
(12.9707 -1.30775 -3.4535e-19)
(13.237 -1.31716 -3.33719e-19)
(13.4579 -1.32236 3.25541e-19)
(13.6395 -1.32364 0)
(13.7866 -1.32199 3.08384e-19)
(13.904 -1.3173 5.96384e-19)
(13.9962 -1.3139 -6.40266e-21)
(9.00509 -0.972549 4.85985e-19)
(10.7331 -1.22673 0)
(11.6363 -1.26484 8.00486e-19)
(12.1997 -1.32131 -3.79611e-19)
(12.6097 -1.34216 -3.58113e-19)
(12.9339 -1.35973 1.03221e-18)
(13.2009 -1.36963 -9.98439e-19)
(13.4224 -1.37514 9.71827e-19)
(13.6049 -1.37659 0)
(13.7531 -1.3749 -3.03831e-19)
(13.8718 -1.36997 8.97001e-19)
(13.9654 -1.36628 2.88687e-19)
(8.95516 -1.00905 -9.65075e-19)
(10.6841 -1.2702 4.28205e-19)
(11.592 -1.31242 -3.56677e-21)
(12.1586 -1.37082 -7.54258e-19)
(12.5706 -1.39291 7.14879e-19)
(12.8957 -1.41118 0)
(13.1633 -1.42159 -3.30463e-19)
(13.3856 -1.42742 -3.22473e-19)
(13.569 -1.42906 0)
(13.7182 -1.42751 3.00431e-19)
(13.8381 -1.42282 -8.94045e-19)
(13.9331 -1.41929 -2.90033e-19)
(8.90396 -1.04516 0)
(10.6332 -1.31323 2.70788e-21)
(11.5458 -1.35951 1.1899e-18)
(12.1159 -1.41976 -6.60207e-21)
(12.5298 -1.44312 -1.7801e-18)
(12.8559 -1.4621 1.36591e-18)
(13.1243 -1.47298 -1.31731e-18)
(13.3473 -1.47912 6.42978e-19)
(13.5317 -1.48092 0)
(13.682 -1.47931 0)
(13.8033 -1.47423 -2.93202e-19)
(13.9004 -1.4705 5.72131e-19)
(8.85082 -1.08067 0)
(10.5805 -1.35558 2.8474e-21)
(11.4978 -1.40598 -1.18145e-18)
(12.0714 -1.46811 7.4764e-19)
(12.4873 -1.49271 0)
(12.8146 -1.51246 6.76327e-19)
(13.0838 -1.52383 -3.30167e-19)
(13.3076 -1.53027 0)
(13.4929 -1.5323 -6.15586e-19)
(13.6444 -1.5309 6.05616e-19)
(13.7669 -1.52619 -2.9452e-19)
(13.8649 -1.52284 0)
(8.79602 -1.11558 9.53005e-19)
(10.5262 -1.39734 4.25185e-19)
(11.448 -1.45172 7.8703e-19)
(12.0251 -1.51581 0)
(12.4432 -1.54169 7.01223e-19)
(12.7717 -1.56219 -3.43192e-19)
(13.0418 -1.57407 -6.55755e-19)
(13.2665 -1.58084 0)
(13.4528 -1.58304 3.06464e-19)
(13.6056 -1.5816 0)
(13.7296 -1.57656 0)
(13.8297 -1.5727 0)
(8.73955 -1.14964 4.71889e-19)
(10.4697 -1.43825 -8.47204e-19)
(11.3962 -1.49679 -3.92948e-19)
(11.977 -1.56285 0)
(12.3974 -1.59003 6.97507e-19)
(12.7272 -1.6113 -3.38017e-19)
(12.9982 -1.62367 -6.45505e-19)
(13.2239 -1.63077 9.45409e-19)
(13.4113 -1.63317 -9.15064e-19)
(13.5653 -1.6319 8.95018e-19)
(13.6907 -1.62721 -8.66165e-19)
(13.7918 -1.62387 6.32965e-21)
(8.68175 -1.18288 1.88316e-18)
(10.4116 -1.47816 -4.24765e-19)
(11.3425 -1.54105 0)
(11.9271 -1.60914 1.09422e-18)
(12.3499 -1.63771 -6.28022e-21)
(12.6812 -1.65974 -6.71388e-19)
(12.9532 -1.67262 -3.2112e-19)
(13.1798 -1.68006 -2.39114e-21)
(13.3683 -1.68257 6.0446e-19)
(13.5236 -1.68122 -5.96875e-19)
(13.6505 -1.67604 1.14963e-18)
(13.7541 -1.67253 -1.1142e-18)
(8.62265 -1.21556 -9.38473e-19)
(10.3518 -1.51738 -4.1875e-19)
(11.287 -1.58458 -3.85564e-19)
(11.8755 -1.65472 -2.90518e-21)
(12.3008 -1.68468 -3.44978e-19)
(12.6336 -1.70749 -6.61012e-19)
(12.9067 -1.72092 6.463e-19)
(13.1343 -1.72872 -2.48117e-21)
(13.3238 -1.73145 0)
(13.4803 -1.73026 -8.79517e-19)
(13.6084 -1.72504 5.73231e-19)
(13.7129 -1.7208 0)
(8.562 -1.24757 4.72704e-19)
(10.2901 -1.5559 8.32984e-19)
(11.2296 -1.62736 1.15274e-18)
(11.8221 -1.69956 -1.09086e-18)
(12.2499 -1.73093 -3.39648e-19)
(12.5843 -1.75458 9.91307e-19)
(12.8586 -1.76858 3.19485e-19)
(13.0873 -1.77676 -3.09629e-19)
(13.278 -1.7798 -1.19266e-18)
(13.4358 -1.77896 1.17285e-18)
(13.5654 -1.7743 -2.8533e-19)
(13.6707 -1.77008 -1.10783e-18)
(8.49958 -1.27882 -9.23892e-19)
(10.2265 -1.59362 1.64961e-18)
(11.1704 -1.66937 -3.86457e-19)
(11.7668 -1.74363 3.58043e-19)
(12.1974 -1.77645 3.40428e-19)
(12.5335 -1.80091 -2.83713e-21)
(12.8091 -1.8155 9.43359e-19)
(13.039 -1.82403 -1.23087e-18)
(13.231 -1.82733 0)
(13.3903 -1.82661 2.88357e-19)
(13.5217 -1.8222 0)
(13.6293 -1.81832 2.74553e-19)
(8.43551 -1.30923 -1.83646e-18)
(10.161 -1.6304 1.64509e-18)
(11.1092 -1.7105 -3.81626e-19)
(11.7097 -1.78688 -3.58845e-19)