/*--------------------------------*- C++ -*----------------------------------*\
| =========                 |                                                 |
| \\      /  F ield         | OpenFOAM: The Open Source CFD Toolbox           |
|  \\    /   O peration     | Version:  2.3.1                                 |
|   \\  /    A nd           | Web:      www.OpenFOAM.org                      |
|    \\/     M anipulation  |                                                 |
\*---------------------------------------------------------------------------*/
FoamFile
{
    version     2.0;
    format      ascii;
    class       volSymmTensorField;
    location    "3980";
    object      sigma;
}
// * * * * * * * * * * * * * * * * * * * * * * * * * * * * * * * * * * * * * //

dimensions      [1 -1 -2 0 0 0 0];

internalField   nonuniform List<symmTensor> 
11800
(
(149451 74935.8 7.19666e-14 -2765.18 3.81193e-14 36395.6)
(-74151.3 66198.1 1.10477e-13 -438.664 3.50329e-14 -18507.3)
(676962 95438.2 -1.83224e-15 1480.02 -7.98351e-14 168335)
(-587996 48812.8 0 -1704.89 0 -146317)
(-76826.3 63876.4 2.0612e-14 -5019.03 -5.82333e-14 -20307.5)
(-367856 98569.1 7.989e-14 2204.54 4.19027e-14 -90725.6)
(-68269.2 94879.4 1.5119e-13 -596.25 -3.93135e-14 -17086.9)
(-96251.6 98470.3 -2.25094e-14 870.976 9.05554e-14 -23665.9)
(208070 49850.3 2.99753e-14 462.089 -2.04673e-14 51741)
(142270 103499 -7.74595e-14 527.272 -6.52422e-14 35430.9)
(172550 61779.6 -6.0035e-14 1819.51 5.13877e-14 43264.5)
(-852731 35312.8 -7.1712e-14 -6388.6 -3.25347e-14 -213165)
(23874.8 -34685.4 1.29469e-16 -64363.4 1.00617e-16 -10046)
(627081 49265.4 6.50119e-14 3836.1 -1.77887e-14 156543)
(-501345 92335.3 -5.42573e-14 6279.18 4.21764e-14 -122836)
(2.31863e+06 -8623.61 0 -7891.18 0 573340)
(-44600.7 74283.9 5.11636e-14 4253.38 4.51135e-15 -10011)
(-68829.3 68348.2 -2.88639e-14 8431.1 1.65756e-13 -14986)
(144046 116391 -2.94078e-14 -18531.7 2.09009e-14 31142.6)
(108355 62206.6 -1.03087e-13 -12129.5 -3.33431e-14 23875.6)
(-461891 55441.1 3.2126e-14 -1784.49 3.36668e-14 -115047)
(-745916 86816.5 5.1388e-14 3785.43 -2.98779e-14 -184138)
(-975890 110763 -2.58841e-14 12280.2 1.66427e-14 -239091)
(-895491 63663 2.60358e-16 471.751 4.49672e-15 -222073)
(1.89216e+06 82582.4 3.25073e-15 -8564.08 3.74877e-14 467358)
(-1.1648e+06 110498 -2.54187e-14 8595.19 -7.23009e-16 -286879)
(-1.23397e+06 58191.6 0 10975.7 0 -303451)
(609382 43717.9 -8.52535e-14 -5418.43 -5.14839e-14 149856)
(-1.34385e+06 59388 -1.46848e-14 12064.4 -7.05997e-14 -330444)
(-1.45396e+06 59949.4 1.9569e-14 14250.2 -3.04216e-14 -357221)
(399764 46111.9 -1.05664e-13 -2036.84 -1.89361e-13 98684.3)
(79940.4 59468.2 -1.69429e-14 2727.51 -1.39988e-14 20511.6)
(1.18865e+06 106577 -4.15396e-15 13650.2 -1.81572e-14 298316)
(-29272.3 78809.5 1.38189e-14 -1984.38 -1.03466e-13 -7755.41)
(20486.1 83405.7 -3.65475e-14 2223.37 -1.56867e-13 5634.68)
(-390228 34581.9 -9.59429e-14 -1145.44 -6.96965e-14 -97107.7)
(22548.5 84551.3 1.29803e-13 1643.3 -1.5436e-13 6002.49)
(1.27419e+06 61138 -1.52588e-14 6824.93 -6.52212e-14 317845)
(-46307.8 81926.8 0 -1529.03 0 -11869.3)
(103537 76995.5 -4.47252e-14 6022.02 8.33096e-14 27183.8)
(-1.29658e+06 43159.6 -7.93946e-14 -6565.6 -3.68974e-14 -323336)
(-1.41198e+06 42619.7 5.68707e-14 -6985.24 -3.26303e-14 -352075)
(640531 58661 -3.28835e-14 -740.982 -1.09443e-13 158745)
(-1.52753e+06 42891 -1.08176e-14 -5074.78 -5.77042e-14 -380272)
(420239 57889.3 2.80851e-13 1085.21 -8.76025e-14 104539)
(2.16841e+06 52483.7 0 -7634.07 0 536131)
(935642 121376 -1.63599e-14 -3527.77 8.5647e-15 231277)
(1.11439e+06 43318.4 -2.8882e-14 -12167.6 -2.00556e-14 273483)
(-108332 84870.6 -1.11339e-13 553.104 -6.85916e-14 -26742)
(249217 81494.2 0 2368.71 0 62423.4)
(-885237 48837.4 -5.39113e-15 2554.92 5.71065e-14 -219011)
(-619977 45666.8 1.86665e-13 3214.84 2.18706e-14 -153031)
(-12697.2 82636.4 1.04689e-13 1065.89 6.51777e-14 -2885.97)
(46058.6 132954 -2.27209e-15 8536.62 1.97992e-14 13546.2)
(-2.49233e+06 4896.67 -3.48086e-15 -12924.3 -5.45512e-15 -621605)
(1.94923e+06 -88559 4.67766e-15 -89214.5 8.25024e-15 461509)
(-66512.2 20727.5 9.01212e-14 1891.39 3.34663e-14 -16033.7)
(-556044 97062.5 6.72206e-15 -6172.85 -5.5773e-14 -139497)
(446236 61083.9 -5.68423e-14 9324.12 8.32476e-14 113034)
(-393378 102246 4.65779e-14 -7444.24 -8.40899e-15 -99452.1)
(2.01695e+06 20831.1 -4.09499e-14 -15366.8 -1.41901e-14 496635)
(-54138.9 86911.4 4.43103e-14 892.103 -7.21037e-14 -13211.6)
(-438059 79307.7 -2.55608e-14 -2763.73 4.3937e-14 -109377)
(350588 79530.5 7.7594e-14 3432.57 -4.42585e-14 87839.6)
(1.86802e+06 11659.6 4.47312e-15 -1084.85 -2.70336e-14 463225)
(-272215 33663.2 -1.26772e-13 2086.63 -1.5319e-13 -67024.4)
(-912949 20911.3 8.91478e-14 4816.22 2.97204e-14 -225326)
(-646265 24074.8 2.59821e-15 3947.74 -1.56544e-13 -159372)
(-68941.5 22249.3 0 -3558.82 0 -17988.8)
(-1.08594e+06 60563.4 -2.02407e-15 11451.5 6.64901e-14 -266601)
(-23104.8 84031.4 -2.53969e-14 62.9406 5.2427e-14 -5717.15)
(-54119 65647.5 -9.78385e-14 -3249.31 1.09443e-13 -14234.3)
(-47479.6 64238.7 6.86187e-14 -1524.8 -4.19937e-14 -12159)
(-1.63984e+06 353917 -5.86188e-15 201698 5.28709e-15 -356832)
(2.00017e+06 71321.3 -1.59101e-15 -6881.53 -1.6274e-14 494576)
(-366664 52842.6 -9.42622e-14 3322.44 -6.85538e-14 -90152.3)
(1.95791e+06 12565.1 -3.44221e-14 4064.23 3.06313e-14 486807)
(-264396 20415.3 8.334e-14 -226.04 -2.73417e-13 -65658.2)
(-195980 43553.9 1.56738e-14 -71.3345 -1.49551e-14 -48644.2)
(-185114 57534.4 1.60027e-13 2291.92 1.6045e-13 -45361.8)
(-2.51124e+06 -48830.9 1.26555e-14 11092.9 5.9377e-14 -620338)
(110159 56172.7 0 9124.96 0 29596.7)
(58555.7 68003.4 -1.66361e-13 1900.95 -6.55399e-14 15000.5)
(40614.1 72581.9 5.76785e-14 1127.37 -4.54394e-16 10356.9)
(-86577.5 64693.3 3.94305e-14 -8978.95 1.1157e-13 -23709.5)
(-1.41698e+06 73040.1 -2.19664e-14 -7442.23 1.10713e-13 -353429)
(433792 52635.3 1.34236e-13 4519.88 -4.17458e-14 108754)
(-1.30645e+06 71374 0 -7494.96 0 -326017)
(-1.19761e+06 69953.3 -4.61729e-14 -6645.68 -4.72746e-14 -298801)
(644072 49768.5 6.14881e-14 5652.16 3.75848e-15 161210)
(-13561.8 82156.7 -2.16899e-13 -3005.11 -1.39089e-13 -4110.59)
(1.40626e+06 98273.4 0 -4616.4 0 347776)
(-115948 71892.8 -4.60176e-14 1879.14 -7.62855e-14 -28302.8)
(72501.3 16040.3 -2.65284e-14 4899.82 -3.84952e-14 19204.8)
(176480 73031.1 2.03466e-13 1584.63 3.6422e-15 44181.3)
(55236.7 -41656.1 -8.24033e-16 -117337 -6.1088e-16 -15408.4)
(-2928.65 11460.9 2.14621e-17 6883.57 -1.27673e-16 981.298)
(-55784.6 -41414.1 -5.21731e-16 117088 3.47623e-16 15210.6)
(-13596.7 83518.7 -6.74336e-14 205.628 -9.80571e-16 -3322.59)
(-743110 54131.9 -1.65306e-14 -2862.79 6.59018e-14 -185091)
(51747.8 38547.1 3.70599e-14 -82.1179 -1.03649e-13 12819.3)
(810160 61259.7 -8.0073e-14 -7407.71 -1.10742e-13 199179)
(-1.3338e+06 111649 5.35188e-15 -705.411 1.08933e-14 -331118)
(-437125 74936.1 -3.30681e-15 6869.14 1.04335e-14 -106755)
(-1870.19 89060.3 -1.04054e-14 -851.574 -5.1764e-14 -675.326)
(347709 101322 -2.14292e-14 2441.3 -3.70359e-14 86879.3)
(-166174 74113.6 -6.3678e-14 -810.649 1.40369e-13 -41432.4)
(-116362 77454.6 -2.15811e-13 -735.585 -1.04061e-13 -29054.2)
(1.98813e+06 20213.2 1.20874e-14 5361.89 2.51575e-14 494625)
(1.31771e+06 60591.4 1.97312e-14 4758.66 4.01297e-15 328131)
(1.42963e+06 61936.8 3.78043e-14 5514.11 5.26021e-14 356088)
(1.2083e+06 59844.4 1.3846e-13 4283 8.20282e-14 300866)
(-438992 54278.2 6.28953e-14 -3946.71 9.82091e-14 -109902)
(-651454 53291.3 -1.66329e-13 -4624.8 5.97896e-14 -162786)
(236035 66624.3 7.08778e-14 -97.1512 -3.71469e-14 58541)
(1.79006e+06 35189 1.81962e-14 71.7771 1.07232e-14 444168)
(252380 31444.1 -5.18298e-14 -3027.31 -2.03756e-13 61869.6)
(-79965.1 77533.6 -1.79749e-13 868.869 1.6804e-13 -19625.4)
(1.67652e+06 76638.9 -2.08433e-14 1223.56 2.59618e-14 416283)
(-144123 107300 -5.81608e-14 -227.298 -1.56505e-14 -35816.2)
(-223661 43642.8 -3.9873e-14 3906.36 -1.67814e-14 -54525.5)
(70100.4 94908.5 1.28642e-13 -2611.58 -1.84132e-13 16745.4)
(100076 101175 -8.96173e-14 -2003.05 6.16295e-14 24333.8)
(-71506.6 77886.8 -2.60875e-14 3927.26 -3.84811e-14 -16767.8)
(-122226 68040.3 -1.63674e-13 -1185.46 -1.27699e-13 -30620.9)
(-2942.21 82167.2 -1.57314e-13 -2497.39 -1.1835e-13 -1349.68)
(-37629.2 81482.8 -9.43103e-14 -838.6 1.03596e-13 -9544.64)
(-8424 83498.5 -6.16539e-14 -2216.95 -5.87477e-14 -2640.23)
(9420.84 56727.6 2.9299e-15 39978.9 1.31236e-13 12257.1)
(-38039.1 5982.92 -4.29559e-16 -8784.12 6.23651e-14 -11617.8)
(-2.10408e+06 -339721 1.89001e-14 86242.4 -9.5349e-15 -500667)
(-1.52047e+06 74255.8 1.36506e-14 -11506.4 -2.08144e-15 -380114)
(473726 48134.4 7.10216e-14 3709.46 -6.92574e-14 118461)
(-1.4133e+06 76012.3 -5.46516e-14 582.391 3.43084e-14 -350525)
(687464 44126.3 -3.19743e-14 4187.43 9.68575e-14 171613)
(-1.30018e+06 73311.1 2.08552e-14 721.631 2.09527e-14 -322423)
(-1.19005e+06 71293.8 -1.20361e-13 1319.37 9.19471e-14 -294949)
(394318 67902.2 6.95679e-14 -4843.39 1.93824e-13 96636.6)
(-1.20858e+06 29517.1 7.46663e-14 7884.27 -1.02596e-13 -297918)
(576097 71196.7 8.62875e-14 -5990.86 -6.8696e-14 141455)
(-1.11256e+06 30691.2 6.18747e-14 7003.63 -1.06494e-13 -274312)
(-1.01884e+06 32522.1 -6.41531e-14 6952.01 -5.77509e-14 -251071)
(-568240 92368.8 4.79226e-15 17892.5 4.81334e-14 -136552)
(174225 78037.2 -3.47345e-14 -5890.69 -2.31271e-13 41767.3)
(249201 75724.4 -5.5497e-14 -7816.29 -1.60302e-13 59892.5)
(-363841 73985.6 -1.66904e-14 11447.1 9.61101e-14 -87436)
(1.47013e+06 46796.1 -1.05749e-13 1915.77 -3.56732e-14 365245)
(-1.51621e+06 -20237.5 1.01668e-13 -11994.9 3.14233e-14 -379179)
(853101 44731.3 7.15631e-14 -2537.99 -6.66484e-14 211042)
(-433449 44409.9 1.59138e-15 7866.29 9.44496e-15 -105596)
(-198854 74371.9 -9.00646e-14 2187.38 -7.44083e-14 -48796.9)
(-208393 61567.2 7.70767e-14 -2740.03 -6.97207e-14 -52386.5)
(22080.2 82864.2 5.85924e-14 1470.85 1.07002e-13 5843.49)
(-296019 53795.7 -1.31766e-13 -825.093 1.36622e-13 -73653)
(254782 64895.1 -6.90643e-14 -4600.13 -7.29615e-14 62075.2)
(172808 73831.1 -6.33068e-14 2680.84 4.87882e-14 43542.4)
(-551245 60719.7 1.07143e-13 7772.05 -7.2112e-14 -134847)
(-771989 67232 3.89195e-14 3287.5 8.51656e-14 -190730)
(1.56272e+06 20012.3 2.39738e-14 1799.95 -3.17408e-16 388190)
(-7192.97 87102.2 3.07584e-14 -645.171 -1.49583e-13 -1944.8)
(2.26265e+06 81871.4 -2.78994e-14 -13841.8 -1.51987e-14 557976)
(-243682 66772.6 -1.13815e-13 1046.47 7.84132e-14 -60202.9)
(1.97079e+06 52485.9 0 -19865.9 0 484064)
(-564458 67514.6 3.34237e-14 -5690.55 1.3954e-13 -141465)
(-616015 67538.7 -3.42688e-14 -6457.96 4.06402e-14 -154448)
(-667569 68635.2 -5.55155e-15 -6859.95 1.46895e-13 -167339)
(311104 74995.1 -8.43433e-14 1010.05 2.07409e-14 77441.8)
(211464 76719.2 -9.00071e-14 577.262 2.2218e-14 52611.9)
(-2.46107e+06 -20482.4 2.21165e-14 -9438.53 -1.26097e-14 -612983)
(-1.53381e+06 72558.6 -2.27918e-14 -8932.05 4.29509e-14 -382786)
(539744 51812.2 -8.98372e-14 5057.6 -5.25691e-14 135176)
(749904 48661.4 2.52248e-13 5967.07 -1.35557e-13 187547)
(83986.9 83275.8 4.93947e-14 -8172.91 -1.27689e-13 18811)
(-439878 37869.3 0 1682.5 0 -108725)
(-445581 20827.2 1.35103e-13 -2772.78 -6.86732e-14 -111246)
(2.16227e+06 57925.7 3.62579e-14 -15472.9 2.41797e-14 532663)
(2.2132e+06 -14219.1 3.00577e-14 13696.4 2.6551e-14 552537)
(1.1651e+06 24109.2 1.84832e-15 -1174.35 6.35812e-14 288793)
(1.06954e+06 26432.3 1.30183e-14 -859.357 1.54436e-13 265162)
(1.26297e+06 21808.2 3.28397e-14 -2252.89 -4.7468e-14 312811)
(-550156 73080.5 -8.14799e-14 4627.21 7.33025e-14 -135357)
(-365125 68916.4 -7.90648e-14 3516.89 8.67052e-14 -89722.3)
(239703 97472.5 0 1974.3 0 59965)
(163553 94379.8 -3.28545e-15 805.947 1.25689e-13 40780.7)
(522655 72827.5 -9.67846e-14 -194.475 7.91272e-14 129633)
(-220601 68836.2 -7.7401e-14 2789.09 1.83479e-13 -54043.5)
(-343737 103290 -1.53087e-14 4434.35 6.76558e-14 -84187.8)
(106552 75722.8 -2.88031e-13 -841.662 -7.64207e-14 26229)
(151796 72067.7 -1.99162e-13 -1108.24 8.33189e-14 37388.7)
(-93122.7 86767.9 -3.88392e-14 2212.64 -5.43163e-16 -22556.6)
(-261535 56684.8 -3.20749e-14 5607.46 -2.00226e-14 -63500.8)
(-240444 57970.5 2.1201e-14 4968.91 -3.61914e-14 -58426.2)
(-242723 42643.1 0 -450.712 0 -60336.4)
(-115964 106939 4.38619e-16 -5101.35 -4.19664e-14 -30038.8)
(-1.11936e+06 2880.76 9.43267e-14 -6931.21 -4.13025e-14 -279455)
(1.40492e+06 55919.5 -1.22512e-13 -6411.35 -1.23415e-14 346999)
(1.72366e+06 176789 7.26787e-15 -295832 3.67389e-15 354273)
(-41064.5 72905.5 2.57212e-14 -3574.27 -5.82932e-14 -11075.8)
(263457 25377.8 9.38616e-14 2315.65 -2.14269e-13 65943.6)
(-2.15881e+06 -269631 1.81607e-14 174906 -1.17314e-14 -492247)
(122605 58013.2 4.01666e-15 3806.4 1.08892e-13 31365.2)
(335977 40877.6 7.57724e-14 1033.32 -8.69782e-14 83619)
(371217 44815.6 1.05802e-13 -5416.21 -4.46358e-14 90762.6)
(-4725.67 86017.6 7.96968e-14 -99 -1.18181e-14 -1197.1)
(-5379.78 88968.2 8.40667e-14 -643.596 7.10806e-15 -1494.52)
(1.01717e+06 33234.4 2.68482e-14 -5015.67 8.92724e-14 251135)
(843237 93165.6 3.41169e-14 7650.15 -8.22606e-15 211122)
(-766807 77356.7 0 7534.03 0 -188391)
(-655472 41285 -8.68547e-14 -10119.1 -5.43221e-14 -165147)
(2.09867e+06 -343265 -7.62173e-15 -88342 -5.14292e-15 498804)
(-644357 119582 -6.94472e-15 17934.7 8.09142e-14 -155428)
(-1.03034e+06 39791.6 4.77438e-14 -2197.31 -2.81348e-14 -256192)
(-2.18802e+06 -881179 -2.05053e-14 458419 8.01365e-15 -429149)
(2.62309e+06 1892.79 0 35880.6 0 659745)
(-1.91617e+06 -816090 -6.67267e-15 215868 2.06261e-15 -421881)
(336297 118890 -4.54911e-14 -163.678 1.60335e-14 83401.4)
(-75353.5 69892.5 -8.12905e-15 -1085.94 1.13653e-13 -18966.2)
(-991138 87030 4.04073e-14 -8338.64 -4.44294e-14 -247990)
(-906832 87139 6.02291e-14 -7453.76 -7.51954e-15 -226853)
(-831657 85022.4 -6.87245e-14 -6703.06 2.66983e-15 -208014)
(295729 61099.7 6.02982e-14 3968.25 -1.68218e-13 74360.9)
(444074 58158.4 -1.51326e-13 4993.03 1.47098e-13 111423)
(43877.9 75081.1 -2.37939e-14 -7819.27 1.11657e-13 8946.87)
(62550.6 70514.5 5.63167e-14 -10617.7 7.21353e-14 12885.6)
(-142484 112913 -6.40586e-14 23640.1 1.73305e-14 -29487.5)
(-90892.4 65760 4.78766e-14 15602.6 -6.12272e-14 -18680.9)
(-1.19969e+06 -482893 -5.16876e-15 -30083.1 1.079e-15 -305131)
(224272 114003 -3.64025e-14 17034.5 -1.28962e-13 59873)
(-111396 67541.6 -1.25747e-13 -8885.03 -5.74763e-14 -29844.2)
(-523225 107075 0 20.7228 0 -129818)
(223849 62626 9.6507e-14 1145.67 -3.93852e-14 55825.8)
(-110290 92096 0 -632.622 0 -27522)
(-82497.7 73610.4 -6.12076e-14 -862.582 -9.69363e-14 -20683.4)
(781332 76445.4 8.56152e-14 4391.85 -8.95324e-14 194954)
(802772 47893.8 1.31078e-13 -18.1936 6.25971e-14 199180)
(2.18559e+06 -880333 -7.67209e-15 -458173 -2.53534e-15 428608)
(1.19805e+06 -482737 8.96292e-15 30031.4 2.45578e-15 304711)
(-243827 53539.6 1.86583e-14 1876.02 2.65485e-14 -60032.9)
(-260281 54498 -5.66844e-14 -2890.76 -1.15896e-13 -65298.3)
(-1.39151e+06 219.585 -6.23122e-14 -5344.8 -1.42751e-14 -346587)
(1.12853e+06 51946.4 1.41162e-13 -3890.29 -3.68731e-14 279046)
(365241 69742.2 4.68356e-15 -3011.38 2.56724e-13 89876.5)
(549512 74815.6 8.72202e-14 -3770.64 9.48185e-14 135409)
(-1.26418e+06 22101 -2.2926e-15 -714.34 5.40564e-14 -313847)
(-1.16875e+06 26086.5 -5.50018e-14 -922.412 1.81856e-14 -290219)
(-1.07251e+06 28487.4 -3.68126e-15 -965.79 8.54423e-14 -266352)
(-16379.9 88331.1 -1.32688e-13 -927.121 3.8373e-14 -4294.23)
(-1.37047e+06 24281 3.5709e-14 -2190.33 3.83962e-14 -340586)
(458870 70088.9 -8.93926e-14 -3073.82 4.3846e-14 113092)
(643791 73836.2 0 -3527.47 0 158862)
(607288 55367.9 3.40497e-14 -4537.18 8.12263e-14 149555)
(117084 73616.7 -1.12135e-13 838.395 -2.9639e-13 29258.8)
(10082.4 76018.9 -9.8263e-14 -8905.73 -3.61324e-14 291.962)
(497115 39992 -1.24409e-13 15339.3 2.22748e-14 127150)
(-422449 57544.1 -1.06684e-14 -1287.28 -8.63461e-14 -105138)
(66710.6 77619.4 1.44992e-15 -16088.5 1.80738e-14 12560.4)
(1.91332e+06 -815918 -6.94242e-15 -216287 -1.74447e-15 421069)
(300698 80908.6 8.8481e-15 -2699.98 -1.63942e-13 73939.5)
(362371 78728.2 7.63336e-14 96.9303 2.59581e-14 89935.7)
(-237835 77896.7 0 -468.418 0 -59128)
(-282490 87686.6 2.85026e-14 -7232.88 -7.93069e-14 -71886.1)
(834313 84741.5 0 7631.76 0 208904)
(909718 87014.7 5.0348e-14 8280.8 4.77578e-14 227774)
(985018 90736.7 -1.12652e-13 8654.94 -1.08881e-14 246551)
(-444307 55202 1.59733e-13 -5795.31 1.62236e-13 -111679)
(-299163 59898.3 8.39633e-15 -4173.89 -9.71115e-14 -75264.1)
(-16118.8 84312.2 9.45151e-14 -311.696 5.03118e-14 -4076.75)
(1.96978e+06 12416.1 -1.46004e-14 -30925.4 -2.66672e-14 481069)
(-12397.4 98464.9 -1.02098e-13 -6072.15 3.18057e-14 -4582.68)
(25606.6 48875.4 -9.73882e-14 11787.6 -6.0597e-14 9278.26)
(43981.8 80047.5 7.34404e-14 1289.08 -1.70406e-13 11232.6)
(472513 80190.1 7.81382e-14 384.374 8.2546e-14 117335)
(-185136 4555.51 -1.29987e-13 -3156.7 6.36878e-15 -46719.3)
(624533 89466.5 0 -3906.25 0 153990)
(2.07116e+06 -89032.1 3.36112e-16 -287920 1.3495e-16 442458)
(470480 21680.3 7.50435e-14 6924.77 1.70619e-13 118454)
(452148 34287.7 3.401e-14 -6647.07 1.85301e-14 110538)
(-679696 76442.8 1.11719e-14 6350.41 2.35878e-14 -167071)
(-483383 71680.8 -8.70923e-14 5266.16 2.78943e-14 -118630)
(-579213 47092.5 -1.78017e-13 -2717.92 -3.11347e-14 -144389)
(-415142 52008.8 8.98916e-15 -2992.46 -9.45018e-15 -103748)
(1.43728e+06 20020.5 -6.2081e-15 -3710.46 2.04376e-14 355697)
(1.19002e+06 96524.2 2.56045e-15 -707.185 -4.22663e-14 295092)
(343004 88256.5 1.57575e-14 -4146.66 9.31857e-15 84077.4)
(461367 73016.7 2.95828e-14 -233.055 5.03106e-14 114417)
(252828 87338.6 8.23176e-14 -4332.91 5.8641e-14 61656.6)
(339004 73373.3 7.38144e-14 -1625.87 -1.16812e-14 83710.4)
(-650237 51351.5 -1.35728e-14 6733.69 3.40402e-14 -159666)
(-855379 81348.4 -3.76411e-14 2621.36 6.76548e-15 -211586)
(-195491 128984 4.17687e-14 -631.309 2.98046e-14 -48661.9)
(1.40883e+06 57454.3 4.66406e-14 5638.26 3.34531e-14 350958)
(1.52767e+06 57168.3 -1.01026e-14 25012.5 5.0174e-15 385253)
(1.81166e+06 58494.7 8.20402e-15 -1736.34 5.16613e-15 449079)
(126384 82265.9 -1.6021e-13 -137.104 1.94504e-13 31324.4)
(-464309 22736.5 -9.92641e-14 -6313.29 -5.10292e-14 -116771)
(-449095 37176.9 -1.25958e-13 4207.28 8.42345e-14 -110386)
(2.11801e+06 -9082.23 0 13367.1 0 528838)
(2.1238e+06 65082.4 0 1318.92 0 527286)
(1.26898e+06 50655.3 1.9437e-14 -1828.95 9.25224e-14 314405)
(1.25832e+06 7713.16 6.20378e-14 5159.57 -1.7431e-13 313495)
(-1.30737e+06 10494.7 0 -9710.2 0 -326795)
(-1.27487e+06 51006.2 0 8740 0 -314153)
(36571.1 79856 -2.20771e-14 2480.83 6.32225e-14 9689.58)
(-89323.6 33977.1 2.3626e-13 -5180.68 -9.99828e-14 -23448.4)
(-344638 34707.1 -6.22969e-14 -3544.74 -2.29817e-14 -86391.2)
(2.7681e+06 3105.57 0 55912.3 0 700696)
(-48830.8 69978.4 -1.55802e-13 -1516.04 -3.88664e-15 -12492.1)
(-57903.5 72769.4 -2.24406e-14 -4847.56 -1.24785e-13 -15569.8)
(305020 95224.5 -8.03345e-14 -6948.92 -5.50455e-14 73957.4)
(-240697 93310.7 -1.67361e-13 -7211.47 7.00707e-14 -61511.2)
(291971 56599.9 4.85777e-14 -7977.74 -5.0233e-14 70464.5)
(-1.1169e+06 48102.8 3.44457e-14 -10271.2 -7.01123e-14 -279674)
(1.12567e+06 52779.2 -1.43067e-14 -11635.1 -8.57303e-14 276414)
(-1.89027e+06 79917.9 1.48342e-14 -11630.2 -6.33546e-14 -471899)
(-2.23524e+06 -203672 7.83117e-15 413521 -5.62489e-15 -452007)
(781605 103429 -1.24734e-14 -16362.7 1.54845e-14 189872)
(88949.1 103005 -8.30454e-15 -4910.51 4.67406e-14 20851.7)
(-1.05374e+06 84462.9 -4.15924e-14 -4588.23 -1.1653e-13 -262593)
(886482 27461.7 -5.41657e-14 11475.5 7.81123e-14 222801)
(-613630 51280.3 5.97281e-14 -10630.3 7.65905e-14 -154892)
(479267 83173.2 8.97672e-14 5911.44 1.57279e-15 120383)
(89552 90417.1 2.50539e-14 5288.32 1.17211e-15 23531.8)
(153478 69608.7 -1.05956e-13 -902.928 1.33039e-13 37856.9)
(-304401 59468.7 7.26068e-14 -19321.1 -7.70943e-14 -80322.1)
(-492781 120314 1.18545e-15 8302.51 9.70897e-14 -120209)
(-279477 60539.4 1.12e-14 -17873.2 -7.80111e-14 -73778.7)
(-452266 116350 7.08544e-14 7519.28 -2.58882e-14 -110351)
(112170 49046.7 -4.44197e-14 -3183.15 1.37959e-14 27041.8)
(-52986.7 99806.2 -1.17862e-15 2677.4 -8.7449e-14 -12482.7)
(-34618.9 97959.4 1.08511e-13 2605.33 8.70177e-14 -7943.21)
(-23216.1 87176 5.5857e-14 818.245 -1.21598e-13 -5557.36)
(1.50098e+06 40349.4 3.20203e-14 4385.64 4.96333e-15 373512)
(-15488.1 100021 -1.22682e-13 -7005.65 -5.45201e-14 -5581.15)
(-59366.7 72307.5 6.0646e-14 -4700.88 -2.03032e-13 -15896.5)
(2.08828e+06 -62339 -1.58753e-14 -107590 -1.15726e-14 491450)
(349117 58891.8 6.46275e-14 -5271.71 -8.28949e-14 85315)
(-807248 103213 4.31061e-14 14700.7 1.16342e-14 -196647)
(-928059 66088.7 -7.05311e-14 2035.55 -3.08579e-14 -229765)
(-921558 29445.6 0 -11270.4 0 -231454)
(1.15941e+06 16842.8 -6.349e-14 5615.5 -3.01865e-14 289066)
(1.1105e+06 74800.6 3.8761e-15 9431.19 7.56068e-14 277878)
(-35518.3 60037.8 -7.17364e-14 974.033 5.84634e-14 -8571.13)
(-27037 60485.5 5.20406e-14 1653.84 -2.90936e-13 -6298.08)
(-721835 110670 -2.84502e-14 8537.09 -6.96134e-16 -176984)
(-972306 78135.2 0 12398.4 0 -238172)
(686204 47920.1 1.55683e-14 7699.12 3.82622e-14 172172)
(-1.77342e+06 98423.6 6.80932e-15 -8496.68 -2.15068e-14 -442129)
(62801.6 69046 0 16055.1 0 19565.9)
(981509 41200.6 -3.37659e-15 -3219.6 2.34034e-14 242733)
(744367 107288 -1.82522e-15 5877.05 8.86398e-17 186151)
(-470396 88068.6 1.33354e-13 4552.92 -1.71466e-14 -115585)
(-365339 59480.1 -1.30298e-14 -3374.36 9.39472e-14 -91485.3)
(-335406 83917.4 2.06362e-14 3694.92 -7.84099e-14 -82304.2)
(-262842 63619.5 -1.16643e-15 -2934.08 4.60657e-15 -65944.4)
(-374021 39937.7 4.82488e-14 219.119 7.12455e-14 -92747.8)
(-315452 45490.2 -8.43983e-14 3033.09 1.69816e-14 -77517.5)
(-385296 106945 0 994.002 0 -95353.1)
(-432756 108174 -4.24608e-14 -1150.72 3.68805e-14 -107661)
(-470865 111533 -3.46502e-15 -1447.53 -3.94975e-15 -117190)
(128575 69285.7 -2.07737e-13 1341.67 -1.03839e-13 32234.9)
(-25662.4 82932.4 -4.61097e-14 -2363.29 9.17637e-14 -6953.75)
(928813 41269.5 -2.59602e-14 5603.59 7.39659e-14 231848)
(972437 56541.6 3.5953e-14 -6451.04 -6.98731e-14 239681)
(160784 73090.3 7.47481e-15 1270.25 -5.17781e-14 40209)
(235657 66566 0 2768.2 0 59158.2)
(-509038 106942 5.30938e-14 -2667.01 -5.83332e-14 -126964)
(451359 63712 -1.01496e-13 4464.94 -1.28649e-15 113099)
(492832 95408.5 -4.44294e-14 5056.89 -2.75122e-15 123536)
(-180803 79996.4 -8.53696e-14 -672.771 1.22326e-13 -45027.9)
(-154242 83697.8 4.98069e-14 -1809.43 2.92204e-15 -38719.5)
(-221580 87752.2 8.06926e-14 -1087.68 2.86971e-14 -55248.4)
(-246026 75175.4 0 -2968.36 0 -61780.4)
(-1.06789e+06 42653.7 2.36493e-14 -325.838 -3.60638e-14 -265046)
(495432 77208.2 -3.90901e-14 -1007.96 -1.54499e-13 122677)
(352347 74977.6 -1.79057e-14 -1175.05 -2.55908e-15 87132.9)
(-115115 206520 -1.08137e-14 22956.3 -7.71848e-15 -22866.5)
(1.28423e+06 33858.9 -8.1971e-14 -9303.44 -4.90956e-14 316335)
(-1.4993e+06 9254.98 7.09302e-14 2150.6 4.24389e-14 -371474)
(-171170 190982 0 -6573.46 0 -44101.8)
(-177304 77695.6 2.98432e-14 2161.54 9.00692e-14 -43456.4)
(-149747 82059.5 -2.24472e-13 3742.81 -5.69327e-14 -36226.6)
(-258594 76600.4 9.68004e-14 1677.57 1.08257e-15 -63746.2)
(-222715 84191.3 0 3122.41 0 -54485.4)
(505771 61444.5 4.92453e-14 -4515.26 -7.92554e-14 124372)
(580748 86858 1.79855e-14 -3498.23 7.6211e-15 143228)
(471839 65505.2 -3.66467e-14 -9294.89 3.50752e-14 114767)
(550285 89765.2 3.91361e-14 -6458.07 1.08077e-13 134935)
(432837 65633.2 3.07115e-14 -8329.28 5.15113e-14 105329)
(504665 88042.7 -6.67125e-14 -5880.64 3.81141e-14 123759)
(397529 38854.3 3.0454e-14 -123.292 1.14977e-13 98604.4)
(383564 22497.8 8.95474e-14 2280.02 1.91692e-13 95735.8)
(-758373 85548.9 -1.70437e-14 1070.93 2.23725e-14 -187902)
(358566 82271.4 -9.27348e-14 -4534.22 -2.25499e-15 87842.4)
(-851431 61213.8 0 7289.07 0 -209449)
(1.47258e+06 90819.8 4.9898e-14 -12584.4 -3.13827e-14 362254)
(-746198 37759 9.3432e-14 2831.68 -1.53466e-13 -184444)
(-543415 43712.2 1.12849e-13 868.524 -7.58258e-14 -134617)
(-1.65113e+06 -780585 -6.35189e-15 261799 1.41967e-15 -344722)
(49056.3 77694.9 1.26075e-13 159.002 -3.30992e-14 12211.3)
(1.56229e+06 49416.5 -1.66774e-14 -3525.45 -8.46846e-16 386760)
(-762135 58974.9 -2.61422e-14 2902.19 -7.57978e-14 -188381)
(-548054 57080.1 1.63487e-13 2528.42 8.04359e-14 -135356)
(2.32359e+06 -18345.7 2.70863e-14 -4961.03 1.20562e-14 575300)
(-104882 69106.3 -1.80817e-14 -1631.78 7.25193e-14 -26428.2)
(1.6083e+06 11975.8 4.14593e-14 4738.79 -2.57549e-14 400229)
(-378254 60251.5 5.65719e-14 1596.95 -9.97098e-14 -93456.2)
(-1.32643e+06 89614.8 3.36084e-14 13696.8 -4.37948e-15 -325715)
(-1.2467e+06 56270.6 -2.05294e-14 -7246.68 -1.55989e-15 -311131)
(1.20835e+06 57848.1 -3.88617e-14 2048.2 2.54e-14 300325)
(-154555 81011.3 -2.4676e-13 6110.93 -1.12293e-13 -36831.9)
(-3617.12 -41908.4 2.58495e-16 -65706.7 9.18938e-17 -17200.6)
(-18832.8 73823.2 0 3059.21 0 -3913.76)
(-2.19126e+06 -700455 1.04327e-14 275026 -2.87592e-15 -475457)
(1.64801e+06 -780378 1.23544e-14 -263864 3.88487e-15 343435)
(-1.06136e+06 93508 4.34781e-14 -8501.06 -4.21482e-14 -265454)
(369328 57842.2 1.88986e-14 3530.75 7.292e-14 92513.8)
(513269 53045.2 -6.07522e-14 4766.48 1.38283e-13 128535)
(147846 76357 1.21722e-13 -1269.58 3.62413e-14 36368.6)
(-276347 14917.5 7.05426e-14 71.4782 -1.0846e-13 -68549.6)
(249328 99877.2 -5.86001e-14 -1618.38 5.36155e-14 61461.9)
(-126346 60305.1 1.73117e-14 850.22 2.65376e-14 -31138)
(-114007 108838 1.23715e-14 4668.63 3.58625e-14 -27129.1)
(-1.7989e+06 854.894 -5.72877e-15 48086.4 1.35707e-14 -434412)
(14685.6 -24939.8 6.78404e-17 -43552.5 4.21084e-17 -7162.45)
(-627005 99305.4 -2.60604e-16 7845.41 4.90177e-15 -153626)
(493684 54567.7 4.39683e-14 -3255.06 1.36171e-13 121685)
(1.86518e+06 -361430 1.09763e-15 -48820.8 1.42015e-15 450675)
(-56068.1 59848.7 -1.12929e-14 -9795.24 -8.77733e-14 -16342)
(-62916.3 102268 8.95935e-15 -4594.73 8.56907e-14 -16750.9)
(-35752.8 89091.8 -1.53294e-15 70.7071 -1.31212e-13 -8853.46)
(-92131.9 75022.2 -2.42164e-14 3933.93 3.29877e-14 -21883.7)
(41902.1 87843 3.92653e-14 -1540.06 1.0145e-13 10014.6)
(27620.7 89942.6 -9.22965e-14 -220.35 -3.0126e-14 6798.59)
(-1.86914e+06 -359171 4.67176e-15 47145.7 -1.444e-15 -452074)
(660020 92324.2 -3.57518e-14 2513.05 1.9334e-14 164388)
(-231645 75084.9 -2.47078e-13 -701.955 -7.0089e-14 -57650.1)
(780014 78573 1.28343e-13 4736.32 -2.1723e-13 194712)
(716613 77570.3 -1.60415e-15 4404.03 -8.33637e-14 178899)
(656218 75173 -2.38585e-13 2405.76 3.59837e-14 163418)
(113390 43125.4 -1.20743e-13 3985.34 -4.51654e-14 29123.2)
(-1.52984e+06 30920.7 6.45112e-14 -3872.88 -6.25714e-14 -380544)
(484549 59934.5 1.30923e-13 -2763.56 1.41249e-14 119541)
(688147 62121.4 -5.92719e-14 -2781.26 -8.47484e-14 170053)
(-131682 74705 -2.09261e-13 -340.319 -3.52752e-14 -32757.5)
(974996 100810 1.36139e-14 -13069.3 1.96364e-14 238674)
(187970 57717.6 -8.46728e-14 285.65 5.73451e-14 46710)
(-1.95161e+06 22279.8 -2.17883e-14 -2640.13 -8.05184e-15 -484889)
(56945.3 76584.9 -1.09196e-13 1828.64 -9.185e-14 14583)
(-165548 81891.5 -2.17125e-13 1421.75 1.0251e-13 -40723.1)
(560214 61814.2 1.63137e-13 480.317 -2.34648e-14 139120)
(514676 62272.3 1.52553e-13 440.246 3.71187e-14 127811)
(470798 60902.7 -1.10658e-13 -1468.09 3.04779e-14 116450)
(1.01617e+06 44506.9 1.63758e-14 71.2592 3.43436e-14 252150)
(224512 81916.8 -7.32754e-14 3218.82 -1.56995e-13 56504.7)
(-562026 66830.3 4.97281e-14 -8666.99 1.11062e-15 -141600)
(-438622 122331 3.02792e-14 4023.55 3.37422e-14 -107833)
(-246668 49933.9 0 1858.27 0 -60742.3)
(-782466 90954.2 -6.70959e-14 -8832.35 2.04228e-14 -196337)
(-854299 93378.4 -1.00866e-13 -9821.29 -6.6597e-15 -214406)
(-928253 96815 -1.00623e-13 -11206.3 4.84604e-14 -233099)
(443401 61028.3 2.07895e-15 7210.97 2.57781e-14 111806)
(302952 66163.5 3.26408e-14 5213.31 -4.08581e-14 76462.2)
(78246.1 6896.96 -9.48939e-14 3956.66 3.42275e-14 20396.2)
(156044 63783.9 0 -1774 0 38277.5)
(200405 51385.6 -1.11123e-13 1824.91 6.63154e-14 50177.2)
(2.25858e+06 -111189 -5.86699e-15 -295461 -2.82542e-15 487089)
(868106 42021.9 1.09205e-13 1645.58 -1.12059e-13 215803)
(-666516 82838.3 0 1415.66 0 -165025)
(-466475 74815.2 -5.41312e-14 9068.53 -2.3766e-15 -113492)
(375049 78948.6 2.89219e-14 -3913.22 -3.57631e-14 92086.2)
(-119511 93719.4 4.833e-14 -2609.76 3.96442e-14 -30300.7)
(-14832.4 90748.2 1.42559e-13 -3007.68 -1.1231e-13 -4426.49)
(39564 64541 1.13452e-13 9699.53 -1.7947e-14 12223.3)
(43202.2 63919.8 -5.93222e-14 10567.7 -5.52251e-14 13341.4)
(-4297.13 115346 -2.9712e-15 -2839.63 -2.43347e-14 -1770.77)
(-10404.1 59924.6 -2.65713e-14 -953.368 8.93432e-14 -2818.02)
(487.438 69801.3 -9.95776e-14 -72.8182 7.4192e-14 102.876)
(13477.4 73049.7 9.51549e-14 -14183.6 -4.32181e-14 -175.212)
(165884 50326.2 -7.33081e-15 2373.64 -3.4499e-14 41748.1)
(-305661 116310 -1.72238e-15 1895.77 -1.66216e-14 -75370.3)
(98578.5 73131.5 2.38658e-13 1399.21 -4.69505e-14 24806.5)
(14757.2 112704 9.88587e-15 -18116.7 1.40759e-14 -833.548)
(-647694 114610 -2.4691e-14 -2643.4 -1.4816e-14 -161362)
(826713 52019.1 8.18416e-14 3494.92 7.29769e-14 205992)
(-355496 84478.5 -9.18334e-14 -380.706 3.00347e-14 -88300.2)
(-1.49528e+06 268093 -4.26829e-15 263744 2.55341e-15 -305569)
(-220036 47798.1 6.54155e-14 -1989.59 7.10225e-14 -55089.2)
(-360595 115946 0 3923.99 0 -88497.3)
(107039 73504.4 1.2736e-13 381.392 -1.75894e-13 26653.1)
(166360 66846.9 6.73458e-15 -446.083 2.18623e-14 41166.7)
(1.64401e+06 -363700 -1.32267e-15 53211.1 2.30953e-16 421114)
(-2.27635e+06 8938.54 -1.82102e-14 13528.1 8.36843e-15 -561452)
(713330 59849.9 4.01637e-14 3897.3 3.37376e-14 177959)
(776864 59325.1 -4.06722e-14 3933.61 8.85706e-14 193732)
(-235533 81144.1 -3.02195e-13 1099.01 -1.07881e-13 -58167.9)
(165409 102717 5.31152e-14 10819.7 1.04656e-13 43725.9)
(-36226.6 70075.2 8.50222e-14 -2983.88 1.29356e-13 -9728.92)
(-931675 -605224 -1.13147e-15 69690.8 4.76098e-16 -213876)
(-2.21839e+06 74338.8 5.964e-15 1809.23 7.70508e-15 -549978)
(1.96726e+06 36418.2 3.23988e-14 3848.03 -1.59584e-14 489072)
(-2.84539e+06 -49564.2 -8.39955e-15 -7703.52 -3.61646e-15 -707911)
(916552 54265 -3.67887e-14 -6740.8 -5.7165e-14 225743)