/*--------------------------------*- C++ -*----------------------------------*\
| =========                 |                                                 |
| \\      /  F ield         | OpenFOAM: The Open Source CFD Toolbox           |
|  \\    /   O peration     | Version:  2.3.1                                 |
|   \\  /    A nd           | Web:      www.OpenFOAM.org                      |
|    \\/     M anipulation  |                                                 |
\*---------------------------------------------------------------------------*/
FoamFile
{
    version     2.0;
    format      ascii;
    class       volVectorField;
    location    "5120";
    object      D;
}
// * * * * * * * * * * * * * * * * * * * * * * * * * * * * * * * * * * * * * //

dimensions      [0 1 0 0 0 0 0];

internalField   nonuniform List<vector> 
11800
(
(1.07504e-05 0.000304105 0)
(-1.35507e-05 0.00033899 0)
(7.52631e-06 0.000101555 0)
(-8.57908e-06 0.000138489 0)
(-1.23787e-05 0.000338413 0)
(-5.55512e-06 0.000138763 0)
(-2.04265e-06 0.000227854 0)
(-1.9415e-06 0.000175304 0)
(8.95751e-07 2.65135e-05 0)
(1.64882e-06 0.000105366 0)
(1.19349e-05 0.000303382 0)
(-1.06842e-05 0.000117898 0)
(-1.02513e-08 -8.16184e-09 0)
(6.69031e-06 0.000100937 0)
(-7.60849e-06 0.000139077 0)
(7.24848e-06 1.62233e-05 0)
(-1.13837e-06 0.000227185 0)
(-1.1013e-06 0.000174671 0)
(5.08365e-07 2.68089e-05 0)
(1.02291e-06 0.00010484 0)
(-6.53921e-06 0.000138248 0)
(-9.7895e-06 0.00011837 0)
(-1.58298e-06 5.70023e-06 0)
(-1.6899e-06 5.93721e-06 0)
(6.47325e-06 1.85437e-05 0)
(-2.53683e-06 9.47617e-06 0)
(-1.04329e-05 7.00758e-05 0)
(1.52876e-05 0.000204068 0)
(-9.27587e-06 5.30516e-05 0)
(-8.01117e-06 3.80636e-05 0)
(1.62015e-05 0.00025839 0)
(6.83418e-08 4.43278e-06 0)
(3.3152e-06 1.21989e-05 0)
(-8.23442e-06 0.000347903 0)
(6.70331e-06 0.00034633 0)
(-1.84312e-05 0.00027605 0)
(6.24543e-06 0.00034753 0)
(3.26331e-06 1.25436e-05 0)
(-1.99719e-06 0.000240743 0)
(1.65423e-06 0.000115794 0)
(-1.02589e-05 7.08668e-05 0)
(-9.13055e-06 5.37551e-05 0)
(1.49348e-05 0.000202893 0)
(-7.89518e-06 3.86786e-05 0)
(1.58422e-05 0.000257154 0)
(6.9151e-06 1.63528e-05 0)
(1.82737e-06 6.75572e-06 0)
(2.03671e-06 6.64771e-06 0)
(-3.14301e-06 0.00024095 0)
(2.57004e-06 0.000115958 0)
(-1.74936e-05 0.000177648 0)
(-1.8705e-05 0.000230215 0)
(-1.71005e-06 0.000300843 0)
(9.46486e-08 4.20563e-06 0)
(-8.88278e-06 1.93398e-05 0)
(1.19948e-06 9.88266e-07 0)
(-2.30024e-05 0.000352691 0)
(-5.74837e-06 9.77421e-05 0)
(6.60802e-06 0.000142884 0)
(-4.17382e-06 9.38695e-05 0)
(2.39926e-06 3.15896e-06 0)
(-2.95236e-06 0.000301069 0)
(-4.99716e-06 9.75197e-05 0)
(5.76351e-06 0.00014315 0)
(6.06328e-06 1.82583e-05 0)
(-2.19619e-05 0.000311632 0)
(-1.81482e-05 0.000176867 0)
(-1.94715e-05 0.000229356 0)
(-2.18477e-05 0.00035212 0)
(-2.6625e-06 9.7854e-06 0)
(-7.33928e-06 0.000348883 0)
(-1.2965e-05 0.000346988 0)
(-1.33423e-05 0.000345751 0)
(-1.12898e-07 1.25161e-07 0)
(2.56208e-06 3.29526e-06 0)
(-1.73608e-05 0.000276827 0)
(7.95863e-06 2.56651e-05 0)
(-2.23183e-05 0.000312801 0)
(-1.77705e-05 0.000315455 0)
(-1.66017e-05 0.000316513 0)
(-8.46739e-06 1.90734e-05 0)
(1.3217e-06 0.000120269 0)
(1.22487e-05 0.000344261 0)
(1.09346e-05 0.000344475 0)
(-1.56458e-06 0.000123628 0)
(-7.70476e-06 4.2893e-05 0)
(1.46465e-05 0.000248962 0)
(-8.81805e-06 5.85751e-05 0)
(-9.84257e-06 7.62618e-05 0)
(1.37679e-05 0.000195139 0)
(-3.86073e-07 0.00029431 0)
(3.52282e-06 1.15937e-05 0)
(-1.10338e-05 0.000317497 0)
(2.28487e-05 0.0003554 0)
(3.62514e-06 0.000152689 0)
(-2.73109e-09 -2.07744e-09 0)
(7.0647e-11 -4.41664e-10 0)
(2.73386e-09 -2.07982e-09 0)
(-2.25016e-07 0.000304557 0)
(-1.01443e-05 0.000120523 0)
(1.96686e-05 0.000354125 0)
(1.18644e-05 0.000132504 0)
(-4.27119e-06 1.697e-05 0)
(-9.60026e-07 1.30823e-05 0)
(-6.27894e-07 0.000336891 0)
(1.18331e-06 2.77411e-05 0)
(-2.49509e-06 0.000172724 0)
(-2.59652e-06 0.000224992 0)
(3.73104e-06 6.31352e-06 0)
(8.90476e-06 5.85498e-05 0)
(7.78076e-06 4.28704e-05 0)
(9.93968e-06 7.62331e-05 0)
(-1.48271e-05 0.000248992 0)
(-1.39392e-05 0.000195181 0)
(2.12607e-06 0.000103206 0)
(2.95268e-06 5.75417e-06 0)
(2.17953e-05 0.00031291 0)
(-8.89864e-06 0.000321229 0)
(3.00628e-06 5.54351e-06 0)
(-1.47385e-06 0.000106686 0)
(-8.77189e-07 2.581e-05 0)
(2.00138e-06 0.000229537 0)
(1.89887e-06 0.000176812 0)
(-2.73848e-06 0.000220072 0)
(-1.11059e-05 0.000318698 0)
(-9.61152e-07 0.000303602 0)
(-7.13045e-06 0.000337024 0)
(-1.64949e-06 0.000336105 0)
(-2.46847e-05 0.000364409 0)
(-2.55668e-05 0.000363525 0)
(-7.01436e-07 3.14833e-07 0)
(-3.19505e-06 7.46687e-06 0)
(1.50244e-05 0.000241527 0)
(-8.27542e-06 4.69207e-05 0)
(1.40697e-05 0.000188162 0)
(-9.39998e-06 6.31588e-05 0)
(-1.04336e-05 8.1357e-05 0)
(1.38637e-05 0.000241748 0)
(-7.62562e-06 4.67799e-05 0)
(1.29842e-05 0.000188366 0)
(-8.66397e-06 6.30025e-05 0)
(-9.61845e-06 8.11864e-05 0)
(-2.00212e-06 2.38968e-05 0)
(4.87484e-06 0.000233957 0)
(4.54592e-06 0.000181068 0)
(-3.83064e-06 0.000110189 0)
(1.86467e-05 0.000121028 0)
(-1.85101e-05 0.000118371 0)
(1.16712e-05 0.000133471 0)
(-1.34647e-06 1.38862e-05 0)
(-1.22839e-05 0.000292947 0)
(-1.21776e-05 0.000294505 0)
(6.01196e-06 0.000343671 0)
(-1.3739e-05 0.000276436 0)
(5.51821e-06 0.00019504 0)
(5.98964e-06 0.00024883 0)
(-1.52996e-05 0.000219115 0)
(-1.418e-05 0.000167264 0)
(7.12977e-06 3.05902e-05 0)
(-1.11498e-06 0.000295417 0)
(4.05583e-06 6.4264e-06 0)
(-1.25552e-05 0.00027671 0)
(8.33081e-06 2.60382e-05 0)
(-5.57473e-06 7.93935e-05 0)
(-5.01188e-06 6.13778e-05 0)
(-4.4e-06 4.53386e-05 0)
(7.66519e-06 0.000190619 0)
(8.17486e-06 0.000244161 0)
(-3.57319e-06 4.40767e-06 0)
(-6.52865e-06 2.94218e-05 0)
(1.42966e-05 0.000221554 0)
(1.3242e-05 0.00016955 0)
(3.19868e-06 0.000224743 0)
(-2.09977e-05 0.000274759 0)
(-2.12096e-05 0.000276414 0)
(7.45249e-06 1.8577e-05 0)
(7.46327e-06 1.90911e-05 0)
(8.23972e-06 5.68472e-05 0)
(9.21797e-06 7.4335e-05 0)
(7.17808e-06 4.13761e-05 0)
(-1.31101e-05 0.000197825 0)
(-1.3928e-05 0.000251823 0)
(5.61311e-06 0.000193812 0)
(6.02258e-06 0.000247565 0)
(6.0898e-06 0.000117891 0)
(-2.89774e-06 0.000109939 0)
(-1.52219e-06 2.40205e-05 0)
(3.69099e-06 0.000233642 0)
(3.44089e-06 0.000180773 0)
(-4.78313e-06 0.000288927 0)
(-1.60412e-06 5.02692e-05 0)
(-1.812e-06 6.69674e-05 0)
(-1.80701e-05 0.000309226 0)
(-4.877e-07 1.13867e-05 0)
(-1.74147e-05 0.000145211 0)
(1.50129e-05 9.6057e-05 0)
(1.71852e-07 1.63298e-07 0)
(-1.08121e-05 0.000348459 0)
(2.16433e-05 0.000314174 0)
(-6.12117e-07 3.64397e-07 0)
(1.42599e-05 0.000329343 0)
(1.78099e-05 0.000281308 0)
(1.91007e-05 0.00028154 0)
(-5.50218e-07 0.000338603 0)
(-1.44104e-06 0.000339691 0)
(1.00405e-05 9.37201e-05 0)
(8.87013e-06 9.41369e-05 0)
(-1.18787e-05 0.000147694 0)
(-1.04648e-05 0.000147173 0)
(6.91763e-07 3.1057e-07 0)
(-1.95152e-06 1.66718e-05 0)
(-2.19584e-06 9.27305e-06 0)
(-5.1189e-08 1.92451e-08 0)
(6.69315e-06 1.09981e-05 0)
(-1.59232e-07 5.05622e-08 0)
(8.70937e-07 9.1071e-06 0)
(-1.22645e-05 0.000336817 0)
(-5.88815e-06 4.18592e-05 0)
(-6.73507e-06 5.74159e-05 0)
(-7.52886e-06 7.49758e-05 0)
(1.1294e-05 0.000250816 0)
(1.06564e-05 0.000196899 0)
(7.36206e-07 0.000233207 0)
(6.84758e-07 0.000180364 0)
(-3.0969e-07 2.41929e-05 0)
(-5.9089e-07 0.00010961 0)
(-2.33562e-07 3.88231e-08 0)
(9.19768e-07 3.02751e-05 0)
(-1.84161e-06 0.000167579 0)
(-5.53407e-06 0.000105852 0)
(1.28171e-06 2.98289e-05 0)
(-2.59456e-06 0.000168471 0)
(-8.38006e-06 0.000318655 0)
(1.037e-05 0.00011876 0)
(9.6613e-06 0.000117843 0)
(5.09942e-08 1.91801e-08 0)
(2.33302e-07 3.87821e-08 0)
(-1.62573e-05 0.000296513 0)
(-1.56395e-05 0.000297775 0)
(-1.53078e-05 0.000100494 0)
(1.72731e-05 0.000140012 0)
(1.38531e-05 0.000251716 0)
(1.30373e-05 0.00019773 0)
(-7.16025e-06 4.14367e-05 0)
(-8.22089e-06 5.6912e-05 0)
(-9.19599e-06 7.44075e-05 0)
(-4.91327e-07 0.000302383 0)
(-6.03181e-06 2.81433e-05 0)
(1.35166e-05 0.000224337 0)
(1.25392e-05 0.000172129 0)
(8.28434e-06 0.000120006 0)
(7.00892e-06 0.000285096 0)
(1.10018e-05 0.000355829 0)
(1.11393e-06 8.97478e-06 0)
(-4.05366e-06 9.4838e-05 0)
(-9.51731e-09 3.30856e-06 0)
(1.5886e-07 5.04667e-08 0)
(3.91956e-06 0.000100094 0)
(3.37376e-06 9.90443e-05 0)
(-4.24431e-06 0.000140268 0)
(-3.63543e-06 0.000141309 0)
(7.53469e-06 7.49537e-05 0)
(6.74004e-06 5.7396e-05 0)
(5.87762e-06 4.18491e-05 0)
(-1.06673e-05 0.0001969 0)
(-1.13389e-05 0.000250848 0)
(-6.00206e-06 0.000348564 0)
(2.01996e-06 2.44279e-06 0)
(9.11958e-09 0.000199977 0)
(-1.43978e-08 4.00648e-05 0)
(8.00179e-06 0.000336292 0)
(6.50854e-06 0.000117034 0)
(-2.53166e-05 0.000332293 0)
(7.48024e-06 0.000120876 0)
(2.87582e-07 2.09375e-07 0)
(2.08445e-05 0.000271351 0)
(2.09646e-05 0.00026982 0)
(-1.27223e-05 0.000172349 0)
(-1.37134e-05 0.000224567 0)
(-1.13648e-05 0.000171912 0)
(-1.22536e-05 0.0002241 0)
(6.09132e-06 2.804e-05 0)
(5.46201e-06 2.82259e-05 0)
(6.2015e-06 0.000158248 0)
(7.3752e-06 0.000158063 0)
(6.73382e-06 0.000209341 0)
(8.01136e-06 0.000209138 0)
(-3.39071e-06 3.52185e-05 0)
(-4.03956e-06 3.53336e-05 0)
(-7.07003e-07 1.57978e-05 0)
(3.58141e-06 1.00639e-05 0)
(3.35267e-06 9.71466e-06 0)
(3.41888e-06 7.34724e-06 0)
(5.99449e-06 0.000286327 0)
(-2.06598e-05 0.000271852 0)
(-2.07702e-05 0.000270262 0)
(7.70182e-06 2.07558e-05 0)
(7.54937e-06 2.01622e-05 0)
(1.63624e-05 0.000121054 0)
(1.65837e-05 0.000122418 0)
(-1.62274e-05 0.000118276 0)
(-1.6312e-05 0.000116935 0)
(7.41453e-06 0.00034344 0)
(-2.02738e-05 0.000347935 0)
(-1.94888e-05 0.000292695 0)
(4.51493e-06 5.06984e-06 0)
(-1.19046e-05 0.000343553 0)
(-1.06293e-05 0.000342371 0)
(5.04727e-06 0.000160067 0)
(-3.11328e-06 0.00014377 0)
(2.7792e-06 9.69903e-05 0)
(-1.39187e-05 0.000121507 0)
(1.36487e-05 0.000117705 0)
(-6.54242e-06 2.03936e-05 0)
(-1.90651e-07 1.20444e-07 0)
(1.03089e-06 4.16581e-06 0)
(1.25488e-06 0.000103535 0)
(-1.17086e-05 0.000104275 0)
(1.26364e-05 0.000135495 0)
(-6.73571e-06 9.48768e-05 0)
(8.04368e-06 0.000146301 0)
(4.08524e-06 0.000255656 0)
(5.63367e-06 0.000255103 0)
(-2.37938e-06 5.44985e-05 0)
(-3.28711e-06 5.48289e-05 0)
(-2.67051e-06 7.17222e-05 0)
(-3.68763e-06 7.20911e-05 0)
(6.38366e-07 2.75505e-05 0)
(-1.35923e-06 0.000173113 0)
(-1.37796e-06 0.000225434 0)
(-2.2349e-06 0.000330678 0)
(3.12705e-06 7.3e-06 0)
(-6.21972e-07 0.000140061 0)
(-9.62045e-06 0.000339006 0)
(1.29249e-06 1.02544e-06 0)
(8.61559e-06 0.00020094 0)
(-4.62188e-06 3.96231e-05 0)
(-1.45182e-05 0.000141555 0)
(-1.36347e-05 0.000140844 0)
(1.26864e-05 9.90697e-05 0)
(1.19597e-05 9.96747e-05 0)
(-1.44136e-05 0.000353579 0)
(-1.45725e-05 0.000352056 0)
(-2.34472e-06 1.58973e-05 0)
(-2.78086e-06 1.5837e-05 0)
(1.12863e-06 4.36681e-06 0)
(-2.6672e-06 4.53291e-06 0)
(6.87247e-07 0.000147014 0)
(4.1347e-06 2.85518e-05 0)
(3.47759e-06 2.87342e-05 0)
(-8.54839e-06 0.000171156 0)
(-7.16564e-06 0.000170749 0)
(-9.21978e-06 0.000223296 0)
(-7.73027e-06 0.00022286 0)
(-1.86995e-05 0.000283216 0)
(-1.73034e-05 0.00028333 0)
(-4.07407e-06 8.48304e-05 0)
(-3.76115e-06 6.62622e-05 0)
(-3.3265e-06 4.96464e-05 0)
(5.92752e-06 0.000264175 0)
(-1.00204e-06 0.000299433 0)
(1.22808e-05 0.000117591 0)
(1.16291e-05 0.000118619 0)
(5.4666e-06 0.000228345 0)
(5.22375e-06 0.000175776 0)
(-2.42604e-06 2.63091e-05 0)
(2.29163e-06 2.94741e-05 0)
(1.88648e-06 3.00509e-05 0)
(-4.23019e-06 0.000220029 0)
(-5.03466e-06 0.00022117 0)
(-4.65883e-06 0.000169205 0)
(-3.7951e-06 0.00016804 0)
(-4.82974e-06 2.70082e-05 0)
(1.02687e-05 0.000174416 0)
(1.10539e-05 0.000226805 0)
(-1.29476e-07 1.22853e-06 0)
(1.82679e-05 0.000134303 0)
(-1.67448e-05 0.000105682 0)
(-7.24585e-08 1.14267e-06 0)
(-5.5093e-06 0.000251664 0)
(-6.46263e-06 0.000253056 0)
(-5.05047e-06 0.000197779 0)
(-5.91594e-06 0.000199098 0)
(3.20136e-06 4.05947e-05 0)
(2.7586e-06 4.13115e-05 0)
(3.79082e-06 5.60378e-05 0)
(3.25459e-06 5.68573e-05 0)
(4.24566e-06 7.34435e-05 0)
(3.64095e-06 7.43607e-05 0)
(2.06422e-05 0.000283769 0)
(2.10265e-05 0.000285219 0)
(-1.90609e-06 9.3491e-06 0)
(7.74845e-06 0.000201947 0)
(-4.12599e-06 3.90728e-05 0)
(6.70681e-06 3.08545e-05 0)
(-1.32732e-05 0.000166706 0)
(-1.43555e-05 0.000218481 0)
(-1.85629e-07 5.63256e-08 0)
(2.69265e-06 0.000295808 0)
(6.62102e-06 2.94284e-05 0)
(-1.34592e-05 0.000169543 0)
(-1.45449e-05 0.0002215 0)
(5.00311e-06 8.53826e-06 0)
(-1.01738e-05 0.000320764 0)
(6.34679e-06 2.34605e-05 0)
(-1.60709e-05 0.000263028 0)
(-3.38057e-06 1.25731e-05 0)
(-3.60716e-06 1.30368e-05 0)
(3.54517e-06 1.29006e-05 0)
(-1.72456e-06 0.000139842 0)
(-1.30921e-08 -9.63516e-09 0)
(-1.08041e-05 0.000351633 0)
(-1.66455e-07 6.60633e-08 0)
(1.8511e-07 5.61922e-08 0)
(-4.95932e-06 2.85004e-05 0)
(1.10313e-05 0.000223462 0)
(1.02283e-05 0.000171312 0)
(8.50516e-06 0.000296277 0)
(-2.43759e-05 0.000318002 0)
(3.1296e-06 0.000130827 0)
(-1.99653e-06 0.000127379 0)
(-5.40506e-07 1.31586e-05 0)
(-1.51984e-06 1.5783e-06 0)
(-9.45172e-09 -8.51122e-09 0)
(-6.04136e-06 9.57697e-05 0)
(7.2119e-06 0.000145269 0)
(5.16134e-07 1.80646e-07 0)
(-7.97347e-07 0.000125489 0)
(-7.5166e-07 0.000124267 0)
(-1.02764e-08 0.000105199 0)
(-1.38256e-07 2.66463e-05 0)
(2.82364e-07 0.000175014 0)
(2.54738e-07 0.000227639 0)
(-5.18203e-07 1.8134e-07 0)
(2.14781e-06 1.42395e-05 0)
(-8.40548e-06 0.000258715 0)
(4.78421e-06 5.27606e-05 0)
(5.38341e-06 6.97665e-05 0)
(5.92989e-06 8.86723e-05 0)
(1.77048e-05 0.000337452 0)
(-6.42538e-06 2.54816e-05 0)
(1.51797e-05 0.000230493 0)
(1.41309e-05 0.000177857 0)
(-1.00174e-05 0.00031114 0)
(1.43866e-06 3.64044e-06 0)
(1.35372e-05 0.000305328 0)
(-2.84775e-06 4.46446e-06 0)
(9.4895e-06 0.000338801 0)
(-7.24418e-06 0.000258744 0)
(4.1199e-06 5.27374e-05 0)
(4.6361e-06 6.97421e-05 0)
(5.11012e-06 8.86406e-05 0)
(1.25682e-06 3.44923e-06 0)
(6.254e-06 0.000207104 0)
(-3.20443e-06 3.63544e-05 0)
(-1.07999e-06 1.41794e-05 0)
(-1.77403e-05 0.00030642 0)
(-6.55431e-06 7.969e-05 0)
(-5.89439e-06 6.16466e-05 0)
(-5.17682e-06 4.55771e-05 0)
(8.94491e-06 0.000190305 0)
(9.54101e-06 0.000243825 0)
(2.43933e-05 0.000357746 0)
(1.42089e-05 0.000313737 0)
(1.57518e-05 0.000313195 0)
(1.94294e-07 1.35118e-07 0)
(8.794e-06 9.52311e-05 0)
(-1.02983e-05 0.000145867 0)
(-4.46171e-06 9.66007e-05 0)
(5.25209e-06 0.000144335 0)
(-1.49977e-06 0.000155561 0)
(-1.13793e-06 0.000253318 0)
(7.37245e-07 7.32517e-05 0)
(6.58051e-07 5.58634e-05 0)
(4.46457e-08 3.9234e-05 0)
(-2.38359e-07 0.000151135 0)
(-9.97695e-08 0.000201573 0)
(1.11742e-05 0.000357261 0)
(6.28154e-07 1.46067e-05 0)
(-2.67738e-07 3.35746e-06 0)
(2.15108e-06 0.00021409 0)
(1.07581e-07 3.47276e-06 0)
(-1.62117e-06 1.08963e-05 0)
(4.09806e-06 3.91387e-05 0)
(-7.77655e-06 0.000201815 0)
(-1.51444e-07 1.65408e-07 0)
(-1.64304e-05 0.000306276 0)
(-1.34841e-06 2.61345e-05 0)
(2.93288e-06 0.000228862 0)
(2.90631e-06 0.00017612 0)
(3.62962e-07 8.70726e-08 0)
(-4.7918e-06 8.67852e-06 0)
(5.36141e-06 7.15069e-05 0)
(4.77554e-06 5.43108e-05 0)
(-8.26611e-06 0.000256027 0)
(1.60566e-06 9.9599e-05 0)
(-1.11111e-05 0.000347086 0)
(-1.82197e-07 2.55411e-08 0)
(-6.28256e-06 1.36009e-05 0)
(4.0692e-06 7.47183e-06 0)
(-4.0878e-06 4.46346e-06 0)
(1.23654e-05 0.000119761 0)
(9.41578e-06 0.000145896 0)
(-8.04285e-06 9.51978e-05 0)
(5.81366e-07 3.88311e-05 0)
(-1.33187e-06 0.000151712 0)
(-1.11363e-06 0.000202329 0)
(1.18434e-05 0.00030184 0)
(1.09958e-05 0.000131262 0)
(5.74771e-06 0.000349781 0)
(5.53765e-06 0.000351092 0)
(1.611e-06 0.000145209 0)
(2.18799e-06 9.88475e-05 0)
(1.81982e-07 2.55128e-08 0)
(-1.5879e-05 0.000273536 0)
(5.70297e-06 1.94499e-05 0)
(1.98468e-08 2.64304e-07 0)
(3.05427e-06 0.000194944 0)
(3.98738e-06 0.000195624 0)
(5.32672e-09 2.2937e-08 0)
(-2.98114e-06 7.22686e-06 0)
(7.50346e-06 7.27132e-05 0)
(6.69372e-06 5.53925e-05 0)
(5.8187e-06 4.00383e-05 0)
(-1.08044e-05 0.000199991 0)
(-1.1467e-05 0.000254233 0)
(9.99529e-06 0.000124882 0)
(1.47879e-06 0.000296127 0)
(-6.46042e-06 0.000334139 0)
(-6.11589e-06 0.00033591 0)
(-6.12349e-07 0.000257446 0)
(-5.23146e-07 0.000258869 0)
(4.46537e-07 5.26172e-05 0)
(4.08066e-07 5.34004e-05 0)
(5.02575e-07 6.96116e-05 0)
(4.58729e-07 7.04916e-05 0)
(3.35439e-07 8.84998e-05 0)
(3.99246e-07 8.94423e-05 0)
(7.99755e-07 0.000145698 0)
(1.45762e-06 0.000148053 0)
(2.52844e-06 0.000226183 0)
(-6.25327e-07 0.000155177 0)
(-3.63464e-07 8.71885e-08 0)
(-4.05902e-07 3.2014e-06 0)
(5.51003e-06 0.000205997 0)
(-2.84791e-06 3.6921e-05 0)
(1.43221e-06 4.45055e-06 0)
(2.14866e-05 0.000339118 0)
(-1.62332e-06 0.000260006 0)
(1.01526e-06 5.20217e-05 0)
(1.14364e-06 6.89417e-05 0)
(1.13044e-06 8.7721e-05 0)
(-1.63959e-05 0.000284689 0)
(5.64589e-06 0.000101224 0)
(8.38958e-06 0.000360049 0)
(9.4856e-06 0.000359244 0)
(-1.61142e-06 1.12368e-05 0)
(-1.02945e-06 0.000198921 0)
(5.49567e-07 4.06396e-05 0)
(2.38812e-07 2.41317e-07 0)
(2.10836e-05 0.000348728 0)
(-2.81109e-07 5.66795e-06 0)
(-3.92622e-06 5.90841e-05 0)
(-4.37956e-06 7.68438e-05 0)
(-5.24274e-06 7.76563e-05 0)
(-4.70444e-06 5.9815e-05 0)
(-3.39446e-06 4.33058e-05 0)
(-4.1079e-06 4.39647e-05 0)
(6.97822e-06 0.000193014 0)
(7.43678e-06 0.000246724 0)
(2.97808e-06 4.03885e-06 0)
(-1.90775e-07 1.1542e-07 0)
(-1.81622e-05 0.000235381 0)
(-1.89252e-05 0.000348014 0)
(6.18238e-06 0.000147936 0)
(-5.19422e-07 5.80043e-06 0)
(-9.8156e-06 0.000192662 0)
(-1.04552e-05 0.000246336 0)
(5.57352e-06 4.42342e-05 0)
(6.36179e-06 6.01165e-05 0)
(7.0872e-06 7.79875e-05 0)
(9.13833e-06 0.000297265 0)
(2.0732e-05 0.000349973 0)
(-1.11101e-05 0.000120844 0)
(4.5636e-06 3.96126e-05 0)
(-8.62475e-06 0.000200932 0)
(5.91638e-06 0.000149095 0)
(-2.22531e-06 0.000106027 0)
(5.93709e-06 7.21204e-05 0)
(5.29246e-06 5.48593e-05 0)
(-9.11281e-06 0.0002551 0)
(-1.65234e-05 0.000122243 0)
(1.61375e-05 0.000117177 0)
(1.61382e-05 0.000118492 0)
(-1.63053e-05 0.000120846 0)
(-7.55856e-06 2.015e-05 0)
(-7.78089e-06 2.07797e-05 0)
(-7.65746e-06 0.000118472 0)
(-3.85302e-06 4.57034e-06 0)
(-1.23963e-05 0.000119388 0)
(-1.8037e-06 0.000286348 0)
(-1.57437e-06 1.87424e-06 0)
(1.24382e-05 6.94021e-05 0)
(1.10492e-05 5.2461e-05 0)
(-1.75996e-05 0.000179207 0)
(2.84157e-06 7.21645e-05 0)
(2.53324e-06 5.48937e-05 0)
(-4.36789e-06 0.000254984 0)
(5.78615e-06 1.73692e-05 0)
(9.73835e-06 0.000144707 0)
(-8.37756e-06 9.62271e-05 0)
(-4.5471e-06 5.09224e-06 0)
(5.0182e-06 0.000227093 0)
(4.79196e-06 0.000174659 0)
(-2.25068e-06 2.68306e-05 0)
(1.45231e-05 0.000214373 0)
(-7.02796e-06 3.28268e-05 0)
(1.33952e-05 0.000162911 0)
(-7.99532e-06 1.98816e-05 0)
(1.02444e-05 0.000334813 0)
(1.17472e-05 0.000334322 0)
(1.13158e-05 0.000254242 0)
(1.07193e-05 0.000200012 0)
(-5.78882e-06 4.01527e-05 0)
(-6.62578e-06 5.53856e-05 0)
(-7.42719e-06 7.27058e-05 0)
(-1.65797e-06 1.62459e-06 0)
(-8.96305e-06 0.00031082 0)
(9.81182e-06 0.000197781 0)
(-5.38106e-06 4.13631e-05 0)
(-1.00747e-06 1.2466e-06 0)
(8.39401e-06 0.000338579 0)
(2.00394e-06 1.63698e-06 0)
(1.66173e-06 1.24097e-06 0)
(4.22075e-06 5.97726e-06 0)
(1.01445e-05 0.000271877 0)
(-1.7135e-05 0.000279398 0)
(2.28472e-05 0.000339553 0)
(4.27521e-06 6.28411e-06 0)
(1.00138e-05 0.000131221 0)
(1.37628e-05 0.000288355 0)
(-2.20683e-05 0.000272583 0)
(8.01383e-06 1.99265e-05 0)
(-5.05422e-06 0.000290175 0)
(2.06168e-06 7.23899e-05 0)
(1.83849e-06 5.50942e-05 0)
(-3.16861e-06 0.000254634 0)
(-7.4921e-07 3.58767e-06 0)
(5.86272e-06 0.000156142 0)
(1.64996e-07 6.55294e-08 0)
(-6.64165e-06 1.34695e-05 0)
(-1.1765e-06 0.000128176 0)
(-2.97648e-06 2.45044e-05 0)
(-3.46512e-06 2.46669e-05 0)
(6.67103e-06 0.000179749 0)
(7.74218e-06 0.000179412 0)
(8.30968e-06 0.000232178 0)
(7.15878e-06 0.00023254 0)
(1.95302e-07 7.19281e-07 0)
(-4.68709e-08 9.06608e-06 0)
(-1.19438e-05 0.000161387 0)
(-1.29624e-05 0.000212724 0)
(6.33902e-06 3.36066e-05 0)
(-3.71224e-06 1.99617e-05 0)
(-2.23029e-06 0.000218759 0)
(-3.35502e-06 8.5245e-06 0)
(7.02357e-06 0.000335351 0)
(-5.61471e-06 0.000109054 0)
(-6.50747e-06 0.000108778 0)
(1.9044e-07 1.90984e-07 0)
(-3.71653e-06 0.000112814 0)
(-1.8692e-06 2.25352e-05 0)
(4.38121e-06 0.000184182 0)
(4.68966e-06 0.000237291 0)
(-5.23225e-06 0.000218795 0)
(-4.59919e-06 0.000166911 0)
(2.31115e-06 3.06266e-05 0)
(3.05767e-06 1.14522e-05 0)
(2.83981e-06 1.10346e-05 0)
(1.51061e-06 0.000108733 0)
(-1.94056e-06 0.000232092 0)
(-1.81645e-06 0.0001793 0)
(8.05216e-07 2.46722e-05 0)
(-1.76977e-06 4.26161e-05 0)
(-3.15953e-06 8.76323e-06 0)
(1.30703e-05 0.000343266 0)
(-1.27146e-05 0.000204738 0)
(9.78168e-06 9.5845e-05 0)
(-1.1407e-05 0.000145176 0)
(1.39309e-05 0.000289663 0)
(-1.27103e-05 8.80475e-05 0)
(-1.15559e-05 6.91937e-05 0)
(1.56206e-05 0.000154601 0)
(-1.02624e-05 5.22719e-05 0)
(-8.86212e-06 3.74122e-05 0)
(1.7076e-05 0.000205382 0)
(1.806e-05 0.000259846 0)
(-4.67167e-06 0.000248588 0)
(-4.39183e-06 0.000194772 0)
(2.80262e-06 5.87004e-05 0)
(2.45004e-06 4.29849e-05 0)
(3.12776e-06 7.64179e-05 0)
(2.68099e-06 5.95498e-05 0)
(-4.43647e-06 0.000247187 0)
(2.98874e-06 7.73645e-05 0)
(2.34717e-06 4.37288e-05 0)
(-4.16795e-06 0.000193455 0)
(-2.45762e-06 0.000315729 0)
(-4.91897e-06 6.41342e-06 0)
(-5.36823e-06 3.0336e-05 0)
(1.1558e-05 0.000219487 0)
(1.06923e-05 0.00016763 0)
(-3.3756e-06 4.0919e-05 0)
(6.22902e-06 0.000198544 0)
(1.71433e-05 0.000246306 0)
(1.60936e-05 0.000192649 0)
(-9.17046e-06 4.43525e-05 0)
(-1.04657e-05 6.02322e-05 0)
(-1.16572e-05 7.81006e-05 0)
(1.80643e-05 0.00026896 0)
(1.97145e-05 0.000268616 0)
(4.37663e-07 7.73159e-06 0)
(-1.80166e-06 0.000126064 0)
(-4.7758e-06 1.31277e-05 0)
(2.43636e-07 4.47903e-07 0)
(-4.70545e-06 1.66912e-05 0)
(-7.48486e-07 0.000286923 0)
(1.98809e-07 7.39781e-06 0)
(-3.93856e-06 0.000135159 0)
(1.63589e-05 0.000179314 0)
(-7.33137e-06 2.48772e-05 0)
(1.7558e-05 0.000232051 0)
(-1.6044e-08 -1.11191e-08 0)
(1.10773e-06 0.000214296 0)
(3.05389e-07 1.28165e-07 0)
(2.08498e-07 1.52527e-07 0)
(2.91383e-06 0.000153619 0)
(-3.48421e-07 2.79308e-07 0)
(1.3357e-05 0.000345845 0)
(1.01029e-06 0.000195568 0)
(-5.18742e-07 4.24859e-05 0)
(2.87504e-06 1.69912e-05 0)
(1.85005e-06 0.000194956 0)
(-1.01477e-06 4.27983e-05 0)
(-1.69894e-07 3.73696e-06 0)
(-1.24099e-05 6.93659e-05 0)
(-1.10233e-05 5.2429e-05 0)
(-9.52061e-06 3.7559e-05 0)
(-7.89881e-06 2.49383e-05 0)
(1.76082e-05 0.000179246 0)
(1.83124e-05 0.000205155 0)
(1.88993e-05 0.000231973 0)
(1.93749e-05 0.000259609 0)
(-8.55545e-06 0.000280229 0)
(-7.59998e-06 0.000333487 0)
(-2.45961e-05 0.000275081 0)
(8.73798e-06 1.90801e-05 0)
(5.63535e-06 0.000353647 0)
(6.55238e-06 0.000352116 0)
(1.76092e-06 0.000190607 0)
(1.90996e-06 0.00024418 0)
(-1.32879e-06 7.94867e-05 0)
(-1.19478e-06 6.1457e-05 0)
(-1.0491e-06 4.54028e-05 0)
(-6.93983e-06 1.99335e-05 0)
(2.53049e-06 1.42682e-05 0)
(-9.47334e-06 8.33035e-05 0)
(1.26145e-05 0.000185483 0)
(-8.55194e-06 6.49126e-05 0)
(-7.54887e-06 4.84649e-05 0)
(1.34912e-05 0.00023867 0)
(-5.27504e-06 2.21014e-05 0)
(1.36637e-05 0.000266528 0)
(2.30277e-06 0.000120705 0)
(-1.41503e-06 0.000297917 0)
(1.37518e-06 6.84116e-07 0)
(-1.03303e-06 0.000261389 0)
(6.76129e-07 5.12414e-05 0)
(7.6248e-07 6.80636e-05 0)
(7.11692e-07 8.67511e-05 0)
(4.28859e-06 0.000308707 0)
(-5.69815e-07 3.58559e-07 0)
(2.16714e-05 0.000303736 0)
(-3.23059e-06 0.000127991 0)
(-9.59108e-08 2.03563e-07 0)
(7.75329e-06 0.000182575 0)
(-3.36001e-06 2.32615e-05 0)
(8.3063e-06 0.000235567 0)
(1.66335e-07 1.28585e-07 0)
(-4.51675e-06 2.80958e-05 0)
(9.38911e-06 0.000172118 0)
(1.01213e-05 0.000224332 0)
(1.55738e-06 2.02232e-06 0)
(-6.55456e-06 0.000111482 0)
(1.40282e-06 0.000119263 0)
(-1.49793e-05 0.000324738 0)
(1.39519e-06 0.000191653 0)
(1.48762e-06 0.000245269 0)
(-1.12047e-06 7.87154e-05 0)
(-8.81072e-07 4.47959e-05 0)
(-1.0066e-06 6.07627e-05 0)
(2.23088e-06 0.000121604 0)
(-3.05009e-07 1.15067e-06 0)
(-2.69195e-07 3.93364e-06 0)
(6.74728e-07 0.000286453 0)
(1.47336e-05 0.000130832 0)
(-1.3783e-05 0.000108789 0)
(-1.05082e-05 0.000363585 0)
(-2.38686e-05 0.000237019 0)
(-2.2302e-05 0.00018397 0)
(-2.31559e-05 0.000210045 0)
(-2.13034e-05 0.000158953 0)
(1.1592e-05 3.51759e-05 0)
(1.35039e-05 4.96396e-05 0)
(1.52687e-05 6.62028e-05 0)
(1.68885e-05 8.46989e-05 0)
(2.38544e-05 0.000237016 0)
(2.31412e-05 0.000210044 0)
(-1.16005e-05 3.51763e-05 0)
(-1.35129e-05 4.96407e-05 0)
(2.22859e-05 0.000183969 0)
(-1.52791e-05 6.62037e-05 0)
(2.12896e-05 0.000158952 0)
(-1.69001e-05 8.46998e-05 0)
(-6.67857e-06 1.93734e-05 0)
(-3.68718e-06 0.00029728 0)
(-2.62464e-06 0.000296995 0)
(-3.27048e-06 0.000336913 0)
(5.46262e-06 0.000203439 0)
(-2.8791e-06 3.82614e-05 0)
(-1.02408e-06 1.49709e-06 0)
(-4.23635e-06 0.000356173 0)
(-4.62459e-06 7.58216e-05 0)
(-5.66755e-06 7.55343e-05 0)
(-4.14108e-06 5.81676e-05 0)
(-5.07329e-06 5.79119e-05 0)
(6.92099e-06 0.000249921 0)
(8.31022e-06 0.000250038 0)
(1.82462e-05 0.000245662 0)
(1.71234e-05 0.000192048 0)
(-9.80054e-06 4.47204e-05 0)
(-1.1177e-05 6.06474e-05 0)
(-1.24431e-05 7.85593e-05 0)
(-1.10068e-05 0.00016196 0)
(-1.1941e-05 0.000213348 0)
(5.80965e-06 3.32835e-05 0)
(-3.44925e-06 0.000144927 0)
(2.94123e-06 9.6005e-05 0)
(3.61211e-06 0.00025704 0)
(-2.07892e-06 5.3609e-05 0)
(-2.33633e-06 7.07248e-05 0)
(-2.53462e-06 8.95398e-05 0)
(6.7918e-06 9.48529e-05 0)
(5.75687e-06 9.50971e-05 0)
(-7.97575e-06 0.000146265 0)
(-6.75138e-06 0.000145963 0)
(-8.04574e-06 0.000353493 0)
(5.32226e-07 1.43711e-06 0)
(1.34222e-05 0.00030407 0)
(4.82149e-06 0.000105443 0)
(1.31492e-05 0.000209821 0)
(-6.59364e-06 3.50566e-05 0)
(1.20942e-05 0.000158712 0)
(-1.12119e-05 0.000126612 0)
(2.70242e-06 2.64957e-05 0)
(-6.26941e-06 0.000227857 0)
(-5.8289e-06 0.000175388 0)
(7.90725e-07 0.000109746 0)
(-9.59253e-07 0.000180506 0)
(-1.02208e-06 0.000233379 0)
(4.16236e-07 2.41293e-05 0)
(7.56242e-06 9.93162e-05 0)
(-8.62279e-06 0.000141095 0)
(-4.12874e-06 0.000315724 0)
(-1.91745e-05 0.000312689 0)
(3.43306e-06 0.000134545 0)
(8.60224e-06 0.000134972 0)
(-6.88076e-06 2.57468e-05 0)
(1.61724e-05 0.000229919 0)
(1.50503e-05 0.000177325 0)
(-7.56483e-07 3.1883e-06 0)
(-2.58239e-06 0.000263216 0)
(1.43867e-06 5.0206e-05 0)
(1.62516e-06 6.68962e-05 0)
(1.78359e-06 8.54746e-05 0)
(-3.94392e-06 0.000127361 0)
(-1.77724e-05 0.000312795 0)
(-5.06545e-06 5.02675e-05 0)
(-5.72166e-06 6.69588e-05 0)
(-6.30229e-06 8.55778e-05 0)
(9.07959e-06 0.000263124 0)
(1.60983e-08 2.07123e-08 0)
(1.11269e-05 0.000125589 0)
(1.43566e-07 9.66742e-06 0)
(-5.1698e-07 8.91751e-07 0)
(-1.07597e-06 4.13025e-06 0)
(-5.18497e-06 1.78065e-05 0)
(-5.27295e-07 1.93535e-07 0)
(2.1862e-06 5.67974e-05 0)
(1.91352e-06 4.12925e-05 0)
(2.44588e-06 7.42951e-05 0)
(-3.70753e-06 0.00025175 0)
(-3.50791e-06 0.000197798 0)
(-1.07766e-05 0.000104048 0)
(1.17235e-05 0.000135791 0)
(-1.04586e-06 6.11695e-07 0)
(1.42697e-05 0.000334928 0)
(1.02966e-05 0.000299468 0)
(-2.18874e-05 0.000281778 0)
(8.10169e-06 0.000133922 0)
(2.93048e-06 0.000145545 0)
(-5.49933e-06 0.000356011 0)
(-1.53007e-05 0.000152541 0)
(-1.45531e-05 0.000151862 0)
(2.16383e-05 0.000355905 0)
(-1.7171e-06 0.000317306 0)
(-4.82126e-06 9.56148e-05 0)
(5.83323e-06 0.000145516 0)
(1.77412e-07 1.00081e-05 0)
(2.6265e-06 3.52219e-06 0)
(5.24307e-07 1.9246e-07 0)
(5.15998e-06 0.000155115 0)
(1.90723e-05 0.000363243 0)
(-1.0431e-05 0.000251794 0)
(-9.80991e-06 0.000197792 0)
(5.36736e-06 4.13437e-05 0)
(6.90038e-06 7.43138e-05 0)
(6.16783e-06 5.68216e-05 0)
(-1.92102e-07 1.33358e-07 0)
(-7.69832e-07 0.000330336 0)
(9.75298e-06 0.000135374 0)
(-8.83952e-06 0.00010458 0)
(-1.56354e-05 0.000322286 0)
(-2.33466e-05 0.000238241 0)
(-2.26544e-05 0.000211224 0)
(-2.1829e-05 0.000185108 0)
(-2.08588e-05 0.000160041 0)
(1.12379e-05 3.45691e-05 0)
(1.31126e-05 4.89366e-05 0)
(1.48432e-05 6.54105e-05 0)
(1.64323e-05 8.38246e-05 0)
(2.33302e-05 0.000238232 0)
(2.26398e-05 0.000211223 0)
(-1.12457e-05 3.45718e-05 0)
(-1.31202e-05 4.89396e-05 0)
(2.18102e-05 0.000185104 0)
(-1.4852e-05 6.54136e-05 0)
(2.08431e-05 0.000160036 0)
(-1.6442e-05 8.38278e-05 0)
(-3.34159e-06 4.45607e-06 0)
(1.31359e-06 1.22313e-06 0)
(-1.75813e-06 3.19262e-06 0)
(8.6836e-06 0.000132809 0)
(-9.51111e-06 0.00013678 0)
(1.67725e-06 2.0007e-06 0)
(-2.59086e-07 4.32703e-08 0)
(-2.10469e-05 0.000282462 0)
(1.20694e-05 0.000359564 0)
(1.35433e-05 0.000360245 0)
(2.58871e-07 4.32403e-08 0)
(3.78218e-06 5.00319e-06 0)
(1.8895e-05 0.000327179 0)
(-7.1512e-06 0.00015132 0)
(-4.59679e-07 3.98603e-07 0)
(-1.04194e-06 1.60284e-06 0)
(-1.62438e-07 4.14902e-08 0)
(3.04935e-07 2.34724e-07 0)
(1.94609e-05 0.000120416 0)
(-1.93961e-05 0.000119014 0)
(5.96314e-06 9.06291e-05 0)
(-7.3293e-06 0.000148533 0)
(6.19246e-06 9.29724e-05 0)
(-3.13341e-07 5.33413e-06 0)
(-4.51874e-06 0.00023819 0)
(3.58248e-06 0.000113564 0)
(-2.51712e-06 0.000235589 0)
(-2.40565e-06 0.000182456 0)
(1.03347e-06 2.32733e-05 0)
(1.97303e-06 0.000111491 0)
(-7.97677e-06 0.000150544 0)
(4.03113e-06 5.30205e-06 0)
(6.67879e-06 9.13181e-05 0)
(2.49491e-06 0.000134752 0)
(1.89888e-05 0.000337932 0)
(-5.75485e-06 0.000135871 0)
(-6.61846e-06 0.000136801 0)
(-5.30015e-06 1.12612e-05 0)
(-6.41909e-06 0.000141175 0)
(-5.48797e-06 0.00014019 0)
(5.71942e-06 9.91516e-05 0)
(5.0255e-06 0.000100136 0)
(-5.9658e-06 2.75038e-05 0)
(1.25637e-05 0.00017346 0)
(1.3532e-05 0.000225771 0)
(-1.63467e-06 1.80493e-06 0)
(-7.99126e-06 0.000149328 0)
(6.7258e-06 9.23437e-05 0)
(-5.09604e-06 0.000192455 0)
(-5.42847e-06 0.000246122 0)
(2.89368e-06 4.43052e-05 0)
(3.6782e-06 7.80935e-05 0)
(3.30219e-06 6.02056e-05 0)
(-2.61569e-06 1.21653e-05 0)
(-1.67294e-05 0.000203028 0)
(-1.58525e-05 0.000202382 0)
(8.78377e-06 3.86319e-05 0)
(8.35626e-06 3.89688e-05 0)
(1.10319e-05 0.000160913 0)
(1.21275e-05 0.000160115 0)
(-5.89527e-06 3.38425e-05 0)
(-6.52853e-06 3.42931e-05 0)
(1.19767e-05 0.000212213 0)
(1.3173e-05 0.000211344 0)
(-4.80484e-06 0.00031456 0)
(9.62654e-06 0.000287112 0)
(9.76492e-06 0.000285765 0)
(-7.07426e-06 9.29809e-05 0)
(8.34887e-06 0.000148496 0)
(-2.521e-05 0.000350652 0)
(-7.25024e-06 0.000279425 0)
(-6.96234e-06 0.000278108 0)
(2.39516e-06 1.77059e-05 0)
(2.46122e-06 1.72531e-05 0)
(2.17847e-05 0.000282549 0)
(-9.59119e-06 0.000119495 0)
(-8.23283e-06 0.000119536 0)
(2.15535e-05 0.000319216 0)
(-2.17736e-05 0.000336595 0)
(-2.17454e-05 0.000338206 0)
(-6.51663e-07 3.29925e-06 0)