/*--------------------------------*- C++ -*----------------------------------*\
| =========                 |                                                 |
| \\      /  F ield         | OpenFOAM: The Open Source CFD Toolbox           |
|  \\    /   O peration     | Version:  2.3.1                                 |
|   \\  /    A nd           | Web:      www.OpenFOAM.org                      |
|    \\/     M anipulation  |                                                 |
\*---------------------------------------------------------------------------*/
FoamFile
{
    version     2.0;
    format      ascii;
    class       surfaceScalarField;
    location    "0.1";
    object      phi;
}
// * * * * * * * * * * * * * * * * * * * * * * * * * * * * * * * * * * * * * //

dimensions      [0 3 -1 0 0 0 0];

internalField   nonuniform List<scalar> 
1460
(
-1.79728e-07
1.79728e-07
-5.5008e-07
3.70352e-07
-1.04101e-06
4.90929e-07
-1.59334e-06
5.52331e-07
-2.14371e-06
5.50372e-07
-2.639e-06
4.95287e-07
-3.04552e-06
4.06517e-07
-3.34886e-06
3.03344e-07
-3.54987e-06
2.01008e-07
-3.6609e-06
1.11027e-07
-3.70275e-06
4.18526e-08
-8.0557e-09
-3.69469e-06
-8.10186e-07
9.89914e-07
-1.70138e-06
1.26155e-06
-2.50126e-06
1.29081e-06
-3.15471e-06
1.20578e-06
-3.63835e-06
1.03402e-06
-3.95641e-06
8.13345e-07
-4.12925e-06
5.79353e-07
-4.18368e-06
3.57773e-07
-4.14615e-06
1.63478e-07
-4.02508e-06
-1.00398e-08
-3.85409e-06
-1.29134e-07
-1.99373e-07
-3.66278e-06
-9.04347e-07
1.89426e-06
-1.76655e-06
2.12375e-06
-2.41322e-06
1.93748e-06
-2.84268e-06
1.63523e-06
-3.08753e-06
1.27887e-06
-3.19137e-06
9.17188e-07
-3.19383e-06
5.81812e-07
-3.12691e-06
2.90848e-07
-3.02047e-06
5.70386e-08
-2.90693e-06
-1.23575e-07
-2.75427e-06
-2.81796e-07
-3.81075e-07
-2.57257e-06
-7.8373e-07
2.67799e-06
-1.52039e-06
2.86041e-06
-2.05327e-06
2.47037e-06
-2.42294e-06
2.0049e-06
-2.66564e-06
1.52158e-06
-2.7926e-06
1.04415e-06
-2.80496e-06
5.94169e-07
-2.70679e-06
1.92679e-07
-2.51021e-06
-1.39548e-07
-2.26758e-06
-3.662e-07
-2.02483e-06
-5.24551e-07
-6.18819e-07
-1.78708e-06
-6.55214e-07
3.3332e-06
-1.29042e-06
3.49561e-06
-1.77677e-06
2.95673e-06
-2.14536e-06
2.37348e-06
-2.38777e-06
1.76399e-06
-2.47609e-06
1.13247e-06
-2.40335e-06
5.21433e-07
-2.20414e-06
-6.52613e-09
-1.91513e-06
-4.28566e-07
-1.5796e-06
-7.01723e-07
-1.25023e-06
-8.53924e-07
-9.15496e-07
-9.53554e-07
-5.44449e-07
3.87765e-06
-1.10832e-06
4.05948e-06
-1.59353e-06
3.44194e-06
-2.00307e-06
2.78302e-06
-2.28107e-06
2.04199e-06
-2.35768e-06
1.20908e-06
-2.21131e-06
3.75062e-07
-1.8531e-06
-3.64734e-07
-1.3961e-06
-8.85566e-07
-9.22715e-07
-1.17511e-06
-4.94704e-07
-1.28193e-06
-1.27023e-06
-1.39973e-07
-4.33151e-07
4.31081e-06
-9.3804e-07
4.56437e-06
-1.44871e-06
3.9526e-06
-1.94898e-06
3.28329e-06
-2.32808e-06
2.42109e-06
-2.42967e-06
1.31067e-06
-2.18769e-06
1.33082e-07
-1.6199e-06
-9.32529e-07
-9.22745e-07
-1.58272e-06
-2.5312e-07
-1.84473e-06
2.99379e-07
-1.83443e-06
-1.68327e-06
7.12428e-07
-2.92994e-07
4.6038e-06
-7.25605e-07
4.99698e-06
-1.28859e-06
4.51559e-06
-1.97658e-06
3.97128e-06
-2.56787e-06
3.01239e-06
-2.73642e-06
1.47922e-06
-2.32026e-06
-2.83083e-07
-1.48517e-06
-1.76762e-06
-4.80369e-07
-2.58752e-06
4.37712e-07
-2.76281e-06
1.13845e-06
-2.53517e-06
-2.15388e-06
1.60905e-06
-6.79552e-08
4.67175e-06
-4.11977e-07
5.341e-06
-1.04829e-06
5.1519e-06
-1.94948e-06
4.87247e-06
-2.69228e-06
3.75519e-06
-2.79127e-06
1.57821e-06
-2.18618e-06
-8.88174e-07
-1.07495e-06
-2.87885e-06
1.7273e-07
-3.8352e-06
1.25796e-06
-3.84804e-06
2.04594e-06
-3.32315e-06
-2.64825e-06
2.54031e-06
2.54775e-07
4.41698e-06
6.54675e-08
5.53031e-06
-5.0389e-07
5.72126e-06
-1.37253e-06
5.74111e-06
-1.96641e-06
4.34908e-06
-1.84082e-06
1.45262e-06
-1.05435e-06
-1.67465e-06
1.53065e-07
-4.08626e-06
1.3839e-06
-5.06603e-06
2.38451e-06
-4.84864e-06
3.07803e-06
-4.01668e-06
-3.06656e-06
3.49635e-06
8.1843e-07
3.59855e-06
9.37532e-07
5.41121e-06
6.26299e-07
6.03249e-06
1.8323e-07
6.18418e-06
3.09675e-08
4.50134e-06
3.66919e-07
1.11667e-06
1.24514e-06
-2.55287e-06
2.27664e-06
-5.11776e-06
3.18255e-06
-5.97194e-06
3.83488e-06
-5.50097e-06
4.24267e-06
-4.42447e-06
-3.29432e-06
4.47042e-06
1.05139e-06
2.54716e-06
1.97084e-06
4.49175e-06
2.32105e-06
5.68228e-06
2.53322e-06
5.97201e-06
2.91542e-06
4.11913e-06
3.49437e-06
5.37719e-07
4.24445e-06
-3.30296e-06
4.86773e-06
-5.74103e-06
5.24119e-06
-6.3454e-06
5.39701e-06
-5.6568e-06
5.43419e-06
-4.46165e-06
5.42812e-06
-3.28824e-06
-3.64254e-06
-5.21526e-08
-3.56119e-06
-8.13517e-08
-3.4574e-06
-1.03792e-07
-3.33083e-06
-1.26562e-07
-3.15671e-06
-1.74121e-07
-2.92196e-06
-2.34754e-07
-2.60662e-06
-3.15344e-07
-2.18637e-06
-4.20243e-07
-1.64239e-06
-5.43983e-07
-9.90253e-07
-6.52137e-07
-3.43567e-07
-6.46685e-07
-3.43567e-07
-3.45955e-06
-2.55379e-07
-3.24093e-06
-2.99971e-07
-3.00706e-06
-3.37657e-07
-2.75873e-06
-3.749e-07
-2.51269e-06
-4.2016e-07
-2.26716e-06
-4.80277e-07
-2.01698e-06
-5.65523e-07
-1.74687e-06
-6.90352e-07
-1.42239e-06
-8.68472e-07
-9.93001e-07
-1.08152e-06
-4.48403e-07
-1.19128e-06
-7.9197e-07
-2.38369e-06
-4.44258e-07
-2.19902e-06
-4.84644e-07
-2.02248e-06
-5.14196e-07
-1.85294e-06
-5.44434e-07
-1.68753e-06
-5.85569e-07
-1.52217e-06
-6.45638e-07
-1.3554e-06
-7.32298e-07
-1.18966e-06
-8.56093e-07
-1.02312e-06
-1.03501e-06
-8.15165e-07
-1.28947e-06
-4.80685e-07
-1.52576e-06
-1.27266e-06
-1.56493e-06
-6.66406e-07
-1.36446e-06
-6.85114e-07
-1.18804e-06
-6.90622e-07
-1.03621e-06
-6.96264e-07
-9.08313e-07
-7.13465e-07
-8.01435e-07
-7.52515e-07
-7.10362e-07
-8.23371e-07
-6.28774e-07
-9.37681e-07
-5.62062e-07
-1.10172e-06
-4.96489e-07
-1.35505e-06
-3.80836e-07
-1.64141e-06
-1.65349e-06
-7.01698e-07
-9.18262e-07
-4.97565e-07
-8.89248e-07
-3.39413e-07
-8.48773e-07
-2.23615e-07
-8.12062e-07
-1.45952e-07
-7.91128e-07
-1.02217e-07
-7.9625e-07
-8.78786e-08
-8.37709e-07
-9.67025e-08
-9.28857e-07
-1.23937e-07
-1.07449e-06
-1.56771e-07
-1.32221e-06
-2.06387e-07
-1.5918e-06
-1.85988e-06
1.36655e-07
-1.19489e-06
3.41496e-07
-1.09409e-06
4.83569e-07
-9.90846e-07
5.70786e-07
-8.9928e-07
6.08503e-07
-8.28845e-07
6.00461e-07
-7.88207e-07
5.48306e-07
-7.85555e-07
4.55675e-07
-8.36226e-07
3.27592e-07
-9.46407e-07
1.77275e-07
-1.1719e-06
1.03799e-08
-1.4249e-06
-1.8495e-06
1.00303e-06
-1.48549e-06
1.19726e-06
-1.28832e-06
1.31583e-06
-1.10942e-06
1.37137e-06
-9.54815e-07
1.37021e-06
-8.2769e-07
1.31435e-06
-7.32348e-07
1.20367e-06
-6.74875e-07
1.03658e-06
-6.69135e-07
8.12344e-07
-7.22166e-07
5.36322e-07
-8.95874e-07
2.32905e-07
-1.12149e-06
-1.61659e-06
1.89914e-06
-1.77558e-06
2.06653e-06
-1.45571e-06
2.15117e-06
-1.19406e-06
2.17258e-06
-9.76223e-07
2.13683e-06
-7.91947e-07
2.04314e-06
-6.38656e-07
1.88589e-06
-5.17626e-07
1.65758e-06
-4.4082e-07
1.34756e-06
-4.1215e-07
9.50441e-07
-4.98753e-07
4.75667e-07
-6.46713e-07
-1.14093e-06
2.81181e-06
-2.04707e-06
2.94079e-06
-1.5847e-06
2.98478e-06
-1.23804e-06
2.97149e-06
-9.62931e-07
2.90708e-06
-7.27537e-07
2.78622e-06
-5.17803e-07
2.59736e-06
-3.28762e-07
2.32306e-06
-1.66522e-07
1.94505e-06
-3.41389e-08
1.43668e-06
9.62128e-09
7.77408e-07
1.25569e-08
-3.63519e-07
3.71119e-06
-2.26192e-06
3.79496e-06
-1.66847e-06
3.80138e-06
-1.24446e-06
3.75887e-06
-9.20417e-07
3.674e-06
-6.42667e-07
3.53898e-06
-3.8279e-07
3.3373e-06
-1.2708e-07
3.04657e-06
1.24213e-07
2.62813e-06
3.84294e-07
2.0205e-06
6.17258e-07
1.14441e-06
8.88639e-07
7.80895e-07
4.57827e-06
-2.36977e-06
4.6075e-06
-1.6977e-06
4.58465e-06
-1.22161e-06
4.52443e-06
-8.60199e-07
4.43022e-06
-5.48452e-07
4.29457e-06
-2.47137e-07
4.10056e-06
6.69266e-08
3.82179e-06
4.02979e-07
3.4176e-06
7.88487e-07
2.78809e-06
1.24677e-06
1.82302e-06
1.85371e-06
2.60392e-06
5.40855e-06
-2.3502e-06
5.37766e-06
-1.66682e-06
5.33005e-06
-1.174e-06
5.2615e-06
-7.91646e-07
5.16853e-06
-4.55481e-07
5.04285e-06
-1.21462e-07
4.87267e-06
2.37107e-07
4.63666e-06
6.38992e-07
4.30332e-06
1.12183e-06
3.74715e-06
1.80294e-06
2.76819e-06
2.83267e-06
5.3721e-06
-1.79724e-07
1.79724e-07
-5.50117e-07
3.70393e-07
-1.04114e-06
4.91019e-07
-1.59358e-06
5.52447e-07
-2.14407e-06
5.50485e-07
-2.63944e-06
4.95369e-07
-3.04599e-06
4.06554e-07
-3.34933e-06
3.03337e-07
-3.55029e-06
2.00962e-07
-3.66125e-06
1.10957e-07
-3.70302e-06
4.17701e-08
-8.16437e-09
-3.69485e-06
-8.10289e-07
9.90014e-07
-1.70161e-06
1.26172e-06
-2.5016e-06
1.291e-06
-3.15509e-06
1.20594e-06
-3.63871e-06
1.03411e-06
-3.95669e-06
8.13341e-07
-4.1294e-06
5.79269e-07
-4.1837e-06
3.57634e-07
-4.14604e-06
1.63306e-07
-4.0248e-06
-1.02839e-08
-3.85377e-06
-1.29266e-07
-1.99504e-07
-3.66243e-06
-9.04444e-07
1.89446e-06
-1.76671e-06
2.12398e-06
-2.41338e-06
1.93767e-06
-2.84276e-06
1.63532e-06
-3.08749e-06
1.27883e-06
-3.1912e-06
9.17052e-07
-3.19355e-06
5.81621e-07
-3.12656e-06
2.9064e-07
-3.0201e-06
5.68504e-08
-2.90656e-06
-1.23829e-07
-2.75384e-06
-2.81987e-07
-3.81233e-07
-2.57211e-06
-7.83792e-07
2.67825e-06
-1.52047e-06
2.86067e-06
-2.05333e-06
2.47053e-06
-2.42294e-06
2.00493e-06
-2.6656e-06
1.5215e-06
-2.79253e-06
1.04398e-06
-2.80485e-06
5.93941e-07
-2.70662e-06
1.92414e-07
-2.50999e-06
-1.39782e-07
-2.26738e-06
-3.66439e-07
-2.02461e-06
-5.24758e-07
-6.18985e-07
-1.78686e-06
-6.55248e-07
3.3335e-06
-1.29045e-06
3.49587e-06
-1.77678e-06
2.95686e-06
-2.14534e-06
2.37349e-06
-2.38772e-06
1.76388e-06
-2.47603e-06
1.13228e-06
-2.40328e-06
5.21192e-07
-2.20407e-06
-6.79373e-09
-1.91501e-06
-4.2884e-07
-1.57948e-06
-7.01977e-07
-1.2501e-06
-8.54138e-07
-9.15661e-07
-9.5342e-07
-5.44441e-07
3.87794e-06
-1.10829e-06
4.05971e-06
-1.59346e-06
3.44204e-06
-2.003e-06
2.78303e-06
-2.28105e-06
2.04193e-06
-2.35773e-06
1.20896e-06
-2.2114e-06
3.74861e-07
-1.85318e-06
-3.65014e-07
-1.39613e-06
-8.85881e-07
-9.22705e-07
-1.17541e-06
-4.94663e-07
-1.28218e-06
-1.2704e-06
-1.39927e-07
-4.33072e-07
4.31101e-06
-9.37901e-07
4.56454e-06
-1.44859e-06
3.95273e-06
-1.94899e-06
3.28343e-06
-2.32831e-06
2.42124e-06
-2.43008e-06
1.31073e-06
-2.18815e-06
1.32935e-07
-1.62028e-06
-9.32884e-07
-9.22992e-07
-1.58317e-06
-2.53244e-07
-1.84515e-06
2.99328e-07
-1.83475e-06
-1.68347e-06
7.12396e-07
-2.92843e-07
4.60386e-06
-7.25398e-07
4.9971e-06
-1.2885e-06
4.51583e-06
-1.97676e-06
3.9717e-06
-2.56838e-06
3.01286e-06
-2.73706e-06
1.47941e-06
-2.32082e-06
-2.83299e-07
-1.48557e-06
-1.76814e-06
-4.80587e-07
-2.58815e-06
4.37629e-07
-2.76337e-06
1.13844e-06
-2.53556e-06
-2.15408e-06
1.60905e-06
-6.77126e-08
4.67157e-06
-4.11723e-07
5.34111e-06
-1.0482e-06
5.15231e-06
-1.94968e-06
4.87317e-06
-2.69263e-06
3.75581e-06
-2.79158e-06
1.57835e-06
-2.18633e-06
-8.88541e-07
-1.07494e-06
-2.87953e-06
1.72836e-07
-3.83593e-06
1.2581e-06
-3.84864e-06
2.04609e-06
-3.32355e-06
-2.64842e-06
2.54043e-06
2.55067e-07
4.4165e-06
6.57829e-08
5.53039e-06
-5.03706e-07
5.7218e-06
-1.37247e-06
5.74194e-06
-1.96632e-06
4.34966e-06
-1.84059e-06
1.45262e-06
-1.05397e-06
-1.67516e-06
1.53499e-07
-4.087e-06
1.38432e-06
-5.06674e-06
2.38487e-06
-4.84919e-06
3.07833e-06
-4.01701e-06
-3.06665e-06
3.49657e-06
8.18651e-07
3.59785e-06
9.37853e-07
5.41119e-06
6.26604e-07
6.03304e-06
1.83571e-07
6.18497e-06
3.1433e-08
4.5018e-06
3.67468e-07
1.11658e-06
1.24568e-06
-2.55337e-06
2.27708e-06
-5.11841e-06
3.18289e-06
-5.97255e-06
3.83516e-06
-5.50146e-06
4.24292e-06
-4.42477e-06
-3.29437e-06
4.47064e-06
1.05147e-06
2.54638e-06
1.97108e-06
4.49159e-06
2.32135e-06
5.68277e-06
2.53359e-06
5.97274e-06
2.91585e-06
4.11954e-06
3.49476e-06
5.37675e-07
4.24473e-06
-3.30334e-06
4.86781e-06
-5.7415e-06
5.24111e-06
-6.34585e-06
5.39689e-06
-5.65724e-06
5.43415e-06
-4.46203e-06
5.42816e-06
-3.28838e-06
-3.6426e-06
-5.22554e-08
-3.56116e-06
-8.14428e-08
-3.45729e-06
-1.03862e-07
-3.33069e-06
-1.26603e-07
-3.15656e-06
-1.74133e-07
-2.92184e-06
-2.34722e-07
-2.60655e-06
-3.15286e-07
-2.18637e-06
-4.20178e-07
-1.64243e-06
-5.43937e-07
-9.90303e-07
-6.52132e-07
-3.43587e-07
-6.46716e-07
-3.43587e-07
-3.45919e-06
-2.55494e-07
-3.24057e-06
-3.00058e-07
-3.00673e-06
-3.37705e-07
-2.75843e-06
-3.74902e-07
-2.51245e-06
-4.20114e-07
-2.26699e-06
-4.80185e-07
-2.01688e-06
-5.65394e-07
-1.74685e-06
-6.90209e-07
-1.42242e-06
-8.68358e-07
-9.93066e-07
-1.08149e-06
-4.4844e-07
-1.19134e-06
-7.92027e-07
-2.38322e-06
-4.44379e-07
-2.19856e-06
-4.84718e-07
-2.02205e-06
-5.14217e-07
-1.85256e-06
-5.44395e-07
-1.6872e-06
-5.85474e-07
-1.52189e-06
-6.4549e-07
-1.35518e-06
-7.32108e-07
-1.1895e-06
-8.55884e-07
-1.02303e-06
-1.03483e-06
-8.15141e-07
-1.28938e-06
-4.80699e-07
-1.52578e-06
-1.27273e-06
-1.56471e-06
-6.66526e-07
-1.36424e-06
-6.85185e-07
-1.18782e-06
-6.9064e-07
-1.03598e-06
-6.96232e-07
-9.08075e-07
-7.13381e-07
-8.01186e-07
-7.52379e-07
-7.10106e-07
-8.23188e-07
-6.28528e-07
-9.37462e-07
-5.61835e-07
-1.10152e-06
-4.96309e-07
-1.35491e-06
-3.80759e-07
-1.64133e-06
-1.65349e-06
-7.01573e-07
-9.18373e-07
-4.9745e-07
-8.89307e-07
-3.39307e-07
-8.48784e-07
-2.23509e-07
-8.1203e-07
-1.45835e-07
-7.91055e-07
-1.02074e-07
-7.9614e-07
-8.7697e-08
-8.37565e-07
-9.64718e-08
-9.28687e-07
-1.23675e-07
-1.07432e-06
-1.56527e-07
-1.32206e-06
-2.06229e-07
-1.59163e-06
-1.85971e-06
1.36689e-07
-1.19499e-06
3.41511e-07
-1.09413e-06
4.8357e-07
-9.90842e-07
5.70784e-07
-8.99244e-07
6.08516e-07
-8.28787e-07
6.00506e-07
-7.8813e-07
5.48393e-07
-7.85453e-07
4.55815e-07
-8.36108e-07
3.27771e-07
-9.46273e-07
1.77449e-07
-1.17174e-06
1.05026e-08
-1.42469e-06
-1.84921e-06
1.00298e-06
-1.48557e-06
1.19718e-06
-1.28832e-06
1.31572e-06
-1.10938e-06
1.37123e-06
-9.5476e-07
1.37008e-06
-8.27631e-07
1.31424e-06
-7.32291e-07
1.2036e-06
-6.74814e-07
1.03655e-06
-6.69064e-07
8.12352e-07
-7.2207e-07
5.3635e-07
-8.95735e-07
2.32914e-07
-1.12125e-06
-1.6163e-06
1.89911e-06
-1.77563e-06
2.06644e-06
-1.45566e-06
2.15101e-06
-1.19395e-06
2.17236e-06
-9.76112e-07
2.13658e-06
-7.91856e-07
2.04289e-06
-6.38593e-07
1.88565e-06
-5.17583e-07
1.65736e-06
-4.40774e-07
1.34738e-06
-4.12088e-07
9.50299e-07
-4.98652e-07
4.75554e-07
-6.46505e-07
-1.14074e-06
2.81185e-06
-2.04705e-06
2.94075e-06
-1.58455e-06
2.98463e-06
-1.23784e-06
2.97125e-06
-9.62733e-07
2.90678e-06
-7.27384e-07
2.78589e-06
-5.17704e-07
2.59703e-06
-3.2872e-07
2.32273e-06
-1.66469e-07
1.94476e-06
-3.41234e-08
1.43644e-06
9.6677e-09
7.77273e-07
1.26627e-08
-3.63471e-07
3.71131e-06
-2.26179e-06
3.79496e-06
-1.66819e-06
3.80125e-06
-1.24413e-06
3.75863e-06
-9.20112e-07
3.67368e-06
-6.42431e-07
3.53861e-06
-3.82635e-07
3.33689e-06
-1.27005e-07
3.04619e-06
1.24237e-07
2.62779e-06
3.84276e-07
2.02024e-06
6.17221e-07
1.14425e-06
8.88646e-07
7.80781e-07
4.5784e-06
-2.36956e-06
4.60751e-06
-1.6973e-06
4.58452e-06
-1.22115e-06
4.52419e-06
-8.59774e-07
4.42988e-06
-5.48129e-07
4.29416e-06
-2.46913e-07
4.10012e-06
6.70338e-08
3.82137e-06
4.02996e-07
3.41721e-06
7.88434e-07
2.78777e-06
1.24666e-06
1.82282e-06
1.85359e-06
2.6036e-06
5.40859e-06
-2.34999e-06
5.37763e-06
-1.66634e-06
5.3299e-06
-1.17341e-06
5.26123e-06
-7.91099e-07
5.16815e-06
-4.55056e-07
5.04242e-06
-1.21175e-07
4.8722e-06
2.37253e-07
4.63618e-06
6.39009e-07
4.30288e-06
1.12174e-06
3.74677e-06
1.80277e-06
2.76792e-06
2.83244e-06
5.37152e-06
3.51766e-06
4.10763e-06
-5.07813e-06
3.68434e-06
4.32507e-06
4.29134e-06
5.07528e-06
5.12247e-06
5.14088e-06
5.95436e-06
3.28725e-06
6.75005e-06
-2.57976e-07
7.2493e-06
-3.8022e-06
7.34132e-06
-5.83305e-06
7.1226e-06
-6.12668e-06
6.79336e-06
-5.32756e-06
6.50908e-06
-4.17737e-06
-3.09641e-06
6.31725e-06
6.59997e-06
4.51853e-06
-7.01086e-06
6.42123e-06
4.50381e-06
6.82951e-06
4.667e-06
7.77407e-06
4.19632e-06
8.85173e-06
2.20958e-06
9.58093e-06
-9.87174e-07
9.68251e-06
-3.90378e-06
9.22422e-06
-5.37476e-06
8.51296e-06
-5.41542e-06
7.85834e-06
-4.67294e-06
7.3932e-06
-3.71224e-06
-2.80993e-06
7.10672e-06
8.59765e-06
4.02445e-06
-8.10358e-06
8.97548e-06
4.12598e-06
9.58687e-06
4.05561e-06
1.05016e-05
3.28162e-06
1.13026e-05
1.40851e-06
1.15855e-05
-1.27007e-06
1.11745e-05
-3.49278e-06
1.03102e-05
-4.51043e-06
9.37534e-06
-4.48056e-06
8.62232e-06
-3.91992e-06
8.11274e-06
-3.20266e-06
-2.49107e-06
7.79388e-06
9.36897e-06
-8.65862e-06
1.01581e-05
1.10657e-05
1.19606e-05
1.23812e-05
1.22541e-05
1.16244e-05
1.07556e-05
9.91128e-06
9.22746e-06
8.73251e-06
8.39492e-06
6.19802e-06
-2.23097e-06
6.11612e-06
-1.58492e-06
6.04464e-06
-1.10252e-06
5.96883e-06
-7.15839e-07
5.88159e-06
-3.68234e-07
5.77309e-06
-1.2971e-08
5.63545e-06
3.74753e-07
5.46187e-06
8.12565e-07
5.24497e-06
1.33874e-06
4.97338e-06
2.07453e-06
4.78438e-06
3.02166e-06
5.0774e-06
6.93446e-06
-2.05871e-06
6.82006e-06
-1.47052e-06
6.7296e-06
-1.01205e-06
6.64693e-06
-6.33174e-07
6.56641e-06
-2.87714e-07
6.47666e-06
7.67744e-08
6.37219e-06
4.79226e-07
6.26201e-06
9.22746e-07
6.16915e-06
1.43159e-06
6.15672e-06
2.08697e-06
6.3623e-06
2.81608e-06
4.42839e-06
7.59386e-06
-1.85869e-06
7.46043e-06
-1.33708e-06
7.3622e-06
-9.13821e-07
7.28347e-06
-5.54441e-07
7.21988e-06
-2.2413e-07
7.14833e-06
1.48328e-07
7.07145e-06
5.561e-07
7.00626e-06
9.87942e-07
6.98989e-06
1.44796e-06
7.07896e-06
1.99789e-06
7.30809e-06
2.58696e-06
3.63263e-06
8.17396e-06
8.03009e-06
7.9311e-06
7.86129e-06
7.83002e-06
7.78192e-06
7.72594e-06
7.68132e-06
7.69588e-06
7.82374e-06
8.05398e-06
3.51765e-06
4.10725e-06
3.68433e-06
4.3249e-06
4.29149e-06
5.07561e-06
5.12272e-06
5.14151e-06
5.95458e-06
3.28767e-06
6.75016e-06
-2.57899e-07
7.24919e-06
-3.80237e-06
7.34096e-06
-5.83327e-06
7.12204e-06
-6.12692e-06
6.79278e-06
-5.32799e-06
6.50864e-06
-4.17789e-06
-3.09672e-06
6.31698e-06
6.59968e-06
4.51849e-06
6.42084e-06
4.50374e-06
6.82923e-06
4.66722e-06
7.77393e-06
4.19681e-06
8.85159e-06
2.21001e-06
9.58067e-06
-9.86977e-07
9.68206e-06
-3.90376e-06
9.22358e-06
-5.37479e-06
8.51218e-06
-5.41553e-06
7.85756e-06
-4.67336e-06
7.39252e-06
-3.71284e-06
-2.81035e-06
7.10614e-06
8.59734e-06
4.0247e-06
8.97494e-06
4.12615e-06
9.58626e-06
4.0559e-06
1.0501e-05
3.28205e-06
1.13021e-05
1.40888e-06
1.1585e-05
-1.26986e-06
1.1174e-05
-3.49276e-06
1.03097e-05
-4.51046e-06
9.37476e-06
-4.4806e-06
8.62174e-06
-3.92034e-06
8.11203e-06
-3.20313e-06
-2.49134e-06
7.79302e-06
9.36873e-06
1.01576e-05
1.10652e-05
1.19601e-05
1.23808e-05
1.22538e-05
1.16244e-05
1.07558e-05
9.91156e-06
9.22735e-06
8.73165e-06
8.3937e-06
6.19787e-06
-2.23088e-06
6.11598e-06
-1.58445e-06
6.04443e-06
-1.10187e-06
5.96853e-06
-7.15199e-07
5.88119e-06
-3.67717e-07
5.77263e-06
-1.26077e-08
5.63494e-06
3.74942e-07
5.46136e-06
8.12588e-07
5.24448e-06
1.33862e-06
4.97292e-06
2.07433e-06
4.7839e-06
3.02146e-06
5.07729e-06
6.93399e-06
-2.05873e-06
6.81968e-06
-1.47014e-06
6.72924e-06
-1.01143e-06
6.64656e-06
-6.32512e-07
6.56598e-06
-2.87142e-07
6.47617e-06
7.72081e-08
6.37165e-06
4.79464e-07
6.26145e-06
9.22781e-07
6.16862e-06
1.43145e-06
6.15625e-06
2.0867e-06
6.36189e-06
2.81582e-06
4.42832e-06
7.593e-06
-1.85871e-06
7.45969e-06
-1.33682e-06
7.36159e-06
-9.13336e-07
7.28294e-06
-5.53866e-07
7.21938e-06
-2.23582e-07
7.14778e-06
1.4881e-07
7.07087e-06
5.56374e-07
7.00566e-06
9.87991e-07
6.98932e-06
1.44779e-06
7.07847e-06
1.99755e-06
7.3077e-06
2.58659e-06
3.63244e-06
8.17276e-06
8.02904e-06
7.93023e-06
7.86058e-06
7.82944e-06
7.7813e-06
7.72532e-06
7.68068e-06
7.69527e-06
7.82324e-06
8.05362e-06
)
;

boundaryField
{
    rotor
    {
        type            calculated;
        value           nonuniform List<scalar> 
96
(
6.99209e-23
-4.53099e-23
1.38467e-23
-2.76615e-23
1.26963e-23
-1.11417e-23
3.20742e-23
-2.03149e-23
-1.13253e-23
2.27142e-25
-4.27285e-24
-1.65143e-23
6.22439e-23
4.2249e-23
-3.73777e-23
-4.56366e-23
4.00917e-23
9.01274e-23
8.96525e-23
6.72212e-23
9.62689e-23
2.05484e-23
1.74681e-23
1.31831e-22
-8.83414e-23
-2.46609e-22
3.0707e-23
6.15824e-24
1.05819e-22
5.26506e-23
-2.65858e-24
4.89298e-23
-8.68906e-25
2.40406e-24
-1.10751e-23
5.23376e-24
3.67272e-23
-6.62287e-23
4.31531e-23
-5.50827e-23
-5.1877e-24
1.89875e-23
-1.11206e-22
5.77356e-23
7.88648e-24
-7.4546e-23
-1.3331e-22
-1.22744e-22
-4.23516e-22
0
-8.47033e-22
0
0
0
8.47033e-22
0
0
-8.47033e-22
0
0
8.47033e-22
4.23516e-22
0
0
0
0
0
8.47033e-22
8.47033e-22
8.47033e-22
0
0
-4.23516e-22
-4.23516e-22
0
0
0
0
-8.47033e-22
8.47033e-22
0
-8.47033e-22
8.47033e-22
-1.69407e-21
4.23516e-22
-4.23516e-22
0
0
0
0
0
0
-8.47033e-22
0
0
1.69407e-21
)
;
    }
    stator
    {
        type            calculated;
        value           nonuniform 0();
    }
    AMI1
    {
        type            cyclicAMI;
        value           nonuniform List<scalar> 
48
(
3.3141e-06
3.33688e-06
3.14795e-06
2.38675e-06
9.87873e-07
-1.14292e-06
-2.86312e-06
-3.64156e-06
-3.63628e-06
-3.2361e-06
-2.70771e-06
-2.15348e-06
-1.63773e-06
-1.19321e-06
-8.14836e-07
-4.84627e-07
-1.92864e-07
1.96433e-07
6.12076e-07
1.03256e-06
1.4334e-06
1.87003e-06
2.35672e-06
3.0278e-06
3.31454e-06
3.33723e-06
3.14834e-06
2.38715e-06
9.88163e-07
-1.14283e-06
-2.86332e-06
-3.64186e-06
-3.6364e-06
-3.23613e-06
-2.70743e-06
-2.15339e-06
-1.63778e-06
-1.1931e-06
-8.14527e-07
-4.84216e-07
-1.92441e-07
1.96945e-07
6.12358e-07
1.03263e-06
1.4332e-06
1.86959e-06
2.35621e-06
3.02744e-06
)
;
    }
    AMI2
    {
        type            cyclicAMI;
        value           nonuniform 0();
    }
    front
    {
        type            empty;
        value           nonuniform 0();
    }
    back
    {
        type            empty;
        value           nonuniform 0();
    }
    procBoundary3to2
    {
        type            processor;
        value           nonuniform List<scalar> 8(5.07908e-06 7.01132e-06 8.10384e-06 8.65881e-06 -5.07853e-06 -7.01092e-06 -8.10354e-06 -8.65857e-06);
    }
}


// ************************************************************************* //
