/*--------------------------------*- C++ -*----------------------------------*\
| =========                 |                                                 |
| \\      /  F ield         | OpenFOAM: The Open Source CFD Toolbox           |
|  \\    /   O peration     | Version:  2.3.1                                 |
|   \\  /    A nd           | Web:      www.OpenFOAM.org                      |
|    \\/     M anipulation  |                                                 |
\*---------------------------------------------------------------------------*/
FoamFile
{
    version     2.0;
    format      ascii;
    class       volVectorField;
    location    "2920";
    object      D;
}
// * * * * * * * * * * * * * * * * * * * * * * * * * * * * * * * * * * * * * //

dimensions      [0 1 0 0 0 0 0];

internalField   nonuniform List<vector> 
11800
(
(8.73487e-06 0.000248907 0)
(-1.10455e-05 0.00027732 0)
(6.14427e-06 8.37239e-05 0)
(-7.01579e-06 0.00011392 0)
(-1.00915e-05 0.000276851 0)
(-4.54737e-06 0.000114144 0)
(-1.67711e-06 0.000186797 0)
(-1.59637e-06 0.000143965 0)
(7.33543e-07 2.20447e-05 0)
(1.33592e-06 8.68436e-05 0)
(9.69905e-06 0.000248318 0)
(-8.7432e-06 9.70928e-05 0)
(-8.56931e-09 -6.82176e-09 0)
(5.4607e-06 8.3218e-05 0)
(-6.22336e-06 0.000114401 0)
(5.99804e-06 1.35201e-05 0)
(-9.40823e-07 0.000186252 0)
(-9.11538e-07 0.000143449 0)
(4.13625e-07 2.22891e-05 0)
(8.24157e-07 8.64131e-05 0)
(-5.35072e-06 0.000113723 0)
(-8.01184e-06 9.74785e-05 0)
(-1.318e-06 4.7739e-06 0)
(-1.40676e-06 4.97148e-06 0)
(5.35143e-06 1.54448e-05 0)
(-2.10812e-06 7.91844e-06 0)
(-8.56831e-06 5.79224e-05 0)
(1.24386e-05 0.000167414 0)
(-7.63385e-06 4.39314e-05 0)
(-6.60816e-06 3.15831e-05 0)
(1.31743e-05 0.000211673 0)
(5.45818e-08 3.71637e-06 0)
(2.74403e-06 1.01814e-05 0)
(-6.71811e-06 0.000284581 0)
(5.44071e-06 0.0002833 0)
(-1.50178e-05 0.000226057 0)
(5.068e-06 0.000284277 0)
(2.70063e-06 1.04678e-05 0)
(-1.63987e-06 0.000197298 0)
(1.33923e-06 9.53734e-05 0)
(-8.42485e-06 5.85717e-05 0)
(-7.51368e-06 4.45103e-05 0)
(1.21515e-05 0.000166457 0)
(-6.5119e-06 3.20904e-05 0)
(1.28818e-05 0.000210666 0)
(5.72147e-06 1.36278e-05 0)
(1.51496e-06 5.65335e-06 0)
(1.68898e-06 5.56325e-06 0)
(-2.57275e-06 0.000197467 0)
(2.08761e-06 9.55075e-05 0)
(-1.42729e-05 0.000145876 0)
(-1.52457e-05 0.00018872 0)
(-1.40787e-06 0.00024625 0)
(7.65291e-08 3.52668e-06 0)
(-7.35536e-06 1.61036e-05 0)
(9.99626e-07 8.31535e-07 0)
(-1.87406e-05 0.000288482 0)
(-4.71541e-06 8.06025e-05 0)
(5.37932e-06 0.000117509 0)
(-3.4279e-06 7.74318e-05 0)
(1.9957e-06 2.65048e-06 0)
(-2.41903e-06 0.000246434 0)
(-4.10083e-06 8.04205e-05 0)
(4.69008e-06 0.000117727 0)
(5.01249e-06 1.52085e-05 0)
(-1.78919e-05 0.000255037 0)
(-1.48068e-05 0.000145239 0)
(-1.58701e-05 0.00018802 0)
(-1.78004e-05 0.000288016 0)
(-2.2122e-06 8.17563e-06 0)
(-5.98956e-06 0.000285379 0)
(-1.05689e-05 0.000283836 0)
(-1.08759e-05 0.000282828 0)
(-9.44584e-08 1.05996e-07 0)
(2.13114e-06 2.76433e-06 0)
(-1.41465e-05 0.000226691 0)
(6.56821e-06 2.13405e-05 0)
(-1.81821e-05 0.00025599 0)
(-1.448e-05 0.000258151 0)
(-1.35287e-05 0.000259013 0)
(-7.01182e-06 1.58831e-05 0)
(1.06712e-06 9.90322e-05 0)
(9.95449e-06 0.000281614 0)
(8.88487e-06 0.000281788 0)
(-1.29086e-06 0.000101778 0)
(-6.35082e-06 3.55658e-05 0)
(1.19091e-05 0.000203993 0)
(-7.25259e-06 4.84748e-05 0)
(-8.07924e-06 6.29994e-05 0)
(1.12027e-05 0.000160136 0)
(-3.30269e-07 0.000240929 0)
(2.91692e-06 9.67839e-06 0)
(-8.9968e-06 0.000259814 0)
(1.85841e-05 0.000290688 0)
(2.94381e-06 0.000125514 0)
(-2.28318e-09 -1.73642e-09 0)
(5.90095e-11 -3.68734e-10 0)
(2.28259e-09 -1.7361e-09 0)
(-1.99112e-07 0.000249275 0)
(-8.30084e-06 9.92391e-05 0)
(1.5995e-05 0.00028965 0)
(9.67418e-06 0.00010903 0)
(-3.53988e-06 1.41415e-05 0)
(-7.99455e-07 1.0916e-05 0)
(-5.2664e-07 0.000275611 0)
(9.70583e-07 2.30598e-05 0)
(-2.04779e-06 0.00014186 0)
(-2.12817e-06 0.000184465 0)
(3.09812e-06 5.2836e-06 0)
(7.30513e-06 4.84532e-05 0)
(6.39792e-06 3.55464e-05 0)
(8.1375e-06 6.29749e-05 0)
(-1.20853e-05 0.000204018 0)
(-1.13708e-05 0.000160171 0)
(1.72655e-06 8.50757e-05 0)
(2.45164e-06 4.81777e-06 0)
(1.77259e-05 0.000256079 0)
(-7.25891e-06 0.000262854 0)
(2.49659e-06 4.64201e-06 0)
(-1.21754e-06 8.79232e-05 0)
(-7.3034e-07 2.1463e-05 0)
(1.61571e-06 0.000188169 0)
(1.53393e-06 0.000145194 0)
(-2.24412e-06 0.000180457 0)
(-9.05547e-06 0.000260793 0)
(-7.98262e-07 0.000248498 0)
(-5.8195e-06 0.00027572 0)
(-1.35822e-06 0.000274971 0)
(-2.01113e-05 0.000298029 0)
(-2.08297e-05 0.000297308 0)
(-5.86332e-07 2.64234e-07 0)
(-2.65638e-06 6.2456e-06 0)
(1.22176e-05 0.000197936 0)
(-6.81679e-06 3.88844e-05 0)
(1.14505e-05 0.000154448 0)
(-7.72662e-06 5.22419e-05 0)
(-8.55994e-06 6.71781e-05 0)
(1.12726e-05 0.000198116 0)
(-6.28218e-06 3.87685e-05 0)
(1.05659e-05 0.000154615 0)
(-7.12242e-06 5.21135e-05 0)
(-7.89207e-06 6.70384e-05 0)
(-1.65975e-06 1.98801e-05 0)
(3.95511e-06 0.000191769 0)
(3.69102e-06 0.000148665 0)
(-3.14396e-06 9.07894e-05 0)
(1.52222e-05 9.965e-05 0)
(-1.51387e-05 9.74783e-05 0)
(9.51599e-06 0.00010982 0)
(-1.11952e-06 1.15835e-05 0)
(-1.00139e-05 0.000239819 0)
(-9.92742e-06 0.000241088 0)
(4.87801e-06 0.000281134 0)
(-1.11983e-05 0.000226372 0)
(4.48169e-06 0.000160056 0)
(4.86166e-06 0.000203886 0)
(-1.24743e-05 0.000179676 0)
(-1.15752e-05 0.000137406 0)
(5.87637e-06 2.54129e-05 0)
(-9.2355e-07 0.000241831 0)
(3.36815e-06 5.37743e-06 0)
(-1.02347e-05 0.000226595 0)
(6.87518e-06 2.1649e-05 0)
(-4.57932e-06 6.55688e-05 0)
(-4.12475e-06 5.07792e-05 0)
(-3.62878e-06 3.75819e-05 0)
(6.23152e-06 0.000156452 0)
(6.64098e-06 0.000200083 0)
(-2.97567e-06 3.69404e-06 0)
(-5.39431e-06 2.44481e-05 0)
(1.1628e-05 0.000181664 0)
(1.07822e-05 0.000139271 0)
(2.59063e-06 0.000184262 0)
(-1.71073e-05 0.000225007 0)
(-1.72797e-05 0.000226354 0)
(6.16221e-06 1.54717e-05 0)
(6.17013e-06 1.58978e-05 0)
(6.76039e-06 4.70533e-05 0)
(7.54734e-06 6.14177e-05 0)
(5.90327e-06 3.43148e-05 0)
(-1.06946e-05 0.000162326 0)
(-1.1353e-05 0.000206324 0)
(4.55916e-06 0.000159055 0)
(4.8886e-06 0.000202855 0)
(4.96341e-06 9.70879e-05 0)
(-2.38141e-06 9.05848e-05 0)
(-1.26324e-06 1.99824e-05 0)
(2.99134e-06 0.000191513 0)
(2.79052e-06 0.000148425 0)
(-3.90902e-06 0.000236545 0)
(-1.32769e-06 4.16427e-05 0)
(-1.4969e-06 5.53715e-05 0)
(-1.47238e-05 0.000253078 0)
(-4.08037e-07 9.50742e-06 0)
(-1.42244e-05 0.000119408 0)
(1.22742e-05 7.92206e-05 0)
(1.43359e-07 1.37854e-07 0)
(-8.81627e-06 0.000285034 0)
(1.76023e-05 0.000257108 0)
(-5.11441e-07 3.06615e-07 0)
(1.15918e-05 0.000269463 0)
(1.44821e-05 0.000230339 0)
(1.55329e-05 0.000230527 0)
(-4.63391e-07 0.000277006 0)
(-1.18853e-06 0.000277892 0)
(8.20614e-06 7.73083e-05 0)
(7.24785e-06 7.76498e-05 0)
(-9.70546e-06 0.000121436 0)
(-8.55195e-06 0.000121011 0)
(5.7748e-07 2.60333e-07 0)
(-1.61985e-06 1.38947e-05 0)
(-1.82528e-06 7.74956e-06 0)
(-4.278e-08 1.61165e-08 0)
(5.54977e-06 9.181e-06 0)
(-1.3309e-07 4.23335e-08 0)
(7.19264e-07 7.61163e-06 0)
(-9.99852e-06 0.000275551 0)
(-4.8558e-06 3.47141e-05 0)
(-5.54209e-06 4.75221e-05 0)
(-6.18304e-06 6.19447e-05 0)
(9.17961e-06 0.000205503 0)
(8.66733e-06 0.000161571 0)
(5.85572e-07 0.000191159 0)
(5.44264e-07 0.000148091 0)
(-2.61569e-07 2.01252e-05 0)
(-4.95559e-07 9.03156e-05 0)
(-1.95302e-07 3.24795e-08 0)
(7.52375e-07 2.51543e-05 0)
(-1.51532e-06 0.000137664 0)
(-4.53774e-06 8.72413e-05 0)
(1.05113e-06 2.47856e-05 0)
(-2.12914e-06 0.000138391 0)
(-6.83678e-06 0.000260758 0)
(8.46037e-06 9.77974e-05 0)
(7.88173e-06 9.70483e-05 0)
(4.25576e-08 1.60423e-08 0)
(1.94832e-07 3.24091e-08 0)
(-1.32481e-05 0.000242723 0)
(-1.27453e-05 0.000243751 0)
(-1.2535e-05 8.28539e-05 0)
(1.40854e-05 0.000115162 0)
(1.1263e-05 0.000206236 0)
(1.06068e-05 0.000162249 0)
(-5.90373e-06 3.43653e-05 0)
(-6.76327e-06 4.71073e-05 0)
(-7.55038e-06 6.1478e-05 0)
(-4.15862e-07 0.000247505 0)
(-4.98532e-06 2.33915e-05 0)
(1.09923e-05 0.000183932 0)
(1.02083e-05 0.000141375 0)
(6.75562e-06 9.88165e-05 0)
(5.68927e-06 0.000233424 0)
(8.93957e-06 0.000291037 0)
(9.20955e-07 7.50146e-06 0)
(-3.32937e-06 7.82248e-05 0)
(-9.80028e-09 2.7771e-06 0)
(1.326e-07 4.22017e-08 0)
(3.19432e-06 8.25284e-05 0)
(2.74803e-06 8.1669e-05 0)
(-3.47731e-06 0.000115373 0)
(-2.98029e-06 0.000116223 0)
(6.16665e-06 6.19259e-05 0)
(5.52768e-06 4.75051e-05 0)
(4.83183e-06 3.47053e-05 0)
(-8.70462e-06 0.000161572 0)
(-9.24507e-06 0.00020553 0)
(-4.90115e-06 0.000285119 0)
(1.68097e-06 2.05137e-06 0)
(-6.58518e-09 0.000164081 0)
(-1.93885e-08 3.32352e-05 0)
(6.49765e-06 0.000275124 0)
(5.30581e-06 9.6387e-05 0)
(-2.06236e-05 0.000271866 0)
(6.09837e-06 9.95278e-05 0)
(2.39899e-07 1.76261e-07 0)
(1.69532e-05 0.000222229 0)
(1.70511e-05 0.000220982 0)
(-1.03851e-05 0.000141554 0)
(-1.11816e-05 0.000184119 0)
(-9.27859e-06 0.000141198 0)
(-9.99283e-06 0.000183739 0)
(5.02226e-06 2.33055e-05 0)
(4.50247e-06 2.34594e-05 0)
(5.04434e-06 0.000130051 0)
(6.00159e-06 0.0001299 0)
(5.47027e-06 0.000171711 0)
(6.51086e-06 0.000171546 0)
(-2.80193e-06 2.92367e-05 0)
(-3.33675e-06 2.93316e-05 0)
(-5.89812e-07 1.31699e-05 0)
(2.96756e-06 8.40651e-06 0)
(2.77818e-06 8.11616e-06 0)
(2.83662e-06 6.14534e-06 0)
(4.86353e-06 0.000234427 0)
(-1.68323e-05 0.000222638 0)
(-1.69223e-05 0.000221343 0)
(6.36445e-06 1.72769e-05 0)
(6.23939e-06 1.67853e-05 0)
(1.33553e-05 9.96716e-05 0)
(1.35351e-05 0.000100787 0)
(-1.32731e-05 9.7401e-05 0)
(-1.33432e-05 9.6304e-05 0)
(6.01964e-06 0.000280946 0)
(-1.65189e-05 0.000284607 0)
(-1.58786e-05 0.000239614 0)
(3.75463e-06 4.245e-06 0)
(-9.70561e-06 0.000281038 0)
(-8.66744e-06 0.000280075 0)
(4.10267e-06 0.000131535 0)
(-2.55395e-06 0.000118233 0)
(2.26199e-06 7.99873e-05 0)
(-1.13843e-05 0.000100043 0)
(1.11403e-05 9.69347e-05 0)
(-5.416e-06 1.69781e-05 0)
(-1.59356e-07 1.01326e-07 0)
(8.55115e-07 3.49316e-06 0)
(1.01399e-06 8.53449e-05 0)
(-9.58801e-06 8.59491e-05 0)
(1.0303e-05 0.000111474 0)
(-5.52434e-06 7.82564e-05 0)
(6.55006e-06 0.0001203 0)
(3.31116e-06 0.000209446 0)
(4.57159e-06 0.000208996 0)
(-1.96439e-06 4.51232e-05 0)
(-2.71023e-06 4.53949e-05 0)
(-2.20048e-06 5.92753e-05 0)
(-3.03451e-06 5.9578e-05 0)
(5.20784e-07 2.29023e-05 0)
(-1.12182e-06 0.000142178 0)
(-1.13594e-06 0.000184825 0)
(-1.8347e-06 0.00027055 0)
(2.59416e-06 6.10616e-06 0)
(-5.20887e-07 0.000115204 0)
(-7.8463e-06 0.000277334 0)
(1.07723e-06 8.62604e-07 0)
(7.00414e-06 0.000164865 0)
(-3.81432e-06 3.28705e-05 0)
(-1.18624e-05 0.000116423 0)
(-1.11416e-05 0.000115843 0)
(1.03675e-05 8.16881e-05 0)
(9.77237e-06 8.21836e-05 0)
(-1.17483e-05 0.000289205 0)
(-1.18776e-05 0.000287964 0)
(-1.94563e-06 1.32523e-05 0)
(-2.30676e-06 1.32022e-05 0)
(9.36244e-07 3.66099e-06 0)
(-2.22068e-06 3.79932e-06 0)
(5.47334e-07 0.000120882 0)
(3.40643e-06 2.37294e-05 0)
(2.8639e-06 2.38803e-05 0)
(-6.98273e-06 0.000140581 0)
(-5.85552e-06 0.000140249 0)
(-7.52225e-06 0.000183084 0)
(-6.30923e-06 0.000182728 0)
(-1.52363e-05 0.000231894 0)
(-1.40998e-05 0.000231987 0)
(-3.34824e-06 7.00263e-05 0)
(-3.09643e-06 5.47923e-05 0)
(-2.74413e-06 4.11299e-05 0)
(4.81036e-06 0.000216385 0)
(-8.31585e-07 0.000245102 0)
(1.00226e-05 9.68414e-05 0)
(9.48931e-06 9.76823e-05 0)
(4.43727e-06 0.000187197 0)
(4.24421e-06 0.00014435 0)
(-2.00929e-06 2.18756e-05 0)
(1.88466e-06 2.44922e-05 0)
(1.55006e-06 2.49689e-05 0)
(-3.45899e-06 0.000180421 0)
(-4.11406e-06 0.000181351 0)
(-3.81203e-06 0.00013899 0)
(-3.10794e-06 0.00013804 0)
(-3.9937e-06 2.24533e-05 0)
(8.3567e-06 0.00014324 0)
(8.98649e-06 0.000185943 0)
(-1.08845e-07 1.0352e-06 0)
(1.49014e-05 0.000110499 0)
(-1.3706e-05 8.70997e-05 0)
(-6.12931e-08 9.63143e-07 0)
(-4.49903e-06 0.000206194 0)
(-5.27514e-06 0.000207328 0)
(-4.12854e-06 0.000162289 0)
(-4.8336e-06 0.000163364 0)
(2.62886e-06 3.36718e-05 0)
(2.26386e-06 3.42628e-05 0)
(3.10547e-06 4.63889e-05 0)
(2.66451e-06 4.7063e-05 0)
(3.47076e-06 6.06875e-05 0)
(2.97456e-06 6.14402e-05 0)
(1.67878e-05 0.000232343 0)
(1.71006e-05 0.000233525 0)
(-1.5848e-06 7.81291e-06 0)
(6.29765e-06 0.000165686 0)
(-3.40613e-06 3.24168e-05 0)
(5.52697e-06 2.56314e-05 0)
(-1.0836e-05 0.000136951 0)
(-1.17055e-05 0.000179159 0)
(-1.55163e-07 4.71566e-08 0)
(2.17564e-06 0.000242149 0)
(5.45791e-06 2.4453e-05 0)
(-1.09868e-05 0.000139266 0)
(-1.18593e-05 0.00018162 0)
(4.15123e-06 7.13604e-06 0)
(-8.2968e-06 0.000262475 0)
(5.23922e-06 1.95172e-05 0)
(-1.3097e-05 0.000215451 0)
(-2.80572e-06 1.04926e-05 0)
(-2.99318e-06 1.08776e-05 0)
(2.93387e-06 1.07641e-05 0)
(-1.42079e-06 0.000115025 0)
(-1.09443e-08 -8.05317e-09 0)
(-8.80989e-06 0.00028762 0)
(-1.39115e-07 5.53547e-08 0)
(1.54523e-07 4.69883e-08 0)
(-4.0996e-06 2.3687e-05 0)
(8.9686e-06 0.000183219 0)
(8.32468e-06 0.000140708 0)
(6.90708e-06 0.000242531 0)
(-1.98573e-05 0.000260226 0)
(2.54236e-06 0.000107661 0)
(-1.64339e-06 0.000104844 0)
(-4.51878e-07 1.09794e-05 0)
(-1.26791e-06 1.32762e-06 0)
(-7.9006e-09 -7.1137e-09 0)
(-4.9558e-06 7.89876e-05 0)
(5.87156e-06 0.000119457 0)
(4.30996e-07 1.51153e-07 0)
(-6.64141e-07 0.000103299 0)
(-6.26832e-07 0.0001023 0)
(-2.07678e-08 8.67067e-05 0)
(-1.20224e-07 2.21546e-05 0)
(2.16331e-07 0.000143728 0)
(1.93509e-07 0.000186622 0)
(-4.33285e-07 1.51921e-07 0)
(1.77471e-06 1.18764e-05 0)
(-6.85692e-06 0.000211938 0)
(3.92384e-06 4.36925e-05 0)
(4.40583e-06 5.76693e-05 0)
(4.84376e-06 7.3174e-05 0)
(1.4396e-05 0.000276068 0)
(-5.31307e-06 2.11902e-05 0)
(1.23455e-05 0.000188947 0)
(1.15037e-05 0.000146046 0)
(-8.16943e-06 0.000254637 0)
(1.19485e-06 3.05396e-06 0)
(1.10033e-05 0.000249903 0)
(-2.37109e-06 3.74205e-06 0)
(7.70857e-06 0.000277167 0)
(-5.91154e-06 0.000211962 0)
(3.37776e-06 4.36736e-05 0)
(3.79282e-06 5.76494e-05 0)
(4.17256e-06 7.31482e-05 0)
(1.04372e-06 2.89423e-06 0)
(5.07971e-06 0.000169888 0)
(-2.64796e-06 3.01742e-05 0)
(-8.98751e-07 1.18269e-05 0)
(-1.44553e-05 0.000250793 0)
(-5.38195e-06 6.58118e-05 0)
(-4.84924e-06 5.1e-05 0)
(-4.26791e-06 3.77783e-05 0)
(7.27424e-06 0.000156196 0)
(7.75316e-06 0.000199808 0)
(1.9842e-05 0.000292599 0)
(1.15501e-05 0.000256752 0)
(1.28061e-05 0.000256311 0)
(1.62108e-07 1.13648e-07 0)
(7.18491e-06 7.8546e-05 0)
(-8.41658e-06 0.000119945 0)
(-3.66293e-06 7.96682e-05 0)
(4.27248e-06 0.000118694 0)
(-1.23676e-06 0.000127858 0)
(-9.40408e-07 0.000207542 0)
(5.9397e-07 6.05305e-05 0)
(5.3147e-07 4.62458e-05 0)
(2.9318e-08 3.255e-05 0)
(-2.07889e-07 0.000124246 0)
(-9.53171e-08 0.000165381 0)
(9.07989e-06 0.000292204 0)
(5.15863e-07 1.21815e-05 0)
(-2.24635e-07 2.81802e-06 0)
(1.73763e-06 0.000175582 0)
(8.75527e-08 2.91434e-06 0)
(-1.34787e-06 9.09968e-06 0)
(3.36836e-06 3.24709e-05 0)
(-6.34914e-06 0.000165578 0)
(-1.26672e-07 1.39999e-07 0)
(-1.33891e-05 0.000250675 0)
(-1.11945e-06 2.17314e-05 0)
(2.3742e-06 0.000187618 0)
(2.35515e-06 0.00014463 0)
(3.03129e-07 7.27772e-08 0)
(-3.98165e-06 7.25351e-06 0)
(4.38678e-06 5.90979e-05 0)
(3.91569e-06 4.49681e-05 0)
(-6.74343e-06 0.000209749 0)
(1.30138e-06 8.21232e-05 0)
(-9.05971e-06 0.000283915 0)
(-1.52346e-07 2.13676e-08 0)
(-5.21093e-06 1.13448e-05 0)
(3.37704e-06 6.24869e-06 0)
(-3.40479e-06 3.74011e-06 0)
(1.00903e-05 9.86157e-05 0)
(7.66987e-06 0.000119968 0)
(-6.59397e-06 7.8519e-05 0)
(4.71477e-07 3.22178e-05 0)
(-1.09995e-06 0.000124717 0)
(-9.21233e-07 0.000165997 0)
(9.62457e-06 0.000247063 0)
(8.96554e-06 0.000108016 0)
(4.66286e-06 0.000286111 0)
(4.49188e-06 0.000287179 0)
(1.30123e-06 0.000119408 0)
(1.77792e-06 8.1508e-05 0)
(1.5197e-07 2.13209e-08 0)
(-1.29403e-05 0.00022401 0)
(4.71241e-06 1.61962e-05 0)
(1.63045e-08 2.24079e-07 0)
(2.47435e-06 0.000159978 0)
(3.23451e-06 0.000160532 0)
(4.43238e-09 1.95509e-08 0)
(-2.47888e-06 6.04578e-06 0)
(6.14267e-06 6.00873e-05 0)
(5.49129e-06 4.58573e-05 0)
(4.78496e-06 3.32123e-05 0)
(-8.81586e-06 0.000164092 0)
(-9.34922e-06 0.000208288 0)
(8.15124e-06 0.000102802 0)
(1.18766e-06 0.000242409 0)
(-5.27414e-06 0.00027337 0)
(-4.9937e-06 0.000274813 0)
(-5.12849e-07 0.000210905 0)
(-4.40356e-07 0.000212064 0)
(3.58171e-07 4.35753e-05 0)
(3.26423e-07 4.42198e-05 0)
(4.02019e-07 5.75428e-05 0)
(3.65935e-07 5.82652e-05 0)
(2.63132e-07 7.30334e-05 0)
(3.15276e-07 7.38055e-05 0)
(6.39221e-07 0.000119807 0)
(1.17586e-06 0.00012173 0)
(2.04489e-06 0.000185436 0)
(-5.23505e-07 0.000127544 0)
(-3.03941e-07 7.29597e-08 0)
(-3.39551e-07 2.68754e-06 0)
(4.47389e-06 0.000168987 0)
(-2.35397e-06 3.06418e-05 0)
(1.18865e-06 3.73079e-06 0)
(1.74747e-05 0.000277425 0)
(-1.33602e-06 0.000212989 0)
(8.2583e-07 4.30852e-05 0)
(9.28053e-07 5.69927e-05 0)
(9.14206e-07 7.23952e-05 0)
(-1.3361e-05 0.000233093 0)
(4.60622e-06 8.34532e-05 0)
(6.81327e-06 0.000294475 0)
(7.70538e-06 0.000293819 0)
(-1.33968e-06 9.38271e-06 0)
(-8.5264e-07 0.00016322 0)
(4.44973e-07 3.37092e-05 0)
(1.99147e-07 2.03784e-07 0)
(1.71468e-05 0.000285253 0)
(-2.36123e-07 4.74713e-06 0)
(-3.23405e-06 4.88941e-05 0)
(-3.60059e-06 6.34776e-05 0)
(-4.30784e-06 6.4144e-05 0)
(-3.87291e-06 4.94948e-05 0)
(-2.80196e-06 3.5907e-05 0)
(-3.38897e-06 3.64498e-05 0)
(5.67144e-06 0.000158405 0)
(6.03991e-06 0.00020217 0)
(2.47617e-06 3.38563e-06 0)
(-1.59453e-07 9.705e-08 0)
(-1.48028e-05 0.000192929 0)
(-1.5421e-05 0.000284672 0)
(5.03084e-06 0.000121635 0)
(-4.34147e-07 4.85761e-06 0)
(-8.0114e-06 0.000158118 0)
(-8.52583e-06 0.000201854 0)
(4.57941e-06 3.66711e-05 0)
(5.21492e-06 4.97418e-05 0)
(5.79783e-06 6.44148e-05 0)
(7.42252e-06 0.000243336 0)
(1.68606e-05 0.000286267 0)
(-9.0898e-06 9.95013e-05 0)
(3.7515e-06 3.28616e-05 0)
(-7.04017e-06 0.000164859 0)
(4.81357e-06 0.00012258 0)
(-1.83204e-06 8.73839e-05 0)
(4.85853e-06 5.96013e-05 0)
(4.34015e-06 4.54192e-05 0)
(-7.4327e-06 0.000208994 0)
(-1.35121e-05 0.000100644 0)
(1.31748e-05 9.65018e-05 0)
(1.31743e-05 9.75772e-05 0)
(-1.33348e-05 9.95018e-05 0)
(-6.25733e-06 1.67758e-05 0)
(-6.44033e-06 1.72973e-05 0)
(-6.26964e-06 9.75625e-05 0)
(-3.20863e-06 3.82963e-06 0)
(-1.01415e-05 9.83105e-05 0)
(-1.4838e-06 0.000234445 0)
(-1.31303e-06 1.5759e-06 0)
(1.0194e-05 5.73677e-05 0)
(9.07527e-06 4.34436e-05 0)
(-1.43587e-05 0.000147147 0)
(2.31984e-06 5.96382e-05 0)
(2.07257e-06 4.54481e-05 0)
(-3.56986e-06 0.000208899 0)
(4.78447e-06 1.44715e-05 0)
(7.93353e-06 0.000118997 0)
(-6.86742e-06 7.93618e-05 0)
(-3.78608e-06 4.26465e-06 0)
(4.07219e-06 0.000186178 0)
(3.89238e-06 0.000143439 0)
(-1.86435e-06 2.2307e-05 0)
(1.18136e-05 0.000175812 0)
(-5.8029e-06 2.7261e-05 0)
(1.09095e-05 0.000133855 0)
(-6.61936e-06 1.65532e-05 0)
(8.32313e-06 0.000273919 0)
(9.54636e-06 0.000273519 0)
(9.19711e-06 0.000208294 0)
(8.71797e-06 0.000164109 0)
(-4.7752e-06 3.3307e-05 0)
(-5.45359e-06 4.58523e-05 0)
(-6.10096e-06 6.00819e-05 0)
(-1.38317e-06 1.36629e-06 0)
(-7.31123e-06 0.000254376 0)
(7.97913e-06 0.00016229 0)
(-4.43855e-06 3.43052e-05 0)
(-8.40696e-07 1.0497e-06 0)
(6.81689e-06 0.000276987 0)
(1.66994e-06 1.37544e-06 0)
(1.38524e-06 1.04319e-06 0)
(3.50657e-06 5.0027e-06 0)
(8.24266e-06 0.000222658 0)
(-1.39627e-05 0.000228785 0)
(1.85824e-05 0.000277779 0)
(3.55112e-06 5.25856e-06 0)
(8.16368e-06 0.000107983 0)
(1.1187e-05 0.000236079 0)
(-1.7979e-05 0.000223234 0)
(6.62435e-06 1.65897e-05 0)
(-4.12969e-06 0.000237561 0)
(1.68021e-06 5.98233e-05 0)
(1.5016e-06 4.56131e-05 0)
(-2.59358e-06 0.000208614 0)
(-6.25183e-07 3.01041e-06 0)
(4.76844e-06 0.000128332 0)
(1.37703e-07 5.48376e-08 0)
(-5.50908e-06 1.12354e-05 0)
(-9.73711e-07 0.000105495 0)
(-2.46449e-06 2.03826e-05 0)
(-2.86806e-06 2.05169e-05 0)
(5.42317e-06 0.000147589 0)
(6.29618e-06 0.000147315 0)
(6.75167e-06 0.00019032 0)
(5.81467e-06 0.000190615 0)
(1.6221e-07 6.07278e-07 0)
(-4.22165e-08 7.57761e-06 0)
(-9.75374e-06 0.000132611 0)
(-1.05718e-05 0.000174469 0)
(5.22032e-06 2.79047e-05 0)
(-3.0751e-06 1.66214e-05 0)
(-1.83032e-06 0.000179387 0)
(-2.78817e-06 7.12616e-06 0)
(5.70145e-06 0.000274357 0)
(-4.60278e-06 8.98607e-05 0)
(-5.33275e-06 8.96346e-05 0)
(1.58841e-07 1.61306e-07 0)
(-3.05028e-06 9.29358e-05 0)
(-1.55026e-06 1.87531e-05 0)
(3.55654e-06 0.000151204 0)
(3.80427e-06 0.000194486 0)
(-4.2752e-06 0.000179416 0)
(-3.76359e-06 0.000137119 0)
(1.90018e-06 2.54445e-05 0)
(2.5313e-06 9.56103e-06 0)
(2.35107e-06 9.21404e-06 0)
(1.22253e-06 8.95984e-05 0)
(-1.5939e-06 0.00019025 0)
(-1.49428e-06 0.000147224 0)
(6.59295e-07 2.05217e-05 0)
(-1.46467e-06 3.53386e-05 0)
(-2.6256e-06 7.32496e-06 0)
(1.06233e-05 0.000280804 0)
(-1.03712e-05 0.00016796 0)
(7.99287e-06 7.90485e-05 0)
(-9.32152e-06 0.00011938 0)
(1.13238e-05 0.000237144 0)
(-1.04196e-05 7.2661e-05 0)
(-9.49055e-06 5.71978e-05 0)
(1.27283e-05 0.000127073 0)
(-8.44589e-06 4.32893e-05 0)
(-7.31031e-06 3.10453e-05 0)
(1.38952e-05 0.000168485 0)
(1.46872e-05 0.000212859 0)
(-3.81713e-06 0.000203689 0)
(-3.59201e-06 0.000159838 0)
(2.29255e-06 4.85784e-05 0)
(2.00906e-06 3.56422e-05 0)
(2.55314e-06 6.3128e-05 0)
(2.19235e-06 4.92767e-05 0)
(-3.62564e-06 0.000202547 0)
(2.43888e-06 6.39044e-05 0)
(1.92406e-06 3.62554e-05 0)
(-3.40966e-06 0.000158764 0)
(-2.01617e-06 0.000258374 0)
(-4.09229e-06 5.36654e-06 0)
(-4.43573e-06 2.52039e-05 0)
(9.39799e-06 0.00017998 0)
(8.70408e-06 0.000137705 0)
(-2.78727e-06 3.39393e-05 0)
(5.0604e-06 0.000162912 0)
(1.39423e-05 0.000201829 0)
(1.30984e-05 0.000158107 0)
(-7.55621e-06 3.67682e-05 0)
(-8.60462e-06 4.98365e-05 0)
(-9.56545e-06 6.45073e-05 0)
(1.469e-05 0.000220282 0)
(1.60335e-05 0.000220002 0)
(3.60258e-07 6.46667e-06 0)
(-1.48435e-06 0.000103769 0)
(-3.96199e-06 1.09526e-05 0)
(2.02852e-07 3.78582e-07 0)
(-3.89973e-06 1.39101e-05 0)
(-6.2494e-07 0.000234913 0)
(1.62081e-07 6.18875e-06 0)
(-3.22823e-06 0.0001112 0)
(1.33194e-05 0.000147234 0)
(-6.06254e-06 2.06896e-05 0)
(1.42819e-05 0.000190216 0)
(-1.34119e-08 -9.29333e-09 0)
(8.87983e-07 0.00017575 0)
(2.54885e-07 1.07322e-07 0)
(1.73952e-07 1.2838e-07 0)
(2.36347e-06 0.000126273 0)
(-2.91172e-07 2.35628e-07 0)
(1.08567e-05 0.000282905 0)
(8.09156e-07 0.000160487 0)
(-4.34797e-07 3.52313e-05 0)
(2.37479e-06 1.41593e-05 0)
(1.49329e-06 0.000159987 0)
(-8.43124e-07 3.54887e-05 0)
(-1.43329e-07 3.13519e-06 0)
(-1.01912e-05 5.73388e-05 0)
(-9.07147e-06 4.34183e-05 0)
(-7.85298e-06 3.1166e-05 0)
(-6.5315e-06 2.07399e-05 0)
(1.43377e-05 0.000147178 0)
(1.49024e-05 0.0001683 0)
(1.53743e-05 0.000190153 0)
(1.57577e-05 0.000212666 0)
(-6.97899e-06 0.000229461 0)
(-6.2017e-06 0.000272838 0)
(-2.00369e-05 0.000225269 0)
(7.22591e-06 1.58877e-05 0)
(4.57142e-06 0.00028926 0)
(5.31785e-06 0.000288012 0)
(1.42089e-06 0.000156443 0)
(1.54089e-06 0.000200098 0)
(-1.09979e-06 6.56454e-05 0)
(-9.9052e-07 5.08445e-05 0)
(-8.7129e-07 3.76349e-05 0)
(-5.74553e-06 1.65968e-05 0)
(2.0917e-06 1.19001e-05 0)
(-7.77172e-06 6.87741e-05 0)
(1.02654e-05 0.000152265 0)
(-7.02891e-06 5.36829e-05 0)
(-6.21757e-06 4.01564e-05 0)
(1.09696e-05 0.000195609 0)
(-4.36573e-06 1.8393e-05 0)
(1.11078e-05 0.000218301 0)
(1.86857e-06 9.93882e-05 0)
(-1.16776e-06 0.000243867 0)
(1.14863e-06 5.73809e-07 0)
(-8.55599e-07 0.000214116 0)
(5.47181e-07 4.2443e-05 0)
(6.1549e-07 5.62717e-05 0)
(5.71406e-07 7.16005e-05 0)
(3.47491e-06 0.000252656 0)
(-4.76082e-07 3.01844e-07 0)
(1.76249e-05 0.000248607 0)
(-2.65111e-06 0.000105344 0)
(-8.03166e-08 1.72633e-07 0)
(6.30467e-06 0.000149894 0)
(-2.78194e-06 1.9354e-05 0)
(6.74868e-06 0.000193082 0)
(1.38782e-07 1.0829e-07 0)
(-3.73455e-06 2.33527e-05 0)
(7.64032e-06 0.000141366 0)
(8.22743e-06 0.000183928 0)
(1.29602e-06 1.69958e-06 0)
(-5.3704e-06 9.18467e-05 0)
(1.13346e-06 9.821e-05 0)
(-1.22085e-05 0.000265712 0)
(1.12287e-06 0.000157296 0)
(1.19705e-06 0.000200985 0)
(-9.2911e-07 6.50128e-05 0)
(-7.3303e-07 3.71349e-05 0)
(-8.36037e-07 5.02739e-05 0)
(1.80974e-06 0.000100124 0)
(-2.55077e-07 9.69804e-07 0)
(-2.25956e-07 3.29952e-06 0)
(5.33488e-07 0.00023453 0)
(1.20179e-05 0.000107664 0)
(-1.12814e-05 8.96424e-05 0)
(-8.56948e-06 0.000297356 0)
(-1.94497e-05 0.000194264 0)
(-1.81895e-05 0.00015103 0)
(-1.88756e-05 0.000172284 0)
(-1.73885e-05 0.000130624 0)
(9.55098e-06 2.91975e-05 0)
(1.10991e-05 4.112e-05 0)
(1.25216e-05 5.47393e-05 0)
(1.38234e-05 6.99143e-05 0)
(1.94085e-05 0.000194261 0)
(1.88346e-05 0.000172284 0)
(-9.57201e-06 2.91988e-05 0)
(-1.11236e-05 4.1122e-05 0)
(1.81484e-05 0.000151029 0)
(-1.25502e-05 5.47409e-05 0)
(1.73503e-05 0.000130623 0)
(-1.38552e-05 6.99161e-05 0)
(-5.53007e-06 1.61328e-05 0)
(-3.01715e-06 0.000243348 0)
(-2.15233e-06 0.000243116 0)
(-2.67767e-06 0.000275629 0)
(4.43558e-06 0.000166902 0)
(-2.37926e-06 3.17476e-05 0)
(-8.54395e-07 1.26004e-06 0)
(-3.46412e-06 0.000291318 0)
(-3.80172e-06 6.26391e-05 0)
(-4.6568e-06 6.24032e-05 0)
(-3.4108e-06 4.81406e-05 0)
(-4.17664e-06 4.79303e-05 0)
(5.61972e-06 0.000204774 0)
(6.75061e-06 0.00020487 0)
(1.48404e-05 0.000201305 0)
(1.39378e-05 0.000157616 0)
(-8.07459e-06 3.70711e-05 0)
(-9.18849e-06 5.01775e-05 0)
(-1.02093e-05 6.48832e-05 0)
(-8.98943e-06 0.000133079 0)
(-9.73985e-06 0.000174977 0)
(4.78406e-06 2.76381e-05 0)
(-2.82802e-06 0.000119178 0)
(2.39481e-06 7.91805e-05 0)
(2.92592e-06 0.000210574 0)
(-1.71761e-06 4.43913e-05 0)
(-1.92658e-06 5.84566e-05 0)
(-2.08676e-06 7.38854e-05 0)
(5.54642e-06 7.82366e-05 0)
(4.69934e-06 7.84367e-05 0)
(-6.52134e-06 0.00012027 0)
(-5.52239e-06 0.000120023 0)
(-6.56478e-06 0.000289135 0)
(4.423e-07 1.2099e-06 0)
(1.09097e-05 0.000248879 0)
(3.9304e-06 8.69063e-05 0)
(1.06955e-05 0.000172103 0)
(-5.4426e-06 2.91022e-05 0)
(9.85011e-06 0.000130429 0)
(-9.17025e-06 0.000104216 0)
(2.22535e-06 2.20297e-05 0)
(-5.11897e-06 0.000186799 0)
(-4.76511e-06 0.000144033 0)
(6.33912e-07 9.04265e-05 0)
(-7.9561e-07 0.000148207 0)
(-8.46029e-07 0.000191299 0)
(3.38121e-07 2.00725e-05 0)
(6.17492e-06 8.18912e-05 0)
(-7.05073e-06 0.000116048 0)
(-3.37639e-06 0.00025837 0)
(-1.56228e-05 0.000255899 0)
(2.78949e-06 0.000110699 0)
(7.00969e-06 0.000111047 0)
(-5.68905e-06 2.14093e-05 0)
(1.3154e-05 0.00018848 0)
(1.22534e-05 0.000145612 0)
(-6.31257e-07 2.67655e-06 0)
(-2.11697e-06 0.000215605 0)
(1.17446e-06 4.15906e-05 0)
(1.32361e-06 5.5313e-05 0)
(1.44951e-06 7.05543e-05 0)
(-3.23375e-06 0.000104829 0)
(-1.44816e-05 0.000255985 0)
(-4.17386e-06 4.1641e-05 0)
(-4.70489e-06 5.53641e-05 0)
(-5.17304e-06 7.06386e-05 0)
(7.37631e-06 0.000215529 0)
(1.34415e-08 1.75559e-08 0)
(9.07524e-06 0.00010338 0)
(1.15642e-07 8.07792e-06 0)
(-4.31734e-07 7.52065e-07 0)
(-8.96926e-07 3.46369e-06 0)
(-4.29561e-06 1.48347e-05 0)
(-4.40854e-07 1.62183e-07 0)
(1.7868e-06 4.70138e-05 0)
(1.56796e-06 3.42473e-05 0)
(1.99475e-06 6.13866e-05 0)
(-3.03223e-06 0.000206265 0)
(-2.8718e-06 0.000162304 0)
(-8.82588e-06 8.57634e-05 0)
(9.55751e-06 0.000111715 0)
(-8.73764e-07 5.14527e-07 0)
(1.15997e-05 0.000274013 0)
(8.36546e-06 0.00024513 0)
(-1.78316e-05 0.000230723 0)
(6.60138e-06 0.000110189 0)
(2.37788e-06 0.000119682 0)
(-4.49213e-06 0.000291186 0)
(-1.24952e-05 0.000125392 0)
(-1.18856e-05 0.000124838 0)
(1.75987e-05 0.0002911 0)
(-1.41339e-06 0.000259659 0)
(-3.95737e-06 7.88609e-05 0)
(4.74647e-06 0.000119659 0)
(1.43634e-07 8.36128e-06 0)
(2.18432e-06 2.95408e-06 0)
(4.37785e-07 1.61081e-07 0)
(4.19545e-06 0.000127494 0)
(1.55097e-05 0.000297077 0)
(-8.50591e-06 0.0002063 0)
(-8.00602e-06 0.0001623 0)
(4.41209e-06 3.42887e-05 0)
(5.64702e-06 6.1401e-05 0)
(5.05802e-06 4.70329e-05 0)
(-1.60585e-07 1.12335e-07 0)
(-6.42175e-07 0.000270272 0)
(7.94901e-06 0.000111375 0)
(-7.24142e-06 8.61996e-05 0)
(-1.27425e-05 0.000263715 0)
(-1.90244e-05 0.000195259 0)
(-1.84667e-05 0.000173245 0)
(-1.78034e-05 0.000151957 0)
(-1.70252e-05 0.000131512 0)
(9.25997e-06 2.86968e-05 0)
(1.07783e-05 4.05413e-05 0)
(1.21735e-05 5.40887e-05 0)
(1.34507e-05 6.91979e-05 0)
(1.89814e-05 0.000195252 0)
(1.84259e-05 0.000173245 0)
(-9.28032e-06 2.86999e-05 0)
(-1.08015e-05 4.0545e-05 0)
(1.77601e-05 0.000151954 0)
(-1.22006e-05 5.4092e-05 0)
(1.69854e-05 0.000131507 0)
(-1.3481e-05 6.92016e-05 0)
(-2.78251e-06 3.73467e-06 0)
(1.09429e-06 1.029e-06 0)
(-1.46501e-06 2.67976e-06 0)
(7.07686e-06 0.00010928 0)
(-7.77715e-06 0.000112524 0)
(1.39604e-06 1.68129e-06 0)
(-2.16653e-07 3.61986e-08 0)
(-1.71473e-05 0.00023128 0)
(9.8086e-06 0.00029408 0)
(1.10084e-05 0.000294635 0)
(2.16194e-07 3.61338e-08 0)
(3.14384e-06 4.19029e-06 0)
(1.5365e-05 0.000267701 0)
(-5.84749e-06 0.000124396 0)
(-3.84043e-07 3.36317e-07 0)
(-8.69235e-07 1.34876e-06 0)
(-1.3579e-07 3.47231e-08 0)
(2.54349e-07 1.97717e-07 0)
(1.58881e-05 9.91494e-05 0)
(-1.58622e-05 9.8003e-05 0)
(4.87004e-06 7.47771e-05 0)
(-5.99336e-06 0.000122122 0)
(5.05672e-06 7.66965e-05 0)
(-2.62865e-07 4.46868e-06 0)
(-3.69294e-06 0.000195218 0)
(2.91542e-06 9.35495e-05 0)
(-2.06328e-06 0.0001931 0)
(-1.97434e-06 0.000149797 0)
(8.48319e-07 1.93641e-05 0)
(1.60024e-06 9.18539e-05 0)
(-6.52113e-06 0.000123763 0)
(3.35047e-06 4.43948e-06 0)
(5.45559e-06 7.53414e-05 0)
(2.02359e-06 0.000110868 0)
(1.54412e-05 0.000276459 0)
(-4.71084e-06 0.000111782 0)
(-5.41569e-06 0.000112541 0)
(-4.39961e-06 9.40152e-06 0)
(-5.25215e-06 0.000116114 0)
(-4.49235e-06 0.00011531 0)
(4.66716e-06 8.17567e-05 0)
(4.09908e-06 8.25623e-05 0)
(-4.93141e-06 2.28628e-05 0)
(1.02278e-05 0.00014246 0)
(1.10046e-05 0.0001851 0)
(-1.36343e-06 1.51769e-06 0)
(-6.53324e-06 0.00012277 0)
(5.49359e-06 7.61815e-05 0)
(-4.16591e-06 0.000157949 0)
(-4.43323e-06 0.00020168 0)
(2.37361e-06 3.67303e-05 0)
(3.0037e-06 6.45023e-05 0)
(2.70223e-06 4.98156e-05 0)
(-2.17189e-06 1.0154e-05 0)
(-1.3642e-05 0.000166566 0)
(-1.29278e-05 0.00016604 0)
(7.22952e-06 3.20511e-05 0)
(6.87677e-06 3.23291e-05 0)
(8.98296e-06 0.000132224 0)
(9.87671e-06 0.000131573 0)
(-4.86776e-06 2.81002e-05 0)
(-5.38959e-06 2.8472e-05 0)
(9.74017e-06 0.000174052 0)
(1.07147e-05 0.000173344 0)
(-3.9267e-06 0.000257422 0)
(7.81998e-06 0.000235066 0)
(7.93266e-06 0.000233969 0)
(-5.80216e-06 7.67036e-05 0)
(6.79844e-06 0.000122092 0)
(-2.0538e-05 0.000286821 0)
(-5.91662e-06 0.000228806 0)
(-5.68227e-06 0.000227734 0)
(1.97706e-06 1.47521e-05 0)
(2.03206e-06 1.43766e-05 0)
(1.7718e-05 0.00023135 0)
(-7.84931e-06 9.83985e-05 0)
(-6.7394e-06 9.84327e-05 0)
(1.75292e-05 0.000261215 0)
(-1.77393e-05 0.00027537 0)
(-1.77164e-05 0.000276682 0)
(-5.44037e-07 2.76933e-06 0)