/*--------------------------------*- C++ -*----------------------------------*\
| =========                 |                                                 |
| \\      /  F ield         | OpenFOAM: The Open Source CFD Toolbox           |
|  \\    /   O peration     | Version:  2.3.1                                 |
|   \\  /    A nd           | Web:      www.OpenFOAM.org                      |
|    \\/     M anipulation  |                                                 |
\*---------------------------------------------------------------------------*/
FoamFile
{
    version     2.0;
    format      ascii;
    class       volVectorField;
    location    "1360";
    object      D;
}
// * * * * * * * * * * * * * * * * * * * * * * * * * * * * * * * * * * * * * //

dimensions      [0 1 0 0 0 0 0];

internalField   nonuniform List<vector> 
11800
(
(5.43581e-06 0.000158574 0)
(-6.94507e-06 0.000176395 0)
(3.88205e-06 5.4549e-05 0)
(-4.45693e-06 7.37182e-05 0)
(-6.34789e-06 0.0001761 0)
(-2.89785e-06 7.38598e-05 0)
(-1.07879e-06 0.00011961 0)
(-1.03145e-06 9.26827e-05 0)
(4.68066e-07 1.47357e-05 0)
(8.2374e-07 5.65368e-05 0)
(6.03941e-06 0.000158205 0)
(-5.56602e-06 6.30509e-05 0)
(-5.81558e-09 -4.63031e-09 0)
(3.44798e-06 5.4227e-05 0)
(-3.95614e-06 7.40223e-05 0)
(3.95131e-06 9.09962e-06 0)
(-6.17482e-07 0.000119268 0)
(-6.00932e-07 9.23575e-05 0)
(2.58585e-07 1.48965e-05 0)
(4.98801e-07 5.62629e-05 0)
(-3.40535e-06 7.35935e-05 0)
(-5.1021e-06 6.32961e-05 0)
(-8.84322e-07 3.26003e-06 0)
(-9.43343e-07 3.39318e-06 0)
(3.51521e-06 1.03768e-05 0)
(-1.40643e-06 5.37184e-06 0)
(-5.51627e-06 3.80392e-05 0)
(7.77535e-06 0.000107433 0)
(-4.9461e-06 2.90117e-05 0)
(-4.31164e-06 2.09825e-05 0)
(8.21919e-06 0.000135221 0)
(3.20609e-08 2.54582e-06 0)
(1.80911e-06 6.88262e-06 0)
(-4.2362e-06 0.000180951 0)
(3.37407e-06 0.000180146 0)
(-9.43075e-06 0.000144244 0)
(3.14077e-06 0.000180759 0)
(1.77959e-06 7.07359e-06 0)
(-1.05501e-06 0.000126201 0)
(8.2361e-07 6.19606e-05 0)
(-5.42282e-06 3.84568e-05 0)
(-4.86709e-06 2.93866e-05 0)
(7.59562e-06 0.000106831 0)
(-4.24767e-06 2.13137e-05 0)
(8.03614e-06 0.000134589 0)
(3.76771e-06 9.17157e-06 0)
(1.0036e-06 3.85155e-06 0)
(1.11982e-06 3.79075e-06 0)
(-1.63933e-06 0.000126307 0)
(1.29794e-06 6.20457e-05 0)
(-9.00119e-06 9.38838e-05 0)
(-9.58337e-06 0.000120816 0)
(-9.13279e-07 0.000156907 0)
(4.68749e-08 2.41737e-06 0)
(-4.85522e-06 1.0811e-05 0)
(6.72564e-07 5.75728e-07 0)
(-1.17648e-05 0.000183398 0)
(-3.02463e-06 5.25595e-05 0)
(3.36813e-06 7.5989e-05 0)
(-2.20696e-06 5.05372e-05 0)
(1.33522e-06 1.81977e-06 0)
(-1.54606e-06 0.000157022 0)
(-2.63369e-06 5.24436e-05 0)
(2.93304e-06 7.61266e-05 0)
(3.29255e-06 1.02209e-05 0)
(-1.12302e-05 0.000162418 0)
(-9.33759e-06 9.34826e-05 0)
(-9.97527e-06 0.000120376 0)
(-1.11758e-05 0.000183106 0)
(-1.47514e-06 5.54392e-06 0)
(-3.78033e-06 0.000181452 0)
(-6.64678e-06 0.000180483 0)
(-6.83901e-06 0.000179851 0)
(-6.43192e-08 7.47734e-08 0)
(1.42586e-06 1.89689e-06 0)
(-8.88528e-06 0.000144641 0)
(4.29234e-06 1.42674e-05 0)
(-1.14119e-05 0.000163016 0)
(-9.09414e-06 0.000164371 0)
(-8.49876e-06 0.000164912 0)
(-4.62928e-06 1.06656e-05 0)
(6.50417e-07 6.42838e-05 0)
(6.19934e-06 0.000179089 0)
(5.52982e-06 0.000179198 0)
(-8.42853e-07 6.60266e-05 0)
(-4.13459e-06 2.358e-05 0)
(7.42861e-06 0.000130401 0)
(-4.69016e-06 3.19513e-05 0)
(-5.19292e-06 4.13015e-05 0)
(7.00381e-06 0.000102857 0)
(-2.38933e-07 0.000153569 0)
(1.92517e-06 6.54682e-06 0)
(-5.66267e-06 0.000165414 0)
(1.16039e-05 0.000184782 0)
(1.82859e-06 8.1047e-05 0)
(-1.54974e-09 -1.17896e-09 0)
(3.99105e-11 -2.49423e-10 0)
(1.5435e-09 -1.17456e-09 0)
(-1.56713e-07 0.000158804 0)
(-5.28333e-06 6.44136e-05 0)
(9.98193e-06 0.00018413 0)
(6.08909e-06 7.06209e-05 0)
(-2.34283e-06 9.51588e-06 0)
(-5.36616e-07 7.37379e-06 0)
(-3.60906e-07 0.000175323 0)
(6.22417e-07 1.54031e-05 0)
(-1.31563e-06 9.13568e-05 0)
(-1.36158e-06 0.000118146 0)
(2.06215e-06 3.60024e-06 0)
(4.68673e-06 3.19358e-05 0)
(4.13442e-06 2.35658e-05 0)
(5.18755e-06 4.12838e-05 0)
(-7.59753e-06 0.000130418 0)
(-7.1666e-06 0.000102879 0)
(1.07257e-06 5.54113e-05 0)
(1.63152e-06 3.28737e-06 0)
(1.10651e-05 0.000163073 0)
(-4.57498e-06 0.00016732 0)
(1.66232e-06 3.16868e-06 0)
(-7.98023e-07 5.72241e-05 0)
(-4.8994e-07 1.43531e-05 0)
(9.84436e-07 0.000120471 0)
(9.36567e-07 9.34568e-05 0)
(-1.43495e-06 0.000115628 0)
(-5.69934e-06 0.000166028 0)
(-5.31643e-07 0.000158317 0)
(-3.67372e-06 0.000175391 0)
(-8.81466e-07 0.000174922 0)
(-1.26255e-05 0.000189392 0)
(-1.3076e-05 0.000188939 0)
(-3.97955e-07 1.8156e-07 0)
(-1.77471e-06 4.24933e-06 0)
(7.62339e-06 0.000126601 0)
(-4.42919e-06 2.57382e-05 0)
(7.16335e-06 9.928e-05 0)
(-4.98758e-06 3.4382e-05 0)
(-5.49303e-06 4.39801e-05 0)
(7.03134e-06 0.000126714 0)
(-4.08314e-06 2.56632e-05 0)
(6.60759e-06 9.93851e-05 0)
(-4.59913e-06 3.42996e-05 0)
(-5.06625e-06 4.3891e-05 0)
(-1.0993e-06 1.33104e-05 0)
(2.44967e-06 0.000122731 0)
(2.29168e-06 9.56418e-05 0)
(-2.02e-06 5.9047e-05 0)
(9.61663e-06 6.467e-05 0)
(-9.62018e-06 6.32922e-05 0)
(5.98814e-06 7.11212e-05 0)
(-7.48026e-07 7.81822e-06 0)
(-6.29845e-06 0.000152873 0)
(-6.24436e-06 0.000153669 0)
(3.02194e-06 0.000178788 0)
(-7.03964e-06 0.000144441 0)
(2.78506e-06 0.000102809 0)
(3.01535e-06 0.000130335 0)
(-7.84987e-06 0.000115137 0)
(-7.3117e-06 8.85483e-05 0)
(3.82477e-06 1.69445e-05 0)
(-6.10223e-07 0.000154135 0)
(2.24254e-06 3.66291e-06 0)
(-6.43649e-06 0.000144581 0)
(4.49256e-06 1.44699e-05 0)
(-2.95001e-06 4.29507e-05 0)
(-2.67266e-06 3.34405e-05 0)
(-2.36638e-06 2.48933e-05 0)
(3.88483e-06 0.000100541 0)
(4.13031e-06 0.000127948 0)
(-1.99774e-06 2.52799e-06 0)
(-3.53756e-06 1.63129e-05 0)
(7.25993e-06 0.000116387 0)
(6.75602e-06 8.97236e-05 0)
(1.59535e-06 0.000118019 0)
(-1.07393e-05 0.000143585 0)
(-1.08472e-05 0.00014443 0)
(4.05025e-06 1.03934e-05 0)
(4.0535e-06 1.06755e-05 0)
(4.3389e-06 3.10313e-05 0)
(4.81272e-06 4.02846e-05 0)
(3.81657e-06 2.27641e-05 0)
(-6.74085e-06 0.000104235 0)
(-7.13811e-06 0.000131866 0)
(2.83399e-06 0.000102179 0)
(3.03248e-06 0.000129689 0)
(3.11967e-06 6.30488e-05 0)
(-1.53628e-06 5.8917e-05 0)
(-8.3935e-07 1.3378e-05 0)
(1.84613e-06 0.000122571 0)
(1.72596e-06 9.54909e-05 0)
(-2.47826e-06 0.000150821 0)
(-8.75233e-07 2.75309e-05 0)
(-9.81156e-07 3.64007e-05 0)
(-9.24664e-06 0.000161189 0)
(-2.77639e-07 6.4348e-06 0)
(-9.00231e-06 7.71865e-05 0)
(7.79129e-06 5.16737e-05 0)
(9.67409e-08 9.63991e-08 0)
(-5.54954e-06 0.000181235 0)
(1.09878e-05 0.000163718 0)
(-3.46675e-07 2.12304e-07 0)
(7.22443e-06 0.000171466 0)
(9.03507e-06 0.000146927 0)
(9.69317e-06 0.000147045 0)
(-3.21268e-07 0.000176198 0)
(-7.75211e-07 0.000176754 0)
(5.20346e-06 5.04562e-05 0)
(4.59239e-06 5.06747e-05 0)
(-6.14811e-06 7.84699e-05 0)
(-5.42094e-06 7.82016e-05 0)
(3.9047e-07 1.78218e-07 0)
(-1.07697e-06 9.35333e-06 0)
(-1.21875e-06 5.25897e-06 0)
(-2.90188e-08 1.10025e-08 0)
(3.67828e-06 6.21009e-06 0)
(-9.03045e-08 2.8886e-08 0)
(4.70989e-07 5.16686e-06 0)
(-6.28961e-06 0.000175285 0)
(-3.16594e-06 2.30261e-05 0)
(-3.58936e-06 3.13366e-05 0)
(-3.98013e-06 4.06254e-05 0)
(5.71869e-06 0.00013135 0)
(5.41156e-06 0.000103761 0)
(3.39004e-07 0.000122348 0)
(3.14283e-07 9.52805e-05 0)
(-1.82771e-07 1.34722e-05 0)
(-3.39552e-07 5.87459e-05 0)
(-1.32684e-07 2.20875e-08 0)
(4.78412e-07 1.67784e-05 0)
(-9.81232e-07 8.87122e-05 0)
(-2.90692e-06 5.67899e-05 0)
(6.73755e-07 1.65365e-05 0)
(-1.36732e-06 8.91706e-05 0)
(-4.31073e-06 0.000166006 0)
(5.33457e-06 6.34981e-05 0)
(4.96882e-06 6.30228e-05 0)
(2.87545e-08 1.09065e-08 0)
(1.31875e-07 2.19469e-08 0)
(-8.32264e-06 0.000154695 0)
(-8.00799e-06 0.000155339 0)
(-7.9965e-06 5.39912e-05 0)
(8.86766e-06 7.45009e-05 0)
(7.02327e-06 0.00013181 0)
(6.62846e-06 0.000104186 0)
(-3.84696e-06 2.27981e-05 0)
(-4.37738e-06 3.10677e-05 0)
(-4.85675e-06 4.0325e-05 0)
(-2.9234e-07 0.000157694 0)
(-3.27235e-06 1.56192e-05 0)
(6.86034e-06 0.000117811 0)
(6.39303e-06 9.10493e-05 0)
(4.25332e-06 6.41455e-05 0)
(3.52925e-06 0.000148863 0)
(5.56405e-06 0.000185001 0)
(6.05081e-07 5.09291e-06 0)
(-2.14384e-06 5.10433e-05 0)
(-1.02386e-08 1.90895e-06 0)
(8.96296e-08 2.86793e-08 0)
(2.00719e-06 5.37881e-05 0)
(1.72377e-06 5.32403e-05 0)
(-2.22188e-06 7.46378e-05 0)
(-1.90795e-06 7.51755e-05 0)
(3.92735e-06 4.06118e-05 0)
(3.54318e-06 3.13244e-05 0)
(3.12003e-06 2.30193e-05 0)
(-5.49211e-06 0.000103761 0)
(-5.81784e-06 0.000131367 0)
(-3.09916e-06 0.000181288 0)
(1.12618e-06 1.41203e-06 0)
(-3.23092e-08 0.000105339 0)
(-2.75188e-08 2.20635e-05 0)
(4.03567e-06 0.000175017 0)
(3.33712e-06 6.26038e-05 0)
(-1.29419e-05 0.000172973 0)
(3.83643e-06 6.45972e-05 0)
(1.61871e-07 1.22257e-07 0)
(1.05838e-05 0.000141842 0)
(1.06454e-05 0.00014106 0)
(-6.55959e-06 9.11633e-05 0)
(-7.03744e-06 0.000117927 0)
(-5.86383e-06 9.09393e-05 0)
(-6.29238e-06 0.000117689 0)
(3.2724e-06 1.55616e-05 0)
(2.93186e-06 1.56633e-05 0)
(3.15024e-06 8.39101e-05 0)
(3.75322e-06 8.38148e-05 0)
(3.40203e-06 0.000110134 0)
(4.05476e-06 0.00011003 0)
(-1.83816e-06 1.94522e-05 0)
(-2.18633e-06 1.9514e-05 0)
(-3.98007e-07 8.87262e-06 0)
(1.96283e-06 5.69691e-06 0)
(1.83785e-06 5.50284e-06 0)
(1.88356e-06 4.1807e-06 0)
(3.01234e-06 0.000149492 0)
(-1.05675e-05 0.0001421 0)
(-1.0624e-05 0.000141288 0)
(4.1754e-06 1.15873e-05 0)
(4.09517e-06 1.12625e-05 0)
(8.43331e-06 6.4685e-05 0)
(8.54505e-06 6.53929e-05 0)
(-8.4373e-06 6.32445e-05 0)
(-8.48378e-06 6.25477e-05 0)
(3.73647e-06 0.00017867 0)
(-1.03729e-05 0.000180967 0)
(-9.96952e-06 0.000152745 0)
(2.51021e-06 2.89695e-06 0)
(-6.10624e-06 0.000178728 0)
(-5.4563e-06 0.000178124 0)
(2.55652e-06 8.48468e-05 0)
(-1.63843e-06 7.6447e-05 0)
(1.41535e-06 5.21678e-05 0)
(-7.23588e-06 6.49226e-05 0)
(7.03452e-06 6.2949e-05 0)
(-3.57223e-06 1.13924e-05 0)
(-1.0815e-07 7.01288e-08 0)
(5.67426e-07 2.39411e-06 0)
(6.19663e-07 5.55828e-05 0)
(-6.11697e-06 5.5965e-05 0)
(6.48346e-06 7.2168e-05 0)
(-3.54152e-06 5.10628e-05 0)
(4.10523e-06 7.77529e-05 0)
(2.04412e-06 0.000133824 0)
(2.83315e-06 0.000133542 0)
(-1.2851e-06 2.97861e-05 0)
(-1.76596e-06 2.99618e-05 0)
(-1.43111e-06 3.89118e-05 0)
(-1.96542e-06 3.91062e-05 0)
(3.28359e-07 1.52997e-05 0)
(-7.33235e-07 9.15569e-05 0)
(-7.39791e-07 0.000118372 0)
(-1.17966e-06 0.000172148 0)
(1.72191e-06 4.15472e-06 0)
(-3.55442e-07 7.45307e-05 0)
(-4.94237e-06 0.000176404 0)
(7.24963e-07 5.96811e-07 0)
(4.36643e-06 0.000105832 0)
(-2.49241e-06 2.18248e-05 0)
(-7.51528e-06 7.53002e-05 0)
(-7.06082e-06 7.49337e-05 0)
(6.57164e-06 5.32491e-05 0)
(6.19199e-06 5.35654e-05 0)
(-7.38557e-06 0.000183852 0)
(-7.46647e-06 0.000183074 0)
(-1.29238e-06 8.92693e-06 0)
(-1.53073e-06 8.89344e-06 0)
(6.21357e-07 2.50772e-06 0)
(-1.48988e-06 2.60067e-06 0)
(3.18319e-07 7.81217e-05 0)
(2.21438e-06 1.58416e-05 0)
(1.8594e-06 1.59412e-05 0)
(-4.42001e-06 9.05507e-05 0)
(-3.71109e-06 9.03416e-05 0)
(-4.74371e-06 0.000117278 0)
(-3.98326e-06 0.000117055 0)
(-9.56765e-06 0.000147905 0)
(-8.85605e-06 0.000147963 0)
(-2.1602e-06 4.58054e-05 0)
(-2.00841e-06 3.60275e-05 0)
(-1.79091e-06 2.71981e-05 0)
(2.98179e-06 0.000138177 0)
(-5.52588e-07 0.000156187 0)
(6.32608e-06 6.28905e-05 0)
(5.98681e-06 6.34245e-05 0)
(2.75241e-06 0.000119861 0)
(2.64086e-06 9.29247e-05 0)
(-1.32711e-06 1.46244e-05 0)
(1.21854e-06 1.63436e-05 0)
(9.99421e-07 1.66566e-05 0)
(-2.1967e-06 0.000115606 0)
(-2.6072e-06 0.00011619 0)
(-2.42596e-06 8.95479e-05 0)
(-1.98317e-06 8.89492e-05 0)
(-2.62522e-06 1.50033e-05 0)
(5.22703e-06 9.2225e-05 0)
(5.60258e-06 0.000119074 0)
(-7.50451e-08 7.19731e-07 0)
(9.39097e-06 7.15484e-05 0)
(-8.73178e-06 5.66948e-05 0)
(-4.29876e-08 6.70222e-07 0)
(-2.8454e-06 0.000131784 0)
(-3.33144e-06 0.000132496 0)
(-2.61952e-06 0.000104212 0)
(-3.06199e-06 0.000104888 0)
(1.69178e-06 2.23475e-05 0)
(1.45405e-06 2.27327e-05 0)
(1.9836e-06 3.06043e-05 0)
(1.6986e-06 3.10402e-05 0)
(2.20234e-06 3.98184e-05 0)
(1.88375e-06 4.03018e-05 0)
(1.04788e-05 0.000148184 0)
(1.06745e-05 0.000148925 0)
(-1.05893e-06 5.30156e-06 0)
(3.92292e-06 0.000106348 0)
(-2.22779e-06 2.15291e-05 0)
(3.59578e-06 1.70882e-05 0)
(-6.84683e-06 8.82614e-05 0)
(-7.368e-06 0.000114812 0)
(-1.05302e-07 3.21687e-08 0)
(1.32938e-06 0.000154335 0)
(3.5541e-06 1.6315e-05 0)
(-6.93982e-06 8.9721e-05 0)
(-7.4634e-06 0.000116358 0)
(2.75685e-06 4.84372e-06 0)
(-5.22455e-06 0.000167083 0)
(3.42632e-06 1.30678e-05 0)
(-8.22927e-06 0.000137593 0)
(-1.86478e-06 7.09073e-06 0)
(-1.98821e-06 7.34717e-06 0)
(1.93326e-06 7.27088e-06 0)
(-9.2359e-07 7.44178e-05 0)
(-7.42782e-09 -5.46641e-09 0)
(-5.54581e-06 0.000182857 0)
(-9.43717e-08 3.78596e-08 0)
(1.04473e-07 3.19221e-08 0)
(-2.69236e-06 1.58141e-05 0)
(5.59224e-06 0.000117364 0)
(5.20872e-06 9.06299e-05 0)
(4.29132e-06 0.000154574 0)
(-1.24612e-05 0.000165674 0)
(1.58112e-06 6.97551e-05 0)
(-1.06537e-06 6.79704e-05 0)
(-3.06801e-07 7.41605e-06 0)
(-8.5558e-07 9.18364e-07 0)
(-5.36108e-09 -4.82777e-09 0)
(-3.17891e-06 5.15294e-05 0)
(3.67764e-06 7.72202e-05 0)
(2.91681e-07 1.02892e-07 0)
(-4.46128e-07 6.69909e-05 0)
(-4.22529e-07 6.63575e-05 0)
(-3.79606e-08 5.64498e-05 0)
(-9.06775e-08 1.48081e-05 0)
(1.08237e-07 9.25334e-05 0)
(9.32775e-08 0.0001195 0)
(-2.94309e-07 1.03831e-07 0)
(1.164e-06 8.01229e-06 0)
(-4.32219e-06 0.000135389 0)
(2.51554e-06 2.88582e-05 0)
(2.80567e-06 3.78781e-05 0)
(3.06587e-06 4.7817e-05 0)
(8.98016e-06 0.00017561 0)
(-3.49238e-06 1.41712e-05 0)
(7.70628e-06 0.000120959 0)
(7.2034e-06 9.39908e-05 0)
(-5.1447e-06 0.000162167 0)
(7.95844e-07 2.09575e-06 0)
(6.85591e-06 0.000159199 0)
(-1.59096e-06 2.56168e-06 0)
(4.79353e-06 0.000176299 0)
(-3.73026e-06 0.000135403 0)
(2.16298e-06 2.88463e-05 0)
(2.41248e-06 3.78656e-05 0)
(2.63785e-06 4.78008e-05 0)
(6.94967e-07 1.98751e-06 0)
(3.15758e-06 0.000108988 0)
(-1.73706e-06 2.00652e-05 0)
(-6.02094e-07 7.98024e-06 0)
(-9.07849e-06 0.000159756 0)
(-3.46298e-06 4.31062e-05 0)
(-3.1385e-06 3.35826e-05 0)
(-2.78013e-06 2.50207e-05 0)
(4.53961e-06 0.00010038 0)
(4.82676e-06 0.000127776 0)
(1.23924e-05 0.000185981 0)
(7.19819e-06 0.000163494 0)
(7.98455e-06 0.000163217 0)
(1.09438e-07 7.86313e-08 0)
(4.55103e-06 5.12467e-05 0)
(-5.33651e-06 7.75281e-05 0)
(-2.35547e-06 5.19639e-05 0)
(2.66902e-06 7.67384e-05 0)
(-8.06246e-07 8.25268e-05 0)
(-6.17112e-07 0.000132629 0)
(3.59451e-07 3.97183e-05 0)
(3.24265e-07 3.05124e-05 0)
(4.26127e-09 2.16167e-05 0)
(-1.58011e-07 8.02463e-05 0)
(-8.80472e-08 0.000106156 0)
(5.65186e-06 0.000185733 0)
(3.32054e-07 8.21584e-06 0)
(-1.54073e-07 1.93681e-06 0)
(1.06085e-06 0.000112566 0)
(5.47936e-08 2.00211e-06 0)
(-9.00522e-07 6.1623e-06 0)
(2.17397e-06 2.15641e-05 0)
(-4.01272e-06 0.00010628 0)
(-8.6169e-08 9.85957e-08 0)
(-8.41117e-06 0.000159682 0)
(-7.44641e-07 1.45296e-05 0)
(1.45972e-06 0.000120126 0)
(1.45299e-06 9.31015e-05 0)
(2.05223e-07 4.93477e-08 0)
(-2.65562e-06 4.924e-06 0)
(2.79142e-06 3.87967e-05 0)
(2.50822e-06 2.96844e-05 0)
(-4.25105e-06 0.000134015 0)
(8.03315e-07 5.353e-05 0)
(-5.70194e-06 0.000180533 0)
(-1.0349e-07 1.45286e-08 0)
(-3.45687e-06 7.65576e-06 0)
(2.24409e-06 4.24929e-06 0)
(-2.28692e-06 2.55812e-06 0)
(6.36619e-06 6.40167e-05 0)
(4.81208e-06 7.75432e-05 0)
(-4.22239e-06 5.123e-05 0)
(2.9163e-07 2.13999e-05 0)
(-7.20324e-07 8.0544e-05 0)
(-6.06328e-07 0.000106543 0)
(5.99281e-06 0.000157417 0)
(5.64224e-06 6.99783e-05 0)
(2.88717e-06 0.00018191 0)
(2.78016e-06 0.00018258 0)
(7.94184e-07 7.71902e-05 0)
(1.10666e-06 5.31377e-05 0)
(1.02852e-07 1.44347e-08 0)
(-8.13007e-06 0.00014296 0)
(3.09103e-06 1.08752e-05 0)
(1.04856e-08 1.58612e-07 0)
(1.52509e-06 0.000102759 0)
(2.00216e-06 0.000103108 0)
(2.96641e-09 1.40613e-08 0)
(-1.6568e-06 4.11527e-06 0)
(3.91522e-06 3.94311e-05 0)
(3.52306e-06 3.02586e-05 0)
(3.09288e-06 2.20463e-05 0)
(-5.56095e-06 0.000105345 0)
(-5.88282e-06 0.000133098 0)
(5.13277e-06 6.66741e-05 0)
(7.11112e-07 0.000154498 0)
(-3.33241e-06 0.000173917 0)
(-3.15688e-06 0.000174822 0)
(-3.49987e-07 0.00013474 0)
(-3.04844e-07 0.000135467 0)
(2.13512e-07 2.87838e-05 0)
(1.9277e-07 2.92013e-05 0)
(2.3741e-07 3.77981e-05 0)
(2.14037e-07 3.82627e-05 0)
(1.44735e-07 4.77285e-05 0)
(1.77787e-07 4.82219e-05 0)
(3.76447e-07 7.74422e-05 0)
(7.14669e-07 7.86576e-05 0)
(1.25337e-06 0.000118755 0)
(-3.56827e-07 8.2329e-05 0)
(-2.06529e-07 4.96744e-08 0)
(-2.30936e-07 1.84816e-06 0)
(2.77788e-06 0.000108422 0)
(-1.54544e-06 2.03707e-05 0)
(7.90005e-07 2.5547e-06 0)
(1.09078e-05 0.000176461 0)
(-8.65743e-07 0.000136047 0)
(5.15745e-07 2.84661e-05 0)
(5.75156e-07 3.74442e-05 0)
(5.60221e-07 4.73205e-05 0)
(-8.39343e-06 0.000148657 0)
(2.90441e-06 5.43771e-05 0)
(4.23313e-06 0.000187158 0)
(4.7915e-06 0.000186746 0)
(-8.94889e-07 6.35128e-06 0)
(-5.63245e-07 0.000104798 0)
(2.73806e-07 2.23724e-05 0)
(1.34238e-07 1.4264e-07 0)
(1.07031e-05 0.000181372 0)
(-1.62494e-07 3.24227e-06 0)
(-2.10108e-06 3.22239e-05 0)
(-2.32554e-06 4.16099e-05 0)
(-2.77754e-06 4.20372e-05 0)
(-2.51183e-06 3.26115e-05 0)
(-1.83209e-06 2.38038e-05 0)
(-2.21215e-06 2.4157e-05 0)
(3.53243e-06 0.00010177 0)
(3.75346e-06 0.000129258 0)
(1.65471e-06 2.31825e-06 0)
(-1.08201e-07 6.70689e-08 0)
(-9.30396e-06 0.000123458 0)
(-9.6853e-06 0.000181007 0)
(3.14594e-06 7.85968e-05 0)
(-2.94573e-07 3.31677e-06 0)
(-5.05823e-06 0.000101589 0)
(-5.36783e-06 0.00012906 0)
(2.9522e-06 2.42993e-05 0)
(3.33762e-06 3.27695e-05 0)
(3.68729e-06 4.2209e-05 0)
(4.61406e-06 0.000155079 0)
(1.05239e-05 0.000182008 0)
(-5.78287e-06 6.45798e-05 0)
(2.42221e-06 2.18186e-05 0)
(-4.44649e-06 0.000105827 0)
(3.00843e-06 7.91943e-05 0)
(-1.18834e-06 5.68809e-05 0)
(3.09306e-06 3.91198e-05 0)
(2.78131e-06 2.9976e-05 0)
(-4.68265e-06 0.000133541 0)
(-8.58295e-06 6.53028e-05 0)
(8.32534e-06 6.26727e-05 0)
(8.32279e-06 6.33556e-05 0)
(-8.4727e-06 6.45781e-05 0)
(-4.12743e-06 1.12575e-05 0)
(-4.24607e-06 1.16019e-05 0)
(-3.99799e-06 6.335e-05 0)
(-2.15398e-06 2.61928e-06 0)
(-6.45072e-06 6.38235e-05 0)
(-9.6018e-07 0.000149503 0)
(-8.85289e-07 1.08877e-06 0)
(6.52042e-06 3.76793e-05 0)
(5.84416e-06 2.8692e-05 0)
(-9.05384e-06 9.46838e-05 0)
(1.46583e-06 3.91448e-05 0)
(1.31849e-06 2.9996e-05 0)
(-2.26362e-06 0.000133481 0)
(3.14492e-06 9.73285e-06 0)
(4.97934e-06 7.69293e-05 0)
(-4.39556e-06 5.17675e-05 0)
(-2.54052e-06 2.91219e-06 0)
(2.52373e-06 0.000119221 0)
(2.4199e-06 9.23509e-05 0)
(-1.23196e-06 1.49081e-05 0)
(7.37869e-06 0.00011271 0)
(-3.79764e-06 1.8157e-05 0)
(6.84079e-06 8.63086e-05 0)
(-4.36713e-06 1.11097e-05 0)
(5.17831e-06 0.000174262 0)
(5.94394e-06 0.000174011 0)
(5.72926e-06 0.000133101 0)
(5.44213e-06 0.000105356 0)
(-3.11602e-06 2.21089e-05 0)
(-3.5349e-06 3.02566e-05 0)
(-3.93012e-06 3.94288e-05 0)
(-9.33416e-07 9.44563e-07 0)
(-4.60751e-06 0.000162004 0)
(4.9793e-06 0.000104213 0)
(-2.89574e-06 2.27599e-05 0)
(-5.67731e-07 7.2836e-07 0)
(4.23544e-06 0.000176186 0)
(1.12332e-06 9.48312e-07 0)
(9.32755e-07 7.20264e-07 0)
(2.33757e-06 3.40987e-06 0)
(5.12965e-06 0.000142111 0)
(-8.77028e-06 0.000145954 0)
(1.16017e-05 0.000176683 0)
(2.3659e-06 3.58235e-06 0)
(5.13523e-06 6.99578e-05 0)
(6.97098e-06 0.000150527 0)
(-1.12857e-05 0.000142474 0)
(4.35001e-06 1.11325e-05 0)
(-2.6164e-06 0.000151458 0)
(1.0558e-06 3.92639e-05 0)
(9.50141e-07 3.0103e-05 0)
(-1.65235e-06 0.000133302 0)
(-4.2217e-07 2.06736e-06 0)
(2.97728e-06 8.28255e-05 0)
(9.3044e-08 3.73533e-08 0)
(-3.65527e-06 7.58243e-06 0)
(-6.4179e-07 6.83832e-05 0)
(-1.6264e-06 1.36412e-05 0)
(-1.89074e-06 1.37295e-05 0)
(3.3806e-06 9.49644e-05 0)
(3.92929e-06 9.47916e-05 0)
(4.20148e-06 0.000121822 0)
(3.6146e-06 0.000122007 0)
(1.08079e-07 4.24661e-07 0)
(-3.46105e-08 5.14431e-06 0)
(-6.16896e-06 8.55249e-05 0)
(-6.65894e-06 0.000111866 0)
(3.38921e-06 1.85781e-05 0)
(-2.03222e-06 1.11586e-05 0)
(-1.17566e-06 0.000114956 0)
(-1.86036e-06 4.84027e-06 0)
(3.53739e-06 0.000174537 0)
(-2.94641e-06 5.84562e-05 0)
(-3.40992e-06 5.83122e-05 0)
(1.07135e-07 1.12963e-07 0)
(-1.95974e-06 6.04114e-05 0)
(-1.0282e-06 1.25674e-05 0)
(2.20669e-06 9.72399e-05 0)
(2.35503e-06 0.000124436 0)
(-2.70868e-06 0.000114974 0)
(-2.39586e-06 8.83682e-05 0)
(1.22752e-06 1.69685e-05 0)
(1.66972e-06 6.46895e-06 0)
(1.55108e-06 6.2375e-06 0)
(7.50943e-07 5.82897e-05 0)
(-1.02649e-06 0.000121777 0)
(-9.6695e-07 9.47347e-05 0)
(4.20476e-07 1.37333e-05 0)
(-9.6523e-07 2.3434e-05 0)
(-1.75167e-06 4.97373e-06 0)
(6.61798e-06 0.00017858 0)
(-6.53547e-06 0.000107776 0)
(5.06483e-06 5.1567e-05 0)
(-5.90799e-06 7.71709e-05 0)
(7.05659e-06 0.000151195 0)
(-6.66997e-06 4.74869e-05 0)
(-6.10995e-06 3.75723e-05 0)
(7.99418e-06 8.20289e-05 0)
(-5.47253e-06 2.8595e-05 0)
(-4.77021e-06 2.06306e-05 0)
(8.68871e-06 0.000108106 0)
(9.16659e-06 0.000135965 0)
(-2.41839e-06 0.000130212 0)
(-2.28286e-06 0.000102671 0)
(1.45758e-06 3.20195e-05 0)
(1.28727e-06 2.36311e-05 0)
(1.61255e-06 4.13849e-05 0)
(1.39247e-06 3.24704e-05 0)
(-2.29846e-06 0.000129496 0)
(1.53882e-06 4.1883e-05 0)
(1.23152e-06 2.40302e-05 0)
(-2.16847e-06 0.000101996 0)
(-1.2936e-06 0.000164511 0)
(-2.73925e-06 3.65546e-06 0)
(-2.90935e-06 1.68097e-05 0)
(5.86246e-06 0.000115329 0)
(5.44961e-06 8.87368e-05 0)
(-1.82421e-06 2.25222e-05 0)
(3.14753e-06 0.000104604 0)
(8.70283e-06 0.000129044 0)
(8.19571e-06 0.000101581 0)
(-4.91389e-06 2.43615e-05 0)
(-5.55833e-06 3.28296e-05 0)
(-6.14157e-06 4.22678e-05 0)
(9.1669e-06 0.000140621 0)
(1.00083e-05 0.000140445 0)
(2.33551e-07 4.39898e-06 0)
(-9.64976e-07 6.72891e-05 0)
(-2.62991e-06 7.39614e-06 0)
(1.36112e-07 2.65635e-07 0)
(-2.58088e-06 9.36211e-06 0)
(-4.22719e-07 0.000149797 0)
(1.01956e-07 4.21241e-06 0)
(-2.06553e-06 7.1997e-05 0)
(8.34408e-06 9.47388e-05 0)
(-3.98565e-06 1.38406e-05 0)
(8.91962e-06 0.000121756 0)
(-9.10292e-09 -6.30844e-09 0)
(5.28282e-07 0.000112671 0)
(1.72247e-07 7.32414e-08 0)
(1.17417e-07 8.90004e-08 0)
(1.46262e-06 8.15263e-05 0)
(-1.97489e-07 1.6439e-07 0)
(6.76419e-06 0.000179898 0)
(4.7991e-07 0.000103079 0)
(-2.97359e-07 2.33641e-05 0)
(1.55597e-06 9.52833e-06 0)
(9.09314e-07 0.000102765 0)
(-5.62132e-07 2.35318e-05 0)
(-9.9841e-08 2.15206e-06 0)
(-6.55948e-06 3.76623e-05 0)
(-5.87663e-06 2.86779e-05 0)
(-5.12328e-06 2.07088e-05 0)
(-4.29342e-06 1.38732e-05 0)
(8.98451e-06 9.47033e-05 0)
(9.32089e-06 0.00010799 0)
(9.6044e-06 0.000121716 0)
(9.83707e-06 0.000135844 0)
(-4.39862e-06 0.000146378 0)
(-3.91297e-06 0.000173584 0)
(-1.25744e-05 0.00014375 0)
(4.7509e-06 1.06669e-05 0)
(2.82997e-06 0.000183886 0)
(3.29716e-06 0.000183103 0)
(8.64298e-07 0.000100536 0)
(9.36779e-07 0.000127959 0)
(-7.2498e-07 4.29999e-05 0)
(-6.56209e-07 3.34828e-05 0)
(-5.80212e-07 2.49281e-05 0)
(-3.79066e-06 1.11398e-05 0)
(1.37344e-06 8.02781e-06 0)
(-4.98643e-06 4.50027e-05 0)
(6.42029e-06 9.79065e-05 0)
(-4.53594e-06 3.53114e-05 0)
(-4.03843e-06 2.65649e-05 0)
(6.84208e-06 0.000125141 0)
(-2.87737e-06 1.2328e-05 0)
(6.92417e-06 0.000139379 0)
(1.15786e-06 6.45097e-05 0)
(-7.63027e-07 0.000155412 0)
(7.77888e-07 3.93593e-07 0)
(-5.65176e-07 0.000136754 0)
(3.36098e-07 2.80499e-05 0)
(3.74869e-07 3.69803e-05 0)
(3.41737e-07 4.68124e-05 0)
(2.14308e-06 0.000160925 0)
(-3.22685e-07 2.09284e-07 0)
(1.10015e-05 0.000158386 0)
(-1.70259e-06 6.82873e-05 0)
(-5.48272e-08 1.2228e-07 0)
(3.93351e-06 9.64151e-05 0)
(-1.83573e-06 1.29631e-05 0)
(4.19912e-06 0.000123555 0)
(9.36957e-08 7.51966e-08 0)
(-2.45419e-06 1.55947e-05 0)
(4.77784e-06 9.1044e-05 0)
(5.12756e-06 0.000117809 0)
(8.6828e-07 1.17251e-06 0)
(-3.4321e-06 5.97187e-05 0)
(6.92557e-07 6.37618e-05 0)
(-7.67334e-06 0.000169114 0)
(6.77104e-07 0.000101073 0)
(7.21434e-07 0.000128515 0)
(-6.15899e-07 4.25945e-05 0)
(-4.90682e-07 2.4603e-05 0)
(-5.5689e-07 3.31148e-05 0)
(1.12038e-06 6.49764e-05 0)
(-1.73336e-07 6.74689e-07 0)
(-1.55177e-07 2.26348e-06 0)
(3.02302e-07 0.000149556 0)
(7.57263e-06 6.97543e-05 0)
(-7.18659e-06 5.83146e-05 0)
(-5.39616e-06 0.000188966 0)
(-1.22167e-05 0.000124295 0)
(-1.14579e-05 9.71262e-05 0)
(-1.18693e-05 0.000110492 0)
(-1.09804e-05 8.42682e-05 0)
(6.21015e-06 1.94184e-05 0)
(7.16275e-06 2.71829e-05 0)
(8.02498e-06 3.59852e-05 0)
(8.80619e-06 4.57254e-05 0)
(1.21313e-05 0.000124294 0)
(1.17855e-05 0.000110492 0)
(-6.25158e-06 1.94211e-05 0)
(-7.21261e-06 2.71866e-05 0)
(1.1376e-05 9.7126e-05 0)
(-8.08331e-06 3.59877e-05 0)
(1.09024e-05 8.42671e-05 0)
(-8.87117e-06 4.57285e-05 0)
(-3.6502e-06 1.08331e-05 0)
(-1.92044e-06 0.000155086 0)
(-1.37925e-06 0.000154941 0)
(-1.70736e-06 0.000175334 0)
(2.75445e-06 0.000107112 0)
(-1.56107e-06 2.10927e-05 0)
(-5.76661e-07 8.73083e-07 0)
(-2.20013e-06 0.000185177 0)
(-2.45479e-06 4.10719e-05 0)
(-3.00234e-06 4.09203e-05 0)
(-2.21547e-06 3.17372e-05 0)
(-2.70897e-06 3.1601e-05 0)
(3.48976e-06 0.000130892 0)
(4.19781e-06 0.000130952 0)
(9.26574e-06 0.000128714 0)
(8.72336e-06 0.000101272 0)
(-5.24945e-06 2.45581e-05 0)
(-5.93362e-06 3.30493e-05 0)
(-6.55286e-06 4.25084e-05 0)
(-5.68729e-06 8.58203e-05 0)
(-6.13692e-06 0.000112186 0)
(3.10536e-06 1.8404e-05 0)
(-1.81117e-06 7.70444e-05 0)
(1.50035e-06 5.1653e-05 0)
(1.80276e-06 0.000134532 0)
(-1.12621e-06 2.93123e-05 0)
(-1.25587e-06 3.83856e-05 0)
(-1.35373e-06 4.82728e-05 0)
(3.50787e-06 5.10498e-05 0)
(2.96827e-06 5.11778e-05 0)
(-4.14069e-06 7.77344e-05 0)
(-3.51074e-06 7.75785e-05 0)
(-4.14073e-06 0.000183808 0)
(2.95147e-07 8.39036e-07 0)
(6.79732e-06 0.000158556 0)
(2.4718e-06 5.65761e-05 0)
(6.67928e-06 0.00011038 0)
(-3.55849e-06 1.93627e-05 0)
(6.17686e-06 8.41477e-05 0)
(-5.82832e-06 6.75704e-05 0)
(1.44451e-06 1.47253e-05 0)
(-3.23592e-06 0.000119611 0)
(-3.02388e-06 9.27254e-05 0)
(3.77192e-07 5.88164e-05 0)
(-5.27769e-07 9.53534e-05 0)
(-5.57872e-07 0.000122436 0)
(2.10291e-07 1.34375e-05 0)
(3.90376e-06 5.3381e-05 0)
(-4.47754e-06 7.50645e-05 0)
(-2.14493e-06 0.000164508 0)
(-9.80939e-06 0.000162959 0)
(1.73604e-06 7.16793e-05 0)
(4.40291e-06 7.18987e-05 0)
(-3.73838e-06 1.4315e-05 0)
(8.21322e-06 0.000120665 0)
(7.67523e-06 9.37173e-05 0)
(-4.26273e-07 1.84061e-06 0)
(-1.35517e-06 0.000137688 0)
(7.41977e-07 2.74969e-05 0)
(8.2999e-07 3.63629e-05 0)
(9.02643e-07 4.61431e-05 0)
(-2.07133e-06 6.79607e-05 0)
(-9.09509e-06 0.000163012 0)
(-2.71448e-06 2.75292e-05 0)
(-3.0406e-06 3.63951e-05 0)
(-3.32466e-06 4.61965e-05 0)
(4.58834e-06 0.00013764 0)
(9.09901e-09 1.24223e-08 0)
(5.71693e-06 6.70405e-05 0)
(6.99249e-08 5.47937e-06 0)
(-2.92227e-07 5.24203e-07 0)
(-6.03883e-07 2.37465e-06 0)
(-2.83989e-06 9.97487e-06 0)
(-2.99382e-07 1.10939e-07 0)
(1.133e-06 3.10087e-05 0)
(1.00237e-06 2.27229e-05 0)
(1.25629e-06 4.02677e-05 0)
(-1.92689e-06 0.000131828 0)
(-1.8306e-06 0.000104222 0)
(-5.63293e-06 5.58472e-05 0)
(6.01218e-06 7.2321e-05 0)
(-5.9212e-07 3.55893e-07 0)
(7.22946e-06 0.000174321 0)
(5.20451e-06 0.000156205 0)
(-1.11929e-05 0.000147171 0)
(4.14558e-06 7.13554e-05 0)
(1.47336e-06 7.73634e-05 0)
(-2.84353e-06 0.000185094 0)
(-7.90301e-06 8.09673e-05 0)
(-7.51932e-06 8.0618e-05 0)
(1.09866e-05 0.00018504 0)
(-9.1626e-07 0.000165317 0)
(-2.54332e-06 5.14489e-05 0)
(2.96763e-06 7.73482e-05 0)
(8.83379e-08 5.66895e-06 0)
(1.46064e-06 2.02584e-06 0)
(2.96203e-07 1.09748e-07 0)
(2.61666e-06 8.22966e-05 0)
(9.6783e-06 0.000188792 0)
(-5.35481e-06 0.000131851 0)
(-5.05337e-06 0.000104219 0)
(2.84846e-06 2.27483e-05 0)
(3.59542e-06 4.02752e-05 0)
(3.24136e-06 3.10194e-05 0)
(-1.09021e-07 7.80414e-08 0)
(-4.33222e-07 0.000171974 0)
(4.99617e-06 7.21059e-05 0)
(-4.62558e-06 5.61258e-05 0)
(-8.00744e-06 0.000167861 0)
(-1.19496e-05 0.00012492 0)
(-1.16122e-05 0.000111096 0)
(-1.12143e-05 9.77103e-05 0)
(-1.07502e-05 8.48285e-05 0)
(6.02247e-06 1.90912e-05 0)
(6.95735e-06 2.68078e-05 0)
(7.80354e-06 3.55665e-05 0)
(8.57028e-06 4.52672e-05 0)
(1.18632e-05 0.000124916 0)
(1.15283e-05 0.000111096 0)
(-6.0632e-06 1.90952e-05 0)
(-7.00614e-06 2.68124e-05 0)
(1.11308e-05 9.77085e-05 0)
(-7.86071e-06 3.55702e-05 0)
(1.06711e-05 8.48252e-05 0)
(-8.63412e-06 4.52716e-05 0)
(-1.86748e-06 2.55593e-06 0)
(7.35389e-07 7.12095e-07 0)
(-9.85226e-07 1.842e-06 0)
(4.44685e-06 7.07796e-05 0)
(-4.93893e-06 7.28345e-05 0)
(9.35829e-07 1.15964e-06 0)
(-1.47208e-07 2.46106e-08 0)
(-1.07643e-05 0.00014752 0)
(6.10812e-06 0.00018691 0)
(6.85933e-06 0.000187259 0)
(1.46354e-07 2.44631e-08 0)
(2.09902e-06 2.86178e-06 0)
(9.58697e-06 0.000170361 0)
(-3.71352e-06 8.03408e-05 0)
(-2.60268e-07 2.34742e-07 0)
(-5.86558e-07 9.34008e-07 0)
(-9.2176e-08 2.36561e-08 0)
(1.71569e-07 1.37375e-07 0)
(1.004e-05 6.43517e-05 0)
(-1.00778e-05 6.36249e-05 0)
(3.08076e-06 4.88412e-05 0)
(-3.80665e-06 7.89042e-05 0)
(3.19766e-06 5.00669e-05 0)
(-1.80251e-07 3.05438e-06 0)
(-2.34127e-06 0.000124896 0)
(1.82352e-06 6.08015e-05 0)
(-1.32042e-06 0.000123566 0)
(-1.26836e-06 9.63546e-05 0)
(5.45278e-07 1.29704e-05 0)
(9.8998e-07 5.97238e-05 0)
(-4.13847e-06 7.99404e-05 0)
(2.23635e-06 3.02979e-06 0)
(3.45334e-06 4.92014e-05 0)
(1.25209e-06 7.17866e-05 0)
(9.63445e-06 0.000175855 0)
(-3.00197e-06 7.2365e-05 0)
(-3.44695e-06 7.28456e-05 0)
(-2.92557e-06 6.36093e-06 0)
(-3.34209e-06 7.51065e-05 0)
(-2.86268e-06 7.45977e-05 0)
(2.94474e-06 5.32958e-05 0)
(2.58264e-06 5.38095e-05 0)
(-3.23825e-06 1.52718e-05 0)
(6.40434e-06 9.17331e-05 0)
(6.86755e-06 0.000118544 0)
(-9.19499e-07 1.0487e-06 0)
(-4.14669e-06 7.93138e-05 0)
(3.47659e-06 4.97379e-05 0)
(-2.64344e-06 0.000101483 0)
(-2.80419e-06 0.000128951 0)
(1.52236e-06 2.4339e-05 0)
(1.89962e-06 4.22662e-05 0)
(1.72013e-06 3.28182e-05 0)
(-1.44546e-06 6.86545e-06 0)
(-8.58861e-06 0.0001069 0)
(-8.14068e-06 0.000106569 0)
(4.68545e-06 2.12863e-05 0)
(4.45507e-06 2.14681e-05 0)
(5.6292e-06 8.52808e-05 0)
(6.19259e-06 8.48698e-05 0)
(-3.18585e-06 1.87074e-05 0)
(-3.52528e-06 1.89503e-05 0)
(6.07928e-06 0.000111604 0)
(6.69074e-06 0.000111159 0)
(-2.48935e-06 0.000163914 0)
(4.86298e-06 0.000149892 0)
(4.93358e-06 0.000149204 0)
(-3.71993e-06 5.00717e-05 0)
(4.26063e-06 7.88851e-05 0)
(-1.28909e-05 0.000182356 0)
(-3.73373e-06 0.000145968 0)
(-3.58703e-06 0.000145295 0)
(1.29269e-06 9.92155e-06 0)
(1.32959e-06 9.67263e-06 0)
(1.10615e-05 0.000147561 0)
(-4.99814e-06 6.38803e-05 0)
(-4.29489e-06 6.39024e-05 0)
(1.09421e-05 0.000166293 0)
(-1.11358e-05 0.000175171 0)
(-1.11215e-05 0.000175994 0)