/*--------------------------------*- C++ -*----------------------------------*\
| =========                 |                                                 |
| \\      /  F ield         | OpenFOAM: The Open Source CFD Toolbox           |
|  \\    /   O peration     | Version:  2.3.1                                 |
|   \\  /    A nd           | Web:      www.OpenFOAM.org                      |
|    \\/     M anipulation  |                                                 |
\*---------------------------------------------------------------------------*/
FoamFile
{
    version     2.0;
    format      ascii;
    class       volSymmTensorField;
    location    "1360";
    object      sigma;
}
// * * * * * * * * * * * * * * * * * * * * * * * * * * * * * * * * * * * * * //

dimensions      [1 -1 -2 0 0 0 0];

internalField   nonuniform List<symmTensor> 
11800
(
(81038.5 57133.3 3.95775e-14 -2145.5 2.10129e-14 19574.9)
(-43247.6 55373.4 6.07545e-14 -2986.68 1.93251e-14 -11471.7)
(347871 64266.4 -9.23087e-16 903.655 -4.48374e-14 86538)
(-306635 41251.7 0 2415.93 0 -75483)
(-44283.6 53155.3 1.13365e-14 -7386.5 -3.21059e-14 -12820.4)
(-193310 68581.9 4.442e-14 3105.87 2.33524e-14 -47193.4)
(-35488.5 67199.9 8.32429e-14 -749.095 -2.16903e-14 -8991.28)
(-49299.5 66685.9 -1.24338e-14 1486.83 5.0166e-14 -11863.3)
(111031 48678.5 1.74053e-14 373.301 -1.19605e-14 27641.6)
(71766.1 69759.6 -4.3335e-14 1741.99 -3.65889e-14 18238.8)
(93961.4 50361.2 -3.30186e-14 -217.513 2.83277e-14 23259.8)
(-444741 32853.5 -4.00675e-14 -3603.48 -1.82346e-14 -111243)
(14469.8 -21052.7 7.85344e-17 -39059.9 6.1026e-17 -6101.3)
(323005 41138.2 3.6452e-14 2575.24 -1.00221e-14 80783)
(-261586 63990.7 -3.0137e-14 6921.65 2.34932e-14 -63187.3)
(1.30591e+06 3908.41 0 -3071.78 0 323260)
(-23444.7 56780.2 2.81686e-14 1477.54 2.49185e-15 -5450.49)
(-35673.4 51610.7 -1.59419e-14 3745.04 9.18432e-14 -7922.07)
(74906.4 86028.8 -1.70756e-14 -11344.7 1.22063e-14 15770.9)
(54212.3 48163.7 -5.76859e-14 -4514.63 -1.86908e-14 12331)
(-242628 45780.3 1.78715e-14 1526.52 1.87636e-14 -59822.1)
(-388303 60376.7 2.86519e-14 1701.84 -1.66946e-14 -95923.7)
(-571189 84523.7 -1.53679e-14 7323.61 9.99613e-15 -139907)
(-524430 56487.5 1.59752e-16 258.974 2.70488e-15 -130057)
(1.05666e+06 58712.5 1.73699e-15 -4652.85 2.20596e-14 261025)
(-672381 82645.9 -1.50311e-14 4167.99 -4.57242e-16 -165797)
(-652711 43660.4 0 5254.83 0 -160647)
(319222 35401.3 -4.69929e-14 -5431.71 -2.84361e-14 77857.7)
(-721450 45482.3 -8.56643e-15 6474.7 -4.04687e-14 -177400)
(-793819 46788.7 1.11951e-14 6155.87 -1.75748e-14 -195435)
(215532 38945 -5.81181e-14 -1165.02 -1.04406e-13 53188.8)
(42219.1 57669.8 -1.00676e-14 1620.73 -8.4599e-15 10877.6)
(672782 78338.4 -2.39643e-15 7668.62 -1.07755e-14 168834)
(-18709.2 63499.5 7.60675e-15 -238.542 -5.7053e-14 -4701.33)
(11699.4 65302.6 -2.00927e-14 4278.79 -8.64898e-14 3964.52)
(-213042 31643.2 -5.27759e-14 4135.68 -3.83976e-14 -51833.9)
(11998 65219.4 7.13842e-14 2858.92 -8.512e-14 3686.3)
(721393 53388.4 -8.79249e-15 3612.44 -3.86904e-14 179888)
(-25222 61468.5 0 -3872.07 0 -7218.84)
(51849.6 56919.3 -2.4989e-14 3149.53 4.66355e-14 13646.4)
(-685933 36461.9 -4.50545e-14 -3004.59 -2.10155e-14 -170939)
(-757881 37322.3 3.23874e-14 -2931.31 -1.86426e-14 -188773)
(334713 44496.5 -1.8073e-14 -3401.13 -6.04721e-14 82205.1)
(-834173 38937.9 -6.39447e-15 -5098.4 -3.3382e-14 -208240)
(226138 45912 1.5454e-13 2216.71 -4.83304e-14 56659.4)
(1.2183e+06 39311 0 -4770.69 0 301102)
(537146 89830.6 -9.73113e-15 -2521.27 5.1564e-15 132651)
(642424 44536.9 -1.70886e-14 -6874.02 -1.20051e-14 157693)
(-56423 62721.3 -6.12843e-14 -1836.86 -3.78525e-14 -14455.5)
(128461 58784.2 0 1749.51 0 32307.8)
(-457370 34909.9 -2.91944e-15 2459.55 3.16181e-14 -112872)
(-323226 34871.2 1.02865e-13 5122.65 1.20858e-14 -78927.8)
(-6756.42 64659.8 5.75573e-14 -873.082 3.59384e-14 -1893.03)
(22393.1 100625 -1.36964e-15 5007.8 1.19806e-14 6798.71)
(-1.40046e+06 7024.22 -2.17085e-15 -7403.76 -3.22351e-15 -349318)
(1.16048e+06 -37069.7 2.77217e-15 -53540.3 5.12169e-15 274653)
(-38976.1 24135.8 4.96105e-14 1706.35 1.84535e-14 -9247.37)
(-291779 67313 3.72428e-15 -2792.69 -3.13634e-14 -73089.2)
(230644 48509.5 -3.16204e-14 4864.2 4.63627e-14 58434.5)
(-209644 68151.6 2.61534e-14 -5340.48 -4.72252e-15 -53342)
(1.18354e+06 27354 -2.45255e-14 -8910.72 -8.5179e-15 291451)
(-28492.8 67046.5 2.43565e-14 361.012 -3.97489e-14 -6980.07)
(-230915 57909.1 -1.43086e-14 -2587.64 2.47022e-14 -57936.9)
(180586 58192.5 4.31155e-14 430.845 -2.46496e-14 44914)
(1.04606e+06 20099.8 2.73483e-15 1009.2 -1.59292e-14 259799)
(-148320 33501.9 -6.97502e-14 2628.49 -8.446e-14 -36149)
(-473173 20698.1 4.9326e-14 1688.79 1.64939e-14 -116985)
(-338084 22901.7 1.34543e-15 4161.92 -8.63939e-14 -82852.9)
(-39892.8 25954 0 -2223.44 0 -10449.9)
(-627095 53328 -1.08187e-15 5786.42 3.96499e-14 -154159)
(-16067.3 66608.5 -1.39679e-14 551.652 2.89083e-14 -3849.75)
(-30947.9 54491.2 -5.38166e-14 -3113.18 6.03533e-14 -8451.24)
(-27665.4 52768.5 3.77459e-14 -4086.93 -2.31518e-14 -7878.4)
(-990666 235094 -3.55267e-15 134820 3.32036e-15 -212353)
(1.17077e+06 55708 -8.54268e-16 -4814.42 -9.90072e-15 289298)
(-200717 42296.2 -5.18445e-14 6882.64 -3.77661e-14 -48094.3)
(1.08288e+06 18736.6 -2.01688e-14 2926.94 1.79551e-14 269411)
(-144859 24842.1 4.58587e-14 1043.71 -1.50756e-13 -35683.4)
(-107795 41722.4 8.61907e-15 3846.28 -8.24622e-15 -25791.9)
(-104220 49583.3 8.79695e-14 3715.5 8.84313e-14 -24937.2)
(-1.41615e+06 -21334.3 7.72201e-15 4648.26 3.49728e-14 -350222)
(56064.3 46527 0 5498.52 0 15275)
(33230.7 54519 -9.14863e-14 239.579 -3.61354e-14 8304.65)
(22669.7 58019.3 3.17165e-14 2751.72 -2.54026e-16 6307.58)
(-45719.4 51189.4 2.19832e-14 -4679.46 6.23461e-14 -12505)
(-769700 57056.6 -1.23315e-14 -4635.1 6.38492e-14 -192128)
(229497 44081 7.38865e-14 2181.13 -2.30385e-14 57484)
(-698334 52659.2 0 -3300.73 0 -174090)
(-632661 51176.7 -2.61967e-14 -3106.89 -2.6822e-14 -157747)
(333972 41077.1 3.39303e-14 3155.95 2.06361e-15 83648.2)
(-7934.96 62853.6 -1.1924e-13 -1977.75 -7.66636e-14 -2459.55)
(797614 73193.9 0 -2521.47 0 197279)
(-63838.8 56885.4 -2.52958e-14 1761.35 -4.20397e-14 -15402.7)
(45920.3 21963.6 -1.46107e-14 3377.86 -2.12328e-14 12231.9)
(90991.7 52564.7 1.12822e-13 -310.361 2.01544e-15 22499.9)
(33498 -25281.1 -4.99973e-16 -71201.6 -3.70635e-16 -9355.03)
(-1771.14 6923.49 1.29676e-17 4154.88 -7.7122e-17 591.453)
(-33675.7 -25015.7 -3.15142e-16 70732.3 2.09993e-16 9194.49)
(-7870.92 64314.6 -3.70729e-14 -1422.87 -5.43407e-16 -2305.98)
(-386532 42390.8 -9.15081e-15 -1840.54 3.68434e-14 -96363.2)
(31593.3 37002.8 2.03843e-14 -390.454 -5.71661e-14 7742.05)
(417310 46818.5 -4.44161e-14 -4564.64 -6.1726e-14 102410)
(-754878 80027.9 3.16325e-15 1196.67 6.42811e-15 -187004)
(-253559 64045 -1.93972e-15 4366.46 6.18551e-15 -61829.7)
(1190.37 67844.3 -5.72488e-15 -302.627 -2.85405e-14 220.266)
(188391 77084.5 -1.23917e-14 1842.83 -2.15973e-14 47200.8)
(-85100 54277.4 -3.51848e-14 901.655 7.77952e-14 -20891.3)
(-60083.2 57999 -1.18855e-13 -612.373 -5.74497e-14 -15059.8)
(1.15056e+06 24370.3 7.08466e-15 2454.8 1.51035e-14 286086)
(695114 47939.9 1.12282e-14 1862.37 2.27463e-15 172934)
(767464 50069.1 2.15513e-14 2674.11 3.02957e-14 191087)
(630746 45683.6 7.80643e-14 2849.12 4.63676e-14 157208)
(-233903 44725.5 3.46503e-14 -4252.31 5.41952e-14 -59091.3)
(-340400 42261.1 -9.17587e-14 -3468.22 3.30244e-14 -85320.6)
(119354 50048.6 3.97102e-14 324.594 -2.08671e-14 29694.7)
(1.03716e+06 36344.4 1.0797e-14 -143.12 6.42062e-15 257305)
(141557 28847.8 -2.85361e-14 -3395.48 -1.12296e-13 34280.7)
(-42749.5 60943.5 -9.88236e-14 1639.19 9.26383e-14 -10200.3)
(970947 59845.1 -1.25548e-14 149.097 1.56843e-14 240949)
(-76196.9 72013.1 -3.25461e-14 943.576 -8.77839e-15 -18671.9)
(-129643 45023 -2.31453e-14 1075.87 -9.81004e-15 -31900.1)
(36651 67387.2 7.08349e-14 -3338.2 -1.01609e-13 8265.59)
(51024 67526.8 -4.95528e-14 -867.129 3.41408e-14 12444.9)
(-35537 56706 -1.43805e-14 -732.158 -2.12524e-14 -8999.12)
(-66590.2 54360.5 -8.99866e-14 896.61 -7.03733e-14 -16299.9)
(-2428.75 64133.2 -8.64817e-14 -2544.32 -6.52468e-14 -1233.92)
(-22496.4 64008.5 -5.18569e-14 -4835.73 5.71079e-14 -6781.66)
(-3519.83 63783.4 -3.39058e-14 -1179.32 -3.23894e-14 -1165.96)
(6249.82 49581.8 1.61993e-15 29029.8 7.25219e-14 8753.6)
(-27247.8 13186.2 -2.80286e-16 -6234.24 3.45731e-14 -8307.59)
(-1.27383e+06 -199979 1.14768e-14 55088.2 -5.89262e-15 -302396)
(-882837 58329.7 8.10355e-15 -6565.17 -1.23058e-15 -220679)
(251941 39693.4 3.91159e-14 4337.91 -3.82123e-14 63588)
(-763506 56901.8 -3.12422e-14 2830.54 1.96937e-14 -188739)
(356759 36003.2 -1.77355e-14 5434.88 5.36022e-14 89867.7)
(-690125 51849 1.19064e-14 3138.01 1.19545e-14 -170455)
(-624954 49636.2 -6.77243e-14 3072.84 5.19105e-14 -154301)
(209443 51488.9 3.82394e-14 -631.332 1.06897e-13 51810.5)
(-654537 32939.7 4.25696e-14 6086.4 -5.89895e-14 -160894)
(299152 51107.7 4.7694e-14 -103.965 -3.80341e-14 74199.9)
(-592533 30343.1 3.49554e-14 4999.45 -6.06663e-14 -145779)
(-536893 30500.8 -3.62865e-14 5084.25 -3.26959e-14 -131953)
(-321412 71398.1 2.82149e-15 8608.91 2.81618e-14 -77612.8)
(90045.9 58822.5 -1.90763e-14 -5210.21 -1.27574e-13 21049.5)
(127149 54556 -3.06033e-14 -4614.47 -8.87374e-14 30403.3)
(-188976 53233.9 -9.27449e-15 6380.66 5.38435e-14 -45305.5)
(756450 34298.8 -5.89616e-14 808.669 -1.98619e-14 187891)
(-789968 -1380.22 5.68446e-14 -7177.17 1.76582e-14 -197788)
(438668 38299.4 3.99018e-14 -3111.01 -3.71965e-14 108070)
(-251318 46180.8 9.37249e-16 4414.47 5.59464e-15 -61261.7)
(-110044 57211.9 -4.95074e-14 3316.02 -4.09953e-14 -26481.3)
(-115031 50945.5 4.23718e-14 -47.0906 -3.84254e-14 -28553.2)
(11035.4 64244.5 3.22108e-14 2303.16 5.89876e-14 3309.56)
(-161968 43941.2 -7.24582e-14 2094.78 7.52964e-14 -39667.9)
(130814 49487.2 -3.80799e-14 -4196.76 -4.03362e-14 31416.3)
(87588.7 59140.3 -3.48263e-14 808.481 2.69094e-14 21933.1)
(-289176 46163.8 5.90117e-14 5827.08 -3.98056e-14 -70304.6)
(-400510 49304.4 2.16258e-14 1704.01 4.72563e-14 -98951.8)
(856068 26729.3 1.38884e-14 1292.72 -2.14049e-16 212729)
(-3310.8 66151.4 1.6908e-14 641.126 -8.24528e-14 -662.4)
(1.30697e+06 59217.2 -1.65714e-14 -9249.63 -9.07159e-15 321990)
(-133609 51657 -6.25873e-14 1805.13 4.3218e-14 -32703.2)
(1.0865e+06 39630.3 0 -12516.4 0 266478)
(-299921 52223.1 1.89695e-14 -1448.68 7.89665e-14 -74775.9)
(-330810 53552.3 -1.94373e-14 -2273.29 2.317e-14 -82644.6)
(-364540 57218.6 -3.03387e-15 -2541.44 8.45743e-14 -91080.4)
(159001 55199.9 -4.65582e-14 253.445 1.14837e-14 39514.1)
(107865 59373.3 -4.95184e-14 -710.413 1.22591e-14 26587.2)
(-1.44682e+06 -2400.82 1.32194e-14 -6723.84 -7.58033e-15 -360655)
(-850109 56748.2 -1.30995e-14 -4736.88 2.49994e-14 -212105)
(281025 43420.7 -4.94654e-14 3736.95 -2.90092e-14 70655.1)
(384439 39169.6 1.39715e-13 2282.53 -7.524e-14 95953.5)
(46332.7 61240.5 2.71965e-14 -5755.25 -7.04744e-14 10068.1)
(-237455 31722 0 1830.03 0 -58463.3)
(-243015 22387.5 7.43368e-14 1364.79 -3.78562e-14 -59958.2)
(1.20827e+06 41696 2.1153e-14 -9092.71 1.41661e-14 297541)
(1.2396e+06 1618.95 1.74884e-14 8633.24 1.55698e-14 309712)
(616775 28894.7 8.96015e-16 178.714 3.63699e-14 153079)
(559934 28203 7.03421e-15 1357.26 8.75778e-14 139268)
(680609 28469.9 1.90046e-14 -543.16 -2.74369e-14 168738)
(-286875 51721.1 -4.49228e-14 2819.9 4.05089e-14 -70479.8)
(-194191 52575.6 -4.35044e-14 1049.2 4.78261e-14 -47922.4)
(123540 65975.9 0 1299.63 0 30975.2)
(82272.3 68989.6 -1.83799e-15 937.669 6.93165e-14 20646.1)
(270038 53811.5 -5.4068e-14 -624.062 4.4284e-14 66847)
(-116235 51652.1 -4.32066e-14 817.56 1.02796e-13 -28637.5)
(-195991 77958.3 -8.88011e-15 1727.8 3.95799e-14 -48200.5)
(56023.7 58427.5 -1.58484e-13 -857 -4.21536e-14 13688)
(78500.1 53202.6 -1.10032e-13 4.69617 4.61419e-14 19478.6)
(-53597 63471.8 -2.13516e-14 1638.13 -2.97903e-16 -12892.1)
(-146117 51559.1 -1.83289e-14 2645.77 -1.14986e-14 -35598.2)
(-132095 49385.6 1.20095e-14 1699.24 -2.0589e-14 -32353.8)
(-135688 40868.3 0 -924.646 0 -33896.4)
(-70499.5 81734.9 2.67658e-16 -3353.68 -2.49392e-14 -18324.5)
(-576260 11168 5.23253e-14 -5789.63 -2.29209e-14 -144418)
(728635 38860.3 -6.87956e-14 -2996.83 -6.83469e-15 180046)
(1.03091e+06 128189 4.37525e-15 -189964 2.23116e-15 208657)
(-24813.9 59328 1.4149e-14 -1787.6 -3.21469e-14 -6600.37)
(148383 25327.9 5.1617e-14 756.131 -1.18075e-13 37004.6)
(-1.30289e+06 -150164 1.09839e-14 111579 -7.31618e-15 -295588)
(68502.5 48763.1 2.2112e-15 3511.3 6.00387e-14 17868.1)
(181269 33721.7 4.17054e-14 2811.4 -4.79471e-14 45674)
(199373 35892.3 5.82249e-14 -3443.45 -2.46059e-14 48614.2)
(-2730.27 66528.9 4.38246e-14 23.5508 -6.51691e-15 -671.592)
(-3319.01 68059.6 4.62312e-14 -525.784 3.91986e-15 -953.972)
(527902 30974.9 1.49178e-14 -4750.84 5.02527e-14 129804)
(436810 63466.2 1.91779e-14 1165.07 -4.64504e-15 108671)
(-395347 53463.4 0 2248.09 0 -97535.8)
(-338997 36253.2 -4.82448e-14 -6436.73 -3.02423e-14 -85709.1)
(1.2643e+06 -201453 -4.59256e-15 -56493.1 -3.19108e-15 299683)
(-367523 87196.8 -3.99366e-15 9490.53 4.77152e-14 -88835.1)
(-596777 42813.3 2.81722e-14 -2323.66 -1.6757e-14 -148649)
(-1.3241e+06 -532022 -1.24292e-14 284124 4.90162e-15 -258039)
(1.49642e+06 4799.74 0 20734.3 0 376436)
(-1.16015e+06 -493518 -4.04793e-15 135184 1.2605e-15 -254316)
(188941 90283.1 -2.68976e-14 226.218 9.59823e-15 46936.3)
(-42987.1 56061 -4.47266e-15 -3073.61 6.26562e-14 -11428.6)
(-539689 66255 2.31401e-14 -4060.58 -2.56184e-14 -134915)
(-485784 63025.8 3.43029e-14 -2967.71 -4.26822e-15 -121269)
(-440273 60623.7 -3.88502e-14 -2830.3 1.48353e-15 -109943)
(157360 50294.5 3.32049e-14 2720.04 -9.27897e-14 39719.1)
(230736 46153.1 -8.35522e-14 2884.89 8.13575e-14 57966.1)
(23403.5 56290.5 -1.3099e-14 -5610.8 6.16037e-14 4414.72)
(32249.1 51230.3 3.11131e-14 -6468.34 3.99382e-14 6396.74)
(-84206.8 83237.8 -3.72464e-14 11932.1 1.01295e-14 -17932.8)
(-48530.4 49948.5 2.67595e-14 8711.16 -3.43131e-14 -9879.97)
(-728308 -293268 -3.14208e-15 -17882.2 6.56047e-16 -185145)
(119016 83124 -2.09769e-14 9019.67 -7.50351e-14 31768.3)
(-58325 51172.8 -6.95787e-14 -5417.57 -3.18799e-14 -15815.8)
(-273115 71339.1 0 272.137 0 -67697.7)
(119214 54713.2 5.58809e-14 995.252 -2.29535e-14 29826.3)
(-57555.7 63936.9 0 28.642 0 -14273.6)
(-45555.5 57194.8 -3.3651e-14 311.715 -5.34235e-14 -11225.9)
(401475 53064.7 4.79073e-14 2823.6 -5.01096e-14 100315)
(412986 38941.1 7.30704e-14 -712.522 3.49576e-14 102293)
(1.31589e+06 -528890 -4.62932e-15 -282975 -1.53995e-15 256287)
(724030 -291841 5.42103e-15 17766.5 1.4887e-15 184055)
(-135521 43883.7 1.02601e-14 684.088 1.4631e-14 -33455.9)
(-145446 45767.8 -3.11602e-14 -2006.08 -6.38717e-14 -36586)
(-726535 10992.1 -3.49739e-14 -4063.62 -8.072e-15 -181276)
(581859 39346.6 7.85414e-14 -3334.04 -2.06118e-14 143544)
(193772 54150.3 2.51801e-15 -966.178 1.41606e-13 47839.1)
(285144 54297.5 4.8068e-14 -2145.81 5.24073e-14 70217.7)
(-689480 29796.2 -1.19655e-15 -1746 3.12162e-14 -171507)
(-627282 29750.8 -3.13098e-14 -64.1945 1.0364e-14 -155657)
(-568358 30322.9 -1.93016e-15 -292.137 4.8466e-14 -141094)
(-7835.5 67129.9 -7.29531e-14 -1135 2.11512e-14 -2225.76)
(-763055 29976.7 2.08042e-14 -2062.47 2.24232e-14 -189841)
(238537 51995.3 -4.92601e-14 -1205.99 2.42167e-14 58886.6)
(328740 51878.5 0 -2801.86 0 80871.8)
(312409 44832.8 1.89062e-14 -1982.53 4.54041e-14 77023.2)
(61660.3 55285.6 -6.16328e-14 2707.86 -1.6333e-13 15971)
(4035.23 61729.1 -5.40337e-14 -6649.35 -1.99296e-14 -648.616)
(282040 44956.7 -7.35299e-14 9599.97 1.33928e-14 72361.8)
(-224379 44942.4 -6.03472e-15 -1002.95 -4.85886e-14 -55921.9)
(34766 68427.3 8.46232e-16 -8418.13 1.0979e-14 6537.45)
(1.15275e+06 -491139 -4.19443e-15 -135017 -1.0596e-15 252521)
(154165 58603.8 5.05567e-15 -2699.18 -9.21501e-14 37581.7)
(186750 57993.6 4.2791e-14 -748.781 1.45818e-14 46150.8)
(-126033 58403.1 0 1693.5 0 -30851.2)
(-149420 63369.6 1.58124e-14 -2883.95 -4.41662e-14 -37789.6)
(434073 59703 0 5407.71 0 109044)
(479034 63064.4 2.85877e-14 4506.52 2.72624e-14 119976)
(527632 67145.3 -6.47019e-14 4358.98 -6.19538e-15 131998)
(-234100 43700.4 8.81914e-14 -3836.36 8.97247e-14 -59036.8)
(-161859 48270.9 4.6119e-15 -2912.85 -5.35677e-14 -40883.3)
(-10694.8 65923.7 5.19583e-14 1911.6 2.77304e-14 -2179.29)
(1.16086e+06 23054.1 -8.63714e-15 -17773.5 -1.62659e-14 283624)
(-8355.81 66818 -5.63215e-14 -3994.65 1.75791e-14 -3064.4)
(10202.3 47259.4 -5.59466e-14 6781.06 -3.49994e-14 4213.92)
(23211.5 63513 4.03831e-14 298.934 -9.39552e-14 5833.4)
(244703 57613.9 4.35497e-14 -1113.58 4.61641e-14 60439.5)
(-105286 12372.4 -7.15493e-14 -2778.25 3.52581e-15 -26812.9)
(320869 64546.3 0 -2027.11 0 79111.3)
(1.24055e+06 -36488.9 2.02498e-16 -185594 8.18648e-17 261755)
(253013 21565.4 4.12654e-14 3154.21 9.40192e-14 63560.3)
(241418 29075.1 1.87104e-14 -4213.48 1.02097e-14 58855.2)
(-352686 52876.5 6.1988e-15 3740.91 1.30739e-14 -86580.5)
(-251845 51989.5 -4.79691e-14 1984.41 1.53811e-14 -61995.4)
(-301201 39514.2 -9.84787e-14 801.105 -1.72846e-14 -74535.4)
(-216293 43051.9 4.94835e-15 -1109.73 -5.21647e-15 -53941.9)
(790631 27620.4 -3.66517e-15 -1654.78 1.19277e-14 195761)
(652347 71325.6 1.59972e-15 406.779 -2.46476e-14 161962)
(176138 61697.2 8.72533e-15 -1229.39 5.17065e-15 43398.4)
(237895 54204.9 1.63564e-14 832.248 2.79288e-14 59233)
(129416 62065.6 4.53577e-14 -3567.43 3.23891e-14 31225.5)
(176124 54289.6 4.0694e-14 -3735.89 -6.45529e-15 42773.1)
(-360608 47916.1 -7.79579e-15 2824.23 1.97327e-14 -88773.4)
(-471708 63922.9 -2.17045e-14 198.509 3.89971e-15 -116991)
(-114860 93378.2 2.44758e-14 -681.168 1.75961e-14 -28668)
(803612 49073.8 2.74744e-14 3400.96 1.98763e-14 200236)
(872485 50187.1 -5.99333e-15 14182.7 3.00749e-15 220000)
(1.04298e+06 49335.2 4.85377e-15 -2352.12 3.08326e-15 258201)
(67364.6 60674.5 -8.81081e-14 3020.26 1.07207e-13 17463.9)
(-249944 22923.2 -5.46347e-14 -992.63 -2.81241e-14 -62262.5)
(-239725 30870.3 -6.93059e-14 5736.85 4.64336e-14 -58057.1)
(1.18261e+06 4457.42 0 10166.8 0 295951)
(1.18316e+06 46100.7 0 845.287 0 293775)
(651932 38286.5 1.06495e-14 -2092.3 5.17285e-14 161238)
(649521 16401.3 3.49632e-14 3330.67 -9.7505e-14 161986)
(-681796 16234.9 0 -6336.04 0 -170739)
(-663270 37056.9 0 4768.23 0 -163388)
(20471.8 61964.8 -1.2139e-14 3471.35 3.48525e-14 5940.78)
(-54367.2 36027.2 1.30012e-13 -4408.57 -5.51517e-14 -14583.5)
(-191339 30441.8 -3.42685e-14 -3242.78 -1.26647e-14 -48279.7)
(1.61006e+06 5366.55 0 33173.3 0 407721)
(-29048.4 57383 -8.56946e-14 -5377.24 -2.16143e-15 -8541.71)
(-32452 60168.3 -1.2343e-14 -5826.9 -6.88273e-14 -9497.77)
(156109 64667.7 -4.44765e-14 -2914.38 -3.05391e-14 38010.8)
(-126277 65707 -9.29244e-14 -2647.8 3.89997e-14 -31988.8)
(149732 46405.7 2.72799e-14 -5809.18 -2.8269e-14 35710.1)
(-581275 37015.2 1.91075e-14 -4413.49 -3.91768e-14 -145321)
(579397 39047.3 -7.82294e-15 -5283.3 -4.79472e-14 142449)
(-1.06131e+06 57297.3 8.44843e-15 -6338.14 -3.71888e-14 -264905)
(-1.3495e+06 -111331 4.74609e-15 265853 -3.52229e-15 -268875)
(452918 82701.8 -7.4674e-15 -9438.58 9.39299e-15 110036)
(43698.7 69657.1 -4.66236e-15 -2778.42 2.62371e-14 10153.2)
(-549080 58733.2 -2.34917e-14 -4643.73 -6.54342e-14 -137390)
(456193 29591.4 -3.02253e-14 3473.34 4.35677e-14 114052)
(-324254 40736.6 3.35945e-14 -6438.4 4.31161e-14 -82051.5)
(246631 56846.1 4.98435e-14 2791.65 8.54978e-16 61886.8)
(43658.3 69026.5 1.37779e-14 953.998 6.46508e-16 11069.2)
(81530.9 57737.3 -5.82793e-14 -1415 7.33765e-14 19878.4)
(-166220 52410.3 4.1358e-14 -10623.5 -4.41374e-14 -43878.5)
(-266831 84875.4 7.49881e-16 3749.53 5.55808e-14 -65275.9)
(-150358 50787.4 6.3067e-15 -10196.4 -4.42877e-14 -39836.8)
(-241796 80424.5 4.00712e-14 2698.98 -1.46728e-14 -59324.9)
(57830.8 48516.7 -2.57575e-14 -2044.82 8.05766e-15 13841.6)
(-26845.2 67770.5 -6.58682e-16 1954.89 -4.84609e-14 -6175.8)
(-17639.3 69391.3 5.97518e-14 1326.29 4.8029e-14 -4047.6)
(-12580.9 66919.6 3.07138e-14 -186.782 -6.70471e-14 -3167.93)
(864361 39340.2 1.90058e-14 1568.72 2.92993e-15 214855)
(-9234.8 69655.9 -6.81655e-14 -3985.23 -3.03676e-14 -3280.16)
(-34416.4 58885.3 3.33513e-14 -7271.66 -1.11949e-13 -10343.6)
(1.24238e+06 -21988.6 -9.52744e-15 -65806.9 -7.11211e-15 291931)
(180292 46385.6 3.56694e-14 -4377.96 -4.5817e-14 43647.8)
(-441430 75326.3 2.48158e-14 7794.05 6.74705e-15 -107594)
(-478332 45516.7 -3.92461e-14 1692.64 -1.72098e-14 -118264)
(-476445 27855.4 0 -4212.13 0 -119261)
(600413 21243.6 -3.55493e-14 5216.12 -1.69214e-14 150269)
(573141 52352.9 2.0163e-15 6963.99 4.24921e-14 143936)
(-21911 50678 -3.94659e-14 2385.98 3.22465e-14 -4844.55)
(-16655.9 50926.3 2.86457e-14 1954.64 -1.60451e-13 -3647.68)
(-412052 81565.6 -1.66775e-14 3675.78 -4.26805e-16 -101326)
(-553556 63012.1 0 6285.68 0 -135789)
(396930 49536.1 9.19757e-15 4256.94 2.31327e-14 99542.7)
(-1.04048e+06 73206 4.00317e-15 -3133.94 -1.29909e-14 -258942)
(29832.1 51056 0 6082.3 0 8911.08)
(538521 42157.3 -2.00809e-15 604.131 1.36471e-14 133768)
(406474 78893.6 -1.05816e-15 5849.32 5.31428e-17 102306)
(-244422 60904.3 7.37618e-14 5453.22 -9.49307e-15 -59293)
(-190544 46646.2 -7.17488e-15 2728.37 5.20844e-14 -46600.8)
(-173857 59271 1.13437e-14 2871.12 -4.32882e-14 -42425)
(-134671 48639.1 -6.41313e-16 196.098 2.54353e-15 -33365.9)
(-204768 34660.6 2.65421e-14 2459.36 3.92623e-14 -50196.8)
(-170808 38887.8 -4.64268e-14 6495.58 9.37033e-15 -40769.3)
(-204249 71353.9 0 1603.11 0 -50280.5)
(-233022 75577.6 -2.4064e-14 561.699 2.09816e-14 -57678.2)
(-257670 80536.6 -1.98374e-15 1058.83 -2.26866e-15 -63670.5)
(66693.5 51874.5 -1.14248e-13 1588.55 -5.72171e-14 16942.2)
(-14040.4 63948.9 -2.53516e-14 -2455.62 5.05883e-14 -4093)
(477950 33241.8 -1.46118e-14 3555.68 4.13894e-14 119471)
(499500 42363.7 2.01837e-14 -4287.29 -3.90967e-14 122872)
(84728.9 57413 4.11885e-15 -2154.72 -2.85738e-14 20488.3)
(120566 50779.2 0 1200.66 0 30212.8)
(-287786 80216.7 3.07874e-14 -2778.56 -3.40508e-14 -72095)
(244321 55246.7 -5.87662e-14 3578.69 -6.98893e-16 61508.9)
(266725 72892 -2.57174e-14 4241.73 -1.57695e-15 67232.3)
(-92752.2 57991.6 -4.70089e-14 -3036.9 6.75338e-14 -23767.2)
(-77938 59515.4 2.74453e-14 -2609.44 1.61984e-15 -19985.5)
(-116273 61907.7 4.46486e-14 1420.1 1.59122e-14 -28497.4)
(-129378 55731.5 0 290.743 0 -32029.2)
(-596797 42486 1.36677e-14 -38.1059 -2.10418e-14 -148087)
(252856 55723.1 -2.15011e-14 638.726 -8.56006e-14 62897.1)
(183631 56643.2 -9.85818e-15 -324.303 -1.41014e-15 45482.1)
(-74131.9 145165 -6.47495e-15 12284.6 -4.7544e-15 -15345.6)
(661546 30191.2 -4.55259e-14 -5575.88 -2.73266e-14 162759)
(-783858 16474 3.98233e-14 2281.09 2.38733e-14 -193925)
(-107648 136062 0 -5594.22 0 -28097.8)
(-97110.3 58716.7 1.64191e-14 2559.57 4.9672e-14 -23459.9)
(-83089.2 61293.3 -1.23502e-13 4216.66 -3.1384e-14 -19569.9)
(-138677 53517.5 5.34148e-14 1155.85 6.02222e-16 -34121.7)
(-119678 57257.6 0 2849.52 0 -28987.5)
(269401 51546.3 2.84083e-14 -1470.8 -4.57857e-14 66478.9)
(309510 65811.7 1.03229e-14 -2465.26 4.38932e-15 76184.1)
(247336 53046 -2.09226e-14 -3432.27 2.00813e-14 60517.6)
(289149 65785.2 2.21542e-14 -2860.3 6.1761e-14 71034)
(223433 50514.8 1.73124e-14 -1982.63 2.91989e-14 54946.3)
(261168 62140.8 -3.77553e-14 -2080.2 2.16336e-14 64284.8)
(213301 32655.3 1.67364e-14 1431.3 6.33667e-14 53279.4)
(205895 23830.6 4.92358e-14 5043.48 1.0564e-13 52338.1)
(-439830 69180.1 -1.00501e-14 -249.402 1.33422e-14 -109193)
(185799 59255.9 -5.11307e-14 -2920.13 -1.23489e-15 45375.9)
(-466450 53107.7 0 3609.15 0 -114840)
(804318 66234.3 2.90075e-14 -7529.16 -1.83145e-14 197699)
(-387332 34266.9 5.15824e-14 1453.88 -8.51122e-14 -95744.3)
(-285962 36499.9 6.21545e-14 9.1917 -4.18471e-14 -70950.6)
(-1.00023e+06 -472677 -3.8593e-15 163051 8.66303e-16 -207721)
(29789.8 60868.7 6.9312e-14 786.43 -1.8245e-14 7586.58)
(857210 44193.6 -9.6667e-15 -2285.78 -4.73292e-16 212124)
(-395186 45818.5 -1.4537e-14 1034.49 -4.20468e-14 -97797.1)
(-287881 45306.6 9.01219e-14 289.561 4.44481e-14 -71357.3)
(1.33608e+06 -888.461 1.60446e-14 -2624.4 7.15259e-15 330859)
(-57720.8 55259.9 -9.94253e-15 160.053 3.99725e-14 -14282)
(891715 21257.1 2.42522e-14 3012.88 -1.51389e-14 222000)
(-203852 46568.3 3.11144e-14 1678.94 -5.49698e-14 -50163.4)
(-759642 68989.9 1.9782e-14 7959.88 -2.5662e-15 -186508)
(-714562 49409.6 -1.20882e-14 -5000.13 -9.43622e-16 -178538)
(682989 50704.6 -2.29507e-14 217.653 1.51079e-14 169518)
(-82465.9 59931.5 -1.37114e-13 3864.34 -6.25602e-14 -19502.6)
(-2216.66 -25437.3 1.56919e-16 -39876.2 5.57935e-17 -10444.1)
(-12669.7 59440.9 0 2991.78 0 -2401.28)
(-1.32627e+06 -421568 6.32943e-15 173230 -1.75265e-15 -286093)
(993603 -470425 7.46607e-15 -163665 2.36523e-15 205924)
(-589938 70213.5 2.51343e-14 -6025.03 -2.45326e-14 -147871)
(194583 47487.8 1.03887e-14 698.366 4.02558e-14 48453.2)
(263181 42386.7 -3.37002e-14 525.692 7.66663e-14 65431)
(82757.9 58349.6 6.69547e-14 -1797.22 1.99875e-14 20088)
(-151121 20090.4 3.88189e-14 820.308 -5.97913e-14 -37292.7)
(126200 68362.3 -3.26443e-14 -723.43 2.99225e-14 31133.3)
(-65957.4 49121.4 9.64195e-15 1192.97 1.48162e-14 -16069.4)
(-69614.7 83450.2 7.26059e-15 2725.92 2.12582e-14 -16596.5)
(-1.0737e+06 16408.4 -3.41166e-15 29291.7 8.35195e-15 -259140)
(8898.79 -15133.2 4.1152e-17 -26428.2 2.55432e-17 -4349.4)
(-329908 67128.7 -1.41695e-16 3875.8 2.75744e-15 -80895.1)
(255088 43742.8 2.43166e-14 -970.707 7.57694e-14 63051.7)
(1.12611e+06 -217066 6.51405e-16 -31289.9 8.79352e-16 271648)
(-29684.2 48499.8 -6.29355e-15 -3999.89 -4.90233e-14 -8357.71)
(-33963 70296.4 4.9952e-15 -957.911 4.78736e-14 -8664.6)
(-20069 62492.6 -8.5568e-16 1253.81 -7.36294e-14 -4668.44)
(-55910.2 63052.6 -1.40533e-14 1390.84 1.92597e-14 -13527.4)
(21845 61463.2 2.17052e-14 -600.057 5.62105e-14 5271.31)
(15007.6 65113.8 -5.08173e-14 -1015.62 -1.66291e-14 3471.71)
(-1.13363e+06 -216559 2.84907e-15 30397.8 -8.77513e-16 -273734)
(369689 71952.1 -2.10279e-14 909.466 1.14636e-14 91952.9)
(-127630 57354.3 -1.35914e-13 1852.18 -3.86311e-14 -31208.2)
(411654 61130.9 7.36748e-14 5596.42 -1.24625e-13 103528)
(372778 57836.6 -7.73468e-16 5003.78 -4.73606e-14 93735.2)
(338040 54549.1 -1.34239e-13 2479.61 2.04117e-14 84489.8)
(61381.9 39984 -6.64075e-14 4417.37 -2.48902e-14 16326.1)
(-853524 32237.2 3.73558e-14 -2990.6 -3.6505e-14 -212519)
(253670 45446.6 7.2099e-14 -1284.68 7.77417e-15 62621.8)
(353020 45231.4 -3.26934e-14 -1287.07 -4.69234e-14 87272)
(-73211.1 58132.1 -1.1507e-13 -561.597 -1.94465e-14 -18304.5)
(567471 79513.2 8.07856e-15 -7196.83 1.18929e-14 139015)
(102030 47334.8 -4.65695e-14 -1767.83 3.16064e-14 24877)
(-1.14752e+06 27989.7 -1.30586e-14 -1590.23 -4.91086e-15 -285118)
(30994.4 59550.3 -6.00398e-14 2070.1 -5.06265e-14 8203.98)
(-92686.1 60961.4 -1.19453e-13 2830.98 5.65441e-14 -22294.9)
(294820 52512.6 9.31642e-14 2784.6 -1.35526e-14 73841.8)
(266585 50224 8.63566e-14 1981.21 2.10182e-14 66636.6)
(241800 47381 -6.22647e-14 203.101 1.72299e-14 60045.8)
(592963 47116.7 9.68705e-15 604.564 2.08321e-14 147276)
(114572 58479.3 -4.03451e-14 1815.24 -8.67151e-14 28878)
(-311226 56122.1 2.8657e-14 -4406 6.56284e-16 -78314.6)
(-253500 90362.2 1.77878e-14 2537.13 1.99733e-14 -62269)
(-135382 44288.4 0 734.285 0 -33408.8)
(-413891 64241.6 -3.78323e-14 -4345.32 1.15278e-14 -103773)
(-456385 66889.4 -5.73451e-14 -4641.1 -3.8451e-15 -114390)
(-504072 72150.6 -5.75969e-14 -5502.97 2.78454e-14 -126436)
(228986 47735.6 1.13404e-15 3338.9 1.42586e-14 57644.5)
(158727 53177.3 1.7966e-14 1673.66 -2.25355e-14 39798.8)
(51302.6 14802 -5.22551e-14 2241 1.88733e-14 13285.3)
(84778.9 48837.2 0 -1953.35 0 20550.7)
(110658 41590.4 -6.11244e-14 -570.764 3.65436e-14 27314.9)
(1.35509e+06 -52291.3 -3.53329e-15 -191991 -1.7299e-15 288588)
(450726 36998.8 6.14787e-14 -1157 -6.31273e-14 111547)
(-343596 57633.4 0 -267.887 0 -85319.5)
(-246784 55021.1 -3.03673e-14 4381.62 -1.35006e-15 -60144.9)
(192971 58312.4 1.60778e-14 -2445.76 -1.99117e-14 47273.1)
(-62508.8 62959.4 2.67982e-14 -1411.02 2.2021e-14 -15859.8)
(-11289.6 67700.3 7.84269e-14 -626.641 -6.195e-14 -2956.67)
(17207.8 50728.2 6.41536e-14 5485.25 -1.01888e-14 5630.62)
(19356.9 53004.9 -3.37829e-14 5936.1 -3.15863e-14 6275.71)
(-6577.65 83186 -1.70409e-15 -3487.3 -1.40656e-14 -2497.32)
(-5017.73 46026.2 -1.47336e-14 -487.618 4.96567e-14 -1365.99)
(-1974.13 51673.4 -5.49239e-14 -3246.26 4.0997e-14 -1295.29)
(6772.25 60140.8 5.23288e-14 -10753.3 -2.38276e-14 -987.776)
(89649.9 49541.7 -4.27367e-15 2119.29 -2.04054e-14 22769.8)
(-184005 90866.3 -1.02138e-15 1636.23 -1.00905e-14 -45249.3)
(51726.9 58119.6 1.31465e-13 -366.998 -2.5932e-14 12743.4)
(3852.11 88673.1 5.88163e-15 -10379.4 8.53656e-15 -1619.56)
(-374418 85630.4 -1.45701e-14 -2550.12 -8.82569e-15 -93533.5)
(444553 46972.2 4.69376e-14 4342.73 4.21154e-14 111380)
(-187687 57575.7 -5.06418e-14 129.059 1.65864e-14 -46537)
(-903222 183345 -2.58346e-15 169066 1.57935e-15 -182159)
(-123705 44107 3.59617e-14 -2447.36 3.91516e-14 -31301)
(-205244 85212.4 0 1217.63 0 -50623)
(56652.3 56508.7 7.01264e-14 -2593.72 -9.70688e-14 13413)
(85415.7 49927.7 3.71804e-15 -14.4871 1.2111e-14 21189.8)
(994107 -219416 -8.04316e-16 31397.9 1.4447e-16 254449)
(-1.31628e+06 16292.1 -1.07835e-14 7224.4 4.96871e-15 -324804)
(370749 48177.7 2.2674e-14 6469.67 1.91235e-14 93595.6)
(409824 50695.6 -2.33604e-14 6302.06 5.07628e-14 103249)
(-129304 60840.4 -1.66257e-13 4113.09 -5.94656e-14 -31062.4)
(83472.7 71279.6 2.97409e-14 4851.62 5.88301e-14 21915.1)
(-21445.3 56660.5 4.6763e-14 -4798.77 7.13415e-14 -6511.68)
(-565585 -367653 -6.86949e-16 42879.6 2.89974e-16 -129694)
(-1.26354e+06 52104.8 3.55668e-15 2016.07 4.57608e-15 -313010)
(1.13271e+06 33532.5 1.93657e-14 639.106 -9.62566e-15 281207)
(-1.67165e+06 -23726.8 -5.08803e-15 -5410.43 -2.21547e-15 -416114)
(471414 41431.8 -2.04407e-14 -2968.63 -3.19463e-14 116231)
(327087 39686.8 -3.39643e-14 -1826.54 1.2478e-13 80703.6)
(-429422 62592.2 0 8843.61 0 -104354)
(53647.4 45144.1 -6.20957e-14 -5637.16 2.96124e-14 11912.3)
(-39195.5 68419.5 -4.99722e-14 2730.9 2.65088e-14 -9047.6)
(-23492.4 67030.8 -4.32132e-14 761.085 -9.68315e-15 -5640.11)