/*--------------------------------*- C++ -*----------------------------------*\
| =========                 |                                                 |
| \\      /  F ield         | OpenFOAM: The Open Source CFD Toolbox           |
|  \\    /   O peration     | Version:  2.3.1                                 |
|   \\  /    A nd           | Web:      www.OpenFOAM.org                      |
|    \\/     M anipulation  |                                                 |
\*---------------------------------------------------------------------------*/
FoamFile
{
    version     2.0;
    format      ascii;
    class       volScalarField;
    location    "0.69";
    object      k;
}
// * * * * * * * * * * * * * * * * * * * * * * * * * * * * * * * * * * * * * //

dimensions      [0 2 -2 0 0 0 0];

internalField   nonuniform List<scalar> 
15166
(
1.07914
1.32433
1.70738
2.10975
2.42104
2.7316
2.95351
3.08643
3.13276
3.11035
3.02678
2.91529
1.0795
1.29572
1.71122
2.10198
2.41265
2.70205
2.90347
3.01962
3.05551
3.02819
2.94587
2.82556
1.08754
1.26417
1.69581
2.07994
2.38992
2.66267
2.8485
2.95202
2.98072
2.95002
2.8678
2.74424
1.09808
1.23884
1.6742
2.0515
2.35865
2.61729
2.79075
2.88472
2.90832
2.87522
2.79228
2.66387
1.10948
1.21978
1.65109
2.02087
2.32314
2.56916
2.7322
2.81867
2.83849
2.80373
2.7203
2.59119
1.1218
1.20527
1.6276
1.9894
2.28548
2.51999
2.67403
2.75439
2.77131
2.73534
2.65145
2.52111
1.13507
1.19424
1.60435
1.95771
2.24666
2.4707
2.61682
2.69213
2.70673
2.66982
2.5852
2.45187
1.14908
1.18604
1.58188
1.92624
2.20747
2.42187
2.56097
2.632
2.64471
2.60711
2.52221
2.38957
1.16361
1.18018
1.56052
1.89546
2.16852
2.37396
2.50671
2.57403
2.58519
2.54712
2.46227
2.33042
1.17849
1.17619
1.54041
1.86553
2.1302
2.32727
2.4542
2.51825
2.52808
2.48976
2.40547
2.2762
1.19357
1.17375
1.52156
1.83657
2.09272
2.28193
2.40351
2.4646
2.47331
2.43499
2.35176
2.22602
1.20876
1.17253
1.50394
1.80866
2.05624
2.23803
2.35463
2.41305
2.4208
2.38273
2.30135
2.18146
1.22395
1.1723
1.48749
1.78176
2.02086
2.19562
2.30755
2.36349
2.37045
2.33287
2.25378
2.13981
1.23907
1.1729
1.47216
1.75589
1.9866
2.15467
2.26222
2.31588
2.32215
2.28517
2.20787
2.09434
1.25405
1.1741
1.45785
1.73104
1.95348
2.11518
2.21859
2.27012
2.27583
2.23958
2.16445
2.0557
1.26884
1.1758
1.44447
1.70718
1.92151
2.07712
2.1766
2.22614
2.23136
2.19593
2.12307
2.01818
1.28338
1.17785
1.43193
1.68427
1.89066
2.04043
2.13619
2.18384
2.18865
2.15412
2.08344
1.98172
1.29764
1.18019
1.42018
1.6623
1.86093
2.0051
2.09729
2.14316
2.14762
2.114
2.04544
1.94654
1.31159
1.18275
1.40913
1.64119
1.83225
1.97103
2.05982
2.104
2.10818
2.0755
2.00907
1.91359
1.32518
1.18542
1.39873
1.62093
1.80461
1.93819
2.02372
2.06629
2.07022
2.03851
1.9742
1.88198
1.33841
1.18818
1.38889
1.60146
1.77795
1.90653
1.98893
2.02996
2.03367
2.0029
1.94054
1.85043
1.35127
1.19095
1.37957
1.58276
1.75226
1.87599
1.95538
1.99493
1.99844
1.96859
1.90799
1.81971
1.36372
1.19374
1.37073
1.56476
1.72748
1.84654
1.92302
1.96115
1.96448
1.93548
1.87643
1.78939
1.37575
1.19649
1.3623
1.54745
1.70357
1.81811
1.89179
1.92855
1.93171
1.90351
1.84585
1.76014
1.38736
1.1992
1.35425
1.5308
1.68051
1.79067
1.86164
1.89708
1.90006
1.87259
1.81624
1.73198
1.39852
1.20183
1.34655
1.51477
1.65826
1.76418
1.83252
1.86668
1.86947
1.84269
1.78758
1.70495
1.40926
1.20437
1.33914
1.49929
1.63678
1.73858
1.80438
1.83729
1.83988
1.81375
1.75992
1.67927
1.41956
1.20684
1.33203
1.48437
1.61602
1.71384
1.77718
1.80886
1.81126
1.78576
1.73323
1.65507
1.42939
1.2092
1.32517
1.46999
1.59597
1.68992
1.75087
1.78136
1.78356
1.75866
1.70747
1.63155
1.4388
1.21146
1.31855
1.45608
1.57659
1.66679
1.72541
1.75474
1.75673
1.73243
1.68252
1.60842
1.44774
1.21363
1.31211
1.44263
1.55784
1.64441
1.70077
1.72896
1.73074
1.70701
1.65837
1.58617
1.45624
1.21568
1.30588
1.42962
1.53971
1.62274
1.67691
1.70398
1.70555
1.68237
1.63495
1.56442
1.46427
1.21764
1.29982
1.41703
1.52216
1.60177
1.65379
1.67977
1.68112
1.65848
1.61224
1.54354
1.4719
1.2195
1.29393
1.40483
1.50517
1.58145
1.63139
1.6563
1.65743
1.6353
1.59022
1.52314
1.47903
1.22125
1.28819
1.39302
1.48871
1.56176
1.60967
1.63353
1.63445
1.61281
1.56885
1.50348
1.48576
1.22293
1.28262
1.38154
1.47275
1.54268
1.5886
1.61144
1.61213
1.59097
1.54811
1.48429
1.49204
1.22449
1.27717
1.37041
1.45728
1.52417
1.56817
1.58999
1.59045
1.56975
1.52799
1.46603
1.49789
1.22598
1.27185
1.3596
1.44228
1.50621
1.54833
1.56917
1.5694
1.54914
1.50847
1.44843
1.50332
1.22738
1.26666
1.34909
1.42772
1.48879
1.52907
1.54894
1.54894
1.52913
1.48952
1.43099
1.50833
1.22871
1.26158
1.33887
1.41359
1.47188
1.51037
1.52928
1.52906
1.50968
1.47116
1.41464
1.51288
1.22997
1.25662
1.32894
1.39987
1.45545
1.4922
1.51018
1.50972
1.49075
1.45312
1.39693
1.51699
1.23113
1.25175
1.31928
1.38654
1.4395
1.47455
1.49161
1.49092
1.47231
1.43544
1.3796
1.52066
1.2322
1.247
1.30987
1.37359
1.424
1.4574
1.47355
1.47262
1.45434
1.41823
1.36366
1.5239
1.23315
1.24234
1.30072
1.36101
1.40894
1.44071
1.45598
1.4548
1.43684
1.40146
1.3479
1.52673
1.23398
1.23779
1.29183
1.34877
1.39429
1.42449
1.43889
1.43746
1.41978
1.38514
1.33293
1.52915
1.23466
1.23334
1.28318
1.33686
1.38004
1.40871
1.42225
1.42056
1.40315
1.3692
1.31786
1.53116
1.23525
1.229
1.27475
1.32526
1.36618
1.39336
1.40605
1.4041
1.38695
1.35372
1.30388
1.53278
1.23569
1.22475
1.26654
1.31396
1.3527
1.3784
1.39027
1.38806
1.37114
1.33862
1.28986
1.53401
1.23603
1.22057
1.25853
1.30298
1.33958
1.36385
1.37489
1.37241
1.35572
1.32391
1.27657
1.53486
1.23627
1.21647
1.25073
1.29228
1.3268
1.34966
1.3599
1.35714
1.34067
1.30952
1.2631
1.53532
1.23642
1.21244
1.24311
1.28187
1.31436
1.33584
1.34528
1.34225
1.32597
1.29549
1.25029
1.53542
1.23651
1.20848
1.23568
1.27174
1.30224
1.32238
1.33103
1.32771
1.31163
1.28181
1.23783
1.53515
1.23651
1.2046
1.22842
1.26186
1.29043
1.30926
1.31714
1.31353
1.29763
1.26842
1.22516
1.53451
1.23645
1.20077
1.22134
1.25224
1.27892
1.29647
1.30359
1.2997
1.28396
1.25537
1.21336
1.53353
1.23632
1.19702
1.21442
1.24285
1.26771
1.28401
1.29038
1.28619
1.27061
1.24265
1.20199
1.5322
1.2361
1.19333
1.20766
1.23371
1.25678
1.27185
1.27748
1.27301
1.25758
1.23028
1.191
1.53053
1.2358
1.1897
1.20106
1.22479
1.24613
1.26001
1.26491
1.26015
1.24487
1.21819
1.17993
1.52851
1.23546
1.18615
1.19461
1.21609
1.23575
1.24845
1.25264
1.24759
1.23246
1.20638
1.16918
1.52616
1.23503
1.18266
1.18832
1.2076
1.22562
1.23719
1.24068
1.23534
1.22034
1.19478
1.1579
1.52348
1.23456
1.17925
1.18217
1.19933
1.21575
1.2262
1.229
1.22338
1.2085
1.18344
1.14743
1.52047
1.23402
1.17589
1.17616
1.19125
1.20612
1.21548
1.2176
1.2117
1.19693
1.17238
1.13757
1.51714
1.23343
1.17261
1.17029
1.18337
1.19672
1.20502
1.20648
1.20029
1.18563
1.16162
1.128
1.51349
1.23277
1.16939
1.16456
1.17568
1.18756
1.19482
1.19563
1.18916
1.17459
1.15109
1.11835
1.50952
1.23208
1.16624
1.15897
1.16817
1.17862
1.18487
1.18504
1.17829
1.16381
1.14081
1.10893
1.50524
1.23133
1.16317
1.15352
1.16086
1.1699
1.17516
1.1747
1.16768
1.15329
1.13073
1.09946
1.50064
1.23056
1.16017
1.1482
1.15372
1.1614
1.1657
1.16462
1.15732
1.14301
1.12088
1.09034
1.49575
1.22971
1.15723
1.14302
1.14676
1.1531
1.15646
1.15479
1.14721
1.13296
1.11122
1.08122
1.49054
1.22883
1.15438
1.13797
1.13998
1.14502
1.14745
1.14519
1.13734
1.12314
1.10177
1.07252
1.48502
1.22794
1.15161
1.13305
1.13336
1.13713
1.13867
1.13583
1.12771
1.11356
1.09255
1.06396
1.47921
1.22697
1.14891
1.12827
1.12692
1.12945
1.1301
1.12669
1.1183
1.10419
1.08353
1.05571
1.4731
1.22598
1.14629
1.12362
1.12064
1.12195
1.12174
1.11778
1.10912
1.09503
1.07471
1.0474
1.4667
1.22493
1.14374
1.1191
1.11453
1.11465
1.11359
1.10908
1.10016
1.08609
1.06607
1.03941
1.46
1.22386
1.14128
1.11471
1.10859
1.10753
1.10565
1.1006
1.09141
1.07736
1.05764
1.03161
1.453
1.22278
1.13892
1.11048
1.10281
1.10061
1.09792
1.09233
1.08288
1.06884
1.0494
1.02391
1.44571
1.22164
1.13661
1.10636
1.09719
1.09387
1.09038
1.08427
1.07456
1.06051
1.04135
1.01643
1.43816
1.22046
1.1344
1.10238
1.09173
1.0873
1.08303
1.07642
1.06644
1.05238
1.03347
1.00887
1.43031
1.21922
1.13228
1.09854
1.08644
1.08092
1.07588
1.06877
1.05853
1.04445
1.02574
1.00152
1.42216
1.21797
1.13023
1.09483
1.08131
1.07472
1.06893
1.06131
1.05081
1.03671
1.01819
0.994247
1.41374
1.21671
1.12829
1.09127
1.07635
1.0687
1.06216
1.05406
1.0433
1.02916
1.0108
0.987211
1.40503
1.21538
1.12645
1.08785
1.07154
1.06286
1.05558
1.04699
1.03598
1.02179
1.00358
0.9802
1.39604
1.21404
1.12468
1.08457
1.06691
1.05719
1.04919
1.04012
1.02884
1.0146
0.996528
0.973518
1.38678
1.21265
1.12301
1.08144
1.06243
1.0517
1.04298
1.03344
1.02189
1.00758
0.989633
0.967032
1.37723
1.21122
1.12143
1.07845
1.05813
1.04639
1.03695
1.02695
1.01514
1.00075
0.982926
0.960618
1.36741
1.20976
1.11995
1.07561
1.05399
1.04126
1.03112
1.02065
1.00857
0.994116
0.976387
0.954255
1.3573
1.20827
1.11858
1.07292
1.05002
1.03631
1.02547
1.01453
1.00219
0.987647
0.970005
0.948166
1.34693
1.20673
1.1173
1.0704
1.04623
1.03153
1.02
1.0086
0.995995
0.981362
0.96379
0.942081
1.33629
1.20512
1.11611
1.06802
1.04262
1.02694
1.01472
1.00286
0.989982
0.975243
0.957724
0.93634
1.32537
1.20348
1.11503
1.0658
1.03918
1.02254
1.00963
0.997307
0.984155
0.969318
0.951855
0.930629
1.31417
1.20182
1.11405
1.06375
1.03592
1.01832
1.00472
0.991944
0.978515
0.963572
0.946153
0.925117
1.30269
1.20012
1.11318
1.06188
1.03285
1.0143
1.00001
0.986765
0.973059
0.957996
0.940584
0.91944
1.29094
1.19837
1.11241
1.06016
1.02997
1.01046
0.995479
0.981772
0.967783
0.952593
0.935203
0.914566
1.27892
1.19658
1.11174
1.05862
1.02728
1.00682
0.99115
0.976978
0.962712
0.947409
0.93007
0.909689
1.26664
1.19469
1.11118
1.05726
1.02479
1.00338
0.987019
0.97238
0.957827
0.942392
0.925076
0.904927
1.25407
1.1928
1.11073
1.05607
1.0225
1.00015
0.98309
0.967978
0.953135
0.937564
0.920262
0.900213
1.24124
1.19082
1.11038
1.05507
1.02042
0.997118
0.979365
0.963778
0.948637
0.932921
0.915611
0.895637
1.22814
1.18876
1.11014
1.05426
1.01855
0.994307
0.975849
0.959781
0.944341
0.928479
0.911147
0.891129
1.21477
1.18665
1.11002
1.05365
1.0169
0.991716
0.972549
0.955993
0.940242
0.924214
0.906826
0.886861
1.2011
1.18452
1.11001
1.05323
1.01548
0.989354
0.969469
0.952415
0.936349
0.92015
0.90271
0.882714
1.18718
1.18223
1.11012
1.05302
1.01429
0.987223
0.966616
0.949055
0.932664
0.916282
0.898765
0.87877
1.17297
1.17992
1.11033
1.05303
1.01335
0.98534
0.963997
0.945922
0.929198
0.912627
0.895037
0.874955
1.1585
1.17752
1.11066
1.05324
1.01265
0.983701
0.961616
0.943015
0.92594
0.909164
0.891477
0.87146
1.14373
1.17508
1.11112
1.05369
1.01222
0.982325
0.959485
0.940343
0.92291
0.905922
0.888138
0.868141
1.12868
1.17256
1.11168
1.05436
1.01205
0.981219
0.957619
0.937926
0.920128
0.902926
0.885044
0.864955
1.11338
1.16992
1.11235
1.05525
1.01215
0.980396
0.956021
0.935762
0.917587
0.900155
0.882171
0.862064
1.09779
1.16716
1.11315
1.0564
1.01255
0.979867
0.9547
0.93386
0.91529
0.897616
0.879519
0.859479
1.08193
1.16433
1.11406
1.05779
1.01324
0.979641
0.953671
0.932233
0.913256
0.895342
0.877138
0.85702
1.06578
1.16136
1.11509
1.05944
1.01425
0.979731
0.952949
0.930896
0.911486
0.893299
0.87494
0.854829
1.04936
1.1583
1.11624
1.06136
1.01558
0.980161
0.952549
0.929864
0.910009
0.891541
0.873025
0.852807
1.03264
1.15523
1.1175
1.06356
1.01726
0.980946
0.952493
0.929151
0.908831
0.890068
0.871377
0.851039
1.01564
1.15193
1.11891
1.06604
1.0193
0.9821
0.952798
0.928771
0.907963
0.888872
0.869962
0.849448
0.998346
1.14857
1.12044
1.06883
1.02172
0.983654
0.953482
0.928753
0.907434
0.887998
0.868874
0.848195
0.980766
1.14512
1.12208
1.07191
1.02453
0.985617
0.954568
0.929116
0.907261
0.887468
0.868128
0.847357
0.962915
1.1414
1.12386
1.07532
1.02775
0.988029
0.956083
0.929884
0.907478
0.887327
0.867795
0.84681
0.944769
1.13763
1.12575
1.07904
1.0314
0.990892
0.958047
0.931064
0.908071
0.887507
0.867677
0.846152
0.926331
1.13375
1.12774
1.08311
1.03551
0.994243
0.960477
0.93268
0.909055
0.888033
0.867871
0.846001
0.907617
1.12962
1.12989
1.08753
1.04009
0.998103
0.963411
0.93477
0.910481
0.888989
0.868519
0.846372
0.888593
1.12544
1.13215
1.09233
1.04518
1.00253
0.966895
0.937378
0.912384
0.890376
0.869518
0.847045
0.86928
1.12095
1.13458
1.09751
1.0508
1.00755
0.970977
0.940552
0.914823
0.892275
0.871055
0.84837
0.84967
1.11632
1.13709
1.1031
1.05701
1.01321
0.975699
0.944332
0.917829
0.894717
0.873129
0.850272
0.829791
1.11161
1.13974
1.1091
1.06383
1.01955
0.98111
0.948776
0.921446
0.897738
0.875761
0.852513
0.809613
1.10663
1.14253
1.11555
1.07128
1.02662
0.98725
0.953908
0.925691
0.901282
0.878737
0.854688
0.789124
1.10142
1.14547
1.12247
1.07943
1.03449
0.994194
0.959794
0.930635
0.905471
0.882352
0.857879
0.768349
1.09595
1.14855
1.12988
1.08832
1.04322
1.00202
0.966536
0.936383
0.910435
0.886784
0.862018
0.747297
1.09043
1.15176
1.13783
1.09802
1.05288
1.01082
0.974204
0.942973
0.91614
0.89178
0.86644
0.725928
1.08453
1.15516
1.14637
1.10859
1.06359
1.02069
0.982896
0.950513
0.922708
0.8976
0.871582
0.70426
1.07837
1.15875
1.15556
1.12013
1.07544
1.03174
0.992728
0.959103
0.930204
0.904197
0.877486
0.682311
1.07216
1.16255
1.16544
1.13277
1.08858
1.04414
1.00387
0.968903
0.938807
0.911845
0.884421
0.660026
1.06554
1.16667
1.17616
1.14664
1.10318
1.05805
1.01647
0.98005
0.948636
0.920578
0.892098
0.637423
1.05875
1.17116
1.18785
1.16195
1.11944
1.07368
1.0307
0.992673
0.959766
0.930483
0.901058
0.614446
1.05171
1.17618
1.20081
1.17894
1.13765
1.09127
1.04677
1.00694
0.972309
0.941567
0.910979
0.591096
1.04468
1.18212
1.21537
1.19806
1.15814
1.11112
1.06493
1.02307
0.986493
0.954174
0.922417
0.567258
1.03781
1.18955
1.23222
1.21981
1.18132
1.13353
1.08543
1.04124
1.00241
0.968213
0.93501
0.542865
1.03237
1.19968
1.25231
1.24483
1.2076
1.15877
1.10844
1.0616
1.02015
0.983709
0.948591
0.517792
1.03186
1.21573
1.27802
1.27441
1.23782
1.18755
1.1347
1.08474
1.04018
1.00095
0.963594
0.48828
1.03317
1.23062
1.30432
1.30262
1.26674
1.2153
1.16111
1.10811
1.06115
1.01908
0.980029
1.0407
0.00468007
0.347418
0.321803
0.320739
0.28891
0.279332
0.646844
0.830963
0.777923
0.567787
0.00777924
0.0326159
3.01862
0.277066
0.00354997
2.83097
0.110618
0.107654
0.00348339
0.140585
0.176122
0.14482
0.0269065
1.05616
0.346506
0.160017
0.375051
0.604653
0.812986
0.538075
1.16682
0.00420061
0.558275
0.0311394
0.16594
0.387304
0.47085
0.39305
0.00818292
0.0704796
0.0033773
0.0716728
0.531595
0.268449
0.173095
0.060848
0.024853
0.271386
0.140032
0.164096
0.634587
0.262998
0.00321463
1.98787
0.0044469
0.0106635
0.00337424
0.471548
0.266433
0.155739
1.19156
0.0032091
0.0168825
0.183599
0.0045328
0.888885
0.252362
1.53223
0.68919
1.88399
0.0535754
0.383406
0.729126
0.0273706
0.00323014
0.797585
0.00309478
0.0702101
0.241063
0.103477
0.00310386
0.405746
0.295304
0.0163655
1.11907
0.884532
0.00319468
0.390992
0.23779
0.353798
0.6538
0.00319826
0.00392207
0.456864
0.00326193
0.362491
0.012842
0.00317208
0.899041
1.10871
0.203697
0.00335325
0.0043406
0.00312134
0.514839
0.512256
0.689487
0.533173
0.00886253
0.0944758
0.00312705
0.202572
0.0037268
0.00318215
0.219924
0.0195239
0.219993
1.09332
0.176126
1.02449
0.0293421
1.69983
0.1997
0.125667
1.29234
0.00405452
1.96535
0.0323845
0.00320012
0.231678
0.00323636
0.233191
0.00434539
0.162788
0.00514923
0.233314
0.595956
0.208029
0.00585718
0.0170208
0.145384
0.269573
0.0254537
0.174606
1.89732
0.298921
0.0045429
0.9831
0.374164
0.0640831
0.214047
0.00309227
0.114722
0.156549
0.00314728
0.248543
0.003202
1.27997
0.00708526
0.0270419
0.00356927
0.128083
0.0132883
0.149779
0.0844452
0.984656
0.291704
0.335187
0.00307307
1.88824
0.758517
1.99265
0.0179157
0.00305944
0.57458
0.00311686
0.305935
0.138027
0.719699
1.00917
0.43805
0.0629262
0.37121
0.00339039
0.262746
0.00317802
0.00315336
0.17535
0.00318555
0.487617
0.00310671
0.936801
0.0047575
0.284103
0.296509
0.271769
0.165145
0.00312702
3.17554
1.01995
0.318216
0.413988
0.217262
0.324907
0.105015
0.0915471
0.228932
0.703499
0.216979
0.288262
0.900074
0.500566
0.396575
0.00315442
0.283577
0.0129681
0.427438
3.25235
0.210309
0.294667
1.0211
0.338902
0.00315697
0.0031882
1.30873
1.11839
0.00327021
4.20618
0.0324072
0.31249
0.121387
0.00311783
0.94747
0.414201
0.253647
0.246316
1.07898
0.656998
0.322202
0.154773
0.161399
1.25518
1.68695
0.375292
0.281833
0.227987
0.00350597
1.39594
0.289875
0.650692
0.726841
0.378956
3.95176
0.236706
0.240416
0.210438
0.310506
0.578061
0.341717
0.216422
0.258168
0.0157558
0.0899667
0.683915
0.261859
0.922063
0.506963
0.361389
1.49128
0.288101
0.0502877
1.63945
0.209098
0.208349
1.69584
0.242287
0.260472
0.301822
0.203603
0.866181
0.238757
0.37266
0.331606
0.614216
0.273144
0.474497
0.207983
1.1208
0.12859
0.201679
1.66872
0.226326
0.224879
0.283013
0.919839
0.119713
0.206075
0.0677734
0.480368
0.183644
0.10614
1.36667
2.05755
0.154299
0.954103
0.323524
0.00318779
0.201466
0.166119
0.211164
0.288921
0.00315766
1.18633
0.320043
0.0673968
0.225815
0.762336
0.00315194
0.63877
0.038843
0.579572
0.422672
4.92983
0.503348
0.758446
0.539098
0.00313881
0.00316297
0.285048
0.447194
0.00307749
0.517292
0.00311578
0.0031623
0.00322465
0.00311707
0.140397
0.0031637
0.00580784
1.03855
0.512301
0.003229
0.334972
0.00987159
0.19585
0.295647
1.28832
4.14643
0.481125
0.00301096
0.00323876
0.0819581
0.134224
0.208969
0.0030643
0.0988728
0.315841
0.878564
0.377777
0.177648
0.273299
1.02608
4.08657
0.157121
0.325534
0.0036491
0.00318514
0.159084
0.258135
0.116373
0.173463
0.50585
2.744
1.69547
0.143827
0.343372
1.01421
0.00319835
0.419834
0.75364
0.00527048
0.00316292
0.520382
3.82728
0.734978
0.0030802
0.0489274
0.154767
0.0256728
0.00319885
0.833391
0.382688
0.277379
0.282031
0.00374825
3.81431
0.00314286
0.235826
0.544824
0.00649068
0.0111336
0.962713
0.00879739
1.40936
0.767075
1.15118
0.653579
0.172244
0.681603
0.00313953
0.00309426
0.00317226
1.03844
0.0754678
1.2625
2.7626
0.164714
0.592063
0.00317912
0.0109259
0.274334
0.00308087
0.00317183
0.703334
0.00306836
0.22793
0.916442
0.371907
0.00302994
0.00749523
0.110588
0.116053
0.237031
0.144972
0.00310504
3.34347
0.836836
0.109496
0.0123934
0.327388
0.199604
0.00711824
0.279665
0.00690464
0.846245
0.0035282
0.250307
0.133135
0.00311625
1.30277
0.238424
0.322182
0.00930164
0.471291
0.144121
0.00516826
0.217478
0.490098
0.352345
1.10892
0.0240648
0.0508999
0.0115464
1.31216
0.676435
0.0630453
0.137582
0.163219
0.334921
0.182165
0.511036
1.1034
0.00304567
2.04945
0.914974
0.22664
0.00309809
0.267646
0.963215
0.0255405
0.436743
0.348871
0.256773
0.126718
0.177136
0.25943
0.00358645
0.0189258
0.87566
0.0391544
0.00438481
0.923017
4.08773
0.0395619
0.19989
0.788979
0.0904687
0.491436
0.259217
0.843751
0.321202
0.29098
0.00323008
0.0851837
0.447599
0.382343
1.3329
0.214166
1.42372
0.93761
3.75207
0.888721
0.310537
0.00316689
1.26404
0.204165
0.801708
0.416481
0.163775
0.0844165
0.426548
0.00321466
0.297438
0.00317781
0.34087
0.421635
0.213241
0.17507
1.27229
0.241275
1.04347
0.642773
1.97776
0.00321794
0.123861
0.933255
2.44931
0.196093
0.717546
0.0036172
0.0282468
0.350279
1.85834
0.592222
0.00310244
0.0582261
0.00312257
0.0586919
0.35131
0.0375848
0.84682
0.142975
0.589653
0.15584
0.125202
1.23016
0.709043
0.00319514
0.00319639
0.257769
1.21774
0.275639
0.598502
0.441261
0.667501
0.266633
0.00302343
0.187563
0.253729
0.00485936
1.04936
0.265187
0.176374
0.274333
0.0127531
0.00302464
0.0237201
0.00313934
0.647197
0.817785
0.709548
0.638184
0.00319306
1.47825
0.0898865
0.74295
0.135473
1.73234
0.00867548
0.154664
0.00307428
0.497144
0.716707
0.315652
0.409606
0.00300691
1.30176
0.805991
0.510932
0.00311652
0.0709169
0.813964
0.617964
0.00610454
2.17326
0.0037391
0.80524
0.614639
0.0036302
0.131744
0.0877319
0.202516
0.00310546
0.00319887
1.15775
0.431725
0.322118
0.526605
0.00488083
0.12805
0.0982814
0.768968
0.208425
0.00395863
0.209067
1.20891
0.00307799
0.00821254
0.28631
0.635152
1.11621
0.0031581
0.729481
0.221375
1.30865
0.0298749
0.151751
0.816499
0.00319986
0.199384
0.137925
0.376254
0.383362
0.726072
0.276567
1.21708
1.17701
0.282367
2.70765
0.00323658
0.00315036
1.4971
0.783649
0.00475881
0.00315674
0.473406
0.00320625
0.823773
0.540441
0.248054
0.00311694
0.808206
0.0530305
0.29141
1.21612
0.235411
0.148535
0.145234
1.34686
0.0031921
0.28556
0.981615
0.234542
0.557309
0.00673605
0.533441
0.263317
2.03174
0.00313014
0.148922
0.683752
0.305789
0.00332103
0.0952972
0.342185
0.439233
1.26975
0.0592638
1.87646
0.406351
0.0928389
0.404966
0.00313422
0.00737524
0.363055
0.00306756
0.1753
0.00316529
0.244709
0.0107784
0.83963
0.00321719
0.110644
0.493971
1.61077
0.356926
0.669932
0.163594
2.44857
0.0156033
0.0934934
0.571845
0.00309936
0.00320601
0.380336
0.156046
0.248862
0.390768
0.00328419
0.216262
0.218749
0.20101
0.492362
1.14825
0.200076
0.00319667
1.88295
2.42482
0.506895
0.00323832
0.0108347
2.0939
0.260421
0.00311983
1.29444
0.00310059
0.080468
2.74576
0.00354817
0.291541
0.00314941
0.0566207
0.751429
0.00324368
0.00401704
0.00318308
0.00379997
0.0216799
3.81124
0.80514
0.0939076
0.242143
0.00316397
0.765555
0.00317339
0.248064
0.232751
0.0247985
0.159763
0.0139107
1.15106
0.00318443
4.32699
0.218275
0.629211
0.351569
0.163029
0.00309676
0.1934
1.09774
0.129337
0.752515
0.886092
1.69379
0.349812
0.0419614
0.627893
0.0840759
0.00406575
0.1067
2.4709
1.1489
0.120013
0.00846495
0.2975
0.00375591
0.443719
0.872048
1.08653
0.842949
0.896337
0.0372
0.0058319
0.325983
0.22451
0.0483646
0.269498
0.00316116
0.261376
1.96579
0.00330254
1.69702
0.783299
0.114533
0.101938
1.45073
0.0236547
0.101414
0.457684
0.310684
0.294131
0.00322322
0.673991
0.0763058
0.27138
0.383127
0.199044
0.223025
0.00685734
0.688991
0.00317337
0.00316055
0.228472
0.104963
0.160166
1.91869
0.00303327
1.14083
0.0646099
0.057878
0.00338881
1.72241
0.36386
0.0899659
0.784607
0.0598012
1.16009
0.154624
0.00314252
1.19383
2.08942
0.00546386
0.00876335
0.203566
1.03762
0.0993739
1.32474
0.0352596
0.23351
0.104147
0.156977
0.681003
0.203264
0.00318776
1.17582
0.328875
0.0151641
0.197113
4.25596
0.276462
0.00317662
0.00307079
0.764151
0.184078
1.01365
0.00306549
0.715153
0.295957
0.408496
0.00376693
0.314003
0.777356
0.00538486
0.258583
0.00321639
1.1234
0.211099
0.345391
0.262362
0.00314612
0.00314548
0.345557
1.40591
0.385966
0.732502
0.003028
0.045408
0.0032083
0.00626189
1.15986
0.0742165
0.0971197
0.124892
0.325376
0.305709
0.356476
1.21028
0.00317283
0.304339
0.732069
0.245567
0.00319247
0.943174
0.00320555
0.00316624
0.0885907
0.211994
0.0251614
1.36394
0.203236
2.80228
0.00328522
0.00476029
0.0397764
0.903269
0.306058
0.962738
0.00316826
0.00314853
0.00629162
0.00835913
1.10576
0.805844
0.640757
0.123542
0.0448945
0.315543
0.164208
0.57807
0.275875
0.879555
0.312613
0.00308098
0.332979
0.00536885
0.194636
0.889085
0.184412
0.231717
0.133299
0.00380966
1.34383
0.516347
0.489085
0.314534
0.00315936
0.588638
0.762556
0.334203
0.00825243
0.913109
0.479542
0.838575
0.328768
0.336684
0.590114
0.120061
0.861578
0.258606
0.0979663
0.236259
0.00317894
1.21452
0.862554
0.00311821
0.684682
0.004774
0.53805
0.204622
0.237266
0.266692
0.73072
0.953173
0.262309
0.131368
0.174756
0.219549
0.0125463
0.00310407
1.02787
0.0615857
0.938019
0.549806
0.224621
0.834626
0.544981
0.00314509
0.278252
1.53428
1.06108
0.226809
0.239302
0.570706
1.89724
0.190821
0.234674
0.0249311
0.0837569
0.546909
1.19626
0.111638
0.842164
0.821304
0.785944
0.23983
0.231321
0.425504
0.692698
0.00319155
1.94169
0.669912
0.205008
0.00319069
0.592503
0.474471
0.294877
0.00317438
0.591407
0.00317258
0.243213
0.0912314
0.00319457
0.823316
0.347653
0.00310567
0.531878
0.373563
0.60889
0.258809
0.519391
0.279645
0.705967
0.169206
0.157383
0.00312932
0.00470826
0.343427
0.173405
0.0243278
0.00322964
0.3549
0.00604327
0.119782
0.118556
0.445743
0.207249
0.0574967
0.0943227
0.549445
1.63706
0.329532
4.11882
0.870181
0.00311845
0.541079
0.589057
1.67751
0.00312663
0.173385
0.00318786
0.00359159
0.277284
0.28979
0.0391307
0.00340826
0.806078
3.72619
0.00739236
0.00317653
0.129319
0.263038
0.0240202
0.0740494
3.85302
0.140585
0.00339061
0.00317761
0.969202
0.262622
0.135716
0.0592917
0.651856
1.13165
0.39204
0.247356
0.679531
0.00317322
0.502305
0.00315978
0.231097
0.27422
5.38264
0.178326
0.089806
0.00382908
1.18566
0.0031945
0.00313404
0.00585735
0.272527
0.287289
0.97712
0.00314931
0.507699
0.00317251
0.692932
0.977251
0.00320493
0.725391
0.225063
0.00317312
0.00330209
0.031969
1.10731
0.38368
0.026435
0.0031745
0.0031327
0.848848
0.685867
0.327467
0.753953
0.117757
0.438707
0.00314897
0.0103098
0.382894
0.810794
0.759506
0.00887593
0.00317631
0.397866
0.00319772
0.203649
0.805842
0.353951
0.0431409
0.20087
0.506431
0.157239
0.00316975
0.513341
1.33286
0.648223
0.00644091
0.0306068
0.690381
3.69256
0.0548478
0.373706
0.00311028
0.00308662
0.00321468
0.0187778
0.401774
1.07555
0.0106793
0.220963
0.633962
1.23462
0.206222
0.0197127
0.00796646
0.00758002
0.158535
0.171373
0.23679
0.00322348
1.34463
0.00314333
0.0136505
0.84437
0.853025
0.0364522
0.372722
0.46814
0.00409995
0.130324
0.255675
0.0031548
0.00378137
1.12395
0.00365648
0.0032248
0.707211
0.235373
2.09315
0.209265
2.41317
0.00356025
0.00311458
3.2458
0.296052
0.225235
0.498431
0.0604025
0.232638
0.196499
1.0213
0.814682
0.588458
0.58217
0.233364
0.111224
0.321594
0.72851
0.014649
0.351356
0.00392248
0.439657
0.366683
0.107068
0.384332
0.188558
0.413342
0.207941
0.262182
1.11065
0.459679
0.215612
0.317319
0.710837
0.326199
0.00421339
0.00315953
0.110998
2.22846
0.00316167
1.78893
0.00312465
0.00989768
0.340468
0.221509
0.820586
0.680621
0.902949
1.14002
0.522642
0.386285
0.00316724
0.290831
1.05824
0.00323919
1.24781
0.00714262
1.70952
0.940769
1.13402
0.274175
0.206241
0.283964
0.0918497
0.284533
1.2362
0.360736
0.780229
0.169826
0.203107
0.0853781
0.231787
0.954714
0.00955244
0.666488
0.00319427
0.00393388
0.300202
1.51841
0.338434
0.273872
0.164437
0.110682
0.121761
0.0034692
0.34108
0.00346723
0.706384
0.00341834
0.0580689
0.943395
0.171792
0.306298
0.334159
0.318438
0.00623956
0.00321491
0.0992449
0.266846
0.114828
0.517126
0.0424974
0.366002
0.240405
0.374547
0.791935
0.00359434
0.00314781
1.68916
0.226571
0.172015
0.81109
0.688261
0.817703
0.00987909
1.68539
0.335799
0.213181
0.00347802
0.196949
0.40371
0.205465
0.207739
0.266035
0.0032306
0.472959
0.00313414
0.628392
0.010674
0.439935
0.118066
0.409635
0.00324326
6.54569
0.00319251
1.51063
0.0256326
0.00317523
0.0145932
0.274994
0.0031708
0.00318046
0.396913
0.0328101
0.327492
0.0569861
0.00332665
0.21898
0.186482
0.445028
0.00334123
0.224019
0.189936
1.35632
0.70729
0.394665
0.415606
0.215745
0.306642
0.778718
0.832228
0.211252
0.00322413
0.145044
0.362393
0.306285
0.00471779
0.00856094
0.234324
1.57404
0.00318406
0.206295
1.23549
0.00305008
0.849725
0.935897
0.357312
0.594762
0.796963
0.259128
0.13005
2.59088
0.411581
0.885357
0.821868
0.222435
0.107509
0.0031663
0.420481
0.0058745
0.00321786
0.00313426
0.300497
0.00316628
0.00373379
0.537768
4.05839
0.406947
0.212646
0.833911
0.239593
0.00318233
0.165935
1.14395
0.0252623
0.164363
1.01907
0.313006
0.125607
0.0312129
0.00314371
0.00316818
0.0272989
0.0449178
0.302829
0.299997
1.23638
0.267413
0.268778
0.00395548
0.50337
0.213622
0.0032118
0.342805
3.37883
0.00320851
0.362731
1.01679
0.739474
0.656235
0.189875
1.10328
0.00356307
0.210225
0.00331898
0.00633659
0.00320971
0.835219
0.568565
0.0741375
0.00319328
0.00307303
1.11331
0.386833
0.28922
0.235308
0.354567
0.435312
0.306093
0.349967
0.35004
0.0031772
0.15118
0.123617
0.136323
0.385292
1.05927
0.767814
0.590837
0.363232
1.11615
0.826558
0.96313
0.416028
0.881465
0.064711
0.825362
0.393181
0.0281189
1.01267
0.855889
0.447201
0.00311412
0.00320084
0.00361082
0.00444256
0.47224
0.00304521
0.494351
0.165092
0.996385
0.766832
0.00317142
0.474266
0.283351
0.186884
0.276008
0.390347
0.552732
0.00326543
0.00319927
0.00911218
0.100528
0.00313252
0.637536
0.267334
0.253038
0.760425
0.514616
0.441398
0.532106
0.00316787
0.319243
0.66913
0.00381456
0.0789437
0.409228
0.315015
0.537618
0.193284
0.00325607
0.375573
0.35845
0.00385279
0.0204918
0.0031579
0.178789
0.00440683
0.143966
1.28756
0.111601
0.0735147
1.00144
1.81235
0.00326947
0.628954
0.00305227
0.224976
0.346937
0.2478
0.484201
0.691015
0.676932
0.802331
1.22351
0.746825
0.00317862
0.00314518
0.0531814
0.101386
0.606611
0.172312
0.00319371
1.58821
0.253978
0.00825331
0.788514
0.0587039
0.00816869
0.0403909
0.997789
0.00646963
0.003195
0.258381
0.205953
0.640864
0.118252
0.226225
0.202943
0.00321397
0.291333
0.0902766
0.0600326
0.00337582
0.202592
0.534388
0.173663
1.44931
1.33533
0.316587
0.413411
0.00316339
0.35972
0.00319511
2.7303
0.0103364
0.430729
0.0942373
0.84042
0.0163766
0.00933714
0.248378
0.30777
1.30281
0.00356466
0.212142
0.482243
0.609098
0.185545
0.999391
0.120685
0.00343511
0.00320506
0.479172
0.635616
1.06301
0.289454
0.0848838
0.530375
0.328533
0.819075
0.0460114
0.00316921
0.00318277
0.122287
0.707428
0.689918
0.993088
0.00353341
0.0109607
0.167983
0.452397
0.268483
0.759183
0.349926
0.879209
0.00319888
0.00320958
1.13662
0.275257
0.885353
2.87798
0.36
0.0246359
1.41152
0.00318408
1.02331
0.0277212
0.0308294
0.00317113
0.0418006
0.0845681
0.83737
0.794283
0.00322673
0.758406
0.00316013
0.601096
1.56608
0.00314505
0.157375
0.00322657
0.259039
0.12754
0.174708
0.00308787
0.262057
0.211772
0.257336
1.02366
0.170226
1.22477
0.217517
0.833553
0.237363
1.11762
0.638021
0.00384251
0.00320865
0.37546
0.195129
0.823715
0.00317726
2.11179
0.00315893
0.00478215
0.0389348
0.00316026
1.14234
0.974584
0.00324379
0.665462
0.256682
0.102527
0.709354
0.00608348
0.0031292
0.422968
0.38598
0.00977414
0.776457
6.66905
1.35831
0.15534
1.19733
0.104347
0.00318524
0.00368816
0.0351782
0.137069
0.844321
1.0901
1.31562
0.795695
0.531631
0.509193
0.257833
0.652049
1.9438
0.591106
0.0430503
0.0783228
0.2788
1.50664
0.00338242
0.194292
0.65547
0.33347
0.00317286
0.423951
0.00305911
0.0138653
0.843744
0.0033876
0.298126
1.8499
0.00318984
0.352639
0.00351441
0.337265
0.0141158
0.0040673
0.767092
0.255193
0.915557
0.399758
1.12067
1.64652
0.489664
0.175872
0.752183
0.388509
0.0031157
0.57749
0.0585328