/*--------------------------------*- C++ -*----------------------------------*\
| =========                 |                                                 |
| \\      /  F ield         | OpenFOAM: The Open Source CFD Toolbox           |
|  \\    /   O peration     | Version:  2.3.1                                 |
|   \\  /    A nd           | Web:      www.OpenFOAM.org                      |
|    \\/     M anipulation  |                                                 |
\*---------------------------------------------------------------------------*/
FoamFile
{
    version     2.0;
    format      ascii;
    class       surfaceScalarField;
    location    "0.39";
    object      phi;
}
// * * * * * * * * * * * * * * * * * * * * * * * * * * * * * * * * * * * * * //

dimensions      [0 3 -1 0 0 0 0];

internalField   nonuniform List<scalar> 
23326
(
-1.24133e-05
0.000111484
-9.90708e-05
-2.13181e-05
0.000126935
-0.00011803
-2.69479e-05
0.00014133
-0.0001357
-3.05867e-05
0.000156895
-0.000153256
-3.37019e-05
0.000169522
-0.000166407
-3.59032e-05
0.00018183
-0.000179629
-3.7412e-05
0.000192433
-0.000190925
-3.81811e-05
0.000201101
-0.000200332
-3.85714e-05
0.000207661
-0.00020727
-3.86289e-05
0.000212725
-0.000212667
-3.85381e-05
0.00021651
-0.0002166
0.000219254
-3.83731e-05
-0.000219419
-6.91293e-06
0.000118397
-1.36674e-05
0.00013369
-1.97003e-05
0.000147363
-2.41793e-05
0.000161374
-2.78534e-05
0.000173197
-3.05663e-05
0.000184543
-3.24645e-05
0.000194332
-3.37181e-05
0.000202354
-3.45056e-05
0.000208448
-3.49595e-05
0.000213178
-3.51792e-05
0.000216729
0.000219347
-3.52722e-05
-5.5815e-06
0.000123979
-1.08782e-05
0.000138987
-1.58825e-05
0.000152367
-1.99853e-05
0.000165476
-2.35218e-05
0.000176733
-2.62861e-05
0.000187307
-2.83387e-05
0.000196384
-2.97977e-05
0.000203813
-3.08615e-05
0.000209512
-3.15908e-05
0.000213908
-3.20597e-05
0.000217198
0.000219713
-3.24255e-05
-4.70053e-06
0.000128679
-9.26944e-06
0.000143555
-1.355e-05
0.000156647
-1.71633e-05
0.00016909
-2.03566e-05
0.000179926
-2.29523e-05
0.000189903
-2.50122e-05
0.000198444
-2.65522e-05
0.000205353
-2.77198e-05
0.00021068
-2.86192e-05
0.000214807
-2.92891e-05
0.000217868
0.000220276
-2.98524e-05
-3.84835e-06
0.000132527
-7.88357e-06
0.000147591
-1.16831e-05
0.000160447
-1.49534e-05
0.00017236
-1.78429e-05
0.000182816
-2.02874e-05
0.000192347
-2.22418e-05
0.000200398
-2.37826e-05
0.000206894
-2.50351e-05
0.000211932
-2.59751e-05
0.000215747
-2.67857e-05
0.000218679
0.000220922
-2.74315e-05
-3.20431e-06
0.000135732
-6.76455e-06
0.000151151
-1.01522e-05
0.000163835
-1.31261e-05
0.000175334
-1.58117e-05
0.000185502
-1.80431e-05
0.000194579
-1.9904e-05
0.000202259
-2.14398e-05
0.00020843
-2.26554e-05
0.000213148
-2.36727e-05
0.000216764
-2.45221e-05
0.000219528
0.000221653
-2.52528e-05
-2.75744e-06
0.000138489
-5.91739e-06
0.000154311
-8.94729e-06
0.000166864
-1.16673e-05
0.000178054
-1.40843e-05
0.000187919
-1.6182e-05
0.000196677
-1.79396e-05
0.000204017
-1.93852e-05
0.000209875
-2.06146e-05
0.000214377
-2.1655e-05
0.000217805
-2.25625e-05
0.000220436
0.000222464
-2.33736e-05
-2.42381e-06
0.000140913
-5.2607e-06
0.000157148
-7.98463e-06
0.000169588
-1.04258e-05
0.000180495
-1.2658e-05
0.000190151
-1.46006e-05
0.000198619
-1.62573e-05
0.000205674
-1.76331e-05
0.000211251
-1.88417e-05
0.000215586
-1.98868e-05
0.00021885
-2.07894e-05
0.000221338
0.000223261
-2.15864e-05
-2.15848e-06
0.000143071
-4.73068e-06
0.00015972
-7.19948e-06
0.000172057
-9.45129e-06
0.000182747
-1.14825e-05
0.000192182
-1.32553e-05
0.000200392
-1.48067e-05
0.000207225
-1.61533e-05
0.000212598
-1.72971e-05
0.000216729
-1.83083e-05
0.000219861
-1.92103e-05
0.00022224
0.000224129
-2.00783e-05
-1.93473e-06
0.000145006
-4.27482e-06
0.00016206
-6.53191e-06
0.000174314
-8.59186e-06
0.000184807
-1.04823e-05
0.000194073
-1.21304e-05
0.00020204
-1.35614e-05
0.000208656
-1.48093e-05
0.000213846
-1.59372e-05
0.000217857
-1.69278e-05
0.000220852
-1.7826e-05
0.000223138
0.000224943
-1.86397e-05
-1.74888e-06
0.000146755
-3.89839e-06
0.00016421
-5.96636e-06
0.000176382
-7.86625e-06
0.000186707
-9.59625e-06
0.000195803
-1.11252e-05
0.000203569
-1.24711e-05
0.000210002
-1.36547e-05
0.000215029
-1.47163e-05
0.000218919
-1.56755e-05
0.000221811
-1.6588e-05
0.000224051
0.00022573
-1.73753e-05
-1.58503e-06
0.00014834
-3.55883e-06
0.000166183
-5.46321e-06
0.000178287
-7.24677e-06
0.00018849
-8.82524e-06
0.000197381
-1.02541e-05
0.000204998
-1.15145e-05
0.000211262
-1.2636e-05
0.000216151
-1.36477e-05
0.000219931
-1.45748e-05
0.000222738
-1.53949e-05
0.000224871
0.000226523
-1.61877e-05
-1.44707e-06
0.000149787
-3.26575e-06
0.000168002
-5.03696e-06
0.000180058
-6.67547e-06
0.000190129
-8.17026e-06
0.000198876
-9.50275e-06
0.00020633
-1.06631e-05
0.000212423
-1.1729e-05
0.000217217
-1.26709e-05
0.000220873
-1.3551e-05
0.000223618
-1.43562e-05
0.000225676
0.0002272
-1.50335e-05
-1.3281e-06
0.000151115
-3.03239e-06
0.000169706
-4.66435e-06
0.00018169
-6.17465e-06
0.000191639
-7.56716e-06
0.000200268
-8.79139e-06
0.000207555
-9.91285e-06
0.000213544
-1.0897e-05
0.000218201
-1.18239e-05
0.000221799
-1.26939e-05
0.000224488
-1.34981e-05
0.00022648
0.000228029
-1.43268e-05
-1.2178e-06
0.000152333
-2.78774e-06
0.000171276
-4.33363e-06
0.000183236
-5.7465e-06
0.000193052
-7.02725e-06
0.000201549
-8.20133e-06
0.000208729
-9.2324e-06
0.000214575
-1.01967e-05
0.000219165
-1.10303e-05
0.000222633
-1.18283e-05
0.000225286
-1.25929e-05
0.000227245
0.000228696
-1.326e-05
-1.12182e-06
0.000153455
-2.58998e-06
0.000172744
-4.02076e-06
0.000184666
-5.3388e-06
0.00019437
-6.54302e-06
0.000202753
-7.62332e-06
0.000209809
-8.59978e-06
0.000215552
-9.48295e-06
0.000220048
-1.03331e-05
0.000223483
-1.1127e-05
0.00022608
-1.18486e-05
0.000227967
0.000229359
-1.25119e-05
-1.03615e-06
0.000154491
-2.39269e-06
0.000174101
-3.72974e-06
0.000186004
-4.97442e-06
0.000195615
-6.103e-06
0.000203882
-7.12085e-06
0.000210827
-8.04139e-06
0.000216472
-8.91394e-06
0.000220921
-9.69459e-06
0.000224264
-1.04087e-05
0.000226794
-1.11051e-05
0.000228663
0.000230018
-1.17643e-05
-9.46846e-07
0.000155438
-2.22746e-06
0.000175382
-3.49226e-06
0.000187268
-4.66199e-06
0.000196784
-5.72557e-06
0.000204945
-6.69012e-06
0.000211791
-7.55916e-06
0.000217341
-8.30828e-06
0.00022167
-9.06025e-06
0.000225016
-9.76781e-06
0.000227502
-1.04408e-05
0.000229336
0.000230661
-1.10838e-05
-8.79395e-07
0.000156317
-2.08215e-06
0.000176584
-3.24939e-06
0.000188436
-4.35242e-06
0.000197887
-5.33087e-06
0.000205924
-6.23865e-06
0.000212699
-7.04217e-06
0.000218145
-7.83114e-06
0.000222459
-8.51857e-06
0.000225703
-9.19465e-06
0.000228178
-9.81394e-06
0.000229955
0.000231279
-1.04314e-05
-8.17865e-07
0.000157135
-1.92732e-06
0.000177694
-3.05064e-06
0.000189559
-4.06932e-06
0.000198906
-5.02031e-06
0.000206875
-5.85435e-06
0.000213533
-6.63855e-06
0.000218929
-7.33741e-06
0.000223158
-8.01826e-06
0.000226384
-8.60842e-06
0.000228768
-9.21931e-06
0.000230566
0.000231827
-9.7677e-06
-7.61726e-07
0.000157897
-1.80447e-06
0.000178737
-2.84404e-06
0.000190598
-3.80939e-06
0.000199871
-4.67838e-06
0.000207744
-5.49249e-06
0.000214347
-6.21101e-06
0.000219648
-6.87817e-06
0.000223825
-7.50133e-06
0.000227007
-8.11871e-06
0.000229385
-8.67761e-06
0.000231125
0.000232384
-9.23483e-06
-6.85531e-07
0.000158582
-1.66846e-06
0.000179719
-2.65436e-06
0.000191584
-3.58606e-06
0.000200803
-4.41156e-06
0.000208569
-5.13597e-06
0.000215072
-5.81822e-06
0.00022033
-6.45104e-06
0.000224458
-7.07497e-06
0.000227631
-7.64517e-06
0.000229956
-8.1985e-06
0.000231679
0.000232907
-8.72113e-06
-6.43939e-07
0.000159226
-1.56711e-06
0.000180643
-2.49737e-06
0.000192515
-3.33533e-06
0.000201641
-4.11929e-06
0.000209353
-4.82469e-06
0.000215777
-5.47609e-06
0.000220981
-6.07656e-06
0.000225058
-6.64677e-06
0.000228201
-7.19407e-06
0.000230503
-7.71352e-06
0.000232198
0.000233411
-8.21784e-06
-5.83309e-07
0.00015981
-1.45064e-06
0.00018151
-2.33041e-06
0.000193394
-3.12298e-06
0.000202434
-3.86321e-06
0.000210094
-4.53537e-06
0.000216449
-5.15194e-06
0.000221598
-5.72698e-06
0.000225633
-6.24722e-06
0.000228722
-6.73921e-06
0.000230995
-7.24961e-06
0.000232708
0.000233909
-7.74736e-06
-5.3864e-07
0.000160348
-1.33776e-06
0.000182309
-2.17176e-06
0.000194228
-2.94692e-06
0.000203209
-3.62425e-06
0.000210771
-4.26243e-06
0.000217087
-4.82214e-06
0.000222157
-5.34581e-06
0.000226157
-5.86375e-06
0.00022924
-6.36729e-06
0.000231499
-6.8225e-06
0.000233164
0.000234386
-7.29966e-06
-5.06389e-07
0.000160855
-1.25579e-06
0.000183059
-2.02326e-06
0.000194996
-2.75885e-06
0.000203944
-3.40044e-06
0.000211412
-3.98039e-06
0.000217667
-4.51132e-06
0.000222688
-5.03112e-06
0.000226677
-5.50406e-06
0.000229713
-5.95486e-06
0.000231949
-6.42999e-06
0.000233639
0.000234825
-6.8692e-06
-4.49516e-07
0.000161304
-1.15437e-06
0.000183763
-1.88005e-06
0.000195722
-2.55312e-06
0.000204618
-3.1857e-06
0.000212045
-3.73518e-06
0.000218217
-4.23896e-06
0.000223192
-4.70949e-06
0.000227147
-5.1565e-06
0.00023016
-5.61407e-06
0.000232407
-6.00152e-06
0.000234026
0.000235235
-6.4111e-06
-3.9973e-07
0.000161704
-1.08472e-06
0.000184448
-1.7693e-06
0.000196406
-2.38516e-06
0.000205233
-2.95781e-06
0.000212618
-3.48044e-06
0.000218739
-3.98239e-06
0.000223694
-4.40218e-06
0.000227567
-4.82774e-06
0.000230585
-5.23895e-06
0.000232818
-5.66685e-06
0.000234454
0.000235589
-6.02115e-06
-3.73366e-07
0.000162077
-9.90521e-07
0.000185066
-1.61838e-06
0.000197034
-2.2452e-06
0.00020586
-2.76704e-06
0.00021314
-3.25786e-06
0.00021923
-3.68417e-06
0.00022412
-4.1386e-06
0.000228022
-4.51463e-06
0.000230961
-4.91121e-06
0.000233215
-5.27047e-06
0.000234813
0.000236008
-5.68927e-06
-3.16811e-07
0.000162394
-8.81741e-07
0.00018563
-1.51781e-06
0.00019767
-2.06597e-06
0.000206408
-2.58214e-06
0.000213656
-3.02302e-06
0.000219671
-3.45272e-06
0.00022455
-3.82681e-06
0.000228396
-4.2154e-06
0.00023135
-4.56051e-06
0.00023356
-4.95546e-06
0.000235208
0.000236341
-5.2883e-06
-2.92865e-07
0.000162687
-8.41203e-07
0.000186179
-1.37542e-06
0.000198204
-1.91782e-06
0.000206951
-2.37888e-06
0.000214117
-2.82108e-06
0.000220113
-3.20343e-06
0.000224932
-3.58642e-06
0.000228779
-3.92407e-06
0.000231687
-4.28214e-06
0.000233918
-4.58126e-06
0.000235507
0.000236691
-4.93139e-06
-2.59561e-07
0.000162947
-7.41597e-07
0.000186661
-1.28791e-06
0.000198751
-1.75063e-06
0.000207414
-2.21261e-06
0.000214579
-2.60434e-06
0.000220505
-2.98757e-06
0.000225316
-3.29582e-06
0.000229087
-3.64676e-06
0.000232038
-3.95871e-06
0.00023423
-4.28834e-06
0.000235837
0.000236955
-4.55218e-06
-2.30711e-07
0.000163177
-6.63123e-07
0.000187093
-1.15458e-06
0.000199242
-1.63897e-06
0.000207898
-2.05006e-06
0.00021499
-2.4188e-06
0.000220874
-2.72906e-06
0.000225626
-3.07319e-06
0.000229431
-3.37552e-06
0.000232341
-3.6733e-06
0.000234528
-3.96924e-06
0.000236133
0.000237252
-4.26604e-06
-1.7115e-07
0.000163348
-6.12124e-07
0.000187534
-1.07422e-06
0.000199704
-1.48205e-06
0.000208306
-1.8683e-06
0.000215376
-2.21436e-06
0.00022122
-2.53133e-06
0.000225943
-2.8277e-06
0.000229727
-3.11476e-06
0.000232628
-3.36801e-06
0.000234781
-3.64527e-06
0.00023641
0.000237551
-3.94475e-06
-1.79457e-07
0.000163528
-5.41037e-07
0.000187896
-9.48825e-07
0.000200112
-1.37995e-06
0.000208737
-1.71529e-06
0.000215711
-2.01318e-06
0.000221518
-2.31e-06
0.00022624
-2.59089e-06
0.000230008
-2.83051e-06
0.000232867
-3.09542e-06
0.000235046
-3.36148e-06
0.000236676
0.000237794
-3.60402e-06
-1.16047e-07
0.000163644
-4.72072e-07
0.000188252
-8.74704e-07
0.000200515
-1.2049e-06
0.000209067
-1.54409e-06
0.000216051
-1.84715e-06
0.000221821
-2.12271e-06
0.000226515
-2.35548e-06
0.000230241
-2.57808e-06
0.00023309
-2.82231e-06
0.00023529
-3.03091e-06
0.000236885
0.000238037
-3.2746e-06
-9.87854e-08
0.000163743
-4.01218e-07
0.000188554
-7.55221e-07
0.000200869
-1.10995e-06
0.000209422
-1.40138e-06
0.000216342
-1.65735e-06
0.000222077
-1.88791e-06
0.000226746
-2.10079e-06
0.000230454
-2.33536e-06
0.000233324
-2.56207e-06
0.000235517
-2.75817e-06
0.000237081
0.000238217
-2.93756e-06
-6.88292e-08
0.000163812
-3.39031e-07
0.000188825
-6.6264e-07
0.000201192
-9.6915e-07
0.000209728
-1.23855e-06
0.000216611
-1.50004e-06
0.000222338
-1.71409e-06
0.00022696
-1.91238e-06
0.000230652
-2.10173e-06
0.000233514
-2.2901e-06
0.000235705
-2.47847e-06
0.000237269
0.000238404
-2.66586e-06
-3.07609e-08
0.000163842
-2.74434e-07
0.000189068
-5.73979e-07
0.000201492
-8.57052e-07
0.000210011
-1.10568e-06
0.00021686
-1.2959e-06
0.000222528
-1.51702e-06
0.000227181
-1.6997e-06
0.000230835
-1.87718e-06
0.000233691
-2.02831e-06
0.000235856
-2.22332e-06
0.000237465
0.000238634
-2.45296e-06
-3.83465e-09
0.000163846
-2.16449e-07
0.000189281
-4.89166e-07
0.000201764
-7.47778e-07
0.00021027
-9.75908e-07
0.000217088
-1.17419e-06
0.000222727
-1.32451e-06
0.000227331
-1.46225e-06
0.000230973
-1.62048e-06
0.00023385
-1.77394e-06
0.00023601
-1.90958e-06
0.0002376
0.000238741
-2.01701e-06
6.48448e-09
0.00016384
-1.59376e-07
0.000189447
-4.04544e-07
0.000202009
-6.15805e-07
0.000210481
-8.22936e-07
0.000217295
-9.74487e-07
0.000222879
-1.13437e-06
0.000227491
-1.28331e-06
0.000231122
-1.40044e-06
0.000233967
-1.54771e-06
0.000236157
-1.67778e-06
0.00023773
0.000238917
-1.85369e-06
3.85013e-08
0.000163801
-9.64701e-08
0.000189581
-2.93399e-07
0.000202206
-5.10011e-07
0.000210698
-6.71041e-07
0.000217456
-8.33432e-07
0.000223041
-9.48461e-07
0.000227607
-1.05369e-06
0.000231227
-1.18486e-06
0.000234098
-1.28643e-06
0.000236259
-1.41775e-06
0.000237862
0.000239021
-1.52144e-06
6.25022e-08
0.000163739
-6.41285e-08
0.000189708
-2.38874e-07
0.000202381
-4.06185e-07
0.000210865
-5.49385e-07
0.0002176
-6.65709e-07
0.000223158
-7.65656e-07
0.000227707
-8.84022e-07
0.000231346
-9.71099e-07
0.000234185
-1.06e-06
0.000236348
-1.15456e-06
0.000237956
0.000239124
-1.25726e-06
9.62349e-08
0.000163642
1.66251e-08
0.000189788
-1.28628e-07
0.000202526
-2.77021e-07
0.000211013
-4.02151e-07
0.000217725
-5.01764e-07
0.000223257
-5.85171e-07
0.00022779
-6.60556e-07
0.000231421
-7.33609e-07
0.000234258
-8.07823e-07
0.000236421
-8.82029e-07
0.00023803
0.000239193
-9.51562e-07
1.19941e-07
0.000163522
6.89412e-08
0.000189839
-5.00361e-08
0.000202645
-1.76854e-07
0.000211141
-2.84917e-07
0.000217833
-3.41369e-07
0.000223314
-4.08584e-07
0.000227857
-4.68895e-07
0.000231481
-5.28072e-07
0.000234317
-5.90276e-07
0.000236483
-6.61326e-07
0.000238101
0.000239285
-7.53837e-07
1.26057e-07
0.000163396
1.18695e-07
0.000189846
2.31506e-08
0.000202741
-6.01913e-08
0.000211224
-1.46048e-07
0.000217919
-2.10331e-07
0.000223378
-2.61978e-07
0.000227909
-2.79441e-07
0.000231498
-3.23584e-07
0.000234361
-3.4127e-07
0.000236501
-3.85081e-07
0.000238144
0.000239289
-3.89255e-07
1.73418e-07
0.000163223
1.66123e-07
0.000189854
1.19889e-07
0.000202787
3.21066e-08
0.000211312
-3.51201e-09
0.000217954
-5.35542e-08
0.000223428
-6.26885e-08
0.000227918
-9.34583e-08
0.000231528
-9.58713e-08
0.000234363
-1.31019e-07
0.000236535
-1.48513e-07
0.000238161
0.000239356
-2.15584e-07
1.83383e-07
0.00016304
2.23262e-07
0.000189814
1.69356e-07
0.000202841
1.28911e-07
0.000211352
1.03877e-07
0.000217979
9.85745e-08
0.000223433
7.78929e-08
0.000227938
9.03521e-08
0.000231516
1.01996e-07
0.000234351
1.10722e-07
0.000236527
8.9106e-08
0.000238183
0.000239341
1.04362e-07
2.07701e-07
0.000162832
2.46414e-07
0.000189775
2.63615e-07
0.000202824
2.44199e-07
0.000211371
2.12384e-07
0.000218011
2.2245e-07
0.000223422
2.7214e-07
0.000227888
2.71105e-07
0.000231517
2.97318e-07
0.000234325
3.18991e-07
0.000236506
3.30536e-07
0.000238172
0.000239352
3.20189e-07
2.32425e-07
0.0001626
3.21118e-07
0.000189686
3.34703e-07
0.00020281
3.34118e-07
0.000211372
3.71322e-07
0.000217973
3.71428e-07
0.000223422
4.08831e-07
0.000227851
4.78097e-07
0.000231448
5.19116e-07
0.000234285
5.28037e-07
0.000236497
5.93737e-07
0.000238107
0.000239303
6.42916e-07
2.39633e-07
0.00016236
3.70308e-07
0.000189556
4.04324e-07
0.000202776
4.22708e-07
0.000211353
4.49979e-07
0.000217946
5.18999e-07
0.000223353
5.70821e-07
0.000227799
6.26273e-07
0.000231393
7.07773e-07
0.000234204
7.83072e-07
0.000236422
8.19924e-07
0.000238071
0.000239275
8.48214e-07
2.84847e-07
0.000162075
4.17962e-07
0.000189423
4.98183e-07
0.000202696
5.35829e-07
0.000211315
6.07088e-07
0.000217875
6.65141e-07
0.000223295
7.59482e-07
0.000227705
8.28722e-07
0.000231325
8.9323e-07
0.00023414
9.49493e-07
0.000236367
1.01723e-06
0.000238003
0.000239267
1.02544e-06
2.89147e-07
0.000161786
4.6546e-07
0.000189246
5.42134e-07
0.000202619
6.23639e-07
0.000211234
7.115e-07
0.000217787
8.12173e-07
0.000223195
8.94003e-07
0.000227624
1.00503e-06
0.000231214
1.08554e-06
0.00023406
1.18779e-06
0.000236265
1.28573e-06
0.000237905
0.000239168
1.38441e-06
3.1574e-07
0.00016147
5.13924e-07
0.000189048
6.35558e-07
0.000202498
7.36404e-07
0.000211133
8.14918e-07
0.000217708
9.3191e-07
0.000223078
1.05581e-06
0.0002275
1.18236e-06
0.000231088
1.30402e-06
0.000233938
1.41924e-06
0.000236149
1.49518e-06
0.000237829
0.000239083
1.57951e-06
3.40294e-07
0.00016113
5.6096e-07
0.000188827
7.0472e-07
0.000202354
8.23368e-07
0.000211014
9.46127e-07
0.000217587
1.07838e-06
0.000222946
1.21814e-06
0.000227361
1.35704e-06
0.000230949
1.49295e-06
0.000233802
1.61999e-06
0.000236022
1.74044e-06
0.000237707
0.000238957
1.86664e-06
3.66092e-07
0.000160763
6.09474e-07
0.000188584
7.72737e-07
0.000202191
9.11354e-07
0.000210877
1.07635e-06
0.000217421
1.2246e-06
0.000222799
1.37775e-06
0.000227207
1.5309e-06
0.000230795
1.70565e-06
0.000233627
1.84297e-06
0.000235883
1.96771e-06
0.000237582
0.000238852
2.0717e-06
3.69591e-07
0.000160394
6.56072e-07
0.000188297
8.41662e-07
0.000202006
1.02384e-06
0.000210694
1.18012e-06
0.000217266
1.34311e-06
0.000222635
1.53838e-06
0.000227012
1.73266e-06
0.0002306
1.86416e-06
0.000233493
2.04381e-06
0.000235703
2.18792e-06
0.000237437
0.000238667
2.37291e-06
4.16351e-07
0.000159977
7.03615e-07
0.00018801
9.34366e-07
0.000201775
1.1115e-06
0.000210518
1.28456e-06
0.000217093
1.51722e-06
0.000222403
1.69973e-06
0.000226829
1.87823e-06
0.00023042
2.0791e-06
0.000233292
2.23865e-06
0.000235542
2.43021e-06
0.000237245
0.000238593
2.50418e-06
4.21167e-07
0.000159556
7.53078e-07
0.000187678
1.00473e-06
0.000201524
1.2242e-06
0.000210298
1.4408e-06
0.000216876
1.60915e-06
0.000222234
1.83207e-06
0.000226605
2.05614e-06
0.000230196
2.27188e-06
0.000233075
2.48292e-06
0.000235331
2.66717e-06
0.000237062
0.000238369
2.89143e-06
4.46851e-07
0.00015911
7.77922e-07
0.000187348
1.04884e-06
0.000201253
1.28681e-06
0.00021006
1.51936e-06
0.000216643
1.78263e-06
0.00022197
2.02247e-06
0.000226364
2.25962e-06
0.000229958
2.49359e-06
0.000232841
2.71582e-06
0.00023511
2.92443e-06
0.000236854
0.000238178
3.11658e-06
4.5897e-07
0.000158651
8.51135e-07
0.000186956
1.1432e-06
0.000200961
1.40002e-06
0.000209803
1.65045e-06
0.000216392
1.90144e-06
0.000221718
2.1551e-06
0.00022611
2.40744e-06
0.000229706
2.67967e-06
0.00023257
2.91533e-06
0.000234875
3.14007e-06
0.00023663
0.000237952
3.36691e-06
5.01674e-07
0.00015815
8.98922e-07
0.000186559
1.2132e-06
0.000200647
1.51315e-06
0.000209502
1.77879e-06
0.000216127
2.04553e-06
0.000221451
2.34217e-06
0.000225815
2.60835e-06
0.000229441
2.83871e-06
0.000232341
3.11411e-06
0.000234602
3.34127e-06
0.000236403
0.000237725
3.56847e-06
5.07266e-07
0.000157643
9.47579e-07
0.000186118
1.27994e-06
0.000200313
1.57476e-06
0.000209208
1.88273e-06
0.000215817
2.19289e-06
0.000221141
2.47549e-06
0.000225532
2.78342e-06
0.000229134
3.08513e-06
0.000232041
3.31874e-06
0.000234368
3.60147e-06
0.000236121
0.000237465
3.86105e-06
5.34041e-07
0.000157108
9.71707e-07
0.00018568
1.3765e-06
0.000199908
1.68838e-06
0.000208895
2.01485e-06
0.000215491
2.31301e-06
0.000220843
2.64062e-06
0.000225205
2.93672e-06
0.000228839
3.24814e-06
0.00023173
3.54863e-06
0.000234069
3.82716e-06
0.000235843
0.000237251
4.04179e-06
5.43358e-07
0.000156565
1.04529e-06
0.000185178
1.42154e-06
0.000199532
1.77846e-06
0.000208537
2.12265e-06
0.000215147
2.4646e-06
0.000220501
2.80748e-06
0.000224864
3.14243e-06
0.000228505
3.44476e-06
0.000231429
3.78618e-06
0.000233727
4.06397e-06
0.000235564
0.000236921
4.39297e-06
5.7213e-07
0.000155992
1.07451e-06
0.000184675
1.49317e-06
0.000199112
1.89714e-06
0.000208134
2.2313e-06
0.000214813
2.61902e-06
0.000220115
2.9472e-06
0.000224536
3.29329e-06
0.000228159
3.67568e-06
0.000231046
3.96999e-06
0.000233431
4.29899e-06
0.000235235
0.000236685
4.53451e-06
6.07981e-07
0.000155383
1.12675e-06
0.000184156
1.58749e-06
0.000198652
1.97189e-06
0.000207749
2.3714e-06
0.000214414
2.73911e-06
0.000219747
3.12615e-06
0.00022415
3.51909e-06
0.000227766
3.85224e-06
0.000230712
4.21326e-06
0.00023307
4.54392e-06
0.000234903
0.000236322
4.90641e-06
6.15559e-07
0.000154767
1.16522e-06
0.000183606
1.64893e-06
0.000198168
2.0689e-06
0.000207329
2.48625e-06
0.000213997
2.87579e-06
0.000219358
3.28862e-06
0.000223737
3.66584e-06
0.000227388
4.05929e-06
0.000230318
4.4378e-06
0.00023269
4.76624e-06
0.000234574
0.00023601
5.07818e-06
6.39487e-07
0.000154128
1.2263e-06
0.000183019
1.71453e-06
0.00019768
2.19637e-06
0.000206848
2.61436e-06
0.000213579
3.04239e-06
0.00021893
3.44791e-06
0.000223331
3.88953e-06
0.000226946
4.24191e-06
0.000229964
4.637e-06
0.000232295
5.02097e-06
0.00023419
0.000235618
5.4132e-06
6.61616e-07
0.000153466
1.2738e-06
0.000182407
1.80202e-06
0.000197152
2.25904e-06
0.000206391
2.71299e-06
0.000213125
3.18753e-06
0.000218455
3.60211e-06
0.000222916
4.03676e-06
0.000226511
4.45869e-06
0.000229542
4.86738e-06
0.000231886
5.24997e-06
0.000233808
0.000235294
5.57457e-06
7.01322e-07
0.000152766
1.31475e-06
0.000181795
1.89129e-06
0.000196576
2.38972e-06
0.000205892
2.8403e-06
0.000212674
3.30449e-06
0.00021799
3.78614e-06
0.000222434
4.23578e-06
0.000226061
4.67352e-06
0.000229104
5.0993e-06
0.000231461
5.51496e-06
0.000233392
0.000234871
5.93897e-06
6.82779e-07
0.000152084
1.38078e-06
0.000181097
1.955e-06
0.000196001
2.47457e-06
0.000205373
2.99119e-06
0.000212156
3.44621e-06
0.000217535
3.94575e-06
0.000221934
4.41035e-06
0.000225596
4.88846e-06
0.000228627
5.30021e-06
0.000231049
5.74591e-06
0.000232947
0.000234484
6.13221e-06
7.53768e-07
0.000151331
1.3945e-06
0.000180457
1.99351e-06
0.000195403
2.55716e-06
0.000204808
3.09353e-06
0.00021162
3.61627e-06
0.000217011
4.10516e-06
0.000221445
4.58457e-06
0.000225117
5.0778e-06
0.000228134
5.5531e-06
0.000230574
5.98093e-06
0.00023252
0.000234082
6.38307e-06
7.42523e-07
0.00015059
1.51108e-06
0.000179689
2.13209e-06
0.000194781
2.71873e-06
0.000204222
3.24846e-06
0.000211089
3.78955e-06
0.00021647
4.29516e-06
0.000220939
4.81712e-06
0.000224595
5.29939e-06
0.000227652
5.79294e-06
0.000230081
6.24411e-06
0.000232068
0.000233583
6.74271e-06
7.64926e-07
0.000149825
1.50613e-06
0.000178947
2.16969e-06
0.000194118
2.75004e-06
0.000203641
3.35226e-06
0.000210487
3.88455e-06
0.000215938
4.45895e-06
0.000220365
4.96999e-06
0.000224085
5.49334e-06
0.000227128
5.97108e-06
0.000229603
6.45022e-06
0.000231589
0.000233152
6.88093e-06
8.23308e-07
0.000149001
1.57452e-06
0.000178196
2.26263e-06
0.000193429
2.88999e-06
0.000203014
3.45537e-06
0.000209922
4.06151e-06
0.000215332
4.60055e-06
0.000219827
5.15381e-06
0.000223532
5.71983e-06
0.000226562
6.24254e-06
0.00022908
6.78172e-06
0.000231049
0.00023267
7.26439e-06
8.22211e-07
0.000148178
1.61272e-06
0.000177405
2.32456e-06
0.000192718
3.00428e-06
0.000202334
3.61855e-06
0.000209309
4.2101e-06
0.000214742
4.82355e-06
0.000219213
5.39281e-06
0.000222962
5.91914e-06
0.000226036
6.45209e-06
0.000228546
6.95793e-06
0.000230543
0.000232188
7.43978e-06
8.16956e-07
0.00014736
1.65837e-06
0.000176563
2.41657e-06
0.00019196
3.08944e-06
0.000201662
3.74959e-06
0.000208649
4.36957e-06
0.000214122
4.96383e-06
0.000218619
5.5492e-06
0.000222377
6.15002e-06
0.000225435
6.72756e-06
0.000227969
7.26265e-06
0.000230008
0.00023165
7.80079e-06
8.80774e-07
0.000146479
1.72558e-06
0.000175718
2.48668e-06
0.000191198
3.20699e-06
0.000200942
3.86182e-06
0.000207994
4.52067e-06
0.000213464
5.13744e-06
0.000218003
5.79828e-06
0.000221716
6.35101e-06
0.000224882
6.94832e-06
0.000227371
7.51131e-06
0.000229445
0.000231171
7.9898e-06
8.92983e-07
0.000145585
1.76742e-06
0.000174843
2.58406e-06
0.000190382
3.29319e-06
0.000200233
4.00218e-06
0.000207286
4.67928e-06
0.000212786
5.31316e-06
0.000217369
5.95935e-06
0.00022107
6.62242e-06
0.000224219
7.20169e-06
0.000226792
7.77507e-06
0.000228872
0.000230543
8.40366e-06
9.11232e-07
0.000144674
1.8498e-06
0.000173905
2.64963e-06
0.000189582
3.42318e-06
0.000199459
4.14425e-06
0.000206564
4.83994e-06
0.00021209
5.51712e-06
0.000216691
6.15361e-06
0.000220433
6.82648e-06
0.000223546
7.46075e-06
0.000226158
8.06547e-06
0.000228268
0.000230013
8.59589e-06
9.43271e-07
0.000143732
1.86842e-06
0.00017298
2.75806e-06
0.000188692
3.54589e-06
0.000198671
4.31247e-06
0.000205797
4.96633e-06
0.000211436
5.6965e-06
0.000215961
6.37474e-06
0.000219755
7.03446e-06
0.000222887
7.67093e-06
0.000225522
8.27802e-06
0.000227661
0.000229377
8.91336e-06
9.62886e-07
0.000142769
1.91747e-06
0.000172026
2.82299e-06
0.000187787
3.63384e-06
0.000197859
4.39745e-06
0.000205033
5.16644e-06
0.000210666
5.8797e-06
0.000215247
6.60124e-06
0.000219033
7.25041e-06
0.000222237
7.93031e-06
0.000224843
8.55614e-06
0.000227035
0.000228796
9.13766e-06
9.89475e-07
0.000141781
1.9892e-06
0.000171027
2.89903e-06
0.000186877
3.75837e-06
0.000197
4.55658e-06
0.000204234
5.33579e-06
0.000209887
6.09418e-06
0.000214488
6.80862e-06
0.000218319
7.53088e-06
0.000221515
8.17996e-06
0.000224194
8.90379e-06
0.000226312
0.000228144
9.55628e-06
1.01796e-06
0.000140763
2.04091e-06
0.000170004
2.97717e-06
0.000185941
3.89774e-06
0.000196079
4.69395e-06
0.000203438
5.46956e-06
0.000209111
6.28616e-06
0.000213672
7.01908e-06
0.000217586
7.73124e-06
0.000220803
8.47278e-06
0.000223452
9.12921e-06
0.000225655
0.000227549
9.72338e-06
1.05055e-06
0.000139713
2.09969e-06
0.000168955
3.11543e-06
0.000184925
3.96529e-06
0.000195229
4.82105e-06
0.000202582
5.68212e-06
0.00020825
6.41603e-06
0.000212938
7.2585e-06
0.000216743
8.0148e-06
0.000220047
8.76185e-06
0.000222705
9.43862e-06
0.000224978
0.000226823
1.01647e-05
1.06905e-06
0.000138643
2.15472e-06
0.000167869
3.18135e-06
0.000183898
4.09402e-06
0.000194317
5.01432e-06
0.000201662
5.81937e-06
0.000207445
6.67783e-06
0.00021208
7.4483e-06
0.000215973
8.22024e-06
0.000219275
8.96627e-06
0.000221959
9.6729e-06
0.000224271
0.000226146
1.03494e-05
1.09362e-06
0.000137549
2.20646e-06
0.000166756
3.2398e-06
0.000182865
4.26468e-06
0.000193292
5.13125e-06
0.000200796
6.03901e-06
0.000206538
6.87869e-06
0.00021124
7.65328e-06
0.000215198
8.48581e-06
0.000218442
9.25287e-06
0.000221191
1.00357e-05
0.000223488
0.000225475
1.07072e-05
1.11794e-06
0.000136431
2.26358e-06
0.00016561
3.34501e-06
0.000181783
4.33636e-06
0.000192302
5.30761e-06
0.000199825
6.22265e-06
0.000205624
7.08388e-06
0.000210379
7.91917e-06
0.000214363
8.73191e-06
0.000217629
9.54602e-06
0.000220377
1.03058e-05
0.000222728
0.000224724
1.10563e-05
1.14502e-06
0.000135285
2.35788e-06
0.000164396
3.46505e-06
0.000180676
4.49059e-06
0.000191276
5.47108e-06
0.000198845
6.38443e-06
0.00020471
7.2913e-06
0.000209472
8.18957e-06
0.000213465
9.04566e-06
0.000216773
9.84984e-06
0.000219573
1.06546e-05
0.000221923
0.000223949
1.14299e-05
1.17146e-06
0.000134114
2.37979e-06
0.000163188
3.51997e-06
0.000179536
4.58877e-06
0.000190207
5.57026e-06
0.000197863
6.57353e-06
0.000203707
7.47589e-06
0.00020857
8.37452e-06
0.000212566
9.24525e-06
0.000215902
1.00558e-05
0.000218762
1.08398e-05
0.000221139
0.000223256
1.15332e-05
1.19535e-06
0.000132919
2.43845e-06
0.000161945
3.6547e-06
0.00017832
4.74997e-06
0.000189112
5.78147e-06
0.000196832
6.74245e-06
0.000202746
7.69162e-06
0.000207621
8.63781e-06
0.00021162
9.55127e-06
0.000214989
1.04195e-05
0.000217894
1.12475e-05
0.000220312
0.000222371
1.21321e-05
1.25689e-06
0.000131662
2.53307e-06
0.000160669
3.74673e-06
0.000177106
4.87164e-06
0.000187986
5.93009e-06
0.000195773
6.94016e-06
0.000201735
7.93768e-06
0.000206623
8.90168e-06
0.000210656
9.77273e-06
0.000214118
1.07044e-05
0.000216963
1.1551e-05
0.000219465
0.000221545
1.23774e-05
1.23982e-06
0.000130423
2.59106e-06
0.000159318
3.838e-06
0.000175859
5.00263e-06
0.000186822
6.15045e-06
0.000194624
7.14111e-06
0.000200744
8.15952e-06
0.000205604
9.15033e-06
0.000209665
1.00859e-05
0.000213183
1.09913e-05
0.000216058
1.18933e-05
0.000218563
0.000220667
1.2771e-05
1.30449e-06
0.000129119
2.648e-06
0.000157975
3.93347e-06
0.000174574
5.17313e-06
0.000185582
6.23765e-06
0.00019356
7.36875e-06
0.000199613
8.41475e-06
0.000204558
9.37868e-06
0.000208701
1.03599e-05
0.000212201
1.13092e-05
0.000215109
1.22114e-05
0.000217661
0.000219838
1.30412e-05
1.31986e-06
0.000127799
2.7037e-06
0.000156591
4.0245e-06
0.000173253
5.25794e-06
0.000184348
6.46794e-06
0.00019235
7.55571e-06
0.000198525
8.62722e-06
0.000203487
9.66451e-06
0.000207664
1.06923e-05
0.000211174
1.16427e-05
0.000214158
1.25962e-05
0.000216708
0.000218874
1.35595e-05
1.37165e-06
0.000126427
2.79754e-06
0.000155165
4.16142e-06
0.000171889
5.43411e-06
0.000183075
6.62857e-06
0.000191156
7.7711e-06
0.000197383
8.89266e-06
0.000202366
9.9531e-06
0.000206604
1.09797e-05
0.000210147
1.19706e-05
0.000213167
1.29156e-05
0.000215763
0.00021804
1.37496e-05
1.36536e-06
0.000125062
2.85814e-06
0.000153672
4.25717e-06
0.00017049
5.56778e-06
0.000181765
6.84604e-06
0.000189878
8.01492e-06
0.000196214
9.09142e-06
0.000201289
1.02253e-05
0.00020547
1.12501e-05
0.000209122
1.22652e-05
0.000212152
1.32517e-05
0.000214776
0.000217003
1.42888e-05
1.45796e-06
0.000123603
2.91648e-06
0.000152214
4.35554e-06
0.000169051
5.7519e-06
0.000180369
6.9725e-06
0.000188657
8.22238e-06
0.000194965
9.36856e-06
0.000200143
1.04796e-05
0.000204359
1.15773e-05
0.000208024
1.26627e-05
0.000211067
1.36507e-05
0.000213788
0.000216132
1.4522e-05
1.44414e-06
0.000122159
3.01654e-06
0.000150641
4.49945e-06
0.000167568
5.88926e-06
0.000178979
7.24163e-06
0.000187305
8.4343e-06
0.000193772
9.67783e-06
0.0001989