/*--------------------------------*- C++ -*----------------------------------*\
| =========                 |                                                 |
| \\      /  F ield         | OpenFOAM: The Open Source CFD Toolbox           |
|  \\    /   O peration     | Version:  2.3.1                                 |
|   \\  /    A nd           | Web:      www.OpenFOAM.org                      |
|    \\/     M anipulation  |                                                 |
\*---------------------------------------------------------------------------*/
FoamFile
{
    version     2.0;
    format      ascii;
    class       volScalarField;
    location    "0.45";
    object      k;
}
// * * * * * * * * * * * * * * * * * * * * * * * * * * * * * * * * * * * * * //

dimensions      [0 2 -2 0 0 0 0];

internalField   nonuniform List<scalar> 
15166
(
1.07914
1.32435
1.70734
2.10969
2.42096
2.73151
2.95341
3.08632
3.13264
3.11023
3.02665
2.91516
1.07951
1.29572
1.71118
2.10192
2.41257
2.70196
2.90337
3.0195
3.05539
3.02807
2.94574
2.82544
1.08755
1.26415
1.69578
2.07987
2.38984
2.66258
2.8484
2.95191
2.9806
2.94989
2.86768
2.74411
1.09809
1.23882
1.67417
2.05144
2.35857
2.6172
2.79064
2.88461
2.9082
2.8751
2.79216
2.66375
1.10949
1.21975
1.65106
2.02081
2.32306
2.56906
2.7321
2.81856
2.83837
2.80362
2.72018
2.59107
1.1218
1.20525
1.62756
1.98934
2.2854
2.5199
2.67393
2.75429
2.77119
2.73522
2.65133
2.52099
1.13506
1.19422
1.60432
1.95765
2.24658
2.4706
2.61672
2.69203
2.70662
2.6697
2.58508
2.45176
1.14907
1.18602
1.58184
1.92618
2.20739
2.42178
2.56087
2.63189
2.6446
2.607
2.5221
2.38946
1.1636
1.18015
1.56049
1.8954
2.16844
2.37388
2.50661
2.57393
2.58508
2.54701
2.46216
2.33031
1.17848
1.17617
1.54037
1.86547
2.13012
2.32718
2.45411
2.51814
2.52797
2.48965
2.40536
2.2761
1.19356
1.17373
1.52152
1.83651
2.09264
2.28184
2.40341
2.4645
2.47321
2.43488
2.35165
2.22591
1.20875
1.17251
1.50389
1.80859
2.05617
2.23794
2.35454
2.41295
2.4207
2.38263
2.30124
2.18135
1.22394
1.17227
1.48745
1.78169
2.02078
2.19553
2.30746
2.3634
2.37035
2.33276
2.25367
2.1397
1.23906
1.17287
1.47211
1.75582
1.98652
2.15458
2.26213
2.31578
2.32205
2.28506
2.20777
2.09423
1.25404
1.17407
1.4578
1.73098
1.95341
2.1151
2.2185
2.27003
2.27573
2.23948
2.16435
2.05559
1.26883
1.17576
1.44442
1.70712
1.92143
2.07703
2.17652
2.22604
2.23126
2.19584
2.12296
2.01808
1.28336
1.17781
1.43187
1.68421
1.89059
2.04035
2.1361
2.18375
2.18856
2.15402
2.08334
1.98162
1.29763
1.18015
1.42013
1.66223
1.86085
2.00501
2.0972
2.14306
2.14753
2.11391
2.04534
1.94644
1.31158
1.1827
1.40907
1.64112
1.83217
1.97095
2.05973
2.10391
2.10808
2.0754
2.00898
1.91349
1.32517
1.18537
1.39867
1.62086
1.80454
1.93811
2.02364
2.0662
2.07012
2.03841
1.97411
1.88189
1.3384
1.18813
1.38883
1.60139
1.77788
1.90645
1.98885
2.02987
2.03358
2.0028
1.94045
1.85033
1.35126
1.19091
1.37951
1.58269
1.75219
1.87592
1.9553
1.99484
1.99835
1.96849
1.9079
1.81962
1.36371
1.19369
1.37066
1.56469
1.7274
1.84646
1.92294
1.96106
1.96439
1.93539
1.87634
1.78929
1.37574
1.19645
1.36224
1.54738
1.7035
1.81803
1.89171
1.92847
1.93162
1.90342
1.84576
1.76005
1.38735
1.19915
1.35419
1.53073
1.68044
1.7906
1.86156
1.897
1.89997
1.8725
1.81614
1.73189
1.39851
1.20179
1.34648
1.5147
1.65819
1.7641
1.83244
1.86659
1.86938
1.8426
1.78749
1.70485
1.40925
1.20432
1.33908
1.49922
1.63671
1.7385
1.80431
1.8372
1.8398
1.81367
1.75982
1.67918
1.41955
1.20679
1.33197
1.48431
1.61595
1.71376
1.7771
1.80878
1.81118
1.78567
1.73314
1.65498
1.42938
1.20916
1.32511
1.46992
1.5959
1.68985
1.75079
1.78128
1.78347
1.75858
1.70738
1.63146
1.43879
1.21142
1.31849
1.45601
1.57652
1.66671
1.72533
1.75466
1.75665
1.73234
1.68243
1.60833
1.44774
1.21359
1.31205
1.44257
1.55777
1.64433
1.70069
1.72888
1.73066
1.70692
1.65828
1.58608
1.45623
1.21565
1.30582
1.42955
1.53964
1.62267
1.67683
1.7039
1.70546
1.68228
1.63486
1.56433
1.46426
1.21761
1.29977
1.41697
1.52209
1.60169
1.65371
1.67969
1.68104
1.65839
1.61215
1.54344
1.47189
1.21948
1.29388
1.40477
1.50509
1.58138
1.63131
1.65622
1.65735
1.63521
1.59013
1.52305
1.47902
1.22123
1.28815
1.39296
1.48864
1.56168
1.60959
1.63345
1.63436
1.61272
1.56876
1.50339
1.48575
1.22291
1.28257
1.38148
1.47268
1.5426
1.58852
1.61136
1.61205
1.59088
1.54802
1.4842
1.49203
1.22448
1.27713
1.37035
1.45721
1.52409
1.56808
1.58991
1.59037
1.56967
1.5279
1.46594
1.49788
1.22597
1.27181
1.35954
1.4422
1.50613
1.54825
1.56909
1.56932
1.54906
1.50839
1.44834
1.50331
1.22738
1.26662
1.34903
1.42764
1.48871
1.52899
1.54886
1.54886
1.52905
1.48943
1.4309
1.50832
1.22871
1.26155
1.33882
1.41351
1.4718
1.51029
1.5292
1.52898
1.5096
1.47107
1.41455
1.51287
1.22997
1.25659
1.32888
1.39979
1.45537
1.49212
1.5101
1.50964
1.49067
1.45304
1.39685
1.51698
1.23114
1.25172
1.31922
1.38646
1.43942
1.47447
1.49153
1.49084
1.47222
1.43535
1.37951
1.52065
1.23221
1.24697
1.30982
1.37352
1.42392
1.45731
1.47347
1.47253
1.45426
1.41814
1.36357
1.52389
1.23317
1.24232
1.30066
1.36093
1.40885
1.44063
1.4559
1.45472
1.43675
1.40137
1.34781
1.52672
1.234
1.23777
1.29178
1.34869
1.39421
1.4244
1.4388
1.43737
1.41969
1.38505
1.33284
1.52914
1.23469
1.23332
1.28313
1.33679
1.37995
1.40862
1.42216
1.42047
1.40306
1.36911
1.31776
1.53115
1.23528
1.22898
1.2747
1.32518
1.3661
1.39327
1.40596
1.40401
1.38685
1.35363
1.30379
1.53277
1.23573
1.22473
1.26649
1.31389
1.35262
1.37831
1.39018
1.38797
1.37106
1.33853
1.28977
1.53401
1.23606
1.22056
1.25848
1.3029
1.33949
1.36376
1.3748
1.37233
1.35564
1.32383
1.27649
1.53485
1.23631
1.21646
1.25067
1.29221
1.32671
1.34957
1.35981
1.35706
1.34059
1.30945
1.26302
1.53532
1.23646
1.21243
1.24306
1.28179
1.31427
1.33575
1.3452
1.34217
1.32589
1.29541
1.2502
1.53541
1.23655
1.20847
1.23562
1.27166
1.30214
1.32229
1.33095
1.32763
1.31155
1.28173
1.23775
1.53514
1.23655
1.20458
1.22837
1.26178
1.29034
1.30917
1.31706
1.31346
1.29755
1.26833
1.22507
1.53451
1.23648
1.20076
1.22129
1.25216
1.27884
1.29638
1.30351
1.29961
1.28387
1.25527
1.21327
1.53352
1.23635
1.19701
1.21437
1.24278
1.26763
1.28392
1.29029
1.2861
1.27052
1.24256
1.20189
1.5322
1.23613
1.19332
1.20762
1.23364
1.2567
1.27176
1.27739
1.27291
1.25748
1.23018
1.1909
1.53052
1.23583
1.1897
1.20102
1.22472
1.24605
1.25992
1.26481
1.26004
1.24477
1.21809
1.17984
1.52851
1.23549
1.18614
1.19458
1.21602
1.23567
1.24836
1.25254
1.24749
1.23236
1.20628
1.16908
1.52617
1.23506
1.18266
1.18828
1.20754
1.22554
1.23709
1.24057
1.23524
1.22025
1.19469
1.15781
1.52348
1.2346
1.17924
1.18213
1.19926
1.21566
1.2261
1.2289
1.22329
1.20841
1.18336
1.14734
1.52047
1.23406
1.17589
1.17612
1.19118
1.20603
1.21539
1.21751
1.21161
1.19685
1.17231
1.13749
1.51715
1.23346
1.1726
1.17024
1.1833
1.19663
1.20494
1.2064
1.20021
1.18556
1.16154
1.12792
1.5135
1.2328
1.16937
1.16452
1.17561
1.18748
1.19474
1.19555
1.18909
1.17452
1.15102
1.11827
1.50952
1.23209
1.16622
1.15893
1.16811
1.17854
1.1848
1.18497
1.17822
1.16374
1.14072
1.10884
1.50523
1.23133
1.16315
1.15347
1.1608
1.16983
1.1751
1.17463
1.16761
1.15321
1.13064
1.09937
1.50062
1.23055
1.16014
1.14816
1.15366
1.16134
1.16563
1.16455
1.15724
1.14292
1.12078
1.09024
1.49573
1.22969
1.1572
1.14298
1.14671
1.15305
1.1564
1.15472
1.14713
1.13287
1.11113
1.08112
1.49051
1.22881
1.15435
1.13792
1.13993
1.14496
1.14739
1.14511
1.13725
1.12305
1.10169
1.07243
1.48501
1.22791
1.15157
1.13301
1.13331
1.13707
1.1386
1.13574
1.12762
1.11347
1.09246
1.06387
1.47921
1.22695
1.14888
1.12823
1.12687
1.12938
1.13002
1.1266
1.11821
1.1041
1.08345
1.05562
1.47311
1.22596
1.14626
1.12358
1.12059
1.12188
1.12167
1.11769
1.10903
1.09495
1.07462
1.04731
1.46672
1.22491
1.1437
1.11905
1.11447
1.11458
1.11352
1.10899
1.10007
1.086
1.06598
1.03932
1.46002
1.22385
1.14124
1.11466
1.10853
1.10746
1.10558
1.10052
1.09132
1.07727
1.05755
1.03152
1.45302
1.22276
1.13887
1.11042
1.10275
1.10055
1.09784
1.09225
1.0828
1.06875
1.04931
1.02382
1.44572
1.22162
1.13657
1.1063
1.09713
1.09381
1.09031
1.08419
1.07447
1.06042
1.04125
1.01633
1.43816
1.22043
1.13435
1.10233
1.09168
1.08725
1.08297
1.07634
1.06635
1.05229
1.03337
1.00878
1.4303
1.21918
1.13222
1.09849
1.08639
1.08087
1.07582
1.06869
1.05844
1.04436
1.02565
1.00143
1.42214
1.21791
1.13017
1.09478
1.08126
1.07467
1.06886
1.06124
1.05073
1.03662
1.0181
0.994155
1.41372
1.21664
1.12823
1.09121
1.07629
1.06865
1.0621
1.05398
1.04321
1.02907
1.01071
0.98712
1.40502
1.21532
1.12638
1.08778
1.07149
1.0628
1.05552
1.04692
1.0359
1.02171
1.0035
0.980108
1.39605
1.21398
1.12461
1.0845
1.06684
1.05713
1.04912
1.04005
1.02876
1.01452
0.996442
0.973427
1.38679
1.21259
1.12293
1.08136
1.06236
1.05164
1.04291
1.03336
1.02181
1.0075
0.989548
0.966941
1.37726
1.21116
1.12135
1.07836
1.05805
1.04632
1.03689
1.02687
1.01506
1.00067
0.982841
0.960528
1.36744
1.2097
1.11987
1.07553
1.05391
1.04119
1.03105
1.02057
1.00849
0.994034
0.976302
0.954164
1.35733
1.20822
1.1185
1.07284
1.04995
1.03624
1.0254
1.01446
1.00211
0.987564
0.969918
0.948075
1.34695
1.20667
1.11721
1.07031
1.04616
1.03147
1.01994
1.00853
0.995915
0.981276
0.963701
0.941988
1.3363
1.20505
1.11602
1.06794
1.04255
1.02688
1.01466
1.00279
0.9899
0.975156
0.957632
0.936246
1.32537
1.20341
1.11494
1.06572
1.03911
1.02248
1.00956
0.997234
0.984072
0.96923
0.951763
0.930535
1.31417
1.20173
1.11395
1.06367
1.03585
1.01826
1.00466
0.991869
0.978433
0.963483
0.946062
0.925023
1.30269
1.20004
1.11309
1.06179
1.03279
1.01423
0.999939
0.986692
0.972976
0.957909
0.940494
0.919347
1.29094
1.19829
1.11231
1.06007
1.0299
1.01039
0.99541
0.981696
0.967702
0.952508
0.935114
0.914473
1.27893
1.1965
1.11164
1.05853
1.0272
1.00675
0.991078
0.976902
0.962632
0.947325
0.929982
0.909596
1.26665
1.19462
1.11109
1.05716
1.02471
1.0033
0.986945
0.972303
0.957747
0.942309
0.924988
0.904833
1.25409
1.19273
1.11063
1.05598
1.02242
1.00007
0.983015
0.9679
0.953053
0.937478
0.920172
0.900118
1.24125
1.19075
1.11029
1.05498
1.02034
0.997042
0.979289
0.963699
0.948553
0.932832
0.915519
0.895541
1.22815
1.18869
1.11005
1.05417
1.01847
0.994231
0.975774
0.959701
0.944256
0.928389
0.911054
0.891032
1.21477
1.18658
1.10993
1.05356
1.01682
0.991642
0.972474
0.955914
0.940156
0.924123
0.906732
0.886764
1.20109
1.18445
1.10992
1.05315
1.0154
0.98928
0.969395
0.952335
0.936263
0.920059
0.902616
0.882618
1.18717
1.18216
1.11004
1.05294
1.01421
0.98715
0.966539
0.948974
0.932577
0.916192
0.898672
0.878674
1.17296
1.17985
1.11025
1.05294
1.01327
0.985262
0.963918
0.945839
0.92911
0.912536
0.894944
0.874858
1.15849
1.17745
1.11058
1.05316
1.01257
0.98362
0.961533
0.942928
0.925851
0.909072
0.891382
0.871361
1.14373
1.17502
1.11104
1.0536
1.01213
0.98224
0.959398
0.940255
0.922819
0.90583
0.888042
0.868042
1.12869
1.17251
1.1116
1.05427
1.01196
0.981131
0.957531
0.937835
0.920038
0.902833
0.884948
0.864856
1.11339
1.16988
1.11228
1.05517
1.01207
0.980309
0.955931
0.935673
0.917496
0.900063
0.882076
0.861967
1.0978
1.16712
1.11309
1.05632
1.01246
0.979779
0.954613
0.933771
0.915201
0.897525
0.879426
0.859383
1.08194
1.1643
1.114
1.05772
1.01316
0.979556
0.953584
0.932147
0.913167
0.895251
0.877045
0.856923
1.06579
1.16133
1.11503
1.05937
1.01417
0.979647
0.952864
0.930809
0.911399
0.893207
0.874846
0.85473
1.04936
1.15827
1.11618
1.06128
1.0155
0.980077
0.952464
0.929778
0.909919
0.891449
0.872928
0.852707
1.03264
1.15519
1.11744
1.06348
1.01718
0.980862
0.952408
0.929062
0.90874
0.889973
0.871279
0.850938
1.01564
1.15189
1.11885
1.06597
1.01922
0.982018
0.95271
0.928682
0.907869
0.888775
0.869862
0.849345
0.998345
1.14854
1.12039
1.06876
1.02164
0.98357
0.953394
0.928661
0.907338
0.887899
0.868772
0.848091
0.980765
1.14509
1.12203
1.07185
1.02445
0.985534
0.95448
0.929023
0.907164
0.887369
0.868026
0.847253
0.962917
1.14138
1.12381
1.07525
1.02767
0.987946
0.955994
0.929789
0.907381
0.887228
0.867694
0.846708
0.944774
1.13761
1.12571
1.07898
1.03132
0.99081
0.957956
0.93097
0.907974
0.887409
0.867577
0.846049
0.926339
1.13373
1.1277
1.08306
1.03543
0.994159
0.960387
0.932585
0.908959
0.887935
0.867771
0.845898
0.907626
1.12961
1.12985
1.08747
1.04001
0.998021
0.96332
0.934676
0.910385
0.88889
0.868419
0.846267
0.888602
1.12543
1.13212
1.09227
1.0451
1.00245
0.966805
0.937284
0.912286
0.890276
0.869415
0.846939
0.869288
1.12094
1.13455
1.09745
1.05073
1.00747
0.970887
0.940457
0.914724
0.892172
0.87095
0.848261
0.849678
1.11631
1.13705
1.10304
1.05694
1.01313
0.975609
0.944237
0.917729
0.894613
0.873021
0.850162
0.829799
1.1116
1.13971
1.10904
1.06376
1.01947
0.98102
0.94868
0.921345
0.897632
0.875652
0.852402
0.809621
1.10663
1.1425
1.1155
1.07122
1.02654
0.987161
0.953811
0.925589
0.901176
0.878628
0.854577
0.789133
1.10142
1.14545
1.12242
1.07936
1.03441
0.994104
0.959697
0.930532
0.905364
0.882242
0.857767
0.76836
1.09595
1.14853
1.12984
1.08825
1.04314
1.00193
0.966439
0.93628
0.910328
0.886675
0.861906
0.747309
1.09044
1.15174
1.13779
1.09795
1.0528
1.01073
0.974106
0.94287
0.916033
0.89167
0.866326
0.725942
1.08454
1.15514
1.14633
1.10853
1.06351
1.0206
0.982799
0.950411
0.922601
0.897489
0.871467
0.704275
1.07838
1.15874
1.15552
1.12007
1.07536
1.03166
0.992633
0.959001
0.930097
0.904086
0.877371
0.682326
1.07217
1.16254
1.1654
1.13272
1.0885
1.04406
1.00377
0.968802
0.9387
0.911733
0.884304
0.66004
1.06555
1.16666
1.17613
1.14659
1.10311
1.05797
1.01637
0.979948
0.948529
0.920465
0.891981
0.637436
1.05876
1.17115
1.18782
1.1619
1.11938
1.0736
1.03061
0.992572
0.959658
0.93037
0.90094
0.614458
1.05172
1.17617
1.20078
1.1789
1.13759
1.09119
1.04668
1.00684
0.972201
0.941454
0.910862
0.591107
1.04468
1.18212
1.21534
1.19802
1.15808
1.11104
1.06484
1.02297
0.986386
0.954061
0.922299
0.567268
1.03781
1.18955
1.2322
1.21977
1.18126
1.13346
1.08535
1.04114
1.00231
0.968101
0.934893
0.542874
1.03237
1.19967
1.25228
1.24479
1.20754
1.1587
1.10835
1.06151
1.02004
0.983597
0.948474
0.517801
1.03186
1.21573
1.278
1.27437
1.23777
1.18748
1.13461
1.08464
1.04007
1.00084
0.963477
0.488287
1.03317
1.23061
1.3043
1.30259
1.26669
1.21523
1.16103
1.10802
1.06104
1.01896
0.979911
1.04057
0.00467986
0.347354
0.321754
0.320691
0.288853
0.279278
0.646831
0.830876
0.777869
0.567754
0.00777887
0.0326123
3.01849
0.276967
0.00354991
2.83085
0.11061
0.107646
0.00348333
0.140559
0.176094
0.1448
0.0269049
1.05603
0.346443
0.159986
0.374931
0.604603
0.812883
0.538021
1.16681
0.00420045
0.558242
0.0311359
0.165897
0.387304
0.470786
0.393039
0.00818253
0.0704567
0.00337727
0.0716651
0.531434
0.26846
0.173068
0.0608407
0.0248504
0.271397
0.140006
0.164053
0.634574
0.263009
0.00321463
1.98776
0.00444672
0.0106626
0.00337421
0.471485
0.266334
0.155707
1.19155
0.0032091
0.0168814
0.183564
0.0045326
0.888741
0.252374
1.53221
0.689142
1.8839
0.0535687
0.383394
0.728991
0.0273689
0.00323008
0.7975
0.00309477
0.0702002
0.24105
0.103471
0.00310385
0.405747
0.295313
0.0163644
1.11899
0.88439
0.00319468
0.39096
0.237801
0.353787
0.653726
0.00319826
0.00392194
0.456868
0.00326189
0.362371
0.0128383
0.00317208
0.89891
1.10857
0.203652
0.0033532
0.00434043
0.00312134
0.514841
0.512175
0.68948
0.533075
0.00884856
0.094469
0.00312705
0.202553
0.00372673
0.00318215
0.219892
0.0195228
0.219953
1.09324
0.176113
1.02434
0.0293402
1.69973
0.199658
0.125656
1.29228
0.00405418
1.96533
0.0323808
0.00320012
0.231679
0.00323636
0.233195
0.00434522
0.162756
0.00514897
0.233324
0.595912
0.208012
0.00585684
0.0170198
0.145373
0.269574
0.025429
0.174614
1.89722
0.298919
0.00454277
0.983013
0.374148
0.0639814
0.214016
0.00309224
0.114715
0.156519
0.00314727
0.248528
0.00320195
1.27989
0.00708496
0.0270402
0.00356921
0.128073
0.0132876
0.149745
0.0844357
0.984644
0.291714
0.335175
0.00307306
1.88813
0.758396
1.99255
0.0179147
0.00305943
0.574516
0.00311686
0.305943
0.138001
0.719606
1.00915
0.438027
0.0629195
0.371206
0.00339032
0.262733
0.00317798
0.00315336
0.175358
0.00318555
0.487577
0.00310669
0.936788
0.00475734
0.284089
0.296482
0.271758
0.165131
0.00312701
3.17541
1.01987
0.318216
0.413993
0.217248
0.3249
0.105
0.0915366
0.228911
0.70337
0.21695
0.288265
0.899987
0.500555
0.396581
0.00315442
0.283571
0.0129673
0.42736
3.25222
0.210321
0.294676
1.02101
0.338908
0.00315695
0.00318819
1.30866
1.11831
0.0032702
4.20604
0.0324035
0.312485
0.121376
0.00311781
0.947342
0.414127
0.253639
0.246302
1.0789
0.656842
0.322189
0.154761
0.161373
1.25512
1.68687
0.375285
0.281831
0.227995
0.0035059
1.39588
0.289872
0.650645
0.726708
0.37892
3.95167
0.23672
0.24039
0.21034
0.310492
0.578014
0.341723
0.216393
0.258163
0.0157543
0.0899567
0.683904
0.261855
0.921968
0.506951
0.361307
1.49125
0.287988
0.0502817
1.63935
0.2091
0.208351
1.69575
0.242303
0.26047
0.301833
0.203613
0.866171
0.238773
0.372658
0.331599
0.614122
0.273133
0.474435
0.207984
1.12071
0.128576
0.201689
1.66863
0.226325
0.224878
0.283017
0.919827
0.119694
0.206078
0.0677658
0.48037
0.183622
0.106086
1.36663
2.05745
0.154271
0.954025
0.323534
0.00318779
0.201429
0.166108
0.211151
0.288928
0.00315765
1.18624
0.320044
0.0673896
0.225814
0.76223
0.00315195
0.638763
0.0388388
0.579525
0.422598
4.92973
0.503344
0.758341
0.539018
0.00313881
0.00316292
0.285055
0.447093
0.00307767
0.517248
0.00311576
0.00316225
0.0032246
0.00311707
0.140378
0.0031637
0.00580752
1.03837
0.512288
0.003229
0.334961
0.00987079
0.195852
0.295642
1.28824
4.14627
0.481035
0.00301176
0.00323872
0.0819472
0.134199
0.208968
0.00306428
0.0988654
0.315851
0.878473
0.377743
0.177658
0.27331
1.02598
4.08642
0.157082
0.325487
0.00364901
0.00318514
0.159035
0.258054
0.116364
0.173472
0.505845
2.74398
1.69537
0.143803
0.34336
1.01412
0.00319833
0.419783
0.753492
0.00527031
0.00316287
0.520371
3.82719
0.734965
0.00308019
0.0489222
0.154743
0.0256702
0.00319879
0.833287
0.382643
0.277388
0.282035
0.00374814
3.81417
0.00314285
0.235803
0.544744
0.00649026
0.011133
0.962586
0.00879672
1.40929
0.767066
1.15109
0.653504
0.17225
0.681596
0.00313953
0.00309425
0.00317226
1.03835
0.0754579
1.26248
2.76255
0.164699
0.59205
0.00317908
0.0109003
0.274328
0.00308086
0.00317182
0.703322
0.0030686
0.227902
0.916352
0.371909
0.00303014
0.00749489
0.110577
0.116044
0.237017
0.144961
0.00310504
3.34334
0.836732
0.109482
0.0123927
0.327398
0.199606
0.00711775
0.279652
0.0069042
0.846117
0.00352815
0.250292
0.13311
0.00311625
1.30269
0.23841
0.322177
0.00930096
0.471244
0.14411
0.005168
0.217479
0.490098
0.352323
1.10891
0.0240632
0.0508944
0.0115456
1.31207
0.676336
0.0630244
0.137561
0.163186
0.334915
0.182146
0.511037
1.10339
0.00304576
2.04934
0.914881
0.226623
0.00309809
0.267658
0.963093
0.0254454
0.436743
0.348868
0.25674
0.126707
0.177146
0.259427
0.00358638
0.0189247
0.87556
0.0391518
0.00438426
0.923007
4.08758
0.0395593
0.199901
0.788864
0.0904289
0.491424
0.259227
0.84365
0.321189
0.290991
0.00323002
0.085174
0.447603
0.382332
1.33281
0.214178
1.42364
0.937595
3.75192
0.888594
0.310513
0.00316689
1.26393
0.204168
0.801606
0.416407
0.163739
0.0844103
0.42647
0.00321463
0.297436
0.00317782
0.340882
0.421561
0.213242
0.175079
1.27221
0.241274
1.04333
0.642663
1.97766
0.0032179
0.123842
0.933162
2.44924
0.196074
0.717491
0.00361713
0.028245
0.350226
1.85825
0.592165
0.00310243
0.0582221
0.00312257
0.0586849
0.351298
0.0375804
0.846699
0.14295
0.589648
0.155829
0.125182
1.23014
0.709033
0.00319514
0.00319639
0.257758
1.21764
0.275649
0.598459
0.441238
0.6674
0.266645
0.00302379
0.187526
0.253722
0.00485912
1.04927
0.265178
0.176384
0.274343
0.0127521
0.00302517
0.0237185
0.00313933
0.647114
0.817736
0.709542
0.638118
0.00319303
1.47816
0.0898756
0.742941
0.135447
1.73224
0.00864563
0.154652
0.00307428
0.497132
0.716694
0.315653
0.409577
0.00300798
1.30167
0.805893
0.510923
0.0031165
0.0708541
0.813855
0.617857
0.00610417
2.17324
0.00373899
0.805092
0.614504
0.0036301
0.131726
0.0877256
0.202497
0.00310546
0.00319887
1.15767
0.431723
0.322111
0.526597
0.00488059
0.128036
0.0982689
0.768862
0.208403
0.0039583
0.209016
1.20889
0.00307798
0.00821193
0.286321
0.635131
1.11611
0.00315808
0.729471
0.221388
1.30855
0.0298715
0.151742
0.816487
0.00319986
0.199386
0.137904
0.376243
0.383304
0.725922
0.276452
1.21699
1.17692
0.282353
2.70761
0.00323655
0.00315036
1.49701
0.783543
0.00475858
0.00315675
0.473364
0.00320625
0.823668
0.540428
0.248038
0.00311692
0.808128
0.052882
0.29142
1.21605
0.235422
0.148514
0.145203
1.34676
0.0031921
0.285546
0.981529
0.234554
0.55724
0.00673551
0.5334
0.263279
2.03173
0.00313014
0.148889
0.68363
0.305775
0.00332095
0.0952902
0.342194
0.439238
1.26967
0.0592574
1.87636
0.406348
0.0928279
0.404954
0.00313421
0.00737473
0.362951
0.00306755
0.17531
0.00316529
0.244708
0.0107779
0.839525
0.00321715
0.110631
0.493971
1.61068
0.356851
0.669831
0.163569
2.44847
0.0156025
0.0934866
0.57178
0.00309935
0.00320601
0.380324
0.156021
0.24886
0.390756
0.00328412
0.216261
0.218749
0.201011
0.492327
1.14813
0.200078
0.00319667
1.88294
2.42478
0.506886
0.00323832
0.0108337
2.09379
0.260441
0.00311982
1.29436
0.00310058
0.0804625
2.74564
0.00354809
0.291527
0.00314941
0.0566147
0.751419
0.00324368
0.00401694
0.00318308
0.00379984
0.0216783
3.8111
0.805034
0.0938964
0.24213
0.00316397
0.765421
0.0031734
0.24801
0.232722
0.0247961
0.159745
0.0139094
1.15098
0.00318439
4.32691
0.218181
0.629082
0.351562
0.163009
0.00309676
0.193411
1.09764
0.129324
0.752367
0.885991
1.69369
0.3498
0.0419587
0.62778
0.0840696
0.00406561
0.106685
2.47086
1.14879
0.119995
0.00843133
0.297509
0.00375583
0.443671
0.871952
1.08642
0.84282
0.896236
0.0371976
0.00583157
0.325993
0.224524
0.0483606
0.269515
0.00316114
0.261374
1.96569
0.0033025
1.69692
0.783188
0.114523
0.101925
1.45063
0.0236531
0.101401
0.457599
0.310658
0.294103
0.00322322
0.67392
0.0762995
0.271377
0.383114
0.199046
0.22291
0.00685707
0.688832
0.00317337
0.00316055
0.228456
0.10495
0.160126
1.91859
0.00303342
1.14075
0.0646045
0.0578717
0.00338873
1.72231
0.363779
0.089956
0.784518
0.0597947
1.16008
0.1546
0.00314251
1.19382
2.08931
0.00546357
0.00876267
0.203568
1.03757
0.0993617
1.32472
0.0352573
0.233477
0.104133
0.156967
0.680904
0.203266
0.00318776
1.17573
0.328882
0.0151628
0.197083
4.25582
0.276469
0.00317662
0.0030708
0.764076
0.184089
1.01357
0.00306548
0.715061
0.295929
0.408493
0.0037668
0.313998
0.777248
0.0053846
0.258593
0.00321638
1.1233
0.211108
0.3454
0.262369
0.00314611
0.00314548
0.345544
1.40582
0.385931
0.732399
0.00302869
0.0454047
0.00320825
0.0062615
1.1598
0.0742082
0.0971077
0.12487
0.325383
0.305704
0.356463
1.21021
0.00317283
0.304349
0.731967
0.245579
0.00319248
0.943108
0.00320553
0.00316624
0.0885723
0.212006
0.0251598
1.3639
0.203248
2.80216
0.00328519
0.00476003
0.0397727
0.903254
0.306005
0.962724
0.00316826
0.00314852
0.00629137
0.00835851
1.10564
0.805747
0.640749
0.12353
0.0448895
0.315508
0.164197
0.578057
0.27586
0.879454
0.312599
0.00308097
0.332972
0.00536868
0.194589
0.888985
0.184422
0.231704
0.133275
0.00380958
1.34374
0.516312
0.488936
0.314545
0.00315935
0.588627
0.762451
0.334197
0.00825033
0.913011
0.479542
0.83847
0.328762
0.336672
0.59005
0.120052
0.861572
0.258523
0.0979594
0.236258
0.00317893
1.21443
0.862543
0.00311819
0.684561
0.00477377
0.538049
0.204623
0.237241
0.266704
0.730707
0.953016
0.262295
0.131344
0.174762
0.219534
0.0125455
0.00310404
1.02782
0.0615781
0.937974
0.549795
0.224529
0.834522
0.544979
0.00314509
0.278258
1.53426
1.06106
0.226793
0.23932
0.570643
1.89714
0.190823
0.23465
0.0249296
0.0837477
0.546909
1.19617
0.11163
0.84206
0.821188
0.785818
0.239817
0.231284
0.425433
0.6926
0.00319155
1.94159
0.669901
0.204958
0.00319069
0.592366
0.474361
0.294878
0.00317434
0.591401
0.00317258
0.243197
0.0912206
0.00319456
0.823243
0.347653
0.00310567
0.531865
0.373564
0.608797
0.258803
0.519363
0.279632
0.705801
0.169212
0.157344
0.00312931
0.00470804
0.343436
0.173387
0.0242307
0.00322958
0.3549
0.00604297
0.119763
0.118547
0.445683
0.207232
0.0574926
0.0943159
0.549438
1.63696
0.32954
4.11868
0.870079
0.00311844
0.541066
0.589
1.67741
0.00312663
0.173358
0.00318786
0.00359152
0.277293
0.28974
0.0391282
0.00340818
0.805947
3.72609
0.00739184
0.00317653
0.12931
0.26293
0.0240183
0.0740411
3.85292
0.14056
0.00339053
0.0031776
0.969105
0.262635
0.135687
0.0592828
0.651844
1.13164
0.392035
0.247354
0.679409
0.00317322
0.502212
0.00315978
0.231098
0.274225
5.38248
0.178304
0.0897996
0.003829
1.18557
0.0031945
0.00313404
0.005857
0.272514
0.287297
0.977034
0.00314931
0.507612
0.00317251
0.692925
0.977164
0.00320493
0.725384
0.225002
0.00317312
0.00330204
0.0319657
1.1072
0.383644
0.0264333
0.00317449
0.00313269
0.848834
0.685853
0.327453
0.753879
0.117739
0.438694
0.00314897
0.010309
0.382849
0.810785
0.759374
0.00887526
0.00317631
0.39787
0.00319767
0.203652
0.80583
0.353882
0.043138
0.200871
0.506344
0.157202
0.00316975
0.513307
1.33278
0.648214
0.00644023
0.0306049
0.690289
3.69251
0.0548419
0.373676
0.00311028
0.00308661
0.00321467
0.0187767
0.401775
1.07547
0.0106513
0.220962
0.633897
1.23461
0.206201
0.0197115
0.00796588
0.00757845
0.158495
0.171379
0.236802
0.00322348
1.34454
0.00314332
0.0136498
0.844249
0.852929
0.0364482
0.372687
0.468094
0.0040998
0.130316
0.255602
0.0031548
0.00378123
1.12384
0.00365641
0.0032248
0.707196
0.235385
2.09314
0.209248
2.4131
0.00356014
0.00311455
3.24572
0.296053
0.225217
0.498407
0.0603957
0.232651
0.196479
1.02129
0.814581
0.588446
0.582164
0.233363
0.111215
0.321604
0.728496
0.0146482
0.351356
0.00392232
0.439646
0.366669
0.107055
0.384274
0.188537
0.413317
0.207887
0.26219
1.11062
0.459682
0.215622
0.317324
0.710732
0.326126
0.00421323
0.00315953
0.110989
2.22836
0.00316167
1.78886
0.00312462
0.00989686
0.340461
0.221511
0.820493
0.680568
0.902944
1.13993
0.522532
0.386293
0.00316723
0.290817
1.05815
0.00323919
1.24769
0.00714208
1.7095
0.940759
1.134
0.274173
0.206244
0.283893
0.0918424
0.284535
1.23611
0.360721
0.780191
0.169804
0.20311
0.0853714
0.231787
0.954664
0.00955192
0.666359
0.00319427
0.00393379
0.300192
1.51832
0.33843
0.27387
0.164422
0.110674
0.121743
0.00346911
0.341067
0.00346714
0.706311
0.00341794
0.058064
0.943385
0.171769
0.306273
0.334153
0.318432
0.00623921
0.00321489
0.0992322
0.266844
0.114813
0.517123
0.0424946
0.365999
0.24031
0.374546
0.791915
0.00359425
0.00314782
1.68907
0.226559
0.171992
0.81098
0.688184
0.817631
0.00987847
1.68529
0.335804
0.21318
0.00347797
0.19692
0.403699
0.205467
0.207722
0.266021
0.00323055
0.472902
0.00313412
0.628383
0.0106734
0.439922
0.11805
0.409559
0.00324326
6.54553
0.00319251
1.51053
0.0256297
0.00317522
0.0145918
0.274987
0.0031708
0.00318046
0.396815
0.0328069
0.327485
0.0569823
0.00332661
0.218992
0.186456
0.445028
0.0033412
0.224018
0.189926
1.3563
0.707178
0.39466
0.415623
0.215743
0.306588
0.778708
0.832218
0.211254
0.00322413
0.145014
0.362381
0.306286
0.00471756
0.0085564
0.234336
1.57402
0.00318406
0.206256
1.23539
0.00305013
0.849622
0.935799
0.357306
0.594757
0.796852
0.259118
0.13004
2.59078
0.411521
0.885224
0.821764
0.222438
0.107494
0.0031663
0.420478
0.00587421
0.00321786
0.00313425
0.300491
0.00316628
0.00373365
0.537687
4.05832
0.406925
0.212586
0.833807
0.23958
0.00318232
0.165941
1.14393
0.0252607
0.164337
1.019
0.313012
0.125588
0.0312095
0.00314371
0.00316817
0.027296
0.0449129
0.30284
0.300006
1.23629
0.267414
0.268769
0.00395538
0.503363
0.213632
0.0032118
0.342792
3.3787
0.00320846
0.362674
1.01677
0.739354
0.656229
0.189862
1.10314
0.00356299
0.21021
0.00331893
0.00633637
0.00320971
0.835099
0.568501
0.0741325
0.00319328
0.00307302
1.1133
0.38682
0.289194
0.23532
0.354516
0.435301
0.306079
0.349879
0.350046
0.0031772
0.151168
0.123596
0.136313
0.385281
1.05917
0.767688
0.590836
0.363238
1.11604
0.826548
0.962987
0.416034
0.881406
0.0647043
0.825256
0.393177
0.0281166
1.01265
0.855787
0.447142
0.0031141
0.00320084
0.00361075
0.00444242
0.472243
0.00304522
0.494348
0.165098
0.996371
0.766772
0.00317141
0.474205
0.283353
0.186887
0.275993
0.390335
0.552684
0.00326539
0.00319927
0.00911161
0.100521
0.00313251
0.637529
0.267322
0.252976
0.760303
0.514552
0.441397
0.532103
0.00316788
0.319231
0.66903
0.00381444
0.078933
0.409233
0.315011
0.537509
0.193274
0.00325605
0.375582
0.358458
0.00385268
0.0204905
0.0031579
0.178795
0.00440671
0.14394
1.28747
0.111594
0.0735096
1.00139
1.81235
0.00326945
0.628824
0.00305239
0.22496
0.346929
0.247812
0.484071
0.691
0.676832
0.802311
1.22341
0.746702
0.00317862
0.00314518
0.0531748
0.101376
0.606467
0.172301
0.00319367
1.58811
0.25393
0.00825289
0.788397
0.0586972
0.00816809
0.0403864
0.997693
0.00646922
0.00319499
0.258393
0.205956
0.64079
0.118148
0.226229
0.202926
0.00321394
0.29132
0.0902701
0.0600285
0.00337574
0.202605
0.53428
0.173647
1.44922
1.33525
0.31657
0.413389
0.00316339
0.359722
0.00319506
2.7302
0.0103355
0.430716
0.0942305
0.840317
0.016375
0.00933671
0.2483
0.307734
1.3028
0.00356455
0.212098
0.48224
0.609096
0.185519
0.999371
0.120669
0.00343506
0.00320506
0.479096
0.635543
1.06296
0.289432
0.0848741
0.530367
0.328533
0.818959
0.0460069
0.00316921
0.00318278
0.122269
0.707413
0.68987
0.992942
0.0035333
0.0109601
0.167946
0.452401
0.268495
0.759071
0.34993
0.879108
0.00319888
0.00320953
1.13651
0.275254
0.885253
2.8779
0.360006
0.0246331
1.41142
0.00318404
1.0233
0.0277181
0.0308259
0.00317113
0.041796
0.0845618
0.837266
0.794177
0.00322673
0.758394
0.00316011
0.601094
1.56598
0.00314505
0.157348
0.00322657
0.259048
0.12753
0.174682
0.00308785
0.26205
0.211773
0.257322
1.02359
0.170187
1.2247
0.217456
0.833425
0.237372
1.11752
0.637896
0.00384242
0.00320862
0.375458
0.195094
0.823572
0.00317726
2.1117
0.00315893
0.00478192
0.038764
0.00316025
1.14227
0.974464
0.00324379
0.665407
0.256646
0.10252
0.709265
0.00608326
0.00312918
0.422974
0.385901
0.00976916
0.776349
6.66887
1.35822
0.155303
1.19723
0.104339
0.00318524
0.00368808
0.0351759
0.137061
0.844218
1.08999
1.31558
0.795586
0.531622
0.509151
0.257761
0.651869
1.9437
0.591039
0.043045
0.078313
0.278706
1.50656
0.00338234
0.194273
0.655422
0.333464
0.00317286
0.423957
0.00305911
0.0138645
0.84373
0.00338752
0.298128
1.84985
0.00318984
0.352633
0.00351431
0.337252
0.0141145
0.00406713
0.766978
0.255203
0.91546
0.399702
1.12058
1.64649
0.489662
0.175851
0.752098
0.388446
0.0031157
0.577492
0.0585264