/*--------------------------------*- C++ -*----------------------------------*\
| =========                 |                                                 |
| \\      /  F ield         | OpenFOAM: The Open Source CFD Toolbox           |
|  \\    /   O peration     | Version:  2.3.1                                 |
|   \\  /    A nd           | Web:      www.OpenFOAM.org                      |
|    \\/     M anipulation  |                                                 |
\*---------------------------------------------------------------------------*/
FoamFile
{
    version     2.0;
    format      ascii;
    class       volScalarField;
    location    "0.45";
    object      nut;
}
// * * * * * * * * * * * * * * * * * * * * * * * * * * * * * * * * * * * * * //

dimensions      [0 2 -1 0 0 0 0];

internalField   nonuniform List<scalar> 
15166
(
9.7254e-05
0.000157293
0.000262291
0.000376492
0.000476702
0.000591343
0.000709518
0.000837733
0.000957356
0.00108038
0.00119713
0.0012973
9.72679e-05
0.000171226
0.000283023
0.000397066
0.000500876
0.000614514
0.00073136
0.000854722
0.000972012
0.00109052
0.00120292
0.00130391
9.7631e-05
0.000182557
0.000299298
0.000414037
0.000520723
0.000633734
0.000749289
0.00086891
0.00098399
0.00109869
0.00120752
0.00130831
9.81039e-05
0.000192706
0.000313174
0.00042867
0.000537398
0.000649847
0.000764127
0.000880758
0.000993709
0.00110513
0.00121096
0.0013116
9.86094e-05
0.000201884
0.00032545
0.000441661
0.00055175
0.000663598
0.000776565
0.000890681
0.00100158
0.00111013
0.00121345
0.0013135
9.9156e-05
0.000210139
0.000336461
0.000453323
0.00056429
0.000675455
0.000787098
0.000899018
0.00100792
0.0011139
0.001215
0.00131432
9.97389e-05
0.000217557
0.000346465
0.000463885
0.000575325
0.000685768
0.000796085
0.000906009
0.00101299
0.00111663
0.00121573
0.00131477
0.000100356
0.000224224
0.000355666
0.000473512
0.000585131
0.000694796
0.0008038
0.000911881
0.00101701
0.00111852
0.00121599
0.00131534
0.000100988
0.000230205
0.000364213
0.000482393
0.000593937
0.000702763
0.000810462
0.000916825
0.00102016
0.00111973
0.00121578
0.00131508
0.00010163
0.000235539
0.000372198
0.000490624
0.000601914
0.000709858
0.000816252
0.000920971
0.00102259
0.00112039
0.00121524
0.00131431
0.00010228
0.00024028
0.000379685
0.000498299
0.000609181
0.000716206
0.000821308
0.000924452
0.00102442
0.00112064
0.00121462
0.00131454
0.000102928
0.000244458
0.00038671
0.000505489
0.000615843
0.000721921
0.000825744
0.000927371
0.00102578
0.00112059
0.00121391
0.00131392
0.000103572
0.000248118
0.000393311
0.000512235
0.000621994
0.000727098
0.000829648
0.000929811
0.00102673
0.00112028
0.001213
0.00131227
0.000104208
0.000251318
0.000399509
0.000518584
0.00062769
0.000731793
0.000833098
0.00093184
0.00102735
0.00111974
0.00121165
0.00130975
0.000104838
0.000254069
0.00040532
0.000524582
0.000632986
0.000736088
0.000836155
0.000933533
0.0010277
0.00111898
0.00121019
0.00130754
0.000105454
0.000256425
0.000410743
0.000530247
0.00063793
0.000740013
0.000838863
0.000934914
0.00102782
0.00111807
0.00120853
0.00130462
0.000106059
0.000258406
0.000415783
0.000535602
0.000642559
0.000743622
0.000841274
0.00093605
0.00102774
0.001117
0.00120667
0.00130172
0.000106645
0.000260059
0.000420462
0.000540676
0.000646915
0.00074696
0.000843432
0.00093695
0.00102748
0.00111578
0.00120461
0.00129833
0.000107213
0.000261418
0.000424771
0.000545472
0.000651003
0.000750035
0.000845344
0.000937667
0.00102707
0.00111444
0.00120243
0.00129501
0.000107768
0.000262497
0.000428731
0.000550004
0.000654866
0.000752887
0.000847061
0.000938208
0.00102653
0.00111299
0.00120015
0.00129169
0.000108308
0.000263339
0.000432335
0.00055428
0.000658501
0.000755535
0.000848587
0.000938593
0.00102587
0.00111143
0.0011977
0.00128791
0.000108828
0.000263953
0.000435592
0.000558319
0.000661943
0.000757991
0.000849945
0.000938842
0.00102511
0.00110977
0.00119509
0.00128403
0.000109323
0.000264379
0.00043852
0.000562105
0.00066519
0.000760282
0.00085116
0.000938978
0.00102425
0.00110802
0.00119241
0.00128094
0.000109809
0.000264627
0.000441118
0.000565658
0.000668259
0.000762423
0.000852247
0.000939012
0.0010233
0.00110617
0.00118963
0.00127731
0.00011027
0.000264714
0.000443396
0.000568989
0.000671161
0.000764424
0.000853211
0.000938941
0.00102228
0.00110425
0.00118684
0.00127429
0.000110714
0.000264671
0.000445365
0.000572092
0.000673904
0.000766288
0.000854062
0.000938787
0.00102118
0.00110225
0.00118401
0.00127079
0.000111141
0.0002645
0.000447035
0.00057496
0.000676492
0.000768034
0.000854818
0.00093855
0.00102001
0.00110022
0.00118124
0.00126805
0.000111547
0.000264236
0.000448432
0.000577606
0.000678922
0.00076966
0.000855487
0.00093824
0.00101878
0.00109816
0.00117856
0.0012655
0.000111932
0.000263873
0.000449545
0.000580044
0.00068121
0.000771181
0.00085606
0.000937871
0.00101751
0.00109608
0.00117586
0.00126213
0.000112297
0.000263411
0.000450409
0.000582255
0.000683356
0.000772596
0.000856559
0.000937433
0.0010162
0.00109398
0.00117318
0.00125934
0.000112639
0.0002629
0.000451011
0.000584253
0.000685356
0.000773917
0.000856984
0.000936947
0.00101485
0.00109188
0.00117048
0.00125593
0.000112971
0.000262315
0.000451393
0.000586031
0.00068722
0.00077514
0.000857346
0.000936404
0.00101347
0.00108976
0.0011678
0.00125306
0.00011329
0.000261677
0.000451541
0.000587614
0.000688951
0.000776278
0.000857635
0.000935823
0.00101206
0.00108763
0.00116508
0.00124948
0.000113578
0.000261005
0.000451495
0.000588986
0.000690542
0.000777325
0.00085787
0.000935201
0.00101063
0.00108549
0.00116236
0.00124643
0.000113853
0.000260295
0.000451245
0.000590168
0.000692002
0.000778282
0.000858046
0.00093454
0.00100917
0.00108334
0.00115962
0.00124282
0.000114121
0.000259558
0.000450827
0.000591136
0.000693325
0.000779162
0.000858172
0.000933843
0.0010077
0.00108119
0.00115692
0.00124006
0.000114354
0.00025879
0.000450227
0.000591924
0.000694519
0.000779956
0.000858237
0.000933106
0.0010062
0.00107904
0.00115429
0.00123758
0.000114582
0.000258007
0.000449472
0.000592516
0.000695578
0.000780673
0.00085826
0.000932347
0.0010047
0.00107689
0.00115165
0.00123429
0.00011479
0.00025721
0.000448574
0.000592929
0.000696511
0.000781302
0.000858233
0.000931563
0.00100319
0.00107475
0.00114902
0.00123111
0.000114976
0.000256405
0.000447545
0.000593169
0.00069732
0.000781866
0.000858159
0.000930746
0.00100166
0.00107261
0.00114638
0.00122776
0.000115156
0.000255581
0.000446393
0.00059323
0.000697998
0.000782342
0.00085804
0.000929912
0.00100013
0.00107046
0.00114363
0.00122391
0.000115309
0.000254677
0.000445106
0.000593128
0.000698546
0.000782745
0.000857875
0.000929048
0.000998582
0.0010683
0.00114086
0.00122114
0.000115455
0.000253742
0.000443723
0.000592869
0.000698973
0.00078307
0.000857666
0.000928169
0.000997027
0.00106612
0.0011381
0.00121778
0.000115575
0.000252742
0.000442197
0.000592443
0.000699273
0.000783313
0.000857415
0.000927261
0.000995458
0.00106393
0.00113537
0.00121505
0.000115678
0.000251738
0.000440508
0.000591869
0.000699452
0.000783479
0.000857118
0.000926333
0.00099388
0.00106175
0.00113264
0.00121161
0.00011577
0.000250772
0.000438695
0.000591121
0.000699503
0.000783571
0.000856786
0.000925385
0.000992294
0.00105956
0.00112995
0.0012091
0.000115849
0.00024975
0.00043679
0.000590167
0.000699405
0.000783584
0.000856406
0.000924417
0.000990699
0.00105738
0.00112727
0.00120574
0.000115903
0.000248761
0.00043479
0.000589075
0.000699174
0.00078351
0.000855979
0.000923432
0.000989097
0.0010552
0.00112463
0.00120316
0.000115948
0.000247774
0.000432751
0.000587813
0.000698804
0.000783354
0.000855515
0.000922416
0.00098749
0.00105302
0.001122
0.00119996
0.00011598
0.000246791
0.000430602
0.000586404
0.000698305
0.000783101
0.000855001
0.000921388
0.000985868
0.00105085
0.0011194
0.00119739
0.000116
0.000245851
0.000428396
0.000584856
0.00069768
0.000782777
0.000854439
0.000920336
0.000984248
0.00104868
0.00111675
0.00119382
0.000116003
0.000244873
0.000426136
0.000583152
0.000696916
0.00078235
0.000853829
0.000919257
0.000982613
0.00104652
0.00111411
0.00119049
0.000115992
0.000243948
0.000423834
0.000581346
0.000696025
0.000781842
0.000853169
0.000918159
0.000980977
0.00104436
0.00111151
0.00118821
0.000115973
0.000243028
0.000421495
0.000579394
0.000694998
0.00078125
0.000852462
0.00091704
0.00097933
0.0010422
0.00110895
0.00118549
0.000115934
0.000242117
0.000419124
0.000577328
0.000693848
0.000780557
0.000851704
0.00091589
0.000977678
0.00104005
0.00110643
0.00118282
0.000115878
0.000241213
0.000416726
0.000575157
0.000692572
0.000779772
0.000850883
0.000914719
0.000976022
0.00103791
0.00110391
0.00117949
0.000115818
0.000240365
0.000414314
0.00057288
0.000691165
0.000778891
0.000850017
0.00091352
0.000974355
0.0010358
0.00110139
0.00117663
0.000115743
0.000239484
0.000411884
0.000570488
0.000689633
0.000777922
0.000849082
0.000912295
0.000972699
0.00103368
0.00109884
0.00117295
0.000115649
0.000238656
0.000409442
0.000568001
0.000687971
0.000776839
0.000848102
0.000911054
0.000971037
0.00103158
0.00109635
0.00117103
0.000115554
0.000237841
0.000407026
0.000565454
0.000686207
0.000775674
0.000847053
0.000909777
0.000969364
0.00102948
0.00109385
0.00116828
0.00011544
0.000237063
0.000404568
0.000562801
0.000684312
0.000774407
0.000845948
0.00090848
0.000967691
0.00102738
0.00109137
0.0011652
0.000115309
0.000236259
0.000402108
0.000560067
0.000682295
0.000773031
0.000844784
0.000907145
0.000966005
0.0010253
0.00108887
0.00116176
0.000115168
0.000235505
0.000399653
0.000557269
0.000680181
0.000771571
0.00084355
0.000905784
0.000964313
0.0010232
0.00108638
0.00115883
0.00011502
0.000234764
0.000397238
0.000554383
0.000677951
0.000770004
0.000842256
0.000904391
0.000962606
0.00102111
0.00108384
0.00115539
0.000114856
0.000234065
0.000394799
0.000551466
0.000675618
0.000768343
0.000840893
0.000902951
0.000960885
0.00101902
0.00108131
0.00115257
0.000114687
0.000233374
0.000392404
0.000548495
0.000673172
0.000766587
0.000839451
0.000901484
0.00095915
0.00101691
0.00107877
0.00114932
0.000114482
0.000232676
0.00039002
0.000545456
0.000670642
0.000764723
0.000837948
0.000899969
0.000957391
0.00101481
0.00107625
0.00114667
0.000114309
0.000232034
0.000387671
0.00054239
0.000668015
0.000762763
0.00083637
0.000898413
0.000955625
0.00101269
0.00107371
0.00114341
0.000114091
0.000231414
0.000385334
0.000539291
0.000665279
0.000760698
0.000834713
0.000896813
0.000953832
0.00101059
0.00107119
0.00114048
0.00011385
0.000230813
0.000383024
0.000536146
0.000662474
0.000758546
0.000832978
0.000895174
0.000952028
0.00100846
0.00106864
0.0011371
0.000113625
0.000230207
0.00038075
0.000532956
0.000659565
0.000756292
0.000831178
0.000893484
0.000950199
0.00100633
0.00106609
0.0011342
0.000113381
0.000229695
0.000378485
0.000529752
0.00065658
0.000753933
0.0008293
0.000891749
0.000948347
0.00100418
0.00106351
0.00113073
0.000113127
0.000229118
0.000376295
0.000526562
0.000653532
0.00075149
0.000827338
0.000889967
0.00094647
0.00100202
0.00106091
0.00112735
0.000112855
0.000228626
0.00037405
0.000523289
0.000650364
0.00074894
0.00082529
0.000888125
0.000944556
0.000999844
0.00105831
0.00112432
0.000112573
0.000228149
0.000371911
0.000520039
0.000647175
0.00074631
0.000823179
0.000886234
0.000942619
0.000997657
0.00105571
0.00112106
0.000112252
0.000227625
0.000369776
0.000516764
0.000643893
0.000743596
0.00082098
0.000884293
0.000940653
0.000995453
0.00105312
0.00111833
0.000111949
0.00022717
0.000367698
0.000513496
0.000640539
0.000740777
0.000818696
0.000882281
0.000938642
0.000993232
0.00105051
0.00111504
0.000111654
0.00022679
0.000365669
0.000510216
0.000637138
0.000737864
0.000816328
0.000880219
0.000936605
0.000990992
0.00104789
0.00111212
0.000111319
0.000226365
0.000363662
0.000506949
0.000633671
0.000734873
0.000813877
0.000878092
0.000934522
0.000988731
0.00104525
0.00110875
0.000110956
0.000225985
0.000361712
0.000503674
0.000630164
0.000731792
0.00081134
0.000875905
0.000932405
0.000986441
0.00104262
0.00110606
0.000110615
0.00022564
0.000359775
0.000500423
0.000626593
0.000728621
0.000808717
0.000873642
0.000930244
0.000984123
0.00103997
0.00110289
0.000110249
0.000225306
0.000357925
0.000497162
0.000622965
0.000725355
0.000806016
0.000871313
0.000928031
0.000981778
0.00103728
0.00109932
0.000109871
0.000225003
0.000356124
0.000493938
0.000619316
0.000722036
0.000803219
0.000868917
0.000925768
0.000979413
0.00103457
0.00109602
0.000109482
0.00022472
0.000354348
0.000490742
0.00061562
0.000718632
0.000800337
0.000866441
0.00092346
0.000977009
0.00103189
0.00109333
0.000109078
0.000224453
0.000352624
0.000487566
0.00061188
0.000715152
0.000797379
0.000863896
0.000921097
0.000974579
0.00102917
0.0010901
0.000108636
0.000224192
0.000350936
0.000484371
0.000608139
0.000711606
0.000794324
0.00086129
0.000918679
0.000972105
0.00102645
0.00108729
0.000108211
0.000223963
0.000349297
0.000481227
0.000604358
0.000707966
0.000791192
0.000858589
0.000916211
0.000969604
0.0010237
0.00108384
0.00010777
0.000223763
0.000347718
0.000478139
0.000600523
0.000704267
0.000787956
0.000855815
0.00091369
0.000967075
0.00102097
0.00108106
0.000107317
0.000223593
0.000346194
0.000475073
0.000596703
0.000700489
0.000784631
0.000852957
0.000911101
0.000964512
0.00101824
0.00107834
0.000106851
0.000223447
0.000344686
0.000472018
0.000592844
0.000696638
0.000781226
0.000850017
0.000908435
0.000961893
0.00101551
0.00107602
0.000106373
0.000223329
0.000343281
0.000469044
0.000588995
0.000692756
0.000777737
0.000847001
0.000905723
0.00095925
0.00101274
0.00107229
0.000105882
0.000223242
0.000341932
0.000466078
0.000585115
0.000688786
0.00077417
0.000843906
0.000902944
0.000956572
0.00100997
0.00106937
0.00010535
0.00022312
0.000340598
0.000463165
0.00058124
0.000684768
0.000770517
0.000840714
0.000900092
0.000953848
0.00100712
0.00106579
0.000104858
0.000223102
0.000339332
0.00046031
0.000577362
0.000680675
0.000766774
0.000837437
0.000897169
0.000951063
0.00100423
0.00106249
0.000104297
0.000223041
0.00033813
0.000457507
0.000573474
0.000676573
0.00076294
0.000834064
0.000894178
0.000948223
0.00100126
0.00105881
0.000103749
0.000223025
0.000336994
0.000454772
0.000569632
0.000672396
0.000759032
0.000830613
0.000891104
0.00094532
0.000998283
0.00105576
0.000103186
0.000223
0.000335887
0.000452063
0.000565778
0.000668185
0.00075504
0.000827063
0.000887943
0.000942348
0.000995214
0.00105208
0.000102608
0.000223062
0.000334853
0.000449429
0.000561947
0.000663914
0.000750958
0.000823434
0.000884706
0.000939326
0.000992144
0.0010489
0.000101989
0.000223044
0.000333889
0.000446866
0.000558119
0.000659638
0.000746807
0.000819703
0.00088139
0.000936227
0.000988983
0.00104523
0.000101382
0.000223132
0.00033296
0.000444343
0.000554326
0.000655287
0.000742578
0.000815861
0.00087797
0.000933058
0.000985838
0.00104237
0.000100761
0.000223216
0.000332113
0.000441907
0.000550575
0.000650943
0.000738261
0.000811932
0.000874461
0.0009298
0.000982627
0.00103892
0.000100123
0.000223345
0.000331345
0.000439521
0.00054684
0.000646558
0.000733882
0.000807923
0.000870865
0.000926493
0.000979336
0.00103509
9.94681e-05
0.000223514
0.00033061
0.000437228
0.000543161
0.000642163
0.000729425
0.000803804
0.000867175
0.000923103
0.000976021
0.0010318
9.87981e-05
0.000223673
0.000329962
0.000435026
0.00053951
0.00063774
0.00072491
0.000799597
0.000863378
0.000919625
0.000972677
0.00102872
9.80829e-05
0.000223818
0.000329353
0.000432886
0.000535922
0.000633297
0.000720338
0.000795283
0.000859487
0.000916072
0.000969267
0.001025
9.73763e-05
0.000224025
0.00032883
0.00043081
0.000532371
0.000628869
0.000715691
0.000790888
0.000855501
0.000912427
0.000965801
0.00102155
9.66247e-05
0.000224214
0.000328348
0.000428845
0.000528905
0.000624459
0.000710978
0.000786384
0.000851398
0.000908686
0.000962202
0.00101753
9.58796e-05
0.000224471
0.000327966
0.000426991
0.000525496
0.000620042
0.000706224
0.00078178
0.000847181
0.000904839
0.000958503
0.00101339
9.51473e-05
0.000224806
0.000327636
0.000425184
0.000522177
0.000615633
0.000701413
0.000777096
0.000842866
0.000900888
0.000954747
0.00100966
9.43435e-05
0.000225059
0.000327365
0.000423536
0.000518929
0.000611265
0.000696556
0.000772331
0.000838432
0.000896825
0.000950842
0.00100545
9.35405e-05
0.000225388
0.000327195
0.000421938
0.000515757
0.000606917
0.000691679
0.000767445
0.000833879
0.000892651
0.000946909
0.00100182
9.27212e-05
0.000225773
0.000327082
0.000420474
0.000512707
0.000602628
0.000686765
0.000762495
0.000829228
0.000888369
0.00094288
0.000997613
9.18543e-05
0.0002261
0.000327068
0.000419112
0.000509739
0.000598354
0.00068184
0.000757459
0.000824464
0.000884001
0.000938786
0.000993321
9.0989e-05
0.00022651
0.000327126
0.000417889
0.000506876
0.000594155
0.000676868
0.000752351
0.00081957
0.000879472
0.000934514
0.000989452
9.01051e-05
0.00022698
0.000327206
0.000416735
0.000504122
0.000590016
0.000671906
0.000747131
0.000814541
0.00087479
0.000930103
0.000984914
8.91991e-05
0.000227417
0.00032745
0.000415742
0.000501527
0.000585982
0.000666945
0.000741866
0.000809418
0.000870004
0.000925628
0.00098078
8.82686e-05
0.000227931
0.000327727
0.000414877
0.000499057
0.000582011
0.000662021
0.000736542
0.000804174
0.000865055
0.000920967
0.000975986
8.72855e-05
0.000228393
0.000328129
0.000414175
0.000496736
0.000578174
0.000657098
0.00073116
0.000798807
0.000860005
0.000916257
0.000971593
8.62713e-05
0.000228923
0.000328564
0.000413571
0.000494569
0.000574453
0.00065225
0.000725763
0.00079336
0.000854812
0.000911394
0.000966675
8.52874e-05
0.000229563
0.000329143
0.000413147
0.000492573
0.000570861
0.00064743
0.000720311
0.000787829
0.000849509
0.000906401
0.000961641
8.42599e-05
0.000230172
0.000329812
0.000412853
0.000490785
0.000567425
0.000642709
0.000714841
0.000782163
0.000844014
0.000901131
0.00095662
8.31701e-05
0.000230794
0.000330579
0.000412755
0.000489158
0.000564159
0.000638084
0.000709389
0.000776411
0.000838376
0.000895742
0.000951191
8.20446e-05
0.000231442
0.000331449
0.000412823
0.000487747
0.000561087
0.000633575
0.000703936
0.000770595
0.000832626
0.000890272
0.000946204
8.0944e-05
0.000232221
0.000332424
0.000413052
0.00048659
0.000558226
0.000629192
0.000698542
0.000764709
0.000826701
0.000884534
0.000940228
7.97691e-05
0.00023295
0.000333521
0.000413506
0.000485649
0.000555608
0.000625007
0.000693193
0.000758779
0.000820666
0.000878619
0.000934362
7.85474e-05
0.000233718
0.000334739
0.000414172
0.000485004
0.000553264
0.000621029
0.000687964
0.000752826
0.000814493
0.000872479
0.000927961
7.73445e-05
0.000234617
0.000336084
0.000415028
0.000484621
0.000551213
0.000617268
0.000682842
0.000746882
0.00080822
0.000866173
0.000921506
7.60628e-05
0.000235473
0.000337573
0.000416156
0.000484561
0.000549501
0.00061381
0.000677894
0.00074096
0.000801831
0.000859669
0.000914724
7.47537e-05
0.00023639
0.000339203
0.000417515
0.000484851
0.000548151
0.000610644
0.000673143
0.000735073
0.000795338
0.000853002
0.000908342
7.33803e-05
0.000237318
0.000340966
0.000419191
0.000485515
0.000547197
0.000607853
0.000668617
0.000729226
0.000788734
0.00084607
0.000901077
7.19771e-05
0.000238299
0.000342944
0.000421158
0.000486603
0.000546707
0.000605429
0.000664343
0.000723476
0.000782055
0.000838973
0.000893976
7.04975e-05
0.000239233
0.000345082
0.000423471
0.000488107
0.000546643
0.000603383
0.000660325
0.000717831
0.000775275
0.000831602
0.000886086
6.89693e-05
0.00024022
0.000347402
0.000426093
0.000490017
0.000547002
0.000601721
0.000656549
0.000712218
0.000768349
0.000823891
0.000878111
6.73694e-05
0.000241085
0.000349823
0.000429038
0.000492262
0.000547717
0.000600426
0.000653129
0.000706816
0.000761393
0.000815955
0.000870021
6.54099e-05
0.00024013
0.000350249
0.000430878
0.000493395
0.000547668
0.000598601
0.000649498
0.000701229
0.000754624
0.000808039
0.000861545
0.000477525
0.00154679
0.00164134
0.00188319
0.00188481
0.000625699
0.000613674
0.000464303
0.001376
0.00206047
0.00381315
0.00201913
0.00424128
0.0014269
0.000566774
0.00133216
0.00149816
0.00504302
0.00502772
0.00131828
0.000730814
0.000492571
0.00739079
0.00354933
0.000478301
0.00164335
0.000573666
0.000779244
0.00194346
0.00122959
0.0017825
0.000336185
0.00146242
0.0037777
0.00412558
0.00106508
0.000154622
0.00157177
0.000467533
0.0020722
0.00186879
0.00129258
0.00386981
0.00106106
0.000274034
0.000494627
0.00578613
0.00374677
0.000277105
0.00073524
0.00106589
0.000466819
0.00033804
0.00124158
0.00164996
0.00150677
0.00238897
0.00129193
0.00157213
0.00056458
0.000622315
0.000337185
0.00124141
0.00286693
0.00424821
0.00152308
0.000936184
0.000318492
0.000656881
0.00227756
0.00172225
0.00532126
0.000465832
0.00110055
0.00357796
0.00127027
0.00138901
0.00123815
0.00560931
0.000466663
0.00456057
0.00123972
0.000196637
0.000382635
0.00285212
0.00160575
0.000937678
0.00124135
0.00264794
0.000197746
0.000577021
0.00147244
0.00124139
0.00140643
0.000350382
0.00127364
0.000777731
0.00163171
0.00124229
0.000946724
0.000765265
0.00324275
0.00128878
0.00148706
0.00123885
0.000350442
0.000356923
0.000422445
0.00132723
0.000248694
0.00152389
0.00123993
0.000445571
0.00136812
0.00124078
0.000521184
0.00316036
0.00225869
0.00155336
0.00429888
0.000786384
0.00378446
0.00147418
0.00360504
0.00443926
0.00281823
0.00141299
0.000260765
0.00404244
0.00124136
3.92605e-05
0.00124223
5.60451e-05
0.00148724
0.000568549
0.00163237
0.000172479
0.00241984
0.000447224
0.00175197
0.00297174
0.000688332
0.000461371
0.000452508
8.77589e-05
0.00163219
0.000466227
0.00152492
0.00141022
0.000579214
0.000629905
0.000514509
0.00124179
0.00445293
0.0035765
0.00124362
0.000443076
0.00126917
0.00165578
0.00192954
0.0036889
0.00133706
0.0045264
0.0026123
0.000774796
0.00335963
0.000277176
0.000253957
0.000547939
0.0012374
0.00156008
0.00109315
0.00164567
0.0030497
0.00123866
0.0016058
0.00123854
0.00041162
0.00236934
0.00134187
0.000277205
0.00524977
0.00426952
0.00047045
0.00129839
0.000461909
0.00125535
0.00124028
9.1904e-05
0.00124087
0.00232203
0.00124499
0.000396091
0.00156052
0.000450142
0.000557739
0.00061196
0.000538605
0.00123982
0.00221409
0.00146673
0.000461403
0.000281459
0.000463118
0.000472588
0.00697628
0.00416407
0.00317274
0.00113384
0.00271707
5.35165e-05
0.00138606
0.000468338
0.000412796
0.00123977
0.000468209
0.00251421
0.00146743
0.00222993
0.000189843
0.000385302
0.00146487
0.000420421
0.00124825
0.00125143
0.00277324
0.00160206
0.00126904
0.00107194
0.00413798
5.24766e-05
0.00445567
0.00124159
0.000907255
0.00150146
0.000474593
0.000464737
0.00148601
0.00111777
0.000455791
0.00424686
0.00595193
0.00434351
0.00268284
6.46241e-05
5.38277e-05
5.64289e-05
0.00132099
0.00390606
0.000466569
0.00221527
0.00110212
0.00233158
0.000350472
0.000231865
0.00283614
0.000988792
0.00045293
0.00207402
0.000427082
0.00271418
0.000473014
0.00294739
0.00416277
7.28866e-05
0.000469285
0.00131011
0.000477112
0.00146507
0.00121708
0.000694782
0.00526177
0.00138533
4.49105e-05
4.56763e-05
0.0013901
0.000175659
5.76234e-05
0.00028154
0.000137126
0.000377617
0.000172906
0.000466147
0.000471024
0.00134383
0.000609887
0.00161851
4.73286e-05
0.00131381
0.000762763
0.000136545
0.00146617
4.63307e-05
4.60207e-05
0.000445233
0.00039773
0.00190233
4.48809e-05
0.00585966
0.000380882
0.000461306
0.000994601
0.000499029
0.0017775
0.00376415
0.00151601
0.00028604
0.00124093
0.00528771
0.00475304
0.00566172
0.000184247
0.00124559
0.00129311
0.000460583
0.00434268
4.91544e-05
0.0012144
0.0012398
8.29441e-05
0.00463764
0.00208204
0.00149679
0.000236513
0.000453399
0.00121375
0.00141569
0.00124132
0.00125525
0.000182934
0.00133353
0.00124752
0.00217812
0.0012417
0.00125456
0.00126455
0.00123871
0.0076473
0.00124194
0.0017319
0.000788411
0.000473648
0.00124211
0.000528207
0.00229597
4.55403e-05
5.33953e-05
0.00164921
0.00140461
0.001382
0.0012376
0.00126827
0.00634766
0.0022813
4.08555e-05
0.00123871
0.00493683
0.000366206
0.00134819
0.00236125
0.000102557
0.000267055
0.00132934
0.00148962
0.000856612
0.00191836
0.00135657
0.00124134
0.0014143
0.0014527
0.00501581
9.62888e-05
0.000453587
0.000134142
0.00147801
0.000632096
0.000463684
0.00140266
0.00125299
0.00177537
0.00102541
0.00165104
0.00126004
0.000469754
0.000349569
0.000599672
0.00124572
0.00431263
0.000542326
0.00379956
0.00126071
0.00117551
0.00191932
0.000393466
0.000445479
0.00137524
0.00142171
0.00124395
0.00300002
0.0014161
0.00185321
0.00237667
0.000899057
0.00217964
0.00393159
0.000168738
0.00139591
0.00147161
6.47313e-05
0.000422407
0.00124076
0.00124942
0.00124196
0.00129648
0.00607606
0.000455
0.000128264
0.000538504
0.000528116
0.00125602
0.000246192
0.00046778
0.00123811
0.00124764
0.000456531
0.0012464
0.002713
0.00137125
0.000449697
0.00123759
0.00197636
0.00424361
0.00506061
0.000460641
0.0046404
0.00123831
0.00124223
0.00116341
0.00132596
0.00253742
0.000289145
4.031e-05
0.00194488
0.000458265
0.0019051
0.000988281
0.00132734
0.000443182
0.00154505
0.00123901
0.00198183
0.000460617
5.4286e-05
0.00221346
0.00199181
0.000692162
0.00163562
4.75738e-05
0.00042302
0.00443687
0.000525082
0.00342162
0.00498898
0.00245736
0.00132425
0.00130086
0.00176512
0.00069435
0.000574605
5.90287e-05
0.00359495
0.000281979
9.54023e-05
0.00123923
0.00179115
0.00133617
0.000443581
0.00123871
0.000327223
0.000883726
0.000385578
0.000203132
0.000468777
0.00245072
0.00442175
9.3998e-05
5.01922e-05
0.00134096
0.00311184
0.00124788
0.00420516
0.00090908
0.000318343
0.00138306
0.00424913
0.000157892
0.00107366
0.00116543
0.000470223
0.000224132
0.00122918
0.000480778
0.000311427
0.00127063
0.00345058
0.000401066
0.000707589
0.00137063
0.000190157
0.00185888
0.000449829
0.00127823
0.000946919
0.00336588
0.00124133
0.000663487
4.11978e-05
0.00125037
0.001502
0.00215992
0.00428587
0.00146693
0.00127209
0.00046642
0.00124136
0.000293025
0.00149683
4.44025e-05
9.39302e-05
0.00186641
4.71797e-05
0.000816811
0.00125178
0.00159288
0.00126879
0.00405266
0.00134893
0.000379054
0.000447671
0.00193728
0.00134522
0.00369401
0.00178079
0.0026297
0.0017334
0.00123896
0.00466688
0.00123871
0.00572556
0.000559682
0.00452889
0.000975651
0.000650277
0.0004341
0.0048994
0.00318907
0.00045664
6.8679e-05
0.0012414
0.00124143
0.00108766
0.000717394
0.000388965
0.00243678
0.00535634
0.00129761
0.000328152
0.00123748
0.00420912
0.000473525
0.00158204
0.00127884
0.000492913
0.000103949
0.000388859
0.00259322
0.00123885
0.00341848
0.00124287
0.00139917
0.00296267
0.000369107
0.00159846
0.00125421
0.00141086
0.00589952
0.000418646
0.00091975
0.00139153
0.000220206
0.00423703
0.00124154
0.000571719
8.15601e-05
0.000458907
0.00328197
0.00123756
0.00146012
0.00130118
0.000464626
0.00124776
0.000728651
0.00105022
0.00127763
0.00179146
0.000396842
0.00137051
0.00098672
0.00117307
0.00134802
0.000761101
0.00490597
0.00338386
0.00123903
0.00124142
0.00159762
0.000460235
0.000471971
0.000461568
0.00158538
0.00076791
0.00393664
0.00118903
0.000470683
0.00139826
0.00249982
0.000326099
0.00123753
0.00209965
0.000280585
0.000277411
0.00126709
0.00124625
6.87993e-05
0.000184924
0.00133127
0.00397757
0.000822632
0.000414259
0.00125255
3.52962e-05
0.000690841
0.000703561
0.00168514
0.00104659
0.000862449
0.00141274
0.00128679
0.000450082
0.000132833
0.00126265
0.001242
0.00141226
0.00116834
0.00156349
0.00123993
0.00215131
0.00124132
0.00117487
0.000499952
0.00486251
0.00124663
0.00147275
0.000623273
0.000356314
0.00199825
0.000194878
0.00743528
0.000804902
0.00137197
0.00124096
0.00309945
0.00140917
0.00023012
0.00153698
0.00175609
0.00239144
0.00227354
0.000133185
0.00123984
0.000777526
0.00117678
0.000458704
0.0012873
0.0049129
0.000365935
0.000311561
0.00187597
0.00520481
0.00154565
0.000465998
0.00255163
0.0004675
0.00124066
0.00198415
0.00130375
0.00123736
0.000104218
0.00124154
4.68266e-05
0.00229996
0.0011096
0.00127197
0.0011916
0.000422905
0.00183836
0.00151076
0.0012991
0.00620601
0.00223149
0.00281343
0.00505669
0.00159923
0.00123915
0.00124153
0.000465713
0.00571832
5.87673e-05
0.000530462
0.00127955
4.63517e-05
4.06662e-05
4.47442e-05
0.00302799
0.00069601
3.75992e-05
0.00124133
0.000132999
0.000125623
0.000464706
0.0012423
0.00242371
0.00144256
0.000112585
0.00124313
0.00165918
0.00123911
0.00522676
0.00223491
0.00132998
0.000452466
0.00123978
0.00449186
0.000418478
0.00124246
0.00142678
0.00124071
0.0013846
0.00308393
0.00128375
0.00113334
0.00256205
0.00046327
0.00124019
0.00106983
0.00124199
0.00061573
0.00267117
0.00350399
0.000517277
0.00277011
0.00161238
0.00125875
0.000157498
0.00100796
0.00117834
5.34041e-05
0.000499081
0.00123809
0.000129274
0.00060178
0.000756376
0.0010251
0.00121062
0.00139705
0.000476354
0.0043469
0.00124006
0.0036366
0.00143451
0.00350328
0.000133476
0.000765967
0.00125458
0.00021956
0.0003859
0.00137354
0.00188332
0.00130918
0.000608632
0.000992279
0.00119461
0.00413334
0.00173549
0.00029389
0.000185933
0.00428796
0.000152879
0.00124855
5.08512e-05
0.00158814
0.00127987
0.00146922
0.00112999
0.00102263
0.00612204
0.00135201
0.00324177
0.00292145
0.0014056
0.00289144
0.00273593
0.00124195
0.00150656
0.00470099
4.41381e-05
0.000470008
4.46303e-05
0.000723519
0.00189317
0.00108896
0.00124071
0.00124168
0.000443952
0.00662986
0.00134011
0.00156288
0.00123764
0.00160984
0.00252634
0.00514417
0.00130617
0.00160457
0.00146664
0.00209074
0.00136158
0.00549625
0.000391454
0.000542972
0.00124068
0.000542089
0.00145136
0.0016863
0.00217152
4.80268e-05
0.00364352
0.00212252
0.000676672
0.00402896
0.00242828
0.00396668
0.00566272
0.00130169
3.94158e-05
0.00124135
0.00129338
0.00044124
0.00281373
0.00270462
0.00108819
0.00043042
0.00124163
0.00124152
0.00148211
0.000129617
0.00138062
0.0012381
0.00134074
0.00272483
0.000465605
0.00137864
5.29857e-05
0.00116561
0.00166892
0.000366219
0.00125656
0.00130739
0.000124621
0.000378811
0.000154025
0.00124388
0.00123963
0.00109333
0.00161128
0.00236015
0.00127071
0.00124046
0.0042543
0.00126163
0.00181641
0.00304246
0.0055879
0.00243836
0.00152998
0.000438031
5.52295e-05
0.000461169
0.00200692
0.00124289
0.000283312
0.00127256
0.000262702
0.00124124
0.00181398
0.00125766
0.00124113