/*--------------------------------*- C++ -*----------------------------------*\
| =========                 |                                                 |
| \\      /  F ield         | OpenFOAM: The Open Source CFD Toolbox           |
|  \\    /   O peration     | Version:  2.3.1                                 |
|   \\  /    A nd           | Web:      www.OpenFOAM.org                      |
|    \\/     M anipulation  |                                                 |
\*---------------------------------------------------------------------------*/
FoamFile
{
    version     2.0;
    format      ascii;
    class       volScalarField;
    location    "0.45";
    object      p;
}
// * * * * * * * * * * * * * * * * * * * * * * * * * * * * * * * * * * * * * //

dimensions      [0 2 -2 0 0 0 0];

internalField   nonuniform List<scalar> 
15166
(
-17.2993
-22.3269
-25.0966
-27.307
-29.1858
-30.7839
-32.2164
-33.4737
-34.5608
-35.3674
-36.1094
-36.6825
-22.0163
-24.5284
-25.8893
-27.5563
-29.1301
-30.5556
-31.86
-33.0388
-34.0706
-34.9
-35.6412
-36.2344
-27.2025
-28.0907
-28.3659
-29.3012
-30.299
-31.3143
-32.3132
-33.2452
-34.0945
-34.8202
-35.4653
-36.0026
-30.1782
-30.5904
-30.5851
-31.1457
-31.737
-32.4056
-33.1099
-33.7975
-34.4481
-35.0268
-35.5461
-35.9747
-32.0465
-32.3011
-32.2754
-32.6752
-33.052
-33.5064
-34.0004
-34.4977
-34.9806
-35.4223
-35.8252
-36.1741
-33.6943
-33.8138
-33.7563
-34.0306
-34.2664
-34.5753
-34.9167
-35.2668
-35.6126
-35.9351
-36.2315
-36.4938
-35.2845
-35.2846
-35.1775
-35.3305
-35.4476
-35.6352
-35.8498
-36.0766
-36.3048
-36.5198
-36.7151
-36.8776
-36.7574
-36.6699
-36.5251
-36.5774
-36.5972
-36.6809
-36.7873
-36.9081
-37.0342
-37.1546
-37.2627
-37.3494
-38.0949
-37.9414
-37.7733
-37.7485
-37.6937
-37.6933
-37.7106
-37.7424
-37.7816
-37.8203
-37.8528
-37.8702
-39.3174
-39.1108
-38.9269
-38.8418
-38.7298
-38.6618
-38.6067
-38.5649
-38.5311
-38.4994
-38.4642
-38.417
-40.447
-40.197
-40.001
-39.8664
-39.7084
-39.5853
-39.4706
-39.3674
-39.2718
-39.1805
-39.0886
-38.9778
-41.5008
-41.2136
-41.0072
-40.8308
-40.6348
-40.4652
-40.3006
-40.1458
-39.9977
-39.8553
-39.7179
-39.5745
-42.4859
-42.1676
-41.9527
-41.7404
-41.5126
-41.3033
-41.0966
-40.8975
-40.7042
-40.5163
-40.3347
-40.16
-43.4099
-43.0647
-42.8426
-42.5997
-42.3448
-42.1018
-41.8587
-41.6209
-41.3871
-41.1555
-40.9178
-40.661
-44.2794
-43.9108
-43.6823
-43.4127
-43.1346
-42.8625
-42.5885
-42.3179
-42.0506
-41.789
-41.536
-41.2729
-45.0992
-44.7103
-44.4759
-44.1833
-43.8852
-43.5881
-43.2877
-42.9891
-42.6929
-42.4009
-42.1182
-41.8418
-45.8738
-45.4672
-45.2276
-44.9147
-44.5991
-44.2801
-43.9565
-43.6333
-43.3114
-42.992
-42.6782
-42.3763
-46.6079
-46.185
-45.9403
-45.6092
-45.2782
-44.9398
-44.596
-44.2513
-43.9073
-43.5654
-43.2269
-42.8981
-47.3035
-46.8663
-46.6169
-46.2697
-45.9251
-45.5697
-45.208
-44.8443
-44.4808
-44.1198
-43.763
-43.4138
-47.964
-47.5138
-47.26
-46.8982
-46.5413
-46.1705
-45.7929
-45.4121
-45.031
-44.6523
-44.2791
-43.9194
-48.5914
-48.1294
-47.8713
-47.4965
-47.1285
-46.7439
-46.3518
-45.9555
-45.5579
-45.1616
-44.7693
-44.392
-49.1872
-48.7149
-48.4531
-48.0662
-47.6881
-47.291
-46.8859
-46.4754
-46.0627
-45.6498
-45.2365
-44.8311
-49.7567
-49.2732
-49.007
-48.6091
-48.2218
-47.8135
-47.3965
-46.9735
-46.5481
-46.123
-45.6994
-45.2836
-50.2974
-49.8037
-49.5341
-49.1264
-48.7307
-48.3122
-47.8848
-47.4507
-47.0139
-46.5771
-46.1408
-45.7061
-50.8058
-50.3072
-50.0354
-49.6188
-49.2156
-48.788
-48.3513
-47.9073
-47.46
-47.0125
-46.5662
-46.1201
-51.2957
-50.7882
-50.5126
-50.0876
-49.6777
-49.242
-48.7967
-48.3436
-47.8869
-47.4297
-46.9732
-46.5147
-51.761
-51.2454
-50.9672
-50.5343
-50.1181
-49.6746
-49.2216
-48.7603
-48.2952
-47.83
-47.3678
-46.9032
-52.2037
-51.6799
-51.3991
-50.9591
-50.5371
-50.0867
-49.6265
-49.1576
-48.6845
-48.2102
-47.7377
-47.2686
-52.6196
-52.0919
-51.8096
-51.3629
-50.9355
-50.4787
-50.0119
-49.5359
-49.0553
-48.5729
-48.0896
-47.6018
-53.0161
-52.4826
-52.1991
-51.7462
-51.314
-50.8514
-50.3785
-49.8962
-49.4091
-48.9205
-48.4327
-47.939
-53.3923
-52.8558
-52.5692
-52.1101
-51.6735
-51.2054
-50.727
-50.2389
-49.7458
-49.2511
-48.7573
-48.257
-53.7523
-53.2106
-52.9205
-52.4553
-52.0143
-51.5411
-51.0576
-50.5642
-50.0657
-49.5653
-49.0671
-48.5655
-54.0826
-53.5428
-53.2514
-52.7811
-52.3363
-51.8586
-51.3706
-50.8723
-50.3687
-49.8624
-49.3567
-48.8471
-54.4022
-53.8579
-53.5631
-53.0883
-52.6403
-52.1585
-51.6664
-51.1639
-50.656
-50.1457
-49.6367
-49.127
-54.7025
-54.1538
-53.8573
-53.3778
-52.9267
-52.4411
-51.9455
-51.4393
-50.9278
-50.414
-49.901
-49.3859
-54.98
-54.4307
-54.1334
-53.6498
-53.1959
-52.7069
-52.2077
-51.6981
-51.1833
-50.6668
-50.1531
-49.6394
-55.2417
-54.6901
-54.3924
-53.9043
-53.4478
-52.9556
-52.4533
-51.9402
-51.4215
-50.8999
-50.3796
-49.8649
-55.4913
-54.9335
-54.6347
-54.1418
-53.683
-53.1875
-52.682
-52.1652
-51.6425
-51.1158
-50.5855
-50.049
-55.7141
-55.1573
-54.8598
-54.3622
-53.9013
-53.403
-52.8945
-52.3745
-51.8484
-51.3185
-50.7839
-50.2244
-55.9288
-55.3657
-55.0684
-54.5655
-54.1028
-53.602
-53.0911
-52.5689
-52.0409
-51.5116
-50.9901
-50.4643
-56.1206
-55.5561
-55.26
-54.7517
-54.2881
-53.7849
-53.2717
-52.7471
-52.2161
-51.681
-51.1451
-50.6093
-56.2972
-55.7328
-55.4336
-54.921
-54.457
-53.9515
-53.4361
-52.909
-52.3758
-51.8388
-51.3023
-50.7599
-56.4624
-55.8944
-55.5916
-55.0747
-54.6104
-54.1026
-53.5851
-53.0561
-52.5208
-51.9826
-51.4446
-50.8974
-56.6025
-56.0381
-55.7354
-55.2118
-54.7489
-54.2387
-53.7197
-53.1887
-52.6519
-52.1121
-51.5744
-51.0339
-56.7345
-56.167
-55.8619
-55.3351
-54.8732
-54.3604
-53.8395
-53.3072
-52.7689
-52.2272
-51.6862
-51.1406
-56.844
-56.2777
-55.9709
-55.4434
-54.984
-54.4668
-53.945
-53.4116
-52.8725
-52.3305
-51.7911
-51.2581
-56.9398
-56.3741
-56.0635
-55.5392
-55.0782
-54.5569
-54.0357
-53.5018
-52.9618
-52.4176
-51.8725
-51.3283
-57.0182
-56.4568
-56.1383
-55.6212
-55.1516
-54.6342
-54.1124
-53.5776
-53.0368
-52.4925
-51.9483
-51.4123
-57.0843
-56.5235
-56.2
-55.6867
-55.213
-54.6963
-54.1741
-53.6384
-53.0969
-52.5511
-52.0032
-51.4572
-57.1339
-56.5753
-56.2469
-55.7353
-55.2602
-54.7437
-54.2202
-53.684
-53.1413
-52.5944
-52.0471
-51.5086
-57.1643
-56.6092
-56.2796
-55.7689
-55.2923
-54.7758
-54.2513
-53.714
-53.1698
-52.6204
-52.0671
-51.5131
-57.1836
-56.6292
-56.2983
-55.788
-55.3104
-54.7932
-54.2679
-53.7294
-53.1837
-52.6336
-52.0794
-51.5175
-57.187
-56.6339
-56.3019
-55.7921
-55.3133
-54.7962
-54.2699
-53.7307
-53.1852
-52.6364
-52.0904
-51.5433
-57.1712
-56.6234
-56.2906
-55.7811
-55.3018
-54.7843
-54.2572
-53.7178
-53.1717
-52.623
-52.0754
-51.5239
-57.1443
-56.5992
-56.2646
-55.7556
-55.2758
-54.7578
-54.2306
-53.6905
-53.1448
-52.5958
-52.0488
-51.5052
-57.1021
-56.56
-56.2241
-55.7158
-55.2352
-54.7179
-54.1901
-53.6511
-53.1061
-52.5579
-52.0093
-51.4592
-57.0497
-56.5059
-56.1693
-55.6612
-55.1811
-54.6637
-54.1376
-53.5999
-53.057
-52.5115
-51.9658
-51.4256
-56.973
-56.4368
-56.0994
-55.5927
-55.1122
-54.5969
-54.0723
-53.5372
-52.997
-52.4528
-51.9061
-51.3492
-56.8905
-56.3525
-56.0149
-55.5091
-55.0301
-54.5164
-53.9944
-53.4623
-52.9248
-52.3851
-51.8496
-51.3283
-56.7866
-56.2525
-55.9151
-55.411
-54.9335
-54.4224
-53.903
-53.373
-52.8369
-52.2956
-51.7513
-51.2132
-56.6682
-56.1378
-55.801
-55.2992
-54.8233
-54.3146
-53.7967
-53.2679
-52.7314
-52.1889
-51.6414
-51.0949
-56.5394
-56.0109
-55.6735
-55.1733
-54.6996
-54.192
-53.676
-53.1468
-52.6098
-52.0667
-51.5185
-50.9635
-56.3946
-55.8673
-55.5309
-55.0333
-54.5603
-54.0551
-53.539
-53.0104
-52.4735
-51.9308
-51.3887
-50.8515
-56.2311
-55.7084
-55.3739
-54.8783
-54.4072
-53.9022
-53.3868
-52.8586
-52.3216
-51.7802
-51.2359
-50.689
-56.056
-55.5358
-55.2025
-54.7091
-54.2388
-53.7348
-53.22
-52.6921
-52.1576
-51.6188
-51.0819
-50.5492
-55.8655
-55.35
-55.0177
-54.526
-54.0564
-53.5533
-53.0391
-52.5136
-51.981
-51.4459
-50.9109
-50.3735
-55.6631
-55.1518
-54.8195
-54.3288
-53.8597
-53.3577
-52.8456
-52.3224
-51.7935
-51.2629
-50.7343
-50.2146
-55.4529
-54.9398
-54.6067
-54.1169
-53.6488
-53.1482
-52.6384
-52.1187
-51.5935
-51.0648
-50.5349
-50.0054
-55.216
-54.7102
-54.3784
-53.8906
-53.4231
-52.9251
-52.4183
-51.9021
-51.3804
-50.8555
-50.3306
-49.8199
-54.9691
-54.467
-54.136
-53.6493
-53.1841
-52.6886
-52.1852
-51.6722
-51.1535
-50.6304
-50.1039
-49.5841
-54.7099
-54.2109
-53.8792
-53.3953
-52.9319
-52.4394
-51.9394
-51.4291
-50.9127
-50.3916
-49.8688
-49.3657
-54.4349
-53.9378
-53.6083
-53.1275
-52.6672
-52.1778
-51.68
-51.1723
-50.6574
-50.1371
-49.6118
-49.0917
-54.1449
-53.6516
-53.3229
-52.8457
-52.3891
-51.9027
-51.4077
-50.9018
-50.3883
-49.8705
-49.3485
-48.8336
-53.833
-53.3473
-53.0232
-52.5514
-52.0978
-51.6149
-51.1221
-50.6183
-50.1077
-49.5934
-49.0786
-48.5764
-53.5089
-53.0294
-52.7094
-52.2418
-51.7924
-51.3123
-50.8221
-50.321
-49.8132
-49.302
-48.7881
-48.2786
-53.1807
-52.7036
-52.3839
-51.9198
-51.4724
-50.9952
-50.5078
-50.0097
-49.5058
-48.9992
-48.493
-48.0028
-52.8337
-52.3615
-52.0442
-51.5831
-51.1383
-50.6635
-50.1792
-49.685
-49.1848
-48.6813
-48.1741
-47.6697
-52.474
-52.0048
-51.6895
-51.2313
-50.789
-50.3171
-49.8364
-49.3467
-48.8512
-48.3529
-47.8533
-47.3695
-52.1
-51.6358
-51.321
-50.8652
-50.4248
-49.9565
-49.4802
-48.995
-48.5044
-48.0102
-47.512
-47.0155
-51.7074
-51.2502
-50.9376
-50.4845
-50.0471
-49.5824
-49.1105
-48.63
-48.1441
-47.6548
-47.1657
-46.694
-51.3058
-50.8522
-50.5402
-50.0908
-49.656
-49.1956
-48.7278
-48.2511
-47.769
-47.2823
-46.7908
-46.3115
-50.8897
-50.4398
-50.1299
-49.6837
-49.2529
-48.7962
-48.3321
-47.8591
-47.3802
-46.8962
-46.4056
-45.9158
-50.457
-50.0119
-49.7044
-49.2633
-48.8367
-48.3844
-47.9241
-47.4552
-46.9804
-46.5024
-46.0219
-45.5452
-50.0079
-49.5688
-49.2649
-48.8295
-48.4073
-47.9597
-47.5036
-47.039
-46.5692
-46.0971
-45.6268
-45.173
-49.5432
-49.1108
-48.8113
-48.3816
-47.9646
-47.5211
-47.0693
-46.6088
-46.1426
-45.6734
-45.2011
-44.7347
-49.0638
-48.6398
-48.3443
-47.9205
-47.5075
-47.0686
-46.6208
-46.1645
-45.703
-45.2385
-44.774
-44.3302
-48.5793
-48.1576
-47.8644
-47.4454
-47.0366
-46.6018
-46.1586
-45.707
-45.2503
-44.7904
-44.3261
-43.8604
-48.0762
-47.6605
-47.37
-46.956
-46.5512
-46.1212
-45.6829
-45.2369
-44.7862
-44.3337
-43.8827
-43.449
-47.558
-47.1486
-46.8612
-46.4518
-46.0513
-45.6264
-45.1939
-44.7539
-44.3093
-43.8628
-43.417
-42.9954
-47.0261
-46.6233
-46.3391
-45.934
-45.5379
-45.118
-44.6912
-44.2573
-43.8181
-43.376
-42.9315
-42.5118
-46.4816
-46.0842
-45.8023
-45.4023
-45.0105
-44.5964
-44.1755
-43.7471
-43.3137
-42.8758
-42.4291
-41.9836
-45.9225
-45.531
-45.2526
-44.8578
-44.4712
-44.0627
-43.6479
-43.2263
-42.8004
-42.3732
-41.9482
-41.5595
-45.35
-44.9652
-44.6894
-44.3007
-43.9193
-43.5167
-43.108
-42.6924
-42.2727
-41.8507
-41.4234
-41.0076
-44.7642
-44.3834
-44.112
-43.7301
-43.3546
-42.9581
-42.5547
-42.1445
-41.7302
-41.3132
-40.8935
-40.497
-44.157
-43.7866
-43.5207
-43.1457
-42.7764
-42.3858
-41.9882
-41.5839
-41.1754
-40.7649
-40.3505
-39.9412
-43.5449
-43.1783
-42.9157
-42.5476
-42.1845
-41.8003
-41.4088
-41.0111
-40.6097
-40.2075
-39.8072
-39.432
-42.9176
-42.5567
-42.2982
-41.9363
-41.5792
-41.2012
-40.8162
-40.4252
-40.0304
-39.634
-39.2334
-38.8351
-42.267
-41.9172
-41.6651
-41.3107
-40.9597
-40.5883
-40.2099
-39.826
-39.4389
-39.0508
-38.6634
-38.2995
-41.6147
-41.2696
-41.0198
-40.6713
-40.326
-39.9614
-39.59
-39.2137
-38.8348
-38.4547
-38.0717
-37.6923
-40.9453
-40.6073
-40.3614
-40.0188
-39.6798
-39.3214
-38.9576
-38.5892
-38.2185
-37.8473
-37.4787
-37.1351
-40.265
-39.9319
-39.6892
-39.3527
-39.0196
-38.6689
-38.3125
-37.9523
-37.5894
-37.2242
-36.8547
-36.497
-39.5653
-39.2408
-39.0032
-38.6741
-38.348
-38.0046
-37.6562
-37.3042
-36.9496
-36.5937
-36.2339
-35.8828
-38.8536
-38.5371
-38.3044
-37.9833
-37.6643
-37.3294
-36.9899
-36.6465
-36.3016
-35.957
-35.6147
-35.2877
-38.1341
-37.822
-37.5937
-37.2802
-36.9692
-36.6426
-36.3117
-35.9774
-35.641
-35.3048
-34.9694
-34.6554
-37.3964
-37.0933
-36.87
-36.5645
-36.2617
-35.9434
-35.6211
-35.2948
-34.9668
-34.6373
-34.3046
-33.9803
-36.6472
-36.3503
-36.1327
-35.836
-35.5413
-35.2319
-34.9175
-34.6003
-34.2814
-33.9626
-33.6458
-33.3566
-35.8826
-35.5949
-35.3826
-35.0945
-34.8079
-34.5074
-34.2019
-33.8935
-33.5833
-33.2727
-32.9589
-32.6499
-35.1092
-34.8276
-34.62
-34.3404
-34.0625
-33.7705
-33.4744
-33.1754
-32.8747
-32.5745
-32.2739
-31.9878
-34.3227
-34.0474
-33.8457
-33.575
-33.3051
-33.0223
-32.7356
-32.4467
-32.1572
-31.8692
-31.5843
-31.3203
-33.5209
-33.2551
-33.0593
-32.7971
-32.5359
-32.2629
-31.986
-31.7076
-31.4287
-31.1513
-30.8728
-30.6001
-32.7103
-32.4517
-32.2616
-32.0083
-31.756
-31.4927
-31.2266
-30.959
-30.6921
-30.4272
-30.1655
-29.9253
-31.8864
-31.6363
-31.4524
-31.208
-30.9648
-30.7119
-30.457
-30.2015
-29.9472
-29.6946
-29.4407
-29.201
-31.0564
-30.8123
-30.6329
-30.3976
-30.1635
-29.9213
-29.6779
-29.4349
-29.1943
-28.9573
-28.7237
-28.5242
-30.2134
-29.9763
-29.8017
-29.5758
-29.3518
-29.1207
-28.8886
-28.6577
-28.4292
-28.2048
-27.9825
-27.7692
-29.3562
-29.1283
-28.9609
-28.7445
-28.5303
-28.31
-28.0897
-27.8697
-27.6515
-27.4342
-27.2142
-26.9937
-28.4954
-28.2715
-28.1091
-27.9025
-27.6985
-27.49
-27.2817
-27.0743
-26.8686
-26.6656
-26.467
-26.2954
-27.6173
-27.4032
-27.2482
-27.052
-26.859
-26.6623
-26.4668
-26.2728
-26.081
-25.8918
-25.7021
-25.5171
-26.7339
-26.5273
-26.3782
-26.1927
-26.0111
-25.8275
-25.6453
-25.4657
-25.2886
-25.1155
-24.947
-24.8003
-25.8413
-25.6443
-25.5019
-25.3266
-25.1563
-24.9852
-24.8167
-24.6522
-24.4916
-24.3351
-24.1813
-24.0453
-24.9467
-24.7541
-24.6174
-24.4528
-24.2946
-24.1369
-23.9828
-23.8333
-23.6892
-23.551
-23.4185
-23.3209
-24.0419
-23.8563
-23.7266
-23.5725
-23.4261
-23.282
-23.1432
-23.0092
-22.8807
-22.7584
-22.6384
-22.521
-23.1272
-22.9512
-22.8288
-22.6865
-22.5524
-22.4228
-22.2992
-22.1815
-22.0692
-21.9615
-21.8548
-21.7491
-22.2119
-22.0429
-21.9267
-21.7956
-21.6752
-21.5607
-21.4541
-21.355
-21.2626
-21.1776
-21.103
-21.0654
-21.2941
-21.1303
-21.0209
-20.9016
-20.7951
-20.6972
-20.6086
-20.5288
-20.4567
-20.3903
-20.3257
-20.2692
-20.3683
-20.2131
-20.1115
-20.0052
-19.9136
-19.8331
-19.764
-19.7046
-19.6532
-19.6082
-19.568
-19.5572
-19.4426
-19.2946
-19.2003
-19.1068
-19.0316
-18.9703
-18.9218
-18.8846
-18.8561
-18.8334
-18.8113
-18.7959
-18.5172
-18.3748
-18.2889
-18.21
-18.1522
-18.1118
-18.0863
-18.0733
-18.0702
-18.0741
-18.0822
-18.1044
-17.5886
-17.454
-17.3773
-17.3143
-17.2761
-17.2587
-17.2588
-17.2731
-17.2981
-17.3314
-17.3709
-17.4251
-16.6635
-16.5349
-16.468
-16.423
-16.4069
-16.4155
-16.444
-16.4875
-16.5421
-16.6045
-16.6733
-16.7611
-15.7374
-15.6171
-15.5621
-15.5378
-15.5484
-15.5868
-15.6472
-15.7231
-15.8085
-15.8983
-15.9863
-16.0778
-14.8156
-14.7016
-14.6617
-14.6637
-14.7066
-14.7812
-14.8785
-14.9907
-15.1109
-15.2337
-15.3556
-15.4926
-13.8933
-13.7886
-13.7702
-13.8083
-13.8938
-14.0124
-14.1523
-14.3039
-14.4603
-14.6159
-14.7645
-14.9123
-12.9669
-12.8761
-12.8945
-12.9868
-13.1287
-13.3
-13.4874
-13.6808
-13.8733
-14.06
-14.2351
-14.4045
-12.0292
-11.971
-12.0584
-12.2337
-12.4492
-12.6803
-12.9145
-13.1442
-13.3694
-13.5838
-13.776
-13.934
-11.0579
-11.144
-11.3812
-11.6846
-11.9813
-12.2598
-12.5296
-12.7863
-13.0296
-13.2725
-13.4728
-13.6557
-1.51105
9.70886
-10.3087
-19.2168
-19.857
-7.19942
-4.75694
32.7501
-44.7902
-39.9596
-35.0466
-14.8548
16.5884
-41.2448
1.38604
-6.75728
-41.2701
-30.5989
-30.039
-6.48876
27.9833
26.325
17.7852
-16.12
-0.857111
-10.8527
24.3651
0.646091
-42.5137
-37.8096
-42.4769
30.9144
9.58137
-34.6552
16.7939
18.0438
33.6643
-30.8182
33.2346
-14.7593
2.32297
-1.9908
24.6823
-0.419846
33.4338
26.1245
19.0534
19.9918
33.3651
27.9719
18.7597
32.5677
30.938
1.49114
-36.958
9.41837
12.904
-2.36867
-31.5741
0.921517
24.1696
30.3289
1.53661
-3.96653
17.5258
9.71193
-13.6891
30.4924
16.3348
-39.4144
-37.0548
13.939
33.1336
-13.2581
-15.4928
2.61687
-44.3277
-1.67803
10.0155
28.8021
2.6647
-1.93256
33.9141
32.5581
1.96536
-44.3979
-13.7148
0.91979
-39.5737
33.5434
27.987
-41.322
-0.226334
7.82817
34.325
-4.18766
0.516301
-1.9076
-0.641986
-13.3451
-15.857
14.5778
5.57219
8.91233
-1.70939
33.9715
1.83149
33.2504
-13.6624
0.351126
17.9786
-2.06976
30.52
-7.73149
1.68714
15.6668
-19.9034
-6.20102
-45.6999
-33.3356
-10.6054
-21.5294
-42.0196
15.4074
-18.1223
-40.3261
-1.92279
11.6043
19.3704
1.03098
31.596
1.40037
21.4165
8.84749
23.5185
10.7802
34.0287
-39.3991
31.5454
10.3897
-19.1497
28.7193
27.1231
0.538505
30.8965
-37.1293
31.6717
-10.6839
-47.9237
3.35633
0.321923
16.6473
-1.66784
4.76374
22.1792
3.22749
31.8298
-1.35039
-41.7121
-14.5816
-22.0908
-6.32598
-30.1839
-15.0631
24.1415
26.3774
31.5946
34.3124
10.9014
1.4873
-38.1091
-18.0678
-36.9173
-19.2508
-1.10255
-41.249
1.95465
32.3912
25.2141
-36.9815
31.068
-32.2826
-7.56598
33.402
6.30595
31.4888
3.49432
-1.70582
31.7777
1.62182
-40.3783
-1.74517
31.915
-5.90088
32.0479
8.06074
26.9525
30.4003
2.38212
-61.4211
-47.5668
32.4144
34.3552
31.171
32.8674
14.1225
-7.97467
-36.2493
-13.8287
-15.9305
4.30776
-46.9824
33.413
34.2284
1.93937
31.1855
-11.1908
-13.131
-63.5304
30.545
32.4366
-47.8287
33.5689
-3.23899
-3.26698
-39.9194
-44.8064
-2.07323
-56.4281
20.0276
33.7385
-17.1118
-2.30155
-13.0113
-13.3753
27.4043
31.2412
-47.3661
-1.80719
32.8945
-33.3318
19.4552
-40.7453
-45.9337
33.0707
2.45105
19.8828
6.01837
-42.4803
31.3425
-40.1261
-13.3942
-40.3665
-71.5367
28.2598
-31.6902
0.094871
32.6679
-42.1987
33.4002
-15.235
27.0939
17.3275
-8.60964
-14.3256
27.5837
-46.5797
32.7188
-3.68255
6.47993
0.177296
18.6139
-45.2871
33.0933
32.8856
-44.4145
21.8578
34.4529
34.2542
32.6635
32.6386
23.3652
33.6997
33.1974
-25.465
27.4653
-33.0661
33.2282
-50.0925
29.5072
32.6457
-42.322
34.9563
34.9492
30.4561
32.0087
28.0433
30.7007
23.9777
34.2472
29.0812
-0.741237
-10.8254
-37.565
22.3458
-46.5042
34.4994
1.55059
14.3871
16.6656
-27.9367
34.7073
3.44718
-50.9237
32.504
24.3755
34.9044
-31.4266
2.01263
27.8126
22.046
-41.8213
-15.3307
69.706
34.2392
-30.7885
-26.204
-2.31629
2.57532
34.7399
-4.08392
0.641299
-41.8266
-2.27033
2.63745
4.24912
-1.7076
14.9908
2.15819
6.52452
-0.322828
33.0156
0.121772
29.3957
12.9122
31.6243
33.6237
-42.1348
-60.7284
-12.6697
-0.170465
-4.06263
13.8576
26.0114
34.7972
-1.17894
-25.3458
33.5391
-46.1387
-40.0122
30.1013
33.703
-49.0035
-61.3678
21.2621
-21.6339
-3.18216
0.324862
-1.55281
0.707765
-29.7899
30.2468
33.9943
-33.1995
-41.7277
28.7308
33.179
-48.2775
3.57223
-35.8021
-11.0465
-11.0818
-1.393
33.1493
-67.0621
28.0377
-0.865341
21.7731
28.6234
19.7466
3.50507
-37.2359
-35.6885
30.7653
30.2912
-3.02422
-55.7597
-2.80578
-33.8536
-26.8312
13.1529
-14.3692
-12.9857
14.1074
-43.4315
30.9286
-48.7942
-41.2345
31.3151
33.312
-2.21849
-0.821795
1.55686
-49.2663
12.7164
28.7865
-62.5202
30.4043
30.6389
3.41192
0.203136
30.6397
1.69752
-3.00124
32.5319
0.584683
-21.6434
-47.3121
33.9105
0.581146
-14.0844
-11.2363
-31.4652
29.4256
-32.5509
1.96364
-41.4931
-37.33
28.6095
-6.84161
34.5699
33.2528
12.9852
32.0712
8.54989
-14.4568
-6.82779
31.8919
27.0098
2.12699
-37.5269
29.7147
33.4661
10.7461
-41.8302
28.3663
9.66324
34.7982
34.2331
-32.4323
28.6084
-10.4215
22.8583
-4.52592
-50.1382
-28.142
2.28287
29.3305
22.8507
33.354
-25.8523
33.6563
19.1351
0.824432
-38.0154
-46.7778
30.8416
1.99161
31.8791
-13.1583
0.116115
33.5103
33.2831
-23.2125
-20.629
30.2082
34.1743
-6.22565
-19.4046
-42.8959
-22.3525
0.945355
32.4123
-57.7261
-17.2719
30.5447
-23.7874
-1.02669
33.134
33.9283
-40.5079
31.0785
33.6244
2.4541
26.2931
34.3918
22.9634
-48.3239
31.0996
-37.6732
31.7015
-49.5372
-13.7751
-36.8345
2.00628
-15.7095
31.4399
-37.6474
-13.9792
21.4096
15.8633
-12.5258
1.31286
31.5563
-0.694023
3.77232
-14.8051
33.6812
30.2587
-38.982
34.954
-15.239
-17.4606
-37.2812
-2.15897
25.9697
-47.4011
-36.3895
30.3887
-42.5653
-7.71196
-17.8136
-21.4708
-48.2447
-43.3067
-1.82936
-26.3762
1.95712
19.6125
9.067
13.8137
-17.3886
28.474
33.6716
-30.3878
26.2234
29.0595
-13.8714
0.00818935
-0.106024
16.6566
-13.4312
30.6455
-39.1186
-31.5291
-25.9524
31.7891
0.501008
16.9996
27.6798
10.8621
-49.6761
24.3571
30.0032
30.3207
12.4573
0.451049
-9.38777
-2.67423
-36.0465
-36.1238
33.071
-43.747
4.26571
-45.8295
25.0435
33.0045
27.5532
-43.9609
0.130957
-32.4612
1.30842
28.5277
-13.3953
32.2829
-36.7073
-0.0884694
-46.0906
-40.8497
33.4609
1.8391
-0.660927
-26.6603
-17.3411
11.7118
11.9934
8.30454
-12.7972
-6.2647
7.62116
29.7408
-29.2458
-33.8714
-1.86134
0.821136
-44.4459
34.1619
32.6958
33.5989
10.718
29.363
-6.83684
-30.6977
25.6762
-1.78601
11.3485
30.2422
1.56067
14.4134
33.8742
-50.3693
-50.712
3.39511
-13.0613
29.1767
-49.7357
19.3727
25.1677
32.2124
-2.12191
31.9852
29.4069
23.5544
-22.1533
-9.3902
-0.321392
-48.2332
-50.9568
32.2005
-60.8088
4.45231
2.7629
-45.9048
-31.0179
10.4448
1.96439
-41.9238
-1.12049
-36.3025
31.7158
-31.2631
2.02388
-45.9066
-0.0555471
32.8859
-37.7946
33.5814
17.0767
25.4819
-48.4529
-1.14361
19.0922
-48.1165
31.7544
-36.8398
-3.98171
-40.3362
-17.9675
1.3443
2.359
24.1742
-15.0309
32.2646
4.065
-25.4101
34.2338
34.3043
-38.718
23.5397
-38.4747
33.8135
27.4067
33.0821
-2.17943
13.5333
-1.13198
1.50401
30.1591
2.13818
34.8895
-10.6978
-35.4057
1.45902
28.6794
34.1125
-37.1404
-5.31342
-26.7278
18.8938
-52.7995
-17.3548
-28.6037
-40.6108
-1.86539
0.845226
33.2055
20.628
34.34
29.6527
3.82801
34.8364
34.9156
32.8927
-37.0516
-16.6344
32.888
-0.5329
4.46226
-56.5844
33.4983
1.2618
15.1421
-38.4368
6.44687
-2.3712
-41.5406
2.05456
-26.6072
-57.9172
6.35023
32.1527
-1.61943
23.0341
32.7935
1.41721
-8.69806
-1.28421
7.34575
-9.47235
-52.4261
-32.0877
27.6012
29.3697
1.92166
-13.8794
-0.634622
-0.648129
-21.2374
14.8982
30.6169
16.5075
-43.6543
-2.86909
-109.936
-0.506615
-10.2913
33.0053
30.1058
-1.66025
31.694
-17.4874
29.2848
-10.4852
-42.7098
-43.9293
31.3884
-24.7433
-15.0099
17.342
8.05735
27.3586
-58.0188
-13.3483
29.036
0.120842
32.5603
-8.11875
-39.5385
-44.947
-16.1668
-13.975
-43.1418
-23.8659
6.08269
34.3738
29.1906
-12.4079
7.35085
-3.33203
33.8418
-37.4044
-5.30656
-42.2561
-28.3806
25.9429
24.2431
-48.3388
-11.1443
27.6853
-12.207
-38.9226
-38.7162
0.209775
-43.2189
-15.7617
34.1372
32.4848
30.5675
0.113637
-10.7377
-2.82258
1.74889
2.38296
31.047
23.1996
20.4827
-37.8729
0.666323
-43.797
15.5696
23.5983
1.95737
-38.573
-4.19192
26.4399
-42.6966
23.7775
30.6364
28.5201
-2.12408
26.3504
-38.1637
10.2428
14.1347
31.9725
-39.9674
28.0088
16.0801
-15.3862
-13.9889
26.9794
-26.9047
-28.8911
30.8752
0.417685
-50.6008
15.3057
12.6142
-9.05584
-58.394
26.8692
-0.424814
1.19883
-45.3474
29.938
-48.6133
1.38881
-36.3587
-38.192
33.7618
6.52079
33.5865
-29.9322
6.56189
29.3282
-2.04929
-50.3253
34.0859
34.0224
34.6388
3.19311
1.99511
15.4294
-41.3319
-40.5929
-32.0395
0.324222
-14.3856
3.88966
12.7774
-39.7152
25.0441
27.7166
28.0081
16.8945
33.3537
32.624
-37.5226
0.00692456
34.292
-32.3074
31.6939
1.15158
-41.6905
-4.33759
1.98115
4.47998
29.832
-20.8224
-10.8188
26.3731
-54.752
-4.70317
3.8007
16.3247
23.1411
-11.745
27.9146
2.61446
-3.12744
-13.7403
13.9228
-12.9843
-40.9047
33.2476
-16.574
22.2406
-35.6762
28.3166
30.4536
32.3707
-40.489
31.8768
1.66922
32.8126
-10.5734
-2.26254
-41.3778
30.0154
21.1451
25.7236
-8.2201
-44.0116
-35.8607
-0.414509
34.1248
2.73942
33.1902
-31.5355
33.2043
-2.03553
-45.3651
34.2539
-35.5519
33.1188
32.9917
-15.1144
-29.538
23.7311
0.626864
15.0992
34.9206
-1.37909
-48.295
32.2826
-2.32818
-15.4484
10.6854
33.2677
33.673
-31.4991
31.4345
32.6517
-10.2924
31.5618
27.0206
30.5857
31.2983
1.56182
-1.61606
-40.2609
-6.00695
-38.8821
32.9996
-0.808363
-36.8756
33.2249
-2.2776
30.0643
25.2495
31.1484
31.0627
18.4324
-41.1715
-38.173
30.8022
-33.1002
-21.2878
26.1204
33.8682
-45.5446
-30.7038
-38.5937
-21.5087
-15.8932
28.5319
-9.88268
-18.2691
-31.1195
-0.441603
-40.5807
33.0399
12.6593
1.7095
-3.20558
-3.2067
31.5028
-2.11201
32.6854
-0.164109
31.7908
-7.40106
3.34959
-46.3828
33.7315
1.88304
31.4899
33.7563
-25.0794
27.0596
-17.8699
32.2719
-1.61887
30.354
21.4527
2.92946
10.3908
34.4826
30.9579
-0.140538
2.31301
33.733
2.32844
28.6958
-31.3623
-31.5379
31.3352
-19.2651
18.8104
-100.84
-44.9349
33.5164
-53.7443
-41.4545
2.31088
31.1344
-43.0735
-44.4739
2.46842
26.4054
-1.20389
-7.25318
30.6224
-10.4833
-17.358
6.32766
-13.8772
-62.0406
13.9524
-1.15848
25.034
0.472864
10.4802
24.7295
-64.6478
24.6573
5.48205
-3.15679
-47.6636
26.8695
4.72197
7.88343
27.8751
24.5466
33.6667
34.7278
-15.023
-1.39806
-13.657
2.63344
39.3289
26.7192
-87.804
29.5239
-29.8721
1.10479
-50.735
-0.330098
2.74652
11.6268
30.7687
31.6868
-48.1332
2.64227
-16.9666
-1.91343
27.2523
-48.2217
0.949616
32.9991
1.38667
1.10955
5.79072
16.4224
-13.2168
-40.6068
-22.18
2.97855
-2.63347
31.3928
32.4266
32.1381
-44.8421
27.6008
31.3206
2.88179
11.4048
-35.2477
32.4819
-14.2197
14.104
1.29052
34.1251
-2.04987
31.95
32.1904
-7.64907
-12.1766
33.2153
-16.453
21.8006
1.6704
-35.9979
-40.7797
33.1619
-2.86255
-17.875
-35.3423
-20.3025
23.3233
-38.7318
1.95699
1.53455
0.316643
-19.6481
33.973
-47.019
0.244977
34.8612
-43.5487
29.7669
25.6965
-19.0918
14.1025
1.71615
20.5043
30.4625
31.2488
-1.03892
-40.5269
-2.35401
-16.8485
-17.0898
-44.2263
21.6103
-39.8732
-41.5206
8.90335
14.5454
2.25783
-1.66515
6.32639
-12.6566
-7.35175
0.964059
-44.043
33.3936
-0.583848
31.4931
-34.9011
3.5342
1.89582
-62.3611
31.4391
-35.7653
-20.809
23.5533
30.2919
-27.0114
20.2102
-40.0717
33.0509
32.6473
34.796
25.8432
33.7726
31.8041
-18.493
33.7086
3.71771
33.3288
15.4457
28.4474
-22.903
29.3648
-32.9955
11.3406
34.4983
23.0337
34.2957
33.3734
34.6002
-28.1203
-3.82821
8.57872
2.09887
-20.3499
-39.3702
1.93419
-45.0914
2.59615
15.4198
32.8993
30.9635
-43.4656
-22.7232
22.84
-46.3377
-7.21147
34.5397
-2.81387
32.3635
-49.251
0.776021
-15.9541
-4.19043
21.4193
32.206
30.8648
25.3505
31.5584
-1.80275
21.1877
30.5595
-46.7149
5.89974
14.3477
29.3265
31.4849
-19.0309
32.0483
-16.8399
-7.39577
-12.5819
1.21867
-8.95097
32.481
-41.5753
33.3065
29.723
-26.7536
-30.0119
25.8108
1.45006
32.8999
1.24047
1.62828
-0.748914
16.0367
32.1446
28.6417
-38.4422
33.0746
32.6656
6.31797
3.49991
26.5308
26.6303
19.8718
33.1018
-22.4572
33.5618
-0.838742
33.7142
7.68935
7.34204
1.93203
-37.5697
-19.1503
28.787
-26.2816
-42.0509
-46.0029
2.0153
-40.161
34.5443
33.8332
-0.335409
-9.59836
28.0763
32.7311
-35.1125
31.8979
-1.74666
-37.1831
3.08981
32.348
-16.3208
31.1438
13.6597
-12.3287
-0.66222
43.5766
-0.893634
-45.0969
18.2031
3.31371
16.3238
30.7053
-1.39546
-0.601939
-1.89999
16.0583
32.9166
-25.9222
-3.49836
31.6105
25.0827
34.0991
1.85176
34.4754
25.9101
27.8124
-21.8933
33.6732
-16.0155
34.8271
-11.0361
30.8281
32.2956
33.9251
-0.742563
26.0029
32.5852
31.9033
7.62478
0.811277
31.379
23.9706
1.7349
-4.78635
-50.7277
0.914406
-37.1453
-45.3332
32.9797
33.5742
-27.2294
24.6972
-31.7013
-52.1794
-25.8374
-13.3691
-35.9571
34.7807
28.4328
-1.48641
33.8318
-5.61118
-0.816257
2.92516
-0.217089
1.89927
4.17706
-25.697
-100.278
-31.401
8.13102
-37.8236
29.1182
-3.71369
30.9833
28.4088
-21.3935
27.1206
-43.4172
34.6851
24.7253
20.2515
-2.00242
2.23425
16.4978
21.3968
33.6457
32.8217
-44.0827
27.9065
30.9257
-9.00725
32.8815
33.369
-1.13708
32.8034
-42.4139
4.05568
-18.5835
14.8393
-18.3194
33.0216
-32.1603
-15.9466
7.0475
-33.032
5.31224
-10.4806
1.19741
-18.6869
-40.3558
-25.6263
-0.641922
-1.44482
25.6428
32.4814
-38.2122
31.2373
-24.473
33.3052
32.1834
2.02456
33.6207
-1.26761
-33.1771
27.9866
-31.7768
24.2364
-49.5438
-16.0644
33.5937
33.8507
-50.5649
32.4905
-14.2884
34.623
-38.7944
22.8509
-31.6115
33.9222
12.0564
5.43006
-41.0616
-32.2186
1.71009
-0.122367
-6.96295
-5.50416
34.4049
-0.920556
33.0507
30.2895
31.8843
-43.2015
2.92413
-33.8318
30.4094
34.1808
32.1975
32.9081
-42.3672
-5.05118
1.62518
3.43636
-28.8576
2.91002
33.5275
31.3423
5.20256
-17.6195
-35.9837
34.0545
33.0435
1.8798
31.2077
-27.0656
8.71795
11.5493
34.2541
33.5294
-9.85348
26.5604
-1.45924
2.72889
34.6402
7.32487
-19.6827
2.46203
32.5994
-9.88151
23.7491
-50.1393
16.2257
-28.0628
-40.5648
6.43347
3.43958
-9.85579
0.809522
30.784
33.4187
32.4244
-1.11686
22.8853
-27.9179
8.40234
-13.1684
-16.8211
-0.314731
2.12665
14.6185
-11.7768
0.71078
28.8858
4.03773
-46.0708
-5.95239
-7.49413
-22.5217
23.2175
13.9086
21.3905
-48.2603
12.3566
-1.91935
32.455
30.939
-40.3043
0.0217326
34.7911
31.3385
-4.36336
32.1846
-28.2122
-26.5695
5.69221
26.4903
-9.29219
30.9014
-48.0451
-40.1174
11.0576
-30.3655
-1.51725
33.541
-1.83139
-23.4747
14.6269
31.2217
-27.8323
-38.2382
16.6818
-13.8929
-0.801284
-32.9513
-10.6317
3.2328
-3.68605
34.1156
33.6554
25.1477
14.0076
29.3981
-6.39452
1.5569
2.42143
-40.4555
-15.2274
-36.2057
26.4184
33.6578
32.8132
-21.2154
17.2451
2.79994
-1.24174
29.4114
-26.6844
-38.8974
-14.5223
4.11082
-16.1144
20.4288
34.3541
33.1892
-25.6327
34.4218
-40.5934
-0.705174
4.19913
-17.5074
33.811
-41.0056
32.8578
34.6818
8.05292
-48.8496
-2.71044
31.6804
19.798
20.005
-1.6201
21.5042
17.7118
-37.659
-32.9112
-1.00712
32.3836
-3.22186
33.5527
-42.9764
-1.68164
21.1553
-0.385385
29.3473
-26.3672
26.8765
-1.64444
29.5022
33.7637
31.6139
-38.4745
19.8949
-36.9294
3.58826
-14.4781
34.3241
-49.8667
-12.4299
-8.48686
-4.31639
33.6316
6.55496
-13.5653
1.34138
-24.4636
1.91292
7.58942
-0.0300403
-3.16339
-16.578
-13.269
1.19654
-43.6825
-17.3045
-26.1678
-38.023
-8.68085
-2.54004
34.3584
-6.49564
0.909235
-29.5448
-11.0278
-43.9475
21.8637
-12.2785
10.5232
-0.948418
-7.58349
-22.7072
20.4096
-36.0626
-12.5906
-11.2221
-26.8787
33.6663
-41.0268
3.47657
-0.306788
-43.152
-11.8292
12.1334
18.438
1.4857
-40.5259
5.66879
-30.6958
-40.494
33.0123
-2.41876
34.4474
1.24232
-14.1448
31.3034
1.81814
34.4984
-30.0477
1.68821
32.8312
1.57877
13.6626
15.0689
3.99212
-23.8257
29.1112
-43.8106
-27.6027
-48.2636
11.8313
32.9906
29.8041
-42.3067
-17.0624
2.04868
-58.2841
23.7719
-43.6506
13.0168
-18.5112
0.253665
-2.66236
31.2889
-14.6356
31.1364
-28.5366
31.3181
-2.60096
1.95734
4.33109
22.561
12.05
-23.1013
-1.8797
-30.4932
32.0931
18.3101
-16.1672
-38.4862
0.221677
27.8974
0.856518
1.87388
30.9269
-41.235
-25.5341
16.3905
-2.1436