/*--------------------------------*- C++ -*----------------------------------*\
| =========                 |                                                 |
| \\      /  F ield         | OpenFOAM: The Open Source CFD Toolbox           |
|  \\    /   O peration     | Version:  2.3.1                                 |
|   \\  /    A nd           | Web:      www.OpenFOAM.org                      |
|    \\/     M anipulation  |                                                 |
\*---------------------------------------------------------------------------*/
FoamFile
{
    version     2.0;
    format      ascii;
    class       volScalarField;
    location    "0.93";
    object      epsilon;
}
// * * * * * * * * * * * * * * * * * * * * * * * * * * * * * * * * * * * * * //

dimensions      [0 2 -3 0 0 0 0];

internalField   nonuniform List<scalar> 
9648
(
2429.49
2430.43
2428.74
2422.6
2411.66
2395.46
2374.64
2348.74
2317.68
2281.53
2240.5
2194.68
2144.87
2092
2036.82
1980.23
1923.31
1867.07
1812.19
1759.21
1708.69
1660.98
1616.25
1574.7
1536.39
1501.22
1469.12
1440.01
1413.8
1390.32
1369.44
1351.04
1334.97
1321.09
1309.33
1299.52
1291.56
1285.37
1280.91
1278.09
1276.8
1277.05
1278.78
1281.92
1286.53
1292.63
1300.21
1309.22
1319.77
1331.99
1345.88
1361.42
1378.84
1398.11
1419.18
1441.87
1465.91
1490.89
1516.05
1540.81
1564.75
605.679
600.071
592.337
583.541
575.679
571.218
569.27
569.123
570.828
574.425
579.727
586.095
593.122
600.429
607.67
614.463
620.618
626.092
630.871
634.886
638.239
640.999
643.222
645.032
646.566
647.891
649.069
650.181
651.316
652.528
653.845
655.327
657.019
658.919
661.064
663.484
666.17
669.123
672.36
675.909
679.762
683.906
688.351
693.107
698.157
703.53
709.221
715.2
721.448
727.963
734.694
741.611
748.661
755.872
763.1
770.322
777.382
784.382
791.186
797.718
803.94
237.971
242.479
248.424
256.188
265.634
276.603
289.203
303.155
318.453
334.743
351.853
369.349
386.9
404.168
420.859
436.729
451.604
465.39
478.028
489.502
499.842
509.085
517.314
524.62
531.104
536.857
541.969
546.535
550.632
554.337
557.717
560.835
563.74
566.479
569.093
571.611
574.065
576.472
578.853
581.224
583.601
586.001
588.423
590.876
593.362
595.875
598.41
600.948
603.483
605.992
608.468
610.909
613.272
615.61
617.809
619.965
621.982
623.995
625.846
627.577
629.182
131.336
142.322
154.772
168.71
184.059
200.754
218.738
237.829
257.819
278.383
299.225
319.982
340.342
360.005
378.727
396.301
412.596
427.534
441.082
453.249
464.067
473.591
481.909
489.116
495.323
500.639
505.166
509.005
512.241
514.963
517.248
519.167
520.785
522.152
523.315
524.316
525.19
525.961
526.656
527.295
527.896
528.479
529.056
529.636
530.223
530.817
531.42
532.026
532.635
533.239
533.819
534.399
534.953
535.493
535.969
536.44
536.901
537.344
537.747
538.119
538.496
94.9033
108.519
123.891
140.898
159.411
179.295
200.353
222.329
244.919
267.748
290.47
312.72
334.198
354.635
373.826
391.584
407.816
422.481
435.568
447.125
457.2
465.855
473.197
479.329
484.384
488.484
491.743
494.271
496.154
497.489
498.362
498.844
499.014
498.924
498.62
498.149
497.552
496.852
496.079
495.251
494.387
493.512
492.642
491.791
490.959
490.154
489.38
488.633
487.907
487.207
486.515
485.833
485.17
484.514
483.861
483.212
482.592
481.976
481.348
480.719
480.095
81.0224
96.2431
113.528
132.687
153.478
175.674
198.96
222.981
247.349
271.625
295.437
318.395
340.24
360.715
379.688
396.96
412.475
426.245
438.275
448.667
457.488
464.792
470.729
475.383
478.929
481.509
483.237
484.249
484.609
484.428
483.803
482.795
481.504
479.984
478.265
476.408
474.467
472.445
470.382
468.296
466.196
464.114
462.072
460.085
458.146
456.265
454.444
452.694
451.001
449.353
447.748
446.174
444.633
443.122
441.632
440.192
438.792
437.407
436.022
434.646
433.263
76.4644
93.0529
111.943
132.882
155.502
179.513
204.49
229.999
255.607
280.757
305.12
328.227
349.91
369.909
388.242
404.601
418.99
431.508
442.121
451.041
458.354
464.051
468.39
471.373
473.259
474.209
474.318
473.779
472.592
470.892
468.808
466.352
463.676
460.821
457.779
454.644
451.5
448.294
445.103
441.93
438.765
435.666
432.647
429.73
426.883
424.126
421.466
418.897
416.423
414.022
411.682
409.389
407.159
404.945
402.769
400.654
398.597
396.593
394.588
392.562
390.559
76.3156
94.1962
114.545
137.031
161.143
186.544
212.776
239.345
265.772
291.355
315.866
338.648
359.749
378.827
396.254
411.419
424.41
435.485
444.419
451.653
457.317
461.217
463.909
465.081
465.216
464.48
462.924
460.865
458.127
454.928
451.458
447.603
443.625
439.521
435.234
430.914
426.651
422.303
418.066
413.898
409.742
405.687
401.798
398.047
394.374
390.857
387.432
384.152
380.976
377.907
374.916
371.992
369.132
366.269
363.463
360.759
358.088
355.532
352.938
350.304
347.763
78.2464
97.1594
118.803
142.422
167.811
194.168
221.173
248.588
275.34
301.158
325.444
347.764
367.882
385.723
402.018
415.897
427.414
436.895
444.363
449.927
453.714
455.771
456.567
456.111
454.558
452
448.895
445.375
441
436.36
431.443
426.352
421.352
416.019
410.384
405.068
399.602
394.093
388.908
383.618
378.369
373.115
368.524
363.961
359.406
355.313
350.991
347.095
343.041
339.281
335.424
331.909
328.481
324.9
321.429
318.274
314.866
312.017
308.762
305.389
302.393
1587.99
1610.4
1631.7
1651.86
1671.07
1689.75
1708.01
1726.14
1744.1
1761.08
1776.74
1791.64
1806.02
1820.23
1834.5
1849.47
1865.71
1883.71
1903.87
1926.71
1952.03
1979.33
2008.17
2038.12
2068.84
2100.25
2132.5
2165.27
2198.51
2232.25
2266.67
2301.65
2337.19
2373.46
2410.46
2448.11
2486.5
2525.77
2565.98
2606.99
2648.83
2691.74
2735.7
2780.56
2826.63
2873.8
2921.94
2971.11
3021.52
3073.21
3126.11
3180.11
3235.76
3292.67
3351.19
3411.14
3473.22
3537.44
3603.79
3672.15
3742.65
809.828
815.785
821.57
827.104
832.412
837.61
842.84
847.955
853.165
858.127
863.046
867.859
872.679
877.528
882.4
887.337
892.359
897.51
902.786
908.163
913.605
919.051
924.479
929.862
935.19
940.443
945.552
950.49
955.247
959.85
964.314
968.614
972.771
976.804
980.71
984.491
988.169
991.737
995.197
998.549
1001.81
1005
1008.09
1011.09
1014.02
1016.86
1019.6
1022.24
1024.8
1027.28
1029.67
1031.97
1034.18
1036.45
1038.54
1040.75
1042.91
1045.3
1047.59
1049.94
1052.42
630.757
632.255
633.803
635.322
636.816
638.215
639.688
641.066
642.429
643.648
644.816
645.931
647.062
648.164
649.24
650.278
651.272
652.22
653.112
653.935
654.676
655.336
655.9
656.367
656.731
656.989
657.136
657.17
657.083
656.88
656.552
656.104
655.539
654.853
654.061
653.158
652.15
651.032
649.806
648.471
647.031
645.492
643.86
642.121
640.286
638.345
636.286
634.102
631.8
629.384
626.826
624.174
621.39
618.505
615.437
612.293
609.068
605.776
602.403
598.983
595.576
538.851
539.21
539.539
539.858
540.146
540.406
540.629
540.835
540.98
541.024
541.004
540.94
540.812
540.6
540.332
539.996
539.593
539.117
538.559
537.911
537.176
536.351
535.439
534.437
533.339
532.14
530.84
529.44
527.939
526.338
524.636
522.827
520.912
518.899
516.794
514.599
512.312
509.934
507.459
504.892
502.238
499.511
496.712
493.851
490.925
487.934
484.858
481.697
478.444
475.12
471.694
468.177
464.581
460.892
457.084
453.163
449.177
445.111
440.994
436.863
432.741
479.477
478.836
478.173
477.481
476.762
475.982
475.148
474.308
473.464
472.57
471.64
470.664
469.627
468.53
467.37
466.143
464.878
463.539
462.126
460.634
459.067
457.432
455.734
453.974
452.147
450.247
448.271
446.22
444.099
441.909
439.644
437.295
434.863
432.352
429.774
427.131
424.419
421.631
418.763
415.819
412.811
409.746
406.641
403.509
400.357
397.185
393.958
390.703
387.385
384.025
380.602
377.107
373.561
369.949
366.249
362.454
358.583
354.633
350.666
346.69
342.722
431.895
430.519
429.136
427.709
426.257
424.771
423.242
421.695
420.103
418.484
416.825
415.14
413.413
411.632
409.803
407.934
406.035
404.07
402.034
399.93
397.765
395.551
393.3
391.02
388.696
386.321
383.894
381.417
378.906
376.363
373.782
371.14
368.439
365.674
362.871
360.028
357.13
354.18
351.157
348.065
344.917
341.724
338.511
335.302
332.115
328.961
325.784
322.62
319.43
316.256
313.049
309.785
306.505
303.164
299.782
296.282
292.724
289.098
285.489
281.847
278.234
388.574
386.599
384.615
382.616
380.575
378.488
376.366
374.238
372.071
369.85
367.613
365.365
363.08
360.765
358.401
356.015
353.625
351.181
348.666
346.075
343.426
340.753
338.062
335.381
332.685
329.949
327.18
324.372
321.572
318.787
316.036
313.246
310.438
307.58
304.725
301.848
298.914
295.948
292.921
289.828
286.675
283.461
280.235
277.028
273.864
270.807
267.736
264.748
261.757
258.873
255.998
253.048
250.114
247.131
244.147
240.996
237.838
234.58
231.417
228.194
225.027
345.221
342.735
340.236
337.772
335.276
332.786
330.217
327.712
325.17
322.51
319.85
317.226
314.553
311.852
309.069
306.312
303.624
300.886
298.078
295.122
292.089
289.074
286.039
283.044
280.107
277.13
274.122
271.02
267.948
264.96
262.146
259.318
256.565
253.78
251.073
248.38
245.558
242.677
239.791
236.892
233.887
230.76
227.619
224.485
221.376
218.489
215.53
212.756
209.975
207.474
205.04
202.461
199.941
197.364
194.851
192.064
189.349
186.471
183.834
181.085
178.439
299.156
296.161
292.995
290.174
287.185
284.615
281.692
279.192
276.647
273.86
271.062
268.516
265.712
262.918
259.841
256.75
254.012
251.355
248.691
245.752
242.4
239.265
236.038
232.791
229.735
226.727
223.815
220.558
217.097
213.833
210.982
208.146
205.54
202.987
200.778
198.632
196.157
193.413
190.769
188.319
185.8
182.888
179.916
177.011
174.012
171.396
168.465
165.917
163.247
161.262
159.387
157.183
155.183
153.091
151.162
148.699
146.466
143.908
141.848
139.615
137.6
3816.32
3892.73
3971.23
4051.89
4135.14
4221.87
4311.58
4404.18
4499.41
4597.43
4698.6
4801.55
4906.72
5018.71
5159.53
5288.72
5417.06
5547.86
5681.11
5816.79
5955.25
6096.55
6240.3
6386.73
6535.58
6686.13
6838.09
6991.19
7145.24
7299.33
7453.37
7606.73
7758.53
7908.15
8055.06
8197.82
8335.26
8465.63
8579.89
8663.85
8720.77
8752.15
8757.85
8736.14
8685.45
8603.32
8485.73
8328.07
8126.02
7874.99
7568.76
7200.5
6765.03
6255.27
5625.16
4702.41
4293.35
4089.64
4009.49
3969.74
3885.43
1055.15
1057.99
1061.05
1064.18
1067.42
1070.93
1075
1079.49
1084.48
1089.79
1095.61
1099.21
1100.94
1104.27
1108.28
1113.77
1119.42
1124.99
1130.7
1136.65
1142.88
1149.41
1156.22
1163.31
1170.67
1178.27
1186.16
1194.34
1202.87
1211.8
1221.18
1231.06
1241.58
1252.84
1264.97
1278.19
1292.7
1308.84
1328.49
1358.85
1395.51
1434.81
1477.33
1523.2
1573.1
1627.34
1686.02
1749.4
1817.76
1890.63
1967.14
2045.66
2124.71
2203.02
2273.01
2339.12
2399.94
2487.45
2592.55
2699.4
2649.43
592.152
588.739
585.297
581.842
578.342
574.88
571.54
568.368
565.277
562.178
558.599
553.128
547.47
542.632
538.31
534.612
531.007
527.3
523.53
519.749
516.001
512.284
508.593
504.926
501.28
497.653
494.053
490.484
486.965
483.493
480.089
476.775
473.562
470.495
467.601
464.928
462.524
460.46
458.897
458.298
458.874
463.843
472.544
484.562
500.361
520.597
545.988
577.554
616.289
663.267
719.5
785.789
863.37
952.579
1053.19
1161.82
1270.03
1388.58
1534.06
1722.27
1908.82
428.631
424.538
420.449
416.349
412.211
408.084
404.019
400.066
396.104
392.066
387.208
381.372
375.798
370.771
366.136
361.855
357.683
353.523
349.358
345.214
341.096
336.986
332.891
328.816
324.756
320.721
316.712
312.729
308.774
304.85
300.958
297.103
293.298
289.551
285.874
282.286
278.806
275.45
272.248
269.258
266.562
264.472
263.704
264.611
267.104
271.53
278.352
288.225
301.995
320.684
345.703
378.373
420.354
472.756
536.214
608.748
686.37
770.661
870.062
998.383
1158.2
338.78
334.906
331.057
327.191
323.263
319.346
315.457
311.664
307.854
303.949
299.253
294.098
289.274
284.865
280.712
276.798
272.982
269.254
265.577
261.963
258.389
254.806
251.243
247.706
244.186
240.696
237.233
233.799
230.384
226.991
223.62
220.277
216.967
213.699
210.482
207.326
204.242
201.241
198.332
195.532
192.869
190.403
188.268
186.825
186.157
186.305
187.491
190.018
194.32
200.937
210.665
224.511
243.671
269.403
302.708
343.706
391.04
444.289
505.789
581.187
676.709
274.628
271.148
267.703
264.259
260.682
257.117
253.555
250.123
246.677
243.181
238.979
234.614
230.557
226.859
223.308
219.925
216.599
213.418
210.323
207.325
204.379
201.395
198.446
195.542
192.65
189.798
186.965
184.163
181.365
178.581
175.806
173.056
170.331
167.646
165.004
162.417
159.89
157.435
155.051
152.751
150.547
148.461
146.531
144.847
143.647
142.831
142.521
142.837
143.986
146.245
149.984
155.727
164.145
176.009
192.19
213.252
239.331
270.51
307.431
351.784
406.694
221.785
218.745
215.75
212.806
209.611
206.451
203.238
200.239
197.235
194.273
190.63
187.016
183.649
180.66
177.7
174.883
172.051
169.434
166.906
164.496
162.142
159.693
157.324
155.043
152.757
150.524
148.282
146.081
143.852
141.636
139.406
137.214
135.042
132.922
130.835
128.809
126.833
124.925
123.079
121.311
119.623
118.037
116.561
115.23
114.108
113.332
112.818
112.631
112.874
113.678
115.232
117.787
121.661
127.287
135.136
145.703
159.404
176.57
197.671
223.503
255.357
175.552
172.95
170.437
168.072
165.28
162.563
159.697
157.188
154.678
152.325
149.219
146.273
143.497
141.183
138.75
136.499
134.113
132.048
130.044
128.144
126.312
124.292
122.434
120.776
119.048
117.366
115.62
113.96
112.205
110.471
108.686
106.989
105.304
103.706
102.12
100.608
99.1185
97.7036
96.3422
95.0723
93.872
92.7772
91.7889
90.9024
90.1492
89.6311
89.3029
89.1579
89.2608
89.6827
90.521
91.8976
93.9815
96.9691
101.109
106.688
114.004
123.393
135.227
150.01
168.407
135.035
132.806
130.793
129.087
126.702
124.453
121.886
119.952
117.972
116.255
113.632
111.254
108.925
107.255
105.234
103.552
101.516
100.009
98.4593
96.9157
95.5177
93.7753
92.3729
91.4283
90.161
88.867
87.4538
86.2868
84.843
83.4694
81.9548
80.7247
79.4333
78.3224
77.1315
76.0611
74.8966
73.8654
72.8965
72.0574
71.2945
70.629
70.0812
69.6194
69.192
68.867
68.7227
68.6829
68.8577
69.1702
69.8578
70.8393
72.321
74.2638
76.88
80.2056
84.5295
89.9469
96.8491
105.506
116.268
3740.52
3581.64
3411.15
3232.09
3053.47
2880.62
2717.01
2567.1
2434.61
2321.55
2228.3
2153.76
2096.28
2053.61
2023.03
2001.97
1988.27
1980.39
1976.91
1976.64
1978.9
1983.17
1988.97
1996.24
2004.92
2014.8
2025.83
2038
2051.38
2065.85
2081.37
2097.88
2115.27
2133.32
2151.9
2170.74
2189.53
2207.98
2225.89
2242.93
2258.67
2272.87
2285.36
2295.94
2304.69
2311.87
2317.59
2322.09
2325.92
2329.88
2334.35
2339.56
2346.11
2354.21
2363.6
2374
2385.07
2396.73
2407.83
2417.3
2424.39
2457.63
2254.44
2055.5
1865.43
1698.25
1543.69
1400.7
1270.27
1152.65
1048.71
958.59
881.75
817.207
763.456
720.242
686.753
661.026
641.188
625.738
613.61
604.059
596.523
590.69
586.127
582.861
580.611
579.353
579.059
579.698
581.266
583.777
587.213
591.573
596.827
602.922
609.767
617.258
625.295
633.718
642.327
650.86
659.012
666.368
672.464
676.885
679.224
679.125
676.422
671.214
663.873
654.998
645.411
636.094
627.943
621.434
617.013
614.469
613.475
612.973
611.995
609.649
1993.61
1979.14
1876.34
1702.44
1523.53
1349.95
1180.93
1027.89
891.043
769.908
665.46
577.153
503.816
444.156
397.231
361.234
333.427
311.419
293.971
280.244
269.415
260.826
253.949
248.436
243.932
240.289
237.343
235.027
233.28
232.069
231.366
231.166
231.45
232.184
233.343
234.89
236.786
238.983
241.426
244.038
246.726
249.384
251.887
254.075
255.791
256.839
257.025
256.177
254.192
251.022
246.758
241.703
236.306
231.167
226.829
223.932
222.807
223.577
225.995
229.637
233.95
1324.25
1471.28
1567.93
1583.76
1514.2
1388.79
1220.21
1050.55
893.743
749.172
623.485
518.249
431.496
362.014
307.524
265.167
232.236
206.226
185.793
169.888
157.578
148.089
140.766
135.068
130.567
126.958
124.045
121.689
119.798
118.304
117.168
116.366
115.868
115.637
115.636
115.829
116.18
116.65
117.197
117.773
118.326
118.805
119.149
119.301
119.206
118.81
118.068
116.952
115.455
113.579
111.363
108.914
106.407
104.096
102.302
101.489
102.102
104.421
108.52
114.332
121.931
793.552
929.26
1072.75
1200.1
1281.49
1299.54
1249.4
1143.86
1007.52
853.11
706.595
580.674
472.423
384.095
314.03
258.576
215.123
181.137
154.594
134.076
118.398
106.583
97.7443
91.1031
86.0421
82.1164
79.0366
76.6027
74.6776
73.1547
71.9728
71.0963
70.4866
70.0995
69.8934
69.8305
69.8741
69.9876
70.1346
70.2748
70.3658
70.3675
70.241
69.95
69.463
68.7569
67.8246
66.6708
65.3053
63.7599
62.0867
60.3732
58.7617
57.4352
56.6552
56.7256
58.079
61.1405
66.212
73.6131
83.2481
475.238
560.564
663.647
780.446
898.701
1000.57
1065.82
1079.11
1038.36
951.492
835.459
709.333
582.072
471.051
380.212
305.179
245.759
198.755
161.342
132.456
110.654
94.5667
82.8506
74.2859
67.9344
63.1389
59.4795
56.6697
54.5069
52.829
51.5433
50.5963
49.9363
49.5078
49.2627
49.1597
49.1594
49.2267
49.3265
49.4218
49.4745
49.4518
49.32
49.0512
48.6174
48.0043
47.2084
46.2416
45.1132
43.8528
42.5063
41.1517
39.907
38.9342
38.4732
38.8501
40.5072
43.909
49.4891
57.5394
68.1038
294.977
344.627
406.664
482.583
571.446
668.525
763.797
843.068
891.954
899.958
864.947
794.241
699.828
595.683
493.529
396.952
317.273
252.188
197.917
155.484
123.311
99.8838
83.2063
71.2769
62.6155
56.2005
51.4076
47.8161
45.1243
43.0755
41.527
40.3946
39.6082
39.0928
38.7888
38.6462
38.6214
38.6774
38.7783
38.8884
38.9707
38.9985
38.9384
38.7675
38.4552
37.9943
37.3793
36.625
35.7336
34.7363
33.6696
32.6051
31.6473
30.9385
30.7014
31.2732
33.0786
36.6541
42.5382
51.1003
62.4556
191.386
220.175
256.351
301.549
357.104
423.251
498.245
577.075
651.777
711.592
746.02
748.721
719.829
663.76
589.26
504.52
419.503
339.372
263.861
203.053
154.96
120.055
95.6641
78.4215
65.9894
56.8485
50.1007
45.1569
41.5513
38.8481
36.8286
35.353
34.3254
33.6381
33.2125
32.9838
32.8997
32.918
33.0008
33.1109
33.2103
33.279
33.2825
33.2013
32.9985
32.6747
32.2181
31.6492
30.9615
30.1876
29.3574
28.5397
27.8284
27.3527
27.3274
28.0719
30.0169
33.7773
39.9703
49.072
61.2396
129.812
146.663
167.771
194.406
227.638
268.511
317.415
373.845
435.32
497.795
553.4
596.071
619.43
620.707
598.266
554.297
494.727
423.698
350.298
275.648
206.329
156.128
121.174
96.2527
77.8801
64.3462
54.3796
47.2186
42.1102
38.3222
35.5326
33.4839
32.0537
31.0773
30.4446
30.0631
29.8669
29.8032
29.8317
29.9066
29.9935
30.0763
30.1194
30.1027
29.9866
29.7725
29.4499
29.0348
28.5203
27.9333
27.3068
26.7051
26.2216
25.9738
26.1642
27.1098
29.2446
33.2235
39.717
49.3271
62.1897
1.5342
215.338
192.772
2.28364
2.20742
0.202629
0.000719907
91.0231
0.000796356
0.0146671
93.9906
6.83621
0.000720811
245.277
0.165893
135.049
0.000757389
92.3051
118.538
0.000716213
2.28527
233.983
202.901
0.000766963
0.000781097
0.209205
0.000717322
7.894
0.00075316
0.000819715
6.40395
0.000743066
0.00876899
63.5681
3.91592
112.465
72.0663
15.2367
0.000723245
44.7725
65.5066
29.0545
0.000743323
102.635
171.815
0.713515
0.000869116
0.00862915
1.32128
7.04087
372.065
359.764
0.000698528
0.0010294
0.0631625
0.0356205
0.000816822
9.16371
58.9625
287.022
141.533
0.000905818
1.5497
0.0249441
203.615
2.38254
38.7506
64.0731
0.001132
0.000747677
9.76359
39.2214
56.3809
0.0376688
0.0514418
79.6397
232.808
53.3293
0.000700233
5.35821
0.0023403
47.5187
0.0128496
107.796
0.000749936
8.33157
0.000791058
36.9145
0.011086
0.00136692
0.229537
0.000698553
0.000933678
310.999
145.259
0.000867188
1.57367
1.84459
0.00184731
208.359
1.01727
31.9144
5.72401
0.000696972
0.000725946
0.000694325
1.39612
0.20931
0.000748
175.351
223.923
0.0047798
235.086
26.833
115.733
53.7704
28.3129
0.000977434
0.110155
0.0011054
0.00162207
188.852
0.00308379
289.082
419.737
28.3731
0.000746033
6.88577
6.76843
0.00074394
0.029917
0.026813
92.8934
0.00187073
62.9767
0.000748858
0.000723795
399.269
354.627
0.000748828
0.759827
151.001
0.229844
0.902046
26.7
119.742
0.304016
27.6182
0.00525364
278.421
11.1305
0.0381843
47.1552
105.351
190.585
0.000765983
0.000757185
0.508441
0.000696003
41.4497
0.116018
0.00144858
0.000740423
0.000747499
0.00075857
38.8964
71.2788
34.6908
0.000768689
286.551
307.276
407.102
165.597
0.00692061
157.743
43.3201
28.2635
0.000750055
0.00169575
195.253
67.8193
29.8532
73.3101
0.000745371
0.00084194
238.949
0.0295089
2.46418
0.000757825
0.000867201
0.17211
0.000797764
336.544
3.87494
0.000691634
0.672075
92.1045
143.632
0.0011976
52.8363
0.000746639
0.000750212
107.426
32.2071
304.445
0.00121455
0.000800607
0.00286145
41.639
76.9695
9.46657
124.824
14.3158
233.18
0.821316
84.551
82.6963
27.3729
10.4106
39.2925
0.00144197
0.0293208
0.000747681
0.000726534
28.4095
0.0100019
0.0117262
0.00197831
0.00628097
45.2303
195.76
0.0111266
173.155
7.26292
2.96407
0.000732457
0.534336
37.1147
7.00636
0.00106314
13.1936
35.8431
0.864766
2.48645
272.597
7.4468
5.05265
122.211
0.000955044
0.000724115
0.00102655
0.00428395
28.7392
0.000784518
0.00249394
0.000723643
1.70522
75.9909
76.4985
49.0373
12.1094
11.0693
327.471
0.00113977
48.2104
98.9475
0.000743916
80.4484
0.000749607
329.756
1.7061
50.5165
0.00154708
0.000748504
19.5025
7.68901
0.000759626
0.000750564
0.000755358
0.000751479
1.17842
36.0491
43.2636
0.0108668
0.000760435
0.000724411
0.000696065
102.531
1.15783
0.00119013
19.0857
0.116165
0.0954824
0.000692348
0.774229
0.000760156
0.11042
48.0404
273.91
3.18841
0.000978049
0.00184766
54.1044
0.354168
131.831
324.524
0.000838051
0.000739921
0.000733978
155.685
0.000773561
136.048
0.000749849
24.7977
12.3913
0.0242418
138.102
240.643
0.00127156
49.8665
50.5903
90.4487
91.1909
9.70734
352.448
38.6726
71.7872
142.093
94.363
56.5838
0.3354
340.784
281.644
62.4353
33.5862
0.0010024
271.387
123.333
230.506
0.0187752
0.000867307
0.000745777
0.000811581
0.699007
1.55221
6.36057
0.124314
0.000726298
171.925
0.000746388
26.8415
23.2178
193.189
41.9468
17.9656
0.00193009
0.00110615
0.462173
84.6208
0.00436509
8.10511
259.098
35.9774
81.2619
194.843
61.5209
0.000821283
284.416
144.297
97.7387
0.000750479
195.83
153.741
0.000781424
30.5469
0.000751612
400.009
170.561
28.0943
79.6895
111.589
150.214
0.000764662
149.196
0.000964687
68.5981
78.4507
28.2871
280.692
3.55814
0.491127
2.53418
0.0011
441.867
1.50326
0.00290243
0.00182705
256.152
0.000953126
89.6838
0.000737593
0.000750004
0.00183722
31.3425
0.192384
21.4185
0.00197789
82.0744
0.306758
222.065
281.057
37.7049
340.994
0.000793824
280.492
40.6412
0.000742265
75.8863
25.196
0.000696672
0.000727437
116.265
0.00206108
26.6995
0.458056
74.9087
0.0176694
3.37612
39.3907
119.484
32.1943
82.8094
69.5752
0.0010022
0.0339751
28.8088
21.7706
332.734
342.679
142.745
0.0843682
124.733
123.675
3.33602
93.1139
46.0448
25.5306
0.000822699
81.4746
387.58
0.0010757
90.9078
18.4305
46.7127
0.0152938
0.0891036
268.01
0.00193259
328.811
0.00124637
1.82552
0.000738015
7.50742
169.861
0.554301
0.00132079
0.000902582
74.7582
26.8571
0.366754
5.49711
294.27
545.145
0.00139491
11.3003
27.2769
71.4538
26.2559
450.854
28.8107
152.617
49.87
3.47415
7.16811
303.634
54.5196
356.47
172.368
0.241121
172.284
59.7137
0.000791958
93.7548
29.2118
13.1422
0.00978316
96.9708
45.4367
4.00696
53.4811
0.00159202
0.000747178
0.154234
28.5406
107.229
73.2115
0.00075021
0.000731277
0.000743868
28.2603
0.0278992
0.000745737
0.244895
94.2623
273.148
0.00440232
0.00453065
0.000721515
0.00073873
0.00194178
29.2986
101.966
21.3901
1.86716
300.913
389.096
0.00151005
62.1403
27.9124
28.4678
74.0705
442.844
0.00082175
0.00446023
0.000750896
398.757
0.764977
0.000726896
10.1916
0.349033
303.808
0.000759334
327.917
8.33729
0.0660445
202.785
0.000748083
0.000736438
0.00102741
408.499
50.9859
130.896
322.383
10.9978
28.6509
0.000708818
0.00184522
0.465085
0.0152437
0.0163229
179.532
40.9663
0.00074785
25.7797
45.2329
186.225
411.099
0.00294443
414.385
0.00182647
0.0217634
146.961
0.000739253
145.415
0.000759584
0.000791522
0.0211582
34.4211
2.89848
325.63
62.2007
0.000886206
28.4841
501.601
0.2095
2.21636
7.42665
0.000774722
0.000759611
0.00230689
133.845
5.56733
0.000783491
272.959
278.16
217.355
0.110404
59.9572
0.00108989
28.8821
0.543916
0.130497
122.71
29.765
151.936
174.555
0.000761031
0.000711609
0.00494896
73.2314
104.737
5.75248
0.00658042
0.000772643
0.000749913
0.00344047
0.128316
0.00211327
72.7208
21.3978
0.00498477
26.4096
173.957
0.00076051
38.1577
0.00074259
3.30526
0.000762491
0.0132186
37.8313
0.0116317
0.000744595
3.9498
367.571
265.734
0.000731043
0.000748426
1.51239
0.138297
0.000747742
99.319
0.000905209
31.992
380.657
28.5616
89.0728
298.02
132.353
337.741
0.000747591
0.00250236
0.0111147
292.813
61.4586
202.768
5.44888
4.3304
99.4706
165.253
128.941
4.89806
46.8503
0.000750543
1.49572
39.6796
31.7688
310.329
27.0252
1.13411
39.2842
0.203318
0.0098883
40.0049
0.000750997
174.044
0.000887326
2.7613
294.137
187.421
2.93471
0.00250907
7.0535
0.000768714
0.000736234
0.198373
0.0134748
50.3717
0.00874553
28.6893
0.00075052
0.0190043
0.000725464
94.9004
0.00182003
86.0011
303.714
0.0142879
169.33
377.23
0.00075699
99.7758
221.984
0.000785599
288.54
0.272261
0.00082519
0.000791544
284.267
0.000731613
0.00111857
0.121625
0.215026
437.116
271.62
0.000751496
0.00075457
9.12183
26.6816
0.00709182
2.34933
21.3029
0.000747674
0.000953755
0.000912665
169.164
272.219
3.38704
297.573
0.0171397
26.7102
0.000772127
0.00717312
0.0159961
0.0434757
0.000749671
298.128
0.00074193
0.0160463
0.000771723
1.32392
0.014784
0.0393324
2.52327
4.95014
35.0215
2.18423
8.89926
27.9294
189.079
0.000816242
164.013
328.956
12.3917
74.0235
0.000761747
268.328
80.7789
0.000745639
415.273
66.1986
0.00619461
0.0242076
160.84
158.394
0.220246
317.84
413.597
4.3411
436.445
267.093
124.659
50.6623
21.2432
28.1423
266.518
294.014
0.014257
312.039
42.1922
405.068
0.000813346
1.54902
2.79913
225.791
166.804
0.0118203
445.753
195.559
6.97068
0.0546281
2.79449
28.1345
0.00154653
28.2741
446.269
0.0293362
222.014
14.1928
93.1887
190.592
0.000746045
0.00167903
7.08683
5.14696
0.0133032
0.000748304
0.838292
1.83244
0.00120816
0.000758695
269.836
6.74142
53.1658
10.4072
0.00314396
0.00107519
0.412934
87.2216
0.000823851
21.1698
29.9726
1.8363
167.233
0.00100491
0.399846
0.000740602
1.79652
85.2759
0.00162255
0.184856
40.8721
168.1
0.501401
92.0937
5.14883
0.905034
0.0009875
32.6846
336.074
0.000744068
0.000755796
148.608
0.0157744
0.000758245
73.0586
2.12363
165.333
29.6267
38.5479
0.310834
16.5362
203.577
165.536
243.276
0.000763212
274.253
0.000969359
38.2581
0.000797022
0.00146761
45.0538
0.00209581
255.48
0.0121915
0.032247
45.7753
7.80785
0.57071
0.000897065
187.181
0.000886634
0.000719237
347.99
162.675
39.0823
28.6903
0.000813686
0.000683549
18.4006
149.485
0.000732422
221.398
37.5902
0.000752881
168.595
0.000702658
3.39281
6.21322
10.38
1.49636
77.1676
21.1698
0.000700892
271.344
330.633
0.000744504
0.0133346
28.9232
0.000708984
239.335
159.73
404.256
0.00074554
0.000727848
199.745
0.0966543
0.000836743
30.9178
81.2851
254.816
0.000720904
0.000793905
0.0157452
0.0116309
0.000746823
0.00203066
124.125
50.7029
0.00074665
13.1964
0.000747042
10.1906
0.00109073
0.000866878
26.0988
0.000748659
0.344576
0.000730516
50.0894
2.1254
20.1821
185.549
361.472
146.546
4.96722
14.9061
0.000758249
5.50999
279.093
530.91
0.155774
0.000826538
129.674
0.000746083
0.116745
0.000720596
447.276
15.2254
3.17576
199.03
52.3252
5.037
78.6332
7.85303
224.187
109.977
0.000773742
0.000756191
0.0030884
0.000737198
0.0140427
100.73
0.000931993
253.857
0.00186703
0.29822
2.93968
151.97
0.00135939
41.3274
0.0135809
56.6324
29.1789
442.673
0.000796041
0.000954885
1.42875
82.129
65.0792
63.1905
1.9008
7.96941
20.1725
0.0626506
10.388
1.77378
30.2188
0.000756593
392.716
1.42023
53.589
0.000787916
50.7488
16.4582
0.00184849
89.6742
16.6363
0.0843721
0.000715177
0.000746017
202.28
45.9367
14.992
0.000737817
0.00953206
50.576
187.879
3.43333
0.0058508
0.000735721
149.587
131.199
35.8248
34.4104
0.000743621
100.723
440.887
0.000746914
0.000749292
18.5619
0.00126356
0.00386517
0.228783
47.705
0.00105183
36.3064
346.895
0.000731897
0.000821495
0.000727451
0.000769892
64.6703
516.497
339.004
0.0205523
33.6325
47.1662
0.132617
43.8095
0.000824379
31.3949
0.529579
30.5169
5.09505
82.8744
100.408
0.146853
0.000759141
159.85
85.1967
280.362
5.53646
29.9797
0.522535
20.5247
0.00353128
0.00133377
150.53
144.17
0.0340532
1.23124
0.000753976
0.0991062
18.8176
0.0280061
13.829
4.34413
388.486
36.927
1.72496
275.244
137.855
56.2974
14.8659
198.78
188.632
3.06441
36.4617
0.0036021
45.2186
43.3826
0.000743456
0.000711078
0.346678
0.000748447
0.000775402
57.2959
299.4
0.000744596
83.6768
0.000744941
0.000736796
0.000740802
0.000752848
0.00181379
29.6219
45.6971
250.729
0.000718807
0.00106424
6.39363
0.000854969
0.0283276
0.000762783
0.000866131
165.591
0.000982885
0.00466298
184.61
0.00425388
0.00074945
185.221
0.000745372
0.000760511
1.49355
0.000870524
6.55765
0.00123872
0.0239876
0.000743843
0.000753502
305.636
425.944
44.6942
0.0237997
107.933
15.5238
0.00130159
27.6573
309.449
235.249
476.978
0.000700954
27.2776
55.408
0.260622
28.568
101.142
0.350609
31.6648
1.05049
28.4862
0.290962
7.19435
0.00075762
224.31
0.000757417
28.7266
30.9109
0.000747868
0.914926
0.00245389
0.0291224
0.000726483
3.82431
0.000893567
0.000741867
40.3387
0.0362995
0.164465
230.733
153.385
0.000819051
0.000968091
29.1199
262.484
0.000690509
0.000753947
0.196658
24.2681
144.743
0.00209629
15.1008
0.000745429
0.000818125
0.0007185
0.0278437
24.1063
0.00409012
273.496
29.8021
260.656
174.144
0.00084296
302.455
64.6324
0.000732721
0.000754064
0.000750338
0.00115938
0.00074021
122.877
0.000745392
0.000750365
352.979
1.18043
0.00267439
0.0347105
57.6511
7.20799
0.00782446
0.000823885
186.588
0.000762691
6.76602
0.00075495
0.000845451
164.544
167.357
0.00334034
0.000835353
3.93561
0.000744255
371.619
0.000753005
153.387
0.0272486
8.60854
0.117493
3.20133
1.98605
30.0325
0.000760954
0.000859841
0.00488775
61.1674
0.28861
305.068
0.000747054
0.00124243
0.00163996
258.532
60.4889
274.993
0.0022607
0.00350739
0.823082
0.000751314
19.7235
36.0732
0.00875157
268.477
179.334
41.8803
0.00154572
1.41092
172.1
227.629
27.9435
0.010571
119.333
0.538874
135.862
0.143782
2.22341
43.489
0.000761953
28.4826
0.00122387
0.00508435
0.00621708
0.0476692
0.000906827
10.5079
0.000745928
46.3976
0.132075
0.000867447
1.60209
0.000756578
0.76076
0.226553
40.2815
3.84509
92.9047
0.795272
0.000748392
0.00073221
4.69336
0.158908
42.1364
263.715
0.000751623
153.957
35.7225