/*--------------------------------*- C++ -*----------------------------------*\
| =========                 |                                                 |
| \\      /  F ield         | OpenFOAM: The Open Source CFD Toolbox           |
|  \\    /   O peration     | Version:  2.3.1                                 |
|   \\  /    A nd           | Web:      www.OpenFOAM.org                      |
|    \\/     M anipulation  |                                                 |
\*---------------------------------------------------------------------------*/
FoamFile
{
    version     2.0;
    format      ascii;
    class       volVectorField;
    location    "1440";
    object      D;
}
// * * * * * * * * * * * * * * * * * * * * * * * * * * * * * * * * * * * * * //

dimensions      [0 1 0 0 0 0 0];

internalField   nonuniform List<vector> 
11800
(
(5.66796e-06 0.000164895 0)
(-7.2336e-06 0.000183461 0)
(4.04131e-06 5.65761e-05 0)
(-4.63711e-06 7.65178e-05 0)
(-6.61132e-06 0.000183154 0)
(-3.01401e-06 7.66651e-05 0)
(-1.1209e-06 0.000124304 0)
(-1.07123e-06 9.62594e-05 0)
(4.86782e-07 1.52375e-05 0)
(8.59762e-07 5.86432e-05 0)
(6.29694e-06 0.00016451 0)
(-5.78978e-06 6.54188e-05 0)
(-6.00982e-09 -4.7848e-09 0)
(3.58968e-06 5.62412e-05 0)
(-4.11579e-06 7.68342e-05 0)
(4.09565e-06 9.40113e-06 0)
(-6.40234e-07 0.000123947 0)
(-6.22804e-07 9.59209e-05 0)
(2.69517e-07 1.54041e-05 0)
(5.21671e-07 5.83582e-05 0)
(-3.54234e-06 7.6388e-05 0)
(-5.30703e-06 6.56739e-05 0)
(-9.14967e-07 3.36091e-06 0)
(-9.76081e-07 3.49849e-06 0)
(3.64468e-06 1.07232e-05 0)
(-1.45595e-06 5.54393e-06 0)
(-5.7313e-06 3.94163e-05 0)
(8.10356e-06 0.000111621 0)
(-5.13551e-06 3.00423e-05 0)
(-4.4735e-06 2.17132e-05 0)
(8.5679e-06 0.000140566 0)
(3.3637e-08 2.62331e-06 0)
(1.87503e-06 7.1066e-06 0)
(-4.41085e-06 0.000188207 0)
(3.5195e-06 0.000187369 0)
(-9.82391e-06 0.000149966 0)
(3.27638e-06 0.000188008 0)
(1.84454e-06 7.30418e-06 0)
(-1.09616e-06 0.00013117 0)
(8.59884e-07 6.42844e-05 0)
(-5.63433e-06 3.98501e-05 0)
(-5.05359e-06 3.04315e-05 0)
(7.91626e-06 0.000110994 0)
(-4.40725e-06 2.20566e-05 0)
(8.37715e-06 0.000139908 0)
(3.90549e-06 9.47555e-06 0)
(1.03968e-06 3.97237e-06 0)
(1.15998e-06 3.90954e-06 0)
(-1.70501e-06 0.000131281 0)
(1.35351e-06 6.4373e-05 0)
(-9.37229e-06 9.75103e-05 0)
(-9.98187e-06 0.00012556 0)
(-9.48085e-07 0.000163158 0)
(4.89557e-08 2.49071e-06 0)
(-5.03156e-06 1.11734e-05 0)
(6.95769e-07 5.91687e-07 0)
(-1.22557e-05 0.000190757 0)
(-3.14374e-06 5.45075e-05 0)
(3.5097e-06 7.88807e-05 0)
(-2.29299e-06 5.24048e-05 0)
(1.38193e-06 1.87441e-06 0)
(-1.60749e-06 0.000163279 0)
(-2.73706e-06 5.43869e-05 0)
(3.05672e-06 7.90239e-05 0)
(3.41383e-06 1.05617e-05 0)
(-1.1699e-05 0.0001689 0)
(-9.7226e-06 9.70925e-05 0)
(-1.03901e-05 0.000125103 0)
(-1.16419e-05 0.000190453 0)
(-1.52715e-06 5.72189e-06 0)
(-3.93578e-06 0.000188729 0)
(-6.92277e-06 0.00018772 0)
(-7.12307e-06 0.000187061 0)
(-6.64804e-08 7.65671e-08 0)
(1.47573e-06 1.95403e-06 0)
(-9.25552e-06 0.00015038 0)
(4.45279e-06 1.47532e-05 0)
(-1.18883e-05 0.000169523 0)
(-9.47313e-06 0.000170935 0)
(-8.85271e-06 0.000171498 0)
(-4.79733e-06 1.10228e-05 0)
(6.79726e-07 6.67012e-05 0)
(6.46358e-06 0.000186267 0)
(5.76591e-06 0.000186381 0)
(-8.74434e-07 6.85142e-05 0)
(-4.29076e-06 2.44065e-05 0)
(7.74392e-06 0.000135546 0)
(-4.87073e-06 3.30937e-05 0)
(-5.39627e-06 4.28052e-05 0)
(7.29933e-06 0.000106855 0)
(-2.45362e-07 0.000159681 0)
(1.9951e-06 6.75926e-06 0)
(-5.89729e-06 0.000172021 0)
(1.20951e-05 0.000192199 0)
(1.90709e-06 8.41455e-05 0)
(-1.60155e-09 -1.2183e-09 0)
(4.12981e-11 -2.57823e-10 0)
(1.59583e-09 -1.21416e-09 0)
(-1.59697e-07 0.000165135 0)
(-5.49584e-06 6.68364e-05 0)
(1.04051e-05 0.00019152 0)
(6.34149e-06 7.32948e-05 0)
(-2.42724e-06 9.83201e-06 0)
(-5.5515e-07 7.61464e-06 0)
(-3.72566e-07 0.000182344 0)
(6.46964e-07 1.59291e-05 0)
(-1.36718e-06 9.48789e-05 0)
(-1.41553e-06 0.000122779 0)
(2.13526e-06 3.7128e-06 0)
(4.87116e-06 3.30782e-05 0)
(4.29393e-06 2.43924e-05 0)
(5.3953e-06 4.27875e-05 0)
(-7.91336e-06 0.000135563 0)
(-7.46251e-06 0.000106878 0)
(1.11858e-06 5.74727e-05 0)
(1.68941e-06 3.38944e-06 0)
(1.15338e-05 0.000169582 0)
(-4.76384e-06 0.000174007 0)
(1.7212e-06 3.26683e-06 0)
(-8.27602e-07 5.93579e-05 0)
(-5.06882e-07 1.48412e-05 0)
(1.02887e-06 0.000125201 0)
(9.78608e-07 9.70655e-05 0)
(-1.4919e-06 0.000120156 0)
(-5.9355e-06 0.000172661 0)
(-5.50405e-07 0.000164627 0)
(-3.82471e-06 0.000182415 0)
(-9.15012e-07 0.000181926 0)
(-1.31522e-05 0.000197 0)
(-1.36216e-05 0.000196529 0)
(-4.1132e-07 1.86838e-07 0)
(-1.83695e-06 4.38357e-06 0)
(7.94671e-06 0.000131587 0)
(-4.59744e-06 2.66454e-05 0)
(7.4651e-06 0.00010313 0)
(-5.18059e-06 3.56178e-05 0)
(-5.70909e-06 4.55889e-05 0)
(7.32982e-06 0.000131704 0)
(-4.2381e-06 2.65677e-05 0)
(6.88619e-06 0.000103239 0)
(-4.77694e-06 3.55322e-05 0)
(-5.26533e-06 4.54962e-05 0)
(-1.1388e-06 1.37611e-05 0)
(2.55562e-06 0.000127555 0)
(2.39017e-06 9.93408e-05 0)
(-2.09917e-06 6.12538e-05 0)
(1.00113e-05 6.71037e-05 0)
(-1.00089e-05 6.56702e-05 0)
(6.2365e-06 7.38155e-05 0)
(-7.74227e-07 8.07446e-06 0)
(-6.5599e-06 0.000158956 0)
(-6.50353e-06 0.000159785 0)
(3.15255e-06 0.000185954 0)
(-7.33229e-06 0.000150171 0)
(2.90447e-06 0.000106804 0)
(3.14529e-06 0.000135476 0)
(-8.17534e-06 0.000119645 0)
(-7.61184e-06 9.19548e-05 0)
(3.96941e-06 1.75271e-05 0)
(-6.32273e-07 0.000160271 0)
(2.32197e-06 3.7776e-06 0)
(-6.70377e-06 0.000150317 0)
(4.66055e-06 1.49631e-05 0)
(-3.06481e-06 4.45189e-05 0)
(-2.77499e-06 3.46399e-05 0)
(-2.45534e-06 2.57688e-05 0)
(4.05e-06 0.000104443 0)
(4.307e-06 0.00013299 0)
(-2.06688e-06 2.60515e-06 0)
(-3.66845e-06 1.68724e-05 0)
(7.56735e-06 0.000120946 0)
(7.03943e-06 9.31786e-05 0)
(1.66539e-06 0.000122646 0)
(-1.11875e-05 0.00014928 0)
(-1.12999e-05 0.00015016 0)
(4.19917e-06 1.07405e-05 0)
(4.20274e-06 1.10327e-05 0)
(4.50946e-06 3.21392e-05 0)
(5.00529e-06 4.17493e-05 0)
(3.96362e-06 2.35608e-05 0)
(-7.01913e-06 0.00010829 0)
(-7.43473e-06 0.000137071 0)
(2.9554e-06 0.000106149 0)
(3.16311e-06 0.000134803 0)
(3.24947e-06 6.54166e-05 0)
(-1.59582e-06 6.11187e-05 0)
(-8.69227e-07 1.38311e-05 0)
(1.92672e-06 0.000127388 0)
(1.80088e-06 9.91836e-05 0)
(-2.57894e-06 0.000156818 0)
(-9.07151e-07 2.85056e-05 0)
(-1.01754e-06 3.77142e-05 0)
(-9.63207e-06 0.00016762 0)
(-2.86837e-07 6.64302e-06 0)
(-9.37e-06 8.01276e-05 0)
(8.10698e-06 5.3587e-05 0)
(1.00072e-07 9.88699e-08 0)
(-5.7794e-06 0.000188503 0)
(1.14532e-05 0.000170254 0)
(-3.58367e-07 2.18306e-07 0)
(7.53175e-06 0.000178327 0)
(9.41838e-06 0.000152761 0)
(1.01041e-05 0.000152885 0)
(-3.31267e-07 0.000183256 0)
(-8.04293e-07 0.000183835 0)
(5.41487e-06 5.23208e-05 0)
(4.77935e-06 5.25479e-05 0)
(-6.39857e-06 8.14631e-05 0)
(-5.64139e-06 8.11839e-05 0)
(4.03766e-07 1.8324e-07 0)
(-1.11525e-06 9.66358e-06 0)
(-1.26156e-06 5.42717e-06 0)
(-2.99945e-08 1.13263e-08 0)
(3.81035e-06 6.41139e-06 0)
(-9.33338e-08 2.97371e-08 0)
(4.88489e-07 5.33176e-06 0)
(-6.55059e-06 0.000182304 0)
(-3.28501e-06 2.3832e-05 0)
(-3.72697e-06 3.24554e-05 0)
(-4.13533e-06 4.21028e-05 0)
(5.96225e-06 0.000136533 0)
(5.6407e-06 0.000107796 0)
(3.56361e-07 0.000127156 0)
(3.30464e-07 9.89646e-05 0)
(-1.88324e-07 1.39286e-05 0)
(-3.50578e-07 6.09407e-05 0)
(-1.37113e-07 2.27038e-08 0)
(4.9773e-07 1.73543e-05 0)
(-1.01884e-06 9.21254e-05 0)
(-3.0218e-06 5.89062e-05 0)
(7.00361e-07 1.71036e-05 0)
(-1.42095e-06 9.26026e-05 0)
(-4.48848e-06 0.000172638 0)
(5.55463e-06 6.58841e-05 0)
(5.17389e-06 6.53896e-05 0)
(2.97352e-08 1.12125e-08 0)
(1.36332e-07 2.25341e-08 0)
(-8.66924e-06 0.000160854 0)
(-8.34135e-06 0.000161526 0)
(-8.31617e-06 5.59966e-05 0)
(9.23502e-06 7.73325e-05 0)
(7.32164e-06 0.000137012 0)
(6.90846e-06 0.000108239 0)
(-3.99189e-06 2.35957e-05 0)
(-4.54551e-06 3.21764e-05 0)
(-5.04652e-06 4.17908e-05 0)
(-3.01033e-07 0.000163978 0)
(-3.39311e-06 1.61535e-05 0)
(7.15113e-06 0.00012243 0)
(6.66159e-06 9.45589e-05 0)
(4.42948e-06 6.65576e-05 0)
(3.68125e-06 0.000154778 0)
(5.80157e-06 0.000192427 0)
(6.27349e-07 5.25534e-06 0)
(-2.22738e-06 5.29309e-05 0)
(-1.02125e-08 1.96596e-06 0)
(9.26779e-08 2.94865e-08 0)
(2.09075e-06 5.57848e-05 0)
(1.79585e-06 5.52152e-05 0)
(-2.31029e-06 7.74747e-05 0)
(-1.98347e-06 7.80343e-05 0)
(4.08502e-06 4.20892e-05 0)
(3.68294e-06 3.24433e-05 0)
(3.24066e-06 2.38254e-05 0)
(-5.71822e-06 0.000107797 0)
(-6.05903e-06 0.000136551 0)
(-3.22595e-06 0.000188559 0)
(1.16545e-06 1.45373e-06 0)
(-3.05016e-08 0.000109439 0)
(-2.69436e-08 2.28337e-05 0)
(4.20891e-06 0.000182026 0)
(3.47571e-06 6.49536e-05 0)
(-1.34825e-05 0.000179896 0)
(3.99566e-06 6.70275e-05 0)
(1.67428e-07 1.25555e-07 0)
(1.10321e-05 0.000147463 0)
(1.10962e-05 0.000146649 0)
(-6.82888e-06 9.46773e-05 0)
(-7.3291e-06 0.000122551 0)
(-6.10421e-06 9.44441e-05 0)
(-6.55282e-06 0.000122303 0)
(3.39576e-06 1.60941e-05 0)
(3.04259e-06 1.61993e-05 0)
(3.28357e-06 8.7126e-05 0)
(3.91148e-06 8.70268e-05 0)
(3.54759e-06 0.000114434 0)
(4.22762e-06 0.000114326 0)
(-1.90608e-06 2.01258e-05 0)
(-2.26741e-06 2.019e-05 0)
(-4.11546e-07 9.16581e-06 0)
(2.03372e-06 5.88014e-06 0)
(1.9042e-06 5.67943e-06 0)
(1.9508e-06 4.31269e-06 0)
(3.1426e-06 0.000155433 0)
(-1.10083e-05 0.000147732 0)
(-1.10673e-05 0.000146886 0)
(4.32974e-06 1.1977e-05 0)
(4.24636e-06 1.16406e-05 0)
(8.77987e-06 6.71192e-05 0)
(8.8964e-06 6.78556e-05 0)
(-8.77788e-06 6.56203e-05 0)
(-8.82603e-06 6.48956e-05 0)
(3.89713e-06 0.000185831 0)
(-1.08054e-05 0.000188224 0)
(-1.03853e-05 0.000158823 0)
(2.59815e-06 2.98689e-06 0)
(-6.35951e-06 0.000185891 0)
(-5.68225e-06 0.000185262 0)
(2.66535e-06 8.81012e-05 0)
(-1.70291e-06 7.93576e-05 0)
(1.47491e-06 5.41001e-05 0)
(-7.52804e-06 6.7366e-05 0)
(7.3236e-06 6.53131e-05 0)
(-3.70224e-06 1.1775e-05 0)
(-1.11796e-07 7.20853e-08 0)
(5.87739e-07 2.46678e-06 0)
(6.47389e-07 5.7651e-05 0)
(-6.36143e-06 5.80486e-05 0)
(6.75237e-06 7.49047e-05 0)
(-3.68119e-06 5.29514e-05 0)
(4.27733e-06 8.07166e-05 0)
(2.13329e-06 0.000139111 0)
(2.95549e-06 0.000138817 0)
(-1.33299e-06 3.08459e-05 0)
(-1.83252e-06 3.10283e-05 0)
(-1.48534e-06 4.03226e-05 0)
(-2.04076e-06 4.05244e-05 0)
(3.41925e-07 1.58219e-05 0)
(-7.60596e-07 9.50873e-05 0)
(-7.67667e-07 0.000123014 0)
(-1.22575e-06 0.000179037 0)
(1.78345e-06 4.28582e-06 0)
(-3.67119e-07 7.73633e-05 0)
(-5.14671e-06 0.00018347 0)
(7.49951e-07 6.13449e-07 0)
(4.55207e-06 0.000109953 0)
(-2.58556e-06 2.25862e-05 0)
(-7.82137e-06 7.81642e-05 0)
(-7.34817e-06 7.77826e-05 0)
(6.83891e-06 5.52248e-05 0)
(6.44408e-06 5.55536e-05 0)
(-7.69256e-06 0.00019123 0)
(-7.77687e-06 0.000190419 0)
(-1.33845e-06 9.22217e-06 0)
(-1.58545e-06 9.18755e-06 0)
(6.43588e-07 2.58408e-06 0)
(-1.54154e-06 2.68005e-06 0)
(3.34422e-07 8.11004e-05 0)
(2.29842e-06 1.63839e-05 0)
(1.93022e-06 1.6487e-05 0)
(-4.60041e-06 9.40395e-05 0)
(-3.86205e-06 9.38217e-05 0)
(-4.93926e-06 0.000121875 0)
(-4.14696e-06 0.000121642 0)
(-9.96655e-06 0.00015378 0)
(-9.22506e-06 0.00015384 0)
(-2.24393e-06 4.74858e-05 0)
(-2.08511e-06 3.73266e-05 0)
(-1.85811e-06 2.81602e-05 0)
(3.11047e-06 0.000143645 0)
(-5.72222e-07 0.000162408 0)
(6.58633e-06 6.5252e-05 0)
(6.2334e-06 6.58076e-05 0)
(2.87099e-06 0.000124566 0)
(2.75372e-06 9.65115e-05 0)
(-1.3752e-06 1.51224e-05 0)
(1.26551e-06 1.69038e-05 0)
(1.03824e-06 1.72281e-05 0)
(-2.28554e-06 0.000120133 0)
(-2.71325e-06 0.000120741 0)
(-2.52353e-06 9.29954e-05 0)
(-2.06235e-06 9.23721e-05 0)
(-2.72169e-06 1.55153e-05 0)
(5.44732e-06 9.5783e-05 0)
(5.84073e-06 0.000123745 0)
(-7.74167e-08 7.39704e-07 0)
(9.77894e-06 7.42601e-05 0)
(-9.08211e-06 5.8808e-05 0)
(-4.42647e-08 6.88649e-07 0)
(-2.96177e-06 0.000136986 0)
(-3.46822e-06 0.000137727 0)
(-2.72573e-06 0.000108266 0)
(-3.18669e-06 0.00010897 0)
(1.75781e-06 2.31283e-05 0)
(1.51111e-06 2.35279e-05 0)
(2.06257e-06 3.16954e-05 0)
(1.76659e-06 3.2148e-05 0)
(2.29163e-06 4.12645e-05 0)
(1.96053e-06 4.17668e-05 0)
(1.09228e-05 0.000154071 0)
(1.11267e-05 0.000154843 0)
(-1.09604e-06 5.47116e-06 0)
(4.09005e-06 0.00011049 0)
(-2.31083e-06 2.22794e-05 0)
(3.73192e-06 1.7676e-05 0)
(-7.12766e-06 9.16561e-05 0)
(-7.67327e-06 0.000119307 0)
(-1.08833e-07 3.31065e-08 0)
(1.38893e-06 0.000160479 0)
(3.68831e-06 1.68747e-05 0)
(-7.22471e-06 9.31757e-05 0)
(-7.77278e-06 0.000120916 0)
(2.85523e-06 4.99811e-06 0)
(-5.44074e-06 0.00017376 0)
(3.55412e-06 1.35102e-05 0)
(-8.57182e-06 0.000143037 0)
(-1.93115e-06 7.32199e-06 0)
(-2.05909e-06 7.58733e-06 0)
(2.00381e-06 7.50831e-06 0)
(-9.58622e-07 7.72458e-05 0)
(-7.67583e-09 -5.64881e-09 0)
(-5.77549e-06 0.000190193 0)
(-9.75455e-08 3.89725e-08 0)
(1.08023e-07 3.281e-08 0)
(-2.79156e-06 1.63554e-05 0)
(5.82986e-06 0.000121964 0)
(5.42806e-06 9.41222e-05 0)
(4.47539e-06 0.000160728 0)
(-1.29816e-05 0.000172291 0)
(1.64876e-06 7.23937e-05 0)
(-1.1061e-06 7.05367e-05 0)
(-3.17035e-07 7.65838e-06 0)
(-8.84759e-07 9.44766e-07 0)
(-5.54022e-09 -4.9889e-09 0)
(-3.30408e-06 5.34365e-05 0)
(3.83208e-06 8.01622e-05 0)
(3.01581e-07 1.05797e-07 0)
(-4.61516e-07 6.95175e-05 0)
(-4.36952e-07 6.88585e-05 0)
(-3.67896e-08 5.85527e-05 0)
(-9.27564e-08 1.53126e-05 0)
(1.15838e-07 9.6104e-05 0)
(1.00335e-07 0.000124189 0)
(-3.04166e-07 1.06866e-07 0)
(1.20705e-06 8.27544e-06 0)
(-4.50056e-06 0.000140741 0)
(2.61473e-06 2.98833e-05 0)
(2.91835e-06 3.92489e-05 0)
(3.19101e-06 4.95771e-05 0)
(9.36126e-06 0.000182643 0)
(-3.62072e-06 1.46531e-05 0)
(8.03277e-06 0.000125709 0)
(7.50609e-06 9.76218e-05 0)
(-5.35754e-06 0.000168638 0)
(8.24043e-07 2.15897e-06 0)
(7.14776e-06 0.000165546 0)
(-1.6461e-06 2.6398e-06 0)
(4.99866e-06 0.000183361 0)
(-3.88376e-06 0.000140756 0)
(2.24853e-06 2.98708e-05 0)
(2.50968e-06 3.92359e-05 0)
(2.74587e-06 4.95602e-05 0)
(7.19617e-07 2.04722e-06 0)
(3.29285e-06 0.000113241 0)
(-1.80126e-06 2.07613e-05 0)
(-6.23022e-07 8.24214e-06 0)
(-9.45685e-06 0.000166127 0)
(-3.59818e-06 4.46805e-05 0)
(-3.25906e-06 3.47875e-05 0)
(-2.88497e-06 2.5901e-05 0)
(4.73208e-06 0.000104275 0)
(5.03271e-06 0.000132811 0)
(1.29166e-05 0.000193448 0)
(7.50443e-06 0.000170021 0)
(8.32383e-06 0.000169733 0)
(1.13191e-07 8.07761e-08 0)
(4.73647e-06 5.31426e-05 0)
(-5.55338e-06 8.04828e-05 0)
(-2.44759e-06 5.38882e-05 0)
(2.78188e-06 7.96607e-05 0)
(-8.36559e-07 8.56859e-05 0)
(-6.39858e-07 0.000137866 0)
(3.75922e-07 4.11603e-05 0)
(3.38813e-07 3.15999e-05 0)
(6.02532e-09 2.23703e-05 0)
(-1.61536e-07 8.3312e-05 0)
(-8.85616e-08 0.000110291 0)
(5.89308e-06 0.000193189 0)
(3.44995e-07 8.486e-06 0)
(-1.5907e-07 1.99465e-06 0)
(1.10848e-06 0.000116967 0)
(5.71024e-08 2.0621e-06 0)
(-9.32074e-07 6.36123e-06 0)
(2.25815e-06 2.23158e-05 0)
(-4.17717e-06 0.000110419 0)
(-8.90656e-08 1.01039e-07 0)
(-8.76147e-06 0.00016605 0)
(-7.71059e-07 1.50241e-05 0)
(1.52408e-06 0.000124841 0)
(1.51649e-06 9.66955e-05 0)
(2.12168e-07 5.07205e-08 0)
(-2.74921e-06 5.08132e-06 0)
(2.90375e-06 4.02031e-05 0)
(2.60733e-06 3.07407e-05 0)
(-4.42645e-06 0.00013931 0)
(8.3834e-07 5.55164e-05 0)
(-5.93821e-06 0.000187772 0)
(-1.06944e-07 1.49207e-08 0)
(-3.58061e-06 7.90693e-06 0)
(2.32403e-06 4.38355e-06 0)
(-2.36597e-06 2.6364e-06 0)
(6.62838e-06 6.64237e-05 0)
(5.01326e-06 8.04984e-05 0)
(-4.38945e-06 5.31252e-05 0)
(3.04297e-07 2.21454e-05 0)
(-7.47062e-07 8.36218e-05 0)
(-6.28495e-07 0.000110694 0)
(6.24837e-06 0.00016369 0)
(5.87621e-06 7.26262e-05 0)
(3.01212e-06 0.000189206 0)
(2.90061e-06 0.000189904 0)
(8.29862e-07 8.01309e-05 0)
(1.15388e-06 5.51085e-05 0)
(1.06327e-07 1.48046e-08 0)
(-8.46857e-06 0.000148628 0)
(3.20534e-06 1.12391e-05 0)
(1.09008e-08 1.62399e-07 0)
(1.5919e-06 0.000106753 0)
(2.08889e-06 0.000107116 0)
(3.07316e-09 1.43131e-08 0)
(-1.71484e-06 4.24492e-06 0)
(4.07207e-06 4.08625e-05 0)
(3.66168e-06 3.1337e-05 0)
(3.21212e-06 2.28162e-05 0)
(-5.79004e-06 0.000109446 0)
(-6.12676e-06 0.000138354 0)
(5.34527e-06 6.91882e-05 0)
(7.44644e-07 0.000160649 0)
(-3.46905e-06 0.00018088 0)
(-3.28613e-06 0.000181822 0)
(-3.61445e-07 0.000140064 0)
(-3.14378e-07 0.000140822 0)
(2.23662e-07 2.98056e-05 0)
(2.02144e-07 3.02389e-05 0)
(2.48958e-07 3.91655e-05 0)
(2.2469e-07 3.96482e-05 0)
(1.53019e-07 4.94848e-05 0)
(1.87414e-07 4.99977e-05 0)
(3.94927e-07 8.03932e-05 0)
(7.47119e-07 8.16582e-05 0)
(1.30908e-06 0.000123414 0)
(-3.68568e-07 8.548e-05 0)
(-2.13431e-07 5.11061e-08 0)
(-2.3862e-07 1.90318e-06 0)
(2.89725e-06 0.000112651 0)
(-1.60242e-06 2.10782e-05 0)
(8.18153e-07 2.6326e-06 0)
(1.13699e-05 0.00018353 0)
(-8.98835e-07 0.000141427 0)
(5.37556e-07 2.94759e-05 0)
(5.9997e-07 3.87979e-05 0)
(5.85096e-07 4.90607e-05 0)
(-8.743e-06 0.000154563 0)
(3.02421e-06 5.63973e-05 0)
(4.41468e-06 0.000194674 0)
(4.99654e-06 0.000194245 0)
(-9.26258e-07 6.55675e-06 0)
(-5.83616e-07 0.000108876 0)
(2.85869e-07 2.31541e-05 0)
(1.3887e-07 1.46241e-07 0)
(1.11565e-05 0.000188646 0)
(-1.67699e-07 3.34248e-06 0)
(-2.18094e-06 3.33766e-05 0)
(-2.41539e-06 4.31257e-05 0)
(-2.88537e-06 4.35696e-05 0)
(-2.60775e-06 3.37792e-05 0)
(-1.90043e-06 2.46387e-05 0)
(-2.29507e-06 2.5005e-05 0)
(3.68298e-06 0.000105723 0)
(3.91437e-06 0.000134355 0)
(1.71277e-06 2.38889e-06 0)
(-1.11849e-07 6.89456e-08 0)
(-9.69096e-06 0.000128312 0)
(-1.00889e-05 0.000188266 0)
(3.27861e-06 8.15949e-05 0)
(-3.04432e-07 3.41945e-06 0)
(-5.26609e-06 0.000105534 0)
(-5.59007e-06 0.000134148 0)
(3.06686e-06 2.51532e-05 0)
(3.46982e-06 3.39437e-05 0)
(3.83589e-06 4.37487e-05 0)
(4.81169e-06 0.000161255 0)
(1.09698e-05 0.000189309 0)
(-6.01577e-06 6.70093e-05 0)
(2.51589e-06 2.25798e-05 0)
(-4.62904e-06 0.000109948 0)
(3.1355e-06 8.22169e-05 0)
(-1.2337e-06 5.90009e-05 0)
(3.21737e-06 4.05389e-05 0)
(2.89109e-06 3.10435e-05 0)
(-4.87618e-06 0.000138816 0)
(-8.9301e-06 6.77616e-05 0)
(8.6668e-06 6.50258e-05 0)
(8.66439e-06 6.57362e-05 0)
(-8.81514e-06 6.70077e-05 0)
(-4.27763e-06 1.16355e-05 0)
(-4.4008e-06 1.19923e-05 0)
(-4.15798e-06 6.57299e-05 0)
(-2.22854e-06 2.69949e-06 0)
(-6.71065e-06 6.62226e-05 0)
(-9.97027e-07 0.000155445 0)
(-9.15546e-07 1.12034e-06 0)
(6.77917e-06 3.90432e-05 0)
(6.07183e-06 2.97116e-05 0)
(-9.42726e-06 9.83434e-05 0)
(1.52593e-06 4.05645e-05 0)
(1.37156e-06 3.10639e-05 0)
(-2.35554e-06 0.000138754 0)
(3.26054e-06 1.00563e-05 0)
(5.18731e-06 7.98594e-05 0)
(-4.56968e-06 5.36841e-05 0)
(-2.62857e-06 3.00222e-06 0)
(2.63271e-06 0.000123899 0)
(2.52354e-06 9.5914e-05 0)
(-1.27654e-06 1.54164e-05 0)
(7.69082e-06 0.000117117 0)
(-3.93899e-06 1.87837e-05 0)
(7.1272e-06 8.96232e-05 0)
(-4.52597e-06 1.14826e-05 0)
(5.3996e-06 0.000181239 0)
(6.19744e-06 0.000180977 0)
(5.97331e-06 0.000138358 0)
(5.67268e-06 0.000109457 0)
(-3.23294e-06 2.28809e-05 0)
(-3.67011e-06 3.13344e-05 0)
(-4.08307e-06 4.08597e-05 0)
(-9.65249e-07 9.71797e-07 0)
(-4.79776e-06 0.000168468 0)
(5.19043e-06 0.000108267 0)
(-3.00446e-06 2.35559e-05 0)
(-5.87047e-07 7.48986e-07 0)
(4.41709e-06 0.000183244 0)
(1.16207e-06 9.75703e-07 0)
(9.6485e-07 7.40648e-07 0)
(2.42009e-06 3.5163e-06 0)
(5.34872e-06 0.000147744 0)
(-9.13567e-06 0.000151748 0)
(1.20929e-05 0.000183761 0)
(2.44956e-06 3.69445e-06 0)
(5.34843e-06 7.26047e-05 0)
(7.26767e-06 0.000156512 0)
(-1.17567e-05 0.000148122 0)
(4.51038e-06 1.1506e-05 0)
(-2.72289e-06 0.000157481 0)
(1.09974e-06 4.06882e-05 0)
(9.88943e-07 3.11749e-05 0)
(-1.71858e-06 0.000138567 0)
(-4.36525e-07 2.12942e-06 0)
(3.10337e-06 8.59969e-05 0)
(9.62198e-08 3.84e-08 0)
(-3.78605e-06 7.83113e-06 0)
(-6.65191e-07 7.09662e-05 0)
(-1.68547e-06 1.41039e-05 0)
(-1.95962e-06 1.41955e-05 0)
(3.52437e-06 9.86354e-05 0)
(4.09589e-06 9.84555e-05 0)
(4.38095e-06 0.000126608 0)
(3.76944e-06 0.000126801 0)
(1.11939e-07 4.35682e-07 0)
(-3.51607e-08 5.30842e-06 0)
(-6.42132e-06 8.88072e-05 0)
(-6.93433e-06 0.000116238 0)
(3.51828e-06 1.92203e-05 0)
(-2.10576e-06 1.15327e-05 0)
(-1.22174e-06 0.000119457 0)
(-1.92585e-06 4.9945e-06 0)
(3.68967e-06 0.000181525 0)
(-3.06308e-06 6.06393e-05 0)
(-3.54535e-06 6.04896e-05 0)
(1.10828e-07 1.15807e-07 0)
(-2.03657e-06 6.26731e-05 0)
(-1.06501e-06 1.29915e-05 0)
(2.3017e-06 0.000101005 0)
(2.45703e-06 0.000129332 0)
(-2.81894e-06 0.000119475 0)
(-2.49215e-06 9.17672e-05 0)
(1.27494e-06 1.75514e-05 0)
(1.73048e-06 6.67861e-06 0)
(1.6075e-06 6.43914e-06 0)
(7.84104e-07 6.04663e-05 0)
(-1.06642e-06 0.000126562 0)
(-1.00407e-06 9.83962e-05 0)
(4.37309e-07 1.4199e-05 0)
(-1.00042e-06 2.42551e-05 0)
(-1.81336e-06 5.13246e-06 0)
(6.89982e-06 0.000185738 0)
(-6.80544e-06 0.000111978 0)
(5.27099e-06 5.34757e-05 0)
(-6.14834e-06 8.01111e-05 0)
(7.35688e-06 0.000157208 0)
(-6.93409e-06 4.9234e-05 0)
(-6.34813e-06 3.89314e-05 0)
(8.32745e-06 8.51678e-05 0)
(-5.68207e-06 2.961e-05 0)
(-4.94926e-06 2.13484e-05 0)
(9.05515e-06 0.000112321 0)
(9.55509e-06 0.000141341 0)
(-2.51682e-06 0.000135348 0)
(-2.37501e-06 0.000106661 0)
(1.51636e-06 3.31647e-05 0)
(1.33813e-06 2.44598e-05 0)
(1.67875e-06 4.28922e-05 0)
(1.44877e-06 3.3633e-05 0)
(-2.39186e-06 0.000134602 0)
(1.60217e-06 4.34098e-05 0)
(1.28032e-06 2.48738e-05 0)
(-2.25583e-06 0.000105958 0)
(-1.34444e-06 0.00017108 0)
(-2.83484e-06 3.77013e-06 0)
(-3.01694e-06 1.73871e-05 0)
(6.11129e-06 0.000119845 0)
(5.67869e-06 9.21511e-05 0)
(-1.89207e-06 2.33094e-05 0)
(3.28216e-06 0.000108674 0)
(9.07156e-06 0.000134131 0)
(8.54079e-06 0.000105526 0)
(-5.10011e-06 2.52174e-05 0)
(-5.773e-06 3.40058e-05 0)
(-6.38279e-06 4.38095e-05 0)
(9.55557e-06 0.000146191 0)
(1.04323e-05 0.000146009 0)
(2.42477e-07 4.53802e-06 0)
(-1.00158e-06 6.98278e-05 0)
(-2.72387e-06 7.63818e-06 0)
(1.40866e-07 2.72264e-07 0)
(-2.67388e-06 9.67284e-06 0)
(-4.36949e-07 0.000155751 0)
(1.06187e-07 4.34513e-06 0)
(-2.14742e-06 7.47266e-05 0)
(8.69429e-06 9.84007e-05 0)
(-4.13208e-06 1.4311e-05 0)
(9.297e-06 0.000126539 0)
(-9.40681e-09 -6.51889e-09 0)
(5.53595e-07 0.000117077 0)
(1.78123e-07 7.53025e-08 0)
(1.21445e-07 9.14277e-08 0)
(1.52603e-06 8.46445e-05 0)
(-2.04145e-07 1.68873e-07 0)
(7.05217e-06 0.000187111 0)
(5.03081e-07 0.000107086 0)
(-3.07042e-07 2.41827e-05 0)
(1.6137e-06 9.8444e-06 0)
(9.50412e-07 0.000106759 0)
(-5.81927e-07 2.43566e-05 0)
(-1.02927e-07 2.21682e-06 0)
(-6.81537e-06 3.90251e-05 0)
(-6.10179e-06 2.96961e-05 0)
(-5.31569e-06 2.14296e-05 0)
(-4.45121e-06 1.43448e-05 0)
(9.36132e-06 9.83638e-05 0)
(9.71373e-06 0.0001122 0)
(1.00105e-05 0.000126498 0)
(1.02537e-05 0.000141215 0)
(-4.5802e-06 0.000152189 0)
(-4.07402e-06 0.000180532 0)
(-1.30996e-05 0.000149451 0)
(4.92544e-06 1.1024e-05 0)
(2.95251e-06 0.000191265 0)
(3.43935e-06 0.000190449 0)
(9.0347e-07 0.000104438 0)
(9.79297e-07 0.000133001 0)
(-7.51425e-07 4.45702e-05 0)
(-6.79802e-07 3.4684e-05 0)
(-6.00724e-07 2.58051e-05 0)
(-3.92851e-06 1.15135e-05 0)
(1.42408e-06 8.29155e-06 0)
(-5.18264e-06 4.66515e-05 0)
(6.69093e-06 0.000101699 0)
(-4.71159e-06 3.65829e-05 0)
(-4.19198e-06 2.75031e-05 0)
(7.13255e-06 0.000130065 0)
(-2.9823e-06 1.27439e-05 0)
(7.21859e-06 0.000144897 0)
(1.20786e-06 6.69362e-05 0)
(-7.91509e-07 0.000161601 0)
(8.04254e-07 4.04902e-07 0)
(-5.85611e-07 0.000142163 0)
(3.50936e-07 2.9044e-05 0)
(3.91773e-07 3.83161e-05 0)
(3.57855e-07 4.85325e-05 0)
(2.2368e-06 0.000167344 0)
(-3.33571e-07 2.15171e-07 0)
(1.14676e-05 0.000164699 0)
(-1.7694e-06 7.08664e-05 0)
(-5.66557e-08 1.25269e-07 0)
(4.1004e-06 0.000100146 0)
(-1.90243e-06 1.34016e-05 0)
(4.37855e-06 0.000128413 0)
(9.69123e-08 7.72211e-08 0)
(-2.54445e-06 1.61279e-05 0)
(4.97933e-06 9.45534e-05 0)
(5.34572e-06 0.000122428 0)
(8.98576e-07 1.2066e-06 0)
(-3.56862e-06 6.19525e-05 0)
(7.23567e-07 6.61582e-05 0)
(-7.99247e-06 0.000175875 0)
(7.08476e-07 0.000104996 0)
(7.54909e-07 0.000133581 0)
(-6.38006e-07 4.41489e-05 0)
(-5.07759e-07 2.54678e-05 0)
(-5.76598e-07 3.43018e-05 0)
(1.16888e-06 6.74218e-05 0)
(-1.79104e-07 6.93437e-07 0)
(-1.6019e-07 2.33187e-06 0)
(3.18569e-07 0.000155501 0)
(7.8856e-06 7.23931e-05 0)
(-7.47497e-06 6.04923e-05 0)
(-5.61946e-06 0.000196557 0)
(-1.27257e-05 0.000129184 0)
(-1.19318e-05 0.000100887 0)
(-1.23625e-05 0.000114807 0)
(-1.14316e-05 8.74992e-05 0)
(6.44567e-06 2.00921e-05 0)
(7.44015e-06 2.81456e-05 0)
(8.34174e-06 3.72838e-05 0)
(9.15957e-06 4.74038e-05 0)
(1.26435e-05 0.000129183 0)
(1.22817e-05 0.000114807 0)
(-6.48568e-06 2.00945e-05 0)
(-7.48828e-06 2.81488e-05 0)
(1.18527e-05 0.000100887 0)
(-8.39807e-06 3.72859e-05 0)
(1.13563e-05 8.74981e-05 0)
(-9.22229e-06 4.74066e-05 0)
(-3.78276e-06 1.11959e-05 0)
(-1.99762e-06 0.000161262 0)
(-1.43365e-06 0.00016111 0)
(-1.77563e-06 0.000182356 0)
(2.87277e-06 0.000111286 0)
(-1.61873e-06 2.18269e-05 0)
(-5.96305e-07 8.98024e-07 0)
(-2.28907e-06 0.00019261 0)
(-2.5497e-06 4.25666e-05 0)
(-3.11891e-06 4.24091e-05 0)
(-2.29971e-06 3.28712e-05 0)
(-2.8124e-06 3.27299e-05 0)
(3.63965e-06 0.000136057 0)
(4.37746e-06 0.000136119 0)
(9.65806e-06 0.000133788 0)
(9.09038e-06 0.000105204 0)
(-5.44857e-06 2.54214e-05 0)
(-6.163e-06 3.42339e-05 0)
(-6.81047e-06 4.40595e-05 0)
(-5.91976e-06 8.91146e-05 0)
(-6.3905e-06 0.000116571 0)
(3.22369e-06 1.90397e-05 0)
(-1.88279e-06 7.99792e-05 0)
(1.56327e-06 5.35649e-05 0)
(1.8818e-06 0.000139848 0)
(-1.16791e-06 3.03542e-05 0)
(-1.30315e-06 3.97759e-05 0)
(-1.4054e-06 5.00506e-05 0)
(3.65138e-06 5.29379e-05 0)
(3.09012e-06 5.30709e-05 0)
(-4.30832e-06 8.06975e-05 0)
(-3.65239e-06 8.05352e-05 0)
(-4.3113e-06 0.000191184 0)
(3.05569e-07 8.62607e-07 0)
(7.08671e-06 0.000164877 0)
(2.57446e-06 5.86842e-05 0)
(6.96195e-06 0.00011469 0)
(-3.6913e-06 2.00334e-05 0)
(6.43543e-06 8.73735e-05 0)
(-6.06367e-06 7.01206e-05 0)
(1.49956e-06 1.52269e-05 0)
(-3.36845e-06 0.000124305 0)
(-3.14645e-06 9.63039e-05 0)
(3.95225e-07 6.10141e-05 0)
(-5.46628e-07 9.90404e-05 0)
(-5.78147e-07 0.000127248 0)
(2.193e-07 1.38926e-05 0)
(4.06366e-06 5.53616e-05 0)
(-4.65874e-06 7.79188e-05 0)
(-2.23159e-06 0.000171078 0)
(-1.02185e-05 0.000169463 0)
(1.81017e-06 7.4396e-05 0)
(4.58643e-06 7.46245e-05 0)
(-3.87589e-06 1.48023e-05 0)
(8.56094e-06 0.000125403 0)
(7.99748e-06 9.73371e-05 0)
(-4.40768e-07 1.89541e-06 0)
(-1.40878e-06 0.000143136 0)
(7.72428e-07 2.84702e-05 0)
(8.64724e-07 3.76749e-05 0)
(9.41106e-07 4.78369e-05 0)
(-2.1532e-06 7.05266e-05 0)
(-9.47413e-06 0.000169519 0)
(-2.81733e-06 2.85037e-05 0)
(-3.15788e-06 3.77085e-05 0)
(-3.45489e-06 4.78924e-05 0)
(4.78454e-06 0.000143087 0)
(9.41235e-09 1.27002e-08 0)
(5.95335e-06 6.95693e-05 0)
(7.31336e-08 5.65479e-06 0)
(-3.021e-07 5.3864e-07 0)
(-6.24605e-07 2.44661e-06 0)
(-2.94255e-06 1.03072e-05 0)
(-3.09414e-07 1.14195e-07 0)
(1.179e-06 3.21153e-05 0)
(1.04222e-06 2.35176e-05 0)
(1.30826e-06 4.17312e-05 0)
(-2.00467e-06 0.000137032 0)
(-1.90389e-06 0.000108276 0)
(-5.85781e-06 5.79261e-05 0)
(6.26178e-06 7.50639e-05 0)
(-6.12107e-07 3.65937e-07 0)
(7.53698e-06 0.0001813 0)
(5.42695e-06 0.000162427 0)
(-1.16601e-05 0.000153015 0)
(4.31846e-06 7.4059e-05 0)
(1.53702e-06 8.03112e-05 0)
(-2.95954e-06 0.000192524 0)
(-8.22631e-06 8.40629e-05 0)
(-7.82672e-06 8.36992e-05 0)
(1.14519e-05 0.000192468 0)
(-9.51241e-07 0.00017192 0)
(-2.64295e-06 5.33527e-05 0)
(3.09284e-06 8.02953e-05 0)
(9.22224e-08 5.85086e-06 0)
(1.5118e-06 2.08709e-06 0)
(3.06264e-07 1.12859e-07 0)
(2.7278e-06 8.54463e-05 0)
(1.00886e-05 0.000196376 0)
(-5.57656e-06 0.000137055 0)
(-5.26119e-06 0.000108273 0)
(2.95865e-06 2.35443e-05 0)
(3.73987e-06 4.17394e-05 0)
(3.36929e-06 3.21267e-05 0)
(-1.12696e-07 8.01732e-08 0)
(-4.47924e-07 0.000178855 0)
(5.20405e-06 7.48401e-05 0)
(-4.80983e-06 5.82157e-05 0)
(-8.34064e-06 0.000174571 0)
(-1.24475e-05 0.000129835 0)
(-1.20946e-05 0.000115436 0)
(-1.16781e-05 0.000101495 0)
(-1.1192e-05 8.80825e-05 0)
(6.25071e-06 1.97529e-05 0)
(7.22662e-06 2.77563e-05 0)
(8.11138e-06 3.68489e-05 0)
(8.91403e-06 4.69276e-05 0)
(1.23641e-05 0.000129831 0)
(1.20138e-05 0.000115436 0)
(-6.29001e-06 1.97566e-05 0)
(-7.27367e-06 2.77605e-05 0)
(1.15975e-05 0.000101493 0)
(-8.16653e-06 3.68522e-05 0)
(1.11156e-05 8.8079e-05 0)
(-8.97559e-06 4.69316e-05 0)
(-1.93216e-06 2.63395e-06 0)
(7.60835e-07 7.32093e-07 0)
(-1.01913e-06 1.89705e-06 0)
(4.632e-06 7.34599e-05 0)
(-5.13878e-06 7.55981e-05 0)
(9.68426e-07 1.19337e-06 0)
(-1.52121e-07 2.53012e-08 0)
(-1.12135e-05 0.000153379 0)
(6.36851e-06 0.000194415 0)
(7.15129e-06 0.000194778 0)
(1.51299e-07 2.51236e-08 0)
(2.17282e-06 2.95022e-06 0)
(9.99356e-06 0.000177175 0)
(-3.86377e-06 8.34105e-05 0)
(-2.69051e-07 2.41135e-07 0)
(-6.0655e-07 9.6077e-07 0)
(-9.52626e-08 2.43366e-08 0)
(1.77465e-07 1.4108e-07 0)
(1.04518e-05 6.67727e-05 0)
(-1.04852e-05 6.60163e-05 0)
(3.2067e-06 5.06419e-05 0)
(-3.96062e-06 8.19151e-05 0)
(3.32852e-06 5.1916e-05 0)
(-1.86094e-07 3.14844e-06 0)
(-2.43639e-06 0.00012981 0)
(1.90037e-06 6.30788e-05 0)
(-1.3727e-06 0.000128425 0)
(-1.31806e-06 0.000100083 0)
(5.66639e-07 1.34087e-05 0)
(1.03291e-06 6.19579e-05 0)
(-4.30623e-06 8.29937e-05 0)
(2.31503e-06 3.12376e-06 0)
(3.59428e-06 5.10163e-05 0)
(1.30637e-06 7.45076e-05 0)
(1.00431e-05 0.000182899 0)
(-3.1223e-06 7.51096e-05 0)
(-3.58558e-06 7.56097e-05 0)
(-3.02957e-06 6.56731e-06 0)
(-3.47659e-06 7.79625e-05 0)
(-2.97744e-06 7.7433e-05 0)
(3.066e-06 5.52729e-05 0)
(2.68939e-06 5.58071e-05 0)
(-3.35761e-06 1.57935e-05 0)
(6.67347e-06 9.52709e-05 0)
(7.1587e-06 0.000123194 0)
(-9.50905e-07 1.07904e-06 0)
(-4.31473e-06 8.23415e-05 0)
(3.61857e-06 5.1574e-05 0)
(-2.75059e-06 0.000105424 0)
(-2.91883e-06 0.000134035 0)
(1.58233e-06 2.51942e-05 0)
(1.97733e-06 4.3808e-05 0)
(1.78927e-06 3.39941e-05 0)
(-1.49669e-06 7.08883e-06 0)
(-8.94429e-06 0.000111065 0)
(-8.47761e-06 0.000110721 0)
(4.86475e-06 2.20284e-05 0)
(4.62574e-06 2.22169e-05 0)
(5.86528e-06 8.8553e-05 0)
(6.45193e-06 8.81252e-05 0)
(-3.3044e-06 1.9354e-05 0)
(-3.65669e-06 1.96059e-05 0)
(6.33693e-06 0.000115965 0)
(6.97394e-06 0.000115502 0)
(-2.59049e-06 0.000170458 0)
(5.07106e-06 0.000155851 0)
(5.14463e-06 0.000155134 0)
(-3.86661e-06 5.1921e-05 0)
(4.43928e-06 8.1895e-05 0)
(-1.3429e-05 0.000189671 0)
(-3.88734e-06 0.000151762 0)
(-3.73447e-06 0.000151061 0)
(1.34093e-06 1.02515e-05 0)
(1.37911e-06 9.99378e-06 0)
(1.153e-05 0.000153422 0)
(-5.19894e-06 6.62815e-05 0)
(-4.46706e-06 6.63045e-05 0)
(1.14057e-05 0.000172937 0)
(-1.16005e-05 0.000182186 0)
(-1.15856e-05 0.000183043 0)