/*--------------------------------*- C++ -*----------------------------------*\
| =========                 |                                                 |
| \\      /  F ield         | OpenFOAM: The Open Source CFD Toolbox           |
|  \\    /   O peration     | Version:  2.3.1                                 |
|   \\  /    A nd           | Web:      www.OpenFOAM.org                      |
|    \\/     M anipulation  |                                                 |
\*---------------------------------------------------------------------------*/
FoamFile
{
    version     2.0;
    format      ascii;
    class       volScalarField;
    location    "1440";
    object      sigmaEq;
}
// * * * * * * * * * * * * * * * * * * * * * * * * * * * * * * * * * * * * * //

dimensions      [1 -1 -2 0 0 0 0];

internalField   nonuniform List<scalar> 
11800
(
126948
103916
346960
299193
99543.4
219929
122696
126480
132395
139410
124672
420692
61283.5
311411
275410
1.22764e+06
101952
96945.6
168388
100092
242737
382762
559177
499781
1.00088e+06
648917
624437
311468
689208
756205
214744
104085
639317
112481
114825
210417
114899
679377
109604
108926
647387
714147
327673
783961
226017
1.14846e+06
528534
611291
121654
157788
438350
314863
113386
174779
1.30788e+06
1.12791e+06
55978.9
297059
229754
227493
1.11371e+06
120643
238059
197872
981654
152758
449952
324637
56940.2
598489
117775
98848
95046.5
1.11054e+06
1.10187e+06
207311
1.01547e+06
143292
126580
132452
1.33261e+06
93346.3
100345
103443
96498.5
727313
227909
661392
600680
320978
110411
760360
117002
54795.2
125604
104518
13497.5
104107
112947
370751
70644.8
406210
721650
264313
119155
220368
124468
116099
1.07473e+06
659125
725637
598608
230755
327040
142391
971929
144286
114506
913815
145485
143952
124181
128579
104781
114211
112358
113539
112021
89260.6
30163.7
1.28209e+06
826916
244247
726767
338961
658498
597901
217696
622435
296922
564202
512718
332711
136292
156491
205661
717010
740579
421894
250983
145818
139779
113096
171778
153495
131975
288790
389247
805056
116145
1.23442e+06
155878
1.03261e+06
295366
322954
354047
178496
145929
1.34681e+06
800664
273052
367789
117635
231506
232543
1.14366e+06
1.15656e+06
583513
529995
643042
287729
205631
164132
143752
272314
142157
229233
115377
118970
123005
163711
150825
145013
155534
540850
694322
1.13692e+06
106050
145225
1.33078e+06
104997
178544
200479
116723
119491
504741
425630
387217
321451
1.27592e+06
383534
561346
1.74684e+06
1.38561e+06
1.48157e+06
235970
105215
516793
467808
425859
170408
230129
102052
96271.4
169378
101058
847140
178618
102476
286491
145674
124608
109099
388687
396627
1.73724e+06
842914
148981
156748
683107
556684
206467
287215
649282
592567
537921
117973
716568
243935
325968
306879
112192
108518
267597
224493
122698
1.47398e+06
179185
203449
156731
176859
419018
461433
506935
230724
172051
116240
1.09899e+06
117836
79471.3
113322
252760
98681.2
325009
1.30652e+06
238594
236238
348750
256265
292781
216523
745711
625645
199456
243387
165895
193819
350452
457055
195071
754682
810284
981139
123114
237562
236278
1.10266e+06
1.1133e+06
621406
611939
639655
633545
110040
77955.1
184923
1.47968e+06
102938
108258
188206
163388
166046
548964
556383
995654
1.48535e+06
453902
129490
525381
430853
308912
251358
127432
127097
172110
293287
158816
268866
98507.2
122022
123348
117968
810129
121523
106391
1.21246e+06
191587
440907
460448
449079
564670
544280
91234.8
90526.7
414534
535068
377035
977706
91621.7
511562
402652
257875
198458
196258
152853
203323
178685
230366
255668
279308
110060
112663
452845
481286
129076
143357
301949
246161
278341
132860
126811
154700
155708
564313
257851
199960
266433
631850
742074
256965
138908
134716
161668
152829
270064
314692
253529
298138
230410
271291
207815
194597
428607
206010
450546
770830
371665
277140
1.35883e+06
110000
810816
382546
283147
1.25274e+06
110885
835806
209681
727624
670748
645524
131318
57695.8
105048
1.56853e+06
1.35241e+06
562747
200571
258658
129195
146677
169287
105555
159244
1.02487e+06
41880.8
335544
253343
1.14298e+06
87068
126607
110554
119715
109597
115265
1.14796e+06
367676
157398
398702
362714
331680
88173
800739
253284
344072
122660
553763
127592
1.07195e+06
108084
139144
290662
264954
242931
559533
148301
304118
286235
149206
402777
441924
486002
229274
174958
52063.7
118052
127077
1.4196e+06
430751
339991
254714
210299
124814
119139
87896.4
91457.2
144319
79692.7
90287.7
106380
117586
233224
112412
153348
379289
423370
204156
1.0299e+06
137408
243542
113022
118645
984320
1.23769e+06
355715
392272
163888
145074
100533
864912
1.1888e+06
1.06058e+06
1.55851e+06
453867
318234
426400
93364.3
126380
120342
132168
415646
117474
115536
92502.8
119861
860724
184980
812772
548440
116023
145085
750949
871267
414163
456789
501751
230128
175161
376999
114414
114261
112166
124477
103529
136920
79155.3
128731
76552.1
124667
70509.1
122857
113238
121196
87312.1
989190
169196
155257
345047
564663
86429.6
116868
99625.3
94998.3
86047.8
182446
247836
111991
110272
367130
92729
136150
1.07013e+06
64597.2
124491
309743
283284
299592
326810
336648
358459
164679
134686
1.20122e+06
1.53572e+06
286380
75187.7
207278
236352
219947
163852
471013
431026
391569
124814
67993.8
442919
428118
193124
209797
118234
355147
391129
154107
618152
620934
628683
627507
1.13968e+06
1.11522e+06
333937
1.41532e+06
464479
108492
1.00297e+06
789621
869732
433659
181248
198841
134702
970668
301676
385621
1.49454e+06
142165
159577
326768
294671
795462
392447
1.20521e+06
109972
105566
171628
229079
514085
466530
423997
1.16154e+06
113892
234091
507122
831421
107653
1.35611e+06
1.27054e+06
1.28647e+06
150089
202927
83857.6
1.31552e+06
346019
154892
246542
1.19542e+06
111628
156749
169223
111407
317248
178783
1.56142e+06
1.30178e+06
140409
370810
472117
177652
203082
162947
150096
434465
151284
340037
257511
669239
604946
121017
806345
115160
238791
288153
1.12175e+06
201230
277160
158733
142605
123031
140405
261234
604498
667588
102998
104366
100751
135658
222971
818544
92055.2
264335
465555
359766
144646
617299
690508
438799
762218
838296
336675
228730
116978
124945
222659
239318
204204
221910
136755
202172
241007
150349
110785
1.53724e+06
633946
235371
306806
301577
150361
249927
353739
790042
717263
650870
206783
241663
151891
145380
945039
736415
799540
117243
142993
178800
385698
910237
280364
62262.5
119349
1.4415e+06
1.35747e+06
156120
1.24592e+06
94255.4
117134
99732.1
444720
96367.1
161075
185628
781570
862265
948368
1.04143e+06
441478
381064
319311
258029
137298
107592
251232
1.28058e+06
116852
116416
111675
113157
109766
114846
122344
996237
508849
488182
283701
536594
592490
208591
713158
173003
152178
118715
1.42273e+06
110073
120201
113683
115873
108885
1.29717e+06
173745
175466
726723
212894
455259
172526
1.324e+06
542564
259345
204369
876938
290204
130050
116185
101714
105871
158315
180225
168142
118825
338619
130818
108586
495780
557900
103537
358164
505887
433762
579642
1.13172e+06
1.02985e+06
933163
844106
356706
431226
1.14116e+06
1.03799e+06
502892
941614
578215
849551
1.04503e+06
122296
109016
119362
155319
333768
770116
117902
273235
362825
297674
398176
136617
165740
261134
371670
828314
752344
682734
323082
245990
624743
137936
166975
125137
218686
200501
180743
346531
275678
282672
213456
112085
469358
135953
212340
266283
674851
349239
407421
356073
132317
163532
129419
116477
116997
127930
362848
312951
111372
144331
146229
283266
891092
282053
384717
335728
122652
145157
135662
123708
164816
132265
390759
354468
321523
138941
1.05748e+06
425306
167507
640382
423930
867073
1.25314e+06
153593
171303
142292
115558
111248
450885
384123
1.29574e+06
101232
133801
223261
314614
148045
118151
453909
447954
58624.2
108332
230379
185952
84576.4
1.10774e+06
1.24804e+06
187610
104947
182990
239870
506231
415720
458497
1.43298e+06
112502
358703
402416
124268
372541
453739
529142
605106
1.18543e+06
1.07838e+06
977141
884186
371935
451098
1.19361e+06
1.08566e+06
524945
985108
602787
889462
1.18443e+06
1.02916e+06
778159
296310
338322
1.02457e+06
782862
215798
104404
100193
779041
1.3342e+06
106524
258597
1.13963e+06
772106
1.25447e+06
1.27253e+06
711438
717689
331450
267953
345638
189325
127556
192905
117999
132096
152313
136646
254326
1.29148e+06
345977
136094
90681.9
229748
247144
1.16062e+06
235358
212877
258821
275568
735310
324098
241399
1.00238e+06
259777
330974
132776
122424
244248
206827
226363
578308
347565
335000
830454
795005
331511
346191
638059
686327
254768
262331
110429
127462
133059
340002
263043
54487.6
122536
136730
416609
401429
207921
391621
305751
131091
89115.5
90999.9
359455
830237
97105.6
1.24835e+06
177634
457641
416174
141634
172921
281231
115922
108480
1.01737e+06
242707
633740
577109
524652
200784
278682
120461
966643
1.19281e+06
126069
114718
650996
230921
306099
529585
583234
650236
206913
283720
52342.3
503664
241411
1.18189e+06
233453
688937
531357
593950
117212
111842
107724
123104
114033
107381
997635
289732
120377
141996
153296
172944
200978
223964
461843
450391
421492
408985
373383
384269
761018
123893
110530
112386
129699
158720
116090
120469
892806
174708
321233
253034
661347
333161
126192
133042
277803
218978
375665
310091
788488
678507
616898
559815
314194
915822
425805
965669
166471
143183
180056
181972
131069
130228
128475
954004
1.30854e+06
210799
93438.1
159044
349829
267811
88808.2
116571
178165
165370
157345
152734
187579
178423
143672
297852
331407
323694
360844
269168
300449
367867
110488
716457
558556
306061
783568
738496
428143
1.30314e+06
232932
220792
252522
275164
127529
117611
128635
250138
113959
1.03815e+06
154677
117476
475213
50130.1
99722.1
1.08503e+06
127276
253535
812027
360344
738030
669803
978563
653775
106612
366574
294850
149610
867708
376180
163210
680910
614671
749444
114969
116679
107425
1.57322e+06
186639
265262
320178
160340
111626
105534
264226
287964
129838
1.09009e+06
258073
1.01372e+06
158474
536450
109624
380823
459074
637489
249147
327194
393573
175037
1.47055e+06
120579
91369.8
106045
1.27721e+06
860637
202156
285613
663817
606856
551029
1.31462e+06
365640
299585
1.36703e+06
1.53296e+06
1.03327e+06
84568.5
359422
843370
615587
325671
248824
587869
524232
250789
853352
207307
188423
308609
267724
214737
1.05688e+06
1.57551e+06
99031
112792
131142
1.53413e+06
115746
127687
426753
320367
1.37297e+06
1.43764e+06
116283
399712
152110
141471
330273
146228
94219.6
358022
103942
119172
1.57635e+06
645734
349859
268324
241347
181917
485703
443665
402024
158552
1.45125e+06
289054
256806
262613
1.22091e+06
478506
681685
103513
163272
121981
543511
295826
392478
102205
175346
233172
511796
180508
136265
121347
227379
1.35225e+06
183294
239811
505464
879281
1.24191e+06
792052
551830
396097
468982
62992.4
157794
202128
424976
387027
351497
1.23683e+06
106685
126829
136221
135451
134931
138720
179632
113551
110209
431573
1.08591e+06
282613
636163
578059
525386
203087
1.2331e+06
360253
406300
482418
415013
734854
1.19894e+06
373929
115001
507229
100351
517544
308669
569050
628166
228773
752242
189249
1.68441e+06
566731
111556
1.10608e+06
1.68435e+06
1.45092e+06
333906
114205
624597
121409
109855
100578
194235
115455
112060
104327
100288
999014
1.04819e+06
109529
729767
127429
118670
110509
155707
652937
661664
164304
664740
671010
952693
317982
127264
144292
189961
379012
415981
154793
40993
118423
506946
213658
501732
564510
623604
685954
346759
250864
204750
118284
107774
1.26141e+06
679963
111616
147571
579804
458773
242033
264422
142836
117015
217067
191943
98567.1
141239
112107
1.04831e+06
364907
904994
102596
108390
1.68898e+06
114375
1.30158e+06
1.27049e+06
104435
567469
274005
1.03878e+06
115532
516019
645633
1.41431e+06
153199
108141
102537
320090
152624
194262
378092
342942
311111
106373
109571
116130
109790
641411
708214
486958
844129
766808
911029
1.37039e+06
168072
437058
1.30541e+06
418604
1.26795e+06
538101
592365
654070
286443
203738
256917
312711
1.18819e+06
124222
130743
178470
168475
154785
132926
230201
209622
196568
512694
470546
1.54634e+06
160247
96609.4
136710
1.25476e+06
362494
184761
176803
1.22846e+06
555072
384156
89624.5
138920
101659
543434
697699
193842
841583
125200
122665
1.61716e+06
1.07077e+06
1.31359e+06
233768
298671
545010
196006
409747
1.3111e+06
1.44661e+06
124554
142291
229157
193737
600096
668048
449897
507027
1.44154e+06
1.3815e+06
175012
130593
90517.4
957213
99393.2
1.25774e+06
276587
185750
670927
207583
106380
1.20323e+06
147381
170799
95532
108835
909378
279162
112652
471516
217705
133158
108843
107827
399270
108223
1.19887e+06
1.12839e+06
192532
490014
283807
108795
118405
959707
124890
628580
163573
337238
652495
751920
1.13865e+06
128850
212549
1.28395e+06
161690
116814
100309
122638
111193
1.34343e+06
1.00209e+06
218200
287975
527457
498023
696045
237533
315660
238637
336007
725721
659411
597964
991413
435936
317182
1.03331e+06
320453
1.12299e+06
402295
408171
1.20946e+06
1.69226e+06
1.41799e+06
253388
298687
720492
321562
242142
106353
237038
1.1929e+06
114217
125458
1.46643e+06
1.08876e+06
1.30506e+06
525076
651606
660381
567765
101031
91878.7
140064
94362.7
421897
462605
509443
229586
170179
383596
1.31936e+06
111448
149498
126064
114330
594638
538358
141839
1.16287e+06
1.34092e+06
692488
560190
1.06448e+06
1.22489e+06
105141
591923
381618
782342
114103
163672
175279
995837
992675
485546
223511
100644
114697
148903
307253
1.06735e+06
144788
798073
105791
222347
166321
204473
357656
188198
302537
29249.1
8473.53
300945
1.57799e+06
133200
117566
127779
106650
104922
131567
139305
107709
117034
315478
106000
113879
133600
575349
713880
507385
1.12233e+06
1.39528e+06
112955
145146
236184
119011
937267
160930
1.44678e+06
152547
189585
368594
262265
155699
154067
355026
108961
123412
139536
100407
131118
95832
1.22653e+06
91552.8
111452
177861
106893
84485.1
1.25201e+06
133259
1.07322e+06
1.1134e+06
410727
285360
204416
284701
650056
598765
543635
110275
744406
414140
111101
1.33314e+06
114559
117005
226790
721180
511495
573322
846583
128493
108757
250295
362312
809002
419506
890760
308258
734028
666294
247346
891904
300442
807635
353871
734251
666242
408943
986878
130380
362309
276617
109634
132304
1.06377e+06
587585
803047
744483
650213
812038
590420
231539
254888
375079
921161
116049
1.50787e+06
133939
112623
1.14792e+06
129953
192282
399558
410881
1.18284e+06
98568.7
714231
650673
590654
221491
313320
1.43819e+06
228781
182566
421527
127551
438628
201926
241609
100809
141597
150641
126930
323362
106869
408633
221956
172228
526011
703860
711705
525650
269356
1.33256e+06
115099
115216
1.20494e+06
1.11048e+06
663172
1.67302e+06
660083
564681
645210
1.49204e+06
654388
514961
1.32002e+06
290341
293777
392402
1.14857e+06
97359.3
1.01524e+06
121172
179396
245609
407334
447428
491850
236916
178722
320248
65895
69139.9
113229
112690
151841
123252
109326
152936
694891
1.34882e+06
155154
132286
1.24663e+06
824279
320280
427044
111133
117179
1.06827e+06
721834
170022
549231
512482
718135
100611
109444
124678
108531
803166
1.34593e+06
1.3408e+06
896896
1.46429e+06
180773
100991
217323
644875
585609
710166
318195
222854
1.45602e+06
303208
372935
487324
170455
156328
622410
229825
117574
456478
174767
214732
1.39194e+06
223347
200691
696340
635441
576425
291421
933863
872659
1.13512e+06
356023
373275
434560
947698
420462
307057
841017
164378
1.67931e+06
123548
1.28536e+06
331603
382410
94657.4
401812
753802
111305
125497
118695
1.48781e+06
393875
355426
429434
209363
159021
216740
372611
980631
377158
743516
900415
819893
258474
813697
608290
647734
766417
810252
608513
654841
776118
453045
411162
33150.7
203535
131222
264992
381904
323214
440791
927486
843640
765331
694584
260657
749064
349587
124666
88517.2
95936.7
155061
86302.6
309255
708912
733572
271129
1.28787e+06
126094
108943
1.02023e+06
1.27534e+06
87760.5
776264
303868
402972
559782
367999
206759
112497
301432
483007
62530
114726
1.31045e+06
175133
142775
306511
278391
334784
230673
115228
117867
239632
818318
1.3009e+06
1.50684e+06
214387
236813
1.00854e+06
909446
1.20303e+06
105028
704352
1.16552e+06
1.5134e+06
1.56548e+06
1.49744e+06
353989
629925
268138
1.37229e+06
989823
397164
893903
113946
111830
1.06318e+06
1.06542e+06
110696
298497
1.38097e+06
1.13061e+06
1.06406e+06
1.10061e+06
1.57138e+06
1.05576e+06
1.29797e+06
1.15353e+06
117288
184112
824193
448192
692249
150295
105323
132659
123421
125508
148086
131447
272069
1.29443e+06
784820
263772
356641
847434
127957
396549
290205
1.61592e+06
208193
196678
394328
209967
360532
156642
134830
1.31357e+06
10746.3
105472
104891
21680.1
285997
354294
127872
140257
151615
115025
396332
355368
108319
1.3627e+06
1.17696e+06
372750
838188
273857
110486
979459
217011
1.36121e+06
342786
418105
487709
559962
1.10695e+06
1.00853e+06
913590
827897
342298
414394
1.11476e+06
1.01459e+06
483421
920182
556330
831803
191761
155429
374531
383702
333159
165995
145201
129543
113272
108892
110924
105228
104325
170382
618310
665379
544283
307035
594524
655451
1.08387e+06
436144
348988
1.22633e+06
411381
141913
86424.2
123970
114398
193528
173867
178248
119419
275104
213326
244381
486305
118522
145258
657241
119808
101128
118424
100300
905683
130280
163639
404183
322790
189821
411467
165060
99148.4
90982.3
1.47005e+06
1.47123e+06
803914
653261
633528
814517
1.41273e+06
715665
113498
460650
245607
195200
275001
141459
1.40666e+06
150086
757279
690763
627103
327308
229043
404719
228355
180783
1.42299e+06
160875
113418
467927
465494
198883
138096
158211
256272
551650
1.03616e+06
398440
312842
687610
827399
215598
302727
683008
620669
563903
314980
341422
590246
447798
635113
340075
705236
778421
230060
856397
1.63252e+06
1.16908e+06
104106
496146
546773
601089
198997
146714
977763
165340
215423
284877
303687
130474
164158
145121
118749
853531
644232
678940
814521
219360
1.1783e+06
1.46146e+06
535973
106436
488244
536569
590079
583846
706421
192113
1.11158e+06
489494
418522
378416
458254
173914
230248
144079
138434
288234
347667
315789
358641
393996
433961
260077
256596
359693
362318
751259
746258
617893
681557
613845
677367
375426
412997
162089
115819
124502
134367
834263
468147
115630
743907
614219
583910
764718
143537
277030
999404
407874
908175
823302
88421.7
169483
712576
391538
285297
933647
348841
65407.7
682586
620138
752840
331485
231202
1.00941e+06
351601
287007
1.30211e+06
353157
492059
128308
116389
219177
202838
183840
1.09655e+06
259853
200518
301301
273641
327052
165607
136459
743932
848120
144575
461203
110416
659518
1.30696e+06
838325
359792
276317
671442
329998
299046
246224
168766
119208
266294
134917
304099
132946
234760
111010
113164
1.38744e+06
256395
1.10029e+06
590886
645927
346476
266256
647634
1.26097e+06
94106.7
113718
119780
112018
252153
24283.8
8055.39
250825
510646
105029
515990
225694
185791
117033
330859
456579
1.00067e+06
106676
94719.6
121836
131832
279926
176860
647654
572963
159693
110642
102558
1.39162e+06
511823
106070
210080
108681
1.61525e+06
1.24587e+06
211653
148766
502794
250976
345618
694952
571402
631057
1.4409e+06
1.13745e+06
116174
1.09702e+06
1.52332e+06
1.14822e+06
1.25916e+06
571825
129969
794175
177268
123107
141681
270736
277758
212923
206368
485414
164672
122318
103386
722989
811128
895155
985007
1.07283e+06
451505
390130
325106
261581
167932
102986
349978
16441.6
174640
173710
8964.59
360239
181084
144346
84705.1
219394
252175
117697
254380
777778
506287
351329
254286
290166
1.33963e+06
1.04458e+06
132937
443595
115151
119393
346506
409974
463123
942191
246880
274370
118513
1.20947e+06
120138
204533
242409
225005
810309
892804
453763
555782
552921
343680
448537
891887
848128
833880
274793
372795
88181.2
104717
92119.4
178325
97090.7
406149
759840
676473
830114
601711
840922
600443
414562
313854
730860
534245
736236
535916
195024
860236
677540
591810
771534
683704
844022
611485
848729
610205
823699
1.61101e+06
312483
434428
965280
372427
102374
119086
162270
15982.1
161399
14180.9
110443
270043
823437
747564
908201
393674
276307
1.39151e+06
64083.2
109013
200645
648914
188971
521694
251659
1.43753e+06
1.45088e+06
897148
108797
213968
934493
462972
372520
289136
468240
424035
513340
187592
250754
1.50374e+06
352514
1.32519e+06
107346
110583
112820
107756
85004.9
1.30363e+06
113316
928442
84480.2
673044
916755
108180
119525
143183
389114
151960
313117
284646
213768
232719
255364
123988
221530
297590
365553
252279
861244
784778
712051
973708
1.31145e+06
1.45137e+06
98588.4
100367
104969
109825
180733
111155
189707
1.44062e+06
1.48108e+06
1.40824e+06
1.1486e+06
45083.1
819597
1.31356e+06
812650
632907
651598
803100
431429
413285
761082
467909
951893
88315.2
173464
204340
399600
164291
159487
185040
134276
155506
115156
133438
269266
275782
301682
295636
324620
330076
389209
390507
113526
115244
340200
233574
98661.3
139842
596119
956940
114672
534746
1.16267e+06
341379
1.0922e+06
471447
152488
1.08472e+06
510402
428739
677975
1.23175e+06
1.55934e+06
618884
233051
1.3239e+06
182891
141171
124996
312246
80717.4
565577
955399
230890
363407
153917
117310
159190
1.41822e+06
231043
263054
254625
198665
571378
178495
147945
593252
130035
1.23176e+06
116483
725118
253735
274073
1.13066e+06
905725
536595
998792
1.1007e+06
460963
1.20594e+06
389966
312736
899298
990501
1.20071e+06
1.09212e+06
313781
464943
539808
391447
1.31665e+06
138354
1.03325e+06
118723
102283
109840
5920.77
45035.7
546425
65942.1
995576
189765
153560
349773
380549
317999
311254
182781
805086
181515
191830
758724
91031
279601
256405
254232
791812
719070
873302
373144
366303
149542
245152
446665
990542
69984.6
232957
148211
105048
328267
1.07287e+06
568929
500833
1.11475e+06
148056
588642
1.28491e+06
636155
1.16576e+06
119695
1.29503e+06
163975
878395
293105
361608
113689
10397.9
104771
104169
17847
168173
937981
129502
1.06634e+06
510573
175379
780976
749370
861648
826810
949602
911498
425610
411491
297133
288290
326580
227654
761312
694853
630281
206084
246718
225066
126730
689774
595655
87987.5
134545
107268
123368
126195
1.30768e+06
1.05518e+06
260021
846512
768955
931102
109957
505477
874036
885331
120376
113874
1.0726e+06
360166
132194
177932
210164
194345
127335
343247
312708
287042
1.13736e+06
1.60775e+06
1.14804e+06
776028
365517
267597
129867
140972
194482
146078
116948
111016
147580
402099
316729
107786
990814
1.12901e+06
413140
396339
127311
129359
118664
118118
317868
1.0676e+06
732256
555364
574957
685493
112183
108838
165663
106688
102847
190196
1.66905e+06
1.3182e+06
105926
133212
493412
427007
302860
945855
1.03787e+06
778283
857429
575023
275325
231791
254369
135950
154437
1.20475e+06
292781
749255
73640.9
1.13422e+06
109350
393943
452534
1.66012e+06
107810
402677
121822
377471
123113
243833
772010
329972
839831
535921
927570
1.02268e+06
466982
1.12359e+06
396152
327179
400293
327623
161054
467212
530308
686795
105369
165488
922382
412640
1.5017e+06
1.24314e+06
1.39224e+06
259468
1.05483e+06
519181
371852
179765
141564
1.42433e+06
767274
101983
1.57856e+06
1.28546e+06
47140.6
416130
343848
60645.3
652156
481711
99513.2
122438
1.07024e+06
1.51469e+06
114170
477429
490241
1.04037e+06
1.00692e+06
352220
361227
354269
365642
111092
113245
113165
107935
80287.7
1.60426e+06
1.19305e+06
1.11498e+06
1.40377e+06
509040
258870
1.0717e+06
568858
627589
690191
73657.3
1.16792e+06
194356
858587
1.27283e+06
367088
247157
1.58489e+06
378813
397915
283628
300358
790519
765281
157466
157112
91427.9
110164
256428
926697
842307
763163
376795
1.5955e+06
115339
178154
96216.1
752468
829887
470727
913732
404267
1.01143e+06
345098
934955
769272
847626
1.02643e+06
280313
488205
422272
350849
109310
139608
143032
169788
302622
250812
276123
1.25746e+06
533967
651358
1.19681e+06
150597
204011
109613
325612
442639
159711
212620
1.24212e+06
133602
107795
115564
117287
108399
80811.1
169319
122509
132796
1.01566e+06
1.21448e+06
118114
101684
121962
212546
444544
1.34466e+06
1.24601e+06
584317
120017
131218
1.03299e+06
115935
118936
1.63015e+06
599023
1.19816e+06
308109
800486
469362
484771
148723
612006
819649
378797
275963
124568
273069
108218
73050.3
98024.6
1.32826e+06
688090
697773
1.2328e+06
199480
215078
123685
395620
114136
109953
123531
235709
208500
21126.1
207410
14513.1
113720
802350
226939
320207
687452
624626
566231
128985
1.4589e+06
508499
262879
1.21154e+06
674251
708951
133925
13087.5
133190
13823
1.09662e+06
305409
423675
513951
469604
112521
1.24653e+06
257402
192239
583762
446124
107998
28287
889244
178502
905098
211753
273747
519515
555623
463410
116075
433822
181694
222929
124491
133960
416768
432895
147418
248313
105540
106748
676880
328294
245812
119144
392508
10130.9
37841
390447
430122
348731
510894
607096
92036.8
1.48403e+06
1.5602e+06
184226
113880
118263
161680
181337
18658.3
180395
16134.6
732184
244241
334064
1.4537e+06
1.4734e+06
1.19805e+06
1.13995e+06
598526
529432
505649
450754
1.23803e+06
171543
331853
131343
95829.6
108790
230600
316424
448572
1.3565e+06
1.37778e+06
172602
89693.3
429758
472164
169705
727933
288579
242489
1.15451e+06
122695
121249
151138
671786
670248
719128
455022
234047
321268
84485
81533.4
849267
99212.7
730083
94488
341090
551911
483766
861573
1.0065e+06
116412
135181
267971
1.18789e+06
6149.09
76577.5
22699.7
76628.8
194002
184397
84388.6
1.38384e+06
24770.6
1.317e+06
343145
33075.3
10690.6
341346
205985
111455
12773.1
110922
261622
1.15169e+06
260535
1.36784e+06
1.52888e+06
45682.2
398644
483288
441544
590749
274439
203656
651259
446891
79491.4
162475
238624
178543
415973
559347
165762
166306
1.4748e+06
477345
551764
521235
600352
942678
109447
97167.9
788682
976060
348425
170929
194699
114019
220424
293397
118850
165121
226899
115420
80505.4
857842
1.01151e+06
183432
387676
305139
314884
1.0087e+06
433493
194947
163010
396088
357563
97720.8
227761
980446
1.21289e+06
297527
213978
516996
627795
570700
82511.1
106998
221554
166897
918331
333595
88396.9
43650.1
56462.6
292902
213090
499956
606666
551978
113838
1.34241e+06
1.5212e+06
124116
110347
103344
99438.8
1.31787e+06
243003
191507
540252
1.63549e+06
1.33184e+06
339445
139597
326196
297009
190360
175226
204636
121873
117971
116121
262970
1.31079e+06
101437
635874
688598
1.15997e+06
828454
808224
301220
296326
396640
403182
213725
212701
190514
103066
109150
467545
160468
1.19961e+06
802900
197901
107199
537193
1.55571e+06
104292
730104
605960
569887
754317
560174
233896
312266
733578
142297
536737
227917
251402
141405
318475
164721
209803
579694
280024
136211
120465
150250
701463
576103
147468
139760
138460
152872
112229
378464
290116
109438
277120
117712
164567
255926
1.41807e+06
1.24925e+06
862714
227327
174509
507419
462094
419537
212385
219264
101307
772702
117052
379446
505152
163854
174583
1.27867e+06
82874.3
230405
213784
117645
1.32738e+06
79221.2
118168
333473
396062
137567
128597
146058
109524
113234
856510
101510
105347
13041.3
104811
852113
782959
1.47654e+06
942513
1.15636e+06
120442
1.20125e+06
788670
11799.4
85625.6
188503
154081
315156
344550
376629
506386
270003
1.14946e+06
631549
695456
126514
95053.4
90790.9
105613
120383
117196
162905
700765
86035
1.47344e+06
372159
141831
739072
459609
239719
328388
163945
140456
196571
307879
193099
408436
382364
148941
117517
480392
748831
83090.7
86160
148455
91001.1
102333
1.16119e+06
270569
209132
611293
1.09941e+06
304223
202445
482076
419848
459168
381121
227217
171933
112947
6941.06
54918.2
465381
385084
540391
1.17117e+06
966342
1.06531e+06
384601
461618
1.1814e+06
1.07314e+06
538083
973919
151128
260755
217236
231029
108087
158987
137581
400194
188085
156749
174389
304108
869352
410065
112411
157086
103389
115576
169017
254297
111641
105870
97600.6
645061
230598
299422
210371
267956
562001
476844
555062
445293
807042
235872
143481
215322
482083
362172
181532
239646
336847
114185
215142
130519
129395
389739
389456
151533
504513
160039
165738
933237
781170
104899
123811
1.27827e+06
92774.8
145090
93136.8
157919
192093
608055
551414
497912
326158
327400
617182
150343
115015
109919
855301
160260
148979
159576
150451
137537
142511
88845.4
129620
1.0044e+06
994832
290615
230633
118522
666097
570130
234074
319046
451846
113058
79790.6
115487
1.29167e+06
453925
544015
61632.5
389090
158343
66411.7
150916
164764
152412
379755
113187
236360
186233
118737
1.5794e+06
249537
732822
205976
1.21076e+06
489647
574385
301151
223988
711059
93540
117843
132638
266529
327713
229597
155375
91652.8
70511
560859
234901
182233
96115.1
101895
105087
107638
247523
204752
227230
59531.1
118574
1.13963e+06
110914
1.57879e+06
332788
148938
586351
126907
98232.6
434271
155367
150043
705558
105920
451207
936770
850473
1.02705e+06
95693.5
160680
300994
930198
880744
239921
112391
257194
260578
369115
429333
810431
368646
419918
896858
800252
871917
667323
735544
658777
726105
1.11981e+06
243965
180408
1.31458e+06
102663
131400
463461
1.10225e+06
338135
186825
150438
102940
93659.5
119171
132216
98336.6
867562
212793
273320
504237
115916
604911
142457
224390
236154
359300
133964
116922
150666
116876
107377
153712
143553
134596
1.30528e+06
131062
108954
259530
328344
81477.1
178365
181339
991211
192546
136711
122184
129173
131567
1.29087e+06
219055
200123
487655
216111
173925
1.24902e+06
961220
1.0211e+06
320116
121846
1.10434e+06
328000
372499
161594
642304
514429
722882
585082
810688
415847
1.07756e+06
703131
924836
711322
477915
381371
101890
116169
1.13681e+06
97596.7
111201
109274
112142
108709
96934.5
661812
690858
150401
319053
30894.4
4248.66
317372
140197
93207.3
1.127e+06
379057
518935
199747
169009
189488
139917
154097
276763
317156
109575
151086
419676
294381
215357
405466
643752
545572
95790.1
626686
526547
1.55129e+06
934813
561104
1.0312e+06
1.13673e+06
483515
1.24577e+06
409306
330454
928889
1.02303e+06
1.12839e+06
1.24074e+06
486146
330010
563388
411316
110764
563541
85930.9
710409
706715
1.5652e+06
131761
283560
840700
122594
523639
87737
98163.4
809361
113719
182683
456090
595657
1.31306e+06
235590
261538
287104
126312
220522
288738
621030
240907
139373
114946
114890
122153
1.28713e+06
614530
598156
1.12157e+06
1.09126e+06
224174
202606
294569
264167
574458
527342
977868
1.13479e+06
700882
772050
851635
941598
263085
439591
322975