/*--------------------------------*- C++ -*----------------------------------*\
| =========                 |                                                 |
| \\      /  F ield         | OpenFOAM: The Open Source CFD Toolbox           |
|  \\    /   O peration     | Version:  2.3.1                                 |
|   \\  /    A nd           | Web:      www.OpenFOAM.org                      |
|    \\/     M anipulation  |                                                 |
\*---------------------------------------------------------------------------*/
FoamFile
{
    version     2.0;
    format      ascii;
    class       volVectorField;
    location    "4940";
    object      D;
}
// * * * * * * * * * * * * * * * * * * * * * * * * * * * * * * * * * * * * * //

dimensions      [0 1 0 0 0 0 0];

internalField   nonuniform List<vector> 
11800
(
(1.06506e-05 0.000301367 0)
(-1.34266e-05 0.000335931 0)
(7.45785e-06 0.000100669 0)
(-8.50166e-06 0.000137269 0)
(-1.22654e-05 0.00033536 0)
(-5.50521e-06 0.00013754 0)
(-2.02454e-06 0.000225816 0)
(-1.92441e-06 0.000173749 0)
(8.87729e-07 2.62908e-05 0)
(1.63331e-06 0.000104446 0)
(1.18241e-05 0.00030065 0)
(-1.05881e-05 0.000116865 0)
(-1.01678e-08 -8.0958e-09 0)
(6.62941e-06 0.000100057 0)
(-7.53989e-06 0.000137852 0)
(7.1866e-06 1.60884e-05 0)
(-1.12859e-06 0.000225154 0)
(-1.09191e-06 0.000173122 0)
(5.03683e-07 2.65837e-05 0)
(1.01306e-06 0.000103925 0)
(-6.48036e-06 0.00013703 0)
(-9.70148e-06 0.000117332 0)
(-1.56989e-06 5.65373e-06 0)
(-1.67591e-06 5.88875e-06 0)
(6.41774e-06 1.83891e-05 0)
(-2.51562e-06 9.39827e-06 0)
(-1.03406e-05 6.94716e-05 0)
(1.51464e-05 0.000202249 0)
(-9.19458e-06 5.25978e-05 0)
(-7.94171e-06 3.77411e-05 0)
(1.60516e-05 0.000256073 0)
(6.76586e-08 4.39677e-06 0)
(3.28693e-06 1.20981e-05 0)
(-8.1593e-06 0.000344762 0)
(6.64076e-06 0.000343204 0)
(-1.82621e-05 0.00027357 0)
(6.1871e-06 0.000344393 0)
(3.23546e-06 1.24399e-05 0)
(-1.97949e-06 0.000238587 0)
(1.63863e-06 0.00011478 0)
(-1.01681e-05 7.02555e-05 0)
(-9.05051e-06 5.32952e-05 0)
(1.47969e-05 0.000201085 0)
(-7.8267e-06 3.83507e-05 0)
(1.56956e-05 0.000254847 0)
(6.85604e-06 1.62168e-05 0)
(1.81192e-06 6.70048e-06 0)
(2.01951e-06 6.59336e-06 0)
(-3.11476e-06 0.000238793 0)
(2.54614e-06 0.000114942 0)
(-1.73341e-05 0.000176071 0)
(-1.85337e-05 0.000228156 0)
(-1.69508e-06 0.000298135 0)
(9.37504e-08 4.17149e-06 0)
(-8.80721e-06 1.91785e-05 0)
(1.18964e-06 9.80254e-07 0)
(-2.27912e-05 0.000349507 0)
(-5.69723e-06 9.68905e-05 0)
(6.54716e-06 0.000141624 0)
(-4.13689e-06 9.30528e-05 0)
(2.37934e-06 3.13335e-06 0)
(-2.92594e-06 0.000298359 0)
(-4.95279e-06 9.66701e-05 0)
(5.71034e-06 0.000141888 0)
(6.01128e-06 1.81062e-05 0)
(-2.17603e-05 0.000308824 0)
(-1.79827e-05 0.000175297 0)
(-1.92931e-05 0.000227305 0)
(-2.16472e-05 0.000348941 0)
(-2.64023e-06 9.70491e-06 0)
(-7.27241e-06 0.000345733 0)
(-1.28463e-05 0.000343856 0)
(-1.32201e-05 0.00034263 0)
(-1.12003e-07 1.24163e-07 0)
(2.54081e-06 3.26853e-06 0)
(-1.72016e-05 0.00027434 0)
(7.88982e-06 2.54497e-05 0)
(-2.21134e-05 0.000309983 0)
(-1.76075e-05 0.000312612 0)
(-1.64494e-05 0.000313661 0)
(-8.39537e-06 1.89144e-05 0)
(1.30908e-06 0.000119214 0)
(1.2135e-05 0.000341154 0)
(1.08331e-05 0.000341366 0)
(-1.55104e-06 0.000122543 0)
(-7.63772e-06 4.25283e-05 0)
(1.45109e-05 0.000246731 0)
(-8.74055e-06 5.80727e-05 0)
(-9.75527e-06 7.56025e-05 0)
(1.36408e-05 0.000193401 0)
(-3.83309e-07 0.000291662 0)
(3.49283e-06 1.1498e-05 0)
(-1.09329e-05 0.000314636 0)
(2.26374e-05 0.000352191 0)
(3.5914e-06 0.00015134 0)
(-2.70886e-09 -2.06069e-09 0)
(7.00687e-11 -4.38061e-10 0)
(2.71146e-09 -2.06299e-09 0)
(-2.23733e-07 0.000301814 0)
(-1.0053e-05 0.000119466 0)
(1.94866e-05 0.000350928 0)
(1.17559e-05 0.000131339 0)
(-4.235e-06 1.6829e-05 0)
(-9.52077e-07 1.29741e-05 0)
(-6.22877e-07 0.000333851 0)
(1.17279e-06 2.75079e-05 0)
(-2.47294e-06 0.000171192 0)
(-2.57332e-06 0.000222981 0)
(3.69973e-06 6.26186e-06 0)
(8.82555e-06 5.80476e-05 0)
(7.71231e-06 4.2506e-05 0)
(9.85042e-06 7.55741e-05 0)
(-1.46913e-05 0.000246761 0)
(-1.3812e-05 0.000193443 0)
(2.10627e-06 0.000102305 0)
(2.9279e-06 5.70717e-06 0)
(2.15937e-05 0.000310091 0)
(-8.81741e-06 0.000318333 0)
(2.98107e-06 5.49824e-06 0)
(-1.46117e-06 0.000105754 0)
(-8.69913e-07 2.55934e-05 0)
(1.98228e-06 0.000227485 0)
(1.88079e-06 0.000175242 0)
(-2.71399e-06 0.000218106 0)
(-1.10043e-05 0.000315826 0)
(-9.53083e-07 0.000300869 0)
(-7.06551e-06 0.000333984 0)
(-1.63506e-06 0.000333073 0)
(-2.44581e-05 0.000361117 0)
(-2.53321e-05 0.000360241 0)
(-6.95764e-07 3.12249e-07 0)
(-3.16841e-06 7.40572e-06 0)
(1.48854e-05 0.000239364 0)
(-8.20321e-06 4.65208e-05 0)
(1.394e-05 0.000186489 0)
(-9.31714e-06 6.26159e-05 0)
(-1.03408e-05 8.06523e-05 0)
(1.37354e-05 0.000239583 0)
(-7.55911e-06 4.63812e-05 0)
(1.28644e-05 0.000186691 0)
(-8.58766e-06 6.24609e-05 0)
(-9.53298e-06 8.04832e-05 0)
(-1.98517e-06 2.36967e-05 0)
(4.82928e-06 0.000231863 0)
(4.50357e-06 0.000179459 0)
(-3.79664e-06 0.000109226 0)
(1.84772e-05 0.000119966 0)
(-1.83431e-05 0.000117334 0)
(1.15645e-05 0.000132297 0)
(-1.33524e-06 1.37712e-05 0)
(-1.21714e-05 0.000290311 0)
(-1.20661e-05 0.000291855 0)
(5.95579e-06 0.00034057 0)
(-1.36132e-05 0.000273952 0)
(5.46686e-06 0.000193304 0)
(5.93376e-06 0.0002466 0)
(-1.51597e-05 0.000217158 0)
(-1.4051e-05 0.000165782 0)
(7.06774e-06 3.03324e-05 0)
(-1.1055e-06 0.000292759 0)
(4.02181e-06 6.37378e-06 0)
(-1.24402e-05 0.000274224 0)
(8.25877e-06 2.58196e-05 0)
(-5.52545e-06 7.87063e-05 0)
(-4.96797e-06 6.08507e-05 0)
(-4.36182e-06 4.49526e-05 0)
(7.59417e-06 0.000188923 0)
(8.09888e-06 0.000241974 0)
(-3.54368e-06 4.37178e-06 0)
(-6.47251e-06 2.91741e-05 0)
(1.41644e-05 0.000219575 0)
(1.31202e-05 0.000168047 0)
(3.16856e-06 0.000222734 0)
(-2.0805e-05 0.000272291 0)
(-2.10149e-05 0.00027393 0)
(7.38864e-06 1.84221e-05 0)
(7.39927e-06 1.89319e-05 0)
(8.16646e-06 5.63601e-05 0)
(9.13523e-06 7.36929e-05 0)
(7.11498e-06 4.10247e-05 0)
(-1.29904e-05 0.000196064 0)
(-1.38005e-05 0.000249566 0)
(5.56091e-06 0.000192087 0)
(5.96641e-06 0.000245347 0)
(6.03401e-06 0.000116858 0)
(-2.87218e-06 0.000108978 0)
(-1.50937e-06 2.38193e-05 0)
(3.65633e-06 0.000231552 0)
(3.40868e-06 0.000179168 0)
(-4.73983e-06 0.000286329 0)
(-1.59045e-06 4.984e-05 0)
(-1.79642e-06 6.63908e-05 0)
(-1.79043e-05 0.000306441 0)
(-4.83756e-07 1.12928e-05 0)
(-1.72567e-05 0.00014393 0)
(1.48772e-05 9.52205e-05 0)
(1.70457e-07 1.6199e-07 0)
(-1.07132e-05 0.000345313 0)
(2.14431e-05 0.000311343 0)
(-6.07157e-07 3.61465e-07 0)
(1.41278e-05 0.000326373 0)
(1.76451e-05 0.000278779 0)
(1.89239e-05 0.000279009 0)
(-5.45916e-07 0.000335548 0)
(-1.42853e-06 0.000336626 0)
(9.94969e-06 9.29046e-05 0)
(8.78977e-06 9.33177e-05 0)
(-1.17711e-05 0.00014639 0)
(-1.037e-05 0.000145874 0)
(6.86144e-07 3.07953e-07 0)
(-1.9351e-06 1.65333e-05 0)
(-2.17751e-06 9.19684e-06 0)
(-5.07746e-08 1.90841e-08 0)
(6.63659e-06 1.09072e-05 0)
(-1.57942e-07 5.01392e-08 0)
(8.63426e-07 9.03226e-06 0)
(-1.21522e-05 0.000333778 0)
(-5.83703e-06 4.15035e-05 0)
(-6.67601e-06 5.69237e-05 0)
(-7.46222e-06 7.4328e-05 0)
(1.11893e-05 0.000248567 0)
(1.05579e-05 0.000195146 0)
(7.28745e-07 0.000231121 0)
(6.77796e-07 0.000178762 0)
(-3.07301e-07 2.39902e-05 0)
(-5.86184e-07 0.000108652 0)
(-2.31672e-07 3.84833e-08 0)
(9.11491e-07 3.002e-05 0)
(-1.82545e-06 0.000166094 0)
(-5.48474e-06 0.000104928 0)
(1.2703e-06 2.95777e-05 0)
(-2.5715e-06 0.000166978 0)
(-8.30361e-06 0.000315783 0)
(1.02754e-05 0.000117719 0)
(9.57316e-06 0.00011681 0)
(5.05796e-08 1.90134e-08 0)
(2.31404e-07 3.84297e-08 0)
(-1.61082e-05 0.000293845 0)
(-1.54961e-05 0.000295095 0)
(-1.51705e-05 9.9618e-05 0)
(1.71152e-05 0.000138778 0)
(1.37248e-05 0.000249459 0)
(1.29169e-05 0.000195969 0)
(-7.09803e-06 4.10848e-05 0)
(-8.14873e-06 5.64243e-05 0)
(-9.11452e-06 7.37647e-05 0)
(-4.87589e-07 0.000299661 0)
(-5.98001e-06 2.79067e-05 0)
(1.33916e-05 0.000222332 0)
(1.24238e-05 0.000170602 0)
(8.20862e-06 0.000118954 0)
(6.94355e-06 0.000282533 0)
(1.08997e-05 0.000352616 0)
(1.10437e-06 8.90104e-06 0)
(-4.0178e-06 9.40125e-05 0)
(-9.52769e-09 3.28179e-06 0)
(1.57566e-07 5.00289e-08 0)
(3.88364e-06 9.92213e-05 0)
(3.34276e-06 9.8181e-05 0)
(-4.20633e-06 0.000139032 0)
(-3.60299e-06 0.000140063 0)
(7.46693e-06 7.43061e-05 0)
(6.67999e-06 5.69041e-05 0)
(5.82585e-06 4.14936e-05 0)
(-1.057e-05 0.000195147 0)
(-1.12352e-05 0.000248599 0)
(-5.94753e-06 0.000345417 0)
(2.00324e-06 2.42304e-06 0)
(8.33914e-09 0.000198196 0)
(-1.46364e-08 3.97248e-05 0)
(7.92728e-06 0.000333258 0)
(6.44897e-06 0.000116009 0)
(-2.50841e-05 0.000329296 0)
(7.41179e-06 0.000119816 0)
(2.8524e-07 2.07677e-07 0)
(2.06517e-05 0.000268914 0)
(2.07707e-05 0.000267397 0)
(-1.26065e-05 0.00017082 0)
(-1.3588e-05 0.00022256 0)
(-1.12615e-05 0.000170388 0)
(-1.21416e-05 0.000222098 0)
(6.03842e-06 2.78043e-05 0)
(5.41453e-06 2.79885e-05 0)
(6.14419e-06 0.000156848 0)
(7.30716e-06 0.000156665 0)
(6.67123e-06 0.000207473 0)
(7.93703e-06 0.000207272 0)
(-3.36156e-06 3.49206e-05 0)
(-4.00476e-06 3.50348e-05 0)
(-7.01209e-07 1.56666e-05 0)
(3.55104e-06 9.98098e-06 0)
(3.32425e-06 9.6347e-06 0)
(3.39007e-06 7.28704e-06 0)
(5.93847e-06 0.000283752 0)
(-2.04702e-05 0.00026941 0)
(-2.05796e-05 0.000267835 0)
(7.63563e-06 2.05824e-05 0)
(7.48454e-06 1.99939e-05 0)
(1.62134e-05 0.000119992 0)
(1.64328e-05 0.000121344 0)
(-1.60811e-05 0.000117239 0)
(-1.6165e-05 0.00011591 0)
(7.34543e-06 0.000340341 0)
(-2.00878e-05 0.000344794 0)
(-1.93099e-05 0.000290062 0)
(4.47736e-06 5.02845e-06 0)
(-1.17957e-05 0.000340453 0)
(-1.05321e-05 0.000339282 0)
(5.00048e-06 0.000158651 0)
(-3.08559e-06 0.000142502 0)
(2.75357e-06 9.61455e-05 0)
(-1.37932e-05 0.000120441 0)
(1.35245e-05 0.000116674 0)
(-6.48668e-06 2.02234e-05 0)
(-1.89115e-07 1.19469e-07 0)
(1.0222e-06 4.13199e-06 0)
(1.24294e-06 0.000102631 0)
(-1.16036e-05 0.000103364 0)
(1.25209e-05 0.000134303 0)
(-6.67573e-06 9.4051e-05 0)
(7.96971e-06 0.00014501 0)
(4.0469e-06 0.000253363 0)
(5.58106e-06 0.000252816 0)
(-2.35884e-06 5.40321e-05 0)
(-3.25856e-06 5.43595e-05 0)
(-2.64724e-06 7.11034e-05 0)
(-3.6553e-06 7.1469e-05 0)
(6.32554e-07 2.73189e-05 0)
(-1.34747e-06 0.000171578 0)
(-1.36597e-06 0.000223419 0)
(-2.21507e-06 0.000327695 0)
(3.10069e-06 7.2402e-06 0)
(-6.16974e-07 0.000138826 0)
(-9.53256e-06 0.000335948 0)
(1.28189e-06 1.01712e-06 0)
(8.53577e-06 0.00019915 0)
(-4.58189e-06 3.9287e-05 0)
(-1.43867e-05 0.000140307 0)
(-1.35112e-05 0.000139603 0)
(1.25716e-05 9.82061e-05 0)
(1.18514e-05 9.88057e-05 0)
(-1.42816e-05 0.000350387 0)
(-1.4439e-05 0.000348877 0)
(-2.32497e-06 1.57654e-05 0)
(-2.7574e-06 1.57056e-05 0)
(1.11912e-06 4.33133e-06 0)
(-2.64514e-06 4.49603e-06 0)
(6.80314e-07 0.000145717 0)
(4.09866e-06 2.83116e-05 0)
(3.44722e-06 2.84924e-05 0)
(-8.47085e-06 0.000169638 0)
(-7.10075e-06 0.000169235 0)
(-9.13569e-06 0.000221301 0)
(-7.65988e-06 0.000220869 0)
(-1.85279e-05 0.00028067 0)
(-1.71447e-05 0.000280783 0)
(-4.03815e-06 8.40947e-05 0)
(-3.72825e-06 6.56919e-05 0)
(-3.29768e-06 4.92227e-05 0)
(5.87218e-06 0.000261804 0)
(-9.93595e-07 0.000296738 0)
(1.2169e-05 0.00011656 0)
(1.15231e-05 0.000117579 0)
(5.41562e-06 0.000226303 0)
(5.17523e-06 0.000174216 0)
(-2.40541e-06 2.60882e-05 0)
(2.2715e-06 2.9226e-05 0)
(1.86983e-06 2.97978e-05 0)
(-4.19199e-06 0.000218063 0)
(-4.98907e-06 0.000219194 0)
(-4.61689e-06 0.000167705 0)
(-3.76107e-06 0.000166551 0)
(-4.78836e-06 2.67814e-05 0)
(1.0174e-05 0.000172869 0)
(1.09514e-05 0.000224778 0)
(-1.28447e-07 1.21872e-06 0)
(1.81012e-05 0.000133121 0)
(-1.65943e-05 0.000104759 0)
(-7.18968e-08 1.13354e-06 0)
(-5.45925e-06 0.000249408 0)
(-6.4038e-06 0.000250787 0)
(-5.0048e-06 0.000196018 0)
(-5.86233e-06 0.000197324 0)
(3.17303e-06 4.02501e-05 0)
(2.73411e-06 4.09607e-05 0)
(3.75686e-06 5.55578e-05 0)
(3.22535e-06 5.63702e-05 0)
(4.20727e-06 7.28093e-05 0)
(3.60794e-06 7.37184e-05 0)
(2.04512e-05 0.000281218 0)
(2.0832e-05 0.000282655 0)
(-1.8902e-06 9.27226e-06 0)
(7.67658e-06 0.000200148 0)
(-4.09035e-06 3.87415e-05 0)
(6.64842e-06 3.05944e-05 0)
(-1.31525e-05 0.000165228 0)
(-1.42242e-05 0.000216529 0)
(-1.84126e-07 5.58514e-08 0)
(2.66704e-06 0.000293146 0)
(6.56346e-06 2.91806e-05 0)
(-1.33368e-05 0.00016804 0)
(-1.44119e-05 0.000219521 0)
(4.96096e-06 8.46803e-06 0)
(-1.00808e-05 0.000317873 0)
(6.29197e-06 2.3264e-05 0)
(-1.59236e-05 0.000260667 0)
(-3.35212e-06 1.24692e-05 0)
(-3.57678e-06 1.2929e-05 0)
(3.51492e-06 1.27938e-05 0)
(-1.70952e-06 0.00013861 0)
(-1.29856e-08 -9.55727e-09 0)
(-1.07053e-05 0.000348458 0)
(-1.65107e-07 6.55153e-08 0)
(1.83604e-07 5.57007e-08 0)
(-4.91677e-06 2.82607e-05 0)
(1.09292e-05 0.000221465 0)
(1.0134e-05 0.000169793 0)
(8.426e-06 0.000293611 0)
(-2.41521e-05 0.000315136 0)
(3.10051e-06 0.000129676 0)
(-1.97905e-06 0.00012626 0)
(-5.36119e-07 1.30498e-05 0)
(-1.50741e-06 1.56563e-06 0)
(-9.37477e-09 -8.44225e-09 0)
(-5.98762e-06 9.49359e-05 0)
(7.14551e-06 0.000143987 0)
(5.11947e-07 1.79089e-07 0)
(-7.90763e-07 0.000124387 0)
(-7.4549e-07 0.000123176 0)
(-1.08083e-08 0.00010428 0)
(-1.37356e-07 2.64225e-05 0)
(2.79091e-07 0.000173461 0)
(2.51705e-07 0.000225603 0)
(-5.14017e-07 1.79824e-07 0)
(2.12934e-06 1.41215e-05 0)
(-8.32877e-06 0.000256394 0)
(4.74161e-06 5.23095e-05 0)
(5.33499e-06 6.9165e-05 0)
(5.87608e-06 8.79022e-05 0)
(1.75409e-05 0.000334407 0)
(-6.37032e-06 2.52678e-05 0)
(1.50393e-05 0.000228432 0)
(1.40008e-05 0.000176278 0)
(-9.92583e-06 0.000308337 0)
(1.42661e-06 3.61094e-06 0)
(1.34117e-05 0.000302579 0)
(-2.8242e-06 4.42814e-06 0)
(9.40128e-06 0.000335744 0)
(-7.17816e-06 0.000256423 0)
(4.08315e-06 5.22866e-05 0)
(4.59433e-06 6.91409e-05 0)
(5.06367e-06 8.78708e-05 0)
(1.24629e-06 3.42129e-06 0)
(6.19583e-06 0.000205257 0)
(-3.17688e-06 3.60467e-05 0)
(-1.07102e-06 1.4062e-05 0)
(-1.75776e-05 0.000303661 0)
(-6.49627e-06 7.90002e-05 0)
(-5.84266e-06 6.11171e-05 0)
(-5.13181e-06 4.5189e-05 0)
(8.86216e-06 0.000188612 0)
(9.45245e-06 0.000241641 0)
(2.41678e-05 0.000354515 0)
(1.40772e-05 0.00031091 0)
(1.56058e-05 0.000310373 0)
(1.92713e-07 1.34017e-07 0)
(8.7143e-06 9.44021e-05 0)
(-1.02051e-05 0.00014458 0)
(-4.42217e-06 9.57594e-05 0)
(5.20357e-06 0.000143062 0)
(-1.48674e-06 0.000154185 0)
(-1.12814e-06 0.000251047 0)
(7.30139e-07 7.26193e-05 0)
(6.5177e-07 5.5385e-05 0)
(4.38932e-08 3.89013e-05 0)
(-2.36851e-07 0.0001498 0)
(-9.95515e-08 0.000199777 0)
(1.10705e-05 0.000354034 0)
(6.2259e-07 1.44857e-05 0)
(-2.65608e-07 3.33029e-06 0)
(2.1306e-06 0.000212179 0)
(1.06594e-07 3.44465e-06 0)
(-1.60764e-06 1.08065e-05 0)
(4.06194e-06 3.88068e-05 0)
(-7.70585e-06 0.000200017 0)
(-1.50237e-07 1.64097e-07 0)
(-1.62797e-05 0.000303518 0)
(-1.33707e-06 2.59151e-05 0)
(2.90521e-06 0.000226815 0)
(2.879e-06 0.000174557 0)
(3.60017e-07 8.63019e-08 0)
(-4.75173e-06 8.60726e-06 0)
(5.31314e-06 7.089e-05 0)
(4.73295e-06 5.38461e-05 0)
(-8.19068e-06 0.000253731 0)
(1.59057e-06 9.87308e-05 0)
(-1.10095e-05 0.000343953 0)
(-1.80722e-07 2.53143e-08 0)
(-6.22954e-06 1.34883e-05 0)
(4.03496e-06 7.41053e-06 0)
(-4.05407e-06 4.42708e-06 0)
(1.22527e-05 0.000118711 0)
(9.32931e-06 0.000144608 0)
(-7.97111e-06 9.43691e-05 0)
(5.7593e-07 3.85019e-05 0)
(-1.32038e-06 0.000150372 0)
(-1.1041e-06 0.000200526 0)
(1.17335e-05 0.000299123 0)
(1.08953e-05 0.000130108 0)
(5.69397e-06 0.000346623 0)
(5.48585e-06 0.000347922 0)
(1.59566e-06 0.000143928 0)
(2.16767e-06 9.7986e-05 0)
(1.805e-07 2.52765e-08 0)
(-1.57334e-05 0.000271079 0)
(5.65394e-06 1.92876e-05 0)
(1.9669e-08 2.6223e-07 0)
(3.02554e-06 0.000193208 0)
(3.95009e-06 0.000193882 0)
(5.28289e-09 2.27534e-08 0)
(-2.9563e-06 7.1677e-06 0)
(7.43606e-06 7.20855e-05 0)
(6.63417e-06 5.49182e-05 0)
(5.76753e-06 3.96986e-05 0)
(-1.07059e-05 0.00019821 0)
(-1.13621e-05 0.000251954 0)
(9.90395e-06 0.000123785 0)
(1.46437e-06 0.000293462 0)
(-6.40165e-06 0.000331125 0)
(-6.0603e-06 0.00033288 0)
(-6.07419e-07 0.000255137 0)
(-5.19043e-07 0.000256547 0)
(4.42149e-07 5.21674e-05 0)
(4.04012e-07 5.29437e-05 0)
(4.97582e-07 6.90116e-05 0)
(4.54122e-07 6.98837e-05 0)
(3.31839e-07 8.77312e-05 0)
(3.95068e-07 8.86653e-05 0)
(7.918e-07 0.000144412 0)
(1.44366e-06 0.000146746 0)
(2.50449e-06 0.000224161 0)
(-6.20283e-07 0.000153805 0)
(-3.60528e-07 8.64419e-08 0)
(-4.02622e-07 3.17551e-06 0)
(5.4587e-06 0.00020416 0)
(-2.82346e-06 3.66084e-05 0)
(1.42016e-06 4.41437e-06 0)
(2.12879e-05 0.000336058 0)
(-1.60909e-06 0.000257673 0)
(1.00587e-06 5.15771e-05 0)
(1.13295e-06 6.83476e-05 0)
(1.11971e-06 8.69594e-05 0)
(-1.62456e-05 0.000282129 0)
(5.59439e-06 0.000100341 0)
(8.3115e-06 0.000356797 0)
(9.39741e-06 0.000356 0)
(-1.59797e-06 1.11442e-05 0)
(-1.0207e-06 0.00019715 0)
(5.44397e-07 4.02947e-05 0)
(2.36866e-07 2.3938e-07 0)
(2.08885e-05 0.00034558 0)
(-2.78886e-07 5.62171e-06 0)
(-3.89196e-06 5.85773e-05 0)
(-4.341e-06 7.61794e-05 0)
(-5.19646e-06 7.69846e-05 0)
(-4.66328e-06 5.93017e-05 0)
(-3.36511e-06 4.29376e-05 0)
(-4.0723e-06 4.35907e-05 0)
(6.91349e-06 0.000191297 0)
(7.36759e-06 0.000244513 0)
(2.95329e-06 4.006e-06 0)
(-1.89236e-07 1.14481e-07 0)
(-1.79958e-05 0.000233275 0)
(-1.87516e-05 0.000344873 0)
(6.12535e-06 0.00014663 0)
(-5.15206e-07 5.75309e-06 0)
(-9.72623e-06 0.000190948 0)
(-1.03596e-05 0.000244129 0)
(5.52431e-06 4.38579e-05 0)
(6.30499e-06 5.96005e-05 0)
(7.02334e-06 7.73129e-05 0)
(9.05333e-06 0.00029459 0)
(2.05402e-05 0.000346813 0)
(-1.10101e-05 0.000119784 0)
(4.5234e-06 3.92766e-05 0)
(-8.54626e-06 0.000199142 0)
(5.86176e-06 0.000147778 0)
(-2.20584e-06 0.0001051 0)
(5.88367e-06 7.1498e-05 0)
(5.2453e-06 5.43898e-05 0)
(-9.02958e-06 0.000252813 0)
(-1.63743e-05 0.00012117 0)
(1.59908e-05 0.00011615 0)
(1.59914e-05 0.000117453 0)
(-1.61582e-05 0.000119786 0)
(-7.49417e-06 1.99818e-05 0)
(-7.71455e-06 2.06062e-05 0)
(-7.58875e-06 0.000117433 0)
(-3.8212e-06 4.53311e-06 0)
(-1.22846e-05 0.000118341 0)
(-1.78785e-06 0.000283773 0)
(-1.56147e-06 1.85918e-06 0)
(1.23271e-05 6.88038e-05 0)
(1.09515e-05 5.20125e-05 0)
(-1.74391e-05 0.000177615 0)
(2.81572e-06 7.15418e-05 0)
(2.51041e-06 5.44238e-05 0)
(-4.32836e-06 0.000252698 0)
(5.73659e-06 1.72246e-05 0)
(9.64896e-06 0.00014343 0)
(-8.30279e-06 9.53892e-05 0)
(-4.50951e-06 5.05068e-06 0)
(4.97134e-06 0.000225063 0)
(4.7474e-06 0.000173109 0)
(-2.23155e-06 2.66053e-05 0)
(1.43889e-05 0.00021246 0)
(-6.96732e-06 3.25497e-05 0)
(1.32721e-05 0.000161469 0)
(-7.92723e-06 1.97157e-05 0)
(1.01493e-05 0.000331793 0)
(1.16382e-05 0.000331307 0)
(1.12108e-05 0.000251962 0)
(1.06201e-05 0.00019823 0)
(-5.73863e-06 3.9812e-05 0)
(-6.56775e-06 5.49114e-05 0)
(-7.36153e-06 7.20782e-05 0)
(-1.64441e-06 1.61154e-06 0)
(-8.88122e-06 0.00030802 0)
(9.72104e-06 0.000196019 0)
(-5.33439e-06 4.10118e-05 0)
(-9.99241e-07 1.23665e-06 0)
(8.31588e-06 0.000335525 0)
(1.98747e-06 1.6237e-06 0)
(1.64811e-06 1.23088e-06 0)
(4.18543e-06 5.92836e-06 0)
(1.00503e-05 0.000269435 0)
(-1.69779e-05 0.000276888 0)
(2.26359e-05 0.000336489 0)
(4.2394e-06 6.23266e-06 0)
(9.9222e-06 0.000130067 0)
(1.36352e-05 0.000285762 0)
(-2.18657e-05 0.000270135 0)
(7.94507e-06 1.97602e-05 0)
(-5.00842e-06 0.000287565 0)
(2.04277e-06 7.17652e-05 0)
(1.82179e-06 5.46226e-05 0)
(-3.14013e-06 0.000252351 0)
(-7.4308e-07 3.55861e-06 0)
(5.80852e-06 0.000154761 0)
(1.63655e-07 6.49657e-08 0)
(-6.58561e-06 1.3358e-05 0)
(-1.16647e-06 0.00012705 0)
(-2.95113e-06 2.4299e-05 0)
(-3.43555e-06 2.44601e-05 0)
(6.60922e-06 0.000178152 0)
(7.67056e-06 0.000177819 0)
(8.2325e-06 0.000230101 0)
(7.0922e-06 0.00023046 0)
(1.93682e-07 7.13522e-07 0)
(-4.66459e-08 8.99158e-06 0)
(-1.18353e-05 0.000159958 0)
(-1.2844e-05 0.000210826 0)
(6.28365e-06 3.33227e-05 0)
(-3.68072e-06 1.97951e-05 0)
(-2.21048e-06 0.000216805 0)
(-3.32699e-06 8.45455e-06 0)
(6.95807e-06 0.000332326 0)
(-5.5646e-06 0.000108101 0)
(-6.4493e-06 0.000107827 0)
(1.88891e-07 1.89453e-07 0)
(-3.68355e-06 0.000111826 0)
(-1.85342e-06 2.23467e-05 0)
(4.34036e-06 0.000182545 0)
(4.6458e-06 0.000235167 0)
(-5.18485e-06 0.000216841 0)
(-4.5578e-06 0.000165432 0)
(2.29081e-06 3.03685e-05 0)
(3.03162e-06 1.13577e-05 0)
(2.81562e-06 1.09436e-05 0)
(1.49632e-06 0.000107783 0)
(-1.92338e-06 0.000230016 0)
(-1.80049e-06 0.000177708 0)
(7.98e-07 2.44653e-05 0)
(-1.75465e-06 4.22539e-05 0)
(-3.13313e-06 8.69129e-06 0)
(1.29491e-05 0.000340168 0)
(-1.25985e-05 0.000202913 0)
(9.69309e-06 9.50104e-05 0)
(-1.13037e-05 0.000143895 0)
(1.38017e-05 0.000287058 0)
(-1.25969e-05 8.72829e-05 0)
(-1.14536e-05 6.85973e-05 0)
(1.54773e-05 0.000153234 0)
(-1.01725e-05 5.1825e-05 0)
(-8.7853e-06 3.70953e-05 0)
(1.69184e-05 0.000203551 0)
(1.78929e-05 0.000257515 0)
(-4.62933e-06 0.00024636 0)
(-4.35221e-06 0.000193038 0)
(2.77735e-06 5.8197e-05 0)
(2.42822e-06 4.26195e-05 0)
(3.09929e-06 7.57573e-05 0)
(2.65678e-06 5.90389e-05 0)
(-4.3963e-06 0.000244972 0)
(2.96149e-06 7.66955e-05 0)
(2.32622e-06 4.3357e-05 0)
(-4.13039e-06 0.000191733 0)
(-2.43575e-06 0.000312884 0)
(-4.87812e-06 6.36095e-06 0)
(-5.32207e-06 3.00804e-05 0)
(1.1451e-05 0.000217527 0)
(1.05939e-05 0.000166144 0)
(-3.34646e-06 4.05716e-05 0)
(6.17113e-06 0.000196775 0)
(1.69847e-05 0.000244099 0)
(1.59453e-05 0.000190935 0)
(-9.09055e-06 4.39751e-05 0)
(-1.03736e-05 5.97151e-05 0)
(-1.15536e-05 7.74249e-05 0)
(1.78971e-05 0.000266545 0)
(1.95322e-05 0.000266204 0)
(4.33828e-07 7.66823e-06 0)
(-1.78596e-06 0.000124957 0)
(-4.73554e-06 1.30191e-05 0)
(2.41633e-07 4.44318e-07 0)
(-4.66558e-06 1.65525e-05 0)
(-7.42366e-07 0.000284343 0)
(1.96988e-07 7.33723e-06 0)
(-3.90338e-06 0.00013397 0)
(1.62084e-05 0.000177722 0)
(-7.26857e-06 2.46686e-05 0)
(1.73957e-05 0.000229975 0)
(-1.59134e-08 -1.10292e-08 0)
(1.09684e-06 0.000212383 0)
(3.02907e-07 1.27071e-07 0)
(2.06801e-07 1.51294e-07 0)
(2.88658e-06 0.000152261 0)
(-3.45604e-07 2.77095e-07 0)
(1.32332e-05 0.000342723 0)
(1.00033e-06 0.000193827 0)
(-5.14578e-07 4.21249e-05 0)
(2.85029e-06 1.68499e-05 0)
(1.83238e-06 0.00019322 0)
(-1.00626e-06 4.24345e-05 0)
(-1.68582e-07 3.70667e-06 0)
(-1.23e-05 6.87679e-05 0)
(-1.09267e-05 5.19807e-05 0)
(-9.43806e-06 3.72408e-05 0)
(-7.83114e-06 2.47291e-05 0)
(1.74462e-05 0.000177654 0)
(1.81435e-05 0.000203326 0)
(1.87247e-05 0.000229898 0)
(1.91957e-05 0.00025728 0)
(-8.47735e-06 0.000277711 0)
(-7.53072e-06 0.000330479 0)
(-2.43702e-05 0.00027261 0)
(8.66316e-06 1.89209e-05 0)
(5.58265e-06 0.000350454 0)
(6.49122e-06 0.000348936 0)
(1.74408e-06 0.000188911 0)
(1.89168e-06 0.000241993 0)
(-1.31746e-06 7.87988e-05 0)
(-1.18468e-06 6.09292e-05 0)
(-1.04029e-06 4.50163e-05 0)
(-6.88073e-06 1.97672e-05 0)
(2.50877e-06 1.415e-05 0)
(-9.38909e-06 8.25813e-05 0)
(1.24981e-05 0.000183835 0)
(-8.47654e-06 6.43542e-05 0)
(-7.48295e-06 4.80515e-05 0)
(1.33663e-05 0.000236533 0)
(-5.23004e-06 2.19166e-05 0)
(1.35371e-05 0.000264135 0)
(2.28125e-06 0.000119646 0)
(-1.40279e-06 0.000295236 0)
(1.36403e-06 6.78449e-07 0)
(-1.02424e-06 0.000259044 0)
(6.69734e-07 5.08037e-05 0)
(7.55188e-07 6.74773e-05 0)
(7.04724e-07 8.59982e-05 0)
(4.24828e-06 0.000305927 0)
(-5.65198e-07 3.55683e-07 0)
(2.14709e-05 0.000301002 0)
(-3.2019e-06 0.000126866 0)
(-9.51535e-08 2.01981e-07 0)
(7.68154e-06 0.000180953 0)
(-3.33139e-06 2.30668e-05 0)
(8.22914e-06 0.000233459 0)
(1.64984e-07 1.27546e-07 0)
(-4.47804e-06 2.78596e-05 0)
(9.3025e-06 0.000170591 0)
(1.00274e-05 0.000222327 0)
(1.54449e-06 2.006e-06 0)
(-6.49592e-06 0.000110507 0)
(1.38947e-06 0.000118218 0)
(-1.4842e-05 0.00032181 0)
(1.3817e-06 0.000189948 0)
(1.47322e-06 0.000243072 0)
(-1.11101e-06 7.80343e-05 0)
(-8.73737e-07 4.44147e-05 0)
(-9.98166e-07 6.02411e-05 0)
(2.21002e-06 0.000120537 0)
(-3.02536e-07 1.14151e-06 0)
(-2.67059e-07 3.90175e-06 0)
(6.67731e-07 0.000283877 0)
(1.45991e-05 0.000129681 0)
(-1.36591e-05 0.000107838 0)
(-1.04122e-05 0.000360301 0)
(-2.36497e-05 0.000234898 0)
(-2.20983e-05 0.000182335 0)
(-2.29439e-05 0.000208171 0)
(-2.11095e-05 0.000157546 0)
(1.1491e-05 3.48783e-05 0)
(1.33849e-05 4.92158e-05 0)
(1.51327e-05 6.56329e-05 0)
(1.67367e-05 8.39641e-05 0)
(2.36342e-05 0.000234894 0)
(2.29279e-05 0.000208171 0)
(-1.15001e-05 3.48788e-05 0)
(-1.33946e-05 4.92168e-05 0)
(2.2081e-05 0.000182334 0)
(-1.5144e-05 6.56337e-05 0)
(2.10945e-05 0.000157546 0)
(-1.67493e-05 8.3965e-05 0)
(-6.62173e-06 1.92118e-05 0)
(-3.65399e-06 0.000294604 0)
(-2.60124e-06 0.000294322 0)
(-3.24111e-06 0.000333873 0)
(5.41175e-06 0.000201626 0)
(-2.85435e-06 3.79371e-05 0)
(-1.0157e-06 1.48512e-06 0)
(-4.19809e-06 0.000352957 0)
(-4.58385e-06 7.51663e-05 0)
(-5.61751e-06 7.48815e-05 0)
(-4.10493e-06 5.76689e-05 0)
(-5.02891e-06 5.74154e-05 0)
(6.85653e-06 0.000247681 0)
(8.23296e-06 0.000247797 0)
(1.80775e-05 0.000243461 0)
(1.69656e-05 0.000190339 0)
(-9.7151e-06 4.43397e-05 0)
(-1.10786e-05 6.01266e-05 0)
(-1.23325e-05 7.78794e-05 0)
(-1.09069e-05 0.000160526 0)
(-1.1832e-05 0.000211444 0)
(5.75889e-06 3.30025e-05 0)
(-3.41849e-06 0.000143649 0)
(2.91415e-06 9.51691e-05 0)
(3.57812e-06 0.000254735 0)
(-2.06104e-06 5.31504e-05 0)
(-2.31605e-06 7.01148e-05 0)
(-2.51246e-06 8.87619e-05 0)
(6.73011e-06 9.40273e-05 0)
(5.70448e-06 9.42693e-05 0)
(-7.90373e-06 0.000144975 0)
(-6.69052e-06 0.000144675 0)
(-7.97238e-06 0.000350302 0)
(5.27794e-07 1.42558e-06 0)
(1.32977e-05 0.000301332 0)
(4.77734e-06 0.000104523 0)
(1.30276e-05 0.000207949 0)
(-6.53666e-06 3.47601e-05 0)
(1.19831e-05 0.000157308 0)
(-1.11108e-05 0.000125499 0)
(2.67881e-06 2.62731e-05 0)
(-6.21242e-06 0.000225819 0)
(-5.77621e-06 0.000173832 0)
(7.82941e-07 0.000108786 0)
(-9.5115e-07 0.000178902 0)
(-1.01336e-06 0.000231291 0)
(4.12376e-07 2.39271e-05 0)
(7.49369e-06 9.84505e-05 0)
(-8.54494e-06 0.000139851 0)
(-4.09147e-06 0.000312879 0)
(-1.89985e-05 0.000309872 0)
(3.40117e-06 0.000133361 0)
(8.52336e-06 0.000133784 0)
(-6.82177e-06 2.55308e-05 0)
(1.60229e-05 0.000227863 0)
(1.49118e-05 0.000175751 0)
(-7.50294e-07 3.16252e-06 0)
(-2.55933e-06 0.000260854 0)
(1.42559e-06 4.97773e-05 0)
(1.61022e-06 6.63202e-05 0)
(1.76703e-06 8.47331e-05 0)
(-3.90875e-06 0.000126242 0)
(-1.76094e-05 0.000309977 0)
(-5.02132e-06 4.98383e-05 0)
(-5.67133e-06 6.63823e-05 0)
(-6.24639e-06 8.48353e-05 0)
(8.99522e-06 0.000260763 0)
(1.59699e-08 2.05464e-08 0)
(1.10253e-05 0.000124486 0)
(1.4218e-07 9.58789e-06 0)
(-5.12775e-07 8.84684e-07 0)
(-1.06712e-06 4.09673e-06 0)
(-5.14096e-06 1.76583e-05 0)
(-5.23033e-07 1.91926e-07 0)
(2.16641e-06 5.63107e-05 0)
(1.89642e-06 4.09419e-05 0)
(2.42353e-06 7.36534e-05 0)
(-3.67407e-06 0.000249493 0)
(-3.47641e-06 0.000196036 0)
(-1.068e-05 0.000103139 0)
(1.16162e-05 0.000134595 0)
(-1.03738e-06 6.06746e-07 0)
(1.41374e-05 0.000331907 0)
(1.0201e-05 0.000296772 0)
(-2.16865e-05 0.000279246 0)
(8.02738e-06 0.000132743 0)
(2.90311e-06 0.000144261 0)
(-5.44944e-06 0.000352796 0)
(-1.51617e-05 0.000151193 0)
(-1.4421e-05 0.000150521 0)
(2.14381e-05 0.000352691 0)
(-1.70206e-06 0.000314447 0)
(-4.7785e-06 9.47824e-05 0)
(5.7794e-06 0.000144232 0)
(1.75736e-07 9.92572e-06 0)
(2.60466e-06 3.4936e-06 0)
(5.20051e-07 1.9081e-07 0)
(5.11221e-06 0.000153744 0)
(1.88958e-05 0.000359961 0)
(-1.03357e-05 0.000249537 0)
(-9.72056e-06 0.000196031 0)
(5.32007e-06 4.09926e-05 0)
(6.8383e-06 7.36719e-05 0)
(6.11286e-06 5.63347e-05 0)
(-1.90557e-07 1.32285e-07 0)
(-7.63507e-07 0.000327357 0)
(9.66363e-06 0.000134182 0)
(-8.76039e-06 0.000103667 0)
(-1.54921e-05 0.000319381 0)
(-2.31325e-05 0.000236108 0)
(-2.2447e-05 0.000209339 0)
(-2.16296e-05 0.000183463 0)
(-2.06689e-05 0.000158624 0)
(1.114e-05 3.42768e-05 0)
(1.2997e-05 4.85189e-05 0)
(1.4711e-05 6.48475e-05 0)
(1.62846e-05 8.30977e-05 0)
(2.31148e-05 0.000236099 0)
(2.24311e-05 0.000209339 0)
(-1.11485e-05 3.42795e-05 0)
(-1.30054e-05 4.85219e-05 0)
(2.16096e-05 0.000183459 0)
(-1.47207e-05 6.48506e-05 0)
(2.0652e-05 0.000158619 0)
(-1.62954e-05 8.31009e-05 0)
(-3.31398e-06 4.41979e-06 0)
(1.30278e-06 1.21324e-06 0)
(-1.74364e-06 3.16681e-06 0)
(8.60402e-06 0.000131641 0)
(-9.42524e-06 0.000135576 0)
(1.66339e-06 1.98454e-06 0)
(-2.56991e-07 4.28916e-08 0)
(-2.08537e-05 0.000279923 0)
(1.19574e-05 0.000356316 0)
(1.34177e-05 0.000356992 0)
(2.56766e-07 4.28476e-08 0)
(3.75063e-06 4.96237e-06 0)
(1.87201e-05 0.000324229 0)
(-7.08664e-06 0.000149983 0)
(-4.55954e-07 3.95449e-07 0)
(-1.03341e-06 1.59001e-06 0)
(-1.61123e-07 4.11365e-08 0)
(3.02451e-07 2.32833e-07 0)
(1.9284e-05 0.00011936 0)
(-1.92211e-05 0.00011797 0)
(5.90899e-06 8.98414e-05 0)
(-7.26314e-06 0.000147222 0)
(6.13619e-06 9.21637e-05 0)
(-3.10848e-07 5.29067e-06 0)
(-4.47783e-06 0.000236058 0)
(3.54943e-06 0.00011257 0)
(-2.49464e-06 0.000233481 0)
(-2.38429e-06 0.000180835 0)
(1.02432e-06 2.30784e-05 0)
(1.95455e-06 0.000110515 0)
(-7.90467e-06 0.000149214 0)
(3.99748e-06 5.25875e-06 0)
(6.61819e-06 9.05242e-05 0)
(2.47156e-06 0.000133566 0)
(1.8813e-05 0.000334883 0)
(-5.70315e-06 0.000134675 0)
(-6.55889e-06 0.000135596 0)
(-5.2556e-06 1.11683e-05 0)
(-6.3613e-06 0.000139931 0)
(-5.43867e-06 0.000138955 0)
(5.6673e-06 9.82873e-05 0)
(4.97961e-06 9.92625e-05 0)
(-5.9146e-06 2.72726e-05 0)
(1.2448e-05 0.000171921 0)
(1.34068e-05 0.000223752 0)
(-1.62128e-06 1.79042e-06 0)
(-7.91905e-06 0.000148009 0)
(6.66476e-06 9.15407e-05 0)
(-5.04997e-06 0.000190742 0)
(-5.37917e-06 0.000243917 0)
(2.86793e-06 4.39283e-05 0)
(3.64478e-06 7.7418e-05 0)
(3.27246e-06 5.96889e-05 0)
(-2.59372e-06 1.20648e-05 0)
(-1.65764e-05 0.000201218 0)
(-1.57076e-05 0.000200579 0)
(8.70684e-06 3.83044e-05 0)
(8.28303e-06 3.86383e-05 0)
(1.09304e-05 0.000159488 0)
(1.2016e-05 0.000158698 0)
(-5.84441e-06 3.35566e-05 0)
(-6.47214e-06 3.40032e-05 0)
(1.1866e-05 0.000210319 0)
(1.30513e-05 0.000209458 0)
(-4.76134e-06 0.000311726 0)
(9.53705e-06 0.00028453 0)
(9.67415e-06 0.000283196 0)
(-7.01128e-06 9.21721e-05 0)
(8.27208e-06 0.000147185 0)
(-2.49785e-05 0.000347486 0)
(-7.18417e-06 0.000276914 0)
(-6.89893e-06 0.000275609 0)
(2.37446e-06 1.75585e-05 0)
(2.43998e-06 1.71096e-05 0)
(2.15832e-05 0.00028001 0)
(-9.50494e-06 0.000118447 0)
(-8.15888e-06 0.000118488 0)
(2.13541e-05 0.000316339 0)
(-2.15738e-05 0.000333559 0)
(-2.15458e-05 0.000335154 0)
(-6.46344e-07 3.27257e-06 0)