/*--------------------------------*- C++ -*----------------------------------*\
| =========                 |                                                 |
| \\      /  F ield         | OpenFOAM: The Open Source CFD Toolbox           |
|  \\    /   O peration     | Version:  2.3.1                                 |
|   \\  /    A nd           | Web:      www.OpenFOAM.org                      |
|    \\/     M anipulation  |                                                 |
\*---------------------------------------------------------------------------*/
FoamFile
{
    version     2.0;
    format      ascii;
    class       volScalarField;
    location    "4940";
    object      sigmaEq;
}
// * * * * * * * * * * * * * * * * * * * * * * * * * * * * * * * * * * * * * //

dimensions      [1 -1 -2 0 0 0 0];

internalField   nonuniform List<scalar> 
11800
(
198925
137432
677765
574292
133540
399926
183956
202350
218865
233513
198305
822936
103656
611076
518173
2.23843e+06
141403
143464
261085
160686
456181
742506
967064
866898
1.83565e+06
1.14344e+06
1.20726e+06
599166
1.31267e+06
1.41887e+06
396345
128333
1.14886e+06
143030
150433
379977
153037
1.22522e+06
153840
168775
1.25117e+06
1.36066e+06
629366
1.47198e+06
418297
2.09596e+06
928215
1.08313e+06
185920
281389
864343
608195
148582
242460
2.38904e+06
1.94737e+06
74081.4
561565
438690
418250
1.94768e+06
164698
445440
366246
1.80006e+06
270634
889256
630086
73679.1
1.05797e+06
151790
126799
122785
1.84985e+06
1.92897e+06
368189
1.88426e+06
257037
203237
206612
2.42791e+06
141260
133161
135210
138948
1.36817e+06
426303
1.2632e+06
1.16007e+06
625699
147891
1.36812e+06
171337
70295.5
215054
176786
22934.1
176891
150435
724016
83461.2
798888
1.2985e+06
445624
159963
380392
208874
178979
1.90541e+06
1.27563e+06
1.3813e+06
1.17152e+06
432389
634320
258729
1.7201e+06
251420
159121
1.61492e+06
239983
230761
185467
209160
158514
168581
147190
150181
150065
104679
30360.6
2.17471e+06
1.45663e+06
463302
1.37207e+06
667552
1.26476e+06
1.15993e+06
404364
1.17439e+06
577825
1.08263e+06
993058
585459
223112
283361
385791
1.42599e+06
1.4592e+06
832705
429541
234825
226737
149920
300348
276388
211578
550685
760326
1.5065e+06
156642
2.18957e+06
264442
1.91869e+06
554467
602111
650124
329896
246507
2.35335e+06
1.47677e+06
526859
727401
173892
431403
428919
2.09779e+06
2.12047e+06
1.12875e+06
1.03728e+06
1.22241e+06
552610
376941
291025
232466
523339
248925
382489
170946
197028
181193
275401
257637
245056
219911
1.07957e+06
1.37008e+06
1.92118e+06
134930
255476
2.26401e+06
154509
331999
371766
154294
159788
990979
828054
762604
631252
2.17415e+06
670064
990162
2.9568e+06
2.49323e+06
2.50777e+06
388261
143999
962662
884388
813649
302989
438630
143696
145122
256970
155549
1.43119e+06
289390
157879
543002
242367
198104
153632
766604
782804
2.95512e+06
1.43037e+06
255025
266585
1.34316e+06
1.10079e+06
377104
552210
1.22007e+06
1.12941e+06
1.0377e+06
159444
1.31934e+06
464536
641337
600638
174020
136629
470900
420399
158102
2.5067e+06
328114
378760
269015
310837
816585
887650
958953
436619
304934
151682
1.91418e+06
179279
87161
148981
479826
175725
629816
2.22593e+06
450417
446592
677961
489957
564814
410150
1.38956e+06
1.16172e+06
372244
466419
294621
354972
638666
839777
298919
1.35401e+06
1.45214e+06
1.74515e+06
192444
444888
442146
2.02962e+06
2.0484e+06
1.23498e+06
1.21536e+06
1.25833e+06
1.24532e+06
146972
100171
335049
2.61236e+06
132855
139590
347800
283199
306611
1.07676e+06
1.10484e+06
1.81628e+06
2.50873e+06
786033
208288
1.02846e+06
851020
592229
483988
182248
193781
297503
529836
277509
491365
140419
189346
180963
158155
1.44028e+06
181924
139633
2.09184e+06
358329
812641
909056
885147
1.11933e+06
1.07731e+06
111953
110696
728963
955491
658108
1.7035e+06
133772
952217
739500
486130
366441
361419
276993
367612
316955
421237
460994
495990
175558
150534
898850
953386
202277
255962
524447
446812
502118
227020
212123
266164
271762
1.031e+06
501336
367832
395976
1.25372e+06
1.45333e+06
380208
222094
208513
287091
266081
504761
585546
479003
561809
442535
519055
390541
371218
744982
381259
834462
1.44053e+06
728222
532347
2.29792e+06
146798
1.51235e+06
748302
542328
2.23719e+06
158666
1.54637e+06
382181
1.29618e+06
1.19666e+06
1.16558e+06
212664
97575.9
133268
2.65511e+06
2.29764e+06
1.02981e+06
369058
502628
198336
267728
303675
163438
225846
1.76223e+06
70848.3
639341
490952
1.94147e+06
116571
194477
165310
161913
164797
164704
1.94161e+06
654825
260218
764214
704773
648605
130605
1.47161e+06
483532
678841
184282
963686
208164
1.87009e+06
147318
217882
552980
510759
470581
978296
261280
547752
478515
255151
767590
834995
903984
437662
312136
71810.3
190281
212352
2.41345e+06
842701
664508
478212
393426
205060
163820
119969
119012
208805
108130
125871
132425
181049
360613
161168
204458
653527
801338
376353
1.71876e+06
226458
407928
167357
201624
1.66975e+06
2.19749e+06
696460
756175
270503
240540
129186
1.46095e+06
2.13902e+06
1.88808e+06
2.72474e+06
899366
627898
821304
133853
204619
186908
209332
817275
155376
153436
136206
200537
1.46041e+06
327582
1.49482e+06
868920
189100
243027
1.19434e+06
1.53475e+06
812093
882771
951109
431087
300955
739430
153009
154782
150935
173835
137225
205595
104671
199692
104449
197733
91510
192196
176359
183158
124477
1.67069e+06
253671
279404
622123
985020
134595
164238
142708
140237
124301
325194
474882
136876
136257
643865
131189
195742
1.81564e+06
87518.4
177288
577418
531850
556274
602570
617953
650730
305627
226870
2.11027e+06
2.59628e+06
548377
91840.8
388880
368148
417700
295229
890047
823394
757498
187293
91296.5
863901
804314
357720
398277
197189
690313
748834
255359
1.21819e+06
1.2356e+06
1.24989e+06
1.2372e+06
2.08185e+06
2.03713e+06
644419
2.47828e+06
907747
148791
1.72647e+06
1.53992e+06
1.67397e+06
856534
345998
373851
201790
1.77571e+06
590074
743844
2.62401e+06
232288
290222
576190
565052
1.47665e+06
771059
2.19897e+06
146721
144632
300070
432668
959095
882104
811509
1.99859e+06
164370
441369
946843
1.42139e+06
143655
2.34573e+06
2.19365e+06
2.27948e+06
264961
359021
136248
2.33079e+06
676620
269838
462805
2.19619e+06
159263
272329
288580
153249
532528
330834
2.65604e+06
2.34147e+06
223259
662593
847467
325836
386504
285722
250248
701807
205919
665057
490055
1.25485e+06
1.09273e+06
186652
1.42648e+06
151089
452244
557671
1.8949e+06
362275
490743
273222
222141
207323
243174
464622
1.08707e+06
1.19719e+06
154732
147961
150449
198906
385849
1.44611e+06
124162
502175
909956
709589
251220
1.20729e+06
1.33571e+06
868090
1.45213e+06
1.57181e+06
652439
426003
175893
212830
403726
429792
375815
416170
210873
384764
447835
260685
152711
2.71071e+06
1.16831e+06
439750
596780
543926
263697
474166
695290
1.49179e+06
1.37639e+06
1.26287e+06
386818
457544
216827
237297
1.6937e+06
1.23729e+06
1.44406e+06
164966
221236
319174
761044
1.67435e+06
537227
105280
165960
2.45266e+06
2.30445e+06
277717
2.10995e+06
120913
177269
128293
809323
140231
244997
271418
1.51413e+06
1.64629e+06
1.7806e+06
1.91825e+06
872906
741190
615469
483940
212158
145841
475832
2.34814e+06
154302
150110
169065
159309
168536
175271
180606
1.81717e+06
916379
943201
555633
1.02786e+06
1.1152e+06
390879
1.30059e+06
311116
255451
162148
2.42606e+06
153126
186221
179734
188218
153326
2.20663e+06
313209
308810
1.18187e+06
393170
827038
293476
2.24587e+06
994380
498626
369920
1.52265e+06
551971
208228
173582
155371
147781
262119
287748
276252
201458
542292
167172
149361
978111
1.09189e+06
127597
691527
996872
844293
1.14753e+06
2.13674e+06
1.97928e+06
1.82238e+06
1.66431e+06
691689
844094
2.13816e+06
1.98075e+06
996849
1.8238e+06
1.1478e+06
1.66637e+06
1.90464e+06
170438
146094
159439
277629
602318
1.31415e+06
151499
502662
689906
543588
749874
217328
282405
501085
734608
1.56517e+06
1.44394e+06
1.3244e+06
628620
464989
1.17247e+06
235798
300411
185333
386603
359747
327629
675066
526542
541310
401511
142723
802158
219462
413516
507310
1.25501e+06
684024
800124
642849
234358
305656
209158
183729
172716
200599
711796
599964
156753
242798
267873
553133
1.64066e+06
538372
757563
563969
174908
254449
239350
221137
301589
214748
728148
671855
613748
237370
1.74727e+06
832157
239219
1.07592e+06
726823
1.57015e+06
2.12061e+06
262300
292747
247135
163518
176902
883339
751994
2.21122e+06
145728
206549
410483
610128
262623
152533
891999
882948
64165.3
151366
426113
346920
96190.7
1.94104e+06
2.12122e+06
353328
131529
316246
449424
960972
815268
886735
2.41973e+06
147534
698428
787015
184640
718182
877553
1.03765e+06
1.19445e+06
2.23729e+06
2.07369e+06
1.90969e+06
1.74499e+06
717793
877170
2.23765e+06
2.07323e+06
1.03644e+06
1.90937e+06
1.19405e+06
1.74517e+06
2.06952e+06
1.77995e+06
1.34177e+06
573669
654273
1.78088e+06
1.32159e+06
393861
130268
124813
1.32099e+06
2.35474e+06
177396
491471
1.93305e+06
1.32158e+06
2.12099e+06
2.16568e+06
1.41401e+06
1.4165e+06
648339
513582
671496
275903
207342
355349
176640
216345
265804
222125
490438
2.28095e+06
670322
223975
134330
428867
459855
2.07576e+06
434142
392743
499659
530304
1.35069e+06
643129
463307
1.72588e+06
494933
644610
230742
188088
444120
384761
414612
1.02627e+06
670169
651032
1.57517e+06
1.50635e+06
643336
680026
1.18533e+06
1.27301e+06
477661
501803
151092
210866
220789
653822
509045
87126
184885
212749
757663
720101
391923
764439
590815
232586
141887
141716
594188
1.43645e+06
139442
2.1203e+06
307350
866687
797064
244411
306217
515159
165372
139773
1.81791e+06
461588
1.18677e+06
1.09678e+06
1.00817e+06
367858
537232
186843
1.63951e+06
2.17677e+06
196827
161126
1.19735e+06
439289
600845
1.03802e+06
1.1289e+06
1.23422e+06
370928
540905
68569.9
869684
455985
2.17056e+06
359212
1.24853e+06
1.04134e+06
1.16886e+06
153604
158845
163211
171401
174675
152259
1.7992e+06
561517
208610
242098
269017
302465
379217
420302
860863
832615
796071
767729
706971
731800
1.24094e+06
187459
153629
148188
205702
231877
164497
188289
1.47919e+06
306293
556128
476728
1.22632e+06
647187
226390
236004
532189
411864
735488
601172
1.47322e+06
1.29428e+06
1.1952e+06
1.09727e+06
609550
1.69635e+06
842934
1.68089e+06
298098
247654
321271
311083
216474
195028
214813
1.71239e+06
2.21356e+06
399432
127850
296663
669789
520648
144837
170539
285964
271446
285328
263740
350795
329621
246680
567237
629385
612738
679669
521122
578864
633070
143544
1.40129e+06
1.11339e+06
587385
1.39758e+06
1.31255e+06
767558
2.21432e+06
420849
400016
453057
484500
223754
182071
195413
420421
161182
1.86241e+06
238741
154958
935360
65953.9
128159
1.84171e+06
211083
481295
1.53253e+06
707731
1.41458e+06
1.2982e+06
1.66036e+06
1.10283e+06
181052
710732
568273
233260
1.58133e+06
726421
232581
1.3292e+06
1.21242e+06
1.44449e+06
148999
151876
182869
2.67623e+06
320873
505805
618553
278634
155628
154985
484260
523130
202403
1.84226e+06
492845
1.8791e+06
286387
921015
153327
748482
894950
1.18151e+06
475611
641512
768111
308067
2.63831e+06
186781
131103
159685
2.24872e+06
1.47195e+06
372777
550123
1.24421e+06
1.15342e+06
1.06031e+06
2.31471e+06
713337
577386
2.30519e+06
2.60535e+06
1.80017e+06
86916.7
618483
1.53728e+06
1.15778e+06
632077
469659
1.16833e+06
1.04227e+06
479015
1.57574e+06
380542
308661
593668
523929
397077
1.81542e+06
2.7627e+06
138464
151303
178452
2.63437e+06
180507
211950
822611
633488
2.33036e+06
2.44123e+06
148720
694526
238693
227643
574960
246878
148735
620627
142079
160241
2.77895e+06
1.21752e+06
677511
504909
454621
324344
925170
854636
784994
233833
2.47051e+06
484884
439738
505057
2.06825e+06
846256
1.24614e+06
170414
266248
201298
927009
574882
765829
138217
327121
446663
942737
332859
209072
178172
353514
2.30404e+06
336512
455401
934807
1.48777e+06
2.10292e+06
1.42745e+06
975971
775986
918428
93175.1
266941
373772
799745
738953
680822
2.10322e+06
165033
215900
231471
230983
231891
224156
335327
150957
153284
757437
1.91014e+06
545546
1.20591e+06
1.11395e+06
1.02404e+06
373746
2.1571e+06
696088
794134
951255
820243
1.3252e+06
2.1118e+06
633079
164023
810230
128717
1.00211e+06
602182
1.0925e+06
1.18578e+06
425938
1.37438e+06
338895
2.8483e+06
978032
154963
1.97073e+06
2.8566e+06
2.45938e+06
582524
147854
1.10613e+06
186515
176240
125909
307004
166055
171712
146852
155786
1.78895e+06
1.87797e+06
154548
1.22538e+06
196903
187522
151546
257166
1.29847e+06
1.30384e+06
294791
1.32159e+06
1.32396e+06
1.68711e+06
554640
207115
261583
357447
716164
776653
261840
69355.3
177730
838578
403786
989249
1.11344e+06
1.21575e+06
1.32002e+06
679496
478433
349305
194893
167655
2.13359e+06
1.17978e+06
140033
244782
1.05705e+06
820964
447665
484693
218545
196610
362560
321377
125565
248006
167872
1.79182e+06
705947
1.71298e+06
160022
145676
2.85718e+06
146004
2.21829e+06
2.19167e+06
156021
1.02484e+06
518459
1.75433e+06
169863
973481
1.10084e+06
2.39595e+06
269318
167842
140550
543205
257344
352948
715977
656522
604301
175456
137052
201553
191878
1.26812e+06
1.39681e+06
953049
1.62801e+06
1.4973e+06
1.72715e+06
2.45093e+06
308119
781837
2.33422e+06
681801
2.18618e+06
1.05307e+06
1.14537e+06
1.24036e+06
549623
372070
459558
536902
2.01977e+06
181082
214614
318899
302234
282243
202899
421030
389158
364073
889200
928962
2.70389e+06
300144
136828
188449
2.13199e+06
610305
332583
321297
2.07978e+06
1.09705e+06
757165
117556
222490
141052
1.082e+06
1.3792e+06
346152
1.54743e+06
210412
203979
2.78076e+06
1.82061e+06
2.22808e+06
437314
582248
1.01587e+06
314331
803568
2.32663e+06
2.44954e+06
206877
237996
401435
326733
1.16933e+06
1.30646e+06
895151
1.0084e+06
2.58779e+06
2.3775e+06
305440
201229
116706
1.70171e+06
136821
2.2456e+06
442404
340320
1.20731e+06
386776
156585
2.07908e+06
235612
309998
115138
138106
1.54527e+06
539081
158863
844164
402349
220941
162646
140549
786604
142780
2.12865e+06
1.90718e+06
351829
958536
542876
157953
176218
1.63965e+06
198049
1.10693e+06
284287
612177
1.29348e+06
1.47548e+06
2.03437e+06
218579
345428
2.21192e+06
277543
172769
163278
189968
142840
2.26165e+06
1.77239e+06
410404
566659
976965
982703
1.2786e+06
451630
621593
446833
650026
1.38596e+06
1.2796e+06
1.17444e+06
1.82984e+06
865973
617516
1.75257e+06
621127
1.90665e+06
715968
800737
2.11e+06
2.85104e+06
2.44678e+06
484934
460979
1.32326e+06
634079
458883
149781
394746
2.02372e+06
168942
198584
2.59115e+06
1.9372e+06
2.22351e+06
1.04206e+06
1.29254e+06
1.30268e+06
1.12513e+06
138024
130332
195012
132902
802906
872890
947175
443532
310302
679431
2.25511e+06
169468
225440
189846
176586
1.17798e+06
1.0645e+06
210045
2.0084e+06
2.26825e+06
1.35905e+06
1.11094e+06
1.82723e+06
2.10481e+06
130449
1.00806e+06
639573
1.4065e+06
186455
300936
321948
1.80692e+06
1.79989e+06
826316
419386
124891
151076
263309
553520
1.88612e+06
250990
1.45226e+06
172184
423054
284888
381122
651940
334917
511275
49719.5
14359.9
510928
2.67022e+06
233762
191040
190959
148109
135598
203743
209893
151251
151456
603165
150136
164104
204014
1.13371e+06
1.39731e+06
1.00674e+06
1.86608e+06
2.37917e+06
162652
227685
439200
189277
1.71104e+06
236152
2.49729e+06
269124
351287
678646
504628
265354
275628
639526
142842
168743
215918
135870
208373
133806
2.22638e+06
119253
176643
324900
133767
101019
2.11823e+06
237826
1.83458e+06
1.9563e+06
708189
453961
372305
542925
1.21946e+06
1.13803e+06
1.04626e+06
145717
1.34141e+06
691670
141484
2.26538e+06
150569
158364
425140
1.24623e+06
1.00939e+06
1.11907e+06
1.52719e+06
219197
164646
476657
707075
1.54271e+06
822248
1.66471e+06
591019
1.42406e+06
1.30711e+06
470568
1.6499e+06
585442
1.52312e+06
695546
1.40634e+06
1.2908e+06
812097
1.64614e+06
207530
693097
541960
169714
215859
1.85148e+06
1.1699e+06
1.58408e+06
1.4739e+06
1.28593e+06
1.5911e+06
1.17534e+06
446363
489081
723320
1.74472e+06
164113
2.5532e+06
203071
164371
1.92462e+06
229773
365137
713598
704993
2.10546e+06
122888
1.34398e+06
1.24203e+06
1.14061e+06
414078
610160
2.58603e+06
438005
334176
774511
198524
810970
374914
389275
137655
225783
234382
204625
620509
134213
760919
407391
309071
1.04265e+06
1.38943e+06
1.39463e+06
1.0423e+06
507469
2.44595e+06
149017
150265
2.18337e+06
1.96929e+06
1.1979e+06
2.84489e+06
1.29471e+06
1.11726e+06
1.14238e+06
2.52707e+06
1.27961e+06
1.02528e+06
2.2458e+06
481221
509652
764304
1.98079e+06
120087
1.68081e+06
201228
293950
464526
779953
849191
920261
452412
321589
509135
83246.7
89427.2
164844
176906
242744
201664
159646
215157
1.26765e+06
2.301e+06
277300
202753
2.1187e+06
1.55416e+06
614299
834796
165536
173294
1.8468e+06
1.21936e+06
257430
976465
916061
1.21856e+06
145926
165153
168287
145229
1.45024e+06
2.33739e+06
2.27898e+06
1.54954e+06
2.46583e+06
314608
134816
409701
1.24912e+06
1.14722e+06
1.35283e+06
616103
417312
2.61781e+06
577971
730927
955835
308980
261056
1.08909e+06
383789
198521
828532
316841
412468
2.41877e+06
420401
371567
1.30487e+06
1.20576e+06
1.10906e+06
557587
1.65381e+06
1.55892e+06
2.04734e+06
638118
658907
850521
1.74868e+06
837340
599625
1.55487e+06
300342
2.85623e+06
187424
2.17902e+06
584278
667496
158257
711400
1.36711e+06
162108
190336
187128
2.52014e+06
750927
689679
811799
402132
289406
363391
732123
1.64616e+06
739434
1.43933e+06
1.69405e+06
1.56671e+06
492009
1.59459e+06
1.21377e+06
1.28445e+06
1.52075e+06
1.59829e+06
1.21516e+06
1.29531e+06
1.52933e+06
882213
732312
56090.7
350121
214001
504446
745941
619352
865221
1.73429e+06
1.60924e+06
1.48519e+06
1.36291e+06
499900
1.38329e+06
688764
185274
127801
133097
229930
122158
593320
1.41263e+06
1.4419e+06
510644
2.36918e+06
190384
172154
1.84198e+06
2.28282e+06
107169
1.46359e+06
578372
784875
1.09702e+06
598794
390943
169193
580341
815953
72988.8
153682
2.39659e+06
317612
236570
582047
536344
630058
402142
150520
157273
408696
1.43459e+06
2.21544e+06
2.56485e+06
398708
443441
1.86338e+06
1.67977e+06
2.18308e+06
127702
1.2088e+06
2.12782e+06
2.5812e+06
2.66129e+06
2.60794e+06
688317
1.19374e+06
514852
2.46566e+06
1.87315e+06
768158
1.60705e+06
176266
154647
1.91339e+06
1.91511e+06
156197
514079
2.36732e+06
1.9935e+06
1.89747e+06
1.96391e+06
2.67244e+06
1.81602e+06
2.37323e+06
2.04516e+06
176588
323742
1.51169e+06
706404
1.23509e+06
259529
170617
215725
198962
178799
240476
214338
516098
2.38109e+06
1.44737e+06
510986
707605
1.54696e+06
199185
716658
497791
2.73195e+06
386064
375274
684252
394378
635698
282489
218211
2.22406e+06
18270.7
178308
178147
36693.7
560817
590932
211565
232175
246678
170270
623994
621973
148486
2.38379e+06
2.03162e+06
740836
1.54512e+06
531658
141173
1.80248e+06
398502
2.36643e+06
661199
808664
958017
1.10492e+06
2.0871e+06
1.93578e+06
1.78311e+06
1.63213e+06
660213
807618
2.08506e+06
1.93303e+06
955869
1.78065e+06
1.10293e+06
1.62958e+06
365633
278582
675957
738738
653502
308050
250099
211963
169011
157378
181814
151067
160231
272021
1.10883e+06
1.19015e+06
1.07877e+06
603708
1.17476e+06
1.29455e+06
1.98938e+06
847189
683330
2.10228e+06
701416
240653
150078
206156
166680
332031
306473
310556
159752
444509
351731
462205
951042
158992
245010
1.11132e+06
174736
124680
156934
135370
1.67807e+06
193538
224104
795618
634675
302725
792691
246949
149320
135874
2.4919e+06
2.57638e+06
1.58108e+06
1.29599e+06
1.26451e+06
1.60894e+06
2.53199e+06
1.313e+06
145428
847587
474448
361465
522337
248424
2.3864e+06
262378
1.42346e+06
1.31707e+06
1.20996e+06
637218
430747
744375
437106
331902
2.41067e+06
278181
145661
790542
790018
362928
224723
276121
468497
955589
1.81483e+06
767840
614053
1.11234e+06
1.48119e+06
405956
594220
1.28483e+06
1.18556e+06
1.08848e+06
614251
660913
1.06176e+06
884070
1.24148e+06
658184
1.36296e+06
1.48121e+06
428218
1.60284e+06
2.84996e+06
2.00565e+06
128120
979062
1.06766e+06
1.15934e+06
352704
236649
1.73249e+06
301672
396567
488381
538672
229902
292993
233767
184303
1.67131e+06
1.28641e+06
1.34885e+06
1.61577e+06
368452
2.00577e+06
2.48662e+06
919027
160281
960942
1.04715e+06
1.13735e+06
1.06109e+06
1.22669e+06
344950
1.96614e+06
860591
806109
739865
872898
313952
438708
251423
232361
547997
644033
594463
683614
744926
806942
494687
491128
708441
711406
1.43777e+06
1.43093e+06
1.21504e+06
1.3252e+06
1.20869e+06
1.31869e+06
716085
777846
274759
169166
194220
233961
1.41396e+06
920441
154599
1.4641e+06
1.21545e+06
1.16608e+06
1.50848e+06
235366
522539
1.87875e+06
795884
1.73658e+06
1.59637e+06
125006
310885
1.29101e+06
770574
543245
1.71575e+06
595864
78637.6
1.32094e+06
1.2137e+06
1.43095e+06
641880
432858
1.74731e+06
683576
552762
2.33281e+06
686137
972449
231004
163593
392123
366907
336439
1.99034e+06
496499
327456
566130
521758
610362
307187
231957
1.31184e+06
1.46956e+06
234467
846040
176870
1.12604e+06
2.26047e+06
1.41467e+06
705217
526380
1.25354e+06
643349
572117
472563
308450
189800
472252
232317
580034
231579
389460
161533
184109
2.36142e+06
482365
2.03491e+06
1.17674e+06
1.26363e+06
683342
508761
1.20926e+06
2.15206e+06
136356
165406
167750
160299
426124
41280.8
13648.6
425831
900215
164224
958188
427662
289125
197766
641071
896754
1.86574e+06
145713
112891
195282
229778
495553
320566
1.26876e+06
1.13266e+06
269058
174075
136016
2.39872e+06
899850
148282
347197
170028
2.732e+06
2.24243e+06
345938
262284
992861
476679
678988
1.33478e+06
1.12665e+06
1.22956e+06
2.5948e+06
2.06756e+06
164876
1.92921e+06
2.589e+06
2.03393e+06
2.26617e+06
971332
195844
1.29843e+06
323642
198377
246341
483577
531078
387334
387547
875396
284931
190918
141882
1.26964e+06
1.57318e+06
1.71004e+06
1.84905e+06
1.97449e+06
890605
758240
625006
490365
309312
136688
604268
27957.2
295181
294963
15167.9
657588
329358
259109
97298.6
415350
469687
151800
415162
1.24242e+06
999446
688915
486037
554985
2.38429e+06
1.81822e+06
244350
781495
151872
164656
677458
797888
814211
1.60974e+06
477056
519256
158488
2.15435e+06
170662
379484
440970
411438
1.58169e+06
1.71893e+06
894385
938840
938241
677693
867938
1.6117e+06
1.53479e+06
1.5363e+06
533442
740981
130776
141724
134805
329400
153196
706051
1.50665e+06
1.33688e+06
1.63794e+06
1.19705e+06
1.64792e+06
1.19578e+06
811926
530898
1.44454e+06
1.05801e+06
1.4448e+06
1.06164e+06
343654
1.57985e+06
1.33796e+06
1.17294e+06
1.52764e+06
1.35186e+06
1.667e+06
1.21273e+06
1.66523e+06
1.21215e+06
1.49447e+06
2.7385e+06
608329
854482
1.79827e+06
655515
161169
168801
274316
27173.1
274103
24008.8
154552
513049
1.59553e+06
1.46548e+06
1.72751e+06
768320
531558
2.43675e+06
78771.3
146917
300298
1.03909e+06
351104
967549
477451
2.47107e+06
2.4929e+06
1.48357e+06
177739
319454
1.69789e+06
911006
729876
485428
902048
828378
976539
339544
478135
2.52928e+06
594533
2.25501e+06
157810
153131
144573
155652
102816
2.22907e+06
180169
1.64771e+06
99853.7
1.20638e+06
1.51749e+06
182718
154713
231568
689766
241937
586106
539829
395185
427620
461689
193421
428830
578616
717279
480590
1.62015e+06
1.49848e+06
1.37639e+06
1.66979e+06
2.22971e+06
2.45896e+06
142979
139189
139293
154278
329602
193005
358294
2.47414e+06
2.52141e+06
2.54732e+06
1.92726e+06
76242.7
1.32056e+06
2.31649e+06
1.60261e+06
1.26621e+06
1.29092e+06
1.58096e+06
766821
672095
1.37774e+06
915788
1.61281e+06
114641
290761
376248
722639
298204
294541
334517
223830
256981
188408
218788
508589
509918
552645
552205
597185
595356
698933
687210
160274
156931
664045
424922
120877
247627
950635
1.61434e+06
160743
979757
2.11602e+06
658316
2.01641e+06
930459
253159
1.85867e+06
1.00335e+06
843429
1.33736e+06
2.25708e+06
2.66719e+06
1.04484e+06
453769
2.2423e+06
324132
235272
200487
493006
106173
941730
1.65466e+06
434119
652303
262707
151146
282248
2.41424e+06
439282
514536
496965
364457
1.04004e+06
327017
257785
1.02471e+06
226922
2.21012e+06
170222
1.3087e+06
488902
531567
2.05394e+06
1.7595e+06
1.0671e+06
1.91618e+06
2.07449e+06
914001
2.2335e+06
761404
607777
1.76153e+06
1.9181e+06
2.2384e+06
2.07697e+06
609811
916673
1.07057e+06
763672
2.22931e+06
220437
1.75005e+06
189826
125187
165211
10054.6
76542.4
962642
102733
1.68256e+06
352028
259993
663178
715829
610879
499748
332535
1.48118e+06
331122
356703
1.33095e+06
107210
525118
487493
483750
1.53287e+06
1.40836e+06
1.65918e+06
729721
607572
258715
445246
882150
1.68166e+06
78305.4
434432
255386
162720
554871
1.76995e+06
1.00953e+06
863452
1.87074e+06
206317
1.03121e+06
2.19161e+06
1.1123e+06
2.05793e+06
181032
2.32386e+06
274477
1.54972e+06
559941
691009
156821
17680.4
177128
176926
30207.3
296420
1.5701e+06
225480
1.94847e+06
877392
320913
1.52029e+06
1.45979e+06
1.65795e+06
1.59228e+06
1.79721e+06
1.72643e+06
840417
812662
571525
553569
635761
427682
1.43156e+06
1.32487e+06
1.21702e+06
382033
444960
411992
201351
1.35042e+06
1.18133e+06
100798
227548
168237
190508
202114
2.23677e+06
1.88373e+06
496585
1.63384e+06
1.50227e+06
1.76575e+06
136114
819174
1.51751e+06
1.58873e+06
154746
144697
1.80808e+06
569789
192441
337188
392040
364218
207933
628505
581639
538457
2.11235e+06
2.73348e+06
2.02236e+06
1.44848e+06
712112
512986
214494
233831
354164
253553
154964
136401
267100
775864
620631
155878
1.64885e+06
1.91618e+06
809552
696799
200894
191915
169395
182148
535341
1.80725e+06
1.43339e+06
1.10753e+06
1.13988e+06
1.35939e+06
148545
170350
252983
150992
155667
352759
2.82364e+06
2.24293e+06
172984
214025
973313
839438
581978
1.80562e+06
1.94332e+06
1.52798e+06
1.66585e+06
968967
509703
438040
473995
216574
274797
2.07351e+06
561782
1.32591e+06
94252
1.91652e+06
174380
768161
893091
2.8226e+06
152254
792786
183464
742043
196863
467059
1.41627e+06
654197
1.64048e+06
1.06729e+06
1.79032e+06
1.94155e+06
921774
2.09369e+06
774866
629049
775184
629586
298875
920992
1.04011e+06
1.36199e+06
160713
261514
1.65586e+06
714403
2.59582e+06
2.10409e+06
2.35854e+06
423155
1.8552e+06
864199
677889
332305
253027
2.54577e+06
1.31184e+06
152972
2.75464e+06
2.33683e+06
79716.3
817728
667759
101543
1.05508e+06
860582
121119
218189
1.76807e+06
2.64733e+06
156584
947474
972043
1.93371e+06
1.87306e+06
686565
703553
686601
702391
163996
164644
163866
154045
125606
2.71439e+06
2.1266e+06
1.90999e+06
2.41071e+06
915210
492419
1.98575e+06
1.12024e+06
1.22265e+06
1.32752e+06
82847.2
2.01957e+06
354705
1.51791e+06
2.15729e+06
642451
453793
2.75316e+06
747953
785203
548492
578229
1.47138e+06
1.42141e+06
240979
235803
130841
154639
478616
1.74156e+06
1.60964e+06
1.48004e+06
731143
2.71259e+06
161056
331823
146022
1.46259e+06
1.59463e+06
935747
1.72797e+06
799188
1.87821e+06
675356
1.78558e+06
1.51107e+06
1.64742e+06
1.92262e+06
541023
961175
828548
675764
151245
215334
230855
302261
568982
483004
523867
2.25515e+06
1.05901e+06
1.29186e+06
2.07274e+06
241267
374936
155005
587017
822802
282241
395401
2.08954e+06
223684
148227
149882
152965
148956
93664.2
238578
186506
201384
1.81069e+06
2.13577e+06
184274
160366
206203
356734
781404
2.30092e+06
2.14521e+06
947559
157125
234389
1.84092e+06
160908
161260
2.79299e+06
1.08817e+06
2.11672e+06
602558
1.43735e+06
917880
892176
244142
994968
1.52681e+06
740439
531822
206994
474264
156954
124518
141582
2.26432e+06
1.35888e+06
1.38639e+06
2.25576e+06
351402
376836
193563
714020
171948
153532
163086
453883
352487
35913.4
352261
24585.3
152237
1.40514e+06
427310
621172
1.31368e+06
1.21246e+06
1.1126e+06
220490
2.58238e+06
844126
495713
2.23193e+06
1.34216e+06
1.3939e+06
226397
22253.7
226192
23401.6
1.96725e+06
477302
829393
980043
904477
180042
2.09317e+06
499652
356864
1.15065e+06
884278
147454
47881.2
1.54302e+06
321999
1.53751e+06
396860
529186
970347
1.08886e+06
914862
194964
793449
325685
421902
198887
213553
752484
784742
260332
478317
163070
164284
1.26245e+06
634955
464844
172005
663375
17182.8
64322.7
662935
844306
682108
1.0113e+06
1.20021e+06
134754
2.56556e+06
2.66869e+06
338841
156210
174626
279247
306568
31718.2
306380
27328.2
1.36051e+06
466870
649052
2.48667e+06
2.52439e+06
2.15671e+06
1.94304e+06
1.179e+06
1.04507e+06
1.00049e+06
887232
2.10472e+06
306024
606706
215618
138012
153876
439437
617674
885209
2.45908e+06
2.48055e+06
311872
162309
818893
889358
296882
1.35015e+06
556187
454163
1.95056e+06
191311
173569
235891
1.32828e+06
1.33764e+06
1.41165e+06
895368
447087
626214
99997.8
103011
1.51806e+06
156105
1.35189e+06
174515
668830
1.08782e+06
953302
1.57707e+06
1.84472e+06
158376
212964
502277
2.19256e+06
10467.1
129464
38404.1
130151
352998
323403
100752
2.3531e+06
41933.5
2.22769e+06
579964
56223.5
18126.3
579581
384782
188474
21710.3
188435
489633
2.1275e+06
493423
2.31826e+06
2.67817e+06
77305.5
779190
919746
849201
1.09594e+06
527944
383530
1.17316e+06
731308
127751
288153
462008
329202
825445
1.08919e+06
302534
303842
2.57286e+06
940581
1.09205e+06
1.01629e+06
1.17339e+06
1.629e+06
142945
162572
1.36323e+06
1.65467e+06
549911
318480
367078
185990
373578
557716
163308
292028
425304
161323
113097
1.4906e+06
1.73995e+06
340004
757627
590369
602467
1.86001e+06
852549
368018
281554
714835
584312
143938
431410
1.65501e+06
2.12606e+06
575284
399292
1.01526e+06
1.1986e+06
1.10623e+06
94737.4
155988
416331
293607
1.57654e+06
571946
122449
60311.6
95522.4
560364
391190
982625
1.15996e+06
1.07071e+06
159173
2.29036e+06
2.61799e+06
175461
180096
171400
167260
2.29734e+06
462308
339382
982610
2.83704e+06
2.2764e+06
655856
224194
602566
556611
338151
316217
359560
198418
171227
172592
492877
2.22734e+06
125085
1.25647e+06
1.36089e+06
2.13125e+06
1.53871e+06
1.50177e+06
576564
568560
778218
790470
354390
404438
346553
155303
150707
916190
294772
2.07552e+06
1.44318e+06
367375
150092
880978
2.64784e+06
148256
1.43886e+06
1.19724e+06
1.13912e+06
1.48617e+06
1.00907e+06
435900
610249
1.34267e+06
231748
979767
425308
476736
241714
484541
301661
393181
1.07858e+06
536223
223625
193534
260196
1.39263e+06
1.1433e+06
243836
232821
217440
250988
156046
732829
564333
136901
533927
158982
304280
494398
2.42322e+06
2.13335e+06
1.44679e+06
428026
300537
957295
888337
817732
383700
381778
184689
1.31087e+06
176372
754279
979741
281699
237494
2.1587e+06
120958
435185
405983
191746
2.28232e+06
118380
151113
652812
769246
227810
216348
239120
171616
160870
1.44727e+06
124739
178184
22162.7
178089
1.44639e+06
1.38262e+06
2.6189e+06
1.55114e+06
1.96169e+06
157602
2.0237e+06
1.39078e+06
20047.7
145515
346709
259862
592211
643122
693024
904486
511084
2.12693e+06
1.25858e+06
1.36378e+06
214099
139914
136614
158314
170700
181308
286643
1.21199e+06
145548
2.63408e+06
643249
262296
1.36986e+06
903691
457660