/*--------------------------------*- C++ -*----------------------------------*\
| =========                 |                                                 |
| \\      /  F ield         | OpenFOAM: The Open Source CFD Toolbox           |
|  \\    /   O peration     | Version:  2.3.1                                 |
|   \\  /    A nd           | Web:      www.OpenFOAM.org                      |
|    \\/     M anipulation  |                                                 |
\*---------------------------------------------------------------------------*/
FoamFile
{
    version     2.0;
    format      ascii;
    class       volScalarField;
    location    "0.67";
    object      k;
}
// * * * * * * * * * * * * * * * * * * * * * * * * * * * * * * * * * * * * * //

dimensions      [0 2 -2 0 0 0 0];

internalField   nonuniform List<scalar> 
9648
(
2.69934
2.71084
2.70964
2.70645
2.70005
2.68942
2.67495
2.65661
2.63427
2.60787
2.57748
2.54337
2.50596
2.46583
2.42365
2.38013
2.33601
2.29198
2.24863
2.20648
2.16594
2.12735
2.09091
2.0568
2.02508
1.99579
1.96892
1.94444
1.92229
1.90238
1.88464
1.86897
1.8553
1.84353
1.83357
1.82535
1.81879
1.81383
1.81037
1.80839
1.80782
1.80863
1.81078
1.81424
1.81899
1.82503
1.83238
1.84106
1.8511
1.86252
1.87539
1.88975
1.90566
1.9231
1.94209
1.9625
1.98404
2.0062
2.02851
2.05056
2.072
1.7108
1.71561
1.71838
1.72082
1.72468
1.73285
1.74748
1.7696
1.79906
1.83583
1.87959
1.92974
1.98541
2.04562
2.10938
2.17574
2.24383
2.31285
2.38215
2.45122
2.51962
2.58704
2.65328
2.71818
2.78167
2.84375
2.90447
2.96388
3.02202
3.07899
3.13493
3.1899
3.24399
3.29733
3.35
3.40204
3.45358
3.50471
3.55543
3.60572
3.65566
3.70537
3.75481
3.80395
3.8529
3.90152
3.94981
3.9979
4.04582
4.09345
4.14069
4.18743
4.23376
4.27929
4.32431
4.36853
4.41217
4.45451
4.49582
4.53613
4.5755
1.39754
1.44633
1.50099
1.56192
1.6308
1.70861
1.79472
1.88865
1.98949
2.09647
2.20833
2.32415
2.44281
2.56321
2.68426
2.80494
2.92441
3.04186
3.15666
3.26834
3.37649
3.48091
3.58143
3.67804
3.7708
3.85984
3.94536
4.02748
4.10644
4.18245
4.2557
4.32644
4.39492
4.46125
4.52561
4.58823
4.6492
4.7087
4.76681
4.82362
4.87925
4.93375
4.98727
5.03983
5.09143
5.14207
5.19171
5.24045
5.28814
5.33478
5.38036
5.42492
5.46867
5.51092
5.5526
5.59269
5.63194
5.66927
5.7059
5.74141
5.77586
1.31777
1.41071
1.51407
1.62718
1.74988
1.88193
2.02247
2.17014
2.32335
2.48062
2.64029
2.80103
2.96145
3.12047
3.27692
3.42981
3.57838
3.72197
3.8601
3.99245
4.11882
4.23902
4.35315
4.46134
4.56388
4.66104
4.75316
4.84056
4.92357
5.00251
5.07779
5.14972
5.21861
5.28479
5.34844
5.40985
5.46921
5.52673
5.58255
5.63683
5.68971
5.74134
5.7918
5.84124
5.88965
5.93708
5.98357
6.02914
6.07373
6.11733
6.16007
6.2016
6.24215
6.28153
6.32026
6.35777
6.39411
6.42927
6.46333
6.4963
6.528
1.35361
1.48435
1.629
1.78582
1.95354
2.13114
2.31696
2.50887
2.70482
2.90261
3.10032
3.29615
3.48877
3.67699
3.85971
4.03586
4.20477
4.36605
4.51934
4.66458
4.80168
4.93061
5.0516
5.16493
5.27112
5.37068
5.46401
5.55164
5.63393
5.71135
5.78438
5.85343
5.91899
5.98136
6.04081
6.09771
6.15233
6.20481
6.25538
6.30422
6.35149
6.39737
6.44206
6.48564
6.52818
6.56972
6.61029
6.64993
6.68871
6.72641
6.7632
6.79895
6.83352
6.86696
6.89943
6.93102
6.96145
6.99079
7.01895
7.04582
7.07142
1.44264
1.6067
1.78782
1.98339
2.19097
2.40862
2.6339
2.86418
3.09669
3.32869
3.55797
3.78232
4.00054
4.21127
4.41389
4.60707
4.79015
4.96317
5.12574
5.27822
5.4207
5.55305
5.67591
5.78943
5.89452
5.99191
6.08214
6.16595
6.24356
6.31563
6.3828
6.44541
6.50421
6.55958
6.61169
6.66102
6.70803
6.75272
6.79544
6.83633
6.87546
6.91318
6.94971
6.98522
7.01967
7.05321
7.08596
7.11769
7.14865
7.17868
7.20771
7.23572
7.26266
7.28838
7.31312
7.33685
7.35964
7.38143
7.40192
7.42089
7.43872
1.56267
1.75725
1.97181
2.20254
2.44574
2.69888
2.95875
3.22223
3.48627
3.74701
4.00254
4.24978
4.48796
4.71558
4.93317
5.13831
5.33061
5.51066
5.67769
5.83287
5.97657
6.1081
6.22896
6.33857
6.43864
6.53022
6.61376
6.69062
6.76039
6.82401
6.88248
6.93568
6.98496
7.03074
7.07279
7.11191
7.14899
7.18347
7.2161
7.24693
7.27575
7.30318
7.3295
7.35501
7.3793
7.40274
7.42552
7.44745
7.46878
7.48919
7.50869
7.52712
7.54454
7.56064
7.5755
7.58963
7.60298
7.61538
7.62628
7.63549
7.64355
1.70098
1.92348
2.16878
2.43143
2.70641
2.99034
3.28017
3.57241
3.86331
4.14812
4.4254
4.69044
4.94358
5.18251
5.41075
5.6237
5.82115
6.00483
6.17222
6.3259
6.46732
6.59411
6.71032
6.81243
6.90374
6.98613
7.05958
7.12682
7.18584
7.23819
7.28569
7.32668
7.36373
7.39741
7.42685
7.45327
7.47789
7.49927
7.51942
7.53804
7.55426
7.56892
7.58269
7.59587
7.60763
7.61889
7.62918
7.63889
7.64808
7.65664
7.66423
7.6708
7.67664
7.68074
7.6836
7.68598
7.68721
7.68851
7.68775
7.68471
7.6811
1.84831
2.09348
2.36654
2.65506
2.95928
3.26853
3.58256
3.90097
4.21235
4.51821
4.81216
5.09321
5.35616
5.60159
5.83494
6.05264
6.25232
6.4365
6.60525
6.75421
6.88862
7.00837
7.11606
7.21138
7.2909
7.36005
7.42131
7.47638
7.52168
7.56065
7.59501
7.62307
7.64587
7.6644
7.67817
7.69034
7.69821
7.70356
7.70894
7.712
7.71283
7.71088
7.71065
7.70897
7.70555
7.70344
7.69737
7.69238
7.68514
7.67799
7.66894
7.65993
7.65153
7.64098
7.62932
7.6178
7.60296
7.59253
7.57731
7.55841
7.54105
2.09256
2.11209
2.13074
2.1485
2.1654
2.1816
2.19734
2.21298
2.22852
2.24314
2.25655
2.26938
2.28174
2.29385
2.30599
2.31879
2.33261
2.34778
2.36463
2.3836
2.40441
2.42662
2.44994
2.47396
2.49838
2.52322
2.5486
2.57425
2.60007
2.62615
2.65258
2.67926
2.7062
2.73355
2.76124
2.78926
2.8177
2.84664
2.87604
2.90581
2.93606
2.96689
2.99828
3.03017
3.0627
3.09568
3.12913
3.1632
3.19793
3.23318
3.26901
3.30549
3.34275
3.38054
3.41921
3.45867
3.49924
3.54061
3.58313
3.62692
3.67209
4.61398
4.65039
4.68588
4.72059
4.75426
4.78645
4.81669
4.84567
4.87239
4.89834
4.92256
4.94576
4.96787
4.98894
5.00889
5.02758
5.04512
5.06148
5.07669
5.09072
5.10364
5.11547
5.1261
5.13557
5.14391
5.15109
5.15697
5.16132
5.16422
5.16565
5.16561
5.16414
5.16131
5.15707
5.15148
5.1446
5.1364
5.12698
5.1163
5.10438
5.09129
5.07706
5.06178
5.04539
5.02788
5.00919
4.9892
4.96798
4.94546
4.92166
4.89655
4.87006
4.84235
4.81295
4.7826
4.7507
4.71786
4.68362
4.64901
4.61392
4.57848
5.80865
5.84034
5.87045
5.89964
5.9278
5.95534
5.98099
6.00533
6.02746
6.04831
6.06752
6.08549
6.10205
6.11756
6.13179
6.14467
6.15623
6.16643
6.17528
6.18275
6.18892
6.19376
6.19727
6.19947
6.20032
6.19983
6.19801
6.19483
6.19025
6.18419
6.17671
6.16773
6.15729
6.14542
6.13213
6.11744
6.10135
6.08388
6.06503
6.04484
6.02338
6.00074
5.97698
5.95212
5.92613
5.89895
5.87043
5.84053
5.8092
5.77642
5.74219
5.70624
5.66869
5.62939
5.58855
5.54586
5.50156
5.4559
5.40933
5.36196
5.3139
6.55868
6.58808
6.6162
6.64275
6.66809
6.69223
6.71492
6.736
6.75541
6.7732
6.78937
6.80397
6.81702
6.8286
6.83858
6.84713
6.8542
6.85977
6.86378
6.86627
6.86728
6.86687
6.86507
6.86189
6.85729
6.85121
6.84366
6.83467
6.82426
6.8124
6.79902
6.78408
6.76758
6.74953
6.73001
6.70901
6.6865
6.66246
6.63688
6.60983
6.58143
6.55179
6.52109
6.48941
6.45679
6.42318
6.38836
6.35228
6.31488
6.27616
6.23599
6.19422
6.15084
6.10575
6.05888
6.01007
5.9595
5.90746
5.85444
5.80047
5.74597
7.09573
7.11887
7.14057
7.1607
7.17915
7.19601
7.2113
7.22497
7.23728
7.24824
7.25766
7.26559
7.27203
7.27688
7.28021
7.28212
7.28243
7.28117
7.27827
7.27372
7.26764
7.26016
7.25136
7.2413
7.22987
7.21703
7.2028
7.18722
7.17038
7.1523
7.1329
7.11199
7.08958
7.06567
7.04039
7.01368
6.98547
6.9557
6.92428
6.89127
6.85684
6.82114
6.78445
6.74701
6.70893
6.67025
6.6306
6.59
6.54832
6.50573
6.46183
6.41644
6.36964
6.32118
6.27096
6.21852
6.16432
6.10846
6.05166
5.99387
5.93564
7.45522
7.47042
7.48405
7.49622
7.50667
7.51541
7.52256
7.52795
7.53172
7.53396
7.53483
7.53432
7.53232
7.52876
7.52365
7.51716
7.50923
7.49966
7.4883
7.47509
7.46028
7.44409
7.4267
7.40824
7.38854
7.36745
7.34505
7.32139
7.29679
7.27135
7.24505
7.21746
7.18861
7.15838
7.12706
7.09449
7.06043
7.02491
6.98767
6.94874
6.90827
6.86635
6.82344
6.77999
6.7363
6.69265
6.64827
6.60353
6.55806
6.51241
6.4658
6.41771
6.36863
6.31802
6.26592
6.21121
6.15479
6.09646
6.03764
5.97763
5.91729
7.65041
7.65599
7.66003
7.6625
7.66326
7.66225
7.65946
7.65512
7.64912
7.64128
7.63207
7.62171
7.60994
7.59661
7.58162
7.56553
7.54838
7.52958
7.50879
7.48576
7.46091
7.43477
7.4075
7.37952
7.35054
7.32011
7.28834
7.25514
7.22136
7.18733
7.1535
7.11871
7.08331
7.04672
7.00974
6.97182
6.93221
6.89127
6.84874
6.80453
6.75859
6.71075
6.66172
6.61221
6.56269
6.51429
6.46504
6.41647
6.36742
6.31975
6.27171
6.22185
6.17164
6.12
6.06758
6.01156
5.95438
5.89467
5.83569
5.77503
5.71444
7.6761
7.6702
7.66264
7.65395
7.64354
7.63173
7.61779
7.60332
7.58734
7.56868
7.54865
7.52812
7.50604
7.48254
7.45667
7.43002
7.40368
7.37599
7.34628
7.31323
7.27752
7.24103
7.20327
7.16499
7.12664
7.08678
7.04545
7.00148
6.95663
6.91229
6.8704
6.82788
6.78631
6.7439
6.70274
6.66155
6.6174
6.57127
6.52436
6.47681
6.42702
6.37443
6.32022
6.26515
6.20986
6.15755
6.10319
6.0512
5.99847
5.9502
5.90283
5.85223
5.80216
5.7508
5.69996
5.64348
5.58711
5.52691
5.46997
5.41052
5.35213
7.52051
7.50071
7.47754
7.4555
7.43058
7.40796
7.38101
7.35683
7.33252
7.3052
7.27584
7.24697
7.21549
7.18382
7.14684
7.10753
7.07208
7.03778
7.00362
6.96458
6.91707
6.87195
6.82508
6.77579
6.72824
6.68044
6.63346
6.58048
6.5217
6.46426
6.41325
6.36177
6.31389
6.2662
6.22487
6.18556
6.14015
6.08844
6.03763
5.9899
5.9409
5.88611
5.82792
5.76948
5.70966
5.65529
5.59506
5.54003
5.48246
5.43636
5.39261
5.34182
5.29387
5.24518
5.19853
5.14222
5.08831
5.02792
4.97524
4.91926
4.86629
3.71861
3.76615
3.81496
3.86505
3.91645
3.9693
4.02352
4.07925
4.13622
4.19439
4.2539
4.31439
4.37576
4.44038
4.52011
4.59358
4.66565
4.73843
4.81198
4.88641
4.96178
5.0381
5.11527
5.19322
5.27176
5.35065
5.42977
5.50892
5.58792
5.66642
5.74433
5.82135
5.89704
5.97122
6.04352
6.11338
6.18033
6.24365
6.29897
6.33935
6.36672
6.38173
6.38433
6.37382
6.34917
6.30893
6.25118
6.17359
6.07338
5.94737
5.79169
5.60183
5.37268
5.09789
4.74289
4.21098
3.9652
3.8403
3.79069
3.76544
3.71076
4.54241
4.50599
4.4688
4.43095
4.39247
4.35404
4.31542
4.27739
4.23944
4.20197
4.16576
4.12462
4.07986
4.03764
3.9904
3.9448
3.89923
3.85357
3.80827
3.76362
3.71963
3.67603
3.63272
3.58964
3.54674
3.50401
3.46146
3.4192
3.37724
3.33565
3.29455
3.25405
3.21428
3.17547
3.13786
3.10176
3.06758
3.0359
3.00738
2.98351
2.96178
2.94237
2.92563
2.91215
2.90284
2.8986
2.90048
2.90978
2.92796
2.95629
2.99602
3.04829
3.11444
3.19587
3.28483
3.41923
3.59713
3.87073
4.25935
4.75959
5.06023
5.26535
5.21631
5.16649
5.11559
5.0636
5.01105
4.95825
4.90566
4.8529
4.79992
4.74398
4.68013
4.61677
4.55675
4.49691
4.4378
4.37799
4.31746
4.25658
4.19577
4.13508
4.07428
4.01331
3.95215
3.89071
3.829
3.76697
3.70466
3.64198
3.57896
3.51556
3.4518
3.38773
3.32337
3.2588
3.19413
3.12945
3.06488
3.00059
2.93678
2.8734
2.81013
2.74752
2.68637
2.62699
2.56998
2.5162
2.46689
2.42371
2.38882
2.36502
2.35591
2.36622
2.4012
2.46418
2.56608
2.71202
2.93317
3.27515
3.78959
4.39995
5.69109
5.63616
5.58058
5.52399
5.46602
5.40746
5.34866
5.29028
5.23171
5.17238
5.10663
5.03499
4.96582
4.90018
4.83576
4.77218
4.70825
4.64405
4.57972
4.51558
4.45154
4.38716
4.32258
4.25783
4.19279
4.12752
4.06196
3.99609
3.92981
3.86308
3.79586
3.72818
3.66007
3.59157
3.52275
3.45367
3.3844
3.31499
3.24546
3.17581
3.10602
3.03602
2.96512
2.89334
2.8213
2.7491
2.67701
2.60545
2.53512
2.46711
2.40286
2.34456
2.29512
2.25824
2.23772
2.23978
2.27305
2.35573
2.51796
2.80376
3.23599
5.877
5.81874
5.76007
5.70052
5.6391
5.57704
5.51467
5.45309
5.39123
5.32833
5.25755
5.18311
5.11192
5.04434
4.97799
4.91252
4.8469
4.78182
4.71707
4.65291
4.58892
4.52434
4.45961
4.39485
4.32978
4.26457
4.19907
4.13329
4.067
4.00021
3.93288
3.86511
3.79696
3.72855
3.65993
3.59123
3.52253
3.45387
3.38527
3.31673
3.24826
3.17987
3.11144
3.04237
2.97251
2.90199
2.83086
2.7592
2.68717
2.61511
2.54341
2.47271
2.40392
2.33827
2.27734
2.22417
2.185
2.17086
2.19892
2.29495
2.48857
5.8562
5.79627
5.73622
5.67556
5.61208
5.54794
5.48314
5.41987
5.35643
5.29235
5.21966
5.14534
5.07449
5.00772
4.94161
4.87637
4.81086
4.74694
4.68384
4.62185
4.56015
4.49732
4.43466
4.37233
4.30963
4.24694
4.18385
4.12053
4.05646
3.99185
3.9266
3.86105
3.79524
3.72944
3.66362
3.59801
3.53263
3.46762
3.40293
3.33865
3.27478
3.21139
3.14846
3.08586
3.02312
2.95975
2.89577
2.83127
2.76628
2.70089
2.63519
2.56923
2.50298
2.43642
2.36939
2.30256
2.23846
2.18257
2.14403
2.13665
2.17951
5.65181
5.59163
5.53174
5.47207
5.40759
5.3427
5.27633
5.21302
5.14975
5.0871
5.01445
4.94224
4.87337
4.80982
4.74575
4.68287
4.61892
4.55807
4.49831
4.44019
4.38241
4.32241
4.26352
4.20584
4.14741
4.08921
4.03014
3.97109
3.91073
3.84986
3.78811
3.72656
3.66492
3.60381
3.54283
3.48248
3.42255
3.36341
3.30489
3.24727
3.19041
3.13456
3.07963
3.02559
2.97223
2.9191
2.86547
2.81136
2.75692
2.70229
2.64752
2.59258
2.53728
2.48117
2.4236
2.36397
2.30244
2.24083
2.18303
2.13566
2.10892
5.28872
5.22933
5.17121
5.11517
5.05105
4.98702
4.91987
4.85848
4.79741
4.73896
4.66766
4.59885
4.53289
4.47472
4.41383
4.35522
4.29379
4.23774
4.18262
4.12928
4.07638
4.01939
3.96541
3.91483
3.86212
3.80948
3.75504
3.7015
3.64532
3.58891
3.53114
3.47496
3.41874
3.3641
3.30943
3.25601
3.20282
3.15111
3.10036
3.05133
3.00336
2.95705
2.9122
2.8685
2.82584
2.78429
2.74249
2.7002
2.65785
2.61568
2.574
2.53273
2.49174
2.45046
2.40816
2.36389
2.31691
2.2671
2.21543
2.16433
2.11831
4.80312
4.74425
4.69
4.64047
4.57835
4.51669
4.4492
4.39239
4.33607
4.28434
4.21552
4.15056
4.08739
4.03656
3.97915
3.9267
3.8681
3.81861
3.76898
3.71976
3.67177
3.61682
3.56872
3.52925
3.48267
3.43433
3.3836
3.33659
3.28346
3.23106
3.17614
3.12711
3.07678
3.03029
2.98227
2.93674
2.88956
2.84596
2.80389
2.76503
2.72734
2.69178
2.65825
2.62593
2.59368
2.56208
2.53091
2.499
2.4686
2.4386
2.41143
2.3853
2.36095
2.33671
2.3124
2.28665
2.25882
2.22792
2.19396
2.15667
2.1176
3.61761
3.5138
3.40095
3.28083
3.1589
3.03841
2.92216
2.81382
2.71647
2.63209
2.5615
2.50458
2.46033
2.4272
2.40337
2.38699
2.37636
2.37018
2.36741
2.36718
2.36892
2.37221
2.37676
2.38242
2.38914
2.39677
2.40534
2.41479
2.42512
2.43628
2.44821
2.46085
2.47412
2.48785
2.50191
2.51612
2.53027
2.54413
2.55749
2.57013
2.58183
2.59238
2.60166
2.60961
2.61624
2.62167
2.62609
2.62974
2.63293
2.63608
2.63949
2.64342
2.64805
2.65355
2.65979
2.66666
2.67383
2.6811
2.688
2.69397
2.69837
5.05078
4.97739
4.85372
4.68084
4.48837
4.27799
4.04773
3.80545
3.55956
3.31815
3.08751
2.87405
2.68138
2.51064
2.36239
2.23783
2.13615
2.05428
1.98903
1.93766
1.89764
1.86672
1.84304
1.82519
1.81242
1.80345
1.79817
1.79605
1.79685
1.8003
1.80623
1.81439
1.82452
1.83632
1.84943
1.86347
1.87797
1.89248
1.90646
1.9193
1.93032
1.9388
1.9439
1.94476
1.94071
1.93126
1.91616
1.89565
1.8705
1.84208
1.81217
1.78283
1.75617
1.73392
1.71703
1.70601
1.70039
1.69938
1.70161
1.70569
1.70932
4.8959
5.24662
5.43668
5.43752
5.30245
5.10431
4.84366
4.5463
4.22832
3.90174
3.57879
3.27064
2.98473
2.72597
2.49752
2.30083
2.13424
1.99349
1.8762
1.78127
1.70612
1.64771
1.60297
1.56909
1.54355
1.52489
1.51164
1.503
1.49825
1.4968
1.49823
1.5021
1.50794
1.51522
1.52344
1.5321
1.54067
1.54863
1.5554
1.56037
1.56291
1.56246
1.55845
1.55038
1.5378
1.52037
1.49792
1.47054
1.43872
1.40342
1.36626
1.32958
1.29623
1.26908
1.25052
1.24245
1.24553
1.25959
1.28362
1.31604
1.35469
3.77349
4.36244
4.92238
5.34548
5.55688
5.59159
5.46219
5.20931
4.89191
4.52937
4.15037
3.77752
3.42308
3.09799
2.80694
2.55002
2.32451
2.12921
1.96302
1.82505
1.71328
1.62526
1.5576
1.50653
1.46837
1.44051
1.42078
1.40771
1.40005
1.39682
1.39733
1.40096
1.40702
1.41477
1.42349
1.4325
1.44109
1.44858
1.45423
1.45731
1.45708
1.45287
1.44408
1.43021
1.41087
1.38592
1.35542
1.31971
1.27934
1.23529
1.18907
1.143
1.10021
1.06457
1.04026
1.03114
1.03929
1.06503
1.10731
1.16474
1.23556
2.79933
3.23603
3.78224
4.3753
4.91597
5.32651
5.55715
5.58395
5.44525
5.16765
4.80442
4.41153
4.0084
3.62167
3.26515
2.9417
2.65308
2.39764
2.17699
1.991
1.83782
1.71557
1.62078
1.54877
1.49472
1.45478
1.42614
1.40665
1.39458
1.38843
1.38725
1.39028
1.39667
1.40547
1.4158
1.42681
1.43765
1.4475
1.45549
1.46073
1.46233
1.45953
1.45156
1.43784
1.41783
1.39134
1.3584
1.31933
1.27462
1.22518
1.17239
1.11844
1.06646
1.02059
0.986396
0.970131
0.976195
1.00692
1.06235
1.1405
1.2384
2.29466
2.50573
2.83136
3.27323
3.80133
4.35818
4.86671
5.24553
5.44882
5.46543
5.31094
5.0302
4.65531
4.24677
3.8446
3.45802
3.10464
2.78513
2.49856
2.25129
2.04564
1.88059
1.75213
1.65405
1.57976
1.52398
1.48312
1.45445
1.43565
1.42457
1.41995
1.42088
1.42637
1.43526
1.44651
1.45911
1.47207
1.48445
1.49526
1.50349
1.50811
1.50828
1.50313
1.49196
1.47405
1.44917
1.41719
1.37844
1.33319
1.28229
1.22694
1.1692
1.11199
1.05934
1.01702
0.992633
0.992626
1.02244
1.08465
1.17794
1.29852
2.11687
2.17758
2.31184
2.53917
2.87018
3.29934
3.79678
4.30671
4.76074
5.09425
5.26338
5.26017
5.10378
4.82769
4.47634
4.07354
3.67655
3.29726
2.93537
2.61297
2.33886
2.117
1.9441
1.81108
1.7094
1.63175
1.5737
1.53183
1.50318
1.48453
1.47416
1.47094
1.47377
1.48122
1.49205
1.50508
1.51918
1.53327
1.54623
1.55695
1.56428
1.56736
1.56519
1.55706
1.54199
1.51975
1.4901
1.45335
1.40962
1.35974
1.30473
1.24661
1.18813
1.13302
1.0868
1.05723
1.05237
1.08037
1.14675
1.25207
1.39246
2.0846
2.07365
2.09947
2.17905
2.32998
2.56635
2.89314
3.29854
3.75223
4.20396
4.59412
4.87187
5.01012
4.99915
4.85482
4.6002
4.27197
3.89675
3.48067
3.08414
2.7266
2.43198
2.20223
2.02427
1.88643
1.77905
1.69663
1.63573
1.59312
1.56353
1.54464
1.53482
1.5329
1.53712
1.54597
1.55806
1.57208
1.58678
1.6009
1.6132
1.62249
1.6279
1.62835
1.62314
1.61102
1.59179
1.56505
1.53114
1.49001
1.44249
1.38956
1.33313
1.27577
1.22104
1.17417
1.14274
1.13557
1.16296
1.23308
1.34899
1.50706
2.07966
2.04763
2.02947
2.03558
2.07922
2.17514
2.33723
2.57437
2.88529
3.2568
3.65339
4.03853
4.36932
4.61141
4.73558
4.73337
4.60741
4.36441
4.04117
3.63805
3.20332
2.83478
2.543
2.31154
2.12484
1.97591
1.85898
1.77186
1.70955
1.66423
1.63327
1.61356
1.60417
1.60302
1.60806
1.61762
1.63021
1.6443
1.6585
1.67119
1.68164
1.68851
1.69108
1.68839
1.67923
1.663
1.63975
1.60892
1.57119
1.52671
1.47711
1.42373
1.36918
1.31714
1.27205
1.24132
1.23418
1.2627
1.33625
1.46138
1.63327
0.297904
6.66562
6.36652
0.215026
0.361982
0.126581
0.00316183
2.44312
0.00337902
0.0234013
3.2921
1.07021
0.00316361
5.96609
0.11095
5.45796
0.00326121
2.54526
3.59132
0.00315728
0.214738
5.79243
6.39017
0.00329971
0.00333311
0.105697
0.00315958
0.51984
0.00324751
0.00346076
0.687188
0.00324438
0.0163411
2.51346
0.784495
3.36827
2.5157
1.55262
0.00316517
2.61477
1.90655
2.08678
0.00320902
4.73464
3.14414
0.281263
0.00361017
0.0151354
0.134001
1.0928
6.61769
7.89596
0.00310649
0.00405398
0.0376148
0.00878793
0.00345149
0.698016
2.39256
7.58836
2.53639
0.00369685
0.145495
0.0319182
6.65091
0.434026
1.97159
1.75499
0.00432364
0.00321285
1.22121
2.51747
1.73652
0.0147256
0.0396911
4.05629
6.98475
3.22005
0.00310749
0.930788
0.00711025
2.62287
0.0107399
4.78198
0.00321771
1.05895
0.00336221
2.21482
0.0148716
0.00491556
0.119381
0.00310301
0.00378399
7.75668
5.61387
0.00359559
0.438191
0.291414
0.00605102
6.69148
0.20402
2.51431
0.737126
0.00309882
0.0031649
0.00309566
0.305699
0.124867
0.00324143
6.21396
6.8825
0.00933514
4.52476
1.51095
2.61277
2.73432
1.78091
0.00390844
0.0855506
0.0041841
0.00438382
3.39919
0.00727292
7.47592
7.8201
0.992354
0.0032141
1.0129
1.02138
0.00320979
0.0341903
0.0334739
1.75139
0.00566968
3.05371
0.00321944
0.00316019
7.79569
7.94754
0.00322921
0.159267
5.75043
0.105185
0.30182
1.55413
4.76558
0.0386989
1.64065
0.0121001
7.07603
1.24368
0.0091826
2.76589
4.71877
6.43995
0.00330639
0.00326765
0.216575
0.00311132
1.94238
0.0305922
0.00511392
0.00319855
0.00321879
0.00323666
2.7892
1.80724
1.58684
0.00331934
6.73093
4.77913
3.21159
4.85714
0.0140085
3.6547
1.69608
1.89061
0.0032404
0.00568558
2.94981
3.04274
2.14072
3.79452
0.00321476
0.00352312
4.83438
0.0360837
0.565235
0.00323727
0.00360655
0.104801
0.00339281
7.88212
0.673681
0.00309978
0.254958
1.84981
5.44698
0.00449434
1.91898
0.00321718
0.00323272
4.79902
2.39402
7.30008
0.00453828
0.00339482
0.00766464
2.74773
2.1898
1.07325
5.11033
1.5489
6.99778
0.191823
4.30813
4.1431
2.01927
1.34777
2.31998
0.00488596
0.0370477
0.00322453
0.00319827
1.81784
0.0181898
0.020187
0.00571514
0.0131467
2.72287
4.59815
0.0189277
6.03948
1.06691
0.39102
0.00318316
0.162554
2.74476
1.02062
0.00414237
1.13806
1.15697
0.183273
0.267526
7.35772
0.785
0.496459
5.18104
0.00384112
0.00316103
0.00403483
0.0105179
1.74351
0.00336176
0.00649899
0.00316474
0.382999
3.95612
3.99067
2.73113
1.2828
1.42038
7.75149
0.00434444
2.06765
4.50343
0.00320938
1.97553
0.00321714
3.99613
0.381422
1.56515
0.0053391
0.0032195
1.86226
0.511558
0.00323891
0.00323609
0.00325052
0.00324592
0.359125
1.62567
2.96205
0.0147969
0.00324057
0.00316419
0.00309714
4.72246
0.226054
0.00446939
1.66161
0.0878753
0.0411853
0.00309017
0.263506
0.00323971
0.0500045
1.48261
4.66647
0.298648
0.00391489
0.00595674
3.20978
0.140203
1.99015
7.69263
0.00350262
0.00319725
0.00318714
5.83888
0.0033112
4.78512
0.00322108
1.92742
1.20431
0.0271626
2.89792
3.91533
0.00467845
2.71085
2.71076
1.67186
4.6809
1.07932
7.94838
2.4539
3.86988
3.58247
4.51955
1.72759
0.157938
7.86627
7.44746
2.98245
2.13344
0.00395219
6.96186
2.71545
6.91513
0.0275548
0.00358661
0.00321398
0.00342378
0.177377
0.420838
0.682003
0.0923725
0.00317467
6.15
0.00321473
1.46186
1.92942
6.45407
2.50701
1.80603
0.00595766
0.00425686
0.0875342
2.79566
0.0103078
0.748377
5.14133
2.04486
4.1114
6.2476
3.31937
0.00346305
7.44465
5.59359
1.76308
0.00323436
6.51952
5.81319
0.0033327
1.97513
0.00323808
6.84441
5.45727
1.86605
4.16276
2.49374
5.75567
0.00329223
5.74009
0.00386388
3.64218
3.96567
1.90383
7.41832
0.714825
0.213399
0.546823
0.00424078
4.31053
0.144044
0.0081543
0.0050802
4.44337
0.0038314
4.33014
0.00319212
0.00323533
0.00600878
1.80915
0.104881
1.83079
0.00571774
4.23266
0.1636
6.83222
4.37094
2.64053
6.21863
0.00338468
7.41792
2.86227
0.00321123
3.89299
2.04624
0.00310123
0.00316804
3.34265
0.00649108
1.89098
0.0874114
2.36657
0.0268475
0.598862
2.66037
4.7637
2.39973
3.89111
3.7306
0.00395065
0.0217161
1.6848
1.72059
7.6894
6.46081
5.43002
0.0655288
5.19783
5.17458
0.497029
1.76864
2.88097
2.06196
0.00347644
4.09643
7.95162
0.00416337
4.41813
1.85367
2.90933
0.0241981
0.067826
6.14286
0.00596582
7.68549
0.00461933
0.263325
0.00320404
0.976975
2.3525
0.230776
0.00479895
0.00370193
2.70889
1.60114
0.0830931
0.40834
5.83514
4.11652
0.00449871
1.43273
1.64283
3.24956
1.49869
4.21571
1.95011
5.24428
3.2005
0.497446
0.987747
7.56504
1.93684
7.79794
6.14383
0.0323892
3.34826
2.86864
0.00337834
1.84549
1.60858
1.3378
0.0174237
4.79326
1.47647
0.686437
1.93936
0.00545865
0.00321489
0.0430703
2.33566
4.56276
2.56995
0.00322106
0.00318943
0.00321542
1.70588
0.0278575
0.00321529
0.124143
4.36883
4.93467
0.0105328
0.0107646
0.00315504
0.00320531
0.00598738
1.75097
1.76565
1.69029
0.455628
7.69986
5.91059
0.00526613
3.30423
1.8323
1.93464
4.00637
7.54114
0.00346274
0.0104566
0.00323813
3.89154
0.242018
0.00316915
1.35294
0.162308
7.60262
0.00323852
7.84743
1.12404
0.0473213
6.61981
0.00323195
0.0031953
0.00404677
7.87966
3.21131
5.35755
5.01885
0.996953
1.7592
0.003126
0.00602935
0.0871805
0.013469
0.0251778
1.99951
2.13624
0.00322451
1.29811
1.82707
6.38015
7.87126
0.00823537
7.83537
0.00590944
0.0303568
3.53169
0.00320157
5.63518
0.00324067
0.00336733
0.0223329
2.13393
0.623533
2.60099
1.90602
0.00365933
1.75896
4.6161
0.0526074
0.210132
0.862123
0.00331523
0.00326738
0.00693951
5.39763
0.546531
0.00335743
7.46355
5.90903
6.82158
0.0324574
2.02175
0.00421199
2.36535
0.164371
0.0913536
2.63149
1.66723
1.94
6.1841
0.0032793
0.00313235
0.010438
4.14645
4.68849
0.965133
0.0138849
0.00333409
0.00323916
0.00880503
0.0254191
0.00661187
2.164
1.71982
0.011599
1.55754
6.16927
0.0032714
2.37778
0.00321771
0.53406
0.00324484
0.0222296
2.41908
0.0201334
0.00320606
0.759003
7.9777
7.24252
0.00318977
0.00326424
0.386031
0.0266864
0.00321634
4.38637
0.00370167
1.67282
7.96452
2.33797
1.73558
2.49078
3.64899
7.70576
0.00322927
0.00745389
0.0148371
4.20668
1.46881
6.62798
0.670752
0.360632
4.26235
3.57564
5.21883
0.727956
2.79599
0.00322232
0.355924
1.68487
2.48236
3.91373
1.99372
0.221399
2.48725
0.102743
0.00932773
1.75406
0.00323955
5.61069
0.0036638
0.385207
7.50692
2.778
0.557811
0.0074224
0.761281
0.00329934
0.00319171
0.10679
0.0225428
1.8083
0.0152707
1.73571
0.00322126
0.0280095
0.00316631
4.53367
0.00508127
4.09356
2.55779
0.0219523
1.95437
7.61874
0.00325824
1.74117
4.3748
0.00335877
7.46981
0.0605896
0.00348237
0.00339505
7.3534
0.0031785
0.00429082
0.0871287
0.101157
7.23152
7.36747
0.00322104
0.00327056
1.09451
2.27125
0.0146147
0.261139
1.99089
0.00321765
0.00383462
0.00372628
6.09563
7.35564
0.493745
7.19841
0.0261399
1.59581
0.00332393
0.0147972
0.0249332
0.0364853
0.00322992
6.84437
0.00320088
0.0250709
0.00332228
0.241412
0.0224744
0.0150467
0.445685
0.675289
2.28583
0.40346
1.05245
1.81942
5.03311
0.00343935
4.77257
7.81785
1.12437
3.99936
0.00327899
4.31822
4.01167
0.00321579
7.52329
2.30062
0.00817197
0.0109455
5.89807
5.67874
0.0577222
7.71132
7.44476
0.790604
7.43007
7.40627
4.90139
1.92073
1.6928
1.00943
7.38461
7.64093
0.0219307
7.47265
2.65951
4.33375
0.00343338
0.337511
0.382279
6.85537
6.03961
0.0202559
4.2876
6.4603
0.470526
0.03376
0.388516
1.81136
0.00535303
1.84725
7.04956
0.0338937
6.80797
1.36973
4.47569
6.44143
0.00322228
0.00566467
1.04476
0.696116
0.018305
0.00321827
0.193617
0.264313
0.00451414
0.00323647
4.23451
0.97888
3.14145
1.00689
0.00862986
0.00417322
0.0894192
3.34167
0.00346037
1.84643
1.68139
0.477181
2.35887
0.00397286
0.11914
0.00320215
0.342554
4.31033
0.00437734
0.11856
2.09645
5.83039
0.224873
3.94715
0.599543
0.166053
0.00392841
2.38463
7.86736
0.00321146
0.00328262
5.73055
0.0245521
0.00323561
3.84997
0.249366
1.95305
2.00122
1.49297
0.145263
1.70213
3.46134
5.9382
4.35396
0.00327558
5.54094
0.0038918
2.5173
0.00340004
0.00453703
2.1018
0.0065691
3.84255
0.0207598
0.0398225
1.86366
0.734069
0.0634646
0.00367471
6.3998
0.00364408
0.00315317
7.93075
5.976
2.77842
1.92254
0.00343501
0.00307028
1.84426
5.73036
0.00319909
6.71791
1.70181
0.00324252
6.00387
0.00311619
0.362126
0.901399
1.34466
0.355646
1.61317
1.92406
0.00311206
7.40486
7.48565
0.00321547
0.0168817
1.92119
0.00313105
7.02888
5.29877
4.39738
0.00321768
0.00317074
3.47215
0.0411838
0.00350266
1.8312
1.73671
4.14678
0.00315368
0.00338012
0.0243643
0.0194977
0.003217
0.00642547
5.18613
2.87084
0.00322242
1.33734
0.00321467
0.72379
0.00421705
0.00358664
2.22948
0.00326668
0.121966
0.00317619
3.02058
0.18334
1.72883
6.29353
4.36447
3.62041
0.807648
1.20853
0.00323547
0.925996
7.42474
4.10932
0.106963
0.00346714
5.33052
0.00321465
0.03063
0.00315598
7.28618
0.793363
0.375513
6.57126
2.22509
0.494469
4.14302
0.7283
6.82587
4.48817
0.00331034
0.00327439
0.00817894
0.00323086
0.0228076
4.5259
0.003781
7.25777
0.00600117
0.0749111
0.576478
4.61977
0.00488234
2.74686
0.0169997
3.17926
2.38932
7.0603
0.00339789
0.00384602
0.250672
3.62013
1.70766
3.63171
0.417947
1.05261
1.67376
0.0507756
1.04867
0.262606
1.68299
0.00328338
4.309
0.414775
3.08117
0.00336534
2.99135
1.00169
0.00462851
1.66477
1.76853
0.0654091
0.00314886
0.00321798
4.80165
2.7594
1.36485
0.00320751
0.0176024
1.98596
6.34003
0.468771
0.0126223
0.00322435
5.6856
5.36388
2.072
2.61171
0.00321326
3.48824
7.5659
0.00321102
0.00321768
1.25199
0.00411669
0.00988276
0.0316987
1.95824
0.00410995
2.20226
7.78259
0.00320431
0.00346356
0.00316799
0.00330643
3.71641
4.63625
7.90052
0.0290453
2.39064
2.18754
0.0871762
2.90328
0.00348054
1.68734
0.22141
2.07199
0.682966
1.67204
3.08401
0.0277201
0.00323889
5.93407
4.48228
4.63684
0.899612
1.773
0.175073
1.56294
0.00929237
0.00483608
3.38239
5.61989
0.021644
0.129797
0.0032452
0.0781905
1.87564
0.0278638
1.04607
0.688055
3.84477
2.14856
0.43472
6.79785
5.44397
2.93125
1.61683
4.14878
3.50378
0.557819
2.61537
0.00616733
2.75034
2.89504
0.00320395
0.00313602
0.122088
0.0032266
0.00333033
2.99597
4.37615
0.00322012
3.20491
0.00321471
0.00319233
0.00321604
0.00326255
0.00595091
1.93221
2.80505
7.16905
0.00315947
0.00391311
0.947549
0.00355511
0.0330979
0.00324572
0.00361117
4.31264
0.00391064
0.0109547
2.85646
0.0104926
0.0032196
3.88543
0.00321417
0.00326665
0.258459
0.00360591
0.93718
0.00458091
0.0300657
0.00320421
0.0032541
7.62318
7.76006
2.79449
0.0268681
2.92724
1.54828
0.00473813
1.75859
4.13944
6.97079
4.57506
0.00312377
1.92143
2.53686
0.146667
1.73472
4.45932
0.173558
2.05176
0.207479
1.71407
0.0376583
1.00808
0.00323486
6.91334
0.00328977
1.79214
2.44688
0.00321511
0.313356
0.00731171
0.0193725
0.00317629
0.762783
0.00366388
0.00322154
2.52613
0.00913201
0.110505
6.91288
1.9348
0.00345967
0.00388155
2.37023
7.30304
0.00309104
0.00324653
0.0729523
1.37884
5.54599
0.00659991
1.62443
0.00321797
0.00344351
0.00314777
0.0348973
1.01194
0.0101593
6.46202
1.80568
7.28667
6.17252
0.00351958
7.38411
3.70807
0.00317934
0.00322624
0.00321814
0.0043963
0.00320258
3.74353
0.00320798
0.00323953
6.74209
0.322162
0.00775907
0.02172
1.98532
0.907614
0.00822935
0.00345973
6.37584
0.00324544
0.824293
0.00326223
0.00352405
6.01297
5.97612
0.00869344
0.00351202
0.328728
0.0032064
6.8153
0.00325536
5.75618
0.0247503
0.742149
0.033559
0.377924
0.362473
1.52742
0.00324271
0.00356659
0.011576
3.36816
0.120072
7.5977
0.00321935
0.00459118
0.00555881
7.26067
2.78183
3.12559
0.00694887
0.00900519
0.212892
0.00322342
1.27749
2.43659
0.0170049
5.85391
6.18212
2.0129
0.0053435
0.385694
2.8993
6.97054
1.7959
0.0188504
3.07122
0.0613277
5.39787
0.0915334
0.517956
2.71406
0.00324365
1.75532
0.00455011
0.0118717
0.00814353
0.0501374
0.00370249
1.2669
0.00322656
3.07413
0.0957515
0.00361288
0.243901
0.00323205
0.283976
0.117383
2.29646
0.471984
4.66342
0.241108
0.00321692
0.00319065
0.719591
0.0915853
2.84174
7.30892
0.00322399
3.85163
2.66106
0.0232294
2.03383
0.575541
2.35171
2.16566
0.0334387
0.00588785
7.27817
1.56164
5.86864
0.00321074
1.64653