/*--------------------------------*- C++ -*----------------------------------*\
| =========                 |                                                 |
| \\      /  F ield         | OpenFOAM: The Open Source CFD Toolbox           |
|  \\    /   O peration     | Version:  2.3.1                                 |
|   \\  /    A nd           | Web:      www.OpenFOAM.org                      |
|    \\/     M anipulation  |                                                 |
\*---------------------------------------------------------------------------*/
FoamFile
{
    version     2.0;
    format      ascii;
    class       volScalarField;
    location    "0.67";
    object      p;
}
// * * * * * * * * * * * * * * * * * * * * * * * * * * * * * * * * * * * * * //

dimensions      [0 2 -2 0 0 0 0];

internalField   nonuniform List<scalar> 
9648
(
-0.157684
-0.434046
-0.761171
-1.13598
-1.5859
-2.12385
-2.76133
-3.50614
-4.36675
-5.36065
-6.49888
-7.79424
-9.25928
-10.9047
-12.7399
-14.7748
-17.0174
-19.4763
-22.1549
-25.0574
-28.1888
-31.5456
-35.1275
-38.9298
-42.948
-47.1726
-51.5929
-56.2001
-60.9768
-65.9139
-70.9912
-76.1934
-81.5051
-86.9017
-92.372
-97.8883
-103.437
-108.999
-114.549
-120.067
-125.529
-130.928
-136.225
-141.411
-146.476
-151.385
-156.127
-160.686
-165.065
-169.235
-173.156
-176.834
-180.271
-183.437
-186.333
-188.945
-191.26
-193.283
-194.992
-196.399
-197.494
0.370837
0.108297
-0.204109
-0.57251
-1.0159
-1.53649
-2.14695
-2.86229
-3.69361
-4.64999
-5.74247
-6.98288
-8.38228
-9.9511
-11.6991
-13.6353
-15.7674
-18.1022
-20.6445
-23.3983
-26.3664
-29.5484
-32.9426
-36.545
-40.3503
-44.3505
-48.5362
-52.8971
-57.4199
-62.0924
-66.8982
-71.8219
-76.8474
-81.9556
-87.13
-92.3504
-97.6002
-102.86
-108.108
-113.327
-118.495
-123.596
-128.605
-133.508
-138.286
-142.918
-147.39
-151.683
-155.784
-159.686
-163.382
-166.852
-170.085
-173.069
-175.791
-178.245
-180.414
-182.308
-183.905
-185.207
-186.199
0.187327
-0.0523614
-0.338969
-0.679482
-1.08112
-1.56454
-2.13711
-2.81044
-3.59477
-4.50313
-5.54591
-6.73493
-8.08087
-9.59364
-11.2829
-13.1572
-15.224
-17.4896
-19.9586
-22.635
-25.5211
-28.6169
-31.921
-35.429
-39.1355
-43.0328
-47.1119
-51.3626
-55.7725
-60.3289
-65.0165
-69.8198
-74.7228
-79.7082
-84.7584
-89.8549
-94.9805
-100.116
-105.243
-110.341
-115.392
-120.377
-125.276
-130.071
-134.746
-139.282
-143.662
-147.871
-151.894
-155.717
-159.33
-162.722
-165.887
-168.801
-171.469
-173.869
-176.01
-177.86
-179.428
-180.711
-181.714
0.410727
0.170446
-0.113982
-0.450098
-0.847078
-1.31594
-1.86743
-2.51292
-3.26375
-4.13215
-5.12991
-6.26841
-7.55824
-9.00922
-10.6314
-12.4327
-14.4204
-16.6005
-18.977
-21.5539
-24.3336
-27.3156
-30.4989
-33.8785
-37.4491
-41.2028
-45.1309
-49.224
-53.4699
-57.8558
-62.3678
-66.9897
-71.7065
-76.5024
-81.3595
-86.2602
-91.1883
-96.1248
-101.052
-105.952
-110.805
-115.593
-120.297
-124.901
-129.386
-133.736
-137.935
-141.969
-145.824
-149.486
-152.946
-156.192
-159.215
-162.003
-164.545
-166.833
-168.862
-170.618
-172.1
-173.304
-174.227
0.467714
0.260081
0.00786138
-0.29734
-0.663654
-1.10047
-1.6175
-2.22524
-2.93568
-3.75963
-4.70968
-5.7958
-7.02888
-8.41768
-9.97321
-11.702
-13.6113
-15.707
-17.9916
-20.4698
-23.1442
-26.0133
-29.0774
-32.3299
-35.7658
-39.3776
-43.1558
-47.0929
-51.1762
-55.3935
-59.732
-64.1744
-68.7075
-73.3169
-77.9841
-82.692
-87.4266
-92.168
-96.9003
-101.607
-106.269
-110.868
-115.385
-119.805
-124.11
-128.283
-132.312
-136.18
-139.875
-143.386
-146.7
-149.81
-152.706
-155.379
-157.816
-160.007
-161.943
-163.62
-165.038
-166.189
-167.069
0.557376
0.365953
0.133999
-0.148113
-0.487508
-0.894577
-1.37848
-1.9496
-2.62059
-3.40102
-4.30469
-5.33972
-6.51786
-7.84504
-9.33543
-10.993
-12.8245
-14.8364
-17.0283
-19.4068
-21.9753
-24.7297
-27.6741
-30.7976
-34.0964
-37.5631
-41.1864
-44.9636
-48.8794
-52.9221
-57.0819
-61.3379
-65.6792
-70.0949
-74.5642
-79.07
-83.6026
-88.139
-92.6664
-97.1714
-101.633
-106.033
-110.351
-114.576
-118.69
-122.677
-126.524
-130.214
-133.738
-137.085
-140.245
-143.207
-145.966
-148.514
-150.837
-152.92
-154.756
-156.343
-157.683
-158.77
-159.597
0.650465
0.475901
0.263064
0.00199628
-0.312594
-0.692229
-1.14533
-1.68116
-2.31458
-3.05254
-3.91198
-4.89777
-6.02329
-7.28883
-8.71572
-10.3024
-12.0558
-13.9848
-16.0831
-18.359
-20.8212
-23.4578
-26.2825
-29.2762
-32.4349
-35.7542
-39.2165
-42.8304
-46.5745
-50.4361
-54.415
-58.4799
-62.6197
-66.8361
-71.1039
-75.3986
-79.7225
-84.0465
-88.3597
-92.6572
-96.9125
-101.109
-105.22
-109.242
-113.159
-116.951
-120.611
-124.115
-127.461
-130.635
-133.635
-136.441
-139.055
-141.474
-143.681
-145.654
-147.382
-148.869
-150.127
-151.151
-151.922
0.741918
0.58497
0.393129
0.151761
-0.137793
-0.491771
-0.916819
-1.41569
-2.01486
-2.70871
-3.52857
-4.46511
-5.54691
-6.74324
-8.10984
-9.62795
-11.299
-13.1522
-15.1558
-17.3186
-19.6839
-22.1901
-24.9033
-27.7685
-30.7777
-33.9576
-37.2414
-40.691
-44.2665
-47.9313
-51.7407
-55.6124
-59.526
-63.543
-67.6239
-71.678
-75.7935
-79.9025
-83.9819
-88.0785
-92.1173
-96.1203
-99.9997
-103.809
-107.541
-111.122
-114.603
-117.902
-121.071
-124.052
-126.899
-129.528
-131.98
-134.276
-136.379
-138.225
-139.848
-141.209
-142.386
-143.361
-144.067
0.838348
0.689824
0.53405
0.297055
0.0430409
-0.296741
-0.700107
-1.13516
-1.73223
-2.34789
-3.16508
-4.02083
-5.11442
-6.1742
-7.5239
-8.9912
-10.5373
-12.3602
-14.2464
-16.2636
-18.615
-20.9054
-23.5721
-26.2812
-29.1197
-32.2382
-35.2595
-38.5801
-42.0238
-45.4138
-49.1234
-52.7706
-56.4207
-60.2909
-64.2308
-67.87
-71.8859
-75.7754
-79.5654
-83.5214
-87.2661
-91.1472
-94.715
-98.3854
-101.985
-105.239
-108.647
-111.632
-114.692
-117.366
-120.127
-122.477
-124.793
-127.046
-129.024
-130.679
-132.295
-133.434
-134.605
-135.533
-136.103
-198.251
-198.685
-198.801
-198.59
-198.071
-197.235
-196.086
-194.622
-192.835
-190.751
-188.346
-185.636
-182.655
-179.408
-175.887
-172.105
-168.068
-163.805
-159.307
-154.589
-149.682
-144.574
-139.289
-133.839
-128.252
-122.533
-116.669
-110.696
-104.618
-98.4713
-92.254
-85.9873
-79.6927
-73.3704
-67.0486
-60.7294
-54.4362
-48.181
-41.9719
-35.8258
-29.7544
-23.7809
-17.9027
-12.1401
-6.50725
-1.00643
4.34653
9.54337
14.569
19.4166
24.0815
28.5526
32.8191
36.8797
40.7237
44.3464
47.7425
50.9066
53.8384
56.5333
58.9911
-186.882
-187.231
-187.311
-187.087
-186.565
-185.75
-184.637
-183.229
-181.515
-179.504
-177.195
-174.599
-171.753
-168.662
-165.313
-161.71
-157.867
-153.797
-149.506
-145.006
-140.316
-135.441
-130.395
-125.188
-119.836
-114.349
-108.76
-103.069
-97.285
-91.4251
-85.5016
-79.53
-73.5253
-67.4994
-61.4687
-55.4424
-49.4368
-43.4654
-37.54
-31.673
-25.8779
-20.1704
-14.5579
-9.05372
-3.67036
1.58528
6.70191
11.6689
16.4746
21.1117
25.5734
29.8509
33.9346
37.8216
41.5027
44.9733
48.2263
51.2596
54.0701
56.6547
59.0124
-182.42
-182.858
-182.953
-182.741
-182.241
-181.463
-180.37
-178.979
-177.268
-175.26
-172.987
-170.447
-167.629
-164.542
-161.206
-157.632
-153.83
-149.809
-145.58
-141.153
-136.543
-131.757
-126.808
-121.706
-116.462
-111.087
-105.601
-100.016
-94.344
-88.5992
-82.795
-76.9462
-71.0664
-65.1694
-59.2682
-53.3746
-47.5016
-41.6622
-35.8691
-30.135
-24.4729
-18.896
-13.4142
-8.03929
-2.78179
2.3498
7.34477
12.1928
16.8836
21.41
25.7635
29.9371
33.9229
37.7164
41.3094
44.6971
47.874
50.8362
53.5812
56.1058
58.4101
-174.865
-175.228
-175.294
-175.068
-174.544
-173.707
-172.582
-171.234
-169.628
-167.755
-165.599
-163.18
-160.496
-157.557
-154.372
-150.95
-147.302
-143.438
-139.37
-135.11
-130.67
-126.061
-121.293
-116.377
-111.323
-106.144
-100.855
-95.4686
-89.9984
-84.4565
-78.8557
-73.2111
-67.5362
-61.8453
-56.1491
-50.4597
-44.7891
-39.1493
-33.5536
-28.0142
-22.5438
-17.1549
-11.858
-6.66396
-1.58248
3.37859
8.20793
12.8962
17.4324
21.8112
26.0232
30.0612
33.9197
37.5925
41.0742
44.3569
47.4379
50.3109
52.9747
55.4254
57.6641
-167.675
-168.009
-168.065
-167.844
-167.343
-166.563
-165.53
-164.172
-162.564
-160.711
-158.602
-156.242
-153.633
-150.786
-147.705
-144.397
-140.871
-137.135
-133.203
-129.088
-124.801
-120.353
-115.753
-111.007
-106.131
-101.133
-96.0296
-90.8341
-85.5576
-80.2125
-74.8089
-69.3642
-63.8907
-58.4042
-52.9123
-47.4273
-41.9592
-36.5195
-31.1227
-25.78
-20.5031
-15.3056
-10.1968
-5.18758
-0.287154
4.49971
9.15766
13.6816
18.0574
22.2828
26.3476
30.2443
33.9689
37.5143
40.8782
44.0503
47.0302
49.8074
52.3849
54.7561
56.9241
-160.16
-160.46
-160.491
-160.256
-159.753
-158.987
-157.96
-156.666
-155.115
-153.318
-151.277
-148.994
-146.472
-143.724
-140.754
-137.566
-134.165
-130.562
-126.769
-122.804
-118.676
-114.396
-109.971
-105.403
-100.71
-95.8992
-90.9859
-85.9879
-80.9121
-75.7705
-70.5691
-65.3305
-60.0637
-54.7901
-49.51
-44.2367
-38.9784
-33.7456
-28.5547
-23.4148
-18.338
-13.3386
-8.42392
-3.60636
1.10573
5.71407
10.1959
14.5518
18.7603
22.8277
26.7396
30.4887
34.0752
37.4866
40.7301
43.7864
46.662
49.3391
51.8283
54.1147
56.2097
-152.441
-152.702
-152.709
-152.457
-151.954
-151.203
-150.196
-148.932
-147.427
-145.69
-143.721
-141.518
-139.084
-136.44
-133.587
-130.522
-127.252
-123.778
-120.126
-116.315
-112.351
-108.247
-104.004
-99.6196
-95.1141
-90.4925
-85.7745
-80.9798
-76.111
-71.1775
-66.1808
-61.1513
-56.0952
-51.0428
-45.9809
-40.9283
-35.8882
-30.8678
-25.8884
-20.9594
-16.0883
-11.2919
-6.57688
-1.95731
2.56037
6.9864
11.2883
15.4742
19.5103
23.4138
27.1672
30.7642
34.2067
37.4788
40.5994
43.5368
46.3084
48.8814
51.2783
53.4749
55.4949
-144.54
-144.752
-144.736
-144.458
-143.96
-143.224
-142.243
-140.989
-139.515
-137.856
-135.966
-133.837
-131.491
-128.953
-126.231
-123.291
-120.153
-116.805
-113.301
-109.65
-105.849
-101.928
-97.8843
-93.6805
-89.3667
-84.938
-80.4228
-75.8363
-71.1695
-66.4489
-61.6512
-56.8362
-51.9883
-47.1709
-42.3313
-37.5194
-32.718
-27.9016
-23.1345
-18.4358
-13.7656
-9.17199
-4.66991
-0.246299
4.06269
8.31152
12.4257
16.4474
20.2968
24.034
27.6198
31.0518
34.3551
37.4788
40.4855
43.2984
45.9724
48.4267
50.7316
52.8269
54.7757
-136.534
-136.668
-136.641
-136.332
-135.844
-135.09
-134.153
-132.835
-131.44
-129.967
-128.082
-126.032
-123.738
-121.29
-118.798
-115.914
-112.902
-109.746
-106.366
-102.89
-99.1716
-95.414
-91.6686
-87.5491
-83.4392
-79.2806
-74.9046
-70.562
-65.9911
-61.6001
-56.8779
-52.4007
-47.6489
-43.1667
-38.5109
-33.9691
-29.4668
-24.7378
-20.1899
-15.7691
-11.2183
-6.87725
-2.626
1.68105
5.63644
9.84844
13.6388
17.6134
21.1393
24.7838
28.219
31.39
34.6706
37.5314
40.56
43.122
45.8045
47.9922
50.3306
52.2259
54.2109
61.2131
63.1977
64.9455
66.4573
67.7325
68.7752
69.5896
70.1805
70.5524
70.7115
70.6801
70.5011
70.1678
69.6392
68.9407
68.0791
67.0185
65.7678
64.3492
62.7786
61.068
59.2279
57.2706
55.2071
53.0498
50.8114
48.5052
46.1456
43.7449
41.3188
38.8804
36.4449
34.0276
31.6421
29.3052
27.0298
24.831
22.7231
20.729
18.864
17.1523
15.5994
14.2186
13.0294
12.0462
11.2783
10.7349
10.4172
10.3192
10.422
10.6914
11.0729
11.4876
11.8341
11.9556
11.2155
9.70305
8.19539
6.97332
6.05265
5.23238
61.1436
63.0488
64.728
66.1816
67.4099
68.4148
69.1999
69.7692
70.1268
70.2752
70.2287
70.0456
69.727
69.2219
68.5425
67.695
66.66
65.4443
64.0658
62.539
60.8755
59.0859
57.1821
55.1765
53.0808
50.9072
48.6681
46.3762
44.0444
41.6864
39.3155
36.9459
34.5918
32.2671
29.9866
27.7645
25.6154
23.5507
21.577
19.7212
17.9916
16.4248
15.0274
13.8131
12.7939
11.9799
11.3793
10.9941
10.8184
10.8357
11.0144
11.3046
11.63
11.8883
11.8884
11.196
9.86346
8.52948
7.49012
6.68429
5.85102
60.4929
62.356
63.999
65.4233
66.6284
67.6171
68.3925
68.9588
69.3185
69.4686
69.4321
69.2731
68.9776
68.4944
67.8401
67.023
66.0303
64.8672
63.5466
62.0816
60.4833
58.7622
56.93
54.9982
52.9777
50.8808
48.719
46.5048
44.2505
41.9694
39.6746
37.3794
35.0975
32.8426
30.6283
28.4686
26.3766
24.3642
22.444
20.6373
18.9628
17.4301
16.0548
14.8469
13.8174
12.9758
12.3286
11.8767
11.6141
11.5253
11.5802
11.7322
11.9056
11.9964
11.8243
11.1348
9.96685
8.75031
7.74004
6.89671
6.05943
59.6885
61.5012
63.1008
64.4902
65.6674
66.6364
67.398
67.958
68.3146
68.4634
68.4423
68.3126
68.0412
67.5863
66.9617
66.1771
65.2269
64.117
62.856
61.4557
59.9263
58.2772
56.5212
54.6684
52.7291
50.7161
48.6399
46.5131
44.3469
42.1547
39.9485
37.7417
35.5469
33.3775
31.2462
29.1667
27.1513
25.2125
23.3633
21.6198
19.997
18.5061
17.1586
15.9628
14.9284
14.0633
13.3713
12.8513
12.4957
12.2892
12.2026
12.192
12.1887
12.0988
11.7854
11.1052
10.088
8.9867
7.99718
7.12971
6.30497
58.884
60.6424
62.1945
63.5459
64.6911
65.6375
66.3814
66.9314
67.281
67.4294
67.4254
67.325
67.0758
66.6503
66.0562
65.3063
64.3974
63.34
62.1374
60.8017
59.3419
57.7651
56.0866
54.3148
52.4583
50.5318
48.5437
46.5071
44.4312
42.3305
40.2152
38.0991
35.9931
33.9109
31.8639
29.8658
27.9278
26.0624
24.2808
22.5969
21.0231
19.5715
18.2516
17.0704
16.0339
15.1475
14.4134
13.8283
13.3831
13.0617
12.8368
12.6681
12.498
12.252
11.8384
11.1766
10.2827
9.29517
8.34615
7.47227
6.64391
58.1005
59.803
61.3042
62.6173
63.7277
64.6508
65.375
65.9149
66.2568
66.4097
66.4222
66.3488
66.1199
65.724
65.16
64.4467
63.5785
62.5736
61.4283
60.1571
58.7678
57.2626
55.6623
53.9728
52.1992
50.3612
48.4617
46.517
44.5319
42.524
40.5002
38.4757
36.4585
34.464
32.5008
30.584
28.7227
26.9295
25.2127
23.5862
22.0593
20.6444
19.3487
18.1784
17.137
16.2267
15.4491
14.7991
14.2668
13.8372
13.4848
13.175
12.8613
12.4894
11.9993
11.3458
10.5357
9.64178
8.74494
7.88388
7.05437
57.3131
58.9583
60.4057
61.6801
62.7542
63.6554
64.3603
64.89
65.2251
65.3866
65.415
65.3664
65.1576
64.7906
64.2567
63.581
62.7538
61.8023
60.7128
59.507
58.19
56.7568
55.2362
53.6293
51.9386
50.1912
48.3819
46.5306
44.637
42.7237
40.7925
38.8607
36.9322
35.0255
33.1453
31.3098
29.525
27.8031
26.1489
24.5774
23.0947
21.7144
20.4412
19.2794
18.231
17.2962
16.4763
15.7642
15.1496
14.621
14.1549
13.7233
13.2896
12.8157
12.2625
11.6043
10.8421
10.0138
9.16673
8.32975
7.50996
56.5097
58.1029
59.4885
60.7294
61.7597
62.6442
63.3261
63.8494
64.1762
64.3546
64.3928
64.3704
64.1786
63.8428
63.3362
62.7009
61.9106
61.0211
59.9789
58.8417
57.6022
56.2351
54.804
53.2796
51.6639
50.0148
48.2937
46.5416
44.7351
42.9218
41.0812
39.2463
37.4038
35.5871
33.7849
32.0323
30.3225
28.6741
27.078
25.5614
24.1165
22.7702
21.5166
20.3653
19.3086
18.3485
17.4924
16.724
16.0334
15.4192
14.8537
14.3207
13.7869
13.2307
12.6224
11.9507
11.2104
10.4241
9.6128
8.80056
7.99746
55.7301
57.3806
58.6052
59.9186
60.7954
61.7409
62.2939
62.9047
63.1435
63.4367
63.3849
63.4666
63.213
62.9965
62.4412
61.9187
61.0644
60.3394
59.2948
58.234
57.1065
55.7006
54.4293
53.0189
51.3918
49.9151
48.2128
46.6273
44.8363
43.1824
41.3702
39.6842
37.8807
36.2026
34.4238
32.7924
31.1147
29.5772
28.0007
26.5735
25.1248
23.8392
22.5838
21.4534
20.391
19.3895
18.5134
17.6929
16.9257
16.2557
15.5931
14.9891
14.3609
13.7467
13.08
12.3993
11.6565
10.9062
10.1101
9.30992
8.52696
4.4337
3.70824
3.022
2.32727
1.63607
0.986636
0.390149
-0.14358
-0.592775
-0.951224
-1.21616
-1.39305
-1.4831
-1.48364
-1.42434
-1.32773
-1.20837
-1.08619
-0.975188
-0.882041
-0.809012
-0.749865
-0.70245
-0.666827
-0.620979
-0.587386
-0.547361
-0.501632
-0.444379
-0.375034
-0.291209
-0.192659
-0.0798566
0.0473435
0.185651
0.335108
0.490719
0.648375
0.804577
0.954065
1.09214
1.21293
1.31584
1.39685
1.45254
1.48304
1.48747
1.46718
1.42306
1.35826
1.27671
1.18172
1.07612
0.965332
0.850167
0.733019
0.613786
0.491367
0.353211
0.182085
-0.0068936
5.02169
4.33663
3.71013
3.05996
2.39855
1.7805
1.21316
0.700164
0.269113
-0.0706765
-0.31527
-0.461724
-0.512066
-0.480292
-0.40315
-0.298695
-0.179275
-0.0613228
0.0430387
0.127789
0.193058
0.241654
0.281358
0.299263
0.338433
0.354981
0.38225
0.413632
0.455197
0.508686
0.575575
0.656747
0.752577
0.862542
0.984773
1.11616
1.25428
1.39543
1.53553
1.67065
1.79648
1.9086
2.00262
2.07523
2.12402
2.14796
2.14671
2.12062
2.07088
1.99997
1.91099
1.80738
1.69205
1.57067
1.4441
1.31631
1.1857
1.05231
0.910048
0.753193
0.576503
5.26387
4.58329
3.94
3.23972
2.53009
1.89414
1.30453
0.75381
0.285505
-0.0932127
-0.381997
-0.57909
-0.688844
-0.728055
-0.694918
-0.61502
-0.493317
-0.360486
-0.24382
-0.150097
-0.0789948
-0.0245149
0.0146938
0.0602675
0.0790425
0.115756
0.146727
0.18582
0.234304
0.293962
0.366205
0.45203
0.551608
0.664134
0.787921
0.920547
1.05886
1.19922
1.33759
1.46963
1.591
1.69775
1.78633
1.8536
1.89709
1.91577
1.90942
1.87909
1.82648
1.7544
1.66608
1.56559
1.45661
1.3427
1.22628
1.10922
0.990609
0.866957
0.731258
0.574695
0.389994
5.53028
4.83615
4.16307
3.44714
2.73802
2.10342
1.49508
0.919865
0.449653
0.0778605
-0.210224
-0.401125
-0.494157
-0.504608
-0.437641
-0.311901
-0.173018
-0.061965
0.0452564
0.139047
0.213196
0.26874
0.309438
0.344332
0.362715
0.385134
0.405702
0.431582
0.465308
0.509009
0.564432
0.633254
0.715996
0.81195
0.919559
1.03667
1.16031
1.28725
1.4136
1.53547
1.64866
1.7495
1.83443
1.90062
1.94571
1.96871
1.96924
1.94817
1.9068
1.84769
1.77301
1.68612
1.58948
1.48586
1.37615
1.26237
1.14595
1.02725
0.90207
0.763331
0.605362
5.86329
5.13864
4.4352
3.71166
2.99912
2.33748
1.70258
1.12298
0.651809
0.263868
-0.0508769
-0.256041
-0.35894
-0.387798
-0.346812
-0.257575
-0.150973
-0.0270397
0.0816434
0.17276
0.241413
0.293269
0.332449
0.365184
0.388991
0.412231
0.435543
0.463474
0.497969
0.540222
0.592703
0.656995
0.733808
0.82232
0.921557
1.02922
1.14301
1.25972
1.37598
1.48817
1.59247
1.68564
1.7641
1.82552
1.86727
1.88865
1.88872
1.86858
1.82873
1.77174
1.69957
1.61568
1.52325
1.4251
1.32318
1.22129
1.12035
1.01486
0.901204
0.777223
0.636499
6.25886
5.50053
4.76637
4.03318
3.31361
2.62976
1.97958
1.38732
0.886339
0.46756
0.140129
-0.0700766
-0.1936
-0.245648
-0.211925
-0.120586
-0.00813019
0.107363
0.21054
0.289199
0.345484
0.387455
0.418754
0.444722
0.463791
0.481639
0.499081
0.52147
0.54914
0.583315
0.626707
0.681488
0.747958
0.825578
0.913182
1.00917
1.11065
1.21533
1.31964
1.42088
1.51498
1.59974
1.67109
1.72785
1.76673
1.78799
1.78995
1.77469
1.74181
1.6944
1.63383
1.56366
1.48676
1.40617
1.32463
1.24
1.15158
1.0598
0.960043
0.846968
0.714689
6.71034
5.93327
5.1751
4.42968
3.70161
3.00687
2.34993
1.74942
1.22273
0.777537
0.426988
0.18426
0.0279433
-0.0350586
-0.00395685
0.0739395
0.17505
0.279434
0.370202
0.43711
0.473724
0.50063
0.518244
0.53534
0.545193
0.555885
0.565051
0.580428
0.600765
0.624806
0.658883
0.703121
0.75933
0.82563
0.902092
0.985721
1.07544
1.16778
1.26043
1.35079
1.43508
1.51155
1.576
1.6283
1.66415
1.68524
1.68889
1.67829
1.65187
1.61367
1.56372
1.50619
1.44248
1.37458
1.30504
1.23508
1.16284
1.08766
1.00461
0.908384
0.791762
7.20461
6.42564
5.65931
4.91221
4.18014
3.48777
2.83411
2.24139
1.70802
1.25083
0.881216
0.610252
0.411302
0.320504
0.315693
0.35824
0.446972
0.51832
0.578217
0.626188
0.633016
0.634631
0.629852
0.637548
0.633768
0.637203
0.633168
0.641987
0.654784
0.665729
0.688804
0.723631
0.771768
0.827734
0.893327
0.96677
1.04488
1.12656
1.20882
1.2909
1.36602
1.43613
1.49368
1.54299
1.57495
1.59627
1.60018
1.59389
1.57168
1.54087
1.49786
1.44974
1.39734
1.3404
1.28304
1.22595
1.1678
1.10885
1.04227
0.964413
0.864748
7.73307
6.97343
6.20322
5.46112
4.73152
4.06043
3.42366
2.87656
2.35182
1.91246
1.55763
1.30318
1.02804
0.904862
0.867827
0.839841
0.889663
0.809811
0.808356
0.88048
0.816544
0.792874
0.741798
0.770276
0.728388
0.738406
0.695479
0.703746
0.722348
0.709956
0.709662
0.744035
0.790946
0.83265
0.890361
0.954557
1.0211
1.09612
1.16991
1.25296
1.31314
1.38828
1.42881
1.48746
1.5044
1.53544
1.52488
1.53667
1.50519
1.4887
1.44054
1.39463
1.35412
1.30737
1.26296
1.21704
1.16952
1.12919
1.07525
1.02252
0.933335
4.90479
-4.55164
-5.86476
14.8497
5.77918
19.4078
17.9933
10.8111
11.5473
29.1353
1.67506
23.7375
18.1037
2.60836
21.7049
-102.388
20.5682
12.1534
1.48963
17.4329
15.0827
3.0035
0.856084
20.1422
11.4531
17.1706
17.4968
9.49155
20.3175
6.86602
10.4728
16.648
28.4696
1.51588
23.0209
0.899963
0.77547
57.3757
18.6495
17.4917
7.81206
-2.88278
18.0393
-88.3708
0.163727
31.6365
11.6318
3.03324
16.1836
25.3784
-3.83869
-45.9695
17.055
9.54384
13.9596
16.1801
6.97326
7.62171
0.948732
-31.5076
3.91006
15.5149
17.0908
-8.18894
-25.9104
14.8911
0.832633
8.74509
18.8811
18.0965
15.3761
59.5892
6.6458
13.464
13.3732
6.34763
-12.7811
44.4669
17.1034
28.1269
-0.762702
16.4781
16.7025
-36.691
17.9877
50.2993
12.018
1.65889
15.3447
1.59632
-13.9101
17.0887
5.14246
-31.9548
-37.2184
5.64495
44.217
9.99042
25.5041
-101.696
14.5218
16.1401
25.1306
16.9669
18.0938
16.9431
15.2036
39.6935
19.7667
-78.145
-109.312
15.9422
0.298111
1.29307
5.92072
2.05269
1.09967
19.5373
-7.70053
11.3378
12.9593
-0.075651
11.3145
-118.049
-26.8336
10.6084
15.3214
-47.2482
-35.0113
17.8443
21.3077
-8.02317
5.78826
11.0022
2.5266
10.7929
17.9971
-53.3312
-31.0317
11.6806
9.5984
-53.0645
14.9031
49.0456
1.40648
12.5178
16.6234
1.43669
31.7932
-0.881921
16.2343
16.2081
59.1699
-33.6149
-59.4021
8.89658
8.29731
-27.9505
16.5426
0.741328
16.6428
26.4211
17.3657
12.5304
14.9305
13.1089
6.96054
9.76804
17.1099
0.0762997
-2.03562
1.64726
5.84392
17.4403
1.19224
1.26065
1.21112
8.87684
22.4293
2.13197
1.93757
-1.32762
-31.1953
9.74861
6.47268
0.584372
-10.5221
52.1395
9.85506
11.9336
25.4982
20.2444
-17.1197
-39.3319
16.5437
-31.7669
4.32784
0.297695
21.3347
0.809356
9.87593
14.9998
13.5318
-58.9539
-1.94299
20.8639
8.49711
16.0931
-45.6844
0.909915
41.2888
-5.8861
16.3459
-117.566
11.1262
-77.7767
-65.4947
1.72719
33.3348
1.73464
11.4052
40.1586
12.0109
16.681
1.09955
-7.73222
-9.2921
11.757
17.026
59.7874
1.23453
21.4667
-5.38607
-37.7611
13.6442
19.2823
3.15046
-57.3631
-46.7787
19.3126
13.3605
8.73711
10.9904
15.9543
-123.783
16.7525
8.43344
-98.7627
23.9427
17.2259
8.84526
23.7787
1.35739
8.46612
11.3706
18.6496
25.4059
15.2996
6.65034
2.00808
15.6663
9.48569
-64.8083
18.5666
0.711166
12.8293
17.5378
0.926605
17.5609
1.1025
24.101
1.07055
22.8163
11.4168
52.8975
9.96652
14.306
10.783
15.9899
20.7205
50.3229
9.80902
-72.1019
15.3148
14.8974
18.6186
16.9996
-61.8566
7.98691
7.92554
-26.2373
40.5229
14.4422
16.9329
35.1525
17.4069
9.54437
4.96873
-1.00088
16.3538
10.9852
5.48848
48.5812
-3.79899
5.54235
-79.044
21.8314
18.6417
19.3929
-100.749
9.78283
11.9562
11.5035
-12.5783
16.4704
14.2429
0.591327
1.40083
7.0449
1.97071
16.4379
3.62341
15.3422
15.0041
-26.9573
1.90584
15.5357
1.04281
-90.6739
6.51918
-27.2686
-44.6495
-101.478
2.19023
1.51243
16.8449
0.49936
0.68144
-124.305
35.0956
15.0427
14.7978
12.0105
11.6315
49.7794
11.2938
-9.37976
18.7711
-70.9148
14.9748
1.28779
-45.5787
-113.991
10.7442
-61.9764
8.68896
2.73753
14.4763
1.61949
2.42
10.2786
0.240116
1.0529
-6.6853
0.860748
16.049
6.79642
-114.105
-34.0763
3.93728
16.6016
-26.2914
-49.791
12.6709
1.58928
15.7376
-5.98062
7.31826
1.51002
-73.957
0.702961
-79.9751
20.2683
-89.4147
11.2595
4.87169
20.9573
1.26595
-117.595
-27.7272
47.4339
50.2061
3.26787
0.859196
17.1927
30.2874
16.7334
-0.54346
12.0636
-10.2298
17.2606
18.8176
21.9915
21.539
-7.6883
-46.8741
12.08
-83.1355
0.282371
-11.4295
2.08155
-62.0948
-2.18468
18.7787
-124.384
9.68184
9.42589
23.2946
-53.0537
17.0279
18.1904
1.5627
17.7598
10.0342
14.3635
1.09343
35.9448
-26.2146
-51.778
9.67521
-61.2335
9.23456
-54.519
16.8261
15.6879
0.998093
4.02326
-93.5784
-1.94067
1.52896
-10.8616
-62.2322
-59.8297
18.4013
5.92042
-41.6327
-50.2257
17.0575
2.55037
-32.1823
22.8553
13.0389
36.4718
-40.0582
-0.303801
-9.67688
0.367369
9.11372
-90.2393
2.32259
10.5177
19.872
47.0813
3.98965
44.0844
2.07594
17.4264
1.64942
1.43878
13.7612
12.3912
0.00573959
1.44129
16.7915
2.38085
1.43218
2.6452
1.3877
2.13558
1.41599
8.31812
4.81589
15.7983
15.6709
-111.128
10.136
-68.0476
-107.147
16.19
0.332779
2.28315
19.1197
3.99043
1.28995
16.3354
17.0597
15.1943
5.34741
-37.6466
10.6003
26.5882
13.6515
13.9912
15.5546
5.50962
0.807098
13.5112
19.2283
9.60891
1.42629
13.9179
13.5919
-12.7526
12.8039
-0.526993
-3.38987
-4.26451
17.1455
20.0042
9.44666
22.5786
3.5012
2.82161
48.7464
-22.1688
-5.58464
21.9652
8.33312
1.26132
1.47663
-80.3765
-27.5138
20.9706
3.18694
10.3865
0.877769
-21.1561
18.6745
12.0752
-27.396
-82.6906
12.7276
-17.9181
-54.2612
4.63133
-105.612
9.35129
9.51217
9.14151
-32.3881
13.9188
-81.0526
-2.54277
13.072
1.01722
17.2442
-0.305525
14.9526
12.836
31.7758
2.99388
0.979524
14.8672
7.18381
0.81168
-46.787
-30.7678
8.08789
-34.3235
4.78368
28.6906
1.42169
9.47156
-95.7859
9.96635
8.56
14.4351
1.40716
52.1768
1.79682
8.24311
8.57537
1.38556
1.28756
13.6484
15.6537
15.9687
9.56389
10.2655
29.2904
-76.3939
8.34114
17.8336
-32.1641
0.46336
-87.2791
13.7011
0.817414
17.7091
-55.373
4.29982
-21.0881
0.987237
0.893232
2.9397
-106.253
20.5634
17.3042
6.59137
16.065
-27.0489
-22.4538
-6.41738
10.0761
9.11795
5.02305
16.2642
-0.246497
0.790665
16.2064
23.2834
1.37728
-58.5011
20.9419
1.66353
20.533
-8.35419
17.2544
36.3929
6.77067
29.5498
18.5081
-30.195
-21.6572
-4.80729
19.0709
10.6539
-32.5272
16.076
12.5484
4.59388
5.61885
0.828946
-31.0551
40.5696
4.31366
2.17838
1.10966
-89.7647
9.59665
23.403
15.7099
1.1189
5.6215
-23.1644
14.4749
12.4
6.17745
1.10557
-7.13533
15.2362
2.13529
10.9947
-21.1213
1.26241
39.1081
1.01787
0.14141
8.35855
57.3319
17.1132
16.7082
1.19104
10.2581
7.1417
8.89444
10.1516
-116.1
2.58006
-34.9955
30.5805
17.6339
8.52174
19.3451
-6.24841
-10.919
1.21457
3.96462
1.43116
12.9175
-2.60371
18.5693
-88.7735
16.7584
6.75697
2.2065
-3.48147
2.98586
-7.29985
10.659
3.42534
0.591235
19.2528
-121.085
15.4044
17.0916
10.8575
-4.47488
18.9052
3.86777
-21.4027
15.6537
-14.1949
-97.719
17.4959
8.94964
14.5745
-63.3675
-6.50473
15.8107
42.8325
12.6151
9.10203
11.6398
-111.238
-126.348
16.6171
-1.55037
-11.9623
1.39036
17.7981
6.93198
-11.464
13.8236
15.3676
-0.117278
18.5423
19.6105
8.58104
14.8927
-3.03764
13.408
-5.58768
23.2522
1.72462
-4.44996
42.7315
1.17979
6.76876
21.9316
4.23209
-45.4039
24.5912
-83.9393
20.903
1.38476
-19.7476
10.1806
-9.98539
0.830483
12.9477
13.2088
-93.7663
-40.1431
13.5296
-65.2672
-9.25075
53.6778
-16.4069
-20.3934
21.45
0.812216
5.99663
11.9191
-55.7109
-23.0817
-4.722
-4.47418
-6.65128
1.07209
22.6438
19.1779
13.3847
-121.868
-44.608
27.5275
2.38691
-112.338
11.2072
14.4529
10.3519
1.18087
4.79744
1.2441
-15.1916
21.4585
-121.46
-17.3377
-85.99
-98.632
18.8513
25.3945
-43.7562
26.2752
14.5742
12.2905
11.1383
10.4249
26.0902
17.9355
2.38705
-51.7246
-30.398
24.6736
2.23765
3.53921
13.833
1.51616
12.9294
-53.6721
1.22737
49.2396
5.6046
22.3001
11.6338
18.6057
15.7126
-76.974
13.2412
44.7811
0.993374
0.796453
32.2798
61.1865
12.7193
13.2667
25.0922
-50.7739
-15.849
17.2913
10.1026
-91.7194
27.4812
17.4151
-63.2814
15.7501
3.73199
1.41837
6.27944
-16.3571
53.8164
0.776201
-8.76319
-0.553134
17.8246
0.15337
9.59229
14.8814
17.2923
12.2916
0.996843
17.335
0.682544
30.2745
0.1165
11.4533
10.385
16.6597
8.46235
-50.0426
9.79658
18.1301
-29.7565
-70.9821
34.1093
1.53598
7.53833
16.7077
34.3733
-84.8417
9.55685
-3.11422
11.2209
16.341
-88.4611
17.1958
9.81671
50.0303
29.8901
-19.6153
4.39873
15.8565
17.1355
-66.8734
-4.69422
10.1848
14.9077
1.29161
17.5073
-128.025
7.52378
0.942788
10.5903
18.7617
-0.202145
14.7384
23.0259
24.9802
4.64713
-0.876474
17.7547
20.7014
17.4806
20.3916
10.8331
18.2004
-70.6157
2.52848
18.1189
-25.7685
14.1264
7.35341
19.6671
11.6654
-62.33
10.8581
5.10149
18.8841
-20.8803
16.7104
-24.8521
-104.36
1.7801
1.10001
-47.8073
16.1762
18.4234
-21.4967
-104.859
1.34345
-14.2817
15.9149
-82.841
13.4141
16.5986
18.2478
-18.6506
7.10839
9.6211
-28.9228
17.5374
8.68006
-85.107
10.5162
-119.541
47.1862
11.6928
18.2456
6.40789
16.7977
-9.19787
-6.402
20.1367
-18.6307
5.78145
12.8842
-38.2525
4.70791
17.5828
-49.4511
14.8997
1.87924
-67.6092
-14.2258
17.2126
19.3464
14.7859
62.2207
8.67703
-2.3805
-23.9444
15.6348
-11.826
15.4853
5.38527
15.515
0.859189
9.93823
0.786801
-14.0214
58.9778
7.38453
59.3436
6.71758
12.8867
4.09076
20.0942
-9.45963
17.8203
11.1607
1.38478
59.8613
16.8524
9.1943
-8.54056
0.697919
-109.108
15.873
-5.67249
10.6194
-22.0031
-62.0376
1.06721
-73.6327
9.59224
2.81427
-25.9359
18.3629
15.7766
14.2138
12.4056
21.4367
16.2158
12.8616
17.6603
1.26371
-68.5058
17.6261
20.2796
17.6755
7.99755
-73.2077
1.4126
-24.6865
15.7296
-43.5625
0.932067
25.0919
-67.5296
17.0364
0.817152
40.2017
1.44492
22.8901
4.1887
1.65501
15.9766
10.5186
-107.594
13.7874
-1.43518
-39.3005
1.3637
15.923
11.0565
30.9568
2.78583
1.13411
-79.3775
15.9091
16.4916
17.0261
-20.1202
-36.0309
14.0259
12.8186
15.142
1.34969
1.59284
49.3389
0.338104
-65.84
2.20954
-59.1919
0.405767
0.811884
32.3903
51.0011
13.0797
60.1414
45.4943
18.369
17.6009
6.30346
14.5347
18.5787
2.33594
2.00972
19.7091
1.79244
10.3139
19.1993
9.07948
18.5334
28.8264
1.49927
-5.58509
-121.06
17.8612
12.1696
-50.776
7.71567
22.501
14.0662
11.0212
2.15752
17.3851
-2.24192
1.89434
30.4176
12.8426
0.659044
16.7937
17.4669
15.6232
5.78655
15.5439
17.0277
-3.59672
18.5367
20.6485
-76.7303
-29.041
-18.6852
14.7661
1.3941
-50.8371
17.099
1.50445
1.21087
-126.292
0.822025
16.7228
8.72462
31.5087
-1.12708
1.25305
9.26723
46.4257
1.59046
16.1268
1.12846
16.6353
53.9471
14.2332
-21.1933
16.8121
1.0086
-69.6958
15.7181
42.3782
4.14129
13.0906
18.7676
29.5167
10.9971
19.7504
1.99795
16.1421
10.6666
-123.443
4.48596
18.6691
20.0055
-65.2145
-82.589
16.7544
18.1768
12.5735
11.462
-59.6709
24.6766
-58.975
17.8596
11.3411
17.3187
-12.1104
5.89501
17.5117
0.53458
1.3919
-89.6025
-62.4732
8.25169
-2.91068
-74.8605
18.2837
18.4302
18.4749
7.51194
18.9624
2.29095
18.2441
9.5897
-1.95904
-25.2712
2.41149
12.7679
1.3045
36.4189
16.72
19.6561
-104.342
15.606
15.557
20.1274
12.495
-73.8579
-7.13824
1.64504
17.2289
17.0493
17.7251
-4.34816
20.2799
-17.974
8.40345
8.31082
13.5944
9.55773
15.6115
11.075
10.6821
9.79243
-1.71208
-10.5549
2.77451
-87.0168
11.9147
16.8039
0.943798
-91.5206
41.3116
2.835
23.767
16.0192
13.1467
11.8854
16.6435
60.8403
-8.3049
0.85843
-95.023
16.869
27.9401
-37.2549
3.69238
-51.8948
1.30667
31.0202
1.34645
16.6917
-23.063
-13.3334
-38.257
-8.61835
17.8338
1.44283
7.77364
22.5131
13.3231
19.5406
8.8655
56.7795
20.5152
16.6366
43.9666
10.8218
15.6476
18.4727
20.4002
-10.6761
1.31526
9.80478
11.752
-16.6858
13.9399
9.47697
15.1304
-3.38682
-68.3913