/*--------------------------------*- C++ -*----------------------------------*\
| =========                 |                                                 |
| \\      /  F ield         | OpenFOAM: The Open Source CFD Toolbox           |
|  \\    /   O peration     | Version:  2.3.1                                 |
|   \\  /    A nd           | Web:      www.OpenFOAM.org                      |
|    \\/     M anipulation  |                                                 |
\*---------------------------------------------------------------------------*/
FoamFile
{
    version     2.0;
    format      ascii;
    class       volVectorField;
    location    "0.67";
    object      U;
}
// * * * * * * * * * * * * * * * * * * * * * * * * * * * * * * * * * * * * * //

dimensions      [0 1 -1 0 0 0 0];

internalField   nonuniform List<vector> 
9648
(
(0.167208 -4.74109 4.62749e-23)
(0.282937 -4.72109 -1.25513e-22)
(0.399621 -4.68911 0)
(0.519414 -4.66266 0)
(0.640178 -4.64052 1.07765e-20)
(0.762301 -4.62479 1.67676e-20)
(0.88843 -4.61944 -2.91876e-20)
(1.02077 -4.62644 -1.33317e-20)
(1.16037 -4.64702 1.32973e-20)
(1.30784 -4.68316 3.99268e-20)
(1.46528 -4.7364 -3.97555e-20)
(1.63456 -4.80766 -5.68651e-20)
(1.81763 -4.89748 3.01968e-19)
(2.01651 -5.00571 7.77864e-20)
(2.23287 -5.13149 -7.29362e-19)
(2.46791 -5.2735 0)
(2.72279 -5.43001 0)
(2.99833 -5.59893 1.31831e-19)
(3.29521 -5.77765 4.24536e-19)
(3.61349 -5.96339 -1.22055e-18)
(3.95318 -6.15353 -2.11473e-20)
(4.31415 -6.34502 3.35936e-19)
(4.69565 -6.53499 3.96651e-19)
(5.09699 -6.72067 -1.80119e-18)
(5.51723 -6.89938 0)
(5.95536 -7.06852 1.07722e-18)
(6.41006 -7.22562 -1.12918e-18)
(6.87997 -7.36864 0)
(7.36365 -7.49539 0)
(7.85948 -7.60423 -6.84724e-19)
(8.36598 -7.69349 -1.51415e-18)
(8.88134 -7.76171 2.37714e-18)
(9.40396 -7.80779 0)
(9.93209 -7.83052 0)
(10.4639 -7.82921 1.82008e-18)
(10.9977 -7.80303 -1.95829e-18)
(11.5317 -7.75155 0)
(12.0643 -7.6745 4.20339e-18)
(12.5937 -7.57149 1.13358e-18)
(13.1181 -7.44239 -3.35593e-18)
(13.6357 -7.28723 6.32063e-20)
(14.145 -7.10651 2.38735e-18)
(14.6445 -6.9001 -3.17109e-18)
(15.132 -6.66855 6.37862e-19)
(15.6068 -6.4126 0)
(16.0672 -6.13241 0)
(16.5116 -5.82868 4.81098e-18)
(16.9389 -5.50219 7.04088e-19)
(17.3484 -5.15387 -2.1757e-18)
(17.7394 -4.78372 -7.32377e-19)
(18.1097 -4.39239 -7.6173e-19)
(18.4576 -3.98224 7.57e-19)
(18.783 -3.55498 3.91055e-19)
(19.0848 -3.11138 -3.88939e-19)
(19.3619 -2.65316 1.98528e-18)
(19.614 -2.18139 -1.95483e-18)
(19.8401 -1.69753 -2.17222e-20)
(20.0398 -1.20281 0)
(20.2126 -0.69866 -3.97079e-19)
(20.358 -0.186773 -5.13523e-20)
(20.4761 0.33165 -4.86887e-20)
(-0.0543024 -2.45544 7.58681e-23)
(0.0072897 -2.45547 0)
(0.0730821 -2.46915 0)
(0.146063 -2.49795 6.59938e-21)
(0.224502 -2.54686 -6.66685e-21)
(0.312495 -2.61957 -3.93961e-20)
(0.41154 -2.7138 0)
(0.523386 -2.82787 0)
(0.649545 -2.96236 -4.56233e-20)
(0.790588 -3.117 0)
(0.947844 -3.29065 -1.08112e-19)
(1.12214 -3.48171 8.49113e-20)
(1.31439 -3.68885 -4.58231e-20)
(1.52556 -3.91035 0)
(1.7564 -4.14424 2.83628e-19)
(2.00722 -4.38841 1.6758e-19)
(2.27835 -4.64062 -1.64858e-19)
(2.56994 -4.89863 2.13623e-19)
(2.88215 -5.15993 -6.50468e-19)
(3.21477 -5.42206 5.17084e-19)
(3.56746 -5.6827 -5.72028e-19)
(3.93996 -5.93931 -3.08048e-19)
(4.33146 -6.18958 -3.15823e-19)
(4.7412 -6.4312 1.08455e-18)
(5.16827 -6.66196 3.75417e-19)
(5.61174 -6.87973 4.45841e-19)
(6.07047 -7.0825 -3.9538e-19)
(6.54318 -7.26854 0)
(7.02865 -7.43608 0)
(7.52536 -7.58375 0)
(8.03196 -7.71011 0)
(8.54685 -7.81398 0)
(9.0685 -7.89435 0)
(9.59542 -7.95025 0)
(10.1258 -7.98108 -8.15627e-19)
(10.6582 -7.98609 7.4084e-19)
(11.1908 -7.965 8.16893e-19)
(11.7221 -7.91751 -4.14976e-18)
(12.2505 -7.84328 -8.80651e-19)
(12.7743 -7.74229 2.70833e-18)
(13.2918 -7.61463 1.90033e-18)
(13.8013 -7.46074 -1.96118e-18)
(14.3015 -7.2805 9.36692e-19)
(14.7905 -7.07459 9.88415e-19)
(15.2671 -6.84367 -1.05059e-18)
(15.7298 -6.58795 1.0413e-18)
(16.177 -6.30828 -2.23206e-18)
(16.6076 -6.00551 0)
(17.0201 -5.68055 -5.70198e-19)
(17.4138 -5.33357 1.14584e-18)
(17.788 -4.96525 -5.75801e-19)
(18.1415 -4.57746 0)
(18.473 -4.17158 1.18356e-18)
(18.7817 -3.74841 0)
(19.0667 -3.30943 0)
(19.3271 -2.85581 2.80568e-18)
(19.5622 -2.38885 -1.26454e-18)
(19.7714 -1.91017 -3.07639e-19)
(19.9544 -1.42065 3.24724e-19)
(20.1105 -0.922018 0)
(20.2393 -0.415519 8.16602e-20)
(0.05407 -1.39805 -2.17675e-22)
(0.106797 -1.43997 0)
(0.166875 -1.50387 -6.79382e-22)
(0.236015 -1.59075 -3.05635e-22)
(0.313802 -1.69773 0)
(0.403281 -1.82354 3.40185e-20)
(0.505401 -1.9699 2.25261e-20)
(0.621514 -2.13567 0)
(0.753322 -2.32028 2.27887e-21)
(0.902449 -2.52217 4.6442e-20)
(1.06986 -2.74018 9.20356e-20)
(1.25618 -2.97236 -3.18518e-20)
(1.46199 -3.21688 0)
(1.68763 -3.47167 0)
(1.9334 -3.73462 2.15397e-19)
(2.19923 -4.00363 -1.36597e-19)
(2.4851 -4.27646 -1.46251e-19)
(2.79083 -4.55095 0)
(3.1162 -4.82485 5.61917e-19)
(3.46085 -5.09598 -5.83003e-19)
(3.82433 -5.36227 -4.35392e-19)
(4.20608 -5.62163 -4.79091e-19)
(4.60533 -5.87203 0)
(5.02119 -6.11149 -8.57754e-19)
(5.45274 -6.33811 -3.01485e-19)
(5.89899 -6.55005 3.5797e-19)
(6.35884 -6.7456 3.95217e-19)
(6.83111 -6.92324 0)
(7.31453 -7.08155 0)
(7.80773 -7.21927 0)
(8.30931 -7.33523 0)
(8.81778 -7.42842 0)
(9.33172 -7.49794 0)
(9.84959 -7.54307 0)
(10.3698 -7.56325 -1.78691e-18)
(10.8908 -7.55796 5.93624e-19)
(11.4111 -7.52694 -6.54712e-19)
(11.9291 -7.46996 3.29506e-18)
(12.4433 -7.38685 0)
(12.952 -7.27769 1.40175e-18)
(13.4537 -7.14267 1.44973e-18)
(13.9468 -6.98208 7.18267e-19)
(14.4299 -6.79607 -8.22808e-19)
(14.9014 -6.58519 -1.58485e-18)
(15.3601 -6.34998 2.4694e-18)
(15.8046 -6.09095 -8.35375e-19)
(16.2335 -5.8089 -1.70408e-18)
(16.6456 -5.50461 0)
(17.0398 -5.17912 0)
(17.4149 -4.83339 -4.65233e-19)
(17.77 -4.46853 -4.5489e-19)
(18.1042 -4.08545 -9.30487e-19)
(18.4167 -3.68523 -9.74059e-19)
(18.7065 -3.26929 0)
(18.9729 -2.83844 -9.63492e-19)
(19.2152 -2.39441 -1.00417e-18)
(19.4328 -1.93794 0)
(19.6249 -1.47121 1.63075e-20)
(19.791 -0.994545 0)
(19.931 -0.509703 0)
(20.0446 -0.0177048 -6.22231e-20)
(0.0234265 -0.896656 4.80405e-22)
(0.0818824 -0.977302 -5.53389e-22)
(0.152132 -1.07842 -4.1605e-22)
(0.234734 -1.1989 -2.17456e-21)
(0.329381 -1.33762 0)
(0.435938 -1.49426 -1.42141e-20)
(0.555731 -1.66887 -1.94231e-20)
(0.690009 -1.8608 0)
(0.840203 -2.06909 3.07603e-21)
(1.00722 -2.29251 -3.96357e-20)
(1.19196 -2.52954 8.86118e-20)
(1.39481 -2.77847 1.06514e-19)
(1.61614 -3.03728 0)
(1.85619 -3.30393 -8.30835e-20)
(2.1152 -3.57641 -1.75981e-19)
(2.39291 -3.85271 -9.36133e-20)
(2.68921 -4.13074 3.59347e-19)
(3.00387 -4.40843 -2.59339e-19)
(3.33653 -4.68375 2.90361e-19)
(3.68688 -4.95467 4.9391e-19)
(4.05449 -5.21941 7.14235e-19)
(4.43866 -5.47614 4.02434e-19)
(4.83876 -5.72301 1.93577e-19)
(5.25383 -5.95834 7.02673e-19)
(5.68304 -6.18032 2.30739e-19)
(6.12542 -6.38734 2.62343e-19)
(6.57995 -6.57785 3.09276e-19)
(7.04564 -6.75046 -9.25573e-19)
(7.52125 -6.90396 6.64201e-19)
(8.00548 -7.03717 7.50142e-19)
(8.49711 -7.14905 -1.53339e-18)
(8.99468 -7.23869 7.82911e-19)
(9.49686 -7.30524 -8.38501e-19)
(10.0023 -7.34805 4.17933e-19)
(10.5095 -7.36665 4.58034e-19)
(11.017 -7.36057 5.08176e-19)
(11.5234 -7.32952 -5.01798e-19)
(12.0272 -7.27335 -5.46756e-19)
(12.5269 -7.19195 -1.63878e-18)
(13.0211 -7.0854 -1.18225e-18)
(13.5082 -6.95393 -2.39682e-18)
(13.9868 -6.79775 -3.105e-18)
(14.4554 -6.61715 1.27305e-18)
(14.9127 -6.41252 2.87845e-20)
(15.3574 -6.18442 -7.12953e-19)
(15.7881 -5.93339 -6.99404e-19)
(16.2036 -5.66008 4.2289e-18)
(16.6029 -5.3653 -7.08879e-19)
(16.9847 -5.04982 0)
(17.3482 -4.71458 0)
(17.6923 -4.3606 -7.12129e-19)
(18.016 -3.98906 3.18129e-20)
(18.3188 -3.60097 7.64256e-19)
(18.5996 -3.19745 0)
(18.8578 -2.7798 8.14092e-19)
(19.0926 -2.34933 0)
(19.3032 -1.90721 0)
(19.4894 -1.45439 6.20578e-19)
(19.6505 -0.992428 1.97388e-19)
(19.7863 -0.522786 -2.01168e-19)
(19.8964 -0.0469361 1.02953e-19)
(0.110744 -0.651593 4.17198e-23)
(0.172146 -0.754214 4.83582e-22)
(0.247612 -0.874603 -3.75371e-22)
(0.337683 -1.01288 1.37542e-21)
(0.441821 -1.16871 -3.5484e-21)
(0.560396 -1.34161 5.77487e-21)
(0.693882 -1.53113 2.34519e-21)
(0.842952 -1.73627 -1.44362e-20)
(1.00868 -1.95606 4.14282e-20)
(1.19128 -2.18916 -5.95968e-20)
(1.3914 -2.43399 6.66979e-20)
(1.6089 -2.68881 -8.24108e-20)
(1.84408 -2.95157 -4.73468e-20)
(2.09679 -3.22029 0)
(2.36737 -3.49295 8.58559e-20)
(2.65527 -3.76785 8.23786e-20)
(2.9603 -4.04294 0)
(3.28224 -4.31629 2.03189e-19)
(3.62054 -4.58602 0)
(3.97503 -4.85019 -2.68369e-19)
(4.34535 -5.10727 2.92607e-19)
(4.73066 -5.35569 1.01249e-20)
(5.13044 -5.59373 -1.70001e-20)
(5.54364 -5.81995 2.88831e-20)
(5.96947 -6.03261 -8.20274e-19)
(6.40709 -6.23021 -4.70481e-19)
(6.85546 -6.41137 9.68327e-19)
(7.31381 -6.57474 1.05017e-18)
(7.78092 -6.71937 -5.68353e-19)
(8.25557 -6.84411 0)
(8.73665 -6.94802 0)
(9.22271 -7.03032 0)
(9.71257 -7.0901 7.18845e-19)
(10.205 -7.12681 -2.96854e-18)
(10.6986 -7.14012 1.55338e-18)
(11.1919 -7.12954 -7.89983e-19)
(11.6837 -7.09474 -1.70392e-18)
(12.1725 -7.03574 1.72853e-18)
(12.657 -6.95238 3.97734e-20)
(13.1358 -6.84477 -9.75901e-19)
(13.6075 -6.71321 1.0083e-18)
(14.0705 -6.55788 1.04262e-18)
(14.5236 -6.37906 0)
(14.9654 -6.17707 -1.0589e-18)
(15.3948 -5.95248 0)
(15.8104 -5.70582 -1.69198e-18)
(16.2111 -5.43774 5.23098e-19)
(16.5958 -5.14897 0)
(16.9635 -4.84019 -6.13844e-19)
(17.3132 -4.51244 -1.46855e-20)
(17.6441 -4.16653 1.30807e-18)
(17.9552 -3.80364 -6.21673e-19)
(18.2459 -3.42484 -3.45792e-19)
(18.5154 -3.03125 6.33307e-19)
(18.7628 -2.62422 -4.8331e-21)
(18.9874 -2.20474 3.30362e-19)
(19.1885 -1.7741 1.59609e-19)
(19.3657 -1.33325 3.36931e-19)
(19.5187 -0.883399 -8.46573e-19)
(19.6471 -0.426056 3.40079e-19)
(19.7506 0.0372237 -4.35234e-20)
(0.190795 -0.524302 -2.57317e-22)
(0.266288 -0.642441 0)
(0.35675 -0.776849 1.02725e-21)
(0.46267 -0.92797 0)
(0.582908 -1.09547 1.10553e-21)
(0.718235 -1.27865 8.44886e-21)
(0.868762 -1.47698 9.17882e-21)
(1.03492 -1.6892 2.77776e-20)
(1.21773 -1.9143 3.71793e-21)
(1.41673 -2.15103 5.72456e-21)
(1.6327 -2.39772 1.13798e-21)
(1.86479 -2.65281 -3.13949e-20)
(2.11348 -2.9142 4.5753e-20)
(2.37793 -3.17989 -1.39312e-19)
(2.65923 -3.44791 1.18047e-19)
(2.95632 -3.71713 -8.36713e-21)
(3.26879 -3.98524 -1.45815e-19)
(3.5968 -4.25053 -1.75301e-19)
(3.93932 -4.51133 0)
(4.29648 -4.7656 2.08191e-19)
(4.66819 -5.01216 8.23724e-21)
(5.05314 -5.24975 -5.385e-19)
(5.45136 -5.47664 -2.29784e-20)
(5.86133 -5.69184 -2.91578e-19)
(6.28238 -5.89342 1.02814e-18)
(6.71384 -6.08004 3.49765e-20)
(7.15457 -6.25045 -3.82136e-19)
(7.60425 -6.40324 -4.07035e-20)
(8.06153 -6.5379 0)
(8.52519 -6.65324 0)
(8.99451 -6.74829 0)
(9.46774 -6.82262 0)
(9.94386 -6.87508 0)
(10.4221 -6.90517 5.67951e-20)
(10.9008 -6.91283 -6.65056e-19)
(11.3785 -6.89756 -3.86523e-20)
(11.8545 -6.85879 2.89453e-20)
(12.3271 -6.79688 6.86524e-19)
(12.795 -6.71154 1.56925e-18)
(13.2573 -6.60288 -2.36719e-18)
(13.7124 -6.47145 1.64792e-18)
(14.1589 -6.31728 -8.31774e-19)
(14.5953 -6.14074 0)
(15.0206 -5.94185 9.24221e-19)
(15.4337 -5.72131 0)
(15.8332 -5.47967 9.7325e-19)
(16.2182 -5.21738 -9.96076e-19)
(16.5874 -4.93547 4.67953e-19)
(16.94 -4.63422 4.99971e-19)
(17.2752 -4.3147 -5.21827e-19)
(17.5921 -3.97773 3.73811e-20)
(17.8899 -3.62456 -1.0636e-20)
(18.1679 -3.25594 1.06213e-18)
(18.4255 -2.87328 -1.09338e-18)
(18.6619 -2.4778 -5.39584e-19)
(18.876 -2.07081 -2.64242e-19)
(19.0672 -1.65308 -8.408e-19)
(19.2352 -1.22546 0)
(19.3799 -0.789069 5.68232e-19)
(19.501 -0.345734 -1.45916e-19)
(19.5981 0.103273 0)
(0.291855 -0.465957 0)
(0.382453 -0.595144 0)
(0.48911 -0.74006 -6.68484e-22)
(0.612993 -0.900942 -2.76416e-22)
(0.750923 -1.07705 -2.47576e-21)
(0.9047 -1.26717 -1.3316e-20)
(1.07355 -1.47077 6.72283e-21)
(1.25726 -1.68629 -2.00059e-20)
(1.45809 -1.91297 -1.25892e-21)
(1.67337 -2.14963 5.00825e-20)
(1.90557 -2.39459 -9.08816e-20)
(2.15177 -2.64666 0)
(2.4138 -2.90341 0)
(2.68878 -3.16313 1.5848e-19)
(2.98041 -3.42331 1.00941e-19)
(3.28587 -3.68421 -2.22068e-19)
(3.60463 -3.94291 3.59641e-19)
(3.938 -4.19782 1.49922e-19)
(4.28352 -4.44792 -2.99873e-19)
(4.64206 -4.69039 -1.81271e-19)
(5.0146 -4.92448 2.08203e-19)
(5.39784 -5.14983 -5.10185e-21)
(5.79392 -5.36386 0)
(6.19962 -5.56705 5.35855e-19)
(6.61476 -5.75655 -8.8206e-19)
(7.03933 -5.93108 2.93734e-19)
(7.47098 -6.08998 6.49168e-19)
(7.91114 -6.23106 -1.8054e-18)
(8.35776 -6.35492 3.67683e-19)
(8.80921 -6.46017 0)
(9.26606 -6.54545 0)
(9.72546 -6.61144 0)
(10.1866 -6.65616 5.0399e-19)
(10.6497 -6.67882 1.56031e-18)
(11.1129 -6.68034 -1.05527e-18)
(11.5737 -6.6603 5.82395e-19)
(12.033 -6.61684 6.38277e-19)
(12.4883 -6.55173 -1.26629e-18)
(12.9385 -6.46408 0)
(13.3833 -6.35376 -1.30065e-18)
(13.8208 -6.22227 6.75636e-19)
(14.2498 -6.06901 3.49893e-20)
(14.6683 -5.89486 -3.14126e-20)
(15.076 -5.69882 7.44536e-19)
(15.4719 -5.48222 3.14049e-20)
(15.8541 -5.24586 -2.37836e-18)
(16.2225 -4.98933 8.06044e-19)
(16.5751 -4.71448 -1.67462e-18)
(16.9118 -4.42068 0)
(17.2312 -4.10978 0)
(17.5333 -3.78171 1.76959e-18)
(17.8168 -3.43872 -4.22828e-19)
(18.081 -3.08069 -9.17374e-19)
(18.326 -2.70893 -4.41036e-19)
(18.5506 -2.32553 1.40875e-18)
(18.7536 -1.9315 7.10737e-19)
(18.9343 -1.52713 2.45725e-19)
(19.0921 -1.11359 -4.62755e-21)
(19.2276 -0.690971 -2.46001e-19)
(19.341 -0.261745 0)
(19.4312 0.172232 0)
(0.409837 -0.451014 3.06898e-22)
(0.518675 -0.588192 0)
(0.642609 -0.740661 0)
(0.787076 -0.908998 -2.15561e-22)
(0.943113 -1.09138 0)
(1.11637 -1.28582 5.63864e-21)
(1.30385 -1.49195 6.45659e-21)
(1.50421 -1.70781 -1.32619e-20)
(1.7244 -1.93335 0)
(1.9547 -2.16735 -2.99303e-20)
(2.20425 -2.40814 3.78712e-21)
(2.46304 -2.65526 0)
(2.73927 -2.90549 0)
(3.02187 -3.15767 -6.66773e-20)
(3.32426 -3.40683 7.27239e-20)
(3.63787 -3.65812 -9.07697e-20)
(3.96104 -3.90602 -1.04185e-19)
(4.29978 -4.14891 0)
(4.6469 -4.38794 1.3391e-19)
(5.0053 -4.61729 -2.82494e-19)
(5.37944 -4.83746 -3.16174e-19)
(5.75865 -5.05029 -3.70126e-19)
(6.15288 -5.24989 -3.28323e-20)
(6.55337 -5.44117 -4.69236e-19)
(6.9616 -5.61816 4.50402e-19)
(7.37941 -5.77981 5.01895e-19)
(7.79988 -5.92729 -5.70879e-19)
(8.23019 -6.05527 3.12306e-20)
(8.66581 -6.16798 4.19348e-20)
(9.10312 -6.2632 -6.58455e-19)
(9.54728 -6.33767 0)
(9.9919 -6.39576 -8.00912e-19)
(10.4368 -6.43235 1.58883e-18)
(10.8844 -6.44641 -4.44417e-20)
(11.3316 -6.44203 9.32164e-19)
(11.7732 -6.41843 -9.27492e-19)
(12.2158 -6.36894 1.02235e-18)
(12.6528 -6.30073 1.06643e-18)
(13.0837 -6.21069 -2.10874e-18)
(13.5104 -6.09789 1.15371e-18)
(13.9287 -5.9668 1.13471e-18)
(14.3398 -5.81403 1.79262e-18)
(14.7387 -5.64268 -6.38165e-19)
(15.1279 -5.44835 0)
(15.5057 -5.2358 3.41784e-20)
(15.869 -5.00572 6.93517e-19)
(16.2204 -4.75456 -6.74296e-19)
(16.5547 -4.48814 7.26224e-19)
(16.8744 -4.20172 0)
(17.1766 -3.90051 0)
(17.4631 -3.58123 -3.97879e-20)
(17.731 -3.24945 7.80785e-19)
(17.9803 -2.90136 0)
(18.2118 -2.5403 3.88025e-19)
(18.4243 -2.17013 3.91483e-19)
(18.6154 -1.79018 -7.97698e-19)
(18.7849 -1.39976 -3.91389e-19)
(18.9312 -1.0014 -2.07998e-19)
(19.0564 -0.592115 0)
(19.1617 -0.178078 0)
(19.2443 0.239399 2.49279e-20)
(0.545044 -0.463226 -8.73745e-22)
(0.678242 -0.60508 1.6297e-21)
(0.818882 -0.760662 -3.26068e-23)
(0.990108 -0.934487 -8.69945e-22)
(1.16052 -1.11996 2.18022e-22)
(1.35293 -1.31853 -1.59329e-22)
(1.5598 -1.52321 0)
(1.77307 -1.7355 1.38302e-21)
(2.01782 -1.95845 -1.53942e-20)
(2.25736 -2.18643 0)
(2.53013 -2.42187 6.05105e-20)
(2.79437 -2.6636 -3.74674e-20)
(3.08839 -2.90737 3.81216e-20)
(3.37121 -3.15232 4.82894e-20)
(3.68713 -3.3847 -6.28144e-20)
(4.00853 -3.62741 -7.64728e-20)
(4.33189 -3.86444 2.52064e-19)
(4.68044 -4.09173 -2.62289e-19)
(5.0226 -4.32223 0)
(5.37601 -4.53997 -9.07259e-21)
(5.75846 -4.74483 7.76739e-19)
(6.12543 -4.94789 -2.92412e-20)
(6.52552 -5.12758 -3.67364e-19)
(6.91468 -5.30994 7.04219e-19)
(7.31405 -5.47681 0)
(7.72831 -5.62552 -4.32716e-19)
(8.13113 -5.76326 -4.4331e-19)
(8.55342 -5.87652 9.82662e-19)
(8.97908 -5.97899 -6.44195e-21)
(9.39795 -6.0658 5.83057e-19)
(9.83217 -6.12659 -1.19141e-18)
(10.2579 -6.17924 1.89435e-18)
(10.6843 -6.20934 -1.35843e-18)
(11.117 -6.2147 -1.42454e-18)
(11.5509 -6.2036 0)
(11.9684 -6.17711 8.11412e-19)
(12.3999 -6.11881 0)
(12.8149 -6.05065 -3.08941e-21)
(13.224 -5.96018 9.61693e-19)
(13.6351 -5.84164 -1.78933e-18)
(14.032 -5.71013 -6.69341e-21)
(14.4263 -5.55793 -1.97983e-18)
(14.7996 -5.39217 0)
(15.1693 -5.20085 -5.67162e-19)
(15.5299 -4.99369 2.17686e-18)
(15.8697 -4.77106 -5.53746e-19)
(16.2077 -4.52467 5.86609e-19)
(16.5198 -4.26786 0)
(16.8244 -3.98785 6.04036e-19)
(17.1067 -3.69545 -1.82354e-18)
(17.3785 -3.38123 -2.54325e-20)
(17.6294 -3.06082 0)
(17.8606 -2.7255 6.27333e-19)
(18.0792 -2.37563 -1.88624e-20)
(18.2805 -2.01632 0)
(18.4567 -1.64899 3.53936e-19)
(18.6169 -1.2802 -3.21454e-19)
(18.7488 -0.899141 3.37222e-19)
(18.8618 -0.504367 3.34603e-19)
(18.9619 -0.10193 -1.68098e-19)
(19.0337 0.299671 -6.36316e-20)
(20.566 0.855691 1.5147e-19)
(20.6273 1.38363 -5.13545e-20)
(20.6605 1.91498 0)
(20.6656 2.44723 0)
(20.6428 2.97865 8.16165e-19)
(20.5925 3.50812 1.17439e-18)
(20.5146 4.03383 -1.2093e-18)
(20.4095 4.55436 -3.98556e-19)
(20.2772 5.06821 3.98499e-19)
(20.1183 5.5743 7.79962e-19)
(19.933 6.07203 -7.80427e-19)
(19.7216 6.55956 -7.58857e-19)
(19.4855 7.03581 3.77436e-18)
(19.2258 7.4996 7.34141e-19)
(18.9432 7.94949 -6.47851e-18)
(18.6381 8.38393 0)
(18.3114 8.80203 0)
(17.9644 9.20282 6.74007e-19)
(17.5978 9.58576 1.99093e-18)
(17.2125 9.94949 -5.11797e-18)
(16.81 10.2933 -7.50153e-20)
(16.391 10.6169 1.17312e-18)
(15.9566 10.9189 1.20713e-18)
(15.508 11.199 -4.50465e-18)
(15.0467 11.4569 0)
(14.5736 11.6928 2.11624e-18)
(14.0889 11.906 -1.96109e-18)
(13.5946 12.0948 0)
(13.0924 12.2588 0)
(12.5839 12.3978 -8.989e-19)
(12.0704 12.5117 -1.64381e-18)
(11.553 12.6003 2.34325e-18)
(11.0333 12.6638 0)
(10.5124 12.702 0)
(9.99178 12.715 1.18328e-18)
(9.47254 12.7031 -1.12529e-18)
(8.95606 12.6663 0)
(8.44363 12.6051 1.77508e-18)
(7.93626 12.5198 3.70215e-19)
(7.43524 12.4106 -1.02441e-18)
(6.94176 12.2781 3.57319e-20)
(6.45726 12.1229 4.32651e-19)
(5.9825 11.9457 -4.29098e-19)
(5.5187 11.7468 7.52025e-20)
(5.06702 11.5273 0)
(4.62819 11.2877 0)
(4.20326 11.0288 -1.67294e-19)
(3.79316 10.7514 -3.63976e-20)
(3.39888 10.4566 2.18998e-19)
(3.02113 10.1454 9.12708e-20)
(2.66052 9.81864 1.43163e-19)
(2.31789 9.47725 -1.45033e-19)
(1.99399 9.12247 -9.73048e-20)
(1.68912 8.75551 9.86344e-20)
(1.40399 8.37728 -5.895e-19)
(1.13902 7.98922 6.43433e-19)
(0.894615 7.59246 -1.35652e-21)
(0.671089 7.1885 0)
(0.468611 6.7784 1.63999e-19)
(0.287532 6.36325 2.22794e-20)
(0.127933 5.94429 2.35869e-20)
(20.3403 0.0972151 -8.17438e-20)
(20.4128 0.614124 0)
(20.4573 1.13266 0)
(20.4746 1.65256 9.38764e-19)
(20.4643 2.17248 -6.27734e-19)
(20.4269 2.69117 -2.21225e-18)
(20.3623 3.20691 0)
(20.2708 3.71864 0)
(20.1525 4.22477 -1.20486e-18)
(20.0076 4.72377 0)
(19.8363 5.21495 -1.76565e-18)
(19.6394 5.69603 1.17152e-18)
(19.4181 6.16522 -5.81599e-19)
(19.1736 6.62219 0)
(18.9062 7.06655 2.3007e-18)
(18.616 7.49696 1.07765e-18)
(18.3041 7.91223 -1.07985e-18)
(17.9714 8.31118 1.02729e-18)
(17.6187 8.69316 -3.03587e-18)
(17.2471 9.05697 2.04466e-18)
(16.8578 9.40149 -1.98592e-18)
(16.4517 9.72625 -1.0126e-18)
(16.03 10.03 -9.15876e-19)
(15.5939 10.3122 2.6577e-18)
(15.1445 10.5718 8.51863e-19)
(14.6828 10.8089 7.79579e-19)
(14.2097 11.0236 -7.04302e-19)
(13.7272 11.2149 0)
(13.2364 11.3821 0)
(12.7388 11.5247 0)
(12.2354 11.6426 0)
(11.7277 11.7357 0)
(11.2172 11.8036 0)
(10.7048 11.8466 0)
(10.1923 11.8645 -4.92305e-19)
(9.6807 11.8575 4.36903e-19)
(9.17139 11.8255 3.50132e-19)
(8.66558 11.769 -1.69988e-18)
(8.16439 11.6884 -2.65535e-19)
(7.66917 11.5837 7.92422e-19)
(7.18115 11.4556 4.36587e-19)
(6.70167 11.3044 -3.48614e-19)
(6.23163 11.1309 1.29478e-19)
(5.77236 10.9354 9.52231e-20)
(5.32496 10.7187 -8.50115e-21)
(4.89026 10.4815 8.59687e-21)
(4.46931 10.2245 9.1176e-20)
(4.06309 9.94852 0)
(3.67266 9.65447 8.0292e-20)
(3.2988 9.34337 -1.82282e-19)
(2.94217 9.01607 1.02282e-19)
(2.60368 8.67348 0)
(2.28418 8.31672 -3.05324e-19)
(1.98394 7.94698 0)
(1.70385 7.56518 0)
(1.44418 7.17274 -9.49571e-19)
(1.20555 6.77086 4.58129e-19)
(0.988188 6.36095 1.26716e-19)
(0.792646 5.94402 -1.32535e-19)
(0.619238 5.52134 0)
(0.468199 5.09414 -3.73979e-20)
(20.1316 0.479405 6.22739e-20)
(20.1924 0.980419 0)
(20.2265 1.48188 -2.48515e-19)
(20.2328 1.98372 -1.63919e-20)
(20.2123 2.48456 0)
(20.1657 2.98373 1.99466e-18)
(20.0929 3.48039 9.73917e-19)
(19.9937 3.97422 0)
(19.8683 4.46298 3.22087e-20)
(19.717 4.94448 9.43165e-19)
(19.5406 5.41704 1.43296e-18)
(19.3405 5.87927 -4.71103e-19)
(19.117 6.32952 0)
(18.8705 6.76693 0)
(18.6014 7.19105 1.73571e-18)
(18.3107 7.60101 -8.56538e-19)
(17.9993 7.99579 -8.02665e-19)
(17.6681 8.37443 0)
(17.318 8.73613 2.42513e-18)
(16.95 9.07994 -2.32717e-18)
(16.5652 9.40492 -1.48647e-18)
(16.1648 9.71037 -1.43853e-18)
(15.7496 9.99538 0)
(15.321 10.2593 -2.05584e-18)
(14.88 10.5013 -6.70892e-19)
(14.4277 10.721 6.1298e-19)
(13.9655 10.9178 6.03403e-19)
(13.4946 11.0915 0)
(13.0162 11.2417 0)
(12.5315 11.3682 0)
(12.0417 11.4708 0)
(11.5482 11.5493 0)
(11.0522 11.6037 0)
(10.5551 11.6339 0)
(10.058 11.6399 -1.05505e-18)
(9.56236 11.6219 3.3782e-19)
(9.06925 11.5799 -2.69412e-19)
(8.57989 11.5142 1.28347e-18)
(8.0954 11.4252 0)
(7.61701 11.3132 3.60703e-19)
(7.14591 11.1786 2.94251e-19)
(6.68333 11.0219 1.25934e-19)
(6.23029 10.8438 -7.55281e-20)
(5.78795 10.6447 -9.48625e-20)
(5.35734 10.4252 3.0096e-20)
(4.93935 10.186 -1.41499e-21)
(4.53487 9.92784 1.02654e-19)
(4.14485 9.65151 0)
(3.77023 9.35795 0)
(3.41183 9.04802 8.06759e-20)
(3.07039 8.72262 9.75348e-20)
(2.7466 8.3827 2.10128e-19)
(2.44121 8.02921 2.40626e-19)
(2.15466 7.66326 0)
(1.88765 7.28576 2.997e-19)
(1.64044 6.89815 3.30605e-19)
(1.41352 6.50149 0)
(1.20729 6.09726 -1.7876e-21)
(1.02225 5.68637 0)
(0.858664 5.27011 0)
(0.716779 4.84959 2.87345e-20)
(19.9806 0.434063 -1.03023e-19)
(20.0391 0.918638 2.01547e-19)
(20.0716 1.40626 -3.97473e-19)
(20.0778 1.89491 -2.13802e-19)
(20.0577 2.38306 0)
(20.011 2.86952 -8.28322e-19)
(19.9375 3.35369 -8.22517e-19)
(19.8384 3.83383 0)
(19.7148 4.30969 3.41713e-20)
(19.5671 4.77929 -7.95321e-19)
(19.3952 5.24045 1.50181e-18)
(19.1996 5.69213 1.47861e-18)
(18.9808 6.13322 0)
(18.7392 6.56254 -7.20782e-19)
(18.4758 6.97882 -1.4318e-18)
(18.1913 7.38087 -7.06139e-19)
(17.8866 7.7678 2.06866e-18)
(17.5625 8.13875 -1.32923e-18)
(17.22 8.49295 1.2935e-18)
(16.8601 8.82956 1.87807e-18)
(16.4839 9.14775 2.43871e-18)
(16.0925 9.44674 1.20577e-18)
(15.6868 9.7257 5.55046e-19)
(15.268 9.98391 1.67809e-18)
(14.837 10.2209 5.13667e-19)
(14.3951 10.4361 5.14304e-19)
(13.9434 10.629 4.66071e-19)
(13.4831 10.7994 -1.35732e-18)
(13.0155 10.9469 8.41692e-19)
(12.5419 11.0711 7.85624e-19)
(12.0633 11.1718 -1.52467e-18)
(11.581 11.2491 7.38972e-19)
(11.0963 11.3027 -6.43096e-19)
(10.6105 11.3329 3.01889e-19)
(10.125 11.3394 2.91703e-19)
(9.6408 11.3224 2.36967e-19)
(9.15916 11.2819 -2.38535e-19)
(8.68115 11.2183 -2.24872e-19)
(8.20791 11.1318 -5.13835e-19)
(7.74065 11.023 -2.98152e-19)
(7.28054 10.8921 -4.65555e-19)
(6.8287 10.7398 -4.3257e-19)
(6.38629 10.5665 1.24598e-19)
(5.95436 10.3728 7.34207e-21)
(5.53392 10.1592 -1.60963e-21)
(5.1259 9.92629 3.11811e-20)
(4.73099 9.67487 -2.67133e-19)
(4.35023 9.40573 5.78729e-20)
(3.98441 9.11982 0)
(3.6345 8.81792 0)
(3.30107 8.50085 1.49641e-19)
(2.98496 8.1697 8.68943e-22)
(2.68678 7.82529 -1.96115e-19)
(2.40698 7.46866 0)
(2.14618 7.10062 -2.43604e-19)
(1.90459 6.72265 0)
(1.68274 6.33588 0)
(1.48088 5.94157 -2.34377e-19)
(1.29981 5.54087 -8.35018e-20)
(1.13949 5.13491 8.67569e-20)
(1.00051 4.72489 -4.60285e-20)
(19.8289 0.505295 1.86555e-21)
(19.882 0.976917 -1.74176e-19)
(19.9097 1.45117 5.1055e-19)
(19.9119 1.92648 3.38793e-19)
(19.8886 2.40166 -4.99142e-19)
(19.8399 2.87544 3.3444e-19)
(19.7665 3.34587 -2.40511e-21)
(19.6683 3.81075 -6.47756e-19)
(19.5453 4.26999 9.86812e-19)
(19.3988 4.72274 -1.28563e-18)
(19.2292 5.16794 1.21009e-18)
(19.0366 5.60412 -1.28677e-18)
(18.8216 6.03017 -6.18318e-19)
(18.5848 6.44505 0)
(18.327 6.84742 6.36868e-19)
(18.0489 7.23603 5.43607e-19)
(17.7511 7.61017 0)
(17.4345 7.96884 1.07103e-18)
(17.1001 8.31136 0)
(16.7488 8.63698 -1.05983e-18)
(16.3818 8.9448 9.35982e-19)
(16.0001 9.23405 -4.06282e-20)
(15.6048 9.50384 -4.55956e-20)
(15.1968 9.75343 1.78258e-21)
(14.7771 9.98241 -1.76287e-18)
(14.3468 10.1903 -8.01807e-19)
(13.9069 10.3767 1.56706e-18)
(13.4589 10.5412 1.4491e-18)
(13.0038 10.6836 -7.22806e-19)
(12.5428 10.8034 0)
(12.0771 10.9004 0)
(11.6077 10.9747 0)
(11.136 11.0262 5.512e-19)
(10.6633 11.055 -1.93026e-18)
(10.191 11.0608 8.95987e-19)
(9.71995 11.0438 -4.27219e-19)
(9.25141 11.004 -6.8352e-19)
(8.78641 10.9416 6.4178e-19)
(8.32594 10.8572 2.16588e-20)
(7.87129 10.7511 -2.02222e-19)
(7.42357 10.6237 2.2215e-19)
(6.98385 10.4755 1.44325e-19)
(6.55336 10.3071 0)
(6.1331 10.119 -3.99598e-20)
(5.72405 9.91162 0)
(5.32718 9.6854 7.7722e-20)
(4.94295 9.44128 -4.06833e-20)
(4.57238 9.17997 0)
(4.21614 8.90246 9.4816e-20)
(3.87551 8.60943 1.96669e-20)
(3.55078 8.30162 -2.48607e-19)
(3.24278 7.98014 1.46342e-19)
(2.95229 7.6458 9.62874e-20)
(2.67951 7.29954 -1.76607e-19)
(2.42532 6.94215 8.15481e-21)
(2.18931 6.57494 -1.07163e-19)
(1.97251 6.19912 -5.77982e-20)
(1.77485 5.816 -1.28476e-19)
(1.59744 5.42667 3.40679e-19)
(1.43992 5.03226 -1.44918e-19)
(1.30336 4.63387 1.91863e-20)
(19.6708 0.556752 3.66021e-20)
(19.7191 1.01354 0)
(19.7428 1.4725 -5.70874e-19)
(19.7419 1.93248 0)
(19.7164 2.39211 2.84182e-19)
(19.6666 2.85004 8.31578e-19)
(19.5925 3.30485 5.45605e-19)
(19.4944 3.75593 1.10665e-18)
(19.3727 4.20143 9.67824e-21)
(19.2281 4.64044 -6.74711e-21)
(19.0611 5.07154 -5.9798e-20)
(18.872 5.49374 -5.26623e-19)
(18.6612 5.90601 5.08597e-19)
(18.4295 6.30739 -1.49131e-18)
(18.1776 6.69665 1.01205e-18)
(17.9061 7.07254 -4.85807e-20)
(17.6156 7.43427 -9.18006e-19)
(17.3069 7.78095 -9.40654e-19)
(16.9807 8.11206 0)
(16.6383 8.42699 8.42405e-19)
(16.2809 8.72477 -3.77696e-20)
(15.9094 9.00462 -1.65789e-18)
(15.5249 9.26561 -5.8448e-21)
(15.1283 9.50683 -6.88036e-19)
(14.7203 9.72811 2.09466e-18)
(14.302 9.92896 -3.46954e-20)
(13.8745 10.109 -6.69004e-19)
(13.4391 10.2682 -7.07309e-20)
(12.997 10.4058 0)
(12.5494 10.5216 0)
(12.0972 10.6153 0)
(11.6412 10.6871 0)
(11.1831 10.7369 0)
(10.724 10.7649 5.42342e-20)
(10.2655 10.7707 -3.47504e-19)
(9.80822 10.7543 3.92523e-20)
(9.3534 10.7157 5.34318e-20)
(8.90197 10.6551 2.2292e-19)
(8.45472 10.5732 4.24154e-19)
(8.01308 10.4704 -5.27925e-19)
(7.57818 10.3469 3.10341e-19)
(7.1509 10.2035 -9.57939e-20)
(6.73266 10.0407 0)
(6.32445 9.85882 3.48844e-20)
(5.92717 9.65855 0)
(5.54198 9.43977 -4.0538e-20)
(5.16864 9.20374 7.76927e-20)
(4.80873 8.95107 -5.40742e-20)
(4.46231 8.68294 -6.81905e-20)
(4.13132 8.39972 1.02365e-19)
(3.81556 8.10207 1.93742e-20)
(3.51589 7.79129 1.5432e-20)
(3.23334 7.4679 -2.82148e-19)
(2.96776 7.133 3.21673e-19)
(2.72037 6.78699 1.7623e-19)
(2.49003 6.43147 9.21871e-20)
(2.27848 6.06746 3.06674e-19)
(2.08468 5.69648 0)
(1.91089 5.31942 -2.34708e-19)
(1.75596 4.93753 6.23422e-20)
(1.62174 4.55163 0)
(19.4978 0.610523 0)
(19.5408 1.05182 0)
(19.5602 1.49524 2.47542e-19)
(19.5558 1.93932 -4.74324e-19)
(19.5279 2.38312 -2.44845e-19)
(19.4767 2.82533 -1.18908e-18)
(19.4023 3.26426 4.59233e-19)
(19.3045 3.69891 -9.49798e-19)
(19.1839 4.12889 1.53826e-20)
(19.0415 4.55292 1.34687e-18)
(18.8777 4.96904 -1.79835e-18)
(18.6924 5.37636 0)
(18.4863 5.77381 0)
(18.2598 6.16113 1.70415e-18)
(18.0142 6.53687 8.23818e-19)
(17.7501 6.89907 -1.67234e-18)
(17.4673 7.2476 2.3949e-18)
(17.1668 7.58153 7.61936e-19)
(16.8494 7.90052 -1.49385e-18)
(16.5161 8.2043 -7.49915e-19)
(16.1687 8.49139 6.91989e-19)
(15.8079 8.76142 -7.08929e-20)
(15.4349 9.01329 0)
(15.0505 9.24547 1.29679e-18)
(14.6547 9.45853 -1.82976e-18)
(14.2491 9.65194 5.89521e-19)
(13.8346 9.82523 1.061e-18)
(13.4123 9.97872 -2.57667e-18)
(12.9842 10.1113 5.04283e-19)
(12.5506 10.2232 0)
(12.1129 10.313 0)
(11.671 10.3825 0)
(11.2275 10.4304 3.49915e-19)
(10.7826 10.4581 9.90316e-19)
(10.3391 10.4641 -5.83853e-19)
(9.89649 10.4484 2.54722e-19)
(9.45634 10.4114 2.44189e-19)
(9.01965 10.3526 -4.34388e-19)
(8.58637 10.2733 0)
(8.1584 10.174 -2.43119e-19)
(7.73717 10.0547 1.26631e-19)
(7.32276 9.91628 1.43251e-20)
(6.91721 9.75928 9.7452e-21)
(6.52169 9.58416 2.98018e-20)
(6.13656 9.39175 -1.05592e-20)
(5.7642 9.18074 1.52639e-19)
(5.40213 8.95353 -6.53208e-20)
(5.05375 8.70995 2.22895e-19)
(4.71724 8.45214 0)
(4.3969 8.17968 0)
(4.09064 7.89288 -4.01679e-19)
(3.7995 7.5937 1.09349e-19)
(3.52584 7.28219 2.50795e-19)
(3.2676 6.95958 1.48349e-19)
(3.02815 6.62558 -4.67312e-19)
(2.80337 6.28244 -2.61628e-19)
(2.59766 5.93081 -9.62885e-20)
(2.40735 5.5729 -2.11952e-21)
(2.2379 5.20905 1.03186e-19)
(2.08515 4.84048 0)
(1.95375 4.46788 0)
(19.3045 0.661473 -2.49645e-20)
(19.3415 1.08619 0)
(19.356 1.51317 0)
(19.3477 1.94068 2.10215e-19)
(19.317 2.36766 0)
(19.2645 2.79309 8.10328e-19)
(19.1904 3.21531 3.9984e-19)
(19.0931 3.63266 -7.85509e-19)
(18.9731 4.04701 0)
(18.833 4.45625 -7.97936e-19)
(18.6736 4.85576 4.38773e-20)
(18.4928 5.24737 0)
(18.2919 5.62881 0)
(18.0709 6.0012 -7.44907e-19)
(17.8318 6.36352 6.87988e-19)
(17.5764 6.71081 -7.12846e-19)
(17.302 7.04542 -6.95197e-19)
(17.0102 7.36624 0)
(16.7021 7.67197 6.57321e-19)
(16.3784 7.96404 -1.19889e-18)
(16.0419 8.23954 -1.15862e-18)
(15.6925 8.49932 -1.19016e-18)
(15.3312 8.7423 -9.57269e-21)
(14.9607 8.96421 -9.83008e-19)
(14.5775 9.16854 1.04284e-18)
(14.1846 9.35441 9.40157e-19)
(13.7843 9.51991 -9.54572e-19)
(13.3753 9.66774 5.99077e-20)
(12.962 9.79448 1.09203e-21)
(12.5425 9.90319 -7.98455e-19)
(12.121 9.98798 0)
(11.6931 10.0558 -6.37001e-19)
(11.2657 10.101 1.22728e-18)
(10.8348 10.1297 -4.65005e-20)
(10.4085 10.1362 5.25653e-19)
(9.98184 10.1214 -4.27919e-19)
(9.5575 10.0863 3.63898e-19)
(9.13764 10.029 2.60945e-19)
(8.71906 9.95258 -5.74069e-19)
(8.30533 9.85711 2.41586e-19)
(7.89943 9.74204 1.54497e-19)
(7.49774 9.60868 1.63821e-19)