/*--------------------------------*- C++ -*----------------------------------*\
| =========                 |                                                 |
| \\      /  F ield         | OpenFOAM: The Open Source CFD Toolbox           |
|  \\    /   O peration     | Version:  2.3.1                                 |
|   \\  /    A nd           | Web:      www.OpenFOAM.org                      |
|    \\/     M anipulation  |                                                 |
\*---------------------------------------------------------------------------*/
FoamFile
{
    version     2.0;
    format      ascii;
    class       volScalarField;
    location    "0.47";
    object      k;
}
// * * * * * * * * * * * * * * * * * * * * * * * * * * * * * * * * * * * * * //

dimensions      [0 2 -2 0 0 0 0];

internalField   nonuniform List<scalar> 
9648
(
2.68751
2.68992
2.68926
2.68603
2.67971
2.66952
2.65522
2.63712
2.61504
2.58892
2.55879
2.52488
2.48761
2.44755
2.40538
2.36185
2.3177
2.27365
2.23032
2.18826
2.14791
2.10957
2.07345
2.0397
2.0084
1.97959
1.9533
1.92947
1.90799
1.8888
1.87178
1.85687
1.84397
1.833
1.82385
1.81645
1.81071
1.80656
1.80393
1.80274
1.80297
1.80456
1.80748
1.81168
1.81716
1.8239
1.8319
1.84121
1.85183
1.86379
1.87713
1.89191
1.90817
1.9259
1.94515
1.9658
1.98761
2.01012
2.0329
2.05554
2.07765
1.70903
1.70557
1.70152
1.69747
1.69573
1.69856
1.70807
1.72575
1.75139
1.78488
1.82599
1.87408
1.92826
1.98749
2.05072
2.11691
2.18513
2.25454
2.32449
2.39449
2.46406
2.53281
2.60045
2.66676
2.73166
2.79523
2.85755
2.91866
2.97855
3.03726
3.09494
3.15164
3.20749
3.26262
3.31708
3.37093
3.42427
3.4772
3.52971
3.58177
3.63349
3.68496
3.73615
3.78703
3.83772
3.88805
3.93805
3.98782
4.03742
4.08671
4.13561
4.18399
4.23195
4.27912
4.32576
4.37161
4.41689
4.46087
4.50382
4.54578
4.58679
1.40629
1.44614
1.48973
1.53904
1.59678
1.66418
1.74094
1.8267
1.92064
2.02205
2.12955
2.24212
2.3585
2.47747
2.59781
2.71838
2.83821
2.95641
3.07232
3.18546
3.29544
3.40194
3.50465
3.60346
3.6984
3.78964
3.8775
3.96202
4.04342
4.12187
4.19751
4.27068
4.3416
4.41041
4.47724
4.5423
4.6057
4.66759
4.72809
4.78727
4.84525
4.90208
4.9579
5.01275
5.06664
5.11954
5.17144
5.22242
5.27233
5.32119
5.36896
5.41571
5.46163
5.50604
5.54987
5.59211
5.63351
5.67297
5.71171
5.74932
5.78586
1.33411
1.41644
1.50601
1.60423
1.71214
1.83008
1.95774
2.09415
2.23791
2.38757
2.54135
2.69774
2.85516
3.01233
3.1679
3.32071
3.46982
3.61443
3.75403
3.88833
4.01709
4.14005
4.2571
4.36815
4.47347
4.57344
4.66843
4.75886
4.8449
4.92682
5.0051
5.08001
5.15199
5.22127
5.28797
5.35237
5.41468
5.47513
5.53384
5.59098
5.64668
5.70111
5.75434
5.80652
5.85765
5.90777
5.95693
6.00514
6.05234
6.09853
6.14383
6.18791
6.23098
6.27286
6.31405
6.35401
6.39278
6.43035
6.46679
6.50212
6.53616
1.37335
1.4925
1.62199
1.76186
1.91217
2.07285
2.24304
2.42116
2.60547
2.79385
2.98425
3.17469
3.36359
3.5495
3.73113
3.90715
4.07669
4.23918
4.39424
4.54185
4.6819
4.81426
4.93876
5.05549
5.16491
5.26764
5.3644
5.45553
5.54141
5.62245
5.69901
5.77168
5.84085
5.90683
5.96983
6.0302
6.08823
6.14409
6.19804
6.25018
6.3007
6.34979
6.39764
6.44437
6.49
6.5346
6.5782
6.62083
6.66256
6.70318
6.74284
6.78143
6.81881
6.85503
6.89025
6.92455
6.95765
6.98965
7.02044
7.0499
7.07807
1.46219
1.6146
1.77996
1.95727
2.14556
2.34415
2.55162
2.76606
2.98508
3.2061
3.42679
3.64479
3.85859
4.06658
4.26783
4.46078
4.64452
4.81888
4.98347
5.13876
5.28479
5.42115
5.54808
5.66527
5.77382
5.87477
5.96874
6.05674
6.13861
6.21493
6.28639
6.35305
6.41596
6.47539
6.53146
6.58467
6.63554
6.68415
6.73069
6.77533
6.81812
6.85946
6.89955
6.93857
6.97649
7.01345
7.04957
7.08461
7.11884
7.15209
7.18428
7.21541
7.24543
7.27419
7.30191
7.32859
7.3543
7.37896
7.4023
7.42409
7.44469
1.57991
1.76309
1.96176
2.17349
2.39617
2.6287
2.8691
3.11508
3.36406
3.61244
3.85824
4.09824
4.33134
4.55575
4.77164
4.97638
5.16927
5.35071
5.52005
5.67844
5.82623
5.96233
6.0874
6.20086
6.30454
6.3999
6.48795
6.56946
6.64425
6.7129
6.77599
6.8338
6.8875
6.93773
6.98426
7.02772
7.06918
7.108
7.14499
7.17996
7.21287
7.2443
7.27457
7.30395
7.33207
7.35928
7.38576
7.41132
7.43622
7.46013
7.48307
7.50488
7.52563
7.54502
7.56311
7.58042
7.59691
7.61242
7.6264
7.63865
7.6497
1.71457
1.92611
2.15572
2.39912
2.6529
2.91519
3.18433
3.45779
3.73233
4.00363
4.27011
4.5271
4.77449
5.00977
5.23591
5.44818
5.64609
5.83113
6.00096
6.15828
6.30421
6.43571
6.55623
6.6621
6.7572
6.84405
6.92237
6.99513
7.05979
7.11748
7.16999
7.21561
7.25747
7.29625
7.33068
7.36182
7.39132
7.41776
7.44268
7.46589
7.48659
7.50568
7.52374
7.54116
7.55713
7.5725
7.58685
7.60051
7.61359
7.62594
7.63726
7.64745
7.65689
7.66455
7.67092
7.67671
7.6813
7.68598
7.68858
7.68883
7.68846
1.85785
2.09276
2.35057
2.62004
2.90284
3.18977
3.48218
3.78085
4.07474
4.36614
4.64822
4.92044
5.177
5.41836
5.6492
5.8658
6.06568
6.25102
6.42221
6.57503
6.71414
6.83848
6.9502
7.04924
7.13325
7.20745
7.27433
7.33504
7.38618
7.43074
7.47015
7.50318
7.53113
7.55548
7.57463
7.59189
7.60506
7.61601
7.62678
7.63499
7.64085
7.64386
7.6483
7.65108
7.65232
7.65461
7.65307
7.65234
7.64945
7.64637
7.6415
7.63631
7.63167
7.62511
7.6174
7.60948
7.59824
7.59137
7.57997
7.56481
7.55095
2.09891
2.11919
2.1386
2.15713
2.1748
2.19175
2.20824
2.22461
2.24097
2.25644
2.27069
2.28438
2.29762
2.31061
2.32366
2.33739
2.35218
2.36832
2.38612
2.40598
2.42756
2.45044
2.47436
2.49894
2.52388
2.54921
2.57508
2.60119
2.62747
2.65397
2.68082
2.7079
2.73522
2.76294
2.79098
2.81932
2.84807
2.8773
2.90697
2.937
2.96748
2.99853
3.03011
3.06218
3.09485
3.12796
3.16151
3.19565
3.23041
3.26567
3.30148
3.33791
3.37507
3.41273
3.45124
3.4905
3.53083
3.57193
3.61414
3.6576
3.7024
4.6269
4.66492
4.70201
4.73831
4.77358
4.80736
4.83918
4.86972
4.89797
4.92544
4.95117
4.97586
4.99945
5.022
5.04341
5.06354
5.0825
5.10026
5.11684
5.13222
5.14646
5.15959
5.17147
5.18219
5.19175
5.20012
5.20718
5.21267
5.21669
5.21921
5.22023
5.2198
5.21796
5.21468
5.21001
5.20403
5.19669
5.18808
5.17818
5.16701
5.15463
5.14107
5.12643
5.11064
5.09369
5.07553
5.05602
5.03525
5.01312
4.98967
4.96486
4.93863
4.91112
4.88187
4.85162
4.81975
4.78689
4.75257
4.71784
4.68257
4.64692
5.82073
5.85448
5.88661
5.91781
5.94795
5.97746
6.00508
6.0314
6.05548
6.07826
6.09937
6.11921
6.13763
6.15498
6.17104
6.18572
6.19905
6.211
6.22157
6.23074
6.23858
6.24506
6.25019
6.25398
6.25641
6.25745
6.25714
6.25544
6.2523
6.24766
6.24155
6.23392
6.22477
6.21417
6.20209
6.18858
6.17361
6.15722
6.13939
6.12017
6.09965
6.07789
6.05495
6.03089
6.00565
5.97917
5.9513
5.92201
5.89122
5.85895
5.82515
5.78958
5.75235
5.7133
5.67264
5.63007
5.58581
5.54012
5.49346
5.44593
5.39765
6.56915
6.60085
6.63125
6.66007
6.68764
6.71398
6.73886
6.76217
6.78377
6.80371
6.82203
6.83875
6.85391
6.86757
6.87962
6.89021
6.8993
6.90685
6.91284
6.91726
6.92018
6.92166
6.92171
6.92038
6.91758
6.91328
6.90748
6.90021
6.89148
6.88126
6.86949
6.85613
6.84115
6.8246
6.80652
6.78692
6.76575
6.74299
6.71864
6.69275
6.66545
6.63685
6.60714
6.57639
6.54466
6.51188
6.47784
6.44248
6.40574
6.36762
6.32798
6.28668
6.24371
6.19894
6.15233
6.10369
6.0532
6.00117
5.94807
5.89394
5.83921
7.10494
7.13061
7.15483
7.17746
7.1984
7.21775
7.23549
7.25155
7.26626
7.2796
7.29139
7.30167
7.31045
7.31762
7.32324
7.32742
7.32999
7.33095
7.33024
7.32784
7.32389
7.31851
7.31178
7.30377
7.29435
7.28349
7.2712
7.25751
7.24253
7.22627
7.20865
7.1895
7.16879
7.14653
7.12286
7.09771
7.07099
7.04266
7.0126
6.98088
6.94767
6.9131
6.87748
6.84103
6.8039
6.76612
6.7273
6.68746
6.64649
6.60453
6.56121
6.51631
6.46994
6.42182
6.37187
6.3196
6.26548
6.20962
6.15272
6.09473
6.03623
7.46396
7.48189
7.49824
7.51312
7.52627
7.53768
7.54747
7.55552
7.56191
7.56676
7.57022
7.57227
7.57284
7.57182
7.56922
7.56523
7.55977
7.55265
7.5437
7.53287
7.52038
7.50648
7.49135
7.47512
7.45761
7.43866
7.41835
7.39673
7.37411
7.3506
7.3262
7.30047
7.27342
7.24495
7.21536
7.18444
7.15198
7.11798
7.08218
7.04462
7.00542
6.96468
6.92285
6.8804
6.83763
6.79487
6.7513
6.70731
6.66251
6.61748
6.57141
6.52379
6.47511
6.42481
6.37293
6.31835
6.26197
6.20356
6.14458
6.08432
6.02363
7.65952
7.66804
7.67502
7.6804
7.68406
7.68596
7.68606
7.68458
7.68143
7.67642
7.67003
7.66248
7.65349
7.64292
7.63066
7.61727
7.60281
7.58667
7.56851
7.54805
7.52572
7.50203
7.47717
7.45157
7.42492
7.39675
7.36717
7.33609
7.30433
7.27227
7.24035
7.20741
7.17382
7.13899
7.10373
7.06749
7.02947
6.99004
6.94892
6.90605
6.86137
6.81466
6.76664
6.71804
6.66934
6.62172
6.57316
6.52521
6.47671
6.42954
6.38196
6.33247
6.28255
6.23112
6.17883
6.12282
6.06557
6.00567
5.94643
5.8854
5.82437
7.68666
7.68392
7.67952
7.67394
7.66664
7.65794
7.64711
7.63569
7.62277
7.60717
7.59019
7.57269
7.55365
7.53314
7.51019
7.48637
7.46284
7.43797
7.41107
7.38078
7.34773
7.31382
7.27858
7.24274
7.20677
7.16921
7.1301
7.08826
7.04541
7.00294
6.96284
6.92201
6.88206
6.84125
6.80165
6.76203
6.71936
6.67456
6.62887
6.5825
6.53382
6.48223
6.42885
6.37446
6.31978
6.26803
6.21413
6.16253
6.11011
6.06213
6.01502
5.9646
5.91464
5.86331
5.81245
5.75582
5.6992
5.63864
5.58129
5.52132
5.46237
7.53404
7.51763
7.49803
7.47926
7.45768
7.43829
7.4147
7.39356
7.37232
7.34827
7.32214
7.29634
7.26809
7.23974
7.20592
7.16953
7.13672
7.1051
7.07374
7.03754
6.99274
6.95023
6.90601
6.85917
6.81381
6.76812
6.72323
6.67233
6.61545
6.55976
6.51032
6.46014
6.41345
6.36691
6.32672
6.28865
6.24449
6.19381
6.14382
6.09688
6.04865
5.99466
5.937
5.87887
5.81932
5.76521
5.70509
5.65007
5.59249
5.54637
5.5026
5.45176
5.40361
5.35473
5.30785
5.25118
5.19681
5.13585
5.0826
5.02593
4.97226
3.74854
3.79566
3.84402
3.89364
3.94455
3.99688
4.05055
4.1057
4.16209
4.21965
4.27852
4.33842
4.39919
4.46311
4.54149
4.61413
4.6852
4.75704
4.82969
4.90325
4.97777
5.05328
5.12966
5.20684
5.28463
5.36281
5.44125
5.51977
5.59817
5.67612
5.75354
5.83011
5.90543
5.9793
6.05136
6.12107
6.18796
6.25166
6.30851
6.35031
6.37905
6.39554
6.39976
6.39104
6.36837
6.33037
6.27516
6.20044
6.10353
5.98127
5.82992
5.64502
5.4216
5.15245
4.84349
4.2666
3.99646
3.85425
3.79631
3.77131
3.72562
4.61058
4.57388
4.53637
4.49817
4.45931
4.42046
4.38138
4.34284
4.30435
4.2663
4.22936
4.18773
4.14207
4.09891
4.05081
4.00414
3.95754
3.91085
3.86452
3.81884
3.77382
3.72917
3.68479
3.64064
3.59662
3.55275
3.50904
3.46559
3.4224
3.37955
3.33715
3.29531
3.25416
3.21391
3.17482
3.13718
3.10137
3.06801
3.0375
3.01199
2.98861
2.96749
2.94891
2.93345
2.92203
2.91554
2.915
2.92173
2.93717
2.96262
2.99933
3.04845
3.1111
3.19055
3.27357
3.40267
3.56784
3.82713
4.196
4.68343
5.0649
5.34884
5.29948
5.24931
5.19804
5.14563
5.09261
5.03929
4.98613
4.93277
4.87911
4.82274
4.75819
4.69367
4.6325
4.57149
4.51115
4.45014
4.38842
4.32636
4.26438
4.20252
4.14052
4.07835
4.01597
3.95329
3.8903
3.82699
3.76336
3.69935
3.63497
3.57019
3.50502
3.43953
3.37373
3.30772
3.24159
3.17544
3.10941
3.04362
2.97834
2.9135
2.84876
2.7845
2.72166
2.66053
2.60164
2.54583
2.49426
2.44852
2.4107
2.38348
2.37033
2.3758
2.4056
2.46209
2.55716
2.69297
2.89928
3.21879
3.70208
4.32586
5.78403
5.72875
5.67277
5.61575
5.55729
5.4982
5.43881
5.37978
5.32052
5.26042
5.19426
5.12175
5.05127
4.98432
4.91853
4.85355
4.78824
4.7227
4.65703
4.59156
4.52618
4.46044
4.39448
4.32833
4.26186
4.19513
4.12808
4.0607
3.99288
3.92458
3.85578
3.7865
3.71677
3.64665
3.57621
3.50551
3.43464
3.36366
3.29256
3.22138
3.15009
3.07861
3.00642
2.93321
2.85975
2.78612
2.71256
2.63946
2.56749
2.49764
2.4313
2.37053
2.31815
2.27787
2.25318
2.25002
2.27602
2.34816
2.49467
2.75717
3.17131
5.97723
5.91855
5.85941
5.79935
5.73737
5.6747
5.61165
5.54934
5.48669
5.42293
5.35159
5.27617
5.20359
5.13458
5.06673
4.99973
4.9326
4.86605
4.79986
4.73424
4.66879
4.60269
4.53643
4.4701
4.40343
4.33658
4.26941
4.20192
4.13389
4.06532
3.99619
3.92661
3.85663
3.78639
3.71595
3.64544
3.57494
3.50451
3.43416
3.36391
3.29375
3.22372
3.1537
3.08321
3.01189
2.93995
2.86743
2.79439
2.72099
2.64754
2.57444
2.50224
2.43187
2.3645
2.30154
2.24564
2.20241
2.18219
2.20122
2.28373
2.46076
5.9621
5.90166
5.84104
5.77977
5.71564
5.65081
5.58525
5.52115
5.45683
5.39178
5.31839
5.24297
5.17068
5.10241
5.03471
4.96786
4.90076
4.83532
4.77071
4.70721
4.64395
4.57949
4.5152
4.45119
4.38675
4.32228
4.25736
4.19216
4.12617
4.0596
3.99235
3.92481
3.85699
3.78917
3.72136
3.65375
3.5864
3.51943
3.45282
3.38665
3.3209
3.25568
3.19096
3.12663
3.06227
2.99734
2.93184
2.86584
2.79941
2.73262
2.66559
2.59836
2.53093
2.46329
2.39523
2.32718
2.26127
2.20251
2.15949
2.14521
2.17826
5.7612
5.7004
5.63981
5.57941
5.51418
5.44851
5.3813
5.31708
5.25284
5.18913
5.11562
5.04223
4.97191
4.90684
4.84116
4.77667
4.71114
4.64879
4.58753
4.52789
4.46854
4.40688
4.34632
4.28693
4.22669
4.16661
4.10562
4.0446
3.98219
3.91924
3.85538
3.79171
3.72795
3.66471
3.60162
3.53914
3.47711
3.41588
3.35531
3.29566
3.23679
3.17895
3.12205
3.06608
3.0108
2.9559
2.90054
2.84474
2.78864
2.73243
2.67615
2.61983
2.5633
2.50614
2.44772
2.38736
2.32504
2.26225
2.20257
2.15213
2.1206
5.3983
5.33817
5.2792
5.22231
5.1573
5.09241
5.02434
4.96201
4.89988
4.84033
4.76805
4.69803
4.63062
4.571
4.50858
4.44847
4.38555
4.32811
4.2716
4.21685
4.16246
4.10386
4.04828
3.99605
3.94154
3.88703
3.83066
3.77516
3.71693
3.65842
3.59853
3.54026
3.48192
3.42517
3.36835
3.31278
3.25744
3.20361
3.15077
3.09969
3.04963
3.00125
2.95432
2.90852
2.86375
2.82002
2.7763
2.73208
2.68783
2.64384
2.60043
2.55756
2.51512
2.47259
2.42928
2.38424
2.33665
2.28626
2.23386
2.18159
2.13361
4.90831
4.84859
4.79336
4.74287
4.67973
4.6171
4.54859
4.4909
4.43352
4.38075
4.31084
4.24466
4.18008
4.128
4.06924
4.01552
3.95562
3.90495
3.85414
3.80371
3.75438
3.69798
3.64849
3.60754
3.55924
3.50916
3.45669
3.40787
3.35281
3.29846
3.24161
3.19067
3.1384
3.08996
3.03988
2.99228
2.94308
2.89753
2.85351
2.81271
2.77292
2.7353
2.69963
2.6651
2.63061
2.59674
2.56325
2.52908
2.49652
2.46448
2.43536
2.40741
2.38133
2.35556
2.32996
2.30316
2.27451
2.24304
2.20865
2.17086
2.13113
3.634
3.53119
3.41957
3.29989
3.17791
3.05713
2.94027
2.83075
2.73176
2.6454
2.57264
2.51349
2.46708
2.43198
2.40642
2.38859
2.37676
2.3696
2.36603
2.36515
2.36634
2.36913
2.37324
2.37849
2.38483
2.39213
2.40034
2.40944
2.41941
2.43022
2.44178
2.45406
2.46696
2.48033
2.49402
2.50788
2.52166
2.53516
2.54816
2.56046
2.57183
2.58205
2.59103
2.59871
2.60508
2.61028
2.61451
2.618
2.62106
2.62411
2.62744
2.63131
2.63585
2.64124
2.64733
2.65398
2.66088
2.66787
2.67451
2.6803
2.6848
5.0677
4.99987
4.88444
4.71373
4.52273
4.31435
4.08723
3.84712
3.60263
3.36173
3.13066
2.91592
2.72141
2.5485
2.39735
2.2692
2.16371
2.07859
2.01054
1.95685
1.91497
1.88256
1.85769
1.83895
1.82534
1.81619
1.81053
1.8083
1.80903
1.8125
1.81847
1.82671
1.83695
1.84885
1.86208
1.87626
1.89095
1.90565
1.9198
1.9328
1.94398
1.95256
1.95774
1.9587
1.9548
1.94554
1.93068
1.91049
1.88574
1.8578
1.82841
1.79962
1.77348
1.75161
1.73482
1.72348
1.71692
1.71419
1.71354
1.71329
1.71184
4.84194
5.21608
5.43141
5.46266
5.33678
5.14584
4.89319
4.59993
4.28503
3.96015
3.63709
3.32763
3.0393
2.77745
2.54529
2.34436
2.17343
2.0288
1.90759
1.80896
1.73053
1.66933
1.62227
1.58652
1.55968
1.53994
1.52607
1.51697
1.51193
1.51034
1.51173
1.51566
1.52165
1.52916
1.53768
1.5467
1.55567
1.56409
1.57137
1.57689
1.58003
1.58021
1.57686
1.56944
1.5575
1.54069
1.51881
1.49197
1.46064
1.42578
1.38904
1.3528
1.31993
1.29336
1.27541
1.26786
1.27107
1.28443
1.30641
1.33518
1.36892
3.69681
4.28394
4.85487
5.31087
5.55138
5.60981
5.50289
5.26317
4.95354
4.59688
4.21874
3.84493
3.48769
3.1583
2.86267
2.60129
2.37171
2.1719
2.00107
1.85864
1.74257
1.65057
1.57942
1.52544
1.48505
1.45533
1.43427
1.42017
1.41178
1.40804
1.40822
1.41168
1.41771
1.42555
1.43449
1.44383
1.45286
1.46089
1.46718
1.47097
1.47153
1.46817
1.46027
1.4473
1.42885
1.40477
1.37507
1.34007
1.3003
1.25675
1.21092
1.16521
1.1229
1.08801
1.06485
1.05727
1.06707
1.09404
1.13637
1.19185
1.25837
2.75286
3.17134
3.70443
4.29921
4.85472
5.28999
5.54998
5.60604
5.48928
5.23082
4.87498
4.4851
4.08214
3.69137
3.33029
3.00206
2.70847
2.44795
2.22184
2.03071
1.87236
1.74517
1.64587
1.56993
1.51265
1.47005
1.43929
1.41817
1.40483
1.39774
1.39586
1.39842
1.40454
1.41325
1.42366
1.43489
1.44612
1.45648
1.46512
1.47113
1.4736
1.47173
1.46476
1.45205
1.43304
1.4075
1.37542
1.33709
1.29296
1.24393
1.19139
1.13761
1.08586
1.04057
1.00759
0.993299
1.00191
1.03521
1.0923
1.1702
1.26491
2.28037
2.47531
2.78307
3.20959
3.72892
4.28755
4.81009
5.21362
5.44567
5.49053
5.35953
5.09468
4.73124
4.32256
3.91822
3.52813
3.16932
2.84459
2.5525
2.29892
2.08679
1.91556
1.78149
1.67843
1.60002
1.54079
1.49706
1.46611
1.44552
1.43303
1.42732
1.42746
1.43241
1.44101
1.45216
1.46486
1.47812
1.49097
1.50241
1.51142
1.51695
1.51813
1.51404
1.50396
1.48712
1.46325
1.43219
1.3942
1.34952
1.29897
1.24375
1.18598
1.12874
1.07636
1.03496
1.01237
1.01507
1.04798
1.11267
1.2066
1.32469
2.12149
2.17237
2.29385
2.50626
2.822
3.23855
3.72986
4.24358
4.71207
5.06863
5.26519
5.28822
5.15348
4.89187
4.5483
4.14998
3.74996
3.3677
3.00046
2.67078
2.38877
2.1591
1.97923
1.8403
1.73349
1.65148
1.58967
1.54482
1.51377
1.4932
1.48131
1.47692
1.47891
1.4858
1.49634
1.50931
1.52358
1.53805
1.5516
1.56308
1.57132
1.57542
1.57435
1.56734
1.55339
1.53222
1.50351
1.46755
1.42439
1.37483
1.3199
1.26164
1.20297
1.14789
1.10227
1.07414
1.07173
1.10269
1.17161
1.27781
1.41606
2.09671
2.08087
2.09959
2.16962
2.30869
2.53183
2.84588
3.24186
3.69243
4.14969
4.55441
4.85347
5.0156
5.02719
4.90127
4.6605
4.34152
3.97289
3.55675
3.15419
2.78854
2.48407
2.2455
2.05995
1.91566
1.80287
1.716
1.65132
1.60552
1.57341
1.5525
1.54108
1.53797
1.54133
1.54964
1.56147
1.57549
1.59045
1.60506
1.61806
1.62822
1.63463
1.63616
1.63207
1.62107
1.60289
1.57711
1.54399
1.50343
1.45623
1.40335
1.34672
1.28908
1.23423
1.18768
1.15723
1.15211
1.18199
1.25423
1.37078
1.52675
2.09204
2.05801
2.03665
2.03788
2.07466
2.16163
2.31314
2.53916
2.84023
3.20536
3.60158
3.99323
4.33692
4.59636
4.74003
4.75783
4.65088
4.42481
4.1137
3.71497
3.27778
2.8981
2.59651
2.35639
2.16171
2.00586
1.88294
1.79103
1.72502
1.67643
1.64282
1.62101
1.60998
1.60763
1.61181
1.62088
1.63326
1.64744
1.66199
1.67528
1.6865
1.6943
1.69788
1.69625
1.68816
1.67294
1.65061
1.62057
1.58339
1.5392
1.48965
1.43602
1.38113
1.32883
1.28382
1.25367
1.24808
1.27843
1.35357
1.47883
1.6486
0.299319
6.50225
6.21147
0.213258
0.362389
0.127244
0.00315859
2.35783
0.00338557
0.0233223
3.33558
1.07393
0.0031604
5.86799
0.111578
5.52471
0.00326254
2.46192
3.63631
0.00315446
0.213832
5.71013
6.24429
0.00329491
0.00333881
0.10568
0.00315657
0.50051
0.00324882
0.00346224
0.704998
0.00324206
0.0162552
2.52863
0.785786
3.41021
2.54939
1.57221
0.00316309
2.57289
1.90815
2.06517
0.00321021
4.79717
3.08776
0.281927
0.00360794
0.0153312
0.135964
1.09634
6.41979
7.76345
0.00310705
0.00405632
0.0366523
0.00820247
0.0034534
0.680819
2.42019
7.44454
2.44471
0.00370693
0.147405
0.0320709
6.53264
0.460095
1.98606
1.67659
0.00430334
0.00321314
1.22133
2.57434
1.73214
0.0150799
0.0390131
4.06574
6.82312
3.28918
0.00310782
0.932749
0.00713921
2.57974
0.010675
4.87873
0.00321795
1.0717
0.00336827
2.223
0.0146928
0.00492865
0.120574
0.0031041
0.00379044
7.60849
5.56668
0.00360058
0.438586
0.301421
0.00602416
6.69025
0.218826
2.55819
0.752003
0.0031009
0.00316384
0.00309764
0.309227
0.125065
0.00323811
6.20366
6.88163
0.00925037
4.42498
1.52045
2.49991
2.74912
1.78481
0.00389395
0.085981
0.00418453
0.00435779
3.32918
0.00734673
7.4561
7.6478
0.95454
0.00321521
1.02657
1.03159
0.00321091
0.0339534
0.0336285
1.69541
0.00569827
3.07163
0.00322071
0.00315892
7.67401
7.78677
0.00323189
0.165953
5.72559
0.104995
0.301645
1.56571
4.82866
0.0384076
1.65192
0.012124
6.90159
1.24332
0.00845684
2.82922
4.81499
6.39261
0.00330451
0.00327113
0.217469
0.00311812
1.95875
0.0307002
0.00509818
0.00319645
0.00322024
0.00323675
2.84221
1.72464
1.5848
0.00331432
6.57661
4.62305
3.15228
4.89239
0.0138731
3.61483
1.70397
1.89581
0.00324422
0.00570631
2.8675
3.08601
2.1092
3.79858
0.00321704
0.00352643
4.73588
0.0362371
0.565315
0.00323823
0.00360412
0.10477
0.00338547
7.69571
0.687181
0.00310882
0.256199
1.77707
5.31979
0.00447346
1.94242
0.00321934
0.00323519
5.02866
2.45329
7.11172
0.00451715
0.0034012
0.00761886
2.80101
2.22686
1.09347
4.99644
1.56572
7.0035
0.188674
4.3969
4.18861
1.98261
1.35541
2.32812
0.00489365
0.037056
0.00322685
0.0031977
1.8221
0.0182796
0.020302
0.00573293
0.0130208
2.78484
4.53939
0.0188111
5.89472
1.07808
0.429093
0.0031832
0.164828
2.80666
1.03445
0.00412394
1.24832
1.1076
0.177962
0.267877
7.35314
0.796781
0.482093
5.25099
0.00383233
0.00315935
0.00404831
0.010436
1.74972
0.00336027
0.00654548
0.0031631
0.387719
4.17332
4.00355
2.75602
1.2901
1.43103
7.65188
0.00432455
2.0887
4.54925
0.00321055
1.98199
0.0032174
4.06481
0.386238
1.57894
0.00535684
0.00322079
1.88567
0.492991
0.00323898
0.00323927
0.00325354
0.00324547
0.359084
1.62509
3.03266
0.0146017
0.00324063
0.00316309
0.00309897
4.81446
0.228154
0.00448669
1.70102
0.0881045
0.0400699
0.00309297
0.264164
0.00323974
0.0521946
1.46895
4.53229
0.304266
0.00391383
0.00598956
3.27793
0.142842
1.93238
7.61555
0.003506
0.00319783
0.00318728
5.91624
0.00331638
4.82978
0.00322206
1.94194
1.22152
0.0268361
2.86954
3.96777
0.00469616
2.73807
2.67195
1.64899
4.8218
1.11096
7.77895
2.46152
4.07451
3.62534
4.59163
1.7229
0.158932
7.73377
7.4103
3.02173
2.14034
0.00393501
6.79616
2.69681
6.96092
0.0276166
0.00359563
0.00321519
0.00343083
0.175061
0.420952
0.706747
0.0928355
0.00317229
6.13259
0.00321582
1.47131
1.9814
6.4875
2.58528
1.8468
0.00600534
0.00426547
0.0855331
2.80344
0.0103939
0.745634
5.02524
2.0571
4.20092
6.11082
3.29605
0.00346585
7.4238
5.54285
1.75393
0.00323679
6.41255
5.78221
0.0033382
1.983
0.00324069
6.63991
5.51763
1.87408
4.25002
2.48233
5.76722
0.00328779
5.76434
0.00387614
3.66281
4.05274
1.90924
7.40143
0.718802
0.213432
0.547417
0.00424784
4.28163
0.145634
0.00814132
0.0050474
4.32319
0.00384323
4.42461
0.00318999
0.00323743
0.00597774
1.84113
0.10614
1.88011
0.00572865
4.31725
0.164384
6.67506
4.3392
2.70473
6.03942
0.00337677
7.41162
2.91707
0.00321392
3.97839
2.10094
0.00310244
0.00316718
3.38617
0.0064551
1.9062
0.084985
2.36615
0.0268761
0.614035
2.71753
4.84465
2.46053
3.92302
3.77616
0.0039341
0.0214177
1.68806
1.68719
7.62864
6.27804
5.30313
0.0660178
5.20848
5.18279
0.503994
1.71002
2.92686
2.11659
0.00346937
4.18673
7.79071
0.00417067
4.45344
1.87457
2.95334
0.0243546
0.0683824
6.0195
0.00601147
7.6224
0.00463013
0.254183
0.00320365
0.989399
2.28557
0.231282
0.00481052
0.00369051
2.72253
1.61233
0.0879875
0.396484
5.69048
4.07693
0.00446978
1.44515
1.654
3.27362
1.5099
4.18343
1.95598
5.36896
3.26636
0.466273
0.983347
7.53276
1.94128
7.69822
6.17906
0.0321754
3.29493
2.88811
0.00337048
1.77637
1.61746
1.35124
0.0172223
4.93947
1.46391
0.700603
1.94446
0.00543858
0.0032157
0.0452114
2.37695
4.49841
2.60479
0.00322174
0.00318708
0.00321809
1.71578
0.0273821
0.00321678
0.125454
4.59618
4.80396
0.0105845
0.010814
0.00315354
0.00320525
0.00603166
1.78306
1.75423
1.66282
0.455501
7.53218
5.72057
0.00524385
3.2966
1.83691
1.94087
4.09215
7.37476
0.00345586
0.0105488
0.0032415
3.83767
0.245719
0.00316847
1.36211
0.163325
7.53458
0.00323863
7.66665
1.14535
0.0482855
6.62618
0.00323543
0.00319851
0.00404994
7.71851
3.27789
5.38645
4.85412
1.09553
1.76321
0.00312527
0.00605045
0.0857214
0.0137079
0.0252517
1.9774
2.1524
0.00322663
1.288
1.8454
6.31687
7.70742
0.00828599
7.67876
0.00594118
0.0305064
3.49848
0.00320484
5.71448
0.00324135
0.00337328
0.0219316
2.14174
0.623862
2.5562
1.90767
0.00365882
1.76546
4.63549
0.0553915
0.210892
0.850484
0.00332056
0.00327162
0.00692134
5.48905
0.533233
0.00335067
7.32901
5.77809
6.79682
0.0338905
2.04965
0.00419429
2.41746
0.166255
0.091891
2.68586
1.67158
1.90645
6.21733
0.00327619
0.00313128
0.0106013
4.16362
4.65263
0.971493
0.013954
0.00333157
0.00324292
0.00888721
0.0242408
0.00663998
2.19906
1.72834
0.0115092
1.56867
6.13607
0.00327268
2.39101
0.00321767
0.548202
0.00324486
0.0222342
2.39571
0.0201876
0.00320636
0.763534
7.79454
7.05772
0.00318706
0.00326187
0.390738
0.0254565
0.00321729
4.31122
0.0037095
1.67981
7.79996
2.37576
1.67518
2.44744
3.69047
7.64098
0.00323264
0.00741505
0.0146811
4.24215
1.42597
6.50519
0.69544
0.350197
4.33662
3.53011
5.10411
0.760578
2.74373
0.00322333
0.363673
1.69334
2.52503
3.98295
1.96492
0.224683
2.54444
0.102546
0.00925547
1.76269
0.00324308
5.63128
0.00366294
0.380636
7.48415
2.69956
0.568617
0.00743098
0.772834
0.00330408
0.00319231
0.108098
0.0226622
1.81478
0.0154784
1.74386
0.00322188
0.0281894
0.00316539
4.60454
0.00504689
4.14547
2.51057
0.0221204
1.93236
7.40934
0.00326226
1.72665
4.28635
0.00335162
7.45509
0.0598141
0.00347433
0.00339343
7.16382
0.00317848
0.00429703
0.087659
0.100895
7.03283
7.33091
0.00322122
0.00326908
1.12333
2.3235
0.0146826
0.259157
2.01675
0.00321884
0.00384603
0.00372371
6.13928
7.35624
0.49936
7.01635
0.0262783
1.60595
0.00331762
0.0148889
0.0250714
0.0359778
0.00323209
6.67961
0.00320135
0.0251956
0.00332095
0.257066
0.0226479
0.0154751
0.456523
0.688749
2.29143
0.412861
1.07107
1.82378
5.02989
0.00344205
4.79209
7.69005
1.14946
4.08289
0.00327724
4.34262
3.98298
0.00321792
7.31598
2.33235
0.00820895
0.0110717
5.97948
5.78101
0.0606867
7.61715
7.23626
0.791697
7.23513
7.24861
5.00603
1.94303
1.65972
0.973827
7.29523
7.48078
0.0220828
7.27607
2.63334
4.3882
0.00343178
0.342104
0.4147
6.90031
5.98652
0.0203445
4.26073
6.52434
0.453715
0.0329404
0.384509
1.81542
0.00537508
1.85173
6.86197
0.033701
6.85634
1.3996
4.53956
6.4485
0.00322407
0.00564263
1.05718
0.709125
0.0180168
0.00321933
0.190174
0.255452
0.00451892
0.00323651
4.18434
0.996576
3.16432
1.02808
0.00868079
0.00418068
0.0948308
3.39174
0.00346789
1.89691
1.69048
0.477563
2.28934
0.00398086
0.116126
0.00320313
0.344309
4.39648
0.00434578
0.118651
2.11281
5.70443
0.225462
4.03746
0.602141
0.175965
0.00392756
2.44142
7.67757
0.00321284
0.00327964
5.75837
0.0246721
0.00323568
3.89988
0.242139
1.94569
2.00774
1.48357
0.14677
1.7211
3.52921
5.80607
4.24357
0.00327883
5.41193
0.00389257
2.68409
0.0033929
0.00453338
2.12098
0.00653355
3.90338
0.0206816
0.0400249
1.86838
0.732441
0.0622285
0.00368526
6.34179
0.0036542
0.00315113
7.76801
5.96665
2.83094
1.93004
0.00344149
0.00307694
1.86478
5.74976
0.00319882
6.5511
1.70437
0.00324527
6.08563
0.0031156
0.349152
0.908833
1.35236
0.363377
1.59606
1.94485
0.00311195
7.32802
7.2854
0.00321792
0.0166186
1.92672
0.00312909
7.06512
5.39361
4.40761
0.00322001
0.0031703
3.3917
0.0401903
0.00350017
1.86754
1.7299
4.02407
0.00315214
0.00337374
0.0244802
0.0193833
0.00321867
0.00638806
5.277
2.8928
0.00322423
1.3748
0.00321552
0.704784
0.00419794
0.00359583
2.28039
0.00326486
0.123671
0.00317609
3.02869
0.179003
1.76801
6.36324
4.39053
3.58872
0.820465
1.21394
0.00323551
0.932109
7.39104
4.06844
0.107478
0.00347415
5.36315
0.0032159
0.030748
0.00315414
7.10406
0.769216
0.363522
6.46869
2.25093
0.479776
4.22909
0.724431
6.88083
4.58845
0.0033155
0.00326865
0.00826122
0.00322844
0.022909
4.43275
0.00376858
7.10194
0.00603513
0.0794589
0.585829
4.65742
0.00485582
2.80392
0.016751
3.11221
2.44642
6.86798
0.00339119
0.00383205
0.266198
3.70428
1.63023
3.70989
0.427508
1.04166
1.68883
0.0504373
1.03329
0.23914
1.68813
0.00328048
4.36401
0.416073
3.14903
0.0033673
3.05689
0.985739
0.00460655
1.64056
1.78694
0.0659437
0.00314601
0.00322006
4.73865
2.821
1.38415
0.0032094
0.0176934
2.00827
6.40673
0.436596
0.0126886
0.0032223
5.59864
5.36611
2.084
2.67647
0.00321583
3.51902
7.39478
0.00321128
0.00321813
1.26115
0.0041079
0.00992783
0.0312535
1.96689
0.0040932
2.21563
7.68616
0.0032003
0.00345481
0.00316661
0.00331038
3.79897
4.65302
7.73111
0.0291804
2.44275
2.20872
0.0870014
2.96945
0.00347283
1.69382
0.22151
2.07847
0.696556
1.65888
3.0859
0.0263002
0.00323923
5.98587
4.50655
4.49802
0.907981
1.78233
0.17596
1.60449
0.00929939
0.00485357
3.34618
5.63704
0.0214069
0.131362
0.0032477
0.0786457
1.90769
0.0274002
1.05094
0.719933
3.78763
2.15814
0.434448
6.64171
5.53854
2.96454
1.64933
4.08027
3.56333
0.565426
2.66443
0.00615553
2.81169
2.95293
0.00320436
0.0031338
0.123705
0.0032288
0.00332357
3.02933
4.34763
0.00322136
3.24806
0.00321682
0.00319297
0.00321826
0.00325716
0.00594049
1.94033
2.76979
7.17025
0.00315627
0.00390804
0.963822
0.00356333
0.0329076
0.00324576
0.00360937
4.28264
0.00392045
0.0110021
2.7747
0.0105119
0.00322039
3.82573
0.00321547
0.00326967
0.251306
0.00361058
0.935329
0.00455707
0.030323
0.00320452
0.00325248
7.54685
7.59304
2.80359
0.0265413
2.91432
1.59084
0.00471216
1.76789
4.19338
7.01413
4.59095
0.00312577
1.92003
2.58839
0.147368
1.7392
4.51634
0.173617
2.05906
0.205796
1.71744
0.0375968
1.01492
0.00323499
6.77852
0.00328601
1.79655
2.50616
0.00321568
0.313733
0.00735036
0.0198784
0.00317352
0.763718
0.003674
0.00321896
2.53304
0.00871726
0.111146
6.96203
1.93029
0.00345009
0.0038671
2.42556
7.25123
0.00309503
0.00324908
0.0706228
1.38051
5.64165
0.00656676
1.6574
0.00321972
0.00345091
0.00314646
0.0350712
0.985708
0.0100902
6.32469
1.81503
7.24455
6.14236
0.00352773
7.19241
3.78922
0.00317895
0.00322633
0.00321817
0.00440496
0.00320367
3.75583
0.00320834
0.00324324
6.55095
0.327273
0.00780009
0.0224268
1.98995
0.924546
0.00815579
0.00346505
6.39376
0.00324548
0.801317
0.00325873
0.00353238
6.00691
5.83778
0.00875776
0.00350305
0.327055
0.00320691
6.61465
0.00325236
5.6567
0.0255326
0.732673
0.035084
0.366263
0.364653
1.52899
0.00324296
0.00357578
0.0116439
3.33185
0.122056
7.53576
0.00322117
0.00456835
0.00557512
7.22237
2.84368
3.04602
0.00691618
0.00893924
0.213331
0.00322415
1.2397
2.48858
0.0170908
5.73282
6.26089
1.97896
0.00534969
0.388349
2.80573
6.88969
1.80071
0.0187752
3.05222
0.0605321
5.32553
0.0922261
0.521101
2.69205
0.00324367
1.76271
0.00456256
0.0119367
0.00816063
0.0504735
0.00371318
1.27844
0.00322746
3.06371
0.0958416
0.00361131
0.222705
0.00323206
0.285255
0.118716
2.31313
0.467116
4.69016
0.245513
0.00321758
0.00319251
0.750495
0.0927773
2.90871
7.26048
0.00322479
3.76782
2.72628
0.0233655
2.04428
0.574936
2.35841
2.17666
0.0328581
0.00590927
7.09989
1.54042
5.95644