/*--------------------------------*- C++ -*----------------------------------*\
| =========                 |                                                 |
| \\      /  F ield         | OpenFOAM: The Open Source CFD Toolbox           |
|  \\    /   O peration     | Version:  2.3.1                                 |
|   \\  /    A nd           | Web:      www.OpenFOAM.org                      |
|    \\/     M anipulation  |                                                 |
\*---------------------------------------------------------------------------*/
FoamFile
{
    version     2.0;
    format      ascii;
    class       volScalarField;
    location    "0.47";
    object      p;
}
// * * * * * * * * * * * * * * * * * * * * * * * * * * * * * * * * * * * * * //

dimensions      [0 2 -2 0 0 0 0];

internalField   nonuniform List<scalar> 
9648
(
-0.0177131
-0.268292
-0.568798
-0.928038
-1.36217
-1.88317
-2.503
-3.23316
-4.07586
-5.05068
-6.16906
-7.44404
-8.8881
-10.512
-12.3243
-14.3345
-16.5508
-18.9837
-21.639
-24.5211
-27.6326
-30.9679
-34.5265
-38.3039
-42.2982
-46.4981
-50.8908
-55.4653
-60.2096
-65.1243
-70.1903
-75.3913
-80.7034
-86.0963
-91.5589
-97.0668
-102.609
-108.167
-113.714
-119.232
-124.697
-130.101
-135.403
-140.595
-145.665
-150.579
-155.327
-159.889
-164.273
-168.45
-172.379
-176.065
-179.512
-182.688
-185.596
-188.222
-190.551
-192.59
-194.315
-195.74
-196.853
0.551474
0.302548
0.00381196
-0.350745
-0.781019
-1.28847
-1.88382
-2.58126
-3.39635
-4.336
-5.41113
-6.63354
-8.01421
-9.5635
-11.2906
-13.2038
-15.3112
-17.6222
-20.144
-22.8807
-25.8319
-28.9935
-32.3649
-35.942
-39.7247
-43.704
-47.8641
-52.1951
-56.6864
-61.3379
-66.1351
-71.059
-76.0871
-81.1919
-86.3587
-91.5711
-96.8148
-102.071
-107.318
-112.537
-117.708
-122.814
-127.83
-132.74
-137.525
-142.164
-146.642
-150.941
-155.048
-158.955
-162.658
-166.136
-169.379
-172.375
-175.108
-177.576
-179.76
-181.67
-183.283
-184.602
-185.613
0.361081
0.131577
-0.141071
-0.470125
-0.859303
-1.32855
-1.88621
-2.54378
-3.31173
-4.20312
-5.22847
-6.39948
-7.72676
-9.21984
-10.8878
-12.7386
-14.7808
-17.024
-19.4754
-22.1379
-25.0086
-28.084
-31.3607
-34.8407
-38.5239
-42.4009
-46.4593
-50.6814
-55.0648
-59.6046
-64.2864
-69.0927
-73.9952
-78.9733
-84.0117
-89.0976
-94.2159
-99.3466
-104.47
-109.568
-114.622
-119.611
-124.516
-129.318
-134
-138.542
-142.929
-147.144
-151.172
-155.001
-158.621
-162.02
-165.195
-168.119
-170.798
-173.211
-175.366
-177.231
-178.815
-180.114
-181.133
0.598289
0.368744
0.0941249
-0.231943
-0.618223
-1.07529
-1.61388
-2.24557
-2.982
-3.8355
-4.8176
-5.93956
-7.21166
-8.6435
-10.2445
-12.0223
-13.9864
-16.147
-18.5115
-21.0798
-23.845
-26.8006
-29.9484
-33.2943
-36.846
-40.5924
-44.5079
-48.5831
-52.8041
-57.1738
-61.6828
-66.3045
-71.021
-75.8055
-80.6476
-85.5359
-90.4561
-95.3873
-100.309
-105.207
-110.062
-114.856
-119.568
-124.18
-128.675
-133.033
-137.239
-141.279
-145.14
-148.809
-152.275
-155.53
-158.564
-161.362
-163.917
-166.218
-168.261
-170.033
-171.531
-172.751
-173.691
0.651775
0.454434
0.212845
-0.0816717
-0.437012
-0.862263
-1.36683
-1.96152
-2.65863
-3.46891
-4.40457
-5.47504
-6.69081
-8.06061
-9.59482
-11.3005
-13.1881
-15.2699
-17.5496
-20.0221
-22.6766
-25.5064
-28.5214
-31.7437
-35.1815
-38.8093
-42.6
-46.5191
-50.5707
-54.7591
-59.0774
-63.5172
-68.0446
-72.6446
-77.3007
-82.0007
-86.7297
-91.4623
-96.1867
-100.889
-105.553
-110.158
-114.684
-119.115
-123.43
-127.613
-131.649
-135.523
-139.224
-142.74
-146.062
-149.18
-152.087
-154.77
-157.219
-159.423
-161.374
-163.066
-164.499
-165.666
-166.563
0.746522
0.564445
0.342339
0.0702871
-0.258793
-0.654893
-1.1272
-1.68633
-2.34538
-3.11384
-4.00429
-5.02454
-6.1857
-7.49447
-8.96414
-10.6
-12.4137
-14.4181
-16.6119
-18.9841
-21.5179
-24.2108
-27.0993
-30.2068
-33.5495
-37.0821
-40.7334
-44.4951
-48.3422
-52.3156
-56.4326
-60.6665
-65.0146
-69.4324
-73.9038
-78.4113
-82.9436
-87.4714
-91.9829
-96.4813
-100.943
-105.352
-109.682
-113.921
-118.047
-122.042
-125.897
-129.593
-133.122
-136.475
-139.642
-142.613
-145.382
-147.94
-150.274
-152.37
-154.219
-155.821
-157.177
-158.28
-159.123
0.845946
0.681028
0.478119
0.22702
-0.07748
-0.446631
-0.888777
-1.41411
-2.03711
-2.76469
-3.61242
-4.58399
-5.69342
-6.94157
-8.34936
-9.91697
-11.6565
-13.586
-15.6912
-17.9492
-20.3549
-22.9128
-25.6774
-28.7067
-31.9695
-35.3922
-38.9009
-42.4395
-46.0719
-49.8199
-53.7275
-57.8026
-61.9675
-66.2165
-70.5036
-74.8015
-79.1226
-83.4237
-87.7186
-92.0001
-96.2572
-100.463
-104.587
-108.623
-112.553
-116.355
-120.021
-123.531
-126.882
-130.062
-133.07
-135.884
-138.507
-140.936
-143.153
-145.138
-146.879
-148.38
-149.653
-150.693
-151.481
0.944531
0.798184
0.616989
0.38613
0.106804
-0.236601
-0.651486
-1.14074
-1.73102
-2.41661
-3.225
-4.14871
-5.21561
-6.39776
-7.74675
-9.24691
-10.9105
-12.7701
-14.7761
-16.9073
-19.1955
-21.6118
-24.3147
-27.2687
-30.4315
-33.7221
-36.9752
-40.3137
-43.7153
-47.2505
-51.0388
-54.965
-58.9783
-63.0609
-67.1405
-71.1693
-75.263
-79.3516
-83.397
-87.4743
-91.5082
-95.5158
-99.4029
-103.226
-106.972
-110.564
-114.052
-117.355
-120.53
-123.517
-126.372
-129.009
-131.469
-133.775
-135.887
-137.745
-139.381
-140.755
-141.946
-142.937
-143.658
1.04879
0.911984
0.767902
0.542504
0.299069
-0.0293548
-0.422179
-0.850396
-1.43875
-2.04875
-2.8528
-3.69963
-4.77968
-5.83035
-7.15949
-8.61052
-10.1553
-11.9865
-13.8727
-15.8404
-18.102
-20.3426
-23.0582
-25.9153
-28.9188
-32.0473
-34.9552
-38.0962
-41.3845
-44.7086
-48.4344
-52.1825
-55.9381
-59.8798
-63.8055
-67.4414
-71.4273
-75.3009
-79.0619
-82.9856
-86.711
-90.5802
-94.1492
-97.8299
-101.449
-104.718
-108.133
-111.125
-114.19
-116.871
-119.637
-121.994
-124.317
-126.579
-128.567
-130.234
-131.862
-133.014
-134.198
-135.141
-135.726
-197.629
-198.083
-198.218
-198.026
-197.528
-196.712
-195.584
-194.141
-192.377
-190.315
-187.933
-185.246
-182.288
-179.064
-175.565
-171.806
-167.792
-163.551
-159.075
-154.378
-149.493
-144.405
-139.141
-133.71
-128.141
-122.441
-116.594
-110.637
-104.576
-98.4438
-92.2408
-85.9874
-79.7052
-73.3944
-67.0833
-60.7738
-54.4893
-48.2419
-42.0396
-35.8994
-29.8328
-23.8632
-17.9879
-12.2274
-6.59574
-1.09522
4.25825
9.45636
14.4839
19.3342
24.0024
28.4775
32.7485
36.8141
40.6638
44.2927
47.6953
50.8665
53.8055
56.508
58.9736
-186.315
-186.683
-186.78
-186.576
-186.072
-185.276
-184.184
-182.796
-181.104
-179.114
-176.827
-174.253
-171.428
-168.358
-165.031
-161.45
-157.627
-153.579
-149.308
-144.829
-140.159
-135.303
-130.276
-125.087
-119.753
-114.283
-108.709
-103.035
-97.265
-91.419
-85.5086
-79.5493
-73.5561
-67.5408
-61.5198
-55.5024
-49.5047
-43.5404
-37.621
-31.7592
-25.9682
-20.2641
-14.6539
-9.15134
-3.76869
1.48706
6.60458
11.5732
16.3812
21.0212
25.4865
29.768
33.8564
37.7487
41.4355
44.9122
48.1719
51.2123
54.0301
56.6223
58.9878
-181.856
-182.312
-182.428
-182.235
-181.753
-180.993
-179.922
-178.553
-176.865
-174.878
-172.625
-170.107
-167.312
-164.246
-160.931
-157.379
-153.598
-149.598
-145.39
-140.984
-136.394
-131.627
-126.696
-121.613
-116.387
-111.029
-105.559
-99.9893
-94.3323
-88.6015
-82.8105
-76.9741
-71.106
-65.2198
-59.3285
-53.4439
-47.579
-41.7468
-35.9601
-30.2313
-24.5736
-19.0002
-13.521
-8.14787
-2.8913
2.24018
7.23581
12.0852
16.7781
21.3072
25.6641
29.8416
33.8319
37.6303
41.229
44.6227
47.806
50.7752
53.5274
56.0595
58.3714
-174.347
-174.728
-174.813
-174.606
-174.104
-173.29
-172.181
-170.851
-169.264
-167.413
-165.278
-162.88
-160.217
-157.299
-154.135
-150.734
-147.106
-143.263
-139.214
-134.974
-130.554
-125.964
-121.214
-116.315
-111.279
-106.116
-100.842
-95.4712
-90.0151
-84.4867
-78.8985
-73.2657
-67.6019
-61.9213
-56.2345
-50.5537
-44.8908
-39.2577
-33.668
-28.1336
-22.6673
-17.2815
-11.9869
-6.79436
-1.71357
3.24763
8.07784
12.7677
17.3061
21.6879
25.9033
29.9453
33.8084
37.4861
40.9734
44.2622
47.3497
50.2297
52.9008
55.359
57.6055
-167.186
-167.537
-167.611
-167.409
-166.927
-166.166
-165.15
-163.816
-162.228
-160.396
-158.307
-155.967
-153.38
-150.554
-147.493
-144.206
-140.7
-136.984
-133.072
-128.976
-124.709
-120.28
-115.697
-110.969
-106.109
-101.128
-96.0397
-90.8588
-85.5963
-80.2644
-74.8733
-69.4403
-63.9777
-58.5014
-53.0188
-47.5422
-42.0818
-36.6488
-31.258
-25.9201
-20.6472
-15.4529
-10.3464
-5.33859
-0.438866
4.34816
9.00698
13.5326
17.9106
22.1389
26.207
30.1076
33.8367
37.3871
40.7565
43.9345
46.9209
49.705
52.2898
54.6685
56.8443
-159.704
-160.021
-160.07
-159.853
-159.369
-158.623
-157.617
-156.341
-154.81
-153.033
-151.012
-148.749
-146.247
-143.519
-140.57
-137.401
-134.021
-130.437
-126.664
-122.718
-118.608
-114.347
-109.939
-105.389
-100.712
-95.9168
-91.0183
-86.0345
-80.9722
-75.8436
-70.6543
-65.4272
-60.1709
-54.9073
-49.6363
-44.3713
-39.1204
-33.8941
-28.709
-23.574
-18.501
-13.5047
-8.59219
-3.77599
0.9354
5.54402
10.0267
14.3844
18.5951
22.6654
26.5806
30.3336
33.9245
37.3406
40.5895
43.6516
46.5337
49.2176
51.714
54.0078
56.1106
-152.016
-152.295
-152.32
-152.086
-151.602
-150.87
-149.883
-148.638
-147.152
-145.435
-143.486
-141.302
-138.887
-136.263
-133.429
-130.384
-127.133
-123.678
-120.045
-116.252
-112.306
-108.221
-103.995
-99.6276
-95.1379
-90.5314
-85.8275
-81.0465
-76.1906
-71.2696
-66.2845
-61.2661
-56.2201
-51.1774
-46.1243
-41.0797
-36.0467
-31.0326
-26.059
-21.1346
-16.2669
-11.4736
-6.76052
-2.14208
2.37489
6.80146
11.1043
15.2922
19.3305
23.237
26.9938
30.5945
34.0414
37.318
40.444
43.387
46.165
48.7445
51.1488
53.3526
55.3803
-144.147
-144.376
-144.378
-144.118
-143.639
-142.921
-141.959
-140.724
-139.27
-137.629
-135.758
-133.649
-131.321
-128.803
-126.1
-123.178
-120.058
-116.728
-113.242
-109.609
-105.825
-101.922
-97.8959
-93.7077
-89.4094
-84.9953
-80.4931
-75.9199
-71.2649
-66.5567
-61.7695
-56.9657
-52.1267
-47.3189
-42.4875
-37.6834
-32.8889
-28.0779
-23.3169
-18.6224
-13.9547
-9.36434
-4.86399
-0.440941
3.86704
8.11715
12.2319
16.2563
20.1077
23.8483
27.4374
30.8728
34.1809
37.3087
40.3211
43.1389
45.8197
48.28
50.5925
52.6946
54.6513
-136.173
-136.322
-136.312
-136.02
-135.55
-134.813
-133.895
-132.596
-131.221
-129.767
-127.901
-125.868
-123.593
-121.165
-118.692
-115.823
-112.828
-109.69
-106.328
-102.869
-99.165
-95.4259
-91.6987
-87.5918
-83.4971
-79.3535
-74.9906
-70.6611
-66.0988
-61.7212
-57.0069
-52.5422
-47.7963
-43.3245
-38.6757
-34.1422
-29.6477
-24.9205
-20.3793
-15.9633
-11.4124
-7.07533
-2.82586
1.4828
5.43482
9.65139
13.4399
17.4203
20.946
24.5958
28.0342
31.2067
34.4942
37.3569
40.3941
42.9584
45.6502
47.8411
50.1894
52.0891
54.084
61.2035
63.1961
64.952
66.472
67.7553
68.8061
69.6285
70.2273
70.6069
70.7732
70.7474
70.5722
70.2433
69.7204
69.0265
68.1694
67.114
65.8677
64.4526
62.8849
61.1764
59.3376
57.3809
55.317
53.1583
50.9175
48.6079
46.2438
43.8374
41.4043
38.9578
36.5128
34.0848
31.6873
29.3371
27.0473
24.833
22.7073
20.6944
18.807
17.0739
15.4977
14.0918
12.8764
11.8661
11.0709
10.5005
10.1575
10.0373
10.1232
10.3835
10.7668
11.1976
11.5752
11.835
11.2446
9.76257
8.23107
6.95588
6.00877
5.18843
61.1269
63.0401
64.7274
66.1891
67.4255
68.4385
69.2315
69.8085
70.1738
70.3296
70.2889
70.1093
69.7949
69.2955
68.621
67.7783
66.7483
65.5371
64.1623
62.6384
60.9772
59.1892
57.2861
55.2803
53.1835
51.0079
48.7657
46.4698
44.1328
41.7686
39.3902
37.012
34.648
32.3122
30.0194
27.7839
25.6202
23.5405
21.5492
19.6755
17.9264
16.3342
14.9124
13.6732
12.6283
11.7882
11.1619
10.7523
10.5551
10.5557
10.7251
11.0162
11.3572
11.6562
11.7663
11.1982
9.89895
8.53632
7.44427
6.64092
5.82023
60.4621
62.3332
63.9842
65.4165
66.6296
67.6263
68.4096
68.9837
69.351
69.5091
69.4776
69.322
69.0317
68.5541
67.905
67.0929
66.1052
64.9466
63.6298
62.168
60.5723
58.8529
57.0217
55.09
53.0688
50.9702
48.8058
46.588
44.329
42.0422
39.7404
37.4373
35.1462
32.8809
30.6552
28.4828
26.3771
24.3501
22.4132
20.5883
18.8912
17.34
15.9433
14.7128
13.6599
12.7948
12.1246
11.6512
11.3698
11.2668
11.3145
11.4695
11.6615
11.7957
11.7087
11.1121
9.97938
8.74544
7.69999
6.85957
6.0214
59.6377
61.4585
63.0661
64.4635
65.6488
66.6258
67.3954
67.9632
68.3275
68.4846
68.4679
68.3414
68.0761
67.6271
67.0079
66.2286
65.2834
64.1782
62.9212
61.5243
59.9977
58.3507
56.5959
54.7437
52.804
50.7898
48.7116
46.5817
44.4114
42.214
40.0017
37.7876
35.5844
33.4056
31.2638
29.1726
27.1445
25.1918
23.3273
21.567
19.9256
18.4169
17.0504
15.8341
14.779
13.8933
13.1815
12.6434
12.2724
12.0549
11.964
11.9587
11.9748
11.9239
11.6736
11.0604
10.0768
8.97137
7.96227
7.09073
6.26056
58.812
60.5784
62.1385
63.498
64.6512
65.6056
66.3575
66.9153
67.2727
67.4294
67.4294
67.3323
67.0897
66.6703
66.0818
65.3373
64.4336
63.381
62.1826
60.8504
59.3937
57.8192
56.1423
54.3714
52.515
50.5878
48.5981
46.559
44.4797
42.3746
40.2539
38.1314
36.0179
33.9273
31.8708
29.8622
27.9126
26.0345
24.239
22.5402
20.9503
19.4821
18.1448
16.9458
15.8914
14.9875
14.2368
13.6369
13.1797
12.8507
12.6242
12.4623
12.3103
12.096
11.728
11.1138
10.2492
9.26689
8.31011
7.43151
6.59834
58.0091
59.7196
61.2286
62.5498
63.6681
64.5992
65.3313
65.879
66.2286
66.3896
66.406
66.336
66.1139
65.7243
65.166
64.4582
63.5951
62.5952
61.4541
60.1866
58.8003
57.2976
55.6993
54.0111
52.2379
50.3996
48.4991
46.5525
44.5646
42.553
40.5245
38.4945
36.4707
34.4688
32.4971
30.571
28.6993
26.8948
25.1656
23.5258
21.9847
20.555
19.2442
18.0583
17.0018
16.0767
15.2854
14.6237
14.0824
13.6477
13.2956
12.993
12.6949
12.3477
11.8903
11.2706
10.4845
9.60016
8.70314
7.84041
7.00865
57.206
58.8593
60.3143
61.5967
62.6784
63.5876
64.3001
64.8376
65.1803
65.3496
65.3818
65.3369
65.1348
64.7742
64.2459
63.5758
62.7535
61.807
60.7215
59.5195
58.2057
56.7749
55.2565
53.6512
51.9611
50.2139
48.4038
46.5513
44.6553
42.7391
40.8038
38.8673
36.933
35.0198
33.1322
31.2884
29.4944
27.7626
26.0973
24.5142
23.0191
21.626
20.3396
19.1645
18.1033
17.1563
16.3254
15.604
14.9826
14.451
13.9862
13.5613
13.1405
12.6855
12.1559
11.5217
10.7784
9.96077
9.11764
8.28184
7.46233
56.3922
57.9935
59.3864
60.6354
61.6729
62.5654
63.2545
63.7854
64.1193
64.3054
64.3475
64.329
64.1436
63.8143
63.3129
62.6831
61.8973
61.0128
59.9743
58.8406
57.6045
56.2395
54.8108
53.2884
51.673
50.0246
48.3029
46.5502
44.7415
42.9259
41.0816
39.2428
37.395
35.5729
33.764
32.0043
30.2862
28.6292
27.0233
25.4968
24.0408
22.6837
21.4187
20.2562
19.1888
18.2186
17.3537
16.5782
15.8826
15.2666
14.7027
14.1757
13.6521
13.1102
12.519
11.8646
11.1388
10.3626
9.55691
8.74779
7.94641
55.6071
57.2682
58.4975
59.8215
60.7026
61.6583
62.2161
62.836
63.0792
63.3817
63.3325
63.4202
63.1708
62.9625
62.4101
61.8943
61.0419
60.3238
59.2813
58.2239
57.1008
55.6943
54.4269
53.0193
51.3902
49.916
48.2115
46.6276
44.8329
43.1786
41.3614
39.6734
37.8638
36.1824
34.3962
32.76
31.0736
29.5296
27.9434
26.5087
25.0494
23.7556
22.4899
21.3503
20.2793
19.2686
18.3864
17.5606
16.7891
16.1184
15.4572
14.8585
14.238
13.6347
12.9802
12.3124
11.5806
10.8391
10.0493
9.25276
8.47288
4.37826
3.64395
2.96112
2.27199
1.57827
0.922472
0.318301
-0.225646
-0.68868
-1.06224
-1.34203
-1.53374
-1.64124
-1.65599
-1.60585
-1.5162
-1.40128
-1.28016
-1.16841
-1.07456
-1.00207
-0.94506
-0.899249
-0.85854
-0.822057
-0.792152
-0.750787
-0.706525
-0.651372
-0.584642
-0.502507
-0.403946
-0.28946
-0.158583
-0.0147431
0.140717
0.303382
0.470545
0.638231
0.80062
0.952771
1.09032
1.21113
1.31043
1.38495
1.43466
1.45836
1.45712
1.43152
1.38445
1.3197
1.24038
1.14921
1.05162
0.948621
0.842881
0.733955
0.620338
0.495923
0.350271
0.178219
4.96416
4.26465
3.64261
3.00225
2.33842
1.71416
1.14014
0.618325
0.173896
-0.18098
-0.441568
-0.604962
-0.670648
-0.654643
-0.582665
-0.482742
-0.365725
-0.247737
-0.141878
-0.0556009
0.00968575
0.0578284
0.0945974
0.123865
0.151384
0.167861
0.196333
0.226228
0.265842
0.316967
0.382491
0.463899
0.561538
0.674817
0.801924
0.940634
1.0877
1.23881
1.39039
1.53869
1.67926
1.80667
1.91735
2.00791
2.07536
2.11834
2.13623
2.12902
2.09767
2.0444
1.97214
1.88417
1.78327
1.67514
1.56053
1.44349
1.32265
1.19921
1.06755
0.921217
0.751931
5.20467
4.5115
3.88108
3.19259
2.47368
1.83064
1.23646
0.679349
0.197613
-0.19535
-0.498847
-0.711979
-0.835928
-0.886027
-0.866965
-0.797375
-0.683158
-0.550278
-0.43147
-0.335542
-0.263257
-0.210097
-0.170297
-0.136955
-0.111163
-0.0761851
-0.0470562
-0.00842181
0.0383253
0.0963652
0.168091
0.254943
0.357089
0.473633
0.602807
0.742249
0.888929
1.03929
1.18932
1.33464
1.47085
1.5938
1.69966
1.78506
1.84733
1.88518
1.89807
1.88677
1.85266
1.79829
1.72668
1.6417
1.54689
1.44575
1.34077
1.23401
1.12486
1.01069
0.886131
0.741827
0.565363
5.47184
4.77
4.10842
3.39971
2.683
2.04064
1.43071
0.849386
0.362165
-0.023866
-0.325676
-0.53423
-0.64353
-0.668336
-0.614861
-0.495424
-0.353915
-0.241846
-0.134742
-0.039266
0.0367391
0.0936155
0.134849
0.164992
0.187152
0.210499
0.229077
0.253276
0.284495
0.325887
0.380156
0.449271
0.533871
0.633182
0.7458
0.869387
1.00107
1.13754
1.27511
1.40979
1.5373
1.65373
1.75541
1.83927
1.90272
1.94449
1.96389
1.96152
1.93837
1.89679
1.83873
1.76742
1.68522
1.59487
1.49719
1.39426
1.28774
1.17821
1.06251
0.930864
0.78132
5.80909
5.0797
4.38259
3.66319
2.94633
2.27912
1.64161
1.05295
0.565156
0.166172
-0.1618
-0.386789
-0.505425
-0.54671
-0.517429
-0.434625
-0.331747
-0.209141
-0.100137
-0.0048292
0.0666572
0.119561
0.15858
0.189498
0.214107
0.238502
0.260841
0.287309
0.319842
0.360573
0.412484
0.477575
0.556486
0.648585
0.752764
0.866911
0.988485
1.11455
1.24175
1.36652
1.48477
1.59314
1.68789
1.76653
1.8262
1.86592
1.88446
1.88267
1.8608
1.82126
1.7658
1.69776
1.62021
1.53579
1.44623
1.35522
1.26403
1.16735
1.06116
0.945888
0.812485
6.20894
5.44784
4.71604
3.98473
3.2627
2.57485
1.92084
1.31941
0.804453
0.373788
0.0303588
-0.199219
-0.336017
-0.400784
-0.3807
-0.296224
-0.185918
-0.0694384
0.0392974
0.121161
0.179658
0.223341
0.254743
0.28016
0.29915
0.316991
0.333063
0.353236
0.378805
0.411136
0.453935
0.509217
0.577671
0.658451
0.75079
0.852571
0.961502
1.07498
1.18994
1.30329
1.41096
1.51037
1.59754
1.67098
1.72731
1.76645
1.78648
1.78924
1.77413
1.7441
1.70031
1.64629
1.58474
1.51856
1.45026
1.37751
1.2994
1.21658
1.12482
1.02007
0.89575
6.66155
5.88369
5.1267
4.38191
3.65204
2.9537
2.29204
1.68333
1.1448
0.687025
0.320141
0.0597278
-0.110954
-0.188918
-0.171044
-0.0984285
0.00161877
0.107793
0.20528
0.276282
0.317565
0.346453
0.364576
0.38166
0.391662
0.40155
0.408592
0.421566
0.43939
0.461579
0.494472
0.539101
0.596792
0.665899
0.746209
0.835407
0.931544
1.0323
1.13501
1.23713
1.33429
1.42491
1.50451
1.57292
1.62567
1.66418
1.68545
1.69251
1.68362
1.66268
1.62962
1.58849
1.54066
1.48785
1.43242
1.37502
1.31396
1.24832
1.17389
1.08623
0.97831
7.15422
6.37571
5.61043
4.86356
4.13002
3.43412
2.77517
2.17437
1.63078
1.16145
0.777229
0.490087
0.276203
0.169755
0.152771
0.190328
0.278503
0.354628
0.420437
0.47444
0.486772
0.493386
0.489421
0.497643
0.492921
0.494626
0.488337
0.494159
0.505122
0.513037
0.534604
0.568594
0.617705
0.675705
0.745237
0.822803
0.90711
0.996203
1.08795
1.18067
1.26818
1.35162
1.42376
1.48854
1.53691
1.5752
1.5963
1.60738
1.60247
1.58888
1.56272
1.5313
1.49521
1.45394
1.41134
1.36759
1.3215
1.27277
1.21564
1.14721
1.0573
7.67988
6.92103
6.15265
5.40948
4.67856
4.00319
3.36045
2.80394
2.2702
1.81979
1.4529
1.1834
0.895518
0.758624
0.710333
0.680398
0.730295
0.654268
0.655906
0.733947
0.684745
0.667386
0.6165
0.645962
0.601465
0.610509
0.565157
0.570704
0.585685
0.569186
0.565834
0.598208
0.645928
0.689019
0.750466
0.817767
0.889379
0.970929
1.05331
1.14554
1.21782
1.30539
1.3601
1.43332
1.46612
1.51387
1.5202
1.54938
1.53481
1.53609
1.50427
1.47514
1.45145
1.42043
1.39169
1.35963
1.32573
1.29603
1.25232
1.21041
1.13184
4.9233
-4.20289
-5.52312
14.7999
5.7979
19.3693
18.0677
10.7216
11.5213
29.1248
1.48741
23.6817
18.1771
2.89451
21.6675
-102.206
20.5738
12.0578
1.28434
17.5085
15.0234
3.26339
1.13421
20.1609
11.4256
17.1323
17.5757
9.40761
20.3239
6.80032
10.4643
16.7338
28.4584
1.66905
22.9661
0.678333
0.61503
57.3881
18.7144
17.5057
7.75215
-2.73446
18.0442
-88.0897
0.432433
31.5959
11.5134
3.02639
16.2097
25.3241
-3.4645
-44.6464
17.1866
9.4758
13.9232
16.2569
6.90603
7.52095
0.814707
-30.6823
3.65499
15.4999
17.0866
-8.15076
-25.7868
14.8933
0.706091
8.69686
18.8769
18.1169
15.3885
59.5793
6.57307
13.3953
13.3225
6.25387
-12.4084
44.3436
17.2568
28.0773
-0.772323
16.4832
16.7215
-36.8537
18.0059
50.3275
11.9928
1.72613
15.3218
1.57463
-13.8254
17.2529
5.10372
-30.976
-36.985
5.59748
44.1939
9.98194
25.4917
-101.324
14.526
16.1361
25.075
17.1497
18.2103
17.0867
15.1477
39.6719
19.7965
-77.7786
-108.937
15.9297
0.618303
1.4131
5.81403
2.12318
0.987519
19.5369
-7.71142
11.2571
12.8118
0.207285
11.2662
-117.599
-26.4024
10.5578
15.3056
-47.1943
-35.0099
17.8493
21.2763
-7.98064
4.29061
10.9425
2.57737
10.7228
18.1212
-52.5632
-30.553
11.6395
9.58905
-51.3264
14.8671
49.0647
1.4696
12.3913
16.6457
1.46345
31.7798
-0.504943
16.2577
16.2865
59.1359
-33.7788
-58.9684
8.79382
8.21845
-27.9062
16.6633
0.625693
16.6572
26.4097
17.5791
12.4909
14.9116
12.993
6.85329
9.7031
17.1615
0.457376
-1.73169
1.50346
5.69208
17.4027
1.47181
1.43989
1.12406
8.80564
22.4145
1.73153
1.78203
-1.1868
-31.0444
9.64369
6.41531
0.909261
-10.4801
52.1486
9.74021
11.8108
25.4695
20.2565
-16.8181
-39.1659
16.6755
-31.7097
4.08883
0.550968
21.3254
0.689423
9.77693
14.9811
13.3646
-58.7
-1.57347
20.8573
8.45703
16.085
-45.4831
0.794276
41.2976
-5.60473
16.3722
-117.199
11.0589
-77.7689
-65.2244
1.82621
33.283
1.79428
11.3344
40.1561
11.9719
16.7749
0.990316
-7.71067
-9.25801
11.6923
16.9884
59.7555
1.52963
21.4369
-5.07043
-37.7534
13.63
19.3228
3.17717
-57.3445
-46.723
19.3088
13.3332
8.70026
10.9027
15.9548
-123.375
16.684
8.29468
-98.5693
23.9392
17.43
8.82529
23.7599
1.28939
8.37615
11.3163
18.7169
25.3714
15.1856
6.54961
1.88677
15.6646
9.41697
-65.1162
18.5633
0.590015
12.7457
17.54
1.14602
17.5709
0.964284
24.0608
1.26365
22.802
11.3588
52.8669
9.88697
14.281
10.7337
15.9762
20.7369
50.3369
9.74449
-72.0107
15.2918
14.8783
18.6916
17.1669
-61.927
7.98468
7.90868
-25.9795
40.5039
14.408
17.0901
35.1497
17.4174
9.52785
4.95817
-0.677446
16.3791
10.8996
5.45413
48.4804
-3.7378
3.96924
-78.6102
21.8276
18.6637
19.4299
-100.679
9.74262
11.8153
11.4457
-12.369
16.4887
14.2041
0.855387
1.19722
7.02757
1.84426
16.4021
3.51735
15.2174
15.0102
-26.6544
1.86083
15.4501
0.840161
-90.4582
6.44286
-27.1895
-43.3089
-101.051
2.05031
1.54684
16.874
0.845596
0.935126
-124.101
35.0801
15.0275
14.778
11.987
11.5771
49.796
11.2831
-9.3854
18.8309
-70.581
14.9563
1.41631
-45.3366
-113.717
10.7197
-61.8903
8.64697
2.70952
14.4331
1.80686
2.40956
10.2633
0.583743
0.929835
-6.86714
1.14115
16.0093
6.73439
-113.664
-33.8657
3.88149
16.5923
-26.0959
-48.5698
12.6464
1.63133
15.7234
-5.59798
7.35526
1.51557
-73.9699
0.945808
-79.6286
20.2874
-89.0838
11.2413
4.76329
20.7765
1.1885
-117.158
-27.7362
47.4472
50.2371
3.23711
0.675492
17.1921
30.2791
16.7684
-0.238978
12.0449
-10.4183
17.4894
18.8191
21.978
21.4377
-7.62338
-46.6405
12.0169
-83.0406
0.251264
-11.0723
1.82856
-61.8301
-1.79837
18.7989
-123.961
9.55528
9.31782
23.1183
-52.8012
17.1712
18.2999
1.35189
17.7398
10.0236
14.3236
1.29186
35.9398
-26.0448
-51.5532
9.64961
-60.9828
9.22059
-54.2562
16.8587
15.6691
0.873334
4.07771
-93.0319
-1.57458
1.78001
-10.8026
-61.8663
-59.5166
18.3413
4.62672
-41.4409
-49.972
17.1024
2.37696
-31.6827
22.8457
12.9563
36.4044
-39.8579
-0.313435
-9.61202
0.740295
9.06705
-89.6803
2.29947
10.4256
19.9019
47.1059
2.49164
44.0673
2.05121
17.4401
1.81234
1.49533
13.7277
12.3289
0.362168
1.29404
16.8211
2.31496
1.46579
2.69169
1.46975
1.95492
1.33839
8.26302
4.68482
15.8553
15.6879
-110.668
10.0691
-67.9578
-106.833
16.2316
0.613262
2.35901
19.1371
3.7324
1.4192
16.3378
17.0195
15.0695
5.34008
-37.4794
10.5324
26.5754
13.6215
13.9533
15.5425
5.62019
0.654392
13.48
19.2735
9.51613
1.41955
13.8736
13.563
-12.6662
12.652
-0.187147
-3.38067
-4.26061
17.3576
20.032
9.40024
22.4859
3.45289
2.89098
48.7762
-21.716
-5.25121
21.9525
8.34259
1.17142
1.42294
-80.3346
-27.361
20.9804
3.17449
10.3343
0.675913
-21.035
18.7484
12.0098
-27.3017
-82.088
12.6847
-17.6493
-54.1432
4.63335
-105.255
9.27512
9.32008
9.07714
-31.6663
13.7909
-80.7244
-2.22401
13.0401
0.897941
17.4143
-0.318751
14.914
12.7854
31.7578
2.90695
0.849135
14.848
7.15489
0.685653
-46.8375
-30.0167
8.07277
-33.5264
4.75445
28.6638
1.68586
9.28545
-95.731
9.85634
8.51751
14.4026
1.45823
52.1823
1.68976
8.18088
8.50169
1.32358
1.13115
13.5998
15.6083
15.9849
9.5216
10.2197
29.2804
-76.4407
8.29056
17.8642
-31.6061
0.823981
-86.8824
13.6447
0.703932
17.7063
-55.35
4.31905
-21.0335
0.877564
0.763328
2.80433
-105.928
20.5837
17.4766
6.5675
15.9981
-26.829
-22.486
-6.40822
9.96397
9.04709
5.00243
16.3163
-0.25668
0.675038
16.2545
23.2667
1.45098
-57.382
20.9482
1.57503
20.5516
-8.22534
17.2627
36.3882
6.80162
29.5314
18.5383
-30.1986
-21.3751
-4.44206
19.1194
10.5147
-32.3933
16.13
12.5066
4.71978
5.58419
0.693205
-30.5805
40.4768
3.84653
2.07136
0.868907
-89.1952
9.52404
23.3847
15.6918
0.923314
5.23007
-22.9657
14.4758
12.3462
6.03054
1.38341
-6.84372
15.2449
2.23937
10.9264
-20.9761
1.43707
39.0093
0.893197
0.254243
8.3578
57.3223
17.0733
16.7331
1.35624
10.2037
7.20192
8.81864
10.1844
-115.644
2.02234
-34.8397
30.5677
17.5675
8.46184
19.3721
-6.18481
-10.8976
1.40108
3.95441
1.39154
12.8787
-2.61117
18.6477
-88.5421
16.7901
6.65015
2.09364
-3.46117
2.90937
-6.89025
10.6164
3.35227
0.904806
19.2709
-120.64
15.3736
17.1285
10.7399
-4.09342
18.9629
3.83345
-21.3498
15.6184
-13.7357
-97.3026
17.506
8.84135
14.5939
-63.3025
-6.49386
15.8097
42.769
12.5759
9.08128
11.5376
-110.974
-125.951
16.5601
-1.16387
-11.932
1.48048
17.8347
6.91445
-11.4372
13.7774
15.3513
0.261298
18.5656
19.5864
8.48516
14.8627
-3.01484
13.344
-5.47536
23.1863
1.70144
-4.35199
42.7389
1.08138
6.62687
21.9294
4.36843
-44.5068
24.5258
-83.8285
20.9196
1.21842
-19.4945
10.0997
-9.61164
0.696468
12.8836
13.1127
-93.7306
-40.3053
13.4968
-65.4243
-8.90383
53.6852
-15.8586
-19.9307
21.2535
0.690805
6.03359
11.8404
-55.4339
-22.5258
-4.69714
-4.07661
-6.44455
0.920001
22.6456
19.1225
13.3704
-121.658
-44.4796
27.5079
2.22018
-112.228
11.1528
14.4205
10.3946
1.07847
4.78332
1.13909
-14.7464
21.4262
-121.277
-17.1221
-85.7315
-98.2773
18.8546
25.3827
-43.7244
26.227
14.5405
12.2455
11.0491
10.326
26.0806
17.9569
2.13949
-51.6022
-30.2423
24.6154
2.22921
3.5059
13.8038
1.33606
12.9099
-53.4335
1.34948
49.2331
3.70778
22.2904
11.5613
18.6164
15.7545
-76.9396
13.0931
44.785
0.868426
1.06141
32.2411
61.1021
12.6688
13.2523
25.088
-50.5427
-15.4889
17.2884
9.97964
-91.3938
27.457
17.4254
-63.0081
15.7813
3.68062
1.33943
6.24256
-16.2603
53.7922
0.679142
-8.44552
-0.228123
17.8173
0.510467
9.51573
14.8435
17.3276
12.2062
0.877888
17.31
0.588903
30.2626
0.100222
11.3843
10.3322
16.6891
8.43556
-50.4657
9.77394
18.2241
-29.248
-70.6313
33.9967
1.53903
7.49405
16.8774
34.3083
-84.5026
9.40803
-2.77461
11.1523
16.3285
-88.4523
17.3251
9.71396
50.062
29.8349
-19.4691
4.30518
15.8588
17.2618
-65.4486
-4.27752
10.1111
14.8804
1.19769
17.6209
-127.764
7.50492
0.782833
10.5289
18.8298
0.0786759
14.7059
23.0257
24.9012
4.59199
-0.583597
17.8963
20.714
17.455
20.3595
10.7658
18.1814
-70.6648
2.43142
18.1179
-25.5404
14.1006
7.1525
19.6615
11.6457
-62.2509
10.7206
5.10727
18.946
-20.6159
16.7423
-24.5827
-104.279
1.60491
1.36897
-47.689
16.216
18.4656
-21.52
-104.43
1.19405
-14.2812
15.8999
-82.5141
13.3845
16.6092
18.338
-18.1649
6.91847
9.50576
-28.568
17.4107
8.54329
-85.0508
10.5129
-119.392
47.0285
11.6629
18.2797
6.37957
16.878
-9.16315
-6.13454
20.1391
-18.2069
5.75041
12.8614
-38.1043
4.81647
17.5729
-49.2324
14.8721
2.00178
-67.5271
-13.8122
17.2519
19.3484
14.7544
62.1723
8.57272
-2.51781
-23.7914
15.6484
-11.6345
15.446
5.42204
15.5738
0.729135
9.81308
0.635803
-14.0477
58.9104
7.31043
59.2823
6.97882
12.7665
3.98161
20.0205
-9.40446
17.9067
11.1065
1.68798
59.8238
16.8598
9.06021
-8.51767
0.569205
-109.008
15.9059
-5.66209
10.469
-21.6811
-61.7033
0.94386
-73.5276
9.49007
2.94218
-25.8037
18.3896
15.7655
14.142
12.2976
21.4153
16.2482
12.7797
17.6613
1.16086
-68.6057
17.6871
20.2903
17.8371
7.9267
-73.1799
1.25679
-24.39
15.7029
-43.3783
0.804844
25.0628
-67.2779
17.0756
0.682336
40.208
1.40328
22.8336
4.10497
1.85469
16.0433
10.4328
-107.349
13.6491
-1.11001
-39.2743
1.46719
15.8802
11.0329
30.9443
2.76884
1.40453
-79.0469
15.8936
16.5006
17.0182
-20.0813
-36.0649
13.9823
12.753
15.1429
1.1372
1.66879
49.365
0.688693
-65.9244
2.07366
-59.1102
0.724703
0.621648
32.3766
50.9338
12.9988
60.1023
45.3967
18.3926
17.7064
6.30425
14.513
18.6042
2.197
1.8422
19.7198
1.61811
10.2387
19.2257
8.95525
18.5684
28.8193
1.53538
-5.37694
-120.682
17.9428
12.0586
-50.6623
7.68197
22.4714
14.0386
10.9172
2.40537
17.3711
-2.23704
1.59656
30.4051
12.8034
0.956946
16.7876
17.4594
15.6731
5.73792
15.5422
17.0238
-3.5667
18.5702
20.6677
-76.1484
-28.5852
-18.4234
14.7271
1.62631
-50.6172
17.0919
1.51013
1.07362
-126.069
0.643811
16.8334
8.73449
31.4625
-1.15578
1.16016
9.12068
46.433
1.62236
16.1665
1.01656
16.6514
53.9748
14.2075
-20.9652
16.8824
0.893377
-69.5976
15.7062
42.3522
4.12729
13.0513
18.8235
29.4683
10.978
19.782
1.95623
16.2238
10.6179
-123.257
4.42659
18.685
20.0051
-65.1258
-82.1314
16.8944
18.1741
12.5162
11.3955
-59.7611
24.6634
-58.8654
17.8591
11.3168
17.4999
-12.0741
5.67792
17.4787
0.904688
1.482
-89.1703
-60.8939
8.2188
-2.53699
-74.8236
18.3856
18.4718
18.5482
7.46073
18.9731
2.44719
18.2652
9.52774
-1.59777
-25.1272
2.40002
12.7337
1.50329
36.4142
16.7503
19.6471
-104.005
15.5943
15.5683
20.1507
12.4758
-73.51
-6.82782
1.6357
17.2598
17.0857
17.7337
-3.94376
20.3027
-17.6642
8.38222
8.44879
13.533
9.43677
15.6673
11.0086
10.6008
9.76669
-1.71906
-10.3053
2.79499
-86.4666
11.8705
16.7995
0.926212
-91.0988
41.2938
2.1961
23.7547
15.9915
13.1451
11.833
16.6442
60.8373
-8.28993
1.2086
-94.9795
16.8237
27.9283
-37.174
3.4718
-51.6729
1.22186
31.0103
1.59498
16.7227
-22.7773
-13.2575
-38.2096
-8.39521
17.8531
1.39559
7.72551
22.4919
13.2482
19.5085
8.84198
56.7982
20.5286
16.6606
43.967
10.7274
15.7213
18.5443
20.3565
-10.5995
1.19322