/*--------------------------------*- C++ -*----------------------------------*\
| =========                 |                                                 |
| \\      /  F ield         | OpenFOAM: The Open Source CFD Toolbox           |
|  \\    /   O peration     | Version:  2.3.1                                 |
|   \\  /    A nd           | Web:      www.OpenFOAM.org                      |
|    \\/     M anipulation  |                                                 |
\*---------------------------------------------------------------------------*/
FoamFile
{
    version     2.0;
    format      ascii;
    class       volVectorField;
    location    "0.47";
    object      U;
}
// * * * * * * * * * * * * * * * * * * * * * * * * * * * * * * * * * * * * * //

dimensions      [0 1 -1 0 0 0 0];

internalField   nonuniform List<vector> 
9648
(
(0.161039 -4.81828 -1.53039e-22)
(0.283321 -4.78486 -6.05032e-23)
(0.404944 -4.75207 0)
(0.526318 -4.72199 0)
(0.648193 -4.69644 9.23804e-21)
(0.77093 -4.67697 1.42744e-20)
(0.896695 -4.66619 -2.64911e-20)
(1.02818 -4.66759 -1.23625e-20)
(1.16734 -4.68213 1.23338e-20)
(1.31405 -4.71174 3.77494e-20)
(1.47034 -4.75826 -3.75979e-20)
(1.63807 -4.82283 -5.4456e-20)
(1.81927 -4.90608 2.89795e-19)
(2.01602 -5.00801 7.51604e-20)
(2.23004 -5.12786 -7.05591e-19)
(2.46262 -5.26442 0)
(2.71495 -5.41599 0)
(2.9879 -5.58051 1.28796e-19)
(3.28215 -5.75532 4.15343e-19)
(3.59783 -5.93763 -1.19601e-18)
(3.93498 -6.12486 -2.09295e-20)
(4.29348 -6.31393 3.29921e-19)
(4.67261 -6.50195 3.90311e-19)
(5.07165 -6.68611 -1.77518e-18)
(5.48963 -6.86363 0)
(5.92561 -7.03186 1.06375e-18)
(6.37825 -7.18841 -1.11572e-18)
(6.8464 -7.33132 0)
(7.32849 -7.45827 0)
(7.82281 -7.56749 -6.77484e-19)
(8.32789 -7.65724 -1.49982e-18)
(8.84177 -7.72602 2.35598e-18)
(9.36307 -7.77279 0)
(9.88998 -7.79637 0)
(10.4207 -7.79606 1.80704e-18)
(10.9536 -7.77098 -1.94504e-18)
(11.4866 -7.72065 0)
(12.0184 -7.64481 4.17781e-18)
(12.547 -7.54305 1.12724e-18)
(13.0708 -7.41525 -3.33739e-18)
(13.5877 -7.26144 6.28918e-20)
(14.0964 -7.0821 2.37563e-18)
(14.5954 -6.8771 -3.15641e-18)
(15.0825 -6.64697 6.34954e-19)
(15.5568 -6.39248 0)
(16.0169 -6.11375 0)
(16.4611 -5.81149 4.79233e-18)
(16.8881 -5.4865 7.01397e-19)
(17.2974 -5.13974 -2.16779e-18)
(17.6882 -4.77122 -7.29772e-19)
(18.0585 -4.38141 -7.59225e-19)
(18.4066 -3.97274 7.54487e-19)
(18.732 -3.54695 3.89852e-19)
(19.034 -3.1048 -3.8773e-19)
(19.3115 -2.64801 1.97947e-18)
(19.5639 -2.17765 -1.9493e-18)
(19.7905 -1.69518 -2.16338e-20)
(19.9907 -1.20181 0)
(20.164 -0.698989 -3.96072e-19)
(20.3101 -0.188397 -5.12273e-20)
(20.4289 0.328758 -4.85786e-20)
(-0.0661944 -2.52533 2.04682e-22)
(0.00294113 -2.52691 0)
(0.0737584 -2.53923 0)
(0.148105 -2.56273 4.45771e-21)
(0.226743 -2.60499 -5.14852e-21)
(0.313947 -2.66961 -3.39226e-20)
(0.411881 -2.7566 0)
(0.522173 -2.86335 0)
(0.647055 -2.99001 -4.20307e-20)
(0.786885 -3.13735 0)
(0.942853 -3.30409 -1.02232e-19)
(1.11575 -3.48869 8.08508e-20)
(1.3065 -3.68983 -4.37843e-20)
(1.51607 -3.9058 0)
(1.74524 -4.13465 2.74813e-19)
(1.99432 -4.3743 1.62976e-19)
(2.26367 -4.62249 -1.60343e-19)
(2.55343 -4.87694 2.08832e-19)
(2.8638 -5.13506 -6.36382e-19)
(3.19455 -5.39435 5.07367e-19)
(3.54539 -5.65251 -5.62277e-19)
(3.91609 -5.90702 -3.03106e-19)
(4.30579 -6.15559 -3.11001e-19)
(4.71379 -6.39592 1.06963e-18)
(5.13906 -6.62563 3.70449e-19)
(5.58072 -6.84256 4.4071e-19)
(6.03779 -7.04484 -3.90666e-19)
(6.50895 -7.23074 0)
(6.99311 -7.39845 0)
(7.48849 -7.54636 0)
(7.99376 -7.673 0)
(8.50731 -7.77714 0)
(9.02758 -7.85783 0)
(9.55331 -7.91426 0)
(10.0826 -7.94579 -8.10182e-19)
(10.6139 -7.95162 7.35829e-19)
(11.1456 -7.93142 8.11938e-19)
(11.6759 -7.88487 -4.12485e-18)
(12.2035 -7.81165 -8.75788e-19)
(12.7265 -7.7117 2.69347e-18)
(13.2432 -7.58513 1.89048e-18)
(13.7521 -7.43236 -1.95146e-18)
(14.2516 -7.25328 9.32071e-19)
(14.7401 -7.04857 9.83786e-19)
(15.216 -6.81885 -1.04611e-18)
(15.6782 -6.56436 1.03678e-18)
(16.125 -6.28594 -2.22284e-18)
(16.5552 -5.98443 0)
(16.9673 -5.66081 -5.68015e-19)
(17.3607 -5.31522 1.14145e-18)
(17.7347 -4.94825 -5.73595e-19)
(18.088 -4.56181 0)
(18.4194 -4.15729 1.17926e-18)
(18.7281 -3.7355 0)
(19.0131 -3.29789 0)
(19.2737 -2.84564 2.79598e-18)
(19.509 -2.38005 -1.26024e-18)
(19.7186 -1.90273 -3.06625e-19)
(19.9019 -1.41455 3.23647e-19)
(20.0584 -0.917245 0)
(20.1878 -0.412055 8.13972e-20)
(0.0471402 -1.46892 -3.50482e-22)
(0.103444 -1.51108 0)
(0.166059 -1.5697 -8.6022e-23)
(0.235967 -1.65015 -2.92048e-22)
(0.313572 -1.7504 0)
(0.402341 -1.8689 2.86114e-20)
(0.50371 -2.00768 1.97466e-20)
(0.61898 -2.16583 0)
(0.749546 -2.34306 2.19856e-21)
(0.897337 -2.53796 4.34115e-20)
(1.06334 -2.74946 8.72585e-20)
(1.24822 -2.97562 -3.02951e-20)
(1.45254 -3.21465 0)
(1.67666 -3.46446 0)
(1.92086 -3.72292 2.0872e-19)
(2.18509 -3.98793 -1.33089e-19)
(2.46935 -4.25722 -1.42716e-19)
(2.77343 -4.52857 0)
(3.09712 -4.79964 5.51101e-19)
(3.44009 -5.0682 -5.72601e-19)
(3.80187 -5.33219 -4.28547e-19)
(4.18197 -5.58959 -4.72138e-19)
(4.5796 -5.83851 0)
(4.99385 -6.07694 -8.46569e-19)
(5.4238 -6.30285 -2.97769e-19)
(5.86845 -6.51427 3.54175e-19)
(6.32668 -6.70948 3.91273e-19)
(6.79751 -6.88702 0)
(7.27944 -7.04526 0)
(7.77118 -7.18302 0)
(8.27134 -7.29907 0)
(8.77835 -7.39243 0)
(9.29104 -7.46237 0)
(9.80777 -7.50816 0)
(10.3269 -7.52921 -1.77541e-18)
(10.8469 -7.52489 5.898e-19)
(11.3661 -7.49486 -6.5089e-19)
(11.8831 -7.43888 3.27584e-18)
(12.3963 -7.35682 0)
(12.9042 -7.24876 1.39415e-18)
(13.4051 -7.11489 1.44214e-18)
(13.8975 -6.95552 7.14517e-19)
(14.3799 -6.77077 -8.18941e-19)
(14.8508 -6.56118 -1.57736e-18)
(15.3088 -6.32729 2.45813e-18)
(15.7527 -6.06961 -8.31508e-19)
(16.1811 -5.78892 -1.69655e-18)
(16.5928 -5.48603 0)
(16.9867 -5.16193 0)
(17.3615 -4.8176 -4.63257e-19)
(17.7163 -4.45418 -4.52997e-19)
(18.0503 -4.07254 -9.26533e-19)
(18.3628 -3.67377 -9.69913e-19)
(18.6526 -3.25929 0)
(18.9191 -2.82989 -9.5944e-19)
(19.1615 -2.3873 -9.99933e-19)
(19.3793 -1.93227 0)
(19.5718 -1.46695 1.62235e-20)
(19.7383 -0.991683 0)
(19.8788 -0.508219 0)
(19.9929 -0.0175744 -6.19632e-20)
(0.0151691 -0.962272 7.19409e-22)
(0.0736438 -1.04129 -1.06267e-21)
(0.144173 -1.13831 6.71065e-22)
(0.226114 -1.25342 -1.6359e-21)
(0.319951 -1.38605 0)
(0.425827 -1.53609 -1.19218e-20)
(0.545054 -1.70381 -1.70695e-20)
(0.678838 -1.88881 0)
(0.828513 -2.09036 3.06763e-21)
(0.994975 -2.30733 -3.71418e-20)
(1.17908 -2.53832 8.36172e-20)
(1.38121 -2.78164 1.01474e-19)
(1.60171 -3.03531 0)
(1.84083 -3.29729 -8.0444e-20)
(2.0988 -3.56557 -1.70714e-19)
(2.37541 -3.83811 -9.09747e-20)
(2.67054 -4.1128 3.51099e-19)
(2.98396 -4.38749 -2.539e-19)
(3.31529 -4.66004 2.85013e-19)
(3.66426 -4.9284 4.86133e-19)
(4.03051 -5.19084 7.03898e-19)
(4.41337 -5.4457 3.97072e-19)
(4.8122 -5.69132 1.90777e-19)
(5.22603 -5.9259 6.94115e-19)
(5.6539 -6.14734 2.27887e-19)
(6.09482 -6.3539 2.59499e-19)
(6.54793 -6.54397 3.06502e-19)
(7.01208 -6.71608 -9.17567e-19)
(7.48631 -6.86921 6.58806e-19)
(7.96912 -7.00203 7.44494e-19)
(8.45936 -7.11373 -1.52214e-18)
(8.95575 -7.20346 7.77303e-19)
(9.45676 -7.27038 -8.33151e-19)
(9.96134 -7.31397 4.15277e-19)
(10.4676 -7.33353 4.55238e-19)
(10.9742 -7.32843 5.05341e-19)
(11.4795 -7.29829 -4.98904e-19)
(11.9823 -7.24302 -5.43692e-19)
(12.4811 -7.16254 -1.63002e-18)
(12.9744 -7.05694 -1.17618e-18)
(13.4607 -6.92649 -2.38481e-18)
(13.9386 -6.77138 -3.08999e-18)
(14.4065 -6.5919 1.26703e-18)
(14.8631 -6.38843 2.86386e-20)
(15.3072 -6.1615 -7.09787e-19)
(15.7373 -5.91167 -6.96357e-19)
(16.1523 -5.63959 4.21014e-18)
(16.5511 -5.34606 -7.05682e-19)
(16.9325 -5.03186 0)
(17.2956 -4.69791 0)
(17.6394 -4.34523 -7.09007e-19)
(17.963 -3.975 3.16261e-20)
(18.2656 -3.58821 7.6082e-19)
(18.5464 -3.18602 0)
(18.8046 -2.76968 8.10327e-19)
(19.0394 -2.34052 0)
(19.2503 -1.8997 0)
(19.4366 -1.44816 6.17655e-19)
(19.5981 -0.987472 1.96474e-19)
(19.7343 -0.51907 -2.0021e-19)
(19.8449 -0.0444308 1.02453e-19)
(0.104361 -0.709297 4.19544e-23)
(0.164435 -0.81061 9.29121e-22)
(0.238252 -0.927681 -1.75552e-21)
(0.32639 -1.0614 4.27603e-22)
(0.42876 -1.21196 -2.09549e-21)
(0.545969 -1.37912 4.76499e-21)
(0.678504 -1.56262 2.30824e-21)
(0.826938 -1.76169 -1.24311e-20)
(0.992214 -1.97549 3.83091e-20)
(1.17447 -2.2028 -5.54958e-20)
(1.37427 -2.44213 6.26271e-20)
(1.5914 -2.69181 -7.83099e-20)
(1.8261 -2.94982 -4.53026e-20)
(2.07825 -3.21419 0)
(2.34817 -3.4829 8.36771e-20)
(2.63531 -3.75425 8.02202e-20)
(2.93949 -4.02616 0)
(3.26047 -4.29658 1.99019e-19)
(3.59772 -4.56357 0)
(3.95111 -4.82518 -2.64372e-19)
(4.32032 -5.08003 2.88695e-19)
(4.70463 -5.32681 9.87861e-21)
(5.10351 -5.5639 -1.72501e-20)
(5.51564 -5.78959 2.90946e-20)
(5.94027 -6.0018 -8.11284e-19)
(6.37652 -6.19877 -4.66683e-19)
(6.8233 -6.3791 9.60862e-19)
(7.28035 -6.54164 1.04352e-18)
(7.74602 -6.68545 -5.64214e-19)
(8.21948 -6.80966 0)
(8.69957 -6.9134 0)
(9.18454 -6.99592 0)
(9.67364 -7.0564 7.14745e-19)
(10.1652 -7.09404 -2.95218e-18)
(10.6579 -7.10837 1.54511e-18)
(11.1501 -7.09874 -7.85758e-19)
(11.6407 -7.06478 -1.6956e-18)
(12.1285 -7.00656 1.71998e-18)
(12.612 -6.924 3.95929e-20)
(13.09 -6.81724 -9.7143e-19)
(13.5609 -6.68662 1.00351e-18)
(14.0232 -6.53228 1.03791e-18)
(14.4756 -6.35451 0)
(14.9167 -6.15362 -1.05434e-18)
(15.3454 -5.93016 0)
(15.7604 -5.68466 -1.68493e-18)
(16.1606 -5.41778 5.20877e-19)
(16.5448 -5.13022 0)
(16.9121 -4.82268 -6.1125e-19)
(17.2614 -4.49619 -1.47167e-20)
(17.592 -4.15155 1.30223e-18)
(17.9029 -3.78994 -6.1889e-19)
(18.1934 -3.41243 -3.44266e-19)
(18.4628 -3.02013 6.30334e-19)
(18.7103 -2.61438 -4.85468e-21)
(18.935 -2.19619 3.28751e-19)
(19.1362 -1.76683 1.58825e-19)
(19.3136 -1.32724 3.35251e-19)
(19.467 -0.878645 -8.42265e-19)
(19.5958 -0.422533 3.3832e-19)
(19.6998 0.0395431 -4.3293e-20)
(0.183106 -0.573367 -3.5043e-22)
(0.255905 -0.69026 0)
(0.343672 -0.822038 2.66621e-21)
(0.446988 -0.969526 0)
(0.565036 -1.13275 2.59162e-22)
(0.698744 -1.31121 5.83693e-21)
(0.848241 -1.50453 7.40497e-21)
(1.01385 -1.71161 2.4255e-20)
(1.1964 -1.93155 3.72027e-21)
(1.39534 -2.1632 5.6962e-21)
(1.6113 -2.40499 1.09411e-21)
(1.84338 -2.65543 -2.96907e-20)
(2.09197 -2.91249 4.40168e-20)
(2.35621 -3.17416 -1.34143e-19)
(2.63717 -3.4385 1.14563e-19)
(2.93384 -3.70434 -8.34832e-21)
(3.24578 -3.96939 -1.42358e-19)
(3.57311 -4.23184 -1.71901e-19)
(3.91485 -4.48988 0)
(4.27115 -4.74166 2.0529e-19)
(4.64209 -4.98622 8.02604e-21)
(5.02642 -5.2225 -5.31743e-19)
(5.42392 -5.44884 -2.29563e-20)
(5.83312 -5.66364 -2.87725e-19)
(6.25287 -5.86444 1.01963e-18)
(6.68278 -6.04993 3.56715e-20)
(7.12206 -6.21892 -3.79988e-19)
(7.57012 -6.37042 -3.91784e-20)
(8.02659 -6.50432 0)
(8.48952 -6.61928 0)
(8.95824 -6.71471 0)
(9.43112 -6.78983 0)
(9.90632 -6.84322 0)
(10.3837 -6.87438 5.65958e-20)
(10.8613 -6.88288 -6.62077e-19)
(11.3377 -6.86835 -3.88084e-20)
(11.8123 -6.83014 2.84067e-20)
(12.2837 -6.76883 6.8377e-19)
(12.7508 -6.6841 1.56266e-18)
(13.2123 -6.57619 -2.35715e-18)
(13.6666 -6.4456 1.6409e-18)
(14.1124 -6.29233 -8.28389e-19)
(14.5481 -6.11677 0)
(14.9727 -5.91892 9.206e-19)
(15.3851 -5.69946 0)
(15.784 -5.45893 9.69464e-19)
(16.1685 -5.19777 -9.92159e-19)
(16.5372 -4.91703 4.66078e-19)
(16.8894 -4.61697 4.97896e-19)
(17.2242 -4.29864 -5.19693e-19)
(17.5408 -3.96289 3.70802e-20)
(17.8384 -3.61095 -1.06668e-20)
(18.1163 -3.24355 1.05732e-18)
(18.3738 -2.86212 -1.08832e-18)
(18.6102 -2.46786 -5.37035e-19)
(18.8244 -2.06208 -2.62948e-19)
(19.0158 -1.64557 -8.36565e-19)
(19.1841 -1.21915 0)
(19.3291 -0.783933 5.65227e-19)
(19.4506 -0.341752 -1.4512e-19)
(19.5482 0.106127 0)
(0.283363 -0.506042 0)
(0.369995 -0.633988 0)
(0.472858 -0.776806 -1.39597e-21)
(0.593358 -0.934893 1.27329e-21)
(0.7286 -1.1077 -1.68986e-21)
(0.880461 -1.29413 -9.37003e-21)
(1.04817 -1.49374 5.13492e-21)
(1.23136 -1.70507 -1.69237e-20)
(1.43205 -1.92746 -1.23374e-21)
(1.64751 -2.15977 4.54859e-20)
(1.87995 -2.40046 -8.48705e-20)
(2.12647 -2.64842 0)
(2.38869 -2.9013 0)
(2.66381 -3.15734 1.52589e-19)
(2.9554 -3.4141 9.79867e-20)
(3.26075 -3.67183 -2.16248e-19)
(3.5793 -3.92763 3.51027e-19)
(3.91224 -4.17974 1.47415e-19)
(4.25722 -4.42718 -2.95022e-19)
(4.61522 -4.66735 -1.78911e-19)
(4.98733 -4.89974 2.05249e-19)
(5.37028 -5.12436 -5.93266e-21)
(5.76602 -5.33805 0)
(6.17078 -5.5404 5.29657e-19)
(6.58457 -5.7286 -8.76189e-19)
(7.00746 -5.90113 2.92322e-19)
(7.43744 -6.05826 6.48804e-19)
(7.87686 -6.19831 -1.80032e-18)
(8.32282 -6.32146 3.66395e-19)
(8.77427 -6.42727 0)
(9.2311 -6.51349 0)
(9.68986 -6.58048 0)
(10.1503 -6.6264 5.01737e-19)
(10.6122 -6.64964 1.55473e-18)
(11.0739 -6.65176 -1.05206e-18)
(11.5331 -6.63233 5.80537e-19)
(11.9909 -6.58927 6.36062e-19)
(12.4453 -6.5245 -1.26182e-18)
(12.8946 -6.43732 0)
(13.3389 -6.32773 -1.2961e-18)
(13.7756 -6.19698 6.73055e-19)
(14.2039 -6.04458 3.48211e-20)
(14.6217 -5.87139 -3.14203e-20)
(15.0288 -5.67637 7.4185e-19)
(15.424 -5.4608 3.13768e-20)
(15.8057 -5.22551 -2.37015e-18)
(16.1736 -4.97008 8.03105e-19)
(16.5258 -4.69635 -1.66849e-18)
(16.862 -4.40369 0)
(17.1811 -4.09395 0)
(17.4829 -3.76704 1.76237e-18)
(17.7661 -3.42522 -4.21035e-19)
(18.0303 -3.06837 -9.1329e-19)
(18.2753 -2.69777 -4.39081e-19)
(18.4999 -2.31553 1.40205e-18)
(18.703 -1.92266 7.07282e-19)
(18.8839 -1.51944 2.44494e-19)
(19.0421 -1.10703 -4.5807e-21)
(19.178 -0.685526 -2.44648e-19)
(19.2918 -0.25738 0)
(19.3826 0.175544 0)
(0.400255 -0.482116 3.85899e-22)
(0.504233 -0.618001 0)
(0.623534 -0.768759 0)
(0.763955 -0.934977 -8.97224e-22)
(0.916851 -1.1149 0)
(1.08788 -1.30657 2.77097e-21)
(1.27405 -1.50966 5.01163e-21)
(1.47388 -1.72226 -1.03993e-20)
(1.69393 -1.94433 0)
(1.92457 -2.17472 -2.72521e-20)
(2.17451 -2.41191 3.89711e-21)
(2.4339 -2.65545 0)
(2.71055 -2.90227 0)
(2.99358 -3.15113 -6.41386e-20)
(3.29616 -3.39723 7.0146e-20)
(3.60996 -3.64557 -8.82659e-20)
(3.93322 -3.89073 -1.01778e-19)
(4.27177 -4.13102 0)
(4.61866 -4.36753 1.3196e-19)
(4.97687 -4.59484 -2.78256e-19)
(5.35093 -4.81393 -3.10907e-19)
(5.73011 -5.02633 -3.64411e-19)
(6.12393 -5.2253 -3.32726e-20)
(6.52349 -5.4153 -4.68374e-19)
(6.93042 -5.58987 4.47671e-19)
(7.34674 -5.74934 5.02746e-19)
(7.76621 -5.89536 -5.71018e-19)
(8.19596 -6.02243 3.21104e-20)
(8.63182 -6.1358 4.19066e-20)
(9.06929 -6.23194 -6.54233e-19)
(9.51303 -6.30739 0)
(9.95668 -6.36634 -7.97703e-19)
(10.3998 -6.40311 1.58315e-18)
(10.846 -6.41739 -4.32534e-20)
(11.2921 -6.41373 9.29965e-19)
(11.7326 -6.39065 -9.26074e-19)
(12.1736 -6.34156 1.02025e-18)
(12.6098 -6.27365 1.06426e-18)
(13.0402 -6.18428 -2.10338e-18)
(13.4663 -6.07222 1.15018e-18)
(13.884 -5.94191 1.13143e-18)
(14.2943 -5.79 1.78723e-18)
(14.6926 -5.6196 -6.36225e-19)
(15.0812 -5.42629 0)
(15.4584 -5.21473 3.40401e-20)
(15.8213 -4.9857 6.91361e-19)
(16.1722 -4.73561 -6.72168e-19)
(16.5061 -4.47029 7.23754e-19)
(16.8254 -4.18498 0)
(17.1273 -3.88488 0)
(17.4136 -3.56671 -3.95747e-20)
(17.6814 -3.23605 7.77537e-19)
(17.9306 -2.88907 0)
(18.1622 -2.52911 3.86227e-19)
(18.3747 -2.16003 3.89586e-19)
(18.5661 -1.78118 -7.93701e-19)
(18.736 -1.39185 -3.89354e-19)
(18.8826 -0.994556 -2.06854e-19)
(19.0083 -0.5863 0)
(19.1142 -0.173245 0)
(19.1974 0.243276 2.47754e-20)
(0.533781 -0.485768 -1.08657e-21)
(0.661567 -0.62621 2.23487e-21)
(0.797078 -0.780286 -1.50142e-24)
(0.96374 -0.952445 -2.16376e-21)
(1.13074 -1.136 2.8247e-21)
(1.32068 -1.33247 -1.53149e-21)
(1.52606 -1.53494 0)
(1.73876 -1.74469 1.44589e-21)
(1.98329 -1.96497 -1.27992e-20)
(2.22328 -2.18999 0)
(2.4964 -2.42252 5.58232e-20)
(2.76147 -2.66114 -3.51681e-20)
(3.05604 -2.90205 3.58597e-20)
(3.3396 -3.14397 4.60828e-20)
(3.65577 -3.37375 -6.06691e-20)
(3.97765 -3.61384 -7.44182e-20)
(4.30147 -3.84831 2.46261e-19)
(4.65004 -4.07327 -2.56981e-19)
(4.99227 -4.30151 0)
(5.34567 -4.51769 -8.41822e-21)
(5.72805 -4.72213 7.63845e-19)
(6.09573 -4.92454 -2.90541e-20)
(6.49551 -5.10297 -3.64987e-19)
(6.88367 -5.28295 6.9931e-19)
(7.28154 -5.4473 0)
(7.69508 -5.59441 -4.34025e-19)
(8.097 -5.7317 -4.41231e-19)
(8.51936 -5.84549 9.7807e-19)
(8.94581 -5.94846 -5.49741e-21)
(9.36504 -6.03574 5.78209e-19)
(9.79797 -6.09721 -1.18465e-18)
(10.2213 -6.14994 1.88643e-18)
(10.6453 -6.17986 -1.3552e-18)
(11.0765 -6.18538 -1.42147e-18)
(11.5105 -6.1749 0)
(11.9278 -6.14896 8.10873e-19)
(12.3587 -6.09107 0)
(12.7729 -6.02326 -2.8171e-21)
(13.1812 -5.93377 9.60047e-19)
(13.5917 -5.81622 -1.78689e-18)
(13.9877 -5.68547 -6.47477e-21)
(14.3811 -5.53429 -1.97514e-18)
(14.7539 -5.36954 0)
(15.1231 -5.17915 -5.65975e-19)
(15.4832 -4.97289 2.17115e-18)
(15.8226 -4.7513 -5.52183e-19)
(16.1602 -4.50597 5.84908e-19)
(16.472 -4.25024 0)
(16.7763 -3.97127 6.02064e-19)
(17.0584 -3.67995 -1.81704e-18)
(17.3301 -3.36678 -2.5351e-20)
(17.5809 -3.04744 0)
(17.8122 -2.71318 6.24587e-19)
(18.031 -2.36435 -1.87628e-20)
(18.2325 -2.00602 0)
(18.4091 -1.63971 3.52073e-19)
(18.5698 -1.27191 -3.19651e-19)
(18.7022 -0.891854 3.35239e-19)
(18.8159 -0.498032 3.3255e-19)
(18.9167 -0.0964374 -1.66982e-19)
(18.9892 0.304289 -6.32024e-20)
(20.5196 0.851553 1.51125e-19)
(20.5818 1.37827 -5.1236e-20)
(20.6159 1.90843 0)
(20.6219 2.4396 0)
(20.6001 2.96999 8.14487e-19)
(20.5509 3.49848 1.17211e-18)
(20.4741 4.02331 -1.20698e-18)
(20.3702 4.54302 -3.97837e-19)
(20.2391 5.05609 3.97769e-19)
(20.0814 5.56147 7.78654e-19)
(19.8975 6.05854 -7.79095e-19)
(19.6874 6.54548 -7.57677e-19)
(19.4526 7.0212 3.76851e-18)
(19.1943 7.48456 7.33086e-19)
(18.913 7.93408 -6.46942e-18)
(18.6093 8.36823 0)
(18.284 8.7861 0)
(17.9384 9.18674 6.73205e-19)
(17.5733 9.56959 1.98862e-18)
(17.1893 9.9333 -5.11244e-18)
(16.7882 10.2772 -7.47747e-20)
(16.3706 10.6009 1.17208e-18)
(15.9376 10.9031 1.20597e-18)
(15.4903 11.1834 -4.50103e-18)
(15.0303 11.4416 0)
(14.5584 11.6778 2.11477e-18)
(14.075 11.8913 -1.96005e-18)
(13.582 12.0806 0)
(13.0809 12.2451 0)
(12.5736 12.3846 -8.98536e-19)
(12.0611 12.4992 -1.6434e-18)
(11.5448 12.5884 2.34288e-18)
(11.0261 12.6525 0)
(10.5061 12.6915 0)
(9.98643 12.7052 1.18379e-18)
(9.46805 12.6941 -1.12583e-18)
(8.95236 12.658 0)
(8.44067 12.5976 1.77694e-18)
(7.93399 12.5131 3.70757e-19)
(7.4336 12.4048 -1.02622e-18)
(6.9407 12.2731 3.56071e-20)
(6.45671 12.1187 4.34178e-19)
(5.98242 11.9424 -4.31012e-19)
(5.51902 11.7443 7.55967e-20)
(5.06769 11.5256 0)
(4.62916 11.2868 0)
(4.20449 11.0287 -1.63905e-19)
(3.79458 10.7521 -3.59162e-20)
(3.40046 10.4579 2.17499e-19)
(3.02282 10.1475 9.07607e-20)
(2.66228 9.82143 1.42645e-19)
(2.31967 9.4807 -1.44504e-19)
(1.99576 9.12656 -9.70426e-20)
(1.69085 8.76019 9.83663e-20)
(1.40564 8.38251 -5.88185e-19)
(1.14056 7.99496 6.4208e-19)
(0.89602 7.59866 -1.33527e-21)
(0.672333 7.19512 0)
(0.469672 6.78539 1.63747e-19)
(0.288393 6.37056 2.22515e-20)
(0.128581 5.95187 2.35577e-20)
(20.2894 0.0994238 -8.14845e-20)
(20.3626 0.615171 0)
(20.4079 1.13262 0)
(20.426 1.6514 9.35943e-19)
(20.4165 2.17019 -6.25864e-19)
(20.3799 2.6878 -2.20564e-18)
(20.3163 3.20258 0)
(20.2259 3.71333 0)
(20.1087 4.21858 -1.20149e-18)
(19.9649 4.71671 0)
(19.7949 5.2071 -1.76087e-18)
(19.5992 5.68748 1.16837e-18)
(19.3791 6.15603 -5.8003e-19)
(19.136 6.61239 0)
(18.8698 7.05619 2.29462e-18)
(18.5811 7.48611 1.07497e-18)
(18.2705 7.90096 -1.0771e-18)
(17.9392 8.29956 1.02482e-18)
(17.5879 8.68126 -3.02852e-18)
(17.2177 9.04486 2.03967e-18)
(16.8298 9.38923 -1.98116e-18)
(16.4252 9.71392 -1.0101e-18)
(16.0049 10.0177 -9.13791e-19)
(15.5702 10.2999 2.65177e-18)
(15.1222 10.5596 8.50014e-19)
(14.6618 10.7969 7.78022e-19)
(14.1901 11.0118 -7.03052e-19)
(13.7089 11.2034 0)
(13.2194 11.371 0)
(12.723 11.5139 0)
(12.2209 11.6323 0)
(11.7144 11.7259 0)
(11.205 11.7944 0)
(10.6938 11.838 0)
(10.1824 11.8565 -4.91556e-19)
(9.67178 11.8502 4.36436e-19)
(9.16345 11.8189 3.49945e-19)
(8.65857 11.7632 -1.69904e-18)
(8.15826 11.6833 -2.65597e-19)
(7.66386 11.5794 7.92533e-19)
(7.1766 11.452 4.36905e-19)
(6.69783 11.3017 -3.49185e-19)
(6.22843 11.129 1.3001e-19)
(5.76976 10.9344 9.57711e-20)
(5.3229 10.7185 -9.27946e-21)
(4.88867 10.4822 9.38348e-21)
(4.46815 10.226 8.94006e-20)
(4.0623 9.95086 0)
(3.67218 9.65764 7.96855e-20)
(3.29858 9.34735 -1.81006e-19)
(2.94215 9.02086 1.01611e-19)
(2.60383 8.67906 0)
(2.28444 8.32308 -3.03694e-19)
(1.98426 7.95408 0)
(1.7042 7.573 0)
(1.44451 7.18125 -9.45426e-19)
(1.20583 6.78002 4.5624e-19)
(0.988363 6.37072 1.26189e-19)
(0.792685 5.95436 -1.32034e-19)
(0.619106 5.53221 0)
(0.467864 5.10551 -3.72656e-20)
(20.0806 0.478238 6.20133e-20)
(20.1421 0.978055 0)
(20.1769 1.47845 -2.47473e-19)
(20.1841 1.9792 -1.63008e-20)
(20.1645 2.47899 0)
(20.1188 2.97709 1.98618e-18)
(20.0471 3.47263 9.69794e-19)
(19.949 3.96544 0)
(19.8248 4.45325 3.20203e-20)
(19.6747 4.93394 9.39226e-19)
(19.4996 5.40574 1.4269e-18)
(19.3008 5.86729 -4.69077e-19)
(19.0787 6.31696 0)
(18.8335 6.75384 0)
(18.5658 7.17748 1.72846e-18)
(18.2766 7.58703 -8.5294e-19)
(17.9666 7.98147 -7.99437e-19)
(17.6369 8.35985 0)
(17.2882 8.72136 2.4149e-18)
(16.9217 9.06505 -2.31746e-18)
(16.5384 9.38999 -1.48037e-18)
(16.1394 9.69546 -1.43266e-18)
(15.7257 9.98056 0)
(15.2985 10.2446 -2.04743e-18)
(14.8589 10.4869 -6.681e-19)
(14.408 10.7069 6.10525e-19)
(13.9472 10.904 6.00974e-19)
(13.4777 11.0781 0)
(13.0005 11.2288 0)
(12.5171 11.3558 0)
(12.0286 11.459 0)
(11.5362 11.5381 0)
(11.0414 11.5931 0)
(10.5453 11.6241 0)
(10.0493 11.6309 -1.05158e-18)
(9.55465 11.6137 3.36737e-19)
(9.0625 11.5725 -2.68707e-19)
(8.57402 11.5077 1.28032e-18)
(8.09037 11.4195 0)
(7.61276 11.3084 3.60349e-19)
(7.14239 11.1747 2.9425e-19)
(6.68047 11.019 1.26111e-19)
(6.22803 10.8418 -7.57748e-20)
(5.78623 10.6436 -9.59162e-20)
(5.35611 10.425 3.21985e-20)
(4.93855 10.1868 -2.12194e-21)
(4.53443 9.9295 1.00562e-19)
(4.14473 9.65408 0)
(3.77035 9.36143 0)
(3.41216 9.05238 7.99044e-20)
(3.07087 8.72786 9.66085e-20)
(2.74718 8.3888 2.08256e-19)
(2.44184 8.03613 2.38713e-19)
(2.1553 7.671 0)
(1.88827 7.29427 2.97371e-19)
(1.64098 6.9074 3.28244e-19)
(1.41396 6.51145 0)
(1.20757 6.10787 -1.84057e-21)
(1.02235 5.69759 0)
(0.858538 5.2819 0)
(0.7164 4.8619 2.85419e-20)
(19.9297 0.435384 -1.02516e-19)
(19.9888 0.91879 2.00554e-19)
(20.022 1.40525 -3.95518e-19)
(20.0289 1.89283 -2.12702e-19)
(20.0097 2.37996 0)
(19.964 2.86542 -8.23973e-19)
(19.8916 3.34851 -8.18176e-19)
(19.7935 3.82771 0)
(19.671 4.30262 3.39089e-20)
(19.5244 4.7714 -7.9104e-19)
(19.3538 5.23179 1.49383e-18)
(19.1594 5.68277 1.47069e-18)
(18.9419 6.1232 0)
(18.7017 6.55195 -7.16869e-19)
(18.4397 6.96773 -1.42384e-18)
(18.1566 7.36934 -7.02183e-19)
(17.8533 7.75591 2.05702e-18)
(17.5306 8.12657 -1.32177e-18)
(17.1896 8.48056 1.28622e-18)
(16.8311 8.81702 1.86743e-18)
(16.4564 9.13514 2.42484e-18)
(16.0664 9.43412 1.1988e-18)
(15.6622 9.71313 5.51952e-19)
(15.2448 9.97147 1.6684e-18)
(14.8152 10.2086 5.10821e-19)
(14.3747 10.4241 5.11369e-19)
(13.9243 10.6173 4.63488e-19)
(13.4654 10.7881 -1.34981e-18)
(12.9991 10.9359 8.37141e-19)
(12.5267 11.0606 7.81398e-19)
(12.0493 11.1619 -1.51645e-18)
(11.5682 11.2397 7.34983e-19)
(11.0847 11.2941 -6.39884e-19)
(10.6 11.3249 3.00451e-19)
(10.1155 11.3321 2.90249e-19)
(9.63235 11.3159 2.35924e-19)
(9.15166 11.2762 -2.37462e-19)
(8.67456 11.2133 -2.23785e-19)
(8.20216 11.1277 -5.12198e-19)
(7.7357 11.0197 -2.97212e-19)
(7.27633 10.8897 -4.64851e-19)
(6.82516 10.7383 -4.32805e-19)
(6.38337 10.5659 1.25058e-19)
(5.95199 10.373 7.1714e-21)
(5.53205 10.1603 -2.17397e-21)
(5.12447 9.92828 3.02562e-20)
(4.72995 9.67774 -2.60972e-19)
(4.3495 9.40946 5.67382e-20)
(3.98396 9.12441 0)
(3.63426 8.82335 0)
(3.30099 8.50711 1.47652e-19)
(2.98499 8.17678 7.45622e-22)
(2.68687 7.83316 -1.93891e-19)
(2.4071 7.4773 0)
(2.1463 7.11001 -2.41145e-19)
(1.90465 6.73274 0)
(1.68272 6.34662 0)
(1.48074 5.95294 -2.32147e-19)
(1.2995 5.55281 -8.26825e-20)
(1.13898 5.14738 8.5927e-20)
(0.999764 4.73784 -4.56033e-20)
(19.7787 0.506438 1.85315e-21)
(19.8325 0.976905 -1.73217e-19)
(19.8608 1.45002 5.07693e-19)
(19.8639 1.92423 3.36864e-19)
(19.8415 2.39837 -4.96253e-19)
(19.7937 2.87117 3.32482e-19)
(19.7213 3.34075 -2.35583e-21)
(19.6242 3.80478 -6.43871e-19)
(19.5023 4.26324 9.80836e-19)
(19.357 4.71523 -1.2777e-18)
(19.1886 5.15974 1.20264e-18)
(18.9973 5.59529 -1.27849e-18)
(18.7837 6.02078 -6.14321e-19)
(18.5482 6.43516 0)
(18.2918 6.8371 6.32593e-19)
(18.0151 7.22535 5.40108e-19)
(17.7187 7.5992 0)
(17.4035 7.95766 1.06389e-18)
(17.0705 8.30004 0)
(16.7207 8.62558 -1.05252e-18)
(16.3551 8.9334 9.29781e-19)
(15.9749 9.22272 -4.02049e-20)
(15.581 9.49262 -4.51117e-20)
(15.1745 9.7424 1.74756e-21)
(14.7562 9.97161 -1.75052e-18)
(14.3272 10.1798 -7.96324e-19)
(13.8887 10.3665 1.55626e-18)
(13.4419 10.5315 1.4393e-18)
(12.9881 10.6743 -7.17778e-19)
(12.5283 10.7946 0)
(12.0638 10.8922 0)
(11.5955 10.9671 0)
(11.125 11.0193 5.47552e-19)
(10.6533 11.0488 -1.9184e-18)
(10.182 11.0554 8.90608e-19)
(9.7119 11.0391 -4.2469e-19)
(9.24427 11.0001 -6.80091e-19)
(8.78013 10.9385 6.38696e-19)
(8.32046 10.8549 2.13037e-20)
(7.86656 10.7497 -2.01728e-19)
(7.41952 10.6231 2.213e-19)
(6.98043 10.4758 1.44265e-19)
(6.55051 10.3082 0)
(6.13076 10.1209 -4.10309e-20)
(5.72217 9.91443 0)
(5.32569 9.68906 7.48777e-20)
(4.94181 9.44577 -3.94406e-20)
(4.57152 9.18527 0)
(4.21551 8.90857 9.3257e-20)
(3.87506 8.61633 1.94972e-20)
(3.55045 8.3093 -2.45111e-19)
(3.24253 7.98858 1.44243e-19)
(2.95208 7.65497 9.51139e-20)
(2.67931 7.30942 -1.74223e-19)
(2.42509 6.95271 8.08967e-21)
(2.18903 6.58614 -1.05817e-19)
(1.97214 6.21092 -5.70638e-20)
(1.77435 5.82836 -1.26942e-19)
(1.59679 5.43953 3.36673e-19)
(1.43906 5.04558 -1.43241e-19)
(1.30228 4.6476 1.89709e-20)
(19.6216 0.558505 3.63918e-20)
(19.6705 1.01422 0)
(19.695 1.47214 -5.67447e-19)
(19.6949 1.93111 0)
(19.6703 2.38979 2.82377e-19)
(19.6214 2.84683 8.26237e-19)
(19.5485 3.30083 5.42083e-19)
(19.4515 3.75108 1.09936e-18)
(19.3309 4.19584 9.6164e-21)
(19.1875 4.63417 -6.64381e-21)
(19.0218 5.06465 -5.92098e-20)
(18.834 5.4863 -5.22875e-19)
(18.6245 5.89807 5.04978e-19)
(18.3942 6.29902 -1.48049e-18)
(18.1436 6.68793 1.00452e-18)
(17.8736 7.06353 -4.80904e-20)
(17.5845 7.42504 -9.11138e-19)
(17.2772 7.77158 -9.33411e-19)
(16.9525 8.10262 0)
(16.6115 8.41755 8.3594e-19)
(16.2555 8.7154 -3.73403e-20)
(15.8855 8.99538 -1.64475e-18)
(15.5025 9.25655 -5.7733e-21)
(15.1073 9.49801 -6.82841e-19)
(14.7006 9.71958 2.07833e-18)
(14.2837 9.92077 -3.43079e-20)
(13.8575 10.1012 -6.63685e-19)
(13.4233 10.2608 -6.984e-20)
(12.9825 10.399 0)
(12.536 10.5154 0)
(12.0849 10.6096 0)
(11.6301 10.6821 0)
(11.173 10.7325 0)
(10.7149 10.7613 5.34632e-20)
(10.2573 10.7678 -3.45239e-19)
(9.80094 10.7521 3.88255e-20)
(9.34697 10.7143 5.27037e-20)
(8.89634 10.6545 2.22076e-19)
(8.44983 10.5734 4.2229e-19)
(8.00888 10.4714 -5.264e-19)
(7.57461 10.3488 3.09651e-19)
(7.14789 10.2062 -9.61637e-20)
(6.73015 10.0442 0)
(6.32239 9.86313 3.57723e-20)
(5.9255 9.66367 0)
(5.54066 9.44567 -3.88507e-20)
(5.1676 9.21041 7.56112e-20)
(4.80793 8.95848 -5.27733e-20)
(4.46169 8.69109 -6.67949e-20)
(4.13082 8.40859 1.00618e-19)
(3.81513 8.11164 1.90446e-20)
(3.5155 7.80153 1.52826e-20)
(3.23295 7.47879 -2.7778e-19)
(2.96734 7.14452 3.16933e-19)
(2.71989 6.79909 1.73662e-19)
(2.48947 6.44413 9.08394e-20)
(2.27783 6.08064 3.02427e-19)
(2.0839 5.71012 0)
(1.90995 5.33347 -2.31573e-19)
(1.75482 4.95194 6.15315e-20)
(1.62037 4.56636 0)
(19.4499 0.612814 0)
(19.4936 1.05312 0)
(19.5138 1.49558 2.45952e-19)
(19.5103 1.93875 -4.71232e-19)
(19.4834 2.38168 -2.43209e-19)
(19.4332 2.82307 -1.18088e-18)
(19.3599 3.26124 4.56059e-19)
(19.2633 3.69523 -9.42988e-19)
(19.1439 4.12458 1.52195e-20)
(19.0027 4.54803 1.33689e-18)
(18.8402 4.96364 -1.78474e-18)
(18.6563 5.3705 0)
(18.4515 5.76756 0)
(18.2264 6.15457 1.69057e-18)
(17.9822 6.53005 8.17213e-19)
(17.7196 6.89205 -1.65854e-18)
(17.4383 7.24046 2.37501e-18)
(17.1392 7.57435 7.55608e-19)
(16.8232 7.89337 -1.48123e-18)
(16.4914 8.19724 -7.43463e-19)
(16.1455 8.48451 6.86112e-19)
(15.7861 8.75477 -7.00477e-20)
(15.4145 9.00692 0)
(15.0315 9.23941 1.28542e-18)
(14.6371 9.45284 -1.81384e-18)
(14.2327 9.64666 5.84379e-19)
(13.8195 9.8204 1.052e-18)
(13.3985 9.9744 -2.55468e-18)
(12.9715 10.1075 4.99958e-19)
(12.5389 10.22 0)
(12.1024 10.3105 0)
(11.6615 10.3806 0)
(11.2189 10.4292 3.47254e-19)
(10.7749 10.4577 9.82912e-19)
(10.3322 10.4643 -5.79829e-19)
(9.89044 10.4495 2.53104e-19)
(9.45105 10.4132 2.42591e-19)
(9.01508 10.3552 -4.31876e-19)
(8.58244 10.2767 0)
(8.1551 10.1782 -2.43e-19)
(7.73443 10.0597 1.26454e-19)
(7.32048 9.922 1.40783e-20)
(6.91535 9.76576 9.66801e-21)
(6.52019 9.59138 3.07439e-20)
(6.13537 9.39971 -1.04769e-20)
(5.7633 9.18941 1.47006e-19)
(5.40143 8.9629 -6.32795e-20)
(5.05323 8.71998 2.17795e-19)
(4.71681 8.4628 0)
(4.39654 8.19097 0)
(4.09029 7.90477 -3.94541e-19)
(3.79912 7.60616 1.07418e-19)
(3.52541 7.29519 2.46671e-19)
(3.26707 6.97309 1.45979e-19)
(3.02754 6.63958 -4.60099e-19)
(2.80264 6.29688 -2.57718e-19)
(2.59682 5.94566 -9.49013e-20)
(2.40638 5.5881 -2.09169e-21)
(2.23676 5.22453 1.01718e-19)
(2.08381 4.85621 0)
(1.95218 4.48381 0)
(19.2583 0.664439 -2.48061e-20)
(19.2962 1.08826 0)
(19.3116 1.51441 0)
(19.3042 1.94111 2.08727e-19)
(19.2746 2.36733 0)
(19.2232 2.79207 8.04277e-19)
(19.1502 3.21366 3.96864e-19)
(19.0542 3.63047 -7.79471e-19)
(18.9355 4.04432 0)
(18.7967 4.4531 -7.91497e-19)
(18.6387 4.85222 4.3432e-20)
(18.4592 5.2435 0)
(18.2598 5.62468 0)
(18.0402 5.99688 -7.38447e-19)
(17.8026 6.35906 6.82029e-19)
(17.5486 6.70627 -7.06489e-19)
(17.2758 7.04088 -6.88927e-19)
(16.9854 7.36178 0)
(16.6787 7.66766 6.51278e-19)
(16.3564 7.95995 -1.18798e-18)
(16.0214 8.23573 -1.14801e-18)
(15.6733 8.49588 -1.17903e-18)
(15.3135 8.73925 -9.47212e-21)
(14.9444 8.96155 -9.74183e-19)
(14.5625 9.16632 1.0331e-18)
(14.1709 9.35268 9.31612e-19)
(13.7718 9.51873 -9.45708e-19)
(13.3639 9.66714 5.91143e-20)
(12.9517 9.79446 1.08495e-21)
(12.5332 9.90383 -7.91324e-19)
(12.1127 9.98926 0)
(11.6857 10.0578 -6.31794e-19)
(11.2591 10.1037 1.21736e-18)
(10.829 10.1331 -4.58613e-20)
(10.4034 10.1403 5.21682e-19)
(9.97742 10.1263 -4.25207e-19)
(9.55371 10.0919 3.61931e-19)
(9.13444 10.0353 2.60245e-19)
(8.71641 9.95969 -5.72009e-19)
(8.30321 9.86496 2.41038e-19)
(7.89779 9.75059 1.55069e-19)
(7.49645 9.61794 1.65479e-19)
(7.10399 9.4675 -3.6134e-20)