/*--------------------------------*- C++ -*----------------------------------*\
| =========                 |                                                 |
| \\      /  F ield         | OpenFOAM: The Open Source CFD Toolbox           |
|  \\    /   O peration     | Version:  2.3.1                                 |
|   \\  /    A nd           | Web:      www.OpenFOAM.org                      |
|    \\/     M anipulation  |                                                 |
\*---------------------------------------------------------------------------*/
FoamFile
{
    version     2.0;
    format      ascii;
    class       volSymmTensorField;
    location    "4760";
    object      sigma;
}
// * * * * * * * * * * * * * * * * * * * * * * * * * * * * * * * * * * * * * //

dimensions      [1 -1 -2 0 0 0 0];

internalField   nonuniform List<symmTensor> 
11800
(
(158347 77272.7 7.61774e-14 -2848.16 4.03433e-14 38582.4)
(-78171.7 67623.4 1.16942e-13 -110.157 3.7075e-14 -19423.3)
(719765 99569.3 -1.9505e-15 1556.75 -8.43854e-14 178975)
(-624513 49929.7 0 -2118.02 0 -155480)
(-81065.1 65288.3 2.18179e-14 -4729.93 -6.163e-14 -21287.5)
(-390537 102586 8.4501e-14 2107.59 4.43147e-14 -96377.3)
(-72538.6 98523.3 1.60023e-13 -595.908 -4.16047e-14 -18146.2)
(-102351 102671 -2.38193e-14 806.504 9.58067e-14 -25195.3)
(220673 50154.5 3.16092e-14 464.859 -2.15737e-14 54868.8)
(151476 107952 -8.18957e-14 459.746 -6.89674e-14 37698.4)
(182766 63291.9 -6.35473e-14 2072.49 5.43857e-14 45862.1)
(-905760 35731.7 -7.58257e-14 -6713.34 -3.43939e-14 -226403)
(25096 -36456.9 1.36088e-16 -67655.3 1.05764e-16 -10559.8)
(666627 50419.7 6.87246e-14 4012.9 -1.87985e-14 166399)
(-532464 96144.9 -5.73929e-14 6309.64 4.46058e-14 -130550)
(2.4503e+06 -10111.3 0 -8428.84 0 605877)
(-47355.3 76603.1 5.4153e-14 4601.67 4.77392e-15 -10608)
(-73148.8 70595 -3.05438e-14 9006.69 1.75366e-13 -15915)
(152985 120504 -3.10108e-14 -19610.4 2.20314e-14 33093)
(115443 64084.7 -1.08989e-13 -13019.4 -3.52478e-14 25413.4)
(-490359 56818.1 3.39791e-14 -2147.34 3.56045e-14 -122201)
(-792409 90357.8 5.43437e-14 4064.74 -3.15921e-14 -195604)
(-1.02855e+06 114330 -2.7251e-14 12862 1.75073e-14 -252014)
(-943790 64730 2.73401e-16 430.789 4.72984e-15 -234066)
(2.00081e+06 85795.1 3.44756e-15 -8982 3.9494e-14 494214)
(-1.2289e+06 114249 -2.67689e-14 9028.56 -7.57978e-16 -302675)
(-1.30957e+06 60205.2 0 11662.7 0 -322038)
(647085 44837.2 -9.02275e-14 -5461.88 -5.44804e-14 159200)
(-1.42479e+06 61344.1 -1.54801e-14 12725.4 -7.4518e-14 -350363)
(-1.53987e+06 61774.7 2.06575e-14 15134.3 -3.20919e-14 -378319)
(423717 47076.5 -1.11846e-13 -2156.3 -2.00406e-13 104598)
(84843.9 59879.3 -1.78365e-14 2855.34 -1.47198e-14 21760)
(1.25573e+06 110367 -4.38243e-15 14452.5 -1.91173e-14 315157)
(-30644.6 80809.7 1.46265e-14 -2206.69 -1.095e-13 -8151.09)
(21637.7 85769 -3.86868e-14 1972.48 -1.66017e-13 5858.15)
(-413251 34992.1 -1.01555e-13 -1792.39 -7.37656e-14 -102981)
(23929.5 87073.1 1.37397e-13 1501.1 -1.63361e-13 6309.84)
(1.34605e+06 62270.9 -1.60994e-14 7234 -6.86719e-14 335778)
(-49068.4 84637.6 0 -1267.44 0 -12489.4)
(110269 79706.7 -4.72909e-14 6433.9 8.80781e-14 28956.3)
(-1.37596e+06 44118.7 -8.38586e-14 -7011.85 -3.89623e-14 -343144)
(-1.49701e+06 43409.8 6.00534e-14 -7488.16 -3.44491e-14 -373296)
(680269 60547.3 -3.48089e-14 -453.253 -1.1581e-13 168676)
(-1.61778e+06 43537.8 -1.13924e-14 -5307.95 -6.08673e-14 -402722)
(445480 59471.5 2.97272e-13 946.353 -9.27083e-14 110767)
(2.2919e+06 54331.8 0 -8028.02 0 566676)
(987444 125563 -1.72215e-14 -3666.34 9.008e-15 244095)
(1.17574e+06 43272 -3.04149e-14 -12864.2 -2.11029e-14 288533)
(-115098 87795.3 -1.17847e-13 835.432 -7.25882e-14 -28350.8)
(264924 84526.6 0 2493.26 0 66351.6)
(-940883 50692.2 -5.7125e-15 2571.2 6.04203e-14 -232814)
(-658561 47108 1.97559e-13 3001.09 2.31425e-14 -162658)
(-13472.8 84998.7 1.10817e-13 1312.71 6.89791e-14 -3017.16)
(49138.2 137330 -2.38935e-15 8994.21 2.08168e-14 14423.8)
(-2.63427e+06 4731.38 -3.65109e-15 -13636.8 -5.74581e-15 -656999)
(2.05177e+06 -95149.6 4.9254e-15 -93864.1 8.65764e-15 485796)
(-70097.9 20293.3 9.53878e-14 1914.96 3.54181e-14 -16917.6)
(-590400 101041 7.11179e-15 -6593.27 -5.89469e-14 -148126)
(474259 62830.2 -6.01211e-14 9907.86 8.80435e-14 120132)
(-417275 106753 4.9233e-14 -7759.31 -8.88822e-15 -105460)
(2.12531e+06 20135.6 -4.30844e-14 -16245.4 -1.49284e-14 523303)
(-57470.2 89518.4 4.69044e-14 974.762 -7.63102e-14 -14017.7)
(-465012 82182.4 -2.70235e-14 -2815.64 4.64379e-14 -116078)
(372665 82404.6 8.20762e-14 3797 -4.6808e-14 93407.8)
(1.97492e+06 10681.6 4.69902e-15 -1260.04 -2.84779e-14 489706)
(-288328 33715.9 -1.34185e-13 2019.15 -1.62126e-13 -71039.1)
(-970155 20988.5 9.43246e-14 5182.57 3.14401e-14 -239429)
(-686342 24273.9 2.76116e-15 3932.56 -1.65664e-13 -169320)
(-72724 21778.8 0 -3734.47 0 -18970.9)
(-1.14565e+06 61640.8 -2.14689e-15 12109.8 6.99817e-14 -281254)
(-24019.3 86302.3 -2.68827e-14 1.75182 5.54846e-14 -5959.24)
(-57137.2 67109.5 -1.03562e-13 -3275.08 1.15825e-13 -14989.5)
(-50063.6 65741.5 7.26323e-14 -1206.88 -4.44433e-14 -12721.2)
(-1.72409e+06 369493 -6.16189e-15 210627 5.54384e-15 -375521)
(2.108e+06 73498.1 -1.687e-15 -7209.72 -1.71034e-14 521250)
(-388223 54240.6 -9.97767e-14 2903.32 -7.25564e-14 -95605.6)
(2.07162e+06 11882.8 -3.62748e-14 4194.6 3.22797e-14 515053)
(-279944 19871.1 8.82129e-14 -395.295 -2.89364e-13 -69557.9)
(-207444 43817.4 1.65909e-14 -567.47 -1.58273e-14 -51611.8)
(-195628 58589.4 1.69395e-13 2120.07 1.69813e-13 -48013.4)
(-2.6536e+06 -52278 1.32967e-14 11903.4 6.25508e-14 -655459)
(117195 57523.6 0 9612.02 0 31463.4)
(61848.4 69764.2 -1.76095e-13 2112.12 -6.93627e-14 15869.9)
(42955 74483.7 6.10537e-14 929.994 -4.80463e-16 10888.8)
(-91892.1 66531.9 4.16986e-14 -9515.03 1.1797e-13 -25161.2)
(-1.50118e+06 75377 -2.32189e-14 -7938.7 1.16808e-13 -374443)
(460356 53790.3 1.42082e-13 4824.22 -4.41779e-14 115421)
(-1.38551e+06 73973.6 0 -8019.65 0 -345764)
(-1.27107e+06 72553.2 -4.87696e-14 -7110.68 -4.99341e-14 -317142)
(684396 50973 6.50707e-14 5980.5 3.97884e-15 171296)
(-14297 84688.8 -2.29595e-13 -3146.76 -1.47205e-13 -4328.15)
(1.48542e+06 101652 0 -4828.65 0 367364)
(-122725 73858.4 -4.87115e-14 1891.33 -8.07377e-14 -29981.3)
(75960.9 15275.8 -2.80777e-14 5099.04 -4.07394e-14 20112.6)
(187562 75761 2.1525e-13 1759.89 3.85415e-15 46974.5)
(58060.5 -43783.7 -8.66146e-16 -123337 -6.42114e-16 -16196.3)
(-3078 12050.9 2.25625e-17 7238.8 -1.34245e-16 1032.38)
(-58654.4 -43543.4 -5.48572e-16 123118 3.6552e-16 15994.7)
(-14342.2 86039.7 -7.13806e-14 421.282 -1.0374e-15 -3454.07)
(-789473 55783.3 -1.749e-14 -2987.62 6.96802e-14 -196626)
(54372.8 38755.7 3.92279e-14 -37.7042 -1.09692e-13 13481.6)
(861224 63210.8 -8.47084e-14 -7804.43 -1.17114e-13 211751)
(-1.40901e+06 115923 5.63636e-15 -871.483 1.14741e-14 -349821)
(-460948 76467 -3.48449e-15 7219.47 1.0986e-14 -112579)
(-2267.03 91834.5 -1.10139e-14 -914.908 -5.47833e-14 -789.502)
(368427 104640 -2.2604e-14 2557 -3.90438e-14 92048.6)
(-176704 76767.3 -6.73822e-14 -1001.94 1.48505e-13 -44092.4)
(-123687 80028.2 -2.28415e-13 -768.78 -1.10121e-13 -30880.1)
(2.09697e+06 19773.9 1.27377e-14 5607.04 2.64654e-14 521692)
(1.39864e+06 62422.7 2.08365e-14 5113.05 4.23904e-15 348300)
(1.51571e+06 63632.8 3.99171e-14 5881.45 5.55029e-14 377539)
(1.28339e+06 61832.1 1.4631e-13 4504 8.6665e-14 319553)
(-465676 55576.9 6.65672e-14 -3941.69 1.03932e-13 -116522)
(-691909 54783.6 -1.76023e-13 -4788.24 6.32694e-14 -172865)
(251235 68838.8 7.49295e-14 -103 -3.92636e-14 62310.9)
(1.88792e+06 35128.3 1.9158e-14 8.07271 1.1283e-14 468434)
(266785 31801.4 -5.48581e-14 -2984.61 -2.15647e-13 65454.3)
(-84803.1 79712 -1.90269e-13 776.596 1.77842e-13 -20848.7)
(1.76824e+06 78945.3 -2.19205e-14 1306.29 2.72988e-14 439060)
(-152931 111959 -6.14907e-14 -326.852 -1.65439e-14 -38026.4)
(-235922 43595.4 -4.20474e-14 4128.79 -1.76884e-14 -57512.5)
(74440.6 98527.8 1.36157e-13 -2545.36 -1.94861e-13 17838.7)
(106461 105608 -9.48257e-14 -2143.66 6.52034e-14 25883.3)
(-76207.5 80694 -2.76094e-14 4482.54 -4.07211e-14 -17796.4)
(-129459 69835.7 -1.73254e-13 -1452.01 -1.35152e-13 -32481.7)
(-3008.9 84535.2 -1.66522e-13 -2486.16 -1.25254e-13 -1363.44)
(-39603.4 83772.1 -9.98295e-14 -333.003 1.0964e-13 -9909.04)
(-9060.18 86076.7 -6.52614e-14 -2344.63 -6.21745e-14 -2829.76)
(9833.64 57657.7 3.1002e-15 41403.8 1.3887e-13 12713.1)
(-39443.4 5048.26 -4.48975e-16 -9115.38 6.59782e-14 -12048.4)
(-2.21186e+06 -357782 1.98645e-14 90531.5 -1.00101e-14 -526344)
(-1.60338e+06 76403.1 1.43716e-14 -12197.7 -2.19199e-15 -400858)
(502574 49267.6 7.51694e-14 3657.25 -7.32937e-14 125606)
(-1.49771e+06 78693.4 -5.76944e-14 442.912 3.62094e-14 -371501)
(730499 45239.8 -3.38254e-14 4101.88 1.02481e-13 182269)
(-1.37946e+06 76214.7 2.20184e-14 556.394 2.21225e-14 -342133)
(-1.26351e+06 74215.3 -1.27203e-13 1184.1 9.71531e-14 -313208)
(418366 70073 7.36408e-14 -5362.65 2.05126e-13 102475)
(-1.28054e+06 29259.3 7.88384e-14 8288.34 -1.08268e-13 -315671)
(612143 73866.5 9.13047e-14 -6675.06 -7.26826e-14 150229)
(-1.18013e+06 30861.1 6.5374e-14 7380.92 -1.12453e-13 -290984)
(-1.08148e+06 32904.6 -6.77755e-14 7274.31 -6.10085e-14 -266532)
(-600375 95179.9 5.04844e-15 18944.4 5.07303e-14 -144265)
(185162 80555.3 -3.67702e-14 -6011 -2.44752e-13 44450.9)
(265075 78518.3 -5.87332e-14 -8235.27 -1.69606e-13 63727.1)
(-386571 76708.5 -1.76546e-14 12155.9 1.01605e-13 -92899.9)
(1.56293e+06 48556.1 -1.11831e-13 2071.04 -3.7729e-14 388308)
(-1.61063e+06 -22577.9 1.07495e-13 -12636.9 3.32131e-14 -402766)
(906956 45669 7.5679e-14 -2557.15 -7.04775e-14 224400)
(-457114 44305.3 1.67643e-15 8279.28 9.94577e-15 -111365)
(-210393 76620.3 -9.53373e-14 2061.13 -7.87522e-14 -51691.5)
(-220528 62969.9 8.15885e-14 -3075.23 -7.37894e-14 -55480.4)
(23523.1 85294.9 6.20222e-14 1372.19 1.13244e-13 6177.03)
(-313441 55098.6 -1.39476e-13 -1187.61 1.44595e-13 -78065.7)
(270900 66938.3 -7.30923e-14 -4656.9 -7.72032e-14 66060.2)
(183886 75773 -6.70094e-14 2910.71 5.16326e-14 46348.2)
(-585310 62658.5 1.134e-13 8060.4 -7.63123e-14 -143227)
(-820294 69656.3 4.11676e-14 3489.94 9.00945e-14 -202666)
(1.65459e+06 19313.9 2.52848e-14 1890.55 -3.30911e-16 411007)
(-7696.81 89850.7 3.25591e-14 -805.189 -1.58311e-13 -2109.52)
(2.3869e+06 84972 -2.93717e-14 -14438.7 -1.59958e-14 588655)
(-257993 68762.2 -1.20475e-13 949.517 8.29889e-14 -63777.6)
(2.08567e+06 54270.2 0 -20961.4 0 512297)
(-598828 69606.8 3.53027e-14 -6216.39 1.47416e-13 -150124)
(-653076 69460.1 -3.61968e-14 -6977.45 4.29119e-14 -163773)
(-706916 70275.7 -5.87869e-15 -7335.59 1.55e-13 -177220)
(330891 77619.9 -8.92555e-14 1109.23 2.19445e-14 82376)
(224930 79006.1 -9.52709e-14 719.241 2.35127e-14 55988.1)
(-2.59289e+06 -22685.3 2.32727e-14 -9784.61 -1.3264e-14 -645776)
(-1.62267e+06 74803 -2.40516e-14 -9511.78 4.52858e-14 -404977)
(573392 52956.4 -9.50857e-14 5226.33 -5.56322e-14 143567)
(797419 49963.3 2.66877e-13 6393 -1.43398e-13 199442)
(88872.1 86181.2 5.22806e-14 -8508.18 -1.35127e-13 19939.9)
(-466199 38708.6 0 1672.6 0 -115258)
(-471912 20650.8 1.43003e-13 -3290.4 -7.26798e-14 -117907)
(2.28631e+06 60137.5 3.82213e-14 -16226.7 2.54817e-14 563254)
(2.33975e+06 -16139 3.16914e-14 14379.2 2.79791e-14 584107)
(1.2364e+06 23693.9 1.97216e-15 -1321.95 6.71201e-14 306447)
(1.13582e+06 26345.5 1.37962e-14 -1063.23 1.63129e-13 281557)
(1.33868e+06 21106.8 3.46381e-14 -2450.07 -5.00731e-14 331546)
(-584390 75906.2 -8.62324e-14 4873.56 7.75661e-14 -143790)
(-387363 71095 -8.36878e-14 3817.26 9.176e-14 -95165.5)
(254812 101610 0 2075.57 0 63739.1)
(174122 97714.3 -3.47361e-15 783.119 1.33018e-13 43397.6)
(555491 75359.5 -1.02338e-13 -138.832 8.36572e-14 137794)
(-234165 71116.7 -8.18463e-14 3067.07 1.93969e-13 -57340.2)
(-362977 106686 -1.61445e-14 4719.06 7.13069e-14 -88891.2)
(113120 78001.7 -3.04873e-13 -843.739 -8.08758e-14 27858)
(161336 74569.1 -2.1075e-13 -1221.06 8.81526e-14 39727.7)
(-98262 89815.2 -4.11126e-14 2283.23 -5.75053e-16 -23814.3)
(-276505 57545.1 -3.38618e-14 6042.95 -2.11311e-14 -67107.1)
(-254533 59227.9 2.23959e-14 5412.24 -3.82203e-14 -61811.8)
(-256644 42898.3 0 -395.518 0 -63776.7)
(-121918 110286 4.60916e-16 -5412.14 -4.41805e-14 -31593.2)
(-1.19003e+06 1889.7 9.97868e-14 -7160.48 -4.36921e-14 -297046)
(1.49284e+06 58267.1 -1.29495e-13 -6808.76 -1.30573e-14 368715)
(1.81366e+06 183340 7.64378e-15 -309523 3.86059e-15 373208)
(-43179.3 74679.5 2.72256e-14 -3806.54 -6.16924e-14 -11658.2)
(278415 25401.2 9.93537e-14 2514.41 -2.26775e-13 69704.2)
(-2.26992e+06 -285054 1.90931e-14 183431 -1.23072e-14 -517700)
(129647 59235.9 4.25139e-15 3859.68 1.15244e-13 33125.7)
(356100 41836.8 8.02012e-14 822.028 -9.20526e-14 88559.7)
(393561 46004.1 1.11987e-13 -5676.52 -4.72398e-14 96242)
(-4983.67 88569.5 8.43604e-14 -109.204 -1.25073e-14 -1263.65)
(-5644.8 91705.9 8.89856e-14 -652.414 7.52254e-15 -1562.47)
(1.08071e+06 33656.3 2.8399e-14 -5165 9.43462e-14 266864)
(895990 97177.5 3.60589e-14 8329.3 -8.69152e-15 224380)
(-815145 80528.5 0 8175.34 0 -200225)
(-696665 42013 -9.18739e-14 -10648.7 -5.7453e-14 -175499)
(2.20697e+06 -361566 -8.01523e-15 -92745.4 -5.39764e-15 524583)
(-680377 123874 -7.32842e-15 18966.1 8.52314e-14 -164109)
(-1.08676e+06 39532.2 5.02879e-14 -2278.03 -2.96144e-14 -270212)
(-2.30015e+06 -926459 -2.15546e-14 481381 8.41997e-15 -451274)
(2.76952e+06 1631.41 0 37840.8 0 696564)
(-2.01429e+06 -857937 -7.01372e-15 226675 2.16746e-15 -443544)
(355474 122770 -4.79079e-14 -162.343 1.68711e-14 88159.9)
(-79564.8 71705.8 -8.6044e-15 -833.232 1.20283e-13 -19948.4)
(-1.04983e+06 89940.2 4.26518e-14 -8884.74 -4.6876e-14 -262688)
(-961577 90417 6.35993e-14 -8003.59 -7.94242e-15 -240573)
(-882551 88328 -7.2608e-14 -7192.11 2.82414e-15 -220763)
(313720 62544 6.38204e-14 4135.16 -1.78024e-13 78866.3)
(471817 59770.6 -1.60136e-13 5277.34 1.55646e-13 118377)
(46533.1 77564.5 -2.51843e-14 -8121.81 1.18165e-13 9530.62)
(66487.4 73082.1 5.95932e-14 -11161.6 7.63213e-14 13727.5)
(-150117 116903 -6.75439e-14 25016.5 1.82664e-14 -31039.9)
(-96386.1 67889.1 5.06218e-14 16550.6 -6.47265e-14 -19808.8)
(-1.26089e+06 -507493 -5.43212e-15 -31544.6 1.13428e-15 -320680)
(237944 118119 -3.84077e-14 18061.6 -1.35974e-13 63520.1)
(-118302 69727 -1.33049e-13 -9350.52 -6.08043e-14 -31673.1)
(-555730 111824 0 37.2493 0 -137879)
(237483 63747.6 1.01788e-13 1255.71 -4.15224e-14 59236)
(-117133 95807.6 0 -683.208 0 -29232.6)
(-87297.9 75760.1 -6.47901e-14 -1004.97 -1.02593e-13 -21909.7)
(830739 79575.1 9.0517e-14 4623.97 -9.46582e-14 207270)
(853449 49133.5 1.38619e-13 52.6868 6.61907e-14 211771)
(2.29838e+06 -925844 -8.06745e-15 -481443 -2.66556e-15 450819)
(1.25957e+06 -507482 9.42308e-15 31472.2 2.58234e-15 320334)
(-257907 54815.2 1.97501e-14 2036.15 2.80979e-14 -63486.8)
(-275210 55651 -6.00027e-14 -3001.9 -1.2266e-13 -69030.1)
(-1.47799e+06 -1062.13 -6.5866e-14 -5532.2 -1.50817e-14 -368093)
(1.19958e+06 53688.2 1.49302e-13 -3996.75 -3.89873e-14 296648)
(387539 71811.2 4.96512e-15 -3269.57 2.71691e-13 95345)
(583890 77547 9.23101e-14 -3981.61 1.00333e-13 143887)
(-1.33894e+06 21325.1 -2.43512e-15 -707.609 5.70272e-14 -332394)
(-1.23914e+06 25779.4 -5.80815e-14 -995.046 1.92029e-14 -307703)
(-1.13806e+06 28405.8 -3.90897e-15 -1038.39 9.02506e-14 -282634)
(-17491.9 91114.8 -1.40454e-13 -896.943 4.0612e-14 -4562.65)
(-1.44944e+06 23687.8 3.76464e-14 -2233.02 4.04736e-14 -360190)
(487519 72481.5 -9.461e-14 -3317.83 4.6398e-14 120140)
(684744 76750.7 0 -3659.06 0 168991)
(645643 56815.2 3.60183e-14 -4857.19 8.58838e-14 158992)
(124298 76019.8 -1.18701e-13 610.636 -3.13689e-13 30992.3)
(10869.9 77881.9 -1.04013e-13 -9198.31 -3.82388e-14 414.744)
(525110 39521.9 -1.31022e-13 16174.5 2.34318e-14 134304)
(-448196 59257.4 -1.12708e-14 -1316.27 -9.12553e-14 -111533)
(70931 79003.2 1.52848e-15 -16980.5 1.89974e-14 13386.2)
(2.01196e+06 -858000 -7.29947e-15 -227317 -1.83439e-15 442805)
(319729 83932.1 9.34123e-15 -2696.62 -1.73277e-13 78662.2)
(385189 81555.4 8.0694e-14 249.168 2.74372e-14 95635)
(-252356 80544.1 0 -715.021 0 -62792)
(-299783 90957.9 3.01523e-14 -7785.27 -8.3876e-14 -76313.9)
(886378 88119.7 0 7993.77 0 221912)
(965725 90287.1 5.31766e-14 8800.02 5.0423e-14 241800)
(1.04448e+06 93952 -1.18885e-13 9230.51 -1.14982e-14 261448)
(-471640 56745.8 1.69033e-13 -6056.1 1.71664e-13 -118526)
(-317023 61455.3 8.88833e-15 -4357.08 -1.02773e-13 -79740.9)
(-16820.7 86708.2 1.00048e-13 -593.037 5.32475e-14 -4320.7)
(2.07493e+06 11150.4 -1.53756e-14 -32684 -2.80207e-14 506723)
(-12922.9 102626 -1.08049e-13 -6343.71 3.36553e-14 -4780.45)
(27614.6 49218.8 -1.02775e-13 12504.6 -6.39254e-14 9954.39)
(46683.7 82211.4 7.7738e-14 1417.68 -1.80346e-13 11934.9)
(502105 83193.2 8.26346e-14 547.809 8.72763e-14 124718)
(-195524 3556.32 -1.37584e-13 -3209.86 6.73841e-15 -49309.8)
(664034 92810.9 0 -4132.19 0 163735)
(2.1789e+06 -95692.9 3.53473e-16 -301642 1.41905e-16 465785)
(498755 21721.6 7.94348e-14 7413.23 1.80578e-13 125591)
(479551 34994.4 3.5999e-14 -6962.09 1.96118e-14 117259)
(-722222 79565.8 1.18184e-14 6668.16 2.49548e-14 -177543)
(-513501 74283.5 -9.21784e-14 5678.35 2.95211e-14 -126001)
(-615341 48154.9 -1.88358e-13 -3129 -3.29352e-14 -153455)
(-440996 53225.9 9.51449e-15 -3218.03 -1.00006e-14 -110219)
(1.52132e+06 19164.7 -6.53865e-15 -4002.87 2.15443e-14 376477)
(1.25996e+06 99962.2 2.68531e-15 -713.265 -4.45579e-14 312445)
(364709 91770.6 1.66717e-14 -4502.49 9.85785e-15 89374.6)
(490428 75526.2 3.13023e-14 -353.527 5.32206e-14 121597)
(268871 90678.6 8.71225e-14 -4441.24 6.20541e-14 65610.5)
(360162 75911.5 7.81201e-14 -1397.16 -1.23606e-14 89016.9)
(-687886 51967.3 -1.43237e-14 7206.13 3.5901e-14 -168890)
(-905299 83790.3 -3.97126e-14 2818.47 7.13793e-15 -223924)
(-206006 133681 4.40165e-14 -678.346 3.13923e-14 -51282.6)
(1.48751e+06 58680.1 4.91317e-14 5913.8 3.52191e-14 370549)
(1.61281e+06 58231.1 -1.06366e-14 26338.1 5.2788e-15 406707)
(1.91152e+06 59801.3 8.63947e-15 -1814.3 5.43718e-15 473837)
(134066 85091 -1.69584e-13 -528.66 2.05854e-13 33133.3)
(-492174 22746.4 -1.05066e-13 -6975.79 -5.40071e-14 -123849)
(-476312 38036.5 -1.33324e-13 4035.99 8.91491e-14 -117181)
(2.23967e+06 -10691.7 0 13932.3 0 559164)
(2.24613e+06 67676.8 0 1504.98 0 557684)
(1.3492e+06 52404.8 2.05794e-14 -1827.43 9.78267e-14 334310)
(1.33746e+06 6732.25 6.55573e-14 5393.34 -1.84297e-13 333190)
(-1.38871e+06 9866.53 0 -10198.9 0 -347099)
(-1.35439e+06 52942.8 0 9245.7 0 -333757)
(38673.2 82189.7 -2.33691e-14 2368.47 6.69108e-14 10183.3)
(-93872.4 33729.3 2.50073e-13 -5283.23 -1.05811e-13 -24602.5)
(-364572 35279.8 -6.59407e-14 -3590.67 -2.4323e-14 -91348.5)
(2.91872e+06 3044.09 0 58895 0 738806)
(-51411.3 71633.4 -1.64916e-13 -1034.38 -4.11102e-15 -13012.8)
(-61219.4 74429 -2.37534e-14 -4733.66 -1.32061e-13 -16364.3)
(324388 99257.8 -8.49961e-14 -7454.48 -5.82316e-14 78637.6)
(-255566 97020.3 -1.77038e-13 -7772.63 7.41109e-14 -65339.6)
(310431 58055.8 5.13464e-14 -8274.9 -5.30889e-14 74971.2)
(-1.18651e+06 49636.8 3.64396e-14 -10963.9 -7.41346e-14 -297116)
(1.19672e+06 54650.9 -1.51496e-14 -12408.3 -9.06427e-14 293851)
(-1.99803e+06 82957.2 1.56643e-14 -12343.1 -6.67571e-14 -498815)
(-2.35025e+06 -215590 8.23203e-15 432956 -5.89881e-15 -475721)
(824358 106304 -1.31239e-14 -17237.7 1.62775e-14 200263)
(94846.6 107422 -8.77801e-15 -5152.98 4.94064e-14 22254.8)
(-1.11942e+06 87898.3 -4.39453e-14 -4700.32 -1.23174e-13 -278918)
(942374 27266.5 -5.7278e-14 12387.7 8.26034e-14 236896)
(-651257 52726.6 6.31254e-14 -11200.1 8.09427e-14 -164369)
(509507 86678.8 9.49572e-14 6296.55 1.66618e-15 127981)
(95512.9 93245.4 2.65198e-14 5821.77 1.24047e-15 25143.2)
(162827 71196.9 -1.12154e-13 -849.993 1.40796e-13 40189.8)
(-322377 60588.4 7.66689e-14 -20464.6 -8.13806e-14 -85066)
(-522153 125128 1.24201e-15 8927.1 1.02488e-13 -127342)
(-296292 61978.4 1.18361e-14 -18899 -8.23966e-14 -78205.2)
(-479635 121202 7.4856e-14 8170.47 -2.73468e-14 -116980)
(119205 49275 -4.68456e-14 -3400.46 1.45421e-14 28733.4)
(-56386.5 104041 -1.24621e-15 2764.35 -9.25181e-14 -13304.8)
(-36830 101716 1.1485e-13 2761.22 9.20868e-14 -8453.15)
(-24601.5 89833.7 5.91258e-14 942.251 -1.2869e-13 -5870.33)
(1.58368e+06 40587.2 3.37119e-14 4638.45 5.22815e-15 394094)
(-16328.4 104075 -1.2977e-13 -7457.84 -5.76608e-14 -5901.84)
(-62618.5 74072.2 6.41945e-14 -4384.61 -2.14873e-13 -16624.8)
(2.1982e+06 -67481.7 -1.67003e-14 -113117 -1.21534e-14 517352)
(371062 60553.9 6.83922e-14 -5404.94 -8.77154e-14 90727)
(-854825 106986 4.54837e-14 15584.7 1.22698e-14 -208233)
(-986552 68830.4 -7.4598e-14 2050.96 -3.26324e-14 -244275)
(-979410 29713 0 -12124.3 0 -246020)
(1.23212e+06 16379.2 -6.71221e-14 5734.25 -3.19111e-14 307138)
(1.18044e+06 77826.5 4.11802e-15 9861.33 7.99125e-14 295338)
(-37287.1 61260.1 -7.59318e-14 792.659 6.18718e-14 -9055)
(-28387.4 61736.5 5.50821e-14 1615.47 -3.079e-13 -6642.65)
(-762170 114529 -2.99805e-14 9035.32 -7.31467e-16 -186868)
(-1.02679e+06 80189.1 0 13114.7 0 -251512)
(723812 47852.5 1.63964e-14 8117.96 4.02311e-14 181607)
(-1.86863e+06 101835 7.17401e-15 -9084.33 -2.26149e-14 -465900)
(67051 71461.1 0 17246 0 20915.8)
(1.03919e+06 41212.8 -3.55445e-15 -3472.4 2.46722e-14 256982)
(788433 111124 -1.92492e-15 6222.61 9.32957e-17 197170)
(-499740 91666.6 1.41102e-13 4521.57 -1.8142e-14 -122874)
(-388005 61223.3 -1.37909e-14 -4025.62 9.93901e-14 -97270.7)
(-356404 87170.7 2.18442e-14 3838.94 -8.29761e-14 -87478.6)
(-279499 65627.6 -1.2347e-15 -3291.12 4.8748e-15 -70165.9)
(-396019 40651.7 5.10708e-14 -45.7349 7.54036e-14 -98271.8)
(-334244 46382.9 -8.93348e-14 2630.4 1.79712e-14 -82280.1)
(-408828 111662 0 963.066 0 -101200)
(-458675 112541 -4.48523e-14 -1250.64 3.89481e-14 -114117)
(-498489 115750 -3.65757e-15 -1575.03 -4.16835e-15 -124076)
(136619 71571.4 -2.19891e-13 1308.87 -1.099e-13 34222.8)
(-27176.9 85426.9 -4.88084e-14 -2357.52 9.71169e-14 -7328.08)
(987453 42384 -2.74354e-14 5903.07 7.82013e-14 246472)
(1.03394e+06 58461.4 3.80029e-14 -6738.85 -7.38745e-14 254869)
(170657 75164.5 7.91111e-15 1675.33 -5.47949e-14 42759.1)
(250624 68687.1 0 2964.57 0 62920.4)
(-537840 110574 5.59932e-14 -2817.07 -6.14908e-14 -134148)
(478354 64941.9 -1.07051e-13 4729.52 -1.36201e-15 119863)
(522327 98469.8 -4.68617e-14 5384.1 -2.90334e-15 130936)
(-192276 82912.7 -9.03566e-14 -417.307 1.2945e-13 -47811.1)
(-164182 86894 5.2714e-14 -1731.17 3.09137e-15 -41166.3)
(-235237 91184.6 8.53784e-14 -1348.77 3.03592e-14 -58701.6)
(-261146 77779.4 0 -3291.1 0 -65612.3)
(-1.12907e+06 42879.9 2.49466e-14 -290.58 -3.8018e-14 -280218)
(526987 80088.1 -4.13767e-14 -1197.57 -1.63457e-13 130459)
(374288 77409.8 -1.89519e-14 -1275.61 -2.70845e-15 92552)
(-120558 214642 -1.13775e-14 24030.9 -8.10555e-15 -23950.3)
(1.36518e+06 34455.2 -8.67088e-14 -9796.61 -5.19261e-14 336298)
(-1.59229e+06 8473.06 7.49739e-14 2203.73 4.48529e-14 -394532)
(-179562 198250 0 -7032.19 0 -46297.8)
(-187733 80191.1 3.15884e-14 2101.61 9.53212e-14 -46058.9)
(-158407 84795.2 -2.37598e-13 3695.34 -6.02543e-14 -38387.2)
(-274182 79643 1.02441e-13 1741.22 1.14503e-15 -67598.1)
(-236099 87733.6 0 3176.27 0 -57792.9)
(536541 62838.8 5.19538e-14 -4831.9 -8.36077e-14 131928)
(615998 89698.1 1.89815e-14 -3664.5 8.04136e-15 151932)
(501084 67236.9 -3.86907e-14 -9918.61 3.70251e-14 121868)
(584251 92962.7 4.13437e-14 -6867.94 1.14099e-13 143261)
(460111 67683.8 3.24533e-14 -9037.75 5.44122e-14 111920)
(536335 91472.4 -7.04768e-14 -6334.23 4.0257e-14 131504)
(421493 39687.7 3.22374e-14 -304.075 1.21687e-13 104506)
(406681 22353.1 9.47882e-14 1954.44 2.0288e-13 101391)
(-799855 87789.4 -1.79528e-14 1084.18 2.35468e-14 -198191)
(381029 85301.4 -9.81435e-14 -4745.21 -2.38762e-15 93363.7)
(-901496 62408.6 0 7740.62 0 -221759)
(1.55946e+06 94183.8 5.26134e-14 -13217.8 -3.30824e-14 383655)
(-792860 38305.5 9.88725e-14 3008 -1.62353e-13 -195978)
(-576887 44690.2 1.1944e-13 986.842 -8.02434e-14 -142893)
(-1.73559e+06 -820532 -6.67576e-15 274953 1.49228e-15 -362414)
(51562.3 79906.3 1.33454e-13 87.4558 -3.50304e-14 12815.4)
(1.6539e+06 50307.8 -1.75887e-14 -3744.75 -8.95467e-16 409438)
(-809870 60792.1 -2.76508e-14 3104.45 -8.01862e-14 -200175)
(-581892 58668.7 1.73025e-13 2807.03 8.51149e-14 -143683)
(2.45192e+06 -20488.4 2.85214e-14 -5336.84 1.26942e-14 607047)
(-111013 70922.8 -1.91398e-14 -1860.26 7.67507e-14 -28006)
(1.70145e+06 10891.4 4.36959e-14 4964.53 -2.71355e-14 423396)
(-400935 62063.2 5.98816e-14 1572.6 -1.05526e-13 -99090)
(-1.40012e+06 92410 3.54056e-14 14404 -4.61516e-15 -343825)
(-1.31591e+06 57315.1 -2.16265e-14 -7617.72 -1.64023e-15 -328393)
(1.27663e+06 58922.2 -4.09297e-14 2210.8 2.67385e-14 317306)
(-163915 83865.9 -2.61015e-13 6435.43 -1.18759e-13 -39074)
(-3800.1 -44049.1 2.71698e-16 -69066.3 9.65902e-17 -18079.6)
(-19632.6 75700.1 0 3069.02 0 -4109.77)
(-2.30353e+06 -736606 1.0966e-14 288543 -3.02267e-15 -499960)
(1.73286e+06 -820550 1.29894e-14 -277330 4.08406e-15 361147)
(-1.12272e+06 96717.1 4.58626e-14 -8975.46 -4.4439e-14 -280797)
(392038 59238.3 2.00049e-14 3873.87 7.71668e-14 98233.9)
(545758 54509.1 -6.42689e-14 5242.81 1.46294e-13 136714)
(156302 78731 1.28842e-13 -1213.76 3.83545e-14 38480.5)
(-292636 14270.1 7.46668e-14 -28.5174 -1.14787e-13 -72615.9)
(265331 104077 -6.19743e-14 -1745.09 5.6696e-14 65401.1)
(-134208 61823.6 1.83087e-14 801.226 2.80615e-14 -33100.8)
(-119772 112243 1.30359e-14 4889.13 3.7762e-14 -28504.8)
(-1.8931e+06 -990.006 -6.02995e-15 50706.5 1.42506e-14 -457134)
(15436.7 -26214.2 7.13088e-17 -45780 4.42626e-17 -7528.8)
(-665639 103604 -2.76062e-16 8332.98 5.18059e-15 -163091)
(524710 56088.9 4.6523e-14 -3529.69 1.44024e-13 129315)
(1.96113e+06 -380104 1.15558e-15 -51260.9 1.49069e-15 473877)
(-59488 61387 -1.19427e-14 -10492.1 -9.28113e-14 -17363.5)
(-66647.3 106512 9.47468e-15 -4961.14 9.06076e-14 -17767.5)
(-37765.1 92633 -1.62101e-15 -19.6521 -1.38699e-13 -9375.18)
(-96884.5 76752.9 -2.55374e-14 4142.66 3.47731e-14 -23011.1)
(44506.5 91346.5 4.15481e-14 -1672.49 1.07332e-13 10628)
(29256.3 93215.2 -9.7689e-14 -132.017 -3.18809e-14 7226.33)
(-1.96467e+06 -377652 4.90856e-15 49465.2 -1.51792e-15 -475201)
(697766 95072 -3.76656e-14 2708.46 2.03575e-14 173802)
(-245161 77424.1 -2.61529e-13 -1015.96 -7.41788e-14 -61081.6)
(828038 81011.1 1.35448e-13 4883.1 -2.29275e-13 206665)
(761396 80253.9 -1.71228e-15 4476.72 -8.80452e-14 190029)
(697632 77941.8 -2.5215e-13 2481.18 3.80092e-14 173712)
(120160 43544.4 -1.27807e-13 3937.91 -4.78013e-14 30791.3)
(-1.61778e+06 30882.8 6.80411e-14 -4036.09 -6.59611e-14 -402405)
(514568 61852.5 1.3857e-13 -2956.84 1.49506e-14 126941)
(731724 64372.4 -6.27272e-14 -2974.97 -8.96661e-14 180817)
(-139290 76879.9 -2.21506e-13 -315.583 -3.73331e-14 -34639)
(1.02804e+06 103750 1.43334e-14 -13719.9 2.06441e-14 251673)
(199143 59088.1 -8.96264e-14 542.811 6.06913e-14 49546)
(-2.05609e+06 21653.7 -2.2923e-14 -2742.53 -8.46053e-15 -510838)
(60325.3 78807.5 -1.15587e-13 1808.02 -9.72093e-14 15416.5)
(-175015 84650 -2.29823e-13 1255.14 1.08487e-13 -43113.4)
(594821 63201.5 1.72233e-13 411.722 -2.47557e-14 147689)
(546979 63983.8 1.61158e-13 352.216 3.92116e-14 135804)
(500606 62751.9 -1.16949e-13 -1587.41 3.22009e-14 123817)
(1.07123e+06 44322.5 1.72453e-14 46.666 3.6102e-14 265805)
(238813 85002.2 -7.75565e-14 3408.28 -1.66133e-13 60099.9)
(-594617 68360.1 5.24671e-14 -9200.59 1.16966e-15 -149819)
(-462678 126588 3.1903e-14 4209.7 3.55329e-14 -113755)
(-261142 50688.4 0 2001.8 0 -64298)
(-830406 94543.1 -7.09e-14 -9472.43 2.15793e-14 -208391)
(-906049 96933.4 -1.06524e-13 -10535.7 -7.02587e-15 -227423)
(-983395 100184 -1.06217e-13 -11955.3 5.11413e-14 -246967)
(471284 62805.5 2.2018e-15 7708.67 2.72758e-14 118848)
(321694 67882.9 3.45486e-14 5642.22 -4.32402e-14 81218.8)
(81753.6 5873.13 -1.00437e-13 4181.02 3.62237e-14 21322.1)
(165307 65744.1 0 -1758.92 0 40579.7)
(212067 52677 -1.17623e-13 2121.32 7.01859e-14 53144.5)
(2.37581e+06 -118704 -6.17015e-15 -309305 -2.96878e-15 512743)
(922294 42826 1.1541e-13 1880.37 -1.18421e-13 229306)
(-708550 86197.6 0 1581.25 0 -175413)
(-495037 77477.6 -5.72205e-14 9677.94 -2.51007e-15 -120427)
(398721 81735.6 3.05916e-14 -4083.88 -3.78242e-14 97917.4)
(-126939 97781.9 5.11291e-14 -2790.87 4.19354e-14 -32188.7)
(-15289.5 93785.2 1.50897e-13 -3318.92 -1.18857e-13 -4617.12)
(42490.4 66434.8 1.19861e-13 10282.8 -1.89559e-14 13094.1)
(46340.6 65453 -6.26423e-14 11239.1 -5.82988e-14 14286.7)
(-4064.92 119653 -3.13587e-15 -2848.59 -2.56701e-14 -1715.38)
(-11124.9 61804.5 -2.81102e-14 -1027.34 9.4503e-14 -3015.21)
(789.466 72207.3 -1.05383e-13 296.57 7.85077e-14 269.468)
(14348.7 74732.8 1.00723e-13 -14632.2 -4.5739e-14 -70.357)
(175820 50550.7 -7.72824e-15 2450.78 -3.6332e-14 44232.7)
(-321451 119767 -1.81349e-15 1981.9 -1.74716e-14 -79266.9)
(104664 75133.3 2.52594e-13 1618.94 -4.96831e-14 26371)
(16211.2 115988 1.04063e-14 -19117.5 1.47969e-14 -721.128)
(-683292 118469 -2.60065e-14 -2800.12 -1.55954e-14 -170233)
(876482 52802.4 8.6379e-14 3555.12 7.69894e-14 218355)
(-377313 88005.5 -9.71885e-14 -447.121 3.17831e-14 -93729.9)
(-1.57219e+06 279205 -4.48728e-15 276064 2.68005e-15 -321596)
(-232566 48300 6.92446e-14 -1937.15 7.51661e-14 -58184.9)
(-380823 120094 0 4142.42 0 -93462.1)
(113576 75762.5 1.34801e-13 723.635 -1.86142e-13 28360.1)
(176894 69111.3 7.12674e-15 -485.546 2.31301e-14 43770.6)
(1.72834e+06 -382347 -1.39007e-15 55853.8 2.42298e-16 442695)
(-2.40116e+06 8104.95 -1.91755e-14 14333.8 8.81057e-15 -592221)
(757984 61501.9 4.24373e-14 3793.38 3.56376e-14 189013)
(824729 60638.2 -4.29223e-14 3940.31 9.34883e-14 205610)
(-249331 83826 -3.19868e-13 741.945 -1.14175e-13 -61680.1)
(176060 106914 5.61537e-14 11656.3 1.10615e-13 46576.3)
(-38156.6 71830.2 8.99961e-14 -2764.47 1.36898e-13 -10153.3)
(-979189 -636061 -1.18923e-15 73332 5.00397e-16 -224762)
(-2.34249e+06 77375.6 6.2769e-15 1796.41 8.11209e-15 -580773)
(2.07569e+06 36923.5 3.40928e-14 4104.03 -1.67817e-14 516038)
(-2.99793e+06 -52828.7 -8.82993e-15 -7954.73 -3.79869e-15 -745820)
(974445 56034.9 -3.8914e-14 -7204.97 -6.04439e-14 239992)