/*--------------------------------*- C++ -*----------------------------------*\
| =========                 |                                                 |
| \\      /  F ield         | OpenFOAM: The Open Source CFD Toolbox           |
|  \\    /   O peration     | Version:  2.3.1                                 |
|   \\  /    A nd           | Web:      www.OpenFOAM.org                      |
|    \\/     M anipulation  |                                                 |
\*---------------------------------------------------------------------------*/
FoamFile
{
    version     2.0;
    format      ascii;
    class       volScalarField;
    location    "0.03";
    object      k;
}
// * * * * * * * * * * * * * * * * * * * * * * * * * * * * * * * * * * * * * //

dimensions      [0 2 -2 0 0 0 0];

internalField   nonuniform List<scalar> 
15166
(
0.941895
0.988187
1.17681
1.38215
1.53287
1.68022
1.76952
1.79665
1.77633
1.71225
1.61318
1.51142
0.947247
0.952049
1.16447
1.36521
1.51628
1.65244
1.73029
1.75071
1.72508
1.65996
1.56439
1.45533
0.959951
0.916207
1.14202
1.34078
1.49274
1.62042
1.6902
1.70563
1.67674
1.61131
1.51776
1.4067
0.975128
0.886266
1.11692
1.31342
1.4653
1.58604
1.64988
1.66174
1.63095
1.56558
1.47287
1.358
0.991477
0.862019
1.09194
1.28562
1.43632
1.55099
1.61018
1.61941
1.58755
1.52251
1.43048
1.31527
1.00888
0.842124
1.06764
1.25813
1.4069
1.51616
1.57154
1.5788
1.54641
1.4818
1.3902
1.27385
1.02716
0.825649
1.04426
1.23125
1.37752
1.48195
1.53417
1.53996
1.50735
1.44317
1.35157
1.23248
1.04608
0.812
1.022
1.20515
1.34851
1.4486
1.49813
1.50281
1.47021
1.40651
1.3151
1.19632
1.06541
0.800724
1.00101
1.18
1.32014
1.41624
1.46346
1.4673
1.43486
1.37168
1.28055
1.16188
1.08497
0.791424
0.981292
1.15584
1.29255
1.385
1.43016
1.43335
1.40117
1.33855
1.24796
1.13063
1.10463
0.783802
0.962821
1.13269
1.26582
1.35487
1.39821
1.40089
1.36904
1.30706
1.21729
1.1021
1.1243
0.777576
0.945525
1.11054
1.23999
1.32588
1.36755
1.36982
1.33835
1.27712
1.18867
1.07725
1.14389
0.772542
0.929349
1.08933
1.21507
1.29798
1.33813
1.34007
1.30903
1.24868
1.16189
1.05464
1.16331
0.768539
0.914221
1.06902
1.19105
1.27116
1.30989
1.31157
1.28099
1.22155
1.13618
1.02944
1.18251
0.765386
0.900068
1.0496
1.16791
1.24536
1.28278
1.28423
1.25415
1.19572
1.11201
1.0084
1.20143
0.762973
0.886807
1.03101
1.14563
1.22055
1.25673
1.258
1.22843
1.17105
1.08909
0.988172
1.22004
0.761179
0.874365
1.0132
1.12417
1.19667
1.23169
1.2328
1.20377
1.14749
1.06727
0.968691
1.23831
0.759923
0.862698
0.996147
1.10351
1.17369
1.2076
1.20859
1.18011
1.12494
1.04642
0.949772
1.25618
0.75913
0.851727
0.979798
1.0836
1.15156
1.18441
1.18529
1.15739
1.10334
1.02654
0.932303
1.27361
0.758721
0.841415
0.964117
1.06442
1.13023
1.16208
1.16287
1.13553
1.08264
1.00756
0.915668
1.29059
0.758651
0.831694
0.94907
1.04593
1.10967
1.14055
1.14127
1.11452
1.06275
0.989301
0.898822
1.30717
0.758863
0.822521
0.93463
1.0281
1.08983
1.1198
1.12045
1.09427
1.04362
0.971677
0.882482
1.32324
0.759321
0.813861
0.920747
1.0109
1.07069
1.09976
1.10036
1.07476
1.0252
0.954625
0.866319
1.33884
0.759998
0.805668
0.907405
0.994299
1.05221
1.08042
1.08097
1.05594
1.00743
0.938115
0.850614
1.35393
0.760864
0.797907
0.894582
0.978275
1.03435
1.06173
1.06224
1.03778
0.990267
0.92214
0.835553
1.36847
0.761888
0.790543
0.882242
0.962799
1.01709
1.04367
1.04414
1.02022
0.973682
0.906672
0.821049
1.38254
0.763051
0.783547
0.870353
0.947843
1.00039
1.02619
1.02663
1.00324
0.957634
0.891736
0.807269
1.39612
0.764355
0.776901
0.8589
0.933382
0.984231
1.00928
1.00969
0.986813
0.942111
0.87732
0.794413
1.40912
0.765782
0.770566
0.847867
0.919397
0.968589
0.9929
0.993275
0.970907
0.927087
0.863426
0.782087
1.42163
0.767318
0.764535
0.837221
0.905866
0.953438
0.977032
0.977379
0.955495
0.91254
0.849964
0.769795
1.43358
0.768936
0.75877
0.826947
0.892765
0.938756
0.961651
0.961966
0.940556
0.898436
0.836955
0.75811
1.445
0.770642
0.753274
0.817022
0.880078
0.924522
0.946734
0.947019
0.926065
0.884767
0.824339
0.74664
1.45586
0.772436
0.748017
0.807443
0.86779
0.910718
0.932261
0.932511
0.912004
0.871504
0.81212
0.735658
1.46631
0.774305
0.742997
0.798179
0.855877
0.897323
0.918212
0.918426
0.898351
0.858636
0.800273
0.724911
1.47607
0.776243
0.73819
0.789228
0.844328
0.884319
0.904566
0.904744
0.885095
0.846139
0.788778
0.714621
1.48544
0.778268
0.733597
0.780558
0.833122
0.871691
0.891308
0.891448
0.872209
0.833997
0.777615
0.704423
1.49425
0.780357
0.729194
0.772171
0.82225
0.859421
0.878421
0.878522
0.85968
0.822193
0.766773
0.694733
1.50254
0.782518
0.724978
0.764044
0.811693
0.847495
0.865888
0.865946
0.847493
0.810723
0.756269
0.685633
1.51034
0.78476
0.720942
0.756171
0.801441
0.835899
0.853695
0.853709
0.835633
0.79957
0.746066
0.676635
1.51756
0.787122
0.717081
0.748541
0.791484
0.824621
0.841829
0.841798
0.824091
0.788722
0.736205
0.668278
1.52419
0.789544
0.713384
0.741142
0.781805
0.813646
0.830276
0.830196
0.81285
0.778155
0.726533
0.659029
1.53027
0.792063
0.70984
0.733967
0.772393
0.802962
0.819023
0.818893
0.801896
0.767861
0.717045
0.649698
1.53582
0.794637
0.706454
0.727006
0.763239
0.792558
0.808057
0.807874
0.791219
0.757822
0.707805
0.641326
1.54085
0.797299
0.703218
0.720244
0.75433
0.78242
0.797367
0.79713
0.780809
0.748033
0.698777
0.632839
1.54539
0.799987
0.700132
0.713679
0.745658
0.772539
0.786941
0.78665
0.770651
0.738478
0.689978
0.624974
1.54943
0.802641
0.697202
0.707303
0.737213
0.762905
0.776769
0.776422
0.760736
0.729154
0.681372
0.616788
1.55299
0.805385
0.694424
0.701117
0.728984
0.753507
0.766841
0.766435
0.751058
0.720046
0.672998
0.609469
1.55609
0.808073
0.691785
0.695118
0.720965
0.744335
0.757147
0.75668
0.741602
0.711153
0.664812
0.601921
1.55875
0.810756
0.68926
0.689293
0.713149
0.735382
0.747678
0.747148
0.73236
0.702461
0.656837
0.594946
1.56096
0.813445
0.686872
0.683637
0.705521
0.726638
0.738425
0.737833
0.723328
0.693963
0.649038
0.587695
1.56274
0.816096
0.684606
0.67814
0.698075
0.718098
0.729381
0.728722
0.714494
0.685664
0.641441
0.581104
1.56411
0.818829
0.682455
0.672795
0.690797
0.709752
0.720537
0.719811
0.705851
0.67754
0.634023
0.574652
1.56507
0.821512
0.680407
0.667596
0.683702
0.701594
0.711883
0.711091
0.697392
0.669595
0.626742
0.567696
1.56562
0.82424
0.678461
0.662544
0.676779
0.693614
0.703411
0.702554
0.689115
0.661822
0.619625
0.561359
1.56579
0.826997
0.676613
0.65763
0.670021
0.685805
0.695112
0.694186
0.681003
0.654211
0.612679
0.55521
1.56559
0.829776
0.674861
0.65285
0.663423
0.678161
0.68698
0.685981
0.673045
0.646747
0.6059
0.549573
1.56501
0.832521
0.673201
0.648199
0.656977
0.670679
0.679013
0.677935
0.665238
0.639423
0.599255
0.543733
1.56407
0.835369
0.671638
0.643676
0.650681
0.663356
0.671202
0.670041
0.657575
0.632238
0.592759
0.538386
1.56278
0.838174
0.670172
0.639276
0.644528
0.656182
0.663546
0.662296
0.650053
0.625184
0.58633
0.531948
1.56114
0.841026
0.668787
0.634992
0.638515
0.649158
0.656037
0.654694
0.642669
0.618258
0.580019
0.526262
1.55916
0.84387
0.667514
0.63083
0.632637
0.642276
0.648671
0.647231
0.635415
0.611455
0.573845
0.521042
1.55686
0.846793
0.666337
0.626782
0.626889
0.635533
0.641446
0.639903
0.62829
0.604771
0.567808
0.516129
1.55424
0.849692
0.665257
0.622848
0.621271
0.628927
0.634356
0.632708
0.62129
0.598209
0.56188
0.510969
1.5513
0.85264
0.66426
0.61903
0.61578
0.622453
0.6274
0.625642
0.614412
0.591761
0.556079
0.506183
1.54804
0.855584
0.663385
0.61532
0.610412
0.61611
0.620575
0.618702
0.607654
0.585426
0.550372
0.50106
1.54447
0.858592
0.662595
0.611722
0.605165
0.609895
0.613876
0.611884
0.601012
0.579204
0.544771
0.496321
1.54063
0.861639
0.661911
0.60824
0.600038
0.603803
0.607303
0.605189
0.594483
0.573085
0.539255
0.491316
1.53647
0.864686
0.66133
0.604863
0.595027
0.597835
0.600851
0.598609
0.588065
0.56707
0.533842
0.486739
1.53201
0.867784
0.660864
0.601601
0.590134
0.591987
0.594518
0.592144
0.581758
0.561158
0.528518
0.482068
1.5273
0.870883
0.66051
0.598451
0.585352
0.586256
0.588301
0.585791
0.575555
0.555345
0.523302
0.477779
1.52229
0.874058
0.660258
0.595418
0.580687
0.580639
0.5822
0.579551
0.569458
0.549632
0.518167
0.473236
1.51701
0.877153
0.660126
0.592494
0.576133
0.575138
0.576212
0.573416
0.563463
0.544014
0.513132
0.46909
1.51147
0.880398
0.660086
0.589672
0.571689
0.569751
0.570336
0.56739
0.557567
0.538493
0.508197
0.464976
1.50564
0.883606
0.660227
0.586994
0.567365
0.564478
0.564571
0.561472
0.551773
0.533063
0.503342
0.460795
1.49955
0.886838
0.660428
0.584413
0.563143
0.559312
0.558912
0.555653
0.546072
0.527719
0.498566
0.456833
1.49322
0.890156
0.660772
0.581959
0.559036
0.554255
0.553361
0.549938
0.540467
0.522465
0.493861
0.452609
1.48664
0.893422
0.66123
0.579621
0.555044
0.549308
0.547915
0.544325
0.534959
0.517298
0.489232
0.448689
1.47978
0.896671
0.661806
0.577409
0.55116
0.544471
0.542574
0.538809
0.529543
0.512217
0.484676
0.444666
1.47267
0.900042
0.662536
0.57532
0.547391
0.539739
0.537337
0.533395
0.524219
0.507219
0.480199
0.440932
1.46532
0.903382
0.663391
0.573363
0.543732
0.535115
0.532203
0.528076
0.518987
0.502305
0.475779
0.436906
1.45772
0.906737
0.664397
0.571534
0.54019
0.530599
0.52717
0.522853
0.513842
0.497473
0.471442
0.433188
1.44987
0.910109
0.665506
0.569842
0.536765
0.526187
0.522237
0.517725
0.508784
0.492715
0.467181
0.429755
1.44179
0.913474
0.666748
0.568275
0.53345
0.521881
0.517406
0.512692
0.503813
0.488035
0.462993
0.426287
1.43346
0.916854
0.668154
0.566845
0.530257
0.517684
0.512675
0.507753
0.498931
0.483437
0.458863
0.42257
1.42488
0.920258
0.669703
0.565557
0.527184
0.51359
0.508042
0.502907
0.494132
0.478913
0.454806
0.41918
1.41607
0.923655
0.671402
0.564435
0.524225
0.509604
0.503507
0.49815
0.489418
0.474468
0.450807
0.415578
1.40703
0.927016
0.673241
0.563449
0.521393
0.505727
0.49907
0.493485
0.484785
0.470092
0.446872
0.412381
1.39775
0.930374
0.675228
0.562602
0.518693
0.501958
0.494734
0.48891
0.480233
0.46579
0.442993
0.408911
1.38822
0.933729
0.677368
0.561921
0.516113
0.4983
0.490497
0.484427
0.475765
0.461561
0.439166
0.405449
1.37844
0.937086
0.679703
0.561419
0.513672
0.494754
0.486358
0.480035
0.471382
0.457407
0.435377
0.401673
1.36842
0.940414
0.682147
0.561057
0.511355
0.491313
0.482317
0.475729
0.467072
0.45331
0.43166
0.398888
1.35816
0.943719
0.68475
0.560887
0.509186
0.487992
0.478375
0.471513
0.462846
0.449293
0.428019
0.395739
1.34769
0.947023
0.687555
0.560892
0.507157
0.484785
0.474534
0.467389
0.4587
0.445343
0.424453
0.392889
1.33694
0.950249
0.690509
0.561074
0.505274
0.481702
0.470797
0.463356
0.454634
0.441464
0.420953
0.389958
1.32597
0.953478
0.693626
0.561441
0.503548
0.478733
0.467163
0.459413
0.450647
0.437655
0.417525
0.387229
1.31476
0.956619
0.696893
0.561994
0.501965
0.475893
0.463632
0.455561
0.446743
0.433923
0.414155
0.38425
1.3033
0.95976
0.700378
0.562773
0.500555
0.473179
0.460209
0.451802
0.442919
0.430257
0.41085
0.381594
1.29156
0.962822
0.704019
0.563754
0.499313
0.470602
0.456894
0.448134
0.439175
0.426661
0.407598
0.378771
1.2796
0.965862
0.707834
0.564946
0.498255
0.468155
0.45369
0.444562
0.435512
0.423137
0.404419
0.376208
1.26737
0.968783
0.711851
0.566386
0.49738
0.465859
0.450601
0.44109
0.431937
0.41969
0.401292
0.373336
1.25488
0.971658
0.716033
0.568047
0.496689
0.463701
0.44763
0.437713
0.428444
0.416313
0.398223
0.37075
1.2421
0.974476
0.720389
0.569972
0.496212
0.461702
0.444777
0.434433
0.425031
0.413001
0.395222
0.368347
1.22906
0.977203
0.724961
0.572139
0.49594
0.45986
0.442053
0.431259
0.421709
0.40977
0.392283
0.365788
1.21575
0.979845
0.7297
0.574554
0.495899
0.458191
0.439458
0.428192
0.418478
0.406616
0.3894
0.363188
1.20217
0.982391
0.73466
0.577266
0.496084
0.456703
0.436997
0.425233
0.415335
0.403532
0.386584
0.360935
1.1883
0.984829
0.739788
0.580284
0.496527
0.455398
0.434679
0.422386
0.412285
0.400532
0.383839
0.358578
1.17414
0.987151
0.745139
0.583582
0.497221
0.454284
0.432513
0.419659
0.409331
0.397606
0.381165
0.356494
1.15968
0.989329
0.750654
0.587175
0.498199
0.453386
0.430503
0.417057
0.406479
0.394767
0.378569
0.354445
1.14489
0.991424
0.75639
0.591154
0.499465
0.452717
0.428663
0.414583
0.403731
0.392016
0.376044
0.35233
1.12978
0.993396
0.762365
0.595421
0.501053
0.452282
0.427003
0.412245
0.401093
0.389354
0.373599
0.350385
1.11434
0.995232
0.768517
0.600109
0.50299
0.452109
0.425532
0.410058
0.398573
0.386789
0.371225
0.348304
1.09855
0.996923
0.774895
0.605152
0.505268
0.452204
0.424267
0.408023
0.396171
0.384321
0.368933
0.346442
1.08244
0.998417
0.781458
0.610607
0.507941
0.452617
0.42322
0.406157
0.393902
0.381957
0.36674
0.344647
1.06595
0.99976
0.788253
0.616458
0.511032
0.453344
0.422422
0.404469
0.391775
0.379708
0.364621
0.342658
1.04907
1.00094
0.79532
0.622819
0.51458
0.454427
0.42188
0.402981
0.389796
0.377572
0.362588
0.340989
1.03182
1.0019
0.802538
0.62961
0.518583
0.455882
0.421622
0.4017
0.387976
0.375563
0.360663
0.33931
1.01412
1.00272
0.810047
0.636922
0.523116
0.457779
0.421674
0.400652
0.386335
0.373694
0.358845
0.337856
0.996009
1.00327
0.817777
0.64473
0.528217
0.460123
0.422083
0.399865
0.384892
0.371976
0.357153
0.336433
0.977435
1.00359
0.825783
0.653167
0.533942
0.462982
0.422867
0.399355
0.38366
0.370427
0.355606
0.33527
0.958389
1.0037
0.833992
0.662166
0.540339
0.466411
0.424092
0.39917
0.382662
0.36906
0.354221
0.334163
0.938833
1.00356
0.842483
0.671867
0.547449
0.470469
0.425788
0.39934
0.381933
0.36789
0.352963
0.332968
0.918734
1.00314
0.851271
0.682228
0.555403
0.475236
0.428026
0.399904
0.381499
0.366941
0.351871
0.332089
0.898077
1.00238
0.860352
0.693355
0.564253
0.480798
0.430883
0.400934
0.38141
0.366261
0.351007
0.331341
0.876808
1.00143
0.869731
0.705355
0.574075
0.487253
0.434458
0.402484
0.381707
0.365869
0.35035
0.330863
0.854882
1.00009
0.879479
0.71822
0.585045
0.494735
0.438828
0.404647
0.382451
0.365808
0.349964
0.330568
0.83226
0.99837
0.889608
0.732102
0.597241
0.503384
0.444138
0.407505
0.383713
0.366125
0.349856
0.33053
0.808875
0.996434
0.900168
0.747152
0.610919
0.513394
0.450564
0.411208
0.385589
0.366898
0.350109
0.330817
0.784653
0.994027
0.911281
0.763469
0.626247
0.524996
0.458275
0.415894
0.388193
0.368213
0.350761
0.331336
0.75952
0.9913
0.923047
0.781351
0.643526
0.538475
0.467551
0.421757
0.391657
0.37015
0.351875
0.332185
0.733342
0.988198
0.935697
0.801076
0.66312
0.554229
0.478674
0.429026
0.39615
0.372817
0.353504
0.333435
0.706013
0.984935
0.949595
0.823184
0.685588
0.572682
0.492069
0.438003
0.401875
0.376363
0.355787
0.335163
0.6773
0.981745
0.965502
0.84847
0.71168
0.594521
0.508224
0.449061
0.409075
0.380948
0.358791
0.337429
0.646909
0.979931
0.984818
0.878201
0.742333
0.620456
0.527656
0.462573
0.418057
0.386762
0.36265
0.340238
0.614412
0.983968
1.01153
0.915069
0.779164
0.651645
0.551274
0.479217
0.429273
0.39413
0.367518
0.343639
0.575476
0.991782
1.03996
0.95636
0.819274
0.685909
0.577523
0.498287
0.442087
0.40274
0.373249
0.34784
0.418587
0.00369243
0.107729
0.106106
0.105971
0.514055
0.488269
0.88286
0.288867
0.26837
0.19794
0.00486409
0.0127181
1.53731
0.783721
0.00333419
1.40173
0.0382333
0.0372609
0.00331529
0.0966612
0.189766
0.0464921
0.0130279
0.431306
0.107945
0.144047
0.417872
0.193402
0.287055
0.164018
1.16203
0.00354676
0.194317
0.0122004
0.101121
1.06655
0.134574
0.594832
0.00506043
0.130481
0.00327844
0.0231858
0.132096
0.567244
0.182298
0.0216227
0.00813718
0.576139
0.0959485
0.0991964
0.864321
0.533409
0.00322826
0.889178
0.00359196
0.0047188
0.00327839
0.13524
0.786977
0.129506
1.17202
0.00322768
0.007482
0.0514116
0.00361398
0.259694
0.523074
1.63483
0.23215
0.828737
0.0217453
0.567302
0.206984
0.0132807
0.00324001
0.271502
0.00322735
0.0290291
0.357221
0.036635
0.0032275
1.15864
0.582365
0.00715489
0.42764
0.261048
0.0032274
0.119777
0.512994
0.443297
0.203504
0.00322735
0.00343104
1.20471
0.00324883
0.43699
0.00438734
0.00322803
0.286299
0.378793
0.0641363
0.00327482
0.0035511
0.00322733
1.35901
0.734867
1.34063
0.137024
0.00322777
0.0762782
0.00322749
0.227101
0.00340062
0.00322738
0.350944
0.00945261
0.0982813
0.41644
0.0580505
0.319752
0.0119845
0.750658
0.0594535
0.0624522
0.530282
0.00328272
1.85733
0.00924171
0.00322742
0.306748
0.00323763
0.360537
0.00356858
0.150722
0.0038106
0.532512
0.195522
0.2317
0.00391079
0.00815671
0.150566
0.539603
0.00325634
0.351809
0.846384
0.506227
0.003701
0.367921
0.79006
0.00326603
0.3311
0.00322764
0.0438628
0.0445296
0.00322919
0.300743
0.00322895
0.509737
0.00468816
0.0117173
0.00333915
0.0528573
0.00734143
0.105078
0.0280642
0.93966
0.678907
0.703135
0.00322732
0.847585
0.251672
0.891912
0.00859171
0.00322736
0.171748
0.00322732
0.591504
0.0459559
0.228515
0.958012
0.160554
0.0299683
0.67322
0.003289
0.317799
0.00323523
0.00322738
0.353464
0.00322735
0.153227
0.00322791
1.09513
0.00380401
0.348121
0.591
0.333166
0.175765
0.00322755
1.60413
0.384052
0.566465
1.13428
0.252266
0.532155
0.0391999
0.0455778
0.0772992
0.202008
0.0971418
0.439576
0.324739
0.802753
0.907462
0.00322731
0.454284
0.00723257
0.115097
1.64123
0.451231
0.580367
0.384398
0.685614
0.00323096
0.00323377
0.535858
0.427393
0.0032507
2.39739
0.00890527
0.50576
0.0603108
0.00322797
0.309701
0.113839
0.449497
0.296845
0.412111
0.16042
0.437926
0.058447
0.0454145
0.576244
0.742314
0.304536
0.427651
0.351797
0.00331797
0.636306
0.482969
0.215833
0.208802
0.114851
2.63862
0.524589
0.0881509
0.304949
0.408289
0.184044
0.68612
0.0976322
0.480287
0.00673545
0.044617
0.631834
0.492978
0.34295
0.681367
0.0964587
1.37919
0.590366
0.0182567
0.738859
0.298895
0.299597
0.770407
0.529459
0.514635
0.69039
0.425288
1.16011
0.52116
0.710543
0.544189
0.176501
0.33345
0.136159
0.291607
0.457592
0.108331
0.421296
0.737337
0.360017
0.350779
0.520034
1.0935
0.0460447
0.302024
0.0195571
1.23261
0.197001
0.0576439
0.909526
0.916815
0.0431989
0.349898
0.774419
0.00322732
0.0556352
0.0629295
0.0697357
0.774191
0.00323009
0.499988
0.572287
0.0202772
0.356773
0.258982
0.00322734
0.434032
0.0109329
0.184957
0.116443
4.36169
1.10043
0.257448
0.151145
0.00322777
0.00323215
0.759188
0.103957
0.00322741
0.161682
0.0032279
0.00323227
0.00324592
0.00322729
0.048308
0.00322797
0.004604
0.310291
0.743742
0.00323219
0.423139
0.004604
0.288679
0.55166
0.513155
2.25801
0.123227
0.00322728
0.00324525
0.0322328
0.0450286
0.312719
0.00322739
0.0447074
0.658401
0.314815
0.115013
0.376602
0.594669
0.399956
2.20338
0.107138
0.10586
0.00330383
0.00322746
0.120523
0.219423
0.0392024
0.365245
1.09432
2.59842
0.748919
0.109378
0.508139
0.385369
0.00323561
0.124202
0.201341
0.00403631
0.00322854
0.801829
2.5588
0.876803
0.00322741
0.0153764
0.133051
0.00841471
0.00323852
0.308366
0.115585
0.541879
0.518989
0.00331576
2.04171
0.00322872
0.0842702
0.153385
0.00414632
0.00641411
0.314476
0.00499196
0.642644
0.613005
0.461097
0.203156
0.324492
1.33942
0.00322762
0.00322742
0.00322784
0.411602
0.0305435
1.29724
2.06664
0.174861
0.715899
0.00323508
0.00322764
0.437877
0.00322735
0.0032313
0.95269
0.00322733
0.0947563
0.334017
0.752305
0.00322732
0.0047577
0.0562819
0.0422232
0.33272
0.0491935
0.00322734
1.79512
0.312666
0.0647529
0.00641205
0.791031
0.280398
0.00423468
0.392393
0.00416907
0.276838
0.00332924
0.302907
0.055156
0.00322738
0.515189
0.334129
0.51571
0.00572011
0.141143
0.149814
0.00403683
0.329193
1.17823
0.116298
1.20849
0.010057
0.0143453
0.00584045
0.567625
0.205906
0.103652
0.100851
0.151109
0.569533
0.080012
1.37071
0.959189
0.00322733
0.913207
0.335989
0.275095
0.00322742
0.538252
0.33116
0.00322785
1.1983
0.625405
0.0978496
0.0616758
0.370577
0.55818
0.00334226
0.00873105
0.321376
0.0148902
0.00323342
1.06673
2.23311
0.0147706
0.425869
0.281693
0.0415792
0.741598
0.582308
0.306
0.399919
0.619644
0.00323878
0.0280382
1.10122
0.443721
0.570114
0.450438
0.573846
1.01501
2.04341
0.293514
0.0959598
0.00322769
0.554523
0.294727
0.278053
0.114637
0.0605134
0.0282673
0.11464
0.00322958
0.502882
0.00322756
0.722112
0.11607
0.299469
0.367378
0.498051
0.379705
0.32745
0.18424
0.891574
0.00323339
0.0331727
0.34502
1.60896
0.214417
0.239663
0.00335053
0.0114384
0.108716
0.834764
0.183895
0.00322747
0.0220887
0.0032273
0.0204163
0.739821
0.0160538
0.298803
0.106774
1.26193
0.0496042
0.0361926
1.26866
0.658606
0.00322742
0.00322741
0.253655
0.482023
0.542598
0.196807
0.164821
0.199711
0.536818
0.00322727
0.0523227
0.443709
0.00379558
0.421463
0.514177
0.377596
0.543265
0.00514145
0.00322727
0.00985435
0.0032284
0.196365
0.296152
1.42909
0.198036
0.00323654
0.643042
0.024799
1.24184
0.0804923
0.79066
0.00322741
0.0594094
0.00322745
0.621383
0.646847
0.566709
0.128956
0.00322725
0.535961
0.275375
0.926884
0.00322849
0.00456358
0.304889
0.171594
0.00398665
2.08577
0.00338444
0.222807
0.147401
0.00335497
0.0969102
0.0337205
0.0746408
0.00322745
0.00322741
0.447008
0.915469
0.524433
1.02058
0.00373046
0.1075
0.0488662
0.266276
0.290148
0.0032647
0.0771285
1.19216
0.00322732
0.00452514
0.632087
1.23021
0.464528
0.00323015
0.679267
0.488022
0.564965
0.00829456
0.156157
1.12842
0.00323548
0.288366
0.101186
0.43725
0.113012
0.188338
0.437786
0.495504
0.496447
0.345734
2.05475
0.00324496
0.00322823
0.652637
0.278056
0.00369255
0.00322733
0.14504
0.00322756
0.3025
0.658112
0.0789181
0.00322859
0.275255
0.00323063
0.586054
0.471785
0.503974
0.0483065
0.095965
0.577325
0.00322732
0.168083
0.367259
0.484359
0.163504
0.00429905
0.169934
0.102161
1.93949
0.00322752
0.103554
0.200186
0.377317
0.00327231
0.042609
0.755668
1.19345
0.497744
0.0165284
0.842897
0.808882
0.0359819
0.598504
0.00322757
0.00429834
0.12281
0.00322732
0.375743
0.00322774
0.397639
0.00633606
0.322784
0.00323024
0.0726065
1.18364
0.668831
0.101767
0.201089
0.0467041
1.15378
0.00819165
0.0385738
0.170286
0.00322745
0.00322747
0.563234
0.0436833
0.514376
0.494426
0.00326226
0.343188
0.368096
0.285738
0.159188
0.440435
0.293483
0.00322738
1.80038
1.87758
0.918771
0.00323898
0.0048344
0.981794
0.518859
0.00322817
0.516082
0.00322749
0.0276035
1.33666
0.00332868
0.359585
0.00322732
0.0172594
1.19735
0.00324383
0.0035057
0.00322731
0.0034391
0.0108781
2.07496
0.295851
0.0360452
0.349615
0.00322734
0.228641
0.00322782
0.391912
0.0963189
0.00715681
0.152148
0.00535256
0.444511
0.00323401
3.18946
0.285588
0.157679
0.186849
0.153914
0.00322735
0.399845
0.462159
0.114153
0.200448
0.334586
0.76841
0.433557
0.0172582
0.173775
0.0378621
0.00347385
0.0304127
1.88674
0.416974
0.0619364
0.00322735
0.585851
0.00340339
0.131657
0.312622
0.451807
0.270803
0.344107
0.0155887
0.00465161
0.785397
0.494264
0.0226516
0.561221
0.00323121
0.646692
0.886841
0.00326153
0.750809
0.279922
0.0984404
0.0286519
0.640731
0.0118068
0.0331084
0.118946
0.0961226
0.0925362
0.00322977
0.214057
0.0362841
0.440066
0.487959
0.290617
0.580724
0.00471748
0.168612
0.0032274
0.00322784
0.277507
0.0317065
0.0818796
0.862384
0.0032273
0.440803
0.0368276
0.0160485
0.00324971
0.746889
0.0984181
0.043519
0.264049
0.0168938
1.17023
0.132433
0.00322756
1.30971
0.978402
0.00381145
0.00454014
0.296513
0.426942
0.0407372
1.44086
0.0133893
0.100821
0.0286375
0.0505527
0.207932
0.285972
0.00322745
0.495079
0.714166
0.00551578
0.0953912
2.42033
0.58065
0.00322767
0.00322739
0.254593
0.401025
0.386192
0.00322732
0.227081
0.0933005
0.811299
0.00343996
0.519497
0.273713
0.00380831
0.532114
0.00323921
0.460363
0.47143
0.754595
0.676071
0.00322923
0.00322729
0.337338
0.575231
0.117411
0.235747
0.0032273
0.0213259
0.00324088
0.00408701
0.471079
0.020266
0.0365521
0.0536471
0.703636
0.582805
0.474091
0.47063
0.00322831
0.701128
0.236305
0.504153
0.00322739
0.341743
0.00323873
0.00322759
0.0657293
0.460587
0.0106446
0.907229
0.419676
1.36251
0.00325514
0.00396597
0.0124399
1.04867
0.106899
1.09891
0.00322936
0.00322993
0.00438859
0.0048368
0.392285
0.276119
1.16931
0.0619608
0.0133042
0.100218
0.18031
0.699451
0.344714
0.346674
0.382861
0.00322735
0.199271
0.0040861
0.114523
0.351354
0.396131
0.121582
0.0422535
0.00342333
0.550174
0.168996
0.131101
0.709247
0.0032287
0.929331
0.259833
0.58117
0.00373678
0.34241
1.12129
0.321578
0.473384
0.490419
1.1603
0.0497535
0.66668
0.243349
0.0332298
0.408192
0.00323067
0.494542
1.15585
0.00322816
0.202061
0.00376742
1.36397
0.295582
0.0870143
0.536774
0.990562
0.276498
0.315994
0.0530804
0.321949
0.255383
0.00603798
0.00322776
0.427713
0.0288255
0.388329
0.855298
0.279361
0.311799
1.36793
0.00322781
0.530764
1.55432
1.10842
0.276755
0.36452
0.171575
0.852792
0.277754
0.0845576
0.0106732
0.0319582
1.34642
0.470037
0.0404961
0.311893
0.298808
0.258081
0.355466
0.102099
0.117844
0.214812
0.00322737
0.90188
1.05908
0.0753574
0.0032273
0.141649
0.107682
0.520337
0.00323057
0.947743
0.0032283
0.289306
0.045425
0.0032351
0.283014
1.02201
0.00322734
0.646244
0.752939
0.175026
0.48681
1.06593
0.384566
0.171907
0.304342
0.0805874
0.00322903
0.00366622
0.827537
0.175171
0.0032281
0.00323725
1.02089
0.0040446
0.060249
0.0437237
0.128705
0.230594
0.0260922
0.0760656
0.871728
0.736565
0.673359
2.34804
0.327595
0.00322754
0.657086
0.182929
0.761887
0.00322762
0.181743
0.0032273
0.00334361
0.541702
0.10661
0.0146977
0.00329607
0.251873
2.43389
0.00442641
0.00322999
0.12297
0.640444
0.00802504
0.0205153
2.51036
0.0405473
0.00329321
0.00323174
0.375375
0.575152
0.0666881
0.0261862
0.797678
1.28189
0.735222
0.421254
0.198194
0.00322731
0.128692
0.00322842
0.305715
0.570726
3.23224
0.182656
0.0347023
0.00339833
0.498866
0.00322732
0.00322807
0.00392596
0.337158
0.555678
0.36587
0.003228
0.134968
0.00322979
0.466678
0.365708
0.0032275
1.40437
0.272408
0.0032283
0.00326528
0.010533
0.390983
0.11651
0.0112336
0.00323072
0.003229
0.953651
0.90286
0.405897
0.251506
0.0369153
0.543347
0.00322823
0.00605167
0.115789
0.987489
0.229508
0.00478656
0.00322757
0.884408
0.00323132
0.2967
1.11723
0.106206
0.0158952
0.286761
0.134359
0.122967
0.00322802
0.167994
0.533593
1.16441
0.00393389
0.0143958
0.214409
3.24206
0.0154786
0.115226
0.00322733
0.00322762
0.00323743
0.00915146
0.839514
0.4118
0.00322755
0.377241
0.197768
1.2041
0.279976
0.00890525
0.0044746
0.00357087
0.107805
0.318394
0.492237
0.00323051
0.538554
0.0032278
0.00739298
0.29736
0.301035
0.0103652
0.113681
0.140775
0.00352171
0.0975805
0.124267
0.00322734
0.00344251
0.405936
0.00336752
0.00323083
1.37859
0.505653
2.00436
0.233208
1.58383
0.00334397
0.00322836
2.22608
0.521539
0.0711856
0.202746
0.0174451
0.493758
0.0829865
0.878619
0.283094
0.863794
0.985305
0.379357
0.0963472
0.706961
0.850652
0.00729332
1.04463
0.0034874
0.721154
0.287355
0.0614733
0.113459
0.205885
0.140128
0.0925068
0.688053
0.833467
1.10554
0.457767
0.869251
0.22513
0.097523
0.00351433
0.00322745
0.0538393
1.01661
0.00322732
0.846464
0.00322906
0.00484469
0.295911
0.303476
0.282436
1.32949
0.732506
0.443185
0.121658
0.96478
0.00323032
0.355506
0.414712
0.0032396
0.507193
0.00453571
1.65292
1.06511
1.14658
0.555493
0.302564
0.112097
0.0693712
0.51067
0.500805
0.755994
0.343463
0.165124
0.299172
0.0402185
0.298218
0.623995
0.005327
0.178346
0.00322738
0.00347294
0.445032
0.642166
0.768988
0.481751
0.0724753
0.0391303
0.0327249
0.00323643
0.456569
0.0032337
1.05083
0.00322831
0.0339347
1.04811
0.171981
0.0951837
0.730018
0.363579
0.0040454
0.00323882
0.0265423
0.525809
0.0377953
1.29402
0.0159347
0.676666
0.294953
0.714707
0.795862
0.0033444
0.00322727
0.713883
0.0860785
0.171486
0.303405
0.218294
0.282398
0.00519771
0.730554
0.925094
0.286257
0.00330706
0.0951247
0.501193
0.300632
0.0678682
0.358433
0.00323177
0.138199
0.00322932
0.484392
0.00610304
0.546172
0.0432812
0.112483
0.00324345
4.29643
0.00322738
0.653591
0.00689276
0.00323118
0.00523955
0.43697
0.00322744
0.00322754
0.0949964
0.0102505
0.534416
0.0223041
0.00325693
0.45556
0.221236
0.990937
0.0032662
0.281658
0.21701
1.39861
0.224353
0.74339
0.853506
0.304127
0.107123
0.622627
0.79047
0.289328
0.00323067
0.0966668
0.480044
0.537176
0.00389497
0.00323488
0.485624
1.59068
0.00322725
0.0938779
0.526088
0.00322732
0.328413
0.373708
0.41326
1.25694
0.292427
0.487515
0.0510934
1.31032
0.118678
0.278999
0.30172
0.524638
0.0409894
0.00322739
0.853883
0.00420048
0.00322889
0.00322844
0.448899
0.00322732
0.00342111
0.150564
3.00464
0.147004
0.112157
0.306753
0.343488
0.00323349
0.302692
1.24464
0.0111721
0.156785
0.378085
0.855569
0.0332442
0.0104755
0.0032275
0.00322878
0.0110694
0.013783
0.648345
0.595501
0.490439
0.516326
0.411069
0.00347652
0.378886
0.453174
0.0032279
0.458449
1.81613
0.00324186
0.109897
1.09875
0.240867
1.35343
0.0597749
0.376208
0.00333139
0.0657133
0.00326483
0.00452728
0.00322774
0.297229
0.17029
0.0257787
0.00322734
0.00322735
1.25698
0.491514
0.0914343
0.48937
0.109005
0.711404
0.376385
0.802287
0.729023
0.00322737
0.056779
0.053085
0.0464563
0.445419
0.422409
0.247798
1.45871
0.760494
0.464048
1.2113
0.29395
1.07397
0.314182
0.0284645
0.31567
0.754964
0.00883792
1.00129
0.314281
0.129418
0.00322824
0.00322741
0.00335025
0.00364573
1.18178
0.0032273
1.299
0.298115
1.08975
0.26023
0.00323036
0.136597
0.508816
0.331245
0.343587
0.562363
0.173391
0.00325277
0.00322736
0.00488441
0.0346171
0.00322854
1.29444
0.381601
0.0873266
0.251255
0.149725
0.981248
1.31461
0.00322733
0.396346
0.201867
0.0034167
0.0317919
1.12437
0.67249
0.129317
0.219373
0.00324813
0.798577
0.905023
0.00341372
0.00920162
0.00322781
0.333023
0.00364683
0.0404046
0.553268
0.0938094
0.0277504
0.423365
1.7181
0.00325036
0.156888
0.00322732
0.274115
0.580387
0.510389
0.109763
0.803019
0.205715
0.80628
0.488007
0.23913
0.00322761
0.00322736
0.0209372
0.0509948
0.367921
0.195899
0.00323845
0.710856
0.10292
0.0052721
0.279091
0.0173361
0.00447761
0.0115489
0.405807
0.00408311
0.00323464
0.530656
0.302972
0.1974
0.0169882
0.533642
0.22377
0.00324019
0.355871
0.037038
0.02294
0.0032893
0.420629
0.128136
0.182165
0.63906
0.535984
0.653535
0.152424
0.00322753
0.711246
0.0032305
1.45965
0.00476365
0.532803
0.0396397
0.311228
0.00531209
0.00567998
0.210429
0.0997081
1.04791
0.00333823
0.0959992
1.0674
1.47493
0.216846
1.08287
0.0818314
0.00330076
0.00322745
0.732024
0.196427
0.691784
0.0901955
0.0251643
1.01409
0.597217
0.297538
0.0230675
0.00322971
0.00322732
0.0723722
0.622088
0.232987