/*--------------------------------*- C++ -*----------------------------------*\
| =========                 |                                                 |
| \\      /  F ield         | OpenFOAM: The Open Source CFD Toolbox           |
|  \\    /   O peration     | Version:  2.3.1                                 |
|   \\  /    A nd           | Web:      www.OpenFOAM.org                      |
|    \\/     M anipulation  |                                                 |
\*---------------------------------------------------------------------------*/
FoamFile
{
    version     2.0;
    format      ascii;
    class       volScalarField;
    location    "0.03";
    object      nut;
}
// * * * * * * * * * * * * * * * * * * * * * * * * * * * * * * * * * * * * * //

dimensions      [0 2 -1 0 0 0 0];

internalField   nonuniform List<scalar> 
15166
(
9.08892e-05
0.000119528
0.000188157
0.000263562
0.0003289
0.000406226
0.00048667
0.000575913
0.000658823
0.000743244
0.000819752
0.000883702
9.11427e-05
0.000127478
0.000200332
0.000275729
0.000343645
0.000420497
0.000500269
0.000586338
0.00066731
0.000748168
0.000821737
0.000884959
9.17509e-05
0.000133631
0.00020954
0.000285434
0.000355507
0.000432119
0.000511262
0.000594785
0.000673999
0.000751855
0.000822764
0.000885285
9.24723e-05
0.000138992
0.000217147
0.000293552
0.000365253
0.000441656
0.000520166
0.000601595
0.000679165
0.000754391
0.000822786
0.000884262
9.32402e-05
0.000143724
0.000223691
0.000300579
0.000373463
0.000449619
0.000527443
0.000607075
0.000683085
0.000755955
0.000822121
0.000882574
9.40536e-05
0.000147863
0.000229404
0.000306738
0.000380485
0.000456331
0.000533429
0.000611473
0.000685967
0.000756684
0.000820722
0.000879701
9.48989e-05
0.00015147
0.000234462
0.000312193
0.000386524
0.000462028
0.000538374
0.000614964
0.00068799
0.000756681
0.000818608
0.000876085
9.57705e-05
0.000154598
0.000239006
0.000317054
0.000391763
0.000466883
0.00054246
0.000617704
0.000689297
0.000756093
0.000816184
0.000873234
9.66482e-05
0.000157288
0.000243142
0.000321451
0.000396354
0.000471044
0.000545839
0.000619822
0.000690011
0.000755022
0.00081344
0.000869798
9.75286e-05
0.000159566
0.000246933
0.000325447
0.00040041
0.000474637
0.000548632
0.000621405
0.000690229
0.000753568
0.000810491
0.000866157
9.8408e-05
0.000161465
0.000250428
0.000329105
0.000404008
0.000477743
0.000550933
0.000622542
0.000690035
0.000751827
0.000807526
0.000863366
9.92782e-05
0.000163008
0.000253655
0.000332473
0.000407218
0.000480438
0.000552818
0.000623303
0.000689508
0.000749889
0.000804634
0.000860694
0.000100137
0.000164226
0.000256643
0.000335577
0.000410103
0.000482784
0.000554348
0.000623742
0.000688704
0.000747805
0.000801773
0.000857562
0.000100981
0.000165158
0.000259409
0.000338449
0.000412698
0.000484818
0.000555575
0.000623903
0.000687679
0.000745584
0.000798602
0.000852618
0.000101811
0.000165819
0.000261965
0.00034112
0.00041504
0.000486592
0.000556538
0.000623838
0.000686465
0.000743256
0.000795449
0.000848861
0.00010262
0.000166245
0.000264312
0.000343601
0.00041716
0.000488126
0.000557268
0.000623563
0.0006851
0.000740853
0.000792255
0.000844682
0.000103413
0.000166456
0.000266453
0.000345909
0.000419083
0.000489454
0.000557799
0.000623122
0.00068361
0.000738378
0.000788989
0.000840376
0.000104181
0.000166486
0.000268404
0.000348064
0.000420837
0.000490606
0.000558161
0.000622524
0.000682007
0.000735839
0.000785614
0.000835546
0.000104926
0.00016636
0.000270158
0.000350068
0.000422425
0.000491588
0.000558358
0.000621803
0.000680316
0.000733257
0.000782223
0.000831147
0.000105651
0.000166094
0.000271728
0.000351931
0.000423877
0.000492425
0.000558424
0.000620968
0.000678554
0.000730634
0.000778816
0.000826741
0.000106355
0.000165717
0.000273107
0.000353662
0.000425191
0.00049313
0.000558364
0.000620032
0.000676723
0.000727975
0.000775309
0.000821731
0.000107036
0.000165238
0.000274299
0.000355271
0.000426392
0.000493711
0.000558193
0.00061901
0.000674842
0.00072528
0.000771719
0.000816675
0.000107685
0.000164686
0.000275315
0.00035675
0.000427478
0.000494187
0.000557928
0.000617918
0.000672914
0.000722549
0.000768066
0.000811937
0.000108322
0.000164068
0.000276153
0.000358111
0.000428462
0.000494567
0.00055758
0.000616764
0.000670944
0.000719774
0.000764329
0.000806775
0.000108928
0.000163397
0.000276815
0.000359364
0.000429352
0.000494859
0.00055715
0.000615547
0.000668935
0.00071697
0.000760573
0.000802108
0.000109512
0.000162694
0.000277306
0.000360505
0.000430155
0.000495065
0.000556648
0.000614281
0.000666894
0.000714132
0.000756786
0.000797152
0.000110076
0.000161961
0.000277633
0.000361528
0.000430874
0.000495199
0.000556086
0.000612968
0.000664822
0.000711276
0.000753029
0.000792782
0.000110615
0.000161218
0.000277808
0.000362444
0.000431509
0.000495259
0.000555469
0.000611615
0.000662725
0.00070841
0.000749358
0.000788891
0.000111127
0.000160465
0.000277824
0.000363259
0.00043207
0.000495258
0.000554793
0.000610229
0.000660609
0.000705543
0.000745725
0.000784594
0.000111616
0.000159702
0.000277702
0.000363962
0.00043256
0.000495194
0.000554073
0.000608806
0.000658475
0.000702675
0.00074212
0.000780393
0.000112077
0.000158954
0.000277432
0.000364561
0.000432976
0.000495077
0.000553309
0.000607358
0.000656328
0.000699815
0.000738532
0.000775998
0.000112523
0.000158207
0.00027704
0.000365051
0.000433328
0.000494906
0.000552507
0.000605879
0.00065417
0.000696959
0.00073498
0.000771887
0.000112953
0.000157475
0.000276516
0.000365447
0.000433616
0.000494688
0.000551663
0.000604381
0.000652003
0.000694111
0.000731435
0.000767369
0.00011335
0.000156765
0.000275885
0.000365736
0.000433837
0.000494422
0.00055079
0.000602863
0.000649831
0.000691271
0.000727915
0.00076318
0.000113726
0.000156078
0.000275138
0.000365932
0.000433998
0.00049411
0.000549883
0.000601326
0.000647651
0.00068844
0.000724406
0.000758724
0.000114095
0.000155415
0.0002743
0.000366017
0.000434094
0.00049376
0.000548951
0.000599771
0.000645467
0.00068562
0.00072092
0.000754636
0.000114425
0.000154777
0.000273361
0.000366012
0.000434133
0.000493366
0.000547985
0.000598197
0.000643281
0.000682814
0.000717494
0.000750957
0.000114745
0.000154169
0.000272337
0.000365904
0.000434109
0.000492938
0.000546998
0.000596615
0.000641096
0.000680024
0.000714119
0.000747074
0.000115042
0.000153587
0.000271236
0.000365703
0.000434029
0.000492465
0.000545986
0.00059502
0.000638913
0.000677252
0.000710781
0.000743169
0.000115311
0.000153003
0.000270062
0.00036541
0.000433894
0.000491964
0.000544951
0.000593411
0.000636729
0.0006745
0.0007075
0.000739407
0.000115569
0.000152447
0.000268821
0.000365019
0.000433697
0.000491421
0.000543892
0.000591794
0.000634547
0.000671761
0.000704153
0.000734604
0.000115796
0.000151882
0.000267506
0.000364539
0.000433439
0.000490846
0.000542811
0.000590164
0.000632367
0.000669025
0.000700766
0.000730169
0.000116012
0.000151336
0.000266143
0.00036397
0.000433124
0.000490233
0.000541707
0.000588527
0.000630189
0.000666296
0.000697391
0.00072592
0.000116198
0.000150785
0.000264719
0.000363306
0.000432748
0.000489583
0.000540582
0.000586876
0.000628008
0.000663571
0.000694017
0.000721776
0.000116364
0.000150254
0.000263239
0.000362555
0.000432314
0.000488896
0.000539435
0.000585216
0.000625828
0.000660852
0.000690661
0.00071754
0.000116517
0.000149778
0.000261665
0.000361711
0.000431818
0.000488176
0.00053827
0.000583546
0.000623648
0.000658136
0.000687307
0.00071346
0.000116653
0.000149296
0.000259996
0.00036078
0.000431259
0.000487418
0.000537079
0.000581865
0.000621464
0.000655427
0.00068399
0.000709455
0.000116762
0.000148865
0.000258267
0.000359765
0.000430641
0.000486622
0.000535869
0.000580174
0.000619279
0.000652724
0.000680694
0.000705602
0.000116859
0.00014846
0.00025651
0.000358635
0.000429963
0.000485792
0.000534634
0.000578471
0.000617093
0.00065003
0.000677434
0.000701741
0.000116942
0.000148081
0.000254687
0.000357386
0.000429212
0.000484922
0.000533379
0.000576754
0.000614902
0.000647344
0.000674188
0.000697966
0.000117011
0.000147752
0.000252835
0.000356023
0.000428394
0.000484012
0.000532102
0.000575029
0.00061271
0.000644664
0.000670974
0.000694058
0.000117062
0.00014742
0.000250959
0.000354548
0.000427467
0.000483054
0.000530796
0.000573287
0.000610515
0.000641996
0.00066779
0.000690279
0.000117097
0.000147143
0.000249066
0.000352995
0.000426471
0.00048204
0.000529461
0.000571533
0.000608318
0.000639332
0.000664603
0.000686533
0.000117123
0.000146888
0.000247157
0.000351334
0.000425394
0.000480982
0.000528092
0.000569752
0.000606111
0.000636673
0.000661449
0.000683022
0.000117127
0.000146656
0.000245239
0.000349584
0.000424243
0.000479874
0.000526691
0.000567952
0.000603887
0.000634009
0.000658324
0.000679639
0.000117113
0.000146448
0.000243315
0.00034775
0.000423017
0.000478713
0.000525259
0.000566132
0.000601651
0.000631341
0.000655228
0.000676182
0.000117096
0.000146292
0.000241394
0.000345833
0.000421704
0.000477507
0.0005238
0.000564291
0.000599398
0.000628675
0.000652148
0.000672779
0.00011706
0.000146135
0.000239477
0.000343821
0.000420315
0.000476253
0.000522304
0.000562429
0.000597139
0.000626006
0.000649087
0.000669194
0.000117007
0.000146026
0.000237568
0.000341734
0.000418839
0.000474936
0.000520784
0.000560551
0.000594867
0.000623331
0.00064598
0.000665478
0.000116952
0.000145941
0.000235697
0.000339596
0.000417296
0.000473577
0.000519225
0.000558647
0.000592578
0.000620648
0.000642874
0.00066192
0.000116877
0.000145894
0.000233811
0.000337371
0.000415663
0.000472158
0.000517636
0.000556725
0.000590281
0.000617963
0.000639798
0.000658563
0.000116787
0.000145849
0.000231943
0.000335081
0.000413942
0.000470682
0.000516012
0.000554778
0.000587969
0.000615282
0.000636753
0.000655162
0.000116687
0.000145848
0.000230098
0.000332733
0.000412155
0.000469153
0.000514352
0.000552815
0.000585646
0.000612594
0.00063372
0.000651781
0.000116579
0.000145869
0.000228303
0.000330313
0.00041028
0.000467564
0.000512663
0.000550831
0.000583317
0.000609912
0.000630707
0.000648405
0.000116457
0.00014593
0.000226507
0.000327861
0.000408329
0.000465922
0.000510936
0.000548825
0.000580973
0.00060723
0.000627688
0.000644943
0.00011633
0.000146009
0.000224763
0.000325363
0.000406291
0.000464224
0.000509172
0.000546803
0.000578624
0.000604546
0.000624686
0.000641559
0.000116167
0.000146095
0.000223045
0.000322804
0.000404188
0.000462463
0.000507378
0.000544758
0.000576259
0.000601863
0.00062168
0.00063821
0.000116036
0.000146226
0.000221373
0.00032022
0.000402008
0.000460646
0.000505549
0.000542694
0.000573891
0.00059918
0.000618684
0.000634786
0.00011586
0.000146382
0.000219725
0.000317607
0.000399744
0.000458768
0.00050368
0.000540609
0.000571508
0.0005965
0.000615696
0.000631381
0.000115663
0.000146559
0.000218119
0.000314955
0.000397424
0.000456837
0.000501775
0.000538507
0.000569122
0.00059382
0.000612727
0.000628062
0.000115481
0.000146744
0.00021656
0.000312267
0.000395019
0.000454845
0.000499839
0.000536382
0.000566727
0.000591142
0.00060976
0.000624656
0.000115282
0.000146996
0.000215029
0.000309569
0.000392553
0.000452785
0.000497866
0.000534239
0.000564326
0.000588465
0.00060681
0.000621275
0.000115076
0.000147222
0.000213575
0.000306883
0.000390029
0.000450673
0.00049585
0.000532077
0.000561919
0.000585795
0.000603871
0.000617875
0.000114854
0.000147509
0.000212105
0.000304132
0.00038741
0.00044849
0.000493792
0.000529894
0.0005595
0.000583126
0.000600939
0.000614575
0.000114624
0.000147818
0.000210735
0.000301405
0.000384763
0.000446255
0.000491707
0.000527692
0.00055708
0.000580461
0.000598029
0.000611378
0.000114357
0.000148108
0.000209391
0.000298659
0.000382036
0.000443966
0.000489578
0.000525476
0.000554654
0.0005778
0.000595117
0.000608148
0.000114109
0.000148447
0.000208109
0.000295925
0.000379247
0.000441605
0.00048741
0.000523232
0.000552217
0.000575143
0.000592217
0.000604874
0.00011387
0.00014884
0.000206882
0.000293183
0.000376411
0.000439184
0.000485201
0.000520974
0.000549779
0.000572488
0.000589318
0.00060166
0.000113591
0.000149212
0.000205693
0.000290456
0.000373516
0.000436707
0.000482952
0.000518696
0.000547329
0.000569837
0.000586434
0.000598424
0.000113286
0.000149617
0.000204565
0.000287728
0.000370581
0.000434168
0.000480662
0.000516397
0.000544878
0.000567183
0.000583544
0.000595166
0.000113004
0.000150049
0.000203468
0.000285026
0.000367585
0.000431564
0.000478328
0.000514071
0.00054242
0.000564534
0.000580668
0.000591961
0.000112699
0.000150495
0.000202454
0.000282324
0.000364535
0.000428888
0.000475955
0.000511724
0.00053995
0.000561888
0.000577813
0.000588819
0.000112385
0.000150966
0.000201497
0.00027966
0.000361454
0.000426169
0.000473531
0.000509354
0.000537471
0.000559245
0.000574971
0.000585739
0.000112062
0.000151456
0.000200582
0.000277026
0.000358326
0.000423382
0.000471059
0.000506955
0.000534985
0.000556601
0.000572132
0.000582627
0.000111729
0.000151963
0.000199727
0.000274424
0.000355148
0.000420533
0.000468547
0.000504531
0.00053249
0.000553962
0.000569303
0.000579596
0.000111358
0.000152478
0.000198924
0.000271815
0.000351959
0.000417628
0.000465978
0.000502089
0.000529983
0.000551319
0.000566471
0.000576454
0.000111008
0.000153019
0.000198177
0.000269259
0.000348729
0.000414644
0.000463365
0.000499608
0.000527468
0.000548678
0.000563656
0.000573372
0.000110644
0.00015358
0.000197493
0.000266764
0.000345442
0.000411609
0.00046069
0.000497098
0.000524943
0.000546036
0.000560836
0.000570237
0.000110268
0.000154163
0.00019687
0.000264298
0.000342158
0.000408503
0.000457961
0.000494556
0.0005224
0.000543392
0.000558012
0.000567148
0.000109882
0.000154763
0.000196281
0.000261856
0.000338832
0.000405331
0.000455181
0.00049198
0.000519836
0.000540736
0.000555162
0.000563831
0.000109485
0.000155383
0.000195782
0.000259492
0.000335503
0.00040212
0.000452344
0.000489372
0.000517261
0.000538078
0.000552348
0.000561004
0.000109078
0.000156024
0.000195344
0.000257153
0.000332137
0.000398826
0.000449453
0.000486726
0.000514666
0.000535416
0.000549543
0.000558034
0.000108633
0.000156644
0.000194943
0.000254873
0.000328765
0.000395478
0.0004465
0.000484036
0.000512049
0.000532753
0.000546757
0.000555097
0.000108231
0.000157331
0.000194611
0.000252656
0.000325383
0.000392048
0.00044348
0.000481303
0.000509411
0.000530079
0.000543984
0.000552188
0.000107761
0.000157994
0.000194345
0.000250502
0.000321978
0.000388592
0.00044039
0.000478521
0.000506752
0.0005274
0.00054122
0.000549254
0.000107309
0.000158686
0.000194146
0.00024842
0.000318604
0.000385054
0.000437237
0.000475695
0.000504065
0.00052471
0.000538452
0.000546248
0.000106845
0.000159372
0.000193994
0.000246383
0.000315211
0.000381464
0.000434012
0.000472814
0.000501345
0.000522009
0.000535687
0.000543307
0.000106367
0.000160113
0.000193912
0.000244425
0.000311831
0.000377803
0.000430708
0.000469886
0.000498596
0.000519299
0.000532921
0.000540348
0.00010585
0.000160801
0.000193898
0.000242547
0.000308444
0.00037411
0.000427336
0.000466895
0.000495816
0.000516573
0.000530154
0.000537448
0.000105346
0.000161552
0.000193933
0.000240726
0.000305082
0.000370328
0.000423891
0.000463834
0.000492993
0.000513829
0.000527377
0.00053443
0.000104831
0.000162297
0.000194041
0.000238995
0.000301749
0.000366523
0.000420357
0.000460712
0.000490132
0.00051106
0.000524596
0.000531515
0.000104301
0.000163068
0.000194224
0.000237331
0.000298426
0.000362652
0.000416748
0.000457529
0.000487225
0.000508276
0.000521812
0.000528656
0.000103757
0.00016386
0.000194455
0.000235764
0.000295144
0.000358741
0.000413048
0.000454262
0.000484268
0.000505464
0.000519017
0.000525758
0.000103199
0.000164643
0.000194763
0.000234297
0.000291885
0.000354769
0.000409271
0.000450923
0.000481257
0.000502621
0.000516206
0.000522868
0.000102599
0.000165411
0.000195122
0.000232909
0.000288681
0.000350745
0.000405411
0.000447494
0.000478188
0.000499747
0.000513399
0.000520144
0.00010201
0.000166213
0.000195559
0.000231605
0.000285511
0.000346695
0.000401453
0.000443985
0.000475063
0.000496835
0.000510578
0.000517339
0.000101377
0.000166996
0.000196048
0.000230415
0.000282412
0.000342625
0.000397397
0.000440377
0.000471863
0.000493886
0.000507749
0.000514589
0.000100753
0.000167816
0.000196619
0.000229341
0.000279367
0.000338511
0.00039326
0.000436666
0.000468586
0.00049089
0.000504901
0.00051178
0.000100144
0.00016868
0.000197249
0.000228342
0.000276405
0.000334365
0.000389021
0.000432861
0.000465235
0.000487845
0.000502037
0.00050897
9.94625e-05
0.00016948
0.000197937
0.000227491
0.000273512
0.000330216
0.000384684
0.000428954
0.000461794
0.000484749
0.000499141
0.000506158
9.87834e-05
0.000170318
0.000198708
0.000226723
0.000270695
0.000326045
0.000380268
0.000424913
0.000458256
0.00048159
0.000496212
0.000503306
9.80885e-05
0.000171183
0.000199536
0.000226088
0.000267989
0.000321885
0.000375752
0.000420762
0.000454622
0.000478358
0.000493246
0.000500483
9.73448e-05
0.000171993
0.000200445
0.00022557
0.000265376
0.0003177
0.000371156
0.000416482
0.000450873
0.000475059
0.000490252
0.000497644
9.66038e-05
0.000172844
0.000201418
0.000225192
0.000262871
0.000313547
0.000366443
0.000412077
0.000447005
0.000471672
0.000487178
0.000494582
9.58435e-05
0.000173723
0.000202431
0.00022492
0.000260482
0.000309411
0.00036166
0.000407514
0.000443002
0.000468183
0.000484046
0.000491599
9.50603e-05
0.000174559
0.000203555
0.000224801
0.000258245
0.000305332
0.00035679
0.00040282
0.000438868
0.000464597
0.000480851
0.000488615
9.42503e-05
0.000175432
0.000204722
0.000224821
0.000256146
0.000301274
0.000351859
0.000397975
0.000434579
0.000460883
0.000477576
0.000485596
9.33839e-05
0.000176245
0.000205978
0.000225
0.0002542
0.000297304
0.000346831
0.000392971
0.000430111
0.000457046
0.000474229
0.000482574
9.24822e-05
0.000177081
0.000207276
0.000225309
0.000252421
0.000293408
0.000341763
0.000387822
0.000425481
0.000453055
0.000470788
0.000479593
9.16092e-05
0.000177969
0.00020867
0.000225791
0.000250824
0.000289608
0.000336622
0.000382489
0.000420667
0.000448916
0.000467255
0.00047647
9.06855e-05
0.000178808
0.000210135
0.000226423
0.00024944
0.000285929
0.000331465
0.000376995
0.00041563
0.00044459
0.000463555
0.000473074
8.96899e-05
0.000179626
0.000211673
0.000227243
0.000248252
0.000282391
0.000326287
0.000371355
0.000410373
0.000440059
0.000459709
0.000469657
8.86489e-05
0.000180426
0.000213284
0.000228241
0.000247298
0.000279021
0.000321111
0.000365535
0.000404883
0.00043531
0.000455705
0.000466204
8.7625e-05
0.000181284
0.000214972
0.000229418
0.000246611
0.00027585
0.000315944
0.000359577
0.000399142
0.000430297
0.000451501
0.000462585
8.65107e-05
0.000182068
0.000216745
0.000230812
0.000246186
0.000272909
0.000310859
0.000353458
0.000393136
0.000425021
0.000447078
0.000458895
8.53327e-05
0.000182833
0.000218601
0.000232422
0.000246077
0.00027024
0.000305869
0.000347232
0.000386855
0.000419432
0.000442398
0.000454953
8.41572e-05
0.000183648
0.000220546
0.000234252
0.000246288
0.00026788
0.000301003
0.000340882
0.000380291
0.000413506
0.00043743
0.000450922
8.28771e-05
0.000184382
0.000222592
0.000236347
0.000246871
0.000265882
0.000296348
0.000334466
0.000373435
0.000407194
0.000432117
0.00044653
8.15425e-05
0.000185105
0.000224742
0.000238709
0.000247866
0.0002643
0.000291929
0.000328019
0.000366284
0.000400466
0.000426406
0.000441919
8.01085e-05
0.00018578
0.000226997
0.000241397
0.000249325
0.000263195
0.000287849
0.000321593
0.000358827
0.000393273
0.000420212
0.000436825
7.86052e-05
0.000186431
0.000229418
0.000244435
0.000251316
0.000262664
0.000284161
0.000315246
0.000351104
0.000385582
0.00041348
0.000431334
7.69744e-05
0.000186995
0.000232008
0.000247904
0.000253906
0.000262765
0.000280954
0.000309041
0.000343148
0.000377353
0.000406124
0.000425268
7.52311e-05
0.000187572
0.000234843
0.000251867
0.000257173
0.000263587
0.00027834
0.00030308
0.000334959
0.000368548
0.000398035
0.0004186
7.3329e-05
0.000188222
0.000238068
0.00025648
0.000261206
0.00026522
0.000276424
0.000297519
0.000326718
0.000359203
0.000389145
0.000411073
7.09549e-05
0.000187717
0.000240161
0.000260862
0.000265207
0.000267141
0.000274897
0.000292308
0.000318372
0.00034946
0.000379515
0.000402871
0.000152584
0.00133547
0.00143258
0.00170345
0.00170587
0.00105253
0.00100863
0.000497004
0.000666281
0.00130169
0.00278583
0.00154566
0.0025612
0.000983843
0.00161079
0.00126433
0.0010304
0.00366891
0.00363806
0.00126053
0.000262367
0.000412149
0.00303306
0.00252637
0.000152488
0.00143844
0.000358573
0.00100192
0.00115711
0.000561642
0.00100636
0.0002885
0.00130797
0.00275698
0.00250076
0.000360255
0.000476152
0.000846492
0.000532682
0.00157917
0.000807946
0.00125289
0.000995723
0.000445319
0.000546468
0.00039751
0.00330594
0.00201059
0.000555815
0.00025896
0.000351921
0.000494662
0.000652628
0.00124201
0.00110159
0.00131602
0.0015167
0.00125288
0.000849445
0.00167044
0.000339804
0.000285436
0.00124199
0.00191117
0.000684168
0.00132075
0.000355354
0.000647686
0.000571327
0.0014867
0.00115939
0.00327553
0.000518759
0.000394277
0.00255682
0.00124467
0.00066891
0.00124201
0.00324637
0.000587166
0.00309092
0.00124204
0.000592816
0.000661091
0.00188011
0.000937209
0.000358261
0.00124203
0.00181389
0.000436819
0.000453035
0.000710478
0.001242
0.00128399
0.000783141
0.00124654
0.00111364
0.0013519
0.00124217
0.000397688
0.00026572
0.000503135
0.00125204
0.00130822
0.00124201
0.000793069
0.000517474
0.000661355
0.000541906
0.00124209
0.000721157
0.00124205
0.000371966
0.00127825
0.00124203
0.000772392
0.00217203
0.00373578
0.000885442
0.0033397
0.00025693
0.0024362
0.000922131
0.000550761
0.00475687
0.00211502
0.00125337
0.00021894
0.00193601
0.00124201
4.50354e-05
0.00124227
6.98034e-05
0.00131173
0.000375391
0.00135909
0.000410374
0.001596
0.000347229
0.00137729
0.002018
0.000338082
0.000889908
0.00123472
0.000195023
0.00107849
0.000644778
0.00133823
0.000737069
0.0011901
0.000935666
0.000730328
0.00124207
0.00294457
0.00053216
0.00124243
0.000396248
0.00124235
0.00101578
0.00151784
0.00242504
0.00126521
0.00408241
0.00191323
0.000314657
0.000621214
0.000247758
0.000553695
0.00112539
0.00124201
0.00101636
0.000457903
0.0010995
0.00207568
0.00124201
0.000833618
0.001242
0.000679803
0.000305746
0.00059777
0.000244572
0.00393437
0.00369766
0.000645055
0.00125492
0.00036832
0.0012437
0.00124201
0.000201448
0.00124202
0.00150649
0.00124213
0.000387681
0.00135685
0.000395972
0.0010833
0.000444642
0.000304646
0.00124207
0.0016616
0.000794459
0.000661248
0.0007028
0.00034163
0.000597162
0.00369377
0.00429538
0.00269905
0.00040926
0.00375043
6.6263e-05
0.000694124
0.000570026
0.000753257
0.001242
0.000613601
0.00188696
0.000818859
0.00167899
0.000431286
0.000665616
0.000793742
0.000695371
0.0012428
0.00124339
0.00208021
0.000934875
0.001247
0.000763173
0.00197968
6.66611e-05
0.00472138
0.00124215
0.000392445
0.000888376
0.000774341
0.000359333
0.000821485
0.000420008
0.000463745
0.00373721
0.00148165
0.00331581
0.00203534
0.0001038
6.73432e-05
7.14773e-05
0.00126101
0.00305282
0.000642096
0.00141901
0.00039819
0.00160049
0.000264544
0.000547603
0.00280112
0.00106933
0.000442712
0.00127636
0.00069631
0.0037926
0.000826249
0.00182924
0.0042373
6.6995e-05
0.00082946
0.000648771
0.00048332
0.00105488
0.000967986
0.00157185
0.00304683
0.000855618
5.35674e-05
5.46322e-05
0.00086599
0.000411499
8.09325e-05
0.0005869
0.000311287
0.000432829
0.000405101
0.000679798
0.00059138
0.000570055
0.000444312
0.000892315
5.59158e-05
0.000713283
0.000272417
0.00030886
0.00091318
5.84427e-05
5.7484e-05
0.000725828
0.000395732
0.000255405
5.4209e-05
0.00274139
0.000808523
0.000373282
0.000181843
0.000273305
0.00122769
0.000557761
0.000825063
0.000618035
0.00124201
0.000992575
0.0029541
0.00393641
0.00051488
0.00124263
0.000723061
0.000662072
0.00124823
6.17975e-05
0.000531827
0.00124201
7.12615e-05
0.00227459
0.00128589
0.000860809
0.000222403
0.000759729
0.000530825
0.000649595
0.00124211
0.00124304
0.000506219
0.000617989
0.00124202
0.00137203
0.00124212
0.00124306
0.00124594
0.00124198
0.0035268
0.00124215
0.00150538
0.000239143
0.000519022
0.00124213
0.000422073
0.00149825
5.65374e-05
0.000107701
0.00101217
0.00102022
0.000632645
0.00124199
0.00124579
0.00363076
0.000297188
6.58461e-05
0.00124203
0.00428817
0.000656141
0.000659972
0.00161318
0.000247792
0.000542856
0.00069391
0.00108375
0.000341426
0.00168109
0.00125784
0.00124205
0.00276167
0.000685358
0.003626
0.00022905
0.000751267
0.000130525
0.000925006
0.000265846
0.000517876
0.000740143
0.0012438
0.00109711
0.000355515
0.00140111
0.00124226
0.000549723
0.000263597
0.000502394
0.00124202
0.00152647
0.000296565
0.00204814
0.00124438
0.000549231
0.00129175
0.000707573
0.000729152
0.00126027
0.0010205
0.00124231
0.00280648
0.000648791
0.00142077
0.00177709
0.00038842
0.00156851
0.00308272
0.000146813
0.00076827
0.000709824
0.000135726
0.000670022
0.00124208
0.00124202
0.00124212
0.000679377
0.00356185
0.000375632
0.00010892
0.000304483
0.000453969
0.00124365
0.00124205
0.000621682
0.001242
0.00124288
0.000489205
0.00124199
0.00334411
0.000688105
0.000709581
0.00124201
0.00152755
0.0046548
0.00386275
0.000534075
0.0036106
0.001242
0.000862108
0.000548016
0.000271454
0.001784
0.000630466
4.83039e-05
0.00143578
0.000498317
0.001426
0.000424857
0.00126341
0.00039557
0.000249648
0.00124201
0.00133272
0.000531664
6.85416e-05
0.00168486
0.00122792
0.000337203
0.001402
5.85327e-05
0.000803691
0.0032035
0.00043642
0.00222114
0.00216995
0.00170522
0.000767653
0.000549497
0.000661482
0.000248356
0.000379175
7.67943e-05
0.00404261
0.000708698
8.89904e-05
0.00124201
0.00123963
0.000662482
0.000412789
0.00124202
0.000613578
0.000401801
0.00124212
0.000579071
0.000645837
0.00272334
0.00463826
0.000227196
0.000128767
0.00126603
0.00208154
0.000595477
0.00266815
0.00124325
0.000331127
0.00100438
0.0026741
0.000362314
0.000481826
0.000166693
0.000535887
0.000492726
0.000574664
0.000397583
0.000597482
0.00124442
0.000622795
0.000793213
0.000537629
0.000794811
0.000415265
0.00123941
0.000393515
0.000906065
0.000413693
0.00244645
0.00124209
0.000253635
5.6088e-05
0.000567844
0.000884831
0.000349451
0.00259581
0.000819805
0.00124249
0.000645359
0.00124207
0.00063681
0.000862363
5.25272e-05
0.000226771
0.00121956
5.91893e-05
0.000293896
0.000490502
0.00105429
0.00124328
0.000614295
0.000676792
0.000269965
0.000358299
0.0011747
0.00126755
0.00235664
0.0013952
0.0020069
0.000958887
0.00124205
0.00315038
0.00124199
0.00322925
0.00114929
0.00288132
0.000449174
0.000264791
0.000736917
0.00352282
0.00039846
0.00037788
6.62391e-05
0.00124203
0.00124202
0.00075168
0.000287097
0.000711386
0.00161403
0.00404855
0.000541686
0.000617012
0.00124197
0.000684917
0.000757077
0.00135546
0.000676324
0.000916607
0.000255081
0.000722235
0.00158833
0.00124197
0.00221048
0.00124224
0.000637664
0.00213408
0.000640677
0.000834057
0.00124399
0.000844863
0.00216751
0.000572952
0.000249216
0.000871453
0.00124202
0.00377863
0.00124204
0.000474106
7.08818e-05
0.000669241
0.00233326
0.00124197
0.000849174
0.000598821
0.000641621
0.00124226
2.69591e-05
0.000494411
0.000502494
0.00138951
0.000326789
0.00127477
0.000354642
0.000389011
0.0012684
0.000244601
0.00365701
0.0031821
0.00124204
0.00124202
0.000937977
0.000738871
0.000593292
0.000685056
0.00134296
0.000271738
0.00436708
0.000524433
0.0005696
0.00124978
0.00044427
0.000279018
0.001242
0.00148689
0.000569727
0.000550595
0.000693922
0.00124261
6.6431e-05
0.000439127
0.000770029
0.0019253
0.000443063
0.000472657
0.00124379
4.58392e-05
0.000247281
0.000534516
0.00114374
0.000357271
0.00169442
0.000796449
0.000718056
0.000396431
0.000115808
0.00124577
0.00124221
0.000850471
0.000522729
0.0013361
0.00124201
0.00135297
0.001242
0.00054528
0.000445002
0.00345224
0.00124227
0.000744547
0.00124132
0.000635864
0.00133136
0.00042384
0.00305515
0.000288007
0.000799773
0.001242
0.00197172
0.000736404
0.000477177
0.000777887
0.00143827
0.00156542
0.00270096
0.000130116
0.00124206
0.000307782
0.000439629
0.000405201
0.00125146
0.00419047
0.000680769
0.000748344
0.00122978
0.00210826
0.00100404
0.000699637
0.00042422
0.000519831
0.00124205
0.00144834
0.00137348
0.00124198
0.000254799
0.00124208
5.96938e-05
0.00176357
0.000533589
0.00124262
0.000290743
0.000800561
0.00124542
0.00121981
0.000544566
0.00160003
0.00166842
0.00201341
0.00399061
0.000826554
0.00124201
0.00124201
0.000519767
0.00136774
0.000105516
0.000437219
0.00124939
6.34898e-05
7.1404e-05
5.40753e-05
0.0021303
0.000244462
5.1521e-05
0.00124202
0.000130016
0.000110625
0.000641628
0.00124231
0.00153511
0.000940982
0.000237262
0.00124217
0.00102157
0.00124204
0.00342595
0.00167196
0.00126331
0.000401353
0.001242
0.00150664
0.000545668
0.00124246
0.00129903
0.001242
0.00128583
0.00229126
0.000911997
0.000522277
0.000422603
0.000557399
0.00124202
0.000406603
0.00124213
0.000894431
0.00329675
0.00185744
0.000285927
0.00161772
0.000949972
0.00124343
0.000135339
0.00120595
0.000384137
3.92722e-05
0.000294247
0.00124201
0.000287656
0.000213971
0.000284806
0.000355695
0.000586229
0.000869843
0.000405847
0.00291152
0.000463569
0.00193033
0.00129288
0.000482717
0.000115633
0.000307075
0.000238214
0.00124199
0.000662813
0.00127865
0.00115292
0.000629119
0.000213308
0.000418612
0.000586141
0.00277141
0.0015147
0.000637727
0.000437277
0.00331368
0.000340053
0.00124284
0.000184781
0.0010506
0.00124923
0.000919986
0.000506903
0.000398518
0.00210573
0.000809608
0.00239444
0.000395229
0.00069408
0.00211957
0.00209459
0.00124205
0.000750972
0.00402337
5.61864e-05
0.000439512
5.42589e-05
0.00169159
0.00152308
0.000395704
0.00124202
0.00124212
0.00041243
0.00279576
0.000332966
0.0010224
0.001242
0.000947516
0.00125469
0.00207327
0.00124663
0.00103645
0.0010823
0.000458952
0.000639338
0.00250914
0.000330448
0.000293165
0.00124207
0.00045499
0.000946251
0.00135858
0.00148894
5.7868e-05
0.00277316
0.000347996
0.000584111
0.00254878
0.00339151
0.000612348
0.00387225
0.000552628
4.9379e-05
0.00124204
0.000720797
0.000958311
0.00164599
0.00427491
0.000773862
0.000893886
0.00124211
0.001242
0.000744408
0.000316195
0.00072161
0.001242