/*--------------------------------*- C++ -*----------------------------------*\
| =========                 |                                                 |
| \\      /  F ield         | OpenFOAM: The Open Source CFD Toolbox           |
|  \\    /   O peration     | Version:  2.3.1                                 |
|   \\  /    A nd           | Web:      www.OpenFOAM.org                      |
|    \\/     M anipulation  |                                                 |
\*---------------------------------------------------------------------------*/
FoamFile
{
    version     2.0;
    format      ascii;
    class       volScalarField;
    location    "0.75";
    object      k;
}
// * * * * * * * * * * * * * * * * * * * * * * * * * * * * * * * * * * * * * //

dimensions      [0 2 -2 0 0 0 0];

internalField   nonuniform List<scalar> 
1000
(
0.0023353
0.00239016
0.00239161
0.00239156
0.00239153
0.00239152
0.00239151
0.0023915
0.00239134
0.00238682
0.00239213
0.00240501
0.00240597
0.00240599
0.00240599
0.00240598
0.00240596
0.00240591
0.00240492
0.00238924
0.00239659
0.00240944
0.00241058
0.00241064
0.00241066
0.00241064
0.0024106
0.00241052
0.00240936
0.00239204
0.00240013
0.00241419
0.00241551
0.00241565
0.00241569
0.00241568
0.00241562
0.00241549
0.00241419
0.00239579
0.00240382
0.00241998
0.00242152
0.00242174
0.00242181
0.0024218
0.00242175
0.00242155
0.00242012
0.00239967
0.00239079
0.00240192
0.00240299
0.00240314
0.00240319
0.00240321
0.00240322
0.0024032
0.00240237
0.00238917
0.00240341
0.00271051
0.0027316
0.00273276
0.00273285
0.00273288
0.00273288
0.00273221
0.00271366
0.00240104
0.00240686
0.00273545
0.00275855
0.00275978
0.00275985
0.00275985
0.00275982
0.00275901
0.00273853
0.00240445
0.0024102
0.00273825
0.00276154
0.00276279
0.00276286
0.00276286
0.00276282
0.00276198
0.00274125
0.00240782
0.00241401
0.00274395
0.00276806
0.00276963
0.00276983
0.00276983
0.00276969
0.00276855
0.00274702
0.00241168
0.00239481
0.00240477
0.00240582
0.00240596
0.00240602
0.00240605
0.00240606
0.00240604
0.00240513
0.00239115
0.00240576
0.0027317
0.00275455
0.00275578
0.00275586
0.00275588
0.00275588
0.00275512
0.00273494
0.00240358
0.00240879
0.0027577
0.0027829
0.00278426
0.00278433
0.00278433
0.0027843
0.0027834
0.00276109
0.00240667
0.00241172
0.00276031
0.00278573
0.00278712
0.0027872
0.0027872
0.00278715
0.00278621
0.00276364
0.00240957
0.0024153
0.00276298
0.00278882
0.00279037
0.0027905
0.0027905
0.00279041
0.00278931
0.00276633
0.00241318
0.00239644
0.0024063
0.00240731
0.00240742
0.00240748
0.0024075
0.00240752
0.00240749
0.00240657
0.00239254
0.00240706
0.00273384
0.00275667
0.00275788
0.00275795
0.00275796
0.00275796
0.00275718
0.00273688
0.00240486
0.00240974
0.00275887
0.00278408
0.00278543
0.0027855
0.0027855
0.00278547
0.00278456
0.0027622
0.00240765
0.00241232
0.00276123
0.00278665
0.00278804
0.00278811
0.00278811
0.00278807
0.00278712
0.00276454
0.00241019
0.00241559
0.00276258
0.00278815
0.0027896
0.00278969
0.00278969
0.00278963
0.00278863
0.00276587
0.00241344
0.00239732
0.00240713
0.00240811
0.0024082
0.00240825
0.00240827
0.00240828
0.00240824
0.00240733
0.00239326
0.00240782
0.00273503
0.00275784
0.00275903
0.0027591
0.00275911
0.0027591
0.00275831
0.00273796
0.00240554
0.00241029
0.00275902
0.00278415
0.0027855
0.00278557
0.00278557
0.00278554
0.00278463
0.00276229
0.00240815
0.00241266
0.00276118
0.00278649
0.00278787
0.00278794
0.00278794
0.0027879
0.00278695
0.00276445
0.00241051
0.00241571
0.00276215
0.00278749
0.00278888
0.00278896
0.00278896
0.00278891
0.00278794
0.00276539
0.00241353
0.00239745
0.00240756
0.00240854
0.00240863
0.00240867
0.00240869
0.00240869
0.00240865
0.00240771
0.00239332
0.002408
0.00273587
0.00275869
0.00275987
0.00275993
0.00275993
0.00275991
0.00275911
0.00273871
0.00240567
0.00241048
0.00275924
0.00278434
0.00278569
0.00278575
0.00278576
0.00278573
0.00278481
0.00276247
0.00240832
0.0024129
0.00276134
0.00278659
0.00278797
0.00278805
0.00278805
0.00278801
0.00278706
0.00276458
0.00241072
0.00241599
0.00276234
0.00278757
0.00278896
0.00278905
0.00278905
0.00278899
0.00278802
0.00276553
0.00241378
0.00239691
0.00240771
0.00240874
0.00240883
0.00240886
0.00240888
0.00240887
0.00240882
0.00240783
0.00239272
0.00240764
0.00273621
0.00275903
0.00276022
0.00276028
0.00276028
0.00276026
0.00275945
0.00273903
0.00240526
0.00241038
0.00275956
0.00278466
0.00278601
0.00278608
0.00278609
0.00278605
0.00278512
0.00276277
0.00240817
0.00241314
0.00276178
0.00278703
0.00278842
0.00278851
0.00278851
0.00278846
0.00278749
0.002765
0.0024109
0.00241658
0.00276313
0.0027884
0.00278983
0.00278992
0.00278992
0.00278985
0.00278883
0.00276629
0.00241432
0.00239565
0.0024071
0.00240817
0.00240827
0.0024083
0.00240831
0.0024083
0.00240824
0.0024072
0.00239143
0.00240666
0.00273548
0.00275824
0.00275942
0.00275948
0.00275949
0.00275946
0.00275865
0.00273828
0.00240424
0.00240983
0.00275869
0.00278367
0.00278503
0.00278511
0.00278511
0.00278508
0.00278414
0.00276187
0.00240757
0.00241312
0.00276098
0.0027861
0.0027875
0.00278759
0.00278759
0.00278754
0.00278655
0.00276414
0.00241083
0.00241725
0.00276294
0.00278817
0.00278967
0.00278979
0.0027898
0.00278969
0.00278859
0.00276603
0.00241492
0.0023936
0.00240469
0.00240569
0.00240578
0.00240582
0.00240582
0.00240581
0.00240574
0.00240476
0.00238934
0.0024043
0.00271326
0.00273413
0.00273518
0.00273523
0.00273523
0.00273521
0.00273448
0.00271572
0.00240171
0.00240792
0.00273376
0.00275649
0.00275769
0.00275774
0.00275774
0.00275771
0.00275688
0.00273654
0.00240547
0.00241182
0.00273459
0.0027573
0.00275852
0.00275858
0.00275859
0.00275854
0.00275767
0.00273731
0.00240932
0.00241693
0.00273558
0.00275832
0.00275969
0.00275981
0.00275981
0.00275969
0.00275864
0.00273817
0.00241437
0.00238703
0.00238743
0.00238748
0.00238751
0.00238751
0.00238752
0.00238751
0.00238749
0.00238732
0.00238251
0.00238986
0.00240048
0.0024015
0.0024016
0.00240163
0.00240163
0.00240161
0.00240154
0.00240056
0.00238546
0.00239331
0.00240488
0.0024061
0.00240625
0.0024063
0.00240631
0.00240626
0.00240613
0.00240497
0.00238892
0.0023979
0.00240966
0.00241102
0.00241125
0.00241134
0.00241135
0.00241126
0.00241103
0.00240971
0.0023935
0.002405
0.00241732
0.00241894
0.00241929
0.0024194
0.0024194
0.00241927
0.0024189
0.00241732
0.00240066
0.00242113
0.002438
0.00244046
0.00244086
0.00244094
0.00244093
0.00244083
0.0024404
0.00243806
0.00241704
0.00246466
0.00260162
0.00261663
0.00261194
0.0026096
0.00260948
0.00261153
0.00261612
0.00260536
0.00246301
0.00292629
0.00444197
0.00458204
0.00450864
0.00448074
0.00447935
0.00450363
0.00457621
0.00447951
0.00295035
0.00594778
0.0141425
0.0150126
0.0148099
0.0147176
0.0147111
0.0147879
0.0149894
0.0142997
0.00609129
0.0157282
0.0419838
0.0454168
0.0455064
0.0454422
0.0454263
0.0454571
0.0453722
0.0423771
0.0160804
0.00242419
0.0027345
0.00275676
0.00275814
0.00275822
0.00275822
0.00275812
0.00275703
0.00273695
0.00242167
0.00243375
0.00278375
0.00281288
0.00281585
0.00281598
0.00281596
0.00281584
0.00281328
0.00278729
0.00243153
0.00249215
0.00320344
0.00327283
0.00327694
0.00327671
0.0032766
0.00327656
0.00327339
0.00321296
0.00249274
0.0033993
0.00670159
0.00690617
0.00668767
0.00661157
0.00660908
0.00667956
0.0069005
0.00677351
0.0034432
0.0218995
0.0801623
0.085498
0.085539
0.0854093
0.0853892
0.0854796
0.0854785
0.0808552
0.0224736
0.00242117
0.00276498
0.0027906
0.00279234
0.00279256
0.00279255
0.00279236
0.00279101
0.00276805
0.00241893
0.00242669
0.0027672
0.00279306
0.00279476
0.00279484
0.00279484
0.00279478
0.00279348
0.00277045
0.00242459
0.00243921
0.00289394
0.00293874
0.00294639
0.00294806
0.00294808
0.00294653
0.00293973
0.00289968
0.00243776
0.00299497
0.00563544
0.00584421
0.00584858
0.0058468
0.00584636
0.00584775
0.00584727
0.00567827
0.00302033
0.0228054
0.0816136
0.0856047
0.0855627
0.0854604
0.0854511
0.0855384
0.0856484
0.0823284
0.023399
0.00241869
0.00276458
0.00279025
0.00279186
0.00279204
0.00279203
0.00279188
0.00279069
0.00276775
0.00241647
0.00242335
0.00276233
0.00278756
0.00278894
0.00278899
0.00278898
0.00278895
0.00278798
0.00276553
0.00242123
0.0024307
0.00282194
0.00285298
0.00285564
0.00285615
0.00285617
0.00285574
0.00285369
0.00282642
0.00242911
0.00294643
0.00549359
0.00568619
0.00570047
0.00570218
0.00570209
0.00570062
0.005691
0.00553587
0.0029701
0.0239724
0.086496
0.090475
0.0906055
0.0905714
0.0905682
0.090602
0.0905631
0.087289
0.0246235
0.00241729
0.00276329
0.0027889
0.00279045
0.0027906
0.00279059
0.00279047
0.00278935
0.00276651
0.0024151
0.00242166
0.00276078
0.00278593
0.00278725
0.00278729
0.00278729
0.00278727
0.00278637
0.00276399
0.00241953
0.00242726
0.00280631
0.00283572
0.00283782
0.00283815
0.00283817
0.0028379
0.00283637
0.00281056
0.00242555
0.00295063
0.00552515
0.00571365
0.00573127
0.00573519
0.00573525
0.00573209
0.00571987
0.00556967
0.00297548
0.0245504
0.0885488
0.0925603
0.0927778
0.0927796
0.0927794
0.0927856
0.0926712
0.0893792
0.0252316
0.00241702
0.00276373
0.0027896
0.0027912
0.00279136
0.00279136
0.00279123
0.00279008
0.00276701
0.00241485
0.00242175
0.00276049
0.00278609
0.00278746
0.0027875
0.0027875
0.00278748
0.00278656
0.00276376
0.00241962
0.00242807
0.00280965
0.0028406
0.00284318
0.0028436
0.00284361
0.00284326
0.00284127
0.002814
0.00242635
0.00324845
0.00624091
0.00651833
0.00659106
0.00661652
0.00661705
0.00659416
0.0065294
0.00629683
0.00328732
0.024739
0.0882593
0.0921981
0.0924175
0.0924244
0.0924248
0.0924308
0.0923195
0.0890956
0.0254382
0.00241767
0.0027662
0.00279265
0.0027944
0.00279463
0.00279463
0.00279445
0.00279317
0.00276959
0.00241556
0.0024231
0.00276172
0.0027884
0.00278995
0.00279002
0.00279002
0.00278999
0.00278892
0.0027651
0.00242097
0.00243437
0.002845
0.00288145
0.00288641
0.00288766
0.00288769
0.00288658
0.00288233
0.00284996
0.00243287
0.00369417
0.00675271
0.00710971
0.00727851
0.00734299
0.00734453
0.00728587
0.00712728
0.0068083
0.0037499
0.0248256
0.0860662
0.0897561
0.0899637
0.0899761
0.0899775
0.089983
0.0898864
0.086875
0.0255371
0.00241926
0.00276929
0.0027963
0.00279822
0.00279849
0.0027985
0.00279827
0.00279687
0.00277278
0.00241717
0.00242457
0.00277152
0.00280126
0.00280366
0.00280394
0.00280394
0.00280373
0.00280185
0.00277518
0.0024224
0.00244821
0.00293413
0.00298023
0.00298899
0.00299163
0.0029917
0.00298926
0.00298147
0.00294001
0.00244692
0.00391522
0.00580362
0.00609656
0.00620267
0.0062452
0.00624625
0.00620749
0.0061081
0.00584313
0.00396146
0.0242015
0.0782956
0.0813806
0.0816933
0.0817714
0.081775
0.081724
0.0815122
0.0789687
0.0248637
0.00242116
0.00275241
0.00277775
0.00277951
0.00277975
0.00277975
0.00277958
0.00277829
0.00275563
0.00241893
0.00242409
0.00279562
0.00283066
0.00283516
0.00283616
0.00283619
0.00283529
0.00283144
0.00279967
0.00242174
0.00246481
0.00305618
0.00310916
0.00311955
0.00312284
0.00312291
0.00311986
0.0031105
0.00306211
0.00246343
0.00313752
0.00497886
0.0052167
0.00524824
0.00525741
0.00525741
0.00524934
0.0052224
0.00501013
0.00316073
0.0203577
0.0575171
0.0594894
0.0598032
0.0599119
0.0599165
0.0598307
0.0595825
0.0579188
0.0207934
0.00241145
0.00243266
0.00243518
0.00243572
0.00243593
0.00243595
0.00243573
0.0024353
0.00243298
0.00240722
0.0024068
0.0024389
0.00244241
0.00244289
0.00244303
0.00244304
0.00244293
0.00244255
0.00243924
0.0024025
0.00247317
0.00252408
0.00253078
0.00253258
0.00253314
0.00253312
0.00253268
0.00253088
0.00252486
0.0024696
0.00269805
0.0031011
0.00316411
0.00317508
0.00317835
0.00317841
0.00317544
0.00316587
0.00310979
0.00270222
0.0100928
0.0166934
0.0171171
0.0172288
0.0172658
0.017267
0.0172358
0.0171372
0.0167703
0.010198
)
;

boundaryField
{
    walls
    {
        type            kqRWallFunction;
        value           nonuniform List<scalar> 
500
(
0.0023353
0.0023353
0.0023353
0.00239016
0.00239016
0.00239161
0.00239161
0.00239156
0.00239156
0.00239153
0.00239153
0.00239152
0.00239152
0.00239151
0.00239151
0.0023915
0.0023915
0.00239134
0.00239134
0.00238682
0.00238682
0.00238682
0.00239213
0.00239213
0.00240501
0.00240597
0.00240599
0.00240599
0.00240598
0.00240596
0.00240591
0.00240492
0.00238924
0.00238924
0.00239659
0.00239659
0.00240944
0.00241058
0.00241064
0.00241066
0.00241064
0.0024106
0.00241052
0.00240936
0.00239204
0.00239204
0.00240013
0.00240013
0.00241419
0.00241551
0.00241565
0.00241569
0.00241568
0.00241562
0.00241549
0.00241419
0.00239579
0.00239579
0.00240382
0.00240382
0.00241998
0.00242152
0.00242174
0.00242181
0.0024218
0.00242175
0.00242155
0.00242012
0.00239967
0.00239967
0.00239079
0.00239079
0.00240192
0.00240299
0.00240314
0.00240319
0.00240321
0.00240322
0.0024032
0.00240237
0.00238917
0.00238917
0.00240341
0.00240104
0.00240686
0.00240445
0.0024102
0.00240782
0.00241401
0.00241168
0.00239481
0.00239481
0.00240477
0.00240582
0.00240596
0.00240602
0.00240605
0.00240606
0.00240604
0.00240513
0.00239115
0.00239115
0.00240576
0.00240358
0.00240879
0.00240667
0.00241172
0.00240957
0.0024153
0.00241318
0.00239644
0.00239644
0.0024063
0.00240731
0.00240742
0.00240748
0.0024075
0.00240752
0.00240749
0.00240657
0.00239254
0.00239254
0.00240706
0.00240486
0.00240974
0.00240765
0.00241232
0.00241019
0.00241559
0.00241344
0.00239732
0.00239732
0.00240713
0.00240811
0.0024082
0.00240825
0.00240827
0.00240828
0.00240824
0.00240733
0.00239326
0.00239326
0.00240782
0.00240554
0.00241029
0.00240815
0.00241266
0.00241051
0.00241571
0.00241353
0.00239745
0.00239745
0.00240756
0.00240854
0.00240863
0.00240867
0.00240869
0.00240869
0.00240865
0.00240771
0.00239332
0.00239332
0.002408
0.00240567
0.00241048
0.00240832
0.0024129
0.00241072
0.00241599
0.00241378
0.00239691
0.00239691
0.00240771
0.00240874
0.00240883
0.00240886
0.00240888
0.00240887
0.00240882
0.00240783
0.00239272
0.00239272
0.00240764
0.00240526
0.00241038
0.00240817
0.00241314
0.0024109
0.00241658
0.00241432
0.00239565
0.00239565
0.0024071
0.00240817
0.00240827
0.0024083
0.00240831
0.0024083
0.00240824
0.0024072
0.00239143
0.00239143
0.00240666
0.00240424
0.00240983
0.00240757
0.00241312
0.00241083
0.00241725
0.00241492
0.0023936
0.0023936
0.00240469
0.00240569
0.00240578
0.00240582
0.00240582
0.00240581
0.00240574
0.00240476
0.00238934
0.00238934
0.0024043
0.00240171
0.00240792
0.00240547
0.00241182
0.00240932
0.00241693
0.00241437
0.00238703
0.00238703
0.00238703
0.00238743
0.00238743
0.00238748
0.00238748
0.00238751
0.00238751
0.00238751
0.00238751
0.00238752
0.00238752
0.00238751
0.00238751
0.00238749
0.00238749
0.00238732
0.00238732
0.00238251
0.00238251
0.00238251
0.00238986
0.00238986
0.00240048
0.0024015
0.0024016
0.00240163
0.00240163
0.00240161
0.00240154
0.00240056
0.00238546
0.00238546
0.00239331
0.00239331
0.00240488
0.0024061
0.00240625
0.0024063
0.00240631
0.00240626
0.00240613
0.00240497
0.00238892
0.00238892
0.0023979
0.0023979
0.00240966
0.00241102
0.00241125
0.00241134
0.00241135
0.00241126
0.00241103
0.00240971
0.0023935
0.0023935
0.002405
0.002405
0.00241732
0.00241894
0.00241929
0.0024194
0.0024194
0.00241927
0.0024189
0.00241732
0.00240066
0.00240066
0.00242113
0.00242113
0.002438
0.00244046
0.00244086
0.00244094
0.00244093
0.00244083
0.0024404
0.00243806
0.00241704
0.00241704
0.00246466
0.00246466
0.00260162
0.00261663
0.00261194
0.0026096
0.00260948
0.00261153
0.00261612
0.00260536
0.00246301
0.00246301
0.00292629
0.00292629
0.00444197
0.00458204
0.00450864
0.00448074
0.00447935
0.00450363
0.00457621
0.00447951
0.00295035
0.00295035
0.00594778
0.00594778
0.0141425
0.0150126
0.0148099
0.0147176
0.0147111
0.0147879
0.0149894
0.0142997
0.00609129
0.00609129
0.0157282
0.0157282
0.0419838
0.0454168
0.0455064
0.0454422
0.0454263
0.0454571
0.0453722
0.0423771
0.0160804
0.0160804
0.00242419
0.00242167
0.00243375
0.00243153
0.00249215
0.00249274
0.0033993
0.0034432
0.0218995
0.0224736
0.00242117
0.00241893
0.00242669
0.00242459
0.00243921
0.00243776
0.00299497
0.00302033
0.0228054
0.023399
0.00241869
0.00241647
0.00242335
0.00242123
0.0024307
0.00242911
0.00294643
0.0029701
0.0239724
0.0246235
0.00241729
0.0024151
0.00242166
0.00241953
0.00242726
0.00242555
0.00295063
0.00297548
0.0245504
0.0252316
0.00241702
0.00241485
0.00242175
0.00241962
0.00242807
0.00242635
0.00324845
0.00328732
0.024739
0.0254382
0.00241767
0.00241556
0.0024231
0.00242097
0.00243437
0.00243287
0.00369417
0.0037499
0.0248256
0.0255371
0.00241926
0.00241717
0.00242457
0.0024224
0.00244821
0.00244692
0.00391522
0.00396146
0.0242015
0.0248637
0.00242116
0.00241893
0.00242409
0.00242174
0.00246481
0.00246343
0.00313752
0.00316073
0.0203577
0.0207934
0.00241145
0.00241145
0.00243266
0.00243518
0.00243572
0.00243593
0.00243595
0.00243573
0.0024353
0.00243298
0.00240722
0.00240722
0.0024068
0.0024068
0.0024389
0.00244241
0.00244289
0.00244303
0.00244304
0.00244293
0.00244255
0.00243924
0.0024025
0.0024025
0.00247317
0.00247317
0.00252408
0.00253078
0.00253258
0.00253314
0.00253312
0.00253268
0.00253088
0.00252486
0.0024696
0.0024696
0.00269805
0.00269805
0.0031011
0.00316411
0.00317508
0.00317835
0.00317841
0.00317544
0.00316587
0.00310979
0.00270222
0.00270222
0.0100928
0.0100928
0.0166934
0.0171171
0.0172288
0.0172658
0.017267
0.0172358
0.0171372
0.0167703
0.010198
0.010198
)
;
    }
    lid
    {
        type            kqRWallFunction;
        value           nonuniform List<scalar> 
100
(
0.0157282
0.0419838
0.0454168
0.0455064
0.0454422
0.0454263
0.0454571
0.0453722
0.0423771
0.0160804
0.0218995
0.0801623
0.085498
0.085539
0.0854093
0.0853892
0.0854796
0.0854785
0.0808552
0.0224736
0.0228054
0.0816136
0.0856047
0.0855627
0.0854604
0.0854511
0.0855384
0.0856484
0.0823284
0.023399
0.0239724
0.086496
0.090475
0.0906055
0.0905714
0.0905682
0.090602
0.0905631
0.087289
0.0246235
0.0245504
0.0885488
0.0925603
0.0927778
0.0927796
0.0927794
0.0927856
0.0926712
0.0893792
0.0252316
0.024739
0.0882593
0.0921981
0.0924175
0.0924244
0.0924248
0.0924308
0.0923195
0.0890956
0.0254382
0.0248256
0.0860662
0.0897561
0.0899637
0.0899761
0.0899775
0.089983
0.0898864
0.086875
0.0255371
0.0242015
0.0782956
0.0813806
0.0816933
0.0817714
0.081775
0.081724
0.0815122
0.0789687
0.0248637
0.0203577
0.0575171
0.0594894
0.0598032
0.0599119
0.0599165
0.0598307
0.0595825
0.0579188
0.0207934
0.0100928
0.0166934
0.0171171
0.0172288
0.0172658
0.017267
0.0172358
0.0171372
0.0167703
0.010198
)
;
    }
}


// ************************************************************************* //
