/*--------------------------------*- C++ -*----------------------------------*\
| =========                 |                                                 |
| \\      /  F ield         | OpenFOAM: The Open Source CFD Toolbox           |
|  \\    /   O peration     | Version:  2.3.1                                 |
|   \\  /    A nd           | Web:      www.OpenFOAM.org                      |
|    \\/     M anipulation  |                                                 |
\*---------------------------------------------------------------------------*/
FoamFile
{
    version     2.0;
    format      ascii;
    class       volSymmTensorField;
    location    "1120";
    object      sigma;
}
// * * * * * * * * * * * * * * * * * * * * * * * * * * * * * * * * * * * * * //

dimensions      [1 -1 -2 0 0 0 0];

internalField   nonuniform List<symmTensor> 
11800
(
(69713.6 54074.8 3.42063e-14 -2072.9 1.81758e-14 16783)
(-38138.4 53484.1 5.25089e-14 -3399.26 1.67199e-14 -10306.3)
(293283 58424.6 -7.72535e-16 576.688 -3.90262e-14 72912.6)
(-259850 39419.7 0 2997.36 0 -63730.4)
(-38914.4 51286.2 9.79833e-15 -7778.82 -2.77728e-14 -11585.5)
(-164349 62993.4 3.85364e-14 3208.2 2.02729e-14 -39982.3)
(-30113.1 62440 7.19737e-14 -850.089 -1.87666e-14 -7682.6)
(-41490.4 61053.2 -1.07624e-14 1534.7 4.34636e-14 -9913.82)
(94914.2 47527.2 1.53203e-14 389.501 -1.05457e-14 23646.8)
(60263.4 63496.7 -3.7675e-14 2036.93 -3.18313e-14 15458)
(80960.4 48354.2 -2.85383e-14 -584.32 2.45031e-14 19942.9)
(-377104 31736.8 -3.48184e-14 -3077.59 -1.58599e-14 -94330.8)
(12930.2 -18801.4 7.01038e-17 -34818.5 5.44337e-17 -5430.92)
(272578 39067.1 3.17146e-14 2209.32 -8.73196e-15 68180.4)
(-221746 58702.3 -2.61357e-14 6896.57 2.03914e-14 -53308.4)
(1.1379e+06 5162.32 0 -2077.21 0 281821)
(-19974.8 53690.2 2.43548e-14 989.603 2.15687e-15 -4710.62)
(-30157.4 48445.8 -1.37984e-14 2928.27 7.95775e-14 -6756.09)
(63303.2 79998.5 -1.50302e-14 -10185.5 1.07601e-14 13179.6)
(45392.2 45189.5 -5.01553e-14 -3268.98 -1.62583e-14 10451.6)
(-206208 43565.4 1.55071e-14 2006.46 1.62895e-14 -50666.5)
(-329003 55265.7 2.48806e-14 1446.24 -1.45058e-14 -81273.5)
(-504439 79577.4 -1.36244e-14 6289.78 8.88983e-15 -123601)
(-463296 54693.6 1.42864e-16 -68.2441 2.40667e-15 -114970)
(918081 53966.6 1.48595e-15 -4070.57 1.94944e-14 226785)
(-590861 77207.1 -1.33085e-14 3403.16 -4.12632e-16 -145760)
(-556315 40399.4 0 4393.57 0 -136943)
(271057 33801.8 -4.0647e-14 -5480.34 -2.46126e-14 65894.9)
(-618222 42218.4 -7.55162e-15 5538.26 -3.54615e-14 -152019)
(-684346 43665.4 9.80648e-15 4943.57 -1.54398e-14 -168574)
(185012 37622.6 -5.0233e-14 -1032.53 -9.03143e-14 45649.1)
(36037.4 56552.5 -8.92748e-15 1471.82 -7.53626e-15 9306.8)
(587184 72934.1 -2.10492e-15 6587.88 -9.54769e-15 147327)
(-16963 60890.2 6.57661e-15 49.3207 -4.93558e-14 -4196.63)
(10265.8 62222.8 -1.73641e-14 4606.39 -7.48182e-14 3690.09)
(-183687 31058.4 -4.5617e-14 5027.2 -3.32063e-14 -44329.1)
(10266.1 61937.8 6.16967e-14 3050.82 -7.3637e-14 3304.2)
(629812 51264.6 -7.72062e-15 3161.63 -3.42761e-14 157054)
(-21786.8 57932.3 0 -4308.58 0 -6474.79)
(43089 52919.4 -2.17156e-14 2543.24 4.0546e-14 11322.3)
(-584732 34510.5 -3.93587e-14 -2571.55 -1.83778e-14 -145722)
(-649509 35498.5 2.83269e-14 -2544.06 -1.63179e-14 -161788)
(283968 41912.7 -1.56166e-14 -3879.4 -5.23476e-14 69495.8)
(-719236 37365.9 -5.66063e-15 -5117.38 -2.93392e-14 -179727)
(193965 43780.6 1.33592e-13 2350.9 -4.18158e-14 48709.9)
(1.06048e+06 36285.7 0 -4386.43 0 262038)
(471087 83909.5 -8.63227e-15 -2471.39 4.58879e-15 116273)
(564210 43975.8 -1.51338e-14 -5980.04 -1.06654e-14 138508)
(-47877.9 58898.2 -5.29825e-14 -2237.82 -3.27535e-14 -12434.7)
(108311 54392.4 0 1539.38 0 27256.1)
(-386482 32292.8 -2.50961e-15 2405.57 2.7389e-14 -95297.2)
(-274127 32912.4 8.89668e-14 5358.31 1.04629e-14 -66686.9)
(-5787.65 61565 4.9741e-14 -1193.66 3.10889e-14 -1732.21)
(18556.7 94416.1 -1.21979e-15 4513.72 1.06765e-14 5724.25)
(-1.21914e+06 6566.76 -1.95411e-15 -6406.3 -2.84909e-15 -304084)
(1.02992e+06 -29303.7 2.45678e-15 -47595.6 4.59717e-15 243734)
(-34451.5 24637.3 4.28926e-14 1655.46 1.59638e-14 -8137.37)
(-247934 61619.1 3.22704e-15 -2165.47 -2.73096e-14 -62054.7)
(194870 45855.3 -2.74368e-14 4241.11 4.024e-14 49403.4)
(-179098 61924.3 2.27653e-14 -4758.73 -4.1109e-15 -45618.6)
(1.04533e+06 27702.5 -2.18021e-14 -7851.8 -7.57388e-15 257420)
(-24252.9 63640.4 2.10475e-14 306.671 -3.43827e-14 -5941.53)
(-196530 53615.6 -1.24422e-14 -2292.34 2.15082e-14 -49331.9)
(152413 54095 3.73964e-14 279.471 -2.13954e-14 37886)
(909686 20715 2.44654e-15 1111.05 -1.40826e-14 225987)
(-127864 33379.5 -6.02937e-14 2675.85 -7.3061e-14 -31061.7)
(-400307 20347.5 4.2721e-14 1173.89 1.42991e-14 -99033.1)
(-287125 22545.3 1.13823e-15 4085.39 -7.47571e-14 -70227.8)
(-35118.5 26500.1 0 -2019.17 0 -9214.61)
(-551149 51333.4 -9.26694e-16 4854.78 3.51834e-14 -135547)
(-14910.9 63653.1 -1.20726e-14 631.534 2.5008e-14 -3543.01)
(-27125.2 52571.8 -4.65165e-14 -3092.8 5.22121e-14 -7497.7)
(-24404.9 50802.1 3.26262e-14 -4518.7 -2.0027e-14 -7176.52)
(-883140 214525 -3.16903e-15 123087 2.98869e-15 -188585)
(1.03329e+06 52406.9 -7.32368e-16 -4511.57 -8.8374e-15 255262)
(-173209 40452.8 -4.48099e-14 7486.6 -3.26596e-14 -41119.1)
(937546 18915.6 -1.78055e-14 2624.67 1.58474e-14 233276)
(-125140 25477.7 3.96437e-14 1194.19 -1.30412e-13 -30753.5)
(-93235.6 41322.8 7.44919e-15 4458.38 -7.13355e-15 -22027.4)
(-90845.3 48169 7.60198e-14 3931.3 7.6487e-14 -21565.1)
(-1.23429e+06 -17661.3 6.9053e-15 3673.96 3.0914e-14 -305341)
(47142 44244.2 0 4820.04 0 12892.8)
(29043.9 52206 -7.907e-14 -44.4423 -3.12589e-14 7195.35)
(19709.9 55525.6 2.74112e-14 3001.24 -2.20753e-16 5635.08)
(-38906.3 48298.9 1.90893e-14 -3994.55 5.41737e-14 -10644.6)
(-662396 53522 -1.0733e-14 -4455.51 5.60589e-14 -165460)
(195679 42516.9 6.38775e-14 1797.87 -1.99354e-14 48998.1)
(-597422 48683.5 0 -2546.13 0 -148864)
(-538868 47281.3 -2.28829e-14 -2422.2 -2.34243e-14 -134305)
(282696 39364.4 2.93595e-14 2734.86 1.78253e-15 70821.1)
(-7012.33 59542.3 -1.03044e-13 -1817.79 -6.631e-14 -2190.93)
(696656 68386.5 0 -2205.73 0 172307)
(-55214.5 54305.9 -2.18594e-14 1739.93 -3.63601e-14 -13268.1)
(41534 22878.5 -1.26344e-14 3127.69 -1.83701e-14 11081.5)
(76746.7 48735.7 9.77866e-14 -681.534 1.74573e-15 18873.3)
(29927.1 -22583.1 -4.46374e-16 -63490.7 -3.30606e-16 -8327.82)
(-1584.58 6168.84 1.15762e-17 3698.81 -6.87226e-17 524.583)
(-30060.3 -22323.6 -2.81006e-16 62957.7 1.86964e-16 8162.51)
(-6930.23 61030.8 -3.20381e-14 -1680.63 -4.70872e-16 -2136.53)
(-327457 39811.7 -7.92688e-15 -1614.95 3.2019e-14 -81649.5)
(28269.7 36676.5 1.76189e-14 -449.718 -4.94573e-14 6902.7)
(352209 43812.8 -3.85018e-14 -4037.01 -5.3589e-14 86388.6)
(-658742 74005.2 2.80042e-15 1225.21 5.68562e-15 -163143)
(-222993 61378.2 -1.71279e-15 3714.14 5.47857e-15 -54407.6)
(1688.18 64243.8 -4.94868e-15 -214.39 -2.4689e-14 365.678)
(161972 72058.9 -1.08926e-14 1785.26 -1.90296e-14 40631.5)
(-71626.8 50605 -3.04583e-14 1138.46 6.74109e-14 -17489.6)
(-50811.7 54592.8 -1.02774e-13 -671.726 -4.97179e-14 -12774.1)
(1.01158e+06 24292.3 6.25457e-15 2242.43 1.34295e-14 251550)
(591803 44913.9 9.81765e-15 1369.48 1.98581e-15 147178)
(657526 47046.5 1.88552e-14 2108.89 2.65875e-14 163669)
(534863 42500.6 6.80456e-14 2469.15 4.04447e-14 133323)
(-200035 43008.6 2.99655e-14 -4399.56 4.68945e-14 -50724.4)
(-288887 40087.5 -7.93909e-14 -3251.84 2.85837e-14 -72485.5)
(100223 46688.1 3.45401e-14 655.441 -1.81647e-14 25030)
(912257 35682.6 9.57085e-15 -232.902 5.70457e-15 226292)
(123208 28325.7 -2.46734e-14 -3455.01 -9.71269e-14 29713.1)
(-36587.3 58093.4 -8.54037e-14 1770.85 8.01331e-14 -8638.67)
(853908 56279.7 -1.11814e-14 -88.2244 1.39719e-14 211850)
(-64838.4 65461.5 -2.82973e-14 1068.47 -7.63753e-15 -15822.6)
(-114119 44237.2 -2.03711e-14 366.932 -8.65116e-15 -28224.2)
(31041.2 62626.8 6.12477e-14 -3572.44 -8.79187e-14 6815.56)
(42957 61549.5 -4.29075e-14 -675.271 2.95792e-14 10490.9)
(-29677.2 53007.2 -1.24388e-14 -1645.26 -1.83944e-14 -7771.74)
(-57381 51998.1 -7.77669e-14 1235.63 -6.08659e-14 -13930.8)
(-2351.41 61034.6 -7.47352e-14 -2538.51 -5.64392e-14 -1213.29)
(-20008 61026.9 -4.48168e-14 -5488.05 4.93981e-14 -6326.1)
(-2712.01 60428.3 -2.93043e-14 -1021.12 -2.8018e-14 -926.265)
(5718.45 48388.2 1.40267e-15 27215.8 6.27853e-14 8171.67)
(-25473.8 14353.7 -2.55616e-16 -5823.09 2.9964e-14 -7765.39)
(-1.1361e+06 -177250 1.02458e-14 49985.9 -5.28332e-15 -269488)
(-777076 55066.1 7.18382e-15 -5733.7 -1.08924e-15 -194231)
(215228 38123.4 3.38242e-14 4425.02 -3.30624e-14 54500.4)
(-655646 52657.5 -2.73585e-14 2812.48 1.72628e-14 -161981)
(302039 34341.1 -1.53733e-14 5645.09 4.64249e-14 76342.8)
(-588942 47461 1.04221e-14 3390.4 1.04597e-14 -145287)
(-531233 45341.3 -5.89926e-14 3280.75 4.5261e-14 -130996)
(178836 48592.8 3.30441e-14 31.8974 9.24774e-14 44380.8)
(-562517 32385.1 3.72442e-14 5449.83 -5.17378e-14 -138220)
(253319 47437.3 4.12925e-14 808.924 -3.29461e-14 63054.3)
(-506348 29422.7 3.04902e-14 4460.38 -5.30522e-14 -124529)
(-456994 29422.7 -3.16638e-14 4669.64 -2.85347e-14 -112231)
(-280712 67084.8 2.49415e-15 6743.74 2.48414e-14 -67977.1)
(76036.9 55447.4 -1.64793e-14 -5209.53 -1.10373e-13 17573.7)
(106918 50709.8 -2.64745e-14 -4115.29 -7.68627e-14 25507.4)
(-159944 49213.6 -8.04437e-15 5586.13 4.6827e-14 -38299.2)
(638019 31571.7 -5.12002e-14 648.809 -1.72367e-14 158466)
(-669626 1090.42 4.94093e-14 -6501.45 1.5373e-14 -167761)
(369895 36646.5 3.46499e-14 -3252.79 -3.2307e-14 90971.5)
(-221076 45613.3 8.28853e-16 3729.63 4.95408e-15 -53927.9)
(-95330.1 54267.7 -4.27815e-14 3509.97 -3.54536e-14 -22782.4)
(-99569.7 49079.4 3.66165e-14 404.018 -3.32349e-14 -24605)
(9221.01 61077.9 2.7836e-14 2432.72 5.10247e-14 2891.53)
(-139760 42185.9 -6.26229e-14 2584.19 6.5125e-14 -34036.2)
(110331 46632.8 -3.2941e-14 -4055.42 -3.4923e-14 26369.2)
(73495.3 56552.1 -3.01028e-14 506.224 2.32802e-14 18361.3)
(-245730 43520.7 5.1029e-14 5496.89 -3.4446e-14 -59606.7)
(-338912 45890.5 1.87572e-14 1441.68 4.09648e-14 -83733.2)
(738826 26840 1.22155e-14 1146.63 -1.96608e-16 183602)
(-2682.72 62572.9 1.46111e-14 843.234 -7.1319e-14 -456.415)
(1.14843e+06 54695.4 -1.46931e-14 -8316.9 -8.05147e-15 282886)
(-115387 49030.1 -5.40917e-14 1910.22 3.73805e-14 -28156)
(939683 36641 0 -11285.1 0 230354)
(-255920 48985.2 1.65724e-14 -725.679 6.89063e-14 -63679.1)
(-283492 50466.9 -1.69769e-14 -1678.4 2.02677e-14 -70756.6)
(-314108 54339.7 -2.61497e-15 -1782.26 7.42148e-14 -78378.8)
(133886 51616.4 -4.02909e-14 169.145 9.94774e-15 33261.9)
(90731.9 56342.9 -4.28034e-14 -919.653 1.06071e-14 22284.2)
(-1.27816e+06 -184.947 1.17437e-14 -5871.9 -6.74358e-15 -318596)
(-736296 53068.5 -1.1491e-14 -3783.63 2.2014e-14 -183629)
(238245 41821.5 -4.27698e-14 3529.55 -2.51008e-14 59989.3)
(323949 37179.9 1.21049e-13 1731.63 -6.52302e-14 80808)
(40056.2 57415.3 2.35148e-14 -5403.9 -6.09832e-14 8597.94)
(-203957 30627.7 0 1845.74 0 -50147.8)
(-209483 22541 6.42594e-14 2030.61 -3.27449e-14 -51473.1)
(1.04999e+06 38196.2 1.86483e-14 -8054.37 1.25017e-14 258525)
(1.07804e+06 3465.86 1.54037e-14 7776.15 1.37443e-14 269413)
(525920 28855.6 7.38529e-16 291.391 3.18479e-14 130564)
(475414 27726.1 6.04211e-15 1526.03 7.6472e-14 118338)
(583902 28597.6 1.67098e-14 -392.066 -2.41065e-14 144781)
(-243239 47863.5 -3.88596e-14 2531.74 3.50679e-14 -59724.3)
(-165943 49754.2 -3.76069e-14 535.202 4.1377e-14 -41041)
(104364 60474.7 0 1258.63 0 26207)
(68824.1 64642.1 -1.59778e-15 945.96 5.99657e-14 17311.4)
(228179 50070.9 -4.69823e-14 -673.763 3.84995e-14 56448.8)
(-98837.6 48193.1 -3.75343e-14 578.688 8.94013e-14 -24380)
(-171508 72956.1 -7.81421e-15 1350.38 3.4913e-14 -42219.5)
(47630.8 55396.2 -1.36999e-13 -887.856 -3.64696e-14 11597.9)
(66396.7 49733.2 -9.52484e-14 250.575 3.99734e-14 16536.5)
(-47040.4 59509.3 -1.84515e-14 1525.33 -2.57246e-16 -11293.2)
(-126780 49640.3 -1.60486e-14 2430.36 -1.0081e-14 -30853.6)
(-114157 47009.6 1.04849e-14 1363.58 -1.79966e-14 -27986.2)
(-118004 40479.5 0 -1042.65 0 -29538)
(-63061.7 76888.9 2.39673e-16 -3123.37 -2.2108e-14 -16421.8)
(-486304 12071 4.53585e-14 -5586.17 -1.98701e-14 -122048)
(616405 35346.4 -5.9885e-14 -2467.36 -5.92056e-15 152330)
(916392 118948 3.89559e-15 -171821 1.99116e-15 184743)
(-22134.5 57004.5 1.223e-14 -1498.81 -2.78107e-14 -5863.9)
(129331 25227.6 4.46112e-14 494.012 -1.02121e-13 32212.3)
(-1.16106e+06 -130975 9.79379e-15 100678 -6.57404e-15 -263101)
(59575 47126.5 1.91194e-15 3470.37 5.19363e-14 15642.8)
(155697 32440.5 3.60555e-14 3145.32 -4.14735e-14 39412)
(170949 34314.1 5.03347e-14 -3086.47 -2.12838e-14 41650.2)
(-2422.32 63208.1 3.78759e-14 25.6947 -5.6377e-15 -594.65)
(-2997.85 64502.1 3.9957e-14 -527.384 3.39115e-15 -874.682)
(446661 29942.1 1.29384e-14 -4682.15 4.37731e-14 109664)
(369215 57861.6 1.66996e-14 61.5658 -4.05035e-15 91625)
(-333803 49009.2 0 1556.34 0 -82437.2)
(-286651 34891.3 -4.18404e-14 -5752.24 -2.6245e-14 -72551.2)
(1.12596e+06 -178430 -4.09048e-15 -51315.7 -2.86185e-15 266642)
(-321567 81030.3 -3.50448e-15 8308.14 4.21956e-14 -77725.8)
(-525016 42415.6 2.49275e-14 -2401.21 -1.4863e-14 -130863)
(-1.18108e+06 -474370 -1.10903e-14 254519 4.38106e-15 -229900)
(1.3093e+06 4424.64 0 18097.7 0 329355)
(-1.03496e+06 -440245 -3.61286e-15 121403 1.12655e-15 -226672)
(164372 84592.9 -2.38147e-14 163.408 8.52573e-15 40824.6)
(-37640.2 53677.1 -3.86639e-15 -3400.57 5.41986e-14 -10183.1)
(-464809 61793.3 2.02757e-14 -3532.06 -2.24906e-14 -116205)
(-415976 58083.4 3.00025e-14 -2206.03 -3.72815e-15 -103759)
(-375332 55743.6 -3.38945e-14 -2079.92 1.28688e-15 -93643.6)
(134452 48338.2 2.87114e-14 2522.8 -8.02779e-14 33986.1)
(195451 43854.8 -7.23109e-14 2517.56 7.04496e-14 49119.9)
(19973.6 53037 -1.13253e-14 -5281.77 5.33009e-14 3645.34)
(27271.1 47688.8 2.69328e-14 -5742.95 3.45956e-14 5341.58)
(-74628 77576.7 -3.27992e-14 9921.65 8.93239e-15 -16055)
(-41399.1 46672.7 2.32565e-14 7616.27 -2.98446e-14 -8382.2)
(-650136 -261913 -2.80603e-15 -15676.5 5.86528e-16 -165202)
(101571 77085.1 -1.84182e-14 7889.27 -6.607e-14 27159.4)
(-49477.1 48043.5 -6.02623e-14 -4747.4 -2.76318e-14 -13454.2)
(-231658 64743.2 0 393.23 0 -57381.5)
(102010 52519.1 4.91435e-14 1246.93 -2.02237e-14 25620.1)
(-48708.8 58876.9 0 241.952 0 -12025.6)
(-39434.4 54383.9 -2.90812e-14 515.946 -4.6207e-14 -9656.47)
(338631 48648.8 4.16517e-14 2662.04 -4.35651e-14 84681.7)
(348431 36917.9 6.34483e-14 -742.865 3.03691e-14 86268.6)
(1.17159e+06 -470684 -4.12467e-15 -253639 -1.37428e-15 227761)
(645250 -260197 4.83334e-15 15285.3 1.32911e-15 163892)
(-117588 42171.8 8.8673e-15 495.048 1.26545e-14 -29053.1)
(-126431 44210.5 -2.69272e-14 -1851.23 -5.52431e-14 -31829.5)
(-616348 12043.2 -3.0439e-14 -3845.25 -7.04167e-15 -153882)
(491114 36699.2 6.81542e-14 -3245.64 -1.79124e-14 121050)
(165374 51403.3 2.1592e-15 -634.596 1.22511e-13 40875.2)
(241377 50617.9 4.15745e-14 -1920.55 4.53708e-14 59414.1)
(-594280 30099 -1.01483e-15 -2238.16 2.74188e-14 -148008)
(-537545 29312.3 -2.738e-14 45.9278 9.06414e-15 -133364)
(-484775 29699.1 -1.63991e-15 -153.367 4.23223e-14 -120321)
(-6435.33 63505.6 -6.3047e-14 -1168.62 1.82949e-14 -1886.69)
(-662144 29921 1.83328e-14 -1714.73 1.97661e-14 -164717)
(202077 48809.8 -4.26039e-14 -848.395 2.09605e-14 49928.9)
(276593 47871.5 0 -2574.85 0 67989.5)
(263606 42444.2 1.63947e-14 -1644.47 3.94568e-14 64998.1)
(52488 52120.6 -5.32579e-14 2988.36 -1.41261e-13 13764.8)
(3029.14 59308.7 -4.66991e-14 -6291.08 -1.72426e-14 -809.353)
(246402 44866.3 -6.50926e-14 8653.48 1.19127e-14 63284.4)
(-191466 42269.6 -5.26601e-15 -719.761 -4.23196e-14 -47685.2)
(29617.5 66162.8 7.46664e-16 -7196.25 9.79543e-15 5563.16)
(1.02645e+06 -437361 -3.73862e-15 -121705 -9.46631e-16 224486)
(129839 54099 4.42726e-15 -2444.06 -8.02266e-14 31609.4)
(157566 53730.9 3.72265e-14 -585.026 1.26913e-14 38950.1)
(-107451 54578.8 0 2030.88 0 -26156.8)
(-127301 58725.4 1.37073e-14 -2156.65 -3.83325e-14 -32121.2)
(367641 54859.7 0 4831.36 0 92417.9)
(407581 58341.2 2.49777e-14 3809.84 2.38576e-14 102074)
(451658 62253.9 -5.67485e-14 3613.2 -5.41564e-15 112962)
(-199245 41474 7.63256e-14 -3477.71 7.76934e-14 -50299.7)
(-139175 46211.3 3.98444e-15 -2790.84 -4.6345e-14 -35224.7)
(-9798.98 62811.6 4.49012e-14 2267.24 2.39855e-14 -1868.78)
(1.02658e+06 24084.4 -7.64798e-15 -15845.3 -1.45304e-14 250783)
(-7657.09 61305.3 -4.8729e-14 -3604.1 1.52189e-14 -2794.13)
(7549.79 46043.2 -4.90728e-14 5974.17 -3.07443e-14 3355.57)
(19774.2 60675.3 3.49011e-14 124.449 -8.12759e-14 4937.27)
(206947 53285.6 3.78123e-14 -1256.06 4.01239e-14 51036.1)
(-92084.8 13581.6 -6.18585e-14 -2719.6 3.05418e-15 -23522.9)
(270653 59667.5 0 -1750.39 0 66720.3)
(1.10295e+06 -28670.8 1.80358e-16 -167781 7.2975e-17 232034)
(217032 21448.7 3.56639e-14 2571.53 8.13142e-14 54488.1)
(206558 28113.3 1.61731e-14 -3783.72 8.82971e-15 50312.4)
(-298507 48604 5.3739e-15 3248.52 1.13293e-14 -73259.7)
(-213548 48537.9 -4.14805e-14 1418.28 1.33054e-14 -52633.7)
(-255095 37829.8 -8.5286e-14 1313.78 -1.49865e-14 -62968.3)
(-183389 41351.2 4.27819e-15 -812.969 -4.51413e-15 -45704.4)
(683230 27962.3 -3.24356e-15 -1478.66 1.05126e-14 169156)
(563113 66096.4 1.44033e-15 353.967 -2.1717e-14 139807)
(148478 56777.3 7.55896e-15 -762.046 4.48222e-15 36651.4)
(200884 50546.2 1.41627e-14 1006.58 2.42139e-14 50093.1)
(108996 57666.3 3.92276e-14 -3380.12 2.80338e-14 26205.5)
(149110 50914.4 3.52007e-14 -4075.69 -5.58832e-15 35985.9)
(-312542 46367.5 -6.83745e-15 2116.09 1.73538e-14 -77022.9)
(-408081 60042 -1.90611e-14 -293.616 3.42313e-15 -101326)
(-101485 86702.7 2.16085e-14 -574.518 1.55658e-14 -25323.1)
(703072 46924.7 2.42956e-14 2748.44 1.76187e-14 175128)
(763592 48264.8 -5.31184e-15 12056.7 2.67247e-15 192454)
(915314 47045.7 4.29828e-15 -2657.24 2.73685e-15 226449)
(57591.9 56975.6 -7.61508e-14 3514.48 9.27274e-14 15161.7)
(-214457 22868.2 -4.7233e-14 -118.975 -2.4325e-14 -53240.6)
(-205077 29739 -5.99105e-14 5957.25 4.01639e-14 -49405.6)
(1.02735e+06 5912.14 0 9295.27 0 257212)
(1.02708e+06 42225.1 0 588.447 0 254986)
(549686 35663.8 9.19188e-15 -1947 4.49556e-14 135905)
(548635 17279.5 3.04711e-14 3168.28 -8.47532e-14 136914)
(-578151 16574.5 0 -5937.32 0 -144924)
(-561924 34124.1 0 3976.17 0 -138438)
(17817.1 58923.2 -1.0491e-14 3615.14 3.01476e-14 5317.78)
(-48600 36284 1.12393e-13 -4274.65 -4.77168e-14 -13119.3)
(-165968 29626 -2.96203e-14 -3188.63 -1.09535e-14 -41971.3)
(1.41847e+06 4774.62 0 29671.4 0 359312)
(-25793.6 55214.8 -7.40687e-14 -6021.6 -1.87529e-15 -7894)
(-28269.4 57991.1 -1.06684e-14 -5997.85 -5.95468e-14 -8502.41)
(131419 59124.2 -3.85289e-14 -2248.04 -2.64719e-14 32050)
(-107360 60519.5 -8.05773e-14 -1893.49 3.38418e-14 -27108)
(126021 43922.3 2.37473e-14 -5197.59 -2.46216e-14 29978.6)
(-492497 34534.4 1.65634e-14 -3504.78 -3.40408e-14 -123068)
(488898 36256.7 -6.74757e-15 -4027.29 -4.1675e-14 120306)
(-923835 52770.8 7.38932e-15 -5528.4 -3.28391e-14 -230594)
(-1.20311e+06 -96776.5 4.23484e-15 240301 -3.16752e-15 -238892)
(398502 78358.8 -6.63703e-15 -8494.38 8.37575e-15 96768.8)
(36364.5 63487.5 -4.05797e-15 -2280.19 2.28329e-14 8457.01)
(-465613 53687 -2.04881e-14 -4726.84 -5.69484e-14 -116701)
(384688 29333.2 -2.62543e-14 2054.06 3.78325e-14 95958.6)
(-276195 38378.5 2.92595e-14 -5606.34 3.75578e-14 -69920.5)
(208093 52057.3 4.32209e-14 2288.31 7.35873e-16 52199.8)
(36050.9 65324.1 1.19079e-14 214.79 5.59341e-16 8998.26)
(69617.7 55615 -5.03724e-14 -1483.52 6.348e-14 16905.5)
(-143390 50266.4 3.61745e-14 -9256.87 -3.86595e-14 -37874.8)
(-229297 78013.6 6.77629e-16 3140.93 4.86812e-14 -56114)
(-129041 48298.7 5.49534e-15 -8906.02 -3.86847e-14 -34227.3)
(-206811 73596.2 3.49642e-14 2134.93 -1.28101e-14 -50784.3)
(48705.7 47413.1 -2.26623e-14 -1858.28 7.10332e-15 11623.8)
(-22506.2 62075.2 -5.72518e-16 1765.54 -4.19909e-14 -5146.19)
(-14862.2 64470.1 5.16649e-14 1080.11 4.15614e-14 -3419.62)
(-10824.6 63468.5 2.65443e-14 -368.208 -5.79999e-14 -2777.17)
(758765 38380.4 1.68486e-14 1093.89 2.59201e-15 188536)
(-8274.45 63988.9 -5.91226e-14 -3519.62 -2.63582e-14 -2926.35)
(-30312.4 56571 2.88252e-14 -7697.8 -9.68433e-14 -9431.11)
(1.1022e+06 -16047.4 -8.4759e-15 -58948.3 -6.36691e-15 258852)
(152301 44033.2 3.08665e-14 -4244.07 -3.96654e-14 36735.9)
(-380908 69753.2 2.17819e-14 6476.92 5.93484e-15 -92904)
(-403801 41600.1 -3.40569e-14 1642.5 -1.49444e-14 -99783.6)
(-402529 27043.2 0 -2897.26 0 -100595)
(507740 21292.7 -3.09143e-14 4974.98 -1.47192e-14 127215)
(484130 47932.2 1.70837e-15 6390.01 3.69931e-14 121708)
(-19666.9 49066.4 -3.41145e-14 2601.84 2.78987e-14 -4234.2)
(-14952.1 49281.1 2.47663e-14 1981.52 -1.38811e-13 -3218.27)
(-360681 76066.4 -1.47253e-14 3023.24 -3.81517e-16 -88742.2)
(-484150 59846.2 0 5258.49 0 -118823)
(348982 48858.3 8.14218e-15 3463.49 2.06098e-14 87448.9)
(-918609 68280.4 3.53656e-15 -2330.03 -1.1572e-14 -228504)
(24299.8 47618 0 4457.77 0 7135.34)
(465106 41314.1 -1.78097e-15 1137.71 1.20245e-14 115684)
(350504 73193.2 -9.30945e-16 5602.28 4.71989e-17 88357.3)
(-206875 56001.1 6.38772e-14 5626.08 -8.223e-15 -49933.9)
(-161459 44109.2 -6.2034e-15 3700.62 4.51371e-14 -39143)
(-147085 54981.3 9.80265e-15 2806.46 -3.74618e-14 -35798.4)
(-113440 45955.2 -5.54224e-16 732.886 2.20129e-15 -27964.8)
(-176724 33679 2.29422e-14 2841.16 3.39575e-14 -43143.9)
(-146813 37691.8 -4.01296e-14 7106.45 8.10802e-15 -34664)
(-174224 64753.5 0 1797.84 0 -42782.4)
(-199876 69276.9 -2.10124e-14 825.202 1.83401e-14 -49388.6)
(-221981 74384.8 -1.73808e-15 1599.44 -1.98921e-15 -54681.1)
(56420.9 48871.3 -9.87435e-14 1611.01 -4.94844e-14 14398.9)
(-12136.3 60687.5 -2.19092e-14 -2477.7 4.37591e-14 -3626.02)
(403289 31409.6 -1.27291e-14 3407.48 3.59818e-14 100910)
(421206 39485.4 1.75676e-14 -3763.48 -3.39878e-14 103576)
(72093.4 54627.8 3.56225e-15 -2800.23 -2.47245e-14 17193.1)
(101570 47775.9 0 1008.35 0 25451.8)
(-251133 74777.6 2.70874e-14 -3013.04 -3.00112e-14 -63058.8)
(210136 52887.8 -5.16796e-14 3432.68 -6.01746e-16 52990.8)
(229388 68210.9 -2.2614e-14 4233.13 -1.38158e-15 57966.2)
(-78242.1 54144 -4.06468e-14 -3521.05 5.84439e-14 -20287.1)
(-65348.9 55293.5 2.37365e-14 -2813.09 1.40389e-15 -16912.4)
(-98684.7 57208.9 3.86702e-14 1822.72 1.37907e-14 -24033.4)
(-109902 52091.5 0 898.496 0 -27045.9)
(-518322 41509.4 1.20114e-14 288.694 -1.85438e-14 -128535)
(212855 51854.6 -1.85845e-14 1072.72 -7.41677e-14 53079.9)
(155747 53444.3 -8.52348e-15 -109.312 -1.21953e-15 38616.8)
(-67558.2 134455 -5.75449e-15 10483.8 -4.25925e-15 -14161.3)
(558051 28979.5 -3.94802e-14 -5044.13 -2.37128e-14 137212)
(-665303 16882.3 3.4663e-14 2129.24 2.07902e-14 -164547)
(-97310.5 126376 0 -5408.77 0 -25486.7)
(-83862 55398.1 1.41927e-14 2572.63 4.29712e-14 -20169.5)
(-72071.8 57688.7 -1.06757e-13 4270.21 -2.71463e-14 -16823)
(-118750 49406.2 4.62189e-14 1107.07 5.22437e-16 -29189.5)
(-102557 52523.7 0 2822.23 0 -24746.2)
(230165 49075.6 2.49524e-14 -1104.84 -4.02237e-14 56834.4)
(264493 61417 9.05211e-15 -2219.15 3.85219e-15 65075.5)
(210184 50186.3 -1.83142e-14 -2422.45 1.75904e-14 51550)
(245774 60963.4 1.93374e-14 -2278.17 5.4067e-14 60416.3)
(188717 47313.5 1.50899e-14 -987.944 2.54935e-14 46579.4)
(220737 57118.3 -3.29525e-14 -1474.49 1.88966e-14 54403.5)
(182846 31526.2 1.44617e-14 1738.35 5.48067e-14 45799)
(176543 23955.6 4.25511e-14 5550.72 9.13676e-14 45181.1)
(-387122 65626.4 -8.89077e-15 -544.107 1.18391e-14 -96187.7)
(157158 55167 -4.42305e-14 -2670.91 -1.06572e-15 38331.4)
(-402788 50787.6 0 2729.66 0 -99262.7)
(693418 61175.4 2.55425e-14 -6793.66 -1.61408e-14 170365)
(-327828 33247.2 4.46409e-14 1213.82 -7.37681e-14 -81039.7)
(-243282 35083.4 5.37467e-14 -112.662 -3.62103e-14 -60391.2)
(-892422 -421792 -3.44614e-15 146337 7.744e-16 -185119)
(26597 57964.3 5.98988e-14 893.847 -1.57814e-14 6821.04)
(740066 42256.3 -8.50382e-15 -2289.3 -4.11452e-16 183057)
(-334410 43185.1 -1.26119e-14 657.86 -3.64454e-14 -82810.7)
(-244798 43125.5 7.79538e-14 -94.3434 3.84777e-14 -60762.8)
(1.17228e+06 1145.32 1.42142e-14 -2047.73 6.33636e-15 290359)
(-49911.2 52864.7 -8.59283e-15 456.484 3.45747e-14 -12270.7)
(772659 21801.5 2.13993e-14 2556.25 -1.33726e-14 192347)
(-175009 44169.9 2.68926e-14 1621.96 -4.75488e-14 -43020.8)
(-665619 64751.8 1.74892e-14 6923.21 -2.26455e-15 -163436)
(-626247 47372.2 -1.06883e-14 -4641.74 -8.40916e-16 -156536)
(596044 48673 -2.03118e-14 129.124 1.33956e-14 147923)
(-70408.5 55818.5 -1.18926e-13 3620.83 -5.43032e-14 -16571.4)
(-1970.2 -22710.9 1.40111e-16 -35550 4.97123e-17 -9309.51)
(-11652.1 56992.8 0 2968.49 0 -2154.58)
(-1.18307e+06 -375640 5.64919e-15 155758 -1.56555e-15 -254898)
(884912 -419069 6.65483e-15 -147188 2.11316e-15 183044)
(-511743 65444.1 2.20919e-14 -5269.04 -2.16047e-14 -128281)
(165607 45618.8 8.97729e-15 245.779 3.48374e-14 41151.4)
(221726 40293.9 -2.9213e-14 -90.9226 6.64418e-14 54992.1)
(71952.1 55260.1 5.78723e-14 -1923.96 1.72919e-14 17375.4)
(-130435 20864.4 3.35583e-14 920.637 -5.17197e-14 -32135.2)
(105756 62560.5 -2.83387e-14 -480.767 2.59893e-14 26121)
(-56054.6 46667.2 8.36968e-15 1051.42 1.28704e-14 -13647.4)
(-62236.3 78341.2 6.41324e-15 2332.53 1.88281e-14 -14863.3)
(-953310 18246.4 -3.02726e-15 26465.2 7.47886e-15 -229969)
(7951.76 -13512.9 3.67348e-17 -23563.8 2.27817e-17 -3873.66)
(-280603 61160.9 -1.21974e-16 3327.84 2.40139e-15 -68797.7)
(215548 41525.7 2.10569e-14 -556.862 6.57443e-14 53343.7)
(1.0038e+06 -193429 5.77636e-16 -28189 7.88035e-16 242068)
(-25319.5 46004.1 -5.46427e-15 -3069.87 -4.25902e-14 -7043.98)
(-29095.1 64402.9 4.33785e-15 -375.612 4.15952e-14 -7312.28)
(-17338.3 57372.9 -7.44015e-16 1457.18 -6.40677e-14 -3940.44)
(-50027.3 60083.6 -1.23678e-14 852.576 1.69763e-14 -12201.3)
(18566.2 56699.4 1.87927e-14 -469.979 4.87031e-14 4490.04)
(12881.4 60810.4 -4.39378e-14 -1171.62 -1.43901e-14 2905.42)
(-1.01198e+06 -193202 2.5471e-15 27420.4 -7.83534e-16 -244290)
(321507 67753.3 -1.85866e-14 499.898 1.01539e-14 79896.5)
(-110397 54278.8 -1.17478e-13 2285.59 -3.3413e-14 -26824.7)
(350699 57333.2 6.46037e-14 5616.3 -1.09234e-13 88409.2)
(315755 53787.6 -6.35995e-16 4902.32 -4.13798e-14 79561.6)
(285254 50425.1 -1.1693e-13 2387.44 1.78246e-14 71369.8)
(52788 39364.9 -5.73972e-14 4461.82 -2.15277e-14 14204.8)
(-741384 31554.5 3.28526e-14 -2706.08 -3.2172e-14 -184624)
(215431 42881.2 6.23431e-14 -1003.82 6.72064e-15 53203.7)
(297570 42106 -2.82852e-14 -863.711 -4.06468e-14 73618.9)
(-63557.8 55287 -9.94497e-14 -593.231 -1.68211e-14 -15917.2)
(500005 75182.4 7.16137e-15 -6476.99 1.06021e-14 122454)
(87809.8 45500.5 -4.02506e-14 -2124.2 2.73375e-14 21260.3)
(-1.01388e+06 28200.8 -1.16119e-14 -1471.52 -4.38727e-15 -251928)
(26706.5 56643.1 -5.18882e-14 2093.32 -4.37899e-14 7145.83)
(-80609.4 57356 -1.03255e-13 3095.74 4.892e-14 -19232.7)
(251004 50002.5 8.15557e-14 3424.5 -1.19064e-14 63128.9)
(225445 47389.3 7.53749e-14 2347.78 1.83426e-14 56520)
(203902 44422.1 -5.42375e-14 703.374 1.50307e-14 50766.9)
(522829 46784.3 8.57893e-15 355.94 1.85797e-14 129813)
(96353.2 54387 -3.48834e-14 1581.79 -7.50558e-14 24299.7)
(-269811 53470.7 2.51619e-14 -4016.3 5.81488e-16 -67942.2)
(-222711 84278.2 1.57166e-14 2273.03 1.76833e-14 -54695.1)
(-116995 43250.8 0 522.544 0 -28899.1)
(-352734 59083.3 -3.2978e-14 -3467.66 1.00509e-14 -88380.8)
(-390429 61692.3 -5.01258e-14 -3758.92 -3.37715e-15 -97806)
(-433636 67013.2 -5.04601e-14 -4500.84 2.44188e-14 -108711)
(193513 45221.2 9.77386e-16 2719.58 1.23473e-14 48689.3)
(134846 50866.7 1.55322e-14 1088.82 -1.94962e-14 33728.3)
(46853.9 16057.2 -4.51844e-14 1962 1.6327e-14 12112.2)
(72976.5 46272 0 -1998.14 0 17611.2)
(95784.6 39874.5 -5.2833e-14 -978.34 3.16059e-14 23523.4)
(1.20569e+06 -43331.3 -3.14655e-15 -173882 -1.54624e-15 256013)
(381354 35472.3 5.35616e-14 -1625.8 -5.50011e-14 94218.4)
(-290175 52927.9 0 -449.576 0 -72109.9)
(-210250 51077.4 -2.64253e-14 3889.24 -1.17899e-15 -51202.3)
(162906 54400.9 1.39472e-14 -1858.6 -1.7281e-14 39959.1)
(-53091.8 57428.1 2.32266e-14 -1200.39 1.90962e-14 -13471)
(-10716 63711.2 6.77909e-14 -272.18 -5.35964e-14 -2726.4)
(13457.5 47618.6 5.59767e-14 4670 -8.8996e-15 4497.8)
(15380.6 50274.1 -2.95473e-14 4980.06 -2.76592e-14 5051.9)
(-7038.47 76861.6 -1.49367e-15 -3307.02 -1.23585e-14 -2566.93)
(-4128.68 43257.8 -1.277e-14 -400.52 4.30698e-14 -1123.79)
(-2357.07 48399.7 -4.75177e-14 -3696.73 3.54898e-14 -1502.07)
(5657.79 57947.5 4.5227e-14 -10192 -2.06119e-14 -1125.03)
(77074.8 48620.2 -3.76708e-15 1903.92 -1.80613e-14 19596.2)
(-163806 85947.4 -9.05172e-16 1627.63 -9.00166e-15 -40239.6)
(43924.5 55375.6 1.13686e-13 -696.728 -2.24448e-14 10725.7)
(2213.31 84008.3 5.21817e-15 -9291.72 7.61373e-15 -1756.3)
(-329194 80152 -1.28918e-14 -2461.31 -7.82915e-15 -82290.5)
(381095 45286.6 4.11488e-14 4031.58 3.69889e-14 95557.7)
(-159876 52859 -4.381e-14 204.172 1.43553e-14 -39617.9)
(-805376 168298 -2.30467e-15 152668 1.41574e-15 -161950)
(-107801 43391.2 3.10771e-14 -2554.07 3.38658e-14 -27381.3)
(-179574 79077 0 445.237 0 -44445.6)
(48204.1 53515.1 6.06341e-14 -3262.78 -8.39923e-14 11150.9)
(72098.6 46716.5 3.21777e-15 121.06 1.04928e-14 17919.2)
(886187 -195599 -7.18291e-16 27631 1.28886e-16 226737)
(-1.15702e+06 16691.4 -9.55212e-15 6039.25 4.40289e-15 -285582)
(314049 45525.2 1.9773e-14 6669.3 1.66967e-14 79576.8)
(349283 48462.6 -2.04867e-14 6622.08 4.44801e-14 88307.3)
(-111683 57345.1 -1.43713e-13 4624.34 -5.1435e-14 -26563.4)
(69871.6 65288.9 2.58632e-14 4066.27 5.1219e-14 18345.5)
(-19008.6 54364.9 4.04184e-14 -5097.43 6.17202e-14 -5981.19)
(-504753 -328293 -6.13233e-16 38798.8 2.58877e-16 -115613)
(-1.10486e+06 47535.3 3.15779e-15 2041.8 4.05541e-15 -273632)
(994223 32289.8 1.72058e-14 224.638 -8.57165e-15 246743)
(-1.47667e+06 -20295.5 -4.5398e-15 -4806.9 -1.98118e-15 -367585)
(397778 38733.8 -1.77291e-14 -2184.49 -2.77594e-14 98154.7)
(275739 37722 -2.95151e-14 -1392.73 1.08275e-13 68070.8)
(-365113 57037.4 0 7580.69 0 -88711)
(45009.9 44163.1 -5.44948e-14 -4875.42 2.60277e-14 9958.18)
(-32927.3 62179.7 -4.33157e-14 2332.78 2.29905e-14 -7591.12)
(-20000.5 61382.7 -3.73868e-14 412.286 -8.38362e-15 -4860.23)