/*--------------------------------*- C++ -*----------------------------------*\
| =========                 |                                                 |
| \\      /  F ield         | OpenFOAM: The Open Source CFD Toolbox           |
|  \\    /   O peration     | Version:  2.3.1                                 |
|   \\  /    A nd           | Web:      www.OpenFOAM.org                      |
|    \\/     M anipulation  |                                                 |
\*---------------------------------------------------------------------------*/
FoamFile
{
    version     2.0;
    format      ascii;
    class       volScalarField;
    location    "1120";
    object      sigmaEq;
}
// * * * * * * * * * * * * * * * * * * * * * * * * * * * * * * * * * * * * * //

dimensions      [1 -1 -2 0 0 0 0];

internalField   nonuniform List<scalar> 
11800
(
113699
97960.3
282801
246301
93574.6
186033
111352
112571
118549
122002
111406
342218
52922.9
253365
229073
1.02791e+06
94870.4
88932.6
153065
89525.3
202124
312838
479973
428405
836368
551942
509919
255455
566542
625575
179870
102859
539578
106574
107949
177845
107514
572557
101690
98825.5
528809
587092
269053
648036
189030
961856
450830
519046
110130
134875
354842
257714
106722
164088
1.09475e+06
966733
53544.4
246294
189942
190903
949993
112424
198565
166182
820395
130833
363647
264971
54917.5
508620
111127
93714.9
89956.8
966479
939770
176465
844222
122034
113052
119067
1.11644e+06
85949.5
94150.7
97423.7
89605.9
601225
189973
543466
491046
261918
103252
641040
107059
52944.4
109494
90258.6
11635.4
89738.2
105828
302085
68579.8
329595
608708
229999
111286
191111
109402
104856
911619
538361
597013
486127
192109
267257
120914
825269
123893
106325
776360
127951
128538
112751
113606
95293.6
104347
105722
106641
104679
86253.6
31142.2
1.10644e+06
702995
201865
600444
274648
540050
487986
181912
514562
242217
462895
418840
283260
120384
132783
171253
577537
599005
342034
217122
129216
123880
105994
147409
130590
118057
238075
316897
667104
108423
1.04642e+06
135454
858467
245399
269006
297237
150144
127810
1.14832e+06
667554
224219
297900
107311
192800
194443
955429
966402
476739
430308
529249
236328
173056
140187
127672
223798
122446
200536
105406
104802
111913
144551
132082
126787
143903
434862
561172
982738
100515
124209
1.14751e+06
96310.4
149037
167441
109502
111745
409715
347708
313941
261256
1.09921e+06
327928
477378
1.5084e+06
1.16716e+06
1.27956e+06
208348
98131.7
430062
386807
350495
145787
190193
94503.1
87575.8
153888
91702.3
732000
158647
92798.9
237390
128709
111111
100826
314875
321248
1.49718e+06
726932
129085
136191
553360
449927
174120
236050
536822
487504
440124
110106
598140
201495
264745
250053
100909
103046
229258
187060
119084
1.27062e+06
151440
170245
136496
152168
341399
378446
418730
191079
147091
109310
938902
106280
79833.6
106579
209078
84339.9
266310
1.12651e+06
197319
195352
284448
211141
240184
179675
619236
520358
166613
200534
141969
163434
294653
382248
175642
637222
684662
831558
110312
197346
196393
919567
928772
501073
493319
517726
513250
102938
74836.5
155953
1.25685e+06
97485.5
102642
157942
141730
140098
445557
448431
834036
1.28432e+06
390263
115264
426607
349109
253713
206651
117679
115608
150174
249046
137949
227268
93812.5
109677
112569
110339
686731
110948
100380
1.03972e+06
159960
368838
372479
363870
455651
439698
87252.2
86669.6
353107
452697
323388
835146
84558.7
424690
336653
214115
166955
165045
130069
171767
152541
194173
217077
239106
98142.6
105510
365216
388821
116035
122881
258932
208158
235461
115786
111355
134127
134543
473194
211209
168297
242918
509636
602376
234343
123407
121023
137751
131285
225096
262739
210228
247100
189585
223318
172462
160481
366792
172636
375800
639421
302135
227595
1.17401e+06
103068
673208
311231
233011
1.05886e+06
102186
695950
176519
615906
567255
544051
117219
49823.3
99547.2
1.35448e+06
1.16632e+06
471375
168809
211871
116471
123737
144601
95766.5
147535
880607
36168.8
276699
207682
985584
82289.4
114529
100777
113689
99684.7
106068
991843
312465
138214
327457
296099
269977
81291.4
668841
208726
278749
111375
474134
112884
914611
100659
124520
239957
217620
198855
478190
127352
257526
249709
129732
331681
365255
404684
189419
149509
49357.3
104684
111187
1.22499e+06
350611
276981
211944
175739
110002
110756
82953.9
87692
133193
75002.8
83852.6
101309
108284
210608
103977
145858
326064
349564
170936
894644
121362
212369
103472
103749
848879
1.04853e+06
289146
321161
144007
127994
95124.2
747455
1.00143e+06
898272
1.32863e+06
366615
258158
349350
88429.2
112209
107891
118028
337135
110083
108154
86184.1
106056
742434
157748
678670
488391
102720
126731
668513
740466
336343
373709
413634
191358
151613
306580
107080
106579
104843
115110
97130.6
125983
77920.1
116751
73955
111696
68050.2
110772
101580
109854
80630.4
854733
155236
132150
292165
482958
78323
107840
94337.1
88513.7
80333.3
155360
204327
107116
105212
313192
85643.9
126022
924166
61090.7
117414
258076
235417
250087
273448
282849
302665
138379
118421
1.02258e+06
1.32668e+06
235233
72959.2
172930
212346
182048
139261
389526
354838
320408
113352
64321.8
360810
354432
161555
174069
104594
289685
321219
135422
500101
500093
506510
507652
953688
933058
274183
1.20629e+06
378052
100786
861537
641872
712064
350617
150229
166040
121976
811995
246330
315832
1.27199e+06
125694
135124
278792
242511
661167
318728
1.00878e+06
103174
98490.6
147858
190050
426693
386037
348911
997607
104697
194379
421797
715997
100798
1.16186e+06
1.08931e+06
1.09077e+06
128682
173072
74940.5
1.11521e+06
281570
133307
204464
997834
102702
135375
147388
103580
275870
150225
1.34575e+06
1.09671e+06
125451
313667
398572
149949
168521
140520
131819
384688
142361
276829
212774
554557
509516
109350
684332
108466
197745
235752
970661
170867
236330
137545
128071
107950
122128
222874
509772
563931
94212.6
96442.9
91826.1
125804
193256
695102
86031.1
218368
379104
291682
124807
501416
563618
354565
626284
693758
275025
190745
106148
108425
188287
203602
171669
185243
122974
167832
202348
129452
102715
1.30616e+06
529011
196675
250903
255615
129285
206440
286898
651857
587921
530635
172017
199752
141428
128627
797546
640923
673226
108030
130317
152555
312321
759588
230543
53769.2
110848
1.24283e+06
1.17174e+06
133502
1.07604e+06
89310.1
105729
96429.3
374309
88248.7
146363
170847
637768
708183
784744
868964
356663
310430
261399
214222
123329
100522
207419
1.07017e+06
109542
109865
101110
104497
99797.2
104683
113195
834365
429553
399068
230715
440509
490211
173593
597822
146678
133317
110416
1.22488e+06
101940
110972
103558
103734
100358
1.11859e+06
147420
151032
639385
178675
382737
150112
1.14286e+06
453597
213646
173184
750411
239413
115827
105747
92072.1
98252.8
139255
161003
148336
104719
299888
125532
100894
401612
453063
98885.4
292806
409413
353180
467958
933763
842877
758107
682539
291041
350164
944823
852338
405886
767895
466165
688818
875782
113236
102010
111663
132553
282650
663710
111296
229276
299185
250469
329680
122255
144321
214443
300485
683311
616416
556486
263810
203758
517414
120620
142409
114519
188032
171286
153220
282765
227310
232627
177739
106070
405453
120631
173919
220028
560516
284297
330826
300430
113502
136976
115034
104090
106683
116830
295181
257464
102712
126557
123915
231114
743021
232392
312005
291836
112695
127561
118357
107150
139441
117576
325465
292885
264734
120469
924163
346136
155806
555877
365240
729066
1.08259e+06
133996
149287
123249
106678
98986.8
366261
312729
1.11578e+06
93278.4
120392
186824
257219
127498
111386
368311
362899
58140.5
100055
192958
155806
84695.2
944316
1.0762e+06
156332
99777.4
157921
199474
417098
337461
374791
1.23873e+06
105811
292813
327526
113294
304770
370493
429201
489155
978837
882468
793591
714754
304052
367327
988432
891729
424356
803552
486429
721170
1.01052e+06
881675
667759
242519
277495
875756
676515
181300
99361.9
95359.7
671897
1.13313e+06
93760.4
213533
983595
664453
1.08383e+06
1.0975e+06
573077
580268
269554
220450
282416
174801
113222
162664
107171
116568
132489
121387
208655
1.09654e+06
283090
120322
83514.6
191660
206503
980459
197932
179069
212502
226399
614611
261847
198610
860798
214284
270277
114727
110451
207158
173647
191087
490262
284613
273309
683861
655485
271020
281281
530067
570594
212180
216316
102719
112086
116736
278547
215929
49346.4
111069
122464
351265
340784
172260
318965
250731
111933
80265.8
82485.6
314777
711358
89682
1.07654e+06
153632
378192
342276
122676
148391
236471
106473
102644
859666
200907
525155
475379
430047
169351
228995
108137
835175
998710
113024
106135
544106
191330
249082
430035
476749
535696
175762
233796
50219.8
432870
199601
986966
211034
579146
431423
480948
110056
103162
97555.7
115834
103241
98830.2
840167
237036
103886
123836
132142
149012
167078
186494
384654
376600
348534
339117
308464
316677
668598
112531
102206
105542
116227
145801
109093
108290
778351
150269
276236
210249
549554
272183
107977
114531
228593
181908
305451
253428
654059
557563
503379
454133
256741
762684
344098
825513
142301
124380
154063
158800
114917
118285
112722
804885
1.13049e+06
175256
87001.8
133096
287663
219149
79398.8
106392
159387
146429
133152
132280
156531
149643
124764
245835
273506
267637
298797
220469
246660
316738
104199
582031
449506
251120
662770
625552
362234
1.12372e+06
197345
187198
214484
235924
109954
106435
116447
218085
105222
875897
141277
110106
385483
48410.6
94423.1
935625
111819
209417
670162
292413
605308
546439
845245
566219
92961.6
299927
242309
136226
727380
308362
151549
553017
497578
613080
108570
110117
93619.1
1.35711e+06
162183
219297
262441
138447
103119
97095.1
222633
243494
117207
941831
212599
843277
135526
462193
101543
309665
373740
530298
205750
266201
320711
149912
1.24039e+06
108318
84649.7
96993.9
1.08597e+06
740886
169831
234601
549290
499906
451408
1.11799e+06
298390
245887
1.18261e+06
1.32245e+06
882255
86521.9
309736
706551
509364
266274
206359
473817
422326
206936
711658
174036
168024
253988
218361
180059
908515
1.34173e+06
92204.5
105854
124910
1.31747e+06
103675
112123
349186
259623
1.18476e+06
1.23963e+06
109902
342287
137024
126092
283072
128664
85163.3
307156
96869.3
111274
1.33977e+06
533558
286280
222683
200408
155065
399471
363237
327013
145907
1.2505e+06
251725
221856
216416
1.05415e+06
406341
571464
92057.5
144718
107506
469131
241563
320014
95703.8
146608
192125
426850
152506
122671
110954
204451
1.16543e+06
154131
198409
420905
760650
1.07202e+06
667470
468583
322388
380948
58182.1
137424
169270
351931
318219
287115
1.06577e+06
96339.1
110455
118727
117472
116638
123366
150082
106395
102269
368068
923823
231654
524379
473049
427498
170758
1.05142e+06
295494
331025
390728
336141
619060
1.01955e+06
323929
105746
449698
95171.5
422642
251557
466625
519043
190947
630279
160712
1.45492e+06
485888
103848
936905
1.45436e+06
1.25284e+06
286129
107700
530102
109565
98142.2
97314.3
173768
106007
101009
96743.2
90339.3
843439
884697
101272
634861
116040
106997
102668
139045
525945
535241
139665
535689
542445
808196
271591
112896
122703
158185
314190
346617
135418
35399
108566
443085
177729
406089
457118
506993
561831
281686
206657
178347
104718
97242.7
1.08959e+06
582005
106018
129389
487356
388254
203629
223191
129359
102988
190785
168786
93295.3
122090
102289
902232
298212
746287
92451.9
101340
1.45882e+06
108238
1.12144e+06
1.08963e+06
95953.8
478492
226822
897651
106310
426283
556910
1.22117e+06
131639
98212.3
95457.1
277176
132939
163872
312473
281824
253915
94046.6
104232
100211
94633.4
518044
573168
395907
690204
622870
750355
1.15715e+06
141253
370092
1.10265e+06
369136
1.08789e+06
437145
484469
539002
235394
171698
218985
270421
1.02497e+06
113480
114786
152863
143748
131099
120127
194554
176069
164856
439375
380948
1.31839e+06
133307
89569.2
128686
1.08177e+06
316182
156272
148947
1.06172e+06
448588
311063
84548.4
123583
94503.8
437628
563252
164826
702723
109279
107509
1.38771e+06
924234
1.13332e+06
194858
243495
452248
174862
333144
1.11063e+06
1.24949e+06
109481
124393
197765
169905
488145
542521
363009
408794
1.21551e+06
1.18533e+06
151298
117796
86064.1
810498
94046.4
1.06327e+06
245904
156282
565460
172797
97562.4
1.03104e+06
131444
144907
91774.5
103286
785282
229199
103839
399599
183261
116800
99197.6
104011
323970
104431
1.01593e+06
974918
161931
398712
233182
99737.7
107677
826734
111426
535211
141281
284372
526225
609757
961984
112619
187376
1.10185e+06
140339
107214
89174.6
110488
105299
1.16267e+06
850541
181583
233754
439271
403032
581704
196658
256506
198435
274781
596127
537773
484745
826768
351649
258699
891233
262159
968404
341688
331889
1.0319e+06
1.46418e+06
1.2157e+06
208460
268805
602263
260815
200528
98022
207811
1.02933e+06
104333
112352
1.24519e+06
921836
1.12395e+06
423406
525227
534107
458160
94260.6
84984.8
131074
87684.4
347718
382650
424489
188434
143999
326686
1.13531e+06
101385
137226
115890
103031
479478
434718
130481
997064
1.15812e+06
561813
451807
914552
1.05271e+06
102176
511348
332603
659497
100835
137791
147432
836656
833876
420251
185431
95900.8
107720
127709
260084
906476
125152
669709
95345.3
184267
144501
170627
301213
160300
261407
25209.8
7312.67
259565
1.36303e+06
114561
104550
116311
99339.7
99256.3
118390
126577
99973.5
110276
260438
97525.1
104220
120918
465791
579754
409189
977234
1.20156e+06
103409
130591
197225
106034
785044
147844
1.24055e+06
130756
159129
307832
215918
135190
131570
300945
102627
115105
126525
96001.4
117516
90416
1.02909e+06
86775
99472
149484
101599
81249.1
1.08163e+06
114038
923713
947783
353840
254496
172646
234874
538148
493356
445406
103454
627190
360716
105120
1.14917e+06
107816
109368
188579
618351
414418
466196
713054
112243
98522.7
206556
295024
664559
340866
738367
253289
598422
540188
204278
742921
245074
666594
287263
602050
543320
330016
857922
116293
298281
225247
98547.2
116708
909058
473061
648976
600795
525215
658841
475447
190690
210190
307003
759157
107012
1.30211e+06
121372
103503
995320
111576
159792
339146
354740
1.00129e+06
93902.5
589887
534572
482638
184786
255800
1.21197e+06
188728
153986
352496
114651
366786
169025
214629
93889.1
127733
137746
113540
265239
101517
339893
186798
146643
424843
568776
577484
424265
222922
1.11289e+06
108433
108340
1.01203e+06
941449
559084
1.44226e+06
535346
456453
547644
1.28877e+06
531657
414888
1.13795e+06
255109
253378
319999
985514
93043.4
885716
106716
158824
202855
334588
368989
408438
195437
151929
285609
63858.4
66353.7
103828
101069
136728
109358
102302
142202
582732
1.16143e+06
132502
119697
1.07491e+06
680863
263089
347327
101209
106542
915388
623555
155658
465425
433347
619129
92623.5
99624.6
118095
104001
676289
1.15093e+06
1.15595e+06
769137
1.26737e+06
155544
95119.3
179873
526171
474992
583707
260234
185584
1.22726e+06
250132
303118
396117
144274
138034
531601
201398
102979
384652
148588
176915
1.18993e+06
185940
168182
575886
523486
471910
240045
792752
737525
955271
301731
318083
353302
790164
338856
250189
700414
138562
1.44795e+06
112219
1.11038e+06
282922
327109
83560.4
341615
633238
102196
114162
107526
1.28498e+06
324614
290098
354758
172345
134604
190419
302734
850348
306375
606880
744711
673245
213446
659655
489448
522397
618155
655077
489199
528672
628026
368874
348532
28627
176733
115999
218576
310792
265572
357813
768910
693207
624035
563183
214719
624632
283640
113503
81657
89194.3
142936
80585.1
254089
570445
593940
224427
1.07455e+06
114980
98671.1
858995
1.07672e+06
84116.8
640925
250770
328579
454617
323996
171914
102283
247518
419060
61025.4
107223
1.09612e+06
148133
125389
253239
228505
277696
198275
108649
110518
207380
697487
1.12116e+06
1.2989e+06
178717
196754
840394
757831
1.01052e+06
100591
605417
975693
1.30239e+06
1.35019e+06
1.27889e+06
289043
518792
220200
1.15679e+06
815743
324691
753946
102700
104021
896138
898398
102208
257790
1.18661e+06
960984
900550
931228
1.35486e+06
907263
1.08605e+06
977813
106555
157554
689065
400812
585693
129703
93759.8
117332
109710
115464
132482
116280
224431
1.08009e+06
654756
216009
288216
709691
115008
334904
250671
1.39612e+06
174571
163220
338686
174889
307601
133417
120000
1.13451e+06
9260.89
91095.5
90424.3
18720.7
232815
309480
113648
124324
135680
104844
353542
304106
100672
1.16195e+06
1.00913e+06
300930
698631
223892
107523
817415
182110
1.16348e+06
280417
341528
395335
452693
914292
826208
742500
669520
280106
337332
923993
834120
390596
751136
448930
674852
158609
132691
316422
314438
270754
138953
126129
115121
102843
99882.1
98806.1
96982.9
94587.3
153163
522025
562372
439535
249679
480434
529740
905107
355663
284435
1.05435e+06
356256
123765
74826.5
108752
105187
169019
149202
154535
111504
244700
188132
201851
395533
110566
126711
568833
109698
96619.8
110871
93795.9
753484
118794
154561
327784
262221
170058
336872
150974
90472.8
83285.8
1.26834e+06
1.25389e+06
651241
526607
509506
657711
1.19214e+06
598371
107220
385157
201571
163664
226782
121711
1.21367e+06
129076
626051
568070
512956
267214
190463
338514
188265
152276
1.22865e+06
138779
107067
404375
401548
167998
122004
136108
216053
473042
882810
326250
255033
606889
698374
179028
245939
564785
510124
461163
257221
279555
497856
362247
516118
278119
575873
639965
191817
709028
1.3928e+06
1.00495e+06
99365.7
401893
444445
491808
169766
130176
829970
140120
181294
245677
257727
112403
140279
128990
107290
692578
518002
547318
656699
192690
1.01563e+06
1.25899e+06
461896
96468.9
395967
436210
483216
491264
604295
163059
943835
416772
342738
307630
376854
147561
190222
123862
120864
238109
290874
262204
295355
325780
361614
214369
210904
291330
293896
616831
612165
500905
555285
497245
551233
309575
342368
141396
106028
112012
115971
719614
379824
107995
602534
495816
469305
617966
126484
229411
826260
331852
745119
671249
82108.4
142786
598980
317665
235362
779121
301308
63544.9
557560
503493
619655
271082
192459
864816
287529
235668
1.09873e+06
287986
397556
108850
107649
187855
172750
155577
920673
214370
176994
250283
225847
272373
139146
119148
633129
726455
127738
386221
98380.8
568582
1.12e+06
724550
292403
228079
556847
269530
246308
202845
143178
106459
227677
117296
250551
115290
206334
102237
100791
1.19586e+06
212536
915829
475946
524545
280737
219562
537084
1.08572e+06
87133
105871
113374
102854
217845
20928.9
6952.67
216303
434474
94487.2
430004
187122
167945
102264
270461
370401
830196
99173.6
91146.4
108609
114062
239492
150328
525514
463397
140524
98982.5
96200.2
1.19385e+06
436403
98194.2
185177
97892.8
1.39546e+06
1.04976e+06
186982
128071
406311
207113
280340
569878
462837
513447
1.21326e+06
954158
107071
933218
1.31305e+06
973690
1.06099e+06
494091
120024
697694
150293
109392
122551
230760
228915
179589
172111
409488
142629
110007
96183.4
617027
661402
734884
815168
895099
365363
317856
266503
217157
140601
96559.6
301859
14170
150880
149804
7742.13
302726
153580
123265
82262.3
182165
210664
110978
224253
689833
409772
285426
209374
239033
1.13339e+06
892848
111665
377475
108390
110887
282587
334654
394899
811219
202783
226523
110789
1.02383e+06
110844
171900
206052
190393
658475
730683
367200
480202
476819
278861
366725
750830
713344
695828
224738
300889
81166.3
99498.9
84804.4
149321
87442.1
347898
612448
546822
671249
484457
682332
483237
337189
271867
590412
431225
597045
432541
166670
718617
547399
477626
622478
552606
682072
493191
688184
491791
691936
1.38941e+06
254843
352103
801334
317779
92127
109631
140188
13774
139182
12243.6
101973
222986
671487
606043
746479
320509
226471
1.18566e+06
61953.6
102060
183106
575334
158476
434493
208331
1.2341e+06
1.24546e+06
784706
96205.7
195116
784482
375442
303131
252166
383733
345120
422760
158757
206937
1.30199e+06
306372
1.14225e+06
98471.3
102849
109237
99789.6
81552.7
1.12123e+06
101070
787835
81545.2
568732
800300
94451.3
112690
126927
330433
135604
260827
235843
179284
196046
216672
111208
182060
243311
296972
208365
712092
644664
581634
837070
1.13007e+06
1.25296e+06
92028.7
94976.4
101326
101478
152078
95995
157881
1.23705e+06
1.27703e+06
1.18372e+06
995701
38931.4
724144
1.11631e+06
656892
508386
525743
650152
365533
363835
640276
380393
821447
84158.5
151908
172136
336126
139032
134446
156997
118417
136916
102096
117634
223225
231156
253741
246371
272593
279872
328994
333239
104652
107262
277338
196488
94323.6
119351
529514
827309
106217
447784
974305
279405
910002
381334
133806
932700
413638
348263
548029
1.02926e+06
1.34105e+06
536340
190703
1.14353e+06
157182
123918
111430
278867
76438.7
492578
818183
191585
308162
134292
110651
135737
1.22228e+06
191146
214711
208261
167573
479646
150620
127587
509290
112061
1.0391e+06
106153
610355
208792
224621
948791
737473
432414
818014
908602
372102
1.00352e+06
317165
255032
729436
807851
995966
897913
255913
376309
435613
318495
1.13654e+06
124396
892842
105652
99874
99833
5105.27
38821.3
464866
59885.4
860269
158951
134064
289235
315945
261507
276268
154140
672056
152920
159886
646202
87840.7
232353
211754
209776
646391
583516
718316
303367
320360
129185
207835
361515
854345
68455.1
194716
127771
94939.8
286028
937355
482703
430193
967349
138390
502683
1.10685e+06
542878
990423
111799
1.09215e+06
143592
745995
241421
297617
105357
8960.95
90505.6
89821.1
15410.3
143708
815941
111406
892517
439002
147336
635286
609523
704887
676287
782445
751104
344270
332739
243647
236535
266665
189437
628524
570743
514693
172865
209879
189988
112838
560143
480409
85567.2
117603
96231.8
110887
112484
1.12536e+06
891326
214115
691796
624386
767102
104850
447575
747927
746752
113894
108160
927400
320602
120805
148536
176785
162813
112809
288681
261210
238566
945763
1.38661e+06
976580
643904
297889
220195
114477
124106
164553
127121
109645
106061
124951
329490
257825
99120.1
863432
973525
335886
338121
114281
119411
109356
106590
277267
921337
594384
446862
463911
552764
105331
98155.7
150747
98645.5
93464.7
158902
1.44177e+06
1.13657e+06
93779.1
119445
399265
346100
248301
776965
859882
630967
698645
499033
231241
192824
212731
121354
132158
1.03416e+06
240765
636764
70282.3
979964
98470.4
321305
366288
1.43143e+06
99494.2
326808
110295
306596
109432
200621
645999
266574
682329
431174
757987
842035
377572
933521
321742
268103
326661
268458
134998
378648
430415
553972
95355.1
149094
777974
354917
1.28684e+06
1.07379e+06
1.20231e+06
229611
898142
453367
312059
151262
121094
1.20343e+06
661046
93166.2
1.34699e+06
1.0779e+06
40714
337946
281076
53711.9
575342
407879
95253.1
104247
935017
1.29147e+06
106407
384878
395587
864980
837247
286709
294259
289190
299859
101155
103567
103945
99647.1
72485.8
1.38562e+06
1.00954e+06
958937
1.20508e+06
430109
213581
891756
460983
510504
565348
72074.4
1.00076e+06
163403
729828
1.09822e+06
314655
206909
1.35461e+06
306854
322530
232411
246758
656259
636293
143259
143760
84338.6
101805
213439
766205
691404
622286
307462
1.37549e+06
107045
148844
87740.9
612832
679595
379173
753714
326768
841588
280366
767871
623604
690767
850512
229498
395334
342601
287135
101328
125948
126596
144481
251434
205975
228297
1.06105e+06
430513
525641
1.02492e+06
133817
171026
101658
275879
369286
136791
177777
1.07498e+06
119117
99995.8
108813
110276
100811
78526
157937
110721
120025
859310
1.03345e+06
106085
91406.9
106863
185745
379209
1.15662e+06
1.06945e+06
514521
112716
111873
873689
107702
110781
1.40103e+06
503691
1.01708e+06
251150
675043
381807
405019
130938
538516
681139
308005
226406
109818
235396
99982.1
63914.4
90287.3
1.14451e+06
555945
562378
1.0308e+06
171327
185007
110801
334944
103330
104041
118624
193881
180127
18208.5
178861
12527.2
106788
684084
188228
261531
564724
509459
459075
112173
1.23733e+06
444006
217518
1.0101e+06
543051
573933
115678
11278.1
114828
11935.3
925432
273335
344066
422301
384608
100334
1.08025e+06
210558
160983
471882
360712
100497
24425.1
761297
150964
781624
176389
224541
431870
451247
375210
101440
364095
154941
184919
110814
119228
352333
365658
126346
204633
95468.7
96727.2
562053
268890
203771
109391
339162
8739.86
32615.8
336783
349421
283920
412386
490841
84703.5
1.27135e+06
1.34141e+06
155104
105907
108447
139751
156633
16080.4
155530
13928.1
608505
201249
272614
1.25003e+06
1.26588e+06
1.00912e+06
982473
484770
428452
408577
365519
1.06728e+06
146198
279486
115880
88933.2
100636
190370
257756
363425
1.13925e+06
1.16029e+06
146695
76533.5
354458
391394
146267
605023
237019
202325
998277
110448
111810
136886
542766
539139
582760
369365
192959
261912
83716.5
79016.3
717397
89361.9
607497
79582.9
277382
446864
392058
720543
841876
108379
123041
222365
989366
5296.59
66139.6
19604
66058.5
163301
158833
81538.4
1.19265e+06
21387
1.13771e+06
296470
28505.1
9224.18
294384
171330
96259.4
11009.3
95621.1
217243
959170
215062
1.18081e+06
1.30247e+06
39446.4
324033
397491
361750
490940
225402
169344
549412
393321
71121.9
139090
195493
150010
336060
455351
139857
140254
1.25906e+06
386968
446403
424296
487758
808006
103097
85700.1
676099
841782
311960
142817
161538
101073
192324
241881
110443
141009
188246
107008
74757.4
733907
869032
153087
315745
249961
258847
840720
351347
161983
141525
334663
314400
89844
189043
847264
1.03376e+06
243470
178246
419374
515948
465853
80142.1
98325
183670
143186
789309
288027
83110.6
41518.2
48754.5
241007
178884
405214
497973
450274
105098
1.15545e+06
1.30519e+06
114321
99410.2
92206
88269.9
1.12561e+06
201153
163928
453790
1.39913e+06
1.14612e+06
277625
124357
273398
247443
162680
148828
176143
107588
108161
105906
218747
1.13021e+06
97006.6
513807
556524
968658
688998
672022
247842
243552
322021
327469
188268
176212
161336
93228.8
101399
380056
134892
1.02734e+06
676904
165046
99410.7
470984
1.34089e+06
95849.3
590816
489694
457792
609988
472551
195408
254494
614760
125687
450392
191144
208751
122923
287961
138835
174887
481083
230551
120126
106743
131774
565123
464685
129708
122621
124086
134632
103813
310087
237106
104017
227675
109800
137858
210281
1.2204e+06
1.07579e+06
750076
188723
151115
419283
378802
341625
179304
189455
85811.7
667693
106663
306347
412111
142415
163857
1.10513e+06
76339.8
191350
177197
104032
1.13909e+06
72637.3
111869
271835
323225
121723
113270
130338
97960
104313
740074
96969.3
90979.6
11241.7
90349.9
734917
665985
1.25169e+06
825181
997417
113344
1.04081e+06
670903
10172.4
73808.8
158781
134935
262066
287098
316307
429008
223266
956360
508279
563850
110568
88154.9
83555.3
97999.2
110832
104937
140155
601136
74298.2
1.24448e+06
319748
118725
614564
373011
197721
267849
139550
119701
165337
262954
162634
348191
330591
129244
109424
389764
643142
79173
80940.2
136466
84208.2
97339.7
1.00355e+06
220966
175840
512539
940728
263395
168010
390195
344665
378594
310970
189097
146994
103191
5983.87
47337.5
378599
314150
436773
965754
785409
871700
313456
374177
977516
880636
434148
794211
136451
215143
179028
198622
101076
138019
118353
338175
158006
136836
144417
249652
723672
332347
103644
132146
94352.2
106318
142820
210080
105564
97361.9
85484
544322
191731
245313
176807
221671
466067
394971
448434
360819
678394
196011
124297
190245
391818
293723
153147
197915
275510
104632
189857
116616
115653
317393
316104
130694
416001
136868
138251
788328
660639
96786.9
114919
1.09845e+06
90066
134197
86465.8
134611
162391
502405
452557
406011
266864
266047
517887
131285
103881
102542
734933
138855
128138
145019
134815
118058
127018
82639.6
113986
861582
846368
240051
192184
111100
559723
481290
194443
260974
366943
107314
74244.1
104561
1.11268e+06
368243
439659
60937.4
317032
134978
57350.6
126668
139712
133711
309902
104801
196771
157800
109925
1.35022e+06
207612
609795
171261
1.03538e+06
395720
465383
244596
185900
595395
85811.3
107453
114492
217850
270230
200221
131845
77389.4
62947.5
472175
193895
155719
89733.4
93763.8
97021.1
97206.6
213584
174686
194466
55576.5
101885
974395
97936.5
1.3637e+06
271629
141463
518235
115482
92360.7
385881
135528
129145
606610
100846
365980
766100
691056
845635
91917.6
149336
247562
783146
741582
197552
101366
211840
214551
300131
348253
665518
299613
340096
743048
657512
722714
540860
599461
534219
592024
945755
223322
154562
1.1302e+06
98098.8
118483
393196
954446
282208
157513
128565
96335
87391.6
110735
121177
91921.4
743125
178051
224862
418002
107990
509057
126014
196927
204998
314532
116855
107193
133733
104321
100891
137648
127155
118569
1.13195e+06
121821
100353
212657
271424
78316.8
149503
150916
836528
160528
121722
112389
118241
111330
1.1148e+06
182227
170139
411378
178525
149175
1.07297e+06
811092
857297
262583
112863
948488
279687
316610
137647
541794
435262
582627
471603
697329
364115
915919
602381
794130
599127
387555
309433
89642.8
104465
967717
90542.8
102145
100503
104042
100162
88491.3
535127
558407
128768
275700
26630.3
3668.13
273755
126400
81880.5
949087
305236
424100
167502
144144
159969
120918
131975
232655
265531
101439
132082
340498
240506
178837
328974
567420
479232
85484.8
506093
424947
1.32178e+06
760647
452582
843976
937921
390894
1.03585e+06
333415
270334
753371
834214
927554
1.02895e+06
393625
269479
454590
335292
102797
478140
77947.2
613884
609585
1.32938e+06
116259
243948
706585
111107
424098
76119.3
85875.8
695199
103076
155154
389294
504921
1.12235e+06
196595
219463
242830
111766
183836
235511
519054
214323
125584
107162
108036
113243
1.08756e+06
496978
483735
936907
911873
186318
168866
241583
216703
476233
438290
821096
952332
568168
629479
699884
781058
217768
356844
265055
310013
785590
706133
638421
576252
214099
256255
301988
345745
127269
161504
713022
1.01669e+06
186623
159876
193150
413869
471903
427980
384627
332320
172652
230947
1.41301e+06
87028.4
153041
579117
871690
747587
276508
345049
118715
39967.7
145400
780756
281855
1.23321e+06
127468
158051
728731
914612
94803.4
569632
631805
513208
1.17003e+06
379677
167385
208434
295932
148281
172744
383998
577326
255253
584675
482880
156386
399910
492499
443744
173408
243716
1.34568e+06
1.08432e+06
156117
126948
1.03101e+06
127919
187225
196153
249137
258826
527190
540050
173796
136144
370316
336941
304203
426682
96657.6
727960
988957
433791
99778.9
112204
958943
449581
430530
536115
517879