/*--------------------------------*- C++ -*----------------------------------*\
| =========                 |                                                 |
| \\      /  F ield         | OpenFOAM: The Open Source CFD Toolbox           |
|  \\    /   O peration     | Version:  2.3.1                                 |
|   \\  /    A nd           | Web:      www.OpenFOAM.org                      |
|    \\/     M anipulation  |                                                 |
\*---------------------------------------------------------------------------*/
FoamFile
{
    version     2.0;
    format      ascii;
    class       surfaceScalarField;
    location    "0.46";
    object      phi;
}
// * * * * * * * * * * * * * * * * * * * * * * * * * * * * * * * * * * * * * //

dimensions      [0 3 -1 0 0 0 0];

internalField   nonuniform List<scalar> 
15416
(
-0.000710953
-6.8304e-06
0.000714519
-0.0007064
-4.5509e-06
-0.00070352
-2.8774e-06
-0.000701783
-1.73535e-06
-0.000701279
-5.01394e-07
-0.000702246
9.69607e-07
-0.000705337
3.09325e-06
-0.000711026
5.69075e-06
-0.000719366
8.33966e-06
-0.000730733
1.13667e-05
-0.000745559
1.48261e-05
-0.000764074
1.85195e-05
-0.000786423
2.23579e-05
-0.000812697
2.62832e-05
-0.000842989
3.02952e-05
-0.000877214
3.42173e-05
-0.000915187
3.79545e-05
-0.000956711
4.15028e-05
-0.00100166
4.49235e-05
-0.00104971
4.80424e-05
-0.00110061
5.08869e-05
-0.00115409
5.34483e-05
-0.00120975
5.56529e-05
-0.00126725
5.74874e-05
-0.00132634
5.90924e-05
-0.00138679
6.04659e-05
-0.0014483
6.15209e-05
-0.00151055
6.22475e-05
-0.00157333
6.27647e-05
-0.00163645
6.31049e-05
-0.00169963
6.31571e-05
-0.00176265
6.29992e-05
-0.00182541
6.27269e-05
-0.00188767
6.22394e-05
-0.00194922
6.15453e-05
-0.00201002
6.08039e-05
-0.00206997
5.99501e-05
-0.00212888
5.89143e-05
-0.00218653
5.76518e-05
-0.0022429
5.63744e-05
-0.00229799
5.50763e-05
-0.0023516
5.36041e-05
-0.00240364
5.20159e-05
-0.00245413
5.0474e-05
-0.0025028
4.86574e-05
-0.00254964
4.68148e-05
-0.00259474
4.5083e-05
-0.00263811
4.33545e-05
-0.00267953
4.14122e-05
-0.00271902
3.94814e-05
-0.00275648
3.7453e-05
-0.00279209
3.56076e-05
-0.00282536
3.32699e-05
-0.00285675
3.13881e-05
-0.00288604
2.92989e-05
-0.00291361
2.75692e-05
-0.00293851
2.48941e-05
-0.00296114
2.26389e-05
-0.00298188
2.07403e-05
-0.00300089
1.90025e-05
1.73041e-05
-0.0030182
-0.00041156
-6.13167e-06
0.000410864
-0.000413143
-2.96591e-06
-0.00041686
8.41721e-07
-0.000423095
4.50162e-06
-0.000433768
1.01742e-05
-0.000448127
1.53327e-05
-0.000466469
2.14391e-05
-0.00048844
2.76658e-05
-0.000514872
3.47731e-05
-0.000545287
4.17839e-05
-0.000579874
4.94195e-05
-0.000618494
5.71497e-05
-0.000661049
6.49282e-05
-0.000707418
7.266e-05
-0.000757299
8.017e-05
-0.000810542
8.74535e-05
-0.000866887
9.4292e-05
-0.000926136
0.00010074
-0.00098795
0.000106739
-0.00105213
0.000112222
-0.00111846
0.0001172
-0.00118646
0.000121455
-0.00125592
0.000125118
-0.00132663
0.000128211
-0.00139829
0.000130767
-0.00147067
0.000132849
-0.00154347
0.000134292
-0.00161659
0.000135368
-0.00168976
0.000135904
-0.00176262
0.000135959
-0.00183521
0.000135716
-0.00190735
0.000135082
-0.00197863
0.000133978
-0.00204901
0.000132605
-0.0021185
0.000131045
-0.00218671
0.000129044
-0.00225367
0.000126951
-0.00231925
0.000124533
-0.00238344
0.000121878
-0.00244604
0.000118993
-0.00250674
0.000115792
-0.00256582
0.000112694
-0.00262309
0.000109288
-0.00267828
0.000105666
-0.00273156
0.000101941
-0.00278276
9.80055e-05
-0.00283193
9.42514e-05
-0.00287865
9.00717e-05
-0.00292332
8.60686e-05
-0.00296581
8.19694e-05
-0.00300618
7.78237e-05
-0.00304473
7.41547e-05
-0.00307983
6.8366e-05
-0.00311424
6.57954e-05
-0.00314484
5.9904e-05
-0.00317391
5.66322e-05
-0.00319863
4.96203e-05
-0.00322319
4.71953e-05
-0.00324547
4.30226e-05
-0.00326558
3.91201e-05
3.30912e-05
-0.00328137
-0.000268353
1.76487e-06
0.000260459
-0.000278814
7.49703e-06
-0.000292637
1.46659e-05
-0.000310943
2.28096e-05
-0.00033256
3.17946e-05
-0.000358638
4.14136e-05
-0.000388767
5.15724e-05
-0.000423252
6.21538e-05
-0.000462035
7.35574e-05
-0.000505237
8.499e-05
-0.000552593
9.67829e-05
-0.000603732
0.000108307
-0.000658784
0.000119996
-0.000717371
0.000131251
-0.000779281
0.000142069
-0.00084422
0.000152367
-0.000911965
0.000162021
-0.000982254
0.000171039
-0.00105479
0.000179297
-0.00112942
0.000186871
-0.00120564
0.00019343
-0.00128335
0.000199133
-0.00136221
0.000203965
-0.00144197
0.00020798
-0.0015224
0.000211218
-0.00160326
0.000213745
-0.0016844
0.000215443
-0.00176554
0.000216459
-0.00184635
0.000216682
-0.00192695
0.000216512
-0.00200687
0.000215609
-0.00208589
0.000214132
-0.00216419
0.000212336
-0.00224131
0.000209801
-0.00231714
0.000206951
-0.00239165
0.000203608
-0.00246468
0.000200001
-0.00253606
0.000195927
-0.00260576
0.00019159
-0.00267367
0.000186923
-0.00273985
0.000181975
-0.00280372
0.000176573
-0.00286566
0.000171238
-0.00292544
0.000165437
-0.00298303
0.000159529
-0.00303846
0.000153428
-0.00309147
0.000147262
-0.0031422
0.000140788
-0.00319037
0.000134237
-0.00323675
0.000128338
-0.00327944
0.000120504
-0.00331954
0.00011425
-0.00335801
0.000106837
-0.00339419
0.000101972
-0.00342823
9.39346e-05
-0.00345799
8.63916e-05
-0.0034876
7.92263e-05
-0.00351289
7.2491e-05
-0.00353596
6.60931e-05
-0.00355477
5.79351e-05
5.17992e-05
-0.00357348
-0.000198271
1.67113e-05
0.000183326
-0.000217149
2.63765e-05
-0.000239932
3.74508e-05
-0.000266731
4.96106e-05
-0.000297692
6.27583e-05
-0.000333003
7.67286e-05
-0.000372629
9.1201e-05
-0.000416978
0.000106504
-0.000465647
0.000122228
-0.000518756
0.000138106
-0.000575882
0.000153926
-0.000637221
0.000169665
-0.000702355
0.00018514
-0.000770868
0.000199742
-0.00084268
0.000213838
-0.000917417
0.000227085
-0.000994798
0.000239418
-0.00107455
0.000250838
-0.00115647
0.000261274
-0.00124014
0.000270541
-0.0013255
0.000278728
-0.00141197
0.000285561
-0.00149946
0.000291433
-0.00158768
0.000296252
-0.00167653
0.000300118
-0.0017656
0.000302824
-0.00185475
0.000304565
-0.00194375
0.000305416
-0.00203245
0.000305307
-0.00212036
0.000304396
-0.00220759
0.000302885
-0.00229401
0.000300641
-0.00237905
0.000297567
-0.00246296
0.000293867
-0.0025455
0.00028962
-0.00262651
0.000284694
-0.00270566
0.000279176
-0.00278313
0.000273383
-0.0028587
0.000267132
-0.0029324
0.000260598
-0.00300381
0.000253367
-0.0030733
0.000246055
-0.00314022
0.000238153
-0.00320493
0.000230141
-0.00326715
0.000221736
-0.00332687
0.000213137
-0.00338404
0.000204423
-0.00343896
0.000195698
-0.00349053
0.000185798
-0.00353957
0.000177365
-0.00358719
0.000168124
-0.00363073
0.000157782
-0.00367204
0.000148154
-0.00370925
0.000139173
-0.00374609
0.000130778
-0.0037788
0.000119104
-0.00380925
0.00010968
-0.00383747
0.000100708
-0.0038615
9.01219e-05
-0.00388329
7.97234e-05
6.94001e-05
-0.00390089
-0.000165343
3.86759e-05
0.000143381
-0.000190992
5.20269e-05
-0.000220874
6.73341e-05
-0.000255171
8.39109e-05
-0.000293978
0.000101568
-0.000337541
0.000120295
-0.000386082
0.000139743
-0.000439109
0.000159532
-0.000496901
0.000180023
-0.000559096
0.000200313
-0.000625749
0.000220598
-0.000696567
0.0002405
-0.000771037
0.000259591
-0.000849189
0.000277849
-0.000930781
0.000295395
-0.0010148
0.000311097
-0.00110154
0.00032623
-0.00119061
0.000340004
-0.00128169
0.000352365
-0.00137457
0.000363367
-0.00146881
0.000372879
-0.00156426
0.000380926
-0.00166051
0.000387722
-0.00175739
0.000393206
-0.00185462
0.000397387
-0.00195225
0.000400429
-0.00204969
0.000401932
-0.00214673
0.000402346
-0.00224319
0.000401753
-0.00233896
0.000400257
-0.00243381
0.000397857
-0.00252746
0.000394543
-0.00261993
0.000390218
-0.00271101
0.000385102
-0.00280034
0.000379006
-0.00288787
0.000372182
-0.00297378
0.000364996
-0.00305753
0.000357049
-0.00313919
0.000348721
-0.00321855
0.000339905
-0.00329587
0.000330644
-0.00337064
0.000320796
-0.00344301
0.000310508
-0.00351274
0.000299856
-0.00357982
0.000288798
-0.00364486
0.000278162
-0.00370514
0.000264698
-0.00376337
0.000253917
-0.00381994
0.000242354
-0.00387255
0.000229967
-0.00392286
0.000218434
-0.00397097
0.000205896
-0.00401512
0.0001923
-0.00405701
0.000181066
-0.00409291
0.00016669
-0.00412837
0.000154563
-0.0041616
0.000142908
-0.00419065
0.000129757
-0.00421555
0.000115022
-0.00424019
0.00010436
8.9871e-05
-0.00426066
-0.000150774
6.69401e-05
0.000122511
-0.000183304
8.45589e-05
-0.000220244
0.000104275
-0.000262262
0.000125932
-0.00030933
0.000148638
-0.000361323
0.000172291
-0.00041831
0.00019673
-0.000480501
0.000221722
-0.000547403
0.000246929
-0.000619275
0.000272201
-0.00069562
0.000296964
-0.000776009
0.000320886
-0.000860471
0.000344027
-0.000948212
0.000365525
-0.00103899
0.00038614
-0.0011328
0.000404982
-0.00122917
0.000422731
-0.00132801
0.000438926
-0.00142864
0.000452992
-0.00153091
0.000465451
-0.00163459
0.000476406
-0.00173904
0.000485411
-0.0018444
0.000493181
-0.00195035
0.000499349
-0.00205677
0.000503831
-0.00216314
0.000506657
-0.00226926
0.000507872
-0.00237464
0.000507826
-0.00247931
0.00050659
-0.00258314
0.000504456
-0.00268594
0.000501094
-0.00278749
0.000496166
-0.00288761
0.000490363
-0.00298616
0.000483351
-0.0030827
0.000475198
-0.00317733
0.000466507
-0.00326975
0.000457137
-0.00336
0.000447129
-0.00344812
0.000436776
-0.003534
0.000425739
-0.00361711
0.000413738
-0.00369773
0.000401385
-0.00377549
0.000388251
-0.00385001
0.000374364
-0.00392199
0.00036077
-0.00399132
0.000347487
-0.0040586
0.00033198
-0.00412186
0.000317173
-0.00418115
0.000301645
-0.00423818
0.000286993
-0.00429123
0.000271486
-0.00434021
0.000254875
-0.00438873
0.000240822
-0.00443146
0.000223797
-0.00447377
0.000209002
-0.00451197
0.000192762
-0.00454403
0.000174972
-0.0045738
0.000159534
-0.00460336
0.000144589
-0.00462689
0.000127886
0.000111197
-0.00464821
-0.000149282
0.00010137
0.000114854
-0.000188788
0.000124066
-0.000233447
0.000148937
-0.000283668
0.000176155
-0.000339077
0.00020405
-0.000400141
0.000233355
-0.00046654
0.000263126
-0.000538056
0.000293237
-0.000614962
0.000323845
-0.000696384
0.000353638
-0.000782748
0.000383342
-0.000873478
0.000411625
-0.000967894
0.000438372
-0.0010657
0.000463286
-0.00116713
0.000487613
-0.0012713
0.000509262
-0.00137768
0.000529289
-0.00148652
0.000547839
-0.0015972
0.000563444
-0.00170955
0.000577572
-0.00182299
0.000589782
-0.00193725
0.000599778
-0.00205235
0.000608679
-0.00216804
0.000615213
-0.00228397
0.000619671
-0.00239982
0.000622264
-0.00251466
0.000622792
-0.002629
0.000622327
-0.00274234
0.000620697
-0.00285459
0.000617396
-0.00296608
0.000612762
-0.00307603
0.000606095
-0.00318409
0.000597708
-0.00329032
0.00058888
-0.00339454
0.000578817
-0.00349628
0.000567678
-0.00359582
0.000556372
-0.00369284
0.000544246
-0.00378753
0.000531523
-0.00387967
0.000517966
-0.00396924
0.00050333
-0.0040552
0.000487353
-0.00413885
0.000471911
-0.00421934
0.000454866
-0.00429708
0.000438531
-0.00437083
0.000421252
-0.00444069
0.000401859
-0.00450815
0.000384636
-0.0045733
0.00036681
-0.00463272
0.000346414
-0.00468989
0.000328659
-0.0047448
0.000309776
-0.00479394
0.00028996
-0.00484099
0.00027084
-0.00488401
0.000252025
-0.00492282
0.000231568
-0.00496112
0.000213283
-0.00499334
0.000191755
-0.00502159
0.000172851
-0.00504588
0.000152184
0.000133275
-0.00506796
-0.000158315
0.000142118
0.000117567
-0.000205146
0.000170899
-0.000257761
0.000201552
-0.000317004
0.0002354
-0.00038185
0.000268896
-0.000452373
0.000303878
-0.000528743
0.000339493
-0.000610033
0.000374529
-0.000697335
0.000411152
-0.000789274
0.000445596
-0.000886799
0.000480894
-0.000988078
0.00051287
-0.00109409
0.000544355
-0.0012025
0.00057165
-0.00131433
0.000599471
-0.00142969
0.000624801
-0.00154711
0.000646827
-0.00166682
0.000667414
-0.00178875
0.000685134
-0.00191102
0.000699584
-0.00203521
0.000713971
-0.00215949
0.000724483
-0.00228541
0.000734956
-0.00241174
0.000741661
-0.00253777
0.000745491
-0.00266372
0.000748152
-0.00278789
0.000747196
-0.00291118
0.000746565
-0.00303399
0.000744294
-0.00315524
0.000738859
-0.0032761
0.000733132
-0.00339533
0.000723833
-0.00351144
0.000712465
-0.00362568
0.000702075
-0.00373803
0.000690657
-0.00384696
0.000676843
-0.00395356
0.000663971
-0.00405782
0.000649364
-0.00415902
0.000633161
-0.00425797
0.000617116
-0.00435435
0.000599822
-0.00444778
0.000580825
-0.00453551
0.000559709
-0.00462251
0.000541922
-0.00470451
0.000520571
-0.00478212
0.000498903
-0.00485941
0.000479176
-0.0049304
0.000455657
-0.00499784
0.000434256
-0.00506243
0.000411007
-0.00512192
0.000388146
-0.00517874
0.000366601
-0.00523161
0.000342819
-0.00528274
0.000321966
-0.00532828
0.000297564
-0.00537108
0.000274374
-0.00540791
0.000250113
-0.00544006
0.000223904
-0.00547051
0.000203307
-0.00549746
0.000179133
0.000155815
-0.00551999
-0.000175706
0.000129444
0.000188379
-0.000231071
0.000226259
-0.000290923
0.000261402
-0.000360651
0.000305124
-0.000434816
0.000343055
-0.000515821
0.000384877
-0.000602989
0.000426652
-0.000693527
0.000465062
-0.000793688
0.000511318
-0.000895059
0.000546988
-0.00100616
0.000591999
-0.00111747
0.000624153
-0.00123844
0.000665249
-0.00135555
0.00068869
-0.00148002
0.00072404
-0.00160809
0.00075304
-0.00173533
0.000774121
-0.00186852
0.000800485
-0.00200183
0.000817934
-0.00213426
0.000831792
-0.00227309
0.000852877
-0.00240608
0.000857868
-0.00254463
0.000873862
-0.00268267
0.000879577
-0.00281885
0.000881205
-0.0029574
0.000886462
-0.0030898
0.000880446
-0.00322335
0.000881849
-0.00335751
0.000879409
-0.00348728
0.000867671
-0.00361925
0.000862901
-0.00374755
0.000849729
-0.00387146
0.000835395
-0.00399376
0.000824486
-0.00411625
0.000814072
-0.00423087
0.000793031
-0.00434654
0.000782237
-0.00445843
0.000763129
-0.00456586
0.000741327
-0.00467373
0.000725251
-0.00477335
0.000699599
-0.0048735
0.000681119
-0.00496765
0.000653978
-0.00505853
0.000632881
-0.00514849
0.000610569
-0.00523097
0.00058141
-0.00531227
0.000560498
-0.00538651
0.0005299
-0.00545874
0.000506497
-0.00552478
0.000477045
-0.0055908
0.000454155
-0.00564978
0.000425585
-0.00570568
0.000398714
-0.00575767
0.000373961
-0.00580732
0.000347222
-0.00584912
0.000316183
-0.0058894
0.00029039
-0.00592317
0.00025768
-0.00595434
0.000234466
-0.00598205
0.000206845
-0.00600411
0.000177866
-0.00303193
1.37371e-05
-0.00304384
1.19065e-05
-0.00305407
1.02232e-05
-0.00306242
8.35244e-06
-0.00306852
6.10115e-06
-0.00307201
3.48873e-06
-0.00307376
1.7528e-06
-0.00307342
-3.35104e-07
-0.00307111
-2.31622e-06
-0.00306636
-4.74483e-06
-0.00305972
-6.6318e-06
-0.00305106
-8.6649e-06
-0.00304032
-1.07336e-05
-0.00302752
-1.27957e-05
-0.00301297
-1.45521e-05
-0.00299657
-1.6394e-05
-0.00297815
-1.8417e-05
-0.00295768
-2.04626e-05
-0.00293551
-2.21653e-05
-0.00291146
-2.40448e-05
-0.00288562
-2.58384e-05
-0.00285815
-2.74638e-05
-0.00282893
-2.92107e-05
-0.00279788
-3.10464e-05
-0.00276519
-3.26881e-05
-0.00273111
-3.40781e-05
-0.00269537
-3.57407e-05
-0.00265795
-3.74127e-05
-0.00261899
-3.89556e-05
-0.00257865
-4.03393e-05
-0.00253681
-4.18332e-05
-0.00249353
-4.32831e-05
-0.00244899
-4.45342e-05
-0.00240314
-4.58527e-05
-0.00235595
-4.71859e-05
-0.0023076
-4.83508e-05
-0.00225815
-4.94491e-05
-0.00220756
-5.05807e-05
-0.00215578
-5.17861e-05
-0.00210295
-5.28273e-05
-0.00204922
-5.37279e-05
-0.00199455
-5.46679e-05
-0.00193895
-5.55946e-05
-0.0018826
-5.63528e-05
-0.00182534
-5.72571e-05
-0.00176726
-5.80749e-05
-0.00170855
-5.87132e-05
-0.00164928
-5.92666e-05
-0.00158934
-5.9941e-05
-0.00152882
-6.0515e-05
-0.00146785
-6.09698e-05
-0.00140654
-6.13105e-05
-0.0013447
-6.18362e-05
-0.00128263
-6.20658e-05
-0.00122032
-6.23107e-05
-0.00115798
-6.23442e-05
-0.00109533
-6.26445e-05
-0.00103262
-6.27077e-05
-0.000970029
-6.25905e-05
-0.000907631
-6.2397e-05
-6.21647e-05
-0.000845465
-0.00329704
2.94059e-05
-0.00330808
2.29556e-05
-0.00331715
1.92892e-05
-0.003324
1.52056e-05
-0.00333073
1.28234e-05
-0.00333326
6.01753e-06
-0.00333425
2.74477e-06
-0.00333146
-3.13028e-06
-0.00332803
-5.74664e-06
-0.00332101
-1.17618e-05
-0.00331217
-1.5481e-05
-0.00330102
-1.98077e-05
-0.00328781
-2.39449e-05
-0.00327273
-2.78674e-05
-0.0032552
-3.20846e-05
-0.00323562
-3.59707e-05
-0.00321391
-4.01255e-05
-0.00319025
-4.41232e-05
-0.00316436
-4.80562e-05
-0.00313653
-5.1872e-05
-0.00310693
-5.54365e-05
-0.00307513
-5.92678e-05
-0.0030414
-6.29354e-05
-0.00300592
-6.6525e-05
-0.0029686
-7.00065e-05
-0.00292943
-7.32489e-05
-0.00288845
-7.67226e-05
-0.00284597
-7.98918e-05
-0.00280181
-8.3112e-05
-0.00275582
-8.63299e-05
-0.0027084
-8.92596e-05
-0.00265958
-9.21033e-05
-0.00260908
-9.50344e-05
-0.00255714
-9.77883e-05
-0.00250397
-0.000100354
-0.00244931
-0.000103017
-0.00239335
-0.000105408
-0.00233613
-0.0001078
-0.0022778
-0.000110114
-0.0022183
-0.000112333
-0.00215749
-0.000114535
-0.00209577
-0.00011639
-0.00203307
-0.000118286
-0.00196931
-0.000120121
-0.0019047
-0.00012186
-0.00183921
-0.000123563
-0.00177296
-0.000124966
-0.00170578
-0.00012645
-0.00163801
-0.000127707
-0.00156964
-0.000128883
-0.00150069
-0.000129917
-0.00143138
-0.000130619
-0.00136109
-0.000132128
-0.00129104
-0.000132114
-0.00122005
-0.000133301
-0.00114907
-0.000133322
-0.00107727
-0.000134442
-0.00100608
-0.000133891
-0.000934842
-0.000133832
-0.000863608
-0.00013363
-0.000133838
-0.000791934
-0.00358783
4.37607e-05
-0.00360235
3.74714e-05
-0.00361239
2.93339e-05
-0.00362017
2.29797e-05
-0.00362367
1.63202e-05
-0.00362725
9.59382e-06
-0.00362649
1.98663e-06
-0.00362366
-5.96489e-06
-0.00361856
-1.08457e-05
-0.00361175
-1.8576e-05
-0.00360247
-2.47616e-05
-0.00358945
-3.28304e-05
-0.00357473
-3.86639e-05
-0.00355738
-4.52177e-05
-0.00353771
-5.17472e-05
-0.00351564
-5.80429e-05
-0.00349139
-6.43689e-05
-0.00346494
-7.05757e-05
-0.00343622
-7.67721e-05
-0.00340554
-8.25539e-05
-0.00337235
-8.86223e-05
-0.00333726
-9.43661e-05
-0.00330012
-0.000100074
-0.00326097
-0.000105669
-0.00321977
-0.000111207
-0.00317656
-0.000116465
-0.00313151
-0.000121764
-0.00308457
-0.00012684
-0.00303566
-0.000132022
-0.00298531
-0.000136679
-0.00293307
-0.000141494
-0.00287904
-0.00014614
-0.0028237
-0.000150372
-0.00276666
-0.00015483
-0.00270806
-0.000158955
-0.00264804
-0.000163033
-0.00258656
-0.000166887
-0.00252366
-0.000170707
-0.00245946
-0.00017431
-0.00239402
-0.000177774
-0.0023275
-0.000181056
-0.00225957
-0.000184317
-0.0021907
-0.000187165
-0.00212073
-0.000190087
-0.0020498
-0.000192787
-0.00197799
-0.000195378
-0.00190524
-0.000197719
-0.00183167
-0.000200012
-0.00175728
-0.000202102
-0.00168252
-0.000203639
-0.00160647
-0.000205966
-0.00152983
-0.00020726
-0.00145305
-0.000208908
-0.0013759
-0.000209266
-0.00129846
-0.000210739
-0.0012201
-0.000211683
-0.00114233
-0.000212212
-0.00106385
-0.000212368
-0.000985397
-0.000212282
-0.000906523
-0.000212503
-0.000212062
-0.000828298
-0.00391822
6.10901e-05
-0.00393147
5.07249e-05
-0.00394245
4.03142e-05
-0.00394919
2.97099e-05
-0.00395373
2.087e-05
-0.00395591
1.17699e-05
-0.00395364
-2.84118e-07
-0.00395146
-8.13977e-06
-0.00394524
-1.70735e-05
-0.003937
-2.68126e-05
-0.00392451
-3.72557e-05
-0.00391082
-4.65242e-05
-0.00389461
-5.4867e-05
-0.00387499
-6.48423e-05
-0.00385317
-7.35677e-05
-0.0038288
-8.24084e-05
-0.00380193
-9.12371e-05
-0.00377253
-9.99764e-05
-0.0037409
-0.000108401
-0.00370659
-0.000116864
-0.00367033
-0.000124878
-0.00363155
-0.000133146
-0.00359068
-0.000140945
-0.00354758
-0.000148767
-0.00350245
-0.000156335
-0.00345494
-0.000163976
-0.0034054
-0.000171304
-0.00335392
-0.000178324
-0.00330062
-0.000185315
-0.00324508
-0.000192224
-0.00318784
-0.000198732
-0.00312895
-0.000205032
-0.00306802
-0.000211302
-0.00300557
-0.000217286
-0.00294151
-0.000223015
-0.00287588
-0.000228663
-0.0028085
-0.000234269
-0.00273973
-0.000239475
-0.00266953
-0.000244511
-0.00259807
-0.00024924
-0.00252511
-0.000254015
-0.00245116
-0.00025826
-0.00237582
-0.000262509
-0.00229946
-0.000266442
-0.00222198
-0.000270267
-0.00214345
-0.000273907
-0.00206396
-0.000277214
-0.00198374
-0.000280231
-0.00190234
-0.000283506
-0.00182021
-0.000285769
-0.00173802
-0.000288152
-0.00165451
-0.000290766
-0.00157064
-0.000292778
-0.0014857
-0.000294208
-0.00140124
-0.000295201
-0.00131596
-0.000296964
-0.00123057
-0.000297593
-0.00114523
-0.000297714
-0.00105936
-0.000298146
-0.000973682
-0.000298184
-0.000298036
-0.000887707
-0.00427693
7.73527e-05
-0.00428903
6.28237e-05
-0.00430089
5.21733e-05
-0.00430857
3.7392e-05
-0.00431207
2.43653e-05
-0.00431328
1.29831e-05
-0.00431457
1.01121e-06
-0.00430939
-1.33144e-05
-0.00430209
-2.43776e-05
-0.00429088
-3.8022e-05
-0.00427759
-5.05442e-05
-0.00426212
-6.19987e-05
-0.00424262
-7.43617e-05
-0.00422166
-8.58081e-05
-0.00419884
-9.63926e-05
-0.00417101
-0.000110245
-0.00414125
-0.000120999
-0.00410881
-0.000132411
-0.00407369
-0.000143526
-0.0040362
-0.000154345
-0.00399607
-0.000165012
-0.00395382
-0.00017539
-0.00390898
-0.000185789
-0.0038617
-0.000196048
-0.00381184
-0.000206192
-0.00376
-0.000215816
-0.00370587
-0.000225442
-0.00364941
-0.000234785
-0.00359086
-0.000243864
-0.00353037
-0.000252712
-0.00346774
-0.000261367
-0.00340308
-0.000269692
-0.00333667
-0.000277712
-0.00326849
-0.000285466
-0.00319842
-0.000293087
-0.00312653
-0.000300551
-0.00305325
-0.00030756
-0.00297811
-0.000314611
-0.00290142
-0.000321203
-0.00282313
-0.000327531
-0.00274367
-0.000333475
-0.00266277
-0.000339156
-0.00258074
-0.000344548
-0.00249743
-0.00034975
-0.00241298
-0.00035472
-0.00232778
-0.0003591
-0.00224037
-0.000364624
-0.00215249
-0.000368114
-0.00206438
-0.000371613
-0.00197486
-0.00037529
-0.00188485
-0.000378158
-0.00179449
-0.000381129
-0.00170302
-0.000384249
-0.00161124
-0.000385989
-0.00151781
-0.000388627
-0.00142499
-0.000389783
-0.00133213
-0.000390457
-0.00123877
-0.000391068
-0.001145
-0.000391924
-0.001052
-0.000391178
-0.000391325
-0.000958711
-0.00466537
9.45111e-05
-0.00468035
7.77981e-05
-0.00468917
6.09993e-05
-0.0046978
4.60125e-05
-0.00470423
3.07966e-05
-0.00470453
1.32844e-05
-0.00470079
-2.73373e-06
-0.00469675
-1.73511e-05
-0.00468676
-3.43704e-05
-0.00467658
-4.82027e-05
-0.00466236
-6.47582e-05
-0.00464414
-8.02153e-05
-0.00462381
-9.46914e-05
-0.00459955
-0.000110072
-0.00457127
-0.000124672
-0.00454108
-0.000140435
-0.0045083
-0.000153784
-0.00447303
-0.000167688
-0.00443441
-0.000182141
-0.00439304
-0.000195726
-0.00434917
-0.000208875
-0.00430239
-0.000222173
-0.00425309
-0.000235086
-0.00420129
-0.000247856
-0.00414701
-0.000260472
-0.00409001
-0.000272813
-0.0040308
-0.000284651
-0.0039691
-0.000296487
-0.00390509
-0.000307877
-0.00383901
-0.000318794
-0.00377057
-0.000329811
-0.00369997
-0.000340291
-0.00362745
-0.000350234
-0.00355308
-0.000359837
-0.00347657
-0.000369602
-0.00339837
-0.000378749
-0.00331812
-0.000387811
-0.00323613
-0.000396607
-0.00315256
-0.000404775
-0.00306745
-0.000412635
-0.00298059
-0.000420339
-0.00289248
-0.000427268
-0.00280298
-0.000434044
-0.00271194
-0.000440796
-0.00261997
-0.000446691
-0.00252684
-0.000452224
-0.00243321
-0.000458253
-0.00233788
-0.000463446
-0.00224127
-0.000468226
-0.00214415
-0.00047241
-0.0020458
-0.000476509
-0.0019464
-0.000480528
-0.00184736
-0.000483284
-0.00174672
-0.000486633
-0.00164641
-0.000488935
-0.00154546
-0.000490739
-0.00144319
-0.000492727
-0.00134127
-0.000492983
-0.00124002
-0.000493177
-0.00113812
-0.000493076
-0.000492965
-0.00103648
-0.0050859
0.000112465
-0.00510165
9.35498e-05
-0.00511332
7.26664e-05
-0.00512086
5.35506e-05
-0.00512236
3.22869e-05
-0.00512373
1.46545e-05
-0.00512097
-5.5015e-06
-0.0051141
-2.42277e-05
-0.00510515
-4.33269e-05
-0.00509041
-6.29424e-05
-0.00507363
-8.15318e-05
-0.00505465
-9.91953e-05
-0.00502978
-0.000119549
-0.0050029
-0.000136953
-0.00497403
-0.000153534
-0.00494119
-0.000173278
-0.00490431
-0.000190666
-0.00486459
-0.000207412
-0.00482169
-0.00022505
-0.0047769
-0.000240523
-0.00472841
-0.000257365
-0.0046774
-0.000273188
-0.00462349
-0.000289001
-0.00456665
-0.000304697
-0.00450701
-0.000320113
-0.00444471
-0.000335112
-0.00437969
-0.000349666
-0.0043124
-0.000363782
-0.00424273
-0.000377551
-0.00417047
-0.000391057
-0.00409574
-0.000404539
-0.00401887
-0.000417166
-0.0039396
-0.000429501
-0.00385851
-0.00044093
-0.0037754
-0.000452712
-0.00369014
-0.000464005
-0.00360287
-0.000475085
-0.00351352
-0.000485956
-0.00342235
-0.000495948
-0.00332938
-0.000505605
-0.00323487
-0.000514848
-0.00313838
-0.00052376
-0.00304108
-0.000531343
-0.00294247
-0.000539406
-0.00284285
-0.000546319
-0.00274121
-0.00055386
-0.0026382
-0.000561266
-0.00253453
-0.00056712
-0.0024306
-0.000572149
-0.00232444
-0.000578571
-0.00221783
-0.000583123
-0.00211103
-0.000587326
-0.00200236
-0.000591957
-0.00189358
-0.000595412
-0.00178367
-0.000598844
-0.00167329
-0.000601122
-0.00156339
-0.00060263
-0.0014528
-0.000603566
-0.00134179
-0.000604187
-0.00123091
-0.000603959
-0.000603621
-0.00112025
-0.00553861
0.000131082
-0.00555288
0.000107831
-0.00556337
8.31537e-05
-0.00557151
6.16944e-05
-0.00557587
3.66492e-05
-0.00557443
1.32004e-05
-0.00557097
-8.96402e-06
-0.00556114
-3.40606e-05
-0.0055493
-5.51801e-05
-0.00553406
-7.81887e-05
-0.00551671
-9.888e-05
-0.00549344
-0.000122469
-0.0054678
-0.000145182
-0.00543847
-0.000166287
-0.00540378
-0.000188212
-0.00536845
-0.000208607
-0.00532921
-0.000229905
-0.00528398
-0.000252644
-0.00523828
-0.000270753
-0.00518764
-0.000291168
-0.00513378
-0.000311228
-0.00507794
-0.000329033
-0.0050193
-0.000347643
-0.00495695
-0.000367055
-0.00489166
-0.000385403
-0.00482339
-0.000403379
-0.00475236
-0.000420695
-0.00467869
-0.000437452
-0.00460246
-0.000453783
-0.00452372
-0.000469797
-0.00444208
-0.000486181
-0.00435842
-0.000500828
-0.00427208
-0.00051584
-0.00418436
-0.000528658
-0.00409394
-0.000543135
-0.00400129
-0.000556653
-0.00390651
-0.000569859
-0.00380918
-0.000583291
-0.0037096
-0.000595528
-0.00360852
-0.000606685
-0.00350581
-0.000617557
-0.00340129
-0.000628288
-0.00329455
-0.000638075
-0.00318797
-0.000645988
-0.00307917
-0.000655118
-0.00296816
-0.000664874
-0.00285786
-0.000671562
-0.00274475
-0.000680238
-0.00263137
-0.000685522
-0.00251707
-0.000692879
-0.00240069
-0.0006995
-0.00228452
-0.000703498
-0.00216701
-0.000709461
-0.00204962
-0.000712806
-0.00192979
-0.000718675
-0.00181057
-0.000720337
-0.00168971
-0.000723489
-0.00156956
-0.000723717
-0.00144916
-0.000724586
-0.00132929
-0.000723836
-0.000724213
-0.0012087
-0.00602339
0.000150362
-0.00603744
0.000121881
-0.00604845
9.41625e-05
-0.00605268
6.59362e-05
-0.00605571
3.96822e-05
-0.00605495
1.24476e-05
-0.00604975
-1.41569e-05
-0.00603977
-4.40404e-05
-0.00602462
-7.03303e-05
-0.00600881
-9.40106e-05
-0.00598698
-0.000120716
-0.00596153
-0.000147924
-0.00593374
-0.000172985
-0.0058991
-0.000200939
-0.0058652
-0.000222119
-0.00582405
-0.000249757
-0.00577855
-0.000275409
-0.00573167
-0.000299511
-0.0056782
-0.000324216
-0.00562373
-0.000345627
-0.00556667
-0.000368294
-0.00550385
-0.00039185
-0.00544103
-0.000410472
-0.00537245
-0.000435639
-0.00530027
-0.000457582
-0.0052265
-0.000477155
-0.00514791
-0.000499279
-0.00506833
-0.000517038
-0.00498324
-0.000538869
-0.00489951
-0.000553527
-0.0048084
-0.000577297
-0.00471885
-0.000590377
-0.00462316
-0.00061153
-0.0045297
-0.000622119
-0.00443187
-0.000640971
-0.00433095
-0.000657568
-0.00422932
-0.000671492
-0.00412268
-0.000689938
-0.00401396
-0.00070424
-0.00390575
-0.000714899
-0.00379212
-0.000731185
-0.00367709
-0.000743325
-0.00356331
-0.000751849
-0.00344469
-0.000764611
-0.0033301
-0.00076971
-0.00320769
-0.000787281
-0.00308902
-0.000790233
-0.00296436
-0.000804902
-0.00284383
-0.00080605
-0.00271999
-0.000816716
-0.00259327
-0.000826225
-0.00246964
-0.000827127
-0.00234069
-0.000838417
-0.00221503
-0.00083846
-0.00208243
-0.000851283
-0.00195482
-0.000847946
-0.00182082
-0.000857489
-0.00169451
-0.000850024
-0.0015611
-0.000857995
-0.00143349
-0.000851454
-0.0012993
-0.000858404
-0.000783095
-6.23692e-05
-0.000721074
-6.20188e-05
-0.000659423
-6.16505e-05
-0.000598175
-6.12463e-05
-0.000537389
-6.07851e-05
-0.000477108
-6.02794e-05
-0.000417586
-5.95201e-05
-0.000358868
-5.8717e-05
-0.000301155
-5.77113e-05
-0.000244578
-5.65757e-05
-0.000189093
-5.54833e-05
-0.00013293
-5.61621e-05
-7.5009e-05
-5.79194e-05
-1.58877e-05
-5.91198e-05
4.22868e-05
-5.8173e-05
9.79257e-05
-5.56372e-05
0.00015124
-5.33127e-05
0.000202764
-5.15223e-05
0.000252706
-4.99403e-05
0.000301087
-4.83791e-05
0.000347926
-4.68375e-05
0.000393166
-4.52386e-05
0.000436744
-4.35761e-05
0.000478531
-4.17849e-05
0.000518465
-3.99323e-05
0.000556484
-3.8017e-05
0.00059247
-3.59837e-05
0.000626291
-3.38192e-05
0.000657833
-3.15403e-05
0.000687006
-2.91712e-05
0.000713614
-2.66052e-05
0.000737498
-2.38824e-05
0.000758539
-2.10386e-05
0.000776492
-1.79517e-05
0.000791144
-1.46499e-05
0.000802304
-1.11574e-05
0.000809725
-7.41928e-06
0.000813021
-3.2945e-06
0.000812921
1.0118e-07
0.000809263
3.65988e-06
0.000802248
7.01637e-06
0.000791167
1.10816e-05
0.000775513
1.56557e-05
0.000754866
2.06479e-05
0.000728596
2.62711e-05
0.00069608
3.25167e-05
0.000656702
3.93782e-05
0.000609726
4.6976e-05
0.000554294
5.54323e-05
0.000489633
6.46607e-05
0.000415008
7.46248e-05
0.00032984
8.51667e-05
0.000233652
9.61877e-05
0.000126009
0.000107642
1.98899e-07
0.000125808
-0.000140585
0.000140782
-0.000272236
0.00013165
-0.000382698
0.00011046
-0.000466946
8.42467e-05
-0.000529381
6.24334e-05
5.14946e-05
-0.000580878
-0.000720879
-0.000133423
-0.00064951
-0.000133387
-0.000578354
-0.000132805
-0.00050745
-0.000132149
-0.000437161
-0.000131072
-0.000366983
-0.000130457
-0.000297335
-0.000129166
-0.000228069
-0.000127981
-0.000159514
-0.000126265
-9.14953e-05
-0.000124593
-2.32047e-05
-0.000123773
4.5535e-05
-0.0001249
0.000113338
-0.000125721
0.000179839
-0.00012562
0.000245573
-0.000123906
0.000310673
-0.000120736
0.000374726
-0.000117364
0.000437479
-0.000114274
0.000498836
-0.000111297
0.000558817
-0.000108359
0.000617428
-0.000105447
0.00067453
-0.00010234
0.000730097
-9.91416e-05
0.000784122
-9.58086e-05
0.000836504
-9.23126e-05
0.000887182
-8.86939e-05
0.000936025
-8.48263e-05
0.000983054
-8.08466e-05
0.00102812
-7.66054e-05
0.00107105
-7.20994e-05
0.00111186