/*--------------------------------*- C++ -*----------------------------------*\
| =========                 |                                                 |
| \\      /  F ield         | OpenFOAM: The Open Source CFD Toolbox           |
|  \\    /   O peration     | Version:  2.3.1                                 |
|   \\  /    A nd           | Web:      www.OpenFOAM.org                      |
|    \\/     M anipulation  |                                                 |
\*---------------------------------------------------------------------------*/
FoamFile
{
    version     2.0;
    format      ascii;
    class       volVectorField;
    location    "0.46";
    object      U;
}
// * * * * * * * * * * * * * * * * * * * * * * * * * * * * * * * * * * * * * //

dimensions      [0 1 -1 0 0 0 0];

internalField   nonuniform List<vector> 
9648
(
(0.155134 -4.8416 -3.35988e-22)
(0.281356 -4.79981 3.41988e-25)
(0.406252 -4.76974 0)
(0.528671 -4.74079 0)
(0.651523 -4.71706 7.97861e-21)
(0.775225 -4.69919 1.23049e-20)
(0.902119 -4.69022 -2.44973e-20)
(1.03462 -4.69286 -1.16768e-20)
(1.17458 -4.7082 1.16499e-20)
(1.32203 -4.73821 3.63271e-20)
(1.47902 -4.78474 -3.61826e-20)
(1.64742 -4.849 -5.30039e-20)
(1.82925 -4.93174 2.82563e-19)
(2.02657 -5.03303 7.37243e-20)
(2.24112 -5.15217 -6.92756e-19)
(2.47414 -5.2879 0)
(2.72683 -5.43853 0)
(3.0001 -5.60203 1.27463e-19)
(3.29472 -5.7759 4.11419e-19)
(3.61085 -5.95745 -1.18556e-18)
(3.94852 -6.14409 -2.10304e-20)
(4.30756 -6.33269 3.27264e-19)
(4.68722 -6.52025 3.87787e-19)
(5.08676 -6.70387 -1.76528e-18)
(5.50529 -6.88086 0)
(5.94183 -7.04867 1.05963e-18)
(6.39505 -7.20482 -1.11219e-18)
(6.86358 -7.3472 0)
(7.34606 -7.4736 0)
(7.84084 -7.58231 -6.76742e-19)
(8.34645 -7.67168 -1.49871e-18)
(8.86109 -7.74024 2.35448e-18)
(9.38305 -7.78679 0)
(9.91058 -7.81003 0)
(10.4417 -7.80926 1.80573e-18)
(10.975 -7.78365 -1.94396e-18)
(11.5084 -7.73276 0)
(12.0404 -7.65635 4.17602e-18)
(12.5692 -7.554 1.12696e-18)
(13.0931 -7.4256 -3.3365e-18)
(13.6102 -7.27118 6.30435e-20)
(14.119 -7.09121 2.37533e-18)
(14.618 -6.88556 -3.15643e-18)
(15.1051 -6.65478 6.34975e-19)
(15.5794 -6.39962 0)
(16.0393 -6.12023 0)
(16.4834 -5.8173 4.7932e-18)
(16.9103 -5.49164 7.01575e-19)
(17.3193 -5.14416 -2.16849e-18)
(17.7099 -4.77488 -7.30026e-19)
(18.0799 -4.38441 -7.59521e-19)
(18.4275 -3.97513 7.5479e-19)
(18.7526 -3.54875 3.90013e-19)
(19.0541 -3.10604 -3.87894e-19)
(19.3311 -2.64871 1.98029e-18)
(19.583 -2.17785 -1.95005e-18)
(19.8089 -1.69489 -2.16723e-20)
(20.0085 -1.20107 0)
(20.1813 -0.697834 -3.96212e-19)
(20.3267 -0.186851 -5.12464e-20)
(20.4449 0.330672 -4.85928e-20)
(-0.0739348 -2.53642 3.21421e-22)
(0.00115455 -2.5434 0)
(0.0763629 -2.55835 0)
(0.151942 -2.58411 2.63743e-21)
(0.231153 -2.62926 -3.91302e-21)
(0.319192 -2.69676 -2.95177e-20)
(0.41774 -2.78517 0)
(0.528498 -2.89274 0)
(0.65369 -3.01985 -3.93857e-20)
(0.793806 -3.16719 0)
(0.950096 -3.33369 -9.82051e-20)
(1.12338 -3.51788 7.81842e-20)
(1.31458 -3.71853 -4.24698e-20)
(1.52463 -3.93402 0)
(1.75425 -4.16242 2.69899e-19)
(2.00375 -4.40157 1.60576e-19)
(2.27349 -4.64917 -1.58001e-19)
(2.56372 -4.90298 2.06615e-19)
(2.87472 -5.16056 -6.29933e-19)
(3.20627 -5.41951 5.03301e-19)
(3.55795 -5.67754 -5.58319e-19)
(3.92939 -5.932 -3.01233e-19)
(4.31971 -6.1804 -3.09071e-19)
(4.7282 -6.42029 1.06437e-18)
(5.15404 -6.64954 3.68772e-19)
(5.59637 -6.86604 4.39497e-19)
(6.05402 -7.06787 -3.89431e-19)
(6.52579 -7.25326 0)
(7.0104 -7.42034 0)
(7.50639 -7.56777 0)
(8.01237 -7.6941 0)
(8.52668 -7.79812 0)
(9.04782 -7.87876 0)
(9.5742 -7.93488 0)
(10.104 -7.96596 -8.10491e-19)
(10.6358 -7.97122 7.3599e-19)
(11.1679 -7.95041 8.12262e-19)
(11.6986 -7.90324 -4.1269e-18)
(12.2264 -7.82938 -8.76303e-19)
(12.7496 -7.72879 2.69528e-18)
(13.2665 -7.60156 1.89196e-18)
(13.7754 -7.44812 -1.95311e-18)
(14.275 -7.26834 9.32892e-19)
(14.7635 -7.0629 9.84616e-19)
(15.2394 -6.83244 -1.0471e-18)
(15.7015 -6.57721 1.03776e-18)
(16.1483 -6.29804 -2.22527e-18)
(16.5783 -5.99577 0)
(16.9902 -5.67136 -5.68659e-19)
(17.3835 -5.32494 1.14277e-18)
(17.7572 -4.95719 -5.74266e-19)
(18.1101 -4.56999 0)
(18.4411 -4.16473 1.1807e-18)
(18.7494 -3.7422 0)
(19.034 -3.30389 0)
(19.294 -2.85095 2.79936e-18)
(19.5288 -2.38469 -1.26173e-18)
(19.7377 -1.90674 -3.06987e-19)
(19.9205 -1.41797 3.24025e-19)
(20.0764 -0.92009 0)
(20.2051 -0.414358 8.14894e-20)
(0.0439149 -1.47981 -4.74465e-22)
(0.104336 -1.52703 0)
(0.170012 -1.58939 4.46108e-22)
(0.241271 -1.67239 -2.98181e-22)
(0.319332 -1.77471 0)
(0.40847 -1.89462 2.40651e-20)
(0.510087 -2.03444 1.74391e-20)
(0.625627 -2.19324 0)
(0.756551 -2.37074 2.21592e-21)
(0.904742 -2.56565 4.10872e-20)
(1.07122 -2.77697 8.38224e-20)
(1.25665 -3.00284 -2.91776e-20)
(1.46158 -3.24152 0)
(1.68633 -3.49099 0)
(1.9311 -3.74916 2.04767e-19)
(2.19585 -4.01382 -1.31235e-19)
(2.48064 -4.28266 -1.40904e-19)
(2.78543 -4.55348 0)
(3.11006 -4.82412 5.46418e-19)
(3.45413 -5.0925 -5.68085e-19)
(3.81692 -5.35656 -4.25684e-19)
(4.19778 -5.61403 -4.69452e-19)
(4.59589 -5.86265 0)
(5.01054 -6.10035 -8.43398e-19)
(5.44096 -6.32531 -2.96873e-19)
(5.88622 -6.5359 3.53745e-19)
(6.3452 -6.73053 3.91054e-19)
(6.81665 -6.90756 0)
(7.29937 -7.06547 0)
(7.79191 -7.2029 0)
(8.29286 -7.31871 0)
(8.80074 -7.41189 0)
(9.31403 -7.48146 0)
(9.83127 -7.52668 0)
(10.3508 -7.547 -1.77816e-18)
(10.8711 -7.54192 5.90744e-19)
(11.3906 -7.51117 -6.52063e-19)
(11.9079 -7.45449 3.2817e-18)
(12.4212 -7.37174 0)
(12.9292 -7.26298 1.39693e-18)
(13.4301 -7.12841 1.44509e-18)
(13.9224 -6.9683 7.15969e-19)
(14.4047 -6.7828 -8.20612e-19)
(14.8755 -6.57245 -1.58067e-18)
(15.3334 -6.33778 2.4634e-18)
(15.7771 -6.07933 -8.33315e-19)
(16.2053 -5.79786 -1.70025e-18)
(16.6168 -5.49419 0)
(17.0103 -5.16934 0)
(17.3847 -4.82428 -4.64335e-19)
(17.7391 -4.46012 -4.54017e-19)
(18.0727 -4.07777 -9.2865e-19)
(18.3846 -3.67831 -9.72138e-19)
(18.6739 -3.26316 0)
(18.9398 -2.83312 -9.61585e-19)
(19.1816 -2.38992 -1.00216e-18)
(19.3987 -1.93429 0)
(19.5905 -1.46843 1.62659e-20)
(19.7564 -0.992649 0)
(19.8961 -0.508704 0)
(20.0095 -0.0176106 -6.20902e-20)
(0.0178463 -0.968323 9.4164e-22)
(0.0786886 -1.05239 -1.52476e-21)
(0.151153 -1.15308 1.62983e-21)
(0.233748 -1.27094 -1.14975e-21)
(0.327567 -1.40579 0)
(0.432995 -1.55756 -9.93501e-21)
(0.551768 -1.72663 -1.50676e-20)
(0.685256 -1.91262 0)
(0.834851 -2.11482 3.09977e-21)
(1.00145 -2.3322 -3.51608e-20)
(1.18591 -2.56339 7.9654e-20)
(1.38855 -2.80676 9.76491e-20)
(1.60968 -3.06042 0)
(1.84943 -3.32241 -7.87569e-20)
(2.10796 -3.59069 -1.67488e-19)
(2.3851 -3.86313 -8.94335e-20)
(2.68087 -4.13752 3.46857e-19)
(2.9952 -4.41182 -2.51225e-19)
(3.32774 -4.68415 2.82545e-19)
(3.67797 -4.95266 4.82773e-19)
(4.04517 -5.21549 6.99709e-19)
(4.42851 -5.47052 3.95226e-19)
(4.82749 -5.71563 1.89967e-19)
(5.2415 -5.94907 6.92308e-19)
(5.6699 -6.1693 2.27457e-19)
(6.11167 -6.37502 2.59229e-19)
(6.56565 -6.56477 3.06602e-19)
(7.03076 -6.73695 -9.17715e-19)
(7.50575 -6.89009 6.59366e-19)
(7.98943 -7.02295 7.45909e-19)
(8.48061 -7.13445 -1.52522e-18)
(8.97771 -7.22382 7.78962e-19)
(9.47941 -7.29023 -8.3526e-19)
(9.98425 -7.33302 4.1645e-19)
(10.4908 -7.3518 4.56373e-19)
(10.9975 -7.346 5.06719e-19)
(11.503 -7.31529 -5.00245e-19)
(12.0059 -7.25946 -5.45207e-19)
(12.5048 -7.17836 -1.63474e-18)
(12.9982 -7.07214 -1.17969e-18)
(13.4845 -6.94105 -2.39207e-18)
(13.9623 -6.78528 -3.09943e-18)
(14.4301 -6.60513 1.27087e-18)
(14.8866 -6.40096 2.87781e-20)
(15.3304 -6.17334 -7.12015e-19)
(15.7603 -5.92279 -6.98493e-19)
(16.1751 -5.65 4.2231e-18)
(16.5736 -5.35575 -7.07849e-19)
(16.9547 -5.04084 0)
(17.3175 -4.70618 0)
(17.6609 -4.35282 -7.11173e-19)
(17.984 -3.98192 3.17735e-20)
(18.2861 -3.59448 7.63179e-19)
(18.5664 -3.19166 0)
(18.824 -2.77472 8.12839e-19)
(19.0582 -2.34499 0)
(19.2684 -1.90362 0)
(19.4542 -1.45157 6.19483e-19)
(19.615 -0.99039 1.97036e-19)
(19.7505 -0.521543 -2.00778e-19)
(19.8604 -0.0464956 1.02742e-19)
(0.109237 -0.710083 4.4788e-23)
(0.171031 -0.815688 1.3322e-21)
(0.24616 -0.936249 -2.99964e-21)
(0.334697 -1.07289 -4.27703e-22)
(0.436809 -1.22596 -7.9222e-22)
(0.553404 -1.39525 3.87218e-21)
(0.685291 -1.58053 2.28509e-21)
(0.833237 -1.78103 -1.06685e-20)
(0.998275 -1.99595 3.56472e-20)
(1.18057 -2.2241 -5.20062e-20)
(1.38066 -2.46405 5.9167e-20)
(1.59828 -2.71415 -7.5024e-20)
(1.83358 -2.97252 -4.37467e-20)
(2.08633 -3.23724 0)
(2.35678 -3.50624 8.23965e-20)
(2.64449 -3.77766 7.88191e-20)
(2.94944 -4.04938 0)
(3.27154 -4.31953 1.96704e-19)
(3.61015 -4.58653 0)
(3.96477 -4.84861 -2.62565e-19)
(4.33468 -5.10406 2.87087e-19)
(4.71909 -5.35088 1.001e-20)
(5.11783 -5.58707 -1.71259e-20)
(5.53022 -5.81127 2.91564e-20)
(5.95569 -6.02216 -8.10599e-19)
(6.39313 -6.21865 -4.6652e-19)
(6.8412 -6.39926 9.60663e-19)
(7.29895 -6.56229 1.04311e-18)
(7.76545 -6.70644 -5.65104e-19)
(8.23958 -6.83048 0)
(8.72034 -6.93363 0)
(9.20624 -7.01535 0)
(9.69573 -7.07489 7.17123e-19)
(10.1877 -7.11172 -2.96381e-18)
(10.6804 -7.12542 1.5508e-18)
(11.1727 -7.11534 -7.88604e-19)
(11.6635 -7.08102 -1.70153e-18)
(12.1512 -7.02237 1.72594e-18)
(12.6348 -6.93922 3.97882e-20)
(13.1128 -6.83185 -9.75139e-19)
(13.5836 -6.70059 1.0073e-18)
(14.0458 -6.54563 1.04186e-18)
(14.498 -6.36723 0)
(14.939 -6.16568 -1.05825e-18)
(15.3675 -5.94154 0)
(15.7822 -5.69535 -1.69117e-18)
(16.1821 -5.42777 5.22734e-19)
(16.566 -5.13952 0)
(16.9329 -4.8313 -6.13586e-19)
(17.2818 -4.50413 -1.4796e-20)
(17.612 -4.15883 1.30725e-18)
(17.9224 -3.79658 -6.21233e-19)
(18.2124 -3.41846 -3.45581e-19)
(18.4812 -3.02557 6.32692e-19)
(18.7281 -2.61926 -4.86978e-21)
(18.9522 -2.20053 3.2996e-19)
(19.1528 -1.77067 1.59398e-19)
(19.3295 -1.3306 3.36449e-19)
(19.4821 -0.881555 -8.45234e-19)
(19.6103 -0.425028 3.39495e-19)
(19.7136 0.0374289 -4.34414e-20)
(0.191671 -0.569485 -4.39053e-22)
(0.265563 -0.689944 0)
(0.353894 -0.82487 4.14562e-21)
(0.457015 -0.975196 0)
(0.574295 -1.14102 -4.93925e-22)
(0.706983 -1.32185 3.50972e-21)
(0.855496 -1.51727 5.83261e-21)
(1.02034 -1.72618 2.11245e-20)
(1.20244 -1.94766 3.71756e-21)
(1.40127 -2.18058 5.67634e-21)
(1.61742 -2.42336 1.05099e-21)
(1.84991 -2.67461 -2.82515e-20)
(2.09902 -2.93238 4.26982e-20)
(2.36379 -3.19474 -1.30314e-19)
(2.64529 -3.45963 1.12169e-19)
(2.94257 -3.72568 -8.49913e-21)
(3.25539 -3.9906 -1.40078e-19)
(3.58395 -4.25291 -1.69954e-19)
(3.92705 -4.51131 0)
(4.28435 -4.76389 2.03718e-19)
(4.6556 -5.00908 8.14491e-21)
(5.03966 -5.24506 -5.29711e-19)
(5.43698 -5.46994 -2.30849e-20)
(5.84663 -5.68302 -2.87537e-19)
(6.26781 -5.88305 1.01836e-18)
(6.69942 -6.06896 3.54039e-20)
(7.13988 -6.23914 -3.79309e-19)
(7.58896 -6.39146 -4.09225e-20)
(8.04542 -6.52511 0)
(8.50872 -6.63911 0)
(8.97793 -6.73298 0)
(9.45104 -6.8068 0)
(9.92697 -6.85947 0)
(10.4044 -6.89024 5.58262e-20)
(10.8822 -6.89877 -6.65111e-19)
(11.3587 -6.88422 -3.86767e-20)
(11.8333 -6.84596 2.93987e-20)
(12.3048 -6.78416 6.85721e-19)
(12.7719 -6.6987 1.56922e-18)
(13.2334 -6.59013 -2.36723e-18)
(13.6877 -6.45897 1.6481e-18)
(14.1333 -6.30518 -8.31985e-19)
(14.5687 -6.12906 0)
(14.9931 -5.9306 9.24552e-19)
(15.4053 -5.7105 0)
(15.8039 -5.46933 9.736e-19)
(16.1881 -5.20753 -9.96413e-19)
(16.5564 -4.92614 4.68017e-19)
(16.9082 -4.62545 5.00028e-19)
(17.2426 -4.3065 -5.21957e-19)
(17.5588 -3.97016 3.72789e-20)
(17.8558 -3.61764 -1.0723e-20)
(18.1332 -3.2497 1.06187e-18)
(18.3901 -2.86774 -1.09298e-18)
(18.6259 -2.47298 -5.39305e-19)
(18.8395 -2.06674 -2.64046e-19)
(19.0302 -1.64978 -8.40029e-19)
(19.1978 -1.22294 0)
(19.3421 -0.787345 5.67501e-19)
(19.463 -0.344816 -1.45696e-19)
(19.5599 0.103382 0)
(0.294716 -0.498069 0)
(0.382199 -0.62894 0)
(0.485246 -0.774496 -2.0464e-21)
(0.605193 -0.935204 2.61139e-21)
(0.739306 -1.11056 -9.91926e-22)
(0.889814 -1.29943 -5.91282e-21)
(1.05624 -1.50134 3.74165e-21)
(1.23839 -1.7148 -1.41744e-20)
(1.43841 -1.93905 -1.20382e-21)
(1.65356 -2.17297 4.1334e-20)
(1.88603 -2.415 -7.95278e-20)
(2.13282 -2.66408 0)
(2.39544 -2.91802 0)
(2.67102 -3.17507 1.48041e-19)
(2.9631 -3.43258 9.57074e-20)
(3.2691 -3.69059 -2.12012e-19)
(3.58857 -3.94632 3.44971e-19)
(3.92271 -4.19857 1.45765e-19)
(4.26884 -4.44675 -2.91909e-19)
(4.62749 -4.68793 -1.77578e-19)
(4.99954 -4.92073 2.04297e-19)
(5.38208 -5.14429 -5.57654e-21)
(5.77773 -5.35611 0)
(6.18362 -5.55727 5.29403e-19)
(6.59928 -5.74575 -8.74653e-19)
(7.02409 -5.92017 2.91435e-19)
(7.45538 -6.07888 6.44947e-19)
(7.8946 -6.21892 -1.79592e-18)
(8.34073 -6.34085 3.65922e-19)
(8.79205 -6.44401 0)
(9.249 -6.52837 0)
(9.70838 -6.59481 0)
(10.1687 -6.64086 5.05311e-19)
(10.6308 -6.66512 1.56272e-18)
(11.0926 -6.66771 -1.05564e-18)
(11.5519 -6.64833 5.82577e-19)
(12.0096 -6.60501 6.38668e-19)
(12.464 -6.53912 -1.26675e-18)
(12.9135 -6.45079 0)
(13.3579 -6.34051 -1.30199e-18)
(13.7946 -6.20941 6.76222e-19)
(14.2227 -6.05668 3.50615e-20)
(14.6402 -5.88304 -3.1587e-20)
(15.047 -5.68744 7.4529e-19)
(15.4418 -5.47128 3.15758e-20)
(15.8232 -5.23539 -2.38099e-18)
(16.1907 -4.97937 8.06791e-19)
(16.5424 -4.70506 -1.67631e-18)
(16.8782 -4.41184 0)
(17.1969 -4.10156 0)
(17.4983 -3.77415 1.77077e-18)
(17.781 -3.43184 -4.23013e-19)
(18.0446 -3.07452 -9.17625e-19)
(18.289 -2.70348 -4.41133e-19)
(18.513 -2.32081 1.4086e-18)
(18.7155 -1.92754 7.10543e-19)
(18.8957 -1.52394 2.45608e-19)
(19.0531 -1.11117 -4.60519e-21)
(19.1884 -0.689336 -2.45732e-19)
(19.3016 -0.260906 0)
(19.3916 0.172272 0)
(0.414 -0.470704 4.53478e-22)
(0.518705 -0.608932 0)
(0.637951 -0.761982 0)
(0.777614 -0.930511 -1.47886e-21)
(0.929137 -1.11281 0)
(1.09856 -1.30688 3.65415e-22)
(1.28323 -1.51234 3.76808e-21)
(1.48175 -1.72721 -7.94699e-21)
(1.70091 -1.95137 0)
(1.931 -2.18362 -2.48069e-20)
(2.18078 -2.42236 3.92851e-21)
(2.44027 -2.6673 0)
(2.71718 -2.91547 0)
(3.00055 -3.1656 -6.20999e-20)
(3.30351 -3.4126 6.80022e-20)
(3.61792 -3.66125 -8.62954e-20)
(3.94207 -3.90649 -1.0001e-19)
(4.28162 -4.1473 0)
(4.62929 -4.38491 1.30632e-19)
(4.98774 -4.61321 -2.75766e-19)
(5.36152 -4.83201 -3.09118e-19)
(5.74055 -5.04273 -3.63338e-19)
(6.13498 -5.24007 -3.33008e-20)
(6.53607 -5.42977 -4.66223e-19)
(6.94496 -5.60636 4.46209e-19)
(7.36292 -5.76817 4.98907e-19)
(7.78269 -5.91516 -5.67762e-19)
(8.2119 -6.04126 3.11235e-20)
(8.64728 -6.15087 4.24401e-20)
(9.08504 -6.24435 -6.58667e-19)
(9.52941 -6.31952 0)
(9.97343 -6.38003 -8.05242e-19)
(10.417 -6.41954 1.59526e-18)
(10.8627 -6.43507 -4.6584e-20)
(11.3084 -6.4308 9.33476e-19)
(11.7489 -6.40676 -9.26065e-19)
(12.19 -6.35619 1.02199e-18)
(12.6261 -6.28606 1.06815e-18)
(13.0567 -6.19535 -2.11111e-18)
(13.4831 -6.08311 1.1559e-18)
(13.9007 -5.95297 1.13738e-18)
(14.3107 -5.80109 1.79639e-18)
(14.7085 -5.63034 -6.39444e-19)
(15.0966 -5.43649 0)
(15.4734 -5.22439 3.42488e-20)
(15.8359 -4.99483 6.94796e-19)
(16.1863 -4.74423 -6.75492e-19)
(16.5198 -4.4784 7.27427e-19)
(16.8386 -4.19263 0)
(17.1401 -3.89209 0)
(17.4258 -3.57354 -3.98122e-20)
(17.6931 -3.24251 7.81542e-19)
(17.9418 -2.89516 0)
(18.1728 -2.53485 3.88186e-19)
(18.3847 -2.16544 3.91541e-19)
(18.5754 -1.78626 -7.97644e-19)
(18.7446 -1.39661 -3.91256e-19)
(18.8906 -0.999017 -2.07855e-19)
(19.0156 -0.590502 0)
(19.1208 -0.177243 0)
(19.2035 0.239462 2.48884e-20)
(0.549594 -0.471576 -1.26071e-21)
(0.678077 -0.613893 2.71646e-21)
(0.813316 -0.769858 2.922e-24)
(0.979172 -0.943942 -3.17202e-21)
(1.14464 -1.12963 4.86621e-21)
(1.33282 -1.32836 -2.53883e-21)
(1.53658 -1.53306 0)
(1.74772 -1.74515 1.4518e-21)
(1.99115 -1.96757 -1.06006e-20)
(2.23032 -2.19453 0)
(2.50313 -2.42872 5.17017e-20)
(2.76807 -2.6689 -3.31616e-20)
(3.06271 -2.91139 3.39733e-20)
(3.34635 -3.15481 4.41008e-20)
(3.66281 -3.38558 -5.88097e-20)
(3.98524 -3.62589 -7.27806e-20)
(4.3098 -3.86064 2.4181e-19)
(4.65896 -4.08673 -2.52899e-19)
(5.00115 -4.3165 0)
(5.35475 -4.5332 -8.64572e-21)
(5.73719 -4.73648 7.59259e-19)
(6.10507 -4.93689 -2.93201e-20)
(6.50596 -5.11481 -3.64155e-19)
(6.89554 -5.29647 6.97199e-19)
(7.29512 -5.46336 0)
(7.7095 -5.61206 -4.30922e-19)
(8.11225 -5.74837 -4.42071e-19)
(8.5336 -5.85859 9.81456e-19)
(8.95903 -5.95803 -9.02473e-21)
(9.37771 -6.04547 5.86204e-19)
(9.81141 -6.11041 -1.20252e-18)
(10.2355 -6.16784 1.90489e-18)
(10.6603 -6.20022 -1.36461e-18)
(11.0907 -6.20496 -1.42308e-18)
(11.524 -6.19093 0)
(11.9422 -6.16138 8.11443e-19)
(12.3733 -6.10075 0)
(12.7877 -6.03077 -1.86815e-21)
(13.1962 -5.94113 9.66224e-19)
(13.6066 -5.82466 -1.79844e-18)
(14.0023 -5.69518 -6.4844e-21)
(14.3948 -5.54446 -1.987e-18)
(14.7668 -5.37928 0)
(15.1353 -5.18836 -5.69006e-19)
(15.4949 -4.98174 2.18339e-18)
(15.8338 -4.7597 -5.55208e-19)
(16.1708 -4.51394 5.88237e-19)
(16.4821 -4.25776 0)
(16.7859 -3.97844 6.0554e-19)
(17.0676 -3.68675 -1.82731e-18)
(17.3387 -3.37337 -2.55249e-20)
(17.589 -3.05377 0)
(17.8197 -2.7192 6.2808e-19)
(18.0378 -2.37006 -1.88691e-20)
(18.2388 -2.01156 0)
(18.4148 -1.64505 3.53998e-19)
(18.5748 -1.27701 -3.21401e-19)
(18.7066 -0.896711 3.37006e-19)
(18.8197 -0.502671 3.34285e-19)
(18.9198 -0.100988 -1.6785e-19)
(18.9919 0.299869 -6.35171e-20)
(20.535 0.85382 1.51176e-19)
(20.5965 1.38088 -5.12549e-20)
(20.63 1.91136 0)
(20.6353 2.44278 0)
(20.6129 2.97339 8.14778e-19)
(20.563 3.50207 1.17248e-18)
(20.4857 4.02704 -1.20741e-18)
(20.3811 4.54686 -3.97968e-19)
(20.2494 5.06003 3.97904e-19)
(20.0912 5.56548 7.78898e-19)
(19.9066 6.06261 -7.79346e-19)
(19.696 6.54958 -7.57899e-19)
(19.4606 7.02531 3.76961e-18)
(19.2018 7.48865 7.33284e-19)
(18.92 7.93813 -6.4711e-18)
(18.6157 8.37222 0)
(18.29 8.79002 0)
(17.9439 9.19056 6.73347e-19)
(17.5783 9.57331 1.98902e-18)
(17.1939 9.93691 -5.11337e-18)
(16.7924 10.2807 -7.48313e-20)
(16.3744 10.6042 1.17223e-18)
(15.941 10.9063 1.20615e-18)
(15.4934 11.1864 -4.50152e-18)
(15.033 11.4445 0)
(14.5609 11.6805 2.11494e-18)
(14.0772 11.8939 -1.96013e-18)
(13.5839 12.083 0)
(13.0826 12.2473 0)
(12.575 12.3866 -8.98544e-19)
(12.0623 12.501 -1.64336e-18)
(11.5457 12.5901 2.34276e-18)
(11.0269 12.654 0)
(10.5068 12.6928 0)
(9.9869 12.7064 1.18357e-18)
(9.46838 12.6951 -1.12559e-18)
(8.95258 12.6589 0)
(8.44078 12.5983 1.77633e-18)
(7.93401 12.5136 3.70585e-19)
(7.43353 12.4051 -1.02568e-18)
(6.94057 12.2733 3.56208e-20)
(6.45652 12.1188 4.33742e-19)
(5.98218 11.9423 -4.3044e-19)
(5.51874 11.7441 7.54785e-20)
(5.06738 11.5253 0)
(4.62883 11.2864 0)
(4.20414 11.0282 -1.64918e-19)
(3.79422 10.7514 -3.60649e-20)
(3.4001 10.4572 2.17973e-19)
(3.02246 10.1466 9.09244e-20)
(2.66192 9.8205 1.42821e-19)
(2.31933 9.47967 -1.44683e-19)
(1.99543 9.12543 -9.71381e-20)
(1.69053 8.75898 9.84632e-20)
(1.40535 8.38121 -5.88693e-19)
(1.14029 7.99358 6.42602e-19)
(0.895777 7.59721 -1.33512e-21)
(0.67212 7.19361 0)
(0.469492 6.78382 1.63859e-19)
(0.288248 6.36894 2.22658e-20)
(0.128473 5.95021 2.35723e-20)
(20.3061 0.0976166 -8.1575e-20)
(20.3785 0.613781 0)
(20.4231 1.13155 0)
(20.4406 1.65069 9.3692e-19)
(20.4305 2.16985 -6.26504e-19)
(20.3933 2.6878 -2.20794e-18)
(20.3291 3.20283 0)
(20.2379 3.71385 0)
(20.1201 4.21931 -1.20261e-18)
(19.9757 4.71765 0)
(19.805 5.20821 -1.76243e-18)
(19.6086 5.68871 1.16938e-18)
(19.388 6.15736 -5.80522e-19)
(19.1443 6.61381 0)
(18.8776 7.05768 2.29648e-18)
(18.5883 7.48765 1.07577e-18)
(18.2771 7.90253 -1.0779e-18)
(17.9453 8.30113 1.02553e-18)
(17.5935 8.68282 -3.03057e-18)
(17.2228 9.04639 2.04102e-18)
(16.8345 9.39071 -1.9824e-18)
(16.4294 9.71533 -1.01073e-18)
(16.0087 10.019 -9.14298e-19)
(15.5736 10.3011 2.65317e-18)
(15.1253 10.5608 8.5043e-19)
(14.6645 10.7979 7.78358e-19)
(14.1924 11.0127 -7.03319e-19)
(13.711 11.2041 0)
(13.2212 11.3716 0)
(12.7245 11.5144 0)
(12.2221 11.6327 0)
(11.7154 11.7261 0)
(11.2058 11.7945 0)
(10.6944 11.8379 0)
(10.1828 11.8564 -4.91606e-19)
(9.67208 11.8499 4.36448e-19)
(9.16361 11.8185 3.49905e-19)
(8.65861 11.7626 -1.69881e-18)
(8.1582 11.6825 -2.65506e-19)
(7.66371 11.5786 7.92248e-19)
(7.17637 11.4511 4.36667e-19)
(6.69755 11.3006 -3.48901e-19)
(6.2281 11.1278 1.29852e-19)
(5.76939 10.9331 9.55881e-20)
(5.32251 10.7172 -9.06155e-21)
(4.88827 10.4808 9.16302e-21)
(4.46774 10.2245 8.98808e-20)
(4.06189 9.94927 0)
(3.67178 9.65598 7.98256e-20)
(3.29819 9.34563 -1.81294e-19)
(2.94179 9.01908 1.01759e-19)
(2.60349 8.67722 0)
(2.28413 8.32119 -3.04012e-19)
(1.98399 7.95214 0)
(1.70396 7.57101 0)
(1.4443 7.17921 -9.46215e-19)
(1.20566 6.77795 4.56601e-19)
(0.988236 6.36863 1.26277e-19)
(0.792603 5.95225 -1.32127e-19)
(0.61907 5.53009 0)
(0.467877 5.10338 -3.72896e-20)
(20.0965 0.478602 6.21386e-20)
(20.1572 0.978742 0)
(20.1913 1.47933 -2.47957e-19)
(20.1978 1.9803 -1.63394e-20)
(20.1775 2.48029 0)
(20.1312 2.97862 1.98989e-18)
(20.0587 3.47442 9.71565e-19)
(19.9599 3.96743 0)
(19.835 4.4554 3.2088e-20)
(19.6842 4.93617 9.4079e-19)
(19.5085 5.40803 1.42924e-18)
(19.309 5.86961 -4.69834e-19)
(19.0862 6.31927 0)
(18.8405 6.75612 0)
(18.5722 7.17973 1.73096e-18)
(18.2824 7.58922 -8.54137e-19)
(17.9719 7.98358 -8.00486e-19)
(17.6416 8.36186 0)
(17.2924 8.72327 2.41793e-18)
(16.9254 9.06683 -2.32025e-18)
(16.5417 9.39163 -1.48205e-18)
(16.1423 9.69696 -1.43422e-18)
(15.7282 9.98191 0)
(15.3007 10.2458 -2.04944e-18)
(14.8607 10.4879 -6.68736e-19)
(14.4095 10.7077 6.11058e-19)
(13.9484 10.9046 6.0146e-19)
(13.4786 11.0785 0)
(13.0012 11.2291 0)
(12.5175 11.3559 0)
(12.0288 11.4588 0)
(11.5363 11.5378 0)
(11.0412 11.5927 0)
(10.545 11.6234 0)
(10.0489 11.6301 -1.0519e-18)
(9.55415 11.6127 3.36821e-19)
(9.0619 11.5714 -2.6873e-19)
(8.57336 11.5064 1.28033e-18)
(8.08965 11.4181 0)
(7.612 11.3068 3.60234e-19)
(7.14159 11.173 2.94085e-19)
(6.67966 11.0172 1.26015e-19)
(6.22721 10.8399 -7.56371e-20)
(5.78542 10.6416 -9.56313e-20)
(5.35531 10.423 3.17155e-20)
(4.93777 10.1846 -1.95285e-21)
(4.53369 9.92732 1.00925e-19)
(4.14402 9.65185 0)
(3.76969 9.35915 0)
(3.41154 9.05007 8.00104e-20)
(3.07031 8.72552 9.67084e-20)
(2.74667 8.38643 2.08462e-19)
(2.4414 8.03374 2.38933e-19)
(2.15491 7.66859 0)
(1.88793 7.29185 2.97573e-19)
(1.6407 6.90498 3.28458e-19)
(1.41373 6.50902 0)
(1.2074 6.10546 -1.84887e-21)
(1.02223 5.6952 0)
(0.858476 5.27954 0)
(0.716392 4.85958 2.8552e-20)
(19.9445 0.433694 -1.02801e-19)
(20.0029 0.917451 2.01099e-19)
(20.0354 1.40426 -3.96565e-19)
(20.0416 1.89212 -2.13276e-19)
(20.0217 2.37948 0)
(19.9752 2.86517 -8.26095e-19)
(19.902 3.34853 -8.20227e-19)
(19.8033 3.82793 0)
(19.6802 4.30304 3.40167e-20)
(19.5329 4.77195 -7.92863e-19)
(19.3617 5.23244 1.49713e-18)
(19.1667 5.68349 1.47385e-18)
(18.9485 6.12397 0)
(18.7077 6.55274 -7.18319e-19)
(18.4451 6.96851 -1.42666e-18)
(18.1615 7.37009 -7.03523e-19)
(17.8576 7.75662 2.06081e-18)
(17.5345 8.1272 -1.3241e-18)
(17.1929 8.4811 1.28839e-18)
(16.834 8.81746 1.87047e-18)
(16.4589 9.13547 2.42861e-18)
(16.0685 9.43433 1.20059e-18)
(15.6639 9.7132 5.52723e-19)
(15.2462 9.97139 1.67063e-18)
(14.8163 10.2084 5.1146e-19)
(14.3754 10.4237 5.11975e-19)
(13.9248 10.6168 4.63991e-19)
(13.4656 10.7874 -1.35119e-18)
(12.9991 10.9351 8.37924e-19)
(12.5265 11.0596 7.82056e-19)
(12.049 11.1607 -1.51762e-18)
(11.5677 11.2384 7.355e-19)
(11.0841 11.2925 -6.40263e-19)
(10.5993 11.3232 3.00606e-19)
(10.1147 11.3303 2.90373e-19)
(9.63139 11.3139 2.35986e-19)
(9.15064 11.2741 -2.37512e-19)
(8.67348 11.2111 -2.23809e-19)
(8.20105 11.1254 -5.12145e-19)
(7.73457 11.0173 -2.97122e-19)
(7.27519 10.8872 -4.64582e-19)
(6.82402 10.7357 -4.32365e-19)
(6.38225 10.5632 1.2485e-19)
(5.9509 10.3703 7.16648e-21)
(5.531 10.1576 -2.03659e-21)
(5.12346 9.92549 3.03933e-20)
(4.72899 9.67492 -2.61798e-19)
(4.3486 9.40662 5.68771e-20)
(3.98312 9.12157 0)
(3.63348 8.8205 0)
(3.30029 8.50427 1.47754e-19)
(2.98436 8.17395 7.27861e-22)
(2.68632 7.83035 -1.93991e-19)
(2.40662 7.4745 0)
(2.14589 7.10724 -2.41238e-19)
(1.90431 6.73 0)
(1.68244 6.34393 0)
(1.48051 5.95029 -2.32178e-19)
(1.29933 5.55021 -8.26799e-20)
(1.13887 5.14485 8.59235e-20)
(0.999705 4.73538 -4.56003e-20)
(19.7918 0.504672 1.86024e-21)
(19.8448 0.975461 -1.73793e-19)
(19.8725 1.44888 5.0935e-19)
(19.8748 1.92337 3.37946e-19)
(19.8517 2.39774 -4.97816e-19)
(19.8032 2.87073 3.33511e-19)
(19.7301 3.34042 -2.36687e-21)
(19.6323 3.80456 -6.45727e-19)
(19.5098 4.2631 9.83603e-19)
(19.3639 4.71517 -1.28121e-18)
(19.1949 5.15973 1.20583e-18)
(19.003 5.5953 -1.28184e-18)
(18.7887 6.02079 -6.15874e-19)
(18.5527 6.43515 0)
(18.2957 6.83704 6.34096e-19)
(18.0185 7.22524 5.41321e-19)
(17.7216 7.59901 0)
(17.406 7.95738 1.06611e-18)
(17.0725 8.29966 0)
(16.7223 8.62508 -1.05454e-18)
(16.3564 8.93276 9.31452e-19)
(15.9758 9.22194 -4.02868e-20)
(15.5816 9.4917 -4.51939e-20)
(15.1748 9.74132 1.74305e-21)
(14.7562 9.97038 -1.75306e-18)
(14.3269 10.1784 -7.97389e-19)
(13.8882 10.365 1.5582e-18)
(13.4412 10.5298 1.44096e-18)
(12.9872 10.6724 -7.18538e-19)
(12.5273 10.7926 0)
(12.0627 10.89 0)
(11.5943 10.9648 0)
(11.1236 11.0168 5.47901e-19)
(10.6519 11.0462 -1.9194e-18)
(10.1805 11.0527 8.90965e-19)
(9.71037 11.0363 -4.24817e-19)
(9.24271 10.9971 -6.80174e-19)
(8.77855 10.9355 6.38702e-19)
(8.31889 10.8518 2.12938e-20)
(7.865 10.7465 -2.01623e-19)
(7.41799 10.6198 2.21162e-19)
(6.97893 10.4725 1.44102e-19)
(6.54905 10.3049 0)
(6.12935 10.1176 -4.08583e-20)
(5.72082 9.91104 0)
(5.32442 9.68566 7.51528e-20)
(4.94061 9.44237 -3.95023e-20)
(4.5704 9.1819 0)
(4.21447 8.90522 9.33346e-20)
(3.87411 8.61301 1.94908e-20)
(3.54959 8.30602 -2.45262e-19)
(3.24176 7.98535 1.44271e-19)
(2.95141 7.65179 9.51265e-20)
(2.67872 7.30631 -1.74215e-19)
(2.42459 6.94966 8.08426e-21)
(2.18859 6.58315 -1.05797e-19)
(1.97178 6.20801 -5.70412e-20)
(1.77405 5.82553 -1.26894e-19)
(1.59654 5.43679 3.3652e-19)
(1.43888 5.04293 -1.43166e-19)
(1.30215 4.64505 1.89604e-20)
(19.6325 0.556051 3.65318e-20)
(19.6808 1.01203 0)
(19.7045 1.4702 -5.6955e-19)
(19.7037 1.92938 0)
(19.6785 2.38825 2.83387e-19)
(19.6289 2.84543 8.29121e-19)
(19.5553 3.29954 5.43902e-19)
(19.4576 3.7499 1.10294e-18)
(19.3364 4.19474 9.64709e-21)
(19.1925 4.63311 -6.67082e-21)
(19.0262 5.06361 -5.94135e-20)
(18.8378 5.48525 -5.2439e-19)
(18.6278 5.897 5.06385e-19)
(18.3969 6.2979 -1.48448e-18)
(18.1459 6.68675 1.00714e-18)
(17.8754 7.06228 -4.82237e-20)
(17.5859 7.42371 -9.13316e-19)
(17.2782 7.77015 -9.35551e-19)
(16.9531 8.10108 0)
(16.6118 8.4159 8.37672e-19)
(16.2554 8.71361 -3.7424e-20)
(15.8851 8.99346 -1.64778e-18)
(15.5018 9.25449 -5.7769e-21)
(15.1064 9.49581 -6.83948e-19)
(14.6995 9.71723 2.08146e-18)
(14.2824 9.91828 -3.43692e-20)
(13.856 10.0986 -6.64537e-19)
(13.4217 10.258 -6.99074e-20)
(12.9808 10.396 0)
(12.5342 10.5123 0)
(12.083 10.6064 0)
(11.6281 10.6787 0)
(11.171 10.7291 0)
(10.7128 10.7578 5.34611e-20)
(10.2552 10.7642 -3.45331e-19)
(9.79884 10.7484 3.88485e-20)
(9.34488 10.7105 5.26883e-20)
(8.89428 10.6507 2.22064e-19)
(8.44781 10.5696 4.22121e-19)
(8.0069 10.4675 -5.26103e-19)
(7.57269 10.3448 3.0939e-19)
(7.14603 10.2023 -9.60454e-20)
(6.72837 10.0402 0)
(6.32069 9.85918 3.56115e-20)
(5.92388 9.65973 0)
(5.53914 9.44177 -3.89928e-20)
(5.16617 9.20654 7.57341e-20)
(4.8066 8.95467 -5.27911e-20)
(4.46045 8.68734 -6.68228e-20)
(4.12969 8.40491 1.00615e-19)
(3.81411 8.10803 1.89812e-20)
(3.51458 7.79801 1.52687e-20)
(3.23214 7.47536 -2.77641e-19)
(2.96663 7.14118 3.16744e-19)
(2.71928 6.79586 1.73527e-19)
(2.48894 6.441 9.07537e-20)
(2.27737 6.07761 3.02157e-19)
(2.0835 5.70719 0)
(1.90961 5.33067 -2.31327e-19)
(1.75454 4.94925 6.14648e-20)
(1.62014 4.5638 0)
(19.4582 0.609769 0)
(19.5013 1.05028 0)
(19.5208 1.49292 2.46947e-19)
(19.5167 1.93625 -4.73092e-19)
(19.4891 2.37931 -2.44152e-19)
(19.4383 2.82081 -1.18535e-18)
(19.3644 3.25907 4.57695e-19)
(19.2672 3.6931 -9.46289e-19)
(19.1472 4.12249 1.52772e-20)
(19.0055 4.54596 1.34129e-18)
(18.8425 4.96155 -1.79041e-18)
(18.6581 5.36839 0)
(18.4528 5.7654 0)
(18.2273 6.15233 1.69536e-18)
(17.9827 6.52773 8.19422e-19)
(17.7196 6.88965 -1.66285e-18)
(17.4379 7.23796 2.38089e-18)
(17.1385 7.57174 7.57379e-19)
(16.8222 7.89065 -1.48453e-18)
(16.4901 8.19442 -7.45021e-19)
(16.1439 8.48156 6.87454e-19)
(15.7843 8.75171 -7.01674e-20)
(15.4126 9.00373 0)
(15.0294 9.2361 1.28743e-18)
(14.6348 9.44939 -1.81642e-18)
(14.2303 9.6431 5.85143e-19)
(13.817 9.81673 1.05325e-18)
(13.3959 9.97061 -2.55731e-18)
(12.9688 10.1036 5.00412e-19)
(12.5363 10.216 0)
(12.0997 10.3064 0)
(11.6588 10.3764 0)
(11.2162 10.4249 3.47373e-19)
(10.7722 10.4534 9.83132e-19)
(10.3296 10.46 -5.79902e-19)
(9.88782 10.445 2.5308e-19)
(9.44849 10.4087 2.42508e-19)
(9.01258 10.3507 -4.31683e-19)
(8.58001 10.2722 0)
(8.15275 10.1737 -2.42841e-19)
(7.73217 10.0552 1.2633e-19)
(7.31831 9.91755 1.40317e-20)
(6.91328 9.76135 9.68536e-21)
(6.51823 9.58702 3.06414e-20)
(6.13351 9.39541 -1.04936e-20)
(5.76155 9.18518 1.47107e-19)
(5.3998 8.95874 -6.33035e-20)
(5.05171 8.7159 2.17732e-19)
(4.7154 8.45882 0)
(4.39524 8.18709 0)
(4.08911 7.901 -3.94179e-19)
(3.79805 7.60251 1.07278e-19)
(3.52446 7.29167 2.46394e-19)
(3.26623 6.9697 1.45757e-19)
(3.02681 6.63631 -4.5946e-19)
(2.802 6.29374 -2.57323e-19)
(2.59626 5.94265 -9.4754e-20)
(2.40586 5.58522 -2.07954e-21)
(2.23632 5.2218 1.01544e-19)
(2.08341 4.85362 0)
(1.95184 4.48135 0)
(19.2637 0.660778 -2.4917e-20)
(19.3009 1.08474 0)
(19.3157 1.51099 0)
(19.3078 1.93779 2.09601e-19)
(19.2776 2.36408 0)
(19.2257 2.78888 8.07477e-19)
(19.1522 3.2105 3.98353e-19)
(19.0556 3.62732 -7.82307e-19)
(18.9364 4.04117 0)
(18.7972 4.44995 -7.94185e-19)
(18.6387 4.84905 4.35753e-20)
(18.4588 5.24029 0)
(18.259 5.62141 0)
(18.039 5.99353 -7.40547e-19)
(17.8011 6.35563 6.83876e-19)
(17.5468 6.70274 -7.08299e-19)
(17.2737 7.03724 -6.90597e-19)
(16.983 7.35804 0)
(16.6761 7.66381 6.52671e-19)
(16.3536 7.956 -1.19035e-18)
(16.0184 8.23169 -1.15014e-18)
(15.6702 8.49175 -1.18101e-18)
(15.3103 8.73502 -9.45945e-21)
(14.9411 8.95723 -9.75535e-19)
(14.5591 9.16191 1.03438e-18)
(14.1674 9.3482 9.32645e-19)
(13.7683 9.51417 -9.4657e-19)
(13.3605 9.6625 5.91116e-20)
(12.9483 9.78975 1.04946e-21)
(12.5298 9.89906 -7.91708e-19)
(12.1094 9.98444 0)
(11.6824 10.0529 -6.31907e-19)
(11.2559 10.0988 1.21746e-18)
(10.8258 10.1282 -4.57903e-20)
(10.4003 10.1354 5.21533e-19)
(9.9744 10.1214 -4.25088e-19)
(9.55078 10.087 3.61736e-19)
(9.1316 10.0304 2.60097e-19)
(8.71367 9.95487 -5.7158e-19)
(8.30059 9.86019 2.40759e-19)
(7.89529 9.74587 1.54919e-19)
(7.49406 9.61328 1.65254e-19)
(7.10171 9.46291 -3.60421e-20)