/*--------------------------------*- C++ -*----------------------------------*\
| =========                 |                                                 |
| \\      /  F ield         | OpenFOAM: The Open Source CFD Toolbox           |
|  \\    /   O peration     | Version:  2.3.1                                 |
|   \\  /    A nd           | Web:      www.OpenFOAM.org                      |
|    \\/     M anipulation  |                                                 |
\*---------------------------------------------------------------------------*/
FoamFile
{
    version     2.0;
    format      ascii;
    class       volScalarField;
    location    "0.73";
    object      nut;
}
// * * * * * * * * * * * * * * * * * * * * * * * * * * * * * * * * * * * * * //

dimensions      [0 2 -1 0 0 0 0];

internalField   nonuniform List<scalar> 
9648
(
0.000272453
0.000273087
0.000273045
0.000272937
0.000272679
0.000272176
0.000271467
0.000270576
0.000269488
0.000268182
0.000266654
0.000264942
0.000263045
0.000260974
0.000258778
0.000256504
0.000254175
0.000251813
0.00024946
0.000247158
0.000244921
0.000242771
0.000240732
0.000238804
0.000236991
0.000235309
0.000233761
0.000232345
0.000231053
0.000229891
0.000228851
0.000227929
0.000227122
0.00022643
0.000225841
0.000225357
0.000224978
0.000224697
0.000224501
0.000224389
0.000224371
0.000224435
0.000224578
0.000224807
0.000225108
0.000225474
0.000225916
0.000226449
0.000227061
0.000227739
0.000228496
0.000229352
0.000230283
0.000231293
0.000232393
0.000233584
0.000234833
0.000236087
0.000237355
0.000238635
0.000239906
0.000445053
0.000451425
0.000458533
0.00046626
0.000474289
0.000482045
0.000490473
0.000501382
0.00051507
0.000531426
0.000550539
0.000572719
0.000597919
0.000626003
0.000656805
0.000690246
0.000726091
0.000763999
0.000803659
0.000844906
0.000887396
0.00093088
0.000975175
0.00102001
0.00106512
0.00111037
0.00115567
0.00120087
0.00124579
0.00129036
0.00133455
0.00137824
0.00142134
0.0014639
0.00150583
0.00154703
0.00158759
0.00162751
0.00166671
0.00170504
0.00174254
0.00177932
0.00181526
0.00185028
0.00188449
0.00191761
0.00194966
0.0019808
0.0020111
0.00204037
0.00206872
0.00209605
0.00212257
0.0021478
0.0021724
0.00219616
0.00221971
0.00224203
0.00226381
0.00228531
0.00230672
0.000758451
0.000801897
0.00084649
0.000889239
0.000932358
0.000979046
0.00102809
0.00108072
0.00113641
0.00119576
0.00125811
0.00132399
0.00139334
0.00146607
0.001542
0.00162086
0.00170238
0.00178605
0.00187144
0.00195819
0.00204583
0.00213406
0.00222246
0.00231071
0.00239853
0.00248573
0.00257217
0.0026576
0.00274196
0.00282513
0.00290701
0.00298758
0.00306688
0.00314477
0.00322123
0.00329636
0.00337007
0.00344245
0.00351344
0.00358304
0.00365126
0.00371802
0.0037835
0.00384763
0.00391035
0.00397164
0.00403145
0.00409
0.00414706
0.00420278
0.00425715
0.00431025
0.00436266
0.00441288
0.00446325
0.00451141
0.00455925
0.00460403
0.00464892
0.00469293
0.00473623
0.00120908
0.00129394
0.00137996
0.00146532
0.00155136
0.00163973
0.00173047
0.00182398
0.00192013
0.0020195
0.00212177
0.00222741
0.0023362
0.00244829
0.00256329
0.00268091
0.00280075
0.0029223
0.00304512
0.00316871
0.00329268
0.00341654
0.00353995
0.00366261
0.00378428
0.00390474
0.00402384
0.00414143
0.00425744
0.00437172
0.00448435
0.00459529
0.00470448
0.00481205
0.00491788
0.00502206
0.00512456
0.00522548
0.00532478
0.0054225
0.00551865
0.00561327
0.00570631
0.00579791
0.00588795
0.00597647
0.00606349
0.00614905
0.00623296
0.00631528
0.00639648
0.00647547
0.00655303
0.00662858
0.00670382
0.0067768
0.00684764
0.00691639
0.00698349
0.00704886
0.00711155
0.00173134
0.00184882
0.0019705
0.00209363
0.00221805
0.00234465
0.00247377
0.00260542
0.00273994
0.00287756
0.00301825
0.00316207
0.00330904
0.00345912
0.00361184
0.00376667
0.00392308
0.00408068
0.00423891
0.00439738
0.00455559
0.00471312
0.00486956
0.00502466
0.00517823
0.00533017
0.00548026
0.00562843
0.00577457
0.00591864
0.00606063
0.00620058
0.00633859
0.0064746
0.0066086
0.00674071
0.00687095
0.00699923
0.00712564
0.00725017
0.0073729
0.00749375
0.00761288
0.0077302
0.00784571
0.00795937
0.00807109
0.00818093
0.00828908
0.00839486
0.00849892
0.00860085
0.00870009
0.00879686
0.00889163
0.00898455
0.00907434
0.00916163
0.00924642
0.00932813
0.00940668
0.00225911
0.00240066
0.00255307
0.00271133
0.0028732
0.00303818
0.00320631
0.00337762
0.00355199
0.00372947
0.0039099
0.00409302
0.00427892
0.00446729
0.00465792
0.0048501
0.00504292
0.00523627
0.00542939
0.005622
0.00581373
0.00600395
0.00619247
0.00637885
0.00656312
0.0067452
0.00692503
0.00710252
0.00727744
0.0074498
0.00761971
0.00778706
0.00795211
0.00811488
0.00827524
0.0084333
0.0085892
0.0087428
0.00889415
0.00904317
0.00918977
0.0093341
0.00947621
0.00961609
0.00975366
0.00988897
0.0100222
0.0101523
0.0102802
0.0104055
0.010528
0.0106478
0.0107647
0.010878
0.0109887
0.0110959
0.0111998
0.0113008
0.0113984
0.0114915
0.0115817
0.00276832
0.00292897
0.00311091
0.00330459
0.00350516
0.00371047
0.00391985
0.00413294
0.00434939
0.00456854
0.00479037
0.00501404
0.00523954
0.00546662
0.00569575
0.00592556
0.00615504
0.0063842
0.006612
0.00683832
0.00706318
0.00728557
0.00750557
0.00772222
0.00793589
0.00814691
0.00835507
0.00856069
0.00876299
0.00896208
0.00915824
0.00935096
0.00954089
0.00972827
0.00991264
0.0100941
0.0102732
0.0104493
0.0106228
0.0107935
0.0109608
0.011125
0.0112863
0.0114448
0.0116
0.0117522
0.0119017
0.0120477
0.0121908
0.0123303
0.0124665
0.0125992
0.0127277
0.0128526
0.0129731
0.01309
0.0132033
0.0133122
0.0134166
0.0135163
0.0136117
0.00325689
0.00343314
0.00364381
0.00387311
0.00411371
0.00436014
0.00461194
0.00486836
0.00512776
0.00539
0.00565438
0.00591969
0.00618512
0.00645034
0.0067174
0.00698511
0.00725169
0.00751734
0.0077801
0.00803933
0.00829688
0.00855105
0.00880276
0.0090493
0.00929071
0.00952908
0.00976389
0.00999627
0.0102247
0.0104491
0.0106702
0.010886
0.0110977
0.0113071
0.011513
0.0117149
0.0119141
0.0121098
0.0123026
0.0124925
0.012678
0.0128589
0.013035
0.0132079
0.0133763
0.0135407
0.0137011
0.0138569
0.0140092
0.0141575
0.0143011
0.0144402
0.0145757
0.0147063
0.0148313
0.0149515
0.015067
0.0151788
0.015285
0.0153846
0.0154788
0.00373135
0.00391737
0.00415483
0.0044153
0.0046965
0.00498189
0.00527423
0.00557494
0.00587412
0.00617979
0.00648531
0.00679552
0.00710045
0.00740295
0.00770294
0.00800786
0.00831127
0.0086139
0.00891659
0.00920601
0.00949407
0.00978111
0.0100654
0.010347
0.0106129
0.0108768
0.0111362
0.0113929
0.0116477
0.0118965
0.0121449
0.0123846
0.0126104
0.0128381
0.0130659
0.0132846
0.013499
0.0137123
0.0139202
0.0141292
0.0143345
0.0145354
0.0147219
0.0149056
0.0150869
0.0152576
0.0154262
0.0155838
0.0157424
0.015891
0.016039
0.0161735
0.0163077
0.0164424
0.0165689
0.0166817
0.0167948
0.0168987
0.0170035
0.0171003
0.0171845
0.000241086
0.000242167
0.000243223
0.000244251
0.000245233
0.000246139
0.000247011
0.000247885
0.000248764
0.000249585
0.000250324
0.000251048
0.000251744
0.00025241
0.00025308
0.000253798
0.000254574
0.000255407
0.000256321
0.000257352
0.000258469
0.000259649
0.000260888
0.000262152
0.000263422
0.000264709
0.000266023
0.000267346
0.000268666
0.000269995
0.000271333
0.000272674
0.00027402
0.000275382
0.000276748
0.000278125
0.000279521
0.000280939
0.000282362
0.000283792
0.000285246
0.000286721
0.000288212
0.000289729
0.000291263
0.000292796
0.000294343
0.000295926
0.000297534
0.00029914
0.000300761
0.000302425
0.0003041
0.000305782
0.000307502
0.000309264
0.000311058
0.000312837
0.000314662
0.000316567
0.000318557
0.00232818
0.00234735
0.00236607
0.0023847
0.00240293
0.00241998
0.00243495
0.00244898
0.00246034
0.00247165
0.00248131
0.00249026
0.0024981
0.00250481
0.00251034
0.00251444
0.00251719
0.00251845
0.0025183
0.0025168
0.00251413
0.0025105
0.00250583
0.00250026
0.00249383
0.00248659
0.00247858
0.00246965
0.00245991
0.00244928
0.00243774
0.00242538
0.00241222
0.00239818
0.00238333
0.00236775
0.00235134
0.00233422
0.00231637
0.00229782
0.00227859
0.00225868
0.00223823
0.0022172
0.00219554
0.00217324
0.00215023
0.00212661
0.00210225
0.00207722
0.00205151
0.0020251
0.00199811
0.00196991
0.00194155
0.00191205
0.00188219
0.00185115
0.00182036
0.00178941
0.00175835
0.00477711
0.00481684
0.00485362
0.00488908
0.00492305
0.00495675
0.0049867
0.00501522
0.00504006
0.00506389
0.00508535
0.00510513
0.0051224
0.00513811
0.00515186
0.00516364
0.00517352
0.0051815
0.00518765
0.00519203
0.00519489
0.00519616
0.00519597
0.00519434
0.00519128
0.00518681
0.00518103
0.00517386
0.00516533
0.00515527
0.00514384
0.00513089
0.00511642
0.00510058
0.00508322
0.00506445
0.00504422
0.00502259
0.00499956
0.00497523
0.00494966
0.00492297
0.00489521
0.00486653
0.0048368
0.004806
0.00477398
0.00474074
0.00470613
0.00467015
0.00463295
0.0045938
0.00455317
0.00451061
0.00446704
0.00442122
0.00437354
0.00432434
0.00427442
0.00422368
0.00417192
0.00717247
0.00723066
0.0072865
0.00733911
0.00738948
0.0074376
0.00748289
0.00752515
0.0075643
0.00760119
0.00763535
0.00766652
0.00769508
0.00772146
0.00774499
0.00776621
0.007785
0.00780138
0.00781541
0.00782721
0.00783689
0.00784463
0.0078504
0.00785435
0.00785641
0.00785662
0.00785492
0.00785141
0.00784617
0.00783908
0.00783004
0.00781903
0.00780603
0.00779097
0.00777391
0.00775487
0.00773375
0.00771052
0.00768526
0.00765806
0.00762913
0.00759852
0.00756662
0.0075335
0.00749926
0.00746381
0.00742695
0.00738858
0.00734864
0.00730688
0.00726342
0.0072178
0.0071698
0.00711941
0.00706692
0.0070118
0.00695374
0.00689364
0.00683217
0.00676887
0.00670432
0.00948192
0.00955467
0.00962417
0.00969014
0.00975222
0.00981137
0.00986749
0.00991903
0.00996711
0.0100125
0.0100545
0.0100932
0.0101292
0.0101619
0.0101918
0.0102191
0.0102427
0.0102635
0.0102813
0.0102962
0.0103084
0.0103182
0.0103256
0.0103309
0.0103338
0.0103344
0.0103328
0.0103292
0.0103237
0.0103163
0.010307
0.0102954
0.0102816
0.0102653
0.0102468
0.0102259
0.0102023
0.0101762
0.0101474
0.010116
0.0100822
0.0100463
0.0100086
0.00996962
0.00992951
0.00988836
0.0098459
0.00980156
0.0097559
0.00970878
0.00965965
0.00960821
0.00955418
0.00949721
0.00943757
0.00937406
0.00930751
0.00923837
0.0091671
0.00909334
0.00901838
0.0116677
0.0117501
0.011828
0.0119027
0.0119727
0.0120385
0.0121004
0.0121578
0.0122109
0.0122598
0.0123056
0.0123476
0.012386
0.012421
0.0124523
0.0124802
0.0125043
0.012525
0.012542
0.0125549
0.0125645
0.0125711
0.0125748
0.012576
0.0125744
0.01257
0.012563
0.0125536
0.0125423
0.0125295
0.0125152
0.0124989
0.0124804
0.0124596
0.0124365
0.0124108
0.0123821
0.0123505
0.0123158
0.0122779
0.0122369
0.012193
0.0121467
0.0120988
0.0120497
0.0120001
0.0119492
0.0118969
0.0118434
0.0117892
0.0117332
0.0116744
0.0116133
0.0115494
0.0114823
0.0114108
0.0113359
0.011257
0.0111763
0.011093
0.0110078
0.0137026
0.0137889
0.0138704
0.0139469
0.0140189
0.0140864
0.0141488
0.014206
0.0142586
0.0143064
0.0143499
0.0143896
0.0144256
0.0144571
0.0144844
0.0145084
0.0145288
0.0145451
0.0145568
0.0145632
0.0145652
0.0145635
0.0145585
0.0145505
0.0145396
0.014525
0.0145069
0.0144854
0.0144618
0.0144372
0.0144124
0.0143862
0.0143588
0.0143294
0.0142988
0.0142659
0.0142294
0.0141896
0.0141469
0.0141011
0.0140517
0.0139983
0.0139414
0.0138824
0.013822
0.0137618
0.0136996
0.0136368
0.0135729
0.01351
0.0134457
0.0133782
0.0133092
0.0132375
0.0131635
0.0130838
0.0130005
0.0129124
0.012823
0.0127303
0.0126356
0.0155679
0.0156513
0.015729
0.0158006
0.0158668
0.015927
0.0159824
0.0160328
0.0160787
0.0161192
0.0161542
0.0161854
0.0162127
0.0162357
0.0162533
0.0162667
0.0162783
0.0162866
0.01629
0.0162871
0.0162773
0.0162636
0.0162461
0.0162247
0.0162007
0.0161727
0.0161403
0.016102
0.0160592
0.0160149
0.0159729
0.0159304
0.0158886
0.0158456
0.0158042
0.0157624
0.0157156
0.0156642
0.0156108
0.0155561
0.0154985
0.0154365
0.0153691
0.0152986
0.0152267
0.0151553
0.0150805
0.0150058
0.014929
0.0148558
0.0147829
0.0147049
0.0146266
0.0145468
0.0144663
0.014379
0.0142885
0.0141916
0.0140945
0.0139937
0.0138913
0.0172682
0.0173433
0.0174128
0.017469
0.0175217
0.0175602
0.017599
0.0176262
0.0176553
0.0176845
0.0177051
0.0177125
0.0177229
0.0177315
0.0177347
0.0177296
0.0177216
0.0177139
0.0177065
0.0176937
0.0176686
0.0176411
0.0176119
0.0175743
0.0175346
0.0174911
0.0174446
0.0173933
0.0173291
0.0172583
0.0171918
0.0171263
0.017063
0.0169981
0.0169393
0.0168867
0.0168282
0.01676
0.0166906
0.0166232
0.0165558
0.0164907
0.0164145
0.0163337
0.0162558
0.0161742
0.016092
0.0160054
0.0159178
0.0158322
0.0157504
0.0156598
0.0155678
0.0154809
0.0153909
0.0153004
0.0152027
0.0151016
0.0149961
0.01489
0.0147797
0.000320547
0.000322517
0.000324567
0.000326694
0.000328871
0.000331051
0.000333266
0.000335546
0.000337868
0.000340216
0.000342588
0.000345009
0.000347448
0.000349975
0.000353083
0.000355919
0.00035869
0.000361448
0.000364208
0.000366992
0.000369787
0.000372595
0.000375425
0.000378256
0.000381074
0.000383889
0.000386699
0.000389493
0.000392252
0.000394981
0.000397666
0.0004003
0.000402869
0.000405375
0.000407794
0.00041012
0.000412347
0.000414451
0.000416287
0.000417619
0.000418533
0.000419043
0.000419147
0.000418841
0.000418066
0.000416761
0.000414881
0.000412361
0.00040908
0.000404881
0.000399629
0.000393154
0.000385166
0.000375329
0.000362995
0.000341323
0.000330786
0.000325169
0.000322878
0.00032184
0.000319767
0.00172675
0.00169511
0.00166294
0.00163061
0.00159808
0.00156566
0.0015328
0.00150024
0.00146759
0.00143537
0.0014039
0.00137222
0.00134107
0.00131018
0.00127579
0.00124154
0.00120772
0.00117453
0.00114203
0.00111028
0.00107925
0.00104878
0.00101883
0.000989396
0.000960445
0.000932015
0.000904077
0.000876682
0.000849803
0.000823446
0.000797648
0.000772429
0.000747781
0.00072375
0.000700394
0.000677729
0.000655854
0.000634843
0.00061447
0.00059177
0.000568419
0.000545936
0.000524465
0.000504191
0.000485208
0.000467716
0.000451992
0.000438301
0.000426913
0.000418168
0.000412436
0.000410156
0.000411762
0.000417855
0.000426839
0.000448631
0.000482687
0.000537708
0.000622641
0.000745327
0.00086862
0.00411966
0.00406671
0.0040129
0.00395769
0.00390131
0.00384404
0.00378582
0.00372709
0.00366782
0.00360862
0.00354786
0.00348726
0.0034294
0.00337157
0.00331114
0.00324837
0.00318424
0.00311987
0.0030556
0.00299174
0.00292816
0.00286452
0.00280084
0.0027371
0.0026732
0.0026092
0.00254502
0.0024807
0.00241607
0.0023512
0.00228599
0.00222042
0.00215454
0.00208825
0.00202161
0.0019546
0.00188729
0.00181962
0.00175146
0.0016814
0.00160914
0.00152518
0.00143357
0.00133894
0.00124243
0.00114522
0.0010489
0.000954954
0.000865355
0.000782099
0.000707196
0.000642565
0.000589503
0.000549443
0.000522052
0.000511592
0.000520846
0.000554852
0.000623043
0.000739193
0.000902048
0.00663884
0.00657311
0.00650592
0.00643668
0.00636498
0.00629194
0.00621764
0.0061428
0.0060678
0.00599244
0.00591378
0.00583692
0.00576304
0.00568924
0.00561263
0.00553285
0.0054506
0.00536751
0.00528416
0.0052009
0.00511754
0.00503334
0.00494852
0.0048631
0.00477686
0.00468981
0.0046018
0.00451281
0.00442257
0.00433101
0.00423802
0.00414363
0.00404774
0.00395039
0.0038516
0.00375134
0.00364957
0.00354627
0.00344126
0.00333393
0.00322348
0.00310662
0.00297535
0.00282674
0.00266636
0.00249443
0.00231166
0.00211924
0.00191946
0.00171627
0.00151413
0.00132022
0.00114098
0.000983317
0.000851222
0.000750034
0.000683195
0.000650896
0.000655196
0.00070343
0.000804603
0.00894177
0.00886479
0.00878616
0.00870556
0.00862114
0.00853484
0.00844722
0.00835987
0.00827232
0.00818448
0.00809255
0.00800301
0.00791623
0.00782998
0.00774111
0.0076488
0.00755337
0.00745715
0.00736051
0.00726392
0.00716683
0.00706816
0.00696855
0.00686811
0.00676631
0.0066633
0.00655864
0.00645228
0.00634379
0.00623311
0.00612012
0.00600496
0.00588767
0.00576837
0.00564705
0.0055238
0.00539862
0.00527145
0.0051421
0.00501028
0.00487544
0.00473629
0.00458958
0.00442619
0.00424427
0.00404613
0.00383018
0.00359497
0.00333928
0.00306386
0.00277006
0.0024625
0.00214986
0.00184443
0.00156035
0.00131236
0.0011132
0.00096579
0.000867887
0.000818843
0.000822287
0.01092
0.0108321
0.0107429
0.0106516
0.0105556
0.0104571
0.0103566
0.0102573
0.0101585
0.0100598
0.00995647
0.0098555
0.00975717
0.00966043
0.0095609
0.00945818
0.00935212
0.00924606
0.00913956
0.0090332
0.00892593
0.00881601
0.00870535
0.00859416
0.00848113
0.0083665
0.00824953
0.00813026
0.00800788
0.00788266
0.00775442
0.00762378
0.00749084
0.00735597
0.00721901
0.00708024
0.00693957
0.00679708
0.00665259
0.00650598
0.00635677
0.00620443
0.00604746
0.00588207
0.00569762
0.00549738
0.0052785
0.0050394
0.00477691
0.00448815
0.00417101
0.00382405
0.00344907
0.00305379
0.00265058
0.00226054
0.00190672
0.00160525
0.0013629
0.00118115
0.00105975
0.0125368
0.0124384
0.0123393
0.0122389
0.0121318
0.0120216
0.0119086
0.011798
0.0116888
0.0115807
0.0114666
0.0113551
0.0112465
0.011141
0.0110324
0.0109213
0.0108066
0.010693
0.0105791
0.0104657
0.0103507
0.0102317
0.010113
0.00999468
0.0098736
0.00975042
0.00962376
0.00949456
0.00936097
0.0092241
0.00908376
0.00894172
0.00879765
0.00865249
0.00850556
0.0083575
0.00820789
0.00805727
0.00790536
0.00775235
0.00759762
0.00744091
0.00728143
0.00711711
0.00694342
0.00675029
0.00654061
0.00631228
0.00606253
0.00578834
0.00548578
0.00515086
0.00478095
0.00437463
0.00393671
0.00347896
0.00302135
0.00258749
0.00219624
0.00186019
0.00158704
0.0137827
0.0136739
0.0135657
0.0134574
0.013341
0.0132201
0.0130955
0.0129739
0.0128556
0.0127393
0.0126157
0.0124946
0.0123773
0.0122649
0.0121494
0.0120314
0.0119102
0.0117908
0.0116715
0.0115532
0.0114319
0.0113052
0.0111813
0.011059
0.0109319
0.0108014
0.0106662
0.0105286
0.010385
0.010238
0.0100878
0.00993812
0.00978689
0.00963634
0.00948443
0.00933269
0.00917974
0.00902779
0.00887592
0.00872508
0.00857361
0.00842164
0.00826801
0.00811143
0.00794875
0.00777192
0.00757787
0.00736675
0.00713717
0.00688689
0.00661323
0.006312
0.0059782
0.00560758
0.0051977
0.00475041
0.00427473
0.00378551
0.00330233
0.00284419
0.00242879
0.0146674
0.0145467
0.0144322
0.0143138
0.0141931
0.014061
0.0139292
0.0137943
0.0136696
0.0135443
0.0134153
0.0132844
0.0131623
0.0130429
0.012925
0.0127988
0.0126771
0.0125499
0.0124274
0.0123074
0.0121786
0.0120478
0.0119205
0.0117936
0.0116617
0.0115212
0.0113795
0.0112317
0.0110793
0.0109223
0.0107661
0.0106123
0.0104576
0.0103053
0.0101539
0.0100035
0.00985304
0.00970838
0.00956574
0.00942759
0.00928834
0.00914999
0.00901021
0.00886775
0.00872089
0.00856485
0.00838989
0.00819757
0.00799118
0.00777322
0.00753489
0.00727758
0.00698992
0.00667284
0.00631624
0.00592371
0.00548772
0.0050199
0.00452377
0.0040154
0.00351532
0.000315808
0.000311277
0.000306324
0.000300975
0.000295434
0.000289799
0.00028423
0.000278924
0.000274044
0.000269708
0.000265986
0.000262938
0.000260521
0.000258664
0.000257303
0.000256361
0.000255738
0.000255351
0.000255151
0.000255105
0.000255168
0.000255318
0.000255548
0.000255841
0.000256183
0.000256571
0.000257023
0.00025752
0.000258058
0.000258642
0.000259264
0.000259921
0.000260607
0.000261318
0.00026204
0.000262769
0.000263499
0.000264216
0.000264896
0.000265534
0.000266131
0.000266668
0.000267138
0.000267549
0.000267888
0.000268154
0.000268372
0.000268566
0.000268743
0.000268905
0.000269081
0.000269307
0.000269559
0.000269853
0.000270197
0.000270591
0.000270997
0.000271378
0.000271745
0.000272094
0.000272389
0.000934348
0.00099015
0.0010344
0.00106147
0.0010732
0.00107407
0.00106167
0.00103665
0.00100139
0.000958008
0.000908698
0.000856815
0.00080499
0.000755412
0.000708583
0.000666104
0.000629395
0.000598936
0.000574259
0.000554783
0.000539699
0.000528181
0.00051948
0.000512965
0.000508313
0.000505012
0.000502957
0.000501888
0.000501675
0.00050218
0.00050328
0.000504854
0.000506765
0.000508864
0.000511013
0.000513072
0.000514881
0.000516301
0.000517171
0.000517343
0.00051667
0.00051502
0.000512275
0.000508329
0.000503127
0.000496678
0.000489069
0.000480492
0.000471231
0.0004617
0.000452392
0.000443847
0.000436563
0.000430927
0.00042723
0.000425528
0.000425742
0.000427634
0.000430955
0.000435277
0.000440047
0.00107285
0.00124476
0.0014134
0.00156575
0.00166681
0.00174625
0.0018014
0.00182704
0.00182673
0.00180368
0.00175872
0.00169622
0.0016202
0.00153435
0.00144118
0.00134523
0.00125233
0.00116807
0.00109378
0.00103171
0.000982054
0.000943845
0.000915404
0.000894916
0.000880538
0.000871261
0.00086584
0.000863658
0.000864018
0.000866382
0.000870315
0.000875321
0.000880895
0.000886544
0.000891758
0.000896088
0.000899082
0.00090031
0.000899345
0.000895821
0.000889429
0.000879976
0.00086735
0.000851599
0.000832821
0.000811305
0.000787436
0.000761764
0.00073495
0.000707921
0.000681852
0.0006581
0.000638243
0.000623693
0.000615749
0.000615138
0.000622198
0.000636736
0.000658282
0.000686113
0.000719391
0.000955502
0.00115021
0.00137723
0.00161563
0.00183302
0.0020298
0.00221093
0.00234305
0.00243434
0.00249524
0.00252248
0.00251836
0.0024875
0.00243165
0.00235258
0.00225354
0.00213898
0.0020198
0.00190319
0.00179572
0.00170199
0.00162517
0.00156575
0.00152226
0.0014923
0.00147372
0.00146456
0.00146328
0.00146839
0.00147859
0.00149285
0.00151009
0.00152912
0.00154872
0.00156772
0.00158503
0.0015995
0.00161006
0.00161564
0.00161525
0.00160801
0.00159324
0.00157048
0.00153953
0.0015004
0.0014536
0.00139987
0.00134029
0.00127605
0.00120896
0.00114131
0.00107607
0.00101691
0.000968179
0.000934484
0.000919492
0.000924824
0.000950199
0.00099421
0.0010546
0.00112847
0.00088254
0.00100325
0.00118527
0.00141994
0.00168391
0.00195682
0.00222397
0.00246243
0.0026672
0.00284557
0.00297816
0.00306236
0.0031139
0.00313192
0.00311832
0.00307787
0.0030125
0.00292364
0.0028231
0.00272008
0.00261992
0.00252995
0.00245526
0.00239808
0.00235805
0.00233407
0.00232473
0.00232858
0.00234364
0.00236795
0.0024
0.0024381
0.00248029
0.00252447
0.00256867
0.00261093
0.0026493
0.00268188
0.00270667
0.00272182
0.00272556
0.00271653
0.00269345
0.00265551
0.00260199
0.00253316
0.00244938
0.00235173
0.00224154
0.00212091
0.00199265
0.001861
0.00173131
0.00161105
0.0015102
0.00144018
0.00140796
0.00141426
0.00145771
0.00153127
0.00162398
0.00100061
0.00100606
0.00107958
0.00122312
0.00143157
0.00169263
0.00198746
0.00228954
0.0025778
0.00284126
0.00306681
0.00325055
0.00340253
0.00350741
0.00356857
0.00360346
0.00361263
0.00359966
0.00357169
0.00353196
0.00348761
0.00344312
0.00340346
0.00337312
0.00335471
0.0033493
0.00335792
0.00338109
0.00341762
0.00346567
0.0035239
0.00359043
0.00366288
0.00373853
0.00381475
0.00388882
0.0039581
0.00401982
0.00407118
0.00410945
0.00413203
0.00413691
0.004122
0.00408582
0.0040267
0.00394454
0.00383891
0.00371044
0.0035598
0.00338882
0.00319979
0.00299683
0.0027854
0.00257352
0.002374
0.00220603
0.00208042
0.00201016
0.00200096
0.00204787
0.00213834
0.00138185
0.00124747
0.00118606
0.00119969
0.00128911
0.00145263
0.00168338
0.00196575
0.0022775
0.00259442
0.00289341
0.00315938
0.00338757
0.00357232
0.00371724
0.00383742
0.00392
0.00397531
0.00402093
0.0040594
0.00410092
0.00414422
0.00418868
0.00423451
0.00428306
0.00433605
0.00439627
0.00446643
0.00454658
0.00463569
0.00473328
0.00483788
0.0049475
0.00505945
0.00517107
0.00527939
0.00538138
0.00547367
0.0055528
0.00561542
0.00565837
0.00567909
0.00567508
0.00564444
0.00558459
0.00549484
0.00537401
0.00522221
0.00503953
0.00482701
0.00458608
0.00431986
0.00403214
0.00372901
0.00342168
0.00312955
0.00287545
0.00268761
0.00258672
0.00257714
0.0026451
0.00207006
0.00177911
0.00156305
0.00142647
0.00137117
0.00139736
0.00150353
0.00168473
0.00193078
0.00222424
0.00254148
0.0028582
0.00315587
0.00341988
0.00364519
0.00383462
0.00398941
0.00411653
0.00423512
0.00432966
0.00443927
0.00455869
0.00468734
0.00482378
0.0049679
0.00511623
0.00526611
0.0054163
0.00556938
0.00572463
0.00588192
0.00603972
0.00619689
0.00635201
0.00650302
0.00664772
0.00678329
0.00690617
0.00701233
0.00709802
0.00716053
0.00719621
0.00720287
0.00717858
0.00712017
0.00702568
0.00689418
0.0067239
0.00651554
0.00626885
0.00598493
0.00566491
0.00531032
0.00492513
0.0045165
0.00410321
0.00371441
0.00339579
0.00318601
0.00310432
0.00313777
0.00303851
0.00260796
0.00223884
0.00194119
0.00172537
0.00159515
0.0015517
0.00159249
0.0017135
0.00190732
0.00216044
0.00245579
0.00277392
0.00309339
0.00339598
0.00367458
0.00391477
0.00411696
0.004285
0.00442771
0.00459791
0.00476337
0.00494006
0.00513547
0.00535557
0.00559406
0.00584481
0.00609954
0.00635121
0.00659802
0.00683902
0.00707
0.00728852
0.00749784
0.00769496
0.00788064
0.00805319
0.0082089
0.00834304
0.0084509
0.00853406
0.00858317
0.00860076
0.00858289
0.00852859
0.00843136
0.00829455
0.00810792
0.00787982
0.00760387
0.00728599
0.00692118
0.00650909
0.00605597
0.00556114
0.00504208
0.00453358
0.00409628
0.00378145
0.00362682
0.00361943
0.00529411
0.0188399
0.0192266
0.00181743
0.00541529
0.00702859
0.0012504
0.00591394
0.00128963
0.0033406
0.0105578
0.0144818
0.00125015
0.0130356
0.00659816
0.0197073
0.00126346
0.00630785
0.00997656
0.00125414
0.00180929
0.0128556
0.0183187
0.00127758
0.00127945
0.0047141
0.00125384
0.00310859
0.00125995
0.00131413
0.00685072
0.0012797
0.00272631
0.00870598
0.0137466
0.00926796
0.00808445
0.0134305
0.0012468
0.0139225
0.00507586
0.0141152
0.00124678
0.0195035
0.00515516
0.00984205
0.00135134
0.0023982
0.00134122
0.014664
0.0107006
0.0157833
0.00124525
0.00143713
0.00199416
0.000201189
0.0013117
0.0048841
0.00891166
0.0183101
0.00410354
0.00135647
0.00126623
0.00365415
0.019914
0.00716987
0.00916354
0.00437827
0.00148463
0.00124255
0.0132385
0.0136137
0.00490871
0.000479845
0.00274178
0.018737
0.019152
0.0163246
0.00124255
0.0140648
0.00193765
0.0130848
0.000842328
0.0182082
0.00124255
0.0114627
0.00128545
0.0120478
0.00178921
0.00158865
0.00549863
0.001242
0.00137898
0.0176386
0.0200219
0.00134064
0.0108056
0.00432098
0.00177894
0.019706
0.0035927
0.0183583
0.00812237
0.0012415
0.0012419
0.00124432
0.00586683
0.00664959
0.00126414
0.0202154
0.019398
0.00164108
0.00781631
0.00771902
0.00536481
0.012469
0.0101633
0.00140564
0.00590113
0.00142199
0.00102736
0.00549897
0.00153489
0.0177054
0.0132413
0.00315477
0.00124624
0.0124542
0.0130147
0.00124636
0.00349018
0.00373901
0.00299092
0.00154014
0.0132611
0.00124569
0.00124193
0.0138471
0.0162115
0.00125312
0.00314824
0.020166
0.00426533
0.0089692
0.0082557
0.0171306
0.000484147
0.00888064
0.0024978
0.0163268
0.0123753
0.000198569
0.0136923
0.0181155
0.0200171
0.00128378
0.00126835
0.00810517
0.0012559
0.00833195
0.000771225
0.00162151
0.00124377
0.00124743
0.00124291
0.0167211
0.00418012
0.00667825
0.00129327
0.0143073
0.00677059
0.00226911
0.0128824
0.00253683
0.00742258
0.00570169
0.0114848
0.0012594
0.00171072
0.00401181
0.0124519
0.0143843
0.0181937
0.00124774
0.00132586
0.00875537
0.0039426
0.0114403
0.00124467
0.00135203
0.0056631
0.00129839
0.0168028
0.00979435
0.00125397
0.00845444
0.00335695
0.0188917
0.00151579
0.00641037
0.00124755
0.00125356
0.0199393
0.0153058
0.0158973
0.00152401
0.00129467
0.0018466
0.0161492
0.005756
0.0102899
0.019263
0.0146354
0.0192275
0.00407234
0.018866
0.0187623
0.0138554
0.0149644
0.0124031
0.00148246
0.0041805
0.00125146
0.00127181
0.0105564
0.00296078
0.00311011
0.0014705
0.00246211
0.0138249
0.00956307
0.00288099
0.0192867
0.0132075
0.00495795
0.00124494
0.00451668
0.0169458
0.0124189
0.00145127
0.00958201
0.0034083
0.00353204
0.00273561
0.0181853
0.00731939
0.0044726
0.0195431
0.00138921
0.00124248
0.0014252
0.00231389
0.00959228
0.00129577
0.00151243
0.00124572
0.00740606
0.0194165
0.0189322
0.0138606
0.0122432
0.0155297
0.0167494
0.00148883
0.00813589
0.0186532
0.00124609
0.00413435
0.00124266
0.00445029
0.00734631
0.00406995
0.00165378
0.00124633
0.0150444
0.00308752
0.00124291
0.00125547
0.00125866
0.00126154
0.0097066
0.0067328
0.0170623
0.00180339
0.00124286
0.00124391
0.00124186
0.0187481
0.00401985
0.00150769
0.013005
0.00593335
0.0015792
0.00124344
0.00787791
0.00124266
0.00213058
0.00420218
0.00721017
0.00275953
0.00140999
0.0017327
0.0159915
0.00501167
0.00271067
0.0166651
0.00131654
0.00124338
0.00124545
0.0194684
0.00127499
0.0150176
0.00124533
0.0140133
0.0108457
0.00271971
0.00534188
0.00585496
0.00154608
0.0134244
0.0130502
0.0028154
0.022589
0.0106052
0.0163134
0.0141933
0.0197365
0.0083056
0.0191244
0.00483967
0.00652916
0.016545
0.0180515
0.0129848
0.0123272
0.00140853
0.0161997
0.00520784
0.0188042
0.00361957
0.00133366
0.00124657
0.00129909
0.00407962
0.0100966
0.00686175
0.00609435
0.00124901
0.0202174
0.00124615
0.00719704
0.0138961
0.0196412
0.0138171
0.0150254
0.00166082
0.00147301
0.00148431
0.00802086
0.0021955
0.00633674
0.00916797
0.0105827
0.0176059
0.0182225
0.0162467
0.00131327
0.0178576
0.020014
0.00290683
0.00125435
0.0199246
0.0202348
0.00127865
0.0116334
0.00125533
0.0106537
0.0157125
0.0112924
0.0186267
0.0048386
0.020194
0.00127559
0.020155
0.00139098
0.0176183
0.0169368
0.0116393
0.0179653
0.0123521
0.00824995
0.010315
0.00147041
0.00380099
0.00129244
0.00205416
0.00129081
0.00697523
0.00138435
0.0177523
0.00124361
0.00125584
0.00176426
0.00928225
0.00510605
0.0134827
0.00146971
0.0188557
0.00773066
0.0192265
0.00617543
0.0160171
0.0102938
0.00129905
0.0179544
0.0168548
0.00125
0.0168582
0.0142783
0.00124442
0.00124179
0.00883878
0.0018351
0.0122613
0.00148681
0.00640358
0.00364494
0.0090841
0.0158728
0.0172611
0.0153283
0.0166493
0.0180736
0.00140849
0.00125237
0.00893047
0.0125646
0.0162388
0.0110518
0.0188626
0.00453937
0.0198676
0.0198727
0.00646257
0.00304238
0.0162658
0.014349
0.00132633
0.0174272
0.0148378
0.00144811
0.0196195
0.0157696
0.0163919
0.00342055
0.00461274
0.0126824
0.00166241
0.0164229
0.00153864
0.00344764
0.00125175
0.010815
0.00293308
0.008552
0.00156763
0.00136748
0.00856646
0.00871037
0.0015807
0.00273639
0.0104415
0.00279581
0.00131954
0.0154408
0.00902172
0.0131969
0.00780637
0.00355915
0.0119954
0.0162585
0.0171992
0.00616899
0.0118484
0.0172529
0.0062957
0.015555
0.019918
0.000421057
0.00578979
0.0123171
0.00129714
0.00328118
0.00798484
0.0123636
0.00277368
0.0221696
0.00441264
0.00984215
0.00643585
0.00168064
0.00124497
0.00100242
0.0176023
0.0176599
0.00830243