/*--------------------------------*- C++ -*----------------------------------*\
| =========                 |                                                 |
| \\      /  F ield         | OpenFOAM: The Open Source CFD Toolbox           |
|  \\    /   O peration     | Version:  2.3.1                                 |
|   \\  /    A nd           | Web:      www.OpenFOAM.org                      |
|    \\/     M anipulation  |                                                 |
\*---------------------------------------------------------------------------*/
FoamFile
{
    version     2.0;
    format      ascii;
    class       volScalarField;
    location    "0.73";
    object      p;
}
// * * * * * * * * * * * * * * * * * * * * * * * * * * * * * * * * * * * * * //

dimensions      [0 2 -2 0 0 0 0];

internalField   nonuniform List<scalar> 
9648
(
-0.181194
-0.45732
-0.783707
-1.15412
-1.59816
-2.12914
-2.75863
-3.49538
-4.34607
-5.32866
-6.45432
-7.73586
-9.18582
-10.8149
-12.6326
-14.6488
-16.8717
-19.31
-21.9671
-24.8476
-27.9563
-31.2901
-34.8489
-38.628
-42.6231
-46.8249
-51.2229
-55.8083
-60.5638
-65.4804
-70.5378
-75.721
-81.0145
-86.3938
-91.8478
-97.3486
-102.883
-108.431
-113.968
-119.473
-124.924
-130.313
-135.601
-140.779
-145.835
-150.738
-155.474
-160.027
-164.401
-168.57
-172.491
-176.168
-179.606
-182.773
-185.672
-188.288
-190.608
-192.637
-194.353
-195.768
-196.872
0.3392
0.0795685
-0.230398
-0.593145
-1.03257
-1.54775
-2.15113
-2.85775
-3.6799
-4.62597
-5.70694
-6.93461
-8.32007
-9.87375
-11.6055
-13.5243
-15.6381
-17.9538
-20.4761
-23.2094
-26.1566
-29.3172
-32.69
-36.2709
-40.0548
-44.034
-48.1991
-52.5398
-57.0431
-61.6967
-66.4844
-71.3906
-76.3995
-81.492
-86.6515
-91.8578
-97.0944
-102.342
-107.579
-112.786
-117.944
-123.036
-128.037
-132.932
-137.704
-142.33
-146.797
-151.087
-155.185
-159.083
-162.777
-166.246
-169.48
-172.467
-175.191
-177.649
-179.823
-181.723
-183.326
-184.636
-185.637
0.153962
-0.0835732
-0.3675
-0.705613
-1.10165
-1.57907
-2.14482
-2.81027
-3.58559
-4.48378
-5.51519
-6.69166
-8.02387
-9.52175
-11.195
-13.0522
-15.101
-17.3477
-19.7971
-22.4533
-25.3187
-28.3935
-31.6763
-35.1632
-38.8486
-42.725
-46.7837
-51.0144
-55.4049
-59.9425
-64.612
-69.3979
-74.2844
-79.2541
-84.2893
-89.3718
-94.484
-99.6072
-104.722
-109.809
-114.85
-119.825
-124.715
-129.503
-134.171
-138.7
-143.075
-147.28
-151.3
-155.12
-158.732
-162.123
-165.288
-168.204
-170.874
-173.277
-175.423
-177.278
-178.853
-180.142
-181.153
0.377998
0.139418
-0.142744
-0.475943
-0.869097
-1.3331
-1.87861
-2.517
-3.25958
-4.11851
-5.10556
-6.23215
-7.50887
-8.9456
-10.5525
-12.3374
-14.3077
-16.4697
-18.8274
-21.3849
-24.1448
-27.1067
-30.2697
-33.6292
-37.1797
-40.9137
-44.8225
-48.8967
-53.1243
-57.4925
-61.9875
-66.5933
-71.2948
-76.0762
-80.9196
-85.8073
-90.723
-95.6478
-100.564
-105.453
-110.298
-115.077
-119.774
-124.37
-128.85
-133.195
-137.389
-141.42
-145.272
-148.933
-152.391
-155.637
-158.661
-161.45
-163.996
-166.287
-168.321
-170.083
-171.571
-172.782
-173.713
0.429176
0.224232
-0.0250719
-0.326881
-0.6893
-1.12145
-1.63285
-2.23391
-2.93657
-3.75157
-4.69146
-5.76623
-6.98677
-8.36192
-9.90272
-11.6158
-13.5085
-15.5867
-17.8533
-20.3129
-22.9683
-25.8182
-28.8629
-32.0962
-35.513
-39.1059
-42.8657
-46.7848
-50.8507
-55.0513
-59.3737
-63.8009
-68.3196
-72.9152
-77.5694
-82.2648
-86.9875
-91.7176
-96.4393
-101.137
-105.79
-110.381
-114.89
-119.304
-123.603
-127.772
-131.797
-135.661
-139.354
-142.862
-146.175
-149.285
-152.182
-154.856
-157.296
-159.491
-161.431
-163.113
-164.537
-165.694
-166.582
0.517367
0.328156
0.0987149
-0.180367
-0.51614
-0.918828
-1.39747
-1.96234
-2.62604
-3.39805
-4.29214
-5.31641
-6.48264
-7.79682
-9.27317
-10.9157
-12.7314
-14.7266
-16.9013
-19.2621
-21.8126
-24.5487
-27.4747
-30.5799
-33.8606
-37.3094
-40.9153
-44.6756
-48.575
-52.602
-56.7468
-60.9886
-65.3163
-69.7191
-74.1759
-78.6697
-83.1908
-87.7163
-92.2338
-96.7297
-101.183
-105.576
-109.887
-114.107
-118.216
-122.198
-126.042
-129.728
-133.249
-136.594
-139.752
-142.714
-145.474
-148.024
-150.349
-152.436
-154.276
-155.867
-157.214
-158.306
-159.14
0.60933
0.436816
0.226175
-0.0322019
-0.343502
-0.719073
-1.16727
-1.69732
-2.32392
-3.05406
-3.90451
-4.8802
-5.99449
-7.24782
-8.66147
-10.234
-11.9724
-13.8856
-15.9676
-18.2268
-20.6721
-23.2914
-26.0988
-29.0753
-32.2168
-35.5194
-38.9653
-42.5634
-46.2923
-50.1392
-54.1042
-58.1558
-62.2828
-66.4868
-70.7426
-75.0256
-79.3385
-83.6523
-87.9563
-92.2457
-96.4938
-100.684
-104.788
-108.805
-112.717
-116.505
-120.161
-123.661
-127.004
-130.175
-133.174
-135.98
-138.594
-141.015
-143.224
-145.201
-146.933
-148.424
-149.687
-150.717
-151.495
0.700303
0.545269
0.355324
0.116381
-0.170239
-0.520461
-0.940934
-1.43451
-2.02731
-2.71396
-3.52542
-4.45257
-5.52381
-6.70888
-8.06314
-9.56804
-11.2252
-13.0635
-15.0518
-17.199
-19.5485
-22.0387
-24.7357
-27.5847
-30.5778
-33.7421
-37.0107
-40.4457
-44.0071
-47.6584
-51.4549
-55.3139
-59.2153
-63.2204
-67.2898
-71.3326
-75.438
-79.5376
-83.6088
-87.6983
-91.7305
-95.7274
-99.6002
-103.404
-107.13
-110.706
-114.184
-117.478
-120.644
-123.622
-126.468
-129.096
-131.549
-133.846
-135.951
-137.8
-139.428
-140.792
-141.974
-142.954
-143.666
0.796846
0.65046
0.495907
0.261503
0.00982597
-0.326348
-0.725306
-1.15603
-1.74666
-2.35622
-3.16513
-4.01263
-5.09572
-6.14593
-7.48414
-8.93898
-10.4727
-12.2815
-14.1532
-16.1565
-18.4931
-20.7692
-23.4204
-26.1142
-28.9382
-32.042
-35.0496
-38.3571
-41.7875
-45.165
-48.8621
-52.4966
-56.1358
-59.9949
-63.9233
-67.5514
-71.5592
-75.4395
-79.2219
-83.1724
-86.9088
-90.783
-94.3428
-98.0068
-101.601
-104.849
-108.254
-111.234
-114.292
-116.961
-119.721
-122.07
-124.388
-126.641
-128.621
-130.278
-131.899
-133.041
-134.215
-135.149
-135.723
-197.64
-198.085
-198.213
-198.013
-197.506
-196.683
-195.547
-194.099
-192.327
-190.26
-187.871
-185.178
-182.213
-178.983
-175.479
-171.714
-167.694
-163.448
-158.966
-154.264
-149.374
-144.281
-139.012
-133.577
-128.004
-122.301
-116.451
-110.492
-104.428
-98.2947
-92.0904
-85.8362
-79.5537
-73.2429
-66.9322
-60.6236
-54.3405
-48.0951
-41.8952
-35.758
-29.695
-23.7296
-17.859
-12.1037
-6.47784
-0.983721
4.3628
9.55347
14.5732
19.4151
24.0744
28.5402
32.8015
36.8572
40.6966
44.3148
47.7067
50.8669
53.7949
56.4863
58.9406
-186.33
-186.691
-186.778
-186.565
-186.053
-185.25
-184.149
-182.755
-181.056
-179.06
-176.766
-174.186
-171.354
-168.278
-164.944
-161.357
-157.529
-153.475
-149.199
-144.715
-140.04
-135.179
-130.147
-124.954
-119.615
-114.142
-108.566
-102.889
-97.1175
-91.2699
-85.3584
-79.3984
-73.4049
-67.3898
-61.3693
-55.3529
-49.3567
-43.3944
-37.4775
-31.6187
-25.8314
-20.1314
-14.5259
-9.02847
-3.65155
1.5979
6.70859
11.6699
16.4701
21.1019
25.5586
29.8311
33.91
37.7924
41.4691
44.9355
48.1846
51.2142
54.0212
56.6025
58.957
-181.867
-182.313
-182.422
-182.222
-181.731
-180.963
-179.886
-178.509
-176.816
-174.822
-172.563
-170.037
-167.237
-164.165
-160.844
-157.286
-153.498
-149.493
-145.279
-140.867
-136.272
-131.5
-126.565
-121.477
-116.247
-110.885
-105.412
-99.8401
-94.181
-88.4485
-82.6562
-76.8189
-70.9502
-65.0638
-59.1729
-53.2891
-47.4255
-41.595
-35.8105
-30.0846
-24.4303
-18.8607
-13.3859
-8.0177
-2.76659
2.35887
7.34797
12.1904
16.8758
21.397
25.7455
29.9142
33.8953
37.6842
41.2729
44.6565
47.8294
50.788
53.5295
56.0508
58.3518
-174.359
-174.732
-174.808
-174.593
-174.083
-173.261
-172.143
-170.806
-169.21
-167.353
-165.211
-162.806
-160.136
-157.211
-154.04
-150.633
-146.999
-143.15
-139.095
-134.849
-130.423
-125.828
-121.073
-116.17
-111.129
-105.962
-100.685
-95.3109
-89.8524
-84.3219
-78.7322
-73.0983
-67.4338
-61.7527
-56.066
-50.3858
-44.7239
-39.0924
-33.5046
-27.9729
-22.5097
-17.1276
-11.8372
-6.6493
-1.57373
3.38168
8.20562
12.8887
17.42
21.794
26.0014
30.0349
33.889
37.5575
41.0351
44.3139
47.3912
50.2608
52.9213
55.3689
57.6046
-167.196
-167.538
-167.603
-167.393
-166.903
-166.134
-165.11
-163.768
-162.172
-160.332
-158.236
-155.889
-153.294
-150.461
-147.394
-144.1
-140.587
-136.865
-132.946
-128.845
-124.571
-120.136
-115.548
-110.815
-105.95
-100.965
-95.8726
-90.6884
-85.4231
-80.0888
-74.6958
-69.2612
-63.7975
-58.3203
-52.8374
-47.3609
-41.901
-36.4692
-31.0799
-25.7442
-20.4741
-15.283
-10.1803
-5.17676
-0.281825
4.49976
9.15272
13.6719
18.0432
22.2643
26.3248
30.2173
33.9379
37.4793
40.8393
44.0078
46.9843
49.7583
52.3327
54.7009
56.8661
-159.712
-160.019
-160.059
-159.833
-159.34
-158.586
-157.572
-156.288
-154.748
-152.964
-150.935
-148.664
-146.155
-143.42
-140.463
-137.288
-133.901
-130.31
-126.53
-122.577
-118.461
-114.194
-109.78
-105.224
-100.542
-95.7419
-90.8392
-85.8517
-80.7863
-75.6549
-70.4635
-65.2344
-59.9766
-54.7117
-49.4399
-44.1746
-38.9239
-33.6983
-28.5143
-23.3811
-18.3104
-13.3169
-8.40782
-3.59553
1.11153
5.71498
10.1923
14.5438
18.7483
22.8117
26.7197
30.4651
34.0478
37.4555
40.6954
43.7483
46.6206
49.2948
51.781
54.0646
56.1569
-152.02
-152.289
-152.304
-152.061
-151.567
-150.826
-149.83
-148.578
-147.083
-145.358
-143.401
-141.209
-138.787
-136.155
-133.314
-130.261
-127.003
-123.542
-119.902
-116.101
-112.148
-108.056
-103.823
-99.4498
-94.9545
-90.3427
-85.6343
-80.8492
-75.9898
-71.0658
-66.0785
-61.0578
-56.0101
-50.9655
-45.9112
-40.8658
-35.8327
-30.819
-25.8458
-20.9229
-16.0575
-11.2664
-6.55638
-1.94156
2.57163
6.99314
11.291
15.4728
19.5053
23.4053
27.1552
30.7488
34.1878
37.4566
40.5736
43.5078
46.2762
48.8465
51.2406
53.4346
55.4518
-144.145
-144.365
-144.357
-144.087
-143.597
-142.87
-141.899
-140.655
-139.192
-137.543
-135.663
-133.546
-131.21
-128.684
-125.973
-123.044
-119.917
-116.58
-113.087
-109.446
-105.655
-101.744
-97.7102
-93.5159
-89.2114
-84.7913
-80.2844
-75.7063
-71.0478
-66.3358
-61.5469
-56.7402
-51.9
-47.0893
-42.2565
-37.4513
-32.6562
-27.8458
-23.0842
-18.391
-13.7261
-9.13713
-4.63953
-0.22025
4.08505
8.3296
12.4403
16.4582
20.3047
24.0383
27.621
31.0501
34.35
37.4707
40.4737
43.2837
45.9545
48.4065
50.7083
52.8012
54.747
-136.162
-136.301
-136.282
-135.981
-135.5
-134.753
-133.826
-132.518
-131.133
-129.67
-127.795
-125.753
-123.47
-121.033
-118.551
-115.676
-112.674
-109.528
-106.159
-102.692
-98.9811
-95.2328
-91.4963
-87.3849
-83.2832
-79.1323
-74.7639
-70.428
-65.8636
-61.4801
-56.7659
-52.2959
-47.5511
-43.0746
-38.4251
-33.8895
-29.3925
-24.6692
-20.1256
-15.7098
-11.1645
-6.82682
-2.57946
1.7233
5.67666
9.8839
13.6722
17.6422
21.1667
24.8069
28.2392
31.4085
34.6851
37.5441
40.5675
43.1279
45.8058
47.993
50.3268
52.2207
54.2012
61.1592
63.1404
64.885
66.3934
67.6652
68.7047
69.5158
70.1036
70.4724
70.6286
70.5947
70.4137
70.078
69.5467
68.8462
67.9828
66.9195
65.6663
64.2453
62.6724
60.9596
59.1174
57.158
55.0925
52.933
50.6925
48.3841
46.0221
43.6189
41.19
38.7487
36.3099
33.8891
31.4996
29.1585
26.8785
24.6748
22.5612
20.5609
18.688
16.9693
15.4081
14.0179
12.8189
11.8252
11.0465
10.4921
10.1641
10.057
10.1532
10.4197
10.8037
11.2278
11.5909
11.7848
11.1202
9.62173
8.10127
6.85341
5.92201
5.10571
61.085
62.9871
64.6632
66.1138
67.339
68.3408
69.1229
69.6892
70.0439
70.1894
70.1405
69.9557
69.6348
69.1271
68.4456
67.596
66.5585
65.3405
63.9597
62.4307
60.7651
58.9734
57.0676
55.06
52.9623
50.7867
48.5454
46.2513
43.9172
41.5567
39.1831
36.8105
34.4531
32.1248
29.8405
27.6142
25.4607
23.3915
21.4123
19.551
17.8152
16.2387
14.8325
13.6091
12.5802
11.7561
11.1453
10.7504
10.5661
10.577
10.7529
11.0451
11.3797
11.6596
11.7169
11.087
9.76971
8.42044
7.3553
6.55279
5.72947
60.4315
62.2916
63.9316
65.3528
66.5549
67.5406
68.3131
68.8766
69.2334
69.3806
69.342
69.1813
68.8835
68.3976
67.7412
66.9221
65.9269
64.7614
63.4385
61.9714
60.371
58.6478
56.8136
54.8798
52.8574
50.7584
48.5945
46.3782
44.1216
41.838
39.5405
37.2424
34.9574
32.699
30.481
28.3173
26.221
24.2041
22.2785
20.4657
18.7827
17.2444
15.8616
14.6454
13.6072
12.7567
12.1007
11.6406
11.3708
11.277
11.3302
11.4855
11.6697
11.7838
11.6559
11.0135
9.86246
8.63673
7.6096
6.76977
5.93554
59.626
61.4358
63.0325
64.419
65.5933
66.5595
67.3183
67.8754
68.2292
68.3751
68.3522
68.2209
67.947
67.4896
66.8626
66.0759
65.1232
64.0109
62.7475
61.345
59.8135
58.1623
56.4042
54.5494
52.608
50.593
48.5147
46.3857
44.2171
42.0224
39.8136
37.6039
35.4059
33.2332
31.0983
29.0149
26.9953
25.052
23.1977
21.4486
19.8192
18.3225
16.9684
15.7651
14.7231
13.8504
13.151
12.6244
12.2633
12.0534
11.9666
11.9604
11.9685
11.8996
11.6193
10.9734
9.97299
8.8698
7.87153
7.00424
6.18016
58.8232
60.5788
62.1282
63.4769
64.6193
65.5629
66.3041
66.8513
67.1981
67.3435
67.3379
67.2361
66.9842
66.5561
65.9595
65.2071
64.2957
63.2357
62.0307
60.6925
59.2305
57.6515
55.9707
54.1968
52.3381
50.4095
48.4191
46.3801
44.3018
42.1985
40.0805
37.9614
35.8523
33.7668
31.7163
29.7144
27.7724
25.9026
24.1162
22.4272
20.8478
19.3904
18.0644
16.8768
15.8337
14.941
14.201
13.6107
13.1616
12.8384
12.6146
12.4512
12.2918
12.0632
11.6738
11.0367
10.158
9.17377
8.22228
7.3484
6.52101
58.0451
59.745
61.2435
62.5539
63.6616
64.582
65.3036
65.8407
66.1798
66.3296
66.3405
66.2656
66.0339
65.6351
65.0685
64.3524
63.4814
62.4738
61.3258
60.0519
58.66
57.1525
55.5498
53.8578
52.0818
50.2414
48.3395
46.3921
44.4044
42.3938
40.3671
38.3396
36.3192
34.3213
32.3546
30.4341
28.5689
26.7715
25.0502
23.4189
21.887
20.4668
19.1657
17.9898
16.943
16.0274
15.245
14.5912
14.0563
13.6261
13.2757
12.9712
12.667
12.3089
11.8365
11.2011
10.4039
9.51589
8.62057
7.76114
6.93379
57.2676
58.9102
60.355
61.6266
62.6981
63.5964
64.2987
64.8256
65.1578
65.316
65.3427
65.2924
65.0806
64.7105
64.1737
63.495
62.6647
61.71
60.6174
59.4088
58.0889
56.6531
55.1297
53.52
51.8265
50.0764
48.2643
46.4101
44.5135
42.5972
40.6629
38.7278
36.796
34.8858
33.0021
31.1629
29.3742
27.6482
25.9897
24.4138
22.9265
21.5415
20.2634
19.0968
18.0438
17.1047
16.281
15.566
14.9498
14.4214
13.9577
13.5311
13.1055
12.6425
12.1025
11.4575
10.706
9.88446
9.04122
8.2072
7.39084
56.4788
58.0692
59.4523
60.6901
61.7179
62.5993
63.2786
63.7989
64.1228
64.2976
64.3339
64.3094
64.1143
63.7751
63.2654
62.6266
61.833
60.9398
59.8941
58.7537
57.5109
56.1411
54.7067
53.1789
51.5602
49.9078
48.1835
46.4279
44.6181
42.8014
40.9574
39.1188
37.2728
35.4524
33.6466
31.8901
30.1763
28.5239
26.9237
25.4029
23.9537
22.6031
21.3452
20.1897
19.1291
18.1654
17.3062
16.5358
15.8442
15.2306
14.6674
14.139
13.6118
13.0641
12.4658
11.8041
11.0724
10.2929
9.4864
8.6783
7.87886
55.7197
57.3659
58.5893
59.8978
60.7732
61.7141
62.2658
62.872
63.1093
63.3976
63.3439
63.4218
63.1659
62.9445
62.3871
61.8596
61.0029
60.2725
59.2245
58.1601
57.0284
55.6205
54.345
52.93
51.3
49.8191
48.1133
46.5233
44.7288
43.0707
41.2549
39.5645
37.7572
36.075
34.2923
32.6568
30.975
29.4333
27.8527
26.4215
24.9687
23.6791
22.4195
21.2854
20.2194
19.2145
18.3362
17.5144
16.7465
16.0771
15.4167
14.8165
14.1937
13.5861
12.9269
12.2538
11.5183
10.7741
9.98355
9.18796
8.40904
4.30624
3.58187
2.90329
2.21732
1.53015
0.881773
0.284689
-0.251971
-0.706952
-1.07247
-1.34445
-1.52856
-1.6281
-1.63649
-1.58221
-1.48998
-1.3739
-1.25292
-1.14162
-1.04788
-0.974342
-0.916543
-0.871621
-0.836067
-0.806618
-0.771372
-0.734842
-0.689912
-0.633548
-0.565081
-0.481434
-0.381997
-0.267471
-0.137526
0.00425044
0.157362
0.317649
0.48086
0.64328
0.799683
0.945232
1.074
1.18501
1.27439
1.33851
1.37735
1.38989
1.37735
1.34052
1.28243
1.207
1.11748
1.01673
0.910104
0.798233
0.683732
0.568486
0.449481
0.314689
0.144453
-0.0429279
4.89141
4.20424
3.58561
2.94621
2.28879
1.67177
1.10426
0.589025
0.152293
-0.194784
-0.447522
-0.602898
-0.661306
-0.638555
-0.563447
-0.461224
-0.343387
-0.225643
-0.120491
-0.0344641
0.031607
0.0808055
0.116027
0.141813
0.156915
0.181466
0.203068
0.233916
0.274233
0.326615
0.393195
0.475071
0.572425
0.68466
0.809953
0.945574
1.08826
1.23461
1.38062
1.52231
1.65521
1.77479
1.87665
1.95726
2.01408
2.04594
2.05236
2.03352
1.99057
1.92587
1.84249
1.74384
1.63287
1.51527
1.39199
1.26687
1.13782
1.00631
0.866134
0.712172
0.539284
5.13381
4.45183
3.82079
3.13269
2.42381
1.78855
1.19995
0.648437
0.174393
-0.211191
-0.507481
-0.713065
-0.830335
-0.875034
-0.850249
-0.776782
-0.661219
-0.527904
-0.40967
-0.313944
-0.240864
-0.187069
-0.147349
-0.118507
-0.0873659
-0.0643875
-0.0317817
0.00597177
0.0534294
0.112222
0.184407
0.271092
0.3723
0.487132
0.613872
0.750159
0.892908
1.03841
1.18264
1.32122
1.44966
1.56388
1.66024
1.73544
1.78696
1.8136
1.81502
1.79214
1.74656
1.68102
1.59868
1.50354
1.39925
1.28944
1.17654
1.06257
0.946945
0.826219
0.693732
0.540302
0.357065
5.40273
4.70968
4.04811
3.3418
2.63407
1.99946
1.39361
0.817552
0.339147
-0.0401343
-0.335588
-0.536488
-0.638863
-0.657721
-0.5989
-0.476745
-0.334522
-0.223155
-0.115876
-0.0201202
0.0563451
0.113502
0.153528
0.181357
0.203043
0.218964
0.238345
0.262327
0.294203
0.336321
0.391062
0.46003
0.543747
0.641378
0.75155
0.871821
0.999392
1.13085
1.26256
1.39045
1.51026
1.6181
1.71034
1.78404
1.83672
1.86727
1.8751
1.861
1.82613
1.77299
1.70366
1.62149
1.52892
1.42876
1.32198
1.21056
1.09592
0.978457
0.85579
0.722212
0.567676
5.7403
5.01823
4.32359
3.60786
2.89828
2.23789
1.6049
1.02255
0.54298
0.149319
-0.172564
-0.389061
-0.501301
-0.537409
-0.503445
-0.418184
-0.313867
-0.190896
-0.082003
0.0137551
0.0865587
0.14057
0.179842
0.209658
0.233376
0.253575
0.275014
0.30099
0.333408
0.374151
0.425747
0.490023
0.567435
0.657368
0.758579
0.869071
0.986121
1.10691
1.22802
1.34589
1.45635
1.5561
1.64144
1.71001
1.75907
1.78774
1.79494
1.78166
1.74833
1.69744
1.6309
1.55207
1.46416
1.37004
1.27166
1.17154
1.07291
0.969734
0.856692
0.731622
0.594552
6.14037
5.38547
4.65784
3.93108
3.21535
2.53376
1.88498
1.28995
0.78237
0.357453
0.0211619
-0.200664
-0.331907
-0.391293
-0.365724
-0.278946
-0.168186
-0.0517196
0.0565055
0.139036
0.198758
0.244032
0.275908
0.300999
0.319063
0.334737
0.349613
0.369062
0.394259
0.426201
0.468382
0.52251
0.589178
0.667438
0.756543
0.854248
0.958449
1.0664
1.1752
1.28159
1.38146
1.47224
1.55006
1.61352
1.65935
1.68757
1.69639
1.68776
1.66119
1.61974
1.56461
1.49934
1.4266
1.34925
1.26994
1.18844
1.10164
1.01142
0.913307
0.802261
0.672443
6.59441
5.82144
5.06886
4.32879
3.60483
2.91258
2.25666
1.65422
1.1225
0.671216
0.31134
0.0584593
-0.105943
-0.177284
-0.154502
-0.0801128
0.0201753
0.126368
0.223104
0.293404
0.336637
0.367115
0.386641
0.404064
0.413572
0.422241
0.428385
0.440515
0.457415
0.478883
0.51076
0.553902
0.609508
0.6758
0.752391
0.837343
0.928287
1.02342
1.11985
1.21508
1.30438
1.38644
1.45669
1.51521
1.55756
1.58532
1.59551
1.59126
1.57097
1.53857
1.494
1.44128
1.38175
1.31722
1.25038
1.1823
1.11169
1.03793
0.95667
0.8628
0.748547
7.08979
6.31495
5.55331
4.81103
4.08273
3.39274
2.73975
2.14525
1.60829
1.14538
0.767931
0.488127
0.281025
0.180685
0.168338
0.207849
0.297637
0.373379
0.436904
0.490958
0.504602
0.513957
0.512439
0.521628
0.517062
0.518508
0.511874
0.516918
0.526687
0.533605
0.553681
0.585849
0.63243
0.687385
0.753077
0.825831
0.904866
0.988051
1.0734
1.15899
1.23867
1.31346
1.37628
1.43112
1.46921
1.49683
1.50696
1.50675
1.49048
1.46544
1.42771
1.38445
1.33625
1.28276
1.22801
1.17274
1.11639
1.05883
0.994007
0.918365
0.821052
7.61852
6.86248
6.09625
5.35788
4.63128
3.96178
3.3248
2.7753
2.24769
1.80435
1.44295
1.18009
0.896393
0.765219
0.719088
0.690115
0.74185
0.667068
0.668526
0.746175
0.700321
0.686966
0.640593
0.671144
0.627276
0.636675
0.592806
0.597374
0.610809
0.593431
0.588374
0.618653
0.663425
0.703874
0.760986
0.8237
0.889239
0.964763
1.04033
1.12536
1.18951
1.26862
1.31374
1.37689
1.39937
1.43647
1.43191
1.44953
1.42378
1.41314
1.37022
1.32917
1.29306
1.24965
1.20804
1.16343
1.11877
1.07938
1.02727
0.976537
0.889999
4.91325
-4.50344
-5.81707
14.8736
5.78718
19.4437
17.9931
10.7385
11.5603
29.0751
1.52948
23.7995
18.1026
2.61079
21.7367
-102.097
20.5572
12.0841
1.32895
17.4408
15.1097
3.00325
0.891299
20.1217
11.4658
17.092
17.5041
9.40512
20.3072
6.87724
10.4609
16.6754
28.4108
1.47893
23.0762
0.706033
0.614282
57.386
18.6443
17.5228
7.69726
-2.83759
18.0357
-88.0633
0.131142
31.6623
11.6103
3.05177
16.1813
25.4503
-3.82429
-45.7629
17.0801
9.54408
13.9317
16.2287
6.98476
7.5826
0.828333
-31.3695
3.66104
15.5239
17.1398
-8.13929
-25.7853
14.8807
0.722778
8.68145
18.8468
18.0925
15.394
59.5756
6.52959
13.4283
13.314
6.28597
-12.7175
44.5419
17.128
28.2037
-0.71916
16.5279
16.7267
-36.5483
17.9841
50.2673
12.0303
1.59977
15.3441
1.62817
-13.8487
17.1159
5.16384
-31.8123
-37.0419
5.66437
44.2261
9.98343
25.4563
-101.362
14.5074
16.1293
25.0218
17.0005
18.0951
16.9749
15.1062
39.6886
19.7505
-77.8527
-108.971
15.9419
0.277043
1.23907
5.81509
2.00584
0.98737
19.506
-7.62775
11.3279
12.9168
-0.103953
11.3124
-117.662
-26.6878
10.5686
15.3238
-47.0888
-34.8591
17.8413
21.2308
-7.97453
3.40482
10.999
2.47679
10.7991
17.9996
-53.0701
-30.886
11.6891
9.59496
-52.8265
14.8467
49.0096
1.33635
12.4909
16.631
1.355
31.7804
-0.850528
16.2303
16.2497
59.1755
-33.477
-59.1645
8.89587
8.30635
-27.8404
16.5932
0.64869
16.6742
26.3799
17.3727
12.5369
14.9327
13.2276
6.85749
9.64861
17.1188
0.0963632
-2.04631
1.49359
5.74694
17.3702
1.16921
1.21361
1.10393
8.88678
22.4313
1.5874
1.82677
-1.28953
-31.0387
9.75346
6.48832
0.56772
-10.4648
52.1304
9.85879
11.9082
25.4117
20.2212
-17.0341
-39.2014
16.6009
-31.6495
4.08523
0.344546
21.2948
0.718349
9.88119
15.0039
13.4856
-58.7308
-1.91776
20.8257
8.51396
16.0912
-45.4765
0.819502
41.2252
-5.83061
16.3716
-117.218
11.0723
-77.5565
-65.2379
1.75842
33.4108
1.67603
11.3978
40.1158
12.0191
16.7109
0.989288
-7.67801
-9.23483
11.75
16.9579
59.7911
1.23041
21.3936
-5.33996
-37.6041
13.6387
19.2739
3.16584
-57.175
-46.6295
19.2792
13.3319
8.68464
10.906
15.9466
-123.406
16.6362
8.31808
-98.4727
23.9119
17.242
8.86825
23.7213
1.245
8.46845
11.3676
18.645
25.3119
15.2371
6.5864
1.90682
15.6641
9.61175
-64.5278
18.534
0.612745
12.8097
17.5354
0.885502
17.5581
0.972752
24.0053
1.02513
22.8156
11.4233
52.9654
9.88861
14.3092
10.7925
15.9926
20.7054
50.2939
9.68829
-71.8716
15.3067
14.8997
18.6147
17.0318
-61.6701
7.98517
7.95226
-26.1106
40.5151
14.4297
16.9675
35.0757
17.4045
9.54472
5.00013
-1.01664
16.3447
10.9759
5.50234
48.6467
-3.76693
2.92136
-78.7375
21.8208
18.6361
19.3838
-100.509
9.79674
11.9386
11.5097
-12.4975
16.4524
14.1922
0.560413
1.11398
7.07322
1.86756
16.489
3.49342
15.2802
15.019
-26.8264
1.82306
15.4796
0.842949
-90.3838
6.4037
-27.1665
-44.4517
-101.127
2.08666
1.4412
16.8552
0.524896
0.650167
-124.005
35.0837
15.0523
14.8012
12.0236
11.5884
49.7462
11.2777
-9.30458
18.7641
-70.639
14.9778
1.23372
-45.3929
-113.669
10.7392
-61.75
8.69366
2.76426
14.4805
1.58876
2.44066
10.2698
0.227825
0.950546
-6.55862
0.898606
16.0787
6.81043
-113.725
-33.9055
3.86174
16.6026
-26.1626
-49.5669
12.6816
1.51744
15.7407
-5.9526
7.33526
1.42472
-73.7334
0.66956
-79.6806
20.2482
-89.1003
11.2778
4.79325
21.0585
1.16167
-117.218
-27.592
47.3924
50.1693
3.29215
0.627859
17.2407
30.2496
16.7486
-0.563522
12.0804
-10.1079
17.2685
18.8123
21.945
21.3884
-7.64488
-46.6916
12.0718
-82.8808
0.347833
-11.3685
1.79673
-61.8593
-2.17936
18.7606
-123.997
9.82487
9.43034
23.3922
-52.851
17.0554
18.1907
1.36126
17.7139
10.0332
14.3635
1.06155
35.8997
-26.1152
-51.5687
9.68433
-61.005
9.24687
-54.2727
16.839
15.696
0.875618
4.04491
-93.2177
-1.93596
1.57576
-10.8057
-61.9644
-59.5617
18.2918
3.84326
-41.4393
-50.0335
17.0658
2.65315
-32.0213
22.8475
13.0229
36.5694
-39.868
-0.250883
-9.62583
0.384486
9.11716
-89.8988
2.3529
10.4257
19.8596
47.0429
1.47459
44.0764
2.10494
17.4156
1.61578
1.36637
13.7555
12.366
-0.00127521
1.29321
16.806
2.48839
1.35367
2.59994
1.32269
1.91212
1.31288
8.32263
4.93883
15.8257
15.6867
-110.735
10.0129
-67.755
-106.807
16.1995
0.303882
2.24013
19.1
3.70397
1.23546
16.3192
16.9868
15.1343
5.38319
-37.5242
10.4749
26.5441
13.6561
13.9699
15.5471
5.54248
0.656378
13.5161
19.2176
9.61478
1.33375
13.8654
13.5973
-12.6948
12.7584
-0.543143
-3.34943
-4.21867
17.1645
19.9914
9.44812
22.434
3.43642
2.84632
48.7133
-22.0623
-5.56209
21.9212
8.34943
1.14938
1.37843
-80.1427
-27.3486
20.9456
3.20506
10.3966
0.611432
-21.0752
18.6698
12.2007
-27.2928
-82.3713
12.7327
-17.8302
-54.0868
4.64334
-105.285
9.36015
9.50431
9.14355
-32.2188
14.0259
-80.7418
-2.54762
13.0427
0.904417
17.2636
-0.269713
14.9643
12.8287
31.7726
2.89722
0.872495
14.8713
7.16591
0.710621
-46.5937
-30.6002
8.12056
-34.1418
4.79986
28.6985
1.39633
9.46592
-95.5479
9.97036
8.57582
14.4043
1.34137
52.1724
1.67887
8.12541
8.57843
1.27516
1.12235
13.6343
15.6857
15.9827
9.57755
10.277
29.2521
-76.2089
8.37815
17.8251
-32.0205
0.464587
-86.9676
13.6762
0.73411
17.6835
-55.1847
4.3122
-21.0015
0.903712
0.77613
2.77858
-105.905
20.5442
17.321
6.6002
16.0458
-26.9136
-22.3226
-6.3647
10.0667
9.12769
5.03767
16.3271
-0.20469
0.703997
16.2099
23.2228
1.31056
-58.2623
20.9293
1.56861
20.5189
-8.30425
17.2523
36.3499
6.78667
29.5483
18.5031
-30.0627
-21.5495
-4.76473
19.0613
10.635
-32.4153
16.1302
12.5543
4.62964
5.64163
0.711262
-30.9031
40.6891
3.58399
2.06192
0.895552
-89.4116
9.60545
23.3493
15.7101
0.839739
5.24253
-23.0658
14.4919
12.3712
6.0885
1.07488
-7.0746
15.2448
2.16483
11.0007
-21.042
1.21597
39.2237
0.904816
0.176232
8.35812
57.3141
17.033
16.7287
1.14622
10.2679
7.16157
8.89584
10.26
-115.711
1.79025
-34.8758
30.5608
17.5193
8.53454
19.3366
-6.20939
-10.853
1.16947
3.98009
1.32679
12.9228
-2.54515
18.5655
-88.474
16.7727
6.68265
2.08339
-3.44495
2.90048
-7.26266
10.6702
3.3421
0.567536
19.2334
-120.696
15.4221
17.0965
10.8413
-4.43427
18.8996
3.8904
-21.3149
15.5935
-14.1106
-97.3782
17.4933
8.94832
14.594
-63.1563
-6.4526
15.8016
42.8964
12.6213
9.12366
11.6225
-110.926
-125.967
16.5107
-1.5226
-11.8986
1.32935
17.7918
6.97071
-11.4006
13.7658
15.3709
-0.100825
18.537
19.6324
8.58259
14.8767
-3.00357
13.3794
-5.54768
23.1402
1.64627
-4.41274
42.677
1.06517
6.66845
21.9196
4.22995
-45.1989
24.4714
-83.6882
20.8854
1.1502
-19.6221
10.1869
-9.9324
0.697142
12.9327
13.1663
-93.5518
-40.0388
13.5269
-64.9925
-9.20277
53.6846
-16.3317
-20.3016
21.4999
0.717074
6.01409
11.8823
-55.487
-22.9716
-4.68128
-4.43751
-6.58675
0.92739
22.6222
19.0715
13.3775
-121.563
-44.4281
27.5308
2.17244
-112.08
11.1682
14.436
10.468
1.07009
4.83136
1.13198
-15.0953
21.3796
-121.171
-17.2459
-85.6974
-98.3073
18.8456
25.3489
-43.5929
26.1737
14.5358
12.2966
11.0527
10.3274
26.0719
17.9321
2.10446
-51.5608
-30.2459
24.5587
2.27799
3.56339
13.8288
1.39082
12.9418
-53.4711
1.17675
49.2363
2.4029
22.2941
11.5627
18.6003
15.7423
-76.7473
13.1933
44.7369
0.888679
0.839062
32.3012
61.1846
12.6334
13.2678
25.0691
-50.5732
-15.7746
17.2898
10.0915
-91.4092
27.4887
17.4126
-63.0253
15.7509
3.63085
1.31814
6.23296
-16.2887
53.8763
0.708261
-8.70163
-0.569111
17.8237
0.146153
9.59034
14.8331
17.2939
12.2741
0.895308
17.2868
0.607811
30.2144
0.172902
11.3266
10.3171
16.6729
8.48335
-49.8173
9.8158
18.1311
-29.6213
-70.7079
34.2252
1.45136
7.55608
16.7604
34.4615
-84.5312
9.54861
-3.07139
11.0945
16.3429
-88.2599
17.216
9.71407
50
29.9742
-19.5413
4.31792
15.8877
17.1573
-66.602
-4.65804
10.1921
14.885
1.1871
17.5189
-127.694
7.52995
0.752609
10.5981
18.7569
-0.230824
14.7328
23.0031
24.8401
4.57356
-0.898959
17.7606
20.6781
17.5058
20.3183
10.8397
18.1536
-70.4296
2.43784
18.1155
-25.6475
14.1304
7.14948
19.631
11.6812
-62.1293
10.8374
5.10991
18.8785
-20.7618
16.7377
-24.7258
-104.12
1.52749
1.08638
-47.654
16.1956
18.4194
-21.3853
-104.507
1.18666
-14.1966
15.9211
-82.5288
13.4197
16.6216
18.2474
-18.538
6.92667
9.51469
-28.7904
17.3675
8.56437
-84.8621
10.5289
-119.269
47.2129
11.7044
18.2358
6.41714
16.8179
-9.14348
-6.34591
20.1065
-18.5444
5.79329
12.8846
-38.1286
4.70298
17.5505
-49.2397
14.8822
1.91438
-67.3945
-14.1385
17.2168
19.3174
14.7734
62.1964
8.58241
-2.26552
-23.8523
15.651
-11.7591
15.4191
5.40132
15.5465
0.744768
9.92813
0.645618
-13.922
59.0165
7.39473
59.3818
7.22978
12.8519
3.95578
20.1897
-9.40802
17.8243
11.1686
1.38538
59.8786
16.8721
9.19305
-8.48296
0.590464
-108.855
15.8921
-5.62383
10.5986
-21.8952
-61.7772
0.964413
-73.3837
9.59748
2.78512
-25.7859
18.3583
15.7776
14.0934
12.3786
21.4476
16.224
12.7234
17.6383
1.17564
-68.2153
17.6288
20.2548
17.6818
8.00883
-72.9864
1.25333
-24.5693
15.7596
-43.3725
0.820273
25.0058
-67.2751
17.0432
0.700703
40.1364
1.35415
22.7816
4.10715
1.6307
16.023
10.5238
-107.278
13.741
-1.44755
-39.147
1.30644
15.8424
11.0438
30.9387
2.81971
1.10457
-79.0864
15.9218
16.4896
17.0261
-20.0334
-35.8588
13.9769
12.7041
15.1495
1.05429
1.53515
49.307
0.361515
-65.6777
2.10521
-58.9797
0.391654
0.571876
32.303
51.0577
13.0542
60.1591
45.5588
18.3643
17.61
6.30772
14.5394
18.5639
2.23364
1.80692
19.7002
1.66867
10.3207
19.1915
9.08148
18.5222
28.7938
1.42508
-5.52594
-120.715
17.8628
12.1446
-50.6175
7.73538
22.4242
14.0698
11.0071
2.14887
17.391
-2.20465
1.47054
30.4036
12.8481
0.636956
16.7933
17.4668
15.6573
5.80451
15.5529
17.0078
-3.56096
18.5318
20.6317
-76.4309
-28.884
-18.5742
14.7104
1.36458
-50.6547
17.074
1.41688
1.04243
-125.983
0.638268
16.7562
8.73041
31.3758
-1.06076
1.13343
9.19794
46.3856
1.51601
16.1795
1.0058
16.6409
53.9299
14.2365
-21.096
16.8283
0.898566
-69.4606
15.7194
42.3857
4.17781
13.0874
18.7604
29.5786
11.015
19.7356
1.91827
16.2065
10.7187
-123.154
4.38171
18.6501
19.9737
-64.9949
-82.277
16.7944
18.174
12.5143
11.3419
-59.5206
24.6273
-58.7616
17.8571
11.3558
17.3347
-12.0476
5.65514
17.4477
0.554846
1.33149
-89.2542
-62.22
8.27058
-2.87915
-74.6292
18.2832
18.4261
18.4721
7.51919
18.956
2.27242
18.2397
9.59969
-1.95554
-25.1804
2.45149
12.7675
1.26225
36.3442
16.7359
19.6536
-104.01
15.6071
15.5641
20.1091
12.509
-73.5779
-7.07893
1.66938
17.229
17.068
17.722
-4.32782
20.2621
-17.8844
8.40662
8.60085
13.5737
9.44653
15.6447
10.9546
10.6874
9.81066
-1.66181
-10.4817
2.78916
-86.6892
11.9219
16.7864
0.974266
-91.1785
41.2058
1.75658
23.7179
15.9772
13.1529
11.8915
16.7139
60.8208
-8.24638
0.859983
-94.8064
16.9279
27.9196
-37.1277
3.47587
-51.6734
1.19398
30.9635
1.31883
16.7084
-22.9548
-13.2724
-38.1205
-8.55402
17.8306
1.33619
7.7807
22.5246
13.2997
19.5688
8.8866
56.7777
20.5026
16.651
43.9247
10.8109
15.6853
18.47