/*--------------------------------*- C++ -*----------------------------------*\
| =========                 |                                                 |
| \\      /  F ield         | OpenFOAM: The Open Source CFD Toolbox           |
|  \\    /   O peration     | Version:  2.3.1                                 |
|   \\  /    A nd           | Web:      www.OpenFOAM.org                      |
|    \\/     M anipulation  |                                                 |
\*---------------------------------------------------------------------------*/
FoamFile
{
    version     2.0;
    format      ascii;
    class       volScalarField;
    location    "0.5";
    object      p;
}
// * * * * * * * * * * * * * * * * * * * * * * * * * * * * * * * * * * * * * //

dimensions      [0 2 -2 0 0 0 0];

internalField   nonuniform List<scalar> 
768
(
-0.039112
-0.0388898
-0.0390431
-0.0396447
-0.040337
-0.04063
-0.0403342
-0.0395227
-0.0384778
-0.0374777
-0.0366614
-0.0361228
-0.0370351
-0.0378818
-0.0393152
-0.0409343
-0.0421928
-0.0426191
-0.0419748
-0.0402595
-0.0379393
-0.0356715
-0.0339381
-0.0327959
-0.0354565
-0.0373415
-0.0397594
-0.0420541
-0.0436733
-0.04415
-0.0432217
-0.0409714
-0.0378491
-0.0346624
-0.032038
-0.0300257
-0.0329943
-0.0352526
-0.0378171
-0.0402194
-0.0418306
-0.0421681
-0.0410913
-0.0386951
-0.0354135
-0.0319401
-0.0287783
-0.0261413
-0.0298721
-0.0317465
-0.0338564
-0.0358342
-0.0370442
-0.0370062
-0.0356237
-0.0330627
-0.0297645
-0.0263036
-0.0231586
-0.0206825
-0.0266372
-0.0276906
-0.0289249
-0.0299405
-0.0301634
-0.0293349
-0.0274498
-0.0247268
-0.0215957
-0.0185559
-0.0160182
-0.0142291
-0.0239504
-0.0241395
-0.0243527
-0.0241864
-0.0232321
-0.0214092
-0.0189402
-0.0161518
-0.0134105
-0.0110543
-0.00930132
-0.00824817
-0.021951
-0.0214611
-0.0208391
-0.0196304
-0.0175771
-0.0148705
-0.0119549
-0.00924636
-0.00695831
-0.00525456
-0.00416429
-0.00368102
-0.0202789
-0.0193124
-0.0181375
-0.016127
-0.0132184
-0.0099403
-0.00686532
-0.00430202
-0.00241678
-0.00127196
-0.00070304
-0.000628959
-0.018572
-0.0175249
-0.0162899
-0.0137851
-0.010113
-0.00624447
-0.00310233
-0.000915615
0.000443712
0.00123516
0.00152621
0.00139684
-0.0161854
-0.0156981
-0.0152299
-0.0126187
-0.00817861
-0.00380303
-0.000654369
0.00128551
0.00236444
0.00286719
0.00294523
0.0027122
-0.0133132
-0.0142681
-0.014875
-0.0119271
-0.00690648
-0.00249167
0.000459076
0.00223471
0.00323824
0.00372263
0.00382949
0.00363778
-0.0358425
-0.0357523
-0.0358757
-0.0362689
-0.0370281
-0.0382015
-0.0395698
-0.0406647
-0.0411173
-0.0408138
-0.0400598
-0.0392981
-0.0321144
-0.0318143
-0.0318978
-0.0325092
-0.0338842
-0.0359286
-0.0382437
-0.0402333
-0.0411044
-0.0405491
-0.0390062
-0.0374947
-0.0285885
-0.0278848
-0.0279152
-0.0286421
-0.0300389
-0.0320509
-0.0344408
-0.0365557
-0.0375699
-0.0371756
-0.0358853
-0.0346463
-0.024243
-0.0232251
-0.0231529
-0.024017
-0.0255827
-0.0275651
-0.0295583
-0.0310753
-0.0317204
-0.0315907
-0.031257
-0.0310474
-0.0190852
-0.0185004
-0.0190563
-0.0206696
-0.0229329
-0.0252676
-0.0271056
-0.0280064
-0.0276764
-0.0265392
-0.0263226
-0.0272345
-0.0133257
-0.0134813
-0.0148445
-0.0172698
-0.0201769
-0.022795
-0.0246572
-0.0255463
-0.0250883
-0.0230162
-0.0212836
-0.0231666
-0.00797183
-0.00863556
-0.0103731
-0.0130344
-0.0160754
-0.0187722
-0.0205913
-0.0213767
-0.0211539
-0.0196952
-0.0175949
-0.0188778
-0.00382683
-0.00470794
-0.00640819
-0.0088062
-0.0114885
-0.0138576
-0.0154008
-0.016005
-0.0156557
-0.0144134
-0.0127225
-0.0132228
-0.00103009
-0.00195702
-0.00344038
-0.005378
-0.00747745
-0.00929885
-0.0104115
-0.0105473
-0.00959983
-0.00760019
-0.00516404
-0.00486158
0.000886438
-1.09297e-05
-0.00127024
-0.00278446
-0.0043347
-0.00559345
-0.00619217
-0.00578609
-0.00407854
-0.000917751
0.00328666
0.00573819
0.00220052
0.00140501
0.000364759
-0.000812243
-0.00194311
-0.00276075
-0.00294531
-0.00212991
0.000109033
0.00425901
0.0102537
0.0157816
0.00317152
0.00245561
0.00158325
0.000661556
-0.000173219
-0.000702769
-0.000660515
0.0002699
0.00249182
0.00667309
0.0136292
0.0222835
-0.0390556
-0.0388345
-0.0389895
-0.0395933
-0.0402883
-0.0405842
-0.0402905
-0.0394804
-0.0384361
-0.0374367
-0.0366211
-0.0360832
-0.0369782
-0.037826
-0.0392613
-0.040883
-0.0421456
-0.0425768
-0.0419362
-0.0402238
-0.0379041
-0.0356348
-0.0338994
-0.032757
-0.0353954
-0.0372807
-0.0396988
-0.0419954
-0.043619
-0.0441027
-0.0431807
-0.0409362
-0.0378163
-0.0346283
-0.0320025
-0.0299912
-0.0329288
-0.035185
-0.0377484
-0.0401522
-0.0417675
-0.0421107
-0.0410428
-0.0386542
-0.035377
-0.0319052
-0.0287448
-0.026109
-0.029803
-0.031674
-0.0337815
-0.0357593
-0.0369726
-0.0369406
-0.0355665
-0.0330136
-0.0297218
-0.0262656
-0.0231239
-0.0206497
-0.0265671
-0.027617
-0.0288485
-0.0298632
-0.0300886
-0.0292648
-0.0273864
-0.0246711
-0.0215474
-0.0185138
-0.0159808
-0.0141948
-0.0238809
-0.0240672
-0.0242788
-0.0241127
-0.0231603
-0.0213406
-0.0188766
-0.0160949
-0.0133604
-0.0110105
-0.00926287
-0.00821363
-0.0218818
-0.0213902
-0.0207681
-0.0195606
-0.0175099
-0.0148068
-0.0118941
-0.00919143
-0.00690921
-0.00521125
-0.00412618
-0.00364693
-0.0202084
-0.0192409
-0.0180675
-0.0160599
-0.0131547
-0.00988023
-0.00681064
-0.00425103
-0.0023691
-0.00122971
-0.000665546
-0.000595203
-0.018498
-0.0174519
-0.0162215
-0.0137216
-0.0100528
-0.00618691
-0.00304837
-0.000865686
0.000488198
0.00127612
0.00156354
0.00143083
-0.0161031
-0.0156207
-0.0151601
-0.0125569
-0.00812022
-0.00374701
-0.000601421
0.00133485
0.00240971
0.00290896
0.00298311
0.00274652
-0.0132156
-0.0141828
-0.014803
-0.0118624
-0.00684586
-0.00243413
0.000513289
0.00228509
0.00328455
0.00376498
0.00386789
0.00367258
-0.0358044
-0.0357162
-0.0358418
-0.0362377
-0.0369999
-0.0381764
-0.0395475
-0.040644
-0.0410978
-0.0407947
-0.0400408
-0.0392791
-0.0320768
-0.0317792
-0.0318662
-0.032482
-0.0338616
-0.0359107
-0.0382304
-0.0402228
-0.0410942
-0.040538
-0.0389929
-0.0374792
-0.028555
-0.0278524
-0.0278849
-0.0286155
-0.0300179
-0.0320368
-0.0344349
-0.0365562
-0.0375721
-0.0371756
-0.0358801
-0.0346361
-0.0242111
-0.0231929
-0.02312
-0.0239836
-0.0255497
-0.0275373
-0.0295391
-0.0310665
-0.0317202
-0.0315935
-0.0312555
-0.0310394
-0.0190525
-0.0184653
-0.0190163
-0.0206248
-0.0228861
-0.0252232
-0.0270683
-0.0279784
-0.0276595
-0.0265352
-0.0263252
-0.0272304
-0.0132922
-0.0134447
-0.0148021
-0.0172223
-0.0201284
-0.0227509
-0.0246205
-0.0255176
-0.0250666
-0.0230045
-0.0212863
-0.0231672
-0.0079385
-0.00859996
-0.0103332
-0.0129913
-0.0160337
-0.0187366
-0.0205632
-0.0213559
-0.0211399
-0.0196874
-0.0175963
-0.018884
-0.00379455
-0.00467473
-0.00637264
-0.00876945
-0.0114542
-0.0138297
-0.0153813
-0.0159937
-0.015653
-0.0144186
-0.0127365
-0.0132403
-0.000998489
-0.00192581
-0.00340873
-0.00534685
-0.00744943
-0.00927715
-0.0103982
-0.0105433
-0.00960673
-0.00761827
-0.00519342
-0.00489303
0.000918007
1.91243e-05
-0.00124141
-0.00275765
-0.0043119
-0.00557726
-0.00618495
-0.00578961
-0.0040939
-0.00094597
0.00324678
0.00569497
0.00223194
0.00143407
0.000391483
-0.000788657
-0.00192429
-0.00274885
-0.00294256
-0.00213829
8.79335e-05
0.00422424
0.0102062
0.0157299
0.00320297
0.00248394
0.00160834
0.000682691
-0.000157348
-0.000693943
-0.000660701
0.000258786
0.00246799
0.00663488
0.0135779
0.022225
-0.00600035
-0.0113607
-0.0124946
-0.00968552
-0.00534454
-0.00170016
0.000791248
0.00239687
0.0033821
0.0039127
0.00410768
0.00404616
-0.00259078
-0.00836758
-0.00954769
-0.00737337
-0.00416761
-0.00134013
0.00077677
0.00225754
0.00322985
0.00380123
0.00407966
0.00414333
-0.00114783
-0.00566208
-0.00687503
-0.00540562
-0.00325932
-0.00115485
0.000633534
0.00200786
0.00297413
0.00357092
0.0039271
0.00415746
-0.000502546
-0.00370434
-0.00516186
-0.00394401
-0.00257553
-0.00105016
0.000424237
0.00167471
0.00263338
0.00324096
0.00364257
0.00405505
0.00373228
0.00315146
0.00245428
0.00173045
0.00108473
0.000710876
0.000815581
0.00161399
0.00330272
0.00594727
0.00883292
0.00838798
0.00396114
0.00344508
0.00296121
0.00243559
0.00193922
0.00164302
0.00170356
0.00225174
0.00330191
0.00466119
0.00544238
0.00453645
0.00412119
0.00348657
0.00329137
0.00288534
0.00248937
0.00223415
0.00221431
0.0025068
0.00307404
0.00374787
0.00396
0.00318997
0.00431872
0.00310904
0.00344695
0.00309821
0.0027896
0.00255762
0.00247996
0.00260044
0.00283941
0.00308471
0.00300652
0.00217296
-0.00588569
-0.011256
-0.0124047
-0.00961068
-0.00527854
-0.0016388
0.000848667
0.00245004
0.00343084
0.00395701
0.00414757
0.00408181
-0.00246835
-0.00825488
-0.00945005
-0.00729265
-0.00409703
-0.00127498
0.000837418
0.00231355
0.00328106
0.00384752
0.00412107
0.00418001
-0.00103495
-0.0055585
-0.00677862
-0.00532227
-0.00318524
-0.00108647
0.00069713
0.00206674
0.00302791
0.00361921
0.00396991
0.00419504
-0.000397533
-0.00360459
-0.00506225
-0.00385917
-0.00249972
-0.000980071
0.000489368
0.00173535
0.00268894
0.00329084
0.0036867
0.00409365
0.00376396
0.00317936
0.00247827
0.00174987
0.0010985
0.000717526
0.000813454
0.00160136
0.00327808
0.00590883
0.00878378
0.00833128
0.00399325
0.00347287
0.00298446
0.0024538
0.00195152
0.00164818
0.00170019
0.00223843
0.0032774
0.00462434
0.00539565
0.0044842
0.00415358
0.00351395
0.00331381
0.00290255
0.0025006
0.00223828
0.00221018
0.00249327
0.00305012
0.00371301
0.00391565
0.00313803
0.00435164
0.00313668
0.00346905
0.00311473
0.00280013
0.00256117
0.00247554
0.00258716
0.00281648
0.00305156
0.00296325
0.00211884
)
;

boundaryField
{
    rotor
    {
        type            zeroGradient;
    }
    stator
    {
        type            zeroGradient;
    }
    AMI1
    {
        type            cyclicAMI;
        value           nonuniform List<scalar> 
48
(
-0.000414964
-0.00309705
-0.00450335
-0.00347116
-0.00228486
-0.000921273
0.000430873
0.00161187
0.00255445
0.00316422
0.00350883
0.00383946
0.00407478
0.00323892
0.00344471
0.00312492
0.00285446
0.00263936
0.00253808
0.00257539
0.00269003
0.00278555
0.00260139
0.00179101
-0.000311095
-0.00299753
-0.00440401
-0.00338591
-0.00220814
-0.000850271
0.000497014
0.00167344
0.0026108
0.003215
0.0035535
0.00387801
0.00410737
0.00326605
0.00346616
0.00314072
0.0028642
0.00264217
0.00253307
0.00256166
0.00266685
0.00275238
0.00255806
0.0017366
)
;
    }
    AMI2
    {
        type            cyclicAMI;
        value           nonuniform 0();
    }
    front
    {
        type            empty;
    }
    back
    {
        type            empty;
    }
    procBoundary3to2
    {
        type            processor;
        value           nonuniform List<scalar> 8(-0.00593038 -0.00253352 -0.00108606 -0.000436073 0.00844814 0.0046021 0.00325212 0.00222792);
    }
}


// ************************************************************************* //
