/*--------------------------------*- C++ -*----------------------------------*\
| =========                 |                                                 |
| \\      /  F ield         | OpenFOAM: The Open Source CFD Toolbox           |
|  \\    /   O peration     | Version:  2.3.1                                 |
|   \\  /    A nd           | Web:      www.OpenFOAM.org                      |
|    \\/     M anipulation  |                                                 |
\*---------------------------------------------------------------------------*/
FoamFile
{
    version     2.0;
    format      ascii;
    class       surfaceVectorField;
    location    "0.5";
    object      Uf;
}
// * * * * * * * * * * * * * * * * * * * * * * * * * * * * * * * * * * * * * //

dimensions      [0 1 -1 0 0 0 0];

internalField   nonuniform List<vector> 
1460
(
(-0.0103441 -0.129068 -8.31084e-21)
(0.00230536 -0.139256 2.93556e-21)
(-0.00499898 -0.111763 -3.2686e-20)
(0.0182922 -0.126251 -1.14009e-20)
(-0.00391723 -0.0914801 -1.06453e-19)
(0.018136 -0.10877 -2.18929e-20)
(-0.00807792 -0.0733586 -6.84336e-20)
(0.00933656 -0.091092 -8.65392e-20)
(-0.0162713 -0.0601745 1.93046e-20)
(-0.00389477 -0.0756536 1.31247e-19)
(-0.0273589 -0.0529088 0)
(-0.019031 -0.0643524 -7.85624e-20)
(-0.0405072 -0.0527967 4.13433e-20)
(-0.0370087 -0.057339 0)
(-0.0539281 -0.0584425 1.64536e-19)
(-0.0540215 -0.0567323 -2.68827e-20)
(-0.0652599 -0.0667052 -4.04665e-20)
(-0.0675077 -0.0630865 3.32748e-19)
(-0.0725084 -0.0742922 1.26418e-19)
(-0.0766615 -0.0738657 -3.08184e-19)
(-0.0759428 -0.0785566 3.72981e-21)
(-0.0831334 -0.0850953 2.12145e-19)
(-0.0941848 -0.0911251 -3.41503e-19)
(-0.0810955 -0.0786168 -1.19824e-19)
(0.027783 -0.138164 0)
(0.0211739 -0.156737 -1.27467e-20)
(0.0412154 -0.12249 0)
(0.0443935 -0.141688 -3.37121e-20)
(0.0353538 -0.106775 0)
(0.0391632 -0.130621 3.33318e-20)
(0.0186982 -0.0925361 1.1772e-19)
(0.0203559 -0.120112 0)
(-0.00272496 -0.0803309 3.8918e-20)
(-0.00373214 -0.108847 1.19689e-19)
(-0.0258643 -0.0705706 -8.0051e-20)
(-0.0293113 -0.0983025 7.80986e-20)
(-0.0488562 -0.0643457 -7.03021e-20)
(-0.0568494 -0.0879308 -1.57997e-19)
(-0.0689916 -0.0632047 1.51424e-19)
(-0.0814152 -0.0802772 -2.72716e-19)
(-0.0833756 -0.06923 6.68056e-20)
(-0.100818 -0.0788044 3.6025e-19)
(-0.092502 -0.0812494 -2.16304e-19)
(-0.114645 -0.0858778 -8.65337e-20)
(-0.105987 -0.0930735 -1.35425e-19)
(-0.12948 -0.0972119 -7.33485e-20)
(-0.151015 -0.105032 3.50829e-20)
(-0.127336 -0.100638 1.3024e-19)
(0.0442578 -0.154881 -4.97656e-20)
(0.0365157 -0.178348 -1.67392e-20)
(0.0497368 -0.148274 -2.21803e-21)
(0.0520453 -0.168057 -1.97318e-20)
(0.0317226 -0.143236 3.38987e-20)
(0.0359369 -0.169756 3.44138e-20)
(0.0050331 -0.13659 0)
(0.00996794 -0.168215 0)
(-0.0251637 -0.127857 1.62201e-19)
(-0.0204197 -0.162135 -7.19525e-20)
(-0.0564095 -0.119037 -1.05324e-21)
(-0.0537898 -0.152009 2.38277e-19)
(-0.085169 -0.110169 -3.77615e-19)
(-0.0865034 -0.140251 -1.63125e-19)
(-0.109231 -0.103793 -6.29446e-20)
(-0.116197 -0.128247 -2.20227e-19)
(-0.127817 -0.102669 2.04581e-19)
(-0.140982 -0.11973 2.53044e-19)
(-0.146452 -0.106659 6.10598e-20)
(-0.162554 -0.117984 6.01682e-21)
(-0.170354 -0.113033 1.01115e-19)
(-0.185813 -0.119829 -9.1153e-20)
(-0.208489 -0.122416 1.02651e-19)
(-0.193614 -0.119578 -9.28678e-20)
(0.0451009 -0.180508 1.15964e-20)
(0.0366565 -0.200778 2.80397e-21)
(0.0378581 -0.186812 1.52513e-20)
(0.0391759 -0.200398 3.72287e-21)
(0.0134542 -0.19141 0)
(0.0171611 -0.213403 0)
(-0.0161832 -0.190981 -7.30626e-20)
(-0.0105414 -0.218662 5.25729e-21)
(-0.0496198 -0.185621 6.44056e-22)
(-0.0434044 -0.21659 -2.35443e-19)
(-0.0849465 -0.17571 7.47474e-20)
(-0.0791437 -0.207328 1.92136e-19)
(-0.118704 -0.162796 0)
(-0.113909 -0.193647 -1.07558e-19)
(-0.148516 -0.150027 1.08999e-19)
(-0.14668 -0.177373 0)
(-0.174951 -0.139982 4.15382e-20)
(-0.175708 -0.161816 1.10516e-19)
(-0.200216 -0.133968 -1.57311e-19)
(-0.201447 -0.149455 -6.36592e-20)
(-0.223284 -0.131193 -9.25593e-20)
(-0.223967 -0.139691 -4.03369e-20)
(-0.241698 -0.132399 6.44254e-21)
(-0.242363 -0.13101 -3.05373e-20)
(0.0284079 -0.208047 -2.07734e-21)
(0.0216337 -0.220079 2.30376e-21)
(0.0142611 -0.224437 -1.19065e-20)
(0.0140761 -0.230406 -2.31451e-21)
(-0.0108463 -0.236155 5.33151e-21)
(-0.00847443 -0.249886 0)
(-0.0412039 -0.240625 -1.55391e-19)
(-0.0346288 -0.260193 9.78831e-20)
(-0.0758286 -0.237415 -4.61397e-20)
(-0.0661548 -0.261235 -1.56184e-19)
(-0.111897 -0.226475 6.15156e-21)
(-0.0998669 -0.253049 2.83455e-19)
(-0.146902 -0.209958 -1.09077e-19)
(-0.133331 -0.237477 -1.87068e-19)
(-0.178873 -0.190735 0)
(-0.165528 -0.21676 -7.09648e-21)
(-0.2064 -0.171661 0)
(-0.193759 -0.19394 8.10842e-21)
(-0.228461 -0.154644 5.42664e-20)
(-0.216379 -0.171613 7.29161e-21)
(-0.24464 -0.140235 6.07999e-20)
(-0.232445 -0.15106 3.64675e-20)
(-0.243203 -0.13288 1.27953e-19)
(-0.257435 -0.128662 -5.51269e-20)
(0.00420069 -0.231718 2.52103e-21)
(-0.00159333 -0.235993 -1.29001e-20)
(-0.0131176 -0.253663 9.87175e-21)
(-0.015154 -0.252646 9.98948e-21)
(-0.0364834 -0.270179 8.77354e-20)
(-0.0357414 -0.274213 0)
(-0.0633874 -0.278139 9.43346e-20)
(-0.0570795 -0.286197 6.02672e-20)
(-0.0942864 -0.275952 1.65409e-19)
(-0.0826514 -0.287917 5.05583e-21)
(-0.127005 -0.26347 8.0659e-20)
(-0.110024 -0.279668 7.29684e-20)
(-0.159102 -0.243578 -8.4775e-20)
(-0.138949 -0.262371 -6.64529e-20)
(-0.187662 -0.218757 5.23342e-21)
(-0.166662 -0.238366 -3.97402e-20)
(-0.210168 -0.191965 1.89584e-20)
(-0.189947 -0.210485 3.44958e-20)
(-0.225416 -0.165674 3.1651e-21)
(-0.206551 -0.181662 3.37018e-20)
(-0.234557 -0.141289 1.07164e-19)
(-0.216125 -0.154006 -3.2821e-20)
(-0.221062 -0.128227 9.37179e-20)
(-0.240891 -0.119255 -3.27446e-20)
(-0.0217185 -0.249088 -8.06385e-21)
(-0.0250948 -0.249376 -1.16594e-21)
(-0.039506 -0.271424 0)
(-0.0421485 -0.267739 0)
(-0.0581149 -0.287727 -2.88586e-20)
(-0.0583521 -0.286757 2.41421e-20)
(-0.0780558 -0.29507 -2.88586e-20)
(-0.0721404 -0.295618 -2.02702e-21)
(-0.101039 -0.291479 -8.60871e-20)
(-0.0884386 -0.294488 0)
(-0.126484 -0.278185 -7.08053e-20)
(-0.107982 -0.283979 -8.70451e-20)
(-0.151925 -0.256581 -7.89743e-21)
(-0.129942 -0.265437 5.46035e-20)
(-0.174229 -0.229142 6.39844e-21)
(-0.151531 -0.240364 -1.70956e-20)
(-0.190731 -0.198799 5.30437e-20)
(-0.169321 -0.21123 -3.72318e-20)
(-0.200556 -0.168248 -1.53512e-21)
(-0.181143 -0.18075 2.20056e-20)
(-0.205145 -0.139136 -4.0921e-20)
(-0.187017 -0.151042 -9.19717e-21)
(-0.18897 -0.122776 -3.38879e-20)
(-0.207037 -0.111667 3.61279e-20)
(-0.044265 -0.263385 7.41993e-21)
(-0.0457158 -0.261823 -4.0338e-21)
(-0.0602638 -0.28232 2.44138e-20)
(-0.0636964 -0.28163 5.71814e-21)
(-0.0720289 -0.293897 5.19583e-20)
(-0.073255 -0.295992 -1.87496e-20)
(-0.0829016 -0.295907 2.75445e-20)
(-0.0775239 -0.298625 2.78318e-20)
(-0.0963969 -0.288058 0)
(-0.0839363 -0.291058 0)
(-0.11304 -0.272155 3.96282e-20)
(-0.0953067 -0.275051 2.03256e-20)
(-0.131111 -0.249969 4.522e-20)
(-0.110713 -0.253298 1.92769e-20)
(-0.147657 -0.223062 -5.98479e-20)
(-0.126865 -0.227655 -1.60112e-20)
(-0.160099 -0.193547 -6.7618e-20)
(-0.140593 -0.199834 -5.60404e-20)
(-0.167488 -0.163765 1.35529e-20)
(-0.150092 -0.171421 -1.64949e-21)
(-0.170667 -0.135018 -1.97973e-21)
(-0.155118 -0.143838 1.54157e-20)
(-0.15683 -0.117399 -1.583e-20)
(-0.171074 -0.107331 -2.0125e-20)
(-0.0654093 -0.278577 -5.89569e-21)
(-0.0647165 -0.274486 -2.18689e-21)
(-0.0773816 -0.295436 -3.72951e-20)
(-0.0817602 -0.296208 9.60885e-22)
(-0.0796332 -0.301561 -4.30735e-20)
(-0.0805103 -0.302856 -2.39083e-20)
(-0.0793504 -0.29598 0)
(-0.0721896 -0.297018 -1.37792e-20)
(-0.083034 -0.280108 2.05398e-20)
(-0.068081 -0.282846 -7.28331e-21)
(-0.0924432 -0.257856 -3.28979e-21)
(-0.0733374 -0.26217 1.01717e-20)
(-0.105296 -0.232327 -4.63651e-20)
(-0.0852492 -0.237226 -1.08116e-20)
(-0.118077 -0.205445 -1.77042e-20)
(-0.099037 -0.210449 -2.61494e-20)
(-0.128535 -0.178713 1.60621e-20)
(-0.111481 -0.183423 2.7308e-21)
(-0.135677 -0.152684 5.85209e-22)
(-0.120455 -0.157422 -8.96374e-22)
(-0.139604 -0.127592 1.33028e-21)
(-0.125865 -0.13317 -4.21583e-21)
(-0.128564 -0.11045 5.3656e-21)
(-0.140819 -0.103201 8.82396e-21)
(-0.0793589 -0.293543 4.72539e-21)
(-0.0815832 -0.281429 1.03943e-20)
(-0.0845965 -0.30403 1.44239e-20)
(-0.0911544 -0.296816 -1.31081e-20)
(-0.0739771 -0.300796 5.43068e-21)
(-0.0734606 -0.286172 1.15224e-20)
(-0.0622599 -0.287182 -1.6663e-20)
(-0.0516898 -0.269387 -1.40448e-20)
(-0.0591216 -0.266697 -1.803e-20)
(-0.040423 -0.252659 9.35374e-21)
(-0.0656191 -0.242197 -3.85428e-22)
(-0.0436721 -0.234261 -1.51777e-20)
(-0.0776638 -0.215665 9.95689e-21)
(-0.0559487 -0.213233 1.49538e-20)
(-0.0907074 -0.188751 -6.95151e-21)
(-0.0709314 -0.190611 -3.84189e-21)
(-0.101552 -0.162701 -1.4528e-20)
(-0.0845474 -0.167397 -1.42249e-20)
(-0.109076 -0.138521 -5.75969e-21)
(-0.0947004 -0.144525 2.81117e-22)
(-0.113765 -0.116712 9.6272e-23)
(-0.101455 -0.122665 -1.00826e-20)
(-0.10518 -0.102467 -3.10177e-21)
(-0.11609 -0.0964442 3.61164e-21)
(-0.0968216 -0.28706 -8.21607e-21)
(-0.0795315 -0.281016 3.4018e-21)
(-0.0817456 -0.276737 -1.81994e-20)
(-0.0784315 -0.264227 -1.16302e-20)
(-0.0512034 -0.258243 -8.07829e-21)
(-0.0450948 -0.2302 3.33099e-21)
(-0.0294411 -0.23948 1.86824e-20)
(-0.0175174 -0.206494 0)
(-0.0247262 -0.221668 1.42369e-20)
(-0.00689465 -0.194273 1.4714e-20)
(-0.0335866 -0.204603 -1.37342e-21)
(-0.0135677 -0.184516 -4.04692e-21)
(-0.048755 -0.187173 1.07269e-21)
(-0.0289084 -0.173088 6.64822e-21)
(-0.0643114 -0.168691 -1.36156e-20)
(-0.0458448 -0.159718 6.8507e-21)
(-0.0771153 -0.149014 -1.08376e-21)
(-0.0606144 -0.144775 2.56471e-21)
(-0.086266 -0.128847 -5.26652e-21)
(-0.0718889 -0.12862 -5.49876e-21)
(-0.0919705 -0.108959 -1.33701e-20)
(-0.0797554 -0.111711 -2.21245e-21)
(-0.084744 -0.0947067 0)
(-0.0951848 -0.0901492 -1.97613e-20)
(-0.0492022 -0.258992 6.00035e-22)
(-0.0386293 -0.181177 3.46056e-21)
(-0.0349876 -0.213886 1.11356e-20)
(-0.0306208 -0.156441 -8.27216e-21)
(-0.00808944 -0.183012 1.45072e-20)
(-0.000999438 -0.132008 1.9443e-20)
(0.00745779 -0.166057 -4.16902e-21)
(0.0177443 -0.124755 0)
(0.0062449 -0.158372 -2.91948e-21)
(0.0189691 -0.128092 -4.20379e-21)
(-0.0067469 -0.152609 2.65349e-21)
(0.00725827 -0.131272 2.49974e-21)
(-0.0241882 -0.145214 8.48954e-21)
(-0.00968113 -0.130071 -3.99997e-21)
(-0.0409748 -0.135552 1.63464e-20)
(-0.0264552 -0.124701 6.3299e-21)
(-0.054832 -0.124034 -3.72571e-21)
(-0.0405501 -0.116344 1.01528e-20)
(-0.0652627 -0.111139 -1.5457e-21)
(-0.0513094 -0.105953 2.10258e-20)
(-0.072496 -0.0971722 1.22489e-20)
(-0.0590014 -0.0941794 -7.80884e-21)
(-0.0770922 -0.082528 9.66809e-21)
(-0.0642471 -0.0815409 -1.35447e-20)
(-0.0915837 -0.0731802 1.66201e-19)
(-0.109146 -0.0925182 3.60026e-19)
(-0.102955 -0.0648907 3.75935e-20)
(-0.122755 -0.0917929 -6.60483e-20)
(-0.108473 -0.0591861 1.18529e-19)
(-0.131638 -0.090381 -3.86971e-20)
(-0.106881 -0.0570646 8.09355e-20)
(-0.134973 -0.0878921 1.36543e-19)
(-0.0995316 -0.0535622 -4.30533e-20)
(-0.133872 -0.0872228 1.3333e-19)
(-0.0908764 -0.0463426 2.54191e-21)
(-0.13098 -0.0803445 -1.7702e-19)
(-0.0846429 -0.0359862 -8.24343e-20)
(-0.126647 -0.0657648 4.11781e-20)
(-0.0830744 -0.023441 -1.09272e-19)
(-0.121563 -0.0464718 -1.00343e-19)
(-0.088242 -0.0101195 6.23616e-23)
(-0.117414 -0.023525 1.07916e-19)
(-0.101342 0.00294374 -1.1337e-20)
(-0.115854 0.00078217 -6.43238e-20)
(-0.119108 0.013479 -1.08259e-20)
(-0.123031 0.01839 1.3196e-20)
(-0.132049 0.0220712 3.70019e-21)
(-0.146126 -0.107124 1.27049e-19)
(-0.171843 -0.111818 1.31374e-20)
(-0.156776 -0.113803 -1.33519e-19)
(-0.187037 -0.119423 -1.12487e-19)
(-0.162396 -0.117702 -5.59406e-21)
(-0.198528 -0.125998 2.01116e-20)
(-0.165341 -0.116409 1.94981e-19)
(-0.207235 -0.130678 -7.00166e-20)
(-0.167047 -0.110991 4.12695e-21)
(-0.213772 -0.132667 1.38128e-19)
(-0.165172 -0.0992763 -1.38839e-19)
(-0.216112 -0.130777 -3.76974e-20)
(-0.159527 -0.0788326 2.92755e-20)
(-0.21327 -0.119726 -1.33303e-19)
(-0.152217 -0.0503836 1.18385e-19)
(-0.204915 -0.0968768 3.91831e-20)
(-0.14624 -0.0189032 4.43535e-20)
(-0.190588 -0.0612975 8.8124e-20)
(-0.143876 0.00933416 -3.52705e-20)
(-0.17035 -0.0190213 -4.30288e-20)
(-0.146375 0.0245726 3.00184e-20)
(-0.15595 0.0167459 2.01288e-20)
(-0.149324 0.0261452 2.46416e-20)
(-0.212175 -0.12673 -2.41722e-19)
(-0.227197 -0.126977 -2.26694e-19)
(-0.228881 -0.134156 4.22074e-20)
(-0.244315 -0.133275 1.69995e-20)
(-0.244394 -0.141395 -4.1287e-20)
(-0.261695 -0.14111 9.24389e-20)
(-0.256491 -0.148088 -1.32344e-19)
(-0.27743 -0.150588 -9.37718e-20)
(-0.26366 -0.151832 1.01966e-19)
(-0.28959 -0.159783 0)
(-0.264464 -0.148475 -2.35938e-20)
(-0.296216 -0.167855 2.80156e-20)
(-0.257471 -0.133634 -1.29456e-19)
(-0.296427 -0.168798 -9.70623e-20)
(-0.241625 -0.103589 0)
(-0.287659 -0.15738 3.86017e-20)
(-0.217791 -0.0589593 0)
(-0.266855 -0.12761 0)
(-0.191746 -0.0107463 1.7734e-20)
(-0.233518 -0.0775895 2.22719e-20)
(-0.172537 0.0176712 1.73523e-20)
(-0.194237 -0.0185562 -1.96697e-20)
(-0.164649 0.0143574 9.32776e-21)
(-0.260175 -0.133528 3.73873e-20)
(-0.256953 -0.127737 -9.09939e-20)
(-0.278811 -0.139028 6.7617e-20)
(-0.273216 -0.126056 1.1831e-19)
(-0.296832 -0.148009 3.65343e-20)
(-0.290025 -0.128924 -4.45018e-20)
(-0.31238 -0.160128 3.65343e-20)
(-0.305402 -0.137483 -1.24815e-20)
(-0.323631 -0.173174 -7.66647e-20)
(-0.318253 -0.151215 0)
(-0.32953 -0.184031 -4.39459e-20)
(-0.327851 -0.168168 -9.62229e-21)
(-0.327742 -0.187284 7.30588e-20)
(-0.333486 -0.183859 -2.92818e-20)
(-0.314562 -0.175481 3.91972e-20)
(-0.332715 -0.193533 7.26385e-20)
(-0.285875 -0.141078 2.26155e-20)
(-0.320297 -0.188703 -3.22493e-20)
(-0.241645 -0.0827431 -1.64623e-20)
(-0.290709 -0.15803 3.7646e-20)
(-0.195989 -0.0206196 -2.68192e-20)
(-0.243219 -0.091838 -4.75315e-20)
(-0.189568 -0.00885899 2.04654e-20)
(-0.270324 -0.120312 -9.55137e-21)
(-0.252685 -0.117035 -2.11023e-19)
(-0.283845 -0.116502 5.32393e-21)
(-0.262962 -0.104595 4.90958e-20)
(-0.296937 -0.119323 -9.53536e-20)
(-0.272998 -0.0981004 3.59056e-20)
(-0.309066 -0.130064 -5.02236e-20)
(-0.28191 -0.0999069 -5.08885e-21)
(-0.320047 -0.148026 6.90712e-20)
(-0.289609 -0.110938 0)
(-0.329688 -0.170221 5.72325e-21)
(-0.297009 -0.13046 6.99585e-20)
(-0.336976 -0.192358 -3.22112e-20)
(-0.30629 -0.155078 -3.65536e-20)
(-0.338667 -0.208223 -9.491e-24)
(-0.315771 -0.181153 3.37886e-20)
(-0.327645 -0.205909 -1.77811e-20)
(-0.320968 -0.203625 -3.31247e-20)
(-0.294199 -0.166996 6.05532e-21)
(-0.313368 -0.210544 2.37812e-21)
(-0.237049 -0.0801796 -7.26014e-23)
(-0.285936 -0.175509 -1.99782e-20)
(-0.233511 -0.0635493 3.66685e-21)
(-0.246734 -0.0999805 -1.45211e-19)
(-0.2247 -0.104208 -9.08397e-20)
(-0.251903 -0.085357 8.10163e-20)
(-0.227817 -0.0831542 -4.05141e-20)
(-0.255795 -0.0783949 1.34662e-19)
(-0.229645 -0.0680517 8.44699e-20)
(-0.258882 -0.0813078 5.11877e-20)
(-0.230307 -0.0621321 7.96531e-20)
(-0.262975 -0.0944808 0)
(-0.230915 -0.0668682 -3.58737e-20)
(-0.270647 -0.116991 3.02486e-20)
(-0.233992 -0.0816212 5.31929e-20)
(-0.282329 -0.146386 3.02486e-20)
(-0.241745 -0.1051 -5.72359e-20)
(-0.296628 -0.17998 0)
(-0.254956 -0.135273 0)
(-0.309118 -0.211659 -1.39061e-20)
(-0.271674 -0.17019 0)
(-0.308226 -0.219519 -2.50453e-20)
(-0.285128 -0.205854 -3.34844e-20)
(-0.273811 -0.157262 -1.80879e-20)
(-0.289815 -0.221011 -8.17993e-21)
(-0.271911 -0.138866 3.6451e-21)
(-0.207436 -0.0858932 9.73734e-21)
(-0.189052 -0.0957222 5.07657e-20)
(-0.206151 -0.0637186 -3.89216e-20)
(-0.187539 -0.0705303 -3.58209e-20)
(-0.20335 -0.0486232 2.81911e-20)
(-0.184155 -0.0497171 6.57695e-21)
(-0.200391 -0.0437911 -8.11558e-21)
(-0.179674 -0.036836 1.66867e-20)
(-0.199519 -0.0504001 1.75282e-20)
(-0.176014 -0.0345983 1.00401e-21)
(-0.202771 -0.0672559 -2.78562e-20)
(-0.175935 -0.0437001 5.44339e-20)
(-0.212351 -0.0924295 -8.81324e-20)
(-0.181152 -0.0620661 -8.91131e-20)
(-0.228263 -0.125135 0)
(-0.1937 -0.0893215 -1.93702e-20)
(-0.249604 -0.167169 -1.96467e-20)
(-0.212254 -0.123531 3.80232e-21)
(-0.272484 -0.212297 -1.40178e-20)
(-0.232783 -0.165518 1.21943e-20)
(-0.27662 -0.205609 1.44719e-20)
(-0.256761 -0.213511 7.96519e-22)
(-0.281663 -0.193441 1.27367e-20)
(-0.169298 -0.0804977 2.66388e-21)
(-0.15627 -0.0916964 1.10196e-21)
(-0.165337 -0.0556841 8.83469e-21)
(-0.153577 -0.0667634 7.41498e-21)
(-0.159685 -0.0357303 -3.13394e-21)
(-0.148703 -0.044075 -8.22791e-21)
(-0.153997 -0.024085 2.39777e-20)
(-0.142446 -0.0264828 7.94629e-22)
(-0.150912 -0.0232208 3.15782e-20)
(-0.136796 -0.0171234 2.50516e-21)
(-0.153058 -0.0337238 0)
(-0.134595 -0.0181045 1.73321e-20)
(-0.161437 -0.0547923 -1.95882e-20)
(-0.138366 -0.0298431 -1.10676e-20)
(-0.176938 -0.0844552 -1.63416e-20)
(-0.149388 -0.0517266 -1.93487e-20)
(-0.197557 -0.121107 3.6953e-20)
(-0.16687 -0.0841754 3.23825e-20)
(-0.223666 -0.169836 2.81577e-20)
(-0.188971 -0.124656 2.08557e-20)
(-0.253594 -0.204679 -3.72786e-21)
(-0.217958 -0.176315 -2.34592e-21)
(-0.270063 -0.20351 1.93359e-22)
(-0.139594 -0.0791076 5.50742e-21)
(-0.129104 -0.0884796 4.48864e-21)
(-0.135966 -0.0556731 -1.10693e-20)
(-0.127533 -0.0667278 5.76131e-21)
(-0.130314 -0.0345371 -7.67581e-21)
(-0.123762 -0.0456054 -1.51351e-20)
(-0.12395 -0.0184012 -2.11486e-20)
(-0.118219 -0.0267089 1.54171e-21)
(-0.11921 -0.0101686 -1.47609e-20)
(-0.112314 -0.0125608 -1.80418e-20)
(-0.118853 -0.0118733 6.33055e-21)
(-0.108385 -0.00585345 1.76867e-20)
(-0.125086 -0.0246073 -1.18188e-20)
(-0.109259 -0.0086619 -1.43444e-20)
(-0.138895 -0.0486994 2.49415e-20)
(-0.116883 -0.0223175 2.37918e-21)
(-0.161155 -0.0840745 1.66523e-20)
(-0.132849 -0.0480167 2.54159e-20)
(-0.190007 -0.12826 -1.05572e-20)
(-0.156939 -0.0859338 -8.60012e-21)
(-0.229156 -0.173643 2.0412e-22)
(-0.191108 -0.133038 1.38202e-21)
(-0.252709 -0.174276 -3.81889e-21)
(-0.116353 -0.0767469 6.17143e-21)
(-0.106805 -0.0835913 -1.51803e-20)
(-0.114552 -0.0571037 3.71765e-22)
(-0.106724 -0.0654196 -1.18156e-21)
(-0.110735 -0.0379139 -6.63773e-21)
(-0.104915 -0.0475547 1.28819e-21)
(-0.105517 -0.0206522 2.83639e-21)
(-0.1014 -0.0302776 -1.37725e-20)
(-0.100405 -0.00768068 1.22498e-20)
(-0.0967654 -0.0148378 2.20411e-20)
(-0.0977178 -0.00165087 -3.08056e-21)
(-0.0924262 -0.00338998 -4.20887e-21)
(-0.10008 -0.00493688 7.76113e-23)
(-0.0907458 0.0014419 2.40774e-21)
(-0.110146 -0.0194587 1.94546e-21)
(-0.0943234 -0.00283113 -7.62186e-21)
(-0.131073 -0.0467163 0)
(-0.106644 -0.0180853 9.33414e-22)
(-0.164859 -0.0863018 0)
(-0.129519 -0.0461957 0)
(-0.212528 -0.128176 -2.66919e-21)
(-0.169589 -0.085551 0)
(-0.235205 -0.11826 2.44295e-21)
(-0.0966256 -0.072607 -1.8843e-20)
(-0.0876426 -0.0781137 -1.02958e-20)
(-0.0965584 -0.0560176 8.01813e-22)
(-0.0889314 -0.0621951 4.38547e-21)
(-0.0949521 -0.0399261 -6.67952e-21)
(-0.0888066 -0.0469395 -1.05843e-20)
(-0.0918915 -0.024352 3.35556e-21)
(-0.0873386 -0.0321381 -6.31596e-21)
(-0.087957 -0.0102893 7.18051e-21)
(-0.0846722 -0.0179022 9.70572e-21)
(-0.084535 0.000234185 7.42297e-22)
(-0.0813195 -0.0051749 -4.28554e-21)
(-0.0839633 0.00454737 -3.14973e-21)
(-0.0786759 0.00414148 7.96816e-21)
(-0.0896888 0.000109158 -8.70939e-21)
(-0.0790729 0.00763181 -9.78337e-21)
(-0.106218 -0.0150389 9.42147e-22)
(-0.0866336 0.00315934 9.50419e-22)
(-0.140329 -0.0408097 0)
(-0.105075 -0.0104111 0)
(-0.198945 -0.0673088 7.44226e-21)
(-0.145317 -0.0322848 0)
(-0.210932 -0.0411086 7.99358e-21)
(-0.0796739 -0.0676635 1.32764e-20)
(-0.0678235 -0.0684942 1.54479e-20)
(-0.0807874 -0.0531194 -7.43985e-21)
(-0.0704069 -0.0555241 -2.06197e-21)
(-0.0806972 -0.0391239 -1.02521e-20)
(-0.0721588 -0.0429857 -4.0624e-21)
(-0.0795238 -0.0256147 -8.45015e-22)
(-0.072992 -0.0307644 2.72427e-21)
(-0.0773628 -0.012679 -4.21166e-22)
(-0.0727595 -0.018694 -2.70056e-21)
(-0.0746592 -0.00108408 3.07297e-21)
(-0.0713808 -0.00695398 0)
(-0.0727633 0.00749552 1.48742e-21)
(-0.0693139 0.0036111 7.09673e-21)
(-0.0744995 0.0110505 -1.58555e-21)
(-0.0679654 0.0115031 -2.37908e-21)
(-0.084632 0.00854927 0)
(-0.0705125 0.0153513 0)
(-0.113203 0.00250243 0)
(-0.0807124 0.0169387 -7.14555e-21)
(-0.176556 0.0089983 -4.5447e-21)
(-0.105179 0.0214603 4.66622e-21)
(-0.140009 0.0628384 -4.99702e-21)
(0.129053 -0.010324 -6.52594e-21)
(0.139254 0.00233366 2.46137e-20)
(0.111736 -0.0049703 -3.35927e-20)
(0.126236 0.018317 3.21254e-21)
(0.0914448 -0.00388208 6.38183e-20)
(0.108751 0.0181586 -1.75653e-20)
(0.0733131 -0.00803468 2.47931e-20)
(0.0910682 0.00936593 6.5005e-20)
(0.060116 -0.0162188 -1.67424e-19)
(0.0756216 -0.00385476 6.8855e-20)
(0.0528358 -0.0273 -1.68226e-19)
(0.0643073 -0.0189819 -1.71306e-19)
(0.0527078 -0.0404494 -4.16525e-20)
(0.0572762 -0.0369516 -4.2427e-20)
(0.0583483 -0.0538832 0)
(0.0566424 -0.053976 2.17849e-19)
(0.066622 -0.0652377 -1.21984e-19)
(0.0629759 -0.0674839 6.19383e-20)
(0.0742327 -0.0725129 -1.21984e-19)
(0.073754 -0.0766587 -5.15023e-20)
(0.0785196 -0.0759556 0)
(0.0850068 -0.083116 -5.76597e-21)
(0.091074 -0.0941108 -2.04369e-19)
(0.0785966 -0.0810724 -3.71178e-20)
(0.13816 0.0278196 3.3419e-20)
(0.156743 0.0212094 2.7498e-21)
(0.122485 0.0412486 2.15059e-20)
(0.141694 0.0444177 2.29084e-20)
(0.106772 0.0353849 -1.78981e-20)
(0.130642 0.0391775 -3.23426e-20)
(0.09253 0.0187376 1.17583e-19)
(0.120139 0.0203814 -3.88061e-20)
(0.0803149 -0.00267269 7.81034e-20)
(0.108877 -0.00368858 1.95559e-19)
(0.0705398 -0.0258033 -4.07327e-20)
(0.0983183 -0.0292561 -4.14139e-20)
(0.0642872 -0.0487946 2.21977e-19)
(0.0879298 -0.0567761 0)
(0.0631113 -0.0689459 2.78887e-19)
(0.0802372 -0.0813546 1.65282e-19)
(0.0691019 -0.0833587 1.22262e-19)
(0.0787134 -0.10078 1.38863e-19)
(0.0811135 -0.0924794 5.83788e-20)
(0.0857441 -0.114608 -1.85808e-19)
(0.0929714 -0.105882 -2.11021e-19)
(0.0970882 -0.129381 1.11726e-19)
(0.104937 -0.150845 -2.04567e-19)
(0.100559 -0.127171 1.22822e-19)
(0.154895 0.0442761 -7.94793e-21)
(0.17836 0.0365302 -2.97908e-21)
(0.148309 0.0497348 -3.34966e-20)
(0.168085 0.0520337 4.29318e-20)
(0.143288 0.0317222 -5.68243e-20)
(0.169813 0.0359209 -4.79833e-20)
(0.13665 0.00505504 3.49131e-20)
(0.168286 0.00997837 -7.56155e-20)
(0.127918 -0.025113 7.73022e-20)
(0.162219 -0.0203815 7.84767e-20)
(0.119074 -0.0563356 0)
(0.152093 -0.053713 -2.15052e-19)
(0.110178 -0.0850987 -7.37013e-20)
(0.140317 -0.0864221 1.41321e-19)
(0.103757 -0.10918 -1.07351e-20)
(0.128272 -0.116122 -1.33786e-19)
(0.102586 -0.127765 -1.99075e-19)
(0.119699 -0.140913 2.23114e-19)
(0.106551 -0.14634 -1.35417e-19)
(0.117903 -0.162453 -3.62871e-19)
(0.112921 -0.170172 1.18095e-19)
(0.11974 -0.185654 1.38773e-22)
(0.122327 -0.208295 1.17388e-19)
(0.119471 -0.193405 -6.29699e-21)
(0.180535 0.0450753 4.51343e-20)
(0.200786 0.036633 -1.16122e-20)
(0.186869 0.0378178 3.09322e-20)
(0.200436 0.039123 2.43487e-20)
(0.191487 0.013438 -6.59202e-20)
(0.213466 0.0171213 6.91796e-20)
(0.191072 -0.0161604 -3.50904e-20)
(0.218745 -0.0105399 -1.41988e-19)
(0.185713 -0.0495589 -2.18369e-19)
(0.216697 -0.043359 5.47706e-20)
(0.175805 -0.0848676 -7.00704e-20)
(0.207437 -0.0790715 -2.08671e-19)
(0.162867 -0.118623 8.36265e-20)
(0.193754 -0.113814 2.47068e-19)
(0.150058 -0.148433 1.01773e-19)
(0.177448 -0.146577 -1.93521e-19)
(0.139966 -0.174843 5.11987e-20)
(0.161845 -0.175594 2.01962e-19)
(0.133917 -0.200066 -2.29001e-19)
(0.149444 -0.201307 -2.376e-19)
(0.131128 -0.223102 1.44404e-21)
(0.139662 -0.223803 4.0822e-20)
(0.132365 -0.241509 1.19357e-19)
(0.130947 -0.242142 6.01527e-20)
(0.208076 0.028347 -3.35798e-20)
(0.220078 0.021574 6.01536e-21)
(0.224489 0.0141996 6.36101e-20)
(0.230434 0.0139955 -1.90951e-20)
(0.236229 -0.0108773 -2.07633e-21)
(0.24993 -0.00853072 5.97971e-20)
(0.24072 -0.0411908 -5.52888e-20)
(0.260259 -0.0346369 -7.21388e-20)
(0.237523 -0.0757693 6.54383e-20)
(0.261328 -0.0661045 5.62573e-20)
(0.226589 -0.111805 1.12898e-19)
(0.253152 -0.0997846 1.04026e-19)
(0.210059 -0.146793 -4.15435e-20)
(0.237584 -0.133212 9.81297e-20)
(0.190808 -0.178752 -9.14332e-20)
(0.216852 -0.165391 -1.49234e-19)
(0.171698 -0.206265 -8.91092e-20)
(0.194005 -0.193614 -1.70775e-20)
(0.154653 -0.228315 3.51102e-20)
(0.171652 -0.216231 -1.47548e-20)
(0.140233 -0.244476 1.5777e-19)
(0.151084 -0.232295 1.61142e-19)
(0.132906 -0.243035 -5.19346e-20)
(0.128665 -0.257236 4.25836e-20)
(0.231732 0.00412287 2.40765e-20)
(0.235984 -0.00166971 1.36583e-20)
(0.253691 -0.01319 -2.22596e-20)
(0.252654 -0.0152459 -7.39883e-21)
(0.270222 -0.0365158 -3.41696e-21)
(0.274224 -0.0358019 8.97747e-21)
(0.278197 -0.0633624 3.76425e-20)
(0.286221 -0.0570792 -3.10038e-20)
(0.276038 -0.0942088 8.95814e-20)
(0.287956 -0.0825985 0)
(0.263564 -0.126883 8.11491e-20)
(0.279726 -0.109915 1.32888e-19)
(0.243671 -0.158956 -1.80698e-20)
(0.262441 -0.1388 -5.80853e-20)
(0.218838 -0.187509 -7.36015e-20)
(0.238438 -0.166497 2.97863e-20)
(0.192028 -0.21002 4.36075e-20)
(0.21055 -0.189785 -7.39453e-20)
(0.165724 -0.225275 9.74055e-20)
(0.181718 -0.206404 1.32522e-19)
(0.141334 -0.234409 -5.37248e-20)
(0.154057 -0.215986 -2.69646e-20)
(0.128287 -0.220921 -1.0717e-19)
(0.119308 -0.24073 -1.62743e-20)
(0.249088 -0.0218015 -1.57427e-20)
(0.249358 -0.0251722 1.18754e-20)
(0.271421 -0.0395755 2.41579e-20)
(0.267733 -0.0422324 -3.89093e-20)
(0.287723 -0.058135 -1.54249e-20)
(0.286748 -0.0584006 7.46632e-20)
(0.295076 -0.0780109 -6.73884e-20)
(0.295606 -0.0721253 -4.59972e-20)
(0.291498 -0.100932 3.84203e-20)
(0.294475 -0.088362 0)
(0.278222 -0.126332 -1.7013e-20)
(0.283975 -0.107848 8.39486e-20)
(0.256631 -0.151749 -1.41622e-20)
(0.26545 -0.12977 -1.91547e-20)
(0.229199 -0.174055 2.30414e-20)
(0.240391 -0.15135 5.58598e-20)
(0.198858 -0.190573 1.46239e-20)
(0.211269 -0.169154 -2.73095e-20)
(0.168306 -0.200414 3.78388e-21)
(0.180795 -0.180998 2.30795e-20)
(0.139199 -0.205012 -7.58364e-20)
(0.151093 -0.18689 6.71361e-21)
(0.122841 -0.188857 -5.38308e-20)
(0.111744 -0.206914 -5.32384e-20)
(0.263379 -0.0443407 -9.46885e-21)
(0.261801 -0.0457873 1.18214e-20)
(0.282311 -0.060323 1.14547e-20)
(0.281626 -0.0637744 -6.83492e-21)
(0.293878 -0.0720361 4.67141e-20)
(0.29599 -0.0732865 -1.86856e-20)
(0.29588 -0.0828418 2.23902e-20)
(0.298614 -0.0774859 9.03945e-22)
(0.288025 -0.0962734 4.33598e-20)
(0.291037 -0.0838327 0)
(0.272134 -0.112877 8.12127e-20)
(0.27502 -0.095161 3.55785e-20)
(0.249958 -0.130926 5.15991e-20)
(0.253279 -0.110527 2.3936e-22)
(0.223076 -0.147478 3.10783e-21)
(0.227643 -0.12669 2.62658e-20)
(0.193576 -0.159939 -1.8024e-20)
(0.19984 -0.140431 -3.19071e-20)
(0.163804 -0.167352 2.54598e-20)
(0.171439 -0.149955 -4.35071e-22)
(0.135071 -0.170554 2.8869e-20)
(0.14387 -0.155007 2.69898e-20)
(0.117447 -0.156743 -4.24582e-23)
(0.107402 -0.170987 4.38299e-21)
(0.278573 -0.0654885 1.46076e-20)
(0.27446 -0.0647852 3.91936e-21)
(0.295437 -0.0774402 -3.67981e-20)
(0.296196 -0.0818395 6.16821e-21)
(0.301559 -0.0796261 -6.43425e-20)
(0.302835 -0.0805253 -7.17466e-21)
(0.295975 -0.0792707 -2.14361e-20)
(0.296977 -0.0721257 -3.89125e-20)
(0.280091 -0.082898 -9.83455e-21)
(0.2828 -0.0679441 9.29643e-21)
(0.257823 -0.0922746 -4.72973e-20)
(0.262129 -0.0731618 -1.91104e-20)
(0.232302 -0.105125 -2.81961e-20)
(0.237198 -0.0850662 -3.4984e-20)
(0.20543 -0.117917 -1.58261e-20)
(0.210431 -0.0988736 5.69692e-21)
(0.178705 -0.128394 -2.35808e-20)
(0.183421 -0.111332 -2.73363e-20)
(0.152693 -0.135561 -3.04801e-21)
(0.157424 -0.120341 -1.19055e-21)
(0.12762 -0.139515 -2.24625e-21)
(0.133183 -0.125776 -1.18531e-20)
(0.110477 -0.128499 5.38347e-21)
(0.103247 -0.14076 -5.42019e-22)
(0.293518 -0.0794159 -5.3186e-21)
(0.281419 -0.0816314 -1.5759e-21)
(0.303987 -0.0846184 3.60875e-20)
(0.296787 -0.0912111 -7.84644e-21)
(0.300734 -0.0739152 1.49437e-20)
(0.286105 -0.0734379 3.6422e-20)
(0.287103 -0.0621254 -8.04855e-21)
(0.269287 -0.0515822 -2.65642e-21)
(0.266626 -0.0589491 -2.02754e-21)
(0.252558 -0.0402666 3.50595e-20)
(0.242151 -0.0654369 -9.27029e-21)
(0.23418 -0.0434996 -7.53452e-21)
(0.215645 -0.077493 4.18935e-22)
(0.213181 -0.055782 3.45185e-21)
(0.188743 -0.0905594 -7.64475e-21)
(0.190584 -0.0707842 1.1429e-21)
(0.162705 -0.101437 -8.87154e-21)
(0.167392 -0.0844255 -2.74001e-21)
(0.138526 -0.108987 -9.72353e-21)
(0.144533 -0.0946075 5.78611e-21)
(0.116723 -0.113701 -8.0081e-21)
(0.122678 -0.101389 -2.23387e-20)
(0.102484 -0.105138 1.96957e-20)
(0.0964654 -0.116052 9.36808e-21)
(0.28704 -0.0968597 -4.09237e-21)
(0.281047 -0.0795639 1.01234e-21)
(0.276669 -0.0817392 -7.91985e-21)
(0.264193 -0.0784445 -4.34985e-21)
(0.258138 -0.0511126 1.50821e-20)
(0.230119 -0.0450272 1.30022e-20)
(0.239364 -0.0292941 4.66264e-20)
(0.206392 -0.0173896 2.00562e-20)
(0.221563 -0.0245578 2.7662e-20)
(0.19418 -0.00674409 1.70785e-20)
(0.204521 -0.0334209 3.98042e-21)
(0.184445 -0.0134184 -2.67814e-22)
(0.187118 -0.0486072 5.98594e-21)
(0.173042 -0.0287742 8.05003e-22)
(0.168664 -0.0641884 6.44123e-21)
(0.159694 -0.0457331 -4.2003e-21)
(0.149012 -0.0770196 1.15547e-20)
(0.14477 -0.0605272 1.07316e-20)
(0.12886 -0.0861978 -1.0415e-20)
(0.12863 -0.0718263 -7.93602e-21)
(0.108978 -0.0919272 2.12283e-21)
(0.11173 -0.0797149 -4.7692e-21)
(0.0947286 -0.0847249 -6.45686e-21)
(0.0901689 -0.0951646 1.20774e-20)
(0.258986 -0.0492102 1.25387e-21)
(0.181185 -0.0386549 -3.13885e-21)
(0.21383 -0.0349257 2.04063e-20)
(0.156356 -0.0305839 1.39321e-20)
(0.182925 -0.0079782 1.04368e-20)
(0.131924 -0.00090046 -6.54934e-21)
(0.165978 0.00758587 -1.59652e-20)
(0.12468 0.0178628 -2.47131e-20)
(0.158316 0.00637237 -1.87445e-20)
(0.128039 0.0190894 -5.97234e-21)
(0.152576 -0.00663086 -5.37299e-21)
(0.131247 0.00736861 -2.19917e-22)
(0.1452 -0.0240898 -4.89041e-21)
(0.13007 -0.00958867 -5.5053e-22)
(0.135551 -0.0408964 8.03444e-22)
(0.124717 -0.0263839 -2.20512e-22)
(0.124043 -0.0547742 -8.93897e-21)
(0.116371 -0.0405007 -4.74096e-21)
(0.111156 -0.0652253 -1.56368e-21)
(0.105986 -0.0512815 -1.11209e-20)
(0.0971946 -0.0724789 -1.32449e-20)
(0.0942165 -0.0589935 2.59877e-20)
(0.0825524 -0.0770946 -2.56312e-20)
(0.0815776 -0.0642577 -1.87774e-20)
(0.0731805 -0.0915138 1.71251e-19)
(0.0924717 -0.109042 2.99784e-19)
(0.0648833 -0.102859 3.89822e-20)
(0.091749 -0.122626 1.45818e-19)
(0.0591473 -0.108373 -1.29993e-19)
(0.090323 -0.131488 -4.67598e-20)