/*--------------------------------*- C++ -*----------------------------------*\
| =========                 |                                                 |
| \\      /  F ield         | OpenFOAM: The Open Source CFD Toolbox           |
|  \\    /   O peration     | Version:  2.3.1                                 |
|   \\  /    A nd           | Web:      www.OpenFOAM.org                      |
|    \\/     M anipulation  |                                                 |
\*---------------------------------------------------------------------------*/
FoamFile
{
    version     2.0;
    format      ascii;
    class       volScalarField;
    location    "1";
    object      k;
}
// * * * * * * * * * * * * * * * * * * * * * * * * * * * * * * * * * * * * * //

dimensions      [0 2 -2 0 0 0 0];

internalField   nonuniform List<scalar> 
9648
(
2.7134
2.70541
2.70426
2.69942
2.69085
2.67805
2.66166
2.64144
2.61722
2.58893
2.55662
2.52051
2.48105
2.4388
2.39443
2.34872
2.30242
2.25626
2.21088
2.16683
2.12455
2.08437
2.04655
2.01122
1.97847
1.94832
1.92076
1.89573
1.87316
1.85295
1.83503
1.81928
1.80561
1.79391
1.7841
1.77608
1.76978
1.76511
1.762
1.76039
1.76023
1.76149
1.76411
1.76807
1.77336
1.77996
1.7879
1.79721
1.8079
1.82001
1.83358
1.84868
1.86533
1.88353
1.90328
1.9244
1.94658
1.96928
1.99204
2.01446
2.03624
1.7653
1.76209
1.75741
1.75175
1.74765
1.7474
1.75339
1.76663
1.78723
1.81546
1.85116
1.89383
1.94262
1.99658
2.05468
2.11594
2.17944
2.24436
2.31
2.37581
2.44133
2.50622
2.57023
2.63321
2.69503
2.75569
2.81521
2.87361
2.93092
2.98722
3.04263
3.0972
3.15101
3.20418
3.25677
3.30882
3.36045
3.41173
3.46268
3.51324
3.56352
3.61362
3.66348
3.7131
3.76256
3.81172
3.8606
3.90931
3.95788
4.00618
4.05408
4.10151
4.14855
4.19481
4.24055
4.28551
4.32988
4.37297
4.41504
4.45613
4.49629
1.45855
1.50881
1.55941
1.61385
1.67449
1.74209
1.81653
1.89796
1.98604
2.08054
2.18053
2.28532
2.3939
2.50517
2.61804
2.73142
2.84442
2.95615
3.06592
3.17318
3.2775
3.37859
3.47624
3.5704
3.66108
3.74838
3.83244
3.91338
3.99139
4.06666
4.13936
4.20972
4.27796
4.34419
4.40857
4.47131
4.5325
4.5923
4.65079
4.70805
4.7642
4.81926
4.87338
4.9266
4.97888
5.03024
5.08063
5.13013
5.1786
5.22605
5.27247
5.3179
5.36252
5.40567
5.44826
5.48928
5.52948
5.56778
5.60539
5.64191
5.67738
1.3757
1.47605
1.58035
1.68991
1.80549
1.9273
2.05516
2.18857
2.3268
2.46911
2.61436
2.76158
2.90954
3.05725
3.20354
3.34736
3.48789
3.6244
3.75631
3.88321
4.00485
4.12097
4.23161
4.33683
4.43687
4.53195
4.62236
4.70838
4.79033
4.86846
4.94318
5.01475
5.08348
5.14965
5.21345
5.27514
5.33491
5.39294
5.44937
5.50434
5.55799
5.61046
5.66181
5.71219
5.76158
5.81003
5.85757
5.90422
5.94991
5.99464
6.03853
6.08124
6.12299
6.16358
6.20352
6.24227
6.27986
6.31628
6.35161
6.38587
6.41888
1.40473
1.54738
1.69767
1.85456
2.01738
2.18576
2.35894
2.53586
2.71555
2.89675
3.07819
3.25859
3.43686
3.61196
3.78285
3.94841
4.10793
4.26092
4.40691
4.54579
4.67735
4.80151
4.91844
5.02833
5.13164
5.22881
5.32022
5.40631
5.48742
5.564
5.63646
5.7052
5.77067
5.83316
5.8929
5.95025
6.00547
6.05866
6.11007
6.15985
6.20815
6.25513
6.30099
6.34579
6.38959
6.43243
6.47434
6.51533
6.55549
6.59459
6.63279
6.66997
6.70599
6.74089
6.77483
6.80789
6.83978
6.87059
6.90022
6.92856
6.95564
1.48589
1.66577
1.85673
2.05592
2.26112
2.47107
2.68436
2.89958
3.11519
3.32952
3.54119
3.74859
3.9509
4.14698
4.33627
4.51749
4.68993
4.85352
5.00779
5.153
5.28914
5.41604
5.53424
5.64382
5.74562
5.84027
5.9283
6.01034
6.08662
6.15773
6.22428
6.28656
6.3453
6.40085
6.45335
6.50325
6.551
6.59659
6.64033
6.68236
6.72275
6.76183
6.79978
6.83678
6.87276
6.90788
6.94224
6.97559
7.00818
7.03987
7.07056
7.10025
7.12889
7.1563
7.18274
7.20816
7.23264
7.25609
7.27824
7.29887
7.31834
1.59857
1.8121
2.04012
2.2778
2.52125
2.76855
3.01755
3.26641
3.5134
3.75589
3.99289
4.22206
4.44307
4.65472
4.85764
5.04954
5.23
5.39954
5.55731
5.70431
5.84083
5.96618
6.08174
6.18686
6.28315
6.37159
6.45256
6.52732
6.5955
6.65796
6.71564
6.76842
6.81757
6.86349
6.90595
6.9457
6.98358
7.01906
7.05284
7.08495
7.11522
7.14419
7.17215
7.19935
7.22539
7.25065
7.27527
7.29907
7.32227
7.34455
7.36592
7.38624
7.40556
7.42356
7.44033
7.45636
7.4716
7.48586
7.4986
7.50966
7.51957
1.73055
1.97457
2.23648
2.50919
2.78712
3.06729
3.3477
3.62622
3.90041
4.16688
4.42513
4.67138
4.90642
5.12834
5.3407
5.53916
5.72365
5.89574
6.05291
6.19752
6.33083
6.45064
6.56076
6.65778
6.74477
6.82344
6.89384
6.95849
7.01547
7.0663
7.11266
7.15298
7.18972
7.22335
7.25306
7.28001
7.30533
7.32769
7.34899
7.36891
7.38662
7.40292
7.41843
7.43343
7.44708
7.4603
7.4726
7.48437
7.49561
7.50622
7.51585
7.52449
7.53241
7.53858
7.54352
7.54797
7.5513
7.55466
7.55596
7.555
7.55349
1.87264
2.14155
2.43414
2.73566
3.04574
3.35353
3.65984
3.96605
4.26132
4.54947
4.82409
5.08626
5.3306
5.55859
5.7749
5.97671
6.16226
6.33373
6.49141
6.63056
6.75572
6.86746
6.96805
7.05771
7.13241
7.19708
7.25462
7.30641
7.34883
7.38563
7.41824
7.44523
7.46739
7.48543
7.49911
7.51159
7.51974
7.52571
7.53204
7.53618
7.53835
7.53794
7.53946
7.53953
7.53797
7.53779
7.53374
7.53088
7.52576
7.52078
7.51391
7.50713
7.50086
7.49255
7.48317
7.47384
7.46126
7.45308
7.44015
7.42371
7.40877
2.05711
2.07697
2.09595
2.11405
2.13132
2.14791
2.16407
2.18015
2.196
2.21094
2.22469
2.23787
2.25059
2.26307
2.2756
2.28877
2.30297
2.31852
2.33576
2.35515
2.37639
2.39905
2.42284
2.44734
2.47224
2.49755
2.52342
2.54954
2.57584
2.6024
2.62931
2.65646
2.68388
2.7117
2.73986
2.76834
2.79725
2.82665
2.85651
2.88674
2.91744
2.94872
2.98055
3.01288
3.04584
3.07925
3.11312
3.1476
3.18273
3.21837
3.25458
3.29144
3.32905
3.36719
3.40619
3.44597
3.48684
3.52852
3.57134
3.61543
3.66088
4.53559
4.57286
4.60924
4.64482
4.67937
4.71243
4.74357
4.77345
4.80111
4.82801
4.85321
4.87741
4.90052
4.92262
4.94359
4.9633
4.98188
4.99929
5.01555
5.03066
5.04467
5.0576
5.06932
5.07991
5.08938
5.09769
5.1047
5.11018
5.11422
5.11679
5.1179
5.11759
5.1159
5.11282
5.10838
5.10266
5.09561
5.08733
5.07779
5.067
5.05504
5.04193
5.02776
5.01247
4.99605
4.97843
4.9595
4.93933
4.91783
4.89503
4.87089
4.84534
4.81854
4.79
4.76048
4.72937
4.69728
4.66377
4.62986
4.59544
4.56065
5.71123
5.74401
5.77525
5.80559
5.83492
5.86364
5.89046
5.91594
5.93926
5.96129
5.98173
6.00096
6.0188
6.0356
6.05113
6.06533
6.0782
6.08975
6.09994
6.10878
6.11633
6.12255
6.12747
6.13107
6.13334
6.13428
6.1339
6.13216
6.12903
6.12444
6.11842
6.11092
6.10195
6.09157
6.07975
6.06656
6.05194
6.03595
6.01857
5.99984
5.97983
5.95863
5.9363
5.91286
5.88827
5.86249
5.83534
5.8068
5.7768
5.74534
5.71238
5.67768
5.64133
5.60317
5.56342
5.52177
5.47846
5.43374
5.38808
5.34157
5.29434
6.45087
6.48158
6.51102
6.53893
6.56565
6.5912
6.6153
6.63767
6.65847
6.67765
6.69525
6.71129
6.72579
6.73884
6.75031
6.76037
6.76896
6.77606
6.78163
6.78569
6.78827
6.78946
6.78926
6.78771
6.78473
6.78029
6.77439
6.76707
6.75833
6.74814
6.73645
6.72321
6.70841
6.69208
6.67429
6.65502
6.63424
6.61192
6.58805
6.5627
6.536
6.50804
6.479
6.44897
6.41798
6.38599
6.35277
6.31827
6.28243
6.24525
6.20657
6.16627
6.12431
6.08056
6.03499
5.98739
5.93796
5.88701
5.83503
5.78204
5.72849
6.98142
7.00603
7.0292
7.05079
7.07071
7.08905
7.10584
7.1211
7.13499
7.14754
7.15856
7.16811
7.17619
7.18271
7.18772
7.19133
7.19337
7.19387
7.19273
7.18998
7.18571
7.18005
7.1731
7.1649
7.15534
7.14439
7.13206
7.11839
7.10347
7.0873
7.06983
7.05087
7.03042
7.00847
6.98517
6.96046
6.93422
6.90644
6.87699
6.84594
6.81346
6.77967
6.74487
6.7093
6.67307
6.63622
6.59838
6.55955
6.51963
6.47876
6.43656
6.39282
6.34763
6.3007
6.25193
6.20084
6.1479
6.09324
6.03757
5.98083
5.9236
7.33648
7.35331
7.36856
7.38236
7.39444
7.40483
7.41365
7.42073
7.42625
7.43027
7.43294
7.43425
7.4341
7.43242
7.42922
7.42467
7.41871
7.41115
7.40183
7.3907
7.37799
7.36393
7.34867
7.33238
7.31485
7.29597
7.27578
7.25434
7.23195
7.20872
7.18464
7.15926
7.13264
7.10465
7.07561
7.04532
7.01354
6.98028
6.9453
6.90861
6.87035
6.83061
6.78983
6.74848
6.70684
6.66523
6.62284
6.58006
6.5365
6.49276
6.44802
6.40175
6.35444
6.30552
6.25502
6.20177
6.14671
6.08962
6.03198
5.97308
5.91377
7.52825
7.53564
7.54148
7.54574
7.54829
7.54909
7.54812
7.54568
7.54165
7.53582
7.52867
7.52041
7.51077
7.49961
7.48683
7.47298
7.45812
7.44165
7.42327
7.40269
7.38034
7.35671
7.33199
7.30657
7.28016
7.25234
7.22319
7.19264
7.16146
7.13002
7.09874
7.06646
7.03357
6.99952
6.96512
6.92981
6.89279
6.85442
6.81443
6.77275
6.72931
6.68392
6.63728
6.59008
6.54283
6.49666
6.44955
6.40306
6.35604
6.3104
6.26437
6.21646
6.16815
6.11834
6.06763
6.01313
5.95734
5.89889
5.84109
5.78152
5.72196
7.5506
7.54677
7.5413
7.53467
7.52634
7.51659
7.50475
7.49244
7.47871
7.46239
7.44479
7.42673
7.40724
7.38635
7.3631
7.33909
7.3154
7.29045
7.26359
7.23348
7.20079
7.16735
7.13266
7.09743
7.06211
7.02533
6.98715
6.94636
6.90468
6.86341
6.82448
6.78475
6.74594
6.70631
6.66799
6.62972
6.58849
6.5452
6.50106
6.45626
6.40922
6.35935
6.30775
6.25517
6.20231
6.1524
6.10026
6.05041
5.99971
5.95348
5.90815
5.85955
5.81143
5.76199
5.71298
5.658
5.60297
5.54392
5.4881
5.42966
5.37226
7.39078
7.3734
7.35287
7.33333
7.31105
7.29104
7.26687
7.24525
7.22348
7.19902
7.17267
7.14672
7.11852
7.09024
7.05656
7.02054
6.98808
6.95681
6.92602
6.89042
6.84654
6.80516
6.7621
6.71654
6.67238
6.62797
6.5847
6.53553
6.48065
6.42706
6.37971
6.33118
6.28621
6.24123
6.20282
6.16653
6.12434
6.07572
6.0278
5.98283
5.93657
5.88477
5.82934
5.77344
5.71607
5.66434
5.60626
5.5533
5.49756
5.45331
5.41143
5.36265
5.31648
5.26974
5.22506
5.17011
5.11737
5.05787
5.00615
4.95098
4.89898
3.70769
3.7555
3.80459
3.85495
3.90661
3.95971
4.01416
4.07011
4.12727
4.1856
4.24522
4.30571
4.36706
4.43166
4.51204
4.58521
4.65737
4.73027
4.80395
4.87856
4.95412
5.03068
5.10811
5.18636
5.26522
5.34446
5.42396
5.50353
5.58296
5.66193
5.74033
5.81786
5.8941
5.96885
6.04174
6.11221
6.1798
6.24373
6.2996
6.34047
6.36824
6.38359
6.38647
6.3762
6.35174
6.31167
6.25407
6.17662
6.0766
5.95081
5.79546
5.60608
5.37765
5.1038
4.75634
4.21959
3.97122
3.84426
3.79369
3.76894
3.71668
4.5252
4.48939
4.45278
4.41547
4.37748
4.33948
4.30126
4.26355
4.22585
4.18854
4.15234
4.11073
4.06563
4.02312
3.97535
3.92947
3.8835
3.83744
3.79175
3.74671
3.70231
3.6583
3.61456
3.57105
3.52771
3.48455
3.44158
3.3989
3.35654
3.31458
3.27311
3.23228
3.19221
3.15313
3.11529
3.079
3.04467
3.01289
2.98433
2.96051
2.93893
2.91975
2.90334
2.89029
2.88153
2.87798
2.88066
2.89092
2.9102
2.93977
2.98087
3.03462
3.1023
3.18559
3.27596
3.41191
3.59006
3.86306
4.24876
4.74548
5.06292
5.2466
5.19833
5.14925
5.09906
5.04771
4.99573
4.94342
4.89126
4.83881
4.78604
4.72994
4.66577
4.60218
4.54179
4.48153
4.42199
4.3617
4.30067
4.23928
4.17797
4.11678
4.05544
3.99392
3.9322
3.87019
3.80789
3.74529
3.6824
3.61917
3.5556
3.49167
3.4274
3.36283
3.29801
3.23301
3.16793
3.10287
3.03796
2.97334
2.90925
2.84563
2.78217
2.71941
2.65816
2.59876
2.54179
2.48812
2.43902
2.39614
2.36166
2.3384
2.32997
2.34112
2.37718
2.44146
2.54493
2.69202
2.91324
3.2532
3.76257
4.37723
5.6745
5.62042
5.56567
5.50985
5.45258
5.39464
5.33637
5.27841
5.22014
5.16097
5.095
5.02311
4.95368
4.88761
4.82269
4.75856
4.69402
4.6292
4.56424
4.49946
4.43476
4.3697
4.30441
4.23894
4.17317
4.10716
4.04085
3.97426
3.90725
3.83982
3.77191
3.70357
3.63482
3.56572
3.49632
3.4267
3.35693
3.28705
3.21708
3.14704
3.07688
3.00656
2.9354
2.86337
2.79112
2.71875
2.64652
2.57486
2.50449
2.43647
2.37228
2.3141
2.26488
2.2284
2.20849
2.21139
2.24546
2.3284
2.48968
2.77246
3.20248
5.86589
5.80852
5.75071
5.69195
5.63123
5.56978
5.5079
5.4467
5.38506
5.32223
5.25119
5.17647
5.1049
5.03677
4.96977
4.90357
4.83716
4.77127
4.70571
4.64072
4.57587
4.51038
4.44472
4.37901
4.31298
4.24679
4.18032
4.11358
4.04633
3.9786
3.91036
3.8417
3.7727
3.70347
3.63408
3.56465
3.49524
3.42593
3.35672
3.28761
3.21862
3.14976
3.08089
3.01146
2.94126
2.87044
2.79905
2.72716
2.65494
2.58272
2.51091
2.44012
2.37132
2.30577
2.24509
2.19233
2.15361
2.13972
2.16748
2.2621
2.45336
5.8536
5.79455
5.73535
5.67547
5.61265
5.54907
5.48469
5.4217
5.35837
5.29424
5.22122
5.14652
5.07515
5.00765
4.94067
4.87447
4.80794
4.74299
4.67886
4.61581
4.553
4.48898
4.42513
4.36157
4.2976
4.23365
4.16928
4.1047
4.03938
3.97353
3.90707
3.84036
3.77342
3.70653
3.63967
3.57305
3.50673
3.44082
3.37528
3.31021
3.2456
3.18152
3.11796
3.05478
2.99152
2.92769
2.8633
2.79843
2.7331
2.66742
2.60148
2.53531
2.46891
2.40229
2.33532
2.26868
2.20485
2.1492
2.11068
2.1028
2.14439
5.66021
5.60086
5.54175
5.48282
5.41893
5.35451
5.28845
5.2253
5.16199
5.09915
5.02606
4.95335
4.88379
4.81933
4.75413
4.69002
4.62478
4.56268
4.50164
4.44222
4.38307
4.32159
4.2612
4.20199
4.14195
4.08213
4.02146
3.96082
3.89885
3.8364
3.7731
3.71005
3.64696
3.58444
3.5221
3.46042
3.39923
3.33889
3.27924
3.22056
3.16268
3.10587
3.05004
2.99516
2.94102
2.88721
2.83297
2.77831
2.72337
2.66829
2.61312
2.55784
2.50226
2.44594
2.38827
2.32865
2.26725
2.20581
2.14814
2.10071
2.07351
5.3096
5.25093
5.19349
5.13812
5.07443
5.01079
4.94382
4.88243
4.8211
4.76234
4.69046
4.62106
4.55424
4.49498
4.43269
4.37262
4.30963
4.25209
4.19549
4.14067
4.08617
4.02742
3.97166
3.91924
3.86456
3.80996
3.75358
3.69812
3.63997
3.58162
3.52195
3.46395
3.40594
3.34956
3.29315
3.23804
3.18322
3.12999
3.07779
3.02739
2.97806
2.93047
2.88438
2.83951
2.79575
2.75317
2.71052
2.66745
2.62439
2.58159
2.53933
2.49756
2.45611
2.41447
2.3719
2.32747
2.28045
2.2307
2.17913
2.12811
2.08203
4.83631
4.77796
4.72424
4.67535
4.61342
4.55202
4.48456
4.4276
4.37073
4.3186
4.24903
4.18347
4.11931
4.06733
4.00818
3.95415
3.89373
3.84261
3.79138
3.74063
3.69088
3.63398
3.58389
3.54231
3.49337
3.4428
3.38998
3.3408
3.28532
3.23067
3.1736
3.12252
3.07011
3.02158
2.97138
2.92375
2.87463
2.82927
2.78546
2.74491
2.70537
2.66815
2.63295
2.59903
2.56529
2.53233
2.49993
2.46691
2.4355
2.40462
2.37663
2.34978
2.32473
2.29993
2.27517
2.24909
2.22104
2.19006
2.15614
2.11893
2.07996
3.62442
3.52164
3.41009
3.29107
3.17001
3.05009
2.93399
2.82525
2.72704
2.64147
2.56949
2.51115
2.46558
2.43133
2.40662
2.38962
2.37859
2.37223
2.36943
2.36932
2.37127
2.37483
2.37968
2.38571
2.39278
2.40083
2.40981
2.41969
2.43048
2.44212
2.45454
2.4677
2.4815
2.49577
2.51038
2.52513
2.5398
2.55415
2.56794
2.58093
2.59286
2.60349
2.6127
2.62039
2.62655
2.63132
2.63491
2.6376
2.63978
2.64195
2.6445
2.64777
2.65199
2.65738
2.66381
2.67113
2.67898
2.68712
2.69503
2.7021
2.70794
5.05521
4.9831
4.86282
4.69247
4.50295
4.29591
4.06917
3.82942
3.58495
3.34368
3.11187
2.89605
2.70012
2.52556
2.37314
2.24446
2.13903
2.05399
1.98625
1.9331
1.89199
1.86053
1.8367
1.81932
1.80687
1.79881
1.79445
1.79348
1.79557
1.80049
1.80803
1.81796
1.83003
1.84392
1.85933
1.87586
1.89305
1.91046
1.92752
1.94364
1.95808
1.96999
1.97844
1.98246
1.98119
1.97393
1.96024
1.9402
1.91455
1.88477
1.85292
1.82153
1.79328
1.7704
1.75424
1.74547
1.74336
1.74652
1.75229
1.75804
1.76228
4.87831
5.23445
5.43117
5.44207
5.31202
5.11906
4.86433
4.57104
4.25612
3.93128
3.60845
3.29914
3.01088
2.74892
2.51665
2.31572
2.14477
1.99973
1.87844
1.78004
1.70213
1.64177
1.59585
1.56127
1.53583
1.51745
1.50495
1.4973
1.49375
1.49371
1.4967
1.50228
1.50997
1.51922
1.52955
1.54045
1.55138
1.56183
1.57121
1.57891
1.5843
1.58679
1.58581
1.58074
1.57107
1.55631
1.53612
1.51038
1.47932
1.44366
1.40488
1.36544
1.32859
1.29795
1.27686
1.2682
1.27321
1.29179
1.32215
1.3618
1.40837
3.73887
4.3289
4.89307
5.32723
5.54908
5.59335
5.47454
5.2291
4.91697
4.5587
4.18124
3.8086
3.45308
3.1258
2.83197
2.57178
2.34258
2.1433
1.97291
1.8308
1.71525
1.62406
1.554
1.50123
1.46216
1.43392
1.41435
1.40181
1.39501
1.39288
1.39469
1.39978
1.40743
1.41688
1.4274
1.4383
1.44885
1.45836
1.4661
1.47131
1.47325
1.47124
1.46466
1.45296
1.4357
1.41268
1.38385
1.34941
1.30976
1.26562
1.2182
1.16956
1.12272
1.08184
1.05204
1.03902
1.04652
1.0761
1.12687
1.19639
1.28113
2.76099
3.19449
3.73894
4.33496
4.88295
5.30415
5.5472
5.5867
5.45815
5.1902
4.83161
4.4414
4.03971
3.6522
3.2943
2.9689
2.67764
2.41898
2.19448
2.00426
1.8468
1.72058
1.62241
1.54773
1.49178
1.45063
1.4214
1.40185
1.39014
1.38468
1.38445
1.38864
1.39636
1.40661
1.41849
1.43113
1.44366
1.45523
1.46498
1.47199
1.47536
1.47432
1.46808
1.45602
1.43757
1.41247
1.38067
1.34242
1.29804
1.24824
1.19411
1.13748
1.08115
1.02927
0.98818
0.965647
0.967987
1.00046
1.06449
1.15731
1.27315
2.2573
2.46512
2.78693
3.22596
3.75375
4.31433
4.83115
5.22205
5.43857
5.46795
5.32429
5.05142
4.68329
4.27637
3.87511
3.48886
3.13431
2.81297
2.52342
2.27218
2.06203
1.89242
1.75976
1.65808
1.58092
1.52303
1.48077
1.45135
1.43233
1.42146
1.41741
1.41918
1.42573
1.43585
1.44844
1.46247
1.47693
1.49083
1.50319
1.51296
1.51911
1.52078
1.51708
1.50728
1.49062
1.46681
1.43566
1.39741
1.35222
1.30073
1.24386
1.18335
1.12179
1.06309
1.01357
0.98167
0.97585
1.00505
1.07444
1.18256
1.32276
2.08037
2.13913
2.27048
2.49422
2.82171
3.2487
3.74689
4.26172
4.72483
5.07042
5.25282
5.26192
5.11591
4.84749
4.50154
4.10387
3.70801
3.32969
2.96668
2.64137
2.36308
2.13629
1.95848
1.82098
1.71547
1.63475
1.57439
1.53097
1.50144
1.48246
1.47222
1.4695
1.4731
1.48155
1.49353
1.50783
1.52326
1.53872
1.55307
1.56517
1.57384
1.57823
1.57731
1.57033
1.55628
1.53489
1.50582
1.46935
1.42544
1.37478
1.31814
1.25722
1.19446
1.13343
1.08019
1.04281
1.03091
1.05624
1.12778
1.24699
1.40754
2.04796
2.03614
2.0604
2.1376
2.28539
2.51829
2.84214
3.24638
3.7019
4.15925
4.55866
4.84806
4.99852
4.99894
4.86439
4.61822
4.29708
3.92859
3.51516
3.1183
2.75835
2.45892
2.22393
2.04081
1.89826
1.78685
1.70116
1.6378
1.59354
1.56298
1.54371
1.53398
1.53252
1.53749
1.54728
1.56046
1.57566
1.59159
1.60696
1.62048
1.63096
1.6375
1.63901
1.63477
1.62346
1.60485
1.57849
1.54462
1.50311
1.45465
1.39996
1.34069
1.27905
1.2186
1.16501
1.12575
1.111
1.13426
1.20775
1.33629
1.51455
2.04201
2.00975
1.991
1.99596
2.03777
2.13115
2.2902
2.52434
2.83315
3.20441
3.60368
3.99457
4.33387
4.58624
4.72153
4.73092
4.61642
4.38437
4.06981
3.67237
3.24063
2.86806
2.57168
2.33517
2.14326
1.98944
1.86823
1.77768
1.71287
1.66582
1.63385
1.61378
1.60445
1.60376
1.60949
1.61995
1.63354
1.64872
1.664
1.67776
1.68922
1.69706
1.7005
1.69858
1.69002
1.67421
1.6511
1.62008
1.58175
1.53615
1.48466
1.42841
1.36967
1.31209
1.26037
1.22175
1.20683
1.23045
1.30616
1.44262
1.63465
0.290469
6.61041
6.28244
0.227871
0.355328
0.126552
0.00316222
2.50269
0.00337877
0.0233768
3.32774
1.0859
0.00316395
6.16885
0.110919
5.38227
0.00326111
2.61556
3.63109
0.00315813
0.228301
5.99905
6.44365
0.00329999
0.00333288
0.105777
0.00316034
0.518626
0.00324742
0.00346028
0.730716
0.00324664
0.0163226
2.49558
0.792562
3.40412
2.53756
1.58911
0.00316528
2.59197
1.86562
2.00178
0.00320904
4.65826
3.23665
0.281466
0.00360826
0.0152124
0.13733
1.10997
6.66333
7.71303
0.00310771
0.00405244
0.037786
0.00894708
0.00345101
0.677448
2.41194
7.40389
2.50184
0.00369651
0.147586
0.0319159
6.4539
0.440661
1.98017
1.79737
0.00432613
0.00321288
1.20346
2.56476
1.69671
0.0145634
0.0395523
4.0044
6.84707
3.28058
0.00310847
0.943637
0.00711008
2.59711
0.0108017
4.7966
0.00321774
1.08277
0.003362
2.19343
0.0149998
0.00491624
0.119546
0.00310407
0.0037837
7.5763
5.42477
0.00359515
0.439613
0.308357
0.00605003
6.53504
0.205893
2.47841
0.743358
0.00310001
0.00316494
0.0030972
0.304486
0.124834
0.00324159
6.04371
6.72912
0.00939571
4.65153
1.4996
2.63
2.69847
1.78578
0.00391008
0.0855213
0.00417867
0.00436022
3.49648
0.00725382
7.31716
7.67076
1.02767
0.00321415
1.03233
1.03908
0.00320982
0.0341424
0.0334729
1.70553
0.00565872
3.01632
0.00321952
0.00316026
7.61585
7.77925
0.00322919
0.167101
5.56892
0.104891
0.302833
1.55914
4.76167
0.0398464
1.64902
0.0120994
7.16128
1.22123
0.00925153
2.81221
4.73628
6.24811
0.00330585
0.00326723
0.216914
0.00311598
1.95039
0.0307988
0.00511376
0.00319861
0.00321886
0.00323668
2.84392
1.82335
1.54861
0.00332131
6.88221
4.82399
3.15384
4.90442
0.0140018
3.75289
1.65932
1.89731
0.00324016
0.00568498
2.90198
3.06857
2.05446
3.65548
0.00321477
0.00352269
4.97574
0.0360647
0.569157
0.0032374
0.00360469
0.10494
0.00339326
7.75296
0.684113
0.00310482
0.255807
1.81632
5.41418
0.00449548
1.92865
0.00321723
0.00323272
4.90698
2.38501
7.35902
0.00453976
0.00339446
0.00769532
2.69412
2.20858
1.0938
4.98869
1.53678
6.85037
0.187061
4.30874
4.04455
1.9538
1.37387
2.29518
0.00487639
0.0370141
0.00322453
0.00320106
1.82337
0.0181905
0.0201866
0.00569803
0.0131441
2.77166
4.74518
0.0189032
5.94822
1.08595
0.380152
0.00318313
0.159726
2.78137
1.03981
0.0041444
1.17813
1.18814
0.178523
0.265029
7.2077
0.776807
0.481322
5.11439
0.0038413
0.00316133
0.00403434
0.0105116
1.752
0.00336118
0.00648151
0.0031648
0.387228
4.00415
3.94434
2.74054
1.26683
1.4472
7.56238
0.00434735
2.07923
4.48009
0.00320942
1.99589
0.00321717
4.0234
0.385349
1.54178
0.00533836
0.00321958
1.90536
0.512085
0.00323892
0.00323602
0.00325047
0.00324585
0.360604
1.58666
2.98499
0.0149077
0.00324058
0.0031642
0.00309835
4.72396
0.228255
0.00446884
1.62702
0.0878461
0.0418183
0.00309182
0.265348
0.00323971
0.0512386
1.44502
4.75966
0.307985
0.00391216
0.00596497
3.26799
0.139778
1.93224
7.50818
0.00350237
0.00319727
0.0031871
5.77564
0.00331096
4.80848
0.00322117
1.84839
1.207
0.0271274
2.97776
3.93758
0.00467791
2.72352
2.68481
1.62744
4.63022
1.07017
7.78906
2.44704
3.87969
3.61519
4.46647
1.68794
0.158226
7.68108
7.27606
3.00493
2.12063
0.00395808
7.07029
2.78033
6.80605
0.0275533
0.0035863
0.00321403
0.00342352
0.17358
0.422994
0.733302
0.0923379
0.00317478
5.97405
0.00321479
1.44804
1.91677
6.33347
2.66815
1.83973
0.00595803
0.00425716
0.0911753
2.80769
0.0103424
0.725983
5.28479
2.05445
4.15293
6.3165
3.28958
0.00346258
7.28473
5.40403
1.72097
0.00323434
6.32258
5.6267
0.00333252
1.96844
0.00323805
6.83898
5.73458
1.87014
4.16917
2.55028
5.60354
0.00329247
5.60403
0.00386342
3.61348
4.01228
1.91061
7.26056
0.723979
0.213573
0.553644
0.0042413
4.27741
0.144667
0.00815257
0.00509604
4.54249
0.00383095
4.36778
0.00319222
0.00323528
0.00600871
1.79047
0.104949
1.82399
0.00569862
4.22138
0.163584
6.69835
4.35827
2.62092
6.30845
0.00338562
7.26723
2.91701
0.00321111
3.9413
2.03961
0.00310257
0.00316806
3.37815
0.00649618
1.98156
0.0905392
2.35895
0.0268243
0.604061
2.61824
5.03373
2.39426
4.08276
3.63946
0.00395672
0.0221424
1.68811
1.6768
7.51347
6.55365
5.42174
0.0655105
5.04947
5.02394
0.495762
1.72191
2.81085
2.05281
0.00347941
4.1399
7.78887
0.00416301
4.38756
1.89599
2.83435
0.0241974
0.067828
6.32847
0.00596434
7.50754
0.00461949
0.257514
0.00320401
0.997893
2.29256
0.230782
0.00480005
0.00370491
2.70466
1.60649
0.081639
0.42275
5.97591
4.07519
0.00450957
1.45955
1.64989
3.2188
1.50053
4.17956
1.95678
5.49272
3.25481
0.495817
0.983339
7.40009
1.89602
7.61361
6.02199
0.0326992
3.44716
2.83486
0.00337915
1.80918
1.58964
1.33003
0.0174074
4.77019
1.43946
0.696759
1.89892
0.00545813
0.00321496
0.0426518
2.30665
4.66394
2.59336
0.00322115
0.00318953
0.00321531
1.71543
0.0278343
0.00321534
0.124319
4.52061
5.04788
0.0105445
0.0107677
0.00315542
0.00320526
0.00598441
1.7356
1.72238
1.63801
0.459507
7.53994
5.8833
0.00526702
3.42669
1.83896
1.94082
4.00921
7.38775
0.00346311
0.0104951
0.00323804
3.84301
0.243694
0.00316913
1.37833
0.162613
7.41828
0.00323854
7.70838
1.14715
0.0474942
6.47001
0.00323178
0.00319508
0.00404559
7.71859
3.26617
5.22827
5.05732
1.02142
1.76329
0.00312655
0.00603159
0.0912408
0.0133719
0.0251759
1.95021
2.14866
0.00322452
1.26294
1.83322
6.18117
7.71223
0.00823516
7.67161
0.00591782
0.0303535
3.62051
0.00320143
5.58113
0.00324077
0.00336698
0.0224226
2.11764
0.628499
2.54527
1.86544
0.00365873
1.76752
4.61089
0.051657
0.22337
0.842726
0.00331498
0.00326721
0.00693863
5.37073
0.528536
0.00335881
7.27312
6.07019
6.64682
0.0321517
2.03479
0.00421584
2.40243
0.161579
0.0913131
2.66046
1.66904
1.88742
6.06003
0.00327939
0.00313279
0.0104791
4.1058
4.51211
0.979739
0.0138853
0.00333369
0.00323895
0.0088335
0.0270168
0.00661193
2.18177
1.75701
0.0115903
1.55978
5.98311
0.0032713
2.38292
0.00321765
0.524152
0.00324484
0.0222147
2.45768
0.0201317
0.00320608
0.769313
7.83754
7.2018
0.0031899
0.00326407
0.39031
0.0281337
0.00321641
4.44572
0.00370125
1.674
7.80174
2.3916
1.69133
2.43562
3.68582
7.52802
0.00322914
0.00745012
0.0149771
4.21787
1.42931
6.43651
0.664736
0.37075
4.26532
3.6753
5.08233
0.725433
2.75749
0.00322242
0.358818
1.64824
2.53869
3.9419
1.92089
0.226504
2.52994
0.102726
0.00937018
1.71898
0.00323942
5.88888
0.0036631
0.373413
7.34649
2.72929
0.565391
0.00742139
0.754799
0.00329899
0.0031917
0.106821
0.0225379
1.77701
0.0153549
1.7452
0.00322134
0.0280078
0.00316631
4.47839
0.00509648
4.07777
2.50008
0.0219901
1.90577
7.60701
0.00325811
1.69712
4.50209
0.00335949
7.31449
0.0632438
0.00348519
0.00339454
7.34061
0.00317848
0.00429152
0.0870863
0.100969
7.1355
7.19482
0.00322107
0.00327002
1.08693
2.307
0.0146153
0.256814
2.03669
0.00321773
0.00383415
0.00372372
5.98366
7.20915
0.489896
7.27645
0.0261318
1.59193
0.00332523
0.0147974
0.0249265
0.0363615
0.00322993
6.9778
0.00320091
0.0250703
0.00332172
0.240477
0.0225212
0.0149018
0.43565
0.680311
2.27844
0.394188
1.07457
1.82579
5.08675
0.00343915
4.95126
7.6302
1.12629
3.99244
0.00327896
4.32946
3.85274
0.00321581
7.46137
2.31865
0.00809977
0.0107828
5.84259
5.66829
0.0575551
7.52109
7.39158
0.80097
7.32461
7.23935
4.92949
1.93001
1.67926
1.05373
7.18679
7.47358
0.0219587
7.48832
2.54832
4.35046
0.00343336
0.338994
0.367705
6.74671
5.84464
0.0202538
4.25486
6.37354
0.483748
0.034091
0.376744
1.81716
0.00535253
1.85354
6.93519
0.0338495
6.70265
1.33166
4.40736
6.29119
0.00322226
0.005664
1.06421
0.702967
0.0183607
0.00321836
0.188612
0.257677
0.00451362
0.00323648
4.21447
0.997998
3.02884
1.00893
0.00862929
0.00417353
0.0892146
3.37595
0.00346008
1.85026
1.66251
0.479205
2.29869
0.00397252
0.116747
0.00320215
0.355259
4.30808
0.00435162
0.11846
2.10801
5.8835
0.224895
3.99128
0.586891
0.161045
0.0039282
2.35739
7.74713
0.00321148
0.00328223
5.59764
0.0245504
0.00323562
3.76834
0.243104
1.90968
2.00771
1.4543
0.145612
1.74197
3.49308
5.80153
4.46222
0.00327549
5.68765
0.0038903
2.52275
0.00340221
0.00452229
2.11405
0.00657505
3.86788
0.0207412
0.0398157
1.82406
0.713157
0.0641916
0.00367428
6.20072
0.00364366
0.0031533
7.76327
5.80791
2.83632
1.92488
0.00343457
0.00307294
1.88535
5.5885
0.00319865
6.69017
1.66371
0.00324249
5.94975
0.00311712
0.355343
0.919768
1.36998
0.358193
1.57189
1.93633
0.00311311
7.21105
7.51384
0.00321543
0.0169707
1.92806
0.0031316
6.90945
5.55447
4.38772
0.00321767
0.00317073
3.56509
0.0419916
0.00350265
1.81929
1.6962
4.22402
0.00315382
0.00338041
0.0243614
0.0194752
0.00321705
0.00642944
5.16787
2.87103
0.0032224
1.31979
0.00321474
0.703072
0.00421889
0.00358628
2.26314
0.00326653
0.120807
0.00317617
2.89869
0.181601
1.68682
6.2176
4.36528
3.71348
0.822097
1.24312
0.00323548
0.939218
7.25472
4.06741
0.106928
0.0034669
5.2056
0.00321471
0.03108
0.00315607
7.15909
0.77799
0.365455
6.37136
2.19196
0.479953
4.13804
0.706685
6.72716
4.52875
0.00331015
0.00327529
0.00820067
0.00323251
0.0228049
4.39547
0.00378213
7.0933
0.00600925
0.0733916
0.585016
4.77322
0.00488732
2.69794
0.0171108
3.12375
2.42304
6.95255
0.00340014
0.00384771
0.248291
3.66014
1.73037
3.68206
0.421883
1.04158
1.60606
0.0507051
1.02532
0.262166
1.6848
0.00328295
4.32587
0.416538
3.13599
0.0033648
3.04669
0.972094
0.00460285
1.61991
1.80636
0.0654036
0.00314931
0.00321799
4.96027
2.80907
1.38484
0.00320713
0.0176014
1.99595
6.25892
0.462775
0.0126264
0.0032242
5.49638
5.2017
2.08201
2.63645
0.00321319
3.523
7.41527
0.00321105
0.00321774
1.22609
0.00410452
0.00988189
0.0317185
1.91884
0.00411382
2.21272
7.59668
0.00320526
0.00346418
0.00316809
0.00330598
3.7313
4.62939
7.74068
0.0290418
2.34859
2.20198
0.0872284
2.88398
0.00348342
1.68889
0.222055
2.07504
0.687104
1.63047
3.11928
0.0289746
0.00323895
5.83254
4.44075
4.71685
0.914274
1.75871
0.175099
1.66709
0.00929116
0.00483571
3.46952
5.47619
0.0220874
0.131669
0.00324517
0.0781458
1.9134
0.0278665
1.02177
0.694798
3.7958
2.12588
0.437985
6.94163
5.4239
2.94465
1.64943
4.27417
3.53178
0.56682
2.67249
0.00611877
2.80161
2.95511
0.00320398
0.00313646
0.121469
0.00322661
0.00333123
3.00745
4.36009
0.00322006
3.238
0.0032147
0.00319232
0.00321566
0.00326324
0.00595035
1.92826
2.6894
7.02025
0.0031599
0.00390592
0.96607
0.00355468
0.0330501
0.00324573
0.0036099
4.44585
0.00391023
0.0109694
2.81159
0.0104917
0.00321968
4.00063
0.0032142
0.00326658
0.268357
0.00360549
0.939331
0.0045871
0.0301264
0.00320423
0.00325409
7.43494
7.60602
2.68259
0.026828
2.96637
1.56053
0.00474436
1.76603
4.15749
6.85945
4.5669
0.00312629
1.98628
2.52679
0.146638
1.74166
4.44824
0.173519
2.04352
0.216557
1.71927
0.0389733
1.02717
0.00323489
6.72991
0.00329159
1.7969
2.47447
0.00321516
0.313747
0.00731101
0.0192257
0.00317644
0.770711
0.00366348
0.00322164
2.51529
0.00963842
0.110468
6.80764
1.8925
0.00346094
0.0038829
2.40129
7.12065
0.0030936
0.00324647
0.0724888
1.34545
5.52621
0.00659753
1.65596
0.00321796
0.00344323
0.00314807
0.0348768
0.989093
0.0101597
6.63473
1.79406
7.10865
5.98866
0.00351917
7.41525
3.72083
0.00317934
0.00322626
0.00321814
0.00439674
0.00320258
3.82128
0.00320802
0.00323934
6.8204
0.325319
0.00775843
0.02154
1.95931
0.923287
0.00826445
0.0034595
6.23679
0.00324545
0.805916
0.00326238
0.00352372
5.84686
5.84815
0.00871493
0.00351471
0.341535
0.00320644
6.8618
0.00325546
5.57318
0.0249876
0.717963
0.0331069
0.367018
0.376103
1.49121
0.00324275
0.00356622
0.0115756
3.22979
0.119125
7.41616
0.00321939
0.00459777
0.00556171
7.08448
2.78572
3.06283
0.00694637
0.00901937
0.210453
0.00322351
1.27395
2.48708
0.0170041
6.02589
6.12008
1.99994
0.00534297
0.389066
2.85976
6.76925
1.80293
0.0188346
3.12456
0.0627265
5.21162
0.0915328
0.523515
2.59788
0.00324365
1.76435
0.00455042
0.0118708
0.00806768
0.0501282
0.00370204
1.29532
0.0032265
3.06518
0.095661
0.00361159
0.245214
0.00323205
0.28409
0.117521
2.30941
0.456862
4.61705
0.242477
0.00321699
0.0031903
0.72214
0.0915965
2.82854
7.12822
0.00322408
3.90779
2.68321
0.0232271
1.99437
0.595945
2.34633
2.13977
0.0342671
0.00588954
7.14351
1.52049
5.82713
0.00321079
1.63992