/*--------------------------------*- C++ -*----------------------------------*\
| =========                 |                                                 |
| \\      /  F ield         | OpenFOAM: The Open Source CFD Toolbox           |
|  \\    /   O peration     | Version:  2.3.1                                 |
|   \\  /    A nd           | Web:      www.OpenFOAM.org                      |
|    \\/     M anipulation  |                                                 |
\*---------------------------------------------------------------------------*/
FoamFile
{
    version     2.0;
    format      ascii;
    class       volScalarField;
    location    "1";
    object      p;
}
// * * * * * * * * * * * * * * * * * * * * * * * * * * * * * * * * * * * * * //

dimensions      [0 2 -2 0 0 0 0];

internalField   nonuniform List<scalar> 
9648
(
0.161088
-0.0670254
-0.346439
-0.701651
-1.13643
-1.65957
-2.28228
-3.01283
-3.85979
-4.84104
-5.96791
-7.25349
-8.71058
-10.3501
-12.1813
-14.2144
-16.4574
-18.9191
-21.6026
-24.5124
-27.6534
-31.0219
-34.6178
-38.4361
-42.4723
-46.717
-51.1591
-55.7899
-60.5916
-65.5551
-70.6599
-75.8906
-81.2314
-86.6577
-92.1579
-97.7041
-103.283
-108.874
-114.452
-119.997
-125.485
-130.91
-136.231
-141.439
-146.523
-151.451
-156.211
-160.786
-165.18
-169.359
-173.29
-176.975
-180.418
-183.587
-186.485
-189.098
-191.412
-193.434
-195.139
-196.542
-197.629
0.763969
0.515371
0.227479
-0.125362
-0.55233
-1.05768
-1.65379
-2.35491
-3.17262
-4.11648
-5.19787
-6.42884
-7.82062
-9.38375
-11.1281
-13.0626
-15.1952
-17.5326
-20.0796
-22.8403
-25.8174
-29.0104
-32.4177
-36.0351
-39.8573
-43.8763
-48.0825
-52.4654
-57.0116
-61.7089
-66.5406
-71.4911
-76.5441
-81.6803
-86.883
-92.1317
-97.4096
-102.697
-107.973
-113.217
-118.41
-123.535
-128.567
-133.491
-138.289
-142.939
-147.427
-151.735
-155.848
-159.764
-163.47
-166.948
-170.187
-173.176
-175.9
-178.356
-180.525
-182.419
-184.012
-185.311
-186.296
0.573773
0.355533
0.0922731
-0.228906
-0.616266
-1.08591
-1.64485
-2.30484
-3.07645
-3.97311
-5.0055
-6.18578
-7.5248
-9.0326
-10.719
-12.5924
-14.6605
-16.9295
-19.4041
-22.0882
-24.984
-28.0916
-31.4094
-34.9331
-38.657
-42.5735
-46.6734
-50.9464
-55.3801
-59.9614
-64.675
-69.5051
-74.4357
-79.4491
-84.5274
-89.6521
-94.8057
-99.9689
-105.122
-110.247
-115.323
-120.331
-125.252
-130.069
-134.764
-139.317
-143.714
-147.938
-151.973
-155.807
-159.43
-162.829
-166.001
-168.919
-171.589
-173.991
-176.133
-177.981
-179.547
-180.826
-181.826
0.79831
0.587448
0.323164
0.00389779
-0.377515
-0.831637
-1.36904
-2.0011
-2.73941
-3.5965
-4.58441
-5.71476
-6.99826
-8.44485
-10.0647
-11.8655
-13.8549
-16.0386
-18.4209
-21.0056
-23.7949
-26.7884
-29.985
-33.3798
-36.9672
-40.7394
-44.6875
-48.8019
-53.0703
-57.4799
-62.0166
-66.664
-71.407
-76.2295
-81.1133
-86.0407
-90.9951
-95.9576
-100.91
-105.834
-110.711
-115.522
-120.247
-124.87
-129.374
-133.741
-137.956
-142.003
-145.871
-149.543
-153.012
-156.265
-159.295
-162.086
-164.631
-166.921
-168.949
-170.705
-172.185
-173.385
-174.305
0.87513
0.687765
0.453739
0.164376
-0.186999
-0.609453
-1.11273
-1.70741
-2.40576
-3.21893
-4.15974
-5.23837
-6.4658
-7.85089
-9.40463
-11.1336
-13.0452
-15.145
-17.4357
-19.922
-22.6062
-25.487
-28.5644
-31.8321
-35.2847
-38.9146
-42.7123
-46.6703
-50.7757
-55.0162
-59.3788
-63.8461
-68.4047
-73.0399
-77.7331
-82.4669
-87.2271
-91.9937
-96.7506
-101.481
-106.166
-110.787
-115.324
-119.764
-124.087
-128.277
-132.321
-136.202
-139.91
-143.43
-146.754
-149.87
-152.773
-155.45
-157.89
-160.083
-162.019
-163.696
-165.113
-166.261
-167.138
0.975223
0.801037
0.586183
0.320031
-0.00407113
-0.396494
-0.866473
-1.42454
-2.08365
-2.85364
-3.74858
-4.77675
-5.94988
-7.27403
-8.76324
-10.4216
-12.2559
-14.2725
-16.4711
-18.858
-21.4366
-24.2028
-27.1606
-30.2993
-33.6147
-37.0992
-40.7418
-44.5394
-48.4768
-52.5423
-56.7257
-61.0061
-65.3722
-69.8129
-74.3073
-78.8382
-83.3954
-87.9562
-92.5075
-97.0356
-101.519
-105.94
-110.278
-114.523
-118.654
-122.656
-126.519
-130.222
-133.757
-137.114
-140.282
-143.251
-146.017
-148.569
-150.895
-152.98
-154.816
-156.403
-157.742
-158.827
-159.651
1.07281
0.91491
0.718965
0.474437
0.176071
-0.187958
-0.626345
-1.14856
-1.7698
-2.49731
-3.34817
-4.32751
-5.44847
-6.71155
-8.13773
-9.72575
-11.4825
-13.4166
-15.5221
-17.807
-20.2795
-22.9282
-25.7663
-28.7754
-31.9506
-35.2875
-38.769
-42.403
-46.1684
-50.0526
-54.0546
-58.1435
-62.3076
-66.5483
-70.8404
-75.1597
-79.5075
-83.8555
-88.1921
-92.512
-96.7891
-101.006
-105.136
-109.177
-113.111
-116.918
-120.592
-124.109
-127.466
-130.65
-133.659
-136.471
-139.091
-141.515
-143.724
-145.699
-147.428
-148.915
-150.173
-151.196
-151.964
1.1634
1.02358
0.849293
0.625389
0.353475
0.0164926
-0.392634
-0.876756
-1.46297
-2.14582
-2.95683
-3.88702
-4.96444
-6.15866
-7.5246
-9.04445
-10.7192
-12.5778
-14.5895
-16.7618
-19.1372
-21.6558
-24.3824
-27.2636
-30.2895
-33.4866
-36.7899
-40.2591
-43.8558
-47.5432
-51.3753
-55.2711
-59.2088
-63.2491
-67.3539
-71.4329
-75.5712
-79.7042
-83.8073
-87.9251
-91.9857
-96.0083
-99.9069
-103.734
-107.481
-111.078
-114.572
-117.883
-121.063
-124.055
-126.911
-129.546
-132.003
-134.305
-136.41
-138.257
-139.882
-141.243
-142.421
-143.395
-144.099
1.25443
1.12317
0.986765
0.767533
0.533375
0.21224
-0.174148
-0.592335
-1.17554
-1.77872
-2.58649
-3.43596
-4.52472
-5.58313
-6.92998
-8.39959
-9.95017
-11.7779
-13.6748
-15.7018
-18.0606
-20.3658
-23.0448
-25.7737
-28.6283
-31.7615
-34.8052
-38.1428
-41.6084
-45.023
-48.7542
-52.429
-56.1009
-59.9915
-63.9564
-67.6245
-71.658
-75.5742
-79.3885
-83.362
-87.1324
-91.0324
-94.6192
-98.3043
-101.918
-105.191
-108.608
-111.606
-114.675
-117.365
-120.132
-122.49
-124.808
-127.065
-129.048
-130.705
-132.32
-133.46
-134.631
-135.559
-136.129
-198.378
-198.805
-198.914
-198.694
-198.167
-197.322
-196.162
-194.687
-192.888
-190.792
-188.376
-185.654
-182.662
-179.405
-175.873
-172.08
-168.033
-163.76
-159.253
-154.525
-149.61
-144.493
-139.201
-133.743
-128.149
-122.424
-116.554
-110.575
-104.492
-98.3404
-92.119
-85.8486
-79.5508
-73.2258
-66.9018
-60.5809
-54.2864
-48.0303
-41.8207
-35.6745
-29.6032
-23.6302
-17.7528
-11.9913
-6.3597
-0.860447
4.49072
9.68558
14.7091
19.5544
24.2169
28.6855
32.9494
37.0071
40.8482
44.4677
47.8603
51.021
53.949
56.6402
59.094
-186.971
-187.318
-187.392
-187.161
-186.631
-185.811
-184.689
-183.271
-181.546
-179.525
-177.206
-174.6
-171.747
-168.646
-165.287
-161.675
-157.823
-153.744
-149.444
-144.937
-140.239
-135.356
-130.303
-125.09
-119.731
-114.239
-108.644
-102.949
-97.1606
-91.2965
-85.3693
-79.3944
-73.387
-67.3588
-61.3262
-55.2985
-49.2918
-43.3198
-37.394
-31.527
-25.7322
-20.0253
-14.4135
-8.91048
-3.52844
1.72565
6.84052
11.8056
16.6092
21.2441
25.7036
29.9786
34.0598
37.9442
41.6225
45.09
48.3399
51.3699
54.1769
56.7579
59.112
-182.529
-182.955
-183.043
-182.824
-182.318
-181.536
-180.428
-179.027
-177.302
-175.286
-173.003
-170.453
-167.624
-164.527
-161.181
-157.599
-153.788
-149.759
-145.521
-141.087
-136.469
-131.676
-126.72
-121.611
-116.362
-110.981
-105.49
-99.9004
-94.2243
-88.4756
-82.6678
-76.816
-70.9336
-65.0346
-59.1318
-53.2368
-47.363
-41.5231
-35.7298
-29.9959
-24.3342
-18.758
-13.2771
-7.90348
-2.64743
2.48249
7.4756
12.3216
17.0102
21.5344
25.8856
30.0567
34.04
37.8307
41.421
44.8058
47.9795
50.9386
53.6803
56.2014
58.5021
-174.939
-175.296
-175.355
-175.122
-174.588
-173.739
-172.612
-171.258
-169.648
-167.765
-165.6
-163.172
-160.479
-157.531
-154.338
-150.908
-147.252
-143.381
-139.305
-135.038
-130.593
-125.978
-121.204
-116.282
-111.223
-106.04
-100.746
-95.3561
-89.8823
-84.3372
-78.7335
-73.0865
-67.4098
-61.7173
-56.02
-50.33
-44.659
-39.0191
-33.4237
-27.8849
-22.4153
-17.0274
-11.7318
-6.53929
-1.45956
3.4996
8.32685
13.0129
17.5467
21.9231
26.1326
30.168
34.0239
37.6939
41.1728
44.4526
47.5305
50.4004
53.061
55.5083
57.7437
-167.74
-168.069
-168.119
-167.893
-167.385
-166.597
-165.558
-164.189
-162.575
-160.714
-158.597
-156.229
-153.612
-150.757
-147.668
-144.353
-140.819
-137.077
-133.138
-129.017
-124.724
-120.271
-115.665
-110.916
-106.034
-101.033
-95.9261
-90.7273
-85.4479
-80.1001
-74.6942
-69.2476
-63.7727
-58.2853
-52.7929
-47.3076
-41.8396
-36.4004
-31.0044
-25.6626
-20.3869
-15.1908
-10.0837
-5.07637
-0.178055
4.6066
9.26216
13.7837
18.1568
22.3796
26.4416
30.3355
34.0573
37.5998
40.9609
44.13
47.1069
49.8809
52.4552
54.8231
56.9879
-160.211
-160.506
-160.532
-160.291
-159.782
-159.011
-157.976
-156.675
-155.117
-153.314
-151.266
-148.975
-146.446
-143.691
-140.714
-137.519
-134.113
-130.503
-126.705
-122.735
-118.602
-114.318
-109.888
-105.317
-100.62
-95.8061
-90.8899
-85.8894
-80.8113
-75.6676
-70.4644
-65.2246
-59.9569
-54.6831
-49.403
-44.13
-38.8723
-33.6404
-28.4507
-23.3123
-18.237
-13.2395
-8.32682
-3.51148
1.19814
5.80403
10.2832
14.6364
18.8421
22.9066
26.8155
30.5617
34.1452
37.5536
40.7942
43.8475
46.7201
49.394
51.8801
54.1634
56.2553
-152.479
-152.737
-152.74
-152.483
-151.975
-151.219
-150.205
-148.935
-147.424
-145.681
-143.706
-141.496
-139.056
-136.406
-133.547
-130.476
-127.201
-123.722
-120.066
-116.25
-112.282
-108.175
-103.928
-99.5413
-95.0331
-90.4093
-85.6894
-80.893
-76.0225
-71.0876
-66.0896
-61.0593
-56.0029
-50.9509
-45.8896
-40.8378
-35.7987
-30.7797
-25.8022
-20.8751
-16.0058
-11.2117
-6.49893
-1.88184
2.63297
7.05645
11.3554
15.5385
19.5715
23.4722
27.2225
30.8163
34.2558
37.5248
40.6426
43.5769
46.3456
48.9154
51.3096
53.5031
55.5203
-144.569
-144.778
-144.759
-144.476
-143.974
-143.233
-142.248
-140.987
-139.509
-137.844
-135.949
-133.816
-131.464
-128.921
-126.194
-123.249
-120.106
-116.754
-113.247
-109.592
-105.788
-101.865
-97.8193
-93.6133
-89.2978
-84.868
-80.3517
-75.7644
-71.0967
-66.3754
-61.5767
-56.7617
-51.9137
-47.0974
-42.2588
-37.4482
-32.6483
-27.8335
-23.0691
-18.3724
-13.704
-9.11334
-4.61384
-0.192704
4.11276
8.35935
12.4701
16.4893
20.3351
24.0696
27.6523
31.0809
34.3815
37.5017
40.5062
43.3157
45.9873
48.4382
50.7408
52.8331
54.7797
-136.556
-136.689
-136.657
-136.345
-135.853
-135.096
-134.156
-132.833
-131.432
-129.954
-128.065
-126.012
-123.714
-121.262
-118.766
-115.878
-112.862
-109.702
-106.32
-102.841
-99.1215
-95.3627
-91.6165
-87.4958
-83.3852
-79.2266
-74.8504
-70.5083
-65.9372
-61.5469
-56.8235
-52.3475
-47.5953
-43.1156
-38.4607
-33.9206
-29.4208
-24.6923
-20.1484
-15.7301
-11.1799
-6.84315
-2.5949
1.71069
5.66041
9.87228
13.6571
17.6313
21.1515
24.7951
28.2273
31.3932
34.6729
37.5285
40.5576
43.114
45.7968
47.9787
50.3175
52.2081
54.1932
61.312
63.2926
65.0365
66.5443
67.8154
68.8541
69.6644
70.2511
70.6187
70.7734
70.738
70.5553
70.2174
69.683
68.98
68.1139
67.047
65.7904
64.366
62.7895
61.0729
59.2266
57.2629
55.1927
53.0285
50.7831
48.4698
46.1029
43.6947
41.2609
38.8148
36.3714
33.9461
31.5524
29.2071
26.9232
24.7157
22.5991
20.5962
18.7221
17.0015
15.4396
14.0498
12.8518
11.8599
11.0835
10.5318
10.2061
10.1005
10.1965
10.4599
10.8369
11.249
11.5953
11.7343
11.0169
9.51256
8.0051
6.77918
5.86101
5.04895
61.2394
63.1408
64.8162
66.266
67.4904
68.4915
69.2726
69.8379
70.1915
70.3356
70.285
70.0987
69.7759
69.2653
68.5813
67.7292
66.6885
65.4672
64.0831
62.5506
60.8813
59.0857
57.1758
55.1638
53.0617
50.8814
48.6353
46.3365
43.9974
41.6321
39.2537
36.8764
34.5144
32.1816
29.893
27.6625
25.5049
23.4313
21.4487
19.584
17.8455
16.2694
14.8629
13.6396
12.6115
11.7888
11.1797
10.7863
10.6028
10.6129
10.7855
11.0708
11.3936
11.6535
11.6672
10.9937
9.66892
8.33349
7.2889
6.49107
5.66863
60.5813
62.4409
64.0802
65.5009
66.7023
67.6873
68.459
69.0216
69.3773
69.5232
69.4832
69.3213
69.0215
68.5333
67.8746
67.0532
66.0554
64.887
63.5611
62.0908
60.4871
58.7603
56.9223
54.9845
52.9578
50.8545
48.6861
46.4653
44.2041
41.916
39.614
37.3115
35.0221
32.7594
30.5373
28.3695
26.2693
24.2486
22.3198
20.5045
18.8212
17.2801
15.8961
14.6795
13.6414
12.7913
12.1359
11.676
11.4058
11.31
11.3589
11.5063
11.6775
11.7703
11.608
10.9319
9.77072
8.55376
7.54118
6.70543
5.87537
59.7646
61.5738
63.1699
64.5558
65.7295
66.6951
67.4532
68.0096
68.3625
68.5072
68.4833
68.3509
68.0754
67.616
66.9873
66.1987
65.2438
64.1293
62.8635
61.4583
59.9239
58.2697
56.5082
54.6499
52.7049
50.6861
48.6039
46.4709
44.2984
42.0997
39.8869
37.6733
35.4715
33.2949
31.1563
29.0692
27.0461
25.0995
23.2423
21.4907
19.8596
18.3605
17.0049
15.8009
14.7584
13.8853
13.1855
12.658
12.2953
12.0823
11.9901
11.9755
11.9706
11.8825
11.5757
10.9045
9.89303
8.79283
7.80325
6.9407
6.12124
58.9444
60.6994
62.2481
63.5962
64.7381
65.6812
66.4218
66.9684
67.3145
67.4592
67.4529
67.3502
67.0971
66.6676
66.0697
65.3161
64.4033
63.3418
62.135
60.7949
59.3307
57.7492
56.0659
54.2892
52.4276
50.4959
48.5024
46.4603
44.3788
42.2723
40.151
38.0287
35.9163
33.8276
31.7739
29.7688
27.8237
25.951
24.1619
22.4706
20.8891
19.4298
18.1022
16.9134
15.8694
14.9757
14.2344
13.6424
13.1908
12.8636
12.6339
12.4617
12.2902
12.0455
11.6363
10.9806
10.0914
9.10611
8.15845
7.288
6.46393
58.1428
59.8421
61.3399
62.65
63.7572
64.6773
65.3985
65.9353
66.274
66.4236
66.4341
66.3587
66.1263
65.7269
65.1596
64.443
63.5714
62.5632
61.4143
60.1393
58.746
57.2367
55.6323
53.9386
52.1605
50.318
48.414
46.4645
44.4745
42.4615
40.4323
38.4024
36.3795
34.3792
32.4099
30.4869
28.6191
26.8193
25.0957
23.4623
21.9284
20.5064
19.2037
18.0263
16.9781
16.0611
15.2769
14.6208
14.0828
13.6481
13.2916
12.9789
12.664
12.2928
11.8056
11.1563
10.3501
9.45886
8.56424
7.70632
6.88073
57.3352
58.9775
60.4217
61.6934
62.7645
63.663
64.365
64.8922
65.2243
65.383
65.4096
65.3593
65.1475
64.7777
64.2409
63.5626
62.7324
61.7782
60.6857
59.4768
58.1565
56.7196
55.1956
53.5853
51.8907
50.1396
48.3265
46.4713
44.5735
42.6559
40.7201
38.7837
36.8503
34.9384
33.0529
31.2119
29.4214
27.6937
26.0333
24.4556
22.9666
21.5798
20.3002
19.1321
18.0775
17.1367
16.311
15.5934
14.9738
14.441
13.9714
13.5373
13.1026
12.6291
12.0779
11.4226
10.6635
9.83807
8.99363
8.15981
7.34389
56.5102
58.101
59.4835
60.7223
61.7496
62.6319
63.3111
63.8324
64.1564
64.3329
64.3692
64.3457
64.1512
63.8134
63.3041
62.6668
61.8739
60.9826
59.9378
58.798
57.5559
56.1854
54.7517
53.2248
51.6058
49.9539
48.2296
46.4747
44.6645
42.8478
41.0033
39.1648
37.318
35.4971
33.6903
31.933
30.2182
28.5649
26.9634
25.4413
23.9906
22.6387
21.3794
20.2225
19.1603
18.195
17.3338
16.5607
15.8658
15.248
14.6796
14.1446
13.61
13.054
12.4472
11.7777
11.0399
10.2563
9.44775
8.63871
7.83927
55.7066
57.3574
58.577
59.8913
60.7631
61.7091
62.2575
62.8689
63.1032
63.3974
63.3411
63.4244
63.1668
62.951
62.3915
61.8692
61.0104
60.2865
59.2387
58.1759
57.0473
55.6362
54.3643
52.9532
51.3216
49.8441
48.1382
46.5522
44.7572
43.1017
41.2854
39.5975
37.7898
36.1092
34.3259
32.6914
31.0089
29.4677
27.8862
26.4547
25.0007
23.7106
22.4503
21.3152
20.2482
19.242
18.3619
17.5371
16.7664
16.0934
15.4285
14.8231
14.1942
13.5803
12.9148
12.236
11.4954
10.7475
9.95404
9.15686
8.37744
4.25528
3.53532
2.85793
2.17234
1.48709
0.841643
0.248212
-0.283694
-0.732564
-1.09112
-1.35589
-1.5325
-1.62277
-1.62246
-1.56098
-1.46119
-1.33722
-1.20919
-1.0915
-0.991916
-0.913803
-0.853252
-0.808503
-0.762372
-0.729622
-0.689541
-0.645343
-0.592534
-0.526526
-0.447496
-0.353439
-0.244038
-0.119709
0.0199881
0.171671
0.334746
0.504983
0.678075
0.850244
1.0159
1.16996
1.30813
1.42862
1.52668
1.59908
1.64595
1.66629
1.66141
1.63216
1.58171
1.51405
1.43255
1.34016
1.2426
1.14126
1.039
0.934543
0.825484
0.709815
0.583422
0.42001
4.84058
4.15935
3.54182
2.90193
2.24635
1.63205
1.06773
0.55665
0.125532
-0.214902
-0.460178
-0.607359
-0.657291
-0.624708
-0.54455
-0.436243
-0.311688
-0.187571
-0.0763504
0.0150603
0.0850635
0.137406
0.168307
0.207624
0.224252
0.253581
0.28292
0.321528
0.371549
0.43448
0.511486
0.60347
0.710832
0.833142
0.968622
1.11463
1.26772
1.42457
1.58104
1.73318
1.87649
2.00556
2.11672
2.20685
2.2731
2.31433
2.33009
2.32067
2.28723
2.23216
2.15849
2.06961
1.96841
1.86082
1.74788
1.63391
1.51738
1.39943
1.27461
1.13591
0.966222
5.08198
4.40533
3.77378
3.08507
2.37966
1.7474
1.16169
0.613856
0.145265
-0.234133
-0.523562
-0.721706
-0.831846
-0.870357
-0.836405
-0.753883
-0.627503
-0.488436
-0.364748
-0.26439
-0.187869
-0.132088
-0.0828292
-0.0568308
-0.0174435
0.0120042
0.0498326
0.0954488
0.152282
0.221319
0.303741
0.400427
0.51158
0.636409
0.77328
0.919765
1.07283
1.22865
1.38308
1.53166
1.67
1.79395
1.89974
1.98403
2.04427
2.07928
2.08871
2.07359
2.03563
1.97775
1.90332
1.81661
1.72152
1.62172
1.52018
1.41931
1.31736
1.21069
1.09291
0.953646
0.781607
5.34994
4.66099
3.99918
3.29323
2.58871
1.95744
1.35423
0.782081
0.309942
-0.0627814
-0.351238
-0.543997
-0.638091
-0.648383
-0.580458
-0.451799
-0.308006
-0.190749
-0.0763853
0.0245097
0.104603
0.164287
0.209977
0.238421
0.266756
0.289204
0.314797
0.347022
0.388362
0.440595
0.505353
0.584282
0.67792
0.785594
0.905803
1.03636
1.1743
1.31629
1.45838
1.59652
1.72639
1.84416
1.94615
2.02943
2.09152
2.13134
2.14839
2.14356
2.11815
2.07484
2.0159
1.94482
1.86418
1.77681
1.68313
1.58483
1.48429
1.38194
1.27109
1.14316
0.994056
5.68728
4.96821
4.27409
3.55921
2.85214
2.19469
1.56459
0.986712
0.51358
0.12611
-0.188653
-0.396716
-0.50044
-0.528273
-0.48613
-0.393734
-0.282212
-0.1519
-0.0360942
0.0622313
0.137265
0.193976
0.236999
0.269873
0.298266
0.324375
0.352333
0.386261
0.42776
0.477826
0.538881
0.612556
0.69955
0.799116
0.910287
1.03078
1.15821
1.28936
1.42076
1.54867
1.6691
1.77869
1.87373
1.95183
2.0102
2.04802
2.0642
2.05978
2.03517
1.99297
1.9351
1.86512
1.78628
1.70115
1.61207
1.5307
1.4495
1.36335
1.27005
1.16521
1.0356
6.08942
5.33631
4.60942
3.88356
3.16975
2.49062
1.84469
1.25407
0.752301
0.333763
0.00493205
-0.208048
-0.331086
-0.381968
-0.348038
-0.253438
-0.135207
-0.013073
0.0980311
0.184427
0.247762
0.295511
0.331035
0.359771
0.382306
0.403721
0.425589
0.453402
0.487182
0.528146
0.579112
0.6423
0.718061
0.805835
0.904556
1.01252
1.1269
1.24526
1.36402
1.48029
1.58988
1.6904
1.77778
1.85066
1.90571
1.94299
1.96075
1.96096
1.94321
1.91063
1.86466
1.80915
1.74751
1.6843
1.62434
1.55328
1.48355
1.41157
1.33103
1.23605
1.11864
6.54845
5.7763
5.02403
4.28465
3.56181
2.87151
2.21827
1.61971
1.09326
0.647936
0.296024
0.0514359
-0.104639
-0.167675
-0.135924
-0.0533034
0.0543114
0.165777
0.265453
0.340762
0.385589
0.419239
0.441744
0.462571
0.475916
0.490033
0.503395
0.523133
0.548447
0.577985
0.618419
0.669999
0.734401
0.80992
0.896424
0.991188
1.09283
1.19812
1.30444
1.40917
1.50818
1.59982
1.67962
1.7475
1.79896
1.83569
1.85472
1.85934
1.84786
1.82446
1.78922
1.74658
1.69831
1.64676
1.59367
1.54403
1.49272
1.43838
1.37539
1.29784
1.19795
7.05055
6.2761
5.51496
4.77289
4.04537
3.35672
2.706
2.11508
1.5825
1.12544
0.755125
0.483152
0.284095
0.19354
0.190443
0.23817
0.333364
0.413595
0.483479
0.54012
0.556447
0.566625
0.567268
0.579168
0.578535
0.585326
0.584353
0.596479
0.612933
0.627807
0.655895
0.696807
0.752127
0.816094
0.890871
0.974251
1.06353
1.15727
1.25251
1.34814
1.43743
1.52201
1.59433
1.65866
1.70578
1.74224
1.76113
1.76973
1.7622
1.74609
1.71764
1.6844
1.64756
1.60711
1.56705
1.52891
1.4918
1.4546
1.40868
1.35052
1.26875
7.58729
6.83168
6.06637
5.32832
4.60264
3.93437
3.29962
2.7533
2.22966
1.79048
1.43619
1.18127
0.90732
0.785147
0.750661
0.729396
0.786579
0.715926
0.723448
0.804788
0.755178
0.741827
0.69555
0.728248
0.688963
0.701889
0.66092
0.67134
0.691345
0.680784
0.683704
0.723401
0.776412
0.825085
0.890835
0.96403
1.04061
1.12697
1.21289
1.30897
1.38254
1.47178
1.52621
1.59968
1.63106
1.67697
1.68064
1.70738
1.68986
1.68818
1.65412
1.6231
1.59831
1.56771
1.54014
1.51124
1.48464
1.46628
1.43321
1.40119
1.33049
4.87826
-4.25841
-5.58668
14.8835
5.75078
19.4125
18.0177
10.9406
11.5364
29.0897
1.65718
23.7405
18.1268
2.78418
21.7088
-102.401
20.5599
12.265
1.46122
17.4655
15.1148
3.13824
0.981983
20.1412
11.4418
17.1133
17.5291
9.54632
20.31
6.84606
10.441
16.6994
28.4262
1.68014
23.0291
0.863802
0.767949
57.3069
18.666
17.5475
7.68519
-2.87669
18.0329
-88.3793
0.648184
31.6414
11.5775
3.02568
16.1911
25.373
-3.25794
-45.605
17.1116
9.51771
13.9962
16.2485
6.95336
7.55243
0.949157
-31.1185
3.90163
15.5054
17.1414
-8.17851
-25.6165
14.872
0.834344
8.84502
18.8785
18.0952
15.3901
59.5125
6.54275
13.4008
13.386
6.29074
-12.3865
44.401
17.1621
28.1159
-0.764494
16.5326
16.7371
-36.7019
17.9857
50.224
12.0074
1.79498
15.378
1.59023
-13.8831
17.1518
5.13056
-31.5641
-37.0521
5.63147
44.2143
9.96852
25.4738
-101.687
14.4976
16.1596
25.0125
17.0399
18.1206
17.0089
15.1224
39.6854
19.7693
-78.0899
-109.309
15.9729
0.759835
1.54116
6.03775
2.12534
1.13445
19.5337
-7.69378
11.3015
12.8769
0.413078
11.293
-118.064
-26.3459
10.7002
15.3115
-47.2326
-35.0075
17.8381
21.261
-8.0116
5.50395
10.9761
2.55641
10.7733
18.0262
-53.0112
-30.6039
11.6665
9.57898
-52.9547
14.8553
49.023
1.61361
12.5308
16.644
1.61519
31.7775
-0.567987
16.2486
16.27
59.066
-33.6257
-59.2658
8.86357
8.27536
-27.9366
16.6261
0.738253
16.6802
26.3935
17.4088
12.5167
14.9203
13.074
7.08188
9.66027
17.1405
0.391494
-1.46459
1.54014
5.92111
17.4191
1.53533
1.56385
1.27599
8.85743
22.4186
2.06235
1.94422
-1.32198
-31.0711
9.72264
6.45622
1.00972
-10.5098
52.1164
9.82722
11.8742
25.4272
20.2419
-16.6504
-39.2799
16.6371
-31.7499
4.31489
0.378638
21.3194
0.788564
9.85116
14.9895
13.4169
-58.9078
-1.55116
20.8513
8.48466
16.1206
-45.6197
0.887994
41.1951
-5.71718
16.3758
-117.572
11.07
-77.7787
-65.4465
1.68973
33.3169
1.85373
11.3732
40.1252
11.9974
16.7367
1.13815
-7.72623
-9.28321
11.7267
17.0105
59.6916
1.46729
21.4247
-5.16312
-37.7577
13.64
19.2869
3.1382
-57.3559
-46.7574
19.3088
13.3547
8.82596
10.9571
15.9637
-123.801
16.6401
8.36667
-98.7743
23.9246
17.2797
8.83754
23.7447
1.45139
8.43721
11.346
18.6664
25.309
15.2781
6.6213
2.0328
15.6652
9.46167
-64.6154
18.5665
0.70957
12.8357
17.531
1.33442
17.5568
1.04049
24.002
1.43902
22.8048
11.3997
52.8318
10.0285
14.2947
10.7678
15.9801
20.7155
50.2897
9.69815
-72.1019
15.3459
14.8872
18.6359
17.069
-61.8592
7.96226
7.91936
-26.1426
40.5131
14.4834
17.0038
35.0818
17.4031
9.53013
4.90763
-0.458741
16.3555
10.9482
5.47512
48.5185
-3.78921
5.26659
-78.8825
21.8193
18.6406
19.396
-100.735
9.76984
11.9849
11.4863
-12.5053
16.462
14.24
1.02612
1.40103
7.03887
1.99136
16.4917
3.55994
15.3676
15.0188
-26.5087
1.97755
15.5469
1.01504
-90.6799
6.41615
-27.249
-44.289
-101.445
2.20863
1.64535
16.8732
0.770813
1.09716
-124.3
35.0813
15.0331
14.7872
12.0003
11.5836
49.7416
11.2643
-9.3731
18.7854
-70.8391
14.9645
1.54435
-45.5051
-114.005
10.6478
-61.9874
8.67099
2.72897
14.5221
1.80922
2.41245
10.2144
0.67995
1.06866
-6.72192
0.962744
16.1089
6.77856
-114.12
-33.9171
3.842
16.5923
-26.0248
-49.6718
12.6602
1.74514
15.7276
-5.39
7.11527
1.65911
-73.9709
1.11749
-79.9354
20.2668
-89.4088
11.2512
4.86986
20.9022
1.33889
-117.603
-27.721
47.4066
50.1605
3.25817
0.818339
17.2468
30.2581
16.7627
-0.0177378
12.0552
-10.2602
17.3064
18.8099
21.9699
21.4031
-7.67136
-46.8057
12.049
-83.147
0.291275
-11.0706
2.02993
-62.0521
-1.63694
18.7854
-124.408
9.62882
9.39857
23.2394
-52.9925
17.0888
18.215
1.52808
17.7571
9.95192
14.4078
1.36337
35.9091
-26.146
-51.7073
9.46279
-61.1946
9.07872
-54.4638
16.8556
15.7213
1.01819
3.9651
-93.4958
-1.40906
1.59344
-10.8449
-62.1759
-59.7716
18.2979
5.68905
-41.5448
-50.1525
17.0868
2.52543
-31.7477
22.8422
13.0441
36.4266
-39.9651
-0.302098
-9.65794
0.645775
9.09436
-90.129
2.31567
10.5058
19.8724
46.9995
3.73943
44.0768
2.06868
17.4433
1.81078
1.63744
13.7395
12.4594
0.457451
1.32786
16.8218
2.37768
1.61726
2.6548
1.6106
2.07506
1.49571
8.06701
4.78521
15.8451
15.6832
-111.138
9.99895
-67.8295
-107.168
16.2247
0.795269
2.3439
19.1238
3.97246
1.53002
16.3271
17.0359
15.1895
5.28455
-37.5891
10.4625
26.5586
13.6393
13.9508
15.5734
5.41128
0.799455
13.4988
19.237
9.58469
1.57605
13.9318
13.5799
-12.7241
12.6781
-0.0105808
-3.38814
-4.26319
17.2036
20.0033
9.42717
22.4451
3.4161
2.77308
48.7064
-21.737
-4.99293
21.9455
8.2025
1.32854
1.5763
-80.3835
-27.022
20.964
3.17792
10.3709
0.8352
-21.1123
18.6898
12.0499
-27.3753
-82.5715
12.7132
-17.4669
-54.2356
4.62091
-105.602
9.33117
9.46306
9.1171
-31.9386
13.8898
-81.0467
-1.96885
13.056
1.0422
17.2985
-0.309145
14.9928
12.8094
31.7655
2.89072
0.986811
14.8567
7.11601
0.789512
-46.6007
-30.3111
8.08429
-33.8704
4.77219
28.6847
1.73735
9.4255
-95.7808
9.93947
8.54673
14.4672
1.54658
52.1564
1.68613
8.12018
8.54969
1.48636
1.19934
13.6164
15.6883
15.9889
9.55031
10.2511
29.2614
-76.3771
8.27561
17.8503
-31.8172
0.83789
-87.2309
13.6534
0.800058
17.7177
-55.3681
4.28441
-21.0716
0.96206
0.896252
2.85003
-106.284
20.5605
17.3556
6.57766
16.1114
-26.8779
-22.4519
-6.41425
10.0344
9.09873
5.01241
16.3449
-0.248884
0.771757
16.2118
23.2482
1.59128
-58.3787
20.9333
1.71338
20.5295
-8.31656
17.25
36.3588
6.68965
29.5395
18.5093
-30.1867
-21.1698
-4.4239
19.0815
10.5991
-32.4834
16.1451
12.5342
4.51539
5.60835
0.818582
-30.6071
40.4873
4.2331
2.07221
1.06516
-89.6688
9.57718
23.3728
15.7415
1.1208
5.52816
-22.8246
14.4809
12.4665
6.19478
1.50739
-6.94754
15.2364
2.10109
10.9755
-21.064
1.54738
39.032
0.967708
0.119027
8.33711
57.2407
17.0594
16.7403
1.45559
10.2417
6.94915
8.86736
10.1118
-116.115
2.47593
-34.9441
30.5611
17.521
8.50499
19.345
-6.23358
-10.9126
1.51986
3.95492
1.55377
12.9039
-2.60085
18.5866
-88.7872
16.7873
6.7678
2.10054
-3.47853
2.88746
-6.74386
10.6451
3.34216
1.03441
19.2566
-121.105
15.4423
17.1178
10.8087
-4.07075
18.9157
3.85703
-21.3871
15.6065
-13.6108
-97.6818
17.492
8.91544
14.5827
-63.3675
-6.50121
15.8225
42.8002
12.6014
9.09381
11.5922
-111.242
-126.376
16.5226
-1.19068
-11.9528
1.60976
17.8162
6.93048
-11.4556
13.8151
15.3575
0.231676
18.5418
19.6078
8.5508
14.8636
-3.035
13.3541
-5.56216
23.1328
1.81354
-4.43402
42.634
1.23817
6.85542
21.9197
4.17727
-45.0905
24.4672
-83.9402
20.8979
1.37487
-19.6229
10.1589
-9.40896
0.827083
12.9089
13.1327
-93.7428
-40.1115
13.5099
-65.0718
-8.66919
53.651
-15.8293
-19.988
21.4361
0.794643
5.93058
11.9983
-55.4959
-22.685
-4.71672
-4.02384
-6.5987
0.996754
22.6313
19.0806
13.382
-121.871
-44.4082
27.519
2.33903
-112.32
11.2865
14.4917
10.3147
1.22758
4.79277
1.29765
-14.632
21.4082
-121.452
-17.2547
-85.9926
-98.6209
18.8442
25.3658
-43.7493
26.1606
14.5999
12.2757
11.0795
10.3967
26.0726
17.9346
2.33973
-51.694
-30.2785
24.5529
2.23504
3.52915
13.8141
1.49158
12.9197
-53.6206
1.45887
49.2273
5.29064
22.2874
11.6116
18.601
15.7462
-76.9768
13.1522
44.7485
1.00076
0.880204
32.2829
61.1238
12.6405
13.2632
25.0742
-50.7006
-15.3458
17.2834
10.0578
-91.7103
27.4746
17.4112
-63.2334
15.7632
3.62655
1.49334
6.20113
-16.3241
53.7552
0.779438
-8.50914
-0.0510662
17.8151
0.573373
9.56298
14.8951
17.3167
12.2467
1.00263
17.3334
0.697216
30.2283
0.120048
11.3185
10.3125
16.6822
8.45319
-49.9057
9.78745
18.1561
-29.3211
-70.9101
34.0403
1.67759
7.52532
16.802
34.3413
-84.8246
9.5118
-2.84559
11.0993
16.3315
-88.437
17.2469
9.8146
49.9626
29.8712
-19.5556
4.32905
15.8715
17.1879
-66.7259
-4.21837
10.1647
14.9377
1.3516
17.5474
-128.035
7.28721
0.933729
10.5723
18.7759
0.303067
14.7793
23.012
24.854
4.55254
-0.333771
17.7898
20.6968
17.4783
20.3538
10.8142
18.1945
-70.6063
2.56503
18.1112
-25.683
14.1149
7.27692
19.6605
11.6561
-62.3189
10.8018
5.08892
18.8957
-20.7607
16.7473
-24.757
-104.343
1.78595
1.37934
-47.7755
16.1938
18.4283
-21.483
-104.816
1.23505
-14.2733
15.905
-82.8389
13.4018
16.6331
18.2715
-18.0992
7.08037
9.58427
-28.6495
17.384
8.62009
-85.1141
10.4558
-119.524
47.1444
11.6812
18.2604
6.39335
16.8418
-9.18773
-6.25555
20.1309
-18.2287
5.76737
12.8765
-38.2067
4.63782
17.5882
-49.3811
14.9337
1.84741
-67.6043
-13.6523
17.2387
19.345
14.7604
62.1513
8.808
-2.39715
-23.8859
15.6481
-11.7505
15.4517
5.34148
15.5626
0.85919
9.89398
0.71829
-14.0104
58.8905
7.36316
59.2539
6.71536
12.817
4.03375
20.078
-9.44444
17.85
11.1446
1.60537
59.7605
16.8614
9.15785
-8.53436
0.683284
-109.092
15.9142
-5.66933
10.5613
-21.7512
-61.9561
1.08547
-73.6462
9.56657
2.86294
-25.4229
18.3633
15.7678
14.0933
12.3467
21.4292
16.2478
12.7192
17.6707
1.2968
-68.3004
17.6528
20.276
17.7129
7.97791
-73.2131
1.31865
-24.2477
15.7288
-43.4908
0.935185
25.0243
-67.5086
17.0637
0.810537
40.1434
1.53981
22.7756
4.10648
1.8337
16.0391
10.4962
-107.61
13.7904
-0.888111
-39.2928
1.56848
15.8568
10.9948
30.9382
2.78072
1.51138
-79.3411
15.9415
16.5013
17.017
-20.1077
-36.0412
14.0451
12.7165
15.1476
1.31264
1.73646
49.304
0.613112
-65.819
2.2295
-59.1952
0.798541
0.811178
32.2966
50.9491
13.0271
60.0448
45.445
18.3685
17.6374
6.2856
14.5238
18.5883
2.35838
2.00053
19.7031
1.78422
10.2935
19.199
9.04737
18.5458
28.8012
1.6584
-5.528
-121.052
17.8881
12.1126
-50.7451
7.7047
22.4504
14.0545
10.9765
2.32225
17.3751
-2.24163
1.85726
30.4011
12.8288
1.05824
16.7853
17.4574
15.6645
5.77202
15.5511
17.0419
-3.59171
18.5389
20.6449
-76.5708
-28.5493
-18.5774
14.7576
1.67305
-50.7822
17.1109
1.66037
1.21771
-126.29
0.746742
16.7854
8.65848
31.4003
-1.11913
1.32025
9.27876
46.3977
1.73242
16.1905
1.17067
16.652
53.8937
14.2218
-20.8548
16.8511
1.03579
-69.7019
15.7091
42.3768
4.13791
13.0692
18.7821
29.5122
10.9883
19.7538
2.06491
16.2293
10.6733
-123.433
4.37186
18.6758
19.9996
-65.2134
-82.5202
16.8289
18.168
12.6049
11.3556
-59.6447
24.6466
-58.9749
17.8516
11.3311
17.37
-12.0991
5.84042
17.4973
0.810031
1.58615
-89.5885
-62.3648
8.24078
-2.51101
-74.8698
18.3056
18.4349
18.4883
7.49284
18.9574
2.31945
18.2428
9.57187
-1.41746
-25.2176
2.40911
12.7514
1.60941
36.3187
16.7482
19.6453
-104.354
15.5972
15.5752
20.1274
12.4856
-73.7982
-6.89764
1.6393
17.2523
17.0637
17.7206
-3.76904
20.279
-17.7178
8.39098
8.28651
13.5501
9.50782
15.6543
10.9611
10.6606
9.78289
-1.71174
-10.4459
2.76271
-86.9172
11.8998
16.8206
0.938066
-91.4965
41.2185
2.73619
23.739
16.0279
13.1039
11.8693
16.721
60.7843
-8.3001
1.18774
-94.9983
16.8947
27.9208
-37.2313
3.67354
-51.7084
1.38149
30.9765
1.65157
16.7148
-22.8289
-13.3096
-38.2427
-8.53512
17.8322
1.55804
7.75503
22.5063
13.2728
19.5411
8.85667
56.7237
20.5092
16.6953
43.9353
10.7818
15.7006
18.4858
20.4076
-10.653
1.3412
9.76585
11.7133
-16.6427
13.9281
9.43166
15.1352
-3.37903