/*--------------------------------*- C++ -*----------------------------------*\
| =========                 |                                                 |
| \\      /  F ield         | OpenFOAM: The Open Source CFD Toolbox           |
|  \\    /   O peration     | Version:  2.3.1                                 |
|   \\  /    A nd           | Web:      www.OpenFOAM.org                      |
|    \\/     M anipulation  |                                                 |
\*---------------------------------------------------------------------------*/
FoamFile
{
    version     2.0;
    format      ascii;
    class       surfaceScalarField;
    location    "1";
    object      phi;
}
// * * * * * * * * * * * * * * * * * * * * * * * * * * * * * * * * * * * * * //

dimensions      [0 3 -1 0 0 0 0];

internalField   nonuniform List<scalar> 
15416
(
-0.000706538
-7.4265e-06
0.000709416
-0.00070208
-4.46737e-06
-0.000699568
-2.51524e-06
-0.000698333
-1.2344e-06
-0.000698386
5.52115e-08
-0.000700023
1.63968e-06
-0.000703959
3.93823e-06
-0.00071039
6.43475e-06
-0.000719534
9.14733e-06
-0.000731716
1.21861e-05
-0.000747347
1.56354e-05
-0.000766645
1.93025e-05
-0.000789746
2.31064e-05
-0.000816735
2.69941e-05
-0.000847706
3.09773e-05
-0.000882585
3.48849e-05
-0.000921187
3.8608e-05
-0.000963306
4.21261e-05
-0.0010088
4.55033e-05
-0.00105735
4.85549e-05
-0.00110868
5.13423e-05
-0.00116255
5.38767e-05
-0.0012186
5.6053e-05
-0.00127646
5.78649e-05
-0.00133588
5.94332e-05
-0.00139663
6.0761e-05
-0.00145842
6.17899e-05
-0.00152091
6.25001e-05
-0.00158389
6.29907e-05
-0.00164719
6.33032e-05
-0.0017105
6.33261e-05
-0.00177364
6.31429e-05
-0.0018365
6.28667e-05
-0.00189884
6.23524e-05
-0.00196048
6.16438e-05
-0.00202136
6.0884e-05
-0.00208136
6.00146e-05
-0.00214032
5.89643e-05
-0.00219801
5.76886e-05
-0.0022544
5.63972e-05
-0.00230948
5.50917e-05
-0.00236309
5.36092e-05
-0.0024151
5.20105e-05
-0.00246555
5.04577e-05
-0.00251417
4.86269e-05
-0.00256094
4.67715e-05
-0.00260597
4.50258e-05
-0.00264925
4.32857e-05
-0.0026906
4.13503e-05
-0.00272995
3.9356e-05
-0.00276728
3.73308e-05
-0.00280276
3.54763e-05
-0.00283588
3.31248e-05
-0.00286712
3.12327e-05
-0.00289625
2.9132e-05
-0.00292364
2.73945e-05
-0.00294835
2.47069e-05
-0.0029708
2.24439e-05
-0.00299134
2.05388e-05
-0.00301013
1.8796e-05
1.70866e-05
-0.00302722
-0.00040494
-6.03281e-06
0.000403533
-0.000407173
-2.24112e-06
-0.000411532
1.84207e-06
-0.000419064
6.29557e-06
-0.000430967
1.19552e-05
-0.000446563
1.72339e-05
-0.000466007
2.33799e-05
-0.000489158
2.95835e-05
-0.000516661
3.66475e-05
-0.000548071
4.35944e-05
-0.000583586
5.11484e-05
-0.000623071
5.8787e-05
-0.000666432
6.64665e-05
-0.00071355
7.41115e-05
-0.000764133
8.15602e-05
-0.000818049
8.8801e-05
-0.000875039
9.55982e-05
-0.000934892
0.00010198
-0.000997255
0.000107868
-0.00106193
0.000113227
-0.00112869
0.000118104
-0.0011971
0.000122289
-0.00126697
0.000125925
-0.00133808
0.000128978
-0.00141012
0.000131476
-0.00148285
0.000133492
-0.00155593
0.000134877
-0.00162932
0.000135888
-0.0017027
0.000136373
-0.00177575
0.000136357
-0.00184849
0.000136065
-0.00192074
0.0001354
-0.00199213
0.000134251
-0.00206261
0.000132835
-0.00213219
0.000131224
-0.00220048
0.000129175
-0.0022675
0.000127044
-0.00233313
0.000124595
-0.00239736
0.000121914
-0.00245997
0.000119009
-0.00252066
0.000115787
-0.00257972
0.000112672
-0.00263695
0.000109245
-0.00269209
0.000105599
-0.00274531
0.000101849
-0.00279642
9.78845e-05
-0.0028455
9.41025e-05
-0.00289211
8.98952e-05
-0.00293663
8.58713e-05
-0.002979
8.17295e-05
-0.00301922
7.75573e-05
-0.00305761
7.3866e-05
-0.00309253
6.8044e-05
-0.00312675
6.54588e-05
-0.00315716
5.95361e-05
-0.00318601
5.62504e-05
-0.00321051
4.92034e-05
-0.00323483
4.67703e-05
-0.00325687
4.2579e-05
-0.00327674
3.86629e-05
3.26018e-05
-0.00329225
-0.000260327
2.80926e-06
0.000251484
-0.000271891
9.32982e-06
-0.000287124
1.70791e-05
-0.00030652
2.56939e-05
-0.000329516
3.49511e-05
-0.000356966
4.46824e-05
-0.000388422
5.48343e-05
-0.000424181
6.53415e-05
-0.000464167
7.6632e-05
-0.000508491
8.79183e-05
-0.000556891
9.95477e-05
-0.000608998
0.000110893
-0.000664944
0.000122413
-0.000724357
0.000133524
-0.000787039
0.000144243
-0.000852711
0.000154474
-0.000921153
0.000164042
-0.000992091
0.00017292
-0.0010652
0.000180983
-0.00114033
0.000188358
-0.00121702
0.000194788
-0.00129517
0.000200449
-0.0013745
0.000205256
-0.00145474
0.000209219
-0.0015356
0.000212332
-0.00161682
0.000214722
-0.00169826
0.000216316
-0.00177964
0.000217265
-0.00186066
0.000217404
-0.00194145
0.000217147
-0.00202153
0.000216141
-0.00210068
0.000214556
-0.00217911
0.000212681
-0.00225633
0.00021006
-0.00233226
0.000207154
-0.00240685
0.00020377
-0.00247994
0.000200131
-0.00255136
0.000196025
-0.00262109
0.000191645
-0.00268902
0.000186935
-0.00275518
0.000181955
-0.00281903
0.000176519
-0.00288093
0.000171153
-0.00294065
0.000165315
-0.00299816
0.000159367
-0.0030535
0.000153223
-0.00310641
0.000147014
-0.00315701
0.000140497
-0.00320504
0.000133901
-0.00325126
0.000127957
-0.00329378
0.000120074
-0.00333369
0.00011378
-0.00337197
0.000106325
-0.00340794
0.00010143
-0.00344175
9.33512e-05
-0.00347127
8.5772e-05
-0.00350064
7.8572e-05
-0.00352568
7.18073e-05
-0.00354848
6.53818e-05
-0.00356701
5.71925e-05
5.10254e-05
-0.00358543
-0.000189066
1.90876e-05
0.000172801
-0.000209276
2.95465e-05
-0.000233468
4.12766e-05
-0.000261702
5.39303e-05
-0.000294133
6.73821e-05
-0.000330924
8.14728e-05
-0.000372006
9.59138e-05
-0.000417753
0.000111086
-0.000467744
0.000126622
-0.000522098
0.00014227
-0.000580388
0.000157836
-0.000642812
0.000173316
-0.000708949
0.000188548
-0.000778381
0.000202956
-0.000851053
0.000216914
-0.000926611
0.000230031
-0.00100477
0.000242202
-0.00108523
0.00025338
-0.00116777
0.000263525
-0.00125198
0.000272566
-0.00133783
0.000280643
-0.00142483
0.000287448
-0.00151288
0.000293305
-0.00160165
0.000297989
-0.00169096
0.00030164
-0.00178038
0.000304143
-0.00186981
0.00030575
-0.00195906
0.000306513
-0.00204798
0.000306329
-0.00213611
0.000305273
-0.00222352
0.000303556
-0.00231009
0.000301124
-0.00239527
0.000297868
-0.00247929
0.000294078
-0.00256193
0.000289792
-0.00264302
0.000284865
-0.00272224
0.000279357
-0.00279977
0.000273553
-0.00287537
0.00026725
-0.00294909
0.000260653
-0.00302049
0.000253354
-0.00308995
0.000245988
-0.00315683
0.000238033
-0.00322148
0.000229967
-0.00328362
0.000221506
-0.00334324
0.000212846
-0.0034003
0.00020407
-0.00345508
0.000195282
-0.00350649
0.000185315
-0.00355535
0.00017682
-0.00360279
0.000167518
-0.00364612
0.000157112
-0.00368722
0.000147427
-0.00372419
0.000138394
-0.00376078
0.000129952
-0.00379323
0.000118222
-0.00382341
0.000108753
-0.00385134
9.97413e-05
-0.00387507
8.91105e-05
-0.00389655
7.86686e-05
6.83018e-05
-0.00391382
-0.000155327
4.22141e-05
0.000132207
-0.000182291
5.65151e-05
-0.000213619
7.26087e-05
-0.000249454
8.97679e-05
-0.000289835
0.000107764
-0.000334978
0.000126615
-0.000385074
0.000146008
-0.000439609
0.000165618
-0.00049884
0.000185851
-0.000562402
0.000205829
-0.000630345
0.000225778
-0.000702368
0.000245337
-0.000777943
0.000264122
-0.00085711
0.000282122
-0.000939664
0.000299466
-0.00102459
0.000314961
-0.00111221
0.000329816
-0.00120207
0.000343237
-0.00129379
0.000355252
-0.00138724
0.00036601
-0.00148204
0.000375449
-0.0015781
0.000383506
-0.001675
0.000390204
-0.00177248
0.000395467
-0.00187015
0.000399316
-0.0019681
0.000402087
-0.0020658
0.000403458
-0.00216312
0.000403826
-0.00225986
0.000403072
-0.00235591
0.00040133
-0.00245097
0.00039861
-0.00254478
0.000394939
-0.00263736
0.000390449
-0.00272853
0.00038525
-0.00281795
0.000379213
-0.00290557
0.000372486
-0.00299157
0.000365356
-0.0030754
0.000357388
-0.00315711
0.00034896
-0.00323648
0.000340021
-0.00331378
0.000330663
-0.00338852
0.000320725
-0.00346085
0.000310363
-0.00353051
0.000299636
-0.0035975
0.000288495
-0.00366243
0.000277779
-0.00372258
0.000264219
-0.00378065
0.000253358
-0.00383705
0.000241711
-0.00388946
0.000229237
-0.00393956
0.000217622
-0.00398745
0.000205003
-0.00403135
0.000191326
-0.00407298
0.000180024
-0.0041086
0.000165572
-0.00414376
0.000153383
-0.00417668
0.000141674
-0.0042054
0.000128465
-0.00422996
0.000113668
-0.00425425
0.000102959
8.84118e-05
-0.00427435
-0.000140303
7.15833e-05
0.000110942
-0.000174124
9.0341e-05
-0.000212511
0.000110999
-0.000256079
0.000133337
-0.000304752
0.000156437
-0.000358375
0.000180237
-0.000416984
0.000204615
-0.000480758
0.00022939
-0.000549196
0.000254286
-0.000622542
0.000279173
-0.000700292
0.000303526
-0.00078199
0.000327033
-0.00086766
0.00034979
-0.000956505
0.000370966
-0.00104833
0.00039129
-0.00114317
0.000409798
-0.00124051
0.000427159
-0.00134019
0.000442912
-0.00144152
0.000456581
-0.00154437
0.000468863
-0.00164868
0.000479758
-0.00175386
0.000488682
-0.00185993
0.000496278
-0.00196649
0.00050203
-0.00207329
0.000506111
-0.0021799
0.000508698
-0.00228628
0.000509836
-0.00239206
0.000509612
-0.00249715
0.000508155
-0.00260134
0.000505524
-0.0027044
0.000501668
-0.002806
0.00049654
-0.00290618
0.000490635
-0.00300474
0.00048381
-0.00310135
0.000475825
-0.0031961
0.000467239
-0.00328867
0.00045792
-0.00337905
0.000447775
-0.00346723
0.000437143
-0.00355311
0.000425902
-0.0036362
0.000413748
-0.00371677
0.000401298
-0.00379447
0.000388069
-0.00386891
0.000374076
-0.00394079
0.000360374
-0.00400999
0.000346982
-0.00407713
0.000331358
-0.00414021
0.000316441
-0.0041993
0.000300804
-0.00425611
0.000286049
-0.00430892
0.000270433
-0.00435763
0.000253715
-0.00440587
0.00023957
-0.00444829
0.000222448
-0.00449029
0.000207568
-0.00452815
0.000191244
-0.00455984
0.000173372
-0.00458925
0.000157867
-0.00461843
0.000142855
-0.00464155
0.000126078
0.000109322
-0.00466246
-0.000138629
0.000107089
0.000103132
-0.000179402
0.000131118
-0.000225483
0.000157081
-0.000277241
0.000185095
-0.000334259
0.000213454
-0.000396967
0.000242944
-0.00046502
0.000272666
-0.000538171
0.000302538
-0.000616686
0.000332799
-0.000699668
0.000362152
-0.000787531
0.000391387
-0.000879669
0.000419168
-0.000975359
0.000445478
-0.00107435
0.000469959
-0.00117695
0.000493889
-0.00128225
0.000515093
-0.00138968
0.00053459
-0.00149942
0.000552649
-0.00161078
0.000567937
-0.00172378
0.000581859
-0.00183796
0.000593938
-0.00195301
0.000603737
-0.00206892
0.000612184
-0.00218513
0.000618243
-0.00230132
0.000622299
-0.00241734
0.00062471
-0.00253261
0.000625114
-0.00264747
0.000624466
-0.00276146
0.000622143
-0.00287411
0.000618175
-0.00298563
0.000613196
-0.00309558
0.000606485
-0.0032035
0.000598562
-0.00330976
0.000590071
-0.00341413
0.000580197
-0.00351606
0.000569165
-0.00361585
0.000557716
-0.00371313
0.000545047
-0.00380782
0.00053184
-0.00389991
0.000517989
-0.0039894
0.000503243
-0.00407528
0.000487182
-0.00415886
0.00047165
-0.00423926
0.000454472
-0.00431687
0.000437992
-0.00439047
0.000420578
-0.00446014
0.000401033
-0.00452739
0.000383687
-0.00459232
0.000365733
-0.00465147
0.000345208
-0.00470836
0.000327324
-0.00476296
0.000308316
-0.00481177
0.000288379
-0.00485847
0.000269146
-0.00490112
0.00025022
-0.00493953
0.000229654
-0.00497743
0.000211279
-0.00500922
0.000189659
-0.00503704
0.000170669
-0.00506086
0.000149907
0.000130919
-0.00508246
-0.000147747
0.000148908
0.00010593
-0.000195827
0.000179199
-0.000249838
0.000211092
-0.000310592
0.000245847
-0.000377022
0.000279883
-0.000449186
0.000315106
-0.000527217
0.000350694
-0.000610167
0.000385487
-0.000699126
0.000421756
-0.000792687
0.00045571
-0.0008918
0.000490497
-0.000994531
0.000521897
-0.00110191
0.000552853
-0.00121158
0.000579629
-0.00132466
0.000606967
-0.00144127
0.000631702
-0.00155979
0.000653109
-0.00168038
0.00067323
-0.00180305
0.000690607
-0.00192604
0.00070485
-0.00205104
0.000718938
-0.00217625
0.000728939
-0.00230289
0.000738831
-0.00242966
0.000745009
-0.00255583
0.000748468
-0.00268204
0.00075092
-0.00280676
0.00074983
-0.00293101
0.000748714
-0.00305446
0.000745599
-0.00317581
0.000739527
-0.00329646
0.000733843
-0.00341527
0.000725296
-0.00353137
0.000714662
-0.00364585
0.000704547
-0.00375849
0.000692835
-0.00386773
0.000678413
-0.00397491
0.000664897
-0.0040794
0.000649531
-0.00418044
0.000632887
-0.00427917
0.000616714
-0.0043754
0.000599481
-0.00446873
0.000580512
-0.00455638
0.000559301
-0.00464327
0.000541361
-0.0047251
0.000519827
-0.00480251
0.00049799
-0.00487957
0.000478096
-0.00495031
0.000454422
-0.00501745
0.000432881
-0.00508174
0.000409493
-0.00514088
0.000386472
-0.00519734
0.000364774
-0.00524981
0.000340847
-0.00530053
0.000319871
-0.00534564
0.000295327
-0.00538797
0.000271993
-0.00542432
0.000247624
-0.00545597
0.000221309
-0.00548592
0.000200621
-0.00551234
0.000176329
0.000152907
-0.00553432
-0.00016545
0.000118097
0.000196265
-0.000222082
0.000235836
-0.000283314
0.000272327
-0.000354545
0.00031708
-0.000430292
0.00035563
-0.000512916
0.000397729
-0.000601744
0.00043952
-0.00069393
0.000477669
-0.000795793
0.000523615
-0.000898798
0.000558711
-0.00101156
0.000603255
-0.00112434
0.000634677
-0.00124674
0.000675243
-0.00136513
0.000698016
-0.001491
0.000732831
-0.00162039
0.000761091
-0.00174868
0.000781392
-0.00188274
0.000807297
-0.00201679
0.00082465
-0.00215008
0.000838134
-0.00228986
0.000858719
-0.00242373
0.000862801
-0.00256289
0.000877999
-0.00270129
0.000883408
-0.00283766
0.000884835
-0.00297652
0.000889776
-0.00310973
0.000883041
-0.00324454
0.000883524
-0.00337917
0.000880225
-0.00350848
0.000868837
-0.00363964
0.000865008
-0.00376755
0.000853205
-0.00389184
0.000838949
-0.00401497
0.000827673
-0.00413804
0.00081591
-0.00425283
0.000793199
-0.00436918
0.000781253
-0.00448102
0.000761363
-0.00458801
0.000739877
-0.00469547
0.000724177
-0.0047949
0.00069891
-0.00489504
0.000680658
-0.00498912
0.000653382
-0.00507985
0.000632089
-0.00516961
0.000609583
-0.00525184
0.000580218
-0.00533283
0.000559085
-0.00540672
0.000528318
-0.00547858
0.000504744
-0.00554425
0.000475163
-0.00560986
0.000452083
-0.00566841
0.000423318
-0.00572379
0.000396227
-0.00577529
0.000371375
-0.00582446
0.000344495
-0.00586569
0.000313221
-0.00590538
0.000287319
-0.00593856
0.000254492
-0.00596914
0.000231193
-0.00599624
0.000203431
-0.00601766
0.000174329
-0.00304072
1.3497e-05
-0.0030524
1.16865e-05
-0.0030624
9.996e-06
-0.00307052
8.11841e-06
-0.00307638
5.8651e-06
-0.00307963
3.24961e-06
-0.00308113
1.49905e-06
-0.00308054
-5.91971e-07
-0.00307795
-2.58199e-06
-0.00307294
-5.00925e-06
-0.00306604
-6.8966e-06
-0.0030571
-8.93377e-06
-0.00304611
-1.09906e-05
-0.00303305
-1.30554e-05
-0.00301824
-1.4813e-05
-0.00300158
-1.66548e-05
-0.0029829
-1.86773e-05
-0.00296217
-2.07219e-05
-0.00293974
-2.24227e-05
-0.00291544
-2.43003e-05
-0.00288934
-2.60915e-05
-0.00286162
-2.77135e-05
-0.00283216
-2.94568e-05
-0.00280087
-3.12888e-05
-0.00276794
-3.29261e-05
-0.00273362
-3.43058e-05
-0.00269764
-3.59779e-05
-0.00266
-3.76405e-05
-0.00262081
-3.91785e-05
-0.00258025
-4.05578e-05
-0.0025382
-4.20472e-05
-0.0024947
-4.34924e-05
-0.00244995
-4.47385e-05
-0.0024039
-4.6052e-05
-0.00235651
-4.73799e-05
-0.00230797
-4.85393e-05
-0.00225833
-4.96319e-05
-0.00220757
-5.07577e-05
-0.00215561
-5.1957e-05
-0.00210261
-5.2992e-05
-0.00204872
-5.38863e-05
-0.0019939
-5.48202e-05
-0.00193815
-5.57406e-05
-0.00188166
-5.64927e-05
-0.00182426
-5.73909e-05
-0.00176606
-5.82026e-05
-0.00170722
-5.8835e-05
-0.00164784
-5.93826e-05
-0.00158779
-6.00513e-05
-0.00152717
-6.06197e-05
-0.0014661
-6.1069e-05
-0.00140469
-6.14041e-05
-0.00134277
-6.19234e-05
-0.00128062
-6.21465e-05
-0.00121824
-6.23843e-05
-0.00115583
-6.24103e-05
-0.00109313
-6.27021e-05
-0.00103037
-6.2757e-05
-0.000967736
-6.26323e-05
-0.000905304
-6.24317e-05
-6.21926e-05
-0.000843112
-0.00330762
2.88628e-05
-0.00331841
2.24811e-05
-0.00332719
1.87804e-05
-0.00333376
1.46813e-05
-0.00334019
1.23008e-05
-0.00334244
5.49989e-06
-0.00334313
2.18758e-06
-0.00334002
-3.69346e-06
-0.00333627
-6.33429e-06
-0.00332893
-1.23466e-05
-0.00331976
-1.60657e-05
-0.00330829
-2.04097e-05
-0.00329477
-2.45055e-05
-0.00327938
-2.84437e-05
-0.00326153
-3.26649e-05
-0.00324163
-3.65497e-05
-0.00321961
-4.07023e-05
-0.00319563
-4.46966e-05
-0.00316943
-4.86255e-05
-0.00314129
-5.24367e-05
-0.00311138
-5.59956e-05
-0.00307928
-5.98211e-05
-0.00304525
-6.34817e-05
-0.00300947
-6.70637e-05
-0.00297186
-7.05364e-05
-0.0029324
-7.3768e-05
-0.00289114
-7.72372e-05
-0.00284838
-8.03972e-05
-0.00280395
-8.36084e-05
-0.00275769
-8.68172e-05
-0.00271
-8.97371e-05
-0.00266092
-9.25706e-05
-0.00261017
-9.5491e-05
-0.00255798
-9.8234e-05
-0.00250457
-0.000100789
-0.00244967
-0.000103439
-0.00239348
-0.000105818
-0.00233604
-0.000108198
-0.0022775
-0.000110498
-0.00221779
-0.000112705
-0.00215678
-0.000114893
-0.00209486
-0.000116734
-0.00203199
-0.000118617
-0.00196804
-0.000120439
-0.00190326
-0.000122164
-0.00183761
-0.000123854
-0.0017712
-0.000125245
-0.00170387
-0.000126716
-0.00163596
-0.000127962
-0.00156745
-0.000129126
-0.00149837
-0.000130148
-0.00142894
-0.000130839
-0.00135852
-0.000132335
-0.00128836
-0.000132309
-0.00121727
-0.00013348
-0.00114619
-0.000133486
-0.00107431
-0.000134587
-0.00100304
-0.000134022
-0.000931725
-0.000133947
-0.000860426
-0.00013373
-0.000133922
-0.000788696
-0.00359951
4.2947e-05
-0.0036137
3.66635e-05
-0.00362342
2.85043e-05
-0.00363087
2.21324e-05
-0.00363403
1.54639e-05
-0.00363734
8.80512e-06
-0.00363621
1.05768e-06
-0.00363305
-6.8524e-06
-0.00362757
-1.18146e-05
-0.00362041
-1.9506e-05
-0.00361078
-2.56968e-05
-0.00359741
-3.3778e-05
-0.00358231
-3.95998e-05
-0.0035646
-4.61562e-05
-0.00354458
-5.26869e-05
-0.00352215
-5.89801e-05
-0.00349755
-6.53018e-05
-0.00347074
-7.15026e-05
-0.00344168
-7.76922e-05
-0.00341065
-8.34661e-05
-0.00337712
-8.95262e-05
-0.00334168
-9.52603e-05
-0.0033042
-0.000100958
-0.00326473
-0.000106539
-0.0032232
-0.000112064
-0.00317966
-0.000117308
-0.0031343
-0.000122595
-0.00308704
-0.000127657
-0.00303783
-0.000132826
-0.00298718
-0.000137468
-0.00293465
-0.000142267
-0.00288032
-0.000146897
-0.0028247
-0.000151112
-0.00276738
-0.000155552
-0.00270852
-0.000159658
-0.00264824
-0.000163718
-0.0025865
-0.000167551
-0.00252335
-0.00017135
-0.00245892
-0.000174933
-0.00239325
-0.000178375
-0.00232651
-0.000181635
-0.00225837
-0.000184875
-0.00218928
-0.000187701
-0.00211912
-0.000190601
-0.00204801
-0.000193279
-0.00197601
-0.000195849
-0.00190309
-0.000198169
-0.00182936
-0.000200442
-0.00175481
-0.000202512
-0.00167991
-0.000204032
-0.00160372
-0.000206339
-0.00152694
-0.000207615
-0.00145003
-0.000209243
-0.00137276
-0.000209582
-0.00129521
-0.000211032
-0.00121674
-0.000211951
-0.00113888
-0.000212453
-0.00106031
-0.000212583
-0.000981786
-0.000212473
-0.000902846
-0.00021267
-0.000212206
-0.000824562
-0.00393083
5.99601e-05
-0.00394373
4.95678e-05
-0.00395436
3.91284e-05
-0.00396072
2.84945e-05
-0.0039649
1.96419e-05
-0.00396662
1.05291e-05
-0.00396398
-1.57466e-06
-0.00396143
-9.41086e-06
-0.00395484
-1.84018e-05
-0.0039462
-2.81426e-05
-0.0039333
-3.85932e-05
-0.00391921
-4.78659e-05
-0.00390261
-5.62058e-05
-0.00388258
-6.61833e-05
-0.00386036
-7.49069e-05
-0.00383559
-8.3744e-05
-0.00380833
-9.25668e-05
-0.00377853
-0.000101298
-0.00374651
-0.000109713
-0.00371181
-0.000118165
-0.00367517
-0.000126166
-0.00363601
-0.00013442
-0.00359477
-0.000142202
-0.0035513
-0.000150005
-0.00350581
-0.000157553
-0.00345795
-0.000165174
-0.00340806
-0.000172483
-0.00335624
-0.000179483
-0.00330261
-0.000186454
-0.00324673
-0.000193342
-0.00318917
-0.000199828
-0.00312997
-0.000206104
-0.00306873
-0.000212348
-0.00300597
-0.000218307
-0.00294162
-0.000224009
-0.00287571
-0.000229629
-0.00280806
-0.000235206
-0.00273902
-0.000240382
-0.00266857
-0.000245388
-0.00259686
-0.000250086
-0.00252366
-0.00025483
-0.0024495
-0.000259044
-0.00237393
-0.000263261
-0.00229737
-0.000267162
-0.0022197
-0.000270957
-0.00214098
-0.000274565
-0.00206131
-0.000277841
-0.00198092
-0.000280829
-0.00189936
-0.000284075
-0.00181708
-0.000286312
-0.00173475
-0.000288669
-0.0016511
-0.000291256
-0.00156711
-0.000293242
-0.00148204
-0.000294644
-0.00139747
-0.000295606
-0.00131209
-0.000297333
-0.00122661
-0.000297926
-0.00114118
-0.000298011
-0.00105525
-0.000298407
-0.000969509
-0.00029841
-0.00029823
-0.000883485
-0.00429024
7.58475e-05
-0.00430194
6.12728e-05
-0.0043134
5.05899e-05
-0.00432068
3.57684e-05
-0.00432375
2.27127e-05
-0.00432451
1.12949e-05
-0.00432541
-6.76082e-07
-0.00431976
-1.50599e-05
-0.00431202
-2.614e-05
-0.00430036
-3.97997e-05
-0.00428663
-5.23294e-05
-0.00427071
-6.37854e-05
-0.00425077
-7.61485e-05
-0.00422936
-8.75927e-05
-0.00420609
-9.81724e-05
-0.00417781
-0.000112023
-0.00414761
-0.000122767
-0.00411474
-0.000134168
-0.00407918
-0.000145271
-0.00404127
-0.000156075
-0.00400071
-0.000166725
-0.00395805
-0.000177081
-0.0039128
-0.000187456
-0.00386512
-0.000197688
-0.00381487
-0.000207803
-0.00376264
-0.000217398
-0.00370813
-0.000226996
-0.0036513
-0.000236312
-0.00359239
-0.000245363
-0.00353155
-0.000254184
-0.00346857
-0.000262807
-0.00340358
-0.000271101
-0.00333684
-0.000279085
-0.00326834
-0.000286805
-0.00319796
-0.00029439
-0.00312578
-0.000301816
-0.0030522
-0.000308785
-0.00297678
-0.000315796
-0.00289983
-0.000322347
-0.00282128
-0.000328631
-0.00274158
-0.000334532
-0.00266045
-0.000340171
-0.00257819
-0.000345521
-0.00249468
-0.00035068
-0.00241002
-0.000355608
-0.00232464
-0.000359946
-0.00223706
-0.000365427
-0.00214901
-0.000368877
-0.00206074
-0.000372339
-0.00197108
-0.00037598
-0.00188093
-0.000378813
-0.00179044
-0.000381749
-0.00169885
-0.000384832
-0.00160695
-0.000386537
-0.00151343
-0.000389134
-0.00142051
-0.000390246
-0.00132756
-0.000390873
-0.00123414
-0.000391435
-0.0011403
-0.000392241
-0.00104726
-0.000391453
-0.000391557
-0.000953934
-0.00467919
9.25748e-05
-0.00469372
7.58066e-05
-0.00470208
5.89555e-05
-0.00471024
4.39265e-05
-0.0047162
2.86716e-05
-0.00471602
1.11148e-05
-0.00471176
-4.93042e-06
-0.00470724
-1.95849e-05
-0.00469674
-3.66327e-05
-0.00468607
-5.0477e-05
-0.00467135
-6.7045e-05
-0.00465263
-8.25058e-05
-0.0046318
-9.6979e-05
-0.00460704
-0.000112357
-0.00457826
-0.000126948
-0.00454758
-0.000142702
-0.00451431
-0.000156035
-0.00447856
-0.000169923
-0.00443947
-0.000184359
-0.00439762
-0.000197923
-0.0043533
-0.000211049
-0.00430606
-0.00022432
-0.00425632
-0.0002372
-0.00420408
-0.00024993
-0.00414937
-0.000262506
-0.00409197
-0.000274807
-0.00403236
-0.000286606
-0.00397026
-0.000298405
-0.00390587
-0.000309758
-0.00383942
-0.000320639
-0.00377061
-0.000331615
-0.00369966
-0.000342052
-0.0036268
-0.000351948
-0.0035521
-0.000361506
-0.00347526
-0.000371224
-0.00339676
-0.000380323
-0.00331621
-0.000389334
-0.00323393
-0.000398076
-0.00315009
-0.00040619
-0.00306472
-0.000413993
-0.00297762
-0.000421639
-0.00288928
-0.000428514
-0.00279956
-0.000435235
-0.00270831
-0.000441931
-0.00261615
-0.000447773
-0.00252284
-0.000453253
-0.00242904
-0.000459227
-0.00233355
-0.000464366
-0.0022368
-0.000469096
-0.00213954
-0.000473234
-0.00204107
-0.000477287
-0.00194156
-0.00048126
-0.00184242
-0.000483973
-0.00174168
-0.000487277
-0.00164128
-0.000489531
-0.00154024
-0.00049128
-0.00143791
-0.000493206
-0.00133595
-0.0004934
-0.00123465
-0.000493536
-0.00113273
-0.000493377
-0.000493212
-0.00103107
-0.00509992
0.000110032
-0.00511517
9.10551e-05
-0.00512632
7.01071e-05
-0.00513333
5.09379e-05
-0.00513428
2.96217e-05
-0.00513511
1.19473e-05
-0.00513179
-8.25093e-06
-0.00512436
-2.70171e-05
-0.00511484
-4.61433e-05
-0.00509954
-6.57784e-05
-0.00508221
-8.43806e-05
-0.00506266
-0.000102048
-0.00503724
-0.000122401
-0.0050098
-0.000139795
-0.00498039
-0.000156361
-0.00494701
-0.000176086
-0.00490959
-0.00019345
-0.00486935
-0.00021017
-0.00482593
-0.000227779
-0.00478063
-0.000243225
-0.00473164
-0.000260037
-0.00468013
-0.000275826
-0.00462574
-0.000291595
-0.00456843
-0.000307236
-0.00450834
-0.000322598
-0.00444561
-0.000337544
-0.00438017
-0.000352041
-0.00431247
-0.000366108
-0.0042424
-0.000379826
-0.00416976
-0.000393288
-0.00409466
-0.000406714
-0.00401742
-0.000419288
-0.00393781
-0.00043156
-0.00385639
-0.000442933
-0.00377295
-0.000454658
-0.00368739
-0.000465889
-0.00359982
-0.000476904
-0.00351019
-0.000487708
-0.00341875
-0.000497634
-0.00332552
-0.000507216
-0.00323078
-0.000516383
-0.00313407
-0.000525227
-0.00303656
-0.000532741
-0.00293776
-0.000540732
-0.00283795
-0.000547581
-0.00273615
-0.000555054
-0.00263299
-0.000562391
-0.00252918
-0.000568177
-0.00242513
-0.000573145
-0.00231885
-0.000579507
-0.00221214
-0.000584003
-0.00210525
-0.00058815
-0.0019965
-0.000592724
-0.00188765
-0.000596127
-0.00177767
-0.000599503
-0.00166724
-0.000601715
-0.00155729
-0.000603152
-0.00144668
-0.000604009
-0.00133566
-0.000604558
-0.00122478
-0.000604259
-0.000603857
-0.00111413
-0.00555237
0.000128084
-0.00556608
0.000104758
-0.00557598
8.00103e-05
-0.00558353
5.84894e-05
-0.0055873
3.33904e-05
-0.00558524
9.88515e-06
-0.00558117
-1.23185e-05
-0.00557071
-3.74725e-05
-0.00555824
-5.86172e-05
-0.00554238
-8.16353e-05
-0.00552442
-0.000102339
-0.00550053
-0.000125941
-0.00547429
-0.000148644
-0.00544434
-0.00016974
-0.00540906
-0.000191643
-0.00537315
-0.000212001
-0.00533333
-0.000233264
-0.00528754
-0.000255969
-0.00524129
-0.00027403
-0.0051901
-0.000294414
-0.00513571
-0.000314431
-0.00507933
-0.0003322
-0.00502018
-0.00035075
-0.00495734
-0.000370083
-0.00489158
-0.000388358
-0.00482285
-0.000406268
-0.0047514
-0.000423502
-0.00467731
-0.000440199
-0.00460068
-0.000456454
-0.00452155
-0.000472418
-0.00443954
-0.000488724
-0.00435552
-0.000503308
-0.00426886
-0.00051823
-0.00418081
-0.000530983
-0.00409007
-0.000545393
-0.00399713
-0.000558837
-0.00390207
-0.000571962
-0.00380447
-0.00058531
-0.00370463
-0.000597476
-0.00360331
-0.000608534
-0.00350039
-0.000619309
-0.00339566
-0.000629961
-0.00328874
-0.000639655
-0.00318199
-0.000647483
-0.00307304
-0.000656537
-0.00296188
-0.000666206
-0.00285146
-0.000672819
-0.00273823
-0.000681405
-0.00262476
-0.000686614
-0.00251037
-0.000693902
-0.00239392
-0.000700453
-0.00227768
-0.000704381
-0.00216014
-0.000710272
-0.0020427
-0.000713561
-0.00192284
-0.000719362
-0.0018036
-0.000720953
-0.00168273
-0.00072402
-0.00156259
-0.000724156
-0.00144221
-0.000724938
-0.00132236
-0.000724106
-0.000724406
-0.00120181
-0.00603626
0.00014669
-0.00604966
0.000118154
-0.00605999
9.03422e-05
-0.00606356
6.20613e-05
-0.00606594
3.57697e-05
-0.00606453
8.47761e-06
-0.00605868
-1.81688e-05
-0.00604804
-4.81137e-05
-0.0060322
-7.44601e-05
-0.00601573
-9.81076e-05
-0.00599324
-0.000124828
-0.00596716
-0.00015202
-0.00593872
-0.00017709
-0.00590341
-0.000205046
-0.00586888
-0.000226177
-0.00582711
-0.000253765
-0.00578101
-0.000279369
-0.00573357
-0.000303405
-0.00567952
-0.000328082
-0.0056245
-0.000349436
-0.00556689
-0.000372038
-0.00550351
-0.00039559
-0.00544015
-0.000414112
-0.00537106
-0.00043917
-0.00529841
-0.00046101
-0.00522419
-0.000480489
-0.00514516
-0.000502538
-0.00506515
-0.000520206
-0.00497967
-0.000541935
-0.00489557
-0.000556524
-0.00480409
-0.000580198
-0.00471421
-0.000593191
-0.00461822
-0.000614226
-0.00452448
-0.000624718
-0.00442637
-0.000643511
-0.00432518
-0.000660026
-0.0042233
-0.000673844
-0.00411642
-0.000692185
-0.00400747
-0.000706425
-0.00389905
-0.000716957
-0.00378524
-0.000733125
-0.00367002
-0.000745175
-0.0035561
-0.000753578
-0.00343734
-0.000766244
-0.00332263
-0.00077125
-0.00320011
-0.000788726
-0.00308134
-0.000791581
-0.0029566
-0.000806149
-0.00283602
-0.000807192
-0.00271213
-0.000817796
-0.00258535
-0.00082723
-0.0024617
-0.000828025
-0.00233274
-0.000839237
-0.0022071
-0.000839203
-0.00207449
-0.000851964
-0.00194691
-0.000848534
-0.00181293
-0.000857998
-0.00168666
-0.000850421
-0.00155331
-0.000858294
-0.00142576
-0.000851653
-0.00129163
-0.000858529
-0.000780724
-6.23889e-05
-0.000718692
-6.20319e-05
-0.000657036
-6.16566e-05
-0.000595792
-6.12447e-05
-0.000535018
-6.07746e-05
-0.000474763
-6.02555e-05
-0.000415281
-5.94824e-05
-0.000356619
-5.86628e-05
-0.000298983
-5.76365e-05
-0.000242506
-5.64771e-05
-0.00018707
-5.54369e-05
-0.000130847
-5.62235e-05
-7.28729e-05
-5.79742e-05
-1.3726e-05
-5.9147e-05
4.43869e-05
-5.8113e-05
9.98881e-05
-5.55012e-05
0.000153083
-5.31948e-05
0.000204497
-5.1414e-05
0.000254326
-4.98295e-05
0.000302587
-4.82605e-05
0.000349296
-4.67095e-05
0.000394398
-4.51017e-05
0.000437824
-4.34261e-05
0.000479443
-4.16186e-05
0.000519194
-3.97511e-05
0.000557013
-3.78201e-05
0.000592783
-3.57699e-05
0.00062637
-3.35872e-05
0.000657659
-3.12887e-05
0.000686557
-2.88983e-05
0.000712865
-2.63088e-05
0.000736425
-2.35602e-05
0.000757113
-2.0688e-05
0.000774682
-1.75693e-05
0.000788914
-1.42325e-05
0.000799614
-1.07009e-05
0.000806524
-6.91009e-06
0.000809389
-2.86587e-06
0.000808834
5.5425e-07
0.000804755
4.07779e-06
0.000797213
7.54081e-06
0.000785564
1.16487e-05
0.000769287
1.62751e-05
0.000747954
2.13319e-05
0.000720928
2.70246e-05
0.000687581
3.33457e-05
0.00064729
4.02889e-05
0.000599316
4.79721e-05
0.000542803
5.65118e-05
0.000476985
6.58159e-05
0.000401143
7.58401e-05
0.000314718
8.64232e-05
0.000217105
9.76111e-05
0.000107352
0.000109751
-2.02598e-05
0.00012761
-0.000159768
0.000139506
-0.000288396
0.000128626
-0.000394717
0.00010632
-0.000475173
8.0454e-05
-0.00053542
6.02452e-05
5.06499e-05
-0.000586071
-0.000717589
-0.000133495
-0.000646176
-0.000133444
-0.000574982
-0.00013285
-0.000504046
-0.00013218
-0.000433729
-0.00013109
-0.000363531
-0.000130454
-0.00029387
-0.000129143
-0.0002246
-0.000127932
-0.000156052
-0.000126184
-8.80561e-05
-0.000124473
-1.97016e-05
-0.000123791
4.90797e-05
-0.000125004
0.000116823
-0.000125717
0.000183281
-0.000125605
0.000248997
-0.000123828
0.00031409
-0.000120594
0.000378114
-0.000117218
0.000440827
-0.000114126
0.00050214
-0.000111141
0.000562069
-0.000108189
0.000620621
-0.000105261
0.000677655
-0.000102135
0.000733145
-9.89145e-05
0.000787084
-9.55562e-05
0.000839369
-9.20344e-05
0.000889939
-8.83881e-05
0.000938661
-8.44911e-05
0.000985556
-8.04798e-05
0.00103047
-7.62046e-05
0.00107324
-7.16617e-05
0.00111387