/*--------------------------------*- C++ -*----------------------------------*\
| =========                 |                                                 |
| \\      /  F ield         | OpenFOAM: The Open Source CFD Toolbox           |
|  \\    /   O peration     | Version:  2.3.1                                 |
|   \\  /    A nd           | Web:      www.OpenFOAM.org                      |
|    \\/     M anipulation  |                                                 |
\*---------------------------------------------------------------------------*/
FoamFile
{
    version     2.0;
    format      ascii;
    class       surfaceScalarField;
    location    "0.3";
    object      phi;
}
// * * * * * * * * * * * * * * * * * * * * * * * * * * * * * * * * * * * * * //

dimensions      [0 3 -1 0 0 0 0];

internalField   nonuniform List<scalar> 
23326
(
-1.24229e-05
0.000111564
-9.91415e-05
-2.13321e-05
0.000127004
-0.000118095
-2.69633e-05
0.000141383
-0.000135751
-3.0603e-05
0.000156933
-0.000153293
-3.37186e-05
0.000169545
-0.000166429
-3.59204e-05
0.000181836
-0.000179634
-3.74298e-05
0.000192423
-0.000190914
-3.82e-05
0.000201075
-0.000200305
-3.85918e-05
0.000207621
-0.000207229
-3.8651e-05
0.000212672
-0.000212613
-3.85622e-05
0.000216447
-0.000216535
0.000219183
-3.83992e-05
-0.000219346
-6.91716e-06
0.000118482
-1.36747e-05
0.000133762
-1.97099e-05
0.000147418
-2.41909e-05
0.000161414
-2.78665e-05
0.00017322
-3.05806e-05
0.00018455
-3.24801e-05
0.000194323
-3.37351e-05
0.00020233
-3.45244e-05
0.00020841
-3.49802e-05
0.000213128
-3.52018e-05
0.000216668
0.000219277
-3.52963e-05
-5.58453e-06
0.000124066
-1.08831e-05
0.00013906
-1.58893e-05
0.000152424
-1.9994e-05
0.000165518
-2.35321e-05
0.000176758
-2.62981e-05
0.000187316
-2.83523e-05
0.000196377
-2.9813e-05
0.000203791
-3.08786e-05
0.000209475
-3.16099e-05
0.000213859
-3.20808e-05
0.000217139
0.000219645
-3.24485e-05
-4.70287e-06
0.000128769
-9.27323e-06
0.000143631
-1.35554e-05
0.000156707
-1.71703e-05
0.000169133
-2.03652e-05
0.000179953
-2.29626e-05
0.000189913
-2.50242e-05
0.000198438
-2.6566e-05
0.000205333
-2.77356e-05
0.000210645
-2.86369e-05
0.00021476
-2.93087e-05
0.000217811
0.00022021
-2.98738e-05
-3.85002e-06
0.000132619
-7.88642e-06
0.000147667
-1.16875e-05
0.000160508
-1.49592e-05
0.000172405
-1.78503e-05
0.000182844
-2.02965e-05
0.00019236
-2.22527e-05
0.000200395
-2.37953e-05
0.000206875
-2.50496e-05
0.000211899
-2.59917e-05
0.000215702
-2.68042e-05
0.000218623
0.000220858
-2.74518e-05
-3.20541e-06
0.000135825
-6.7667e-06
0.000151229
-1.01557e-05
0.000163897
-1.3131e-05
0.00017538
-1.58183e-05
0.000185531
-1.80513e-05
0.000194593
-1.99139e-05
0.000202257
-2.14515e-05
0.000208413
-2.26689e-05
0.000213117
-2.36882e-05
0.000216721
-2.45396e-05
0.000219475
0.00022159
-2.52722e-05
-2.75824e-06
0.000138583
-5.91904e-06
0.000154389
-8.95024e-06
0.000166928
-1.16716e-05
0.000178102
-1.40901e-05
0.00018795
-1.61895e-05
0.000196692
-1.79487e-05
0.000204016
-1.93961e-05
0.00020986
-2.06273e-05
0.000214348
-2.16696e-05
0.000217764
-2.2579e-05
0.000220384
0.000222403
-2.33918e-05
-2.42434e-06
0.000141008
-5.26204e-06
0.000157227
-7.98715e-06
0.000169653
-1.04296e-05
0.000180544
-1.26633e-05
0.000190184
-1.46075e-05
0.000198636
-1.62659e-05
0.000205675
-1.76433e-05
0.000211238
-1.88537e-05
0.000215558
-1.99007e-05
0.000218811
-2.08052e-05
0.000221288
0.000223202
-2.16042e-05
-2.15886e-06
0.000143166
-4.73176e-06
0.0001598
-7.20168e-06
0.000172123
-9.45471e-06
0.000182797
-1.14874e-05
0.000192216
-1.32617e-05
0.00020041
-1.48147e-05
0.000207228
-1.6163e-05
0.000212586
-1.73086e-05
0.000216704
-1.83215e-05
0.000219824
-1.92254e-05
0.000222192
0.000224072
-2.00951e-05
-1.93492e-06
0.000145101
-4.27571e-06
0.000162141
-6.53382e-06
0.000174381
-8.59498e-06
0.000184858
-1.04868e-05
0.000194108
-1.21364e-05
0.00020206
-1.3569e-05
0.000208661
-1.48186e-05
0.000213836
-1.59482e-05
0.000217834
-1.69405e-05
0.000220816
-1.78405e-05
0.000223092
0.000224887
-1.86558e-05
-1.74895e-06
0.00014685
-3.89906e-06
0.000164291
-5.96804e-06
0.00017645
-7.86907e-06
0.000186759
-9.60049e-06
0.000195839
-1.11309e-05
0.00020359
-1.24784e-05
0.000210008
-1.36637e-05
0.000215021
-1.4727e-05
0.000218897
-1.56879e-05
0.000221777
-1.66021e-05
0.000224006
0.000225676
-1.73912e-05
-1.58493e-06
0.000148435
-3.55935e-06
0.000166265
-5.46465e-06
0.000178355
-7.24939e-06
0.000188544
-8.82922e-06
0.000197419
-1.02596e-05
0.000205021
-1.15216e-05
0.00021127
-1.26447e-05
0.000216144
-1.3658e-05
0.00021991
-1.45869e-05
0.000222706
-1.54087e-05
0.000224828
0.000226471
-1.62032e-05
-1.4469e-06
0.000149882
-3.26609e-06
0.000168085
-5.03825e-06
0.000180127
-6.67789e-06
0.000190184
-8.17408e-06
0.000198915
-9.50806e-06
0.000206355
-1.067e-05
0.000212432
-1.17375e-05
0.000217212
-1.2681e-05
0.000220854
-1.35628e-05
0.000223588
-1.43697e-05
0.000225635
0.00022715
-1.50488e-05
-1.32782e-06
0.00015121
-3.03267e-06
0.000169789
-4.66551e-06
0.00018176
-6.17697e-06
0.000191695
-7.57083e-06
0.000200309
-8.79655e-06
0.00020758
-9.91955e-06
0.000213555
-1.09053e-05
0.000218197
-1.18338e-05
0.000221783
-1.27054e-05
0.000224459
-1.35113e-05
0.000226441
0.00022798
-1.43416e-05
-1.2175e-06
0.000152428
-2.78792e-06
0.00017136
-4.33474e-06
0.000183307
-5.74872e-06
0.000193109
-7.03083e-06
0.000201591
-8.20636e-06
0.000208756
-9.23894e-06
0.000214588
-1.02048e-05
0.000219163
-1.104e-05
0.000222618
-1.18396e-05
0.000225259
-1.26058e-05
0.000227207
0.000228649
-1.32748e-05
-1.12145e-06
0.000153549
-2.59016e-06
0.000172829
-4.02181e-06
0.000184739
-5.34098e-06
0.000194428
-6.54651e-06
0.000202797
-7.62825e-06
0.000209838
-8.6062e-06
0.000215565
-9.49091e-06
0.000220048
-1.03426e-05
0.00022347
-1.11382e-05
0.000226055
-1.18615e-05
0.00022793
0.000229314
-1.25264e-05
-1.0358e-06
0.000154585
-2.39282e-06
0.000174186
-3.73078e-06
0.000186077
-4.97655e-06
0.000195674
-6.10645e-06
0.000203927
-7.12569e-06
0.000210857
-8.04771e-06
0.000216488
-8.92177e-06
0.000220922
-9.70399e-06
0.000224252
-1.04197e-05
0.00022677
-1.11178e-05
0.000228629
0.000229975
-1.17787e-05
-9.46425e-07
0.000155531
-2.2276e-06
0.000175467
-3.49324e-06
0.000187343
-4.66413e-06
0.000196845
-5.72896e-06
0.000204992
-6.69492e-06
0.000211823
-7.5654e-06
0.000217358
-8.31603e-06
0.000221673
-9.06954e-06
0.000225005
-9.77869e-06
0.000227479
-1.04533e-05
0.000229303
0.000230619
-1.10977e-05
-8.78974e-07
0.00015641
-2.08221e-06
0.00017667
-3.25037e-06
0.000188511
-4.35447e-06
0.000197949
-5.33424e-06
0.000205971
-6.24338e-06
0.000212732
-7.04838e-06
0.000218163
-7.83882e-06
0.000222463
-8.52781e-06
0.000225694
-9.20545e-06
0.000228157
-9.82635e-06
0.000229924
0.000231238
-1.04454e-05
-8.17368e-07
0.000157228
-1.92737e-06
0.00017778
-3.05152e-06
0.000189635
-4.07136e-06
0.000198969
-5.02363e-06
0.000206924
-5.85909e-06
0.000213567
-6.64474e-06
0.000218949
-7.3451e-06
0.000223163
-8.02747e-06
0.000226377
-8.61922e-06
0.000228749
-9.23172e-06
0.000230536
0.000231788
-9.7818e-06
-7.61224e-07
0.000157989
-1.80443e-06
0.000178824
-2.84492e-06
0.000190675
-3.81138e-06
0.000199935
-4.68171e-06
0.000207794
-5.49723e-06
0.000214383
-6.21722e-06
0.000219669
-6.88587e-06
0.000223832
-7.51055e-06
0.000227001
-8.12947e-06
0.000229368
-8.6899e-06
0.000231097
0.000232347
-9.24855e-06
-6.84941e-07
0.000158674
-1.66841e-06
0.000179807
-2.65517e-06
0.000191662
-3.58808e-06
0.000200868
-4.41489e-06
0.000208621
-5.14074e-06
0.000215108
-5.82444e-06
0.000220352
-6.45876e-06
0.000224466
-7.08419e-06
0.000227627
-7.6559e-06
0.000229939
-8.21078e-06
0.000231652
0.000232871
-8.73492e-06
-6.43383e-07
0.000159318
-1.56703e-06
0.000180731
-2.49823e-06
0.000192593
-3.33733e-06
0.000201707
-4.12264e-06
0.000209406
-4.82946e-06
0.000215815
-5.48233e-06
0.000221005
-6.08429e-06
0.000225068
-6.65598e-06
0.000228198
-7.2048e-06
0.000230488
-7.72575e-06
0.000232173
0.000233377
-8.23161e-06
-5.82712e-07
0.000159901
-1.4506e-06
0.000181599
-2.33126e-06
0.000193474
-3.12501e-06
0.000202501
-3.86656e-06
0.000210147
-4.54016e-06
0.000216489
-5.15817e-06
0.000221623
-5.73469e-06
0.000225645
-6.2564e-06
0.00022872
-6.74987e-06
0.000230982
-7.26175e-06
0.000232685
0.000233876
-7.76085e-06
-5.38103e-07
0.000160439
-1.33772e-06
0.000182398
-2.17267e-06
0.000194309
-2.94896e-06
0.000203277
-3.62762e-06
0.000210826
-4.26718e-06
0.000217128
-4.82835e-06
0.000222184
-5.35348e-06
0.00022617
-5.8729e-06
0.00022924
-6.37792e-06
0.000231487
-6.83462e-06
0.000233141
0.000234355
-7.31333e-06
-5.0587e-07
0.000160945
-1.25581e-06
0.000183148
-2.02418e-06
0.000195077
-2.76095e-06
0.000204014
-3.40378e-06
0.000211469
-3.98512e-06
0.00021771
-4.51747e-06
0.000222717
-5.03875e-06
0.000226691
-5.51318e-06
0.000229714
-5.96548e-06
0.000231939
-6.44208e-06
0.000233618
0.000234795
-6.88265e-06
-4.49046e-07
0.000161394
-1.1544e-06
0.000183854
-1.88104e-06
0.000195804
-2.55518e-06
0.000204688
-3.18905e-06
0.000212103
-3.73984e-06
0.000218261
-4.24508e-06
0.000223222
-4.71707e-06
0.000227163
-5.16564e-06
0.000230163
-5.6247e-06
0.000232398
-6.01367e-06
0.000234007
0.000235206
-6.42466e-06
-3.99268e-07
0.000161793
-1.08481e-06
0.000184539
-1.77027e-06
0.000196489
-2.38725e-06
0.000205305
-2.96108e-06
0.000212677
-3.48507e-06
0.000218785
-3.98846e-06
0.000223725
-4.4098e-06
0.000227585
-4.83691e-06
0.00023059
-5.2497e-06
0.000232811
-5.67916e-06
0.000234436
0.000235562
-6.03505e-06
-3.72979e-07
0.000162166
-9.90578e-07
0.000185157
-1.61938e-06
0.000197118
-2.24723e-06
0.000205933
-2.77032e-06
0.0002132
-3.26247e-06
0.000219277
-3.69027e-06
0.000224153
-4.14627e-06
0.00022804
-4.52389e-06
0.000230967
-4.92204e-06
0.000233209
-5.2828e-06
0.000234797
0.000235982
-5.70294e-06
-3.16345e-07
0.000162482
-8.81833e-07
0.000185722
-1.51879e-06
0.000197755
-2.06806e-06
0.000206482
-2.58543e-06
0.000213717
-3.02769e-06
0.000219719
-3.4589e-06
0.000224584
-3.83454e-06
0.000228416
-4.22476e-06
0.000231357
-4.5714e-06
0.000233555
-4.96785e-06
0.000235193
0.000236316
-5.30217e-06
-2.92586e-07
0.000162775
-8.41382e-07
0.000186271
-1.37651e-06
0.00019829
-1.91999e-06
0.000207026
-2.38227e-06
0.000214179
-2.82587e-06
0.000220162
-3.20968e-06
0.000224968
-3.59428e-06
0.0002288
-3.93346e-06
0.000231696
-4.29307e-06
0.000233915
-4.59365e-06
0.000235494
0.000236668
-4.94507e-06
-2.59254e-07
0.000163034
-7.41881e-07
0.000186754
-1.28916e-06
0.000198838
-1.75296e-06
0.00020749
-2.21617e-06
0.000214643
-2.60923e-06
0.000220556
-2.99393e-06
0.000225352
-3.3037e-06
0.00022911
-3.65617e-06
0.000232049
-3.96963e-06
0.000234228
-4.30071e-06
0.000235825
0.000236933
-4.56606e-06
-2.30505e-07
0.000163264
-6.63549e-07
0.000187187
-1.15601e-06
0.00019933
-1.64149e-06
0.000207975
-2.05377e-06
0.000215055
-2.4238e-06
0.000220926
-2.73546e-06
0.000225664
-3.08104e-06
0.000229456
-3.38486e-06
0.000232352
-3.68412e-06
0.000234528
-3.98153e-06
0.000236122
0.000237231
-4.27965e-06
-1.71021e-07
0.000163435
-6.12705e-07
0.000187628
-1.07585e-06
0.000199793
-1.48473e-06
0.000208384
-1.87212e-06
0.000215443
-2.21941e-06
0.000221273
-2.53771e-06
0.000225983
-2.83549e-06
0.000229754
-3.12402e-06
0.000232641
-3.37875e-06
0.000234782
-3.65753e-06
0.000236401
0.000237532
-3.95857e-06
-1.79419e-07
0.000163614
-5.41687e-07
0.00018799
-9.50558e-07
0.000200202
-1.38272e-06
0.000208817
-1.71914e-06
0.000215779
-2.01821e-06
0.000221573
-2.31629e-06
0.000226281
-2.59861e-06
0.000230036
-2.83969e-06
0.000232882
-3.10616e-06
0.000235049
-3.37373e-06
0.000236668
0.000237776
-3.61762e-06
-1.15952e-07
0.00016373
-4.72752e-07
0.000188347
-8.7641e-07
0.000200606
-1.20763e-06
0.000209148
-1.5479e-06
0.00021612
-1.85206e-06
0.000221877
-2.12898e-06
0.000226558
-2.36312e-06
0.00023027
-2.58733e-06
0.000233106
-2.83311e-06
0.000235294
-3.04329e-06
0.000236878
0.000238021
-3.2884e-06
-9.86737e-08
0.000163828
-4.01767e-07
0.00018865
-7.56807e-07
0.000200961
-1.11259e-06
0.000209504
-1.40505e-06
0.000216413
-1.66222e-06
0.000222135
-1.89412e-06
0.00022679
-2.10852e-06
0.000230484
-2.34476e-06
0.000233342
-2.57308e-06
0.000235522
-2.77084e-06
0.000237076
0.000238202
-2.95178e-06
-6.86413e-08
0.000163897
-3.39438e-07
0.000188921
-6.64118e-07
0.000201285
-9.7159e-07
0.000209812
-1.24216e-06
0.000216683
-1.50487e-06
0.000222397
-1.7204e-06
0.000227005
-1.92032e-06
0.000230684
-2.11133e-06
0.000233533
-2.3014e-06
0.000235712
-2.4913e-06
0.000237265
0.00023839
-2.68001e-06
-3.05454e-08
0.000163927
-2.74735e-07
0.000189165
-5.75326e-07
0.000201586
-8.59546e-07
0.000210096
-1.10923e-06
0.000216933
-1.30088e-06
0.000222589
-1.52353e-06
0.000227228
-1.70788e-06
0.000230868
-1.88711e-06
0.000233711
-2.03983e-06
0.000235864
-2.23638e-06
0.000237462
0.000238621
-2.46728e-06
-3.70383e-09
0.000163931
-2.16751e-07
0.000189379
-4.9065e-07
0.000201859
-7.50396e-07
0.000210356
-9.79704e-07
0.000217162
-1.17941e-06
0.000222788
-1.33137e-06
0.000227379
-1.47073e-06
0.000231007
-1.63073e-06
0.000233871
-1.78573e-06
0.000236019
-1.92289e-06
0.000237599
0.00023873
-2.03175e-06
6.43997e-09
0.000163924
-1.59964e-07
0.000189545
-4.06385e-07
0.000202106
-6.18684e-07
0.000210568
-8.27093e-07
0.000217371
-9.80191e-07
0.000222941
-1.14145e-06
0.000227541
-1.29222e-06
0.000231158
-1.41071e-06
0.00023399
-1.55967e-06
0.000236168
-1.69104e-06
0.00023773
0.000238907
-1.86807e-06
3.83631e-08
0.000163885
-9.74493e-08
0.00018968
-2.95614e-07
0.000202303
-5.1332e-07
0.000210786
-6.75837e-07
0.000217533
-8.39404e-07
0.000223105
-9.56106e-07
0.000227658
-1.06257e-06
0.000231265
-1.19529e-06
0.000234123
-1.29819e-06
0.000236272
-1.43087e-06
0.000237863
0.000239013
-1.53617e-06
6.22499e-08
0.000163823
-6.54252e-08
0.000189807
-2.41483e-07
0.000202479
-4.10223e-07
0.000210954
-5.54441e-07
0.000217678
-6.72362e-07
0.000223224
-7.73323e-07
0.00022776
-8.93088e-07
0.000231386
-9.81367e-07
0.000234212
-1.07146e-06
0.000236363
-1.16748e-06
0.00023796
0.000239117
-1.27166e-06
9.57637e-08
0.000163726
1.52403e-08
0.000189888
-1.32049e-07
0.000202626
-2.81148e-07
0.000211104
-4.07933e-07
0.000217805
-5.08401e-07
0.000223325
-5.93065e-07
0.000227845
-6.69494e-07
0.000231463
-7.43567e-07
0.000234287
-8.19277e-07
0.000236438
-8.94767e-07
0.000238035
0.000239188
-9.66169e-07
1.1959e-07
0.000163606
6.71912e-08
0.000189939
-5.30367e-08
0.000202746
-1.81571e-07
0.000211233
-2.90553e-07
0.000217914
-3.48197e-07
0.000223383
-4.16302e-07
0.000227914
-4.77443e-07
0.000231525
-5.3799e-07
0.000234348
-6.0119e-07
0.000236502
-6.73948e-07
0.000238108
0.000239282
-7.67969e-07
1.25434e-07
0.00016348
1.17133e-07
0.000189947
1.98117e-08
0.000202843
-6.42824e-08
0.000211317
-1.51686e-07
0.000218002
-2.16859e-07
0.000223449
-2.69176e-07
0.000227967
-2.87893e-07
0.000231544
-3.32888e-07
0.000234393
-3.52266e-07
0.000236521
-3.976e-07
0.000238152
0.000239287
-4.03492e-07
1.72926e-07
0.000163307
1.64197e-07
0.000189955
1.17263e-07
0.00020289
2.79117e-08
0.000211407
-8.69571e-09
0.000218039
-5.92918e-08
0.000223501
-6.96788e-08
0.000227978
-1.01262e-07
0.000231575
-1.05389e-07
0.000234396
-1.42157e-07
0.000236556
-1.61352e-07
0.000238171
0.000239355
-2.30176e-07
1.82857e-07
0.000163123
2.21521e-07
0.000189916
1.66648e-07
0.000202945
1.25026e-07
0.000211449
9.95983e-08
0.000218066
9.30891e-08
0.000223507
7.17627e-08
0.000227999
8.24402e-08
0.000231564
9.22814e-08
0.000234385
9.92219e-08
0.000236548
7.54677e-08
0.000238193
0.000239341
8.87786e-08
2.07155e-07
0.000162916
2.44925e-07
0.000189879
2.6118e-07
0.000202929
2.412e-07
0.000211469
2.0828e-07
0.000218099
2.17926e-07
0.000223498
2.6585e-07
0.000227951
2.6303e-07
0.000231565
2.87203e-07
0.00023436
3.06574e-07
0.000236528
3.16271e-07
0.000238183
0.000239352
3.04476e-07
2.32228e-07
0.000162684
3.20063e-07
0.000189791
3.32721e-07
0.000202917
3.31256e-07
0.000211471
3.67915e-07
0.000218063
3.6663e-07
0.000223499
4.0235e-07
0.000227914
4.69451e-07
0.000231497
5.07901e-07
0.00023432
5.15054e-07
0.00023652
5.78932e-07
0.000238119
0.000239305
6.26543e-07
2.39526e-07
0.000162444
3.69593e-07
0.000189661
4.02698e-07
0.000202884
4.19967e-07
0.000211454
4.46295e-07
0.000218036
5.13717e-07
0.000223431
5.63386e-07
0.000227863
6.16618e-07
0.000231443
6.95695e-07
0.000234241
7.69606e-07
0.000236447
8.0487e-07
0.000238084
0.000239278
8.32276e-07
2.85111e-07
0.00016216
4.17705e-07
0.000189529
4.96523e-07
0.000202805
5.33042e-07
0.000211417
6.02684e-07
0.000217966
6.58491e-07
0.000223373
7.51069e-07
0.00022777
8.17405e-07
0.000231376
8.80795e-07
0.000234179
9.35419e-07
0.000236394
1.00232e-06
0.000238019
0.000239272
1.00925e-06
2.89417e-07
0.000161871
4.65232e-07
0.000189353
5.40583e-07
0.000202729
6.20378e-07
0.000211337
7.0566e-07
0.000217879
8.04657e-07
0.000223274
8.83335e-07
0.000227691
9.93318e-07
0.000231268
1.07231e-06
0.000234102
1.17388e-06
0.000236295
1.2712e-06
0.000237924
0.000239176
1.36861e-06
3.15915e-07
0.000161555
5.13754e-07
0.000189156
6.33783e-07
0.000202609
7.31911e-07
0.000211237
8.08585e-07
0.000217802
9.21992e-07
0.000223159
1.04485e-06
0.000227569
1.16969e-06
0.000231145
1.291e-06
0.000233983
1.40617e-06
0.000236183
1.48112e-06
0.00023785
0.000239093
1.56407e-06
3.40396e-07
0.000161215
5.60419e-07
0.000188936
7.01994e-07
0.000202466
8.18691e-07
0.00021112
9.37611e-07
0.000217681
1.06857e-06
0.000223029
1.20624e-06
0.000227433
1.34484e-06
0.000231009
1.48102e-06
0.00023385
1.60713e-06
0.000236058
1.72702e-06
0.000237731
0.000238968
1.85142e-06
3.66064e-07
0.000160849
6.08092e-07
0.000188693
7.69698e-07
0.000202304
9.04797e-07
0.000210983
1.0682e-06
0.000217518
1.21404e-06
0.000222884
1.3667e-06
0.000227282
1.52019e-06
0.000230858
1.6942e-06
0.000233677
1.83155e-06
0.000235921
1.95452e-06
0.000237607
0.000238865
2.05643e-06
3.6901e-07
0.000160479
6.54164e-07
0.000188407
8.3701e-07
0.00020212
1.01749e-06
0.000210803
1.17146e-06
0.000217365
1.33361e-06
0.000222723
1.52922e-06
0.000227089
1.72277e-06
0.000230665
1.8546e-06
0.000233546
2.03212e-06
0.000235742
2.17436e-06
0.000237462
0.00023868
2.35702e-06
4.15954e-07
0.000160062
7.00625e-07
0.000188121
9.29678e-07
0.000201891
1.10479e-06
0.000210628
1.27675e-06
0.000217194
1.50988e-06
0.000222493
1.69162e-06
0.000226908
1.87062e-06
0.000230487
2.06939e-06
0.000233345
2.22679e-06
0.000235581
2.41583e-06
0.000237271
0.000238607
2.48822e-06
4.19981e-07
0.000159642
7.49832e-07
0.00018779
9.99763e-07
0.000201641
1.21805e-06
0.000210411
1.43498e-06
0.00021698
1.60293e-06
0.000222327
1.82632e-06
0.000226686
2.04871e-06
0.000230262
2.26206e-06
0.000233128
2.47041e-06
0.000235369
2.6517e-06
0.000237087
0.000238384
2.8738e-06
4.45692e-07
0.000159195
7.748e-07
0.00018746
1.04446e-06
0.000201372
1.28221e-06
0.000210175
1.5149e-06
0.000216749
1.77823e-06
0.000222064
2.01711e-06
0.000226446
2.25181e-06
0.000230024
2.48264e-06
0.000232893
2.7016e-06
0.000235147
2.90794e-06
0.000236879
0.000238194
3.09865e-06
4.58044e-07
0.000158737
8.48849e-07
0.000187069
1.14043e-06
0.000201082
1.3969e-06
0.00020992
1.64762e-06
0.000216499
1.89739e-06
0.000221814
2.14902e-06
0.000226191
2.39818e-06
0.000229773
2.66656e-06
0.000232621
2.89989e-06
0.000234913
3.12262e-06
0.000236657
0.00023797
3.34851e-06
5.00935e-07
0.000158236
8.98295e-07
0.000186673
1.21143e-06
0.000200769
1.51233e-06
0.00020962
1.7759e-06
0.000216235
2.04099e-06
0.000221546
2.33465e-06
0.000225896
2.59624e-06
0.000229507
2.82454e-06
0.000232394
3.09695e-06
0.000234643
3.32353e-06
0.000236434
0.000237746
3.54988e-06
5.07378e-07
0.00015773
9.47902e-07
0.000186234
1.28046e-06
0.000200437
1.57392e-06
0.000209326
1.87972e-06
0.000215926
2.18711e-06
0.000221237
2.46483e-06
0.000225614
2.77052e-06
0.000229203
3.06887e-06
0.000232098
3.3018e-06
0.000234414
3.58357e-06
0.000236156
0.00023749
3.84199e-06
5.34289e-07
0.000157197
9.73032e-07
0.000185797
1.37746e-06
0.000200033
1.68725e-06
0.000209014
2.01106e-06
0.0002156
2.30417e-06
0.00022094
2.62935e-06
0.00022529
2.92188e-06
0.000228912
3.23261e-06
0.000231791
3.53231e-06
0.000234119
3.80992e-06
0.000235881
0.000237277
4.02282e-06
5.43753e-07
0.000156654
1.04686e-06
0.000185295
1.42191e-06
0.000199657
1.77648e-06
0.000208657
2.11627e-06
0.000215257
2.45518e-06
0.0002206
2.79432e-06
0.000224952
3.12827e-06
0.000228581
3.43033e-06
0.000231495
3.77053e-06
0.000233781
4.04758e-06
0.000235606
0.00023695
4.37424e-06
5.72647e-07
0.000156082
1.07519e-06
0.000184793
1.49213e-06
0.000199238
1.89327e-06
0.000208254
2.22383e-06
0.000214925
2.60808e-06
0.000220216
2.93459e-06
0.000224627
3.28052e-06
0.00022824
3.66212e-06
0.000231115
3.95634e-06
0.000233488
4.28316e-06
0.000235278
0.000236714
4.5171e-06
6.07451e-07
0.000155474
1.12554e-06
0.000184273
1.58482e-06
0.000198778
1.96594e-06
0.000207871
2.36294e-06
0.000214528
2.72839e-06
0.000219853
3.11485e-06
0.000224245
3.50736e-06
0.00022785
3.8409e-06
0.000230782
4.19999e-06
0.000233127
4.52858e-06
0.000234946
0.000236351
4.88918e-06
6.14691e-07
0.000154857
1.16253e-06
0.000183724
1.64379e-06
0.000198295
2.06214e-06
0.000207453
2.47757e-06
0.000214114
2.86596e-06
0.000219467
3.27848e-06
0.000223835
3.65583e-06
0.000227474
4.04802e-06
0.000230389
4.42441e-06
0.000232747
4.75061e-06
0.000234617
0.000236039
5.06079e-06
6.3756e-07
0.000154217
1.22169e-06
0.000183137
1.70865e-06
0.000197808
2.18922e-06
0.000206975
2.60617e-06
0.000213699
3.0341e-06
0.000219042
3.43886e-06
0.000223432
3.87978e-06
0.000227033
4.23024e-06
0.000230036
4.62279e-06
0.000232351
5.00424e-06
0.000234233
0.00023565
5.3949e-06
6.59239e-07
0.000153555
1.26888e-06
0.000182525
1.79596e-06
0.000197282
2.25223e-06
0.00020652
2.70643e-06
0.000213248
3.17983e-06
0.000218569
3.59367e-06
0.000223018
4.02665e-06
0.000226598
4.44602e-06
0.000229614
4.85212e-06
0.000231944
5.2326e-06
0.000233853
0.000235328
5.55598e-06
6.99288e-07
0.000152855
1.31055e-06
0.000181914
1.88597e-06
0.000196707
2.38482e-06
0.000206024
2.83401e-06
0.000212799
3.29747e-06
0.000218106
3.77731e-06
0.000222536
4.22439e-06
0.000226149
4.66008e-06
0.000229178
5.08333e-06
0.00023152
5.49729e-06
0.00023344
0.000234908
5.91935e-06
6.81033e-07
0.000152175
1.37789e-06
0.000181218
1.95225e-06
0.000196136
2.47011e-06
0.000205506
2.98602e-06
0.000212282
3.4385e-06
0.000217651
3.93546e-06
0.000222037
4.39818e-06
0.000225685
4.87381e-06
0.000228702
5.28412e-06
0.000231111
5.72812e-06
0.000232998
0.000234523
6.11278e-06
7.53549e-07
0.000151424
1.39445e-06
0.000180581
1.99187e-06
0.000195539
2.55462e-06
0.000204942
3.08778e-06
0.000211746
3.60757e-06
0.000217127
4.09394e-06
0.000221548
4.57091e-06
0.000225208
5.06284e-06
0.000228211
5.53683e-06
0.00023064
5.963e-06
0.000232573
0.000234123
6.36312e-06
7.43123e-07
0.000150685
1.51232e-06
0.000179815
2.13267e-06
0.000194919
2.71608e-06
0.000204356
3.24234e-06
0.000211215
3.78008e-06
0.000216586
4.28275e-06
0.000221044
4.80309e-06
0.000224688
5.28414e-06
0.000227732
5.77644e-06
0.000230149
6.22605e-06
0.000232124
0.000233626
6.72263e-06
7.66223e-07
0.000149922
1.50856e-06
0.000179076
2.17016e-06
0.000194257
2.747e-06
0.000203776
3.34556e-06
0.000210614
3.87418e-06
0.000216055
4.44641e-06
0.000220472
4.95599e-06
0.00022418
5.47798e-06
0.000227212
5.95447e-06
0.000229673
6.43181e-06
0.000231646
0.000233196
6.86047e-06
8.24716e-07
0.0001491
1.57633e-06
0.000178326
2.26193e-06
0.00019357
2.88628e-06
0.000203151
3.44757e-06
0.000210051
4.05134e-06
0.000215452
4.58852e-06
0.000219936
5.14007e-06
0.00022363
5.7049e-06
0.000226648
6.22556e-06
0.000229152
6.76269e-06
0.000231108
0.000232714
7.24317e-06
8.22498e-07
0.000148277
1.61227e-06
0.000177535
2.32243e-06
0.000192859
2.99845e-06
0.000202473
3.61082e-06
0.00020944
4.20028e-06
0.000214864
4.81217e-06
0.000219326
5.38015e-06
0.000223063
5.90421e-06
0.000226123
6.43495e-06
0.00022862
6.93844e-06
0.000230603
0.000232234
7.41847e-06
8.16167e-07
0.000147459
1.65607e-06
0.000176693
2.41135e-06
0.000192102
3.08306e-06
0.000201803
3.74136e-06
0.000208784
4.36039e-06
0.000214248
4.95355e-06
0.000218735
5.53679e-06
0.00022248
6.13535e-06
0.000225523
6.71011e-06
0.000228043
7.24265e-06
0.000230069
0.000231698
7.77887e-06
8.7851e-07
0.000146577
1.72041e-06
0.000175847
2.4804e-06
0.000191342
3.1993e-06
0.000201086
3.8539e-06
0.000208133
4.51214e-06
0.000213593
5.12738e-06
0.000218121
5.78619e-06
0.000221821
6.33611e-06
0.000224972
6.93057e-06
0.000227447
7.49113e-06
0.000229508
0.000231222
7.96792e-06
8.89859e-07
0.000145682
1.76151e-06
0.000174972
2.57668e-06
0.000190527
3.28558e-06
0.00020038
3.99458e-06
0.000207428
4.67073e-06
0.000212919
5.30296e-06
0.000217489
5.94682e-06
0.000221176
6.60702e-06
0.000224311
7.18372e-06
0.00022687
7.75477e-06
0.000228937
0.000230595
8.38146e-06
9.08182e-07
0.000144772
1.84404e-06
0.000174035
2.64275e-06
0.000189729
3.41645e-06
0.000199609
4.13658e-06
0.000206708
4.83111e-06
0.000212225
5.5062e-06
0.000216813
6.13994e-06
0.000220541
6.81062e-06
0.00022364
7.44252e-06
0.000226239
8.04533e-06
0.000228335
0.000230067
8.57375e-06
9.40743e-07
0.00014383
1.86386e-06
0.000173112
2.75322e-06
0.000188842
3.53957e-06
0.000198823
4.30525e-06
0.000205943
4.95662e-06
0.000211571
5.68413e-06
0.000216084
6.36029e-06
0.000219865
7.01764e-06
0.000222983
7.65254e-06
0.000225606
8.25786e-06
0.000227731
0.000229434
8.89117e-06
9.61784e-07
0.00014287
1.9156e-06
0.00017216
2.8194e-06
0.000187938
3.62923e-06
0.000198013
4.38965e-06
0.000205179
5.15582e-06
0.000210802
5.86641e-06
0.000215371
6.58538e-06
0.000219146
7.23319e-06
0.000222337
7.91146e-06
0.000224929
8.53574e-06
0.000227108
0.000228855
9.11521e-06
9.89527e-07
0.000141884
1.98884e-06
0.000171163
2.89783e-06
0.00018703
3.75386e-06
0.000197154
4.54884e-06
0.000204381
5.32439e-06
0.000210024
6.07975e-06
0.000214614
6.79232e-06
0.000218433
7.51297e-06
0.000221618
8.16083e-06
0.000224283
8.88315e-06
0.000226388
0.000228206
9.53364e-06
1.01892e-06
0.000140869
2.04227e-06
0.000170143
2.97635e-06
0.000186096
3.89378e-06
0.000196234
4.68579e-06
0.000203586
5.45766e-06
0.000209249
6.27152e-06
0.000213799
7.00245e-06
0.000217703
7.71319e-06
0.000220908
8.45351e-06
0.000223545
9.10824e-06
0.000225734
0.000227614
9.70042e-06
1.05178e-06
0.000139821
2.10098e-06
0.000169096
3.11462e-06
0.000185081
3.96096e-06
0.000195386
4.81259e-06
0.000202731
5.67034e-06
0.00020839
6.40165e-06
0.000213068
7.24209e-06
0.000216862
7.997e-06
0.000220154
8.74235e-06
0.000222799
9.41718e-06
0.000225059
0.00022689
1.01409e-05
1.06963e-06
0.000138753
2.1549e-06
0.000168011
3.17966e-06
0.000184056
4.08864e-06
0.000194475
5.00598e-06
0.000201814
5.80802e-06
0.000207588
6.66404e-06
0.000212212
7.43271e-06
0.000216094
8.20249e-06
0.000219384
8.94661e-06
0.000222055
9.65109e-06
0.000224353
0.000226214
1.03254e-05
1.09335e-06
0.000137659
2.2053e-06
0.000166898
3.23603e-06
0.000183024
4.25896e-06
0.000193453
5.1226e-06
0.000200951
6.02829e-06
0.000206684
6.86595e-06
0.000211375
7.638e-06
0.000215322
8.46839e-06
0.000218553
9.23293e-06
0.000221289
1.00134e-05
0.000223572
0.000225544
1.06825e-05
1.11644e-06
0.000136541
2.26018e-06
0.000165753
3.34024e-06
0.000181944
4.32926e-06
0.000192464
5.29927e-06
0.000199983
6.21253e-06
0.000205772
7.0716e-06
0.000210517
7.90466e-06
0.000214489
8.71448e-06
0.000217742
9.52594e-06
0.000220476
1.02832e-05
0.000222813
0.000224796
1.10313e-05
1.14266e-06
0.000135396
2.35352e-06
0.00016454
3.45872e-06
0.000180839
4.48334e-06
0.000191442
5.46254e-06
0.000199006
6.37454e-06
0.000204862
7.27951e-06
0.000209613
8.17523e-06
0.000213593
9.02853e-06
0.000216887
9.82981e-06
0.000219674
1.06321e-05
0.00022201
0.000224022
1.14051e-05
1.16868e-06
0.000134225
2.37457e-06
0.000163333
3.51335e-06
0.0001797
4.58108e-06
0.000190376
5.56159e-06
0.000198027
6.56351e-06
0.000203862
7.46398e-06
0.000208713
8.36012e-06
0.000212696
9.22816e-06
0.000216019
1.00358e-05
0.000218865
1.08173e-05
0.000221229
0.000223332
1.15079e-05
1.19257e-06
0.000133031
2.43338e-06
0.000162092
3.64832e-06
0.000178486
4.74223e-06
0.000189282
5.77261e-06
0.000196998
6.73199e-06
0.000202903
7.67905e-06
0.000207766
8.62321e-06
0.000211753
9.53407e-06
0.000215108
1.03998e-05
0.000218
1.12248e-05
0.000220404
0.00022245
1.21063e-05
1.25468e-06
0.000131776
2.52893e-06
0.000160818
3.74064e-06
0.000177274
4.8642e-06
0.000188159
5.92074e-06
0.000195941
6.92888e-06
0.000201894
7.92466e-06
0.000206771
8.88659e-06
0.000210791
9.7556e-06
0.00021424
1.06848e-05
0.000217072
1.15286e-05
0.00021956
0.000221626
1.2352e-05
1.23806e-06
0.000130539
2.58747e-06
0.000159469
3.83277e-06
0.000176029
4.99497e-06
0.000186996
6.14074e-06
0.000194794
7.12934e-06
0.000200905
8.14588e-06
0.000205754
9.13512e-06
0.000209803
1.00689e-05
0.000213308
1.09717e-05
0.00021617
1.18707e-05
0.000218661
0.000220751
1.2745e-05
1.30327e-06
0.000129237
2.64526e-06
0.000158128
3.92829e-06
0.000174745
5.16559e-06
0.000185757
6.22754e-06
0.000193731
7.35653e-06
0.000199775
8.401e-06
0.00020471
9.36341e-06
0.000208842
1.03426e-05
0.00021233
1.12895e-05
0.000215223
1.21886e-05
0.000217761
0.000219923
1.30153e-05
1.31878e-06
0.000127919
2.70094e-06
0.000156746
4.01939e-06
0.000173426
5.2501e-06
0.000184526
6.45754e-06
0.000192523
7.54339e-06
0.00019869
8.61336e-06
0.000203642
9.64905e-06
0.000207807
1.0675e-05
0.000211304
1.16226e-05
0.000214275
1.2573e-05
0.00021681
0.000218961
1.35328e-05
1.37039e-06
0.000126549
2.79448e-06
0.000155321
4.15598e-06
0.000172064
5.42584e-06
0.000183255
6.61801e-06
0.000191331
7.75867e-06
0.000197551
8.87875e-06
0.000202523
9.9376e-06
0.000206749
1.09619e-05
0.00021028
1.195e-05
0.000213286
1.28919e-05
0.000215867
0.000218129
1.37229e-05
1.3637e-06
0.000125184
2.85456e-06
0.000153829
4.25086e-06
0.000170666
5.55913e-06
0.000181947
6.83524e-06
0.000190056
8.00249e-06
0.000196385
9.07745e-06
0.00020145
1.02095e-05
0.000205618
1.1232e-05
0.000209257
1.22441e-05
0.000212273
1.32274e-05
0.000214882
0.000217094
1.42614e-05
1.45586e-06
0.000123726
2.9118e-06
0.000152371
4.34871e-06
0.000169229
5.74267e-06
0.000180553
6.96149e-06
0.000188839
8.20998e-06
0.000195139
9.35449e-06
0.000200307
1.04636e-05
0.00020451
1.15588e-05
0.000208162
1.26412e-05
0.00021119
1.36263e-05
0.000213897
0.000216226
1.44948e-05
1.4415e-06
0.000122282
3.01157e-06
0.000150799
4.49186e-06
0.000167747
5.87988e-06
0.000179166
7.23069e-06
0.00018749
8.42175e-06
0.00019395
9.66379e-06
0.000199067
1.0799e-05