/*--------------------------------*- C++ -*----------------------------------*\
| =========                 |                                                 |
| \\      /  F ield         | OpenFOAM: The Open Source CFD Toolbox           |
|  \\    /   O peration     | Version:  2.3.1                                 |
|   \\  /    A nd           | Web:      www.OpenFOAM.org                      |
|    \\/     M anipulation  |                                                 |
\*---------------------------------------------------------------------------*/
FoamFile
{
    version     2.0;
    format      ascii;
    class       volScalarField;
    location    "3080";
    object      sigmaEq;
}
// * * * * * * * * * * * * * * * * * * * * * * * * * * * * * * * * * * * * * //

dimensions      [1 -1 -2 0 0 0 0];

internalField   nonuniform List<scalar> 
11800
(
174028
125692
565221
480602
121575
338470
163019
176444
188431
201287
172698
686183
89268
509048
435476
1.89522e+06
127865
127402
229205
139552
383331
620155
828345
741992
1.55217e+06
975349
1.00928e+06
501283
1.1009e+06
1.19378e+06
334318
119378
975690
132641
138299
322103
140041
1.03971e+06
138687
148130
1.04607e+06
1.14105e+06
526704
1.23827e+06
352624
1.77424e+06
792253
922708
163688
238960
719612
508441
136603
219447
2.02196e+06
1.66907e+06
67148.8
471477
367324
353251
1.66445e+06
149579
374678
308629
1.52213e+06
230029
740004
526239
67098
901763
140235
117108
113168
1.59878e+06
1.64808e+06
313253
1.58925e+06
217894
176394
180788
2.05602e+06
124386
121866
124292
124234
1.15045e+06
358488
1.05877e+06
970030
521953
135153
1.16163e+06
152457
64129.7
184300
152247
19729.7
152177
137684
603881
78771.2
665351
1.10252e+06
383557
146098
325481
179769
157197
1.62331e+06
1.06618e+06
1.15855e+06
976883
363497
529735
218689
1.46598e+06
214708
143686
1.37678e+06
207741
200451
164545
181638
139950
149655
135356
137628
137138
99420.8
29299.7
1.87166e+06
1.24272e+06
388590
1.15286e+06
555780
1.05883e+06
969019
340560
986835
482185
906485
829848
499285
193066
239807
324274
1.18521e+06
1.21516e+06
693018
368352
204148
196590
137365
256259
234132
183683
461487
634129
1.26825e+06
142882
1.86523e+06
227122
1.61782e+06
466201
507024
549245
277970
211593
2.01159e+06
1.24711e+06
440287
605086
154617
363310
362026
1.77382e+06
1.79318e+06
943485
864915
1.02556e+06
462429
318321
247565
201729
437778
212205
330042
151654
170056
161287
236799
220791
210328
197941
896581
1.14059e+06
1.65483e+06
125064
217704
1.94713e+06
137091
279581
313332
141532
146101
825760
691251
634965
525802
1.8692e+06
572480
844320
2.54601e+06
2.11717e+06
2.15937e+06
336003
130522
811061
742765
681799
257303
367420
129463
128370
227044
136747
1.23291e+06
251304
138687
455654
208656
172943
138265
638116
651495
2.54165e+06
1.23093e+06
218536
228747
1.11899e+06
915945
318639
461924
1.02611e+06
947006
867870
145332
1.11456e+06
389253
534026
500584
152552
127061
401244
353574
145617
2.1561e+06
277118
318810
230442
264933
681402
742725
805254
366356
259288
139645
1.63732e+06
158418
84459.4
136757
402400
149160
525965
1.91372e+06
378322
374967
565992
410286
472161
343956
1.17084e+06
979539
313151
390289
250423
299819
540455
709577
263470
1.1504e+06
1.23409e+06
1.48567e+06
168446
374297
372043
1.71488e+06
1.73089e+06
1.02656e+06
1.01039e+06
1.0482e+06
1.03754e+06
134348
91793.1
283796
2.22777e+06
122489
128690
293220
242150
258344
897461
918522
1.5376e+06
2.16126e+06
672900
181384
857498
708149
495824
404744
163282
170366
254271
449167
236617
415486
125047
166430
161353
144473
1.22622e+06
161433
128084
1.79321e+06
301237
686169
756626
736946
930905
896206
104865
103809
621934
812517
562239
1.457e+06
119326
802348
624806
408338
309002
304928
234308
311515
269597
356191
390972
422073
152833
137630
747297
792955
176849
217150
448541
378107
425637
194483
182664
227956
231905
872355
418292
310288
352020
1.04247e+06
1.21178e+06
338354
193419
183131
244223
227396
424623
493183
401983
471900
370096
434591
328220
310944
637261
321303
703822
1.21304e+06
606935
445428
1.9791e+06
134221
1.27405e+06
623885
453997
1.90292e+06
142047
1.30503e+06
323255
1.103e+06
1.01796e+06
988839
184671
84034.5
123680
2.28621e+06
1.97674e+06
871045
311320
419465
174484
226229
257616
143209
203122
1.5118e+06
61012.2
535986
409944
1.6704e+06
106418
171415
146734
147359
146007
147898
1.67217e+06
556960
224859
639785
588339
540735
115274
1.24374e+06
405045
564972
162922
824252
180219
1.59904e+06
133820
190826
463460
426890
392922
835837
222410
464645
412874
218477
643518
701324
761819
366480
264881
64272.5
165331
182957
2.076e+06
702655
554086
402024
330783
177648
148638
108959
109500
186952
98479.6
113788
123554
158339
316958
144193
187061
560096
672706
317611
1.48479e+06
195431
351756
148570
172952
1.43706e+06
1.87157e+06
580475
632294
233891
207807
119352
1.25859e+06
1.81638e+06
1.60707e+06
2.32877e+06
747959
522513
687066
118962
177955
164257
182624
680744
142497
140550
120836
172592
1.25682e+06
278824
1.26316e+06
760148
163873
209463
1.04383e+06
1.30936e+06
676757
737894
798314
362568
257737
616111
139896
140933
137658
157058
125771
182142
94909.8
175503
94207.3
172880
84134.2
168608
154894
161842
111859
1.43933e+06
224282
236658
527701
842030
117447
148139
127344
124344
110998
276336
397474
128406
127401
549516
118130
175488
1.56242e+06
79072.6
158425
486195
447136
468862
508668
522054
551194
257192
194677
1.80156e+06
2.2362e+06
459255
85493.3
326906
323097
350174
250060
747512
689948
633040
165745
82768.6
720821
676300
301496
333920
169851
576234
627078
220449
1.01438e+06
1.02683e+06
1.03891e+06
1.03012e+06
1.76194e+06
1.7241e+06
538735
2.11737e+06
757117
135083
1.48073e+06
1.28512e+06
1.40085e+06
712860
289482
313753
178846
1.50231e+06
491899
622035
2.24052e+06
201250
245412
491140
472901
1.24527e+06
642296
1.86155e+06
133999
130993
255795
363193
807791
740790
679721
1.71433e+06
146844
370580
797296
1.22094e+06
131315
2.0097e+06
1.88021e+06
1.9423e+06
225404
305674
117702
1.98605e+06
564167
230362
389212
1.8564e+06
142887
232674
247554
138901
458934
278768
2.28442e+06
1.98846e+06
194931
563182
719782
275030
323705
243275
215606
610838
187339
554482
410763
1.05588e+06
926923
163995
1.21581e+06
138746
379487
465907
1.63232e+06
307256
417714
233967
194703
178147
207720
395078
923043
1.01719e+06
136952
133086
133488
177011
330070
1.23291e+06
113074
421133
758908
590579
214499
1.0069e+06
1.11658e+06
722208
1.21783e+06
1.32271e+06
545053
358690
155541
182687
341816
364621
317140
349665
185411
322246
377005
222958
138441
2.31228e+06
986711
369843
498028
461240
224667
397766
579169
1.25346e+06
1.15253e+06
1.05501e+06
325397
383998
194385
205840
1.43944e+06
1.06704e+06
1.22513e+06
148750
193677
271009
633443
1.41486e+06
449763
90673.6
150118
2.10938e+06
1.9829e+06
236092
1.81652e+06
111689
156814
118362
685248
125204
216385
241920
1.26534e+06
1.38004e+06
1.49799e+06
1.62051e+06
726297
618765
514723
406945
186369
132646
399413
1.98568e+06
141576
138659
149482
143532
148339
154420
160372
1.5384e+06
777748
788607
463068
860948
937592
328606
1.10103e+06
263832
220078
147374
2.08544e+06
138501
163075
156765
163346
138197
1.8978e+06
265377
263103
1.02729e+06
331540
700514
251818
1.93284e+06
840748
417040
313201
1.3033e+06
462841
181479
153629
136829
133306
226749
251025
239376
172683
472842
154650
135393
814203
910488
119345
578235
830095
704812
954651
1.7955e+06
1.65691e+06
1.52044e+06
1.3858e+06
577845
703823
1.79965e+06
1.66064e+06
829063
1.52425e+06
954349
1.389e+06
1.61273e+06
153931
133428
145810
235507
510770
1.12928e+06
140089
424485
578575
459795
630178
189226
242115
419396
611259
1.31494e+06
1.20907e+06
1.10648e+06
524645
390334
986337
202115
254689
164388
329089
305226
277393
563273
441061
453213
337245
132315
688801
190558
344814
425136
1.05789e+06
570124
666612
545135
199251
256988
181888
160775
153689
175007
593058
502256
141218
208555
225920
461202
1.3861e+06
451102
630813
486001
157149
216339
203330
187353
254605
185940
613309
563833
514335
203511
1.51304e+06
693811
214744
927853
623612
1.33135e+06
1.82611e+06
224810
250918
211036
147071
154443
736318
626870
1.90037e+06
130144
181449
346694
509536
223165
140857
743123
735110
61770
136691
359394
291860
91468.8
1.65805e+06
1.82478e+06
296686
122437
270538
377961
806325
679383
741087
2.08469e+06
135635
582849
656204
163663
600713
733545
864921
994270
1.88013e+06
1.73572e+06
1.59303e+06
1.45268e+06
600240
732395
1.88315e+06
1.7379e+06
862695
1.59553e+06
993229
1.45459e+06
1.76898e+06
1.52496e+06
1.15028e+06
479242
546753
1.524e+06
1.1387e+06
333179
121450
116436
1.137e+06
2.00821e+06
152709
412123
1.66357e+06
1.13486e+06
1.8268e+06
1.86237e+06
1.17543e+06
1.17919e+06
540497
429890
560624
246315
179709
299718
156638
187574
226286
192916
409939
1.94497e+06
559985
193795
118621
360888
387354
1.76501e+06
366330
331218
417523
443509
1.14165e+06
534578
387567
1.48016e+06
414803
537889
197081
165402
375728
323880
350223
873959
560489
543562
1.32224e+06
1.26473e+06
537213
566439
999345
1.07369e+06
401588
420136
137172
182050
190553
547065
425261
75330.7
163269
186575
641531
611581
329191
637646
493750
197743
123096
123669
514126
1.2305e+06
124552
1.82427e+06
262663
727568
667502
209039
260523
435212
148484
129027
1.54606e+06
386913
998823
920193
843849
310525
449063
163926
1.41092e+06
1.84268e+06
172710
145350
1.01172e+06
368025
500487
865228
943450
1.03577e+06
314757
453329
62275.5
745093
382961
1.83488e+06
316113
1.0584e+06
868090
973575
141245
142862
144334
154722
154031
136953
1.52701e+06
468946
178232
207807
228987
257810
318207
353213
725102
702588
668652
645716
593502
613566
1.07797e+06
165236
138975
135996
179735
206865
147483
165177
1.28001e+06
261251
475881
400365
1.03436e+06
540329
191820
200441
445518
345999
613108
502111
1.24065e+06
1.08508e+06
998733
914680
508962
1.43127e+06
701142
1.43795e+06
252929
211750
272785
266640
187212
172694
184913
1.45481e+06
1.90631e+06
334972
115966
249458
560967
434531
124895
151987
249168
235269
241417
225455
295021
277949
211153
475397
527880
514189
571046
435216
484010
542608
132223
1.16871e+06
924890
491714
1.18899e+06
1.11751e+06
651973
1.90499e+06
356786
338870
384677
413093
190539
159427
172479
362166
144886
1.58249e+06
209530
142229
778933
59568.9
118339
1.58483e+06
182126
403670
1.28782e+06
589615
1.18481e+06
1.08477e+06
1.42875e+06
950160
155256
593624
475102
203888
1.33896e+06
607295
208776
1.10902e+06
1.00938e+06
1.20842e+06
137334
139779
156708
2.30176e+06
274442
423766
516980
237800
140677
137996
409230
442943
176999
1.5869e+06
412802
1.58525e+06
242300
790141
138373
623400
746769
996658
398368
534526
640766
262615
2.24182e+06
164285
117465
141171
1.91884e+06
1.26425e+06
314277
460006
1.04701e+06
967717
887265
1.97513e+06
595039
482781
1.98664e+06
2.24127e+06
1.53974e+06
85826.1
530057
1.30158e+06
973517
527785
394335
971149
866286
401205
1.33039e+06
321321
267257
496605
436620
334745
1.55777e+06
2.35961e+06
125072
138221
162324
2.26083e+06
158228
182824
688047
526925
2.00527e+06
2.10052e+06
137704
594131
209028
198169
491467
212260
129265
531127
128914
146291
2.37062e+06
1.0232e+06
565991
424247
381882
275498
775688
714844
654724
208218
2.12447e+06
417997
377098
422419
1.78049e+06
721118
1.05435e+06
147197
230511
173805
796578
479877
638893
125979
275182
373897
796197
280681
183971
158465
310196
1.98085e+06
284147
381944
788787
1.28102e+06
1.81061e+06
1.21162e+06
831768
646782
765643
82233
229386
315152
672189
619171
568737
1.80909e+06
144673
185063
198512
198149
198594
194372
282057
138238
138647
646483
1.63024e+06
455971
1.0123e+06
931838
854580
315280
1.84334e+06
581847
662251
791925
682481
1.12464e+06
1.80183e+06
544760
147286
707343
118889
837466
502265
914638
996305
358574
1.16302e+06
287667
2.45315e+06
838145
140135
1.6771e+06
2.45863e+06
2.11699e+06
497637
136395
942430
164425
153268
117132
268444
148867
151449
132206
136615
1.52069e+06
1.59618e+06
138970
1.05692e+06
172726
163658
137569
221905
1.07923e+06
1.08574e+06
250052
1.0985e+06
1.1022e+06
1.43769e+06
473959
179372
221236
300211
601427
653925
224720
59724.6
157386
725767
338744
823596
926974
1.0146e+06
1.10463e+06
566366
400942
299651
168467
146898
1.83748e+06
1.00992e+06
130381
211291
894797
697708
377404
409433
192251
169106
312763
276761
116346
211210
148510
1.53928e+06
590005
1.43858e+06
139855
132979
2.46057e+06
135232
1.90702e+06
1.87887e+06
138244
869319
435142
1.51141e+06
151424
817930
946040
2.06264e+06
229284
147268
127391
467038
221358
298765
600899
549733
504464
151357
127690
172120
163524
1.05526e+06
1.16294e+06
794661
1.3618e+06
1.24923e+06
1.45e+06
2.08405e+06
260244
664498
1.98489e+06
592160
1.87438e+06
878091
957463
1.04115e+06
460022
314456
390218
460446
1.73734e+06
161625
185975
270483
256171
238428
178776
355647
327656
306814
761087
773138
2.31087e+06
252407
123168
170917
1.83417e+06
525731
282106
271963
1.79068e+06
912932
630395
107811
194075
127302
899062
1.14776e+06
294021
1.30768e+06
181065
175960
2.3857e+06
1.56591e+06
1.91761e+06
367897
485701
855814
273610
669634
1.98182e+06
2.10904e+06
178443
205157
342414
281095
975951
1.08961e+06
743793
838037
2.1986e+06
2.03931e+06
260788
176947
107400
1.44886e+06
123052
1.91017e+06
385717
287415
1.02503e+06
325733
138963
1.78165e+06
205239
262204
108388
128107
1.32923e+06
450515
143066
717363
339280
190667
144368
129185
654900
130236
1.81293e+06
1.64278e+06
297423
799320
454777
140951
156280
1.40867e+06
172724
944290
242784
518436
1.07578e+06
1.22976e+06
1.73022e+06
187745
299873
1.89682e+06
237923
153259
141195
166565
131964
1.94987e+06
1.51078e+06
344775
471752
824150
818014
1.08067e+06
378458
517448
375795
543178
1.16166e+06
1.0689e+06
978596
1.54513e+06
719810
515278
1.5084e+06
518751
1.6406e+06
609125
667244
1.8042e+06
2.45763e+06
2.09748e+06
406027
405702
1.11847e+06
527705
384858
135009
340675
1.74156e+06
149897
173059
2.20927e+06
1.64908e+06
1.9117e+06
866460
1.07487e+06
1.08453e+06
935780
125459
117282
176390
119824
673377
733421
798344
370483
262093
578640
1.9374e+06
149260
199149
167467
155363
979826
885757
186199
1.72128e+06
1.95342e+06
1.13267e+06
923841
1.56815e+06
1.80601e+06
121532
866497
551566
1.19448e+06
161419
253817
271709
1.53148e+06
1.52575e+06
710289
352697
116650
138714
223921
469524
1.60806e+06
214612
1.23006e+06
148918
354494
244060
320749
551648
284715
440404
42768.5
12361.1
439635
2.2994e+06
199089
165659
168962
133897
125173
179221
185907
136422
139765
505223
135082
146981
179488
944019
1.1652e+06
837085
1.61354e+06
2.04513e+06
145711
198832
369903
165007
1.44826e+06
210290
2.14061e+06
229189
296070
573023
422016
227628
233767
542602
131328
153216
189723
123485
181934
120667
1.88689e+06
109457
154387
274712
124633
95382.8
1.82415e+06
201779
1.57598e+06
1.67006e+06
606793
396332
314733
454942
1.02596e+06
954780
875448
133604
1.13859e+06
597095
131165
1.94888e+06
138231
144101
357443
1.0678e+06
840185
933666
1.296e+06
187940
145321
399484
589829
1.29352e+06
685309
1.40187e+06
494786
1.1897e+06
1.08946e+06
394454
1.39248e+06
488376
1.28013e+06
579360
1.17809e+06
1.07867e+06
675054
1.42222e+06
180769
580590
451572
148944
187087
1.58396e+06
972093
1.31885e+06
1.22619e+06
1.07e+06
1.32653e+06
976657
372944
409138
604940
1.46504e+06
147611
2.1983e+06
179317
146487
1.66084e+06
195288
305968
606620
604754
1.79217e+06
114528
1.13005e+06
1.04115e+06
953776
348212
509113
2.19631e+06
366564
282284
654404
173908
684257
315701
338710
125135
196994
205665
178126
519481
124923
640965
344082
262153
867132
1.15659e+06
1.16268e+06
866773
426464
2.06793e+06
137494
138359
1.85114e+06
1.67764e+06
1.01618e+06
2.44704e+06
1.07914e+06
929494
973399
2.17566e+06
1.06724e+06
851869
1.93147e+06
415896
435756
637828
1.69818e+06
112314
1.45477e+06
173747
254513
390062
653247
712591
774568
378869
272492
444678
76403
81712
147149
154904
211140
174657
141353
193858
1.07305e+06
1.97769e+06
235427
178134
1.82264e+06
1.30625e+06
514233
696187
146659
154097
1.58238e+06
1.05045e+06
227170
831207
778816
1.04866e+06
130531
146209
153503
132452
1.23042e+06
2.00075e+06
1.96042e+06
1.32781e+06
2.12578e+06
268708
123304
344207
1.04385e+06
956434
1.13451e+06
514735
350890
2.22334e+06
484445
609171
796624
261436
224446
930423
331145
170575
701950
267907
344863
2.07011e+06
353127
313060
1.09814e+06
1.01201e+06
928101
466954
1.40928e+06
1.32583e+06
1.73759e+06
541927
561545
709130
1.47667e+06
695635
499986
1.3124e+06
253794
2.45668e+06
165662
1.87556e+06
498092
570347
135905
605909
1.15874e+06
144405
168301
163440
2.16965e+06
629440
575950
681688
336357
244605
312808
609862
1.42009e+06
616217
1.203e+06
1.42453e+06
1.31308e+06
412327
1.32943e+06
1.00814e+06
1.06822e+06
1.2646e+06
1.3307e+06
1.00912e+06
1.07781e+06
1.27356e+06
736333
622949
48301.2
299730
185492
422841
622140
518565
720917
1.46028e+06
1.34921e+06
1.24068e+06
1.13591e+06
418256
1.16786e+06
573381
164284
114375
120425
204340
109768
496620
1.17364e+06
1.20136e+06
429165
2.00204e+06
168567
150196
1.56292e+06
1.94074e+06
100416
1.23012e+06
484901
655041
914509
520142
328003
149963
485368
702580
69027.9
140432
2.02782e+06
268897
204263
488133
448418
529406
343257
138448
143770
350686
1.22524e+06
1.90491e+06
2.20566e+06
335843
373006
1.5731e+06
1.41817e+06
1.85031e+06
119980
1.03734e+06
1.80106e+06
2.21869e+06
2.28926e+06
2.23089e+06
574563
1.00213e+06
430787
2.09443e+06
1.57319e+06
642049
1.36484e+06
154534
139813
1.62467e+06
1.62656e+06
140744
440294
2.03244e+06
1.70047e+06
1.61446e+06
1.67074e+06
2.29864e+06
1.55781e+06
2.00815e+06
1.74238e+06
155987
275971
1.27817e+06
618731
1.05062e+06
221992
147745
186997
172694
160534
208271
186025
433095
2.01214e+06
1.22233e+06
426692
588245
1.30935e+06
174459
607634
426804
2.35305e+06
325234
314101
585382
331374
541959
239198
189174
1.91487e+06
15715.7
153577
153274
31595.6
467199
510145
182773
200470
213780
151282
546651
531115
134779
2.03708e+06
1.74138e+06
615690
1.30503e+06
443831
130052
1.52299e+06
336560
2.02512e+06
552964
675925
798237
919803
1.75429e+06
1.62092e+06
1.48784e+06
1.35903e+06
552112
673947
1.7556e+06
1.62117e+06
795364
1.48846e+06
917250
1.35867e+06
306120
236202
573324
617998
544507
259437
214132
183718
149893
140772
157173
135286
140951
236959
942101
1.01184e+06
897148
502699
977674
1.07748e+06
1.68192e+06
707443
569565
1.80482e+06
602559
206851
127997
177776
148506
284524
261161
265195
146055
386522
304044
388098
793122
145248
210619
956943
155716
116644
143856
123212
1.41577e+06
171534
203550
662521
528521
263728
663077
218678
131586
119950
2.14499e+06
2.20113e+06
1.31717e+06
1.07771e+06
1.05021e+06
1.33918e+06
2.15197e+06
1.11004e+06
134582
715958
396392
304583
438167
211467
2.05376e+06
223732
1.19715e+06
1.10433e+06
1.01196e+06
531720
361779
628777
365888
280158
2.07534e+06
237896
134710
681010
679840
306854
195010
235811
395853
818175
1.55039e+06
642215
511484
968125
1.25912e+06
340930
495017
1.08039e+06
993675
910279
512366
552223
901489
735817
1.03553e+06
549989
1.13957e+06
1.24252e+06
360623
1.34933e+06
2.4366e+06
1.72157e+06
119958
814948
890640
969618
300072
205896
1.47614e+06
254945
334779
418949
458449
195596
248841
203188
161450
1.39362e+06
1.06831e+06
1.12133e+06
1.34367e+06
317028
1.72474e+06
2.13858e+06
788664
141670
800314
873651
951372
898852
1.04986e+06
292607
1.67592e+06
734352
674261
616905
731849
265905
367584
214513
200022
459532
543010
499486
573094
625523
680025
414825
411285
589873
592726
1.20459e+06
1.19837e+06
1.01221e+06
1.10658e+06
1.00664e+06
1.10086e+06
600148
653691
235847
150708
169969
199685
1.21717e+06
766727
141364
1.21952e+06
1.01124e+06
968349
1.25592e+06
203659
438894
1.58015e+06
663986
1.45527e+06
1.33383e+06
112022
262435
1.09447e+06
641715
455407
1.45014e+06
511591
73596.8
1.10409e+06
1.01207e+06
1.2006e+06
536275
363996
1.49668e+06
570613
462230
1.98284e+06
572949
809255
195776
147429
332811
310709
284184
1.68685e+06
415872
283651
475870
437183
513781
258673
198920
1.11884e+06
1.25843e+06
203517
715086
153728
967395
1.93671e+06
1.21901e+06
587729
441199
1.05576e+06
536701
479161
395434
260481
165450
401807
198840
486128
197537
336591
143957
159535
2.03076e+06
405413
1.71756e+06
977707
1.05384e+06
568780
426145
1.01844e+06
1.84947e+06
121971
147845
151429
143846
367056
35509.3
11749.4
366413
767682
143511
807822
358653
253242
169793
535539
747165
1.57197e+06
132443
106713
169868
196026
421855
271292
1.0578e+06
942502
231288
152389
124515
2.05677e+06
767806
133723
300283
148640
2.35286e+06
1.90405e+06
299896
223354
826342
399814
565644
1.11743e+06
938040
1.02625e+06
2.20302e+06
1.75173e+06
148127
1.6466e+06
2.22721e+06
1.73317e+06
1.92424e+06
835470
172746
1.12715e+06
273456
172443
210426
410780
444805
327681
325554
742736
243393
167628
128736
1.08387e+06
1.31439e+06
1.43332e+06
1.55565e+06
1.66832e+06
741401
633136
523003
412442
261089
125124
517475
24046.9
254253
253794
13061.5
556251
278523
219581
92975.6
348404
395531
140216
360095
1.08473e+06
831861
574115
407080
464788
2.02958e+06
1.55548e+06
206230
666461
139222
149123
564835
665964
694701
1.38297e+06
398523
435973
144911
1.8335e+06
153268
319624
372978
347648
1.31974e+06
1.43839e+06
744691
808786
807422
564036
725378
1.36723e+06
1.30158e+06
1.29772e+06
445276
615782
115984
128439
120203
277780
133355
603941
1.25305e+06
1.1126e+06
1.36362e+06
994835
1.37388e+06
993580
676843
456854
1.20216e+06
880073
1.20416e+06
883044
292791
1.33542e+06
1.11367e+06
975532
1.27088e+06
1.12493e+06
1.38752e+06
1.0085e+06
1.38795e+06
1.0077e+06
1.26663e+06
2.35573e+06
507696
711743
1.51541e+06
559047
140851
151803
236272
23373.1
235836
20671.5
139495
430236
1.33331e+06
1.22166e+06
1.44927e+06
640957
444723
2.08185e+06
73216.1
133808
265972
906672
295563
815941
400450
2.12016e+06
2.1391e+06
1.28438e+06
153820
283300
1.43863e+06
758709
608329
418407
754517
690863
819014
287480
400606
2.18109e+06
511969
1.9393e+06
140666
138671
133792
139414
96706.9
1.91486e+06
157005
1.40341e+06
94544.7
1.02514e+06
1.31345e+06
156917
142753
200996
587344
210838
492995
452783
333267
360983
391134
169448
358067
482918
597624
402640
1.3624e+06
1.25609e+06
1.15074e+06
1.43332e+06
1.91797e+06
2.11687e+06
127804
125902
127477
139145
278756
164740
300619
2.12323e+06
2.16822e+06
2.16057e+06
1.66281e+06
65662.4
1.1505e+06
1.97595e+06
1.33437e+06
1.05113e+06
1.07379e+06
1.31682e+06
652650
583994
1.16824e+06
763598
1.38845e+06
105657
250390
317448
612599
252252
248077
283343
192568
221949
162845
189316
427021
430180
467166
464735
504227
504969
593427
586199
144294
142707
553872
359730
113292
210692
830335
1.39116e+06
144807
828417
1.79231e+06
550545
1.70259e+06
774494
218432
1.59582e+06
835822
702414
1.11342e+06
1.90895e+06
2.29107e+06
900017
378478
1.9305e+06
275369
203047
174473
431344
97060.8
813815
1.41716e+06
364776
553871
225090
139654
240108
2.07609e+06
368302
428853
414293
307542
880722
276279
219877
878015
193492
1.87791e+06
151912
1.11042e+06
408716
443792
1.74043e+06
1.4696e+06
886910
1.60469e+06
1.74386e+06
760100
1.88462e+06
635191
507477
1.46876e+06
1.60314e+06
1.88608e+06
1.74258e+06
509178
763217
890296
637197
1.91947e+06
191532
1.50656e+06
165558
117434
146412
8650.88
65844
821127
89536.2
1.44932e+06
296573
223252
556434
601631
511116
435366
281323
1.25155e+06
279958
300502
1.13651e+06
101706
441512
408733
405516
1.2812e+06
1.17427e+06
1.3923e+06
608515
525329
221345
376681
734103
1.44703e+06
75387.9
365458
218821
142434
477422
1.53325e+06
859737
740048
1.614e+06
186412
880687
1.88374e+06
950412
1.75497e+06
158832
1.97454e+06
236644
1.32167e+06
469096
578984
142171
15207.5
152560
152222
26010.2
252500
1.35535e+06
192503
1.64892e+06
752568
271218
1.26922e+06
1.21854e+06
1.38755e+06
1.33234e+06
1.50939e+06
1.44971e+06
699474
676357
478173
463317
530534
359306
1.20389e+06
1.11088e+06
1.01771e+06
321911
377118
348062
175669
1.12604e+06
982354
96358.9
195300
147007
167329
176200
1.9213e+06
1.60236e+06
415974
1.36645e+06
1.25323e+06
1.4823e+06
127211
712517
1.29894e+06
1.34982e+06
142990
134094
1.5584e+06
498464
171872
282537
329561
305929
179921
531323
490020
452878
1.78129e+06
2.3513e+06
1.72544e+06
1.22007e+06
594242
429366
185123
201588
299571
216493
142049
127751
226097
648770
517193
139108
1.42536e+06
1.64894e+06
674779
594411
175763
170034
152087
160299
461004
1.55616e+06
1.19529e+06
919978
948000
1.13053e+06
136055
149195
223048
135857
137572
297263
2.43165e+06
1.92899e+06
149655
186198
810223
699265
487034
1.51366e+06
1.63586e+06
1.27339e+06
1.39132e+06
835001
429605
367550
398955
188680
233496
1.77851e+06
470140
1.12997e+06
86792.5
1.65093e+06
151808
640914
743367
2.42795e+06
136933
660153
162262
618058
171413
390918
1.19743e+06
543890
1.3686e+06
886796
1.49736e+06
1.62954e+06
767283
1.7643e+06
646141
526416
647798
526941
251610
766742
866874
1.13268e+06
141700
228560
1.40675e+06
611562
2.22433e+06
1.8118e+06
2.03047e+06
367043
1.58337e+06
746787
573636
280107
214699
2.16501e+06
1.1268e+06
134986
2.35532e+06
1.97985e+06
68655.1
681157
557542
87055.9
918207
731675
113771
185367
1.53112e+06
2.26275e+06
141906
787784
808349
1.63036e+06
1.57896e+06
572862
587127
573632
587904
145795
146986
146269
137960
109620
2.3375e+06
1.8096e+06
1.63997e+06
2.06884e+06
777034
412835
1.67538e+06
932915
1.02049e+06
1.11099e+06
79535.3
1.73037e+06
299997
1.29392e+06
1.85704e+06
548565
383452
2.3565e+06
622433
653503
458261
483563
1.24011e+06
1.19854e+06
212073
209022
117309
139392
402865
1.46485e+06
1.34906e+06
1.23657e+06
610662
2.33334e+06
145159
279248
128343
1.22145e+06
1.33494e+06
777767
1.45148e+06
664997
1.58388e+06
563050
1.49672e+06
1.25916e+06
1.37581e+06
1.6183e+06
452310
800444
690469
565320
136956
188968
200664
257035
478091
403787
439331
1.9164e+06
880651
1.07431e+06
1.77531e+06
209945
316619
139052
497933
693422
240171
332896
1.80176e+06
191932
134489
138227
140848
135164
89132.8
214899
164326
177709
1.54071e+06
1.82292e+06
161809
140149
177211
307326
666691
1.97623e+06
1.83987e+06
824158
144523
198906
1.56654e+06
145346
146871
2.39818e+06
921890
1.80479e+06
502341
1.22102e+06
765485
753595
211300
864866
1.28662e+06
617456
444637
178369
405595
140406
106532
126780
1.94649e+06
1.13106e+06
1.15253e+06
1.90843e+06
299503
321551
169381
605603
152256
138263
149684
379490
303597
30892.2
303079
21165.1
138866
1.20036e+06
358954
518759
1.10094e+06
1.01276e+06
926982
188866
2.20091e+06
729925
416499
1.88547e+06
1.1153e+06
1.16129e+06
194999
19141.2
194615
20149.1
1.67161e+06
418736
691444
821559
756604
156573
1.80567e+06
417118
300505
958089
735386
134004
41227.7
1.32094e+06
272950
1.32265e+06
333617
442099
817037
907677
761374
167716
671052
276210
353951
173120
186041
638211
664971
221486
399759
142861
144043
1.06347e+06
530552
390101
153725
571408
14788.2
55330.6
570419
703492
568687
841287
998752
119581
2.19834e+06
2.29236e+06
285859
141687
155482
238841
264047
27283.6
263604
23527.3
1.14705e+06
390984
541925
2.13597e+06
2.16757e+06
1.8312e+06
1.67028e+06
981810
869881
832337
738882
1.81049e+06
259911
512983
186867
123648
138186
368226
515208
736801
2.08472e+06
2.10613e+06
264157
137118
686553
747493
252983
1.13878e+06
464995
381927
1.6802e+06
167780
155544
206415
1.10532e+06
1.11095e+06
1.17647e+06
745706
374478
522512
94685.2
95697.5
1.2909e+06
136026
1.14065e+06
146961
557336
905760
793746
1.33408e+06
1.56007e+06
144112
185319
422558
1.85143e+06
9000.91
111507
33071.4
111978
298737
275795
94976.9
2.02403e+06
36105.6
1.91851e+06
499557
48363.3
15601.4
498695
323856
162323
18675.6
162116
412042
1.79618e+06
414205
1.99553e+06
2.28795e+06
66567.4
649785
771319
710564
924242
441643
322091
995774
634487
110732
245029
385859
277583
686216
909164
255661
256696
2.20002e+06
783114
908455
848092
978744
1.39586e+06
131554
139616
1.16802e+06
1.4243e+06
481316
267960
308204
160984
321175
467783
148156
248532
357766
145436
101608
1.27562e+06
1.49252e+06
286629
631825
493262
504621
1.57093e+06
710128
308796
240590
606294
506972
127531
361850
1.426e+06
1.81595e+06
480724
336020
845939
1.00463e+06
924249
90531
138792
349995
250284
1.35295e+06
490568
110698
53853
82259.3
469285
330340
818580
971914
894408
143761
1.96852e+06
2.24559e+06
158000
155396
147491
143542
1.96476e+06
387410
288528
832184
2.42908e+06
1.95569e+06
548233
194839
508337
468100
287475
267905
306373
172168
152897
152927
414563
1.91618e+06
116960
1.04569e+06
1.13256e+06
1.80146e+06
1.29747e+06
1.26621e+06
482761
475844
648505
658798
306101
338941
293219
137417
136468
763732
248789
1.77808e+06
1.22568e+06
309613
135207
764077
2.27706e+06
133294
1.19817e+06
996408
945782
1.23765e+06
856474
366765
508730
1.13573e+06
200911
829133
357821
399794
207040
428200
254699
330537
908998
448995
193765
168554
221966
1.1579e+06
950660
210567
200663
190022
217184
141124
612299
470909
127574
446397
144958
256476
413085
2.08194e+06
1.83313e+06
1.24833e+06
359524
257163
804302
743360
682294
325265
325979
155952
1.12797e+06
156173
626797
818473
241344
216171
1.85995e+06
107445
365261
340315
166119
1.95809e+06
104403
139896
544117
642317
196596
186005
206826
150406
144615
1.2467e+06
116840
153452
19065.4
153207
1.24463e+06
1.17888e+06
2.23103e+06
1.34445e+06
1.6883e+06
144940
1.74441e+06
1.18619e+06
17246.9
125180
292516
223208
497854
541449
585260
769048
428989
1.79504e+06
1.04558e+06
1.13681e+06
183709
123992
120469
139457
153592
159496
244280
1.03822e+06
125340
2.24001e+06
550806
221135
1.15556e+06
752750
383353
533534
247890
214475
304917
461548
296893
614522
560232
221192
145699
785883
1.10654e+06
99606.9
107316
193895
115113
119643
1.68996e+06
440544
325008
943566
1.63332e+06
446307
319402
791665
674503
731744
618396
357935
259031
147388
10144.7
80284.6
757345
623850
888592
1.86049e+06
1.57354e+06
1.71533e+06
624034
755544
1.86558e+06
1.71931e+06
887323
1.57729e+06
206788
417037
346813
345777
132818
232282
205594
609671
293361
227873
277852
489197
1.36003e+06
672263
147002
243897
136578
149396
261612
405630
132133
136082
141488
984306
364342
484556
326494
427357
886310
754105
913077
731338
1.23958e+06
374112
213178
303944
787137
594389
280452
382585
546414
147016
307574
185314
178873
635562
638207
225242
801876
241963
261184
1.42059e+06
1.1882e+06
133588
155747
1.88347e+06
109893
188638
118532
238786
295356
966358
886711
808272