/*--------------------------------*- C++ -*----------------------------------*\
| =========                 |                                                 |
| \\      /  F ield         | OpenFOAM: The Open Source CFD Toolbox           |
|  \\    /   O peration     | Version:  2.3.1                                 |
|   \\  /    A nd           | Web:      www.OpenFOAM.org                      |
|    \\/     M anipulation  |                                                 |
\*---------------------------------------------------------------------------*/
FoamFile
{
    version     2.0;
    format      ascii;
    class       volScalarField;
    location    "0.83";
    object      k;
}
// * * * * * * * * * * * * * * * * * * * * * * * * * * * * * * * * * * * * * //

dimensions      [0 2 -2 0 0 0 0];

internalField   nonuniform List<scalar> 
9648
(
2.68495
2.68002
2.67829
2.67352
2.6655
2.65346
2.63756
2.6178
2.59401
2.56611
2.53417
2.49843
2.45938
2.41763
2.37388
2.32892
2.28352
2.23841
2.1942
2.15144
2.11054
2.07181
2.03549
2.0017
1.97049
1.94189
1.91588
1.89238
1.87131
1.8526
1.83613
1.82182
1.80955
1.79924
1.79078
1.78409
1.77909
1.77569
1.77384
1.77346
1.77451
1.77694
1.78071
1.78581
1.79219
1.79986
1.80883
1.81914
1.83079
1.84381
1.85825
1.87416
1.89158
1.9105
1.93092
1.9527
1.97555
1.99895
2.02248
2.04572
2.06835
1.72925
1.71784
1.70675
1.69667
1.69005
1.68895
1.69533
1.71027
1.73354
1.76501
1.80429
1.85065
1.90309
1.96056
2.02197
2.08633
2.15272
2.22034
2.28851
2.35673
2.42454
2.49163
2.55779
2.62286
2.68674
2.74944
2.81099
2.87142
2.93077
2.98912
3.04659
3.10324
3.15915
3.21443
3.26915
3.32335
3.37714
3.43059
3.48372
3.53649
3.58897
3.64127
3.69335
3.74518
3.79685
3.84823
3.89931
3.95022
4.00098
4.05147
4.10152
4.1511
4.20028
4.24866
4.29651
4.34358
4.39004
4.4352
4.47933
4.52246
4.56464
1.44506
1.47918
1.51617
1.55937
1.6116
1.67383
1.74565
1.82676
1.91633
2.0136
2.11716
2.22592
2.33861
2.45394
2.57072
2.68781
2.80429
2.91931
3.03217
3.14236
3.24948
3.35327
3.45355
3.55027
3.64349
3.7333
3.81988
3.90333
3.98387
4.06168
4.13694
4.20989
4.28074
4.3496
4.41664
4.48206
4.54595
4.60847
4.66969
4.7297
4.78861
4.84645
4.90336
4.95937
5.01446
5.06862
5.12181
5.17411
5.22538
5.27563
5.32485
5.37306
5.42046
5.46637
5.5117
5.55546
5.59838
5.63937
5.67966
5.71882
5.75691
1.3856
1.46417
1.54824
1.64034
1.74195
1.85358
1.97498
2.10524
2.24298
2.38679
2.53488
2.68575
2.83778
2.98969
3.14015
3.28804
3.43247
3.57269
3.70816
3.83848
3.96341
4.08275
4.19653
4.30486
4.40797
4.50612
4.59959
4.68869
4.77372
4.85496
4.9328
5.00752
5.07942
5.14879
5.2158
5.28073
5.34375
5.40504
5.46474
5.523
5.57994
5.6357
5.69035
5.74403
5.79672
5.84846
5.89929
5.94922
5.99817
6.04615
6.09328
6.1392
6.18413
6.22789
6.27097
6.31283
6.3535
6.39298
6.43132
6.46857
6.50451
1.43417
1.55161
1.67684
1.81093
1.95459
2.10816
2.271
2.4417
2.61859
2.79965
2.98286
3.16627
3.34831
3.52757
3.70274
3.8726
4.03635
4.19345
4.34344
4.4862
4.62155
4.74944
4.87004
4.98357
5.09051
5.1913
5.28633
5.37605
5.4608
5.54102
5.61716
5.68959
5.75878
5.82499
5.88848
5.94958
6.00854
6.06549
6.12066
6.1742
6.22625
6.27699
6.32658
6.37512
6.42264
6.46919
6.51479
6.55946
6.60327
6.646
6.6878
6.72855
6.76811
6.80652
6.84393
6.88044
6.91574
6.94992
6.98289
7.01452
7.04486
1.53073
1.68339
1.84578
2.01785
2.19938
2.39025
2.58944
2.79529
3.00561
3.21794
3.43005
3.63964
3.84524
4.04528
4.23887
4.42455
4.60149
4.76955
4.92824
5.07779
5.21823
5.34938
5.4718
5.58558
5.69158
5.79045
5.88269
5.96895
6.04946
6.1248
6.1956
6.26215
6.32518
6.38502
6.44182
6.49603
6.54806
6.59793
6.64594
6.69222
6.73683
6.78012
6.82226
6.86343
6.90356
6.94278
6.98122
7.01862
7.05524
7.09091
7.12555
7.15914
7.19164
7.22288
7.25309
7.28225
7.31044
7.33756
7.36333
7.38754
7.41055
1.65552
1.84076
2.0377
2.24479
2.4607
2.68504
2.91634
3.15269
3.39178
3.63022
3.86614
4.09645
4.32011
4.53541
4.74253
4.93897
5.12415
5.29845
5.46102
5.61282
5.75413
5.88427
6.00457
6.11447
6.21556
6.30882
6.39463
6.47424
6.54728
6.61459
6.67711
6.73477
6.78881
6.83964
6.887
6.93164
6.97439
7.01472
7.0533
7.09018
7.12517
7.15883
7.19143
7.22324
7.25385
7.28363
7.31272
7.34094
7.36852
7.39512
7.42078
7.44532
7.46882
7.49096
7.5118
7.53186
7.55109
7.56931
7.58598
7.6009
7.61461
1.79693
2.01221
2.24125
2.48063
2.72772
2.98144
3.24079
3.50373
3.76735
4.02758
4.28301
4.52915
4.766
4.99112
5.20747
5.41049
5.59983
5.77689
5.93914
6.08894
6.22754
6.35268
6.46806
6.57035
6.66272
6.74685
6.82274
6.89291
6.95543
7.01178
7.0636
7.10939
7.15165
7.19084
7.2261
7.25858
7.28946
7.31733
7.34405
7.36931
7.3923
7.4138
7.43443
7.45449
7.47318
7.49136
7.50857
7.52515
7.54116
7.55646
7.57072
7.5839
7.59632
7.60698
7.61634
7.62511
7.63271
7.64037
7.64595
7.64918
7.65177
1.94672
2.18688
2.44529
2.7113
2.98767
3.26576
3.54781
3.83535
4.11744
4.39689
4.66685
4.92729
5.1724
5.4028
5.62294
5.82928
6.01977
6.19641
6.35914
6.50366
6.63474
6.75237
6.85885
6.954
7.03449
7.10527
7.16889
7.22684
7.2757
7.3188
7.35755
7.39048
7.41866
7.44298
7.46291
7.48144
7.496
7.50846
7.52097
7.53116
7.53933
7.54477
7.55183
7.55734
7.56148
7.56667
7.56817
7.57053
7.5708
7.57085
7.5692
7.56715
7.56563
7.5624
7.55803
7.55326
7.54524
7.54161
7.53358
7.5219
7.51137
2.09008
2.11081
2.13068
2.14966
2.16781
2.18528
2.20233
2.21932
2.23602
2.25183
2.26645
2.28052
2.29415
2.30758
2.32109
2.33531
2.35063
2.36734
2.38576
2.40628
2.42851
2.45203
2.47656
2.50174
2.52726
2.55318
2.57961
2.60627
2.63308
2.66012
2.68749
2.71508
2.74291
2.77111
2.79963
2.82845
2.85766
2.88734
2.91744
2.94789
2.97879
3.01023
3.0422
3.07463
3.10766
3.1411
3.17497
3.2094
3.24443
3.27993
3.31594
3.35254
3.38985
3.42761
3.46618
3.50548
3.54581
3.58689
3.62906
3.67246
3.71718
4.60593
4.64515
4.68345
4.72093
4.75734
4.79223
4.82516
4.8568
4.88619
4.9148
4.94167
4.96752
4.99226
5.01596
5.03849
5.05973
5.0798
5.09866
5.11634
5.13283
5.14816
5.16238
5.17535
5.18715
5.19779
5.20723
5.21532
5.22183
5.22685
5.23036
5.23237
5.2329
5.23202
5.22968
5.22594
5.22086
5.2144
5.20667
5.19761
5.18726
5.17568
5.16291
5.14903
5.13398
5.11776
5.10029
5.08146
5.06132
5.03979
5.0169
4.9926
4.96682
4.93971
4.91078
4.88079
4.84911
4.81638
4.78213
4.74744
4.71217
4.67651
5.79334
5.82866
5.86242
5.89522
5.92698
5.95809
5.98725
6.01502
6.04058
6.06483
6.08745
6.10882
6.12878
6.14766
6.1652
6.18137
6.19616
6.20958
6.22159
6.2322
6.24146
6.24936
6.2559
6.26108
6.26489
6.26731
6.26838
6.26802
6.26622
6.2629
6.2581
6.25175
6.24388
6.23453
6.22369
6.21139
6.19761
6.18237
6.16568
6.14756
6.1281
6.10737
6.08545
6.06237
6.03808
6.01253
5.98556
5.95713
5.92716
5.89565
5.86257
5.82765
5.791
5.75245
5.7122
5.66994
5.6259
5.58035
5.53378
5.48627
5.43799
6.53941
6.57299
6.60526
6.63597
6.66543
6.69369
6.72047
6.74542
6.76878
6.79048
6.81059
6.82908
6.846
6.86141
6.87521
6.88754
6.89836
6.90762
6.9153
6.9214
6.92599
6.92912
6.93082
6.93112
6.92994
6.92726
6.92305
6.91736
6.9102
6.90154
6.89133
6.87949
6.86604
6.85099
6.8344
6.81627
6.79654
6.77519
6.7522
6.72765
6.70165
6.6743
6.64579
6.61623
6.58564
6.55399
6.52103
6.48671
6.45097
6.41381
6.37507
6.3346
6.29238
6.24827
6.20222
6.154
6.10383
6.052
5.99903
5.94496
5.89022
7.07387
7.10166
7.12798
7.15269
7.17569
7.19706
7.21684
7.23506
7.25188
7.2673
7.28116
7.29349
7.3043
7.31351
7.32116
7.32736
7.33194
7.33491
7.33618
7.33575
7.33375
7.33031
7.32552
7.31942
7.31192
7.30296
7.29254
7.28072
7.26759
7.25316
7.23736
7.22002
7.2011
7.18064
7.15874
7.13535
7.11035
7.08371
7.05529
7.02518
6.99352
6.96044
6.92623
6.89117
6.85538
6.81891
6.78134
6.74271
6.7029
6.66206
6.6198
6.5759
6.53044
6.48313
6.43387
6.38213
6.3284
6.27278
6.21603
6.1581
6.09956
7.4322
7.45248
7.47117
7.48837
7.50381
7.51751
7.52961
7.53995
7.54871
7.55592
7.56174
7.56615
7.56906
7.57038
7.57012
7.56848
7.56537
7.5606
7.55399
7.54548
7.5353
7.5237
7.51086
7.49692
7.48168
7.465
7.44693
7.42751
7.40707
7.38571
7.36345
7.33982
7.31488
7.28851
7.26102
7.2322
7.20179
7.16979
7.13595
7.10029
7.06294
7.02396
6.98379
6.94295
6.90172
6.86046
6.81831
6.77568
6.73217
6.6884
6.64354
6.59705
6.54943
6.50008
6.44902
6.39505
6.33911
6.28097
6.22214
6.16192
6.10116
7.62706
7.63817
7.64772
7.65565
7.66185
7.66626
7.66888
7.67002
7.66953
7.66721
7.66352
7.65869
7.65243
7.64458
7.63504
7.62438
7.61267
7.59931
7.58395
7.56628
7.54671
7.52579
7.50368
7.48083
7.45691
7.43146
7.40459
7.37616
7.347
7.31746
7.28802
7.2575
7.22632
7.1939
7.16108
7.12729
7.09167
7.05456
7.01569
6.97505
6.93253
6.88787
6.84177
6.79497
6.74801
6.70207
6.65506
6.60858
6.56144
6.51561
6.46933
6.42106
6.3723
6.32192
6.27055
6.2152
6.1584
6.09873
6.0396
5.97854
5.91739
7.65292
7.65309
7.65159
7.64887
7.64443
7.63856
7.63056
7.62209
7.61217
7.59968
7.58584
7.57151
7.55571
7.53846
7.51869
7.49804
7.47768
7.45606
7.43251
7.40557
7.37588
7.34533
7.31345
7.2809
7.24818
7.21387
7.17805
7.13945
7.09974
7.06028
7.02305
6.98488
6.94756
6.90935
6.87245
6.8356
6.79567
6.75347
6.71023
6.66629
6.62003
6.57077
6.51952
6.46708
6.41427
6.36438
6.31207
6.26194
6.21084
6.16415
6.11833
6.06912
6.0203
5.97006
5.9202
5.86416
5.80793
5.74746
5.6901
5.62998
5.57083
7.49796
7.48484
7.46878
7.4533
7.43515
7.4191
7.39907
7.38119
7.36322
7.34282
7.32045
7.29822
7.27395
7.24972
7.21982
7.1872
7.15782
7.1297
7.10221
7.06994
7.02915
6.99072
6.95071
6.9079
6.86619
6.82408
6.78304
6.7361
6.68311
6.6312
6.58529
6.53786
6.49383
6.44971
6.41218
6.37697
6.33585
6.28796
6.24042
6.19583
6.14995
6.09858
6.04315
5.98693
5.92927
5.8772
5.8186
5.76493
5.70844
5.66331
5.6206
5.57088
5.52358
5.47576
5.42993
5.37369
5.31948
5.25835
5.20485
5.14779
5.09385
3.76325
3.81026
3.85851
3.90798
3.95871
4.01082
4.06422
4.11905
4.17503
4.23214
4.29052
4.34983
4.41008
4.47345
4.55243
4.62344
4.69386
4.76508
4.83713
4.91015
4.98416
5.05918
5.13508
5.21181
5.28916
5.36692
5.44495
5.52308
5.6011
5.67869
5.75576
5.83199
5.90698
5.98053
6.05227
6.12166
6.18824
6.25127
6.30652
6.3469
6.37431
6.38941
6.3921
6.38167
6.35706
6.31681
6.25899
6.18122
6.08074
5.95431
5.79808
5.6075
5.37745
5.10158
4.74627
4.21163
3.96549
3.84056
3.79097
3.76564
3.71061
4.64014
4.6034
4.56584
4.52755
4.48853
4.44945
4.41005
4.37109
4.33204
4.29329
4.25551
4.21218
4.16545
4.12132
4.0717
4.02415
3.97641
3.92857
3.8811
3.83426
3.78804
3.74214
3.69647
3.65099
3.60563
3.56041
3.51533
3.47052
3.42599
3.38181
3.33811
3.29501
3.25264
3.21123
3.17104
3.13237
3.09563
3.06142
3.03036
3.004
2.97978
2.95794
2.93886
2.92311
2.91164
2.90538
2.90537
2.91297
2.92966
2.95673
2.99545
3.04698
3.11268
3.19398
3.28306
3.41799
3.59667
3.8716
4.26203
4.76412
5.06521
5.38915
5.33976
5.28953
5.23816
5.18558
5.13231
5.07861
5.02495
4.97091
4.91642
4.85848
4.79241
4.72684
4.66439
4.602
4.54036
4.47792
4.41474
4.35122
4.28776
4.22438
4.1608
4.097
4.03296
3.96857
3.90387
3.83882
3.77345
3.7077
3.6416
3.57511
3.50827
3.44112
3.37371
3.30612
3.23844
3.1708
3.10332
3.03615
2.9695
2.90333
2.83725
2.77183
2.70788
2.64576
2.58604
2.52959
2.47768
2.43197
2.39466
2.36858
2.35736
2.3658
2.39922
2.46103
2.56226
2.708
2.9295
3.27251
3.78878
4.40137
5.83499
5.77965
5.72358
5.66644
5.60777
5.54836
5.48852
5.42887
5.36878
5.30765
5.23967
5.1657
5.094
5.02555
4.95819
4.89163
4.82462
4.75735
4.68993
4.62268
4.55546
4.48781
4.41989
4.35174
4.28324
4.21446
4.14535
4.07592
4.00604
3.93571
3.8649
3.79364
3.72197
3.64996
3.57766
3.50515
3.43252
3.35981
3.28704
3.21423
3.14133
3.06829
2.99444
2.91972
2.8448
2.76977
2.69489
2.6206
2.5476
2.47696
2.41015
2.34937
2.29756
2.25846
2.23593
2.23628
2.26823
2.35
2.51184
2.79787
3.23106
6.04046
5.98165
5.92236
5.8621
5.79983
5.73675
5.67313
5.61006
5.54642
5.48143
5.40821
5.33122
5.25715
5.18639
5.11669
5.04779
4.97866
4.91008
4.84182
4.77409
4.70645
4.63807
4.56948
4.50079
4.43172
4.36245
4.29285
4.22295
4.15251
4.08157
4.01009
3.9382
3.86597
3.79354
3.72095
3.64836
3.57582
3.50342
3.43115
3.35903
3.28707
3.21529
3.14354
3.07128
2.9983
2.92473
2.85065
2.77613
2.70133
2.62659
2.55231
2.47911
2.40792
2.33998
2.27687
2.22167
2.18068
2.16496
2.19175
2.28686
2.48001
6.03944
5.97877
5.91789
5.85633
5.79181
5.72645
5.66018
5.59517
5.52967
5.46321
5.38787
5.31072
5.23666
5.16635
5.09647
5.02737
4.95793
4.89013
4.82313
4.75716
4.69134
4.6242
4.55719
4.49043
4.42317
4.35587
4.28811
4.22011
4.15133
4.082
4.01204
3.94184
3.87142
3.80108
3.7308
3.66079
3.5911
3.52187
3.45307
3.38478
3.31699
3.2498
3.18317
3.11699
3.05077
2.98405
2.91684
2.84922
2.78125
2.71301
2.64461
2.57609
2.50742
2.43857
2.36938
2.30051
2.23449
2.17683
2.13668
2.12789
2.16955
5.85391
5.79274
5.73175
5.67094
5.60516
5.53883
5.47075
5.40544
5.33983
5.27455
5.19902
5.12373
5.05136
4.98397
4.91575
4.84864
4.78042
4.7154
4.65142
4.589
4.52672
4.46199
4.39832
4.33578
4.27229
4.20897
4.14474
4.08052
4.01493
3.94883
3.88187
3.81519
3.74848
3.68238
3.61646
3.55125
3.48654
3.42274
3.35967
3.29762
3.23643
3.17636
3.11732
3.05928
3.00203
2.94516
2.88793
2.83037
2.77264
2.71489
2.65719
2.59951
2.54165
2.48317
2.42339
2.3617
2.29826
2.23485
2.17537
2.12646
2.09828
5.50627
5.44559
5.38603
5.32857
5.26279
5.19709
5.12797
5.06437
5.00066
4.93942
4.86502
4.79298
4.72329
4.6611
4.59579
4.53274
4.46682
4.40644
4.34697
4.28918
4.23157
4.16958
4.11057
4.05483
3.99666
3.93853
3.87861
3.81959
3.7578
3.69579
3.63248
3.57088
3.50928
3.44934
3.38935
3.33068
3.27233
3.21563
3.16
3.10622
3.05352
3.0026
2.95323
2.90508
2.85808
2.81231
2.7665
2.72037
2.67437
2.62878
2.58388
2.53964
2.49587
2.45202
2.40736
2.36091
2.31194
2.26028
2.20692
2.15424
2.10676
5.02917
4.96866
4.91262
4.86139
4.79718
4.73357
4.66386
4.6047
4.54547
4.49095
4.41883
4.35062
4.2836
4.22883
4.16683
4.11003
4.04688
3.99312
3.93922
3.88571
3.83298
3.77302
3.71988
3.67513
3.62282
3.5689
3.5128
3.46027
3.40134
3.34326
3.28282
3.22838
3.17264
3.12076
3.06716
3.01611
2.96364
2.91502
2.86799
2.82422
2.78136
2.74086
2.70237
2.66511
2.62803
2.59182
2.55617
2.52003
2.48563
2.45196
2.42132
2.39198
2.36448
2.33739
2.31045
2.28227
2.25221
2.21935
2.18364
2.14471
2.10418
3.61691
3.5125
3.399
3.27819
3.1556
3.03454
2.91784
2.80924
2.71183
2.62761
2.55735
2.5009
2.45721
2.42469
2.40147
2.38568
2.37558
2.3699
2.36758
2.36776
2.36986
2.37348
2.37831
2.38424
2.39119
2.39904
2.40782
2.41744
2.42794
2.43925
2.45132
2.4641
2.47748
2.49131
2.50545
2.51971
2.53386
2.54766
2.5609
2.57335
2.58475
2.5949
2.60369
2.61104
2.61696
2.6216
2.62516
2.62792
2.63022
2.63249
2.63505
2.63813
2.6419
2.64647
2.65167
2.65733
2.66313
2.66893
2.67432
2.67886
2.68226
5.05493
4.98064
4.85581
4.68144
4.48718
4.27478
4.04232
3.79788
3.55
3.30692
3.07505
2.86086
2.66798
2.49752
2.35008
2.22678
2.12655
2.04609
1.98225
1.9323
1.89371
1.86421
1.84206
1.82566
1.81437
1.80701
1.80332
1.80287
1.80537
1.8106
1.81836
1.82842
1.84052
1.85435
1.86957
1.88582
1.90264
1.91955
1.93599
1.95134
1.96485
1.9757
1.98304
1.98601
1.98386
1.97605
1.96231
1.94293
1.91879
1.8914
1.86267
1.83479
1.80985
1.78938
1.77394
1.76355
1.7571
1.75313
1.74945
1.74434
1.73721
4.89904
5.25079
5.44096
5.44068
5.30381
5.10336
4.83991
4.53967
4.21887
3.88971
3.56462
3.2549
2.96811
2.7092
2.48136
2.28591
2.12088
1.98168
1.86602
1.77269
1.69912
1.6423
1.59915
1.567
1.54319
1.52637
1.51497
1.50825
1.50543
1.50595
1.50936
1.51525
1.52313
1.5325
1.54285
1.55366
1.56442
1.5746
1.58362
1.59088
1.59574
1.59765
1.59601
1.59023
1.57985
1.56448
1.54388
1.51813
1.4877
1.45364
1.41771
1.38254
1.35125
1.32691
1.31185
1.30761
1.31404
1.32983
1.35267
1.38041
1.41154
3.77012
4.36108
4.92306
5.34746
5.55903
5.59279
5.46115
5.20547
4.88505
4.51939
4.1376
3.76245
3.4064
3.08055
2.78957
2.53341
2.30919
2.11556
1.95122
1.81497
1.70484
1.61839
1.5523
1.5028
1.46639
1.44022
1.4223
1.41106
1.40525
1.40389
1.40625
1.41173
1.41963
1.42921
1.43977
1.4506
1.46101
1.4703
1.47774
1.48258
1.48408
1.48158
1.47444
1.46215
1.4443
1.42072
1.39145
1.3568
1.31732
1.27402
1.22852
1.18341
1.14227
1.10956
1.08987
1.0872
1.10284
1.13585
1.1836
1.24301
1.31106
2.79081
3.22816
3.77571
4.37058
4.9131
5.32502
5.55612
5.58222
5.4419
5.16161
4.79556
4.39991
3.99427
3.60583
3.24836
2.92482
2.63694
2.38302
2.16422
1.98001
1.82854
1.70793
1.61468
1.54419
1.49169
1.45332
1.42631
1.40851
1.39814
1.3937
1.39422
1.39894
1.407
1.41745
1.4294
1.44199
1.4544
1.46576
1.47522
1.48188
1.48484
1.48331
1.47653
1.46387
1.44478
1.41905
1.38666
1.34794
1.30334
1.25381
1.2008
1.14672
1.0952
1.05127
1.02167
1.01313
1.02951
1.07208
1.13858
1.22433
1.32407
2.28376
2.49423
2.8197
3.26197
3.79107
4.34943
4.85975
5.24015
5.44442
5.46109
5.3056
5.02308
4.64541
4.23463
3.83064
3.44299
3.08971
2.77098
2.48559
2.23983
2.03583
1.87238
1.74544
1.6488
1.57594
1.52161
1.48222
1.45509
1.43785
1.42836
1.42532
1.42783
1.43487
1.44529
1.45803
1.47208
1.48645
1.50019
1.51229
1.52175
1.52752
1.52875
1.52452
1.51414
1.49684
1.47236
1.44055
1.40168
1.35604
1.30446
1.24819
1.18951
1.13182
1.08007
1.04149
1.02454
1.03608
1.0806
1.15785
1.26293
1.38909
2.10491
2.16445
2.29772
2.52432
2.85495
3.28424
3.78243
4.29375
4.74965
5.08511
5.25579
5.25329
5.09657
4.81929
4.46632
4.06163
3.66419
3.28493
2.92359
2.60213
2.32914
2.1086
1.93703
1.80538
1.70503
1.62872
1.57198
1.53152
1.50431
1.48713
1.47825
1.47652
1.48081
1.4897
1.50194
1.51633
1.53174
1.54707
1.56121
1.57303
1.58137
1.58535
1.58396
1.57643
1.56178
1.53974
1.51001
1.4729
1.42849
1.37761
1.32135
1.26191
1.20249
1.14765
1.10425
1.08146
1.08819
1.13203
1.21583
1.33609
1.48521
2.07166
2.0594
2.08399
2.16241
2.31229
2.5478
2.87405
3.27942
3.73375
4.18688
4.57899
4.85886
4.99883
4.98895
4.84494
4.59017
4.26186
3.88655
3.4708
3.07454
2.7175
2.42373
2.19503
2.01821
1.88155
1.7754
1.69429
1.63471
1.59339
1.56518
1.54771
1.53932
1.53881
1.54441
1.55459
1.56797
1.5832
1.59905
1.61425
1.62754
1.63771
1.6439
1.64497
1.64023
1.62838
1.60917
1.58219
1.54776
1.5058
1.45713
1.40279
1.34489
1.28641
1.23166
1.18702
1.16169
1.16574
1.20922
1.2981
1.43116
1.60052
2.06488
2.03155
2.01221
2.01716
2.05968
2.15448
2.31553
2.55176
2.86208
3.23344
3.63057
4.01686
4.34924
4.59303
4.71894
4.71848
4.59441
4.35331
4.03172
3.62936
3.19454
2.82667
2.53577
2.30531
2.11964
1.97177
1.85597
1.77012
1.70916
1.66514
1.63555
1.61726
1.60923
1.60942
1.61572
1.6265
1.64022
1.65537
1.67053
1.6841
1.6953
1.70281
1.70587
1.7035
1.69445
1.6781
1.65448
1.62301
1.58436
1.53866
1.48763
1.43278
1.37713
1.32499
1.2819
1.2567
1.26028
1.30471
1.39775
1.54153
1.72685
0.285916
6.40575
6.09832
0.223643
0.346463
0.126999
0.00316232
2.44043
0.00337831
0.0234019
3.30806
1.10814
0.00316404
6.00162
0.111272
5.54779
0.00326091
2.55659
3.60293
0.0031583
0.22542
5.85513
6.20901
0.00329977
0.00333252
0.10701
0.00316049
0.502958
0.00324725
0.00346011
0.699474
0.00324764
0.0163377
2.59098
0.804297
3.37506
2.51807
1.64232
0.00316532
2.58577
1.88149
1.97356
0.00320895
4.8108
3.18142
0.283104
0.00360937
0.0151527
0.137618
1.13356
6.43648
7.63264
0.003108
0.00405314
0.0374908
0.00905557
0.0034508
0.672787
2.39828
7.29953
2.45939
0.00369557
0.152886
0.0318569
6.37801
0.434454
1.97723
1.73316
0.00432409
0.00321285
1.22356
2.6774
1.7066
0.0143919
0.0395522
4.0655
6.68861
3.42867
0.0031087
0.960891
0.00710456
2.61026
0.0108029
4.99738
0.00321771
1.11792
0.00336157
2.21773
0.0149601
0.00491269
0.120317
0.00310427
0.00378264
7.468
5.43595
0.0035945
0.44291
0.297139
0.00604804
6.62161
0.20279
2.46092
0.772164
0.00310015
0.00316499
0.00309745
0.313355
0.125236
0.00324147
6.11501
6.81687
0.00938596
4.53464
1.51601
2.55461
2.76338
1.79074
0.00390876
0.0858374
0.00418045
0.00435675
3.42109
0.00725284
7.38255
7.54052
0.989217
0.00321406
1.07319
1.07287
0.00320974
0.0342154
0.0334045
1.69366
0.00565918
3.09519
0.00321943
0.00316032
7.55543
7.65915
0.00322903
0.162638
5.61282
0.106283
0.304921
1.56267
4.81623
0.0386587
1.65181
0.0120989
6.90607
1.24621
0.00937947
2.93491
4.93578
6.27207
0.00330612
0.00326704
0.219108
0.00311627
1.94529
0.031143
0.00511204
0.00319873
0.00321875
0.00323667
2.97037
1.76208
1.5657
0.00332057
6.64228
4.66008
3.17663
4.89584
0.0140009
3.75828
1.74703
1.90093
0.00323997
0.00568212
2.87577
3.0632
2.01417
3.70453
0.00321464
0.00352226
4.85813
0.0360314
0.574654
0.00323734
0.00360573
0.105593
0.00339287
7.58105
0.714037
0.00310493
0.259175
1.78296
5.22926
0.00449374
1.9167
0.0032171
0.00323255
5.04941
2.50326
7.1043
0.00453782
0.00339398
0.00769169
2.80208
2.18534
1.13641
4.8627
1.56327
6.9476
0.188903
4.49519
4.16295
1.89741
1.40981
2.32392
0.00487846
0.0370632
0.00322438
0.00320199
1.82783
0.0181658
0.0201577
0.00570068
0.0131405
2.89301
4.69712
0.0189228
5.77731
1.12259
0.395387
0.00318309
0.159089
2.91763
1.08095
0.00414272
1.21209
1.14177
0.178041
0.270157
7.29226
0.803328
0.477535
5.28149
0.00384052
0.0031615
0.0040329
0.0105129
1.75692
0.00336143
0.00648184
0.00316483
0.397456
4.13316
3.98695
2.74081
1.29186
1.4887
7.52821
0.00434516
2.06985
4.5211
0.00320933
2.0763
0.00321715
3.98527
0.395513
1.64351
0.0053358
0.00321949
1.97214
0.496067
0.00323892
0.00323584
0.00325027
0.0032457
0.363292
1.60573
3.13345
0.0148684
0.00324058
0.00316423
0.00309853
4.91709
0.221228
0.00446685
1.69205
0.0880968
0.0412898
0.00309203
0.268422
0.00323971
0.0507509
1.44536
4.60212
0.307202
0.00391367
0.00595897
3.41229
0.140651
1.93114
7.50174
0.00350181
0.00319722
0.00318706
5.95774
0.00331062
4.87051
0.00322109
1.87938
1.22472
0.0271635
2.98311
3.89869
0.00467571
2.72312
2.71226
1.62864
4.73194
1.0652
7.65416
2.45107
4.00827
3.58069
4.62973
1.69721
0.159847
7.5983
7.31944
3.00185
2.13368
0.00395418
6.81701
2.81143
6.95368
0.0275758
0.00358553
0.00321394
0.00342299
0.175585
0.426385
0.704251
0.0926923
0.0031748
6.03465
0.0032147
1.46825
2.01269
6.46272
2.60302
1.93577
0.00595598
0.00425514
0.0892879
2.90768
0.0103124
0.738439
5.13769
2.0544
4.33964
6.08456
3.30198
0.00346226
7.34865
5.40994
1.72781
0.00323417
6.26028
5.66391
0.00333215
1.97703
0.00323788
6.62646
5.68952
1.87291
4.35207
2.59187
5.69834
0.00329226
5.71612
0.00386216
3.63747
4.19189
1.9139
7.32941
0.740798
0.214674
0.562015
0.00423935
4.27363
0.149808
0.00815019
0.00508431
4.40227
0.0038298
4.56274
0.00319237
0.0032351
0.00600652
1.8483
0.105287
1.91623
0.00570232
4.40049
0.16446
6.54102
4.32116
2.7483
6.08787
0.00338514
7.34989
3.04666
0.00321096
4.118
2.14486
0.00310284
0.0031681
3.34685
0.00649144
1.89836
0.0885634
2.46139
0.0268434
0.629411
2.73114
4.94862
2.51557
3.95451
3.75161
0.00395261
0.0220119
1.69408
1.61749
7.52764
6.32585
5.22613
0.0655598
5.13522
5.10646
0.512047
1.70958
2.90773
2.15758
0.00347778
4.32716
7.67075
0.00416172
4.42243
1.96201
2.92902
0.0242056
0.0678236
6.13348
0.00596274
7.51877
0.00461677
0.254017
0.00320392
1.03053
2.2908
0.231828
0.00479662
0.00370342
2.80581
1.60972
0.0825885
0.407212
5.78486
4.09045
0.00450245
1.503
1.65279
3.31344
1.50569
4.18043
1.95945
5.53322
3.40302
0.5014
0.993048
7.44991
1.91822
7.57962
6.15197
0.0330224
3.40312
2.91363
0.00337872
1.78061
1.61634
1.35335
0.0174145
4.88569
1.44085
0.727644
1.92244
0.00545647
0.00321489
0.0420281
2.28844
4.48071
2.57329
0.00322108
0.0031895
0.00321517
1.71862
0.0278202
0.00321523
0.125177
4.63273
4.88955
0.0105215
0.0107522
0.00315559
0.00320517
0.00598308
1.79356
1.72916
1.58972
0.464659
7.39785
5.7095
0.00526488
3.29033
1.84326
1.9434
4.18876
7.27419
0.0034626
0.0104647
0.00323785
3.84704
0.249072
0.00316914
1.4163
0.16431
7.42312
0.00323853
7.54624
1.2033
0.0472482
6.56595
0.0032316
0.00319489
0.00404608
7.60309
3.41489
5.34156
4.88562
1.05538
1.76829
0.00312673
0.00602499
0.0895768
0.0133757
0.0251902
1.9637
2.14532
0.00322438
1.26939
1.82623
6.18276
7.59314
0.00822986
7.56408
0.00591119
0.0303738
3.64337
0.00320124
5.7636
0.00324073
0.00336656
0.0223515
2.13546
0.635224
2.56819
1.88212
0.00365915
1.77205
4.59727
0.0520218
0.222055
0.859057
0.00331464
0.00326696
0.00693717
5.56784
0.526883
0.00335819
7.18256
5.88734
6.70377
0.0318104
2.01869
0.0042137
2.52031
0.160453
0.0917182
2.62498
1.67431
1.8964
6.18784
0.00327921
0.00313296
0.0104596
4.11379
4.52011
1.00502
0.0138706
0.00333432
0.00323875
0.00881495
0.0269257
0.00660664
2.15985
1.73671
0.0115935
1.56447
6.01913
0.00327108
2.38359
0.00321753
0.538085
0.00324484
0.0222268
2.35162
0.020139
0.00320605
0.788277
7.68004
6.97842
0.00318988
0.00326464
0.401859
0.028174
0.00321634
4.26923
0.00370029
1.6774
7.67858
2.48838
1.67382
2.45692
3.65362
7.53739
0.00322896
0.00744781
0.0149407
4.18251
1.41473
6.35157
0.661591
0.357994
4.28664
3.66192
4.96276
0.731344
2.65755
0.00322234
0.370225
1.72495
2.64472
3.90273
1.87728
0.219068
2.64015
0.1039
0.00935498
1.79176
0.00323922
5.77808
0.00366364
0.377971
7.40835
2.70747
0.587909
0.0074189
0.780656
0.0032987
0.00319164
0.10713
0.0225361
1.87429
0.0152958
1.74927
0.00322128
0.0280237
0.00316633
4.64007
0.00508553
4.10215
2.52212
0.0219134
1.91788
7.37246
0.00325788
1.70236
4.40364
0.00335911
7.3864
0.0624445
0.00348362
0.00339534
7.1041
0.00317846
0.00428952
0.0874562
0.102211
6.96852
7.23852
0.00322105
0.00327022
1.1034
2.42494
0.0145986
0.262106
2.1109
0.00321763
0.00383302
0.00372511
6.12436
7.30053
0.505184
7.02125
0.0261247
1.60051
0.00332468
0.0147939
0.0249204
0.0364446
0.00322979
6.73345
0.00320087
0.0250854
0.00332192
0.24062
0.0224363
0.0147458
0.444537
0.706243
2.28374
0.400877
1.11581
1.83033
5.06399
0.00343866
4.97091
7.55389
1.17185
4.16823
0.00327878
4.29089
3.85874
0.00321568
7.26084
2.30027
0.00810571
0.0106647
6.02963
5.87918
0.0576126
7.49216
7.18818
0.813293
7.16048
7.10587
5.13432
1.91908
1.60608
1.01676
7.15818
7.34223
0.0218891
7.24085
2.52683
4.32055
0.00343294
0.349129
0.379691
6.89269
5.8548
0.0202584
4.25264
6.54196
0.464824
0.0337982
0.382096
1.82175
0.00534947
1.85768
6.79082
0.0339208
6.85272
1.37705
4.55783
6.38684
0.0032221
0.00566204
1.10296
0.72899
0.0183303
0.00321828
0.190162
0.255043
0.0045119
0.00323647
4.17747
1.04504
3.09454
1.04871
0.00862284
0.00417171
0.0900166
3.36365
0.00345949
1.94928
1.68879
0.482953
2.29429
0.00397134
0.116705
0.00320207
0.351335
4.49007
0.00434785
0.118865
2.10441
5.66332
0.225959
4.1595
0.602011
0.16114
0.00392725
2.46721
7.56739
0.00321138
0.00328275
5.71442
0.0245605
0.00323562
3.88888
0.247911
1.92474
2.00997
1.4607
0.147037
1.79995
3.45173
5.66647
4.33286
0.00327525
5.51993
0.00389114
2.60271
0.00340112
0.00452387
2.10698
0.00657003
3.82806
0.0207619
0.0398694
1.84839
0.726589
0.0622137
0.00367334
6.20945
0.00364278
0.00315339
7.63956
5.87642
2.95979
1.92792
0.00343405
0.00307298
1.94976
5.69344
0.00319871
6.47147
1.68636
0.00324229
6.13719
0.0031174
0.348746
0.944687
1.40518
0.36929
1.57232
1.94643
0.00311339
7.20181
7.26315
0.00321529
0.0169238
1.93131
0.00313183
7.04566
5.56406
4.36871
0.00321753
0.00317073
3.47525
0.0414567
0.00350215
1.88345
1.70246
4.08629
0.00315392
0.00338007
0.0243764
0.0194931
0.00321694
0.00642512
5.36221
2.8742
0.00322226
1.37885
0.00321466
0.696686
0.00421718
0.00358548
2.37724
0.0032671
0.119819
0.00317616
2.93907
0.179755
1.75241
6.39166
4.33846
3.73818
0.857211
1.22373
0.00323548
0.962587
7.30248
4.08177
0.107426
0.00346631
5.32346
0.00321461
0.0314321
0.00315615
7.02041
0.763421
0.361335
6.3162
2.24187
0.475338
4.31887
0.717414
6.88576
4.72011
0.00330982
0.00327498
0.00818841
0.00323299
0.0227675
4.29628
0.0037811
6.95822
0.00600365
0.0735126
0.607328
4.82538
0.00488422
2.812
0.0170592
3.01529
2.54863
6.80058
0.003399
0.00384647
0.250467
3.81402
1.67043
3.85083
0.436991
1.05501
1.63112
0.050975
0.988606
0.265927
1.68938
0.00328342
4.29535
0.421428
3.27309
0.00336465
3.18004
0.972021
0.00459895
1.62058
1.8676
0.0654116
0.00314947
0.00321786
4.89761
2.93129
1.39088
0.00320704
0.0175813
1.98528
6.42962
0.468384
0.0126061
0.00322465
5.44625
5.28
2.08219
2.77434
0.00321305
3.62778
7.29508
0.00321102
0.00321769
1.25566
0.00410418
0.00987833
0.0321977
1.9483
0.0041118
2.2133
7.56649
0.00320517
0.00346364
0.00316818
0.00330574
3.90417
4.61765
7.60377
0.0290663
2.44749
2.19419
0.0877303
3.01887
0.00348181
1.69247
0.223657
2.07688
0.713159
1.63385
3.20943
0.0291484
0.00323892
5.98262
4.47376
4.55887
0.94271
1.77806
0.178511
1.60725
0.00928963
0.00483296
3.47986
5.5761
0.0219814
0.132969
0.00324499
0.0784292
1.99568
0.0278336
1.04527
0.693495
3.79894
2.15582
0.442365
6.69587
5.62517
2.94486
1.73127
4.21219
3.49345
0.583963
2.78568
0.00611275
2.92401
3.08497
0.00320394
0.00313666
0.120076
0.00322646
0.00333084
3.00841
4.32646
0.00321993
3.22364
0.00321458
0.00319226
0.00321556
0.00326301
0.00594778
1.935
2.65476
7.11197
0.00316002
0.00390663
1.01016
0.00355391
0.0331205
0.00324573
0.00361113
4.44845
0.00390922
0.0109434
2.78346
0.0104905
0.00321961
3.95653
0.0032141
0.00326636
0.268332
0.00360486
0.945672
0.00458435
0.0300076
0.00320421
0.00325393
7.42914
7.48519
2.71867
0.0268714
3.04376
1.64643
0.00474141
1.7688
4.12254
7.00424
4.55346
0.00312681
1.89846
2.61406
0.147359
1.74721
4.48207
0.17426
2.05272
0.214307
1.72517
0.03795
1.05182
0.00323487
6.62663
0.00329171
1.80148
2.60227
0.00321511
0.315612
0.00730631
0.0192113
0.00317646
0.78191
0.00366257
0.00322155
2.52158
0.00961687
0.110869
6.9594
1.90736
0.00346025
0.00388171
2.52302
7.14446
0.00309388
0.00324628
0.0717822
1.36738
5.72919
0.00659584
1.7378
0.00321783
0.00344267
0.00314822
0.0348751
0.97496
0.0101541
6.41692
1.80992
7.14521
6.03106
0.00351847
7.16523
3.89103
0.00317936
0.00322625
0.00321814
0.00439607
0.00320249
3.89945
0.00320798
0.00323915
6.58423
0.334696
0.00775326
0.0215048
2.06111
0.95776
0.00823313
0.00345895
6.34589
0.00324545
0.818694
0.00326222
0.00352305
5.92067
5.70228
0.00869384
0.00351326
0.330069
0.0032064
6.62935
0.00325531
5.50376
0.0248792
0.723307
0.0329311
0.363839
0.372643
1.51316
0.00324273
0.00356545
0.0115693
3.20681
0.118994
7.42883
0.00321927
0.00459501
0.00555591
7.12581
2.89099
3.06596
0.00694416
0.0090105
0.214888
0.00322345
1.25515
2.5942
0.0169894
5.85152
6.305
2.0733
0.00534067
0.397879
2.81892
6.75302
1.80763
0.0188512
3.18683
0.0606043
5.17885
0.0918122
0.535996
2.58378
0.00324365
1.76845
0.00454969
0.0118674
0.00806239
0.0502006
0.00370104
1.33246
0.00322635
3.02982
0.0959377
0.00361272
0.248861
0.00323205
0.285706
0.118161
2.30869
0.463228
4.66547
0.247755
0.00321693
0.0031902
0.724267
0.0916337
2.96436
7.1564
0.00322401
3.84936
2.82158
0.0232378
2.02537
0.622273
2.34992
2.17813
0.0339321
0.00588354
7.01331
1.51945
6.02149
0.00321074
1.6508
0.00321532