/*--------------------------------*- C++ -*----------------------------------*\
| =========                 |                                                 |
| \\      /  F ield         | OpenFOAM: The Open Source CFD Toolbox           |
|  \\    /   O peration     | Version:  2.3.1                                 |
|   \\  /    A nd           | Web:      www.OpenFOAM.org                      |
|    \\/     M anipulation  |                                                 |
\*---------------------------------------------------------------------------*/
FoamFile
{
    version     2.0;
    format      ascii;
    class       volVectorField;
    location    "0.83";
    object      U;
}
// * * * * * * * * * * * * * * * * * * * * * * * * * * * * * * * * * * * * * //

dimensions      [0 1 -1 0 0 0 0];

internalField   nonuniform List<vector> 
9648
(
(0.156945 -4.85218 -2.93065e-22)
(0.283367 -4.81332 -1.61954e-23)
(0.40818 -4.78317 0)
(0.530996 -4.75462 0)
(0.654237 -4.73124 8.63005e-21)
(0.778538 -4.71395 1.34144e-20)
(0.906391 -4.7062 -2.59745e-20)
(1.04018 -4.71056 -1.22922e-20)
(1.18152 -4.72825 1.22624e-20)
(1.33064 -4.76128 3.79869e-20)
(1.48962 -4.81141 -3.78292e-20)
(1.66034 -4.87972 -5.51387e-20)
(1.8448 -4.96679 2.93639e-19)
(2.04503 -5.07254 7.63388e-20)
(2.26274 -5.19609 -7.16817e-19)
(2.49917 -5.33614 0)
(2.75544 -5.4909 0)
(3.0324 -5.65827 1.31067e-19)
(3.3307 -5.83558 4.22623e-19)
(3.65041 -6.02002 -1.21645e-18)
(3.99152 -6.20893 -2.14037e-20)
(4.35389 -6.39921 3.35267e-19)
(4.73674 -6.58797 3.96609e-19)
(5.13936 -6.7724 -1.80284e-18)
(5.56081 -6.94983 0)
(6.00006 -7.11763 1.07953e-18)
(6.45578 -7.27333 -1.1318e-18)
(6.92658 -7.41486 0)
(7.41104 -7.54006 0)
(7.9075 -7.64727 -6.869e-19)
(8.41448 -7.73483 -1.51923e-18)
(8.93016 -7.80129 2.38531e-18)
(9.45293 -7.84555 0)
(9.98103 -7.86639 0)
(10.5126 -7.86317 1.82633e-18)
(11.0461 -7.83503 -1.96512e-18)
(11.5795 -7.78158 0)
(12.1113 -7.70254 4.21751e-18)
(12.6398 -7.59754 1.13726e-18)
(13.1631 -7.46647 -3.36676e-18)
(13.6794 -7.30936 6.34816e-20)
(14.1872 -7.12673 2.39453e-18)
(14.685 -6.91845 -3.18032e-18)
(15.1708 -6.68507 6.39707e-19)
(15.6436 -6.42738 0)
(16.1019 -6.14552 0)
(16.5442 -5.84019 4.8228e-18)
(16.9693 -5.51218 7.05787e-19)
(17.3765 -5.16233 -2.18058e-18)
(17.7651 -4.79061 -7.33957e-19)
(18.1327 -4.39809 -7.63122e-19)
(18.4781 -3.98696 7.58419e-19)
(18.8007 -3.55887 3.91664e-19)
(19.0998 -3.11458 -3.89562e-19)
(19.3743 -2.65582 1.98799e-18)
(19.6237 -2.18364 -1.95735e-18)
(19.8471 -1.69951 -2.17195e-20)
(20.0441 -1.20463 0)
(20.2143 -0.700465 -3.97431e-19)
(20.3572 -0.188667 -5.13846e-20)
(20.4728 0.329562 -4.87165e-20)
(-0.0712354 -2.55506 2.96105e-22)
(0.00255532 -2.56353 0)
(0.077371 -2.58027 0)
(0.153533 -2.60867 3.36681e-21)
(0.233981 -2.65647 -4.50072e-21)
(0.323636 -2.72694 -3.20379e-20)
(0.424183 -2.81856 0)
(0.537385 -2.92973 0)
(0.665212 -3.06096 -4.16696e-20)
(0.808123 -3.21257 0)
(0.967343 -3.38343 -1.02824e-19)
(1.14365 -3.57195 8.15917e-20)
(1.33793 -3.7768 -4.42464e-20)
(1.55114 -3.99623 0)
(1.78399 -4.22824 2.79058e-19)
(2.03681 -4.47069 1.65672e-19)
(2.30989 -4.72129 -1.62993e-19)
(2.60337 -4.97776 2.12437e-19)
(2.91741 -5.23756 -6.474e-19)
(3.25178 -5.4982 5.16092e-19)
(3.60613 -5.75732 -5.71763e-19)
(3.9802 -6.01238 -3.08243e-19)
(4.37316 -6.26102 -3.1608e-19)
(4.78425 -6.50094 1.08705e-18)
(5.21254 -6.72992 3.7634e-19)
(5.65711 -6.94582 4.47409e-19)
(6.1168 -7.14664 -3.96655e-19)
(6.59033 -7.33064 0)
(7.07647 -7.49604 0)
(7.57369 -7.64151 0)
(8.08065 -7.76559 0)
(8.59572 -7.8671 0)
(9.11738 -7.94506 0)
(9.64412 -7.99849 0)
(10.1741 -8.02682 -8.19449e-19)
(10.706 -8.02929 7.443e-19)
(11.2379 -8.00564 8.206e-19)
(11.7683 -7.95558 -4.16867e-18)
(12.2956 -7.8788 -8.84462e-19)
(12.8181 -7.77525 2.72001e-18)
(13.3341 -7.64507 1.90826e-18)
(13.8421 -7.4887 -1.96907e-18)
(14.3404 -7.30604 9.4049e-19)
(14.8275 -7.09777 9.9212e-19)
(15.3019 -6.86457 -1.05418e-18)
(15.7623 -6.60667 1.04485e-18)
(16.2072 -6.32492 -2.23912e-18)
(16.6352 -6.02016 0)
(17.0451 -5.69324 -5.71735e-19)
(17.4362 -5.34431 1.14882e-18)
(17.8078 -4.97432 -5.7724e-19)
(18.1584 -4.58501 0)
(18.487 -4.17777 1.186e-18)
(18.7928 -3.7534 0)
(19.0748 -3.31337 0)
(19.3323 -2.85884 2.80964e-18)
(19.5645 -2.39113 -1.26607e-18)
(19.7708 -1.91187 -3.07948e-19)
(19.9509 -1.42192 3.24978e-19)
(20.1041 -0.923004 0)
(20.2301 -0.416391 8.16902e-20)
(0.0499579 -1.50536 -4.51159e-22)
(0.109844 -1.55564 0)
(0.175498 -1.62148 2.87417e-22)
(0.247543 -1.70755 -3.185e-22)
(0.327241 -1.81274 0)
(0.418479 -1.9359 2.64658e-20)
(0.522501 -2.07918 1.88359e-20)
(0.640687 -2.24167 0)
(0.774519 -2.42303 2.29129e-21)
(0.925752 -2.62187 4.32748e-20)
(1.09532 -2.83708 8.77374e-20)
(1.28386 -3.06671 -3.04986e-20)
(1.49188 -3.30891 0)
(1.71973 -3.56157 0)
(1.96766 -3.82253 2.11979e-19)
(2.23561 -4.08964 -1.35433e-19)
(2.52352 -4.36064 -1.45348e-19)
(2.83121 -4.63332 0)
(3.15843 -4.9054 5.61261e-19)
(3.50482 -5.17469 -5.83012e-19)
(3.8699 -5.43909 -4.36182e-19)
(4.25313 -5.69649 -4.8057e-19)
(4.65371 -5.94486 0)
(5.07077 -6.18223 -8.61804e-19)
(5.50337 -6.40668 -3.0309e-19)
(5.95051 -6.61637 3.60236e-19)
(6.41109 -6.8096 3.97741e-19)
(6.88393 -6.98486 0)
(7.36776 -7.14071 0)
(7.86119 -7.27594 0)
(8.36282 -7.38935 0)
(8.87116 -7.47996 0)
(9.38478 -7.54687 0)
(9.90215 -7.58937 0)
(10.4217 -7.60691 -1.79911e-18)
(10.9418 -7.59899 5.97666e-19)
(11.461 -7.56534 -6.59025e-19)
(11.9778 -7.50576 3.31623e-18)
(12.4905 -7.42009 0)
(12.9976 -7.3084 1.41023e-18)
(13.4975 -7.17092 1.45819e-18)
(13.9886 -7.00793 7.22348e-19)
(14.4696 -6.81959 -8.27049e-19)
(14.9388 -6.60647 -1.59296e-18)
(15.3951 -6.36913 2.48133e-18)
(15.837 -6.10808 -8.39281e-19)
(16.2633 -5.82412 -1.71144e-18)
(16.6727 -5.51807 0)
(17.064 -5.19096 0)
(17.4362 -4.8438 -4.66804e-19)
(17.7883 -4.47762 -4.56309e-19)
(18.1194 -4.09335 -9.33187e-19)
(18.4289 -3.69209 -9.7654e-19)
(18.7156 -3.27528 0)
(18.979 -2.8437 -9.65441e-19)
(19.2181 -2.3991 -1.00584e-18)
(19.4327 -1.94221 0)
(19.6219 -1.47522 1.62905e-20)
(19.7851 -0.998441 0)
(19.9221 -0.513624 0)
(20.033 -0.0218023 -6.22395e-20)
(0.0247769 -1.00008 9.0339e-22)
(0.0862849 -1.0881 -1.42568e-21)
(0.159125 -1.19256 1.35939e-21)
(0.242815 -1.3137 -1.34364e-21)
(0.338415 -1.45167 0)
(0.446291 -1.60662 -1.09515e-20)
(0.56793 -1.77897 -1.62731e-20)
(0.704507 -1.96836 0)
(0.857276 -2.17403 3.16853e-21)
(1.02703 -2.39487 -3.70301e-20)
(1.21457 -2.62947 8.37117e-20)
(1.42019 -2.87611 1.0215e-19)
(1.64422 -3.13276 0)
(1.88686 -3.39738 -8.16641e-20)
(2.14833 -3.66791 -1.73506e-19)
(2.42838 -3.94231 -9.25481e-20)
(2.72689 -4.21845 3.57841e-19)
(3.04361 -4.49427 -2.58837e-19)
(3.37817 -4.76771 2.90528e-19)
(3.73025 -5.03672 4.95352e-19)
(4.09944 -5.29949 7.17251e-19)
(4.48504 -5.55417 4.04707e-19)
(4.8864 -5.79895 1.94694e-19)
(5.30258 -6.0321 7.07761e-19)
(5.73273 -6.25185 2.32465e-19)
(6.1759 -6.45656 2.64472e-19)
(6.63105 -6.64471 3.12029e-19)
(7.0972 -6.8149 -9.33818e-19)
(7.5731 -6.96592 6.7026e-19)
(8.05744 -7.09661 7.57101e-19)
(8.54902 -7.20594 -1.54753e-18)
(9.04636 -7.293 7.90081e-19)
(9.54812 -7.35694 -8.46165e-19)
(10.053 -7.39713 4.21719e-19)
(10.5594 -7.41311 4.62094e-19)
(11.066 -7.40441 5.12568e-19)
(11.5712 -7.37075 -5.06065e-19)
(12.0736 -7.31201 -5.51311e-19)
(12.5719 -7.22807 -1.65193e-18)
(13.0644 -7.11902 -1.1914e-18)
(13.5496 -6.98511 -2.41471e-18)
(14.0262 -6.82654 -3.12719e-18)
(14.4927 -6.64363 1.28175e-18)
(14.9476 -6.43677 2.89811e-20)
(15.3898 -6.20653 -7.17311e-19)
(15.818 -5.95345 -7.03434e-19)
(16.2309 -5.67822 4.2522e-18)
(16.6274 -5.38161 -7.12589e-19)
(17.0064 -5.06445 0)
(17.3669 -4.72768 0)
(17.708 -4.3723 -7.15097e-19)
(18.0287 -3.9995 3.18827e-20)
(18.3284 -3.61029 7.66827e-19)
(18.6062 -3.2058 0)
(18.8613 -2.78734 8.16161e-19)
(19.0929 -2.35621 0)
(19.3006 -1.91358 0)
(19.4837 -1.4604 6.21435e-19)
(19.6418 -0.99823 1.97599e-19)
(19.7747 -0.528524 -2.01313e-19)
(19.882 -0.0527506 1.02984e-19)
(0.119381 -0.74562 4.69008e-23)
(0.181192 -0.855355 1.24506e-21)
(0.256826 -0.979973 -2.69731e-21)
(0.346641 -1.12038 -1.58556e-22)
(0.450824 -1.27695 -1.25715e-21)
(0.570137 -1.44959 4.31716e-21)
(0.705142 -1.63812 2.37685e-21)
(0.856381 -1.84182 -1.16686e-20)
(1.02471 -2.05988 3.78247e-20)
(1.21018 -2.29112 -5.50384e-20)
(1.41327 -2.53404 6.24315e-20)
(1.63373 -2.78695 -7.86682e-20)
(1.87176 -3.04783 -4.56987e-20)
(2.1272 -3.31467 0)
(2.40033 -3.58547 8.51901e-20)
(2.69062 -3.85849 8.1757e-20)
(2.99787 -4.1317 0)
(3.32186 -4.40315 2.0298e-19)
(3.66204 -4.67094 0)
(4.01823 -4.93314 -2.69586e-19)
(4.39004 -5.18819 2.94484e-19)
(4.7767 -5.4345 1.03519e-20)
(5.17765 -5.67038 -1.72201e-20)
(5.59186 -5.89438 2.93398e-20)
(6.01853 -6.10475 -8.28287e-19)
(6.45682 -6.3 -4.75482e-19)
(6.9057 -6.47874 9.78719e-19)
(7.3644 -6.63965 1.06176e-18)
(7.83168 -6.78178 -5.7468e-19)
(8.30635 -6.90399 0)
(8.78726 -7.00533 0)
(9.27297 -7.08505 0)
(9.76231 -7.14223 7.26774e-19)
(10.2541 -7.17635 -3.00091e-18)
(10.7468 -7.18706 1.57002e-18)
(11.239 -7.17389 -7.98298e-19)
(11.7295 -7.13653 -1.72139e-18)
(12.2169 -7.075 1.74585e-18)
(12.6998 -6.98915 4.01046e-20)
(13.1768 -6.8791 -9.85002e-19)
(13.6465 -6.74515 1.01743e-18)
(14.1075 -6.5875 1.05166e-18)
(14.5583 -6.40643 0)
(14.9978 -6.20227 -1.06738e-18)
(15.4246 -5.9756 0)
(15.8376 -5.72697 -1.70415e-18)
(16.2356 -5.45704 5.26788e-19)
(16.6174 -5.16652 0)
(16.9822 -4.85614 -6.1745e-19)
(17.329 -4.52692 -1.4661e-20)
(17.6568 -4.17968 1.31464e-18)
(17.9649 -3.81559 -6.24603e-19)
(18.2525 -3.43575 -3.4714e-19)
(18.5189 -3.04126 6.35786e-19)
(18.7632 -2.63348 -4.79391e-21)
(18.9848 -2.21339 3.31341e-19)
(19.1828 -1.7823 1.60026e-19)
(19.357 -1.34114 3.37593e-19)
(19.507 -0.891134 -8.47859e-19)
(19.6326 -0.433779 3.40433e-19)
(19.7333 0.0293717 -4.35462e-20)
(0.205677 -0.60742 -4.27277e-22)
(0.279504 -0.732239 0)
(0.368184 -0.871526 3.8228e-21)
(0.472496 -1.02601 0)
(0.59186 -1.19568 -2.65314e-22)
(0.727333 -1.38005 4.41771e-21)
(0.879043 -1.57874 6.58566e-21)
(1.04723 -1.79071 2.29854e-20)
(1.23261 -2.01508 3.84353e-21)
(1.43455 -2.25074 5.86924e-21)
(1.65357 -2.49613 1.10086e-21)
(1.88872 -2.74976 -2.97202e-20)
(2.14033 -3.00959 4.45247e-20)
(2.40755 -3.27364 -1.35845e-19)
(2.69139 -3.53995 1.16498e-19)
(2.99086 -3.80735 -8.56316e-21)
(3.30553 -4.07362 -1.45172e-19)
(3.63552 -4.33702 -1.75422e-19)
(3.97985 -4.59588 0)
(4.33861 -4.84818 2.09245e-19)
(4.71171 -5.09271 8.44257e-21)
(5.09789 -5.32818 -5.43334e-19)
(5.49715 -5.55291 -2.34055e-20)
(5.90801 -5.76588 -2.94608e-19)
(6.32976 -5.96518 1.04001e-18)
(6.76175 -6.14946 3.56006e-20)
(7.20286 -6.31747 -3.86788e-19)
(7.65275 -6.46783 -4.12945e-20)
(8.11008 -6.60002 0)
(8.57364 -6.71286 0)
(9.04265 -6.80542 0)
(9.51541 -6.87722 0)
(9.99087 -6.92716 0)
(10.4683 -6.95472 5.74858e-20)
(10.946 -6.95985 -6.73296e-19)
(11.4225 -6.94207 -3.90914e-20)
(11.8971 -6.90084 2.92659e-20)
(12.3682 -6.8365 6.94554e-19)
(12.8344 -6.74877 1.58691e-18)
(13.2949 -6.63779 -2.39315e-18)
(13.7479 -6.50408 1.66541e-18)
(14.1922 -6.3477 -8.40301e-19)
(14.6263 -6.169 0)
(15.0491 -5.96805 9.32875e-19)
(15.4596 -5.74554 0)
(15.8565 -5.50203 9.81512e-19)
(16.2387 -5.23798 -1.00408e-18)
(16.6051 -4.95443 4.716e-19)
(16.9548 -4.65167 5.03582e-19)
(17.287 -4.33076 -5.25257e-19)
(17.6009 -3.99255 3.76006e-20)
(17.8956 -3.63827 -1.06065e-20)
(18.1706 -3.26867 1.06769e-18)
(18.4251 -2.88518 -1.09847e-18)
(18.6584 -2.489 -5.41846e-19)
(18.8695 -2.08146 -2.65249e-19)
(19.0578 -1.66331 -8.43417e-19)
(19.2228 -1.23542 0)
(19.3646 -0.798897 5.69377e-19)
(19.483 -0.355566 -1.46122e-19)
(19.5774 0.0933074 0)
(0.312593 -0.537708 0)
(0.400175 -0.673169 0)
(0.50358 -0.823348 -1.91514e-21)
(0.624655 -0.988496 2.28412e-21)
(0.760759 -1.16795 -1.26222e-21)
(0.913968 -1.36053 -7.28721e-21)
(1.0835 -1.56573 4.35458e-21)
(1.2689 -1.78214 -1.56514e-20)
(1.47208 -2.00906 -1.26018e-21)
(1.69018 -2.24544 4.4322e-20)
(1.92533 -2.48974 -8.42225e-20)
(2.17457 -2.74085 0)
(2.43944 -2.99644 0)
(2.71714 -3.25479 1.54499e-19)
(3.01121 -3.51347 9.96683e-20)
(3.31896 -3.77267 -2.2029e-19)
(3.63983 -4.0296 3.57885e-19)
(3.97508 -4.28269 1.50198e-19)
(4.32232 -4.53088 -3.0056e-19)
(4.68234 -4.77143 -1.82438e-19)
(5.05609 -5.00353 2.10061e-19)
(5.44044 -5.22679 -5.19582e-21)
(5.8374 -5.43872 0)
(6.24385 -5.6397 5.42361e-19)
(6.65954 -5.82697 -8.93482e-19)
(7.08447 -5.99921 2.97554e-19)
(7.51636 -6.15575 6.58029e-19)
(7.95658 -6.29447 -1.83084e-18)
(8.40311 -6.41591 3.72872e-19)
(8.85434 -6.51875 0)
(9.31074 -6.60164 0)
(9.76953 -6.6652 0)
(10.2299 -6.7075 5.11204e-19)
(10.692 -6.72773 1.58238e-18)
(11.154 -6.72682 -1.06999e-18)
(11.6135 -6.70438 5.90366e-19)
(12.0713 -6.65858 6.46813e-19)
(12.525 -6.59114 -1.28289e-18)
(12.9734 -6.50124 0)
(13.4163 -6.38875 -1.31687e-18)
(13.8516 -6.25511 6.83828e-19)
(14.2783 -6.09979 3.53383e-20)
(14.6944 -5.92363 -3.16781e-20)
(15.0997 -5.72568 7.52617e-19)
(15.4929 -5.50724 3.16322e-20)
(15.8724 -5.26914 -2.40176e-18)
(16.238 -5.01098 8.13626e-19)
(16.5878 -4.7346 -1.68938e-18)
(16.9215 -4.4394 0)
(17.2381 -4.12725 0)
(17.5372 -3.79806 1.78234e-18)
(17.8176 -3.45406 -4.25722e-19)
(18.0789 -3.09516 -9.22958e-19)
(18.3209 -2.72265 -4.43477e-19)
(18.5425 -2.33864 1.41564e-18)
(18.7426 -1.94414 7.13743e-19)
(18.9204 -1.53942 2.46584e-19)
(19.0754 -1.12564 -4.64501e-21)
(19.2083 -0.702934 -2.46594e-19)
(19.319 -0.273745 0)
(19.4066 0.160087 0)
(0.436175 -0.511836 4.50253e-22)
(0.54113 -0.654748 0)
(0.660733 -0.812542 0)
(0.801451 -0.985653 -1.35122e-21)
(0.954773 -1.1722 0)
(1.12669 -1.37004 1.16405e-21)
(1.31424 -1.57881 4.33525e-21)
(1.51577 -1.79654 -9.09457e-21)
(1.73786 -2.0232 0)
(1.97068 -2.25769 -2.65834e-20)
(2.2229 -2.49845 4.04351e-21)
(2.48458 -2.74509 0)
(2.76345 -2.99459 0)
(3.04861 -3.24573 -6.4894e-20)
(3.35316 -3.4937 7.11257e-20)
(3.66893 -3.74343 -8.98687e-20)
(3.9941 -3.9897 -1.03744e-19)
(4.33456 -4.23089 0)
(4.68331 -4.46809 1.34415e-19)
(5.04302 -4.69564 -2.83993e-19)
(5.41813 -4.91392 -3.18584e-19)
(5.79832 -5.12469 -3.74013e-19)
(6.19327 -5.32229 -3.3622e-20)
(6.59437 -5.51144 -4.75584e-19)
(7.00296 -5.6863 4.56346e-19)
(7.42093 -5.84575 5.08975e-19)
(7.84151 -5.99094 -5.79427e-19)
(8.27167 -6.11665 3.18449e-20)
(8.70706 -6.227 4.27494e-20)
(9.14403 -6.31991 -6.68682e-19)
(9.5876 -6.39216 0)
(10.0315 -6.44794 -8.13585e-19)
(10.4754 -6.48227 1.61374e-18)
(10.9218 -6.49405 -4.51444e-20)
(11.3677 -6.48735 9.46494e-19)
(11.8079 -6.46148 -9.41612e-19)
(12.2488 -6.40982 1.03754e-18)
(12.6841 -6.33938 1.08197e-18)
(13.113 -6.24724 -2.13889e-18)
(13.5376 -6.13247 1.16967e-18)
(13.9538 -5.99936 1.15008e-18)
(14.3624 -5.84472 1.81604e-18)
(14.7588 -5.67154 -6.46166e-19)
(15.1455 -5.47547 0)
(15.5206 -5.26125 3.45104e-20)
(15.8813 -5.02958 7.01155e-19)
(16.2298 -4.77698 -6.81416e-19)
(16.5613 -4.50917 7.33406e-19)
(16.8781 -4.22152 0)
(17.1775 -3.91917 0)
(17.461 -3.59895 -4.002e-20)
(17.7261 -3.26632 7.86617e-19)
(17.9725 -2.91747 0)
(18.2012 -2.55576 3.90475e-19)
(18.4109 -2.1851 3.93694e-19)
(18.5993 -1.80476 -8.01599e-19)
(18.7661 -1.41408 -3.93059e-19)
(18.9098 -1.01553 -2.08714e-19)
(19.0325 -0.606203 0)
(19.1355 -0.19224 0)
(19.2158 0.225101 2.49639e-20)
(0.576411 -0.514073 -1.25665e-21)
(0.705366 -0.66098 2.67196e-21)
(0.840879 -0.821624 2.07945e-24)
(1.00777 -1.00028 -2.97993e-21)
(1.17467 -1.19023 4.4129e-21)
(1.36508 -1.3927 -2.3227e-21)
(1.57138 -1.60073 0)
(1.78512 -1.81559 1.50303e-21)
(2.03121 -2.04041 -1.17555e-20)
(2.27281 -2.26948 0)
(2.54773 -2.50558 5.50098e-20)
(2.8145 -2.74724 -3.503e-20)
(3.11076 -2.99083 3.58109e-20)
(3.39592 -3.235 4.63905e-20)
(3.71361 -3.46668 -6.15241e-20)
(4.03701 -3.70804 -7.5686e-20)
(4.36217 -3.9435 2.50515e-19)
(4.71211 -4.16947 -2.61364e-19)
(5.05574 -4.39839 0)
(5.4103 -4.6144 -9.26155e-21)
(5.79341 -4.81769 7.83311e-19)
(6.16135 -5.0185 -2.98871e-20)
(6.56182 -5.19663 -3.72789e-19)
(6.95139 -5.3771 7.14007e-19)
(7.3509 -5.54188 0)
(7.76517 -5.68867 -4.3975e-19)
(8.16801 -5.82414 -4.50569e-19)
(8.58989 -5.93533 9.99336e-19)
(9.01517 -6.03552 -6.61861e-21)
(9.43358 -6.12003 5.93219e-19)
(9.86698 -6.179 -1.21291e-18)
(10.2919 -6.22962 1.92815e-18)
(10.717 -6.25758 -1.38213e-18)
(11.1485 -6.2607 -1.44965e-18)
(11.5809 -6.24755 0)
(11.9969 -6.21893 8.25307e-19)
(12.4266 -6.15873 0)
(12.8397 -6.08842 -3.10966e-21)
(13.2467 -5.99587 9.77228e-19)
(13.6555 -5.87567 -1.81827e-18)
(14.0501 -5.74224 -6.79685e-21)
(14.4418 -5.58845 -2.00982e-18)
(14.8126 -5.421 0)
(15.1796 -5.22805 -5.74821e-19)
(15.5376 -5.0195 2.2059e-18)
(15.8748 -4.79541 -5.60745e-19)
(16.2099 -4.54782 5.93668e-19)
(16.5193 -4.28968 0)
(16.821 -4.0086 6.10452e-19)
(17.1007 -3.71511 -1.84169e-18)
(17.3697 -3.40021 -2.55674e-20)
(17.6179 -3.07907 0)
(17.8464 -2.7431 6.32234e-19)
(18.0624 -2.39266 -1.89427e-20)
(18.2612 -2.03303 0)
(18.4351 -1.66536 3.55757e-19)
(18.5929 -1.29641 -3.22963e-19)
(18.7225 -0.915161 3.3853e-19)
(18.8335 -0.520386 3.35587e-19)
(18.9315 -0.11805 -1.68448e-19)
(19.0015 0.283473 -6.3712e-20)
(20.5602 0.853325 1.51538e-19)
(20.6191 1.38091 -5.1375e-20)
(20.6501 1.91168 0)
(20.6531 2.44326 0)
(20.6283 2.97393 8.16128e-19)
(20.5761 3.50255 1.17433e-18)
(20.4965 4.02729 -1.20892e-18)
(20.3897 4.54677 -3.98344e-19)
(20.2558 5.05956 3.98298e-19)
(20.0954 5.56459 7.79353e-19)
(19.9088 6.06122 -7.79835e-19)
(19.6962 6.54762 -7.5808e-19)
(19.459 7.02274 3.77036e-18)
(19.1986 7.4853 7.33214e-19)
(18.9152 7.93392 -6.47025e-18)
(18.6095 8.36711 0)
(18.2823 8.78398 0)
(17.9349 9.18355 6.72806e-19)
(17.5681 9.56529 1.9872e-18)
(17.1826 9.92785 -5.10802e-18)
(16.78 10.2706 -7.46357e-20)
(16.3611 10.593 1.17076e-18)
(15.9269 10.894 1.20428e-18)
(15.4786 11.1731 -4.49312e-18)
(15.0176 11.4301 0)
(14.5448 11.6652 2.10996e-18)
(14.0605 11.8775 -1.95505e-18)
(13.5668 12.0654 0)
(13.0653 12.2287 0)
(12.5575 12.3669 -8.95506e-19)
(12.0447 12.4802 -1.63692e-18)
(11.5281 12.5682 2.33279e-18)
(11.0094 12.6311 0)
(10.4894 12.669 0)
(9.96972 12.6816 1.17657e-18)
(9.45148 12.6694 -1.11816e-18)
(8.93601 12.6323 0)
(8.42461 12.5709 1.7612e-18)
(7.91829 12.4855 3.66681e-19)
(7.41832 12.3763 -1.01412e-18)
(6.9259 12.2438 3.53607e-20)
(6.44244 12.0887 4.26001e-19)
(5.96873 11.9117 -4.20414e-19)
(5.50596 11.713 7.34598e-20)
(5.05531 11.4937 0)
(4.61748 11.2544 0)
(4.19354 10.9958 -1.7865e-19)
(3.7844 10.7188 -3.80632e-20)
(3.39107 10.4244 2.23879e-19)
(3.01423 10.1136 9.28864e-20)
(2.65452 9.78737 1.44704e-19)
(2.31275 9.44648 -1.46592e-19)
(1.98968 9.09224 -9.8045e-20)
(1.68561 8.72584 9.93831e-20)
(1.40126 8.3482 -5.93089e-19)
(1.13701 7.96075 6.46826e-19)
(0.893314 7.56462 -1.29054e-21)
(0.670457 7.16133 0)
(0.468615 6.75192 1.64618e-19)
(0.288139 6.33749 2.23566e-20)
(0.129111 5.91927 2.36545e-20)
(20.3284 0.0962115 -8.17573e-20)
(20.3982 0.612729 0)
(20.4403 1.13091 0)
(20.4552 1.65038 9.38429e-19)
(20.4427 2.16977 -6.27402e-19)
(20.4031 2.68781 -2.21059e-18)
(20.3365 3.20269 0)
(20.2431 3.71358 0)
(20.123 4.21867 -1.20317e-18)
(19.9763 4.71669 0)
(19.8035 5.20677 -1.76249e-18)
(19.6051 5.68661 1.16923e-18)
(19.3827 6.15447 -5.80401e-19)
(19.1373 6.61026 0)
(18.8688 7.05342 2.29474e-18)
(18.5779 7.4826 1.07469e-18)
(18.2653 7.89662 -1.07683e-18)
(17.932 8.29431 1.02408e-18)
(17.579 8.67503 -3.0261e-18)
(17.207 9.03758 2.03739e-18)
(16.8176 9.38084 -1.97845e-18)
(16.4116 9.70437 -1.00855e-18)
(15.99 10.007 -9.12213e-19)
(15.5541 10.2879 2.6462e-18)
(15.1051 10.5464 8.48071e-19)
(14.6438 10.7824 7.75779e-19)
(14.1712 10.9961 -7.01085e-19)
(13.6894 11.1865 0)
(13.1993 11.3528 0)
(12.7025 11.4945 0)
(12.2 11.6116 0)
(11.6933 11.7039 0)
(11.1838 11.7712 0)
(10.6726 11.8137 0)
(10.1612 11.8312 -4.87997e-19)
(9.65079 11.8237 4.3322e-19)
(9.14272 11.7915 3.46671e-19)
(8.6382 11.7347 -1.68238e-18)
(8.13832 11.6539 -2.62275e-19)
(7.64443 11.5492 7.82227e-19)
(7.15774 11.4211 4.29951e-19)
(6.67961 11.27 -3.42246e-19)
(6.21091 11.0966 1.26802e-19)
(5.75298 10.9014 9.24372e-20)
(5.30692 10.685 -6.05349e-21)
(4.87352 10.4482 6.12121e-21)
(4.45386 10.1917 9.59666e-20)
(4.04891 9.91618 0)
(3.65971 9.62271 8.11731e-20)
(3.28706 9.31223 -1.83956e-19)
(2.9316 8.98563 1.03073e-19)
(2.59424 8.64378 0)
(2.27583 8.28782 -3.06278e-19)
(1.97663 7.9189 0)
(1.69754 7.53797 0)
(1.4388 7.14643 -9.50634e-19)
(1.20107 6.74549 4.58475e-19)
(0.984528 6.33656 1.26646e-19)
(0.789761 5.92064 -1.32534e-19)
(0.617069 5.49902 0)
(0.46669 5.07291 -3.7372e-20)
(20.1174 0.474902 6.22726e-20)
(20.1756 0.975231 0)
(20.207 1.47602 -2.48359e-19)
(20.211 1.9771 -1.63339e-20)
(20.1882 2.47707 0)
(20.1397 2.97538 1.9916e-18)
(20.0649 3.47132 9.72181e-19)
(19.9638 3.96424 0)
(19.8366 4.45198 3.20085e-20)
(19.6836 4.9322 9.40546e-19)
(19.5059 5.40344 1.42839e-18)
(19.3046 5.86429 -4.69516e-19)
(19.0801 6.31306 0)
(18.8325 6.7491 0)
(18.5626 7.17191 1.72849e-18)
(18.2713 7.58057 -8.52579e-19)
(17.9594 7.97405 -7.98943e-19)
(17.6278 8.35141 0)
(17.2774 8.71184 2.41198e-18)
(16.9093 9.0544 -2.31425e-18)
(16.5247 9.37817 -1.47783e-18)
(16.1244 9.68245 -1.42977e-18)
(15.7095 9.96632 0)
(15.2813 10.2291 -2.04199e-18)
(14.8408 10.4701 -6.66145e-19)
(14.3891 10.6888 6.08336e-19)
(13.9276 10.8846 5.9857e-19)
(13.4575 11.0574 0)
(12.9799 11.2069 0)
(12.4961 11.3327 0)
(12.0073 11.4347 0)
(11.5149 11.5126 0)
(11.02 11.5666 0)
(10.524 11.5965 0)
(10.0282 11.6022 -1.04286e-18)
(9.53376 11.584 3.33835e-19)
(9.04194 11.5419 -2.65841e-19)
(8.55389 11.4762 1.26596e-18)
(8.07073 11.3873 0)
(7.59368 11.2754 3.5491e-19)
(7.12392 11.1411 2.889e-19)
(6.66268 10.9848 1.23551e-19)
(6.21097 10.807 -7.30213e-20)
(5.76995 10.6084 -9.09714e-20)
(5.34064 10.3894 2.50032e-20)
(4.92393 10.1509 3.30939e-22)
(4.52069 9.89336 1.04913e-19)
(4.13189 9.61777 0)
(3.75843 9.32501 0)
(3.40117 9.01593 8.08136e-20)
(3.06082 8.69145 9.7345e-20)
(2.73808 8.35249 2.09756e-19)
(2.4337 7.99999 2.40222e-19)
(2.14809 7.63509 0)
(1.88199 7.25865 2.98386e-19)
(1.6356 6.87213 3.29244e-19)
(1.40946 6.47659 0)
(1.20393 6.07351 -1.91427e-21)
(1.01954 5.66378 0)
(0.856537 5.24873 0)
(0.715179 4.82944 2.85395e-20)
(19.9636 0.428059 -1.03014e-19)
(20.0195 0.912367 2.01463e-19)
(20.0494 1.39952 -3.97156e-19)
(20.0532 1.88756 -2.13491e-19)
(20.0307 2.37497 0)
(19.9817 2.86063 -8.26589e-19)
(19.9061 3.34408 -8.20379e-19)
(19.8052 3.82343 0)
(19.68 4.29847 3.39117e-20)
(19.5308 4.76693 -7.92291e-19)
(19.3575 5.22686 1.49582e-18)
(19.1606 5.67731 1.47217e-18)
(18.9406 6.11715 0)
(18.6981 6.54514 -7.1701e-19)
(18.4339 6.96008 -1.42377e-18)
(18.1488 7.36078 -7.0201e-19)
(17.8436 7.74639 2.05542e-18)
(17.5191 8.11602 -1.32039e-18)
(17.1764 8.46894 1.28443e-18)
(16.8165 8.80429 1.86408e-18)
(16.4404 9.12127 2.41973e-18)
(16.0491 9.41908 1.19576e-18)
(15.6438 9.69689 5.50514e-19)
(15.2255 9.954 1.66301e-18)
(14.7951 10.1899 5.09102e-19)
(14.3538 10.4041 5.09377e-19)
(13.9028 10.5961 4.6134e-19)
(13.4434 10.7657 -1.3433e-18)
(12.9767 10.9123 8.32679e-19)
(12.504 11.0358 7.76618e-19)
(12.0265 11.1359 -1.50666e-18)
(11.5453 11.2127 7.29975e-19)
(11.0618 11.2659 -6.35018e-19)
(10.5773 11.2957 2.98075e-19)
(10.093 11.302 2.87674e-19)
(9.61017 11.2848 2.33418e-19)
(9.12988 11.2442 -2.34908e-19)
(8.65325 11.1806 -2.21044e-19)
(8.18141 11.0943 -5.05065e-19)
(7.71557 10.9856 -2.92262e-19)
(7.25687 10.855 -4.55673e-19)
(6.80642 10.703 -4.21837e-19)
(6.36541 10.5301 1.20849e-19)
(5.93486 10.3369 6.96252e-21)
(5.51578 10.1239 -1.68074e-22)
(5.1091 9.89162 3.1921e-20)
(4.71549 9.64091 -2.70559e-19)
(4.33599 9.37253 5.82653e-20)
(3.97139 9.08746 0)
(3.62265 8.78644 0)
(3.29036 8.47032 1.48313e-19)
(2.97533 8.14018 5.6497e-22)
(2.67819 7.79681 -1.94368e-19)
(2.39938 7.44126 0)
(2.13951 7.07433 -2.41401e-19)
(1.89877 6.69749 0)
(1.67772 6.31187 0)
(1.47658 5.91873 -2.31843e-19)
(1.29616 5.51922 -8.24658e-20)
(1.13642 5.11448 8.57015e-20)
(0.997958 4.7057 -4.54743e-20)
(19.809 0.497194 1.86088e-21)
(19.8595 0.968474 -1.74104e-19)
(19.8847 1.44225 5.10142e-19)
(19.8846 1.91697 3.38356e-19)
(19.8591 2.39148 -4.98296e-19)
(19.8082 2.86446 3.33665e-19)
(19.7329 3.33387 -2.44495e-21)
(19.6329 3.79769 -6.45617e-19)
(19.5083 4.2559 9.82887e-19)
(19.3604 4.70766 -1.28005e-18)
(19.1895 5.15178 1.20448e-18)
(18.9957 5.58683 -1.27998e-18)
(18.7797 6.01172 -6.14823e-19)
(18.5421 6.4254 0)
(18.2836 6.82653 6.3238e-19)
(18.0049 7.21392 5.39849e-19)
(17.7067 7.58684 0)
(17.3899 7.94432 1.06261e-18)
(17.0553 8.28568 0)
(16.7041 8.61016 -1.05029e-18)
(16.3372 8.91689 9.2748e-19)
(15.9559 9.20509 -4.01449e-20)
(15.5611 9.47386 -4.48369e-20)
(15.1537 9.72248 1.56108e-21)
(14.7346 9.95053 -1.74319e-18)
(14.305 10.1575 -7.92477e-19)
(13.866 10.3431 1.54822e-18)
(13.4188 10.5069 1.43109e-18)
(12.9647 10.6486 -7.13267e-19)
(12.5047 10.7679 0)
(12.0401 10.8644 0)
(11.5719 10.9383 0)
(11.1014 10.9895 5.42746e-19)
(10.6299 11.0181 -1.90025e-18)
(10.1588 11.0238 8.81464e-19)
(9.68915 11.0067 -4.20089e-19)
(9.22197 10.9669 -6.71532e-19)
(8.75835 10.9047 6.30162e-19)
(8.29927 10.8204 2.08863e-20)
(7.84602 10.7146 -1.97842e-19)
(7.39968 10.5875 2.16933e-19)
(6.96134 10.4398 1.40452e-19)
(6.53221 10.2719 0)
(6.1133 10.0843 -3.81292e-20)
(5.70558 9.87756 0)
(5.31001 9.65203 7.83736e-20)
(4.92704 9.40866 -4.02322e-20)
(4.5577 9.14815 0)
(4.20262 8.87151 9.39179e-20)
(3.86313 8.57941 1.9319e-20)
(3.53948 8.27257 -2.46206e-19)
(3.23252 7.95212 1.44327e-19)
(2.94303 7.61884 9.50439e-20)
(2.6712 7.27368 -1.73988e-19)
(2.41791 6.9174 7.99974e-21)
(2.18272 6.55132 -1.05529e-19)
(1.96669 6.17664 -5.68287e-20)
(1.76971 5.79468 -1.26399e-19)
(1.59292 5.40651 3.3507e-19)
(1.43593 5.01327 -1.42487e-19)
(1.29985 4.61606 1.88677e-20)
(19.6475 0.546534 3.66138e-20)
(19.6934 1.00296 0)
(19.7147 1.46146 -5.70466e-19)
(19.7116 1.92086 0)
(19.684 2.37984 2.83679e-19)
(19.6322 2.83704 8.29657e-19)
(19.5564 3.29103 5.43915e-19)
(19.4566 3.74119 1.10245e-18)
(19.3334 4.18569 9.55696e-21)
(19.1875 4.6237 -6.77516e-21)
(19.0194 5.05377 -5.9322e-20)
(18.8293 5.47492 -5.23521e-19)
(18.6177 5.88609 5.05271e-19)
(18.3852 6.28636 -1.48098e-18)
(18.1328 6.6745 1.00428e-18)
(17.861 7.04928 -4.79475e-20)
(17.5702 7.40992 -9.10208e-19)
(17.2613 7.75554 -9.31916e-19)
(16.9352 8.08562 0)
(16.593 8.39958 8.33945e-19)
(16.2359 8.69642 -3.72607e-20)
(15.8649 8.97538 -1.63902e-18)
(15.481 9.23551 -5.5889e-21)
(15.0851 9.47591 -6.80055e-19)
(14.6778 9.69642 2.06824e-18)
(14.2603 9.89656 -3.43118e-20)
(13.8338 10.076 -6.59853e-19)
(13.3993 10.2345 -6.91036e-20)
(12.9583 10.3716 0)
(12.5117 10.4871 0)
(12.0606 10.5804 0)
(11.6059 10.6519 0)
(11.149 10.7015 0)
(10.6911 10.7295 5.26381e-20)
(10.2338 10.7353 -3.4121e-19)
(9.77789 10.7189 3.86229e-20)
(9.32442 10.6805 5.19671e-20)
(8.87435 10.6201 2.18935e-19)
(8.42846 10.5385 4.15008e-19)
(7.98819 10.4361 -5.16405e-19)
(7.55464 10.313 3.02933e-19)
(7.12867 10.1701 -9.34309e-20)
(6.71173 10.0078 0)
(6.30481 9.82659 3.31834e-20)
(5.90878 9.62701 0)
(5.52485 9.40895 -4.07958e-20)
(5.15269 9.17369 7.72062e-20)
(4.79394 8.92182 -5.31978e-20)
(4.4486 8.65457 -6.72172e-20)
(4.11867 8.37227 1.00665e-19)
(3.8039 8.07558 1.85187e-20)
(3.5052 7.76582 1.50998e-20)
(3.22358 7.44346 -2.7683e-19)
(2.95888 7.10964 3.15545e-19)
(2.71235 6.7647 1.72679e-19)
(2.48276 6.41026 9.02487e-20)
(2.27194 6.04734 3.00461e-19)
(2.07875 5.67743 0)
(1.90553 5.30146 -2.29809e-19)
(1.75108 4.92064 6.10532e-20)
(1.61728 4.53583 0)
(19.4709 0.59812 0)
(19.5116 1.03906 0)
(19.5288 1.48202 2.47355e-19)
(19.5225 1.92556 -4.73706e-19)
(19.4927 2.36873 -2.44315e-19)
(19.4397 2.81024 -1.18595e-18)
(19.3638 3.24842 4.57646e-19)
(19.2646 3.68229 -9.45805e-19)
(19.1427 4.11142 1.52829e-20)
(18.9992 4.53457 1.33967e-18)
(18.8345 4.94977 -1.78746e-18)
(18.6485 5.35616 0)
(18.4417 5.75265 0)
(18.2147 6.13902 1.69066e-18)
(17.9688 6.5138 8.16764e-19)
(17.7045 6.87505 -1.65686e-18)
(17.4218 7.22266 2.37166e-18)
(17.1213 7.55573 7.5405e-19)
(16.8041 7.87389 -1.47771e-18)
(16.4712 8.1769 -7.41175e-19)
(16.1243 8.46329 6.83627e-19)
(15.7641 8.73268 -6.96413e-20)
(15.3919 8.98392 0)
(15.0083 9.21549 1.2787e-18)
(14.6134 9.42799 -1.80334e-18)
(14.2087 9.62091 5.8082e-19)
(13.7952 9.79375 1.045e-18)
(13.374 9.94687 -2.53574e-18)
(12.9469 10.0791 4.96046e-19)
(12.5144 10.1908 0)
(12.078 10.2805 0)
(11.6372 10.3498 0)
(11.1949 10.3977 3.43453e-19)
(10.7511 10.4256 9.71523e-19)
(10.3089 10.4317 -5.72791e-19)
(9.86756 10.4162 2.49611e-19)
(9.4287 10.3795 2.38808e-19)
(8.99331 10.321 -4.24856e-19)
(8.5613 10.2422 0)
(8.13467 10.1434 -2.38037e-19)
(7.71473 10.0245 1.23679e-19)
(7.30151 9.88666 1.36635e-20)
(6.89715 9.73027 9.70496e-21)
(6.50281 9.55579 2.88109e-20)
(6.11881 9.36412 -1.04992e-20)
(5.74763 9.15383 1.50114e-19)
(5.38661 8.9274 -6.41957e-20)
(5.0393 8.6846 2.1854e-19)
(4.70372 8.42762 0)
(4.38433 8.15604 0)
(4.07894 7.87015 -3.92906e-19)
(3.78863 7.57192 1.06734e-19)
(3.51581 7.26139 2.45179e-19)
(3.25833 6.93978 1.44702e-19)
(3.01967 6.60676 -4.56395e-19)
(2.79555 6.26461 -2.55381e-19)
(2.59051 5.91395 -9.4007e-20)
(2.40073 5.55699 -2.02146e-21)
(2.2318 5.19408 1.00695e-19)
(2.07945 4.82645 0)
(1.94841 4.45476 0)
(19.2738 0.64692 -2.49824e-20)
(19.3089 1.07131 0)
(19.3215 1.49787 0)
(19.3115 1.92491 2.09871e-19)
(19.2793 2.35132 0)
(19.2253 2.77618 8.07889e-19)
(19.1499 3.19775 3.98193e-19)
(19.0515 3.61447 -7.81828e-19)
(18.9306 4.02815 0)
(18.7898 4.43666 -7.92927e-19)
(18.6298 4.83543 4.3394e-20)
(18.4485 5.22632 0)
(18.2473 5.607 0)
(18.0261 5.97865 -7.38145e-19)
(17.787 6.34024 6.81478e-19)
(17.5316 6.68679 -7.05406e-19)
(17.2575 7.02072 -6.87488e-19)
(16.966 7.34093 0)
(16.6582 7.64609 6.4918e-19)
(16.335 7.93768 -1.18371e-18)
(15.9992 8.21276 -1.14322e-18)
(15.6505 8.47223 -1.17317e-18)
(15.2902 8.71489 -9.16149e-21)
(14.9208 8.93645 -9.68198e-19)
(14.5386 9.14048 1.02639e-18)
(14.1468 9.32615 9.25044e-19)
(13.7476 9.49149 -9.38155e-19)
(13.3397 9.63922 5.83027e-20)
(12.9276 9.76586 8.12494e-22)
(12.5092 9.87463 -7.83742e-19)
(12.089 9.95941 0)
(11.6621 10.0274 -6.24635e-19)
(11.2358 10.0727 1.2032e-18)
(10.806 10.1017 -4.49777e-20)
(10.3808 10.1084 5.14493e-19)
(9.95532 10.094 -4.19193e-19)
(9.53212 10.0594 3.56089e-19)
(9.11341 10.0024 2.55503e-19)
(8.69598 9.92665 -5.61627e-19)
(8.28352 9.83176 2.35824e-19)
(7.87883 9.7172 1.51211e-19)
(7.47816 9.58444 1.60148e-19)
(7.08641 9.43395 -3.43839e-20)
(6.70561 9.26647 0)