/*--------------------------------*- C++ -*----------------------------------*\
| =========                 |                                                 |
| \\      /  F ield         | OpenFOAM: The Open Source CFD Toolbox           |
|  \\    /   O peration     | Version:  2.3.1                                 |
|   \\  /    A nd           | Web:      www.OpenFOAM.org                      |
|    \\/     M anipulation  |                                                 |
\*---------------------------------------------------------------------------*/
FoamFile
{
    version     2.0;
    format      ascii;
    class       volVectorField;
    location    "3900";
    object      D;
}
// * * * * * * * * * * * * * * * * * * * * * * * * * * * * * * * * * * * * * //

dimensions      [0 1 0 0 0 0 0];

internalField   nonuniform List<vector> 
11800
(
(9.88177e-06 0.000280322 0)
(-1.2471e-05 0.000312418 0)
(6.93069e-06 9.38747e-05 0)
(-7.90536e-06 0.000127906 0)
(-1.1393e-05 0.000311888 0)
(-5.12081e-06 0.000128158 0)
(-1.88511e-06 0.000210165 0)
(-1.79276e-06 0.000161804 0)
(8.25857e-07 2.45895e-05 0)
(1.51396e-06 9.7388e-05 0)
(1.09713e-05 0.000279657 0)
(-9.84773e-06 0.000108936 0)
(-9.52614e-09 -7.58488e-09 0)
(6.16039e-06 9.33049e-05 0)
(-7.01155e-06 0.000128447 0)
(6.7096e-06 1.50598e-05 0)
(-1.05324e-06 0.00020955 0)
(-1.01952e-06 0.000161221 0)
(4.67547e-07 2.4863e-05 0)
(9.37248e-07 9.6903e-05 0)
(-6.02702e-06 0.000127683 0)
(-9.0234e-06 0.000109371 0)
(-1.4688e-06 5.30184e-06 0)
(-1.56789e-06 5.52186e-06 0)
(5.9898e-06 1.72097e-05 0)
(-2.35208e-06 8.80593e-06 0)
(-9.62932e-06 6.48417e-05 0)
(1.40598e-05 0.000188277 0)
(-8.56822e-06 4.91241e-05 0)
(-7.40652e-06 3.52732e-05 0)
(1.48969e-05 0.000238262 0)
(6.24123e-08 4.12475e-06 0)
(3.06905e-06 1.13307e-05 0)
(-7.58093e-06 0.000320619 0)
(6.15917e-06 0.000319172 0)
(-1.69601e-05 0.00025451 0)
(5.73799e-06 0.000320275 0)
(3.02082e-06 1.16503e-05 0)
(-1.8432e-06 0.000222025 0)
(1.51848e-06 0.000106998 0)
(-9.46848e-06 6.55716e-05 0)
(-8.43374e-06 4.9774e-05 0)
(1.37352e-05 0.000187195 0)
(-7.29903e-06 3.58418e-05 0)
(1.45664e-05 0.000237125 0)
(6.40071e-06 1.51798e-05 0)
(1.69274e-06 6.28153e-06 0)
(1.88686e-06 6.18123e-06 0)
(-2.89725e-06 0.000222216 0)
(2.36213e-06 0.000107149 0)
(-1.61056e-05 0.000163961 0)
(-1.72142e-05 0.000212337 0)
(-1.57982e-06 0.000277321 0)
(8.68411e-08 3.91372e-06 0)
(-8.22453e-06 1.79467e-05 0)
(1.11338e-06 9.20975e-07 0)
(-2.11657e-05 0.000325025 0)
(-5.30321e-06 9.03597e-05 0)
(6.07849e-06 0.000131953 0)
(-3.85236e-06 8.67895e-05 0)
(2.22538e-06 2.94037e-06 0)
(-2.72251e-06 0.000277529 0)
(-4.61088e-06 9.01546e-05 0)
(5.3009e-06 0.000132198 0)
(5.61044e-06 1.69455e-05 0)
(-2.02079e-05 0.000287247 0)
(-1.67082e-05 0.000163242 0)
(-1.79194e-05 0.000211547 0)
(-2.01034e-05 0.000324499 0)
(-2.46845e-06 9.09275e-06 0)
(-6.75759e-06 0.000321521 0)
(-1.19324e-05 0.000319777 0)
(-1.22793e-05 0.000318639 0)
(-1.04967e-07 1.16953e-07 0)
(2.3764e-06 3.067e-06 0)
(-1.59756e-05 0.000255226 0)
(7.35942e-06 2.38033e-05 0)
(-2.05357e-05 0.000288323 0)
(-1.63524e-05 0.000290764 0)
(-1.52773e-05 0.000291738 0)
(-7.84011e-06 1.77001e-05 0)
(1.21198e-06 0.000111121 0)
(1.126e-05 0.000317268 0)
(1.00512e-05 0.000317465 0)
(-1.44662e-06 0.000114216 0)
(-7.12125e-06 3.97379e-05 0)
(1.34668e-05 0.000229587 0)
(-8.14339e-06 5.42254e-05 0)
(-9.08265e-06 7.05498e-05 0)
(1.26623e-05 0.000180059 0)
(-3.62023e-07 0.00027131 0)
(3.2617e-06 1.07695e-05 0)
(-1.01559e-05 0.000292643 0)
(2.10108e-05 0.000327517 0)
(3.33151e-06 0.000140982 0)
(-2.53795e-09 -1.93068e-09 0)
(6.56149e-11 -4.10252e-10 0)
(2.53922e-09 -1.93201e-09 0)
(-2.13851e-07 0.000280738 0)
(-9.34985e-06 0.000111355 0)
(1.80854e-05 0.000326344 0)
(1.09205e-05 0.000122393 0)
(-3.95603e-06 1.57525e-05 0)
(-8.90823e-07 1.215e-05 0)
(-5.84256e-07 0.000310487 0)
(1.09165e-06 2.57256e-05 0)
(-2.30232e-06 0.000159428 0)
(-2.39468e-06 0.000207532 0)
(3.45828e-06 5.87051e-06 0)
(8.21537e-06 5.42017e-05 0)
(7.18481e-06 3.97167e-05 0)
(9.16299e-06 7.0523e-05 0)
(-1.36455e-05 0.000229615 0)
(-1.28323e-05 0.000180098 0)
(1.95388e-06 9.53968e-05 0)
(2.73676e-06 5.35142e-06 0)
(2.00415e-05 0.000288423 0)
(-8.19196e-06 0.000296077 0)
(2.78663e-06 5.15578e-06 0)
(-1.36339e-06 9.8604e-05 0)
(-8.13893e-07 2.39385e-05 0)
(1.83517e-06 0.000211714 0)
(1.74159e-06 0.000163191 0)
(-2.52543e-06 0.000203005 0)
(-1.02222e-05 0.000293749 0)
(-8.90951e-07 0.00027986 0)
(-6.56547e-06 0.00031061 0)
(-1.52396e-06 0.000309764 0)
(-2.27137e-05 0.000335807 0)
(-2.35252e-05 0.000334993 0)
(-6.51842e-07 2.93077e-07 0)
(-2.96291e-06 6.94149e-06 0)
(1.38148e-05 0.000222746 0)
(-7.6468e-06 4.34601e-05 0)
(1.29409e-05 0.000173638 0)
(-8.67882e-06 5.84573e-05 0)
(-9.62613e-06 7.52502e-05 0)
(1.2747e-05 0.000222949 0)
(-7.04664e-06 4.33301e-05 0)
(1.1942e-05 0.000173826 0)
(-7.99963e-06 5.83131e-05 0)
(-8.87445e-06 7.50929e-05 0)
(-1.85456e-06 2.21676e-05 0)
(4.47847e-06 0.000215781 0)
(4.17748e-06 0.000167109 0)
(-3.53471e-06 0.000101833 0)
(1.71709e-05 0.000111819 0)
(-1.70571e-05 0.000109372 0)
(1.07424e-05 0.000123283 0)
(-1.24866e-06 1.28951e-05 0)
(-1.13056e-05 0.000270056 0)
(-1.12078e-05 0.000271489 0)
(5.52326e-06 0.000316725 0)
(-1.26441e-05 0.000254865 0)
(5.0715e-06 0.000179969 0)
(5.50351e-06 0.000229466 0)
(-1.4082e-05 0.000202124 0)
(-1.30574e-05 0.000154401 0)
(6.58961e-06 2.83611e-05 0)
(-1.03248e-06 0.000272329 0)
(3.75947e-06 5.97519e-06 0)
(-1.15551e-05 0.000255118 0)
(7.7035e-06 2.41485e-05 0)
(-5.14575e-06 7.34393e-05 0)
(-4.62957e-06 5.68135e-05 0)
(-4.06763e-06 4.19985e-05 0)
(7.04732e-06 0.000175899 0)
(7.51381e-06 0.00022517 0)
(-3.31572e-06 4.10082e-06 0)
(-6.0398e-06 2.72804e-05 0)
(1.31465e-05 0.000204369 0)
(1.21819e-05 0.000156506 0)
(2.93663e-06 0.000207302 0)
(-1.9321e-05 0.000253323 0)
(-1.9516e-05 0.000254845 0)
(6.89644e-06 1.72403e-05 0)
(6.90598e-06 1.77165e-05 0)
(7.60217e-06 5.26295e-05 0)
(8.49798e-06 6.87717e-05 0)
(6.62869e-06 3.83355e-05 0)
(-1.20691e-05 0.000182532 0)
(-1.28183e-05 0.00023222 0)
(5.15889e-06 0.000178839 0)
(5.53387e-06 0.000228302 0)
(5.60436e-06 0.00010893 0)
(-2.67522e-06 0.000101602 0)
(-1.41059e-06 2.2282e-05 0)
(3.38946e-06 0.000215492 0)
(3.1606e-06 0.000166838 0)
(-4.40642e-06 0.000266358 0)
(-1.485e-06 4.65544e-05 0)
(-1.67622e-06 6.19734e-05 0)
(-1.6628e-05 0.000285034 0)
(-4.53366e-07 1.0578e-05 0)
(-1.60398e-05 0.000134096 0)
(1.38326e-05 8.88052e-05 0)
(1.59581e-07 1.52398e-07 0)
(-9.95193e-06 0.00032113 0)
(1.99017e-05 0.000289586 0)
(-5.6874e-07 3.39587e-07 0)
(1.311e-05 0.000303542 0)
(1.63757e-05 0.000259348 0)
(1.75631e-05 0.000259561 0)
(-5.12797e-07 0.000312062 0)
(-1.33222e-06 0.000313063 0)
(9.24997e-06 8.66512e-05 0)
(8.17097e-06 8.70356e-05 0)
(-1.09421e-05 0.000136382 0)
(-9.64041e-06 0.000135903 0)
(6.42532e-07 2.88959e-07 0)
(-1.80858e-06 1.54765e-05 0)
(-2.03615e-06 8.61755e-06 0)
(-4.75661e-08 1.78989e-08 0)
(6.20041e-06 1.02161e-05 0)
(-1.47967e-07 4.70226e-08 0)
(8.05568e-07 8.46367e-06 0)
(-1.12879e-05 0.000310419 0)
(-5.44323e-06 3.87825e-05 0)
(-6.22094e-06 5.31552e-05 0)
(-6.94886e-06 6.93635e-05 0)
(1.03828e-05 0.000231293 0)
(9.79916e-06 0.00018168 0)
(6.71287e-07 0.000215091 0)
(6.24207e-07 0.00016646 0)
(-2.88941e-07 2.24417e-05 0)
(-5.49817e-07 0.000101299 0)
(-2.17075e-07 3.6086e-08 0)
(8.4764e-07 2.80703e-05 0)
(-1.70099e-06 0.000154692 0)
(-5.10469e-06 9.7836e-05 0)
(1.18235e-06 2.76575e-05 0)
(-2.39397e-06 0.000155513 0)
(-7.71495e-06 0.000293709 0)
(9.54702e-06 0.00010973 0)
(8.89436e-06 0.000108886 0)
(4.73605e-08 1.78278e-08 0)
(2.16727e-07 3.60253e-08 0)
(-1.49604e-05 0.000273337 0)
(-1.43922e-05 0.000274498 0)
(-1.41128e-05 9.28961e-05 0)
(1.58993e-05 0.000129308 0)
(1.27368e-05 0.000232121 0)
(1.19898e-05 0.000182444 0)
(-6.61872e-06 3.83918e-05 0)
(-7.59271e-06 5.26897e-05 0)
(-8.4868e-06 6.8839e-05 0)
(-4.58803e-07 0.000278738 0)
(-5.58081e-06 2.60974e-05 0)
(1.24287e-05 0.000206929 0)
(1.15347e-05 0.00015888 0)
(7.62551e-06 0.000110879 0)
(6.44019e-06 0.000262833 0)
(1.01131e-05 0.000327912 0)
(1.03076e-06 8.34088e-06 0)
(-3.74152e-06 8.76823e-05 0)
(-9.63146e-09 3.08012e-06 0)
(1.47547e-07 4.69065e-08 0)
(3.60701e-06 9.2528e-05 0)
(3.10409e-06 9.15603e-05 0)
(-3.91376e-06 0.000129544 0)
(-3.35309e-06 0.000130502 0)
(6.9451e-06 6.93428e-05 0)
(6.21754e-06 5.31366e-05 0)
(5.42693e-06 3.8773e-05 0)
(-9.82143e-06 0.00018168 0)
(-1.04365e-05 0.000231323 0)
(-5.5276e-06 0.000321227 0)
(1.8739e-06 2.27457e-06 0)
(2.34749e-09 0.000184512 0)
(-1.65356e-08 3.7124e-05 0)
(7.35355e-06 0.000309936 0)
(5.9902e-06 0.00010814 0)
(-2.3294e-05 0.000306257 0)
(6.8847e-06 0.00011168 0)
(2.67041e-07 1.95172e-07 0)
(1.91675e-05 0.000250186 0)
(1.9278e-05 0.000248778 0)
(-1.1715e-05 0.000159082 0)
(-1.26223e-05 0.000207141 0)
(-1.04657e-05 0.000158681 0)
(-1.12793e-05 0.000206711 0)
(5.63061e-06 2.60016e-05 0)
(5.0485e-06 2.61737e-05 0)
(5.70281e-06 0.000146101 0)
(6.78322e-06 0.000145931 0)
(6.18926e-06 0.000193129 0)
(7.36469e-06 0.000192943 0)
(-3.13696e-06 3.26429e-05 0)
(-3.73666e-06 3.27493e-05 0)
(-6.56504e-07 1.46667e-05 0)
(3.31687e-06 9.35072e-06 0)
(3.1051e-06 9.02686e-06 0)
(3.16795e-06 6.83019e-06 0)
(5.50708e-06 0.000263965 0)
(-1.90103e-05 0.000250648 0)
(-1.91119e-05 0.000249185 0)
(7.12547e-06 1.92582e-05 0)
(6.98483e-06 1.87085e-05 0)
(1.50664e-05 0.000111843 0)
(1.52699e-05 0.0001131 0)
(-1.49542e-05 0.000109284 0)
(-1.50326e-05 0.000108048 0)
(6.81337e-06 0.000316513 0)
(-1.86556e-05 0.000320648 0)
(-1.79329e-05 0.000269825 0)
(4.1873e-06 4.71508e-06 0)
(-1.09569e-05 0.000316617 0)
(-9.78379e-06 0.00031553 0)
(4.64018e-06 0.000147776 0)
(-2.87223e-06 0.00013277 0)
(2.55629e-06 8.96667e-05 0)
(-1.28264e-05 0.000112261 0)
(1.25677e-05 0.000108758 0)
(-6.05698e-06 1.89233e-05 0)
(-1.77172e-07 1.12237e-07 0)
(9.55145e-07 3.8766e-06 0)
(1.15106e-06 9.56999e-05 0)
(-1.07947e-05 9.63813e-05 0)
(1.16308e-05 0.000125148 0)
(-6.21366e-06 8.77181e-05 0)
(7.39998e-06 0.0001351 0)
(3.75164e-06 0.000235747 0)
(5.17595e-06 0.000235238 0)
(-2.20054e-06 5.04612e-05 0)
(-3.0385e-06 5.07662e-05 0)
(-2.46794e-06 6.63616e-05 0)
(-3.40616e-06 6.6702e-05 0)
(5.87705e-07 2.55493e-05 0)
(-1.25691e-06 0.000159786 0)
(-1.27366e-06 0.000207938 0)
(-2.06243e-06 0.00030477 0)
(2.8974e-06 6.78642e-06 0)
(-5.78412e-07 0.000129353 0)
(-8.85584e-06 0.000312434 0)
(1.19975e-06 9.55522e-07 0)
(7.9211e-06 0.000185399 0)
(-4.27383e-06 3.67155e-05 0)
(-1.33737e-05 0.000130729 0)
(-1.25602e-05 0.000130074 0)
(1.1687e-05 9.1583e-05 0)
(1.1017e-05 9.21408e-05 0)
(-1.32649e-05 0.000325842 0)
(-1.34111e-05 0.00032444 0)
(-2.17272e-06 1.47589e-05 0)
(-2.57654e-06 1.47029e-05 0)
(1.04573e-06 4.06333e-06 0)
(-2.47479e-06 4.21749e-06 0)
(6.26951e-07 0.000135757 0)
(3.82085e-06 2.64755e-05 0)
(3.21312e-06 2.66444e-05 0)
(-7.87364e-06 0.000157984 0)
(-6.60102e-06 0.00015761 0)
(-8.4882e-06 0.000205972 0)
(-7.11785e-06 0.00020557 0)
(-1.72069e-05 0.000261104 0)
(-1.59227e-05 0.000261208 0)
(-3.76128e-06 7.84543e-05 0)
(-3.47469e-06 6.13225e-05 0)
(-3.07553e-06 4.5979e-05 0)
(5.44606e-06 0.000243584 0)
(-9.28578e-07 0.000276024 0)
(1.13076e-05 0.000108653 0)
(1.07069e-05 0.000109601 0)
(5.02299e-06 0.000210617 0)
(4.8016e-06 0.000162238 0)
(-2.24643e-06 2.44003e-05 0)
(2.11626e-06 2.73292e-05 0)
(1.74151e-06 2.78628e-05 0)
(-3.89783e-06 0.000202965 0)
(-4.63792e-06 0.000204015 0)
(-4.29389e-06 0.000156188 0)
(-3.49896e-06 0.000155116 0)
(-4.46944e-06 2.50472e-05 0)
(9.44471e-06 0.000160986 0)
(1.01629e-05 0.000209201 0)
(-1.20575e-07 1.14555e-06 0)
(1.68171e-05 0.000124049 0)
(-1.54352e-05 9.76782e-05 0)
(-6.76366e-08 1.06562e-06 0)
(-5.0739e-06 0.000232074 0)
(-5.95086e-06 0.000233355 0)
(-4.65315e-06 0.00018249 0)
(-5.44949e-06 0.000183703 0)
(2.95464e-06 3.76137e-05 0)
(2.54539e-06 3.82764e-05 0)
(3.49544e-06 5.18826e-05 0)
(3.00027e-06 5.26395e-05 0)
(3.91169e-06 6.79497e-05 0)
(3.35375e-06 6.8796e-05 0)
(1.8981e-05 0.000261612 0)
(1.93345e-05 0.000262946 0)
(-1.76763e-06 8.68814e-06 0)
(7.1232e-06 0.000186325 0)
(-3.81575e-06 3.62068e-05 0)
(6.19836e-06 2.86056e-05 0)
(-1.22229e-05 0.000153887 0)
(-1.32134e-05 0.00020154 0)
(-1.72502e-07 5.23803e-08 0)
(2.46984e-06 0.000272689 0)
(6.11977e-06 2.72862e-05 0)
(-1.23937e-05 0.0001565 0)
(-1.33875e-05 0.000204319 0)
(4.63599e-06 7.93494e-06 0)
(-9.36486e-06 0.000295649 0)
(5.86948e-06 2.17628e-05 0)
(-1.47892e-05 0.000242529 0)
(-3.13283e-06 1.16777e-05 0)
(-3.34256e-06 1.21076e-05 0)
(3.28172e-06 1.19811e-05 0)
(-1.59365e-06 0.000129152 0)
(-1.21662e-08 -8.95414e-09 0)
(-9.94463e-06 0.000324051 0)
(-1.54675e-07 6.14589e-08 0)
(1.71933e-07 5.2225e-08 0)
(-4.58881e-06 2.64281e-05 0)
(1.01424e-05 0.000206124 0)
(9.40792e-06 0.000158128 0)
(7.81644e-06 0.00027312 0)
(-2.24285e-05 0.000293108 0)
(2.87652e-06 0.000120848 0)
(-1.84434e-06 0.000117672 0)
(-5.02308e-07 1.22208e-05 0)
(-1.41129e-06 1.47063e-06 0)
(-8.78298e-09 -7.90936e-09 0)
(-5.57353e-06 8.85413e-05 0)
(6.63426e-06 0.00013415 0)
(4.79459e-07 1.6794e-07 0)
(-7.39948e-07 0.00011593 0)
(-6.9787e-07 0.000114804 0)
(-1.48041e-08 9.72337e-05 0)
(-1.30475e-07 2.47125e-05 0)
(2.53905e-07 0.000161536 0)
(2.28349e-07 0.000209967 0)
(-4.81614e-07 1.68682e-07 0)
(1.98701e-06 1.32224e-05 0)
(-7.7381e-06 0.000238561 0)
(4.41342e-06 4.88556e-05 0)
(4.9621e-06 6.45565e-05 0)
(5.46179e-06 8.1997e-05 0)
(1.62788e-05 0.000311003 0)
(-5.94601e-06 2.3634e-05 0)
(1.39583e-05 0.000212594 0)
(1.29987e-05 0.000164153 0)
(-9.22097e-06 0.000286794 0)
(1.3336e-06 3.3883e-06 0)
(1.24452e-05 0.000281447 0)
(-2.64236e-06 4.15385e-06 0)
(8.72198e-06 0.000312244 0)
(-6.66985e-06 0.000238588 0)
(3.80006e-06 4.88343e-05 0)
(4.27267e-06 6.45341e-05 0)
(4.70605e-06 8.19679e-05 0)
(1.165e-06 3.21064e-06 0)
(5.74792e-06 0.000191071 0)
(-2.9646e-06 3.36933e-05 0)
(-1.00189e-06 1.3167e-05 0)
(-1.63246e-05 0.000282452 0)
(-6.04907e-06 7.37128e-05 0)
(-5.44398e-06 5.70616e-05 0)
(-4.7851e-06 4.22188e-05 0)
(8.2249e-06 0.00017561 0)
(8.77051e-06 0.000224861 0)
(2.24318e-05 0.000329675 0)
(1.30631e-05 0.000289184 0)
(1.44823e-05 0.000288685 0)
(1.80429e-07 1.25908e-07 0)
(8.10053e-06 8.80445e-05 0)
(-9.48735e-06 0.0001347 0)
(-4.11748e-06 8.93075e-05 0)
(4.82991e-06 0.000133289 0)
(-1.38642e-06 0.000143627 0)
(-1.0528e-06 0.000233595 0)
(6.75498e-07 6.77729e-05 0)
(6.03495e-07 5.17217e-05 0)
(3.80509e-08 3.6356e-05 0)
(-2.25225e-07 0.000139552 0)
(-9.78545e-08 0.000185981 0)
(1.02716e-05 0.000329229 0)
(5.79758e-07 1.35629e-05 0)
(-2.4916e-07 3.12559e-06 0)
(1.97289e-06 0.0001975 0)
(9.89572e-08 3.23272e-06 0)
(-1.50339e-06 1.01232e-05 0)
(3.78359e-06 3.62676e-05 0)
(-7.16138e-06 0.000186203 0)
(-1.40784e-07 1.54523e-07 0)
(-1.51197e-05 0.00028232 0)
(-1.24973e-06 2.42388e-05 0)
(2.69211e-06 0.000211093 0)
(2.66877e-06 0.000162554 0)
(3.37187e-07 8.09015e-08 0)
(-4.44267e-06 8.06542e-06 0)
(4.94138e-06 6.61627e-05 0)
(4.40497e-06 5.02875e-05 0)
(-7.60988e-06 0.000236089 0)
(1.47452e-06 9.20718e-05 0)
(-1.0227e-05 0.000319867 0)
(-1.69334e-07 2.37396e-08 0)
(-5.82074e-06 1.26299e-05 0)
(3.77091e-06 6.94563e-06 0)
(-3.79349e-06 4.15241e-06 0)
(1.13849e-05 0.000110653 0)
(8.66335e-06 0.000134727 0)
(-7.41844e-06 8.80139e-05 0)
(5.34016e-07 3.59835e-05 0)
(-1.23191e-06 0.000140083 0)
(-1.03072e-06 0.000186677 0)
(1.08871e-05 0.000278238 0)
(1.01208e-05 0.000121248 0)
(5.28018e-06 0.000322347 0)
(5.08696e-06 0.000323553 0)
(1.4775e-06 0.000134095 0)
(2.01126e-06 9.13789e-05 0)
(1.6905e-07 2.36978e-08 0)
(-1.46125e-05 0.000252197 0)
(5.27608e-06 1.80493e-05 0)
(1.83141e-08 2.47098e-07 0)
(2.80434e-06 0.00017988 0)
(3.66291e-06 0.000180506 0)
(4.94076e-09 2.14955e-08 0)
(-2.7647e-06 6.71879e-06 0)
(6.917e-06 6.72755e-05 0)
(6.17551e-06 5.12863e-05 0)
(5.3732e-06 3.70991e-05 0)
(-9.94741e-06 0.000184525 0)
(-1.05543e-05 0.000234438 0)
(9.20056e-06 0.000115371 0)
(1.35332e-06 0.000272982 0)
(-5.94917e-06 0.000307955 0)
(-5.63226e-06 0.000309585 0)
(-5.69467e-07 0.000237394 0)
(-4.87465e-07 0.000238703 0)
(4.08449e-07 4.87235e-05 0)
(3.72876e-07 4.94469e-05 0)
(4.59234e-07 6.44139e-05 0)
(4.18735e-07 6.5226e-05 0)
(3.04264e-07 8.18383e-05 0)
(3.63045e-07 8.27074e-05 0)
(7.3057e-07 0.000134545 0)
(1.3362e-06 0.000136714 0)
(2.32004e-06 0.000208628 0)
(-5.81441e-07 0.000143273 0)
(-3.37818e-07 8.10573e-08 0)
(-3.77305e-07 2.98054e-06 0)
(5.06348e-06 0.000190052 0)
(-2.63503e-06 3.42173e-05 0)
(1.32725e-06 4.14107e-06 0)
(1.97576e-05 0.000312536 0)
(-1.4995e-06 0.000239749 0)
(9.33619e-07 4.81733e-05 0)
(1.05072e-06 6.37956e-05 0)
(1.03724e-06 8.11201e-05 0)
(-1.5088e-05 0.000262458 0)
(5.19783e-06 9.35696e-05 0)
(7.71024e-06 0.000331795 0)
(8.71838e-06 0.000331054 0)
(-1.49431e-06 1.0439e-05 0)
(-9.53255e-07 0.000183541 0)
(5.04503e-07 3.76554e-05 0)
(2.21726e-07 2.25241e-07 0)
(1.93869e-05 0.000321379 0)
(-2.61723e-07 5.27193e-06 0)
(-3.62793e-06 5.46958e-05 0)
(-4.04386e-06 7.10872e-05 0)
(-4.83984e-06 7.18367e-05 0)
(-4.34609e-06 5.53706e-05 0)
(-3.1391e-06 4.01198e-05 0)
(-3.79806e-06 4.07287e-05 0)
(6.41503e-06 0.000178104 0)
(6.83477e-06 0.000227528 0)
(2.7618e-06 3.75797e-06 0)
(-1.77283e-07 1.07532e-07 0)
(-1.67144e-05 0.000217091 0)
(-1.7415e-05 0.000320721 0)
(5.68611e-06 0.000136606 0)
(-4.82674e-07 5.39493e-06 0)
(-9.03805e-06 0.00017778 0)
(-9.62369e-06 0.000227171 0)
(5.1451e-06 4.09775e-05 0)
(5.86752e-06 5.56486e-05 0)
(6.53152e-06 7.21419e-05 0)
(8.39887e-06 0.000274029 0)
(1.90636e-05 0.000322524 0)
(-1.02394e-05 0.000111651 0)
(4.21362e-06 3.67057e-05 0)
(-7.94185e-06 0.000185391 0)
(5.44111e-06 0.000137673 0)
(-2.05583e-06 9.79965e-05 0)
(5.47226e-06 6.67287e-05 0)
(4.88204e-06 5.07941e-05 0)
(-8.38873e-06 0.000235235 0)
(-1.52256e-05 0.000112939 0)
(1.48607e-05 0.000108271 0)
(1.48608e-05 0.000109483 0)
(-1.50251e-05 0.000111652 0)
(-6.99779e-06 1.86975e-05 0)
(-7.20317e-06 1.92806e-05 0)
(-7.05937e-06 0.000109465 0)
(-3.57535e-06 4.25184e-06 0)
(-1.14246e-05 0.000110309 0)
(-1.66583e-06 0.000263985 0)
(-1.46176e-06 1.74608e-06 0)
(1.1471e-05 6.42192e-05 0)
(1.01985e-05 4.85778e-05 0)
(-1.62029e-05 0.000165395 0)
(2.61672e-06 6.67697e-05 0)
(2.33469e-06 5.0826e-05 0)
(-4.02396e-06 0.000235129 0)
(5.35448e-06 1.61219e-05 0)
(8.96054e-06 0.000133632 0)
(-7.72675e-06 8.89629e-05 0)
(-4.21917e-06 4.73632e-06 0)
(4.6105e-06 0.000209466 0)
(4.40427e-06 0.000161209 0)
(-2.08418e-06 2.48831e-05 0)
(1.33554e-05 0.00019776 0)
(-6.5e-06 3.04304e-05 0)
(1.23239e-05 0.000150394 0)
(-7.40234e-06 1.84488e-05 0)
(9.41641e-06 0.000308576 0)
(1.07987e-05 0.000308124 0)
(1.04027e-05 0.000234445 0)
(9.85677e-06 0.000184545 0)
(-5.35197e-06 3.7205e-05 0)
(-6.12061e-06 5.12802e-05 0)
(-6.85563e-06 6.72689e-05 0)
(-1.53956e-06 1.51364e-06 0)
(-8.25116e-06 0.0002865 0)
(9.02198e-06 0.000182491 0)
(-4.97485e-06 3.8324e-05 0)
(-9.35608e-07 1.16207e-06 0)
(7.71432e-06 0.000312041 0)
(1.86003e-06 1.5246e-06 0)
(1.54261e-06 1.15602e-06 0)
(3.91297e-06 5.55807e-06 0)
(9.32489e-06 0.000250671 0)
(-1.57679e-05 0.000257591 0)
(2.10092e-05 0.000312936 0)
(3.96316e-06 5.84297e-06 0)
(9.21647e-06 0.000121211 0)
(1.26527e-05 0.000265832 0)
(-2.03059e-05 0.000251321 0)
(7.41502e-06 1.84901e-05 0)
(-4.65578e-06 0.000267506 0)
(1.89728e-06 6.69777e-05 0)
(1.69329e-06 5.10113e-05 0)
(-2.92079e-06 0.000234806 0)
(-6.95759e-07 3.33953e-06 0)
(5.39112e-06 0.000144162 0)
(1.5324e-07 6.09268e-08 0)
(-6.15356e-06 1.2508e-05 0)
(-1.08911e-06 0.000118406 0)
(-2.75582e-06 2.27299e-05 0)
(-3.2078e-06 2.28803e-05 0)
(6.13324e-06 0.000165894 0)
(7.119e-06 0.000165585 0)
(7.63823e-06 0.000214144 0)
(6.57951e-06 0.000214477 0)
(1.81054e-07 6.71257e-07 0)
(-4.4869e-08 8.42566e-06 0)
(-1.1e-05 0.000148991 0)
(-1.19321e-05 0.000196243 0)
(5.85691e-06 3.11515e-05 0)
(-3.43767e-06 1.85237e-05 0)
(-2.05792e-06 0.000201796 0)
(-3.11074e-06 7.92289e-06 0)
(6.45378e-06 0.000309071 0)
(-5.17861e-06 0.000100787 0)
(-6.00121e-06 0.000100532 0)
(1.76829e-07 1.78274e-07 0)
(-3.42941e-06 0.000104251 0)
(-1.73175e-06 2.0907e-05 0)
(4.0258e-06 0.000169975 0)
(4.30808e-06 0.000218849 0)
(-4.8198e-06 0.000201829 0)
(-4.23907e-06 0.000154076 0)
(2.13405e-06 2.83954e-05 0)
(2.83082e-06 1.06384e-05 0)
(2.62918e-06 1.02512e-05 0)
(1.38644e-06 0.000100491 0)
(-1.79116e-06 0.000214065 0)
(-1.6776e-06 0.000165482 0)
(7.4234e-07 2.28853e-05 0)
(-1.63827e-06 3.94824e-05 0)
(-2.92944e-06 8.14442e-06 0)
(1.20157e-05 0.000316353 0)
(-1.17047e-05 0.000188893 0)
(9.01076e-06 8.86104e-05 0)
(-1.05082e-05 0.000134064 0)
(1.28073e-05 0.000267035 0)
(-1.17231e-05 8.14204e-05 0)
(-1.06658e-05 6.40274e-05 0)
(1.43741e-05 0.000142743 0)
(-9.47955e-06 4.84037e-05 0)
(-8.19334e-06 3.46707e-05 0)
(1.57051e-05 0.000189486 0)
(1.66065e-05 0.000239602 0)
(-4.30338e-06 0.000229243 0)
(-4.04713e-06 0.000179722 0)
(2.58279e-06 5.43414e-05 0)
(2.26e-06 3.98231e-05 0)
(2.88011e-06 7.06941e-05 0)
(2.47039e-06 5.51257e-05 0)
(-4.08703e-06 0.000227954 0)
(2.75176e-06 7.15674e-05 0)
(2.16483e-06 4.05107e-05 0)
(-3.84115e-06 0.000178509 0)
(-2.26737e-06 0.000291016 0)
(-4.56274e-06 5.96311e-06 0)
(-4.96635e-06 2.81263e-05 0)
(1.06271e-05 0.000202466 0)
(9.83547e-06 0.000154738 0)
(-3.12203e-06 3.79136e-05 0)
(5.72538e-06 0.000183193 0)
(1.57638e-05 0.000227144 0)
(1.48028e-05 0.000177768 0)
(-8.47478e-06 4.10866e-05 0)
(-9.66364e-06 5.57553e-05 0)
(-1.07557e-05 7.22461e-05 0)
(1.66101e-05 0.000247987 0)
(1.81281e-05 0.000247671 0)
(4.04302e-07 7.18741e-06 0)
(-1.66492e-06 0.000116461 0)
(-4.42509e-06 1.21916e-05 0)
(2.26067e-07 4.18207e-07 0)
(-4.35822e-06 1.54941e-05 0)
(-6.95241e-07 0.000264514 0)
(1.82979e-07 6.87768e-06 0)
(-3.63243e-06 0.000124839 0)
(1.5049e-05 0.000165494 0)
(-6.78455e-06 2.30744e-05 0)
(1.61461e-05 0.000214027 0)
(-1.49093e-08 -1.03332e-08 0)
(1.01302e-06 0.000197689 0)
(2.83634e-07 1.19194e-07 0)
(1.93616e-07 1.42171e-07 0)
(2.67665e-06 0.000141839 0)
(-3.23758e-07 2.60573e-07 0)
(1.22795e-05 0.000318725 0)
(9.23607e-07 0.000180454 0)
(-4.82553e-07 3.9362e-05 0)
(2.65946e-06 1.57723e-05 0)
(1.69629e-06 0.000179891 0)
(-9.40784e-07 3.96508e-05 0)
(-1.58444e-07 3.47826e-06 0)
(-1.14537e-05 6.41862e-05 0)
(-1.01821e-05 4.85487e-05 0)
(-8.80192e-06 3.48063e-05 0)
(-7.30955e-06 2.31308e-05 0)
(1.61987e-05 0.000165431 0)
(1.68428e-05 0.000189277 0)
(1.73802e-05 0.000213956 0)
(1.7816e-05 0.000239384 0)
(-7.87604e-06 0.000258355 0)
(-6.99737e-06 0.000307355 0)
(-2.26312e-05 0.000253619 0)
(8.08635e-06 1.77059e-05 0)
(5.17683e-06 0.000325904 0)
(6.02034e-06 0.000324495 0)
(1.61438e-06 0.000175889 0)
(1.7509e-06 0.000225188 0)
(-1.23011e-06 7.35254e-05 0)
(-1.10676e-06 5.68866e-05 0)
(-9.72463e-07 4.20579e-05 0)
(-6.42514e-06 1.84971e-05 0)
(2.34139e-06 1.3249e-05 0)
(-8.74001e-06 7.70457e-05 0)
(1.16021e-05 0.000171173 0)
(-7.89557e-06 6.00764e-05 0)
(-6.97512e-06 4.48871e-05 0)
(1.24044e-05 0.000220117 0)
(-4.88317e-06 2.05049e-05 0)
(1.25622e-05 0.000245749 0)
(2.11564e-06 0.000111522 0)
(-1.30847e-06 0.000274629 0)
(1.27758e-06 6.36694e-07 0)
(-9.56561e-07 0.000241022 0)
(6.20553e-07 4.74526e-05 0)
(6.99126e-07 6.29852e-05 0)
(6.5122e-07 8.02257e-05 0)
(3.93792e-06 0.000284556 0)
(-5.2943e-07 3.34211e-07 0)
(1.99275e-05 0.000279983 0)
(-2.98086e-06 0.000118236 0)
(-8.92027e-08 1.90328e-07 0)
(7.12898e-06 0.000168496 0)
(-3.11088e-06 2.15793e-05 0)
(7.63501e-06 0.000217263 0)
(1.54467e-07 1.19882e-07 0)
(-4.17965e-06 2.60537e-05 0)
(8.63545e-06 0.00015887 0)
(9.30508e-06 0.000206925 0)
(1.44477e-06 1.88365e-06 0)
(-6.04423e-06 0.000103024 0)
(1.28673e-06 0.000110195 0)
(-1.37852e-05 0.000299305 0)
(1.27783e-06 0.000176852 0)
(1.36239e-06 0.00022619 0)
(-1.03801e-06 7.28138e-05 0)
(-8.17263e-07 4.1497e-05 0)
(-9.33101e-07 5.62457e-05 0)
(2.04938e-06 0.000112351 0)
(-2.83487e-07 1.07305e-06 0)
(-2.50559e-07 3.66102e-06 0)
(6.13858e-07 0.000264081 0)
(1.35632e-05 0.000120852 0)
(-1.27049e-05 0.000100542 0)
(-9.67267e-06 0.000335048 0)
(-2.19642e-05 0.000218599 0)
(-2.05297e-05 0.000169779 0)
(-2.13112e-05 0.000193777 0)
(-1.96162e-05 0.000146749 0)
(1.07124e-05 3.26017e-05 0)
(1.24675e-05 4.59708e-05 0)
(1.40848e-05 6.12659e-05 0)
(1.55676e-05 7.83311e-05 0)
(2.19383e-05 0.000218596 0)
(2.12852e-05 0.000193776 0)
(-1.07263e-05 3.26025e-05 0)
(-1.24832e-05 4.59724e-05 0)
(2.05028e-05 0.000169778 0)
(-1.4103e-05 6.12671e-05 0)
(1.95919e-05 0.000146748 0)
(-1.55879e-05 7.83324e-05 0)
(-6.18362e-06 1.79784e-05 0)
(-3.39842e-06 0.000274043 0)
(-2.42109e-06 0.00027378 0)
(-3.01499e-06 0.000310507 0)
(5.02e-06 0.000187698 0)
(-2.66368e-06 3.54567e-05 0)
(-9.50957e-07 1.3953e-06 0)
(-3.90354e-06 0.000328228 0)
(-4.26996e-06 7.01441e-05 0)
(-5.23196e-06 6.98789e-05 0)
(-3.82636e-06 5.38495e-05 0)
(-4.68687e-06 5.36134e-05 0)
(6.36019e-06 0.000230469 0)
(7.63808e-06 0.000230577 0)
(1.67784e-05 0.000226551 0)
(1.57505e-05 0.000177214 0)
(-9.05672e-06 4.14265e-05 0)
(-1.032e-05 5.61385e-05 0)
(-1.14804e-05 7.26691e-05 0)
(-1.01374e-05 0.000149518 0)
(-1.09924e-05 0.000196817 0)
(5.36767e-06 3.08528e-05 0)
(-3.18153e-06 0.000133835 0)
(2.70573e-06 8.87583e-05 0)
(3.31638e-06 0.000237021 0)
(-1.92321e-06 4.96396e-05 0)
(-2.15974e-06 6.54412e-05 0)
(-2.34162e-06 8.27973e-05 0)
(6.25507e-06 8.76959e-05 0)
(5.3011e-06 8.79211e-05 0)
(-7.34895e-06 0.000135067 0)
(-6.22173e-06 0.000134789 0)
(-7.40749e-06 0.000325763 0)
(4.93486e-07 1.33955e-06 0)
(1.23394e-05 0.00028029 0)
(4.43745e-06 9.74589e-05 0)
(1.20917e-05 0.000193571 0)
(-6.09758e-06 3.24928e-05 0)
(1.11271e-05 0.000146528 0)
(-1.0332e-05 0.000116964 0)
(2.49684e-06 2.45729e-05 0)
(-5.77361e-06 0.000210168 0)
(-5.37044e-06 0.00016188 0)
(7.23131e-07 0.000101424 0)
(-8.88731e-07 0.000166591 0)
(-9.46207e-07 0.00021525 0)
(3.82582e-07 2.23828e-05 0)
(6.96445e-06 9.18108e-05 0)
(-7.94529e-06 0.000130305 0)
(-3.8045e-06 0.000291012 0)
(-1.76438e-05 0.00028822 0)
(3.15569e-06 0.000124273 0)
(7.9159e-06 0.000124666 0)
(-6.36718e-06 2.38794e-05 0)
(1.48716e-05 0.000212065 0)
(1.38449e-05 0.000163663 0)
(-7.02514e-07 2.96835e-06 0)
(-2.38181e-06 0.000242703 0)
(1.32481e-06 4.64959e-05 0)
(1.4952e-06 6.19077e-05 0)
(1.6396e-06 7.90484e-05 0)
(-3.63786e-06 0.000117655 0)
(-1.63542e-05 0.000288317 0)
(-4.68121e-06 4.65527e-05 0)
(-5.28347e-06 6.19653e-05 0)
(-5.81563e-06 7.91434e-05 0)
(8.34553e-06 0.000242618 0)
(1.49556e-08 1.93633e-08 0)
(1.02427e-05 0.000116023 0)
(1.31529e-07 8.98351e-06 0)
(-4.80252e-07 8.31822e-07 0)
(-9.98812e-07 3.84368e-06 0)
(-4.8017e-06 1.65273e-05 0)
(-4.90049e-07 1.80047e-07 0)
(2.01406e-06 5.25842e-05 0)
(1.76461e-06 3.82588e-05 0)
(2.25145e-06 6.87356e-05 0)
(-3.41649e-06 0.000232153 0)
(-3.23377e-06 0.000182507 0)
(-9.93588e-06 9.6172e-05 0)
(1.079e-05 0.00012542 0)
(-9.71714e-07 5.6996e-07 0)
(1.3119e-05 0.000308681 0)
(9.46435e-06 0.000276056 0)
(-2.01395e-05 0.000259781 0)
(7.4551e-06 0.000123698 0)
(2.69233e-06 0.000134404 0)
(-5.06526e-06 0.000328079 0)
(-1.40916e-05 0.000140846 0)
(-1.34035e-05 0.000140221 0)
(1.98973e-05 0.000327982 0)
(-1.58621e-06 0.000292468 0)
(-4.44896e-06 8.83985e-05 0)
(5.36487e-06 0.000134378 0)
(1.62853e-07 9.29951e-06 0)
(2.43597e-06 3.27793e-06 0)
(4.87035e-07 1.78947e-07 0)
(4.7443e-06 0.000143216 0)
(1.75369e-05 0.000334733 0)
(-9.60136e-06 0.000232193 0)
(-9.03249e-06 0.000182502 0)
(4.95568e-06 3.83058e-05 0)
(6.36022e-06 6.87525e-05 0)
(5.68953e-06 5.26062e-05 0)
(-1.78529e-07 1.24338e-07 0)
(-7.14814e-07 0.000304456 0)
(8.97552e-06 0.000125036 0)
(-8.1508e-06 9.6663e-05 0)
(-1.43887e-05 0.00029705 0)
(-2.14839e-05 0.000219722 0)
(-2.08497e-05 0.000194862 0)
(-2.00941e-05 0.000170827 0)
(-1.92066e-05 0.000147751 0)
(1.03855e-05 3.20406e-05 0)
(1.21066e-05 4.53214e-05 0)
(1.36927e-05 6.05346e-05 0)
(1.51473e-05 7.75248e-05 0)
(2.1456e-05 0.000219714 0)
(2.08238e-05 0.000194861 0)
(-1.03987e-05 3.20436e-05 0)
(-1.21209e-05 4.53247e-05 0)
(2.00647e-05 0.000170823 0)
(-1.37094e-05 6.05378e-05 0)
(1.91806e-05 0.000147746 0)
(-1.51659e-05 7.75283e-05 0)
(-3.10068e-06 4.14588e-06 0)
(1.2191e-06 1.13977e-06 0)
(-1.63181e-06 2.97219e-06 0)
(7.99114e-06 0.000122673 0)
(-8.76384e-06 0.000126332 0)
(1.55609e-06 1.86345e-06 0)
(-2.40802e-07 4.0218e-08 0)
(-1.93663e-05 0.00026041 0)
(1.10951e-05 0.000331348 0)
(1.24508e-05 0.000331975 0)
(2.40484e-07 4.01648e-08 0)
(3.5071e-06 4.65358e-06 0)
(1.73737e-05 0.000301552 0)
(-6.58935e-06 0.000139722 0)
(-4.27093e-07 3.7189e-07 0)
(-9.67515e-07 1.49373e-06 0)
(-1.50955e-07 3.85765e-08 0)
(2.83144e-07 2.18855e-07 0)
(1.79212e-05 0.000111256 0)
(-1.78731e-05 0.000109963 0)
(5.49204e-06 8.38014e-05 0)
(-6.75356e-06 0.000137156 0)
(5.70298e-06 8.59621e-05 0)
(-2.9159e-07 4.96195e-06 0)
(-4.16285e-06 0.000219676 0)
(3.29499e-06 0.000104943 0)
(-2.32153e-06 0.000217283 0)
(-2.21977e-06 0.000168387 0)
(9.5369e-07 2.15903e-05 0)
(1.81236e-06 0.000103032 0)
(-7.34943e-06 0.000139007 0)
(3.7378e-06 4.93106e-06 0)
(6.15162e-06 8.44367e-05 0)
(2.29178e-06 0.000124464 0)
(1.74599e-05 0.000311445 0)
(-5.30492e-06 0.000125494 0)
(-6.10011e-06 0.000126351 0)
(-4.91206e-06 1.0461e-05 0)
(-5.91618e-06 0.00013038 0)
(-5.05889e-06 0.000129473 0)
(5.26593e-06 9.16592e-05 0)
(4.62624e-06 9.25663e-05 0)
(-5.52001e-06 2.55057e-05 0)
(1.1557e-05 0.000160105 0)
(1.24427e-05 0.000208248 0)
(-1.51779e-06 1.68154e-06 0)
(-7.3629e-06 0.000137888 0)
(6.19475e-06 8.53824e-05 0)
(-4.69519e-06 0.000177589 0)
(-4.99955e-06 0.000226974 0)
(2.66955e-06 4.10434e-05 0)
(3.3875e-06 7.22399e-05 0)
(3.04362e-06 5.57311e-05 0)
(-2.42443e-06 1.12997e-05 0)
(-1.53988e-05 0.000187319 0)
(-1.4592e-05 0.000186725 0)
(8.11396e-06 3.57983e-05 0)
(7.71866e-06 3.61098e-05 0)
(1.01489e-05 0.000148554 0)
(1.11575e-05 0.00014782 0)
(-5.45245e-06 3.137e-05 0)
(-6.03768e-06 3.17867e-05 0)
(1.10128e-05 0.000195772 0)
(1.21136e-05 0.000194973 0)
(-4.42639e-06 0.000289941 0)
(8.84797e-06 0.000264688 0)
(8.97527e-06 0.000263448 0)
(-6.52604e-06 8.597e-05 0)
(7.68069e-06 0.000137122 0)
(-2.31965e-05 0.000323148 0)
(-6.67549e-06 0.000257616 0)
(-6.41067e-06 0.000256404 0)
(2.21497e-06 1.64344e-05 0)
(2.27627e-06 1.60149e-05 0)
(2.0032e-05 0.00026049 0)
(-8.84051e-06 0.000110408 0)
(-7.58922e-06 0.000110446 0)
(1.98191e-05 0.000294225 0)
(-2.00349e-05 0.000310215 0)
(-2.0009e-05 0.000311697 0)
(-6.0528e-07 3.07148e-06 0)