/*--------------------------------*- C++ -*----------------------------------*\
| =========                 |                                                 |
| \\      /  F ield         | OpenFOAM: The Open Source CFD Toolbox           |
|  \\    /   O peration     | Version:  2.3.1                                 |
|   \\  /    A nd           | Web:      www.OpenFOAM.org                      |
|    \\/     M anipulation  |                                                 |
\*---------------------------------------------------------------------------*/
FoamFile
{
    version     2.0;
    format      ascii;
    class       volVectorField;
    location    "100";
    object      U;
}
// * * * * * * * * * * * * * * * * * * * * * * * * * * * * * * * * * * * * * //

dimensions      [0 1 -1 0 0 0 0];

internalField   nonuniform List<vector> 
10720
(
(0.151204 29.45 4.85224e-18)
(2.03614 31.7038 -4.51154e-18)
(4.36183 33.8591 0)
(7.00662 35.485 -3.13416e-16)
(9.90642 36.6854 3.48019e-16)
(12.9908 37.42 2.58266e-16)
(16.0995 37.5858 3.85038e-16)
(19.1396 37.2294 0)
(22.0328 36.4181 0)
(24.7026 35.193 0)
(27.1223 33.6415 1.19237e-16)
(29.2735 31.8435 0)
(31.1255 29.812 2.08355e-15)
(32.6877 27.6021 0)
(33.9522 25.245 0)
(34.9318 22.7909 0)
(35.6145 20.2628 -3.46822e-15)
(36.0049 17.7139 -5.20154e-15)
(36.0848 15.1686 4.60133e-15)
(35.8654 12.6858 0)
(35.3292 10.3005 3.69378e-15)
(34.5135 8.08286 -7.1577e-15)
(33.4659 6.08241 3.51034e-15)
(32.2963 4.35888 -1.04395e-16)
(31.203 2.95635 0)
(30.2699 1.82124 1.29037e-15)
(29.4001 0.865487 1.96932e-17)
(28.4939 0.0469823 -5.26017e-16)
(27.5135 -0.657014 -1.82254e-15)
(26.4546 -1.26087 -6.21546e-15)
(25.3193 -1.77085 2.53318e-15)
(24.11 -2.18989 4.07735e-15)
(22.822 -2.51828 2.89706e-15)
(21.4449 -2.75584 6.79618e-15)
(19.9273 -2.8969 -8.2579e-16)
(18.2311 -2.93891 4.20989e-18)
(16.0387 -2.82468 -5.63969e-17)
(13.5183 -2.55328 -4.02117e-14)
(7.87978 -2.00468 6.71788e-14)
(-1.36352 27.0237 -5.50659e-18)
(-2.61995 24.2702 -2.3218e-17)
(-3.54642 21.1503 7.87892e-17)
(-4.00577 17.5002 -2.15857e-16)
(-3.83796 13.7083 -6.55333e-16)
(-2.98575 9.89407 1.07438e-15)
(-1.49114 6.32967 5.10671e-15)
(0.414412 3.34294 3.20223e-15)
(2.41854 0.970685 0)
(4.59848 -1.13541 0)
(6.88182 -2.7724 3.19731e-15)
(9.03248 -3.86961 1.19353e-15)
(10.9557 -4.53193 -1.99386e-15)
(12.648 -4.88525 1.68325e-15)
(14.1324 -5.03337 2.87775e-15)
(15.4409 -5.04391 1.90975e-15)
(16.6031 -4.96711 2.53985e-15)
(17.6506 -4.83403 1.7639e-15)
(18.6142 -4.66617 0)
(19.5167 -4.46798 0)
(20.3763 -4.24188 -2.92223e-15)
(21.2049 -3.97832 -1.56793e-16)
(22.0048 -3.66245 2.46524e-15)
(22.7465 -3.26394 -2.05078e-15)
(23.3644 -2.77753 2.33207e-17)
(23.8402 -2.24019 0)
(24.199 -1.67809 7.63386e-16)
(24.4572 -1.10725 0)
(24.6198 -0.538663 0)
(24.693 0.0161599 6.38128e-16)
(24.6583 0.548285 0)
(24.5167 1.05098 -2.40542e-15)
(24.2856 1.51865 -4.66538e-15)
(23.9821 1.94619 -2.33562e-14)
(23.6044 2.32996 9.48433e-15)
(23.1474 2.67112 -3.71446e-17)
(22.4928 2.9633 0)
(21.598 3.17263 2.19397e-14)
(18.9545 3.36439 2.62832e-14)
(7.06567 25.6556 -1.51661e-17)
(9.05541 27.3786 9.14431e-18)
(11.4651 28.9226 0)
(14.2203 30.1811 0)
(17.1673 31.098 -9.80715e-17)
(20.3092 31.6133 -2.47428e-16)
(23.5248 31.6846 0)
(26.6765 31.3385 0)
(29.7085 30.5893 5.37235e-16)
(32.532 29.4919 0)
(35.0928 28.1082 2.07681e-15)
(37.3681 26.5024 0)
(39.3589 24.7599 7.49868e-16)
(41.0667 22.9109 -7.3947e-16)
(42.4807 20.978 1.48118e-15)
(43.5785 18.9863 -2.9637e-15)
(44.3619 16.9489 3.20937e-15)
(44.8221 14.8921 2.89203e-15)
(44.961 12.8253 2.81981e-15)
(44.7633 10.7813 1.69948e-16)
(44.2311 8.78696 -2.92356e-15)
(43.3585 6.89824 2.73816e-15)
(42.1732 5.15714 -1.52901e-16)
(40.7142 3.62178 0)
(39.094 2.34292 0)
(37.4608 1.26693 0)
(35.8708 0.316716 1.02197e-16)
(34.3137 -0.518516 -2.14916e-17)
(32.7883 -1.24221 1.31997e-15)
(31.2873 -1.86158 3.59951e-17)
(29.7933 -2.37981 -2.83769e-17)
(28.2866 -2.79963 -6.28307e-17)
(26.7466 -3.12293 1.94114e-15)
(25.1561 -3.35152 -2.24094e-15)
(23.4705 -3.48419 2.91741e-18)
(21.6677 -3.52073 2.71303e-15)
(19.468 -3.41577 0)
(17.1132 -3.17528 1.12214e-14)
(11.4813 -2.38026 3.53389e-14)
(5.3697 23.809 2.07145e-17)
(3.88274 21.7458 -6.97721e-17)
(2.55024 19.3193 -7.59301e-16)
(1.50677 16.5476 8.99646e-16)
(0.929804 13.5233 0)
(0.911034 10.3726 -1.72473e-15)
(1.49566 7.28983 -1.20175e-15)
(2.62291 4.53026 -1.00246e-14)
(4.09898 2.15009 3.52938e-15)
(5.81594 0.136897 -2.67767e-15)
(7.68125 -1.37868 3.34721e-15)
(9.53963 -2.41477 -9.58333e-16)
(11.2958 -3.08077 0)
(12.911 -3.47694 -6.89554e-16)
(14.374 -3.68785 4.99643e-17)
(15.6943 -3.76827 -1.6389e-15)
(16.8861 -3.76443 0)
(17.9713 -3.70334 0)
(18.973 -3.60457 -1.95663e-16)
(19.9136 -3.46711 1.87602e-16)
(20.8085 -3.29014 -2.45081e-15)
(21.6701 -3.05795 -2.90923e-16)
(22.5004 -2.75123 1.3483e-16)
(23.2766 -2.33366 1.85105e-15)
(23.9452 -1.81806 -1.67875e-15)
(24.4817 -1.27102 -1.45753e-15)
(24.9017 -0.72106 0)
(25.2179 -0.179394 0)
(25.4348 0.34769 0)
(25.5509 0.851537 8.52095e-18)
(25.5938 1.3243 0)
(25.5718 1.76164 0)
(25.4765 2.16281 7.96701e-15)
(25.3006 2.52725 7.79086e-15)
(25.0346 2.85711 -7.74441e-15)
(24.6887 3.15846 7.84071e-15)
(24.1617 3.43083 -1.59256e-14)
(23.6616 3.67416 -1.66721e-14)
(21.6646 3.74872 -1.83418e-14)
(8.24401 23.6364 -4.03312e-18)
(9.69505 25.1503 -3.66589e-17)
(11.4454 26.6105 2.64067e-17)
(13.4446 27.9393 -2.97397e-18)
(15.6345 29.02 -1.02414e-16)
(18.0147 29.8282 3.97259e-16)
(20.5075 30.3247 -2.89801e-16)
(23.035 30.4748 -3.63882e-16)
(25.5417 30.2793 2.69444e-18)
(27.9698 29.7522 -5.20252e-16)
(30.2679 28.9164 4.68135e-16)
(32.405 27.8014 -1.30703e-15)
(34.3562 26.4391 -6.14779e-16)
(36.1061 24.862 0)
(37.6512 23.1018 -1.52264e-15)
(39.0043 21.1844 3.04761e-15)
(40.1618 19.1358 0)
(41.1019 17.0008 -5.71183e-15)
(41.8142 14.809 -2.85576e-15)
(42.2709 12.612 3.27539e-16)
(42.4594 10.4469 -3.24896e-16)
(42.3581 8.38056 -1.43384e-16)
(41.9681 6.46115 -2.01044e-15)
(41.2978 4.74962 9.90142e-16)
(40.3995 3.29032 0)
(39.3521 2.02854 8.19698e-16)
(38.1788 0.896745 -9.42658e-17)
(36.8765 -0.10566 0)
(35.4647 -0.976101 1.13728e-15)
(33.9713 -1.71938 1.98786e-15)
(32.4168 -2.33885 -3.19845e-15)
(30.8133 -2.83882 -2.43264e-15)
(29.161 -3.22398 -6.42347e-17)
(27.4533 -3.49854 -1.88622e-15)
(25.6509 -3.66378 -3.91064e-16)
(23.7328 -3.71821 -2.31919e-15)
(21.4416 -3.62503 0)
(19.0188 -3.34605 9.03594e-15)
(13.8574 -2.66649 -5.23702e-14)
(7.04552 22.0308 -2.58806e-17)
(5.98393 20.2654 -7.95212e-17)
(5.07539 18.1764 3.146e-16)
(4.32489 15.8229 0)
(3.88446 13.2846 5.36276e-16)
(3.80629 10.6222 0)
(4.12702 7.9624 3.56946e-15)
(4.83902 5.48669 2.25375e-15)
(5.88213 3.28325 2.25375e-15)
(7.19649 1.39099 0)
(8.67602 -0.13345 -3.36385e-15)
(10.2052 -1.29528 -7.3864e-16)
(11.7054 -2.14677 3.37005e-15)
(13.1317 -2.74588 0)
(14.462 -3.14561 -1.65294e-15)
(15.6924 -3.39117 -5.08608e-16)
(16.8274 -3.5221 2.22812e-15)
(17.8788 -3.56641 1.2085e-15)
(18.8624 -3.54427 3.57002e-16)
(19.7948 -3.46259 -1.83112e-16)
(20.6881 -3.32497 2.24098e-15)
(21.5514 -3.1239 0)
(22.3848 -2.8466 0)
(23.1694 -2.47172 2.28518e-17)
(23.8618 -2.01245 0)
(24.4386 -1.51656 2.92445e-15)
(24.91 -1.00331 -4.29772e-17)
(25.2873 -0.4806 -3.1132e-16)
(25.5741 0.0436384 0)
(25.772 0.559179 -5.50791e-16)
(25.8858 1.05766 1.07402e-15)
(25.9211 1.5334 0)
(25.8811 1.98094 -4.00848e-15)
(25.7672 2.3951 0)
(25.5691 2.77421 0)
(25.2886 3.11937 3.98119e-17)
(24.8167 3.43191 -1.92327e-18)
(24.2879 3.67362 1.66766e-14)
(22.5141 3.76535 3.56357e-14)
(10.8124 21.6813 -2.2181e-17)
(12.1535 22.974 -2.88357e-17)
(13.7501 24.2234 3.47101e-17)
(15.5743 25.3523 2.89594e-17)
(17.5743 26.2724 0)
(19.7559 26.9643 0)
(22.0591 27.3856 -4.41714e-16)
(24.4201 27.5037 5.93598e-16)
(26.7907 27.3133 0)
(29.1147 26.8195 -7.76125e-16)
(31.3401 26.039 -1.0581e-15)
(33.4291 24.9965 -9.82565e-16)
(35.3472 23.725 1.22217e-15)
(37.0689 22.2597 1.13462e-15)
(38.5776 20.6339 0)
(39.851 18.8864 1.8099e-15)
(40.8634 17.0581 6.30354e-16)
(41.612 15.1768 5.08361e-15)
(42.0969 13.2679 3.05545e-16)
(42.3248 11.3607 -3.03349e-16)
(42.3042 9.48687 2.52019e-15)
(42.0505 7.69105 -4.10563e-16)
(41.591 6.01374 2.20576e-15)
(40.9605 4.49895 8.86599e-16)
(40.2123 3.17786 -5.11122e-17)
(39.401 2.01349 -7.3977e-16)
(38.5278 0.951681 5.17038e-18)
(37.5585 -0.0121177 -5.18922e-18)
(36.4734 -0.874258 -1.08549e-15)
(35.2667 -1.63482 -2.5735e-17)
(33.937 -2.28962 1.54757e-15)
(32.4891 -2.83414 -2.29219e-15)
(30.9279 -3.26512 -1.5206e-15)
(29.2586 -3.58073 3.12222e-17)
(27.4562 -3.7787 3.47293e-16)
(25.509 -3.85271 0)
(23.1846 -3.77067 -4.93792e-15)
(20.6847 -3.44886 -7.84965e-15)
(15.8205 -2.82387 2.15974e-14)
(9.67508 20.3204 -3.86025e-17)
(8.6463 18.836 1.20225e-16)
(7.72902 17.0784 4.67102e-16)
(6.94458 15.0817 0)
(6.42382 12.9188 -4.80778e-16)
(6.20758 10.6298 0)
(6.3255 8.31383 -2.94055e-15)
(6.77185 6.11452 -1.03014e-16)
(7.50961 4.10486 1.64621e-15)
(8.49835 2.32767 1.48172e-15)
(9.65965 0.837153 3.87727e-17)
(10.9119 -0.352136 2.53223e-15)
(12.192 -1.26565 -1.70698e-15)
(13.4531 -1.94194 5.41267e-16)
(14.6656 -2.42045 1.92973e-15)
(15.8151 -2.74067 2.19975e-15)
(16.8969 -2.93723 -2.03182e-15)
(17.9135 -3.03791 4.3041e-18)
(18.8736 -3.06327 0)
(19.788 -3.02361 2.44588e-15)
(20.666 -2.92298 1.33545e-16)
(21.5135 -2.75659 -2.12905e-15)
(22.3301 -2.51409 0)
(23.0995 -2.17909 2.15214e-17)
(23.7856 -1.75884 0)
(24.3655 -1.29164 -1.33519e-15)
(24.8448 -0.800272 0)
(25.2335 -0.296661 2.92167e-16)
(25.5354 0.208982 -1.27688e-17)
(25.7531 0.706032 8.32604e-18)
(25.891 1.18568 -9.70524e-16)
(25.9546 1.64046 -3.09129e-17)
(25.9476 2.06574 0)
(25.8728 2.45894 3.74833e-15)
(25.7216 2.82061 5.88103e-17)
(25.4956 3.15133 -7.60826e-15)
(25.0926 3.45455 3.1341e-14)
(24.6126 3.66517 6.03585e-17)
(23.0298 3.75069 0)
(12.3628 20.1871 -3.19479e-17)
(13.5014 21.3337 -2.19241e-17)
(14.8644 22.4647 6.78342e-17)
(16.4139 23.5136 -1.36074e-16)
(18.1058 24.3994 1.56189e-17)
(19.9617 25.1156 -5.77901e-17)
(21.9319 25.6222 1.78199e-16)
(23.967 25.8847 0)
(26.0358 25.8934 8.18378e-16)
(28.0911 25.6427 4.35018e-16)
(30.0915 25.1347 0)
(32.0033 24.381 9.44964e-16)
(33.793 23.3996 -5.02819e-16)
(35.4335 22.2112 1.36959e-15)
(36.9038 20.8374 0)
(38.1826 19.3026 -2.39083e-15)
(39.2639 17.618 2.21791e-15)
(40.1327 15.8125 -1.68625e-16)
(40.7735 13.9206 0)
(41.1714 11.9877 2.38698e-15)
(41.3178 10.0596 -2.41595e-15)
(41.2134 8.19381 -1.20329e-16)
(40.8776 6.44258 -1.80777e-15)
(40.3473 4.85656 -1.64287e-15)
(39.6829 3.47035 0)
(38.9506 2.25628 0)
(38.1745 1.16253 -1.61674e-16)
(37.3421 0.175297 -1.70335e-17)
(36.4416 -0.707419 1.01708e-15)
(35.4638 -1.49012 -2.43164e-17)
(34.3925 -2.17273 2.42692e-17)
(33.2085 -2.75215 2.14051e-15)
(31.8921 -3.2237 0)
(30.4281 -3.582 3.18521e-15)
(28.7831 -3.82026 -7.40529e-18)
(26.9439 -3.92539 0)
(24.699 -3.8662 -2.55912e-17)
(22.2182 -3.52193 0)
(17.5821 -2.91347 -1.86746e-14)
(11.3918 18.9866 4.90381e-17)
(10.5113 17.69 -2.62658e-16)
(9.70592 16.1544 2.8234e-16)
(8.98908 14.4122 3.9868e-16)
(8.47683 12.5315 -1.61883e-15)
(8.20023 10.5318 -2.00952e-15)
(8.19246 8.49094 2.47309e-15)
(8.45651 6.52501 -2.79923e-15)
(8.97408 4.69846 -1.2875e-15)
(9.71906 3.05273 -1.16548e-15)
(10.6324 1.6327 2.24184e-15)
(11.6538 0.456977 -2.16329e-15)
(12.7342 -0.487272 -9.82522e-16)
(13.8322 -1.22421 9.54154e-16)
(14.9169 -1.7788 -2.16414e-15)
(15.9703 -2.18073 4.03306e-16)
(16.982 -2.45658 0)
(17.9486 -2.62921 -1.68414e-15)
(18.8727 -2.71642 6.20439e-16)
(19.7602 -2.72915 -2.54585e-15)
(20.6168 -2.67206 0)
(21.4458 -2.54297 1.84787e-15)
(22.2453 -2.33469 1.581e-15)
(23.0005 -2.0366 -1.40869e-15)
(23.6807 -1.6547 0)
(24.2633 -1.22081 -1.27698e-15)
(24.7497 -0.758477 0)
(25.1476 -0.279686 0)
(25.4602 0.205824 0)
(25.69 0.687674 4.93995e-16)
(25.8408 1.1567 0)
(25.918 1.60583 0)
(25.9252 2.03028 -3.6234e-15)
(25.866 2.4258 -3.55241e-15)
(25.7332 2.79105 0)
(25.5296 3.12421 -7.26137e-15)
(25.1618 3.42812 6.55528e-17)
(24.7236 3.62398 0)
(23.3303 3.70052 -1.58935e-14)
(13.8502 18.8781 4.49224e-17)
(14.8817 19.8947 -3.2923e-17)
(16.1122 20.904 0)
(17.5061 21.8442 7.56556e-18)
(19.0209 22.6438 7.30072e-17)
(20.6872 23.3019 5.45432e-17)
(22.4617 23.7804 4.68077e-17)
(24.3042 24.0484 -3.94715e-16)
(26.1929 24.0935 -9.78479e-17)
(28.0883 23.906 7.81163e-16)
(29.9545 23.4831 -2.89009e-16)
(31.7613 22.8293 6.79643e-16)
(33.4752 21.9559 3.4019e-16)
(35.0673 20.8777 2.09844e-16)
(36.5126 19.6138 0)
(37.788 18.1865 -5.05689e-16)
(38.8701 16.6264 -1.13112e-15)
(39.7353 14.9703 -4.09873e-15)
(40.3689 13.2495 1.19343e-15)
(40.7631 11.4947 -1.53983e-15)
(40.9143 9.74051 -2.38353e-16)
(40.8272 8.02866 0)
(40.5186 6.4024 1.6198e-15)
(40.0205 4.90436 1.01723e-16)
(39.3843 3.56702 -4.33101e-17)
(38.6677 2.37746 -5.91426e-16)
(37.8994 1.2981 1.3291e-16)
(37.079 0.318006 2.65271e-16)
(36.207 -0.562239 -9.50579e-16)
(35.2866 -1.34582 -4.53407e-17)
(34.3149 -2.03427 1.36478e-15)
(33.2799 -2.62647 1.93161e-15)
(32.1592 -3.11938 0)
(30.9239 -3.50761 -4.91858e-17)
(29.5192 -3.78214 -2.16033e-16)
(27.909 -3.92368 0)
(25.8747 -3.89816 8.78491e-15)
(23.5569 -3.5534 0)
(19.1891 -2.9657 1.6824e-14)
(12.9621 17.8177 -4.77555e-17)
(12.1533 16.6797 1.14643e-16)
(11.3996 15.3293 0)
(10.7153 13.7935 0)
(10.203 12.1369 7.1154e-16)
(9.88394 10.3699 3.4274e-15)
(9.79019 8.55301 0)
(9.92754 6.78455 -2.13608e-15)
(10.2856 5.12422 -2.04e-15)
(10.8459 3.60732 2.02307e-15)
(11.5643 2.26966 -5.69933e-17)
(12.3953 1.13179 9.11394e-16)
(13.3022 0.188149 2.76094e-17)
(14.2507 -0.575691 2.49531e-15)
(15.2125 -1.17452 2.31647e-15)
(16.1688 -1.62939 -2.21021e-15)
(17.1064 -1.96023 3.30343e-16)
(18.0179 -2.18555 -6.26357e-16)
(18.9009 -2.32054 2.96126e-16)
(19.757 -2.37573 1.8522e-15)
(20.5883 -2.35634 2.47999e-16)
(21.3955 -2.26207 -2.10566e-16)
(22.1753 -2.08784 -1.36511e-15)
(22.914 -1.82662 0)
(23.585 -1.48334 7.92826e-17)
(24.1667 -1.0838 2.33205e-15)
(24.6568 -0.650585 -1.69552e-17)
(25.0607 -0.196156 1.67965e-17)
(25.3809 0.269216 0)
(25.6194 0.734499 -4.63663e-16)
(25.7795 1.1899 0)
(25.8661 1.62765 0)
(25.8827 2.04187 3.34988e-15)
(25.8327 2.42799 3.43236e-15)
(25.7093 2.78455 0)
(25.5153 3.10825 6.76885e-15)
(25.1636 3.40171 -2.79177e-14)
(24.7423 3.57481 1.06208e-16)
(23.4961 3.62868 1.45885e-14)
(15.0563 17.7661 4.86348e-18)
(15.9848 18.6792 -3.17257e-17)
(17.0923 19.5936 6.84121e-17)
(18.3417 20.4511 -6.67675e-17)
(19.6912 21.1882 -3.9645e-17)
(21.1773 21.8097 0)
(22.7605 22.2817 -1.00297e-16)
(24.4069 22.576 1.27392e-17)
(26.1037 22.6811 -2.29354e-16)
(27.8169 22.586 -4.65688e-16)
(29.5178 22.2839 0)
(31.1818 21.7743 -1.21264e-15)
(32.7782 21.062 -1.08863e-15)
(34.2798 20.1554 -2.67079e-15)
(35.6619 19.0676 0)
(36.8991 17.8159 -1.66544e-15)
(37.9694 16.4205 -1.7548e-15)
(38.8553 14.8993 1.91572e-15)
(39.5391 13.2795 -1.88303e-15)
(40.0057 11.5965 1.71322e-15)
(40.2452 9.89046 2.09415e-16)
(40.255 8.20937 -1.7862e-15)
(40.0451 6.601 0)
(39.6406 5.10957 -1.48161e-15)
(39.0841 3.76686 8.65005e-17)
(38.4256 2.56613 6.19052e-16)
(37.695 1.47688 0)
(36.8979 0.487813 -2.15573e-17)
(36.0388 -0.40068 3.94925e-17)
(35.1267 -1.19131 1.42192e-15)
(34.1683 -1.88596 -1.21437e-15)
(33.1649 -2.48471 -1.84535e-15)
(32.1103 -2.9865 1.23039e-15)
(30.9905 -3.38859 -5.73587e-17)
(29.7591 -3.68413 2.02509e-16)
(28.3782 -3.85324 -2.0505e-15)
(26.6206 -3.86124 -4.30485e-15)
(24.6007 -3.53117 9.56386e-17)
(20.6128 -2.98116 -5.24792e-17)
(14.2513 16.816 2.1111e-17)
(13.5151 15.8028 2.22486e-16)
(12.817 14.5985 2.69737e-16)
(12.1702 13.2274 -5.29504e-16)
(11.668 11.7515 -1.96814e-15)
(11.326 10.1739 6.7511e-16)
(11.1736 8.54191 1.67796e-15)
(11.2211 6.94155 4.40832e-15)
(11.4623 5.4297 1.75738e-15)
(11.8821 4.03378 -1.66701e-15)
(12.4474 2.78314 -4.20154e-17)
(13.1233 1.69762 -8.17424e-16)
(13.8821 0.774448 0)
(14.6966 0.00499099 -2.75483e-17)
(15.5424 -0.618898 -1.42031e-15)
(16.4021 -1.11166 6.50699e-16)
(17.2622 -1.48732 -6.37331e-16)
(18.1126 -1.7594 0)
(18.9482 -1.93968 1.06894e-15)
(19.767 -2.03711 -1.96728e-15)
(20.568 -2.05633 0)
(21.3498 -1.99788 1.64546e-15)
(22.1076 -1.85846 0)
(22.8283 -1.63372 -8.22604e-17)
(23.4886 -1.32814 8.13147e-17)
(24.0675 -0.962889 -1.10952e-15)
(24.5599 -0.559078 -1.83523e-17)
(24.9689 -0.129721 -1.60984e-17)
(25.2963 0.314487 7.19701e-18)
(25.5432 0.762296 -4.57528e-16)
(25.7124 1.20355 -8.67313e-16)
(25.8082 1.63004 1.63871e-15)
(25.8338 2.03567 5.13878e-17)
(25.7921 2.41515 2.62816e-17)
(25.6765 2.76608 0)
(25.4895 3.08312 1.02352e-16)
(25.1494 3.36772 1.28192e-14)
(24.7375 3.52072 -9.40525e-18)
(23.6013 3.54873 1.35877e-14)
(16.1142 16.7883 8.70249e-18)
(16.9651 17.6126 5.54769e-17)
(17.9788 18.4419 0)
(19.1184 19.2216 -2.66798e-17)
(20.3421 19.8944 -8.76915e-17)
(21.6894 20.4689 0)
(23.1245 20.914 -8.82766e-18)
(24.6179 21.2045 4.3048e-16)
(26.1622 21.3302 -6.99758e-16)
(27.7295 21.2791 2.14826e-16)
(29.2956 21.043 3.71315e-16)
(30.8408 20.6183 1.4653e-15)
(32.3382 20.0051 1.07591e-15)
(33.7627 19.2074 1.36587e-15)
(35.0896 18.2334 3.63838e-16)
(36.2936 17.0959 1.23266e-15)
(37.3515 15.8116 1.69066e-15)
(38.2399 14.4046 1.58157e-15)
(38.9375 12.9045 -1.16267e-15)
(39.4291 11.342 -3.5913e-15)
(39.7052 9.75124 0)
(39.7638 8.17198 8.46425e-17)
(39.6137 6.64616 1.35189e-15)
(39.2762 5.21358 1.40758e-15)
(38.7865 3.90435 -7.87599e-17)
(38.1862 2.7192 -5.47132e-16)
(37.5027 1.63728 3.74051e-18)
(36.7437 0.650025 -2.59821e-16)
(35.9137 -0.24074 2.6649e-17)
(35.021 -1.03567 -2.6515e-15)
(34.073 -1.73553 -7.96478e-18)
(33.0748 -2.33961 -3.06677e-17)
(32.0279 -2.84656 -1.18597e-15)
(30.9319 -3.25416 -5.73337e-17)
(29.7614 -3.55749 -1.13647e-16)
(28.5052 -3.7386 3.999e-15)
(26.9654 -3.76759 -4.16203e-15)
(25.2822 -3.45393 -5.91669e-15)
(21.7907 -2.9538 1.44929e-14)
(15.3715 15.9325 -8.85974e-17)
(14.6907 15.0233 -3.08016e-16)
(14.0362 13.941 -2.15715e-16)
(13.4211 12.7068 -5.14573e-16)
(12.9303 11.38 1.13757e-15)
(12.5756 9.95952 -4.93923e-17)
(12.3831 8.48269 -4.36206e-15)
(12.3658 7.02682 -1.5206e-15)
(12.5199 5.64609 1.09959e-17)
(12.8323 4.36101 0)
(13.2771 3.1963 -1.44362e-15)
(13.827 2.17003 1.38519e-15)
(14.4608 1.28016 -1.35543e-15)
(15.1573 0.521105 -6.89268e-16)
(15.8965 -0.111086 6.16558e-16)
(16.6637 -0.626153 6.10561e-16)
(17.4461 -1.03312 2.2838e-15)
(18.233 -1.34109 -5.49064e-16)
(19.0173 -1.5586 -9.97847e-16)
(19.7948 -1.69266 0)
(20.562 -1.74704 -1.69424e-15)
(21.3154 -1.72253 -1.35846e-15)
(22.049 -1.61686 -1.21548e-17)
(22.7502 -1.42761 -1.68321e-16)
(23.3976 -1.15892 -7.23083e-17)
(23.9712 -0.8279 1.183e-15)
(24.4639 -0.45404 -3.11992e-17)
(24.8764 -0.0506053 2.72664e-16)
(25.2096 0.371461 6.39072e-17)
(25.4639 0.800805 4.2144e-16)
(25.6416 1.22693 -1.0103e-17)
(25.746 1.64115 -3.28853e-15)
(25.7802 2.03677 -3.07121e-15)
(25.7466 2.40779 -3.06581e-15)
(25.6388 2.75109 -9.5488e-17)
(25.4589 3.05959 4.69346e-17)
(25.13 3.33341 -1.23784e-14)
(24.7285 3.46679 -1.23975e-14)
(23.6847 3.469 -1.24939e-14)
(17.0291 15.9241 -3.03109e-17)
(17.8134 16.6727 -2.37289e-17)
(18.7467 17.4288 -1.35452e-16)
(19.7919 18.1413 4.58395e-16)
(20.9081 18.7577 -1.68722e-16)
(22.1357 19.2898 7.30696e-17)
(23.4416 19.7093 4.41609e-17)
(24.7995 19.9937 0)
(26.2063 20.1349 2.05862e-16)
(27.6377 20.1213 9.43768e-18)
(29.0744 19.9441 -2.96008e-16)
(30.5011 19.598 -1.32762e-15)
(31.8944 19.0808 -5.83616e-16)
(33.2319 18.3927 0)
(34.491 17.5382 0)
(35.6471 16.5259 0)
(36.6764 15.3696 0)
(37.5567 14.0864 -1.54013e-15)
(38.2675 12.698 1.52343e-15)
(38.7908 11.2322 1.48959e-15)
(39.1142 9.72318 -1.17377e-15)
(39.2323 8.21088 1.04009e-15)
(39.1496 6.73727 -1.05707e-15)
(38.8834 5.34197 -7.61786e-17)
(38.4627 4.05433 -3.31857e-17)
(37.923 2.87894 5.53567e-16)
(37.2907 1.80147 1.13859e-16)
(36.5763 0.815163 0)
(35.7849 -0.0777715 0)
(34.9242 -0.876715 3.73766e-17)
(34.0008 -1.58174 0)
(33.0191 -2.19147 1.52365e-15)
(31.9806 -2.70386 -1.06969e-15)
(30.8882 -3.11593 -1.12398e-15)
(29.7256 -3.42255 1.8108e-16)
(28.503 -3.60566 -1.9321e-15)
(27.0641 -3.64107 3.9882e-15)
(25.63 -3.33201 1.15231e-14)
(22.6756 -2.87882 -1.3907e-14)
(16.3407 15.1476 0)
(15.7081 14.3258 9.05634e-17)
(15.0926 13.3457 4.0482e-16)
(14.507 12.2263 -1.75615e-15)
(14.0299 11.0251 1.49296e-15)
(13.6694 9.73671 -1.17871e-15)
(13.45 8.39155 3.83941e-18)
(13.3854 7.0609 1.20211e-15)
(13.4737 5.79596 1.25015e-15)
(13.7033 4.61181 0)
(14.0531 3.52924 6.1611e-16)
(14.5007 2.56466 -1.87833e-15)
(15.0297 1.71572 3.04719e-15)
(15.6238 0.97815 5.77448e-16)
(16.267 0.350043 -1.16766e-15)
(16.9474 -0.174948 -1.1167e-15)
(17.6538 -0.602269 -1.05888e-15)
(18.3761 -0.937441 0)
(19.1067 -1.18589 0)
(19.8395 -1.35234 0)
(20.5697 -1.43937 1.59166e-15)
(21.2918 -1.44744 0)
(21.999 -1.37484 -1.18273e-15)
(22.6789 -1.22028 -1.60103e-16)
(23.3116 -0.987476 -1.14843e-15)
(23.878 -0.690437 -1.05357e-15)
(24.369 -0.346766 0)
(24.7836 0.0302682 -2.29908e-16)
(25.1216 0.429596 -6.76634e-17)
(25.3825 0.839791 1.33312e-17)
(25.568 1.2501 1.60575e-15)
(25.6808 1.6514 -1.73501e-17)
(25.7234 2.03654 2.99339e-15)
(25.698 2.39889 -2.93841e-15)
(25.598 2.73447 0)
(25.4253 3.03445 -9.3138e-17)
(25.1081 3.29739 3.87005e-17)
(24.7189 3.41295 1.17945e-14)
(23.7602 3.39107 -8.64897e-17)
(17.8341 15.15 3.18979e-17)
(18.5625 15.8328 0)
(19.4282 16.5241 2.78426e-16)
(20.3945 17.1763 -2.40114e-16)
(21.4209 17.7407 7.2046e-17)
(22.5483 18.2312 -6.86457e-17)
(23.7455 18.6219 -5.20213e-18)
(24.9885 18.8933 -4.77952e-17)
(26.2772 19.0384 0)
(27.5906 19.0465 -2.35034e-16)
(28.9131 18.9091 -2.63459e-16)
(30.2328 18.6201 2.6033e-16)
(31.5298 18.1756 1.11923e-15)
(32.7849 17.573 4.86486e-16)
(33.9776 16.8139 -1.47138e-15)
(35.0845 15.9035 -1.08444e-15)
(36.0825 14.8519 8.62605e-16)
(36.9496 13.6734 6.52211e-16)
(37.6634 12.389 -3.22498e-16)
(38.2047 11.0246 3.22367e-16)
(38.5599 9.61076 8.29152e-16)
(38.7222 8.18279 1.51793e-16)
(38.6938 6.77893 -1.39405e-16)
(38.4881 5.43615 -9.11598e-16)
(38.129 4.18259 0)
(37.6457 3.02616 -4.57165e-16)
(37.0628 1.95917 -2.12529e-16)
(36.3922 0.977924 -1.86877e-16)
(35.6405 0.0856968 -6.55093e-16)
(34.8153 -0.715421 2.29821e-15)
(33.9229 -1.42449 8.51541e-16)
(32.9674 -2.0395 -2.20426e-17)
(31.949 -2.55756 3.71792e-17)
(30.8694 -2.97463 0)
(29.7129 -3.2846 -6.30718e-17)
(28.4951 -3.46733 0)
(27.0826 -3.5025 0)
(25.7601 -3.18571 -5.57248e-15)
(23.2769 -2.76183 8.84905e-17)
(17.1916 14.4423 -1.0444e-16)
(16.6 13.6951 3.23226e-16)
(16.0185 12.8025 9.62475e-18)
(15.4598 11.7815 3.95997e-16)
(14.9971 10.6874 -1.37664e-15)
(14.6355 9.51169 1.01891e-15)
(14.398 8.27972 4.10928e-17)
(14.2989 7.05873 -1.02392e-15)
(14.3373 5.89605 -1.01503e-15)
(14.5025 4.80296 -1.06092e-15)
(14.7767 3.79746 -2.13947e-15)
(15.1413 2.89424 0)
(15.583 2.09008 -1.10626e-15)
(16.0889 1.38106 -2.55559e-17)
(16.6467 0.766422 0)
(17.2471 0.241595 -1.00454e-15)
(17.881 -0.196229 -4.8673e-16)
(18.5394 -0.549973 -4.68855e-16)
(19.215 -0.822485 1.72056e-15)
(19.9011 -1.01625 1.60916e-15)
(20.5916 -1.1323 -1.82123e-16)
(21.2801 -1.1706 1.39308e-15)
(21.959 -1.12953 3.13506e-16)
(22.6159 -1.00828 -1.5225e-16)
(23.2322 -0.810168 1.02137e-15)
(23.7891 -0.546649 6.5867e-17)
(24.2767 -0.233292 0)
(24.6919 0.116915 0)
(25.0333 0.492851 -1.29321e-17)
(25.3001 0.883132 3.76981e-17)
(25.4927 1.27682 -1.57991e-15)
(25.6135 1.66441 -1.68716e-17)
(25.6642 2.03829 3.03114e-15)
(25.6468 2.39117 2.82187e-15)
(25.5549 2.71825 8.94741e-17)
(25.3897 3.00909 2.94333e-18)
(25.0849 3.2606 2.2427e-14)
(24.7091 3.35957 -1.12278e-14)
(23.8317 3.31587 8.12568e-17)
(18.5453 14.4513 1.38065e-17)
(19.2252 15.0764 0)
(20.0324 15.7105 -1.38034e-16)
(20.9305 16.3087 0)
(21.8795 16.8264 1.2537e-16)
(22.9203 17.2783 -1.2168e-16)
(24.0231 17.641 -3.85411e-17)
(25.166 17.8972 4.51166e-17)
(26.3504 18.0414 0)
(27.5582 18.064 -9.528e-17)
(28.7766 17.9572 2.88205e-16)
(29.997 17.7147 -5.96575e-16)
(31.2023 17.3316 -3.56696e-16)
(32.3761 16.804 -3.61353e-16)
(33.5003 16.1312 9.37923e-16)
(34.5536 15.3156 1.03764e-15)
(35.5141 14.3643 -1.1289e-15)
(36.36 13.2888 -1.10496e-15)
(37.0699 12.1052 0)
(37.624 10.836 2.90235e-16)
(38.0069 9.50881 -5.61607e-16)
(38.21 8.15685 1.39386e-16)
(38.2325 6.81652 4.70821e-18)
(38.0841 5.52316 2.14367e-15)
(37.7837 4.30377 -1.14817e-16)
(37.3555 3.16821 7.46358e-17)
(36.8214 2.11377 1.94576e-16)
(36.1943 1.13957 1.983e-16)
(35.482 0.249822 5.6656e-16)
(34.6924 -0.552024 -1.05201e-15)
(33.8321 -1.26402 -7.85854e-16)
(32.9055 -1.88349 -2.63673e-15)
(31.9129 -2.40684 1.77784e-15)
(30.8551 -2.82898 -2.09721e-17)
(29.7152 -3.14286 -2.381e-17)
(28.5075 -3.32576 4.94961e-17)
(27.1072 -3.36028 -4.1238e-17)
(25.8017 -3.03163 9.33185e-17)
(23.6618 -2.61428 -1.24202e-14)
(17.9431 13.8034 5.88056e-17)
(17.3875 13.1207 -1.59547e-16)
(16.8365 12.3039 3.09745e-16)
(16.3027 11.368 0)
(15.8548 10.3667 8.22652e-16)
(15.4952 9.28836 0)
(15.2459 8.155 0)
(15.1217 7.03045 0)
(15.1219 5.95842 1.86775e-15)
(15.2367 4.94746 -9.35172e-16)
(15.4508 4.01346 1.01905e-15)
(15.7477 3.16963 0)
(16.1166 2.41176 0)
(16.5472 1.73566 -9.84468e-16)
(17.0297 1.141 0)
(17.5574 0.624251 9.35349e-16)
(18.1233 0.183852 1.35704e-17)
(18.7199 -0.181022 0)
(19.3404 -0.471121 -1.2205e-15)
(19.9785 -0.687108 -1.89844e-15)
(20.6276 -0.828634 -1.40381e-15)
(21.2805 -0.894729 -1.30404e-15)
(21.9292 -0.883458 2.41198e-15)
(22.5616 -0.794076 0)
(23.1597 -0.6294 9.84794e-16)
(23.7053 -0.398634 1.0434e-15)
(24.1875 -0.115455 4.59843e-16)
(24.6017 0.207688 0)
(24.9455 0.559759 -5.13712e-17)
(25.2171 0.929478 -3.92827e-16)
(25.4163 1.30584 1.50718e-15)
(25.5446 1.67904 -1.63627e-17)
(25.6033 2.04098 -2.78651e-15)
(25.5939 2.38384 2.63223e-15)
(25.51 2.70191 -1.449e-18)
(25.3528 2.98326 8.35702e-17)
(25.061 3.22301 -2.15277e-14)
(24.6996 3.30694 1.05365e-14)
(23.9 3.24401 2.04509e-14)
(19.1785 13.8156 1.00625e-17)
(19.8159 14.3897 -4.52528e-17)
(20.5719 14.9728 0)
(21.4105 15.5224 -2.12659e-16)
(22.2925 15.9975 0)
(23.2581 16.4132 0)
(24.2789 16.7486 1.80724e-17)
(25.3342 16.988 1.90065e-17)
(26.4271 17.1271 1.05432e-16)
(27.5412 17.1576 4.75722e-16)
(28.6663 17.0725 3.14274e-16)
(29.7961 16.8658 4.17545e-16)
(30.916 16.5321 0)
(32.0126 16.0665 9.67007e-16)
(33.07 15.4668 -3.5286e-16)
(34.069 14.7333 0)
(34.9892 13.8705 8.87863e-16)
(35.8099 12.8869 1.05909e-15)
(36.5103 11.7962 0)
(37.0701 10.6181 9.98203e-16)
(37.4729 9.37726 -9.77535e-16)
(37.7087 8.10369 0)
(37.7747 6.83062 -1.14795e-16)
(37.6773 5.5911 8.19335e-18)
(37.431 4.41083 5.38698e-17)
(37.0552 3.30101 7.78624e-16)
(36.5689 2.26295 -3.93719e-18)
(35.9852 1.29872 -1.87755e-17)
(35.3123 0.4138 -1.37032e-17)
(34.5582 -0.387082 3.25118e-17)
(33.7301 -1.10072 7.61406e-16)
(32.8327 -1.72364 2.33402e-15)
(31.8669 -2.25152 -5.41351e-18)
(30.8338 -2.6783 -7.64296e-16)
(29.7171 -2.99612 1.98437e-18)
(28.5287 -3.17982 1.80121e-15)
(27.1524 -3.2147 3.48294e-15)
(25.8356 -2.8783 -1.4875e-16)
(23.9176 -2.45075 1.16747e-14)
(18.6115 13.2205 -1.21345e-16)
(18.0879 12.5944 -4.17079e-16)
(17.5645 11.8439 8.05088e-16)
(17.0537 10.9826 0)
(16.6204 10.0621 1.42327e-15)
(16.2651 9.06908 0)
(16.0089 8.0225 -7.68808e-16)
(15.8664 6.98334 3.08193e-15)
(15.8373 5.99202 -2.37144e-15)
(15.9125 5.05536 0)
(16.0783 4.1873 1.73034e-15)
(16.32 3.3998 1.71911e-15)
(16.6282 2.68791 0)
(16.9946 2.04716 -1.73767e-15)
(17.4115 1.47701 4.29433e-16)
(17.8739 0.974087 -4.29374e-16)
(18.3769 0.537686 4.23591e-16)
(18.9144 0.168205 7.86324e-16)
(19.4811 -0.133612 -1.48981e-17)
(20.0709 -0.366861 1.04365e-15)
(20.6773 -0.529872 3.27814e-16)
(21.2931 -0.620745 -3.16104e-16)
(21.9102 -0.637107 -1.14132e-15)
(22.5165 -0.577856 1.06643e-15)
(23.0948 -0.445076 -8.72222e-16)
(23.6272 -0.24616 -1.05139e-15)
(24.1022 0.0071262 -4.37281e-16)
(24.514 0.303073 -6.3333e-18)
(24.8588 0.630858 5.53608e-17)
(25.1342 0.979437 3.75534e-16)
(25.3393 1.3378 8.65807e-18)
(25.4747 1.6959 -1.58176e-17)
(25.5411 2.04522 2.82906e-15)
(25.5396 2.37739 -2.70482e-15)
(25.4639 2.68585 8.38286e-17)
(25.3149 2.95727 -5.32995e-15)
(25.0369 3.18502 1.03767e-14)
(24.6908 3.25528 0)
(23.9654 3.17532 -1.96073e-14)
(19.7448 13.2337 2.38081e-17)
(20.3446 13.7624 0)
(21.0552 14.2997 0)
(21.8414 14.8055 3.78605e-16)
(22.6644 15.2418 -1.95754e-17)
(23.5638 15.6242 0)
(24.5122 15.9333 0)
(25.4903 16.1553 2.92113e-17)
(26.502 16.2871 -3.8012e-17)
(27.5326 16.3214 -4.52406e-17)
(28.5734 16.2521 -7.01895e-16)
(29.6202 16.0735 -2.38286e-16)
(30.6608 15.7803 4.28746e-16)
(31.684 15.3674 -7.07596e-17)
(32.6763 14.8313 0)
(33.6205 14.1709 0)
(34.4983 13.3883 -2.38324e-15)
(35.2898 12.4901 -4.51105e-16)
(35.9755 11.4868 4.54385e-16)
(36.5355 10.3949 -9.67685e-16)
(36.9526 9.23618 1.8206e-15)
(37.2154 8.03792 8.50752e-16)
(37.3194 6.83069 -8.17829e-16)
(37.2678 5.64544 -9.27222e-16)
(37.0716 4.50645 1.43568e-16)
(36.7458 3.42544 -7.54749e-16)
(36.3063 2.40669 -8.30477e-17)
(35.7656 1.45497 1.71666e-17)
(35.1324 0.577019 -1.7156e-17)
(34.4143 -0.221116 4.96154e-17)
(33.6187 -0.935016 -3.95457e-17)
(32.7508 -1.5603 -1.14026e-15)
(31.8121 -2.0918 -5.33031e-17)
(30.8042 -2.52255 7.11042e-17)
(29.7126 -2.84389 0)
(28.548 -3.02874 -1.69159e-15)
(27.2065 -3.06408 -3.22639e-15)
(25.8885 -2.72683 0)
(24.1141 -2.28187 0)
(19.2095 12.6855 0)
(18.7143 12.1094 3.83318e-16)
(18.2162 11.4176 -1.22946e-15)
(17.7269 10.6223 -5.65843e-16)
(17.308 9.7731 -1.31797e-15)
(16.9587 8.85523 0)
(16.6988 7.8857 0)
(16.5433 6.92274 -1.38445e-15)
(16.4917 6.00376 1.43662e-15)
(16.5357 5.13424 0)
(16.6625 4.32668 -7.57976e-16)
(16.859 3.59212 -8.06248e-16)
(17.1167 2.92513 7.88547e-16)
(17.4286 2.32055 8.14312e-16)
(17.7883 1.77747 -1.56584e-15)
(18.1927 1.29259 0)
(18.6381 0.865346 -3.72351e-16)
(19.1202 0.496807 1.16917e-17)
(19.6348 0.188605 1.73457e-15)
(20.1768 -0.0571933 -3.33861e-16)
(20.7401 -0.237747 3.24023e-16)
(21.3179 -0.350296 -2.82664e-16)
(21.9021 -0.391868 4.0961e-16)
(22.4811 -0.360829 -2.15213e-15)
(23.038 -0.258347 -8.37691e-16)
(23.5554 -0.0901298 8.3728e-16)
(24.0214 0.133779 -5.44635e-17)
(24.4291 0.402593 0)
(24.7737 0.705862 -4.78965e-17)
(25.0519 1.03283 3.45191e-16)
(25.2621 1.37258 -6.80783e-16)
(25.404 1.71493 1.37554e-15)
(25.4779 2.05094 -5.47045e-15)
(25.4843 2.37182 5.38912e-15)
(25.417 2.67009 -8.0114e-17)
(25.2766 2.93122 5.04631e-15)
(25.013 3.14673 1.61207e-16)
(24.6831 3.20482 -3.05211e-16)