/*--------------------------------*- C++ -*----------------------------------*\
| =========                 |                                                 |
| \\      /  F ield         | OpenFOAM: The Open Source CFD Toolbox           |
|  \\    /   O peration     | Version:  2.3.1                                 |
|   \\  /    A nd           | Web:      www.OpenFOAM.org                      |
|    \\/     M anipulation  |                                                 |
\*---------------------------------------------------------------------------*/
FoamFile
{
    version     2.0;
    format      ascii;
    class       volScalarField;
    location    "0.59";
    object      nut;
}
// * * * * * * * * * * * * * * * * * * * * * * * * * * * * * * * * * * * * * //

dimensions      [0 2 -1 0 0 0 0];

internalField   nonuniform List<scalar> 
1000
(
0.000556632
0.000563185
0.000563313
0.000563305
0.000563301
0.0005633
0.000563298
0.000563298
0.000563284
0.000562757
0.00056335
0.000564356
0.000564418
0.000564417
0.000564416
0.000564415
0.000564412
0.000564409
0.00056434
0.000562939
0.000563706
0.000564676
0.00056475
0.000564751
0.000564751
0.000564749
0.000564745
0.000564741
0.000564661
0.000563155
0.000563964
0.00056502
0.000565106
0.000565113
0.000565114
0.000565112
0.000565107
0.000565101
0.000565014
0.000563443
0.00056433
0.000565529
0.000565634
0.000565651
0.000565656
0.000565653
0.00056565
0.000565634
0.00056554
0.000563833
0.000563186
0.000564141
0.00056423
0.000564244
0.000564249
0.000564252
0.000564252
0.000564251
0.000564191
0.000562943
0.000564268
0.0010861
0.00112768
0.00112945
0.00112961
0.00112968
0.00112972
0.00112879
0.00109091
0.000563981
0.000564537
0.00113289
0.00118009
0.00118189
0.00118195
0.00118196
0.00118194
0.0011808
0.00113724
0.000564246
0.000564795
0.00113534
0.00118274
0.00118452
0.00118458
0.00118458
0.00118456
0.00118339
0.0011394
0.000564509
0.000565141
0.00113592
0.00118361
0.00118543
0.00118549
0.00118549
0.00118546
0.00118426
0.00113986
0.000564865
0.000563542
0.000564363
0.000564447
0.00056446
0.000564467
0.00056447
0.000564472
0.000564471
0.000564405
0.000563101
0.000564445
0.00112805
0.00117474
0.00117662
0.00117674
0.00117679
0.00117682
0.00117573
0.00113278
0.000564185
0.000564682
0.00117921
0.00123306
0.00123514
0.00123521
0.00123521
0.00123519
0.00123385
0.00118417
0.000564426
0.000564914
0.00118154
0.0012357
0.0012378
0.00123786
0.00123785
0.00123783
0.00123647
0.00118635
0.000564655
0.000565217
0.00118163
0.00123596
0.00123807
0.00123814
0.00123813
0.00123811
0.00123672
0.00118636
0.000564962
0.000563682
0.000564488
0.000564565
0.000564575
0.000564581
0.000564584
0.000564586
0.000564585
0.000564519
0.000563211
0.00056455
0.00113174
0.00117847
0.00118027
0.00118036
0.0011804
0.00118041
0.0011793
0.00113595
0.000564286
0.000564758
0.00118132
0.00123527
0.00123735
0.00123742
0.00123742
0.0012374
0.00123605
0.00118613
0.000564505
0.000564964
0.00118342
0.00123769
0.00123978
0.00123984
0.00123984
0.00123982
0.00123845
0.00118818
0.000564706
0.000565229
0.00118347
0.00123781
0.00123991
0.00123997
0.00123997
0.00123994
0.00123856
0.00118817
0.00056497
0.000563756
0.000564556
0.000564628
0.000564636
0.000564641
0.000564643
0.000564645
0.000564643
0.000564577
0.000563267
0.000564612
0.00113389
0.00118066
0.00118243
0.00118251
0.00118253
0.00118253
0.00118139
0.00113784
0.000564338
0.000564803
0.00118172
0.00123556
0.00123763
0.00123769
0.00123769
0.00123767
0.00123632
0.00118639
0.000564545
0.000564992
0.00118363
0.00123775
0.00123984
0.0012399
0.00123989
0.00123987
0.00123851
0.0011883
0.000564731
0.000565236
0.00118371
0.00123783
0.00123991
0.00123997
0.00123996
0.00123994
0.00123857
0.00118834
0.000564972
0.000563769
0.000564586
0.000564657
0.000564665
0.000564668
0.00056467
0.000564672
0.00056467
0.000564602
0.000563271
0.000564628
0.00113521
0.00118199
0.00118374
0.00118379
0.00118379
0.00118377
0.00118262
0.00113894
0.000564348
0.000564821
0.00118194
0.0012357
0.00123776
0.00123782
0.00123782
0.0012378
0.00123644
0.00118652
0.000564559
0.000565015
0.00118375
0.00123776
0.00123983
0.00123989
0.00123989
0.00123987
0.00123851
0.00118834
0.000564751
0.000565261
0.00118385
0.00123781
0.00123988
0.00123994
0.00123994
0.00123991
0.00123855
0.0011884
0.000564994
0.000563728
0.000564587
0.00056466
0.000564667
0.00056467
0.000564672
0.000564672
0.000564669
0.0005646
0.000563224
0.000564603
0.0011354
0.00118215
0.00118389
0.00118394
0.00118394
0.00118393
0.00118277
0.00113908
0.000564318
0.000564818
0.00118198
0.00123568
0.00123774
0.0012378
0.0012378
0.00123778
0.00123642
0.00118652
0.000564551
0.00056504
0.00118376
0.00123771
0.00123978
0.00123984
0.00123984
0.00123982
0.00123845
0.00118832
0.00056477
0.000565317
0.00118384
0.00123772
0.00123979
0.00123985
0.00123985
0.00123982
0.00123846
0.00118836
0.000565043
0.00056363
0.000564529
0.000564604
0.000564611
0.000564613
0.000564614
0.000564614
0.000564611
0.000564539
0.000563122
0.000564529
0.00113407
0.00118061
0.00118234
0.00118239
0.00118239
0.00118237
0.00118122
0.00113771
0.00056424
0.00056478
0.0011802
0.00123358
0.00123562
0.00123568
0.00123568
0.00123566
0.00123431
0.00118467
0.000564507
0.000565044
0.00118171
0.00123527
0.00123732
0.00123738
0.00123738
0.00123736
0.00123601
0.0011862
0.000564768
0.000565378
0.00118128
0.00123466
0.00123669
0.00123675
0.00123675
0.00123673
0.00123538
0.00118571
0.000565097
0.000563468
0.000564341
0.000564412
0.000564418
0.00056442
0.000564421
0.00056442
0.000564417
0.000564348
0.000562955
0.000564352
0.00108977
0.00113055
0.00113201
0.00113203
0.00113203
0.00113202
0.00113103
0.00109268
0.000564046
0.000564639
0.00112851
0.00117463
0.00117631
0.00117633
0.00117632
0.00117632
0.0011752
0.00113207
0.000564348
0.000564952
0.00112666
0.00117246
0.00117409
0.00117408
0.00117408
0.00117409
0.00117303
0.00113018
0.000564654
0.000565363
0.00112021
0.00116489
0.00116636
0.00116632
0.00116631
0.00116636
0.00116541
0.00112358
0.000565059
0.000562777
0.000562804
0.000562808
0.000562809
0.00056281
0.00056281
0.00056281
0.000562809
0.000562794
0.000562234
0.000563001
0.00056394
0.00056402
0.000564027
0.000564029
0.00056403
0.000564028
0.000564024
0.000563949
0.000562472
0.000563274
0.000564287
0.000564381
0.000564392
0.000564395
0.000564396
0.000564393
0.000564384
0.000564297
0.000562745
0.000563634
0.000564655
0.000564758
0.000564773
0.000564779
0.00056478
0.000564773
0.000564759
0.000564659
0.000563102
0.000564182
0.000565218
0.000565335
0.000565357
0.000565365
0.000565365
0.000565356
0.00056533
0.000565216
0.000563656
0.00056549
0.000566457
0.00056659
0.000566618
0.000566626
0.000566626
0.000566615
0.000566584
0.000566441
0.000564982
0.000567387
0.000570523
0.00057077
0.00057073
0.000570698
0.000570696
0.000570728
0.000570755
0.000570586
0.000566963
0.000586173
0.000626254
0.000627784
0.000626167
0.000625584
0.00062556
0.00062606
0.000627638
0.000627246
0.000586719
0.000735663
0.000971868
0.000984207
0.000978577
0.000976394
0.000976235
0.000978034
0.000983446
0.000976057
0.000741894
0.00119337
0.00174137
0.0017882
0.00178888
0.00178824
0.00178795
0.00178794
0.0017869
0.00174856
0.00120499
0.00056583
0.00110386
0.00114566
0.00114683
0.00114671
0.0011467
0.00114682
0.00114612
0.0011069
0.000565528
0.000566504
0.00108258
0.00112123
0.00112223
0.00112211
0.0011221
0.00112224
0.00112167
0.00108537
0.000566226
0.000569417
0.0010588
0.00109391
0.00109571
0.001096
0.00109602
0.00109574
0.0010944
0.00106105
0.00056926
0.000616953
0.000797002
0.00081581
0.000817951
0.000818346
0.000818377
0.000818077
0.000816183
0.000794989
0.000619203
0.00139495
0.00248735
0.00254774
0.00254416
0.00254157
0.00254123
0.00254309
0.00254685
0.00249891
0.00141304
0.000565602
0.00117938
0.00123248
0.00123448
0.00123452
0.00123452
0.00123451
0.00123318
0.00118375
0.000565329
0.000566004
0.00117682
0.00122935
0.00123128
0.00123131
0.00123131
0.00123132
0.00123006
0.00118116
0.000565748
0.000566764
0.00117649
0.00122893
0.00123138
0.00123159
0.00123159
0.00123143
0.00122969
0.00118079
0.000566551
0.000598409
0.000859171
0.000871127
0.000873454
0.000874188
0.000874229
0.000873585
0.000871406
0.000858459
0.000599906
0.00142421
0.00250827
0.00255372
0.00255255
0.00255125
0.00255109
0.0025521
0.00255402
0.00252014
0.00144275
0.000565414
0.00118388
0.00123795
0.00124003
0.0012401
0.00124009
0.00124007
0.00123868
0.00118841
0.000565145
0.000565711
0.00118364
0.00123767
0.00123974
0.0012398
0.0012398
0.00123978
0.00123841
0.00118819
0.000565452
0.000566133
0.00117927
0.00123209
0.00123423
0.00123431
0.00123431
0.00123426
0.00123283
0.00118367
0.000565905
0.000595798
0.000828613
0.00083795
0.00083928
0.00083969
0.000839713
0.000839343
0.000838077
0.000827779
0.000597206
0.00145027
0.00256836
0.00261298
0.00261379
0.00261328
0.00261322
0.00261366
0.00261397
0.00258121
0.00146996
0.000565305
0.00118399
0.00123819
0.00124028
0.00124034
0.00124034
0.00124031
0.00123893
0.00118856
0.000565039
0.000565566
0.00118388
0.00123806
0.00124015
0.0012402
0.0012402
0.00124018
0.00123881
0.00118845
0.000565306
0.000565931
0.00117914
0.00123193
0.00123395
0.00123399
0.00123399
0.00123398
0.00123265
0.00118354
0.000565695
0.0005954
0.000813351
0.000820904
0.000821536
0.000821717
0.000821725
0.000821555
0.000820926
0.000812357
0.000596801
0.00146254
0.00259491
0.00263983
0.0026417
0.00264163
0.00264162
0.00264175
0.00264117
0.00260825
0.00148283
0.000565281
0.0011838
0.00123826
0.00124037
0.00124043
0.00124043
0.0012404
0.00123901
0.00118845
0.000565018
0.000565564
0.0011835
0.00123815
0.00124027
0.00124033
0.00124033
0.0012403
0.00123891
0.00118814
0.000565304
0.000565981
0.00117794
0.00123082
0.00123278
0.0012328
0.0012328
0.00123281
0.00123154
0.00118235
0.000565741
0.000607297
0.000747033
0.000748922
0.000746774
0.000745856
0.00074584
0.000746665
0.000748659
0.000745667
0.000609297
0.00146607
0.00259609
0.00264072
0.00264277
0.00264281
0.00264281
0.0026429
0.00264223
0.00260962
0.00148676
0.000565322
0.00118354
0.00123843
0.00124058
0.00124065
0.00124065
0.00124061
0.0012392
0.00118825
0.000565066
0.000565674
0.00118274
0.00123838
0.00124056
0.00124063
0.00124063
0.0012406
0.00123916
0.00118744
0.000565413
0.000566325
0.00117587
0.00122908
0.00123095
0.00123091
0.00123091
0.00123097
0.00122976
0.00118023
0.000566093
0.000630396
0.000702094
0.000703615
0.000700825
0.000699701
0.000699679
0.000700682
0.00070333
0.000701132
0.0006334
0.00146726
0.00258062
0.0026239
0.0026258
0.00262586
0.00262586
0.00262601
0.00262556
0.00259422
0.00148859
0.000565413
0.00118221
0.00123749
0.00123969
0.00123977
0.00123977
0.00123973
0.00123828
0.00118697
0.00056516
0.00056582
0.00118115
0.00123836
0.00124069
0.00124077
0.00124076
0.00124072
0.00123914
0.00118591
0.000565555
0.000567216
0.00118282
0.00123852
0.00124048
0.00124044
0.00124043
0.00124046
0.00123923
0.00118739
0.000566995
0.000656783
0.000747378
0.000749339
0.000740895
0.000737851
0.000737767
0.000740543
0.000748745
0.000747734
0.000660232
0.00146099
0.00251975
0.00255964
0.00256156
0.00256176
0.00256179
0.00256187
0.00256151
0.00253274
0.00148262
0.000565506
0.00113949
0.00118898
0.00119096
0.00119103
0.00119103
0.001191
0.00118968
0.00114354
0.00056524
0.000565879
0.00114265
0.00119609
0.00119845
0.00119862
0.00119862
0.00119848
0.0011968
0.00114683
0.000565592
0.00056871
0.00117136
0.00122791
0.00123122
0.00123171
0.00123171
0.00123125
0.00122871
0.00117562
0.000568501
0.000615993
0.00087826
0.000903442
0.000902059
0.000901043
0.000901021
0.000901993
0.000903531
0.000878388
0.000617469
0.00139029
0.00225807
0.00229043
0.00229499
0.00229654
0.00229661
0.00229549
0.00229226
0.00226758
0.00140784
0.000564508
0.000566207
0.000566394
0.000566429
0.000566442
0.000566444
0.000566428
0.000566404
0.000566238
0.000563995
0.000564558
0.0005669
0.000567133
0.000567162
0.000567171
0.000567169
0.000567163
0.000567142
0.000566922
0.000564034
0.000569611
0.000573521
0.000574015
0.000574141
0.000574178
0.000574174
0.000574151
0.000574016
0.000573585
0.000569164
0.000585613
0.000610259
0.000613792
0.000614444
0.000614642
0.000614652
0.000614469
0.000613916
0.000610883
0.000585763
0.00104288
0.00129468
0.00130742
0.00131053
0.00131159
0.00131163
0.00131077
0.00130811
0.00129769
0.00104875
)
;

boundaryField
{
    walls
    {
        type            nutkWallFunction;
        Cmu             0.09;
        kappa           0.41;
        E               9.8;
        value           nonuniform List<scalar> 
500
(
6.77926e-05
6.77926e-05
6.77926e-05
6.8574e-05
6.8574e-05
6.85882e-05
6.85882e-05
6.85872e-05
6.85872e-05
6.85867e-05
6.85867e-05
6.85865e-05
6.85865e-05
6.85863e-05
6.85863e-05
6.85863e-05
6.85863e-05
6.85847e-05
6.85847e-05
6.85214e-05
6.85214e-05
6.85214e-05
6.85923e-05
6.85923e-05
6.87013e-05
6.87077e-05
6.87075e-05
6.87073e-05
6.87072e-05
6.87069e-05
6.87066e-05
6.86992e-05
6.85411e-05
6.85411e-05
6.86312e-05
6.86312e-05
6.87356e-05
6.87433e-05
6.87433e-05
6.87432e-05
6.87429e-05
6.87426e-05
6.87421e-05
6.87337e-05
6.85646e-05
6.85646e-05
6.86591e-05
6.86591e-05
6.87726e-05
6.87816e-05
6.87823e-05
6.87823e-05
6.87821e-05
6.87816e-05
6.87809e-05
6.87718e-05
6.85961e-05
6.85961e-05
6.86995e-05
6.86995e-05
6.88283e-05
6.88393e-05
6.88411e-05
6.88416e-05
6.88413e-05
6.8841e-05
6.88393e-05
6.88294e-05
6.86393e-05
6.86393e-05
6.85728e-05
6.85728e-05
6.86783e-05
6.86881e-05
6.86897e-05
6.86903e-05
6.86906e-05
6.86906e-05
6.86906e-05
6.86841e-05
6.85419e-05
6.85419e-05
6.86924e-05
6.86577e-05
6.87218e-05
6.86867e-05
6.87501e-05
6.87155e-05
6.87883e-05
6.87548e-05
6.86126e-05
6.86126e-05
6.87025e-05
6.87117e-05
6.87132e-05
6.8714e-05
6.87144e-05
6.87146e-05
6.87145e-05
6.87075e-05
6.85592e-05
6.85592e-05
6.87116e-05
6.86802e-05
6.87376e-05
6.87066e-05
6.87631e-05
6.87317e-05
6.87965e-05
6.87655e-05
6.86282e-05
6.86282e-05
6.87163e-05
6.87246e-05
6.87259e-05
6.87265e-05
6.87269e-05
6.87271e-05
6.8727e-05
6.872e-05
6.85713e-05
6.85713e-05
6.87232e-05
6.86913e-05
6.8746e-05
6.87153e-05
6.87687e-05
6.87375e-05
6.87979e-05
6.87664e-05
6.86365e-05
6.86365e-05
6.87239e-05
6.87316e-05
6.87325e-05
6.8733e-05
6.87333e-05
6.87335e-05
6.87334e-05
6.87264e-05
6.85775e-05
6.85775e-05
6.873e-05
6.8697e-05
6.87509e-05
6.87196e-05
6.87718e-05
6.87402e-05
6.87986e-05
6.87667e-05
6.8638e-05
6.8638e-05
6.87271e-05
6.87347e-05
6.87355e-05
6.87359e-05
6.87362e-05
6.87363e-05
6.87361e-05
6.8729e-05
6.85779e-05
6.85779e-05
6.87318e-05
6.86981e-05
6.87529e-05
6.87212e-05
6.87743e-05
6.87424e-05
6.88015e-05
6.87692e-05
6.86336e-05
6.86336e-05
6.8727e-05
6.87348e-05
6.87355e-05
6.87358e-05
6.8736e-05
6.87361e-05
6.87358e-05
6.87284e-05
6.85727e-05
6.85727e-05
6.87292e-05
6.86949e-05
6.87528e-05
6.87205e-05
6.87773e-05
6.87447e-05
6.88079e-05
6.87748e-05
6.86229e-05
6.86229e-05
6.87204e-05
6.87283e-05
6.8729e-05
6.87293e-05
6.87294e-05
6.87295e-05
6.87291e-05
6.87215e-05
6.85615e-05
6.85615e-05
6.87212e-05
6.86863e-05
6.87487e-05
6.87158e-05
6.8778e-05
6.87446e-05
6.88149e-05
6.87809e-05
6.86051e-05
6.86051e-05
6.86999e-05
6.87074e-05
6.8708e-05
6.87082e-05
6.87083e-05
6.87083e-05
6.87079e-05
6.87007e-05
6.85432e-05
6.85432e-05
6.87021e-05
6.86652e-05
6.87336e-05
6.86985e-05
6.87682e-05
6.87323e-05
6.88135e-05
6.87769e-05
6.85236e-05
6.85236e-05
6.85236e-05
6.85265e-05
6.85265e-05
6.85269e-05
6.85269e-05
6.8527e-05
6.8527e-05
6.85271e-05
6.85271e-05
6.85272e-05
6.85272e-05
6.85271e-05
6.85271e-05
6.8527e-05
6.8527e-05
6.85254e-05
6.85254e-05
6.84581e-05
6.84581e-05
6.84581e-05
6.85482e-05
6.85482e-05
6.86533e-05
6.86621e-05
6.86628e-05
6.8663e-05
6.86631e-05
6.86629e-05
6.86625e-05
6.86544e-05
6.84843e-05
6.84843e-05
6.85783e-05
6.85783e-05
6.86915e-05
6.87017e-05
6.87028e-05
6.87032e-05
6.87033e-05
6.8703e-05
6.8702e-05
6.86926e-05
6.85144e-05
6.85144e-05
6.86179e-05
6.86179e-05
6.87317e-05
6.87429e-05
6.87445e-05
6.87451e-05
6.87452e-05
6.87446e-05
6.8743e-05
6.87322e-05
6.85537e-05
6.85537e-05
6.86779e-05
6.86779e-05
6.8793e-05
6.88057e-05
6.88079e-05
6.88088e-05
6.88088e-05
6.88078e-05
6.88051e-05
6.87928e-05
6.86144e-05
6.86144e-05
6.8826e-05
6.8826e-05
6.8929e-05
6.8943e-05
6.89458e-05
6.89466e-05
6.89466e-05
6.89455e-05
6.89422e-05
6.8927e-05
6.87645e-05
6.87645e-05
6.90231e-05
6.90231e-05
6.9311e-05
6.93338e-05
6.93313e-05
6.93286e-05
6.93284e-05
6.93312e-05
6.93323e-05
6.93164e-05
6.89701e-05
6.89701e-05
7.0851e-05
7.0851e-05
7.44436e-05
7.45594e-05
7.44205e-05
7.43704e-05
7.43687e-05
7.44114e-05
7.4547e-05
7.45333e-05
7.08907e-05
7.08907e-05
8.60988e-05
8.60988e-05
0.000108629
0.000109628
0.000109095
0.000108892
0.000108878
0.000109046
0.000109558
0.000109037
8.67396e-05
8.67396e-05
0.000135223
0.000135223
0.000187152
0.000191301
0.000191373
0.000191326
0.000191298
0.000191283
0.000191166
0.000187827
0.000136417
0.000136417
6.88628e-05
6.88265e-05
6.89369e-05
6.89033e-05
6.92341e-05
6.92127e-05
7.40767e-05
7.43073e-05
0.000155904
0.000157785
6.88373e-05
6.88043e-05
6.88808e-05
6.88499e-05
6.89603e-05
6.89338e-05
7.22213e-05
7.23778e-05
0.000158879
0.000160808
6.88165e-05
6.87839e-05
6.88479e-05
6.88165e-05
6.88918e-05
6.88636e-05
7.19497e-05
7.20963e-05
0.000161353
0.000163393
6.88043e-05
6.8772e-05
6.88317e-05
6.88002e-05
6.88703e-05
6.88413e-05
7.19056e-05
7.20509e-05
0.000162498
0.000164594
6.88013e-05
6.87694e-05
6.88312e-05
6.87998e-05
6.88757e-05
6.88462e-05
7.3039e-05
7.32422e-05
0.000162818
0.000164954
6.88057e-05
6.87747e-05
6.88434e-05
6.88117e-05
6.89109e-05
6.88823e-05
7.53414e-05
7.56473e-05
0.000162886
0.000165088
6.88153e-05
6.87845e-05
6.88599e-05
6.88278e-05
6.90031e-05
6.89753e-05
7.8206e-05
7.85742e-05
0.000162315
0.00016457
6.88246e-05
6.87922e-05
6.88687e-05
6.8834e-05
6.91664e-05
6.91403e-05
7.43549e-05
7.45086e-05
0.000155954
0.000157841
6.87091e-05
6.87091e-05
6.88948e-05
6.89149e-05
6.89185e-05
6.89199e-05
6.89202e-05
6.89183e-05
6.8916e-05
6.88983e-05
6.86469e-05
6.86469e-05
6.87256e-05
6.87256e-05
6.8978e-05
6.90029e-05
6.90059e-05
6.90069e-05
6.90067e-05
6.90061e-05
6.90039e-05
6.89802e-05
6.86623e-05
6.86623e-05
6.9265e-05
6.9265e-05
6.96907e-05
6.97438e-05
6.9757e-05
6.97606e-05
6.97602e-05
6.9758e-05
6.97435e-05
6.96978e-05
6.92107e-05
6.92107e-05
7.09826e-05
7.09826e-05
7.35499e-05
7.39149e-05
7.39829e-05
7.40035e-05
7.40048e-05
7.39856e-05
7.39284e-05
7.36178e-05
7.09935e-05
7.09935e-05
0.000120967
0.000120967
0.000146929
0.0001482
0.000148503
0.000148607
0.000148611
0.000148528
0.000148271
0.000147249
0.000121622
0.000121622
)
;
    }
    lid
    {
        type            nutkWallFunction;
        Cmu             0.09;
        kappa           0.41;
        E               9.8;
        value           nonuniform List<scalar> 
100
(
0.000135223
0.000187152
0.000191301
0.000191373
0.000191326
0.000191298
0.000191283
0.000191166
0.000187827
0.000136417
0.000155904
0.000259941
0.000265197
0.00026485
0.000264625
0.000264592
0.000264748
0.000265099
0.000261065
0.000157785
0.000158879
0.000262063
0.000266084
0.000265972
0.000265856
0.000265841
0.000265929
0.000266106
0.000263219
0.000160808
0.000161353
0.000267414
0.000271374
0.000271438
0.000271392
0.000271386
0.000271425
0.000271462
0.000268662
0.000163393
0.000162498
0.000269758
0.000273748
0.000273906
0.000273899
0.000273898
0.00027391
0.00027387
0.000271051
0.000164594
0.000162818
0.000269908
0.000273878
0.000274053
0.000274056
0.000274056
0.000274064
0.000274015
0.00027122
0.000164954
0.000162886
0.00026862
0.000272481
0.000272645
0.000272649
0.00027265
0.000272663
0.000272633
0.000269942
0.000165088
0.000162315
0.000263597
0.000267192
0.000267358
0.000267375
0.000267377
0.000267386
0.000267367
0.000264878
0.00016457
0.000155954
0.000240858
0.000243883
0.000244299
0.000244439
0.000244446
0.000244346
0.000244062
0.000241829
0.000157841
0.000120967
0.000146929
0.0001482
0.000148503
0.000148607
0.000148611
0.000148528
0.000148271
0.000147249
0.000121622
)
;
    }
}


// ************************************************************************* //
