/*--------------------------------*- C++ -*----------------------------------*\
| =========                 |                                                 |
| \\      /  F ield         | OpenFOAM: The Open Source CFD Toolbox           |
|  \\    /   O peration     | Version:  2.3.1                                 |
|   \\  /    A nd           | Web:      www.OpenFOAM.org                      |
|    \\/     M anipulation  |                                                 |
\*---------------------------------------------------------------------------*/
FoamFile
{
    version     2.0;
    format      ascii;
    class       volScalarField;
    location    "0.59";
    object      p;
}
// * * * * * * * * * * * * * * * * * * * * * * * * * * * * * * * * * * * * * //

dimensions      [0 2 -2 0 0 0 0];

internalField   nonuniform List<scalar> 
1000
(
-0.00564977
-0.00415327
-0.00356482
-0.00334777
-0.00320571
-0.00311232
-0.00303883
-0.00297713
-0.00293643
-0.00292486
-0.00483848
-0.00438383
-0.00408368
-0.00393161
-0.0038253
-0.00374466
-0.00367513
-0.00361588
-0.00358081
-0.00358294
-0.0056044
-0.00548608
-0.00537491
-0.00530167
-0.00523919
-0.00517701
-0.00511218
-0.00505504
-0.00502222
-0.00503237
-0.00767312
-0.00768932
-0.00769746
-0.00769862
-0.00767933
-0.00763414
-0.00757047
-0.00750122
-0.00745772
-0.00744764
-0.0111913
-0.0113774
-0.0115162
-0.0116056
-0.0116313
-0.0116009
-0.0115226
-0.0114144
-0.0113005
-0.0111511
-0.00350358
-0.00311149
-0.00281939
-0.00266846
-0.00255895
-0.00247798
-0.00241054
-0.00235237
-0.0023124
-0.00229595
-0.00368453
-0.00348963
-0.00331236
-0.00319958
-0.00311371
-0.00304293
-0.00297902
-0.00292351
-0.00288811
-0.00288251
-0.00460831
-0.00454778
-0.00447746
-0.00442206
-0.00436978
-0.00431433
-0.00425473
-0.00419991
-0.00416688
-0.00416472
-0.00645866
-0.00649898
-0.00652042
-0.00652672
-0.00651108
-0.00647039
-0.00641082
-0.00634657
-0.00630039
-0.00627196
-0.00941377
-0.00961614
-0.00974794
-0.00983184
-0.00985664
-0.00982787
-0.00975757
-0.00965175
-0.00954697
-0.00938625
-0.00171796
-0.00160331
-0.00146535
-0.00137443
-0.00129997
-0.00123751
-0.00118156
-0.0011321
-0.00109669
-0.00108089
-0.00203231
-0.00196021
-0.0018695
-0.00179862
-0.00173745
-0.0016818
-0.00162882
-0.0015817
-0.00155024
-0.00154236
-0.00284751
-0.00282891
-0.00279395
-0.00275848
-0.00271946
-0.00267491
-0.00262568
-0.00257982
-0.00254991
-0.00254392
-0.00431161
-0.00435816
-0.00438284
-0.00439009
-0.00437739
-0.0043441
-0.00429564
-0.00424259
-0.00420323
-0.00417389
-0.00654924
-0.00671928
-0.00682595
-0.00688767
-0.00690395
-0.00688001
-0.0068245
-0.00674514
-0.00665785
-0.00652342
0.000203691
0.00024815
0.000313899
0.000368634
0.000417888
0.000462358
0.000503884
0.000540934
0.000567979
0.000579227
-3.0355e-05
1.94013e-06
4.82861e-05
9.1883e-05
0.000133497
0.000173615
0.000212833
0.000247694
0.000271487
0.000275649
-0.000585894
-0.00057753
-0.000558873
-0.000535339
-0.000507132
-0.000474168
-0.000438234
-0.00040515
-0.000383898
-0.000382218
-0.00155329
-0.00158065
-0.00159652
-0.00159847
-0.00158669
-0.00156157
-0.0015271
-0.00149142
-0.00146477
-0.00145096
-0.00301093
-0.00310925
-0.00317154
-0.00320518
-0.00321105
-0.0031924
-0.00315589
-0.00310606
-0.00305459
-0.00298262
0.00231603
0.00233548
0.00236842
0.00240119
0.00243255
0.00246109
0.00248747
0.00251013
0.00252678
0.00253243
0.0022202
0.0022363
0.00226211
0.00228974
0.00231726
0.00234346
0.00236809
0.00238902
0.00240337
0.00240482
0.00199083
0.00199789
0.0020117
0.00203007
0.00205084
0.00207295
0.00209513
0.00211393
0.00212564
0.00212493
0.00158017
0.00157158
0.00156945
0.00157553
0.00158785
0.00160567
0.00162575
0.00164466
0.00165751
0.00166104
0.000939287
0.000902227
0.000877471
0.000868542
0.000871942
0.000885572
0.000905586
0.000929086
0.000953926
0.000977876
0.00449565
0.00450962
0.00453052
0.00455243
0.00457218
0.00458767
0.00459951
0.00460736
0.00461264
0.00461294
0.00456418
0.00457657
0.00459603
0.00461663
0.00463546
0.00464992
0.00466054
0.00466686
0.00467045
0.00467032
0.00469476
0.00470635
0.00472372
0.00474285
0.00475976
0.00477279
0.00478132
0.00478529
0.00478618
0.00478426
0.00487205
0.0048841
0.00489909
0.00491624
0.00493124
0.00494257
0.00494899
0.00495071
0.00495039
0.00494606
0.00507936
0.00509126
0.00510123
0.00511561
0.00512843
0.00513818
0.00514273
0.00514403
0.00514618
0.00513841
0.0065933
0.00660917
0.00662833
0.00664666
0.00665985
0.00666544
0.00666434
0.00665809
0.00665228
0.00664619
0.00683603
0.0068516
0.00687311
0.00689348
0.0069076
0.00691321
0.0069109
0.00690282
0.00689501
0.00689127
0.00734228
0.00736523
0.00739329
0.00741875
0.00743532
0.00744109
0.00743627
0.00742417
0.00741227
0.00740615
0.00812046
0.00816242
0.0082018
0.00823546
0.008256
0.0082621
0.0082539
0.00823605
0.00821784
0.00819902
0.00917291
0.00924845
0.00930026
0.00934409
0.00936918
0.00937548
0.00936341
0.00933759
0.00931225
0.00926158
0.00843636
0.00845758
0.00848013
0.0084998
0.00851008
0.00850883
0.00849693
0.00847837
0.00846181
0.00844888
0.00885582
0.00888035
0.00890945
0.0089343
0.00894746
0.00894676
0.00893292
0.00891099
0.00889126
0.00888079
0.00974404
0.00978902
0.00983487
0.00987217
0.00989185
0.00989221
0.00987428
0.00984488
0.00981619
0.00979615
0.011141
0.0112333
0.0113089
0.011367
0.0113972
0.0113992
0.0113743
0.0113309
0.0112853
0.011232
0.013047
0.013237
0.0133524
0.0134388
0.013482
0.013485
0.0134515
0.0133864
0.0133137
0.013168
0.00984072
0.00986521
0.00989309
0.00991591
0.00992601
0.00992058
0.009901
0.00987302
0.00984811
0.00983299
0.0104263
0.010458
0.0104972
0.0105285
0.0105432
0.0105385
0.0105159
0.0104831
0.0104523
0.0104378
0.0116915
0.0117595
0.0118278
0.0118802
0.0119055
0.0119026
0.011873
0.0118261
0.0117787
0.0117436
0.0137256
0.0138874
0.0140109
0.0141003
0.0141436
0.0141425
0.014101
0.0140278
0.0139443
0.0138319
0.0165757
0.0169493
0.0171573
0.0173021
0.0173698
0.0173712
0.0173099
0.017191
0.0170389
0.016724
0.0106017
0.0106238
0.0106555
0.0106811
0.0106917
0.0106851
0.0106621
0.010631
0.0106023
0.0105922
0.0113137
0.0113465
0.0113941
0.0114308
0.0114476
0.0114417
0.0114151
0.0113765
0.0113391
0.0113276
0.0128962
0.0129851
0.0130758
0.0131413
0.0131724
0.0131682
0.0131322
0.013074
0.0130089
0.0129565
0.015602
0.0158494
0.0160283
0.0161486
0.0162043
0.016203
0.0161491
0.0160485
0.0159148
0.0157221
0.0198417
0.0205207
0.0208571
0.0210681
0.0211595
0.0211592
0.0210759
0.0208953
0.020626
0.020009
0.0262439
0.0281742
0.0287573
0.0290871
0.0292108
0.0292104
0.0290895
0.0287914
0.028289
0.0264086
0.040953
0.0439578
0.0450329
0.045863
0.0462106
0.0462108
0.0458748
0.0450592
0.0440466
0.041058
0.0344392
0.0466533
0.0471826
0.0477095
0.0476683
0.0476502
0.047658
0.0470566
0.0467452
0.0344853
0.104966
0.129777
0.136889
0.139462
0.140282
0.140273
0.139439
0.13688
0.130104
0.105302
-0.0129631
-0.0300843
-0.0310125
-0.0323701
-0.0326309
-0.0326457
-0.0324496
-0.0312016
-0.0307409
-0.0137725
0.0197856
0.0205221
0.0207339
0.0208924
0.0209656
0.0209657
0.0208974
0.0207631
0.0206031
0.0199032
0.0309999
0.0327058
0.0334641
0.0341329
0.0344622
0.0344673
0.0341526
0.0335
0.0327896
0.0310919
0.0147619
0.0156564
0.0145061
0.0143647
0.0142927
0.0142789
0.0143171
0.0143891
0.0155156
0.0145405
0.0400622
0.0446086
0.0471713
0.0493889
0.0503073
0.0503184
0.0494337
0.0472132
0.0445344
0.0398863
-0.00195122
-0.0151055
-0.01637
-0.0175632
-0.0178224
-0.0178445
-0.0176519
-0.0165684
-0.0156296
-0.00258848
0.0152199
0.0155107
0.0155893
0.0156582
0.0156936
0.0156967
0.0156682
0.01562
0.0155766
0.0153088
0.0234764
0.0243505
0.0248899
0.0253346
0.0255667
0.0255729
0.0253579
0.0249323
0.0244215
0.0235503
0.0128705
0.0132206
0.0128924
0.0127501
0.012647
0.0126368
0.0127122
0.0128164
0.0131209
0.0127137
0.0361165
0.0372367
0.0379376
0.0387282
0.0391243
0.0391317
0.0387489
0.0379418
0.0371783
0.0360163
0.00876036
0.00363284
0.00322002
0.00278834
0.00271517
0.00269698
0.00271938
0.00307473
0.00332735
0.00837694
0.0104263
0.010521
0.0105429
0.0105713
0.0105897
0.0105954
0.0105873
0.0105751
0.0105734
0.0104859
0.0149382
0.0153587
0.0156738
0.0159326
0.0160707
0.0160773
0.0159554
0.0157129
0.0154114
0.0149872
0.00902777
0.00897642
0.00880666
0.00873658
0.00868443
0.00868065
0.00871946
0.00876931
0.00891321
0.00892738
0.0221606
0.0234975
0.0241211
0.0246715
0.0249407
0.0249482
0.0246927
0.0241394
0.0235004
0.0221393
0.00915227
0.00776462
0.00772764
0.00762762
0.00762038
0.00760853
0.00758419
0.00763437
0.00759624
0.00894457
0.00529443
0.00529114
0.00527752
0.00528035
0.00528758
0.0052955
0.00530203
0.00531142
0.0053311
0.00532704
0.00624968
0.00629763
0.00635908
0.00642554
0.00646744
0.00647455
0.00644577
0.00639145
0.00633062
0.00627736
0.00472487
0.00458183
0.0044702
0.00442097
0.00439846
0.00440076
0.00442517
0.0044726
0.00457486
0.00471147
0.00849852
0.00850383
0.00855834
0.00871143
0.00881056
0.00881661
0.00872954
0.0085769
0.00851719
0.008526
0.00581078
0.00551612
0.00556074
0.00558134
0.00559031
0.00558364
0.00556027
0.00550272
0.00543789
0.00572339
5.69548e-05
-3.51131e-05
-7.82235e-05
-9.63433e-05
-9.71823e-05
-8.60053e-05
-6.70315e-05
-3.67879e-05
-1.31158e-06
7.4118e-05
-0.00262237
-0.00297036
-0.00317999
-0.00330404
-0.00335536
-0.00334777
-0.00328198
-0.00314835
-0.00294581
-0.00259442
0.00037208
0.000159618
0.000104787
9.54461e-05
9.52689e-05
0.000104095
0.000122219
0.000164714
0.000240666
0.000467865
-0.00593934
-0.00802691
-0.00866972
-0.00895663
-0.00902689
-0.00902456
-0.00895184
-0.00867194
-0.00803707
-0.00588676
0.00190312
0.00238553
0.00257916
0.00269814
0.00273032
0.00272537
0.00268489
0.00255581
0.00236967
0.00189294
-0.00484525
-0.0050214
-0.00507931
-0.0051048
-0.0051059
-0.00508983
-0.00506245
-0.00502465
-0.00498142
-0.00482144
-0.0121502
-0.0130432
-0.0135567
-0.0138861
-0.0140335
-0.0140231
-0.0138609
-0.0135236
-0.0130196
-0.0121163
-0.00333693
-0.00361335
-0.00360418
-0.00360339
-0.0035785
-0.00356401
-0.00355806
-0.00351398
-0.00343953
-0.00309574
-0.024499
-0.0312571
-0.0330441
-0.0338632
-0.034105
-0.0341093
-0.0338738
-0.0330379
-0.0313389
-0.0245028
-0.000616093
0.00138884
0.00204988
0.0022967
0.00232106
0.00231486
0.00228377
0.00202113
0.00140138
-0.000608919
-0.00878049
-0.00899697
-0.00901007
-0.0090122
-0.00900005
-0.0089777
-0.00895573
-0.00893239
-0.00894021
-0.00873956
-0.0225667
-0.024042
-0.024856
-0.0253879
-0.0256279
-0.0256166
-0.0253572
-0.0248254
-0.0240127
-0.0225078
-0.00466925
-0.00472574
-0.00454445
-0.00445561
-0.00437855
-0.00435859
-0.00439754
-0.00438861
-0.00442372
-0.00425096
-0.0539711
-0.0676033
-0.0713345
-0.0726794
-0.0730588
-0.0730692
-0.0726945
-0.071378
-0.067613
-0.0539897
0.00182197
0.0086686
0.0110258
0.0112322
0.0111165
0.011104
0.0111916
0.0109885
0.00852437
0.00164215
-0.011144
-0.011245
-0.0111459
-0.0110933
-0.0110551
-0.0110303
-0.0110214
-0.0110556
-0.0111696
-0.0110625
-0.0324358
-0.0340673
-0.0350173
-0.0357151
-0.0360507
-0.0360375
-0.0356918
-0.0349882
-0.034041
-0.0323563
-0.00289401
-0.00214341
-0.00142389
-0.00118492
-0.00104536
-0.0010272
-0.00110572
-0.00125005
-0.0017594
-0.00219066
-0.0872516
-0.098653
-0.102123
-0.104796
-0.105834
-0.10586
-0.104881
-0.102241
-0.0987125
-0.0864921
0.0110709
0.0181212
0.0200319
0.0212195
0.0215113
0.0215114
0.0212331
0.0200565
0.0180805
0.00986814
-0.0120321
-0.0118941
-0.0116645
-0.0115466
-0.0114826
-0.0114545
-0.011473
-0.0115661
-0.0117935
-0.0119084
-0.0396161
-0.0412945
-0.0422929
-0.0430326
-0.0433962
-0.0433879
-0.0430099
-0.0422675
-0.0412707
-0.0395356
-0.000508517
0.000978783
0.00198656
0.00235675
0.00253756
0.0025612
0.00244511
0.00216713
0.00132678
5.51405e-05
-0.109302
-0.120615
-0.123971
-0.126687
-0.127805
-0.127832
-0.126769
-0.124085
-0.120757
-0.109388
0.0147105
0.0277821
0.0295
0.0308466
0.0311391
0.0311441
0.0308837
0.0295694
0.0279991
0.0147288
)
;

boundaryField
{
    walls
    {
        type            zeroGradient;
    }
    lid
    {
        type            zeroGradient;
    }
}


// ************************************************************************* //
