/*--------------------------------*- C++ -*----------------------------------*\
| =========                 |                                                 |
| \\      /  F ield         | OpenFOAM: The Open Source CFD Toolbox           |
|  \\    /   O peration     | Version:  2.3.1                                 |
|   \\  /    A nd           | Web:      www.OpenFOAM.org                      |
|    \\/     M anipulation  |                                                 |
\*---------------------------------------------------------------------------*/
FoamFile
{
    version     2.0;
    format      ascii;
    class       surfaceScalarField;
    location    "0.59";
    object      phi;
}
// * * * * * * * * * * * * * * * * * * * * * * * * * * * * * * * * * * * * * //

dimensions      [0 3 -1 0 0 0 0];

internalField   nonuniform List<scalar> 
2700
(
5.81766e-06
3.0706e-05
-1.95335e-05
4.21198e-06
2.57564e-05
-2.40272e-05
2.01293e-06
2.59052e-05
-2.35901e-05
1.11313e-06
2.53996e-05
-2.43895e-05
5.32328e-07
2.53129e-05
-2.46449e-05
1.25161e-07
2.52367e-05
-2.47469e-05
-1.34913e-07
2.5108e-05
-2.47755e-05
-2.28059e-07
2.49398e-05
-2.47721e-05
-1.41791e-07
2.47579e-05
-2.4767e-05
2.46457e-05
-2.47289e-05
1.59785e-06
5.53869e-05
-2.61859e-05
1.50812e-06
5.32178e-05
-2.72537e-05
1.35637e-06
5.35716e-05
-2.73882e-05
9.10274e-07
5.36713e-05
-2.76961e-05
4.25708e-07
5.37631e-05
-2.78472e-05
-1.90184e-09
5.36961e-05
-2.79134e-05
-2.94262e-07
5.34328e-05
-2.79202e-05
-3.59889e-07
5.30197e-05
-2.78981e-05
-1.78554e-07
5.25427e-05
-2.7853e-05
5.20457e-05
-2.75088e-05
1.44645e-06
8.65147e-05
-3.24618e-05
1.57556e-06
8.67628e-05
-3.35353e-05
1.44568e-06
8.76136e-05
-3.3767e-05
9.62322e-07
8.8276e-05
-3.39671e-05
3.40146e-07
8.86248e-05
-3.40896e-05
-2.57163e-07
8.85799e-05
-3.41337e-05
-6.91746e-07
8.81279e-05
-3.41078e-05
-8.01847e-07
8.73214e-05
-3.40447e-05
-4.96266e-07
8.63215e-05
-3.39521e-05
8.51246e-05
-3.35211e-05
1.82671e-06
0.000128577
-4.37845e-05
2.3429e-06
0.000130952
-4.45951e-05
2.07287e-06
0.00013288
-4.48727e-05
1.28926e-06
0.000134294
-4.50997e-05
2.87776e-07
0.000134999
-4.52417e-05
-6.97188e-07
0.000134979
-4.52739e-05
-1.47477e-06
0.000134238
-4.51976e-05
-1.74455e-06
0.000132781
-4.50533e-05
-1.27858e-06
0.0001308
-4.48669e-05
0.000128084
-4.42593e-05
3.6129e-06
-6.26894e-05
0.000187637
4.20053e-06
-6.38151e-05
0.000194199
3.46159e-06
-6.42914e-05
0.000197931
1.98838e-06
-6.4661e-05
0.000200459
2.66261e-07
-6.4877e-05
0.000201636
-1.45043e-06
-6.4906e-05
0.000201639
-2.9069e-06
-6.47442e-05
0.000200494
-3.66602e-06
-6.44432e-05
0.000198002
-3.23262e-06
-6.4035e-05
0.000194337
-6.29849e-05
0.000187695
1.01354e-06
2.26117e-05
-4.31142e-05
9.48373e-07
2.25648e-05
-4.64598e-05
1.04808e-06
2.295e-05
-4.65644e-05
7.59022e-07
2.29182e-05
-4.69404e-05
4.03552e-07
2.29193e-05
-4.714e-05
8.60458e-08
2.28739e-05
-4.72345e-05
-1.42334e-07
2.2764e-05
-4.72475e-05
-2.50036e-07
2.26098e-05
-4.72062e-05
-2.14151e-07
2.24153e-05
-4.71457e-05
2.19787e-05
-4.6867e-05
7.55464e-07
4.65963e-05
-5.08528e-05
9.14888e-07
4.69873e-05
-5.17449e-05
9.91624e-07
4.74797e-05
-5.18936e-05
7.28977e-07
4.77416e-05
-5.21492e-05
3.52356e-07
4.78717e-05
-5.23192e-05
-1.45105e-08
4.78268e-05
-5.2393e-05
-2.81704e-07
4.7594e-05
-5.23791e-05
-3.75492e-07
4.72177e-05
-5.23053e-05
-2.63297e-07
4.6762e-05
-5.22037e-05
4.60665e-05
-5.17919e-05
1.08012e-06
7.45892e-05
-6.14275e-05
1.31576e-06
7.55557e-05
-6.22165e-05
1.23062e-06
7.64468e-05
-6.25171e-05
8.37121e-07
7.71094e-05
-6.28005e-05
2.98272e-07
7.74451e-05
-6.29847e-05
-2.361e-07
7.74122e-05
-6.30415e-05
-6.39957e-07
7.70081e-05
-6.29746e-05
-7.85157e-07
7.62802e-05
-6.2819e-05
-5.7927e-07
7.53572e-05
-6.26244e-05
7.41319e-05
-6.21111e-05
1.73366e-06
0.000108267
-7.90986e-05
2.135e-06
0.00011073
-8.00505e-05
1.85788e-06
0.000112524
-8.05479e-05
1.15452e-06
0.000113819
-8.09698e-05
2.59596e-07
0.000114457
-8.12248e-05
-6.29581e-07
0.000114441
-8.12724e-05
-1.34531e-06
0.00011378
-8.11118e-05
-1.65733e-06
0.000112467
-8.07955e-05
-1.35252e-06
0.000110677
-8.03995e-05
0.000108093
-7.95812e-05
3.46337e-06
-0.000106992
0.000149144
3.86287e-06
-0.000108619
0.00015517
3.12542e-06
-0.000109542
0.000158565
1.78819e-06
-0.00011028
0.000160835
2.41984e-07
-0.000110693
0.00016188
-1.29695e-06
-0.000110738
0.000161884
-2.63381e-06
-0.00011042
0.000160855
-3.39254e-06
-0.00010978
0.000158629
-3.14888e-06
-0.000108965
0.000155326
-0.000107417
0.000149274
1.1974e-06
1.80735e-05
-6.23636e-05
9.0859e-07
1.77189e-05
-6.38561e-05
7.65086e-07
1.77857e-05
-6.41632e-05
5.43439e-07
1.78024e-05
-6.44718e-05
2.94509e-07
1.78185e-05
-6.46615e-05
6.28113e-08
1.77916e-05
-6.47435e-05
-1.12954e-07
1.77101e-05
-6.47324e-05
-2.05595e-07
1.75918e-05
-6.46511e-05
-1.93167e-07
1.74406e-05
-6.45384e-05
1.70712e-05
-6.40854e-05
7.64899e-07
3.60063e-05
-6.94955e-05
8.00398e-07
3.62914e-05
-7.02873e-05
7.59556e-07
3.65806e-05
-7.05735e-05
5.53541e-07
3.67942e-05
-7.08539e-05
2.71018e-07
3.69034e-05
-7.10403e-05
-8.35498e-09
3.68741e-05
-7.1111e-05
-2.17799e-07
3.66965e-05
-7.10709e-05
-3.0123e-07
3.64072e-05
-7.09483e-05
-2.31911e-07
3.60547e-05
-7.07954e-05
3.54728e-05
-7.03665e-05
8.3884e-07
5.63925e-05
-8.25609e-05
1.03698e-06
5.72383e-05
-8.32576e-05
9.52468e-07
5.79036e-05
-8.36458e-05
6.49737e-07
5.84119e-05
-8.39976e-05
2.37386e-07
5.86709e-05
-8.42215e-05
-1.73206e-07
5.86472e-05
-8.42816e-05
-4.91884e-07
5.8341e-05
-8.41773e-05
-6.17626e-07
5.77867e-05
-8.39499e-05
-4.76107e-07
5.70844e-05
-8.36797e-05
5.60996e-05
-8.31602e-05
1.34535e-06
7.94313e-05
-0.000103383
1.65498e-06
8.13308e-05
-0.000104341
1.43729e-06
8.26659e-05
-0.000104973
8.97337e-07
8.36245e-05
-0.000105515
2.10183e-07
8.40979e-05
-0.000105837
-4.74649e-07
8.40839e-05
-0.000105892
-1.02772e-06
8.35899e-05
-0.000105675
-1.28326e-06
8.26219e-05
-0.000105245
-1.06878e-06
8.12864e-05
-0.000104722
7.93285e-05
-0.000103862
2.63977e-06
-0.000133947
0.000103787
2.94828e-06
-0.000135671
0.000108148
2.38035e-06
-0.000136821
0.000110588
1.36852e-06
-0.000137738
0.000112179
1.95767e-07
-0.000138249
0.00011291
-9.73141e-07
-0.000138303
0.000112905
-1.98914e-06
-0.000137902
0.00011218
-2.58218e-06
-0.0001371
0.000110606
-2.40421e-06
-0.000136066
0.000108234
-0.000134409
0.000103853
5.44884e-07
1.12584e-05
-7.41559e-05
5.10823e-07
1.12728e-05
-7.50783e-05
4.63161e-07
1.13029e-05
-7.53959e-05
3.50312e-07
1.13295e-05
-7.56611e-05
2.07615e-07
1.13434e-05
-7.58338e-05
6.85831e-08
1.13272e-05
-7.59003e-05
-4.12944e-08
1.12766e-05
-7.58678e-05
-1.06547e-07
1.12045e-05
-7.57551e-05
-1.08718e-07
1.11159e-05
-7.5611e-05
1.09083e-05
-7.50715e-05
4.21366e-07
2.28044e-05
-8.14255e-05
5.04391e-07
2.30317e-05
-8.20862e-05
4.82624e-07
2.31953e-05
-8.23962e-05
3.64193e-07
2.3328e-05
-8.26809e-05
1.95826e-07
2.33946e-05
-8.28691e-05
2.5304e-08
2.33749e-05
-8.29306e-05
-1.06184e-07
2.32637e-05
-8.28685e-05
-1.61226e-07
2.30846e-05
-8.27118e-05
-1.13024e-07
2.28691e-05
-8.25315e-05
2.25315e-05
-8.20613e-05
4.78752e-07
3.53504e-05
-9.55182e-05
6.43084e-07
3.58539e-05
-9.61699e-05
6.04031e-07
3.6251e-05
-9.65842e-05
4.24456e-07
3.65592e-05
-9.69652e-05
1.74339e-07
3.67151e-05
-9.7207e-05
-7.68756e-08
3.66965e-05
-9.72636e-05
-2.73639e-07
3.65055e-05
-9.71331e-05
-3.48639e-07
3.61631e-05
-9.68633e-05
-2.53633e-07
3.57366e-05
-9.65561e-05
3.51738e-05
-9.60135e-05
7.82634e-07
4.86371e-05
-0.000117371
1.01619e-06
4.9689e-05
-0.000118317
9.00223e-07
5.04788e-05
-0.000118989
5.74647e-07
5.10515e-05
-0.000119578
1.53989e-07
5.13334e-05
-0.000119931
-2.68595e-07
5.13208e-05
-0.000119985
-6.05296e-07
5.10143e-05
-0.00011974
-7.5572e-07
5.0429e-05
-0.000119256
-6.00837e-07
4.96327e-05
-0.000118687
4.85532e-05
-0.000117814
1.52069e-06
-0.000147637
6.08722e-05
1.7843e-06
-0.000149273
6.31024e-05
1.46538e-06
-0.000150442
6.45004e-05
8.55874e-07
-0.0001514
6.54119e-05
1.40892e-07
-0.000151942
6.58307e-05
-5.70261e-07
-0.000151999
6.58211e-05
-1.19106e-06
-0.000151567
6.53916e-05
-1.53333e-06
-0.000150725
6.44816e-05
-1.36019e-06
-0.000149669
6.3109e-05
-0.000148092
6.08645e-05
2.13859e-07
4.27049e-06
-7.86399e-05
2.21588e-07
4.27826e-06
-7.93623e-05
2.09036e-07
4.27243e-06
-7.96511e-05
1.79844e-07
4.27077e-06
-7.98956e-05
1.40397e-07
4.26705e-06
-8.00537e-05
9.85487e-08
4.25636e-06
-8.01055e-05
5.5596e-08
4.23741e-06
-8.00532e-05
2.1175e-08
4.21331e-06
-7.99224e-05
-3.33992e-09
4.1851e-06
-7.97561e-05
4.11844e-06
-7.91826e-05
1.67101e-07
8.69398e-06
-8.6002e-05
2.08672e-07
8.76085e-06
-8.65944e-05
2.0742e-07
8.79725e-06
-8.69016e-05
1.78296e-07
8.82642e-06
-8.71869e-05
1.33093e-07
8.83613e-06
-8.7372e-05
8.35284e-08
8.8204e-06
-8.74223e-05
3.65746e-08
8.77866e-06
-8.73399e-05
7.19539e-09
8.71577e-06
-8.71599e-05
-2.8023e-10
8.64314e-06
-8.69539e-05
8.531e-06
-8.64584e-05
1.71578e-07
1.34832e-05
-0.000100448
2.37682e-07
1.36472e-05
-0.000101089
2.33362e-07
1.37749e-05
-0.000101522
1.85978e-07
1.38699e-05
-0.000101923
1.16668e-07
1.39122e-05
-0.000102176
4.25004e-08
1.38956e-05
-0.000102224
-1.97176e-08
1.38202e-05
-0.000102072
-5.23172e-08
1.3695e-05
-0.000101768
-3.93267e-08
1.3539e-05
-0.000101424
1.33482e-05
-0.000100851
2.69783e-07
1.84553e-05
-0.000122566
3.58245e-07
1.88237e-05
-0.000123531
3.24889e-07
1.9116e-05
-0.000124243
2.26272e-07
1.93201e-05
-0.000124873
9.92223e-08
1.94136e-05
-0.000125249
-3.00529e-08
1.93984e-05
-0.000125299
-1.43947e-07
1.92779e-05
-0.000125024
-1.99596e-07
1.90493e-05
-0.000124495
-1.65223e-07
1.87411e-05
-0.000123873
1.83586e-05
-0.000122966
5.36392e-07
-0.000152298
2.2629e-05
6.4174e-07
-0.000153917
2.34237e-05
5.26481e-07
-0.000155121
2.39737e-05
3.19484e-07
-0.000156124
2.43188e-05
8.37457e-08
-0.000156694
2.44687e-05
-1.52879e-07
-0.000156748
2.44553e-05
-3.66087e-07
-0.000156288
2.42821e-05
-5.01676e-07
-0.000155396
2.39203e-05
-4.4675e-07
-0.000154297
2.33709e-05
-0.000152735
2.25705e-05
-1.59569e-08
-2.83923e-06
-7.57971e-05
-2.9381e-08
-2.93073e-06
-7.64309e-05
-1.55378e-08
-2.98706e-06
-7.669e-05
2.6054e-08
-3.03399e-06
-7.69153e-05
8.91737e-08
-3.06552e-06
-7.70639e-05
1.4946e-07
-3.07409e-06
-7.71042e-05
1.82814e-07
-3.06113e-06
-7.70389e-05
1.74974e-07
-3.03227e-06
-7.68951e-05
1.17721e-07
-2.99641e-06
-7.67134e-05
-2.92575e-06
-7.61482e-05
-4.37546e-08
-5.7472e-06
-8.30627e-05
-7.59747e-08
-5.88278e-06
-8.36236e-05
-5.83063e-08
-5.99104e-06
-8.39282e-05
-8.83897e-11
-6.08254e-06
-8.42096e-05
8.30314e-08
-6.14235e-06
-8.43919e-05
1.63273e-07
-6.15727e-06
-8.44328e-05
2.10634e-07
-6.12836e-06
-8.43345e-05
2.03431e-07
-6.06509e-06
-8.41332e-05
1.27791e-07
-5.98616e-06
-8.39008e-05
-5.8738e-06
-8.33944e-05
-1.19674e-07
-8.58404e-06
-9.75031e-05
-1.76663e-07
-8.76304e-06
-9.81661e-05
-1.51402e-07
-8.91871e-06
-9.86339e-05
-5.70956e-08
-9.05444e-06
-9.90598e-05
6.7954e-08
-9.13671e-06
-9.93207e-05
1.90565e-07
-9.15519e-06
-9.93628e-05
2.70489e-07
-9.10849e-06
-9.91864e-05
2.75262e-07
-9.00801e-06
-9.88426e-05
1.80924e-07
-8.88286e-06
-9.84462e-05
-8.7234e-06
-9.78314e-05
-2.4178e-07
-1.10732e-05
-0.000119835
-3.2937e-07
-1.13137e-05
-0.000120897
-2.82875e-07
-1.15058e-05
-0.000121706
-1.403e-07
-1.16716e-05
-0.000122402
4.89635e-08
-1.17707e-05
-0.000122807
2.35535e-07
-1.17898e-05
-0.000122852
3.67103e-07
-1.17278e-05
-0.000122539
3.94933e-07
-1.1597e-05
-0.000121933
2.81527e-07
-1.14358e-05
-0.000121206
-1.12077e-05
-0.000120194
-4.06613e-07
-0.000150141
-1.28017e-05
-5.17898e-07
-0.000151995
-1.31027e-05
-4.47428e-07
-0.000153388
-1.32871e-05
-2.39815e-07
-0.000154518
-1.34614e-05
2.94765e-08
-0.000155145
-1.35652e-05
2.96966e-07
-0.000155196
-1.35837e-05
4.95179e-07
-0.000154673
-1.35153e-05
5.53306e-07
-0.00015365
-1.3374e-05
4.29361e-07
-0.00015236
-1.32145e-05
-0.000150562
-1.29171e-05
-2.07839e-07
-9.8951e-06
-6.57162e-05
-2.72648e-07
-1.01333e-05
-6.62567e-05
-2.34537e-07
-1.02639e-05
-6.6488e-05
-1.16216e-07
-1.0371e-05
-6.6688e-05
4.97338e-08
-1.04371e-05
-6.68194e-05
2.12982e-07
-1.04456e-05
-6.68498e-05
3.22565e-07
-1.03975e-05
-6.67804e-05
3.4188e-07
-1.0307e-05
-6.66369e-05
2.52107e-07
-1.01951e-05
-6.6458e-05
-9.96784e-06
-6.59513e-05
-2.50537e-07
-2.02175e-05
-7.25238e-05
-3.69752e-07
-2.06098e-05
-7.30651e-05
-3.32399e-07
-2.08996e-05
-7.33674e-05
-1.75051e-07
-2.11402e-05
-7.36374e-05
4.28004e-08
-2.12808e-05
-7.3807e-05
2.58782e-07
-2.12973e-05
-7.38392e-05
4.05664e-07
-2.11892e-05
-7.37334e-05
4.25668e-07
-2.09806e-05
-7.35232e-05
2.81945e-07
-2.07226e-05
-7.32739e-05
-2.0349e-05
-7.27642e-05
-4.48497e-07
-3.09122e-05
-8.64063e-05
-6.35253e-07
-3.15188e-05
-8.71243e-05
-5.64807e-07
-3.20214e-05
-8.7637e-05
-3.12901e-07
-3.24291e-05
-8.808e-05
2.62613e-08
-3.26571e-05
-8.83417e-05
3.62523e-07
-3.26791e-05
-8.8376e-05
6.04142e-07
-3.24949e-05
-8.81829e-05
6.60517e-07
-3.21316e-05
-8.78063e-05
4.57571e-07
-3.16715e-05
-8.73525e-05
-3.1087e-05
-8.66687e-05
-8.5471e-07
-4.12256e-05
-0.00010871
-1.1186e-06
-4.22255e-05
-0.000109979
-9.63379e-07
-4.29973e-05
-0.000110938
-5.38934e-07
-4.35956e-05
-0.000111716
3.89996e-09
-4.3915e-05
-0.000112149
5.43031e-07
-4.39396e-05
-0.000112187
9.56582e-07
-4.36706e-05
-0.000111834
1.10101e-06
-4.31245e-05
-0.000111137
8.36961e-07
-4.24055e-05
-0.000110254
-4.14237e-05
-0.000109026
-1.5587e-06
-0.000140704
-4.91098e-05
-1.87494e-06
-0.000143199
-5.07229e-05
-1.55462e-06
-0.000144989
-5.17364e-05
-8.60357e-07
-0.000146338
-5.24918e-05
-2.14999e-08
-0.000147045
-5.2875e-05
8.12072e-07
-0.00014709
-5.28992e-05
1.49408e-06
-0.000146479
-5.2568e-05
1.80601e-06
-0.000145234
-5.18666e-05
1.51599e-06
-0.000143555
-5.09108e-05
-0.000141113
-4.93078e-05
-3.728e-07
-1.65869e-05
-4.8781e-05
-4.87008e-07
-1.70238e-05
-4.91445e-05
-4.31928e-07
-1.72534e-05
-4.93165e-05
-2.427e-07
-1.74358e-05
-4.94705e-05
1.99885e-08
-1.7542e-05
-4.95711e-05
2.81006e-07
-1.75517e-05
-4.95916e-05
4.63162e-07
-1.74644e-05
-4.95324e-05
5.08132e-07
-1.73014e-05
-4.94158e-05
3.82938e-07
-1.7093e-05
-4.92772e-05
-1.66662e-05
-4.89315e-05
-4.76726e-07
-3.42392e-05
-5.44378e-05
-6.64671e-07
-3.4965e-05
-5.49851e-05
-5.99284e-07
-3.54888e-05
-5.52472e-05
-3.4271e-07
-3.59106e-05
-5.54724e-05
1.13017e-08
-3.61469e-05
-5.5611e-05
3.62858e-07
-3.61657e-05
-5.56333e-05
6.12412e-07
-3.59674e-05
-5.55393e-05
6.70104e-07
-3.55856e-05
-5.53565e-05
4.73703e-07
-3.51013e-05
-5.51311e-05
-3.43971e-05
-5.4601e-05
-8.59973e-07
-5.33856e-05
-6.64671e-05
-1.1467e-06
-5.46028e-05
-6.72746e-05
-1.00281e-06
-5.55701e-05
-6.77764e-05
-5.72242e-07
-5.63205e-05
-6.81819e-05
-7.57587e-09
-5.67231e-05
-6.84131e-05
5.53773e-07
-5.67496e-05
-6.8438e-05
9.75838e-07
-5.64019e-05
-6.82572e-05
1.11289e-06
-5.5711e-05
-6.79021e-05
8.29084e-07
-5.48052e-05
-6.74476e-05
-5.36167e-05
-6.66606e-05
-1.68468e-06
-7.33523e-05
-8.71159e-05
-2.07482e-06
-7.55836e-05
-8.86868e-05
-1.73448e-06
-7.71944e-05
-8.97342e-05
-9.71341e-07
-7.83705e-05
-9.0515e-05
-3.48564e-08
-7.89674e-05
-9.09277e-05
8.96012e-07
-7.89978e-05
-9.09564e-05
1.64712e-06
-7.84699e-05
-9.06068e-05
1.98067e-06
-7.737e-05
-8.98928e-05
1.61721e-06
-7.58481e-05
-8.89172e-05
-7.36476e-05
-8.73753e-05
-3.28109e-06
-0.000120106
-9.06867e-05
-3.65837e-06
-0.000123666
-9.47733e-05
-2.89776e-06
-0.000125878
-9.7106e-05
-1.57166e-06
-0.000127378
-9.87006e-05
-6.77665e-08
-0.000128109
-9.94524e-05
1.42611e-06
-0.000128145
-9.94833e-05
2.73257e-06
-0.000127494
-9.88039e-05
3.48083e-06
-0.000126094
-9.72968e-05
3.17314e-06
-0.000124006
-9.50819e-05
-0.000120494
-9.10256e-05
-4.70087e-07
-2.2258e-05
-2.60741e-05
-6.43389e-07
-2.28224e-05
-2.61738e-05
-5.83237e-07
-2.31503e-05
-2.62517e-05
-3.40689e-07
-2.34094e-05
-2.63323e-05
-2.00427e-10
-2.35557e-05
-2.63859e-05
3.39147e-07
-2.35666e-05
-2.63966e-05
5.77258e-07
-2.34414e-05
-2.63637e-05
6.33765e-07
-2.32059e-05
-2.63029e-05
4.60104e-07
-2.29024e-05
-2.62415e-05
-2.23505e-05
-2.61521e-05
-6.29387e-07
-4.66039e-05
-2.95087e-05
-9.03853e-07
-4.76111e-05
-2.9973e-05
-8.19488e-07
-4.83959e-05
-3.01389e-05
-4.78491e-07
-4.90106e-05
-3.02691e-05
-1.00478e-08
-4.93449e-05
-3.03493e-05
4.5626e-07
-4.93664e-05
-3.03612e-05
7.92369e-07
-4.90764e-05
-3.03052e-05
8.73734e-07
-4.85106e-05
-3.01983e-05
6.03247e-07
-4.77769e-05
-3.00538e-05
-4.67955e-05
-2.95962e-05
-1.22631e-06
-7.46457e-05
-3.7262e-05
-1.62585e-06
-7.65602e-05
-3.80047e-05
-1.4061e-06
-7.81093e-05
-3.83637e-05
-8.03402e-07
-7.9258e-05
-3.86238e-05
-3.18019e-08
-7.9851e-05
-3.87674e-05
7.35822e-07
-7.98813e-05
-3.87808e-05
1.33042e-06
-7.93569e-05
-3.86661e-05
1.5471e-06
-7.82851e-05
-3.84357e-05
1.16716e-06
-7.68235e-05
-3.81074e-05
-7.4947e-05
-3.73714e-05
-2.61221e-06
-0.000107193
-5.20172e-05
-3.10603e-06
-0.000111275
-5.35541e-05
-2.52285e-06
-0.000114115
-5.43942e-05
-1.39072e-06
-0.000116049
-5.49448e-05
-6.45837e-08
-0.000116976
-5.52179e-05
1.25302e-06
-0.000117015
-5.52353e-05
2.36939e-06
-0.000116173
-5.49978e-05
2.94358e-06
-0.00011435
-5.44916e-05
2.50475e-06
-0.000111654
-5.37031e-05
-0.000107622
-5.21787e-05
-5.66082e-06
-7.98473e-05
-0.000141793
-5.89623e-06
-8.37841e-05
-0.000150945
-4.4351e-06
-8.57818e-05
-0.000155701
-2.32567e-06
-8.69404e-05
-0.000158629
-1.05133e-07
-8.74539e-05
-0.000159888
2.09949e-06
-8.7474e-05
-0.000159924
4.16883e-06
-8.70112e-05
-0.000158765
5.60106e-06
-8.59266e-05
-0.000155978
5.48698e-06
-8.40383e-05
-0.000151474
-8.01403e-05
-0.000142401
-4.48885e-07
-2.56426e-05
-6.94082e-07
-2.59476e-05
-6.53357e-07
-2.63129e-05
-3.89624e-07
-2.66183e-05
-1.02066e-08
-2.67893e-05
3.68427e-07
-2.68004e-05
6.29424e-07
-2.66522e-05
6.69471e-07
-2.63717e-05
4.28005e-07
-2.60321e-05
-2.57434e-05
-6.3981e-07
-5.4543e-05
-1.00999e-06
-5.55876e-05
-9.38137e-07
-5.6563e-05
-5.52821e-07
-5.73149e-05
-2.04729e-08
-5.77147e-05
5.09937e-07
-5.77376e-05
8.90812e-07
-5.73862e-05
9.61728e-07
-5.66892e-05
6.01031e-07
-5.57737e-05
-5.4758e-05
-1.41007e-06
-9.04381e-05
-1.91834e-06
-9.31341e-05
-1.65997e-06
-9.52392e-05
-9.44995e-07
-9.67112e-05
-4.37433e-08
-9.7442e-05
8.51417e-07
-9.74759e-05
1.55763e-06
-9.68201e-05
1.81309e-06
-9.54416e-05
1.33515e-06
-9.34488e-05
-9.07986e-05
-3.3881e-06
-0.0001391
-3.9059e-06
-0.000146211
-3.09012e-06
-0.000150496
-1.67086e-06
-0.000153125
-7.96963e-08
-0.000154303
1.50031e-06
-0.000154343
2.89437e-06
-0.000153265
3.69614e-06
-0.000150782
3.25597e-06
-0.000146722
-0.000139697
-8.44098e-06
-0.000210481
-8.04451e-06
-0.000230388
-5.694e-06
-0.000238623
-2.86785e-06
-0.000242889
-1.24675e-07
-0.000244499
2.59315e-06
-0.000244536
5.35114e-06
-0.000243038
7.63944e-06
-0.000238979
8.20848e-06
-0.000231276
-0.000211555
-2.20784e-05
-0.000323807
0.000135466
-1.66182e-05
-0.000382918
0.00014711
-1.01568e-05
-0.000397063
0.000152007
-4.65286e-06
-0.000402834
0.000154466
-1.70552e-07
-0.000404349
0.000155393
4.25041e-06
-0.000404357
0.000155417
9.59483e-06
-0.000402921
0.000154561
1.57849e-05
-0.000397377
0.000152238
2.16236e-05
-0.000384655
0.00014765
-0.000325932
0.000136124
-5.14499e-05
-0.000501683
0.000229478
-3.47276e-05
-0.000654486
0.000255037
-1.79226e-05
-0.000676717
0.000263034
-7.3973e-06
-0.00067964
0.00026647
-2.24505e-07
-0.000678771
0.000267426
6.84756e-06
-0.000678682
0.000267439
1.69813e-05
-0.000679423
0.00026653
3.31703e-05
-0.00067662
0.000263252
5.05594e-05
-0.000657735
0.000255928
-0.000505807
0.000230556
-0.000148165
-0.000745409
0.000392163
-6.44605e-05
-0.00123627
0.000498595
-1.61393e-05
-0.00124238
0.000517906
-3.71725e-06
-0.00121544
0.000523917
-1.63886e-08
-0.00120636
0.000524432
3.52869e-06
-0.00120609
0.000524387
1.50422e-05
-0.00121429
0.00052389
6.14623e-05
-0.00124067
0.000518194
0.000146313
-0.00124324
0.000501165
-0.000754758
0.000395453
-0.000247401
-0.00132945
0.00083155
-0.000104433
-0.00221877
0.000839684
-3.34389e-05
-0.00220679
0.000893564
-9.66437e-06
-0.00214906
0.000910015
-1.4116e-07
-0.00212956
0.000913836
9.13695e-06
-0.00212902
0.000913814
3.16704e-05
-0.00214679
0.000910156
0.000100096
-0.0022033
0.000894346
0.000243715
-0.00222837
0.00084162
-0.00134576
0.000834756
0.000299759
-0.00162952
0.000147442
-0.00206712
5.12493e-05
-0.00211129
1.60049e-05
-0.00211449
2.58599e-07
-0.00211449
-1.50615e-05
-0.00211436
-4.84121e-05
-0.00211411
-0.000141111
-0.0021113
-0.000295432
-0.0020748
-0.0016415
-1.23136e-05
-0.000164542
0.000170597
-1.0724e-05
-0.000184852
0.000179488
-7.35894e-06
-0.000191017
0.000184015
-3.61275e-06
-0.000194642
0.000186787
-1.46653e-07
-0.000195915
0.000188009
3.28326e-06
-0.00019594
0.00018805
6.95182e-06
-0.000194756
0.000186935
1.02061e-05
-0.000191244
0.000184313
1.2038e-05
-0.000185568
0.000180043
-0.000165358
0.000171246
-2.91555e-05
-0.000160257
0.000254433
-2.29768e-05
-0.000212554
0.000276616
-1.42079e-05
-0.000222961
0.000286255
-6.46293e-06
-0.000227493
0.00029162
-2.2593e-07
-0.000228395
0.000293706
5.94782e-06
-0.000228397
0.000293761
1.34921e-05
-0.000227558
0.000291819
2.20086e-05
-0.000223156
0.0002867
2.86041e-05
-0.000213746
0.000277616
-0.000161784
0.000255648
-2.81071e-05
-9.79133e-06
0.000269817
-1.48183e-05
-4.6657e-05
0.000319428
-6.18556e-06
-4.04386e-05
0.000326762
-2.20453e-06
-3.76572e-05
0.00033011
-6.19703e-08
-3.69133e-05
0.000330817
2.03132e-06
-3.69066e-05
0.000330808
5.82334e-06
-3.7604e-05
0.000330153
1.41339e-05
-4.01794e-05
0.000326925
2.77714e-05
-4.68827e-05
0.000320684
-9.85826e-06
0.000271237
-0.000179415
0.000349474
0.000651705
-0.000106516
-3.5849e-05
0.000756151
-4.49647e-05
-8.44e-06
0.000800215
-1.62727e-05
2.56559e-05
0.000818214
-4.51781e-07
3.77079e-05
0.000823598
1.50614e-05
3.79425e-05
0.000823662
4.27073e-05
2.65485e-05
0.000818573
0.000103251
-7.36715e-06
0.000801207
0.000177003
-3.813e-05
0.000759234
0.000345732
0.000656113
0.000192163
-0.00147236
9.7882e-05
-0.00200893
3.54792e-05
-0.00205758
1.12176e-05
-0.00206482
2.35045e-07
-0.00206604
-1.04432e-05
-0.00206598
-3.35191e-05
-0.00206471
-9.41728e-05
-0.00205827
-0.000189935
-0.00201746
-0.00148585
-6.11676e-06
-9.64526e-05
0.000182533
-5.97129e-06
-0.000102954
0.000187573
-4.45924e-06
-0.000105205
0.00019065
-2.32288e-06
-0.000106812
0.00019281
-1.00445e-07
-0.000107494
0.000193876
2.1045e-06
-0.000107517
0.000193926
4.20683e-06
-0.0001069
0.000192976
5.68561e-06
-0.000105356
0.000190953
5.96558e-06
-0.00010326
0.000188048
-9.68004e-05
0.000183082
-1.41958e-05
-7.32026e-05
0.000245441
-1.26696e-05
-8.44846e-05
0.000256686
-8.67921e-06
-8.61089e-05
0.000263228
-4.22345e-06
-8.70517e-05
0.000267465
-1.65901e-07
-8.7182e-05
0.000269395
3.85936e-06
-8.71912e-05
0.000269467
8.22303e-06
-8.70925e-05
0.000267707
1.21245e-05
-8.6184e-05
0.000263695
1.39015e-05
-8.47954e-05
0.00025748
-7.35871e-05
0.000246381
-5.44218e-06
-1.63403e-05
0.000218391
-2.5194e-06
8.45568e-07
0.000231179
-1.35444e-06
6.46114e-06
0.000233022
-6.9769e-07
8.17172e-06
0.000234224
-4.14615e-08
8.3905e-06
0.00023458
6.10763e-07
8.37398e-06
0.000234586
1.24422e-06
8.14246e-06
0.000234277
2.35974e-06
6.51827e-06
0.000233113
5.36179e-06
1.31914e-06
0.00023157
-1.58091e-05
0.000218753
-5.39972e-05
0.000272022
0.000417214
-3.80771e-05
0.00029753
0.000443455
-2.07115e-05
0.000326991
0.000462241
-8.80088e-06
0.00034138
0.000473023
-3.54013e-07
0.000346501
0.000476973
7.9638e-06
0.000346568
0.000477086
1.95204e-05
0.000341645
0.000473456
3.67177e-05
0.000327358
0.000463108
5.29915e-05
0.000298942
0.000445196
0.000273752
0.000419375
7.43695e-05
-0.00127484
3.68249e-05
-0.001674
1.3865e-05
-0.00170777
4.3701e-06
-0.00171409
1.2937e-07
-0.00171544
-3.97343e-06
-0.00171544
-1.2981e-05
-0.00171419
-3.5388e-05
-0.00170866
-7.35592e-05
-0.00168054
-0.00128576
-2.65888e-06
-5.08054e-05
0.000186935
-2.8717e-06
-5.30907e-05
0.000190206
-2.29041e-06
-5.40441e-05
0.000192428
-1.24186e-06
-5.48075e-05
0.000194131
-4.678e-08
-5.5175e-05
0.000195035
1.1411e-06
-5.51963e-05
0.000195091
2.17574e-06
-5.48776e-05
0.000194308
2.75072e-06
-5.41592e-05
0.000192732
2.59849e-06
-5.32674e-05
0.000190647
-5.10078e-05
0.000187438
-6.2085e-06
-3.4401e-05
0.000235265
-6.07512e-06
-3.88293e-05
0.000242324
-4.43137e-06
-3.95165e-05
0.000247088
-2.25329e-06
-3.9902e-05
0.000250415
-8.90181e-08
-3.9967e-05
0.000252054
2.0631e-06
-3.99803e-05
0.000252131
4.20252e-06
-3.99431e-05
0.000250664
5.82655e-06
-3.95868e-05
0.000247536
6.08029e-06
-3.89908e-05
0.000243003
-3.45997e-05
0.000236043
-6.18383e-07
-3.02268e-05
0.000214785
-2.42403e-07
-2.65867e-05
0.000218515
-3.49447e-07
-2.53834e-05
0.000218952
-3.06138e-07
-2.53062e-05
0.000219542
-2.45133e-08
-2.55241e-05
0.00021981
2.58769e-07
-2.55494e-05
0.000219829
3.11531e-07
-2.53749e-05
0.000219612
2.13879e-07
-2.54533e-05
0.000219043
6.07528e-07
-2.65686e-05
0.000218699
-3.02806e-05
0.000214949
-2.42502e-05
9.99044e-05
0.000311183
-1.68134e-05
0.000100744
0.000308547
-9.96788e-06
0.000110878
0.000318992
-4.51703e-06
0.000116097
0.000326024
-2.17955e-07
0.000118081
0.000328926
4.02875e-06
0.000118111
0.000329041
9.34568e-06
0.000116218
0.000326412
1.61142e-05
0.000111051
0.000319704
2.37794e-05
0.000101227
0.000309557
0.000100435
0.000312284
2.20549e-05
-0.00119711
1.14173e-05
-0.00156275
4.61578e-06
-0.00159023
1.43719e-06
-0.00159494
7.10151e-08
-0.00159612
-1.24362e-06
-0.00159614
-4.24969e-06
-0.00159509
-1.09191e-05
-0.00159107
-2.18161e-05
-0.00156857
-0.00120721
-5.84649e-07
-1.34629e-05
0.000188214
-6.96874e-07
-1.37539e-05
0.000191023
-6.12167e-07
-1.38488e-05
0.000192958
-3.41266e-07
-1.40154e-05
0.000194472
1.06895e-08
-1.41192e-05
0.000195294
3.61877e-07
-1.41374e-05
0.000195353
6.2581e-07
-1.40679e-05
0.000194654
7.07258e-07
-1.39342e-05
0.000193267
5.99752e-07
-1.38588e-05
0.000191463
-1.35919e-05
0.000188712
-1.29873e-06
-1.11377e-05
0.000234213
-1.41738e-06
-1.18044e-05
0.000240468
-1.15183e-06
-1.18243e-05
0.000244778
-6.22351e-07
-1.19573e-05
0.000247809
-8.02628e-09
-1.20279e-05
0.000249329
6.01276e-07
-1.20461e-05
0.000249412
1.12097e-06
-1.20101e-05
0.000248066
1.38831e-06
-1.19118e-05
0.000245232
1.28223e-06
-1.19204e-05
0.000241138
-1.13028e-05
0.000234966
6.00572e-07
-1.60944e-05
0.000219011
5.26707e-07
-1.55934e-05
0.000222272
1.31864e-07
-1.57332e-05
0.000223144
-4.17298e-08
-1.62255e-05
0.00022387
-2.0409e-09
-1.65844e-05
0.000224211
4.17602e-08
-1.66112e-05
0.000224238
-1.21425e-07
-1.63053e-05
0.000223958
-5.13486e-07
-1.58496e-05
0.000223264
-6.08531e-07
-1.57209e-05
0.000222475
-1.63052e-05
0.00021921
-4.85242e-06
1.01262e-05
0.000289664
-3.962e-06
6.57834e-06
0.000285314
-2.99584e-06
7.81063e-06
0.000294314
-1.57789e-06
8.20694e-06
0.000299999
-9.73631e-08
8.34578e-06
0.000302343
1.36464e-06
8.35127e-06
0.000302448
2.76541e-06
8.19672e-06
0.000300339
3.75284e-06
7.77427e-06
0.000294939
4.63842e-06
6.52312e-06
0.000286231
9.99734e-06
0.000290505
3.03088e-06
-0.00119013
1.02387e-06
-0.00155428
6.26548e-08
-0.00158157
-1.58325e-07
-0.00158663
3.1355e-08
-0.00158808
2.33724e-07
-0.00158811
2.9288e-08
-0.00158679
-9.32219e-07
-0.00158246
-2.98774e-06
-0.00156011
-0.00120024
1.12959e-06
2.36706e-05
0.000186059
1.17757e-06
2.53695e-05
0.000189048
8.6878e-07
2.63066e-05
0.00019096
4.7021e-07
2.68003e-05
0.000192421
7.04294e-08
2.69866e-05
0.000193207
-3.26687e-07
2.69735e-05
0.000193265
-7.27747e-07
2.67668e-05
0.0001926
-1.0388e-06
2.62604e-05
0.00019127
-1.04404e-06
2.53406e-05
0.000189491
2.36135e-05
0.000186556
3.04061e-06
9.91508e-06
0.000244805
2.76816e-06
1.30909e-05
0.000252937
1.81844e-06
1.38801e-05
0.000258063
8.88533e-07
1.39575e-05
0.000261492
7.46911e-08
1.38794e-05
0.000263158
-7.33511e-07
1.3857e-05
0.000263246
-1.65445e-06
1.389e-05
0.000261777
-2.59279e-06
1.37614e-05
0.000258573
-2.95812e-06
1.30078e-05
0.000253725
9.76601e-06
0.000245705
2.25913e-06
4.78966e-06
0.000221725
1.54091e-06
8.40966e-06
0.000227486
7.38581e-07
8.97347e-06
0.000228676
2.86878e-07
8.65287e-06
0.000229442
2.61624e-08
8.41676e-06
0.000229751
-2.3319e-07
8.39907e-06
0.00022978
-6.93512e-07
8.60293e-06
0.000229519
-1.46154e-06
8.82347e-06
0.000228813
-2.24536e-06
8.32223e-06
0.000227738
4.67832e-06
0.000221925
1.42642e-05
-6.74962e-05
0.000347475
7.72536e-06
-6.94578e-05
0.000369503
3.05875e-06
-7.49214e-05
0.000382637
9.59634e-07
-7.87589e-05
0.000389265
1.55719e-08
-8.02722e-05
0.000391734
-9.16821e-07
-8.02988e-05
0.00039183
-2.91895e-06
-7.89165e-05
0.000389628
-7.46237e-06
-7.52673e-05
0.000383333
-1.43066e-05
-7.00129e-05
0.000371207
-6.84255e-05
0.0003492
-1.09855e-05
-0.00124669
-7.5907e-06
-0.00162716
-4.09517e-06
-0.00166
-1.73018e-06
-0.00166778
-5.36366e-09
-0.0016701
1.70145e-06
-0.00167014
3.99501e-06
-0.00166802
7.37485e-06
-0.00166111
1.09283e-05
-0.00163368
-0.00125771
3.00452e-06
6.85153e-05
0.000175347
3.06589e-06
7.3578e-05
0.00017849
2.31117e-06
7.59728e-05
0.000180215
1.2516e-06
7.73169e-05
0.000181555
1.29815e-07
7.78603e-05
0.000182277
-9.86284e-07
7.7853e-05
0.000182329
-2.03965e-06
7.7309e-05
0.000181721
-2.79852e-06
7.59792e-05
0.000180495
-2.85242e-06
7.36765e-05
0.000178902
6.85944e-05
0.000175815
8.96225e-06
4.24038e-05
0.000261813
7.85702e-06
5.46067e-05
0.000272841
5.22028e-06
5.73604e-05
0.000279156
2.55437e-06
5.8069e-05
0.000283245
1.64085e-07
5.80841e-05
0.000285162
-2.20188e-06
5.80558e-05
0.000285259
-4.83235e-06
5.79975e-05
0.000283554
-7.41489e-06
5.72715e-05
0.000279726
-8.74676e-06
5.47265e-05
0.000273784
4.24194e-05
0.000262955
5.36717e-06
4.25128e-05
0.000216008
3.20133e-06
6.07491e-05
0.000223307
1.52275e-06
6.3969e-05
0.000223523
6.09694e-07
6.40351e-05
0.000224164
5.58337e-08
6.37078e-05
0.00022446
-5.0548e-07
6.36773e-05
0.000224493
-1.41423e-06
6.39651e-05
0.000224258
-3.07956e-06
6.38873e-05
0.000223637
-5.35431e-06
6.10748e-05
0.000223458
4.27047e-05
0.000216156
5.18144e-05
-0.000181957
0.000519948
2.72019e-05
-0.000154327
0.000608915
1.12349e-05
-0.000167018
0.000629293
4.05019e-06
-0.000177514
0.000637683
1.37477e-07
-0.000181572
0.00064061
-3.6983e-06
-0.000181677
0.000640714
-1.0576e-05
-0.000177974
0.000638116
-2.60309e-05
-0.000167879
0.000630266
-5.1432e-05
-0.000154936
0.00061237
-0.000183618
0.000524036
-3.73469e-05
-0.00139127
-2.36016e-05
-0.00179506
-1.10209e-05
-0.00183937
-4.20331e-06
-0.00185189
-5.53825e-08
-0.00185561
4.0118e-06
-0.00185569
1.05357e-05
-0.00185231
2.27382e-05
-0.00184097
3.70634e-05
-0.00180271
-0.00140415
5.03231e-06
0.000127862
0.000146164