/*--------------------------------*- C++ -*----------------------------------*\
| =========                 |                                                 |
| \\      /  F ield         | OpenFOAM: The Open Source CFD Toolbox           |
|  \\    /   O peration     | Version:  2.3.1                                 |
|   \\  /    A nd           | Web:      www.OpenFOAM.org                      |
|    \\/     M anipulation  |                                                 |
\*---------------------------------------------------------------------------*/
FoamFile
{
    version     2.0;
    format      ascii;
    class       volVectorField;
    location    "0.59";
    object      U;
}
// * * * * * * * * * * * * * * * * * * * * * * * * * * * * * * * * * * * * * //

dimensions      [0 1 -1 0 0 0 0];

internalField   nonuniform List<vector> 
1000
(
(-0.000512448 0.00190184 0.000729558)
(-0.00112761 0.00136963 0.000707328)
(-0.00119671 0.00132972 0.000175231)
(-0.00124623 0.001295 0.000152042)
(-0.00126243 0.0012866 7.58904e-05)
(-0.00126877 0.00128136 2.98957e-05)
(-0.00127067 0.00127448 -3.97528e-06)
(-0.00127074 0.0012661 -2.2185e-05)
(-0.00127082 0.00125718 -2.13349e-05)
(-0.00127053 0.00125161 -8.86886e-06)
(-0.00123544 0.00445859 0.000187494)
(-0.00138432 0.00393758 0.000209664)
(-0.00140986 0.00394449 0.000127787)
(-0.00143152 0.00391705 0.00011303)
(-0.00144173 0.00391385 6.48873e-05)
(-0.0014461 0.00390542 1.92542e-05)
(-0.00144687 0.00388578 -1.81741e-05)
(-0.00144599 0.00385747 -3.85878e-05)
(-0.00144344 0.00382585 -2.93022e-05)
(-0.00141448 0.00379934 -1.05973e-05)
(-0.00165764 0.00697437 0.000106677)
(-0.0017353 0.00694208 0.000176213)
(-0.00175354 0.00700457 0.000153181)
(-0.00176655 0.00704193 0.000121648)
(-0.00177416 0.00706269 6.49275e-05)
(-0.00177704 0.00705659 2.41749e-06)
(-0.001776 0.0070211 -5.14896e-05)
(-0.00177299 0.00696165 -8.1979e-05)
(-0.00176776 0.00689072 -6.83855e-05)
(-0.00173024 0.00681257 -2.80905e-05)
(-0.00227258 0.0106652 0.000113018)
(-0.0023369 0.0107962 0.000224675)
(-0.00235429 0.0109331 0.000227782)
(-0.0023672 0.0110358 0.000170924)
(-0.00237521 0.0110878 7.94207e-05)
(-0.00237725 0.0110844 -2.23383e-05)
(-0.00237347 0.0110253 -0.000113069)
(-0.00236625 0.0109141 -0.000169357)
(-0.002356 0.0107697 -0.000161384)
(-0.00230495 0.0105868 -7.56101e-05)
(-0.00331984 0.0149957 0.000224232)
(-0.00340364 0.0152603 0.000419545)
(-0.00342981 0.0154274 0.000393277)
(-0.00344915 0.0155659 0.000276104)
(-0.0034606 0.0156372 0.000113439)
(-0.00346229 0.015635 -6.00855e-05)
(-0.00345413 0.0155608 -0.000221682)
(-0.00343897 0.0154178 -0.000338259)
(-0.00341734 0.0152471 -0.000372006)
(-0.00333818 0.0149629 -0.000202301)
(-0.00291179 0.00120276 0.000129078)
(-0.00347936 0.00117719 0.000135746)
(-0.00351335 0.00118587 8.73617e-05)
(-0.00357632 0.00117927 9.19436e-05)
(-0.00360096 0.00117698 5.65018e-05)
(-0.00361171 0.00117371 2.30451e-05)
(-0.00361418 0.00116781 -5.37768e-06)
(-0.00361214 0.00116 -2.22794e-05)
(-0.00360896 0.00114975 -2.73099e-05)
(-0.00359161 0.00111593 -1.29067e-05)
(-0.00381181 0.00346028 7.37238e-05)
(-0.00396829 0.00346116 0.000104211)
(-0.00398791 0.00350014 9.66825e-05)
(-0.00401929 0.00350787 8.72509e-05)
(-0.00403712 0.0035124 5.35321e-05)
(-0.00404495 0.00350706 1.56777e-05)
(-0.00404495 0.00348993 -1.75008e-05)
(-0.0040403 0.00346407 -3.70266e-05)
(-0.0040322 0.00343279 -3.57084e-05)
(-0.00398344 0.00337593 -1.52057e-05)
(-0.00471547 0.00603025 7.28704e-05)
(-0.00482743 0.00608768 0.000134375)
(-0.00485825 0.00615283 0.000131368)
(-0.00488471 0.00619687 0.000105371)
(-0.00490122 0.00621887 5.70101e-05)
(-0.00490682 0.00621455 1.82953e-06)
(-0.00490237 0.00618303 -4.71494e-05)
(-0.00489145 0.00612923 -7.65001e-05)
(-0.00487582 0.00606392 -7.4416e-05)
(-0.00481376 0.00598343 -3.32331e-05)
(-0.00620548 0.00911048 0.000103615)
(-0.00631688 0.00926826 0.000210047)
(-0.00635937 0.00939767 0.000205872)
(-0.0063933 0.00949366 0.000153625)
(-0.00641396 0.00954166 7.14477e-05)
(-0.00641828 0.00953901 -1.99001e-05)
(-0.00640641 0.00948625 -0.000102547)
(-0.00638313 0.0093861 -0.000156372)
(-0.00635191 0.00925558 -0.000164274)
(-0.00625944 0.00908093 -7.90359e-05)
(-0.0086453 0.012537 0.000208299)
(-0.00881798 0.0128538 0.000399842)
(-0.008893 0.0130396 0.000357691)
(-0.00895005 0.0131784 0.000249232)
(-0.00898238 0.0132471 0.000102274)
(-0.00898628 0.0132456 -5.35277e-05)
(-0.00896183 0.0131747 -0.000200017)
(-0.00891381 0.0130345 -0.000308741)
(-0.00884844 0.0128499 -0.000359846)
(-0.00868414 0.0125249 -0.00019098)
(-0.00546742 0.000930542 9.36175e-05)
(-0.00556716 0.000916921 0.000130383)
(-0.00557451 0.000916683 7.91416e-05)
(-0.00560587 0.000915509 6.56677e-05)
(-0.00562535 0.000915216 4.15419e-05)
(-0.00563447 0.000913317 1.72872e-05)
(-0.00563477 0.000908972 -4.17912e-06)
(-0.00562871 0.000902976 -1.76282e-05)
(-0.00561993 0.000895041 -2.37569e-05)
(-0.00558038 0.00086767 -1.1932e-05)
(-0.00607602 0.00269738 5.52743e-05)
(-0.0061448 0.00269144 9.14532e-05)
(-0.00616497 0.00270646 8.001e-05)
(-0.00619153 0.0027158 6.6725e-05)
(-0.00620973 0.00272092 4.12463e-05)
(-0.00621729 0.00271765 1.25232e-05)
(-0.00621476 0.00270471 -1.31952e-05)
(-0.00620491 0.00268477 -2.88412e-05)
(-0.00619154 0.00266035 -3.02264e-05)
(-0.00614842 0.00261191 -1.36879e-05)
(-0.00725455 0.00461142 5.2101e-05)
(-0.00732787 0.00465857 0.000103383)
(-0.00736307 0.00470369 0.000102887)
(-0.00739537 0.00473838 8.19018e-05)
(-0.00741627 0.00475599 4.47809e-05)
(-0.0074224 0.00475304 2.24543e-06)
(-0.00741389 0.00472903 -3.59667e-05)
(-0.00739455 0.00468764 -5.92767e-05)
(-0.00737028 0.00463713 -6.01462e-05)
(-0.00731666 0.00456947 -2.73694e-05)
(-0.00919982 0.00678712 7.8271e-05)
(-0.00929826 0.00691842 0.000162533)
(-0.0093568 0.00701603 0.000159472)
(-0.00940596 0.00708834 0.000119234)
(-0.00943542 0.00712454 5.60901e-05)
(-0.00944073 0.00712253 -1.4202e-05)
(-0.00942173 0.00708269 -7.83398e-05)
(-0.00938382 0.00700749 -0.000120456)
(-0.00933603 0.00690806 -0.000128875)
(-0.00924875 0.00676758 -6.18288e-05)
(-0.012162 0.00909977 0.000155198)
(-0.0123354 0.0093701 0.000305053)
(-0.0124429 0.00952918 0.000272825)
(-0.0125275 0.00964051 0.000190326)
(-0.0125746 0.00969436 7.89278e-05)
(-0.0125797 0.009693 -3.9538e-05)
(-0.0125432 0.00963755 -0.000150939)
(-0.0124696 0.00952568 -0.000234342)
(-0.0123736 0.00936859 -0.000274959)
(-0.0122076 0.00909458 -0.000142732)
(-0.00687104 0.000576731 3.83629e-05)
(-0.00698765 0.000581808 6.22883e-05)
(-0.00701757 0.000582035 4.96863e-05)
(-0.00704544 0.000582485 4.11898e-05)
(-0.00706338 0.000582648 2.79531e-05)
(-0.00707083 0.000581529 1.3652e-05)
(-0.0070687 0.000578827 3.9285e-07)
(-0.007059 0.000575159 -8.36655e-06)
(-0.00704604 0.000570536 -1.3441e-05)
(-0.0069933 0.000554761 -7.1445e-06)
(-0.00758995 0.00169849 2.78932e-05)
(-0.00766928 0.00171114 5.21551e-05)
(-0.00769962 0.00171966 5.13297e-05)
(-0.00772769 0.00172664 4.3314e-05)
(-0.00774647 0.00173012 2.82431e-05)
(-0.00775318 0.00172808 1.08704e-05)
(-0.00774813 0.00172 -5.04936e-06)
(-0.00773409 0.00170767 -1.49178e-05)
(-0.00771629 0.00169284 -1.58624e-05)
(-0.00766258 0.00166465 -6.88488e-06)
(-0.00895148 0.0029074 2.84132e-05)
(-0.00902909 0.00293891 6.08443e-05)
(-0.00907052 0.00296567 6.48449e-05)
(-0.00910734 0.00298699 5.27609e-05)
(-0.00913079 0.00299771 3.03618e-05)
(-0.00913674 0.00299561 4.37586e-06)
(-0.00912503 0.00298056 -1.92498e-05)
(-0.00910003 0.00295481 -3.37261e-05)
(-0.0090697 0.00292368 -3.33043e-05)
(-0.00900548 0.00288386 -1.41992e-05)
(-0.0110913 0.00420342 4.42778e-05)
(-0.0111994 0.00428041 9.66977e-05)
(-0.0112665 0.00433897 9.91499e-05)
(-0.0113234 0.00438259 7.54689e-05)
(-0.0113574 0.00440429 3.69908e-05)
(-0.011363 0.00440263 -6.1132e-06)
(-0.0113399 0.00437778 -4.56718e-05)
(-0.0112939 0.00433166 -7.15272e-05)
(-0.0112374 0.00427127 -7.42184e-05)
(-0.0111376 0.00419016 -3.38958e-05)
(-0.0141377 0.00548745 8.70266e-05)
(-0.0143208 0.00564531 0.000179183)
(-0.0144392 0.00574813 0.000166912)
(-0.0145335 0.00581871 0.000118034)
(-0.0145865 0.00585233 5.03878e-05)
(-0.0145921 0.00585109 -2.20846e-05)
(-0.0145503 0.00581549 -9.01552e-05)
(-0.0144678 0.00574417 -0.000140337)
(-0.0143609 0.00564213 -0.000158855)
(-0.014184 0.00548256 -7.86781e-05)
(-0.00768303 0.000218465 1.41755e-05)
(-0.00776397 0.000220642 2.50497e-05)
(-0.00779293 0.000219876 2.24791e-05)
(-0.00781771 0.000219406 1.98802e-05)
(-0.00783398 0.000218952 1.61612e-05)
(-0.00783982 0.000218241 1.19747e-05)
(-0.00783556 0.000217189 7.65482e-06)
(-0.00782338 0.000215936 3.94657e-06)
(-0.00780779 0.000214462 -1.64444e-07)
(-0.00774905 0.000209236 -9.24268e-07)
(-0.00841463 0.000647311 1.08363e-05)
(-0.00848497 0.000651326 2.10408e-05)
(-0.00851623 0.000652356 2.19029e-05)
(-0.00854437 0.000653326 1.98902e-05)
(-0.00856289 0.000653376 1.58104e-05)
(-0.00856846 0.000651932 1.08862e-05)
(-0.00856124 0.000648875 5.90593e-06)
(-0.00854436 0.000644595 1.97782e-06)
(-0.00852395 0.000639682 -3.38232e-07)
(-0.00846641 0.000630419 -3.84042e-07)
(-0.00984104 0.00111015 1.02328e-05)
(-0.00991613 0.00112003 2.22011e-05)
(-0.00995946 0.00112775 2.4667e-05)
(-0.00999841 0.00113365 2.16212e-05)
(-0.0100231 0.00113605 1.5416e-05)
(-0.0100283 0.00113433 8.02834e-06)
(-0.0100142 0.00112845 7.88558e-07)
(-0.00998554 0.00111913 -4.47309e-06)
(-0.00995177 0.00110799 -6.02182e-06)
(-0.00988495 0.00109454 -2.65068e-06)
(-0.0120374 0.00160044 1.51552e-05)
(-0.0121442 0.00162713 3.36263e-05)
(-0.0122144 0.00164785 3.54157e-05)
(-0.0122753 0.00166262 2.82584e-05)
(-0.0123117 0.0016693 1.65749e-05)
(-0.0123169 0.00166764 3.39434e-06)
(-0.012291 0.0016578 -9.18092e-06)
(-0.0122404 0.00164017 -1.83517e-05)
(-0.0121797 0.00161716 -2.06193e-05)
(-0.0120793 0.00158854 -9.42622e-06)
(-0.0150285 0.00206525 3.01813e-05)
(-0.0152008 0.00212381 6.34694e-05)
(-0.01532 0.00216525 6.00213e-05)
(-0.0154177 0.00219243 4.30151e-05)
(-0.0154732 0.00220453 2.04297e-05)
(-0.0154787 0.00220306 -3.4235e-06)
(-0.0154344 0.00218836 -2.66036e-05)
(-0.0153481 0.00215911 -4.50916e-05)
(-0.0152398 0.00211693 -5.22889e-05)
(-0.0150731 0.00205758 -2.55484e-05)
(-0.00776126 -0.000144132 -1.90792e-07)
(-0.00783086 -0.000150386 -2.5179e-06)
(-0.00785759 -0.000153493 -2.84143e-06)
(-0.00788068 -0.000156027 1.48461e-07)
(-0.00789581 -0.00015775 5.84202e-06)
(-0.00790031 -0.000158278 1.20734e-05)
(-0.00789437 -0.00015769 1.68263e-05)
(-0.00788061 -0.000156284 1.82359e-05)
(-0.0078631 -0.000154441 1.49353e-05)
(-0.00780306 -0.000149201 5.99905e-06)
(-0.00849543 -0.000426326 -1.67428e-06)
(-0.00856177 -0.000438283 -6.18783e-06)
(-0.00859305 -0.00044661 -7.42796e-06)
(-0.00862115 -0.000453595 -3.39702e-06)
(-0.00863938 -0.000458222 4.15776e-06)
(-0.00864388 -0.000459455 1.25297e-05)
(-0.0086348 -0.000457428 1.90472e-05)
(-0.00861566 -0.000452909 2.12858e-05)
(-0.0085926 -0.000447241 1.69264e-05)
(-0.00853316 -0.00043746 6.53618e-06)
(-0.00993968 -0.00071518 -6.07703e-06)
(-0.0100157 -0.000730027 -1.57994e-05)
(-0.0100617 -0.000743139 -1.72701e-05)
(-0.0101029 -0.000754514 -1.09103e-05)
(-0.0101285 -0.000761665 4.35458e-07)
(-0.010133 -0.000763397 1.32012e-05)
(-0.0101166 -0.000759696 2.35807e-05)
(-0.0100842 -0.000751624 2.81815e-05)
(-0.010046 -0.000741607 2.36271e-05)
(-0.00997549 -0.000728904 9.3921e-06)
(-0.012159 -0.000983944 -1.31554e-05)
(-0.0122715 -0.00100541 -3.06869e-05)
(-0.0123484 -0.00102285 -3.19206e-05)
(-0.0124145 -0.00103797 -2.18676e-05)
(-0.0124534 -0.00104711 -4.65689e-06)
(-0.0124582 -0.00104905 1.45615e-05)
(-0.0124288 -0.00104366 3.08841e-05)
(-0.0123723 -0.00103216 3.9391e-05)
(-0.0123038 -0.00101788 3.57019e-05)
(-0.0121967 -0.000997973 1.51296e-05)
(-0.0151499 -0.00120065 -2.30671e-05)
(-0.0153319 -0.00122824 -5.03396e-05)
(-0.0154618 -0.00124652 -5.00993e-05)
(-0.0155679 -0.00126312 -3.52736e-05)
(-0.0156275 -0.00127315 -1.06585e-05)
(-0.0156327 -0.00127508 1.6701e-05)
(-0.0155839 -0.00126877 4.05825e-05)
(-0.0154887 -0.00125562 5.41369e-05)
(-0.0153691 -0.00124014 5.28953e-05)
(-0.0151927 -0.00121321 2.41235e-05)
(-0.00711339 -0.000503467 -1.12428e-05)
(-0.00717486 -0.000520599 -2.57752e-05)
(-0.00719918 -0.000527439 -2.61129e-05)
(-0.00722028 -0.000532888 -1.83246e-05)
(-0.00723418 -0.000536291 -3.47456e-06)
(-0.00723763 -0.000536778 1.34122e-05)
(-0.0072308 -0.000534404 2.73507e-05)
(-0.00721631 -0.00052991 3.40363e-05)
(-0.00719805 -0.000524158 3.12156e-05)
(-0.00714124 -0.000507488 1.33157e-05)
(-0.00782252 -0.00149788 -1.32932e-05)
(-0.00788641 -0.00153063 -3.26731e-05)
(-0.00791779 -0.00155139 -3.66288e-05)
(-0.00794534 -0.00156857 -2.64707e-05)
(-0.0079629 -0.00157883 -6.91387e-06)
(-0.00796648 -0.00158011 1.54769e-05)
(-0.00795616 -0.00157244 3.41298e-05)
(-0.00793537 -0.00155776 4.31027e-05)
(-0.00790998 -0.00153961 3.68726e-05)
(-0.00785011 -0.0015083 1.47992e-05)
(-0.00924335 -0.00255357 -2.42344e-05)
(-0.00932353 -0.00259948 -5.74989e-05)
(-0.009374 -0.00263835 -6.23535e-05)
(-0.00941759 -0.00267047 -4.5232e-05)
(-0.00944376 -0.00268882 -1.46709e-05)
(-0.00944754 -0.00269079 1.99643e-05)
(-0.00942894 -0.00267634 4.96699e-05)
(-0.00939266 -0.0026481 6.56305e-05)
(-0.00934857 -0.00261298 5.89654e-05)
(-0.00927234 -0.00256914 2.44769e-05)
(-0.0114789 -0.00360988 -4.7339e-05)
(-0.0116079 -0.00369026 -0.000105822)
(-0.0116978 -0.00375349 -0.000107597)
(-0.0117717 -0.00380358 -7.68939e-05)
(-0.0118137 -0.00383096 -2.71637e-05)
(-0.0118179 -0.00383334 2.79921e-05)
(-0.0117844 -0.00381077 7.68441e-05)
(-0.011719 -0.00376561 0.000106421)
(-0.0116369 -0.0037072 0.000103802)
(-0.0115124 -0.00362879 4.61542e-05)
(-0.0145898 -0.00453866 -8.92618e-05)
(-0.0148182 -0.00467026 -0.000186631)
(-0.0149783 -0.00475759 -0.000176273)
(-0.0151023 -0.00482411 -0.00012288)
(-0.0151691 -0.00485892 -4.44589e-05)
(-0.0151739 -0.00486141 4.02056e-05)
(-0.0151171 -0.00483179 0.000117585)
(-0.0150037 -0.00477061 0.000169703)
(-0.0148543 -0.0046888 0.000180808)
(-0.0146311 -0.00455841 8.69391e-05)
(-0.00576026 -0.000843092 -2.04005e-05)
(-0.00580847 -0.000873824 -4.60661e-05)
(-0.00582875 -0.000885727 -4.71002e-05)
(-0.00584645 -0.000894878 -3.48329e-05)
(-0.00585803 -0.000900249 -1.15055e-05)
(-0.00586052 -0.000900778 1.54518e-05)
(-0.00585397 -0.000896436 3.81318e-05)
(-0.00584079 -0.000888338 4.98577e-05)
(-0.00582459 -0.00087764 4.72589e-05)
(-0.00577876 -0.000847288 2.04967e-05)
(-0.00639231 -0.00252584 -2.61315e-05)
(-0.00644824 -0.00258496 -6.03886e-05)
(-0.00647728 -0.00262175 -6.54646e-05)
(-0.00650222 -0.00265137 -4.85114e-05)
(-0.00651769 -0.00266825 -1.69793e-05)
(-0.00652036 -0.0026697 1.92694e-05)
(-0.00651019 -0.0026557 5.01612e-05)
(-0.00649019 -0.00262907 6.64492e-05)
(-0.00646547 -0.00259535 6.01456e-05)
(-0.00641189 -0.00253779 2.55858e-05)
(-0.00770217 -0.00437208 -4.77108e-05)
(-0.00778104 -0.00445975 -0.000106783)
(-0.00783322 -0.00453218 -0.000111037)
(-0.0078762 -0.00458993 -8.07282e-05)
(-0.00790109 -0.00462158 -2.95186e-05)
(-0.00790402 -0.00462388 2.80337e-05)
(-0.007885 -0.00459694 7.85019e-05)
(-0.00784777 -0.00454419 0.000108089)
(-0.00780081 -0.0044768 0.000103287)
(-0.00772463 -0.00439173 4.57327e-05)
(-0.00987296 -0.00633179 -9.54518e-05)
(-0.0100184 -0.00649976 -0.000202559)
(-0.0101212 -0.00662653 -0.000195868)
(-0.0102004 -0.00672197 -0.000137883)
(-0.0102432 -0.00677176 -5.08643e-05)
(-0.0102466 -0.00677466 4.39193e-05)
(-0.0102108 -0.00673116 0.000129864)
(-0.010139 -0.00664256 0.000186761)
(-0.0100436 -0.00652328 0.000194294)
(-0.00990166 -0.00635823 9.16997e-05)
(-0.0131476 -0.00822156 -0.000192374)
(-0.0134532 -0.00853198 -0.000379899)
(-0.013657 -0.00872337 -0.000334815)
(-0.0138018 -0.00885887 -0.000226284)
(-0.0138749 -0.00892548 -8.22532e-05)
(-0.0138789 -0.00892858 6.87154e-05)
(-0.0138147 -0.00886907 0.000210902)
(-0.0136802 -0.00874169 0.000317331)
(-0.0134883 -0.00856045 0.000365468)
(-0.0131876 -0.00825276 0.000186944)
(-0.00375753 -0.00112922 -2.54786e-05)
(-0.0037825 -0.00116967 -5.91427e-05)
(-0.00379499 -0.00118649 -6.30389e-05)
(-0.0038067 -0.00119939 -4.75733e-05)
(-0.00381439 -0.00120672 -1.75362e-05)
(-0.00381589 -0.0012073 1.74716e-05)
(-0.0038112 -0.00120109 4.70581e-05)
(-0.00380223 -0.00118944 6.24233e-05)
(-0.00379211 -0.00117397 5.77912e-05)
(-0.00376843 -0.00113401 2.44801e-05)
(-0.00422165 -0.00341478 -3.4537e-05)
(-0.00428438 -0.00349287 -8.05648e-05)
(-0.00430702 -0.00354651 -8.93446e-05)
(-0.00432504 -0.00358902 -6.67288e-05)
(-0.00433608 -0.00361256 -2.49681e-05)
(-0.00433775 -0.00361419 2.29953e-05)
(-0.00433007 -0.00359393 6.42403e-05)
(-0.00431526 -0.00355504 8.66078e-05)
(-0.00429547 -0.00350515 7.74436e-05)
(-0.00423374 -0.00342897 3.26923e-05)
(-0.00523383 -0.00603453 -6.85941e-05)
(-0.00532885 -0.00616387 -0.000151387)
(-0.00537455 -0.00627583 -0.000156611)
(-0.00540872 -0.00636202 -0.000112931)
(-0.00542785 -0.00640771 -4.23771e-05)
(-0.00542974 -0.00641033 3.60578e-05)
(-0.00541453 -0.00637033 0.000105824)
(-0.00538434 -0.00629042 0.00014894)
(-0.00534258 -0.00618528 0.000144263)
(-0.00524869 -0.00605924 6.51208e-05)
(-0.00706847 -0.00905822 -0.000150104)
(-0.00725317 -0.00934016 -0.00030834)
(-0.00735408 -0.00955246 -0.000288763)
(-0.00742338 -0.00970397 -0.000198678)
(-0.00745879 -0.00977945 -7.32383e-05)
(-0.00746109 -0.00978296 6.03887e-05)
(-0.0074306 -0.00971533 0.000184239)
(-0.00736696 -0.00957323 0.000272808)
(-0.00727245 -0.00937224 0.000294711)
(-0.00708961 -0.00909472 0.000144397)
(-0.0102948 -0.0124389 -0.000338643)
(-0.0107302 -0.0130679 -0.000636465)
(-0.0109581 -0.0134347 -0.000524583)
(-0.0110985 -0.0136732 -0.000340486)
(-0.0111634 -0.013782 -0.000121434)
(-0.0111662 -0.0137858 0.000100279)
(-0.0111079 -0.0136864 0.000316044)
(-0.0109766 -0.0134603 0.000495802)
(-0.0107611 -0.0131126 0.00061303)
(-0.01033 -0.0124898 0.000330347)
(-0.00133974 -0.00129965 -2.43783e-05)
(-0.00134307 -0.00131455 -5.92755e-05)
(-0.00134674 -0.00133213 -6.9975e-05)
(-0.00135082 -0.00134702 -5.37875e-05)
(-0.00135356 -0.00135546 -2.05456e-05)
(-0.00135413 -0.00135604 1.84861e-05)
(-0.00135249 -0.00134878 5.13723e-05)
(-0.00134947 -0.00133516 6.76913e-05)
(-0.00134667 -0.0013189 5.66466e-05)
(-0.00134389 -0.00130478 2.2779e-05)
(-0.00151891 -0.00396612 -3.56264e-05)
(-0.00155443 -0.00402726 -8.51588e-05)
(-0.00156345 -0.00409115 -0.000101749)
(-0.00157018 -0.00414223 -7.66203e-05)
(-0.00157436 -0.00417005 -2.9286e-05)
(-0.00157501 -0.00417175 2.51934e-05)
(-0.00157215 -0.00414748 7.20429e-05)
(-0.00156669 -0.00410033 9.71133e-05)
(-0.00155889 -0.00404064 8.04432e-05)
(-0.00152355 -0.00398176 3.30797e-05)
(-0.00193099 -0.00718476 -7.97442e-05)
(-0.00198583 -0.00735699 -0.000174268)
(-0.00200562 -0.00750426 -0.00018548)
(-0.00201936 -0.00761235 -0.000132822)
(-0.00202693 -0.00766792 -5.0046e-05)
(-0.00202766 -0.00767081 4.12096e-05)
(-0.00202165 -0.00762144 0.000123079)
(-0.00200952 -0.00752071 0.00017514)
(-0.0019915 -0.00738182 0.000165051)
(-0.00193679 -0.00721331 7.55824e-05)
(-0.00274035 -0.0113462 -0.000198745)
(-0.00284447 -0.0117898 -0.000390133)
(-0.00289195 -0.0120941 -0.000358645)
(-0.00292189 -0.0122942 -0.000240702)
(-0.00293659 -0.0123892 -8.7847e-05)
(-0.00293754 -0.012393 7.17791e-05)
(-0.00292473 -0.012307 0.000222519)
(-0.00289726 -0.0121187 0.000338108)
(-0.00285273 -0.01183 0.000372972)
(-0.00274904 -0.0113929 0.000192092)
(-0.00436104 -0.0172723 -0.00051968)
(-0.00461754 -0.0184853 -0.000907253)
(-0.00473641 -0.0190941 -0.00069392)
(-0.00480201 -0.0194404 -0.000428911)
(-0.00483039 -0.0195844 -0.000148989)
(-0.00483146 -0.0195885 0.000123589)
(-0.00480582 -0.0194558 0.000398246)
(-0.00474448 -0.0191271 0.000655601)
(-0.00463204 -0.0185535 0.00087545)
(-0.00437756 -0.0173533 0.000508831)
(-0.0079135 -0.0268153 -0.00142479)
(-0.00867837 -0.0296764 -0.00221885)
(-0.0089865 -0.0308155 -0.00132404)
(-0.009131 -0.0314046 -0.000733083)
(-0.00918297 -0.0316155 -0.000236194)
(-0.00918428 -0.0316203 0.000200586)
(-0.00913609 -0.0314217 0.000685698)
(-0.00899982 -0.0308586 0.00124964)
(-0.00871175 -0.029795 0.00215305)
(-0.00795398 -0.02696 0.00140544)
(-0.0145528 -0.029355 -0.00365491)
(-0.016446 -0.039821 -0.005069)
(-0.0169792 -0.040967 -0.00242493)
(-0.017172 -0.0411229 -0.00121653)
(-0.0172152 -0.0409953 -0.000359051)
(-0.0172153 -0.0409844 0.000312509)
(-0.0171735 -0.0411006 0.00114832)
(-0.0169906 -0.0409461 0.00228127)
(-0.0165071 -0.0400322 0.00493263)
(-0.0146264 -0.0296068 0.00362044)
(-0.0286208 -0.0920576 -0.0110921)
(-0.0350747 -0.113932 -0.0127847)
(-0.0366367 -0.118582 -0.00257633)
(-0.0371072 -0.119477 -0.000777349)
(-0.0371553 -0.119656 -0.00011136)
(-0.0371522 -0.119654 0.000106922)
(-0.037106 -0.119476 0.000739729)
(-0.0366611 -0.118628 0.00229604)
(-0.0352402 -0.114453 0.0124742)
(-0.0288519 -0.0927544 0.0110374)
(-0.0333729 -0.0134806 -0.0208877)
(-0.0164463 -0.0728177 -0.0184499)
(-0.0194054 -0.0671451 -0.00588279)
(-0.020905 -0.0606915 -0.00180956)
(-0.0213136 -0.0586234 -0.000416162)
(-0.0213184 -0.0585739 0.000382055)
(-0.0209409 -0.0604695 0.00172639)
(-0.019491 -0.0667468 0.00552891)
(-0.0163047 -0.073386 0.0179683)
(-0.0331785 -0.0142353 0.0206828)
(0.154711 -0.315893 0.0233874)
(0.183966 -0.46212 0.0265441)
(0.188158 -0.467953 0.00759495)
(0.188768 -0.46293 0.0028527)
(0.188899 -0.461062 0.000661867)
(0.188893 -0.460996 -0.00060376)
(0.188742 -0.462673 -0.00271425)
(0.188167 -0.467646 -0.0069844)
(0.184569 -0.463914 -0.0259012)
(0.155638 -0.319044 -0.0232003)
(-0.0161321 -0.0174953 -0.000769268)
(-0.0173103 -0.0189813 -0.00131992)
(-0.0178271 -0.0197744 -0.000904544)
(-0.0181066 -0.0202519 -0.000547146)
(-0.0182191 -0.0204494 -0.00018593)
(-0.0182224 -0.020455 0.000156073)
(-0.018119 -0.0202713 0.000510674)
(-0.0178547 -0.0198151 0.000856327)
(-0.0173693 -0.0190609 0.00128019)
(-0.0162027 -0.0175922 0.000757188)
(-0.0261257 -0.00796375 -0.00195326)
(-0.0288032 -0.00989214 -0.00301039)
(-0.0297311 -0.00986632 -0.00182041)
(-0.0301831 -0.00983025 -0.00101819)
(-0.0303341 -0.00975852 -0.000324774)
(-0.0303373 -0.00975398 0.000278582)
(-0.0301952 -0.00981968 0.000958317)
(-0.0297641 -0.00984507 0.00172963)
(-0.0289042 -0.00990947 0.00293006)
(-0.0262476 -0.0079725 0.00192909)
(-0.0375186 -0.0343963 -0.00204849)
(-0.047488 -0.0449449 -0.00278325)
(-0.0489688 -0.0479455 -0.000704662)
(-0.0494614 -0.049364 -0.000376352)
(-0.0495119 -0.0498027 -9.34138e-05)
(-0.0495081 -0.0498131 8.11148e-05)
(-0.04946 -0.0494087 0.000360284)
(-0.0489917 -0.0480488 0.000636502)
(-0.0477252 -0.0452446 0.00271679)
(-0.0378056 -0.034794 0.00204119)
(-0.100859 0.0378193 -0.0144633)
(-0.11519 0.0432175 -0.0170417)
(-0.120937 0.0471734 -0.00615676)
(-0.122475 0.0495618 -0.00274654)
(-0.122836 0.0503254 -0.000738854)
(-0.122833 0.0503422 0.000641116)
(-0.122481 0.0496362 0.00260033)
(-0.121004 0.0473361 0.00582112)
(-0.115583 0.0435188 0.0166901)
(-0.101492 0.0382462 0.0143622)
(0.154892 0.0120557 0.0142548)
(0.212669 -0.0576424 0.0174318)
(0.217462 -0.0566726 0.00523728)
(0.217538 -0.0526921 0.00201361)
(0.217425 -0.0512099 0.000470932)
(0.21741 -0.0511844 -0.000418784)
(0.217497 -0.0526057 -0.00190195)
(0.217479 -0.0566521 -0.004866)
(0.213561 -0.0584467 -0.0170728)
(0.156279 0.0109074 -0.0141817)
(-0.0177646 -0.0108473 -0.000372695)
(-0.0184573 -0.0115429 -0.000683342)
(-0.0188433 -0.0119752 -0.000526686)
(-0.0190943 -0.0122583 -0.000340674)
(-0.019211 -0.0123868 -0.000120675)
(-0.0192156 -0.0123915 0.000100435)
(-0.0191103 -0.0122735 0.000317334)
(-0.0188737 -0.0120046 0.000498982)
(-0.0185091 -0.0115914 0.000661505)
(-0.0178247 -0.0109042 0.000365885)
(-0.0250607 -0.00370907 -0.000921117)
(-0.026655 -0.00401558 -0.00151564)
(-0.0274658 -0.0037799 -0.00106601)
(-0.0279537 -0.00363989 -0.000642581)
(-0.028159 -0.0035589 -0.000216651)
(-0.0281656 -0.00355579 0.00018308)
(-0.0279762 -0.00363107 0.00060202)
(-0.027512 -0.00376106 0.00101434)
(-0.0267441 -0.00399806 0.0014731)
(-0.0251683 -0.00368385 0.000907948)
(-0.0231117 -0.0169772 -0.000406547)
(-0.0254637 -0.0194961 -0.000523216)
(-0.0258528 -0.0203115 -0.000114186)
(-0.0261037 -0.0208229 -0.000106434)
(-0.0261784 -0.0210146 -3.29986e-05)
(-0.0261792 -0.0210232 2.54707e-05)
(-0.026111 -0.0208535 0.000100008)
(-0.0258666 -0.0203694 9.78175e-05)
(-0.0255322 -0.0196144 0.000506697)
(-0.0231801 -0.017129 0.000403594)
(-0.0493586 0.0178948 -0.00421982)
(-0.0581368 0.0242471 -0.00555952)
(-0.0617074 0.0263824 -0.00255216)
(-0.0634461 0.027417 -0.00138065)
(-0.0640119 0.0277415 -0.000423395)
(-0.0640232 0.0277507 0.000349898)
(-0.0634952 0.027455 0.00128874)
(-0.0618216 0.0264729 0.00240406)
(-0.0584344 0.0244846 0.00542011)
(-0.0497449 0.0181838 0.00417696)
(0.137645 0.0221451 0.0057416)
(0.180387 0.0192138 0.00649081)
(0.184179 0.0219143 0.00207027)
(0.184972 0.023071 0.000796552)
(0.185145 0.0234996 0.000183749)
(0.185143 0.0234956 -0.000155268)
(0.184977 0.023057 -0.000740387)
(0.184263 0.0218519 -0.00192166)
(0.181095 0.0191744 -0.0063565)
(0.138811 0.0221004 -0.00571892)
(-0.0184973 -0.00567613 -0.000157768)
(-0.0189146 -0.00597351 -0.000308642)
(-0.0191782 -0.00617841 -0.000262856)
(-0.0193709 -0.00632034 -0.000178583)
(-0.0194694 -0.00638866 -6.45336e-05)
(-0.0194747 -0.00639189 5.52043e-05)
(-0.0193881 -0.0063306 0.000167964)
(-0.0192086 -0.006197 0.000250688)
(-0.0189603 -0.00600129 0.000299352)
(-0.0185497 -0.00570748 0.00015501)
(-0.0240144 -0.00200377 -0.000390592)
(-0.0248944 -0.0020065 -0.000680444)
(-0.0254508 -0.00184843 -0.000528447)
(-0.0258271 -0.00175925 -0.000334886)
(-0.0260056 -0.00171317 -0.000116511)
(-0.0260131 -0.00171213 9.86692e-05)
(-0.0258517 -0.00175583 0.000314079)
(-0.0254965 -0.00183998 0.000504074)
(-0.0249673 -0.00199498 0.000661407)
(-0.0240998 -0.00198914 0.000384916)
(-0.0213996 -0.0079711 -5.55181e-05)
(-0.0220031 -0.00917724 -6.78822e-05)
(-0.0220686 -0.00960925 -6.39945e-06)
(-0.0221433 -0.00986936 -4.1331e-05)
(-0.0221718 -0.00997281 -1.69291e-05)
(-0.0221731 -0.00997899 1.22283e-05)
(-0.0221495 -0.00988985 3.83822e-05)
(-0.0220769 -0.00964735 3.04648e-06)
(-0.0220265 -0.00924625 6.37838e-05)
(-0.0214211 -0.00805686 5.40559e-05)
(-0.0344516 0.00550454 -0.00172805)
(-0.0343985 0.00742503 -0.00241437)
(-0.0355092 0.0080978 -0.00123749)
(-0.0363122 0.00843692 -0.00070085)
(-0.0366406 0.00854654 -0.000226781)
(-0.0366526 0.00855145 0.000181987)
(-0.0363545 0.00845537 0.0006477)
(-0.0355862 0.00813861 0.00116357)
(-0.0345092 0.00751402 0.00234833)
(-0.034583 0.00560576 0.00170627)
(0.123553 0.00826993 0.00171598)
(0.161707 0.00599907 0.00194973)
(0.164771 0.00685581 0.000690537)
(0.165358 0.00724456 0.000265145)
(0.165498 0.00739955 5.99951e-05)
(0.1655 0.00739614 -4.47722e-05)
(0.165372 0.00723424 -0.000238651)
(0.16486 0.00682352 -0.000636999)
(0.162325 0.00596145 -0.00190686)
(0.124607 0.00822251 -0.00171133)
(-0.0187635 -0.00146372 -3.47113e-05)
(-0.0190663 -0.00152301 -7.16199e-05)
(-0.0192719 -0.0015668 -6.73043e-05)
(-0.0194316 -0.00160189 -4.86758e-05)
(-0.0195175 -0.00162054 -1.66652e-05)
(-0.0195233 -0.00162247 1.89899e-05)
(-0.0194496 -0.0016075 5.05217e-05)
(-0.0193026 -0.0015763 6.8441e-05)
(-0.0191102 -0.00153564 7.2664e-05)
(-0.0188134 -0.00147785 3.55764e-05)
(-0.0234349 -0.000622005 -8.23046e-05)
(-0.0240691 -0.000578221 -0.000149719)
(-0.0245116 -0.000510812 -0.000130234)
(-0.0248249 -0.000478897 -8.94523e-05)
(-0.0249815 -0.000465002 -3.13596e-05)
(-0.0249894 -0.000465777 2.98458e-05)
(-0.0248502 -0.000480757 8.71353e-05)
(-0.0245565 -0.000512975 0.000127152)
(-0.0241357 -0.000579388 0.000147173)
(-0.0235107 -0.00062447 8.16855e-05)
(-0.0215885 -0.00250946 3.49494e-05)
(-0.021862 -0.00274595 5.96339e-05)
(-0.0219101 -0.00285084 3.39273e-05)
(-0.02197 -0.00294151 -2.52147e-06)
(-0.0219989 -0.00298751 -3.45907e-06)
(-0.0220012 -0.00299193 3.18472e-06)
(-0.0219779 -0.00295522 3.03678e-06)
(-0.0219203 -0.00287459 -3.20047e-05)
(-0.0218797 -0.0027789 -5.94519e-05)
(-0.0216053 -0.00255431 -3.61851e-05)
(-0.0294819 0.000632945 -0.000353108)
(-0.0287669 0.000995297 -0.000515248)
(-0.0296564 0.00110735 -0.00033044)
(-0.0302653 0.00115609 -0.000226894)
(-0.0305214 0.00116716 -8.19485e-05)
(-0.0305324 0.00116901 6.23087e-05)
(-0.0303018 0.00116235 0.000205165)
(-0.0297223 0.00112173 0.000307839)
(-0.0288547 0.00101929 0.000492063)
(-0.0295704 0.000659375 0.000340824)
(0.1191 0.000385146 0.00024255)
(0.155331 -0.000535166 0.000229638)
(0.157998 -0.00049027 3.49836e-05)
(0.158475 -0.000506498 -1.72508e-05)
(0.158605 -0.000511709 -1.12142e-05)
(0.158609 -0.000513804 1.72654e-05)
(0.158491 -0.000517581 2.68469e-05)
(0.158084 -0.000515762 -2.2297e-05)
(0.155906 -0.00057349 -0.000222309)
(0.120103 0.000326405 -0.000241007)
(-0.0187261 0.00259728 6.49555e-05)
(-0.0190184 0.00275279 0.000126807)
(-0.0192097 0.00285888 0.000104035)
(-0.0193578 0.00292306 6.74539e-05)
(-0.0194378 0.00295113 2.71784e-05)
(-0.0194437 0.00295061 -1.27358e-05)
(-0.0193759 0.00292202 -5.30455e-05)
(-0.0192408 0.00285819 -8.98812e-05)
(-0.0190626 0.00275429 -0.000115988)
(-0.0187758 0.00259848 -6.06767e-05)
(-0.0239189 0.000917257 0.000184376)
(-0.0246159 0.00102118 0.000319025)
(-0.0250797 0.00103681 0.000230627)
(-0.0253992 0.0010285 0.000135115)
(-0.0255573 0.00101812 4.79228e-05)
(-0.0255658 0.00101577 -3.24686e-05)
(-0.0254263 0.00102199 -0.000118881)
(-0.0251278 0.00102529 -0.000213242)
(-0.0246884 0.0010086 -0.000306626)
(-0.0240012 0.000899972 -0.000180691)
(-0.021959 0.00228035 0.000141872)
(-0.0223561 0.00307597 0.000224248)
(-0.0224489 0.00330636 0.000109723)
(-0.0225196 0.0033634 4.85616e-05)
(-0.0225507 0.00336451 1.44143e-05)
(-0.0225535 0.00336147 -8.81557e-06)
(-0.0225278 0.00335473 -4.33454e-05)
(-0.0224616 0.00329506 -0.000101886)
(-0.0223778 0.00307927 -0.000219485)
(-0.021978 0.00227014 -0.000142677)
(-0.0311386 -0.00248774 0.00094645)
(-0.0315145 -0.00290349 0.00127802)
(-0.0325645 -0.00312598 0.000490101)
(-0.0331656 -0.003275 0.000178944)
(-0.0334029 -0.00333787 4.19499e-05)
(-0.0334131 -0.00333871 -3.85889e-05)
(-0.0332001 -0.00327783 -0.000171715)
(-0.0326291 -0.00313033 -0.00046251)
(-0.0316313 -0.0029183 -0.0012651)
(-0.0312489 -0.00250433 -0.000955422)
(0.121023 -0.00743924 -0.000853899)