/*--------------------------------*- C++ -*----------------------------------*\
| =========                 |                                                 |
| \\      /  F ield         | OpenFOAM: The Open Source CFD Toolbox           |
|  \\    /   O peration     | Version:  2.3.1                                 |
|   \\  /    A nd           | Web:      www.OpenFOAM.org                      |
|    \\/     M anipulation  |                                                 |
\*---------------------------------------------------------------------------*/
FoamFile
{
    version     2.0;
    format      ascii;
    class       volScalarField;
    location    "0.88";
    object      epsilon;
}
// * * * * * * * * * * * * * * * * * * * * * * * * * * * * * * * * * * * * * //

dimensions      [0 2 -3 0 0 0 0];

internalField   nonuniform List<scalar> 
1000
(
0.000844649
0.000874086
0.000875054
0.000875037
0.000875023
0.000875018
0.00087501
0.000875004
0.000874893
0.000872361
0.000875517
0.000885197
0.000886017
0.000886056
0.00088606
0.000886057
0.000886041
0.000885995
0.000885188
0.000874263
0.000878842
0.000888773
0.00088975
0.00088982
0.000889836
0.000889829
0.0008898
0.000889728
0.000888758
0.000876416
0.000881776
0.0008927
0.000893832
0.000893965
0.000894007
0.000894003
0.000893951
0.000893832
0.000892731
0.00087944
0.000883851
0.000896638
0.000897961
0.000898139
0.000898194
0.00089819
0.000898147
0.000897989
0.000896745
0.000881612
0.000874857
0.000882592
0.00088338
0.000883479
0.000883507
0.00088352
0.000883522
0.0008835
0.000882855
0.000874159
0.000883677
0.000599756
0.000583286
0.000582521
0.00058248
0.000582459
0.000582441
0.000582986
0.000598792
0.000882411
0.000886328
0.000579885
0.000561496
0.000560683
0.000560665
0.000560663
0.000560665
0.000561326
0.000579091
0.00088503
0.000888997
0.0005791
0.000560463
0.00055964
0.000559624
0.000559623
0.000559631
0.000560316
0.000578403
0.000887711
0.000891452
0.000582529
0.000563754
0.000563072
0.000563129
0.000563133
0.000563077
0.000563634
0.000581906
0.000890198
0.00087765
0.00088478
0.000885584
0.000885679
0.000885713
0.000885729
0.000885734
0.000885707
0.000884984
0.000875677
0.000885517
0.000582807
0.000564731
0.000563907
0.000563875
0.000563861
0.000563852
0.000564484
0.000581921
0.000884334
0.000887857
0.000561903
0.000541594
0.000540663
0.000540641
0.00054064
0.000540649
0.000541412
0.000561033
0.000886718
0.000890138
0.000561299
0.000540731
0.000539794
0.000539776
0.000539777
0.000539784
0.00054056
0.000560474
0.000888989
0.000892706
0.000563134
0.000542378
0.000541503
0.000541523
0.000541524
0.0005415
0.000542218
0.000562349
0.000891565
0.00087885
0.000885952
0.000886736
0.000886818
0.00088685
0.000886865
0.000886869
0.00088684
0.000886109
0.000876753
0.000886528
0.000580584
0.000562418
0.000561607
0.000561581
0.000561573
0.000561573
0.000562224
0.000579854
0.000885333
0.000888607
0.000560682
0.000540311
0.000539376
0.000539352
0.000539351
0.000539364
0.000540136
0.000559865
0.00088748
0.00089059
0.00056023
0.000539644
0.000538708
0.000538691
0.000538691
0.000538699
0.000539473
0.000559426
0.000889447
0.000893074
0.000561088
0.00054034
0.000539419
0.000539412
0.000539413
0.00053941
0.000540171
0.000560298
0.000891923
0.000879505
0.000886597
0.000887364
0.000887436
0.000887463
0.000887475
0.000887477
0.000887444
0.000886708
0.000877318
0.000887116
0.000579005
0.000560783
0.000559973
0.000559947
0.000559942
0.000559951
0.000560618
0.000578356
0.00088588
0.000889038
0.000560297
0.000539967
0.000539035
0.00053901
0.000539009
0.000539024
0.000539797
0.00055952
0.00088789
0.000890865
0.000559951
0.000539465
0.000538537
0.000538521
0.000538521
0.000538528
0.000539296
0.000559173
0.000889706
0.000893243
0.000560428
0.000539853
0.000538928
0.000538913
0.000538912
0.000538917
0.000539682
0.000559654
0.000892073
0.000879602
0.000886952
0.000887736
0.000887808
0.000887834
0.000887845
0.000887843
0.000887802
0.000887042
0.000877372
0.000887256
0.000578038
0.000559783
0.000558977
0.000558955
0.000558956
0.000558972
0.000559649
0.000577457
0.000885995
0.000889187
0.000560168
0.000539872
0.000538945
0.000538922
0.000538923
0.000538937
0.000539709
0.000559424
0.000888023
0.000891051
0.000559905
0.000539493
0.000538576
0.00053856
0.000538561
0.000538568
0.000539328
0.000559153
0.000889878
0.000893458
0.000560334
0.000539911
0.000539002
0.000538989
0.000538989
0.000538991
0.000539743
0.00055958
0.000892273
0.000879176
0.000887177
0.000888014
0.000888091
0.000888117
0.000888125
0.000888117
0.000888064
0.000887253
0.00087692
0.000886964
0.000578045
0.000559804
0.000559001
0.000558979
0.00055898
0.000558995
0.000559671
0.000577476
0.000885676
0.000889093
0.000560393
0.000540136
0.000539218
0.000539197
0.000539198
0.00053921
0.000539974
0.00055966
0.000887902
0.00089122
0.000560238
0.000539876
0.000538971
0.000538959
0.00053896
0.000538962
0.000539711
0.000559491
0.000890021
0.000893889
0.000561006
0.000540679
0.000539803
0.000539803
0.000539804
0.000539793
0.000540508
0.000560256
0.000892673
0.000878205
0.000886801
0.000887686
0.000887772
0.000887798
0.000887805
0.000887791
0.000887726
0.000886867
0.000875934
0.00088619
0.000579311
0.000561232
0.000560445
0.000560427
0.000560428
0.000560441
0.000561104
0.000578764
0.000884877
0.00088865
0.000562212
0.000542191
0.000541305
0.000541293
0.000541295
0.000541299
0.000542036
0.000561505
0.000887431
0.000891203
0.000562615
0.000542563
0.00054171
0.000541715
0.000541717
0.000541704
0.000542404
0.000561898
0.000889969
0.00089437
0.000564923
0.000545117
0.000544379
0.000544427
0.00054443
0.000544371
0.000544958
0.000564217
0.000893116
0.000876629
0.000884946
0.00088577
0.000885853
0.00088588
0.000885884
0.000885866
0.0008858
0.000884992
0.000874334
0.000884325
0.000600492
0.000584431
0.00058379
0.000583797
0.000583802
0.000583798
0.000584343
0.000600113
0.000882908
0.000887121
0.000587107
0.000569598
0.000568929
0.000568962
0.000568968
0.000568938
0.000569492
0.000586611
0.00088578
0.000890158
0.000591074
0.000573927
0.000573393
0.000573476
0.000573484
0.000573401
0.000573824
0.000590587
0.000888787
0.000894119
0.000601497
0.000585515
0.000585368
0.000585577
0.000585584
0.000585379
0.000585425
0.000601082
0.000892714
0.000872526
0.000872864
0.000872913
0.00087293
0.000872936
0.000872939
0.000872933
0.000872917
0.000872792
0.00087009
0.000874709
0.000882015
0.000882793
0.000882874
0.000882898
0.000882902
0.00088288
0.000882813
0.000882056
0.000872345
0.0008774
0.000885441
0.000886385
0.000886521
0.000886567
0.000886573
0.000886528
0.000886406
0.000885493
0.000875038
0.000881025
0.000889298
0.00089038
0.000890593
0.00089067
0.000890674
0.000890595
0.00089039
0.000889328
0.000878657
0.00088672
0.000896123
0.000897546
0.00089788
0.000897981
0.00089798
0.000897871
0.000897526
0.00089615
0.000884397
0.000900979
0.000928069
0.00093287
0.000932836
0.000932634
0.000932615
0.000932758
0.000932799
0.000928662
0.000899001
0.000972246
0.00130909
0.00136556
0.00134962
0.00134197
0.00134157
0.00134832
0.00136444
0.00131948
0.000974977
0.00167736
0.00548988
0.00613252
0.00592105
0.00583074
0.00582621
0.00590567
0.00611983
0.00559891
0.00172527
0.00642258
0.0321993
0.0368353
0.0362489
0.0358963
0.0358717
0.0361695
0.0367832
0.0327788
0.00671089
0.0254388
0.136849
0.158686
0.159767
0.159432
0.159356
0.159542
0.158593
0.138789
0.0263809
0.000900524
0.000623997
0.000610556
0.000610961
0.000611256
0.000611259
0.000610966
0.000610488
0.00062381
0.000899152
0.000911095
0.00071291
0.000710951
0.000711883
0.000711723
0.000711684
0.000711787
0.000710921
0.00071441
0.000910159
0.00099019
0.00141159
0.0014973
0.00146422
0.00145035
0.00144977
0.0014622
0.00149614
0.00142864
0.000993713
0.00210904
0.0160443
0.0176085
0.0163533
0.0158692
0.0158564
0.0163127
0.0175948
0.0163435
0.00217019
0.0419184
0.31613
0.354792
0.356343
0.355778
0.355678
0.356068
0.354903
0.319896
0.0435625
0.000897962
0.000569527
0.000550349
0.000549867
0.000550002
0.000550004
0.000549862
0.000550199
0.000568879
0.000896754
0.000902665
0.000579668
0.00056209
0.00056186
0.000561966
0.000561966
0.00056185
0.000561963
0.000579274
0.000901551
0.000916077
0.000726767
0.00072893
0.000730173
0.00073022
0.000730186
0.000730093
0.000729083
0.000729413
0.000915678
0.00153268
0.00904348
0.00988306
0.00981286
0.00976802
0.00976575
0.00980759
0.00989361
0.00918424
0.00156236
0.0442612
0.327975
0.357743
0.358032
0.357409
0.357366
0.357937
0.358167
0.331927
0.0459767
0.000895896
0.000562552
0.000542393
0.000541642
0.000541697
0.000541698
0.000541632
0.000542227
0.000561817
0.000894711
0.000900043
0.000562881
0.000542834
0.000541998
0.000541992
0.000541991
0.000541984
0.000542665
0.0005622
0.000898911
0.000908021
0.000671186
0.000660767
0.000660666
0.000661187
0.000661229
0.000660779
0.00066101
0.000672625
0.000907421
0.00147056
0.0090522
0.00984216
0.00988333
0.00988097
0.00988049
0.00988384
0.00986116
0.00919158
0.0014974
0.0485374
0.359705
0.390268
0.391833
0.391696
0.391685
0.391857
0.390952
0.364172
0.0504896
0.000894705
0.000561518
0.000541207
0.000540404
0.000540444
0.000540445
0.000540396
0.000541043
0.000560777
0.000893529
0.000898762
0.000560423
0.000539971
0.000539034
0.000539003
0.000539002
0.000539019
0.0005398
0.000559695
0.000897631
0.000904766
0.000652891
0.000641822
0.000642534
0.000643325
0.000643372
0.000642704
0.000642142
0.000654184
0.000904086
0.00152487
0.0102766
0.0112089
0.0113782
0.0114289
0.0114296
0.0113857
0.0112429
0.0104425
0.00155644
0.0505978
0.37047
0.401266
0.403357
0.403429
0.403431
0.40344
0.402069
0.375122
0.0526639
0.00089448
0.000562227
0.000541699
0.000540899
0.000540947
0.000540949
0.000540893
0.00054154
0.000561475
0.000893318
0.000898868
0.000561149
0.000539937
0.000538959
0.000538926
0.000538925
0.000538947
0.000539766
0.000560398
0.000897747
0.00090594
0.000665269
0.000658652
0.000661349
0.00066253
0.000662557
0.000661493
0.000659016
0.000666779
0.000905288
0.00194388
0.0124648
0.0136999
0.0142191
0.0144108
0.0144151
0.0142418
0.0137564
0.0126511
0.00199601
0.0513401
0.364304
0.393778
0.395808
0.395913
0.395921
0.395923
0.394624
0.368859
0.0534543
0.000895045
0.000564145
0.000543371
0.000542601
0.000542674
0.000542677
0.000542601
0.00054322
0.000563395
0.000893916
0.00089979
0.000563696
0.000541578
0.00054064
0.000540631
0.000540634
0.000540636
0.00054142
0.000562941
0.000898671
0.000912489
0.000688421
0.000683779
0.000689928
0.000692638
0.000692709
0.000690235
0.000684359
0.000690012
0.00091206
0.0024564
0.0106788
0.0117456
0.0122746
0.0125038
0.0125099
0.0122998
0.0117951
0.0108188
0.00252473
0.0511912
0.338884
0.364557
0.366827
0.367179
0.367197
0.366996
0.365398
0.342902
0.0532446
0.000896476
0.000566992
0.000546029
0.000545268
0.00054535
0.000545356
0.000545273
0.000545889
0.000566254
0.000895367
0.000900576
0.000571938
0.000549475
0.000548896
0.000549021
0.000549026
0.00054891
0.000549349
0.000571245
0.000899443
0.000923099
0.00070497
0.000698128
0.000703263
0.000705587
0.000705652
0.000703522
0.000698607
0.000706238
0.000922724
0.002291
0.00790355
0.00866832
0.00887703
0.00895641
0.00895799
0.00888635
0.0086949
0.00800776
0.00231966
0.0468383
0.270822
0.289034
0.291413
0.292106
0.292135
0.291603
0.289719
0.273611
0.0485074
0.000898164
0.000585015
0.000565736
0.000565016
0.000565068
0.000565073
0.000565023
0.00056562
0.000584419
0.000896981
0.000899585
0.000609567
0.000590054
0.000590438
0.000590872
0.000590888
0.000590484
0.000590024
0.000609189
0.000898358
0.000933062
0.000746871
0.000737504
0.000740589
0.000742053
0.000742088
0.000740735
0.000737777
0.000747713
0.000932548
0.00155755
0.00496858
0.00542031
0.00549402
0.00551816
0.00551819
0.0054966
0.00543206
0.00502759
0.00157869
0.0323038
0.157011
0.1663
0.167819
0.168338
0.168358
0.167932
0.166662
0.15836
0.0331595
0.00089206
0.000907982
0.000909997
0.000910438
0.000910611
0.000910626
0.000910455
0.000910083
0.000908203
0.000889808
0.000886712
0.000912444
0.000915564
0.000916027
0.000916161
0.000916171
0.000916071
0.000915687
0.000912738
0.000884439
0.00093592
0.000976572
0.000982084
0.000983538
0.00098401
0.000984009
0.000983609
0.000982207
0.000977152
0.000934059
0.00112976
0.00152645
0.00159755
0.00160912
0.00161236
0.00161237
0.0016094
0.00159916
0.0015343
0.00113412
0.00985971
0.0227624
0.0238456
0.0241395
0.0242329
0.0242359
0.0241549
0.0238898
0.0229172
0.0100032
)
;

boundaryField
{
    walls
    {
        type            epsilonWallFunction;
        value           nonuniform List<scalar> 
500
(
0.000844649
0.000844649
0.000844649
0.000874086
0.000874086
0.000875054
0.000875054
0.000875037
0.000875037
0.000875023
0.000875023
0.000875018
0.000875018
0.00087501
0.00087501
0.000875004
0.000875004
0.000874893
0.000874893
0.000872361
0.000872361
0.000872361
0.000875517
0.000875517
0.000885197
0.000886017
0.000886056
0.00088606
0.000886057
0.000886041
0.000885995
0.000885188
0.000874263
0.000874263
0.000878842
0.000878842
0.000888773
0.00088975
0.00088982
0.000889836
0.000889829
0.0008898
0.000889728
0.000888758
0.000876416
0.000876416
0.000881776
0.000881776
0.0008927
0.000893832
0.000893965
0.000894007
0.000894003
0.000893951
0.000893832
0.000892731
0.00087944
0.00087944
0.000883851
0.000883851
0.000896638
0.000897961
0.000898139
0.000898194
0.00089819
0.000898147
0.000897989
0.000896745
0.000881612
0.000881612
0.000874857
0.000874857
0.000882592
0.00088338
0.000883479
0.000883507
0.00088352
0.000883522
0.0008835
0.000882855
0.000874159
0.000874159
0.000883677
0.000882411
0.000886328
0.00088503
0.000888997
0.000887711
0.000891452
0.000890198
0.00087765
0.00087765
0.00088478
0.000885584
0.000885679
0.000885713
0.000885729
0.000885734
0.000885707
0.000884984
0.000875677
0.000875677
0.000885517
0.000884334
0.000887857
0.000886718
0.000890138
0.000888989
0.000892706
0.000891565
0.00087885
0.00087885
0.000885952
0.000886736
0.000886818
0.00088685
0.000886865
0.000886869
0.00088684
0.000886109
0.000876753
0.000876753
0.000886528
0.000885333
0.000888607
0.00088748
0.00089059
0.000889447
0.000893074
0.000891923
0.000879505
0.000879505
0.000886597
0.000887364
0.000887436
0.000887463
0.000887475
0.000887477
0.000887444
0.000886708
0.000877318
0.000877318
0.000887116
0.00088588
0.000889038
0.00088789
0.000890865
0.000889706
0.000893243
0.000892073
0.000879602
0.000879602
0.000886952
0.000887736
0.000887808
0.000887834
0.000887845
0.000887843
0.000887802
0.000887042
0.000877372
0.000877372
0.000887256
0.000885995
0.000889187
0.000888023
0.000891051
0.000889878
0.000893458
0.000892273
0.000879176
0.000879176
0.000887177
0.000888014
0.000888091
0.000888117
0.000888125
0.000888117
0.000888064
0.000887253
0.00087692
0.00087692
0.000886964
0.000885676
0.000889093
0.000887902
0.00089122
0.000890021
0.000893889
0.000892673
0.000878205
0.000878205
0.000886801
0.000887686
0.000887772
0.000887798
0.000887805
0.000887791
0.000887726
0.000886867
0.000875934
0.000875934
0.00088619
0.000884877
0.00088865
0.000887431
0.000891203
0.000889969
0.00089437
0.000893116
0.000876629
0.000876629
0.000884946
0.00088577
0.000885853
0.00088588
0.000885884
0.000885866
0.0008858
0.000884992
0.000874334
0.000874334
0.000884325
0.000882908
0.000887121
0.00088578
0.000890158
0.000888787
0.000894119
0.000892714
0.000872526
0.000872526
0.000872526
0.000872864
0.000872864
0.000872913
0.000872913
0.00087293
0.00087293
0.000872936
0.000872936
0.000872939
0.000872939
0.000872933
0.000872933
0.000872917
0.000872917
0.000872792
0.000872792
0.00087009
0.00087009
0.00087009
0.000874709
0.000874709
0.000882015
0.000882793
0.000882874
0.000882898
0.000882902
0.00088288
0.000882813
0.000882056
0.000872345
0.000872345
0.0008774
0.0008774
0.000885441
0.000886385
0.000886521
0.000886567
0.000886573
0.000886528
0.000886406
0.000885493
0.000875038
0.000875038
0.000881025
0.000881025
0.000889298
0.00089038
0.000890593
0.00089067
0.000890674
0.000890595
0.00089039
0.000889328
0.000878657
0.000878657
0.00088672
0.00088672
0.000896123
0.000897546
0.00089788
0.000897981
0.00089798
0.000897871
0.000897526
0.00089615
0.000884397
0.000884397
0.000900979
0.000900979
0.000928069
0.00093287
0.000932836
0.000932634
0.000932615
0.000932758
0.000932799
0.000928662
0.000899001
0.000899001
0.000972246
0.000972246
0.00130909
0.00136556
0.00134962
0.00134197
0.00134157
0.00134832
0.00136444
0.00131948
0.000974977
0.000974977
0.00167736
0.00167736
0.00548988
0.00613252
0.00592105
0.00583074
0.00582621
0.00590567
0.00611983
0.00559891
0.00172527
0.00172527
0.00642258
0.00642258
0.0321993
0.0368353
0.0362489
0.0358963
0.0358717
0.0361695
0.0367832
0.0327788
0.00671089
0.00671089
0.0254388
0.0254388
0.136849
0.158686
0.159767
0.159432
0.159356
0.159542
0.158593
0.138789
0.0263809
0.0263809
0.000900524
0.000899152
0.000911095
0.000910159
0.00099019
0.000993713
0.00210904
0.00217019
0.0419184
0.0435625
0.000897962
0.000896754
0.000902665
0.000901551
0.000916077
0.000915678
0.00153268
0.00156236
0.0442612
0.0459767
0.000895896
0.000894711
0.000900043
0.000898911
0.000908021
0.000907421
0.00147056
0.0014974
0.0485374
0.0504896
0.000894705
0.000893529
0.000898762
0.000897631
0.000904766
0.000904086
0.00152487
0.00155644
0.0505978
0.0526639
0.00089448
0.000893318
0.000898868
0.000897747
0.00090594
0.000905288
0.00194388
0.00199601
0.0513401
0.0534543
0.000895045
0.000893916
0.00089979
0.000898671
0.000912489
0.00091206
0.0024564
0.00252473
0.0511912
0.0532446
0.000896476
0.000895367
0.000900576
0.000899443
0.000923099
0.000922724
0.002291
0.00231966
0.0468383
0.0485074
0.000898164
0.000896981
0.000899585
0.000898358
0.000933062
0.000932548
0.00155755
0.00157869
0.0323038
0.0331595
0.00089206
0.00089206
0.000907982
0.000909997
0.000910438
0.000910611
0.000910626
0.000910455
0.000910083
0.000908203
0.000889808
0.000889808
0.000886712
0.000886712
0.000912444
0.000915564
0.000916027
0.000916161
0.000916171
0.000916071
0.000915687
0.000912738
0.000884439
0.000884439
0.00093592
0.00093592
0.000976572
0.000982084
0.000983538
0.00098401
0.000984009
0.000983609
0.000982207
0.000977152
0.000934059
0.000934059
0.00112976
0.00112976
0.00152645
0.00159755
0.00160912
0.00161236
0.00161237
0.0016094
0.00159916
0.0015343
0.00113412
0.00113412
0.00985971
0.00985971
0.0227624
0.0238456
0.0241395
0.0242329
0.0242359
0.0241549
0.0238898
0.0229172
0.0100032
0.0100032
)
;
        Cmu             0.09;
        kappa           0.41;
        E               9.8;
    }
    lid
    {
        type            epsilonWallFunction;
        value           nonuniform List<scalar> 
100
(
0.0254388
0.136849
0.158686
0.159767
0.159432
0.159356
0.159542
0.158593
0.138789
0.0263809
0.0419184
0.31613
0.354792
0.356343
0.355778
0.355678
0.356068
0.354903
0.319896
0.0435625
0.0442612
0.327975
0.357743
0.358032
0.357409
0.357366
0.357937
0.358167
0.331927
0.0459767
0.0485374
0.359705
0.390268
0.391833
0.391696
0.391685
0.391857
0.390952
0.364172
0.0504896
0.0505978
0.37047
0.401266
0.403357
0.403429
0.403431
0.40344
0.402069
0.375122
0.0526639
0.0513401
0.364304
0.393778
0.395808
0.395913
0.395921
0.395923
0.394624
0.368859
0.0534543
0.0511912
0.338884
0.364557
0.366827
0.367179
0.367197
0.366996
0.365398
0.342902
0.0532446
0.0468383
0.270822
0.289034
0.291413
0.292106
0.292135
0.291603
0.289719
0.273611
0.0485074
0.0323038
0.157011
0.1663
0.167819
0.168338
0.168358
0.167932
0.166662
0.15836
0.0331595
0.00985971
0.0227624
0.0238456
0.0241395
0.0242329
0.0242359
0.0241549
0.0238898
0.0229172
0.0100032
)
;
        Cmu             0.09;
        kappa           0.41;
        E               9.8;
    }
}


// ************************************************************************* //
