/*--------------------------------*- C++ -*----------------------------------*\
| =========                 |                                                 |
| \\      /  F ield         | OpenFOAM: The Open Source CFD Toolbox           |
|  \\    /   O peration     | Version:  2.3.1                                 |
|   \\  /    A nd           | Web:      www.OpenFOAM.org                      |
|    \\/     M anipulation  |                                                 |
\*---------------------------------------------------------------------------*/
FoamFile
{
    version     2.0;
    format      ascii;
    class       volScalarField;
    location    "0.88";
    object      k;
}
// * * * * * * * * * * * * * * * * * * * * * * * * * * * * * * * * * * * * * //

dimensions      [0 2 -2 0 0 0 0];

internalField   nonuniform List<scalar> 
1000
(
0.00222265
0.00227391
0.00227561
0.00227559
0.00227556
0.00227555
0.00227554
0.00227553
0.00227533
0.00227093
0.00227645
0.0022936
0.00229507
0.00229514
0.00229515
0.00229514
0.00229511
0.00229503
0.00229359
0.00227432
0.00228234
0.00229996
0.0023017
0.00230183
0.00230185
0.00230184
0.00230179
0.00230166
0.00229994
0.00227815
0.00228759
0.00230694
0.00230896
0.0023092
0.00230927
0.00230926
0.00230917
0.00230896
0.002307
0.00228355
0.00229117
0.00231384
0.00231619
0.00231651
0.00231661
0.0023166
0.00231652
0.00231624
0.00231403
0.00228731
0.00227532
0.00228895
0.00229034
0.00229052
0.00229056
0.00229059
0.00229059
0.00229055
0.0022894
0.00227413
0.00229086
0.00262215
0.00264751
0.00264902
0.00264914
0.00264917
0.00264916
0.00264817
0.00262525
0.00228868
0.00229556
0.00265373
0.00268201
0.00268372
0.00268383
0.00268384
0.00268377
0.00268254
0.00265682
0.00229333
0.00230031
0.00265765
0.00268629
0.00268802
0.00268814
0.00268814
0.00268807
0.00268679
0.00266064
0.00229809
0.00230459
0.00266862
0.00269897
0.00270134
0.00270172
0.00270173
0.00270143
0.00269955
0.00267175
0.00230244
0.00228025
0.00229283
0.00229425
0.00229442
0.00229448
0.00229451
0.00229452
0.00229447
0.00229318
0.00227684
0.00229413
0.00264747
0.0026752
0.00267685
0.00267696
0.00267698
0.00267697
0.00267584
0.00265069
0.00229209
0.00229828
0.00268031
0.00271139
0.00271329
0.00271341
0.00271341
0.00271335
0.00271196
0.00268372
0.00229632
0.00230233
0.00268423
0.00271576
0.00271773
0.00271786
0.00271786
0.00271777
0.00271631
0.0026876
0.00230035
0.00230684
0.0026893
0.00272178
0.00272409
0.00272436
0.00272436
0.00272416
0.00272237
0.00269271
0.00230488
0.00228238
0.00229491
0.0022963
0.00229644
0.0022965
0.00229652
0.00229653
0.00229648
0.00229518
0.00227875
0.00229593
0.00265028
0.00267808
0.0026797
0.00267979
0.00267981
0.00267979
0.00267864
0.0026533
0.00229387
0.00229961
0.00268164
0.00271275
0.00271464
0.00271474
0.00271475
0.00271469
0.00271331
0.00268498
0.00229767
0.00230312
0.00268534
0.00271688
0.00271884
0.00271897
0.00271897
0.00271889
0.00271742
0.00268868
0.00230116
0.00230752
0.00268749
0.00271941
0.0027215
0.00272167
0.00272167
0.00272155
0.00271996
0.00269082
0.00230554
0.00228354
0.00229605
0.00229741
0.00229754
0.00229759
0.00229761
0.00229761
0.00229755
0.00229625
0.00227976
0.00229697
0.00265198
0.00267979
0.0026814
0.00268149
0.0026815
0.00268147
0.00268031
0.00265488
0.00229484
0.00230038
0.00268176
0.00271277
0.00271464
0.00271474
0.00271474
0.00271469
0.00271331
0.00268504
0.0022984
0.00230361
0.00268517
0.00271653
0.00271848
0.00271861
0.00271861
0.00271853
0.00271707
0.00268847
0.00230162
0.00230783
0.00268647
0.00271794
0.00271992
0.00272005
0.00272005
0.00271996
0.00271846
0.00268974
0.00230582
0.00228371
0.00229669
0.00229808
0.00229821
0.00229825
0.00229827
0.00229827
0.00229819
0.00229684
0.00227986
0.00229722
0.00265328
0.00268113
0.00268273
0.00268281
0.00268282
0.00268278
0.0026816
0.00265608
0.00229505
0.00230064
0.00268209
0.00271305
0.00271492
0.00271502
0.00271503
0.00271497
0.00271358
0.00268532
0.00229864
0.00230394
0.00268537
0.00271664
0.00271858
0.00271871
0.00271872
0.00271863
0.00271717
0.00268862
0.00230193
0.00230821
0.0026868
0.00271808
0.00272005
0.00272018
0.00272019
0.00272009
0.00271859
0.00269001
0.00230618
0.00228295
0.0022971
0.00229859
0.00229873
0.00229877
0.00229879
0.00229877
0.00229868
0.00229723
0.00227905
0.0022967
0.00265384
0.00268173
0.00268335
0.00268343
0.00268344
0.00268339
0.00268219
0.00265663
0.00229448
0.00230048
0.00268259
0.00271357
0.00271545
0.00271557
0.00271557
0.00271551
0.0027141
0.0026858
0.00229843
0.00230425
0.00268601
0.00271728
0.00271925
0.00271939
0.0027194
0.0027193
0.00271781
0.00268923
0.00230219
0.00230897
0.00268826
0.00271964
0.0027217
0.00272188
0.00272188
0.00272174
0.00272015
0.00269144
0.00230688
0.00228123
0.00229645
0.00229802
0.00229818
0.00229822
0.00229824
0.00229821
0.00229809
0.00229656
0.0022773
0.00229533
0.0026528
0.00268056
0.00268218
0.00268227
0.00268228
0.00268223
0.00268102
0.00265554
0.00229306
0.00229969
0.00268123
0.002712
0.0027139
0.00271402
0.00271403
0.00271395
0.00271253
0.00268439
0.00229759
0.00230422
0.00268461
0.00271565
0.00271764
0.00271779
0.0027178
0.00271769
0.00271616
0.00268777
0.0023021
0.00230982
0.00268824
0.0027196
0.00272182
0.00272207
0.00272208
0.00272185
0.00272009
0.00269134
0.00230767
0.00227842
0.00229316
0.00229463
0.00229478
0.00229482
0.00229483
0.0022948
0.00229468
0.00229324
0.00227445
0.00229202
0.00262424
0.00264931
0.00265073
0.00265081
0.00265081
0.00265076
0.00264969
0.00262661
0.00228957
0.00229698
0.00264865
0.00267616
0.00267779
0.00267788
0.00267788
0.00267782
0.00267658
0.00265135
0.00229466
0.00230237
0.00264989
0.0026774
0.0026791
0.00267921
0.00267922
0.00267912
0.00267781
0.00265253
0.0023
0.00230938
0.00265368
0.00268157
0.00268369
0.00268395
0.00268395
0.0026837
0.00268194
0.00265624
0.00230696
0.00227122
0.00227183
0.00227192
0.00227195
0.00227196
0.00227197
0.00227195
0.00227193
0.0022717
0.002267
0.00227512
0.00228799
0.00228937
0.00228951
0.00228956
0.00228956
0.00228953
0.0022894
0.00228806
0.00227102
0.00227992
0.00229408
0.00229575
0.002296
0.00229608
0.00229609
0.00229601
0.00229579
0.00229417
0.00227583
0.00228638
0.00230095
0.00230287
0.00230325
0.00230339
0.00230339
0.00230326
0.00230288
0.002301
0.00228229
0.00229654
0.00231325
0.00231582
0.00231642
0.0023166
0.0023166
0.0023164
0.00231579
0.00231331
0.00229254
0.00232229
0.00237383
0.00238312
0.00238294
0.00238251
0.00238246
0.00238279
0.00238299
0.00237502
0.00231898
0.00245479
0.0030537
0.00315138
0.00312444
0.00311141
0.00311074
0.00312222
0.00314957
0.00307133
0.00246029
0.00360546
0.00819195
0.00885194
0.00864579
0.00855577
0.00855124
0.00863062
0.00884004
0.00830236
0.00367767
0.00891938
0.0264552
0.0290005
0.0287035
0.0285179
0.028505
0.028662
0.0289751
0.0267719
0.00918761
0.0221819
0.0686495
0.0758767
0.0762387
0.0761335
0.0761096
0.0761683
0.0758507
0.0692948
0.0227292
0.00232081
0.0026596
0.0026878
0.00269006
0.00269022
0.00269021
0.00269003
0.00268809
0.00266214
0.00231846
0.00234022
0.0027898
0.00283772
0.0028421
0.00284174
0.00284166
0.00284193
0.00283815
0.00279514
0.0023387
0.00248432
0.00371595
0.0038747
0.00386731
0.00385975
0.0038592
0.00386554
0.00387467
0.00373666
0.00249094
0.00418625
0.0115839
0.0123527
0.0118988
0.0117188
0.0117133
0.0118822
0.0123485
0.0117233
0.00426898
0.0309295
0.119066
0.1287
0.129099
0.128967
0.128943
0.129035
0.128731
0.120002
0.0317315
0.00231623
0.00269328
0.00272548
0.00272821
0.00272864
0.00272864
0.00272825
0.00272596
0.0026964
0.00231416
0.00232462
0.00270115
0.00273454
0.00273738
0.00273755
0.00273754
0.00273739
0.00273503
0.00270459
0.00232272
0.00234903
0.00292864
0.00299639
0.00300809
0.00301029
0.00301029
0.00300819
0.00299763
0.00293619
0.00234843
0.00335692
0.00795169
0.00839044
0.00838187
0.00836906
0.00836808
0.00837996
0.00839647
0.00802248
0.00340152
0.0320565
0.122102
0.129483
0.129567
0.129418
0.129408
0.129545
0.129588
0.123073
0.0328779
0.00231257
0.00269277
0.00272502
0.00272751
0.00272787
0.00272787
0.00272755
0.00272555
0.002696
0.00231053
0.00231995
0.00268823
0.00271956
0.00272156
0.00272164
0.00272164
0.00272158
0.00272005
0.00269148
0.00231801
0.0023344
0.00279805
0.00283966
0.0028439
0.00284486
0.0028449
0.00284408
0.00284061
0.00280326
0.00233342
0.00326174
0.00770241
0.00809196
0.00811972
0.00812177
0.00812162
0.00812022
0.00810123
0.0077699
0.00330254
0.034118
0.129848
0.137203
0.137586
0.137556
0.137554
0.137592
0.137365
0.13091
0.0350241
0.00231044
0.00269112
0.00272331
0.0027257
0.00272602
0.00272603
0.00272574
0.00272385
0.0026944
0.00230842
0.00231769
0.00268512
0.00271619
0.00271804
0.00271809
0.00271809
0.00271806
0.0027167
0.00268835
0.00231575
0.00232858
0.00277
0.00280912
0.00281268
0.00281345
0.00281348
0.00281285
0.00281001
0.00277488
0.00232747
0.00335302
0.00806104
0.00847974
0.00854722
0.00856665
0.00856697
0.00855014
0.00849395
0.00813583
0.00340079
0.0350818
0.132348
0.139679
0.140178
0.140196
0.140197
0.140198
0.139866
0.133441
0.036027
0.00231004
0.00269243
0.00272516
0.00272766
0.00272802
0.00272803
0.00272772
0.00272575
0.0026958
0.00230804
0.00231787
0.00268439
0.00271646
0.0027184
0.00271847
0.00271846
0.00271844
0.00271699
0.0026877
0.00231596
0.00233081
0.00278033
0.00282343
0.00282845
0.00282951
0.00282954
0.00282861
0.0028244
0.00278542
0.00232975
0.00396271
0.00899747
0.0095402
0.00974399
0.00981874
0.00982039
0.0097528
0.00956313
0.00907939
0.00403505
0.0354248
0.130752
0.137795
0.138283
0.138309
0.138311
0.138311
0.137993
0.131825
0.0363855
0.00231104
0.00269706
0.00273074
0.00273349
0.00273394
0.00273395
0.00273357
0.00273138
0.00270056
0.0023091
0.00231948
0.00268718
0.00272148
0.0027239
0.00272404
0.00272405
0.00272396
0.0027221
0.00269067
0.00231757
0.00234256
0.00283516
0.00288509
0.00289399
0.00289657
0.00289663
0.00289432
0.00288636
0.00284091
0.0023419
0.00463198
0.00851678
0.00905107
0.00929433
0.00939782
0.00940054
0.00930557
0.00907413
0.00858376
0.0047181
0.0353177
0.124262
0.130514
0.131083
0.13117
0.131174
0.131124
0.130715
0.125224
0.0362467
0.00231359
0.00270165
0.00273601
0.0027389
0.00273939
0.00273941
0.00273899
0.0027367
0.00270525
0.00231169
0.00232081
0.00270638
0.00274624
0.00275044
0.00275108
0.00275109
0.00275056
0.00274701
0.00271032
0.00231887
0.00236093
0.0029511
0.00301119
0.00302349
0.00302728
0.00302739
0.00302392
0.00301277
0.00295769
0.00236034
0.00436237
0.00734678
0.00779061
0.00790857
0.00795264
0.00795353
0.00791348
0.00780479
0.00740078
0.00439796
0.0331734
0.106555
0.111313
0.111935
0.112118
0.112126
0.111984
0.111488
0.107271
0.0339429
0.00231658
0.00267979
0.00271156
0.00271405
0.00271442
0.00271443
0.00271414
0.00271219
0.00268305
0.00231455
0.00231899
0.00274882
0.00279665
0.00280408
0.0028058
0.00280585
0.00280429
0.00279768
0.00275332
0.00231689
0.00237787
0.00307347
0.0031392
0.00315192
0.00315579
0.00315588
0.00315232
0.00314076
0.00307973
0.00237704
0.00337617
0.00596662
0.00633397
0.00637847
0.00639004
0.00638996
0.00637969
0.00634147
0.00600529
0.00340688
0.0257409
0.0738427
0.0767548
0.0772255
0.0773857
0.077392
0.0772601
0.0768651
0.0742578
0.0261853
0.00230595
0.00233396
0.00233751
0.00233828
0.00233859
0.00233862
0.00233832
0.00233766
0.00233434
0.00230209
0.00229634
0.00234181
0.00234734
0.00234817
0.00234841
0.00234842
0.00234824
0.00234756
0.00234233
0.00229243
0.00238228
0.0024526
0.00246208
0.00246457
0.00246538
0.00246538
0.00246469
0.00246229
0.00245359
0.00237914
0.00271055
0.00333036
0.00343622
0.00345318
0.00345788
0.00345788
0.00345358
0.00343856
0.00334191
0.00271774
0.0115973
0.0203385
0.0209896
0.0211646
0.0212199
0.0212217
0.0211737
0.0210156
0.0204305
0.0117088
)
;

boundaryField
{
    walls
    {
        type            kqRWallFunction;
        value           nonuniform List<scalar> 
500
(
0.00222265
0.00222265
0.00222265
0.00227391
0.00227391
0.00227561
0.00227561
0.00227559
0.00227559
0.00227556
0.00227556
0.00227555
0.00227555
0.00227554
0.00227554
0.00227553
0.00227553
0.00227533
0.00227533
0.00227093
0.00227093
0.00227093
0.00227645
0.00227645
0.0022936
0.00229507
0.00229514
0.00229515
0.00229514
0.00229511
0.00229503
0.00229359
0.00227432
0.00227432
0.00228234
0.00228234
0.00229996
0.0023017
0.00230183
0.00230185
0.00230184
0.00230179
0.00230166
0.00229994
0.00227815
0.00227815
0.00228759
0.00228759
0.00230694
0.00230896
0.0023092
0.00230927
0.00230926
0.00230917
0.00230896
0.002307
0.00228355
0.00228355
0.00229117
0.00229117
0.00231384
0.00231619
0.00231651
0.00231661
0.0023166
0.00231652
0.00231624
0.00231403
0.00228731
0.00228731
0.00227532
0.00227532
0.00228895
0.00229034
0.00229052
0.00229056
0.00229059
0.00229059
0.00229055
0.0022894
0.00227413
0.00227413
0.00229086
0.00228868
0.00229556
0.00229333
0.00230031
0.00229809
0.00230459
0.00230244
0.00228025
0.00228025
0.00229283
0.00229425
0.00229442
0.00229448
0.00229451
0.00229452
0.00229447
0.00229318
0.00227684
0.00227684
0.00229413
0.00229209
0.00229828
0.00229632
0.00230233
0.00230035
0.00230684
0.00230488
0.00228238
0.00228238
0.00229491
0.0022963
0.00229644
0.0022965
0.00229652
0.00229653
0.00229648
0.00229518
0.00227875
0.00227875
0.00229593
0.00229387
0.00229961
0.00229767
0.00230312
0.00230116
0.00230752
0.00230554
0.00228354
0.00228354
0.00229605
0.00229741
0.00229754
0.00229759
0.00229761
0.00229761
0.00229755
0.00229625
0.00227976
0.00227976
0.00229697
0.00229484
0.00230038
0.0022984
0.00230361
0.00230162
0.00230783
0.00230582
0.00228371
0.00228371
0.00229669
0.00229808
0.00229821
0.00229825
0.00229827
0.00229827
0.00229819
0.00229684
0.00227986
0.00227986
0.00229722
0.00229505
0.00230064
0.00229864
0.00230394
0.00230193
0.00230821
0.00230618
0.00228295
0.00228295
0.0022971
0.00229859
0.00229873
0.00229877
0.00229879
0.00229877
0.00229868
0.00229723
0.00227905
0.00227905
0.0022967
0.00229448
0.00230048
0.00229843
0.00230425
0.00230219
0.00230897
0.00230688
0.00228123
0.00228123
0.00229645
0.00229802
0.00229818
0.00229822
0.00229824
0.00229821
0.00229809
0.00229656
0.0022773
0.0022773
0.00229533
0.00229306
0.00229969
0.00229759
0.00230422
0.0023021
0.00230982
0.00230767
0.00227842
0.00227842
0.00229316
0.00229463
0.00229478
0.00229482
0.00229483
0.0022948
0.00229468
0.00229324
0.00227445
0.00227445
0.00229202
0.00228957
0.00229698
0.00229466
0.00230237
0.0023
0.00230938
0.00230696
0.00227122
0.00227122
0.00227122
0.00227183
0.00227183
0.00227192
0.00227192
0.00227195
0.00227195
0.00227196
0.00227196
0.00227197
0.00227197
0.00227195
0.00227195
0.00227193
0.00227193
0.0022717
0.0022717
0.002267
0.002267
0.002267
0.00227512
0.00227512
0.00228799
0.00228937
0.00228951
0.00228956
0.00228956
0.00228953
0.0022894
0.00228806
0.00227102
0.00227102
0.00227992
0.00227992
0.00229408
0.00229575
0.002296
0.00229608
0.00229609
0.00229601
0.00229579
0.00229417
0.00227583
0.00227583
0.00228638
0.00228638
0.00230095
0.00230287
0.00230325
0.00230339
0.00230339
0.00230326
0.00230288
0.002301
0.00228229
0.00228229
0.00229654
0.00229654
0.00231325
0.00231582
0.00231642
0.0023166
0.0023166
0.0023164
0.00231579
0.00231331
0.00229254
0.00229254
0.00232229
0.00232229
0.00237383
0.00238312
0.00238294
0.00238251
0.00238246
0.00238279
0.00238299
0.00237502
0.00231898
0.00231898
0.00245479
0.00245479
0.0030537
0.00315138
0.00312444
0.00311141
0.00311074
0.00312222
0.00314957
0.00307133
0.00246029
0.00246029
0.00360546
0.00360546
0.00819195
0.00885194
0.00864579
0.00855577
0.00855124
0.00863062
0.00884004
0.00830236
0.00367767
0.00367767
0.00891938
0.00891938
0.0264552
0.0290005
0.0287035
0.0285179
0.028505
0.028662
0.0289751
0.0267719
0.00918761
0.00918761
0.0221819
0.0221819
0.0686495
0.0758767
0.0762387
0.0761335
0.0761096
0.0761683
0.0758507
0.0692948
0.0227292
0.0227292
0.00232081
0.00231846
0.00234022
0.0023387
0.00248432
0.00249094
0.00418625
0.00426898
0.0309295
0.0317315
0.00231623
0.00231416
0.00232462
0.00232272
0.00234903
0.00234843
0.00335692
0.00340152
0.0320565
0.0328779
0.00231257
0.00231053
0.00231995
0.00231801
0.0023344
0.00233342
0.00326174
0.00330254
0.034118
0.0350241
0.00231044
0.00230842
0.00231769
0.00231575
0.00232858
0.00232747
0.00335302
0.00340079
0.0350818
0.036027
0.00231004
0.00230804
0.00231787
0.00231596
0.00233081
0.00232975
0.00396271
0.00403505
0.0354248
0.0363855
0.00231104
0.0023091
0.00231948
0.00231757
0.00234256
0.0023419
0.00463198
0.0047181
0.0353177
0.0362467
0.00231359
0.00231169
0.00232081
0.00231887
0.00236093
0.00236034
0.00436237
0.00439796
0.0331734
0.0339429
0.00231658
0.00231455
0.00231899
0.00231689
0.00237787
0.00237704
0.00337617
0.00340688
0.0257409
0.0261853
0.00230595
0.00230595
0.00233396
0.00233751
0.00233828
0.00233859
0.00233862
0.00233832
0.00233766
0.00233434
0.00230209
0.00230209
0.00229634
0.00229634
0.00234181
0.00234734
0.00234817
0.00234841
0.00234842
0.00234824
0.00234756
0.00234233
0.00229243
0.00229243
0.00238228
0.00238228
0.0024526
0.00246208
0.00246457
0.00246538
0.00246538
0.00246469
0.00246229
0.00245359
0.00237914
0.00237914
0.00271055
0.00271055
0.00333036
0.00343622
0.00345318
0.00345788
0.00345788
0.00345358
0.00343856
0.00334191
0.00271774
0.00271774
0.0115973
0.0115973
0.0203385
0.0209896
0.0211646
0.0212199
0.0212217
0.0211737
0.0210156
0.0204305
0.0117088
0.0117088
)
;
    }
    lid
    {
        type            kqRWallFunction;
        value           nonuniform List<scalar> 
100
(
0.0221819
0.0686495
0.0758767
0.0762387
0.0761335
0.0761096
0.0761683
0.0758507
0.0692948
0.0227292
0.0309295
0.119066
0.1287
0.129099
0.128967
0.128943
0.129035
0.128731
0.120002
0.0317315
0.0320565
0.122102
0.129483
0.129567
0.129418
0.129408
0.129545
0.129588
0.123073
0.0328779
0.034118
0.129848
0.137203
0.137586
0.137556
0.137554
0.137592
0.137365
0.13091
0.0350241
0.0350818
0.132348
0.139679
0.140178
0.140196
0.140197
0.140198
0.139866
0.133441
0.036027
0.0354248
0.130752
0.137795
0.138283
0.138309
0.138311
0.138311
0.137993
0.131825
0.0363855
0.0353177
0.124262
0.130514
0.131083
0.13117
0.131174
0.131124
0.130715
0.125224
0.0362467
0.0331734
0.106555
0.111313
0.111935
0.112118
0.112126
0.111984
0.111488
0.107271
0.0339429
0.0257409
0.0738427
0.0767548
0.0772255
0.0773857
0.077392
0.0772601
0.0768651
0.0742578
0.0261853
0.0115973
0.0203385
0.0209896
0.0211646
0.0212199
0.0212217
0.0211737
0.0210156
0.0204305
0.0117088
)
;
    }
}


// ************************************************************************* //
