/*--------------------------------*- C++ -*----------------------------------*\
| =========                 |                                                 |
| \\      /  F ield         | OpenFOAM: The Open Source CFD Toolbox           |
|  \\    /   O peration     | Version:  2.3.1                                 |
|   \\  /    A nd           | Web:      www.OpenFOAM.org                      |
|    \\/     M anipulation  |                                                 |
\*---------------------------------------------------------------------------*/
FoamFile
{
    version     2.0;
    format      ascii;
    class       volScalarField;
    location    "0.29";
    object      epsilon;
}
// * * * * * * * * * * * * * * * * * * * * * * * * * * * * * * * * * * * * * //

dimensions      [0 2 -3 0 0 0 0];

internalField   nonuniform List<scalar> 
9648
(
2420.47
2417.02
2414.51
2407.32
2395.06
2377.5
2355.15
2327.54
2294.66
2256.63
2213.77
2166.29
2115.11
2061.26
2005.55
1948.94
1892.49
1837.17
1783.63
1732.35
1683.83
1638.34
1596.01
1556.98
1521.24
1488.66
1459.07
1432.36
1408.42
1387.08
1368.24
1351.8
1337.68
1325.75
1315.94
1308.09
1302.08
1297.77
1295.16
1294.1
1294.48
1296.36
1299.68
1304.42
1310.64
1318.34
1327.5
1338.12
1350.3
1364.18
1379.76
1397.01
1416.17
1437.18
1460
1484.37
1509.99
1536.4
1562.82
1588.71
1613.7
594.848
586.935
577.794
568.497
561.077
557.419
556.59
557.563
560.577
565.404
571.779
579.02
586.711
594.488
602.042
609.037
615.33
620.916
625.812
629.974
633.52
636.527
639.055
641.234
643.194
644.997
646.687
648.326
649.99
651.724
653.562
655.575
657.815
660.287
663.02
666.03
669.316
672.855
676.679
680.819
685.247
689.977
694.998
700.32
705.932
711.853
718.079
724.583
731.346
738.354
745.577
752.969
760.476
768.125
775.766
783.373
790.79
798.126
805.246
812.079
818.588
235.999
239.241
244.464
251.898
261.333
272.583
285.66
300.181
316.082
332.918
350.463
368.263
385.979
403.283
419.904
435.625
450.303
463.871
476.294
487.578
497.764
506.899
515.07
522.371
528.906
534.762
540.021
544.769
549.067
552.988
556.598
559.957
563.123
566.136
569.044
571.875
574.643
577.378
580.076
582.76
585.474
588.207
590.972
593.755
596.54
599.339
602.143
604.947
607.744
610.508
613.235
615.914
618.505
621.062
623.466
625.821
628.026
630.225
632.252
634.155
635.925
134.651
144.787
156.511
169.917
184.952
201.539
219.555
238.753
258.866
279.512
300.36
321.03
341.209
360.607
378.996
396.193
412.09
426.63
439.8
451.626
462.151
471.438
479.575
486.66
492.803
498.11
502.68
506.604
509.962
512.827
515.266
517.345
519.12
520.67
522.044
523.285
524.443
525.472
526.42
527.302
528.118
528.951
529.764
530.574
531.396
532.2
533.018
533.829
534.633
535.421
536.17
536.91
537.615
538.3
538.912
539.514
540.099
540.661
541.177
541.655
542.136
100.866
114.007
128.843
145.348
163.445
183.008
203.816
225.577
247.949
270.527
292.94
314.815
335.855
355.802
374.466
391.682
407.377
421.524
434.133
445.262
454.97
463.324
470.433
476.395
481.342
485.392
488.655
491.24
493.217
494.676
495.685
496.297
496.607
496.658
496.526
496.28
495.907
495.469
494.926
494.294
493.655
492.961
492.28
491.611
490.935
490.308
489.703
489.129
488.572
488.021
487.462
486.897
486.343
485.79
485.234
484.676
484.141
483.604
483.05
482.49
481.931
88.4301
103.569
120.584
139.366
159.728
181.475
204.303
227.852
251.723
275.467
298.703
321.045
342.237
362.036
380.326
396.927
411.798
424.967
436.451
446.362
454.777
461.752
467.435
471.907
475.338
477.862
479.592
480.649
481.101
481.037
480.549
479.699
478.552
477.196
475.65
473.964
472.257
470.431
468.591
466.759
464.85
463.002
461.124
459.252
457.453
455.678
454.001
452.4
450.852
449.341
447.845
446.364
444.904
443.466
442.042
440.663
439.319
437.984
436.644
435.309
433.964
84.8373
101.684
120.556
141.253
163.457
186.927
211.272
236.084
260.948
285.315
308.865
331.142
351.986
371.151
388.671
404.255
417.921
429.776
439.8
448.21
455.098
460.46
464.547
467.356
469.139
470.05
470.168
469.691
468.594
467.02
465.091
462.797
460.317
457.651
454.789
451.873
448.875
445.876
442.897
439.909
437.039
434.155
431.315
428.554
425.766
423.116
420.547
418.079
415.725
413.434
411.192
408.974
406.805
404.641
402.508
400.431
398.405
396.429
394.448
392.442
390.458
85.4259
103.833
124.374
146.74
170.455
195.241
220.696
246.375
271.839
296.414
319.896
341.655
361.753
379.863
396.364
410.667
422.87
433.235
441.551
448.259
453.494
457.068
459.515
460.533
460.588
459.832
458.317
456.331
453.713
450.658
447.345
443.683
439.9
436.012
431.97
427.853
423.807
419.627
415.536
411.592
407.631
403.849
400.178
396.538
392.986
389.55
386.196
382.965
379.855
376.884
373.975
371.113
368.297
365.468
362.691
360.012
357.359
354.819
352.238
349.615
347.084
87.9332
107.561
129.573
153.172
178.209
203.896
230.002
256.39
281.992
306.618
329.677
350.805
369.774
386.534
401.81
414.744
425.415
434.151
440.97
445.994
449.351
451.092
451.657
451.059
449.449
446.897
443.851
440.425
436.194
431.738
427.011
422.112
417.308
412.182
406.792
401.741
396.515
391.207
386.23
381.055
375.975
370.935
366.485
362.112
357.727
353.778
349.507
345.619
341.578
337.894
334.116
330.648
327.255
323.707
320.266
317.135
313.747
310.92
307.692
304.341
301.365
1637.92
1661.29
1683.51
1704.58
1724.71
1744.35
1763.63
1782.87
1801.51
1819.16
1835.52
1851.13
1866.24
1881.28
1896.44
1912.41
1929.78
1949.08
1970.67
1995
2021.77
2050.41
2080.51
2111.65
2143.51
2176.05
2209.37
2243.18
2277.45
2312.21
2347.62
2383.57
2420.07
2457.27
2495.18
2533.72
2572.97
2613.09
2654.12
2695.94
2738.56
2782.22
2826.91
2872.47
2919.22
2967.03
3015.78
3065.51
3116.43
3168.59
3221.91
3276.27
3332.22
3389.37
3448.07
3508.13
3570.27
3634.5
3700.82
3769.12
3839.53
824.759
831.016
837.084
842.891
848.466
853.932
859.443
864.853
870.302
875.507
880.675
885.746
890.839
895.958
901.103
906.326
911.646
917.108
922.699
928.391
934.142
939.889
945.611
951.286
956.898
962.422
967.788
972.975
977.979
982.824
987.525
992.058
996.442
1000.7
1004.82
1008.81
1012.7
1016.46
1020.12
1023.66
1027.1
1030.47
1033.73
1036.89
1039.97
1042.95
1045.83
1048.58
1051.26
1053.84
1056.31
1058.68
1060.95
1063.27
1065.39
1067.62
1069.79
1072.19
1074.47
1076.81
1079.28
637.667
639.338
641.053
642.734
644.389
645.944
647.566
649.095
650.59
651.946
653.259
654.523
655.811
657.069
658.298
659.49
660.64
661.747
662.798
663.78
664.679
665.496
666.217
666.839
667.358
667.771
668.07
668.254
668.313
668.256
668.071
667.763
667.336
666.785
666.126
665.354
664.473
663.479
662.375
661.157
659.831
658.402
656.877
655.24
653.503
651.655
649.683
647.58
645.353
643.003
640.505
637.906
635.166
632.318
629.278
626.156
622.945
619.661
616.29
612.869
609.461
542.59
543.041
543.459
543.866
544.242
544.588
544.891
545.196
545.409
545.526
545.587
545.607
545.562
545.436
545.259
545.016
544.71
544.33
543.871
543.324
542.692
541.971
541.167
540.273
539.286
538.198
537.013
535.728
534.342
532.856
531.271
529.577
527.778
525.879
523.889
521.807
519.632
517.364
514.997
512.536
509.986
507.359
504.659
501.892
499.06
496.158
493.168
490.087
486.911
483.657
480.296
476.839
473.297
469.656
465.888
462.001
458.042
453.997
449.895
445.773
441.659
481.375
480.791
480.182
479.542
478.874
478.144
477.366
476.588
475.801
474.962
474.088
473.171
472.193
471.16
470.066
468.909
467.718
466.455
465.121
463.711
462.229
460.683
459.076
457.414
455.686
453.889
452.018
450.074
448.062
445.982
443.829
441.592
439.273
436.875
434.41
431.88
429.279
426.602
423.843
421.005
418.1
415.135
412.127
409.09
406.029
402.946
399.806
396.633
393.393
390.106
386.753
383.321
379.833
376.274
372.62
368.865
365.028
361.103
357.156
353.193
349.234
432.632
431.289
429.938
428.542
427.122
425.666
424.167
422.659
421.113
419.542
417.93
416.295
414.621
412.898
411.13
409.329
407.5
405.609
403.651
401.628
399.548
397.422
395.265
393.084
390.864
388.595
386.277
383.911
381.513
379.085
376.621
374.097
371.515
368.87
366.186
363.463
360.682
357.848
354.939
351.958
348.919
345.829
342.713
339.599
336.504
333.439
330.347
327.265
324.152
321.053
317.915
314.716
311.495
308.207
304.873
301.413
297.889
294.289
290.699
287.07
283.465
388.492
386.535
384.57
382.592
380.576
378.515
376.423
374.335
372.212
370.04
367.854
365.664
363.44
361.19
358.896
356.587
354.279
351.922
349.497
346.999
344.445
341.872
339.285
336.713
334.131
331.511
328.86
326.17
323.49
320.824
318.195
315.527
312.844
310.11
307.379
304.627
301.814
298.966
296.055
293.076
290.034
286.924
283.795
280.679
277.602
274.629
271.636
268.723
265.802
262.986
260.176
257.285
254.406
251.471
248.53
245.414
242.284
239.045
235.898
232.684
229.521
344.553
342.08
339.597
337.155
334.686
332.229
329.697
327.242
324.758
322.161
319.569
317.021
314.428
311.811
309.115
306.448
303.857
301.227
298.531
295.69
292.77
289.871
286.955
284.082
281.269
278.42
275.54
272.566
269.617
266.749
264.054
261.343
258.708
256.042
253.456
250.887
248.182
245.413
242.632
239.839
236.94
233.914
230.863
227.811
224.778
221.965
219.069
216.355
213.629
211.182
208.801
206.271
203.794
201.256
198.776
196.01
193.31
190.441
187.811
185.063
182.416
298.153
295.183
292.05
289.261
286.31
283.786
280.923
278.474
275.995
273.291
270.578
268.119
265.42
262.742
259.774
256.781
254.137
251.591
249.052
246.25
243.03
240.029
236.948
233.832
230.897
228.013
225.233
222.117
218.786
215.646
212.909
210.166
207.651
205.19
203.081
201.041
198.675
196.022
193.458
191.09
188.654
185.837
182.943
180.101
177.164
174.609
171.721
169.21
166.572
164.622
162.782
160.612
158.635
156.571
154.665
152.204
149.97
147.403
145.343
143.101
141.082
3913.13
3989.42
4067.76
4148.18
4231.08
4317.38
4406.49
4498.33
4592.56
4689.43
4789.6
4891.39
4995.85
5106.7
5253.07
5376.12
5502.71
5631.94
5763.67
5897.9
6034.94
6174.81
6317.09
6462.01
6609.31
6758.27
6908.6
7060.04
7212.39
7364.77
7517.08
7668.7
7818.76
7966.65
8111.83
8252.88
8388.66
8517.23
8629.59
8712.09
8767.83
8798.17
8802.92
8780.26
8728.59
8645.4
8526.62
8367.59
8163.96
7911.08
7602.69
7231.92
6793.57
6280.32
5654.3
4715.98
4303.56
4098.77
4019.07
3980.71
3898.6
1082
1084.83
1087.89
1091.01
1094.23
1097.7
1101.72
1106.14
1111.01
1116.16
1121.75
1124.45
1125.97
1129.27
1133.13
1138.71
1144.13
1149.46
1154.94
1160.68
1166.68
1172.97
1179.52
1186.33
1193.39
1200.69
1208.25
1216.09
1224.28
1232.85
1241.85
1251.35
1261.47
1272.33
1284.04
1296.83
1310.9
1326.59
1345.99
1376.02
1412.28
1451.11
1493.17
1538.59
1588.04
1641.84
1700.07
1762.99
1830.87
1903.24
1979.21
2057.13
2135.46
2212.99
2282.18
2347.67
2407.56
2494.94
2600.07
2706.8
2657.58
606.036
602.623
599.184
595.73
592.226
588.751
585.388
582.177
579.011
575.82
571.845
565.933
560.252
555.326
550.933
547.243
543.542
539.698
535.787
531.865
527.971
524.101
520.248
516.413
512.592
508.783
504.996
501.236
497.523
493.854
490.252
486.737
483.323
480.055
476.96
474.088
471.485
469.224
467.48
466.713
467.131
472.035
480.626
492.528
508.21
528.337
553.63
585.12
623.805
670.763
727.004
793.314
870.894
960.06
1060.58
1169.14
1276.99
1395.11
1540.12
1727.51
1914.08
437.556
433.47
429.391
425.302
421.169
417.039
412.96
408.973
404.942
400.81
395.6
389.543
383.94
378.829
374.133
369.813
365.562
361.295
357.01
352.741
348.493
344.248
340.014
335.796
331.59
327.407
323.247
319.114
315.007
310.931
306.888
302.884
298.93
295.037
291.217
287.488
283.871
280.382
277.052
273.941
271.133
268.951
268.14
269
271.459
275.863
282.679
292.566
306.373
325.128
350.248
383.059
425.218
477.831
541.522
614.282
692.002
776.236
875.428
1003.32
1162.67
345.3
341.435
337.597
333.742
329.823
325.906
322.004
318.18
314.305
310.309
305.357
300.062
295.192
290.706
286.489
282.517
278.625
274.8
271.015
267.285
263.589
259.88
256.188
252.521
248.868
245.244
241.647
238.08
234.532
231.009
227.509
224.039
220.604
217.214
213.878
210.608
207.412
204.304
201.292
198.395
195.64
193.091
190.889
189.408
188.703
188.829
190.009
192.549
196.884
203.559
213.373
227.338
246.656
272.584
306.123
347.378
394.941
448.355
509.93
585.276
680.601
279.863
276.388
272.949
269.515
265.943
262.377
258.802
255.339
251.835
248.26
243.876
239.412
235.301
231.528
227.908
224.455
221.05
217.777
214.578
211.471
208.407
205.302
202.232
199.203
196.186
193.208
190.249
187.323
184.403
181.499
178.606
175.741
172.903
170.109
167.361
164.671
162.046
159.495
157.02
154.633
152.348
150.186
148.188
146.447
145.204
144.357
144.027
144.338
145.498
147.787
151.577
157.395
165.918
177.917
194.265
215.521
241.802
273.172
310.258
354.723
409.665
226.275
223.23
220.234
217.292
214.096
210.93
207.7
204.67
201.615
198.588
194.817
191.129
187.709
184.647
181.611
178.717
175.803
173.096
170.469
167.955
165.489
162.925
160.441
158.043
155.637
153.284
150.925
148.609
146.267
143.938
141.599
139.299
137.023
134.802
132.617
130.495
128.427
126.43
124.498
122.649
120.884
119.225
117.682
116.29
115.124
114.303
113.754
113.544
113.775
114.582
116.155
118.747
122.679
128.385
136.338
147.031
160.875
178.192
199.444
225.414
257.379
179.515
176.9
174.372
172.001
169.198
166.469
163.58
161.04
158.483
156.08
152.884
149.886
147.058
144.674
142.161
139.833
137.365
135.215
133.119
131.123
129.19
127.065
125.102
123.335
121.496
119.704
117.853
116.09
114.232
112.395
110.51
108.717
106.937
105.247
103.571
101.97
100.394
98.8958
97.4544
96.1077
94.8335
93.6681
92.6131
91.6642
90.855
90.2927
89.9173
89.7342
89.8089
90.2133
91.0469
92.432
94.5394
97.5665
101.764
107.416
114.821
124.312
136.257
151.154
169.662
138.494
136.241
134.202
132.484
130.072
127.807
125.212
123.247
121.223
119.472
116.789
114.378
111.994
110.263
108.155
106.407
104.294
102.713
101.08
99.4545
97.9699
96.1362
94.6421
93.6022
92.233
90.8463
89.3496
88.0967
86.5623
85.0999
83.501
82.1872
80.8167
79.6256
78.3547
77.2022
75.9612
74.8554
73.8171
72.9084
72.0751
71.3424
70.7303
70.2039
69.7145
69.3363
69.1434
69.0618
69.2009
69.4859
70.1561
71.129
72.6106
74.5643
77.2036
80.5631
84.9342
90.4103
97.384
106.12
116.968
3754.91
3597.63
3429.45
3253.34
3078.28
2909.4
2749.8
2603.55
2474.06
2363.19
2271.23
2197.13
2139.35
2095.82
2064.03
2041.58
2026.45
2017.15
2012.36
2010.92
2012.17
2015.59
2020.74
2027.5
2035.81
2045.47
2056.38
2068.53
2081.98
2096.58
2112.28
2129.01
2146.62
2164.86
2183.58
2202.47
2221.19
2239.41
2256.91
2273.31
2288.16
2301.21
2312.32
2321.27
2328.2
2333.39
2337.03
2339.39
2341.13
2343.05
2345.54
2348.84
2353.51
2359.71
2367.14
2375.5
2384.48
2394.04
2403.11
2410.7
2416.26
2463.52
2257.74
2056.92
1865.23
1697.77
1543.86
1402.35
1273.87
1158.44
1056.69
968.604
893.523
830.35
777.589
734.964
701.623
675.756
655.533
639.559
626.855
616.732
608.651
602.28
597.395
593.808
591.381
590.023
589.72
590.434
592.157
594.899
598.639
603.372
609.062
615.647
623.029
631.098
639.743
648.789
658.019
667.141
675.782
683.482
689.744
694.104
696.117
695.411
691.84
685.557
677.019
666.907
656.1
645.583
636.184
628.281
622.196
617.609
614.121
610.677
606.468
601.094
1997.91
1981.52
1876.72
1700.33
1519.98
1346.04
1177.81
1026.02
890.962
771.785
669.232
582.651
510.76
452.234
406.141
370.628
342.958
320.898
303.253
289.234
278.071
269.135
261.945
256.137
251.427
247.612
244.556
242.178
240.42
239.244
238.619
238.539
238.982
239.911
241.296
243.097
245.271
247.765
250.517
253.445
256.444
259.4
262.174
264.582
266.444
267.536
267.645
266.581
264.24
260.6
255.797
250.195
244.293
238.7
233.911
230.48
228.616
228.309
229.245
231.103
233.511
1327.91
1473.69
1568.63
1582.93
1511.89
1385.46
1217.26
1047.95
892.361
749.472
625.382
521.725
436.379
368.046
314.445
272.688
240.102
214.214
193.724
177.638
165.071
155.294
147.686
141.719
136.982
133.176
130.103
127.627
125.653
124.111
122.96
122.171
121.715
121.549
121.634
121.927
122.389
122.977
123.644
124.338
125
125.572
125.989
126.187
126.101
125.673
124.853
123.608
121.94
119.858
117.422
114.769
112.107
109.708
107.895
107.134
107.79
110.009
113.756
119.059
125.943
796.997
931.912
1074.23
1200.31
1280.53
1297.67
1247.12
1141.63
1005.73
852.636
707.077
582.417
475.519
388.337
319.274
264.62
221.735
188.083
161.65
141.081
125.236
113.182
104.073
97.1563
91.835
87.6744
84.3902
81.7857
79.7239
78.0963
76.8393
75.9156
75.2837
74.8954
74.705
74.6703
74.7504
74.9043
75.0914
75.267
75.384
75.3977
75.2654
74.9468
74.4065
73.6193
72.5778
71.2888
69.7669
68.0531
66.2141
64.3589
62.663
61.3504
60.6848
61.0343
62.8732
66.5175
72.1987
79.8653
89.4338
478.106
563.117
665.602
781.56
898.856
999.868
1064.57
1077.68
1037.02
950.522
835.01
709.612
583.605
473.515
383.711
309.678
251.007
204.561
167.507
138.768
116.936
100.693
88.7472
79.9223
73.303
68.2494
64.3532
61.3355
58.9972
57.1753
55.7752
54.7421
54.0218
53.5548
53.2887
53.1779
53.1787
53.2521
53.3589
53.458
53.5071
53.4699
53.3092
52.9943
52.494
51.7926
50.8867
49.7899
48.5153
47.0993
45.599
44.1112
42.7857
41.8372
41.5688
42.3697
44.6873
48.9486
55.449
64.247
75.2743
297.055
346.665
408.513
484.059
572.375
668.819
763.519
842.428
891.202
899.297
864.484
794.045
700.068
596.486
495.095
399.654
320.747
256.442
202.833
160.87
128.951
105.564
88.7756
76.6429
67.7324
61.0538
56.0048
52.1782
49.2812
47.0577
45.3646
44.1172
43.2432
42.6637
42.3149
42.1423
42.0982
42.1418
42.2336
42.3339
42.4017
42.4075
42.3147
42.0979
41.7233
41.1827
40.4702
39.6022
38.5836
37.451
36.2505
35.0695
34.0411
33.3578
33.3184
34.3064
36.8087
41.356
48.3708
58.0113
70.2208
192.737
221.587
257.764
302.872
358.224
424.061
498.688
577.177
651.651
711.385
745.863
748.68
719.952
664.081
589.873
505.579
421.085
341.711
267.044
207.054
159.666
125.134
100.863
83.5599
70.9604
61.591
54.5879
49.3917
45.5562
42.6507
40.4585
38.8406
37.7009
36.9268
36.4361
36.1592
36.0399
36.0322
36.0951
36.1875
36.2673
36.3126
36.2858
36.1649
35.9096
35.5195
34.9822
34.3195
33.5271
32.6415
31.702
30.79
30.0242
29.5834
29.7437
30.8855
33.525
38.306
45.7627
56.1652
69.4647
130.599
147.528
168.696
195.36
228.568
269.357
318.117
374.37
435.682
498.046
553.625
596.347
619.83
621.258
598.985
555.173
495.693
424.8
351.68
277.771
209.726
160.265
125.764
101.039
82.6805
69.0301
58.8567
51.4545
46.1054
42.0913
39.102
36.8818
35.314
34.2265
33.5079
33.0591
32.8122
32.7085
32.7073
32.7571
32.8207
32.8797
32.897
32.8483
32.691
32.4249
32.0403
31.5517
30.9565
30.2823
29.5733
28.9027
28.3883
28.1901
28.565
29.9018
32.7214
37.7365
45.5629
56.616
70.7859
1.34281
209.017
186.722
2.45005
1.92071
0.199182
0.000724856
97.4836
0.000790888
0.0145411
97.4202
6.8913
0.00072522
250.212
0.162735
135.161
0.000755795
98.9871
121.848
0.000727487
2.4503
239.593
197.452
0.000769091
0.000776348
0.210081
0.000727148
8.21546
0.000751638
0.000819038
5.58083
0.000811512
0.00872323
70.8635
3.9163
115.853
75.7815
15.6455
0.000725358
42.97
65.6335
27.0763
0.000742205
102.596
182.984
0.708078
0.000880599
0.00836825
1.851
7.10691
373.093
355.114
0.000713637
0.0010406
0.0677301
0.201363
0.00081579
9.27411
62.6322
281.67
144.312
0.000896201
1.62895
0.0247655
199.103
1.02602
42.1559
68.6516
0.00113604
0.000747404
9.22508
40.6692
56.417
0.0149916
0.053061
85.859
226.487
55.1895
0.000710449
5.38221
0.00231611
45.5223
0.0148934
109.982
0.00074972
8.53718
0.000785912
40.3806
0.0116935
0.0013584
0.224509
0.000709006
0.000928864
305.631
142.293
0.000863591
1.56339
1.5408
0.00183965
206.844
0.364531
29.6631
5.89689
0.000707923
0.000727453
0.000712062
1.41656
0.209029
0.00074969
173.577
222.417
0.00500345
246.049
29.3413
121.526
59.1561
31.0615
0.00098066
0.109101
0.00109785
0.00119642
199.902
0.00268978
287.644
413.889
30.6312
0.000744891
7.01384
6.86768
0.000742907
0.0298991
0.0266365
94.087
0.00178309
69.1897
0.000747425
0.000725648
394.988
348.952
0.000746345
0.611134
148.655
0.231479
0.901012
28.9902
117.464
0.44187
30.0315
0.00517265
274.798
11.7606
0.171696
48.8484
107.564
187.979
0.000766527
0.000754949
0.506696
0.000805554
45.0807
0.131739
0.00144194
0.000744082
0.000745956
0.000758535
40.148
75.0942
34.6564
0.000785617
287.045
313.09
407.894
167.064
0.00695617
170.03
49.2764
30.8483
0.000747233
0.00166266
197.772
70.8344
27.8092
71.181
0.000743061
0.000840333
249.699
0.0293558
2.45753
0.000756975
0.000880264
0.171191
0.00080046
330.035
3.9134
0.000808312
0.669222
93.876
138.442
0.00119975
57.1234
0.000744397
0.000747899
108.38
32.513
300.671
0.00121674
0.00079576
0.00291469
41.3536
81.534
9.78072
120.051
13.1149
231.878
0.83477
86.0706
81.9541
25.3904
10.5586
42.9955
0.00139868
0.0288946
0.000745456
0.000801581
31.1269
0.00991238
0.0115693
0.00179448
0.00631572
46.871
206.687
0.0110909
167.511
7.37928
2.17672
0.000732465
0.477975
38.1683
7.1417
0.00106721
11.2534
38.4048
0.889803
3.14726
271.256
7.5588
5.14265
122.454
0.000954875
0.000728377
0.00101457
0.00428784
31.4099
0.000785083
0.0022238
0.000725302
1.74004
75.0283
81.3562
51.8327
12.8597
11.2538
324.099
0.0011438
51.9772
98.4804
0.000742833
90.4942
0.000749372
331.027
1.73952
57.9506
0.00151906
0.000747087
20.025
8.01694
0.000759607
0.000747744
0.000752602
0.000751228
1.17023
36.043
44.3181
0.0114593
0.000760429
0.000725646
0.000707776
104.248
0.987114
0.00117388
18.62
0.115334
0.103623
0.000710214
0.778524
0.000760161
0.0873307
48.1591
282.425
4.30562
0.000991857
0.00184055
55.9119
0.333513
133.113
321.905
0.000833244
0.000739393
0.000733855
156.301
0.000769466
135.263
0.000748748
23.6145
13.8229
0.0246392
150.12
241.304
0.00125501
52.681
48.6101
90.8275
93.6253
7.10045
346.567
41.5566
70.7547
144.769
94.7018
56.6246
0.333029
336.067
279.83
65.3655
36.633
0.00103082
268.407
135.269
230.064
0.0185589
0.000859095
0.000744524
0.00080566
0.70875
1.53889
5.51412
0.123223
0.000728482
169.876
0.000745267
29.4116
23.2173
192.142
39.025
18.5049
0.00189177
0.00110074
0.500226
93.8877
0.00431492
8.12667
268.773
39.0626
83.5508
189.764
59.0734
0.000819735
282.906
141.268
97.9538
0.000748231
191.671
151.349
0.000776704
33.3158
0.000749185
398.917
173.089
30.6154
81.2015
123.013
148.708
0.000766601
148.047
0.000953457
72.0486
80.7567
30.8489
279.202
3.57004
0.487767
2.54803
0.0010967
443.346
1.59196
0.00285676
0.00206706
265.65
0.000942192
92.1535
0.000741562
0.000748001
0.00183395
31.7426
0.186184
21.4664
0.0017892
83.2903
0.302527
215.837
282.659
38.0047
344.783
0.000798195
279.212
41.9576
0.000739992
78.1528
25.3777
0.000712293
0.000728679
119.593
0.00206088
24.5407
0.497956
84.2242
0.0173304
3.35397
39.2411
117.456
32.5761
79.1038
68.8793
0.00103388
0.0366759
31.6797
20.0625
330.582
345.641
137.601
0.0827062
123.127
122.044
3.39826
94.34
45.3756
25.687
0.000840858
83.8255
381.993
0.00106347
91.7304
18.8717
45.9977
0.0150411
0.087077
272.683
0.00189458
326.445
0.00123902
1.88556
0.000738098
7.71399
171.615
0.550666
0.00131455
0.000909438
83.0483
29.1857
0.123293
5.86077
301.284
545.884
0.0015123
11.4879
29.6618
78.6488
28.498
452.301
31.3651
156.085
51.4823
4.16057
6.64064
302.034
54.5894
353.126
171.456
0.362027
184.312
65.8166
0.000796033
95.4074
32.1787
14.0365
0.00988292
100.034
45.5172
4.04621
53.5402
0.00158546
0.000746307
0.0443276
25.9553
103.016
76.919
0.000749479
0.000733013
0.000741497
30.7862
0.0288703
0.000744216
0.23947
93.8684
282.252
0.00436832
0.00449356
0.000726029
0.000738541
0.00190439
29.7074
102.235
19.7252
1.87466
294.848
389.787
0.00150711
58.6943
30.518
31.0004
75.4643
437.331
0.000823261
0.00441177
0.00074798
400.597
0.755265
0.000727681
10.3422
0.346951
301.329
0.000759286
321.627
8.56381
0.0601513
201.361
0.000745305
0.000733915
0.00103681
402.835
52.6431
129.773
327.529
9.20374
31.4716
0.000714286
0.00183212
0.50101
0.00800069
0.0160824
179.982
44.2782
0.000745847
25.7805
49.2726
183.194
405.357
0.00287797
408.818
0.00181904
0.021295
159.106
0.000736702
146.046
0.000759091
0.000787108
0.0222584
37.5979
2.89287
326.116
62.269
0.000891031
31.1187
502.604
0.0655344
2.3593
8.1513
0.000770645
0.000756218
0.00228623
135.294
5.63221
0.000789642
268.039
284.809
215.485
0.0308111
64.3606
0.00109487
29.7064
0.485109
0.129227
126.893
32.7872
152.571
173.623
0.000762122
0.000716284
0.00473423
75.9733
101.581
5.79639
0.00651477
0.000776056
0.000747063
0.0034024
0.716821
0.00208959
77.2492
22.6518
0.00498884
28.6927
171.533
0.000758885
40.8622
0.000742294
3.10745
0.000762508
0.0130037
35.1928
0.0114661
0.000744319
3.97294
361.202
259.389
0.000733128
0.00075085
1.51868
0.751361
0.000746698
95.109
0.000899351
35.2507
375.039
29.4196
90.2863
298.521
135.412
335.448
0.000744797
0.00248547
0.0117189
293.196
62.1282
198.082
3.69016
4.6016
99.7242
177.835
124.012
2.99019
43.9275
0.000749421
1.47355
44.9228
32.777
311.653
25.0751
0.960163
40.6613
0.204479
0.0118667
45.1291
0.000748011
174.482
0.000892903
2.78113
292.704
189.782
2.94617
0.00247042
7.16536
0.000765396
0.000735736
0.19172
0.0133447
57.4388
0.00847671
31.3033
0.000749832
0.0187136
0.000726519
95.1914
0.00203071
87.5514
304.337
0.0140388
169.746
372.874
0.000753669
100.049
233.475
0.000789318
287.177
0.293372
0.000840062
0.000798139
278.276
0.000731794
0.00111683
0.120343
0.216582
432.795
269.74
0.000751333
0.000754601
7.05296
27.4741
0.00703356
2.93057
21.8487
0.00074637
0.000943858
0.000923842
168.502
270.984
3.43865
294.319
0.0169839
29.1025
0.000778851
0.00703223
0.0158303
0.0443567
0.000747608
298.209
0.000741506
0.0157557
0.000772132
0.53891
0.0145314
0.0120766
2.34502
5.09164
37.8985
2.01542
9.18981
30.5598
192.288
0.000812205
172.158
324.495
12.722
75.2049
0.000761995
269.204
77.9236
0.000743458
410.727
70.1719
0.0032112
0.0131323
161.615
160.741
0.0960535
314.621
409.451
4.35297
431.439
261.119
127.698
54.8473
19.5628
30.4962
263.209
288.199
0.0140389
307.03
39.823
406.009
0.000812029
1.57852
2.02612
225.212
163.844
0.0115736
447.164
195.585
7.41907
0.0588861
2.81541
30.815
0.00152593
30.9237
441.93
0.0292444
221.515
13.6671
93.1464
189.169
0.000744397
0.00167129
7.2045
5.30432
0.0138253
0.000747179
0.852323
1.88757
0.00119416
0.000758686
272.034
6.90572
51.697
10.6828
0.00308236
0.00107088
0.182196
90.3777
0.000817348
21.4245
32.9841
1.82054
169.018
0.000993652
0.41261
0.000739681
2.8151
86.6749
0.00122365
0.182671
44.2055
162.759
0.498046
94.8942
5.18395
0.5686
0.000982325
32.6963
329.554
0.0007427
0.000757245
147.547
0.015426
0.000758228
72.5086
2.60227
165.795
32.1896
38.5844
0.305119
16.9295
205.38
160.127
253.49
0.000760208
282.566
0.000979012
35.3845
0.000808522
0.00123643
48.6173
0.00209571
256.409
0.012108
0.0318765
45.7761
7.83017
0.766215
0.000888201
184.199
0.000878086
0.000721908
342.304
160.687
40.3688
31.2478
0.000808893
0.000713811
18.8236
148.178
0.000731796
215.23
37.5612
0.000750337
169.329
0.000714271
3.50227
6.33482
10.5218
1.47165
77.401
21.8249
0.000713936
268.601
326.584
0.000742183
0.0140354
31.5434
0.000716189
238.713
163.179
404.932
0.000743254
0.000728473
210.114
0.104737
0.000835294
31.4309
81.4191
263.218
0.00072353
0.000795971
0.0154895
0.011591
0.000745019
0.00203099
125.563
53.554
0.00074493
12.9207
0.000746126
10.335
0.00109439
0.000858964
26.8465
0.000751854
0.306662
0.000730783
48.2108
2.45475
19.6844
185.692
361.835
158.323
5.06505
16.6772
0.000758238
5.54762
277.325
531.789
0.154609
0.000820049
128.626
0.000744757
0.12976
0.000722877
442.244
15.5332
3.25229
194.928
52.5877
5.13131
79.9666
7.86658
223.978
113.027
0.000769383
0.000761789
0.00304884
0.000772605
0.0139347
96.4321
0.00093456
247.766
0.00186145
0.169907
2.96488
160.267
0.00136532
41.1673
0.0143088
53.4213
30.0436
438.495
0.000808671
0.000958408
0.634862
84.7142
68.9334
65.1683
1.8802
7.73935
19.0519
0.0629126
9.38968
2.65675
33.2918
0.000757576
393.509
1.4095
55.4001
0.000786444
52.5018
16.5389
0.00128231
90.066
17.0286
0.0824453
0.000721174
0.00074392
212.443
47.6051
16.5541
0.000736871
0.00943714
54.6082
187.916
4.08298
0.00579068
0.000736014
145.461
129.545
38.8564
35.3355
0.000741264
109.613
435.333
0.000746684
0.000748836
18.6284
0.00106159
0.00377906
0.339994
47.7374
0.00105729
39.1459
343.79
0.000741387
0.00082438
0.000729836
0.00076724
66.0751
517.548
333.056
0.0202422
33.3084
50.7016
0.132155
44.2268
0.000840353
34.5893
0.52685
33.1035
5.23532
83.0751
110.356
0.747484
0.000758904
159.445
89.3666
288.277
5.60493
32.8653
0.527081
18.6124
0.00348316
0.00131854
163.09
142.727
0.0366665
1.70651
0.000751605
0.0982534
19.3132
0.0290314
13.8706
2.43673
390.417
40.5288
1.72855
274.266
139.501
59.08
15.296
210.912
190.188
3.14621
37.6561
0.00199861
46.8528
44.8636
0.00074308
0.00071714
0.307103
0.000746317
0.000780032
60.0967
300.915
0.000743372
87.0311
0.000742811
0.000736261
0.000739634
0.000757354
0.00178906
32.2938
43.0307
249.384
0.000724339
0.000989488
6.54228
0.000848496
0.0282377
0.0007628
0.000879134
175.908
0.000972196
0.00464504
187.07
0.00418801
0.00074858
197.612
0.000744076
0.000757702
3.13453
0.00086727
6.00974
0.00124681
0.0234147
0.00074358
0.000753885
303.154
420.208
42.8562
0.0241738
119.196
15.7944
0.0013096
30.1387
309.844
234.798
477.751
0.000747373
25.1114
56.3484
0.257317
31.2808
100.872
0.347647
34.5071
2.27312
31.2556
0.428975
7.29208
0.000757552
218.984
0.000789071
31.5205
31.7433
0.000747279
0.909407
0.00240914
0.0145103
0.000729029
3.82344
0.00088482
0.000743253
43.3635
0.249871
0.161349
230.397
153.837
0.000823969
0.000971237
29.9493
260.259
0.000727379
0.000751552
0.208744
24.2572
146.449
0.00208672
15.531
0.000743763
0.000811901
0.000722133
0.0276318
24.4318
0.00408578
275.748
32.6159
258.831
171.766
0.000836569
297.815
65.9756
0.000733393
0.000754016
0.00075035
0.00116821
0.000739207
132.61
0.000745053
0.000747418
354.3
1.17667
0.00262619
0.0184047
65.4982
7.43515
0.00993225
0.000818253
185.315
0.00076271
7.30461
0.000756502
0.000838326
162.701
161.86
0.0033009
0.000846553
5.13637
0.000743767
371.979
0.000754259
149.016
0.0228187
8.63728
0.0314569
3.27217
2.89942
30.0143
0.000760839
0.000852068
0.00480356
58.206
0.265409
302.827
0.00074517
0.00125043
0.0016335
256.613
61.8275
277.562
0.00224694
0.00352702
0.829958
0.000750514
19.9719
37.4076
0.00866143
275.266
179.966
41.0833
0.00152479
1.41699
175.064
224.509
30.5655
0.0105024
130.998
0.750481
132.129
0.141231
2.23862
41.0873
0.000761963
31.0913
0.00123075
0.00495608
0.00311491
0.0464694
0.000897706
10.7108
0.000744946
46.6859
0.130538
0.000877687
2.70924
0.000756584
0.748769
0.220452
43.2358
3.8702
97.8551
0.77735
0.000747697
0.000731036
2.81045
0.152523
42.6151
261.592