/*--------------------------------*- C++ -*----------------------------------*\
| =========                 |                                                 |
| \\      /  F ield         | OpenFOAM: The Open Source CFD Toolbox           |
|  \\    /   O peration     | Version:  2.3.1                                 |
|   \\  /    A nd           | Web:      www.OpenFOAM.org                      |
|    \\/     M anipulation  |                                                 |
\*---------------------------------------------------------------------------*/
FoamFile
{
    version     2.0;
    format      ascii;
    class       volScalarField;
    location    "0.29";
    object      k;
}
// * * * * * * * * * * * * * * * * * * * * * * * * * * * * * * * * * * * * * //

dimensions      [0 2 -2 0 0 0 0];

internalField   nonuniform List<scalar> 
9648
(
2.70878
2.70589
2.70398
2.69876
2.68978
2.67658
2.6597
2.6389
2.61405
2.58511
2.55221
2.51564
2.47591
2.43365
2.38956
2.34443
2.29899
2.25395
2.2099
2.16734
2.12668
2.08821
2.05213
2.01855
1.98752
1.95902
1.93298
1.90933
1.88797
1.86884
1.85188
1.83703
1.82424
1.81342
1.80445
1.79725
1.79167
1.78768
1.78516
1.78409
1.78447
1.78623
1.78936
1.79382
1.79957
1.80658
1.81491
1.82459
1.83567
1.84818
1.86217
1.87771
1.89482
1.91349
1.93368
1.95519
1.97766
2.00051
2.02327
2.0456
2.0672
1.73517
1.73198
1.72785
1.7244
1.72386
1.72859
1.74063
1.76046
1.78798
1.82319
1.86565
1.91462
1.96913
2.02814
2.09066
2.15571
2.22244
2.29009
2.35805
2.42584
2.49306
2.55942
2.62473
2.68886
2.7517
2.81322
2.87346
2.9324
2.99009
3.04664
3.10223
3.157
3.21108
3.26465
3.3177
3.37018
3.42219
3.47372
3.52484
3.57558
3.62603
3.67638
3.72655
3.77647
3.82623
3.87562
3.92464
3.9734
4.02198
4.07028
4.11811
4.16549
4.21246
4.25862
4.30421
4.34896
4.39308
4.43587
4.4776
4.5183
4.55806
1.44486
1.49143
1.54151
1.5979
1.66236
1.73533
1.81639
1.90531
2.00136
2.10385
2.21153
2.32344
2.4384
2.55526
2.67287
2.79022
2.90646
3.02082
3.13269
3.24162
3.34727
3.44944
3.54797
3.64285
3.73412
3.82188
3.90628
3.98741
4.06545
4.14063
4.21316
4.28333
4.35149
4.41774
4.48226
4.54519
4.60646
4.66638
4.72485
4.78206
4.83831
4.89344
4.94778
5.00119
5.05353
5.10493
5.15526
5.20469
5.25306
5.30038
5.34665
5.39189
5.43632
5.47924
5.52158
5.56231
5.60218
5.64012
5.67735
5.71344
5.74846
1.38445
1.47877
1.58008
1.68927
1.8068
1.93268
2.06628
2.20664
2.35248
2.50259
2.65543
2.80968
2.96394
3.1171
3.26795
3.4155
3.559
3.69781
3.8315
3.95976
4.08244
4.19936
4.31061
4.41632
4.51673
4.61209
4.7027
4.78883
4.87078
4.94878
5.02322
5.09447
5.16282
5.22882
5.29259
5.35437
5.41454
5.47275
5.52943
5.58458
5.63808
5.69065
5.74191
5.79218
5.84156
5.88986
5.93743
5.98411
6.02978
6.07443
6.11813
6.16057
6.20202
6.24231
6.28192
6.32031
6.35752
6.39352
6.4284
6.46219
6.4947
1.4353
1.57029
1.71518
1.86922
2.03181
2.20237
2.37976
2.56241
2.74876
2.93703
3.12547
3.31243
3.4966
3.67679
3.85189
4.02085
4.183
4.33799
4.48548
4.62546
4.75784
4.88262
5.00001
5.11024
5.2138
5.31116
5.4027
5.48891
5.57004
5.64652
5.71873
5.787
5.85213
5.91427
5.97391
6.03156
6.0869
6.14068
6.19239
6.24216
6.29083
6.33772
6.38363
6.42835
6.47165
6.51424
6.55588
6.59687
6.63714
6.67623
6.71429
6.75118
6.78685
6.82137
6.85492
6.88757
6.91903
6.94937
6.97851
7.00633
7.03286
1.5367
1.70765
1.89123
2.08532
2.28803
2.49806
2.71369
2.93301
3.15391
3.37417
3.5919
3.80511
4.01268
4.2133
4.40635
4.59056
4.76528
4.93058
5.08609
5.2322
5.36902
5.49642
5.61499
5.72485
5.82688
5.92171
6.00992
6.09208
6.16848
6.23951
6.30584
6.36795
6.42635
6.48189
6.53454
6.58446
6.63288
6.6784
6.72227
6.76477
6.80499
6.84498
6.88332
6.92014
6.95601
6.9902
7.02408
7.05722
7.08985
7.12171
7.15233
7.18177
7.21004
7.23704
7.26303
7.28799
7.31198
7.33492
7.35653
7.37658
7.39546
1.6679
1.87168
2.09063
2.32108
2.55974
2.80485
3.05404
3.30507
3.55568
3.80263
4.04447
4.27842
4.50385
4.71937
4.92553
5.11997
5.30236
5.47331
5.63209
5.77984
5.91694
6.04274
6.15867
6.2641
6.36067
6.44939
6.53057
6.60566
6.67398
6.73656
6.79431
6.84693
6.89632
6.94246
6.98519
7.02596
7.06382
7.09982
7.1336
7.16481
7.19599
7.22548
7.25449
7.28289
7.30839
7.33322
7.3568
7.37984
7.40296
7.42532
7.44678
7.46693
7.48593
7.50352
7.51982
7.53536
7.55007
7.56377
7.57593
7.58637
7.59562
1.81668
2.05034
2.30171
2.56515
2.83596
3.11153
3.38982
3.66835
3.94422
4.21342
4.47503
4.72478
4.96321
5.18818
5.40318
5.60376
5.7898
5.96301
6.12094
6.26615
6.40003
6.52032
6.63087
6.72826
6.81567
6.89473
6.96559
7.03069
7.08824
7.13955
7.18621
7.22697
7.26393
7.298
7.32875
7.35652
7.38346
7.40658
7.42753
7.44739
7.46409
7.48126
7.49834
7.51423
7.52902
7.54202
7.55342
7.56397
7.57461
7.58541
7.59516
7.6037
7.61132
7.61712
7.62163
7.6256
7.62839
7.63118
7.63187
7.63024
7.62802
1.97362
2.23157
2.51232
2.80259
3.10331
3.40398
3.70575
4.00963
4.30455
4.59339
4.86979
5.13384
5.38033
5.61017
5.82863
6.0322
6.21896
6.39136
6.54939
6.68885
6.81476
6.9271
7.02835
7.11828
7.19344
7.25882
7.31698
7.36957
7.41308
7.4511
7.48482
7.51248
7.5352
7.55383
7.56836
7.58241
7.59272
7.60084
7.6091
7.61235
7.61346
7.61291
7.61428
7.61616
7.61664
7.61786
7.61359
7.60937
7.60295
7.59799
7.59146
7.58447
7.57792
7.56935
7.55964
7.54985
7.53675
7.52805
7.51459
7.49747
7.48177
2.08784
2.10743
2.12614
2.14396
2.16095
2.17729
2.19324
2.20918
2.2246
2.23913
2.25247
2.26528
2.27763
2.2898
2.30205
2.31501
2.32906
2.34454
2.36176
2.38117
2.40241
2.42504
2.44875
2.47315
2.49793
2.52313
2.54885
2.57482
2.60098
2.62739
2.65416
2.68118
2.70846
2.73614
2.76418
2.79253
2.82132
2.85061
2.88035
2.91047
2.94108
2.97227
3.00401
3.03626
3.06915
3.10249
3.13631
3.17074
3.20583
3.24145
3.27763
3.31448
3.35208
3.39022
3.42923
3.46904
3.50994
3.55166
3.59454
3.63871
3.68426
4.59693
4.63374
4.66963
4.70469
4.73866
4.77111
4.80161
4.83085
4.85788
4.88416
4.90873
4.9323
4.95479
4.97626
4.99657
5.01561
5.03352
5.05025
5.06585
5.08029
5.09362
5.10588
5.11693
5.12685
5.13564
5.14324
5.14953
5.15427
5.15757
5.15941
5.15979
5.15874
5.15632
5.1525
5.14733
5.14087
5.13309
5.12409
5.11382
5.10232
5.08964
5.07582
5.06095
5.04497
5.02786
5.00957
4.98998
4.96916
4.94701
4.92359
4.89883
4.87268
4.84529
4.8162
4.78612
4.75447
4.72186
4.68784
4.65346
4.6186
4.58342
5.78184
5.81414
5.8449
5.87471
5.90349
5.93164
5.95782
5.98254
6.00514
6.02646
6.04621
6.06475
6.08191
6.09803
6.11283
6.12628
6.1384
6.14919
6.15861
6.16667
6.17343
6.17886
6.18297
6.18576
6.18723
6.18735
6.18616
6.1836
6.17963
6.1742
6.16734
6.15899
6.14916
6.13793
6.12526
6.1112
6.09573
6.07887
6.06063
6.04103
6.02017
5.99812
5.97493
5.95065
5.92523
5.89861
5.87065
5.8413
5.8105
5.77825
5.74452
5.70906
5.67197
5.6331
5.59266
5.55033
5.50636
5.461
5.41472
5.36764
5.31989
6.52616
6.55629
6.58514
6.61245
6.63856
6.6635
6.68698
6.70852
6.72852
6.74692
6.76378
6.77905
6.79277
6.80502
6.81569
6.82495
6.83273
6.83899
6.84372
6.84691
6.84863
6.84894
6.84785
6.84539
6.84151
6.83617
6.82936
6.82111
6.81145
6.80034
6.78772
6.77354
6.75781
6.74053
6.72179
6.70157
6.67983
6.65655
6.63173
6.60542
6.57776
6.54885
6.51887
6.4879
6.45598
6.42306
6.38893
6.35353
6.31679
6.27873
6.23919
6.19804
6.15526
6.11073
6.06439
6.01606
5.96592
5.91428
5.86162
5.80801
5.75388
7.05807
7.08206
7.10459
7.12552
7.14474
7.16237
7.17846
7.19303
7.20622
7.21802
7.22827
7.23703
7.2443
7.24999
7.25416
7.25692
7.2581
7.2577
7.25566
7.25198
7.24677
7.24015
7.23224
7.22305
7.21252
7.20057
7.18723
7.17255
7.15662
7.13944
7.12095
7.10097
7.07948
7.0565
7.03216
7.0064
6.97912
6.95028
6.91977
6.88768
6.85414
6.81931
6.78347
6.74686
6.70961
6.67176
6.63291
6.59309
6.55219
6.51036
6.46721
6.42254
6.37645
6.32866
6.27907
6.22721
6.17353
6.11814
6.06176
6.00436
5.94652
7.41298
7.42916
7.44374
7.45685
7.46821
7.47783
7.48585
7.49219
7.497
7.50027
7.50216
7.50265
7.50166
7.49912
7.49503
7.48958
7.48269
7.47418
7.46388
7.45174
7.43799
7.42287
7.40655
7.38917
7.37055
7.35056
7.32924
7.30667
7.28314
7.25878
7.23356
7.20705
7.17929
7.15016
7.11996
7.08851
7.05556
7.02113
6.98498
6.94712
6.9077
6.8668
6.82489
6.7824
6.73965
6.69695
6.65346
6.60961
6.565
6.52021
6.47443
6.42715
6.37887
6.32901
6.27763
6.22357
6.16775
6.10992
6.05158
5.992
5.93205
7.60362
7.61031
7.61543
7.61896
7.62074
7.62074
7.61895
7.61576
7.61096
7.60434
7.59636
7.58724
7.5767
7.56462
7.55087
7.53604
7.52017
7.50267
7.4832
7.46149
7.43797
7.41315
7.38721
7.36056
7.33291
7.30381
7.27337
7.24149
7.20899
7.17623
7.14365
7.11009
7.07593
7.0406
7.0049
6.96828
6.92994
6.89026
6.84895
6.80596
6.76122
6.71455
6.66664
6.61821
6.56975
6.52239
6.47411
6.42648
6.37832
6.33157
6.28443
6.23542
6.18606
6.13522
6.08358
6.02824
5.97168
5.91251
5.85403
5.79379
5.73361
7.62438
7.61979
7.61352
7.60607
7.59689
7.58627
7.57352
7.56041
7.54585
7.52867
7.51015
7.49114
7.47065
7.44871
7.42437
7.39923
7.37442
7.34831
7.32024
7.28883
7.25478
7.21995
7.18384
7.14718
7.11043
7.07216
7.03247
6.99011
6.94681
6.90395
6.8635
6.82232
6.78208
6.74101
6.70125
6.66151
6.61878
6.574
6.52839
6.48214
6.43365
6.38235
6.32935
6.27543
6.22126
6.17008
6.11672
6.06568
6.01381
5.96644
5.91996
5.8702
5.82096
5.77042
5.72038
5.66454
5.60877
5.54905
5.4926
5.43357
5.37559
7.46298
7.44478
7.42335
7.40287
7.3796
7.35857
7.33334
7.31072
7.28799
7.26252
7.23508
7.20799
7.17857
7.14903
7.11401
7.07658
7.04279
7.0102
6.97802
6.94094
6.89543
6.85239
6.80764
6.76039
6.71459
6.66852
6.62351
6.57248
6.51562
6.46002
6.41078
6.36062
6.31406
6.26756
6.22763
6.18979
6.1459
6.09559
6.04604
5.99952
5.95175
5.89834
5.84137
5.78405
5.72535
5.67222
5.61293
5.55881
5.50195
5.45664
5.41366
5.36366
5.31639
5.26849
5.22265
5.16684
5.1134
5.05337
5.00113
4.94549
4.89298
3.73119
3.77914
3.82838
3.87888
3.93066
3.98386
4.03837
4.09431
4.15139
4.2096
4.26922
4.32959
4.3911
4.45572
4.54037
4.61111
4.68332
4.75631
4.83008
4.90479
4.98046
5.05709
5.13458
5.21285
5.29169
5.37088
5.45028
5.52972
5.60899
5.68776
5.76593
5.84319
5.91912
5.99353
6.06604
6.1361
6.20325
6.26656
6.3215
6.36162
6.38876
6.40351
6.40581
6.39496
6.36992
6.32923
6.271
6.19288
6.09214
5.96558
5.8094
5.6191
5.38965
5.11456
4.7688
4.22553
3.97548
3.84805
3.79779
3.77366
3.72198
4.54763
4.51154
4.47471
4.43722
4.39906
4.3609
4.32249
4.28455
4.24652
4.20886
4.17261
4.12923
4.08433
4.04252
3.99397
3.94929
3.90389
3.85834
3.81312
3.76847
3.72437
3.68056
3.63697
3.59357
3.55029
3.50717
3.46421
3.42154
3.37917
3.33719
3.2957
3.25484
3.21473
3.1756
3.13771
3.10135
3.06696
3.0351
3.0065
2.98246
2.96058
2.94106
2.9243
2.91086
2.90167
2.89763
2.89978
2.90944
2.92806
2.9569
2.99721
3.0501
3.11684
3.19927
3.28823
3.42321
3.6003
3.87314
4.25958
4.75784
5.07697
5.27169
5.22304
5.17366
5.12321
5.07163
5.01943
4.96689
4.91443
4.86156
4.80843
4.75039
4.6852
4.62241
4.56252
4.50274
4.44411
4.38443
4.32385
4.26285
4.20185
4.14089
4.07974
4.01835
3.95672
3.89476
3.8325
3.76992
3.70703
3.6438
3.58023
3.51629
3.45202
3.38744
3.32261
3.25758
3.19247
3.12737
3.0624
2.99772
2.93354
2.8698
2.80617
2.74327
2.68183
2.62219
2.56495
2.51098
2.46152
2.41824
2.38332
2.35955
2.35053
2.361
2.39633
2.45968
2.56221
2.70827
2.92869
3.26834
3.77799
4.39364
5.69939
5.64491
5.58984
5.53378
5.47631
5.41818
5.35972
5.30152
5.24282
5.18322
5.11492
5.04248
4.97396
4.90847
4.84432
4.78114
4.71732
4.65302
4.58844
4.52397
4.45951
4.39464
4.3295
4.26416
4.19849
4.13256
4.06634
3.99983
3.9329
3.86554
3.79772
3.72946
3.66079
3.59175
3.5224
3.45282
3.38306
3.31319
3.2432
3.17311
3.10289
3.03247
2.96113
2.88896
2.81654
2.74398
2.67153
2.59963
2.52899
2.46068
2.39616
2.33761
2.28798
2.25102
2.23053
2.23272
2.26598
2.34812
2.50882
2.79133
3.22146
5.88828
5.83049
5.77235
5.71337
5.65249
5.5909
5.5289
5.46752
5.40551
5.34227
5.26924
5.19421
5.12351
5.05607
4.98997
4.92476
4.85917
4.79388
4.72876
4.6641
4.59953
4.53428
4.46884
4.40332
4.33747
4.27147
4.2052
4.13865
4.07161
4.0041
3.93607
3.86763
3.79883
3.72979
3.66056
3.59128
3.52199
3.45278
3.38363
3.31457
3.24559
3.17671
3.10779
3.03824
2.96792
2.89695
2.8254
2.75333
2.68091
2.60847
2.53641
2.46536
2.39627
2.33038
2.26929
2.21602
2.17669
2.16215
2.18932
2.2835
2.47456
5.87134
5.81184
5.75232
5.69223
5.62929
5.56563
5.50119
5.43812
5.37455
5.31017
5.23569
5.16094
5.09043
5.02372
4.95771
4.89254
4.8269
4.76262
4.699
4.63635
4.57388
4.5102
4.44666
4.38341
4.31977
4.25615
4.19215
4.12795
4.06303
3.9976
3.93154
3.86523
3.79866
3.73212
3.66559
3.59927
3.53321
3.46752
3.40217
3.33726
3.27276
3.20877
3.14525
3.08208
3.01876
2.95483
2.89033
2.82532
2.75985
2.694
2.62788
2.56151
2.49488
2.428
2.36072
2.2937
2.22941
2.17326
2.13423
2.12591
2.16718
5.67131
5.6115
5.55208
5.49296
5.42898
5.36453
5.29848
5.23536
5.17202
5.10918
5.0352
4.96274
4.8941
4.8305
4.76633
4.70328
4.63898
4.57761
4.51715
4.4582
4.39948
4.33849
4.27856
4.21981
4.1603
4.10104
4.04097
3.98095
3.91965
3.85787
3.79523
3.7328
3.6703
3.60834
3.54652
3.48534
3.4246
3.36465
3.30534
3.24695
3.18933
3.13273
3.07707
3.02233
2.96828
2.91445
2.86015
2.80542
2.75038
2.69518
2.63987
2.58443
2.52868
2.47216
2.41425
2.35435
2.29262
2.23079
2.17272
2.1249
2.09737
5.31243
5.25332
5.19556
5.14001
5.07629
5.01268
4.94579
4.88455
4.82345
4.76494
4.69277
4.62393
4.55811
4.49973
4.43848
4.37947
4.31749
4.26073
4.20476
4.15047
4.09653
4.03844
3.9833
3.93154
3.87766
3.82391
3.76844
3.71391
3.65674
3.59935
3.54061
3.48348
3.42631
3.37073
3.31509
3.26072
3.20658
3.15393
3.10226
3.05232
3.00342
2.95621
2.91047
2.86589
2.82238
2.78003
2.7374
2.69432
2.65124
2.60839
2.56605
2.52418
2.48261
2.44082
2.39807
2.35343
2.30616
2.25612
2.20424
2.1529
2.10652
4.82998
4.77126
4.71722
4.66811
4.60623
4.54495
4.47769
4.42096
4.3646
4.31289
4.2437
4.17893
4.11575
4.0646
4.00643
3.95346
3.89414
3.84383
3.79322
3.74304
3.69399
3.63791
3.58864
3.54795
3.50013
3.45076
3.39912
3.35119
3.29703
3.24365
3.18774
3.13772
3.08641
3.03891
2.98981
2.94321
2.89498
2.85035
2.80726
2.76736
2.72853
2.6919
2.6573
2.62391
2.5906
2.55803
2.52592
2.49311
2.46185
2.43105
2.4031
2.37625
2.35118
2.32629
2.3014
2.27515
2.2469
2.21568
2.18148
2.14399
2.10473
3.62996
3.52751
3.41663
3.29882
3.17961
3.06217
2.94904
2.84353
2.7485
2.66578
2.59609
2.53936
2.49468
2.46067
2.43569
2.41805
2.40614
2.39876
2.3949
2.39377
2.39476
2.39746
2.40158
2.40696
2.41351
2.42112
2.42975
2.43935
2.44991
2.46137
2.47365
2.48669
2.50036
2.51451
2.52895
2.54349
2.5579
2.5719
2.58526
2.59773
2.60904
2.61896
2.62738
2.63422
2.63948
2.64334
2.64603
2.64786
2.64922
2.65062
2.65244
2.655
2.65849
2.6631
2.66868
2.67504
2.68183
2.6888
2.69545
2.70119
2.70562
5.06717
4.9914
4.8667
4.69187
4.49892
4.29026
4.06424
3.82771
3.58879
3.35496
3.13183
2.92512
2.73789
2.57087
2.42444
2.29988
2.19656
2.1119
2.0433
1.9885
1.94529
1.91158
1.88565
1.86614
1.85197
1.84234
1.83667
1.83458
1.83573
1.83985
1.8467
1.85602
1.86753
1.88087
1.89567
1.91148
1.92783
1.94426
1.96017
1.97491
1.98775
1.9978
2.00411
2.00569
2.00173
1.99156
1.97479
1.95166
1.92301
1.89048
1.85622
1.82275
1.79264
1.76791
1.74965
1.73827
1.73291
1.73217
1.73368
1.73524
1.73569
4.89428
5.248
5.44007
5.44509
5.30964
5.11279
4.85666
4.56487
4.25434
3.93642
3.6225
3.32338
3.04586
2.79446
2.57192
2.37934
2.21497
2.07453
1.95608
1.85892
1.78095
1.71961
1.67212
1.63586
1.60856
1.58849
1.57439
1.56531
1.56049
1.55931
1.56129
1.56594
1.57273
1.58109
1.59046
1.60029
1.61001
1.61903
1.62674
1.63248
1.63558
1.63544
1.63147
1.62305
1.60967
1.5909
1.56647
1.53637
1.50103
1.46143
1.41938
1.37757
1.33936
1.30825
1.28715
1.27829
1.28229
1.29858
1.32524
1.36003
1.40065
3.7577
4.34662
4.90798
5.33781
5.55448
5.59374
5.4714
5.2252
4.91525
4.56198
4.19207
3.82884
3.48399
3.16793
2.88514
2.63525
2.41519
2.22362
2.05926
1.92147
1.8086
1.71865
1.64869
1.59527
1.55505
1.52538
1.50426
1.4902
1.48193
1.47844
1.47899
1.48292
1.48948
1.49787
1.50729
1.517
1.52624
1.53424
1.54023
1.5434
1.54296
1.5382
1.52846
1.51319
1.49198
1.46464
1.4312
1.392
1.34759
1.29895
1.24764
1.19613
1.14784
1.10717
1.07906
1.06817
1.07711
1.10648
1.1548
1.21948
1.29714
2.78204
3.2151
3.75824
4.35178
4.89623
5.31337
5.55258
5.58948
5.46019
5.19396
4.84
4.45673
4.06405
3.68712
3.34044
3.02639
2.74613
2.49759
2.28167
2.09845
1.94622
1.82352
1.7273
1.65331
1.59718
1.5552
1.52472
1.50373
1.4905
1.48354
1.48186
1.48469
1.49111
1.50013
1.51077
1.52212
1.53326
1.54329
1.55126
1.55623
1.55725
1.55348
1.54412
1.52854
1.50616
1.47677
1.44039
1.39735
1.34814
1.29371
1.23547
1.17567
1.11767
1.06622
1.02791
1.00952
1.01627
1.05153
1.11514
1.20362
1.31186
2.27988
2.48751
2.80885
3.24683
3.77282
4.33089
4.84486
5.23315
5.44777
5.47644
5.33377
5.06403
4.70165
4.30325
3.91197
3.53691
3.19407
2.88424
2.60568
2.36414
2.16189
1.9982
1.86953
1.77009
1.69398
1.63609
1.59308
1.56247
1.54201
1.52959
1.52396
1.52419
1.52927
1.53798
1.54918
1.5618
1.57477
1.58706
1.59761
1.60534
1.60915
1.60814
1.60138
1.58814
1.56764
1.53962
1.50396
1.46098
1.41099
1.35485
1.29378
1.22992
1.16644
1.10798
1.06144
1.03478
1.03566
1.07076
1.14257
1.24827
1.38177
2.10398
2.16258
2.29377
2.51721
2.84409
3.27004
3.76677
4.27994
4.74143
5.0857
5.26742
5.27693
5.13303
4.86881
4.52929
4.14048
3.75536
3.38855
3.03791
2.72481
2.45747
2.2397
2.06868
1.93594
1.83317
1.75362
1.69325
1.64911
1.61838
1.59791
1.58603
1.58164
1.58361
1.59047
1.60089
1.61362
1.62744
1.64119
1.65367
1.66369
1.67003
1.67177
1.66787
1.65754
1.63977
1.61429
1.58085
1.53978
1.4912
1.43596
1.37517
1.31088
1.24607
1.18507
1.13458
1.10282
1.09896
1.13265
1.20969
1.32918
1.48465
2.0722
2.06021
2.08437
2.16151
2.30922
2.54192
2.86542
3.26913
3.724
4.18062
4.57935
4.86832
5.01913
5.02106
4.88955
4.64813
4.33335
3.97325
3.57142
3.18807
2.84204
2.55523
2.33039
2.15485
2.01746
1.90914
1.82488
1.76162
1.71659
1.68475
1.66388
1.65238
1.64915
1.65233
1.66037
1.67179
1.6852
1.69927
1.71267
1.72405
1.73217
1.73609
1.7347
1.72722
1.71235
1.68983
1.65929
1.62103
1.57507
1.52224
1.46358
1.40106
1.33739
1.27693
1.22583
1.1923
1.18619
1.21959
1.30124
1.43278
1.60779
2.06653
2.03407
2.0152
2.02013
2.06199
2.15548
2.31468
2.54898
2.85797
3.2294
3.62879
4.01984
4.35956
4.61285
4.74982
4.7616
4.65002
4.42195
4.11364
3.72638
3.30942
2.95249
2.66966
2.44414
2.26062
2.11267
1.99485
1.90586
1.84121
1.79333
1.75997
1.73804
1.72682
1.72413
1.7279
1.73634
1.74796
1.76105
1.77424
1.78572
1.79479
1.79999
1.80065
1.79561
1.78369
1.76415
1.73716
1.70201
1.65957
1.6099
1.55477
1.49554
1.43497
1.37744
1.32813
1.29523
1.28922
1.32404
1.40972
1.55158
1.74188
0.272245
6.50976
6.19517
0.227482
0.328631
0.124734
0.00317665
2.63179
0.00336242
0.023208
3.45575
1.0682
0.00317681
6.12196
0.10918
5.42375
0.0032561
2.75046
3.75436
0.00319082
0.227857
5.96326
6.29084
0.00330548
0.00331863
0.105248
0.00318883
0.522019
0.00324266
0.0034588
0.64484
0.00342083
0.0162432
2.63938
0.780646
3.52858
2.66887
1.5639
0.00317147
2.53823
1.88933
1.96153
0.0032057
4.69636
3.30021
0.278808
0.00364492
0.014947
0.191325
1.09216
6.65585
7.75765
0.00315206
0.00408527
0.0383954
0.0364607
0.00344839
0.688045
2.54615
7.42171
2.57304
0.00366868
0.153709
0.0317196
6.47314
0.218773
2.11447
1.87949
0.00433096
0.00321209
1.13973
2.5424
1.71837
0.00921895
0.03997
4.19918
6.80629
3.24674
0.00313868
0.92851
0.00705244
2.53628
0.011356
4.79542
0.00321713
1.06597
0.00334657
2.31121
0.0152031
0.00489319
0.117742
0.00313494
0.00377009
7.59652
5.47043
0.00358488
0.43486
0.269789
0.00602585
6.60554
0.0916268
2.36553
0.741737
0.00313216
0.00316943
0.00314914
0.304838
0.124302
0.00324611
6.11176
6.80014
0.00950722
4.69998
1.57908
2.75602
2.84807
1.90545
0.00391502
0.0847811
0.00418867
0.00410222
3.55526
0.00695454
7.39281
7.70281
1.05758
0.00321079
1.01334
1.01967
0.00320675
0.0340528
0.0332804
1.73932
0.00557208
3.17795
0.00321537
0.00316578
7.67553
7.80093
0.00322174
0.145781
5.62735
0.104861
0.300544
1.63489
4.80975
0.0519942
1.73169
0.0119612
7.04576
1.30539
0.0304516
2.79248
4.73319
6.3092
0.00330834
0.00326047
0.215198
0.003392
2.08582
0.033012
0.00509306
0.00320881
0.00321432
0.00323659
2.80907
1.89978
1.57067
0.00336798
6.79486
4.86319
3.18681
5.02553
0.0140009
3.85662
1.78402
2.01178
0.00323154
0.00560579
2.9694
3.19501
2.00768
3.68204
0.00320791
0.00351811
5.01911
0.0358834
0.562511
0.00323522
0.00364566
0.103996
0.00339981
7.73585
0.672902
0.00339907
0.253249
1.85933
5.288
0.0044961
2.05917
0.00321061
0.00322579
4.92275
2.38476
7.26306
0.00454004
0.00337992
0.00773536
2.71004
2.32981
1.08241
4.92506
1.42922
6.92201
0.190268
4.3105
4.08355
1.88768
1.34997
2.41964
0.0048425
0.0366142
0.00321787
0.0033957
1.94318
0.0180588
0.0200092
0.0055335
0.0131414
2.74936
4.80994
0.0188234
5.86475
1.06596
0.32063
0.00318305
0.152358
2.75495
1.02154
0.00415029
1.066
1.22641
0.181812
0.346732
7.28182
0.784049
0.489497
5.15061
0.00383894
0.00317383
0.00400073
0.0105015
1.85548
0.00336379
0.00625414
0.00316966
0.383627
3.99874
4.12175
2.86455
1.36728
1.42188
7.62275
0.0043518
2.21501
4.56083
0.0032062
2.10799
0.0032165
4.07051
0.381958
1.66003
0.0052691
0.00321545
1.87426
0.514636
0.00323889
0.00322753
0.00324217
0.00324479
0.356833
1.60956
2.96836
0.0151085
0.00324058
0.00316783
0.00313281
4.72726
0.206588
0.00442508
1.6253
0.0872036
0.0424855
0.00314406
0.262604
0.00323974
0.0458807
1.46381
4.79532
0.416103
0.00395386
0.00595767
3.23497
0.136013
1.9704
7.57669
0.00348788
0.00319568
0.00318663
5.81469
0.00329855
4.87092
0.003218
1.84733
1.36889
0.0272454
3.06989
4.01597
0.004634
2.84812
2.62433
1.65088
4.7714
0.840666
7.80134
2.56895
3.89102
3.73035
4.49348
1.70941
0.156517
7.72187
7.34958
3.13008
2.23211
0.00401863
6.95122
2.88447
6.86836
0.027302
0.00356224
0.00321034
0.00340586
0.176154
0.417796
0.64369
0.0915656
0.00318113
6.03927
0.0032115
1.52698
1.91329
6.39506
2.46459
1.81371
0.00592508
0.00424229
0.0917803
2.95273
0.0102671
0.738956
5.31261
2.18527
4.1343
6.15739
3.22822
0.00345825
7.36004
5.44739
1.74346
0.00322757
6.34758
5.68544
0.00331834
2.07032
0.00323076
6.84365
5.63669
1.96787
4.16682
2.65364
5.66617
0.00329746
5.66532
0.00383141
3.76285
3.99008
2.02338
7.33542
0.710977
0.211717
0.546163
0.00423213
4.32524
0.152344
0.00805785
0.00530759
4.5848
0.00379966
4.35303
0.00320341
0.00322918
0.00599461
1.80898
0.102969
1.81853
0.00553202
4.22895
0.161574
6.65271
4.45094
2.62578
6.30213
0.00339659
7.34227
2.88289
0.00320418
3.9176
2.03596
0.00314842
0.00317175
3.5009
0.00648445
1.81612
0.0913365
2.50746
0.0264589
0.594967
2.62937
4.83685
2.39216
3.85136
3.67312
0.00402441
0.02253
1.80652
1.60161
7.58668
6.53765
5.28111
0.0646582
5.10546
5.08041
0.49748
1.75768
2.82934
2.05053
0.00352723
4.12031
7.81765
0.00412909
4.48769
1.86307
2.85455
0.0238699
0.0668322
6.28144
0.00593467
7.57792
0.00459911
0.261334
0.00320405
0.984154
2.33943
0.228998
0.0047828
0.0037199
2.85123
1.68536
0.0399745
0.421465
5.97599
4.10537
0.0046407
1.43269
1.7321
3.38739
1.57326
4.22386
2.0695
5.43971
3.22285
0.591927
0.905813
7.47556
1.92088
7.67668
6.08234
0.0465598
3.52133
2.99007
0.00338943
1.85015
1.67959
1.44104
0.0174476
4.90935
1.45806
0.685851
1.92387
0.00543739
0.00321244
0.0198746
2.15906
4.4657
2.72434
0.00321905
0.00319448
0.0032081
1.80592
0.0281395
0.00321084
0.122466
4.47189
5.08074
0.0104828
0.010695
0.00316868
0.0032045
0.00595857
1.75233
1.74548
1.57341
0.454734
7.53527
5.92364
0.00525473
3.21729
1.95202
2.04904
4.00843
7.43695
0.00346615
0.0104247
0.00322923
3.89247
0.239726
0.00317142
1.35383
0.160977
7.48815
0.00323843
7.69556
1.12848
0.0453855
6.53922
0.00322332
0.00318782
0.00407353
7.75443
3.23414
5.28483
5.09461
0.91804
1.8849
0.00314294
0.00599832
0.0917396
0.0108466
0.024884
1.97657
2.28235
0.00321853
1.28117
1.96508
6.23521
7.74733
0.00810154
7.71301
0.00590793
0.0298558
3.73293
0.00319412
5.61459
0.00323959
0.00335368
0.0227215
2.22992
0.620648
2.57373
1.8891
0.00367372
1.87043
4.64709
0.0256943
0.223194
0.944346
0.00330265
0.00325693
0.00689235
5.39188
0.537908
0.00337468
7.29693
6.05905
6.71835
0.0156879
2.16404
0.00422263
2.37387
0.153642
0.090417
2.7608
1.79169
1.91643
6.12148
0.00328205
0.00314683
0.0102777
4.2231
4.53768
0.961226
0.0137695
0.00334445
0.00323025
0.00878427
0.13669
0.00655505
2.30588
1.86023
0.0115784
1.63594
6.04486
0.00326616
2.50327
0.00321653
0.51494
0.00324489
0.0219506
2.3009
0.0199048
0.00320527
0.755764
7.83889
7.11257
0.00319586
0.00327125
0.385081
0.138648
0.00321339
4.26519
0.00368425
1.80081
7.82699
2.35406
1.72549
2.46419
3.80589
7.60093
0.00322065
0.00740611
0.0151842
4.28711
1.45113
6.44845
0.491657
0.369924
4.36257
3.77035
5.02827
0.468034
2.64563
0.00321921
0.352501
1.7672
2.50097
3.99162
1.86516
0.203264
2.51003
0.102423
0.00995702
1.83833
0.00323037
5.74349
0.00368026
0.380087
7.42293
2.7894
0.556018
0.00733778
0.761059
0.00328889
0.00319013
0.104798
0.0223434
1.90989
0.0150876
1.84252
0.00321937
0.0276469
0.0031694
4.50672
0.00528374
4.19803
2.53034
0.0217208
1.93182
7.56576
0.00324807
1.72045
4.55851
0.00336896
7.39014
0.0639192
0.00352375
0.00341352
7.24726
0.00317896
0.00428645
0.086187
0.100897
7.16615
7.26828
0.00322061
0.00327089
0.873214
2.28079
0.0145098
0.332302
2.00166
0.00321392
0.00380577
0.00376239
6.04131
7.28306
0.493271
7.17598
0.0259244
1.67208
0.00334298
0.0145745
0.024708
0.0366292
0.00322377
6.89623
0.00319965
0.0247201
0.00332375
0.116738
0.0222491
0.00872878
0.426381
0.678894
2.39541
0.384375
1.06156
1.94018
5.22795
0.00342687
4.99065
7.67291
1.12999
3.99673
0.00327923
4.4154
3.86788
0.00320931
7.46033
2.45115
0.00685051
0.00791519
5.87846
5.68516
0.0356775
7.58243
7.39108
0.789023
7.35124
7.23169
4.92415
2.0622
1.58278
1.08431
7.24238
7.47466
0.0217215
7.40239
2.52368
4.39053
0.00342879
0.337632
0.306871
6.80821
5.89659
0.0199329
4.30096
6.42512
0.483879
0.0346633
0.383545
1.93467
0.00530097
1.97077
6.98087
0.0337026
6.7626
1.32828
4.44021
6.35953
0.00321723
0.00563994
1.0442
0.700711
0.0185539
0.0032151
0.191876
0.262056
0.00447523
0.00323646
4.31027
0.981838
3.05105
1.01212
0.00850451
0.00416168
0.0523593
3.50226
0.00344075
1.8418
1.75559
0.473199
2.34689
0.00394066
0.118643
0.00319937
0.574115
4.31119
0.00407095
0.117285
2.24171
5.71693
0.22304
3.9766
0.595281
0.121758
0.00391249
2.3629
7.72453
0.00320739
0.00328724
5.65823
0.0241418
0.00323559
3.80123
0.30892
1.9339
2.12174
1.47444
0.143543
1.71175
3.5711
5.75091
4.5076
0.00326643
5.70075
0.0039189
2.43317
0.00343243
0.00439227
2.24935
0.00656304
3.93525
0.0206149
0.0394322
1.84863
0.725607
0.0797677
0.0036487
6.25651
0.00361879
0.00316123
7.78142
5.87078
2.79934
2.02533
0.00342029
0.00315976
1.85228
5.65002
0.00319717
6.57841
1.68704
0.00323483
5.98547
0.00315133
0.359823
0.905694
1.34595
0.352128
1.5931
1.99071
0.00315149
7.27395
7.43708
0.00320844
0.0171897
2.04548
0.00315288
6.97571
5.49261
4.43567
0.00321084
0.00317254
3.61824
0.0426109
0.00349751
1.83472
1.71776
4.26655
0.0031617
0.00338534
0.0240487
0.0193874
0.00321173
0.00641952
5.18328
2.99772
0.0032172
1.31311
0.00321207
0.713746
0.0042236
0.00356307
2.23784
0.00327551
0.114403
0.00317691
2.91148
0.205322
1.68802
6.26358
4.42055
3.82363
0.808791
1.38694
0.00323546
0.92167
7.32886
4.09918
0.106092
0.00344766
5.2608
0.0032108
0.0328993
0.00316284
7.2026
0.78622
0.371089
6.40115
2.21796
0.487645
4.14226
0.719046
6.78548
4.51528
0.00329704
0.00329041
0.00815495
0.00333211
0.0226869
4.34228
0.00378629
7.07944
0.00600667
0.0544401
0.575599
4.83459
0.00489314
2.7127
0.0173316
3.01977
2.39903
6.99466
0.00343353
0.00385368
0.129492
3.64949
1.80382
3.65554
0.414589
1.0076
1.59784
0.0506214
0.96465
0.390924
1.80958
0.00328674
4.36705
0.410808
3.10768
0.00336077
3.01818
0.987298
0.0042956
1.6436
1.77611
0.0644311
0.00316688
0.00321175
5.01024
2.78674
1.53648
0.0032042
0.0174617
2.13036
6.3073
0.552931
0.0125269
0.00322509
5.50969
5.26197
2.21185
2.61912
0.00320606
3.65943
7.46128
0.00321038
0.00321643
1.24416
0.00400481
0.00972421
0.0450496
1.94443
0.00412231
2.33778
7.6623
0.00323222
0.00347083
0.00317525
0.00329803
3.72241
4.66455
7.74887
0.0286872
2.35581
2.33676
0.0866155
2.89076
0.00352507
1.81576
0.219751
2.18542
0.686319
1.65211
3.25805
0.13379
0.00323839
5.88608
4.60302
4.75418
0.897649
1.85301
0.174505
1.50754
0.00919626
0.00479561
3.5762
5.53621
0.0224898
0.18331
0.00323804
0.0774236
1.88046
0.0281717
1.03765
0.414425
3.84562
2.24207
0.433519
6.83611
5.44231
3.06852
1.62361
4.34601
3.62079
0.560584
2.63602
0.00537115
2.77716
2.91855
0.00320287
0.00315437
0.114416
0.00322024
0.00334328
3.13154
4.44543
0.00321625
3.3669
0.00320833
0.00319066
0.00321203
0.00327546
0.00589028
2.02764
2.65577
7.09296
0.00317603
0.0038815
0.949882
0.00353565
0.0329122
0.00324579
0.00364712
4.52564
0.00387996
0.0109318
2.87698
0.0103721
0.00321717
4.08127
0.00321035
0.0032581
0.561382
0.00359633
0.853497
0.00459827
0.0296853
0.00320346
0.00325482
7.5046
7.645
2.68931
0.0269424
3.10648
1.54847
0.00475456
1.85841
4.21548
6.92312
4.60574
0.00325815
1.8312
2.54356
0.144986
1.85068
4.54101
0.172047
2.1496
0.475316
1.83324
0.0515503
1.01058
0.00323472
6.73223
0.0033802
1.91884
2.45424
0.00321346
0.311013
0.00721339
0.0148257
0.00318383
0.759228
0.00363804
0.00322539
2.64063
0.0499665
0.108836
6.86877
1.91649
0.00347282
0.00388798
2.37909
7.18824
0.00319977
0.0032392
0.0736196
1.36596
5.54527
0.00656915
1.63068
0.00321293
0.00342471
0.00315898
0.0346403
1.0002
0.0101198
6.56308
1.88846
7.18328
6.05081
0.0035003
7.32096
3.71326
0.00318131
0.00322613
0.00321817
0.00442162
0.00319953
3.93827
0.00320703
0.00323037
6.79468
0.32046
0.00765558
0.0169353
2.09958
0.914232
0.00893505
0.00344268
6.30248
0.00324551
0.884294
0.00326639
0.00350267
5.91139
5.78993
0.00865037
0.00354294
0.43358
0.00320501
6.8462
0.00325867
5.57546
0.0232118
0.730993
0.0159926
0.373242
0.563347
1.51327
0.00324251
0.00354344
0.0114252
3.21419
0.114795
7.48835
0.00321381
0.00460867
0.00554358
7.15724
2.79487
3.11982
0.00690891
0.00901525
0.211649
0.00322124
1.29643
2.46141
0.0168515
6.01189
6.16048
1.96786
0.00528976
0.38439
2.93931
6.82519
1.91312
0.0187258
3.25657
0.0801368
5.23052
0.0903736
0.51612
2.57796
0.00324369
1.86424
0.00457262
0.0116571
0.0067727
0.049199
0.00367568
1.27269
0.00322336
3.07671
0.0947551
0.00364148
0.411393
0.00323207
0.279679
0.115505
2.43698
0.465562
4.79305
0.237965
0.00321498
0.00318683
0.455937
0.0895942
2.83174
7.19709
0.00322159
4.08618
2.66786
0.0228966
2.02038
0.595109
2.46475
2.25851
0.0348314
0.00585249
7.19201
1.54169