/*--------------------------------*- C++ -*----------------------------------*\
| =========                 |                                                 |
| \\      /  F ield         | OpenFOAM: The Open Source CFD Toolbox           |
|  \\    /   O peration     | Version:  2.3.1                                 |
|   \\  /    A nd           | Web:      www.OpenFOAM.org                      |
|    \\/     M anipulation  |                                                 |
\*---------------------------------------------------------------------------*/
FoamFile
{
    version     2.0;
    format      ascii;
    class       volVectorField;
    location    "220";
    object      D;
}
// * * * * * * * * * * * * * * * * * * * * * * * * * * * * * * * * * * * * * //

dimensions      [0 1 0 0 0 0 0];

internalField   nonuniform List<vector> 
11800
(
(1.05413e-06 3.67845e-05 0)
(-1.47549e-06 4.05062e-05 0)
(8.11555e-07 1.48796e-05 0)
(-9.87407e-07 1.90743e-05 0)
(-1.35318e-06 4.04447e-05 0)
(-6.58522e-07 1.91047e-05 0)
(-2.68089e-07 2.86843e-05 0)
(-2.62188e-07 2.30838e-05 0)
(1.10727e-07 4.91441e-06 0)
(1.34168e-07 1.53256e-05 0)
(1.17749e-06 3.67074e-05 0)
(-1.24712e-06 1.67611e-05 0)
(-2.18821e-09 -1.74155e-09 0)
(7.16652e-07 1.48079e-05 0)
(-8.81404e-07 1.91395e-05 0)
(1.18881e-06 3.19202e-06 0)
(-1.74476e-07 2.86134e-05 0)
(-1.73787e-07 2.30159e-05 0)
(5.12638e-08 4.96164e-06 0)
(6.31632e-08 1.52648e-05 0)
(-7.65628e-07 1.90476e-05 0)
(-1.14644e-06 1.68153e-05 0)
(-3.02456e-07 1.25882e-06 0)
(-3.21441e-07 1.30605e-06 0)
(1.03317e-06 3.59453e-06 0)
(-4.61193e-07 1.98946e-06 0)
(-1.34609e-06 1.10499e-05 0)
(1.53459e-06 2.61554e-05 0)
(-1.27341e-06 8.80686e-06 0)
(-1.17878e-06 6.67723e-06 0)
(1.61961e-06 3.19253e-05 0)
(3.08398e-09 1.00222e-06 0)
(5.51279e-07 2.48946e-06 0)
(-9.20985e-07 4.14629e-05 0)
(6.35356e-07 4.12928e-05 0)
(-1.9726e-06 3.38024e-05 0)
(5.87608e-07 4.14213e-05 0)
(5.40148e-07 2.55208e-06 0)
(-2.62889e-07 3.00527e-05 0)
(1.309e-07 1.65247e-05 0)
(-1.321e-06 1.11509e-05 0)
(-1.25044e-06 8.90313e-06 0)
(1.49801e-06 2.60306e-05 0)
(-1.15839e-06 6.76817e-06 0)
(1.582e-06 3.17941e-05 0)
(1.1304e-06 3.21599e-06 0)
(3.19627e-07 1.46665e-06 0)
(3.58501e-07 1.44486e-06 0)
(-3.81618e-07 3.00746e-05 0)
(2.33258e-07 1.65433e-05 0)
(-1.90195e-06 2.3333e-05 0)
(-2.00306e-06 2.89336e-05 0)
(-2.42894e-07 3.64351e-05 0)
(8.33748e-09 9.55214e-07 0)
(-1.46899e-06 3.7237e-06 0)
(2.40176e-07 2.39825e-07 0)
(-2.4691e-06 4.1977e-05 0)
(-7.17278e-07 1.44319e-05 0)
(6.57565e-07 1.95606e-05 0)
(-5.38369e-07 1.39751e-05 0)
(4.56844e-07 7.26611e-07 0)
(-3.71747e-07 3.64592e-05 0)
(-6.30687e-07 1.4406e-05 0)
(5.66148e-07 1.95901e-05 0)
(9.6815e-07 3.54737e-06 0)
(-2.34924e-06 3.75861e-05 0)
(-1.972e-06 2.32492e-05 0)
(-2.08367e-06 2.88425e-05 0)
(-2.3473e-06 4.19157e-05 0)
(-4.82024e-07 2.04733e-06 0)
(-8.28023e-07 4.15678e-05 0)
(-1.4148e-06 4.13646e-05 0)
(-1.45417e-06 4.12319e-05 0)
(-2.45777e-08 3.3986e-08 0)
(4.87753e-07 7.54988e-07 0)
(-1.86155e-06 3.38845e-05 0)
(1.20561e-06 4.76596e-06 0)
(-2.38674e-06 3.77111e-05 0)
(-1.91202e-06 3.79939e-05 0)
(-1.79062e-06 3.81066e-05 0)
(-1.40256e-06 3.6803e-06 0)
(9.25451e-08 1.70335e-05 0)
(1.21328e-06 4.10709e-05 0)
(1.07628e-06 4.10938e-05 0)
(-2.27933e-07 1.7414e-05 0)
(-1.10848e-06 7.38361e-06 0)
(1.45827e-06 3.09235e-05 0)
(-1.18787e-06 9.5542e-06 0)
(-1.25024e-06 1.18324e-05 0)
(1.37936e-06 2.52037e-05 0)
(-1.05659e-07 3.57387e-05 0)
(5.91433e-07 2.37858e-06 0)
(-1.21204e-06 3.82106e-05 0)
(2.32617e-06 4.22662e-05 0)
(3.31837e-07 2.06358e-05 0)
(-5.83924e-10 -4.44183e-10 0)
(1.48533e-11 -9.23353e-11 0)
(5.72263e-10 -4.35551e-10 0)
(-8.85497e-08 3.68315e-05 0)
(-1.18269e-06 1.70596e-05 0)
(1.99118e-06 4.2129e-05 0)
(1.24268e-06 1.84057e-05 0)
(-7.21505e-07 3.33313e-06 0)
(-1.79763e-07 2.65341e-06 0)
(-1.28421e-07 4.02831e-05 0)
(1.52659e-07 5.10909e-06 0)
(-3.21101e-07 2.28063e-05 0)
(-3.25634e-07 2.83806e-05 0)
(6.77113e-07 1.37205e-06 0)
(1.11785e-06 9.54785e-06 0)
(1.0526e-06 7.37739e-06 0)
(1.16938e-06 1.18248e-05 0)
(-1.59561e-06 3.09283e-05 0)
(-1.51548e-06 2.52085e-05 0)
(1.89882e-07 1.50747e-05 0)
(5.357e-07 1.26373e-06 0)
(2.20902e-06 3.77244e-05 0)
(-9.90147e-07 3.86082e-05 0)
(5.47958e-07 1.22102e-06 0)
(-2.21018e-07 1.54788e-05 0)
(-1.60214e-07 4.80251e-06 0)
(1.51002e-07 2.88633e-05 0)
(1.42382e-07 2.32458e-05 0)
(-3.41656e-07 2.78575e-05 0)
(-1.2195e-06 3.83385e-05 0)
(-1.64887e-07 3.67297e-05 0)
(-8.05709e-07 4.02971e-05 0)
(-2.34997e-07 4.01991e-05 0)
(-2.65112e-06 4.32411e-05 0)
(-2.74527e-06 4.31449e-05 0)
(-1.49665e-07 7.2071e-08 0)
(-5.90817e-07 1.60377e-06 0)
(1.49784e-06 3.0135e-05 0)
(-1.16776e-06 7.95697e-06 0)
(1.41515e-06 2.44592e-05 0)
(-1.24407e-06 1.01583e-05 0)
(-1.30553e-06 1.24626e-05 0)
(1.37733e-06 3.01586e-05 0)
(-1.07897e-06 7.93808e-06 0)
(1.30117e-06 2.44814e-05 0)
(-1.15012e-06 1.01387e-05 0)
(-1.20749e-06 1.24424e-05 0)
(-3.35569e-07 4.49383e-06 0)
(4.4827e-07 2.93324e-05 0)
(4.19992e-07 2.3702e-05 0)
(-4.86061e-07 1.58822e-05 0)
(2.01952e-06 1.71093e-05 0)
(-2.12358e-06 1.68089e-05 0)
(1.21999e-06 1.85135e-05 0)
(-2.44248e-07 2.79707e-06 0)
(-1.3375e-06 3.55945e-05 0)
(-1.32682e-06 3.57599e-05 0)
(5.63435e-07 4.10084e-05 0)
(-1.48516e-06 3.38419e-05 0)
(5.18152e-07 2.51946e-05 0)
(5.61423e-07 3.09101e-05 0)
(-1.65067e-06 2.7754e-05 0)
(-1.56025e-06 2.22158e-05 0)
(1.03821e-06 5.54585e-06 0)
(-1.8124e-07 3.58566e-05 0)
(7.3767e-07 1.39284e-06 0)
(-1.36249e-06 3.38708e-05 0)
(1.26055e-06 4.8246e-06 0)
(-7.22562e-07 1.22245e-05 0)
(-6.85849e-07 9.929e-06 0)
(-6.4029e-07 7.73764e-06 0)
(7.43761e-07 2.47229e-05 0)
(7.88245e-07 3.04146e-05 0)
(-6.92881e-07 9.87995e-07 0)
(-1.00961e-06 5.36755e-06 0)
(1.42597e-06 2.8016e-05 0)
(1.34409e-06 2.24622e-05 0)
(2.7454e-07 2.83545e-05 0)
(-2.24016e-06 3.36661e-05 0)
(-2.26262e-06 3.38417e-05 0)
(1.19537e-06 3.59658e-06 0)
(1.19145e-06 3.68386e-06 0)
(1.0388e-06 9.32058e-06 0)
(1.08769e-06 1.15879e-05 0)
(9.76354e-07 7.16258e-06 0)
(-1.42735e-06 2.54907e-05 0)
(-1.50152e-06 3.123e-05 0)
(5.28398e-07 2.50638e-05 0)
(5.65209e-07 3.0776e-05 0)
(6.24987e-07 1.67625e-05 0)
(-3.8115e-07 1.58538e-05 0)
(-2.60925e-07 4.51414e-06 0)
(3.26136e-07 2.92991e-05 0)
(3.04245e-07 2.36706e-05 0)
(-5.6049e-07 3.51674e-05 0)
(-2.53415e-07 8.43105e-06 0)
(-2.72189e-07 1.06585e-05 0)
(-1.94216e-06 3.73289e-05 0)
(-9.98562e-08 2.34608e-06 0)
(-1.93697e-06 1.9812e-05 0)
(1.69464e-06 1.42243e-05 0)
(3.54386e-08 4.22267e-08 0)
(-1.18979e-06 4.15225e-05 0)
(2.19356e-06 3.78589e-05 0)
(-1.29084e-07 8.82837e-08 0)
(1.42291e-06 3.94761e-05 0)
(1.7879e-06 3.4355e-05 0)
(1.92282e-06 3.43796e-05 0)
(-1.20211e-07 4.04664e-05 0)
(-2.13181e-07 4.0583e-05 0)
(1.12112e-06 1.39529e-05 0)
(9.83129e-07 1.40033e-05 0)
(-1.33438e-06 2.00877e-05 0)
(-1.18284e-06 2.00313e-05 0)
(1.4444e-07 6.91257e-08 0)
(-3.40281e-07 3.28492e-06 0)
(-4.01621e-07 1.95179e-06 0)
(-1.08635e-08 4.17886e-09 0)
(1.16396e-06 2.25562e-06 0)
(-3.38839e-08 1.09263e-08 0)
(1.39022e-07 1.92126e-06 0)
(-1.34107e-06 4.0274e-05 0)
(-8.57964e-07 7.23683e-06 0)
(-9.19348e-07 9.40158e-06 0)
(-9.6952e-07 1.16735e-05 0)
(1.10997e-06 3.11208e-05 0)
(1.05351e-06 2.53922e-05 0)
(2.01251e-08 2.92527e-05 0)
(1.45117e-08 2.36266e-05 0)
(-7.26764e-08 4.54236e-06 0)
(-1.20664e-07 1.58161e-05 0)
(-5.02364e-08 8.09141e-09 0)
(1.09413e-07 5.50602e-06 0)
(-2.52943e-07 2.22515e-05 0)
(-6.8322e-07 1.53817e-05 0)
(1.64146e-07 5.43656e-06 0)
(-3.32409e-07 2.23475e-05 0)
(-9.35948e-07 3.83336e-05 0)
(1.10043e-06 1.68591e-05 0)
(1.02303e-06 1.67556e-05 0)
(1.05786e-08 4.02539e-09 0)
(4.91281e-08 7.8192e-09 0)
(-1.75078e-06 3.59739e-05 0)
(-1.68691e-06 3.61081e-05 0)
(-1.81449e-06 1.47484e-05 0)
(1.81871e-06 1.92373e-05 0)
(1.37552e-06 3.12166e-05 0)
(1.30165e-06 2.54806e-05 0)
(-1.03894e-06 7.17355e-06 0)
(-1.11616e-06 9.33209e-06 0)
(-1.1765e-06 1.16004e-05 0)
(-1.16162e-07 3.65997e-05 0)
(-9.40852e-07 5.1679e-06 0)
(1.34379e-06 2.8312e-05 0)
(1.267e-06 2.27403e-05 0)
(8.66011e-07 1.70014e-05 0)
(6.62534e-07 3.47587e-05 0)
(1.08344e-06 4.2311e-05 0)
(1.82288e-07 1.89593e-06 0)
(-5.2363e-07 1.40897e-05 0)
(-9.89958e-09 7.66932e-07 0)
(3.30719e-08 1.05474e-08 0)
(3.98725e-07 1.47103e-05 0)
(3.36626e-07 1.45869e-05 0)
(-5.15983e-07 1.92716e-05 0)
(-4.49867e-07 1.93867e-05 0)
(8.7829e-07 1.16677e-05 0)
(8.39561e-07 9.39666e-06 0)
(7.90782e-07 7.23347e-06 0)
(-1.1724e-06 2.53924e-05 0)
(-1.23215e-06 3.11261e-05 0)
(-6.88861e-07 4.15335e-05 0)
(3.89494e-07 5.72063e-07 0)
(-5.68415e-08 2.57202e-05 0)
(-3.44525e-08 6.97955e-06 0)
(7.70521e-07 4.02198e-05 0)
(6.72459e-07 1.6665e-05 0)
(-2.70608e-06 3.97903e-05 0)
(7.75689e-07 1.71004e-05 0)
(5.91301e-08 5.13281e-08 0)
(2.10402e-06 3.33001e-05 0)
(2.1165e-06 3.3138e-05 0)
(-1.40163e-06 2.27656e-05 0)
(-1.48374e-06 2.83344e-05 0)
(-1.25849e-06 2.27188e-05 0)
(-1.33191e-06 2.82849e-05 0)
(8.97807e-07 5.14924e-06 0)
(8.00763e-07 5.17993e-06 0)
(6.04514e-07 2.124e-05 0)
(7.29589e-07 2.12197e-05 0)
(6.41389e-07 2.67156e-05 0)
(7.74441e-07 2.6694e-05 0)
(-5.2197e-07 6.26018e-06 0)
(-6.15969e-07 6.27684e-06 0)
(-1.3627e-07 3.13393e-06 0)
(6.13511e-07 2.0954e-06 0)
(5.7548e-07 2.03064e-06 0)
(6.0739e-07 1.57742e-06 0)
(5.57263e-07 3.48896e-05 0)
(-2.20453e-06 3.33575e-05 0)
(-2.21598e-06 3.31889e-05 0)
(1.21278e-06 3.96292e-06 0)
(1.19413e-06 3.86412e-06 0)
(1.76371e-06 1.71145e-05 0)
(1.78457e-06 1.72691e-05 0)
(-1.86744e-06 1.68003e-05 0)
(-1.88043e-06 1.66474e-05 0)
(7.09503e-07 4.09836e-05 0)
(-2.18122e-06 4.14659e-05 0)
(-2.08689e-06 3.55685e-05 0)
(8.51964e-07 1.11527e-06 0)
(-1.30368e-06 4.09964e-05 0)
(-1.17042e-06 4.08697e-05 0)
(4.80671e-07 2.14378e-05 0)
(-3.92787e-07 1.96587e-05 0)
(2.69451e-07 1.43446e-05 0)
(-1.60176e-06 1.71688e-05 0)
(1.46943e-06 1.67369e-05 0)
(-1.07178e-06 3.90928e-06 0)
(-4.05906e-08 2.89613e-08 0)
(1.84202e-07 9.45562e-07 0)
(9.00981e-08 1.51131e-05 0)
(-1.39023e-06 1.51939e-05 0)
(1.32208e-06 1.87385e-05 0)
(-8.35842e-07 1.40932e-05 0)
(8.10336e-07 1.99365e-05 0)
(3.64399e-07 3.16354e-05 0)
(5.24284e-07 3.15767e-05 0)
(-3.53435e-07 9.01115e-06 0)
(-4.7261e-07 9.05553e-06 0)
(-3.76062e-07 1.12661e-05 0)
(-5.01439e-07 1.13123e-05 0)
(7.0231e-08 5.07924e-06 0)
(-2.01112e-07 2.28482e-05 0)
(-1.99376e-07 2.84275e-05 0)
(-2.95856e-07 3.96186e-05 0)
(5.53963e-07 1.56928e-06 0)
(-1.23585e-07 1.92486e-05 0)
(-1.0653e-06 4.05089e-05 0)
(2.593e-07 2.47706e-07 0)
(8.39345e-07 2.58227e-05 0)
(-6.86816e-07 6.91242e-06 0)
(-1.62922e-06 1.94114e-05 0)
(-1.53438e-06 1.93334e-05 0)
(1.41275e-06 1.45832e-05 0)
(1.32676e-06 1.46552e-05 0)
(-1.56731e-06 4.20721e-05 0)
(-1.58373e-06 4.19088e-05 0)
(-4.0698e-07 3.15023e-06 0)
(-4.79457e-07 3.13917e-06 0)
(2.01711e-07 9.87076e-07 0)
(-5.13038e-07 1.01837e-06 0)
(1.72746e-08 2.00159e-05 0)
(5.97625e-07 5.23364e-06 0)
(4.975e-07 5.26328e-06 0)
(-9.61139e-07 2.26375e-05 0)
(-8.15146e-07 2.25935e-05 0)
(-1.0161e-06 2.81997e-05 0)
(-8.60957e-07 2.81533e-05 0)
(-2.00295e-06 3.45633e-05 0)
(-1.85744e-06 3.4575e-05 0)
(-5.35125e-07 1.28908e-05 0)
(-5.18517e-07 1.05669e-05 0)
(-4.8592e-07 8.34407e-06 0)
(5.54073e-07 3.25395e-05 0)
(-1.69341e-07 3.62848e-05 0)
(1.31654e-06 1.67251e-05 0)
(1.24136e-06 1.68423e-05 0)
(5.10029e-07 2.87371e-05 0)
(4.93231e-07 2.31343e-05 0)
(-3.97272e-07 4.88175e-06 0)
(3.16421e-07 5.38049e-06 0)
(2.54195e-07 5.47066e-06 0)
(-4.97022e-07 2.78526e-05 0)
(-5.80433e-07 2.79738e-05 0)
(-5.50566e-07 2.24268e-05 0)
(-4.594e-07 2.23011e-05 0)
(-7.62643e-07 4.99047e-06 0)
(1.02523e-06 2.2987e-05 0)
(1.08764e-06 2.85741e-05 0)
(-2.96747e-08 3.07541e-07 0)
(1.93892e-06 1.86023e-05 0)
(-1.96146e-06 1.53523e-05 0)
(-1.82278e-08 2.87522e-07 0)
(-6.27161e-07 3.12121e-05 0)
(-7.26238e-07 3.13602e-05 0)
(-5.85323e-07 2.54863e-05 0)
(-6.75909e-07 2.56266e-05 0)
(4.18865e-07 7.05512e-06 0)
(3.54498e-07 7.15961e-06 0)
(4.57341e-07 9.21768e-06 0)
(3.85212e-07 9.32828e-06 0)
(4.77542e-07 1.14817e-05 0)
(4.01371e-07 1.15973e-05 0)
(2.0841e-06 3.46164e-05 0)
(2.12427e-06 3.47705e-05 0)
(-3.50107e-07 1.96658e-06 0)
(7.48862e-07 2.59298e-05 0)
(-6.1805e-07 6.83224e-06 0)
(9.72781e-07 5.5878e-06 0)
(-1.46446e-06 2.21556e-05 0)
(-1.55243e-06 2.76866e-05 0)
(-3.9567e-08 1.21233e-08 0)
(2.1376e-07 3.58985e-05 0)
(9.693e-07 5.36618e-06 0)
(-1.48177e-06 2.24627e-05 0)
(-1.57139e-06 2.80078e-05 0)
(8.87812e-07 1.80057e-06 0)
(-1.12276e-06 3.85587e-05 0)
(9.69959e-07 4.41373e-06 0)
(-1.72569e-06 3.24216e-05 0)
(-5.94113e-07 2.55896e-06 0)
(-6.30695e-07 2.64209e-06 0)
(5.86225e-07 2.61584e-06 0)
(-2.43058e-07 1.92244e-05 0)
(-2.79578e-09 -2.05647e-09 0)
(-1.18962e-06 4.18629e-05 0)
(-3.53509e-08 1.45555e-08 0)
(3.86102e-08 1.16934e-08 0)
(-7.76101e-07 5.22594e-06 0)
(1.08591e-06 2.82192e-05 0)
(1.02347e-06 2.26528e-05 0)
(8.18787e-07 3.59487e-05 0)
(-2.60375e-06 3.82672e-05 0)
(2.87066e-07 1.82216e-05 0)
(-2.74454e-07 1.7836e-05 0)
(-1.08803e-07 2.66722e-06 0)
(-3.07964e-07 3.81709e-07 0)
(-2.01574e-09 -1.81454e-09 0)
(-7.53839e-07 1.41991e-05 0)
(7.21254e-07 1.98233e-05 0)
(1.08559e-07 3.83608e-08 0)
(-1.43052e-07 1.76237e-05 0)
(-1.38033e-07 1.7486e-05 0)
(-5.46216e-08 1.53065e-05 0)
(-4.72406e-08 4.93596e-06 0)
(-2.79421e-08 2.30527e-05 0)
(-3.01664e-08 2.86616e-05 0)
(-1.11307e-07 3.97136e-08 0)
(3.4189e-07 2.85794e-06 0)
(-9.29316e-07 3.19623e-05 0)
(5.98532e-07 8.77089e-06 0)
(6.27802e-07 1.10147e-05 0)
(6.49785e-07 1.33524e-05 0)
(1.78361e-06 4.03436e-05 0)
(-1.01699e-06 4.74352e-06 0)
(1.51488e-06 2.89645e-05 0)
(1.42937e-06 2.33549e-05 0)
(-1.10555e-06 3.75327e-05 0)
(2.64444e-07 8.34329e-07 0)
(1.34473e-06 3.69151e-05 0)
(-5.48586e-07 1.00345e-06 0)
(9.25448e-07 4.04881e-05 0)
(-8.08928e-07 3.19652e-05 0)
(5.10046e-07 8.7685e-06 0)
(5.3458e-07 1.10123e-05 0)
(5.53105e-07 1.33491e-05 0)
(2.30696e-07 7.94406e-07 0)
(5.91982e-07 2.64778e-05 0)
(-4.92526e-07 6.43058e-06 0)
(-1.99221e-07 2.84933e-06 0)
(-1.90721e-06 3.70295e-05 0)
(-8.40566e-07 1.22606e-05 0)
(-7.98628e-07 9.96372e-06 0)
(-7.46571e-07 7.77083e-06 0)
(8.77535e-07 2.46893e-05 0)
(9.29442e-07 3.0379e-05 0)
(2.4901e-06 4.25182e-05 0)
(1.41576e-06 3.78111e-05 0)
(1.5769e-06 3.77535e-05 0)
(4.01247e-08 3.2542e-08 0)
(9.71705e-07 1.41333e-05 0)
(-1.16642e-06 1.98882e-05 0)
(-5.69598e-07 1.42978e-05 0)
(5.10183e-07 1.97209e-05 0)
(-2.16785e-07 2.09487e-05 0)
(-1.74585e-07 3.13875e-05 0)
(4.49793e-08 1.14592e-05 0)
(4.6187e-08 9.19575e-06 0)
(-2.57925e-08 6.8579e-06 0)
(-8.22071e-08 2.04664e-05 0)
(-6.82947e-08 2.58901e-05 0)
(1.10139e-06 4.24645e-05 0)
(8.61977e-08 2.9246e-06 0)
(-5.89908e-08 7.77344e-07 0)
(1.64919e-07 2.7221e-05 0)
(1.20282e-08 8.01646e-07 0)
(-2.96125e-07 2.25525e-06 0)
(5.50721e-07 6.84132e-06 0)
(-8.70026e-07 2.59152e-05 0)
(-3.27206e-08 4.46044e-08 0)
(-1.77093e-06 3.70141e-05 0)
(-2.3232e-07 4.85433e-06 0)
(2.47538e-07 2.87917e-05 0)
(2.48691e-07 2.31715e-05 0)
(7.6571e-08 1.785e-08 0)
(-8.74288e-07 1.83157e-06 0)
(6.20328e-07 1.12361e-05 0)
(5.92257e-07 8.98269e-06 0)
(-9.14184e-07 3.16766e-05 0)
(1.32146e-07 1.46524e-05 0)
(-1.22101e-06 4.13753e-05 0)
(-3.91553e-08 5.28397e-09 0)
(-1.08954e-06 2.73561e-06 0)
(7.27073e-07 1.59882e-06 0)
(-7.96619e-07 9.96337e-07 0)
(1.32093e-06 1.69712e-05 0)
(9.58989e-07 1.98916e-05 0)
(-9.87521e-07 1.41304e-05 0)
(5.06414e-08 6.79862e-06 0)
(-1.99369e-07 2.05294e-05 0)
(-1.74098e-07 2.59704e-05 0)
(1.16782e-06 3.65429e-05 0)
(1.1494e-06 1.82676e-05 0)
(5.35719e-07 4.16625e-05 0)
(5.13864e-07 4.18031e-05 0)
(1.17299e-07 1.98175e-05 0)
(1.99753e-07 1.45639e-05 0)
(3.82867e-08 5.09752e-09 0)
(-1.7065e-06 3.35352e-05 0)
(8.98434e-07 3.75052e-06 0)
(2.97042e-09 7.37071e-08 0)
(2.61097e-07 2.51842e-05 0)
(3.58406e-07 2.52568e-05 0)
(1.06511e-09 6.88056e-09 0)
(-5.53099e-07 1.5576e-06 0)
(8.81828e-07 1.13858e-05 0)
(8.41689e-07 9.1266e-06 0)
(7.91045e-07 6.9702e-06 0)
(-1.1859e-06 2.57215e-05 0)
(-1.24581e-06 3.14865e-05 0)
(1.04842e-06 1.75524e-05 0)
(8.79701e-08 3.59324e-05 0)
(-7.35958e-07 3.99888e-05 0)
(-7.00091e-07 4.01781e-05 0)
(-1.21575e-07 3.18262e-05 0)
(-1.1292e-07 3.19773e-05 0)
(2.0729e-08 8.75463e-06 0)
(1.50121e-08 8.86186e-06 0)
(1.81725e-08 1.09979e-05 0)
(1.2168e-08 1.11102e-05 0)
(-1.04664e-08 1.33345e-05 0)
(-3.38767e-09 1.34475e-05 0)
(2.96909e-08 1.98712e-05 0)
(1.00093e-07 2.01296e-05 0)
(2.05319e-07 2.85073e-05 0)
(-1.23325e-07 2.09069e-05 0)
(-7.83039e-08 1.84486e-08 0)
(-8.5145e-08 7.44103e-07 0)
(5.15005e-07 2.63604e-05 0)
(-4.40183e-07 6.51516e-06 0)
(2.58465e-07 1.0036e-06 0)
(2.17966e-06 4.05217e-05 0)
(-2.27214e-07 3.2098e-05 0)
(9.72724e-08 8.67269e-06 0)
(9.90289e-08 1.09122e-05 0)
(8.40133e-08 1.32407e-05 0)
(-1.76303e-06 3.47193e-05 0)
(5.96136e-07 1.4842e-05 0)
(8.11109e-07 4.27637e-05 0)
(9.25301e-07 4.26773e-05 0)
(-2.93708e-07 2.31794e-06 0)
(-1.65143e-07 2.56077e-05 0)
(4.46914e-08 7.06328e-06 0)
(4.88036e-08 6.26603e-08 0)
(2.13914e-06 4.15501e-05 0)
(-6.25451e-08 1.25329e-06 0)
(-5.49927e-07 9.62625e-06 0)
(-5.80946e-07 1.19087e-05 0)
(-6.8489e-07 1.20093e-05 0)
(-6.4928e-07 9.72276e-06 0)
(-5.05362e-07 7.44794e-06 0)
(-6.03085e-07 7.54192e-06 0)
(6.71137e-07 2.49786e-05 0)
(7.11458e-07 3.06865e-05 0)
(5.60604e-07 9.10789e-07 0)
(-4.05795e-08 2.74381e-08 0)
(-1.94536e-06 2.94818e-05 0)
(-2.03968e-06 4.14745e-05 0)
(6.08268e-07 2.01164e-05 0)
(-1.06275e-07 1.27982e-06 0)
(-1.0845e-06 2.49403e-05 0)
(-1.14022e-06 3.06462e-05 0)
(7.37716e-07 7.57696e-06 0)
(7.80409e-07 9.7597e-06 0)
(8.14691e-07 1.20466e-05 0)
(8.84978e-07 3.60544e-05 0)
(2.10234e-06 4.16835e-05 0)
(-1.28979e-06 1.70954e-05 0)
(6.15e-07 6.91005e-06 0)
(-9.5852e-07 2.58215e-05 0)
(5.78988e-07 2.02433e-05 0)
(-3.06563e-07 1.54025e-05 0)
(6.89944e-07 1.1313e-05 0)
(6.58749e-07 9.05646e-06 0)
(-1.00176e-06 3.15782e-05 0)
(-1.89036e-06 1.72501e-05 0)
(1.75015e-06 1.66743e-05 0)
(1.74624e-06 1.68237e-05 0)
(-1.86959e-06 1.70921e-05 0)
(-1.24019e-06 3.86539e-06 0)
(-1.27065e-06 3.96992e-06 0)
(-9.08291e-07 1.6828e-05 0)
(-7.46846e-07 1.02017e-06 0)
(-1.43583e-06 1.69295e-05 0)
(-2.50978e-07 3.48932e-05 0)
(-3.16524e-07 4.49716e-07 0)
(1.51244e-06 1.09574e-05 0)
(1.43942e-06 8.71802e-06 0)
(-1.91156e-06 2.34998e-05 0)
(3.06203e-07 1.13215e-05 0)
(2.94124e-07 9.06401e-06 0)
(-5.09382e-07 3.15649e-05 0)
(9.30402e-07 3.39601e-06 0)
(9.95198e-07 1.97605e-05 0)
(-1.02457e-06 1.42519e-05 0)
(-8.78386e-07 1.12361e-06 0)
(4.63473e-07 2.86043e-05 0)
(4.47985e-07 2.30142e-05 0)
(-3.69572e-07 4.96491e-06 0)
(1.45089e-06 2.72513e-05 0)
(-1.06498e-06 5.89245e-06 0)
(1.36616e-06 2.17443e-05 0)
(-1.31492e-06 3.81878e-06 0)
(1.00425e-06 4.00614e-05 0)
(1.1608e-06 4.00089e-05 0)
(1.11239e-06 3.14852e-05 0)
(1.05887e-06 2.57239e-05 0)
(-8.50542e-07 6.98841e-06 0)
(-9.11554e-07 9.12805e-06 0)
(-9.6291e-07 1.13874e-05 0)
(-3.36291e-07 3.91287e-07 0)
(-9.95752e-07 3.74986e-05 0)
(9.65058e-07 2.54863e-05 0)
(-7.88439e-07 7.16546e-06 0)
(-2.05114e-07 3.08056e-07 0)
(8.1136e-07 4.04645e-05 0)
(4.00031e-07 3.87086e-07 0)
(3.34731e-07 2.95712e-07 0)
(7.76145e-07 1.3021e-06 0)
(9.90639e-07 3.33558e-05 0)
(-1.83893e-06 3.41571e-05 0)
(2.32276e-06 4.05683e-05 0)
(7.81984e-07 1.36326e-06 0)
(1.0417e-06 1.82635e-05 0)
(1.36557e-06 3.5105e-05 0)
(-2.35196e-06 3.34352e-05 0)
(1.27332e-06 3.82275e-06 0)
(-5.88757e-07 3.52997e-05 0)
(2.09433e-07 1.13503e-05 0)
(2.02285e-07 9.09154e-06 0)
(-3.85186e-07 3.15275e-05 0)
(-1.5023e-07 8.25799e-07 0)
(5.69567e-07 2.10111e-05 0)
(3.42504e-08 1.39601e-08 0)
(-1.15403e-06 2.71061e-06 0)
(-1.8437e-07 1.79254e-05 0)
(-4.85585e-07 4.59146e-06 0)
(-5.60806e-07 4.61724e-06 0)
(6.43693e-07 2.35604e-05 0)
(7.56169e-07 2.35242e-05 0)
(8.03198e-07 2.9144e-05 0)
(6.84423e-07 2.91823e-05 0)
(3.67008e-08 1.86067e-07 0)
(-2.25863e-08 1.9141e-06 0)
(-1.32775e-06 2.15798e-05 0)
(-1.40863e-06 2.70755e-05 0)
(9.00715e-07 6.01066e-06 0)
(-6.16671e-07 3.84309e-06 0)
(-2.89048e-07 2.77179e-05 0)
(-6.1289e-07 1.80718e-06 0)
(6.68761e-07 4.01191e-05 0)
(-6.88853e-07 1.57511e-05 0)
(-7.90173e-07 1.5719e-05 0)
(3.91274e-08 4.97634e-08 0)
(-4.7169e-07 1.61831e-05 0)
(-3.17099e-07 4.27197e-06 0)
(4.02358e-07 2.40354e-05 0)
(4.29338e-07 2.9686e-05 0)
(-6.01674e-07 2.77211e-05 0)
(-5.44639e-07 2.2179e-05 0)
(3.16259e-07 5.55964e-06 0)
(5.11349e-07 2.35387e-06 0)
(4.75985e-07 2.27772e-06 0)
(1.1703e-07 1.5715e-05 0)
(-2.5732e-07 2.91341e-05 0)
(-2.48508e-07 2.35126e-05 0)
(9.94419e-08 4.61943e-06 0)
(-2.79998e-07 7.34944e-06 0)
(-5.76109e-07 1.85324e-06 0)
(1.29894e-06 4.09648e-05 0)
(-1.38424e-06 2.62258e-05 0)
(1.08531e-06 1.42054e-05 0)
(-1.28685e-06 1.98117e-05 0)
(1.38323e-06 3.5244e-05 0)
(-1.55444e-06 1.32725e-05 0)
(-1.49112e-06 1.09353e-05 0)
(1.61443e-06 2.08403e-05 0)
(-1.4102e-06 8.69811e-06 0)
(-1.30596e-06 6.5788e-06 0)
(1.721e-06 2.62951e-05 0)
(1.81328e-06 3.20801e-05 0)
(-5.40032e-07 3.08855e-05 0)
(-5.16215e-07 2.51659e-05 0)
(3.23004e-07 9.57459e-06 0)
(3.07549e-07 7.40133e-06 0)
(3.35368e-07 1.18544e-05 0)
(3.05813e-07 9.68748e-06 0)
(-5.15483e-07 3.07368e-05 0)
(3.1705e-07 1.19722e-05 0)
(2.91623e-07 7.50817e-06 0)
(-4.92785e-07 2.50257e-05 0)
(-3.19791e-07 3.80219e-05 0)
(-9.28901e-07 1.38916e-06 0)
(-8.29915e-07 5.51194e-06 0)
(1.14135e-06 2.77962e-05 0)
(1.07551e-06 2.22555e-05 0)
(-5.07323e-07 7.10288e-06 0)
(5.91636e-07 2.55678e-05 0)
(1.7182e-06 3.06416e-05 0)
(1.6248e-06 2.49375e-05 0)
(-1.30608e-06 7.59045e-06 0)
(-1.39541e-06 9.77182e-06 0)
(-1.46604e-06 1.20593e-05 0)
(1.81413e-06 3.30469e-05 0)
(1.98607e-06 3.30105e-05 0)
(6.50721e-08 1.65877e-06 0)
(-2.53449e-07 1.76883e-05 0)
(-8.3161e-07 2.65561e-06 0)
(4.81362e-08 1.18115e-07 0)
(-7.95311e-07 3.28404e-06 0)
(-1.41757e-07 3.4954e-05 0)
(2.28553e-08 1.59433e-06 0)
(-4.83929e-07 1.87048e-05 0)
(1.66372e-06 2.35113e-05 0)
(-1.16332e-06 4.6439e-06 0)
(1.76269e-06 2.91302e-05 0)
(-3.42685e-09 -2.37337e-09 0)
(5.69432e-08 2.72429e-05 0)
(6.34714e-08 2.77804e-08 0)
(4.30208e-08 3.7317e-08 0)
(2.55428e-07 2.07371e-05 0)
(-7.37251e-08 7.13147e-08 0)
(1.32914e-06 4.12404e-05 0)
(4.79703e-08 2.52506e-05 0)
(-1.05686e-07 7.33073e-06 0)
(4.51242e-07 3.33805e-06 0)
(1.35483e-07 2.51854e-05 0)
(-1.74701e-07 7.37572e-06 0)
(-4.07727e-08 8.57441e-07 0)
(-1.59792e-06 1.09558e-05 0)
(-1.51197e-06 8.7181e-06 0)
(-1.40063e-06 6.59889e-06 0)
(-1.25234e-06 4.65215e-06 0)
(1.79593e-06 2.35035e-05 0)
(1.85037e-06 2.6271e-05 0)
(1.90272e-06 2.91219e-05 0)
(1.95017e-06 3.20551e-05 0)
(-9.48261e-07 3.42439e-05 0)
(-8.54621e-07 3.9919e-05 0)
(-2.61691e-06 3.37003e-05 0)
(1.4045e-06 3.67672e-06 0)
(5.24126e-07 4.2077e-05 0)
(6.19657e-07 4.19127e-05 0)
(1.26707e-07 2.47226e-05 0)
(1.40878e-07 3.04175e-05 0)
(-2.08146e-07 1.22365e-05 0)
(-1.94886e-07 9.9404e-06 0)
(-1.78786e-07 7.74793e-06 0)
(-1.14055e-06 3.831e-06 0)
(4.06174e-07 2.86243e-06 0)
(-1.1836e-06 1.27021e-05 0)
(1.26394e-06 2.41734e-05 0)
(-1.12833e-06 1.03882e-05 0)
(-1.06088e-06 8.17536e-06 0)
(1.33862e-06 2.98322e-05 0)
(-8.5622e-07 4.19583e-06 0)
(1.35636e-06 3.27888e-05 0)
(2.01233e-07 1.70828e-05 0)
(-2.12297e-07 3.61229e-05 0)
(2.90868e-07 1.55194e-07 0)
(-1.66586e-07 3.22446e-05 0)
(5.27029e-08 8.56535e-06 0)
(5.18895e-08 1.07996e-05 0)
(3.48353e-08 1.31237e-05 0)
(3.81353e-07 3.72741e-05 0)
(-1.20058e-07 8.7737e-08 0)
(2.19343e-06 3.6746e-05 0)
(-4.0971e-07 1.79045e-05 0)
(-2.11343e-08 5.71732e-08 0)
(7.56059e-07 2.38632e-05 0)
(-5.48855e-07 4.38935e-06 0)
(8.02716e-07 2.95035e-05 0)
(3.43906e-08 3.17993e-08 0)
(-7.10665e-07 5.16297e-06 0)
(9.3424e-07 2.27397e-05 0)
(9.91455e-07 2.83116e-05 0)
(3.00656e-07 4.8088e-07 0)
(-7.92258e-07 1.60297e-05 0)
(1.01713e-07 1.69194e-05 0)
(-1.6244e-06 3.89841e-05 0)
(8.84158e-08 2.48341e-05 0)
(9.72012e-08 3.05329e-05 0)
(-1.83064e-07 1.21412e-05 0)
(-1.55757e-07 7.6617e-06 0)
(-1.70887e-07 9.84904e-06 0)
(1.92886e-07 1.71847e-05 0)
(-6.43475e-08 2.89439e-07 0)
(-5.96021e-08 8.98703e-07 0)
(5.769e-09 3.49038e-05 0)
(1.55957e-06 1.82177e-05 0)
(-1.61478e-06 1.57153e-05 0)
(-1.16083e-06 4.31446e-05 0)
(-2.5427e-06 2.96556e-05 0)
(-2.40313e-06 2.40073e-05 0)
(-2.4748e-06 2.67897e-05 0)
(-2.33004e-06 2.13117e-05 0)
(1.66515e-06 6.233e-06 0)
(1.79598e-06 8.32157e-06 0)
(1.89212e-06 1.05403e-05 0)
(1.97213e-06 1.28569e-05 0)
(2.41979e-06 2.96566e-05 0)
(2.35382e-06 2.67896e-05 0)
(-1.72668e-06 6.23697e-06 0)
(-1.8715e-06 8.32658e-06 0)
(2.28529e-06 2.40081e-05 0)
(-1.98077e-06 1.05432e-05 0)
(2.21574e-06 2.13107e-05 0)
(-2.07031e-06 1.28611e-05 0)
(-1.10242e-06 3.7374e-06 0)
(-4.48029e-07 3.6055e-05 0)
(-3.37886e-07 3.60247e-05 0)
(-4.03937e-07 4.02854e-05 0)
(5.10805e-07 2.60886e-05 0)
(-4.42327e-07 6.71364e-06 0)
(-2.07284e-07 3.66628e-07 0)
(-5.05903e-07 4.23481e-05 0)
(-6.12044e-07 1.17812e-05 0)
(-7.40022e-07 1.17448e-05 0)
(-5.79218e-07 9.50419e-06 0)
(-7.00991e-07 9.46947e-06 0)
(6.57379e-07 3.10258e-05 0)
(8.01014e-07 3.10382e-05 0)
(1.83327e-06 3.05732e-05 0)
(1.73355e-06 2.48731e-05 0)
(-1.39216e-06 7.64177e-06 0)
(-1.48592e-06 9.82554e-06 0)
(-1.56029e-06 1.21152e-05 0)
(-1.22746e-06 2.16422e-05 0)
(-1.30198e-06 2.71419e-05 0)
(8.24468e-07 5.96253e-06 0)
(-4.28797e-07 1.97862e-05 0)
(2.89169e-07 1.42279e-05 0)
(3.15176e-07 3.17827e-05 0)
(-3.1455e-07 8.89018e-06 0)
(-3.35426e-07 1.11395e-05 0)
(-3.49082e-07 1.34591e-05 0)
(7.38942e-07 1.40897e-05 0)
(6.1805e-07 1.41192e-05 0)
(-9.15886e-07 1.99327e-05 0)
(-7.84393e-07 1.98998e-05 0)
(-9.02539e-07 4.20616e-05 0)
(1.00187e-07 3.53716e-07 0)
(1.33261e-06 3.67809e-05 0)
(4.95619e-07 1.53334e-05 0)
(1.30933e-06 2.67669e-05 0)
(-9.89276e-07 6.23167e-06 0)
(1.23195e-06 2.12889e-05 0)
(-1.29158e-06 1.77466e-05 0)
(3.87157e-07 4.91028e-06 0)
(-7.07216e-07 2.86842e-05 0)
(-6.72084e-07 2.30925e-05 0)
(3.5346e-08 1.58316e-05 0)
(-1.58263e-07 2.36417e-05 0)
(-1.62015e-07 2.92708e-05 0)
(3.99351e-08 4.53194e-06 0)
(8.20099e-07 1.46172e-05 0)
(-9.89973e-07 1.93627e-05 0)
(-4.9359e-07 3.80213e-05 0)
(-2.05782e-06 3.76988e-05 0)
(3.18042e-07 1.86362e-05 0)
(8.82709e-07 1.86819e-05 0)
(-1.08629e-06 4.785e-06 0)
(1.61843e-06 2.89036e-05 0)
(1.52708e-06 2.32976e-05 0)
(-1.51982e-07 7.41024e-07 0)
(-3.27854e-07 3.24388e-05 0)
(1.56571e-07 8.42167e-06 0)
(1.618e-07 1.0649e-05 0)
(1.63419e-07 1.29689e-05 0)
(-4.88505e-07 1.78336e-05 0)
(-1.91187e-06 3.77099e-05 0)
(-7.18711e-07 8.42896e-06 0)
(-7.64202e-07 1.06554e-05 0)
(-7.99707e-07 1.29803e-05 0)
(8.8085e-07 3.24284e-05 0)
(3.41727e-09 5.71852e-09 0)
(1.17235e-06 1.76316e-05 0)
(1.02978e-08 2.02734e-06 0)
(-1.06872e-07 2.27064e-07 0)
(-2.11391e-07 9.39153e-07 0)
(-8.67936e-07 3.47491e-06 0)
(-1.13044e-07 4.27278e-08 0)
(2.45539e-07 9.32085e-06 0)
(2.35661e-07 7.15748e-06 0)
(2.54543e-07 1.15897e-05 0)
(-4.40487e-07 3.12211e-05 0)
(-4.23957e-07 2.54882e-05 0)
(-1.28433e-06 1.51684e-05 0)
(1.22218e-06 1.87717e-05 0)
(-2.20185e-07 1.47033e-07 0)
(1.42438e-06 4.00738e-05 0)
(1.00623e-06 3.62896e-05 0)
(-2.33542e-06 3.44113e-05 0)
(8.29127e-07 1.85652e-05 0)
(2.59454e-07 1.98544e-05 0)
(-6.37423e-07 4.23308e-05 0)
(-1.69577e-06 2.06155e-05 0)
(-1.61639e-06 2.05419e-05 0)
(2.19881e-06 4.23204e-05 0)
(-2.42615e-07 3.819e-05 0)
(-6.12166e-07 1.41814e-05 0)
(5.72236e-07 1.98508e-05 0)
(1.58428e-08 2.0911e-06 0)
(4.97576e-07 8.03351e-07 0)
(1.10057e-07 4.12075e-08 0)
(4.95097e-07 2.08996e-05 0)
(1.92941e-06 4.31095e-05 0)
(-1.13792e-06 3.12267e-05 0)
(-1.08268e-06 2.54876e-05 0)
(7.2136e-07 7.16104e-06 0)
(8.02309e-07 1.15882e-05 0)
(7.66837e-07 9.32033e-06 0)
(-4.09942e-08 3.29136e-08 0)
(-1.43226e-07 3.95821e-05 0)
(1.00782e-06 1.87261e-05 0)
(-1.06216e-06 1.5232e-05 0)
(-1.69224e-06 3.87224e-05 0)
(-2.4879e-06 2.97853e-05 0)
(-2.42189e-06 2.69151e-05 0)
(-2.35221e-06 2.4129e-05 0)
(-2.28066e-06 2.14302e-05 0)
(1.61874e-06 6.14247e-06 0)
(1.74837e-06 8.22457e-06 0)
(1.84353e-06 1.04385e-05 0)
(1.92221e-06 1.27512e-05 0)
(2.36479e-06 2.97855e-05 0)
(2.30079e-06 2.6915e-05 0)
(-1.67961e-06 6.1468e-06 0)
(-1.82314e-06 8.22975e-06 0)
(2.23384e-06 2.41297e-05 0)
(-1.93142e-06 1.04417e-05 0)
(2.16608e-06 2.14286e-05 0)
(-2.01992e-06 1.27558e-05 0)
(-6.45857e-07 9.99359e-07 0)
(2.60401e-07 2.96341e-07 0)
(-3.4488e-07 7.39648e-07 0)
(8.93874e-07 1.8441e-05 0)
(-1.09052e-06 1.88844e-05 0)
(3.25261e-07 4.75021e-07 0)
(-5.57858e-08 9.01645e-09 0)
(-2.24783e-06 3.44837e-05 0)
(1.19505e-06 4.2712e-05 0)
(1.34924e-06 4.27854e-05 0)
(5.45724e-08 8.72206e-09 0)
(7.05633e-07 1.10663e-06 0)
(1.90769e-06 3.92445e-05 0)
(-8.24099e-07 2.04854e-05 0)
(-9.65674e-08 1.02155e-07 0)
(-2.10461e-07 3.90926e-07 0)
(-3.46949e-08 8.81264e-09 0)
(6.25516e-08 5.83063e-08 0)
(2.11281e-06 1.70388e-05 0)
(-2.22093e-06 1.6881e-05 0)
(6.49746e-07 1.3587e-05 0)
(-8.44846e-07 2.01812e-05 0)
(6.72411e-07 1.38664e-05 0)
(-6.83818e-08 1.18617e-06 0)
(-5.24515e-07 2.97812e-05 0)
(3.47968e-07 1.62695e-05 0)
(-3.16951e-07 2.95051e-05 0)
(-3.1001e-07 2.38505e-05 0)
(1.37222e-07 4.39247e-06 0)
(1.68101e-07 1.60319e-05 0)
(-9.12934e-07 2.04006e-05 0)
(7.49993e-07 1.16629e-06 0)
(7.32494e-07 1.36688e-05 0)
(2.15767e-07 1.86594e-05 0)
(1.91771e-06 4.03947e-05 0)
(-6.8137e-07 1.87838e-05 0)
(-7.7505e-07 1.8887e-05 0)
(-9.39822e-07 2.31409e-06 0)
(-7.51236e-07 1.9372e-05 0)
(-6.50668e-07 1.9263e-05 0)
(6.07715e-07 1.45989e-05 0)
(5.26185e-07 1.47148e-05 0)
(-9.3419e-07 5.06702e-06 0)
(1.26831e-06 2.28834e-05 0)
(1.34501e-06 2.8464e-05 0)
(-3.29507e-07 4.33337e-07 0)
(-9.15332e-07 2.02679e-05 0)
(7.36028e-07 1.37912e-05 0)
(-5.89991e-07 2.49189e-05 0)
(-6.18028e-07 3.06237e-05 0)
(3.65981e-07 7.59017e-06 0)
(3.99696e-07 1.20623e-05 0)
(3.84807e-07 9.77396e-06 0)
(-4.64199e-07 2.48634e-06 0)
(-1.80413e-06 2.60437e-05 0)
(-1.71269e-06 2.59752e-05 0)
(1.22305e-06 6.75732e-06 0)
(1.15926e-06 6.80799e-06 0)
(1.11673e-06 2.15282e-05 0)
(1.23412e-06 2.14413e-05 0)
(-8.92647e-07 6.04933e-06 0)
(-9.83507e-07 6.11654e-06 0)
(1.18662e-06 2.70214e-05 0)
(1.31137e-06 2.6929e-05 0)
(-5.63848e-07 3.78973e-05 0)
(9.3467e-07 3.49727e-05 0)
(9.49e-07 3.48296e-05 0)
(-8.78305e-07 1.3868e-05 0)
(8.41361e-07 2.01771e-05 0)
(-2.70182e-06 4.17583e-05 0)
(-8.12993e-07 3.41585e-05 0)
(-7.82954e-07 3.40187e-05 0)
(3.69424e-07 3.46167e-06 0)
(3.82055e-07 3.3838e-06 0)
(2.20353e-06 3.44868e-05 0)
(-1.12259e-06 1.69433e-05 0)
(-9.71119e-07 1.69488e-05 0)
(2.18518e-06 3.83955e-05 0)
(-2.33496e-06 4.02499e-05 0)
(-2.33229e-06 4.04223e-05 0)