/*--------------------------------*- C++ -*----------------------------------*\
| =========                 |                                                 |
| \\      /  F ield         | OpenFOAM: The Open Source CFD Toolbox           |
|  \\    /   O peration     | Version:  2.3.1                                 |
|   \\  /    A nd           | Web:      www.OpenFOAM.org                      |
|    \\/     M anipulation  |                                                 |
\*---------------------------------------------------------------------------*/
FoamFile
{
    version     2.0;
    format      ascii;
    class       volScalarField;
    location    "0.85";
    object      nut;
}
// * * * * * * * * * * * * * * * * * * * * * * * * * * * * * * * * * * * * * //

dimensions      [0 2 -1 0 0 0 0];

internalField   nonuniform List<scalar> 
9648
(
0.000272048
0.000272703
0.000272614
0.000272472
0.000272187
0.000271665
0.00027094
0.000270037
0.000268938
0.000267625
0.000266092
0.000264379
0.000262484
0.000260419
0.000258235
0.000255977
0.000253671
0.000251336
0.000249014
0.000246748
0.00024455
0.000242441
0.000240446
0.000238563
0.000236795
0.000235158
0.000233656
0.000232285
0.000231037
0.000229918
0.00022892
0.000228039
0.000227272
0.000226618
0.000226065
0.000225617
0.000225272
0.000225024
0.000224859
0.000224778
0.00022479
0.000224882
0.000225052
0.000225307
0.000225633
0.000226023
0.000226488
0.000227042
0.000227675
0.000228371
0.000229146
0.000230019
0.000230965
0.000231988
0.000233102
0.000234305
0.000235566
0.000236833
0.000238116
0.000239411
0.0002407
0.000445063
0.000450293
0.000456311
0.000462954
0.000470014
0.000476993
0.00048484
0.000495288
0.000508681
0.000524873
0.000543952
0.00056621
0.000591586
0.000619926
0.00065105
0.00068486
0.000721111
0.000759449
0.000799555
0.000841257
0.000884205
0.000928146
0.000972893
0.00101818
0.00106372
0.0011094
0.00115513
0.00120075
0.00124608
0.00129105
0.00133564
0.00137973
0.00142321
0.00146615
0.00150846
0.00155004
0.00159097
0.00163126
0.00167083
0.00170952
0.0017474
0.00178455
0.00182086
0.00185625
0.00189082
0.00192432
0.00195675
0.00198826
0.00201894
0.00204858
0.00207731
0.00210501
0.0021319
0.0021575
0.00218247
0.00220658
0.00223048
0.00225314
0.00227525
0.00229706
0.00231879
0.000765464
0.000805182
0.000845667
0.000885019
0.000925187
0.000969189
0.00101596
0.00106675
0.00112109
0.00117956
0.00124147
0.00130729
0.00137689
0.00145013
0.00152676
0.00160647
0.00168892
0.00177359
0.00186003
0.00194784
0.00203656
0.00212586
0.00221533
0.00230465
0.00239352
0.00248176
0.00256923
0.00265568
0.00274105
0.00282522
0.0029081
0.00298967
0.00306995
0.00314882
0.00322626
0.00330236
0.00337703
0.00345037
0.00352232
0.00359288
0.00366206
0.00372978
0.00379621
0.00386129
0.00392496
0.0039872
0.00404796
0.00410745
0.00416544
0.00422209
0.00427739
0.0043314
0.00438472
0.00443585
0.00448712
0.00453616
0.00458489
0.00463054
0.0046763
0.00472118
0.00476535
0.00122789
0.00130512
0.00138336
0.00146144
0.00154093
0.00162361
0.00170964
0.00179949
0.00189301
0.00199072
0.00209217
0.00219768
0.0023069
0.00241984
0.00253601
0.00265503
0.00277644
0.00289966
0.00302422
0.00314958
0.00327535
0.00340101
0.00352623
0.00365068
0.00377414
0.00389637
0.00401724
0.00413659
0.00425434
0.00437034
0.0044847
0.00459735
0.00470825
0.00481751
0.00492502
0.00503087
0.00513504
0.0052376
0.00533855
0.00543791
0.00553569
0.00563193
0.00572658
0.00581979
0.00591143
0.00600153
0.00609013
0.00617725
0.00626273
0.0063466
0.00642934
0.00650986
0.00658895
0.00666601
0.00674276
0.00681725
0.00688959
0.00695984
0.00702842
0.00709528
0.00715945
0.00176553
0.00187101
0.00198006
0.00209113
0.00220475
0.00232218
0.00244391
0.00256994
0.00270048
0.00283559
0.00297501
0.00311857
0.00326608
0.00341731
0.00357163
0.00372839
0.00388696
0.00404688
0.00420754
0.00436851
0.00452927
0.00468936
0.00484837
0.00500603
0.00516217
0.00531668
0.00546932
0.00562003
0.00576869
0.00591528
0.00605978
0.00620223
0.00634271
0.00648119
0.00661763
0.00675218
0.00688483
0.00701551
0.0071443
0.0072712
0.00739627
0.00751946
0.0076409
0.00776052
0.00787832
0.00799425
0.00810823
0.00822031
0.00833069
0.00843869
0.00854496
0.00864909
0.00875052
0.00884947
0.00894642
0.0090415
0.00913346
0.00922289
0.00930984
0.00939369
0.00947438
0.00231015
0.00243546
0.00257039
0.00271182
0.00285863
0.0030109
0.00316884
0.00333241
0.00350125
0.00367516
0.00385366
0.00403618
0.00422254
0.00441218
0.00460469
0.00479919
0.00499468
0.00519092
0.00538711
0.0055829
0.00577789
0.00597142
0.00616328
0.00635302
0.00654067
0.00672614
0.00690935
0.00709022
0.0072685
0.00744422
0.00761748
0.00778816
0.00795653
0.0081226
0.00828625
0.00844756
0.0086067
0.00876351
0.00891804
0.00907022
0.00921995
0.00936739
0.00951257
0.0096555
0.00979609
0.00993441
0.0100707
0.0102037
0.0103345
0.0104628
0.0105882
0.0107109
0.0108307
0.0109469
0.0110604
0.0111704
0.0112772
0.011381
0.0114814
0.0115774
0.0116703
0.00283561
0.00297684
0.00313721
0.00330981
0.00349137
0.00368054
0.00387688
0.00407995
0.00428912
0.00450339
0.00472235
0.00494482
0.00517046
0.00539872
0.00562981
0.00586219
0.00609468
0.0063272
0.0065586
0.00678872
0.00701751
0.00724393
0.00746802
0.00768881
0.00790668
0.00812194
0.00833434
0.00854422
0.0087508
0.00895414
0.00915455
0.00935151
0.00954566
0.00973727
0.00992583
0.0101115
0.0102947
0.010475
0.0106525
0.0108272
0.0109985
0.0111667
0.0113319
0.0114943
0.0116533
0.0118093
0.0119625
0.0121123
0.0122591
0.0124023
0.0125422
0.0126784
0.0128106
0.0129391
0.0130631
0.0131836
0.0133004
0.0134129
0.0135207
0.013624
0.0137228
0.00333881
0.00349373
0.00367981
0.00388454
0.00410265
0.00432969
0.00456562
0.00480966
0.00505985
0.00531566
0.00557597
0.00583919
0.00610417
0.00637024
0.00663916
0.0069095
0.0071793
0.00744859
0.00771535
0.0079789
0.008241
0.00849989
0.0087564
0.00900779
0.00925419
0.00949766
0.00973763
0.00997522
0.0102089
0.0104385
0.0106648
0.0108858
0.0111028
0.0113174
0.0115285
0.0117356
0.01194
0.0121409
0.0123387
0.0125337
0.0127241
0.0129099
0.0130908
0.0132685
0.0134417
0.0136107
0.0137758
0.0139361
0.014093
0.0142457
0.0143938
0.0145373
0.0146772
0.0148122
0.0149415
0.0150659
0.0151857
0.0153018
0.0154122
0.0155162
0.0156145
0.00382664
0.00399055
0.00420136
0.00443446
0.00469019
0.00495305
0.00522665
0.00551252
0.00580035
0.0060978
0.00639781
0.00670469
0.00700826
0.00731088
0.00761247
0.00791995
0.0082266
0.00853308
0.00883988
0.00913387
0.00942718
0.0097196
0.0100095
0.0102964
0.0105679
0.0108378
0.0111032
0.0113661
0.0116274
0.0118826
0.0121373
0.0123831
0.012615
0.0128491
0.0130833
0.0133081
0.013529
0.0137488
0.013963
0.0141783
0.0143897
0.0145967
0.014789
0.0149784
0.0151655
0.0153418
0.0155161
0.015679
0.0158433
0.0159973
0.0161508
0.0162903
0.0164297
0.0165697
0.0167016
0.0168193
0.0169374
0.0170462
0.0171562
0.0172582
0.0173474
0.000241898
0.000242996
0.00024407
0.000245116
0.000246116
0.00024704
0.00024793
0.000248823
0.000249721
0.00025056
0.000251318
0.00025206
0.000252774
0.000253459
0.000254148
0.000254886
0.000255682
0.000256535
0.000257469
0.000258519
0.000259651
0.000260845
0.000262096
0.00026337
0.000264649
0.000265944
0.000267266
0.000268596
0.000269922
0.000271257
0.000272599
0.000273945
0.000275294
0.000276659
0.000278027
0.000279405
0.000280803
0.00028222
0.000283643
0.000285071
0.000286523
0.000287995
0.000289482
0.000290995
0.000292524
0.00029405
0.00029559
0.000297165
0.000298765
0.000300361
0.000301971
0.000303623
0.000305285
0.000306953
0.000308658
0.000310403
0.00031218
0.000313941
0.000315747
0.000317632
0.000319602
0.00234057
0.00236005
0.00237907
0.002398
0.00241653
0.00243387
0.00244912
0.00246342
0.00247504
0.00248661
0.00249653
0.00250572
0.00251378
0.00252072
0.00252647
0.00253078
0.00253373
0.00253518
0.00253522
0.00253391
0.00253143
0.00252799
0.00252351
0.00251812
0.00251187
0.00250479
0.00249695
0.00248817
0.00247858
0.0024681
0.00245668
0.00244445
0.0024314
0.00241747
0.00240272
0.00238722
0.00237088
0.00235382
0.00233602
0.00231751
0.00229832
0.00227842
0.002258
0.00223697
0.00221531
0.002193
0.00216997
0.00214633
0.00212192
0.00209684
0.00207108
0.0020446
0.00201753
0.00198923
0.00196077
0.00193114
0.00190114
0.00186993
0.00183897
0.00180785
0.0017766
0.00480709
0.00484767
0.00488529
0.00492158
0.00495637
0.0049909
0.00502164
0.00505094
0.00507655
0.00510113
0.00512333
0.00514383
0.0051618
0.0051782
0.00519263
0.00520506
0.00521557
0.00522416
0.0052309
0.00523586
0.00523929
0.00524111
0.00524146
0.00524035
0.0052378
0.00523381
0.00522849
0.00522177
0.00521367
0.00520402
0.00519298
0.0051804
0.00516628
0.00515076
0.0051337
0.0051152
0.0050952
0.00507378
0.00505093
0.00502674
0.00500129
0.00497469
0.00494699
0.00491836
0.00488864
0.00485784
0.00482579
0.0047925
0.00475782
0.00472173
0.0046844
0.00464509
0.00460426
0.00456146
0.00451763
0.0044715
0.00442347
0.00437387
0.00432351
0.00427232
0.00422007
0.00722185
0.0072815
0.00733881
0.00739287
0.00744468
0.00749422
0.00754092
0.00758456
0.00762508
0.00766333
0.00769882
0.0077313
0.00776115
0.00778879
0.00781357
0.007836
0.00785597
0.00787351
0.00788866
0.00790156
0.00791229
0.00792107
0.00792784
0.00793277
0.00793578
0.0079369
0.00793609
0.00793344
0.00792902
0.00792274
0.00791447
0.0079042
0.0078919
0.00787751
0.00786108
0.00784262
0.00782205
0.00779931
0.00777447
0.00774766
0.00771905
0.00768872
0.00765705
0.00762411
0.00759001
0.00755465
0.00751786
0.0074795
0.00743952
0.00739768
0.00735409
0.00730829
0.00726005
0.00720936
0.00715652
0.00710097
0.00704239
0.00698171
0.00691959
0.00685558
0.00679026
0.00955173
0.00962661
0.00969822
0.00976628
0.00983046
0.00989168
0.00994987
0.0100035
0.0100536
0.010101
0.0101449
0.0101857
0.0102235
0.0102582
0.01029
0.0103191
0.0103446
0.0103672
0.0103867
0.0104033
0.0104171
0.0104285
0.0104375
0.0104443
0.0104487
0.0104507
0.0104505
0.0104482
0.010444
0.0104379
0.0104298
0.0104194
0.0104066
0.0103915
0.010374
0.010354
0.0103314
0.0103062
0.0102781
0.0102474
0.0102143
0.0101788
0.0101417
0.0101031
0.0100633
0.0100224
0.00998012
0.0099359
0.00989029
0.00984316
0.00979395
0.00974235
0.0096881
0.00963081
0.00957077
0.00950675
0.00943958
0.00936972
0.00929763
0.00922295
0.00914698
0.0117591
0.0118443
0.0119249
0.0120024
0.0120752
0.0121436
0.0122083
0.0122684
0.0123242
0.0123759
0.0124243
0.012469
0.0125101
0.0125476
0.0125815
0.012612
0.0126386
0.0126618
0.0126812
0.0126965
0.0127084
0.0127172
0.0127231
0.0127264
0.0127269
0.0127245
0.0127194
0.0127118
0.0127022
0.0126911
0.0126785
0.0126638
0.0126469
0.0126275
0.0126059
0.0125816
0.0125543
0.0125239
0.0124903
0.0124535
0.0124135
0.0123703
0.0123248
0.0122776
0.012229
0.0121798
0.0121292
0.0120772
0.0120239
0.0119697
0.0119136
0.0118547
0.0117933
0.0117291
0.0116615
0.0115895
0.0115138
0.0114341
0.0113524
0.0112679
0.0111815
0.0138172
0.0139069
0.0139918
0.0140717
0.0141471
0.014218
0.0142838
0.0143444
0.0144004
0.0144516
0.0144985
0.0145416
0.014581
0.0146157
0.0146463
0.0146737
0.0146972
0.0147168
0.0147316
0.0147411
0.0147462
0.0147475
0.0147453
0.0147402
0.0147319
0.0147199
0.0147043
0.0146851
0.0146637
0.0146411
0.0146184
0.0145942
0.0145687
0.0145411
0.0145123
0.0144811
0.0144463
0.0144081
0.0143668
0.0143224
0.0142742
0.0142219
0.014166
0.0141078
0.0140482
0.0139886
0.0139269
0.0138644
0.0138006
0.0137377
0.0136734
0.0136056
0.0135363
0.0134641
0.0133895
0.0133092
0.0132249
0.0131358
0.0130452
0.0129512
0.0128549
0.0157078
0.0157954
0.0158772
0.0159529
0.0160232
0.0160874
0.0161468
0.0162012
0.0162511
0.0162957
0.0163348
0.01637
0.0164014
0.0164285
0.0164501
0.0164675
0.0164829
0.0164951
0.0165025
0.0165035
0.0164975
0.0164875
0.0164736
0.0164558
0.0164351
0.0164102
0.0163809
0.0163456
0.0163054
0.0162636
0.016224
0.0161835
0.0161437
0.0161027
0.0160632
0.0160234
0.0159784
0.0159287
0.0158768
0.0158237
0.0157675
0.0157068
0.0156405
0.0155709
0.0154999
0.0154293
0.015355
0.0152806
0.0152038
0.0151304
0.0150573
0.0149788
0.0148998
0.0148193
0.0147379
0.0146498
0.0145581
0.0144599
0.0143612
0.0142587
0.0141545
0.0174363
0.0175163
0.017591
0.017652
0.0177097
0.0177528
0.0177965
0.017828
0.0178614
0.0178954
0.0179209
0.0179327
0.0179479
0.0179613
0.0179693
0.0179689
0.0179653
0.0179618
0.0179588
0.0179506
0.01793
0.0179069
0.0178821
0.0178488
0.0178131
0.0177733
0.0177303
0.0176826
0.0176217
0.0175538
0.0174899
0.0174265
0.0173651
0.0173019
0.0172446
0.0171937
0.017137
0.0170705
0.0170024
0.0169362
0.01687
0.0168062
0.016731
0.016651
0.0165739
0.0164929
0.0164113
0.016325
0.0162373
0.0161511
0.0160687
0.015977
0.0158837
0.0157955
0.015704
0.0156123
0.0155131
0.0154104
0.0153027
0.0151945
0.0150817
0.00032157
0.000323519
0.000325546
0.00032765
0.000329803
0.000331959
0.000334148
0.000336401
0.000338697
0.000341018
0.000343362
0.000345758
0.000348173
0.000350674
0.000353742
0.000356543
0.000359279
0.000362005
0.000364734
0.000367488
0.000370253
0.000373032
0.000375833
0.000378636
0.000381427
0.000384215
0.000386998
0.000389767
0.000392502
0.000395205
0.000397868
0.000400479
0.000403026
0.000405511
0.00040791
0.000410217
0.000412425
0.000414512
0.00041633
0.000417647
0.00041855
0.000419049
0.000419143
0.000418826
0.00041804
0.000416723
0.000414828
0.00041229
0.000408987
0.00040476
0.000399473
0.000392952
0.000384905
0.000374998
0.000362256
0.000340845
0.000330489
0.000325016
0.000322793
0.000321736
0.000319542
0.00174479
0.00171295
0.00168058
0.00164803
0.00161528
0.00158263
0.00154952
0.00151671
0.00148379
0.00145129
0.00141948
0.00138748
0.001356
0.00132478
0.00129007
0.00125549
0.00122134
0.0011878
0.00115496
0.00112287
0.00109149
0.00106066
0.00103036
0.00100055
0.000971233
0.000942428
0.000914114
0.00088634
0.000859082
0.000832346
0.000806169
0.000780573
0.00075555
0.000731145
0.000707418
0.000684385
0.000662147
0.000640776
0.000620019
0.000596912
0.000573136
0.000550252
0.000528385
0.000507722
0.000488362
0.000470508
0.00045444
0.00044043
0.00042875
0.000419745
0.000413792
0.000411334
0.000412805
0.000418741
0.0004279
0.00044991
0.000484451
0.000540308
0.000626655
0.000751225
0.000871404
0.0041673
0.00411382
0.00405948
0.00400372
0.00394677
0.00388891
0.00383006
0.00377068
0.00371074
0.00365083
0.00358937
0.00352797
0.00346932
0.00341069
0.00334945
0.00328585
0.00322088
0.0031557
0.00309061
0.00302593
0.00296151
0.00289702
0.00283247
0.00276784
0.00270304
0.00263813
0.00257304
0.00250779
0.00244224
0.00237644
0.0023103
0.0022438
0.00217699
0.00210977
0.0020422
0.00197428
0.00190604
0.00183747
0.00176839
0.00169739
0.00162415
0.00153904
0.00144632
0.00135058
0.00125295
0.00115462
0.00105719
0.000962159
0.000871517
0.000787291
0.000711517
0.000646139
0.000592461
0.000551901
0.000524268
0.000513823
0.000523368
0.000558069
0.000627585
0.000745975
0.00090935
0.00672397
0.0066574
0.00658934
0.0065192
0.00644657
0.00637255
0.00629722
0.00622129
0.00614516
0.00606864
0.00598882
0.00591069
0.00583553
0.00576042
0.00568243
0.00560124
0.00551758
0.0054331
0.00534834
0.00526368
0.00517888
0.0050932
0.00500686
0.0049199
0.00483209
0.00474344
0.00465382
0.00456319
0.00447131
0.00437808
0.00428343
0.00418737
0.00408981
0.00399079
0.00389034
0.00378843
0.00368502
0.00358009
0.00347344
0.00336448
0.00325237
0.00313376
0.00300044
0.00284983
0.00268743
0.00251344
0.00232859
0.00213406
0.00193218
0.00172694
0.00152285
0.00132717
0.00114639
0.000987502
0.00085459
0.000753046
0.000686203
0.000654234
0.00065931
0.00070904
0.000811885
0.00906929
0.00899117
0.00891136
0.00882952
0.00874381
0.00865617
0.00856713
0.0084783
0.00838918
0.00829974
0.00820619
0.00811494
0.00802641
0.00793832
0.00784754
0.00775326
0.00765583
0.00755765
0.00745901
0.0073604
0.00726124
0.00716042
0.0070586
0.00695591
0.00685181
0.00674645
0.00663939
0.00653061
0.00641966
0.0063065
0.00619101
0.00607335
0.00595355
0.00583175
0.00570793
0.0055822
0.00545455
0.00532492
0.00519312
0.00505885
0.00492157
0.00477992
0.00463058
0.00446421
0.00427937
0.00407821
0.00385915
0.00362073
0.00336175
0.00308298
0.00278585
0.00247508
0.00215947
0.00185151
0.00156555
0.00131645
0.00111678
0.000969279
0.000871636
0.000823336
0.000828056
0.0110924
0.011003
0.0109123
0.0108195
0.0107218
0.0106216
0.0105193
0.0104182
0.0103173
0.0102166
0.0101112
0.0100081
0.00990757
0.00980851
0.00970656
0.00960136
0.00949278
0.0093842
0.00927516
0.00916619
0.0090562
0.00894345
0.00882991
0.00871575
0.00859967
0.00848191
0.00836174
0.00823923
0.00811356
0.00798501
0.00785342
0.00771942
0.00758313
0.0074449
0.00730459
0.00716248
0.00701849
0.00687269
0.0067249
0.006575
0.00642251
0.00626689
0.00610658
0.00593768
0.00574945
0.00554533
0.00532245
0.00507922
0.00481246
0.00451928
0.0041976
0.00384604
0.00346653
0.00306701
0.00266018
0.00226745
0.00191191
0.00160947
0.0013667
0.001185
0.0010642
0.0127545
0.0126543
0.0125533
0.0124509
0.0123418
0.0122295
0.0121143
0.0120014
0.0118898
0.0117794
0.0116628
0.0115488
0.0114375
0.0113291
0.0112178
0.0111037
0.010986
0.0108695
0.0107526
0.010636
0.0105177
0.0103952
0.010273
0.010151
0.0100262
0.0098991
0.00976848
0.00963526
0.00949757
0.00935657
0.00921207
0.00906588
0.00891764
0.00876831
0.00861722
0.00846499
0.00831123
0.00815647
0.00800044
0.00784334
0.00768452
0.00752372
0.00736011
0.00719157
0.00701332
0.00681558
0.00660116
0.00636797
0.0061132
0.00583383
0.00552593
0.0051855
0.00480997
0.00439805
0.00395482
0.00349243
0.00303112
0.00259458
0.00220152
0.00186442
0.00159092
0.0140439
0.0139329
0.0138224
0.0137115
0.0135926
0.0134692
0.0133421
0.0132178
0.0130967
0.0129776
0.0128512
0.0127271
0.0126068
0.0124912
0.0123726
0.0122514
0.012127
0.0120042
0.0118815
0.0117596
0.0116346
0.0115039
0.0113758
0.0112493
0.0111178
0.0109827
0.010843
0.0107007
0.0105523
0.0104006
0.0102455
0.010091
0.00993494
0.00977952
0.00962273
0.00946608
0.00930823
0.00915144
0.00899473
0.00883906
0.00868272
0.00852585
0.00836728
0.00820569
0.00803785
0.0078555
0.00765595
0.00743925
0.007204
0.00694796
0.00666839
0.0063611
0.00602104
0.00564403
0.00522778
0.00477437
0.00429313
0.00379918
0.0033122
0.00285122
0.0024339
0.0149674
0.014844
0.0147264
0.0146046
0.0144812
0.014346
0.0142114
0.0140732
0.0139457
0.0138169
0.013685
0.0135504
0.0134252
0.0133021
0.0131814
0.0130517
0.0129271
0.0127962
0.0126702
0.0125463
0.0124131
0.0122782
0.0121465
0.0120147
0.0118781
0.0117327
0.011586
0.011433
0.0112756
0.0111135
0.0109522
0.010793
0.0106331
0.0104754
0.0103185
0.0101627
0.0100069
0.0098569
0.00970887
0.00956527
0.00942034
0.0092763
0.00913068
0.00898231
0.00882951
0.0086674
0.00848612
0.00828751
0.00807478
0.00785061
0.00760585
0.00734204
0.00704756
0.0067236
0.00635997
0.00596047
0.00551766
0.00504356
0.00454174
0.00402849
0.00352451
0.000315532
0.000310945
0.000305922
0.000300506
0.000294902
0.000289211
0.0002836
0.000278275
0.000273401
0.000269096
0.000265425
0.000262444
0.000260102
0.000258321
0.000257034
0.000256158
0.000255592
0.000255253
0.000255094
0.000255081
0.000255172
0.000255344
0.000255595
0.000255896
0.000256248
0.000256653
0.00025711
0.000257615
0.00025816
0.000258751
0.000259379
0.00026004
0.000260729
0.000261444
0.000262168
0.000262898
0.000263628
0.000264344
0.000265022
0.000265657
0.000266251
0.000266783
0.000267247
0.000267652
0.000267985
0.000268245
0.000268456
0.000268644
0.000268814
0.000268968
0.000269135
0.000269348
0.000269584
0.000269857
0.000270173
0.000270532
0.000270897
0.000271227
0.000271538
0.000271825
0.000272057
0.000936825
0.000992312
0.00103579
0.00106187
0.0010728
0.00107256
0.00105872
0.00103217
0.000995393
0.000950616
0.000900175
0.000847541
0.000795422
0.000745866
0.000699429
0.000657692
0.000622123
0.000592793
0.000569191
0.000550678
0.000536432
0.000525635
0.000517553
0.000511568
0.000507295
0.000504401
0.000502641
0.000501852
0.000501883
0.000502607
0.000503906
0.000505661
0.000507736
0.000509984
0.000512271
0.000514456
0.000516381
0.000517905
0.000518871
0.00051913
0.00051854
0.000516969
0.0005143
0.000510433
0.000505322
0.000498983
0.000491514
0.000483118
0.000474087
0.000464838
0.000455859
0.000447668
0.000440732
0.000435388
0.000431872
0.000430182
0.000430198
0.000431643
0.00043426
0.000437632
0.000441271
0.00108042
0.00125237
0.00142114
0.00157042
0.00167004
0.0017478
0.00180067
0.00182355
0.00182053
0.00179465
0.00174691
0.00168191
0.00160376
0.00151623
0.00142176
0.00132543
0.00123374
0.00115092
0.00107855
0.00101858
0.000971034
0.000934819
0.000908183
0.000889204
0.000876284
0.000868077
0.000863687
0.000862347
0.000863438
0.000866433
0.00087091
0.000876385
0.000882361
0.000888353
0.000893856
0.000898425
0.000901612
0.000902996
0.000902157
0.000898731
0.000892424
0.000883048
0.000870507
0.00085486
0.000836214
0.000814877
0.000791255
0.000765924
0.000739582
0.000713192
0.00068797
0.000665295
0.000646735
0.00063364
0.000627179
0.00062788
0.00063584
0.000650666
0.000671729
0.000698179
0.000729223
0.000964501
0.0011607
0.00138876
0.0016261
0.00184207
0.00203711
0.00221628
0.00234408
0.00243197
0.0024893
0.00251249
0.00250457
0.00247002
0.00241061
0.00232833
0.00222681
0.00211055
0.00199147
0.00187582
0.00177004
0.00167868
0.00160467
0.00154817
0.00150754
0.00148027
0.00146406
0.00145706
0.00145763
0.00146433
0.00147589
0.00149129
0.00150948
0.00152929
0.00154949
0.00156896
0.00158658
0.00160125
0.00161188
0.00161744
0.00161694
0.00160953
0.00159456
0.00157157
0.00154042
0.00150114
0.00145427
0.00140061
0.00134129
0.00127758
0.00121137
0.00114509
0.0010819
0.00102565
0.000980748
0.000951685
0.000941637
0.000951368
0.00097987
0.00102506
0.00108436
0.00115416
0.000890066
0.00101289
0.00119712
0.00143305
0.00169719
0.00196919
0.00223455
0.00246971
0.00267093
0.00284578
0.00297251
0.00305186
0.00309868
0.00311168
0.00309357
0.00304921
0.00298039
0.00288892
0.00278746
0.00268424
0.00258504
0.002497
0.00242504
0.0023711
0.00233454
0.002314
0.00230799
0.00231489
0.00233268
0.0023594
0.00239351
0.00243334
0.00247692
0.00252219
0.00256719
0.00261
0.00264865
0.00268129
0.00270593
0.00272074
0.00272398
0.00271434
0.00269054
0.00265184
0.00259757
0.00252804
0.00244368
0.00234565
0.00223541
0.0021152
0.00198808
0.00185862
0.00173271
0.00161837
0.001526
0.00146674
0.0014452
0.00146042
0.00150859
0.00158051
0.00166762
0.0010062
0.00101335
0.00108906
0.00123489
0.00144526
0.00170735
0.00200194
0.00230218
0.00258744
0.00284709
0.00306753
0.00324592
0.0033927
0.00349048
0.00354587
0.00357575
0.00358015
0.00356333
0.00353226
0.00349077
0.00344572
0.00340147
0.00336306
0.00333504
0.00331956
0.0033176
0.00332999
0.00335698
0.00339718
0.00344866
0.00350998
0.00357919
0.0036539
0.00373138
0.00380902
0.00388411
0.00395403
0.00401604
0.00406737
0.00410533
0.00412734
0.00413142
0.00411554
0.00407824
0.00401791
0.00393449
0.00382763
0.00369805
0.00354652
0.00337506
0.00318624
0.00298465
0.00277648
0.00257083
0.00238164
0.00222843
0.00211982
0.00206572
0.00206735
0.00211651
0.00220115
0.00138604
0.0012526
0.00119276
0.00120844
0.00130016
0.00146589
0.00169823
0.00198098
0.00229159
0.00260586
0.00290068
0.00316149
0.00338387
0.00356196
0.00370029
0.00381451
0.00388999
0.00394003
0.00398126
0.00401678
0.00405664
0.00409886
0.004143
0.00418931
0.00423942
0.00429485
0.0043583
0.0044321
0.00451614
0.00460918
0.00471058
0.00481869
0.00493142
0.00504602
0.00515981
0.00526983
0.00537304
0.00546612
0.00554564
0.00560827
0.00565088
0.00567097
0.00566608
0.00563433
0.00557319
0.00548202
0.00535969
0.00520638
0.00502227
0.00480856
0.00456696
0.00430105
0.00401549
0.00371769
0.00342045
0.00314424
0.00291158
0.00274659
0.00266364
0.00266154
0.00272526
0.00207415
0.00178302
0.0015676
0.00143235
0.00137892
0.0014073
0.00151569
0.00169872
0.00194567
0.00223868
0.0025538
0.00286679
0.00315942
0.00341729
0.00363585
0.00381819
0.00396564
0.00408633
0.004198
0.00428762
0.0043945
0.00451157
0.00463894
0.00477518
0.00491993
0.00506958
0.00522139
0.00537427
0.00553068
0.00568962
0.00585078
0.00601244
0.00617322
0.00633163
0.0064855
0.00663257
0.00677002
0.00689429
0.00700138
0.00708756
0.00715019
0.00718564
0.00719178
0.00716669
0.00710723
0.00701149
0.00687859
0.00670681
0.00649691
0.00624874
0.00596367
0.00564326
0.00528995
0.00490924
0.00450984
0.004111
0.00374603
0.00345498
0.00326929
0.00320046
0.00323238
0.00304477
0.00261237
0.00224246
0.00194499
0.0017302
0.00160162
0.0015602
0.0016031
0.00172597
0.00192099
0.00217419
0.00246815
0.00278329
0.00309817
0.00339487
0.00366646
0.00389885
0.00409301
0.00425313
0.00438935
0.00455571
0.00471581
0.00488973
0.00508433
0.00530478
0.0055442
0.00579652
0.00605315
0.00630715
0.00655691
0.00680125
0.0070359
0.00725803
0.00747088
0.00767125
0.00785979
0.00803473
0.00819235
0.00832794
0.00843682
0.00852059
0.00856995
0.00858752
0.00856929
0.00851439
0.00841628
0.00827847
0.00809069
0.00786136
0.0075841
0.00726514
0.00689978
0.0064887
0.00603945
0.00555309
0.00504772
0.00456329
0.00415603
0.00386938
0.00373215
0.00372625
0.00533636
0.0186945
0.0191035
0.00182733
0.00542359
0.00706538
0.00125013
0.00587043
0.0012899
0.00335266
0.0105083
0.0146175
0.00124992
0.0129864
0.00663131
0.020043
0.00126356
0.00627572
0.00992301
0.00125345
0.0018246
0.0128302
0.0181292
0.00127759
0.00127968
0.00475783
0.00125324
0.00308444
0.00126004
0.00131434
0.00672892
0.00127753
0.00273481
0.00884534
0.0138487
0.0092122
0.00803541
0.013626
0.00124673
0.0140426
0.00508962
0.0142376
0.00124682
0.0198581
0.00515601
0.00989576
0.00134878
0.00240105
0.00127875
0.0148039
0.0105673
0.0157798
0.00124468
0.00143575
0.0020108
0.000202543
0.00131193
0.0048925
0.00886714
0.018302
0.00406811
0.00135692
0.00130016
0.00366964
0.019952
0.00731713
0.00912567
0.00432299
0.00148579
0.00124255
0.0135685
0.013893
0.00491741
0.00049707
0.00276762
0.0187348
0.0190795
0.0166723
0.00124218
0.0141836
0.00193994
0.0132713
0.000841259
0.0186016
0.00124256
0.0116244
0.00128569
0.0120553
0.00180384
0.00158946
0.0055425
0.00124168
0.00137934
0.0176205
0.020189
0.00134096
0.0108616
0.00425478
0.00178116
0.0199125
0.00372052
0.0179268
0.00826883
0.00124128
0.00124186
0.00124384
0.00595208
0.00667641
0.00126413
0.0204277
0.0195962
0.00165144
0.00778934
0.00771086
0.0052997
0.012543
0.0101391
0.00140625
0.00593031
0.00142132
0.00104627
0.00548647
0.00153388
0.0178463
0.0131781
0.0031187
0.00124626
0.0126644
0.0132001
0.00124639
0.00350931
0.00375551
0.00296749
0.00153897
0.0133549
0.00124572
0.00124187
0.0138495
0.0161718
0.00125321
0.00311195
0.0203667
0.00431127
0.0090082
0.00823632
0.0172148
0.00046401
0.00886258
0.00250239
0.0161509
0.0124124
0.000200421
0.0139791
0.0185082
0.020177
0.00128388
0.00126864
0.00815735
0.00125688
0.00829053
0.000775235
0.00162288
0.00124365
0.00124746
0.00124292
0.0170706
0.00412353
0.0067185
0.00129159
0.01417
0.00668321
0.00228067
0.0128634
0.00254806
0.0075061
0.0057973
0.0114601
0.00125962
0.00171229
0.00398719
0.0124071
0.014468
0.0184545
0.00124784
0.00132613
0.00873585
0.0039601
0.0115006
0.0012447
0.00134927
0.0056983
0.00129845
0.016712
0.00997597
0.00125575
0.00851289
0.00332563
0.0187354
0.00151689
0.00636159
0.00124763
0.00125363
0.0200578
0.0156943
0.0157252
0.00152518
0.00129497
0.00185511
0.016516
0.00570353
0.0104696
0.0192106
0.0148401
0.0194259
0.00411983
0.0192776
0.0190964
0.0138674
0.0151356
0.0124146
0.00148296
0.00419554
0.00125153
0.00127033
0.0105315
0.00296955
0.00312005
0.00147483
0.00247292
0.0141102
0.00961798
0.00289292
0.0191752
0.0134038
0.00489858
0.00124496
0.00457839
0.0173434
0.0126306
0.00145218
0.0095416
0.00336283
0.003562
0.00264542
0.0183499
0.00744208
0.00448682
0.0198929
0.00138962
0.00124226
0.00142586
0.00232012
0.00957691
0.00129585
0.00151336
0.00124567
0.00749759
0.0194332
0.0188967
0.0138111
0.01221
0.0157251
0.0167965
0.00149004
0.0080925
0.0186813
0.00124612
0.00424133
0.00124267
0.00441596
0.00743932
0.0041826
0.00165513
0.00124636
0.0152793
0.00306205
0.00124292
0.00125559
0.00125876
0.00126161
0.00975078
0.00677411
0.0174719
0.0018177
0.00124287
0.00124388
0.00124157
0.0191457
0.00399254
0.0015086
0.0133418
0.00595679
0.00159196
0.0012431
0.00792789
0.00124266
0.00211554
0.00419686
0.00713821
0.00263606
0.0014083
0.0017313
0.0163335
0.00509208
0.00269798
0.0167362
0.00131684
0.00124339
0.00124548
0.0197988
0.00127522
0.0151507
0.00124535
0.0142969
0.0106814
0.00274007
0.00540036
0.00580252
0.00154709
0.013378
0.013256
0.00280703
0.0224256
0.0105583
0.0162586
0.0141446
0.0197031
0.00824457
0.0195002
0.00484717
0.00656869
0.016545
0.018181
0.0129395
0.0123147
0.0014069
0.0160287
0.00528654
0.0190425
0.00362958
0.00133405
0.0012466
0.00129938
0.00412873
0.0101442
0.00674298
0.00612518
0.00124894
0.0204227
0.00124616
0.00719092
0.0142634
0.0198972
0.0136827
0.0153701
0.00165709
0.00147345
0.00149319
0.00818313
0.00219653
0.00640502
0.00912392
0.010549
0.0179996
0.0180303
0.0163574
0.00131353
0.0180009
0.0201743
0.0029035
0.00125442
0.0199815
0.0204251
0.00127886
0.0116189
0.00125541
0.0105239
0.0157874
0.0112716
0.0190393
0.00492332
0.0204466
0.0012756
0.0204261
0.00139156
0.01757
0.0173197
0.0116146
0.0181142
0.0124816
0.00828535
0.0103893
0.0014707
0.00379154
0.00132509
0.00205756
0.00128305
0.00691673
0.0013849
0.0181444
0.00124346
0.00125593
0.00176677
0.00942909
0.00515773
0.0138403
0.00147603
0.0192625
0.0077758
0.0191539
0.00612974
0.0164124
0.0101744
0.001299
0.0181121
0.0172092
0.00125016
0.0172383
0.0146545
0.0012439
0.00124176
0.00878427
0.00183909
0.0120754
0.001494
0.00654914
0.0036568
0.00927844
0.0162482
0.0172278
0.015718
0.0164922
0.0184135
0.00140631
0.00126465
0.00890794
0.0125316
0.0163217
0.0109273
0.018689
0.00456652
0.0201301
0.0201324
0.00656887
0.00301635
0.016614
0.0147258
0.00132435
0.0178178
0.0147921
0.00144879
0.0196117
0.0160125
0.0167369
0.00343061
0.00464393
0.0126043
0.00165845
0.0165059
0.00153934
0.00346021
0.00125179
0.0109699
0.00292064
0.00859091
0.00156824
0.00136762
0.00872297
0.00869121
0.00167019
0.0027157
0.0103594
0.00280442
0.0013165
0.0156435
0.00900326
0.0133197
0.00778659
0.00355428
0.0119684
0.0164232
0.0175734
0.00634154
0.0122139
0.0173748
0.0063281
0.0155922
0.0201884
0.000403561
0.0058081
0.0124156
0.00129711
0.00325238
0.00799256
0.0122852
0.00278756
0.0220854
0.00441069
0.0100301
0.00647207
0.00168227
0.00124499
0.00104563
0.0172091
0.0174632