/*--------------------------------*- C++ -*----------------------------------*\
| =========                 |                                                 |
| \\      /  F ield         | OpenFOAM: The Open Source CFD Toolbox           |
|  \\    /   O peration     | Version:  2.3.1                                 |
|   \\  /    A nd           | Web:      www.OpenFOAM.org                      |
|    \\/     M anipulation  |                                                 |
\*---------------------------------------------------------------------------*/
FoamFile
{
    version     2.0;
    format      ascii;
    class       volVectorField;
    location    "0.85";
    object      U;
}
// * * * * * * * * * * * * * * * * * * * * * * * * * * * * * * * * * * * * * //

dimensions      [0 1 -1 0 0 0 0];

internalField   nonuniform List<vector> 
9648
(
(0.170041 -4.74525 1.10101e-22)
(0.284518 -4.72789 -1.46918e-22)
(0.40036 -4.69537 0)
(0.520019 -4.66836 0)
(0.640796 -4.64502 1.12231e-20)
(0.76265 -4.62778 1.74457e-20)
(0.888075 -4.62011 -2.98365e-20)
(1.01949 -4.62462 -1.35443e-20)
(1.15832 -4.64252 1.35109e-20)
(1.30488 -4.67577 4.03194e-20)
(1.46123 -4.72606 -4.01509e-20)
(1.62925 -4.79444 -5.72111e-20)
(1.81092 -4.88146 3.03657e-19)
(2.00826 -4.98704 7.80701e-20)
(2.22297 -5.11032 -7.31906e-19)
(2.45627 -5.25002 0)
(2.70932 -5.4044 0)
(2.98296 -5.57138 1.31937e-19)
(3.27788 -5.74834 4.24756e-19)
(3.59415 -5.93251 -1.22094e-18)
(3.9318 -6.12126 -2.09625e-20)
(4.2907 -6.31155 3.36016e-19)
(4.67011 -6.50049 3.96403e-19)
(5.06935 -6.68532 -1.79961e-18)
(5.4875 -6.86336 0)
(5.92355 -7.032 1.07577e-18)
(6.37618 -7.18877 -1.12771e-18)
(6.84405 -7.3316 0)
(7.32573 -7.45832 0)
(7.81959 -7.56728 -6.83529e-19)
(8.32416 -7.65679 -1.51135e-18)
(8.83763 -7.72539 2.37262e-18)
(9.35841 -7.77198 0)
(9.88475 -7.79532 0)
(10.4148 -7.79475 1.81661e-18)
(10.947 -7.7694 -1.9542e-18)
(11.4794 -7.71886 0)
(12.0104 -7.64283 4.19464e-18)
(12.5384 -7.54093 1.13111e-18)
(13.0615 -7.41302 -3.34886e-18)
(13.5777 -7.25914 6.27759e-20)
(14.0858 -7.07977 2.38232e-18)
(14.5841 -6.87477 -3.16397e-18)
(15.0707 -6.64469 6.36417e-19)
(15.5445 -6.39028 0)
(16.0041 -6.11168 0)
(16.4478 -5.80959 4.80023e-18)
(16.8744 -5.4848 7.02456e-19)
(17.2833 -5.13828 -2.17063e-18)
(17.6738 -4.77006 -7.30668e-19)
(18.0439 -4.38054 -7.59972e-19)
(18.3917 -3.97217 7.55235e-19)
(18.717 -3.54668 3.90153e-19)
(19.019 -3.10485 -3.88032e-19)
(19.2964 -2.64838 1.98069e-18)
(19.5488 -2.17834 -1.95046e-18)
(19.7753 -1.69619 -2.15945e-20)
(19.9756 -1.20315 0)
(20.149 -0.700649 -3.96207e-19)
(20.2952 -0.190376 -5.12359e-20)
(20.4142 0.326462 -4.85886e-20)
(-0.0514085 -2.46498 3.51122e-23)
(0.00844744 -2.46335 0)
(0.073003 -2.47598 0)
(0.145555 -2.50316 7.24466e-21)
(0.223255 -2.54964 -7.09324e-21)
(0.310273 -2.6192 -4.09485e-20)
(0.408222 -2.71043 0)
(0.518788 -2.82133 0)
(0.643778 -2.95234 -4.65169e-20)
(0.78367 -3.10364 0)
(0.939723 -3.27408 -1.09388e-19)
(1.11274 -3.46208 8.57141e-20)
(1.30363 -3.66633 -4.62164e-20)
(1.51334 -3.88511 0)
(1.74264 -4.11647 2.84907e-19)
(1.99184 -4.3583 1.68181e-19)
(2.26128 -4.60834 -1.65447e-19)
(2.55109 -4.86435 2.14071e-19)
(2.86147 -5.12382 -6.51778e-19)
(3.19219 -5.38429 5.17538e-19)
(3.54295 -5.64343 -5.72266e-19)
(3.91348 -5.89872 -3.08011e-19)
(4.30299 -6.14782 -3.15851e-19)
(4.71073 -6.38844 1.08404e-18)
(5.13579 -6.61837 3.752e-19)
(5.57725 -6.83546 4.4538e-19)
(6.03397 -7.03771 -3.95216e-19)
(6.5047 -7.22338 0)
(6.98819 -7.39068 0)
(7.48295 -7.53827 0)
(7.98763 -7.66468 0)
(8.50062 -7.76872 0)
(9.02043 -7.84939 0)
(9.54554 -7.9057 0)
(10.0742 -7.93707 -8.13448e-19)
(10.6048 -7.94272 7.3905e-19)
(11.1358 -7.92237 8.14822e-19)
(11.6656 -7.87571 -4.13866e-18)
(12.1925 -7.80243 -8.78275e-19)
(12.7148 -7.70246 2.70056e-18)
(13.2309 -7.57591 1.89465e-18)
(13.7391 -7.42321 -1.95519e-18)
(14.2381 -7.24423 9.3387e-19)
(14.726 -7.03965 9.85407e-19)
(15.2015 -6.81012 -1.04733e-18)
(15.6632 -6.55586 1.038e-18)
(16.1097 -6.2777 -2.22458e-18)
(16.5395 -5.9765 0)
(16.9514 -5.65323 -5.68309e-19)
(17.3446 -5.30804 1.14198e-18)
(17.7184 -4.94148 -5.73828e-19)
(18.0715 -4.55546 0)
(18.4028 -4.15138 1.17939e-18)
(18.7115 -3.73004 0)
(18.9965 -3.2929 0)
(19.2572 -2.84113 2.79543e-18)
(19.4926 -2.37603 -1.2599e-18)
(19.7022 -1.8992 -3.06507e-19)
(19.8857 -1.41151 3.23503e-19)
(20.0424 -0.914686 0)
(20.172 -0.409973 8.13513e-20)
(0.0548651 -1.40894 -1.73753e-22)
(0.10685 -1.44833 0)
(0.166073 -1.50998 -8.73542e-22)
(0.234626 -1.59464 -2.90559e-22)
(0.311391 -1.69929 0)
(0.3998 -1.8222 3.56852e-20)
(0.500875 -1.96547 2.33867e-20)
(0.615909 -2.12799 0)
(0.746472 -2.3093 2.22769e-21)
(0.894297 -2.50794 4.73133e-20)
(1.06035 -2.72281 9.32634e-20)
(1.24525 -2.952 -3.22658e-20)
(1.44956 -3.1937 0)
(1.67364 -3.44585 0)
(1.91776 -3.70635 2.16905e-19)
(2.18186 -3.97309 -1.37248e-19)
(2.46593 -4.24386 -1.46909e-19)
(2.76981 -4.51645 0)
(3.09326 -4.78863 5.63157e-19)
(3.43595 -5.05822 -5.84175e-19)
(3.79742 -5.32315 -4.35979e-19)
(4.17713 -5.58132 -4.79458e-19)
(4.57433 -5.83069 0)
(4.98813 -6.06932 -8.57501e-19)
(5.41761 -6.29526 -3.01285e-19)
(5.8618 -6.50669 3.57523e-19)
(6.3196 -6.70189 3.94553e-19)
(6.78983 -6.87934 0)
(7.27124 -7.03761 0)
(7.76245 -7.17544 0)
(8.26207 -7.29166 0)
(8.76863 -7.38524 0)
(9.2807 -7.45528 0)
(9.79676 -7.50105 0)
(10.3152 -7.522 -1.78103e-18)
(10.8346 -7.51758 5.91592e-19)
(11.3532 -7.48754 -6.52346e-19)
(11.8696 -7.43163 3.28285e-18)
(12.3823 -7.34971 0)
(12.8897 -7.24181 1.39624e-18)
(13.39 -7.10814 1.44384e-18)
(13.8819 -6.94897 7.15337e-19)
(14.3639 -6.76447 -8.19215e-19)
(14.8344 -6.55516 -1.57784e-18)
(15.2921 -6.32158 2.45814e-18)
(15.7358 -6.06424 -8.31424e-19)
(16.164 -5.78392 -1.696e-18)
(16.5756 -5.48141 0)
(16.9693 -5.15771 0)
(17.3441 -4.81377 -4.62866e-19)
(17.6989 -4.45075 -4.52624e-19)
(18.033 -4.06953 -9.25688e-19)
(18.3456 -3.67118 -9.68905e-19)
(18.6356 -3.25712 0)
(18.9023 -2.82814 -9.58339e-19)
(19.1449 -2.38596 -9.98685e-19)
(19.3631 -1.93134 0)
(19.5559 -1.46641 1.61858e-20)
(19.7228 -0.991532 0)
(19.8636 -0.508442 0)
(19.9781 -0.0181601 -6.18738e-20)
(0.022291 -0.909126 4.01209e-22)
(0.079822 -0.986917 -3.8695e-22)
(0.148823 -1.08541 -7.63775e-22)
(0.230137 -1.20338 -2.35941e-21)
(0.323678 -1.33954 0)
(0.429132 -1.49343 -1.49604e-20)
(0.547863 -1.66514 -2.01826e-20)
(0.681115 -1.85403 0)
(0.830282 -2.05922 3.05258e-21)
(0.996254 -2.27953 -4.0415e-20)
(1.1799 -2.51352 9.02328e-20)
(1.38157 -2.7595 1.08125e-19)
(1.60165 -3.01551 0)
(1.84033 -3.27951 -8.38258e-20)
(2.09787 -3.54952 -1.77395e-19)
(2.37402 -3.82353 -9.42847e-20)
(2.66868 -4.09944 3.61095e-19)
(2.98162 -4.3752 -2.60423e-19)
(3.3125 -4.64876 2.91293e-19)
(3.66102 -4.91811 4.95022e-19)
(4.02676 -5.18145 7.15375e-19)
(4.40904 -5.43694 4.02715e-19)
(4.80722 -5.68276 1.93765e-19)
(5.22037 -5.9172 7.02465e-19)
(5.64764 -6.13845 2.30694e-19)
(6.0881 -6.34489 2.62074e-19)
(6.54071 -6.53499 3.0877e-19)
(7.00449 -6.70734 -9.23911e-19)
(7.4782 -6.86072 6.6279e-19)
(7.96057 -6.99396 7.4818e-19)
(8.45037 -7.10601 -1.52902e-18)
(8.94615 -7.19595 7.80498e-19)
(9.44658 -7.26291 -8.35739e-19)
(9.95035 -7.30625 4.16506e-19)
(10.4559 -7.3255 4.56276e-19)
(10.9618 -7.32016 5.06092e-19)
(11.4667 -7.28995 -4.99656e-19)
(11.969 -7.23472 -5.44188e-19)
(12.4673 -7.15435 -1.63121e-18)
(12.9602 -7.04892 -1.17638e-18)
(13.446 -6.91864 -2.38472e-18)
(13.9235 -6.76373 -3.08882e-18)
(14.391 -6.58447 1.26624e-18)
(14.8473 -6.38124 2.84816e-20)
(15.2911 -6.15458 -7.08774e-19)
(15.7211 -5.90505 -6.95352e-19)
(16.136 -5.6333 4.20375e-18)
(16.5347 -5.34011 -7.04584e-19)
(16.9161 -5.02627 0)
(17.2792 -4.69267 0)
(17.6231 -4.34036 -7.07724e-19)
(17.9468 -3.9705 3.14872e-20)
(18.2496 -3.5841 7.59247e-19)
(18.5306 -3.18229 0)
(18.7891 -2.76633 8.08489e-19)
(19.0242 -2.33755 0)
(19.2354 -1.8971 0)
(19.4221 -1.44593 6.16193e-19)
(19.584 -0.985588 1.96013e-19)
(19.7206 -0.517519 -1.99743e-19)
(19.8317 -0.0431944 1.02209e-19)
(0.107662 -0.664142 4.11542e-23)
(0.168451 -0.764042 3.38141e-22)
(0.242913 -0.881815 7.42641e-23)
(0.331758 -1.01757 1.68955e-21)
(0.434599 -1.17089 -4.03057e-21)
(0.551883 -1.34123 6.11418e-21)
(0.684151 -1.5281 2.35779e-21)
(0.832095 -1.73049 -1.51289e-20)
(0.996763 -1.94746 4.25115e-20)
(1.17835 -2.17769 -6.10536e-20)
(1.37745 -2.41966 6.82132e-20)
(1.59388 -2.67167 -8.38264e-20)
(1.82791 -2.93172 -4.80637e-20)
(2.07939 -3.19785 0)
(2.34864 -3.46807 8.64549e-20)
(2.63511 -3.7407 8.30547e-20)
(2.93862 -4.01369 0)
(3.25898 -4.28511 2.04312e-19)
(3.59563 -4.55309 0)
(3.94843 -4.81568 -2.69105e-19)
(4.31701 -5.07135 2.93315e-19)
(4.70056 -5.31853 1.01369e-20)
(5.09856 -5.5555 -1.68576e-20)
(5.50996 -5.78083 2.87438e-20)
(5.93398 -5.99274 -8.1985e-19)
(6.36979 -6.18976 -4.6995e-19)
(6.81636 -6.37048 9.66895e-19)
(7.27291 -6.53357 1.04819e-18)
(7.73824 -6.67806 -5.6696e-19)
(8.21113 -6.80281 0)
(8.69049 -6.90686 0)
(9.17486 -6.98943 0)
(9.66307 -7.0496 7.16119e-19)
(10.1539 -7.08681 -2.95677e-18)
(10.646 -7.10073 1.54676e-18)
(11.1377 -7.09085 -7.86426e-19)
(11.6281 -7.05686 -1.69584e-18)
(12.1155 -6.99876 1.71994e-18)
(12.5986 -6.91639 3.94082e-20)
(13.0762 -6.80986 -9.70543e-19)
(13.5467 -6.67945 1.00242e-18)
(14.0087 -6.52535 1.03638e-18)
(14.4608 -6.34783 0)
(14.9017 -6.14719 -1.05229e-18)
(15.3303 -5.92399 0)
(15.7452 -5.67878 -1.68077e-18)
(16.1453 -5.4122 5.19665e-19)
(16.5296 -5.12497 0)
(16.8969 -4.81776 -6.09453e-19)
(17.2464 -4.49159 -1.45842e-20)
(17.5771 -4.14728 1.29819e-18)
(17.8883 -3.78601 -6.16994e-19)
(18.1791 -3.40884 -3.431e-19)
(18.4488 -3.01688 6.28377e-19)
(18.6966 -2.61147 -4.80223e-21)
(18.9218 -2.19361 3.27697e-19)
(19.1234 -1.76458 1.58323e-19)
(19.3013 -1.32531 3.3415e-19)
(19.4551 -0.877004 -8.39507e-19)
(19.5845 -0.421169 3.37213e-19)
(19.689 0.0406512 -4.31511e-20)
(0.185559 -0.536074 -2.25889e-22)
(0.260366 -0.651793 0)
(0.349887 -0.783772 4.98297e-22)
(0.454662 -0.932524 0)
(0.573638 -1.09771 1.3783e-21)
(0.707671 -1.27859 9.30965e-21)
(0.856967 -1.47458 9.77473e-21)
(1.022 -1.68438 2.90134e-20)
(1.20377 -1.90697 3.73531e-21)
(1.40182 -2.14113 5.75143e-21)
(1.61685 -2.3852 1.17885e-21)
(1.84798 -2.63768 -3.20522e-20)
(2.09566 -2.89651 4.64264e-20)
(2.35902 -3.15972 -1.41282e-19)
(2.63913 -3.42539 1.19286e-19)
(2.93495 -3.69239 -8.30947e-21)
(3.24608 -3.95844 -1.46984e-19)
(3.57266 -4.22183 -1.76309e-19)
(3.91371 -4.4809 0)
(4.26933 -4.73361 2.09048e-19)
(4.63948 -4.97877 8.25644e-21)
(5.02283 -5.21512 -5.39424e-19)
(5.41943 -5.44094 -2.28696e-20)
(5.82776 -5.65524 -2.91926e-19)
(6.24715 -5.85606 1.02807e-18)
(6.67696 -6.04207 3.48482e-20)
(7.11603 -6.21203 -3.81705e-19)
(7.56406 -6.36452 -4.03537e-20)
(8.01972 -6.49902 0)
(8.48177 -6.61432 0)
(8.9495 -6.70948 0)
(9.42118 -6.78403 0)
(9.89577 -6.83682 0)
(10.3725 -6.86734 5.62734e-20)
(10.8498 -6.87555 -6.62073e-19)
(11.3261 -6.86091 -3.8433e-20)
(11.8007 -6.82287 2.85942e-20)
(12.272 -6.7618 6.83072e-19)
(12.7388 -6.67737 1.56033e-18)
(13.1999 -6.56971 -2.3533e-18)
(13.654 -6.43936 1.63771e-18)
(14.0995 -6.28633 -8.265e-19)
(14.535 -6.11098 0)
(14.9595 -5.91333 9.17775e-19)
(15.3719 -5.69409 0)
(15.7708 -5.45379 9.66037e-19)
(16.1554 -5.19288 -9.8849e-19)
(16.5242 -4.91239 4.64392e-19)
(16.8766 -4.61259 4.96005e-19)
(17.2116 -4.29451 -5.17595e-19)
(17.5285 -3.95901 3.69338e-20)
(17.8265 -3.60732 -1.05532e-20)
(18.1047 -3.24018 1.053e-18)
(18.3627 -2.859 -1.08379e-18)
(18.5995 -2.465 -5.34807e-19)
(18.8142 -2.05947 -2.61879e-19)
(19.0062 -1.64319 -8.33088e-19)
(19.1749 -1.21699 0)
(19.3205 -0.781987 5.62888e-19)
(19.4426 -0.339988 -1.44521e-19)
(19.5408 0.107727 0)
(0.284782 -0.476401 0)
(0.37449 -0.603543 0)
(0.480162 -0.746333 -4.3855e-22)
(0.602919 -0.905116 -7.4183e-22)
(0.73962 -1.07919 -2.73164e-21)
(0.892123 -1.26731 -1.45736e-20)
(1.05975 -1.46889 7.23307e-21)
(1.24234 -1.68233 -2.10694e-20)
(1.44215 -1.90685 -1.26984e-21)
(1.65652 -2.14124 5.17722e-20)
(1.88785 -2.38387 -9.32182e-20)
(2.1332 -2.63356 0)
(2.39432 -2.88796 0)
(2.66837 -3.14536 1.60849e-19)
(2.95898 -3.40332 1.02118e-19)
(3.26335 -3.6621 -2.24291e-19)
(3.58095 -3.91881 3.62856e-19)
(3.91308 -4.1719 1.5092e-19)
(4.25731 -4.42031 -3.01747e-19)
(4.61452 -4.66124 -1.82052e-19)
(4.98568 -4.89396 2.08883e-19)
(5.36753 -5.11809 -5.00171e-21)
(5.76217 -5.33108 0)
(6.16641 -5.53337 5.3628e-19)
(6.58008 -5.72211 -8.82173e-19)
(7.00317 -5.89603 2.93692e-19)
(7.43335 -6.05446 6.48706e-19)
(7.87205 -6.19521 -1.80275e-18)
(8.31722 -6.31888 3.67002e-19)
(8.76723 -6.42407 0)
(9.22265 -6.50941 0)
(9.68065 -6.57557 0)
(10.1404 -6.62056 5.02082e-19)
(10.6022 -6.6436 1.55384e-18)
(11.0641 -6.64559 -1.05065e-18)
(11.5236 -6.62613 5.79551e-19)
(11.9816 -6.58332 6.34798e-19)
(12.4358 -6.51897 -1.25913e-18)
(12.8849 -6.43216 0)
(13.3288 -6.32275 -1.29275e-18)
(13.7654 -6.19224 6.71253e-19)
(14.1935 -6.04001 3.46337e-20)
(14.6113 -5.86695 -3.11288e-20)
(15.0184 -5.67205 7.39052e-19)
(15.4137 -5.45662 3.11076e-20)
(15.7955 -5.22148 -2.35964e-18)
(16.1636 -4.9662 7.99485e-19)
(16.516 -4.69264 -1.66059e-18)
(16.8525 -4.40015 0)
(17.172 -4.09057 0)
(17.4742 -3.7638 1.75361e-18)
(17.7579 -3.42212 -4.18973e-19)
(18.0225 -3.06541 -9.0871e-19)
(18.268 -2.69497 -4.36864e-19)
(18.4932 -2.31286 1.39498e-18)
(18.6969 -1.92013 7.03696e-19)
(18.8784 -1.51704 2.43246e-19)
(19.0371 -1.10475 -4.56658e-21)
(19.1737 -0.683342 -2.43448e-19)
(19.2881 -0.255265 0)
(19.3794 0.177604 0)
(0.401143 -0.459803 2.8556e-22)
(0.50885 -0.595331 0)
(0.63172 -0.74604 0)
(0.775054 -0.912613 -1.6213e-23)
(0.929896 -1.09327 0)
(1.10191 -1.28602 6.46271e-21)
(1.28817 -1.49047 6.90085e-21)
(1.48742 -1.70459 -1.41359e-20)
(1.70657 -1.9283 0)
(1.936 -2.16037 -3.0927e-20)
(2.18471 -2.39914 3.82311e-21)
(2.44275 -2.64415 0)
(2.71819 -2.89226 0)
(3.00001 -3.14232 -6.77385e-20)
(3.30153 -3.38944 7.37706e-20)
(3.61424 -3.63874 -9.17921e-20)
(3.93647 -3.88478 -1.05168e-19)
(4.27418 -4.12596 0)
(4.62023 -4.36338 1.3477e-19)
(4.97751 -4.59126 -2.84149e-19)
(5.35048 -4.81011 -3.17649e-19)
(5.72852 -5.02175 -3.71278e-19)
(6.12154 -5.22035 -3.27117e-20)
(6.52078 -5.41076 -4.6992e-19)
(6.92774 -5.587 4.5091e-19)
(7.34428 -5.74804 5.02107e-19)
(7.7635 -5.89504 -5.70522e-19)
(8.19255 -6.02267 3.09701e-20)
(8.62691 -6.13516 4.16911e-20)
(9.06297 -6.23029 -6.57125e-19)
(9.50588 -6.30479 0)
(9.94926 -6.36301 -7.98376e-19)
(10.393 -6.39982 1.58333e-18)
(10.8394 -6.41421 -4.40194e-20)
(11.2854 -6.41025 9.2791e-19)
(11.7259 -6.38716 -9.23096e-19)
(12.1675 -6.33823 1.01695e-18)
(12.6035 -6.27072 1.06042e-18)
(13.0335 -6.18142 -2.09612e-18)
(13.4594 -6.06942 1.14619e-18)
(13.8771 -5.93922 1.12708e-18)
(14.2874 -5.78737 1.77984e-18)
(14.6858 -5.61699 -6.33341e-19)
(15.0745 -5.42367 0)
(15.4519 -5.21215 3.38073e-20)
(15.8151 -4.98316 6.87639e-19)
(16.1663 -4.7331 -6.6848e-19)
(16.5006 -4.46783 7.19668e-19)
(16.8204 -4.18257 0)
(17.1227 -3.88252 0)
(17.4095 -3.56434 -3.93246e-20)
(17.6779 -3.23368 7.72974e-19)
(17.9277 -2.8867 0)
(18.1599 -2.52677 3.83994e-19)
(18.3731 -2.15768 3.87351e-19)
(18.5651 -1.77881 -7.89137e-19)
(18.7357 -1.38947 -3.87146e-19)
(18.8829 -0.99217 -2.05691e-19)
(19.0092 -0.583879 0)
(19.1157 -0.17075 0)
(19.1996 0.245847 2.46442e-20)
(0.534834 -0.470239 -8.22177e-22)
(0.666673 -0.610835 1.48034e-21)
(0.806186 -0.765022 -2.67134e-23)
(0.976223 -0.937451 -5.54287e-22)
(1.1455 -1.1215 -4.22097e-22)
(1.33671 -1.31865 1.25109e-22)
(1.54236 -1.52198 0)
(1.75455 -1.73284 1.41395e-21)
(1.99821 -1.95429 -1.61078e-20)
(2.23695 -2.18066 0)
(2.50884 -2.41443 6.22527e-20)
(2.77245 -2.65433 -3.83692e-20)
(3.06572 -2.8963 3.90021e-20)
(3.34797 -3.13933 4.92138e-20)
(3.66316 -3.36993 -6.37494e-20)
(3.98387 -3.61083 -7.74119e-20)
(4.30654 -3.84614 2.54794e-19)
(4.65422 -4.07189 -2.64881e-19)
(4.99559 -4.30092 0)
(5.34814 -4.51727 -9.09752e-21)
(5.72962 -4.72088 7.80966e-19)
(6.09573 -4.92279 -2.91634e-20)
(6.49482 -5.10156 -3.68306e-19)
(6.883 -5.28311 7.05917e-19)
(7.28133 -5.44926 0)
(7.69454 -5.59735 -4.3298e-19)
(8.09636 -5.73461 -4.43483e-19)
(8.5176 -5.84752 9.82151e-19)
(8.94224 -5.94974 -6.48503e-21)
(9.36009 -6.03645 5.81933e-19)
(9.79324 -6.0972 -1.18854e-18)
(10.218 -6.14992 1.88893e-18)
(10.6433 -6.18018 -1.35382e-18)
(11.0751 -6.18584 -1.41892e-18)
(11.508 -6.17508 0)
(11.9246 -6.14902 8.0734e-19)
(12.3553 -6.09118 0)
(12.7695 -6.02359 -3.02259e-21)
(13.178 -5.9338 9.5536e-19)
(13.5885 -5.81592 -1.77688e-18)
(13.9849 -5.6852 -6.5898e-21)
(14.3787 -5.53373 -1.96411e-18)
(14.7517 -5.36878 0)
(15.1211 -5.17837 -5.62345e-19)
(15.4816 -4.97202 2.1573e-18)
(15.8215 -4.75032 -5.48689e-19)
(16.1596 -4.50482 5.80884e-19)
(16.4719 -4.24906 0)
(16.7768 -3.97004 5.97812e-19)
(17.0596 -3.67871 -1.80454e-18)
(17.3318 -3.36529 -2.5128e-20)
(17.5834 -3.04577 0)
(17.8153 -2.71142 6.20368e-19)
(18.0348 -2.36253 -1.8627e-20)
(18.237 -2.00394 0)
(18.4142 -1.63739 3.49713e-19)
(18.5757 -1.26945 -3.17513e-19)
(18.7087 -0.889293 3.33116e-19)
(18.8229 -0.495361 3.30445e-19)
(18.9243 -0.093499 -1.6595e-19)
(18.9974 0.307426 -6.28272e-20)
(20.5051 0.848938 1.51139e-19)
(20.5675 1.37534 -5.1238e-20)
(20.6018 1.90516 0)
(20.6081 2.43605 0)
(20.5865 2.96617 8.14344e-19)
(20.5375 3.4944 1.17191e-18)
(20.461 4.01899 -1.20662e-18)
(20.3573 4.53847 -3.97692e-19)
(20.2265 5.05132 3.97626e-19)
(20.0692 5.55648 7.7829e-19)
(19.8855 6.05335 -7.78733e-19)
(19.6757 6.54009 -7.57243e-19)
(19.4411 7.01561 3.76628e-18)
(19.1831 7.47877 7.32587e-19)
(18.902 7.92809 -6.46493e-18)
(18.5986 8.36204 0)
(18.2735 8.77972 0)
(17.9281 9.18015 6.72583e-19)
(17.5631 9.56279 1.9867e-18)
(17.1794 9.92629 -5.10725e-18)
(16.7784 10.27 -7.46601e-20)
(16.3609 10.5934 1.17078e-18)
(15.9281 10.8954 1.20451e-18)
(15.481 11.1755 -4.49499e-18)
(15.0211 11.4334 0)
(14.5493 11.6694 2.11153e-18)
(14.066 11.8828 -1.95682e-18)
(13.5731 12.0717 0)
(13.0722 12.236 0)
(12.565 12.3752 -8.96767e-19)
(12.0527 12.4895 -1.63978e-18)
(11.5365 12.5784 2.33738e-18)
(11.0179 12.6422 0)
(10.4982 12.6809 0)
(9.97859 12.6943 1.18009e-18)
(9.46037 12.6828 -1.12198e-18)
(8.94487 12.6464 0)
(8.43336 12.5856 1.76927e-18)
(7.92688 12.5008 3.68815e-19)
(7.42669 12.3921 -1.02047e-18)
(6.93402 12.2601 3.55099e-20)
(6.45026 12.1054 4.30391e-19)
(5.97622 11.9287 -4.26194e-19)
(5.51309 11.7303 7.46305e-20)
(5.06204 11.5113 0)
(4.62381 11.2723 0)
(4.19944 11.0139 -1.70284e-19)
(3.78986 10.737 -3.68348e-20)
(3.39608 10.4426 2.20171e-19)
(3.01879 10.132 9.16404e-20)
(2.65862 9.80573 1.43462e-19)
(2.31639 9.46484 -1.45334e-19)
(1.99287 9.11057 -9.74205e-20)
(1.68835 8.74411 9.87503e-20)
(1.40356 8.36637 -5.89944e-19)
(1.13889 7.97877 6.43738e-19)
(0.894763 7.58246 -1.32139e-21)
(0.671493 7.17893 0)
(0.46925 6.76923 1.64009e-19)
(0.28839 6.35446 2.22801e-20)
(0.128993 5.93585 2.35818e-20)
(20.274 0.101046 -8.14344e-20)
(20.3475 0.616376 0)
(20.3931 1.13348 0)
(20.4115 1.65186 9.35267e-19)
(20.4024 2.17026 -6.25398e-19)
(20.3661 2.6875 -2.20382e-18)
(20.3029 3.20195 0)
(20.2128 3.71235 0)
(20.096 4.21729 -1.20041e-18)
(19.9526 4.7151 0)
(19.7829 5.20518 -1.75916e-18)
(19.5875 5.68527 1.16722e-18)
(19.3679 6.15354 -5.79457e-19)
(19.125 6.60964 0)
(18.8592 7.05318 2.29206e-18)
(18.5708 7.48285 1.07372e-18)
(18.2605 7.89746 -1.07588e-18)
(17.9294 8.29582 1.02354e-18)
(17.5784 8.67728 -3.02469e-18)
(17.2084 9.04064 2.03694e-18)
(16.8207 9.38476 -1.9784e-18)
(16.4163 9.7092 -1.00866e-18)
(15.9962 10.0127 -9.12456e-19)
(15.5616 10.2946 2.64756e-18)
(15.1138 10.5542 8.48646e-19)
(14.6536 10.7911 7.76613e-19)
(14.1819 11.0058 -7.0176e-19)
(13.7009 11.1971 0)
(13.2115 11.3644 0)
(12.7153 11.5071 0)
(12.2133 11.6252 0)
(11.7069 11.7184 0)
(11.1976 11.7866 0)
(10.6865 11.8299 0)
(10.1752 11.8481 -4.8999e-19)
(9.66473 11.8414 4.34961e-19)
(9.15651 11.8098 3.48465e-19)
(8.65175 11.7536 -1.69154e-18)
(8.15157 11.6733 -2.6412e-19)
(7.65732 11.5691 7.88002e-19)
(7.1702 11.4413 4.33866e-19)
(6.6916 11.2906 -3.46159e-19)
(6.22238 11.1175 1.28526e-19)
(5.76389 10.9225 9.43047e-20)
(5.31724 10.7062 -7.84907e-21)
(4.88323 10.4695 7.93729e-21)
(4.46294 10.213 9.23069e-20)
(4.05734 9.93746 0)
(3.66749 9.64389 8.03634e-20)
(3.29418 9.33327 -1.8236e-19)
(2.93806 9.00647 1.02287e-19)
(2.60005 8.66439 0)
(2.28099 8.30816 -3.04968e-19)
(1.98116 7.93893 0)
(1.70146 7.55764 0)
(1.44215 7.16571 -9.48018e-19)
(1.20385 6.76432 4.57343e-19)
(0.986779 6.35489 1.26445e-19)
(0.791501 5.93842 -1.32284e-19)
(0.618327 5.51619 0)
(0.467495 5.08943 -3.73202e-20)
(20.0662 0.477316 6.19219e-20)
(20.1281 0.97684 0)
(20.1634 1.47703 -2.47099e-19)
(20.1711 1.97756 -1.62646e-20)
(20.152 2.47713 0)
(20.1068 2.97502 1.98308e-18)
(20.0355 3.47031 9.68286e-19)
(19.9379 3.96291 0)
(19.8142 4.45053 3.19585e-20)
(19.6645 4.93106 9.3778e-19)
(19.4899 5.40271 1.42467e-18)
(19.2915 5.86412 -4.68359e-19)
(19.0697 6.31366 0)
(18.825 6.75042 0)
(18.5576 7.17395 1.72579e-18)
(18.2687 7.58339 -8.51574e-19)
(17.9591 7.97773 -7.98167e-19)
(17.6296 8.356 0)
(17.2812 8.7174 2.41105e-18)
(16.9149 9.06097 -2.31376e-18)
(16.5318 9.38579 -1.47795e-18)
(16.133 9.69113 -1.43028e-18)
(15.7195 9.9761 0)
(15.2924 10.24 -2.04393e-18)
(14.8529 10.4821 -6.66945e-19)
(14.4022 10.7019 6.09363e-19)
(13.9414 10.8988 5.9983e-19)
(13.472 11.0727 0)
(12.9949 11.2233 0)
(12.5116 11.3501 0)
(12.0231 11.453 0)
(11.5308 11.5318 0)
(11.036 11.5866 0)
(10.54 11.6173 0)
(10.0441 11.6238 -1.04833e-18)
(9.54944 11.6062 3.3566e-19)
(9.05733 11.5647 -2.67615e-19)
(8.56891 11.4995 1.27488e-18)
(8.08531 11.411 0)
(7.60776 11.2995 3.58136e-19)
(7.13745 11.1654 2.92021e-19)
(6.67562 11.0093 1.2498e-19)
(6.22328 10.8317 -7.46588e-20)
(5.78158 10.6331 -9.36285e-20)
(5.35158 10.4141 2.87468e-20)
(4.93416 10.1754 -9.68316e-22)
(4.5302 9.91774 1.02916e-19)
(4.14067 9.64192 0)
(3.76649 9.34887 0)
(3.4085 9.03943 8.04974e-20)
(3.06744 8.71454 9.72234e-20)
(2.74399 8.37512 2.09484e-19)
(2.43892 8.02212 2.3992e-19)
(2.15266 7.65668 0)
(1.88593 7.27966 2.98612e-19)
(1.63896 6.89253 3.29453e-19)
(1.41227 6.49633 0)
(1.20624 6.09253 -1.82436e-21)
(1.02138 5.68205 0)
(0.857933 5.26619 0)
(0.71617 4.84604 2.86163e-20)
(19.9169 0.436322 -1.02272e-19)
(19.9765 0.919442 2.00084e-19)
(20.0102 1.40561 -3.94598e-19)
(20.0176 1.89294 -2.12181e-19)
(19.9989 2.37985 0)
(19.9538 2.86509 -8.22055e-19)
(19.8819 3.34794 -8.16294e-19)
(19.7843 3.82694 0)
(19.6623 4.30166 3.38062e-20)
(19.5162 4.77026 -7.89335e-19)
(19.346 5.2305 1.49071e-18)
(19.1521 5.68134 1.46767e-18)
(18.935 6.12164 0)
(18.6952 6.55027 -7.15428e-19)
(18.4335 6.96593 -1.42105e-18)
(18.1507 7.36743 -7.0087e-19)
(17.8477 7.75389 2.05312e-18)
(17.5254 8.12444 -1.31933e-18)
(17.1845 8.47831 1.28388e-18)
(16.8263 8.81465 1.86404e-18)
(16.4517 9.13264 2.42052e-18)
(16.0619 9.4315 1.19669e-18)
(15.6578 9.71036 5.50989e-19)
(15.2406 9.96855 1.6655e-18)
(14.8111 10.2055 5.09922e-19)
(14.3706 10.4208 5.10488e-19)
(13.9203 10.6139 4.62615e-19)
(13.4614 10.7844 -1.34731e-18)
(12.9952 10.9321 8.35505e-19)
(12.5228 11.0565 7.79777e-19)
(12.0454 11.1576 -1.51331e-18)
(11.5643 11.2351 7.3346e-19)
(11.0808 11.2892 -6.38337e-19)
(10.5962 11.3197 2.99684e-19)
(10.1116 11.3266 2.89499e-19)
(9.62844 11.3099 2.35143e-19)
(9.14775 11.2699 -2.36701e-19)
(8.67063 11.2066 -2.23025e-19)
(8.19823 11.1206 -5.0978e-19)
(7.73177 11.0122 -2.95592e-19)
(7.27242 10.8818 -4.61479e-19)
(6.82127 10.7299 -4.28461e-19)
(6.37952 10.557 1.23279e-19)
(5.94819 10.3637 7.19461e-21)
(5.52832 10.1506 -1.23638e-21)
(5.12082 9.91809 3.12507e-20)
(4.7264 9.66708 -2.67094e-19)
(4.34608 9.39835 5.77823e-20)
(3.98067 9.11284 0)
(3.63112 8.81133 0)
(3.29803 8.49465 1.48885e-19)
(2.98223 8.1639 7.85665e-22)
(2.68432 7.81988 -1.95166e-19)
(2.40479 7.46363 0)
(2.14424 7.09599 -2.42452e-19)
(1.90288 6.71838 0)
(1.68126 6.33195 0)
(1.4796 5.93798 -2.33203e-19)
(1.2987 5.53757 -8.30568e-20)
(1.13853 5.1319 8.63022e-20)
(0.999667 4.72214 -4.57907e-20)
(19.7685 0.50731 1.84555e-21)
(19.8228 0.977557 -1.7266e-19)
(19.8517 1.45046 5.06096e-19)
(19.8553 1.92448 3.35815e-19)
(19.8335 2.39845 -4.94744e-19)
(19.7863 2.87111 3.3147e-19)
(19.7143 3.3406 -2.371e-21)
(19.6177 3.80455 -6.42076e-19)
(19.4964 4.26293 9.78095e-19)
(19.3516 4.71484 -1.27427e-18)
(19.1837 5.15929 1.19952e-18)
(18.9928 5.59478 -1.2753e-18)
(18.7795 6.02022 -6.12839e-19)
(18.5445 6.43456 0)
(18.2884 6.83645 6.31131e-19)
(18.012 7.22465 5.38884e-19)
(17.7158 7.59845 0)
(17.4009 7.95684 1.06168e-18)
(17.0681 8.29915 0)
(16.7184 8.62461 -1.0505e-18)
(16.353 8.93233 9.27955e-19)
(15.9728 9.22154 -4.02073e-20)
(15.5791 9.49133 -4.50811e-20)
(15.1725 9.74096 1.72125e-21)
(14.7542 9.97003 -1.74763e-18)
(14.3252 10.178 -7.94931e-19)
(13.8867 10.3646 1.55366e-18)
(13.4399 10.5293 1.43678e-18)
(12.986 10.6719 -7.166e-19)
(12.5262 10.792 0)
(12.0616 10.8893 0)
(11.5933 10.964 0)
(11.1226 11.0158 5.46494e-19)
(10.6509 11.045 -1.91403e-18)
(10.1795 11.0512 8.88439e-19)
(9.70933 11.0345 -4.23625e-19)
(9.24162 10.9951 -6.77751e-19)
(8.7774 10.9331 6.36357e-19)
(8.31766 10.8491 2.13778e-20)
(7.8637 10.7433 -2.00412e-19)
(7.41661 10.6163 2.20082e-19)
(6.97749 10.4685 1.42888e-19)
(6.54754 10.3005 0)
(6.12779 10.1126 -3.93994e-20)
(5.71921 9.90562 0)
(5.32277 9.67974 7.76159e-20)
(4.93893 9.43593 -4.04529e-20)
(4.56872 9.17493 0)
(4.2128 8.89772 9.43315e-20)
(3.87246 8.60497 1.95335e-20)
(3.54799 8.29744 -2.47369e-19)
(3.24022 7.97624 1.45501e-19)
(2.94994 7.64216 9.57639e-20)
(2.67737 7.29618 -1.75596e-19)
(2.42337 6.93905 8.10105e-21)
(2.18756 6.57209 -1.06551e-19)
(1.97096 6.1965 -5.74586e-20)
(1.77347 5.81359 -1.27737e-19)
(1.59621 5.42444 3.38725e-19)
(1.43882 5.03019 -1.44087e-19)
(1.30238 4.63195 1.90779e-20)
(19.6147 0.559961 3.62452e-20)
(19.6643 1.01555 0)
(19.6893 1.47336 -5.65249e-19)
(19.6898 1.93224 0)
(19.6658 2.39085 2.81339e-19)
(19.6175 2.84784 8.23266e-19)
(19.545 3.30182 5.40199e-19)
(19.4485 3.75202 1.09568e-18)
(19.3284 4.19675 9.56661e-21)
(19.1855 4.63506 -6.66022e-21)
(19.0202 5.06553 -5.90678e-20)
(18.8328 5.48717 -5.21388e-19)
(18.6237 5.89893 5.03565e-19)
(18.3936 6.29988 -1.47659e-18)
(18.1434 6.68878 1.002e-18)
(17.8736 7.06436 -4.7998e-20)
(17.5847 7.42584 -9.09042e-19)
(17.2775 7.77233 -9.31401e-19)
(16.9529 8.10331 0)
(16.6121 8.41817 8.34287e-19)
(16.2561 8.71592 -3.73376e-20)
(15.8861 8.99579 -1.64192e-18)
(15.503 9.25683 -5.74406e-21)
(15.1077 9.49815 -6.81652e-19)
(14.701 9.71955 2.07504e-18)
(14.2839 9.92054 -3.43613e-20)
(13.8576 10.1008 -6.62793e-19)
(13.4233 10.2601 -6.99241e-20)
(12.9823 10.398 0)
(12.5356 10.5141 0)
(12.0844 10.6081 0)
(11.6294 10.6802 0)
(11.1722 10.7303 0)
(10.7139 10.7586 5.3624e-20)
(10.2562 10.7647 -3.44432e-19)
(9.79962 10.7486 3.89202e-20)
(9.3455 10.7103 5.2896e-20)
(8.89472 10.6501 2.21034e-19)
(8.44807 10.5685 4.20363e-19)
(8.00699 10.466 -5.23234e-19)
(7.57261 10.3428 3.07505e-19)
(7.1458 10.1997 -9.48883e-20)
(6.728 10.0371 0)
(6.32018 9.85549 3.43839e-20)
(5.92325 9.65546 0)
(5.5384 9.4369 -4.04857e-20)
(5.16534 9.20106 7.73787e-20)
(4.80571 8.94858 -5.37787e-20)
(4.45952 8.68062 -6.78172e-20)
(4.12873 8.39757 1.01764e-19)
(3.81314 8.10007 1.9194e-20)
(3.51363 7.78942 1.53283e-20)
(3.23121 7.46616 -2.80483e-19)
(2.96576 7.13139 3.19787e-19)
(2.71851 6.7855 1.75188e-19)
(2.48832 6.43011 9.16428e-20)
(2.27693 6.0662 3.04886e-19)
(2.08329 5.69529 0)
(1.90963 5.31829 -2.33353e-19)
(1.75481 4.93643 6.19867e-20)
(1.6207 4.55056 0)
(19.4474 0.614834 0)
(19.4917 1.05512 0)
(19.5124 1.49757 2.44853e-19)
(19.5095 1.94075 -4.69181e-19)
(19.4831 2.3837 -2.42163e-19)
(19.4335 2.82512 -1.17603e-18)
(19.3607 3.26335 4.54293e-19)
(19.2645 3.69738 -9.3949e-19)
(19.1455 4.12678 1.51816e-20)
(19.0047 4.55028 1.33234e-18)
(18.8425 4.96593 -1.77894e-18)
(18.6589 5.37283 0)
(18.4544 5.76992 0)
(18.2295 6.15696 1.68592e-18)
(17.9855 6.53246 8.15069e-19)
(17.723 6.89447 -1.65456e-18)
(17.4418 7.24286 2.36967e-18)
(17.1427 7.5767 7.5398e-19)
(16.8267 7.89565 -1.47834e-18)
(16.4949 8.19944 -7.42148e-19)
(16.1488 8.48658 6.8493e-19)
(15.7893 8.75671 -7.00884e-20)
(15.4176 9.00869 0)
(15.0344 9.241 1.28383e-18)
(14.6397 9.45421 -1.8117e-18)
(14.2351 9.64779 5.83778e-19)
(13.8216 9.82127 1.05081e-18)
(13.4003 9.97497 -2.55208e-18)
(12.973 10.1078 4.9953e-19)
(12.5402 10.2199 0)
(12.1034 10.31 0)
(11.6622 10.3797 0)
(11.2194 10.4279 3.4676e-19)
(10.7751 10.4559 9.81431e-19)
(10.3322 10.4621 -5.78688e-19)
(9.89021 10.4467 2.52484e-19)
(9.4506 10.4099 2.42021e-19)
(9.01441 10.3513 -4.30591e-19)
(8.58157 10.2723 0)
(8.15402 10.1732 -2.4099e-19)
(7.73319 10.054 1.25529e-19)
(7.31911 9.91578 1.41995e-20)
(6.91387 9.75893 9.67065e-21)
(6.51861 9.58392 2.94454e-20)
(6.13372 9.39162 -1.04794e-20)
(5.76158 9.1807 1.52016e-19)
(5.3997 8.95357 -6.50193e-20)
(5.05149 8.71004 2.21719e-19)
(4.71512 8.45226 0)
(4.39489 8.17982 0)
(4.08872 7.89303 -3.99457e-19)
(3.79766 7.59384 1.08757e-19)
(3.52406 7.28231 2.49419e-19)
(3.26586 6.95968 1.47536e-19)
(3.02648 6.62567 -4.64782e-19)
(2.80181 6.2825 -2.60228e-19)
(2.59622 5.93084 -9.5775e-20)
(2.40605 5.57287 -2.11156e-21)
(2.23671 5.20894 1.02648e-19)
(2.08406 4.84028 0)
(1.95275 4.46758 0)
(19.2611 0.6671 -2.46781e-20)
(19.2994 1.091 0)
(19.3154 1.51725 0)
(19.3085 1.94407 2.07741e-19)
(19.2794 2.37041 0)
(19.2284 2.79527 8.00753e-19)
(19.1558 3.21699 3.95215e-19)
(19.06 3.63392 -7.76425e-19)
(18.9417 4.04787 0)
(18.8032 4.45675 -7.88725e-19)
(18.6453 4.85595 4.33181e-20)
(18.466 5.24731 0)
(18.2667 5.62855 0)
(18.0471 6.00079 -7.36509e-19)
(17.8096 6.36299 6.8034e-19)
(17.5555 6.7102 -7.04936e-19)
(17.2825 7.04477 -6.8755e-19)
(16.9921 7.3656 0)
(16.6852 7.67138 6.50232e-19)
(16.3627 7.96352 -1.18617e-18)
(16.0274 8.23913 -1.14646e-18)
(15.6791 8.49907 -1.17779e-18)
(15.3189 8.74221 -9.47434e-21)
(14.9494 8.96426 -9.73128e-19)
(14.5671 9.16874 1.03247e-18)
(14.1751 9.35478 9.30956e-19)
(13.7756 9.52047 -9.45347e-19)
(13.3674 9.66849 5.93255e-20)
(12.9548 9.7954 1.10866e-21)
(12.5358 9.90433 -7.91137e-19)
(12.1149 9.98931 0)
(11.6875 10.0573 -6.31349e-19)
(11.2606 10.1027 1.21651e-18)
(10.8302 10.1315 -4.61335e-20)
(10.4042 10.1381 5.21178e-19)
(9.97798 10.1235 -4.24284e-19)
(9.554 10.0886 3.60859e-19)
(9.13445 10.0313 2.58705e-19)
(8.71617 9.95506 -5.69315e-19)
(8.30271 9.85968 2.39604e-19)
(7.89706 9.74466 1.53114e-19)
(7.49558 9.61134 1.6227e-19)
(7.10298 9.46022 -3.50129e-20)