/*--------------------------------*- C++ -*----------------------------------*\
| =========                 |                                                 |
| \\      /  F ield         | OpenFOAM: The Open Source CFD Toolbox           |
|  \\    /   O peration     | Version:  2.3.1                                 |
|   \\  /    A nd           | Web:      www.OpenFOAM.org                      |
|    \\/     M anipulation  |                                                 |
\*---------------------------------------------------------------------------*/
FoamFile
{
    version     2.0;
    format      ascii;
    class       volScalarField;
    location    "2900";
    object      sigmaEq;
}
// * * * * * * * * * * * * * * * * * * * * * * * * * * * * * * * * * * * * * //

dimensions      [1 -1 -2 0 0 0 0];

internalField   nonuniform List<scalar> 
11800
(
170333
123954
548349
466543
119807
329188
159862
172477
183768
196270
168913
665712
87119.1
493771
423034
1.84388e+06
125812
124910
224131
136245
372385
601803
807584
723326
1.50975e+06
950199
979654
486631
1.06919e+06
1.16013e+06
325058
117764
949745
131074
136471
313469
138085
1.01194e+06
136410
144838
1.01537e+06
1.10817e+06
511342
1.20332e+06
342813
1.72609e+06
771852
898698
160373
232492
697964
493536
134807
215629
1.96703e+06
1.62749e+06
66169.9
457917
356606
343418
1.62212e+06
147324
364022
299927
1.48056e+06
223997
717679
510720
66179.4
878424
138490
115662
111734
1.56092e+06
1.60608e+06
305058
1.54507e+06
212074
172435
176968
2.00039e+06
121713
120173
122652
121841
1.11785e+06
348366
1.02817e+06
941582
506442
133238
1.13073e+06
149652
63272.9
179616
148581
19251.2
148483
135773
585891
78089.6
645346
1.07313e+06
374134
144012
317113
175362
153934
1.5811e+06
1.03482e+06
1.1252e+06
947731
353216
514096
212618
1.42798e+06
209235
141393
1.34116e+06
202695
195823
161389
177431
137159
146848
133579
135748
135192
98637.7
29227.7
1.82631e+06
1.21072e+06
377425
1.12e+06
539069
1.02799e+06
940442
331028
958736
467876
880126
805424
486336
188581
233264
315012
1.14917e+06
1.17866e+06
672113
359128
199584
192119
135475
249687
227799
179552
448150
615238
1.23259e+06
140817
1.81669e+06
221561
1.57276e+06
452917
492729
534063
270200
206406
1.96045e+06
1.21268e+06
427360
586801
151706
353145
352034
1.72534e+06
1.7442e+06
915768
839118
996082
448937
309582
241032
197155
424926
206606
322055
148761
165969
158307
230890
215185
205179
194391
869237
1.10622e+06
1.61474e+06
123579
212072
1.89971e+06
134521
271755
304609
139613
144044
800996
670696
615881
510049
1.82355e+06
557812
822530
2.48449e+06
2.06089e+06
2.10721e+06
327995
128518
788322
721543
662037
250498
356768
127309
125787
222296
133754
1.20323e+06
245354
135722
442507
203475
169067
135976
618884
631846
2.47968e+06
1.20107e+06
213106
223117
1.08548e+06
888255
309916
448420
997089
919722
842469
143221
1.08392e+06
378000
517959
485610
149360
125621
390802
343523
143487
2.10358e+06
269344
309703
224577
257972
661146
721004
782189
355843
252485
137826
1.59593e+06
155220
83677.3
134922
390743
145215
510393
1.86688e+06
367547
364267
549222
398381
458286
334076
1.1381e+06
952237
304258
378873
243808
291570
525716
690053
257926
1.11994e+06
1.20146e+06
1.44681e+06
164873
363756
361578
1.66782e+06
1.68338e+06
995375
979718
1.01675e+06
1.00644e+06
132448
90601.8
276142
2.17034e+06
120944
127072
284994
235910
251003
870617
890652
1.49589e+06
2.10919e+06
655910
177120
831914
686759
481367
392851
160466
166908
247708
436978
230418
404030
122559
162889
158381
142424
1.19416e+06
158148
126367
1.74856e+06
292694
667189
733808
714767
902747
869132
103797
102771
605886
791124
547864
1.42006e+06
117016
779919
607583
396665
300378
296493
227952
303147
262549
346349
380359
410834
149451
135697
724630
768956
173049
211322
437067
367786
414112
189624
178264
222166
225888
848567
405859
301695
345134
1.01085e+06
1.17563e+06
331802
189139
179343
237778
221570
412592
479274
390413
458367
359219
421882
318911
301941
621116
312324
684251
1.17897e+06
588786
432430
1.93136e+06
132336
1.23836e+06
605269
440796
1.8529e+06
139580
1.26891e+06
314454
1.07406e+06
991212
962376
180352
82012
122233
2.23096e+06
1.92867e+06
847278
302698
407015
170944
220050
250619
140050
199374
1.47433e+06
59542.4
520450
397806
1.62981e+06
104676
167730
143689
144871
143091
145349
1.63186e+06
542251
219590
621173
570911
524569
113036
1.20964e+06
393313
547931
159753
803366
176078
1.55845e+06
131796
186794
450048
414309
381254
814537
216586
452139
402887
213035
624902
681273
740473
355835
257845
63207
161623
178588
2.02538e+06
681646
537573
390551
321349
173432
146352
107017
107738
183290
96875.1
111909
122220
154846
310228
141626
184135
546070
653479
308804
1.44954e+06
190837
343176
145754
168623
1.40219e+06
1.82283e+06
563152
613796
228439
202641
117876
1.2283e+06
1.76806e+06
1.565e+06
2.26953e+06
725309
506748
666929
116486
173839
160804
178663
660289
140556
138609
118399
168210
1.22632e+06
271553
1.22852e+06
743356
160063
204393
1.02053e+06
1.27566e+06
656536
716243
775445
352308
251298
597650
137929
138861
135671
154534
124037
178276
93201.6
171580
92431.1
168907
82790.2
164911
151522
158634
109814
1.40469e+06
219696
230261
513475
820593
114934
145715
124773
121709
108778
269061
385820
127134
126071
535422
116095
172069
1.52435e+06
77854.2
155496
472501
434405
455674
494510
507638
536159
249952
189908
1.75541e+06
2.18225e+06
445929
84596.9
317583
316178
340077
243328
726093
669868
614328
162550
81533.6
699385
657118
293076
324261
165627
559163
608856
215256
983886
995607
1.00735e+06
999136
1.71407e+06
1.67726e+06
522882
2.06337e+06
734556
133025
1.44396e+06
1.24696e+06
1.35994e+06
691368
280978
304721
175405
1.46141e+06
477203
603769
2.18318e+06
196603
238676
478331
459128
1.21061e+06
623032
1.81108e+06
132098
128965
249203
352794
785144
719632
659993
1.67182e+06
144244
359981
774902
1.19096e+06
129461
1.95943e+06
1.83329e+06
1.89189e+06
219514
297716
114980
1.9345e+06
547305
224489
378219
1.80556e+06
140440
226544
241199
136741
447870
270930
2.22871e+06
1.93564e+06
190490
548263
700582
267410
314317
236959
210440
596898
184188
537936
398911
1.02606e+06
902084
160595
1.18429e+06
136901
368541
452154
1.59279e+06
298875
406812
228039
190599
173792
202378
384524
898504
990251
134075
130836
130860
173444
321566
1.20099e+06
111414
409011
736239
572804
209042
976911
1.08379e+06
700369
1.18275e+06
1.28546e+06
528983
348642
152499
178141
332410
354713
308239
339667
181606
312857
366363
217272
136298
2.25271e+06
959513
359404
483246
448785
218807
386349
561806
1.21778e+06
1.11904e+06
1.02391e+06
316221
373010
190775
200951
1.40137e+06
1.04132e+06
1.19234e+06
146313
189461
263714
614349
1.37605e+06
436691
88492.3
147689
2.05796e+06
1.9346e+06
229784
1.77259e+06
110309
153664
116529
666644
122877
211740
237266
1.22812e+06
1.3402e+06
1.45572e+06
1.57597e+06
704357
600445
499655
395440
182527
130680
387992
1.93144e+06
139661
136935
146467
141148
145097
151095
157080
1.49671e+06
756944
765449
449222
835948
910950
319302
1.07118e+06
256772
214594
145156
2.03445e+06
136305
159365
153087
159423
135929
1.85159e+06
258261
256142
1.00376e+06
322288
681650
245603
1.88583e+06
817769
404815
304728
1.27047e+06
449412
177264
150672
133998
131129
221221
245228
233623
168278
462335
152456
133299
789656
883327
118113
561290
805144
683943
925795
1.74449e+06
1.60868e+06
1.47528e+06
1.34413e+06
560815
682835
1.74904e+06
1.61278e+06
803965
1.47946e+06
925392
1.34754e+06
1.56905e+06
151462
131527
143762
229199
496971
1.10159e+06
138370
412672
561884
447142
612240
185054
236121
407188
592818
1.27746e+06
1.1739e+06
1.07385e+06
509080
379166
958458
196997
247688
161287
320379
296989
269802
546490
428169
440011
327610
130743
671808
186271
334520
412848
1.02839e+06
553074
646637
530385
194014
249704
177597
157258
150820
171014
575278
487595
138889
203488
219590
447421
1.34802e+06
438062
611847
474280
154483
210537
197812
182211
247517
181687
596069
547642
499424
198456
1.47742e+06
673082
210744
905640
608125
1.29559e+06
1.78204e+06
219013
244471
205467
144603
151024
714329
608107
1.8539e+06
127837
177725
337157
494433
217190
139096
720833
712994
61449.4
134488
349315
283575
90502.8
1.61574e+06
1.7804e+06
288173
121078
263725
367259
783149
659063
719309
2.03447e+06
133847
565499
636643
160555
583143
711987
839071
964311
1.82675e+06
1.6852e+06
1.54569e+06
1.40898e+06
582647
710723
1.83018e+06
1.6878e+06
836692
1.54862e+06
963163
1.41116e+06
1.72398e+06
1.4868e+06
1.12155e+06
465062
530630
1.48558e+06
1.11131e+06
324118
120126
115177
1.10944e+06
1.95646e+06
149054
400220
1.62319e+06
1.10691e+06
1.78277e+06
1.81683e+06
1.13972e+06
1.1437e+06
524327
417352
543973
241621
175595
291290
153630
183196
220337
188326
397895
1.89478e+06
543396
189123
116326
350651
376418
1.71853e+06
356121
321965
405162
430449
1.1103e+06
518342
376250
1.4434e+06
402785
521870
192020
162020
365365
314679
340468
851147
544071
527487
1.28441e+06
1.22855e+06
521318
549446
971537
1.04383e+06
390211
407928
135089
177769
186054
531054
412704
73620.5
160050
182669
624103
595246
319819
618656
479190
192557
120342
121026
502010
1.19965e+06
122356
1.77994e+06
256011
706756
648119
203748
253634
423166
145955
127420
1.5054e+06
375685
970651
893746
819238
301979
435884
160514
1.37666e+06
1.79269e+06
168846
142947
983867
357388
485474
839400
915738
1.00607e+06
306379
440226
61392.6
726412
372050
1.78463e+06
309403
1.02992e+06
842146
944355
139384
140442
141418
151986
150719
134655
1.48628e+06
455096
173716
202582
223037
251163
309081
343171
704745
683034
649544
627390
576450
595825
1.0532e+06
161951
136774
134164
175650
202861
144703
161587
1.24993e+06
254387
463818
388948
1.00563e+06
524319
186609
195041
432566
336168
594798
487295
1.20581e+06
1.05376e+06
969302
887330
493929
1.39155e+06
679936
1.40161e+06
246086
206262
265465
259859
182771
169349
180469
1.41629e+06
1.86032e+06
325299
114190
242360
544640
421631
121966
149217
243366
229621
234868
219755
286668
270199
205862
461571
512589
499383
554700
422314
469747
528982
130522
1.13388e+06
896703
477414
1.15778e+06
1.08828e+06
634661
1.85866e+06
347070
329586
374322
402235
185559
156073
169032
353345
142461
1.54058e+06
204962
140311
755514
58687.9
116869
1.54633e+06
177818
392071
1.25119e+06
571955
1.15042e+06
1.05283e+06
1.39404e+06
927290
151432
576020
461160
199349
1.3027e+06
589428
204912
1.07606e+06
979001
1.1731e+06
135584
137969
152829
2.24565e+06
267443
411470
501706
231736
138431
135247
397892
430830
173240
1.54867e+06
400841
1.54123e+06
235639
770489
136139
604666
724578
968949
386821
518512
621687
255673
2.1825e+06
160670
115200
138208
1.86953e+06
1.23317e+06
305549
446534
1.01746e+06
939894
861342
1.92434e+06
577291
468609
1.93886e+06
2.18666e+06
1.50072e+06
85371.2
516754
1.26632e+06
945911
512168
383071
941650
839969
389518
1.29363e+06
312477
260846
482055
423531
325336
1.51921e+06
2.29932e+06
122976
136243
159552
2.20493e+06
154905
178498
667865
510982
1.95661e+06
2.0495e+06
136046
579071
204333
193553
478871
206955
126413
517644
126950
144195
2.30961e+06
994108
549289
412179
370993
268213
753280
693863
635190
204020
2.07262e+06
407864
367725
410030
1.73723e+06
702356
1.02562e+06
143651
225139
169716
776945
465663
619836
124111
267431
362999
774210
272806
180231
155536
303557
1.93239e+06
276323
370936
766913
1.25003e+06
1.76687e+06
1.17928e+06
810150
627409
742788
80648.7
223791
306372
653014
601184
551915
1.76507e+06
141656
180487
193624
193263
193638
189966
274043
136328
136409
629851
1.58838e+06
442580
983267
904547
829181
306565
1.7964e+06
564702
642495
768070
661878
1.09463e+06
1.75544e+06
531461
144777
691590
117424
812814
487310
888020
967922
348509
1.13142e+06
280017
2.39391e+06
817173
137871
1.63315e+06
2.39883e+06
2.06556e+06
484893
134668
917977
160860
149672
115520
262432
146261
148315
129993
133674
1.48058e+06
1.55403e+06
136655
1.03146e+06
168917
159939
135469
216480
1.04644e+06
1.05311e+06
243397
1.06513e+06
1.06904e+06
1.40038e+06
461816
175237
215185
291606
584201
635494
219209
58285.2
154150
708776
328975
798779
899091
984509
1.07241e+06
549438
389357
292059
164453
143791
1.79319e+06
984468
128929
206303
870474
679250
366837
398115
188350
164926
305132
270036
114963
205582
145625
1.50153e+06
572655
1.39752e+06
136878
131079
2.40114e+06
133611
1.86044e+06
1.83207e+06
135439
846026
422682
1.47505e+06
148450
794645
922779
2.01272e+06
223338
143953
125424
455572
215986
290636
583633
533694
489480
147797
126282
167746
159316
1.0234e+06
1.12794e+06
770945
1.32197e+06
1.21209e+06
1.40854e+06
2.02914e+06
253106
646892
1.93265e+06
578497
1.82775e+06
851905
929354
1.01131e+06
446622
305864
379833
448885
1.69506e+06
158706
181630
263139
249165
231765
175186
345854
318465
298205
741926
749809
2.25203e+06
245288
121002
167894
1.78961e+06
512939
274570
264598
1.74723e+06
885368
611430
106360
189572
125258
871712
1.11313e+06
286249
1.27181e+06
176701
171796
2.32659e+06
1.52775e+06
1.87114e+06
357509
471225
831881
267331
649571
1.93023e+06
2.05808e+06
174159
200202
333473
274084
946982
1.05714e+06
721159
812564
2.14039e+06
1.98878e+06
253933
173320
106033
1.41106e+06
120901
1.85997e+06
377058
279531
997778
316619
136364
1.73715e+06
200686
254971
107386
126605
1.29687e+06
437247
140701
698313
329753
186166
141510
127135
635209
128168
1.76572e+06
1.60321e+06
289297
775478
441607
138422
153314
1.37414e+06
168957
919937
236570
504360
1.04319e+06
1.193e+06
1.68474e+06
183041
292937
1.84972e+06
231834
150333
137935
163103
130336
1.90309e+06
1.47163e+06
334963
457540
801247
793366
1.05102e+06
367530
501868
365183
527188
1.12811e+06
1.03737e+06
949293
1.5025e+06
697946
499993
1.47183e+06
503382
1.60077e+06
593113
647267
1.75842e+06
2.39851e+06
2.04521e+06
394233
397211
1.08779e+06
511785
373797
132788
332397
1.69931e+06
147079
169287
2.15219e+06
1.60598e+06
1.86503e+06
840190
1.04232e+06
1.05185e+06
907455
123543
115212
173214
117600
653914
712475
775977
359563
254910
563515
1.88984e+06
146238
194949
163872
152061
950164
858989
182500
1.67832e+06
1.90631e+06
1.0988e+06
895835
1.52936e+06
1.76126e+06
119869
845264
538288
1.16276e+06
157694
246800
264223
1.49026e+06
1.48475e+06
692876
342734
115406
136854
218021
456874
1.56651e+06
209094
1.19678e+06
145342
344201
237954
311665
536641
277236
429804
41729.9
12062.8
428969
2.24387e+06
193930
161701
165702
131728
123592
175237
181957
134158
137999
490516
132816
144406
175859
915616
1.13047e+06
811697
1.57527e+06
1.9951e+06
143173
194455
359533
161405
1.40891e+06
206163
2.08725e+06
223225
287790
557164
409590
222014
227505
528007
129591
150892
185502
121337
177711
118444
1.83612e+06
108014
150931
267219
123261
94533.8
1.78012e+06
196275
1.53731e+06
1.62726e+06
591548
387513
306145
441779
997018
927343
849877
131780
1.10826e+06
582861
129613
1.90151e+06
136387
141977
347333
1.04103e+06
814857
905881
1.26139e+06
183171
142451
387957
572294
1.25623e+06
664819
1.36253e+06
480398
1.15463e+06
1.05689e+06
383090
1.35389e+06
473874
1.24374e+06
561993
1.14391e+06
1.04691e+06
654567
1.3885e+06
176799
563685
438035
145855
182807
1.54391e+06
942523
1.27914e+06
1.18912e+06
1.03769e+06
1.28693e+06
946944
361945
397138
587218
1.4232e+06
145143
2.14517e+06
175744
143796
1.62121e+06
190161
297071
590554
589705
1.74529e+06
113281
1.09802e+06
1.01108e+06
925807
338384
494006
2.138e+06
355850
274520
636402
170261
665256
306832
330966
123255
192392
201037
173927
504375
123520
623025
334559
255147
840877
1.12175e+06
1.12797e+06
840509
414360
2.01136e+06
135760
136568
1.80146e+06
1.63402e+06
988905
2.38738e+06
1.04689e+06
901383
948101
2.12284e+06
1.03543e+06
825944
1.88443e+06
405964
424685
618853
1.65591e+06
111146
1.42055e+06
169563
248473
378932
634260
692127
752736
367861
265171
434807
75452.9
80618.9
144482
151531
206200
170437
138491
190352
1.0439e+06
1.92934e+06
229085
174493
1.77829e+06
1.26918e+06
499264
675430
143860
151234
1.54279e+06
1.02518e+06
222384
809456
758297
1.02324e+06
128103
143255
150928
130234
1.1975e+06
1.95039e+06
1.91275e+06
1.2946e+06
2.07473e+06
261875
121535
334422
1.01313e+06
927868
1.10184e+06
499575
340981
2.16431e+06
470378
590962
772758
254355
218947
906614
323084
166344
682917
260610
334736
2.01796e+06
343005
304332
1.06721e+06
982958
900979
453396
1.3727e+06
1.29091e+06
1.69124e+06
527489
546886
687973
1.43589e+06
674453
485099
1.27608e+06
246865
2.39675e+06
162200
1.82994e+06
485180
555819
132613
590111
1.12752e+06
141789
164786
159746
2.1172e+06
611156
558875
662130
326519
237926
305171
591534
1.3861e+06
597795
1.16762e+06
1.38417e+06
1.27509e+06
400430
1.28972e+06
977401
1.03586e+06
1.2263e+06
1.29065e+06
978328
1.04522e+06
1.23534e+06
714462
606598
47136.7
292075
181196
410652
603626
503492
699327
1.41927e+06
1.31029e+06
1.20409e+06
1.10193e+06
406065
1.13557e+06
556121
161165
112284
118506
200207
107696
482139
1.13791e+06
1.16534e+06
416989
1.94713e+06
165043
146767
1.52118e+06
1.88956e+06
99413.6
1.19521e+06
470923
635594
887184
508216
318551
146813
471083
685551
68461.3
138439
1.97264e+06
261594
199447
474001
435202
514268
334402
136646
141756
342018
1.19392e+06
1.85842e+06
2.15184e+06
326449
362480
1.52965e+06
1.37901e+06
1.80052e+06
118820
1.01166e+06
1.75218e+06
2.16443e+06
2.23346e+06
2.17446e+06
557532
973485
418142
2.03891e+06
1.52833e+06
623185
1.32863e+06
151317
137606
1.5815e+06
1.58341e+06
138393
429247
1.98236e+06
1.65671e+06
1.57209e+06
1.62683e+06
2.24261e+06
1.51917e+06
1.95355e+06
1.69712e+06
152937
268851
1.24324e+06
605148
1.023e+06
216401
144369
182731
168804
157803
203367
181697
420691
1.95692e+06
1.1886e+06
414098
570396
1.27377e+06
170786
591223
416110
2.29628e+06
316032
304912
570604
321878
527900
232701
184856
1.86857e+06
15334.7
149880
149555
30833.7
453175
497953
178312
195582
208669
148450
534803
517436
132725
1.98525e+06
1.698e+06
596980
1.26904e+06
430712
128172
1.48119e+06
327318
1.97404e+06
536779
656061
774328
892096
1.70454e+06
1.57383e+06
1.4437e+06
1.31819e+06
535943
653947
1.70634e+06
1.57455e+06
771350
1.44478e+06
889454
1.31817e+06
297192
229870
557865
599898
528176
252191
208628
179327
147031
138284
153347
132907
137995
231456
917176
985140
869973
487578
948200
1.04496e+06
1.63591e+06
686502
552533
1.76035e+06
587685
201647
124726
173562
145813
277283
254256
258307
143990
377674
296831
377022
769476
143177
205508
933814
152891
115436
141887
121396
1.37649e+06
168271
200133
642583
512612
257801
643638
214263
128978
117610
2.09306e+06
2.14499e+06
1.2777e+06
1.04504e+06
1.01817e+06
1.29881e+06
2.09511e+06
1.07969e+06
132951
696226
384692
296075
425584
205979
2.00398e+06
217987
1.16326e+06
1.07246e+06
982305
515948
351484
611443
355194
272415
2.02515e+06
231901
133062
664625
663349
298332
190562
229730
384956
797570
1.51084e+06
623354
496144
946057
1.2259e+06
331219
480187
1.04975e+06
964936
883586
497124
535920
877496
713620
1.00472e+06
533800
1.10614e+06
1.20679e+06
350526
1.31141e+06
2.37477e+06
1.67909e+06
118732
790423
864176
941276
292220
201113
1.43779e+06
247874
325434
408441
446422
190439
242205
198623
158044
1.35203e+06
1.03571e+06
1.08731e+06
1.303e+06
309327
1.68255e+06
2.08648e+06
769144
138892
776277
847684
923557
874519
1.02338e+06
284799
1.63257e+06
715452
654468
598469
710686
258737
356942
209004
195198
446265
527827
485239
556499
607595
660935
402882
399348
572141
574971
1.16966e+06
1.16356e+06
981851
1.07385e+06
976418
1.06827e+06
582785
635091
230061
147967
166359
194530
1.18767e+06
743685
139371
1.18295e+06
980659
938790
1.21811e+06
198941
426400
1.53544e+06
644258
1.41315e+06
1.29453e+06
110110
255145
1.06503e+06
622440
442282
1.41042e+06
498920
72879.5
1.07164e+06
981875
1.16612e+06
520484
353721
1.45916e+06
553654
448669
1.9305e+06
556030
784844
190529
145012
323780
302137
276245
1.64144e+06
403748
277048
462235
424428
499203
251416
194013
1.08999e+06
1.22683e+06
198903
695465
150302
943580
1.88827e+06
1.18971e+06
570122
428455
1.02616e+06
520686
465214
383844
253211
161814
391158
193804
472037
192347
328533
141331
155817
1.98125e+06
393916
1.6701e+06
947953
1.02242e+06
551627
413790
989872
1.80423e+06
119579
144877
148586
141373
358223
34647.5
11465.9
357527
747880
140450
785270
348329
247714
165634
519774
724795
1.52797e+06
130451
105778
166078
190954
410734
263795
1.02622e+06
914033
225438
149096
122787
2.00563e+06
748037
131551
293016
145425
2.29606e+06
1.85343e+06
292892
217459
801410
388322
548692
1.08488e+06
909823
995819
2.14438e+06
1.70451e+06
145629
1.60437e+06
2.17303e+06
1.68817e+06
1.87308e+06
815041
169084
1.10101e+06
265839
168571
205021
399815
431842
318778
316269
722903
237209
163899
126758
1.05606e+06
1.27569e+06
1.39194e+06
1.51179e+06
1.62253e+06
719075
614411
507750
400798
253889
123386
504433
23462.7
248132
247636
12746.8
541010
270885
213688
92323.3
338339
384318
138471
351762
1.06041e+06
806769
556943
395279
451224
1.97652e+06
1.51617e+06
200548
649207
137337
146804
547954
646215
676754
1.34905e+06
386755
423524
142867
1.78547e+06
150672
310562
362675
337949
1.28054e+06
1.3964e+06
722292
789330
787843
547033
704000
1.33059e+06
1.26665e+06
1.26195e+06
432106
597066
113666
126311
117871
270082
130438
588591
1.2151e+06
1.07905e+06
1.3226e+06
964590
1.33289e+06
963326
656620
445705
1.16592e+06
853445
1.16816e+06
856306
285203
1.29887e+06
1.08007e+06
946013
1.23246e+06
1.09098e+06
1.34571e+06
977956
1.34648e+06
977104
1.23255e+06
2.29834e+06
492663
690393
1.47305e+06
544555
137717
149258
230582
22805.3
230111
20173
137235
417869
1.29408e+06
1.18517e+06
1.40763e+06
621916
431743
2.02878e+06
72423.5
131856
260624
886332
287276
793217
388905
2.06766e+06
2.08624e+06
1.25412e+06
150270
277625
1.39982e+06
735896
590149
408205
732383
670252
795390
279708
389004
2.12875e+06
499549
1.89205e+06
138013
136487
131833
136715
95789.2
1.86785e+06
153568
1.36686e+06
93752.1
998018
1.2826e+06
153089
140947
196460
572029
206219
479064
439768
323945
350980
380510
165874
347452
468563
579740
391005
1.32377e+06
1.21976e+06
1.11693e+06
1.3979e+06
1.8713e+06
2.06567e+06
125258
123586
125320
136877
271167
160546
291958
2.07075e+06
2.11532e+06
2.10273e+06
1.62308e+06
64082.6
1.12437e+06
1.92501e+06
1.29419e+06
1.01899e+06
1.04127e+06
1.27734e+06
635572
570635
1.13689e+06
740812
1.35482e+06
104093
244363
308624
596120
245404
241123
275658
187926
216724
159054
184923
414769
418117
454246
451597
490240
491268
577654
570972
141902
140571
537377
349992
112156
205189
811870
1.35774e+06
142440
805737
1.74388e+06
534428
1.65565e+06
751153
213265
1.55653e+06
810781
681294
1.0799e+06
1.85683e+06
2.23478e+06
878307
367191
1.88385e+06
268013
198139
170577
421889
95725.5
794594
1.38159e+06
354330
539059
219478
137920
233826
2.02544e+06
357635
416028
401926
299049
856807
268619
214245
856022
188526
1.8282e+06
149170
1.08076e+06
396704
430654
1.69354e+06
1.4262e+06
859967
1.55807e+06
1.69433e+06
737098
1.8324e+06
616319
492487
1.42495e+06
1.55602e+06
1.83331e+06
1.69253e+06
494142
740278
863352
618292
1.87309e+06
187116
1.47004e+06
161788
115893
143482
8441.41
64242.9
799898
87610.6
1.41443e+06
288271
217789
540356
584454
496108
425540
273684
1.21717e+06
272323
292111
1.10747e+06
100883
428921
396913
393829
1.24355e+06
1.13923e+06
1.35236e+06
590389
512866
215705
366434
711943
1.41191e+06
74952
355097
213311
139445
465776
1.49734e+06
837280
721560
1.57526e+06
183083
858181
1.83766e+06
926199
1.70971e+06
155434
1.92226e+06
230827
1.28755e+06
455475
562160
139971
14838.4
148884
148526
25383.1
245950
1.32287e+06
187593
1.60408e+06
733849
263799
1.23166e+06
1.18246e+06
1.34709e+06
1.29347e+06
1.4663e+06
1.4083e+06
678402
655974
464224
449826
514806
349105
1.16979e+06
1.07881e+06
987850
312868
366878
338442
171838
1.09244e+06
952571
95692.2
190522
143861
163882
172204
1.87415e+06
1.56029e+06
403930
1.32644e+06
1.21595e+06
1.43988e+06
125872
696141
1.2662e+06
1.31407e+06
141227
132507
1.52101e+06
487577
168791
274312
320177
297131
175760
516677
476240
439996
1.73173e+06
2.294e+06
1.68107e+06
1.18588e+06
576595
416874
180773
196813
291223
210887
140105
126451
219988
629708
501702
136623
1.39149e+06
1.6089e+06
654606
579060
171784
166603
149475
156946
449790
1.51853e+06
1.15964e+06
891937
919293
1.0963e+06
134182
145854
218347
133572
134789
288980
2.37293e+06
1.88199e+06
146198
181883
785821
678297
472834
1.46998e+06
1.58985e+06
1.23529e+06
1.35026e+06
814875
417517
356920
387618
184530
227300
1.7344e+06
456409
1.10068e+06
85703.9
1.61116e+06
148267
621840
720947
2.36877e+06
134646
640318
159106
599490
167632
379537
1.16464e+06
527393
1.32794e+06
859796
1.45355e+06
1.58287e+06
744178
1.71503e+06
626882
511068
628735
511585
244574
743638
840961
1.09837e+06
138806
223387
1.36948e+06
596134
2.16877e+06
1.76806e+06
1.98138e+06
358484
1.54274e+06
728988
557956
272274
208985
2.1081e+06
1.09908e+06
132342
2.29564e+06
1.92647e+06
67002.1
660707
541036
84931.2
897246
712330
112669
180479
1.49521e+06
2.20521e+06
139724
763882
783857
1.58497e+06
1.53497e+06
555853
569716
556732
570778
143081
144352
143660
135579
107275
2.28106e+06
1.76217e+06
1.59953e+06
2.01771e+06
756310
400943
1.62893e+06
904899
990238
1.07861e+06
79044.6
1.68708e+06
291830
1.2604e+06
1.81208e+06
534429
372939
2.29719e+06
603658
633804
444773
469412
1.20551e+06
1.16518e+06
207535
204647
115217
137115
391549
1.42348e+06
1.31008e+06
1.20017e+06
592632
2.27651e+06
142801
271408
125749
1.18536e+06
1.29608e+06
754132
1.41009e+06
644933
1.53983e+06
546253
1.45351e+06
1.22147e+06
1.3352e+06
1.57277e+06
439053
776392
669815
548789
134815
185065
196157
250235
464431
391886
426621
1.86574e+06
853965
1.0418e+06
1.7308e+06
205286
307908
136699
484476
674028
233855
323533
1.75859e+06
187124
132426
136474
139024
133096
88460
211027
161026
174182
1.50029e+06
1.77613e+06
158290
137009
172819
299794
649480
1.92767e+06
1.79423e+06
805397
142621
193630
1.52551e+06
143030
144708
2.33914e+06
896969
1.75822e+06
487306
1.18865e+06
742664
732858
206409
845108
1.25063e+06
599051
431611
174085
395134
137702
103877
124309
1.89894e+06
1.09698e+06
1.11756e+06
1.85644e+06
291572
313117
165782
589275
149234
135714
147322
368330
296287
30141.8
295723
20654.3
136881
1.16975e+06
348743
503435
1.06911e+06
982862
899206
184163
2.14387e+06
712773
404664
1.83363e+06
1.08136e+06
1.12648e+06
190305
18676.9
189895
19663
1.62738e+06
409732
670772
797781
734396
153091
1.7625e+06
404776
292091
929240
713131
131984
40232.9
1.28766e+06
265633
1.29047e+06
324162
429064
794017
880573
738391
163666
652698
268821
343753
169288
181943
620979
646951
215711
387970
139883
141063
1.03367e+06
514919
378934
151008
557658
14430.7
53986.5
556583
682399
551714
815838
968612
117349
2.14343e+06
2.23606e+06
277837
139515
152400
232836
257694
26621.8
257213
22959.3
1.11508e+06
379645
525884
2.08351e+06
2.1142e+06
1.78248e+06
1.62933e+06
952268
843654
807183
716671
1.76643e+06
252989
498904
182437
121332
135861
357590
499878
714580
2.02873e+06
2.05011e+06
256911
133388
666715
726226
246451
1.10713e+06
451271
371083
1.63967e+06
164192
152841
201866
1.07192e+06
1.07706e+06
1.14126e+06
723277
363633
506993
93503.3
94275.1
1.2569e+06
133072
1.109e+06
142871
540637
878526
769885
1.29772e+06
1.51746e+06
141972
181110
410648
1.80041e+06
8782.49
108823
32274.3
109263
290635
268575
94121.6
1.9748e+06
35234.7
1.87222e+06
487540
47190.1
15224.4
486604
314754
158414
18222.5
158181
400447
1.74665e+06
402365
1.94721e+06
2.22959e+06
64962.7
630378
749028
689729
898527
428714
312918
969178
619753
108228
238473
374474
269879
665392
882202
248675
249668
2.14427e+06
759538
880992
822883
949587
1.36099e+06
129845
136233
1.13875e+06
1.38976e+06
470764
260426
299417
157225
313148
454343
145888
242051
347675
143076
99910.6
1.24347e+06
1.45547e+06
278659
612947
478727
489987
1.52773e+06
688800
299910
234479
589989
495270
125122
351372
1.3917e+06
1.76958e+06
466576
326569
820589
975578
896981
89899.2
136251
340080
243672
1.31949e+06
478416
108646
52947
80278.9
455650
321250
794032
943778
868008
141448
1.92036e+06
2.18994e+06
155371
151531
143745
139862
1.91502e+06
376197
280947
809653
2.36806e+06
1.90766e+06
532076
190483
494184
454824
279732
260536
298246
168191
150155
150016
402777
1.86956e+06
115740
1.01416e+06
1.09837e+06
1.7521e+06
1.26137e+06
1.23096e+06
468734
461978
629076
639079
298679
329053
285180
134660
134316
740861
241936
1.73358e+06
1.19313e+06
300987
132999
746405
2.22152e+06
131044
1.16221e+06
966317
916894
1.20042e+06
833601
356441
493535
1.10476e+06
196325
806567
347653
388244
201894
419451
247703
321183
883609
435921
189174
164771
216153
1.12282e+06
921848
205631
195891
185954
212157
138886
594174
456945
126171
433249
142852
249347
400881
2.0309e+06
1.78825e+06
1.21834e+06
349274
250710
781350
721655
662019
316538
317557
151685
1.1006e+06
152934
607733
794301
235059
212615
1.81521e+06
105460
354744
330454
162307
1.90962e+06
102355
138208
527826
623295
191744
181306
201788
147165
142169
1.21669e+06
115652
149757
18602.9
149489
1.21443e+06
1.14839e+06
2.17302e+06
1.31308e+06
1.64735e+06
143037
1.70235e+06
1.15555e+06
16828.6
122141
284405
217762
483657
526170
569055
748761
416730
1.74537e+06
1.01373e+06
1.10283e+06
179190
121402
117863
136437
151010
156146
237753
1.01221e+06
122321
2.18107e+06
536938
214997
1.12346e+06
730120
372254
517707
241375
208647
296370
449600
288870
598540
546387
215364
143508
762362
1.07895e+06
98204.6
105557
189974
113182
118287
1.64928e+06
427391
315984
917886
1.59218e+06
435168
310376
767819
654771
710660
600026
347801
252241
144681
9899.07
78334.7
734866
605471
861804
1.80749e+06
1.52681e+06
1.6653e+06
605597
732924
1.81294e+06
1.66961e+06
860449
1.53087e+06
202247
404888
336811
336742
130894
226562
200264
593475
285143
222281
269715
474903
1.32227e+06
652049
144012
237144
133926
146739
254294
393874
130540
133708
138022
958154
353974
470235
317478
414989
861240
732702
885511
709309
1.20621e+06
363314
207601
296844
763578
576516
272757
371511
530170
144478
300129
180732
174907
616569
619024
219469
778969
235526
253660
1.38307e+06
1.15685e+06
131341
153235
1.83691e+06
108156
184889
116426
232500
287312
938711
860850
784369
513628
520211
927226
212215
150984
139492
1.23001e+06
234331
219369
211096
203167
204209
194579
110055
180456
1.4487e+06
1.45641e+06
450654
353803
141589
997091