/*--------------------------------*- C++ -*----------------------------------*\
| =========                 |                                                 |
| \\      /  F ield         | OpenFOAM: The Open Source CFD Toolbox           |
|  \\    /   O peration     | Version:  2.3.1                                 |
|   \\  /    A nd           | Web:      www.OpenFOAM.org                      |
|    \\/     M anipulation  |                                                 |
\*---------------------------------------------------------------------------*/
FoamFile
{
    version     2.0;
    format      ascii;
    class       volVectorField;
    location    "4060";
    object      D;
}
// * * * * * * * * * * * * * * * * * * * * * * * * * * * * * * * * * * * * * //

dimensions      [0 1 0 0 0 0 0];

internalField   nonuniform List<vector> 
11800
(
(1.0025e-05 0.000284241 0)
(-1.26491e-05 0.000316797 0)
(7.02892e-06 9.51395e-05 0)
(-8.01646e-06 0.000129649 0)
(-1.15555e-05 0.000316259 0)
(-5.19244e-06 0.000129904 0)
(-1.91109e-06 0.00021308 0)
(-1.81729e-06 0.000164028 0)
(8.37376e-07 2.49061e-05 0)
(1.5362e-06 9.87019e-05 0)
(1.11302e-05 0.000283567 0)
(-9.98568e-06 0.000110412 0)
(-9.64597e-09 -7.67956e-09 0)
(6.24778e-06 9.45617e-05 0)
(-7.10999e-06 0.000130198 0)
(6.79849e-06 1.52511e-05 0)
(-1.06727e-06 0.000212456 0)
(-1.03301e-06 0.000163437 0)
(4.7427e-07 2.51831e-05 0)
(9.51374e-07 9.82102e-05 0)
(-6.11149e-06 0.000129423 0)
(-9.14974e-06 0.000110853 0)
(-1.48763e-06 5.36722e-06 0)
(-1.58802e-06 5.59003e-06 0)
(6.06955e-06 1.74291e-05 0)
(-2.38256e-06 8.91604e-06 0)
(-9.76185e-06 6.57034e-05 0)
(1.42622e-05 0.000190878 0)
(-8.68494e-06 4.97706e-05 0)
(-7.50626e-06 3.57324e-05 0)
(1.5112e-05 0.000241579 0)
(6.33882e-08 4.17526e-06 0)
(3.10965e-06 1.14734e-05 0)
(-7.68869e-06 0.000325115 0)
(6.24889e-06 0.000323647 0)
(-1.72027e-05 0.00025806 0)
(5.82167e-06 0.000324767 0)
(3.06082e-06 1.17971e-05 0)
(-1.86859e-06 0.000225109 0)
(1.54086e-06 0.000108447 0)
(-9.59884e-06 6.64434e-05 0)
(-8.54868e-06 5.04293e-05 0)
(1.3933e-05 0.000189782 0)
(-7.39737e-06 3.63086e-05 0)
(1.47768e-05 0.000240425 0)
(6.48556e-06 1.53727e-05 0)
(1.71495e-06 6.35938e-06 0)
(1.91158e-06 6.25782e-06 0)
(-2.93777e-06 0.000225303 0)
(2.39641e-06 0.0001086 0)
(-1.63345e-05 0.000166216 0)
(-1.746e-05 0.000215283 0)
(-1.60129e-06 0.000281197 0)
(8.81265e-08 3.96159e-06 0)
(-8.33312e-06 1.81758e-05 0)
(1.12759e-06 9.31967e-07 0)
(-2.14685e-05 0.000329585 0)
(-5.37662e-06 9.15754e-05 0)
(6.16581e-06 0.000133754 0)
(-3.90537e-06 8.79554e-05 0)
(2.25406e-06 2.97621e-06 0)
(-2.76042e-06 0.000281408 0)
(-4.67459e-06 9.13675e-05 0)
(5.37718e-06 0.000134002 0)
(5.68513e-06 1.71614e-05 0)
(-2.04971e-05 0.000291266 0)
(-1.69456e-05 0.000165486 0)
(-1.81753e-05 0.000214482 0)
(-2.0391e-05 0.000329051 0)
(-2.50046e-06 9.20655e-06 0)
(-6.85351e-06 0.00032603 0)
(-1.21027e-05 0.000324262 0)
(-1.24546e-05 0.000323107 0)
(-1.06269e-07 1.18285e-07 0)
(2.40703e-06 3.10443e-06 0)
(-1.6204e-05 0.000258786 0)
(7.45826e-06 2.41096e-05 0)
(-2.08297e-05 0.000292357 0)
(-1.65862e-05 0.000294833 0)
(-1.54957e-05 0.000295821 0)
(-7.94359e-06 1.7926e-05 0)
(1.23007e-06 0.000112628 0)
(1.1423e-05 0.000321717 0)
(1.01969e-05 0.000321916 0)
(-1.46608e-06 0.000115767 0)
(-7.2175e-06 4.02572e-05 0)
(1.36613e-05 0.00023278 0)
(-8.25467e-06 5.49414e-05 0)
(-9.20798e-06 7.14903e-05 0)
(1.28446e-05 0.000182543 0)
(-3.65988e-07 0.0002751 0)
(3.30478e-06 1.09049e-05 0)
(-1.03007e-05 0.000296739 0)
(2.13138e-05 0.000332113 0)
(3.37993e-06 0.000142911 0)
(-2.5699e-09 -1.95472e-09 0)
(6.64542e-11 -4.15418e-10 0)
(2.57145e-09 -1.95614e-09 0)
(-2.15693e-07 0.000284663 0)
(-9.48088e-06 0.000112865 0)
(1.83465e-05 0.000330923 0)
(1.10761e-05 0.000124058 0)
(-4.00802e-06 1.59527e-05 0)
(-9.02242e-07 1.23032e-05 0)
(-5.91452e-07 0.000314838 0)
(1.10676e-06 2.60572e-05 0)
(-2.33411e-06 0.000161618 0)
(-2.42796e-06 0.000210408 0)
(3.50329e-06 5.94324e-06 0)
(8.32907e-06 5.49174e-05 0)
(7.28311e-06 4.02357e-05 0)
(9.29108e-06 7.14631e-05 0)
(-1.38403e-05 0.000232808 0)
(-1.30148e-05 0.000182583 0)
(1.98228e-06 9.66828e-05 0)
(2.77239e-06 5.41753e-06 0)
(2.03307e-05 0.000292459 0)
(-8.30849e-06 0.000300222 0)
(2.82287e-06 5.21942e-06 0)
(-1.38161e-06 9.9935e-05 0)
(-8.24342e-07 2.42464e-05 0)
(1.86258e-06 0.000214651 0)
(1.76753e-06 0.000165435 0)
(-2.56056e-06 0.000205817 0)
(-1.03679e-05 0.00029786 0)
(-9.02527e-07 0.000283772 0)
(-6.65863e-06 0.000314963 0)
(-1.54466e-06 0.000314105 0)
(-2.30387e-05 0.000340521 0)
(-2.38619e-05 0.000339696 0)
(-6.60029e-07 2.96642e-07 0)
(-3.00121e-06 7.02777e-06 0)
(1.40143e-05 0.000225841 0)
(-7.75049e-06 4.40297e-05 0)
(1.31271e-05 0.000176031 0)
(-8.79777e-06 5.92313e-05 0)
(-9.7593e-06 7.62557e-05 0)
(1.29312e-05 0.000226047 0)
(-7.14214e-06 4.38978e-05 0)
(1.21139e-05 0.000176221 0)
(-8.1092e-06 5.9085e-05 0)
(-8.99716e-06 7.60962e-05 0)
(-1.87891e-06 2.2452e-05 0)
(4.54383e-06 0.000218776 0)
(4.23824e-06 0.000169408 0)
(-3.58351e-06 0.000103209 0)
(1.74143e-05 0.000113336 0)
(-1.72967e-05 0.000110854 0)
(1.08956e-05 0.000124961 0)
(-1.2648e-06 1.3058e-05 0)
(-1.14669e-05 0.000273828 0)
(-1.13677e-05 0.000275282 0)
(5.60385e-06 0.000321166 0)
(-1.28246e-05 0.00025842 0)
(5.14516e-06 0.000182452 0)
(5.58368e-06 0.000232657 0)
(-1.42828e-05 0.000204924 0)
(-1.32425e-05 0.00015652 0)
(6.6787e-06 2.87279e-05 0)
(-1.04608e-06 0.000276134 0)
(3.80837e-06 6.04927e-06 0)
(-1.172e-05 0.000258676 0)
(7.80697e-06 2.44594e-05 0)
(-5.2165e-06 7.44197e-05 0)
(-4.69263e-06 5.75648e-05 0)
(-4.12246e-06 4.25482e-05 0)
(7.14921e-06 0.000178324 0)
(7.62281e-06 0.0002283 0)
(-3.3582e-06 4.15115e-06 0)
(-6.12043e-06 2.76327e-05 0)
(1.33362e-05 0.0002072 0)
(1.23567e-05 0.000158655 0)
(2.97984e-06 0.000210176 0)
(-1.95975e-05 0.000256856 0)
(-1.97952e-05 0.000258399 0)
(6.98816e-06 1.74601e-05 0)
(6.99791e-06 1.79426e-05 0)
(7.70733e-06 5.33238e-05 0)
(8.61672e-06 6.96877e-05 0)
(6.7193e-06 3.88359e-05 0)
(-1.22407e-05 0.000185051 0)
(-1.30013e-05 0.00023545 0)
(5.23379e-06 0.000181306 0)
(5.61446e-06 0.000231476 0)
(5.68441e-06 0.000110406 0)
(-2.71192e-06 0.000102975 0)
(-1.429e-06 2.2568e-05 0)
(3.43919e-06 0.000218482 0)
(3.20683e-06 0.000169133 0)
(-4.46854e-06 0.000270077 0)
(-1.50465e-06 4.71658e-05 0)
(-1.69861e-06 6.27956e-05 0)
(-1.68658e-05 0.000289021 0)
(-4.59032e-07 1.07109e-05 0)
(-1.62665e-05 0.000135927 0)
(1.40272e-05 8.99994e-05 0)
(1.61606e-07 1.54167e-07 0)
(-1.00938e-05 0.000325634 0)
(2.01889e-05 0.000293638 0)
(-5.75901e-07 3.43637e-07 0)
(1.32997e-05 0.000307794 0)
(1.66122e-05 0.000262966 0)
(1.78166e-05 0.000263183 0)
(-5.18968e-07 0.000316436 0)
(-1.35016e-06 0.000317452 0)
(9.38035e-06 8.78153e-05 0)
(8.28627e-06 8.8205e-05 0)
(-1.10966e-05 0.000138246 0)
(-9.77636e-06 0.000137759 0)
(6.50656e-07 2.92508e-07 0)
(-1.83216e-06 1.5673e-05 0)
(-2.06249e-06 8.72523e-06 0)
(-4.81638e-08 1.81196e-08 0)
(6.2817e-06 1.03446e-05 0)
(-1.49827e-07 4.76017e-08 0)
(8.16354e-07 8.56937e-06 0)
(-1.14489e-05 0.00031477 0)
(-5.51663e-06 3.92888e-05 0)
(-6.30574e-06 5.38565e-05 0)
(-7.04452e-06 7.02875e-05 0)
(1.0533e-05 0.00023451 0)
(9.94052e-06 0.000184187 0)
(6.81993e-07 0.000218076 0)
(6.34193e-07 0.000168751 0)
(-2.92373e-07 2.27298e-05 0)
(-5.56588e-07 0.000102668 0)
(-2.19796e-07 3.65388e-08 0)
(8.59528e-07 2.8433e-05 0)
(-1.72418e-06 0.000156815 0)
(-5.17551e-06 9.91562e-05 0)
(1.19873e-06 2.80148e-05 0)
(-2.42705e-06 0.000157647 0)
(-7.82463e-06 0.00029782 0)
(9.68274e-06 0.000111217 0)
(9.02084e-06 0.000110361 0)
(4.79595e-08 1.80509e-08 0)
(2.19461e-07 3.64864e-08 0)
(-1.51742e-05 0.000277156 0)
(-1.45979e-05 0.000278334 0)
(-1.43099e-05 9.41474e-05 0)
(1.61258e-05 0.000131071 0)
(1.29209e-05 0.00023535 0)
(1.21625e-05 0.000184963 0)
(-6.70805e-06 3.88929e-05 0)
(-7.69632e-06 5.33847e-05 0)
(-8.60376e-06 6.97558e-05 0)
(-4.64167e-07 0.000282635 0)
(-5.65521e-06 2.6434e-05 0)
(1.26081e-05 0.000209798 0)
(1.17003e-05 0.000161063 0)
(7.73416e-06 0.000112382 0)
(6.53398e-06 0.000266502 0)
(1.02596e-05 0.000332513 0)
(1.04448e-06 8.44501e-06 0)
(-3.793e-06 8.88607e-05 0)
(-9.61976e-09 3.11756e-06 0)
(1.49413e-07 4.74923e-08 0)
(3.65855e-06 9.3774e-05 0)
(3.14856e-06 9.27927e-05 0)
(-3.96827e-06 0.00013131 0)
(-3.39966e-06 0.000132282 0)
(7.04234e-06 7.02666e-05 0)
(6.30372e-06 5.38377e-05 0)
(5.50126e-06 3.92792e-05 0)
(-9.96091e-06 0.000184188 0)
(-1.05853e-05 0.00023454 0)
(-5.60584e-06 0.000325732 0)
(1.898e-06 2.30213e-06 0)
(3.4671e-09 0.00018706 0)
(-1.61945e-08 3.76079e-05 0)
(7.46044e-06 0.00031428 0)
(6.07568e-06 0.000109605 0)
(-2.36276e-05 0.000310547 0)
(6.98291e-06 0.000113195 0)
(2.70432e-07 1.97484e-07 0)
(1.9444e-05 0.000253674 0)
(1.95561e-05 0.000252245 0)
(-1.18811e-05 0.000161268 0)
(-1.28022e-05 0.000210012 0)
(-1.0614e-05 0.000160861 0)
(-1.14399e-05 0.000209576 0)
(5.7066e-06 2.6337e-05 0)
(5.1167e-06 2.65113e-05 0)
(5.78504e-06 0.000148102 0)
(6.88084e-06 0.00014793 0)
(6.27907e-06 0.0001958 0)
(7.47133e-06 0.000195611 0)
(-3.17882e-06 3.30667e-05 0)
(-3.78663e-06 3.31745e-05 0)
(-6.64832e-07 1.48526e-05 0)
(3.36051e-06 9.4679e-06 0)
(3.14594e-06 9.13986e-06 0)
(3.20935e-06 6.9151e-06 0)
(5.58746e-06 0.00026765 0)
(-1.92823e-05 0.000254142 0)
(-1.93853e-05 0.000252658 0)
(7.22054e-06 1.95045e-05 0)
(7.07795e-06 1.89476e-05 0)
(1.52801e-05 0.00011336 0)
(1.54866e-05 0.000114635 0)
(-1.51641e-05 0.000110765 0)
(-1.52436e-05 0.000109512 0)
(6.9125e-06 0.000320951 0)
(-1.89224e-05 0.000325145 0)
(-1.81895e-05 0.000273594 0)
(4.24136e-06 4.77331e-06 0)
(-1.11132e-05 0.000321056 0)
(-9.92321e-06 0.000319953 0)
(4.70731e-06 0.000149801 0)
(-2.91198e-06 0.000134582 0)
(2.59305e-06 9.08727e-05 0)
(-1.30066e-05 0.000113784 0)
(1.2746e-05 0.000110232 0)
(-6.13706e-06 1.91651e-05 0)
(-1.79395e-07 1.13575e-07 0)
(9.67639e-07 3.92403e-06 0)
(1.16818e-06 9.69901e-05 0)
(-1.09454e-05 9.76812e-05 0)
(1.17966e-05 0.000126852 0)
(-6.29975e-06 8.88969e-05 0)
(7.50613e-06 0.000136945 0)
(3.80665e-06 0.000239027 0)
(5.25143e-06 0.000238511 0)
(-2.23004e-06 5.11257e-05 0)
(-3.07951e-06 5.14349e-05 0)
(-2.50136e-06 6.72441e-05 0)
(-3.45259e-06 6.75892e-05 0)
(5.9605e-07 2.58785e-05 0)
(-1.27379e-06 0.000161982 0)
(-1.29086e-06 0.000210821 0)
(-2.09087e-06 0.00030904 0)
(2.93529e-06 6.87076e-06 0)
(-5.85597e-07 0.000131117 0)
(-8.98193e-06 0.000316813 0)
(1.21506e-06 9.66947e-07 0)
(8.03563e-06 0.000187959 0)
(-4.33125e-06 3.7194e-05 0)
(-1.35624e-05 0.000132512 0)
(-1.27374e-05 0.000131848 0)
(1.18518e-05 9.28159e-05 0)
(1.11725e-05 9.33815e-05 0)
(-1.34543e-05 0.000330413 0)
(-1.36026e-05 0.000328991 0)
(-2.2011e-06 1.4946e-05 0)
(-2.61025e-06 1.48894e-05 0)
(1.0594e-06 4.11311e-06 0)
(-2.50654e-06 4.26921e-06 0)
(6.36889e-07 0.000137611 0)
(3.87261e-06 2.68171e-05 0)
(3.25674e-06 2.69882e-05 0)
(-7.98491e-06 0.000160154 0)
(-6.69413e-06 0.000159774 0)
(-8.60883e-06 0.000208826 0)
(-7.21883e-06 0.000208419 0)
(-1.7453e-05 0.000264748 0)
(-1.61504e-05 0.000264854 0)
(-3.81286e-06 7.95041e-05 0)
(-3.52193e-06 6.21357e-05 0)
(-3.11692e-06 4.65826e-05 0)
(5.52545e-06 0.000246977 0)
(-9.40692e-07 0.000279882 0)
(1.14681e-05 0.000110125 0)
(1.0859e-05 0.000111086 0)
(5.09614e-06 0.000213538 0)
(4.87121e-06 0.000164468 0)
(-2.27607e-06 2.47144e-05 0)
(2.14518e-06 2.76821e-05 0)
(1.76541e-06 2.82228e-05 0)
(-3.95264e-06 0.000205776 0)
(-4.70334e-06 0.000206842 0)
(-4.35407e-06 0.000158333 0)
(-3.5478e-06 0.000157245 0)
(-4.52887e-06 2.53698e-05 0)
(9.58059e-06 0.000163198 0)
(1.03098e-05 0.000212101 0)
(-1.2205e-07 1.1591e-06 0)
(1.70564e-05 0.000125738 0)
(-1.56512e-05 9.89964e-05 0)
(-6.84382e-08 1.0782e-06 0)
(-5.1457e-06 0.000235302 0)
(-6.03525e-06 0.000236601 0)
(-4.71867e-06 0.000185009 0)
(-5.52641e-06 0.000186239 0)
(2.99533e-06 3.81043e-05 0)
(2.58055e-06 3.87758e-05 0)
(3.54416e-06 5.25666e-05 0)
(3.04222e-06 5.33338e-05 0)
(3.96677e-06 6.88542e-05 0)
(3.40112e-06 6.97122e-05 0)
(1.9255e-05 0.000265263 0)
(1.96135e-05 0.000266617 0)
(-1.79047e-06 8.79672e-06 0)
(7.2263e-06 0.000188899 0)
(-3.86693e-06 3.66784e-05 0)
(6.28222e-06 2.89757e-05 0)
(-1.23961e-05 0.000155999 0)
(-1.34017e-05 0.000204331 0)
(-1.74668e-07 5.30266e-08 0)
(2.50658e-06 0.000276499 0)
(6.20245e-06 2.76387e-05 0)
(-1.25694e-05 0.000158649 0)
(-1.35783e-05 0.00020715 0)
(4.69656e-06 8.03406e-06 0)
(-9.49825e-06 0.000299788 0)
(5.9482e-06 2.20421e-05 0)
(-1.50006e-05 0.000245907 0)
(-3.1737e-06 1.18249e-05 0)
(-3.38621e-06 1.22603e-05 0)
(3.32519e-06 1.21322e-05 0)
(-1.61524e-06 0.000130913 0)
(-1.23192e-08 -9.06583e-09 0)
(-1.00864e-05 0.000328597 0)
(-1.56619e-07 6.22117e-08 0)
(1.74107e-07 5.28795e-08 0)
(-4.64993e-06 2.6769e-05 0)
(1.0289e-05 0.000208981 0)
(9.5432e-06 0.0001603 0)
(7.93001e-06 0.000276936 0)
(-2.27496e-05 0.000297211 0)
(2.91825e-06 0.000122491 0)
(-1.86944e-06 0.000119271 0)
(-5.08613e-07 1.23749e-05 0)
(-1.4292e-06 1.48824e-06 0)
(-8.89349e-09 -8.00825e-09 0)
(-5.65068e-06 8.97317e-05 0)
(6.72951e-06 0.000135981 0)
(4.85509e-07 1.70035e-07 0)
(-7.49414e-07 0.000117505 0)
(-7.06741e-07 0.000116363 0)
(-1.40592e-08 9.85455e-05 0)
(-1.31767e-07 2.50306e-05 0)
(2.58597e-07 0.000163756 0)
(2.32702e-07 0.000212879 0)
(-4.87654e-07 1.70758e-07 0)
(2.01354e-06 1.33897e-05 0)
(-7.84815e-06 0.000241882 0)
(4.47458e-06 4.94983e-05 0)
(5.03158e-06 6.54143e-05 0)
(5.53899e-06 8.30962e-05 0)
(1.65139e-05 0.000315362 0)
(-6.02509e-06 2.3938e-05 0)
(1.41597e-05 0.000215543 0)
(1.31854e-05 0.00016641 0)
(-9.35229e-06 0.000290806 0)
(1.35093e-06 3.42965e-06 0)
(1.26252e-05 0.000285383 0)
(-2.67624e-06 4.20479e-06 0)
(8.84854e-06 0.000316621 0)
(-6.76456e-06 0.000241909 0)
(3.85281e-06 4.94767e-05 0)
(4.33261e-06 6.53915e-05 0)
(4.77269e-06 8.30666e-05 0)
(1.18014e-06 3.24976e-06 0)
(5.83137e-06 0.000193712 0)
(-3.00417e-06 3.41312e-05 0)
(-1.01477e-06 1.33334e-05 0)
(-1.6558e-05 0.000286402 0)
(-6.1324e-06 7.46969e-05 0)
(-5.51826e-06 5.78163e-05 0)
(-4.84972e-06 4.27715e-05 0)
(8.34364e-06 0.000178031 0)
(8.89756e-06 0.000227986 0)
(2.27553e-05 0.000334302 0)
(1.3252e-05 0.00029323 0)
(1.46916e-05 0.000292724 0)
(1.82718e-07 1.27407e-07 0)
(8.21489e-06 8.92279e-05 0)
(-9.62108e-06 0.00013654 0)
(-4.17425e-06 9.05085e-05 0)
(4.89953e-06 0.000135109 0)
(-1.40512e-06 0.000145593 0)
(-1.06684e-06 0.000236845 0)
(6.85673e-07 6.86749e-05 0)
(6.12487e-07 5.24034e-05 0)
(3.91284e-08 3.68296e-05 0)
(-2.27396e-07 0.00014146 0)
(-9.81674e-08 0.00018855 0)
(1.04205e-05 0.000333849 0)
(5.87741e-07 1.37345e-05 0)
(-2.5223e-07 3.16359e-06 0)
(2.00228e-06 0.000200233 0)
(1.00374e-07 3.27206e-06 0)
(-1.52282e-06 1.02503e-05 0)
(3.83546e-06 3.67401e-05 0)
(-7.26283e-06 0.000188776 0)
(-1.42537e-07 1.56292e-07 0)
(-1.53358e-05 0.000286268 0)
(-1.26601e-06 2.45507e-05 0)
(2.73181e-06 0.00021402 0)
(2.70795e-06 0.000164789 0)
(3.41438e-07 8.1926e-08 0)
(-4.50027e-06 8.16613e-06 0)
(5.01065e-06 6.70425e-05 0)
(4.46609e-06 5.09497e-05 0)
(-7.71809e-06 0.000239374 0)
(1.49614e-06 9.33113e-05 0)
(-1.03728e-05 0.000324353 0)
(-1.71456e-07 2.40379e-08 0)
(-5.89692e-06 1.27895e-05 0)
(3.82013e-06 7.03205e-06 0)
(-3.84205e-06 4.20344e-06 0)
(1.15466e-05 0.000112153 0)
(8.78743e-06 0.000136567 0)
(-7.52141e-06 8.91969e-05 0)
(5.41817e-07 3.64521e-05 0)
(-1.2484e-06 0.000141999 0)
(-1.04439e-06 0.000189256 0)
(1.10448e-05 0.000282128 0)
(1.02651e-05 0.000122898 0)
(5.35727e-06 0.000326868 0)
(5.16128e-06 0.000328092 0)
(1.49951e-06 0.000135926 0)
(2.0404e-06 9.26088e-05 0)
(1.71184e-07 2.40023e-08 0)
(-1.48214e-05 0.000255714 0)
(5.34649e-06 1.82796e-05 0)
(1.85727e-08 2.49878e-07 0)
(2.84555e-06 0.000182362 0)
(3.71642e-06 0.000182997 0)
(5.00531e-09 2.1724e-08 0)
(-2.80041e-06 6.80221e-06 0)
(7.01372e-06 6.81707e-05 0)
(6.26098e-06 5.19622e-05 0)
(5.44668e-06 3.75828e-05 0)
(-1.00887e-05 0.000187073 0)
(-1.07048e-05 0.0002377 0)
(9.33162e-06 0.000116937 0)
(1.37401e-06 0.000276796 0)
(-6.03347e-06 0.00031227 0)
(-5.71201e-06 0.000313923 0)
(-5.76538e-07 0.000240698 0)
(-4.93349e-07 0.000242026 0)
(4.14728e-07 4.93644e-05 0)
(3.78676e-07 5.00977e-05 0)
(4.66378e-07 6.52696e-05 0)
(4.25325e-07 6.60929e-05 0)
(3.09407e-07 8.29352e-05 0)
(3.69016e-07 8.38164e-05 0)
(7.41975e-07 0.000136382 0)
(1.35621e-06 0.000138582 0)
(2.35441e-06 0.000211521 0)
(-5.88684e-07 0.000145234 0)
(-3.4205e-07 8.20673e-08 0)
(-3.82029e-07 3.01673e-06 0)
(5.13712e-06 0.000192679 0)
(-2.67016e-06 3.46622e-05 0)
(1.34457e-06 4.19183e-06 0)
(2.00427e-05 0.000316917 0)
(-1.51992e-06 0.000243087 0)
(9.47082e-07 4.88067e-05 0)
(1.06604e-06 6.46428e-05 0)
(1.05261e-06 8.2207e-05 0)
(-1.53036e-05 0.000266122 0)
(5.27172e-06 9.48301e-05 0)
(7.82226e-06 0.000336451 0)
(8.84489e-06 0.0003357 0)
(-1.51363e-06 1.05701e-05 0)
(-9.65817e-07 0.000186075 0)
(5.11925e-07 3.81465e-05 0)
(2.24548e-07 2.27847e-07 0)
(1.96667e-05 0.000325886 0)
(-2.64922e-07 5.33692e-06 0)
(-3.67713e-06 5.54181e-05 0)
(-4.09923e-06 7.2035e-05 0)
(-4.90629e-06 7.27948e-05 0)
(-4.4052e-06 5.61022e-05 0)
(-3.18123e-06 4.06442e-05 0)
(-3.84917e-06 4.12613e-05 0)
(6.50791e-06 0.000180561 0)
(6.93404e-06 0.000230691 0)
(2.79748e-06 3.80405e-06 0)
(-1.79509e-07 1.08819e-07 0)
(-1.69532e-05 0.000220105 0)
(-1.76641e-05 0.000325219 0)
(5.76794e-06 0.000138472 0)
(-4.88738e-07 5.46148e-06 0)
(-9.16627e-06 0.000180232 0)
(-9.76081e-06 0.000230329 0)
(5.21576e-06 4.15134e-05 0)
(5.94904e-06 5.63841e-05 0)
(6.62317e-06 7.31044e-05 0)
(8.5208e-06 0.000277858 0)
(1.93387e-05 0.000327047 0)
(-1.0383e-05 0.000113165 0)
(4.27135e-06 3.71841e-05 0)
(-8.05446e-06 0.000187952 0)
(5.51948e-06 0.000139554 0)
(-2.08378e-06 9.93189e-05 0)
(5.54892e-06 6.76163e-05 0)
(4.94973e-06 5.14632e-05 0)
(-8.50813e-06 0.000238509 0)
(-1.54397e-05 0.000114471 0)
(1.50712e-05 0.000109738 0)
(1.50715e-05 0.000110967 0)
(-1.52362e-05 0.000113166 0)
(-7.09029e-06 1.89364e-05 0)
(-7.29847e-06 1.95272e-05 0)
(-7.158e-06 0.000110949 0)
(-3.62117e-06 4.30408e-06 0)
(-1.15848e-05 0.000111804 0)
(-1.68856e-06 0.00026767 0)
(-1.48034e-06 1.76705e-06 0)
(1.16305e-05 6.50725e-05 0)
(1.03388e-05 4.92169e-05 0)
(-1.64332e-05 0.000167671 0)
(2.6538e-06 6.76579e-05 0)
(2.36744e-06 5.14956e-05 0)
(-4.08068e-06 0.0002384 0)
(5.42568e-06 1.6327e-05 0)
(9.0888e-06 0.000135456 0)
(-7.83408e-06 9.01591e-05 0)
(-4.27327e-06 4.79473e-06 0)
(4.67773e-06 0.00021237 0)
(4.4682e-06 0.000163425 0)
(-2.11165e-06 2.52035e-05 0)
(1.35479e-05 0.000200497 0)
(-6.58709e-06 3.08247e-05 0)
(1.25006e-05 0.000152456 0)
(-7.50016e-06 1.86844e-05 0)
(9.55295e-06 0.0003129 0)
(1.09551e-05 0.000312442 0)
(1.05533e-05 0.000237707 0)
(9.99901e-06 0.000187093 0)
(-5.42404e-06 3.76901e-05 0)
(-6.20393e-06 5.1956e-05 0)
(-6.9499e-06 6.8164e-05 0)
(-1.5591e-06 1.53179e-06 0)
(-8.36855e-06 0.000290508 0)
(9.15224e-06 0.00018501 0)
(-5.04187e-06 3.88241e-05 0)
(-9.47469e-07 1.17587e-06 0)
(7.8264e-06 0.000316414 0)
(1.88378e-06 1.54301e-06 0)
(1.56227e-06 1.16991e-06 0)
(3.96376e-06 5.62689e-06 0)
(9.46005e-06 0.000254166 0)
(-1.59933e-05 0.000261185 0)
(2.13123e-05 0.000317323 0)
(4.01465e-06 5.9154e-06 0)
(9.34797e-06 0.00012286 0)
(1.28357e-05 0.000269543 0)
(-2.05966e-05 0.000254825 0)
(7.5138e-06 1.87263e-05 0)
(-4.72148e-06 0.000271241 0)
(1.92439e-06 6.78688e-05 0)
(1.71724e-06 5.16834e-05 0)
(-2.96166e-06 0.000238073 0)
(-7.04584e-07 3.3802e-06 0)
(5.46889e-06 0.000146135 0)
(1.55179e-07 6.16828e-08 0)
(-6.23408e-06 1.2666e-05 0)
(-1.10352e-06 0.000120015 0)
(-2.79223e-06 2.30218e-05 0)
(-3.25025e-06 2.31742e-05 0)
(6.22193e-06 0.000168177 0)
(7.22177e-06 0.000167863 0)
(7.74895e-06 0.000217115 0)
(6.67503e-06 0.000217454 0)
(1.83401e-07 6.79073e-07 0)
(-4.51984e-08 8.53086e-06 0)
(-1.11556e-05 0.000151033 0)
(-1.2102e-05 0.000198958 0)
(5.93643e-06 3.15555e-05 0)
(-3.48296e-06 1.87602e-05 0)
(-2.08634e-06 0.000204591 0)
(-3.15104e-06 8.0217e-06 0)
(6.54773e-06 0.000313402 0)
(-5.25053e-06 0.000102148 0)
(-6.0847e-06 0.00010189 0)
(1.79077e-07 1.80333e-07 0)
(-3.47676e-06 0.000105662 0)
(-1.75443e-06 2.11748e-05 0)
(4.08441e-06 0.000172315 0)
(4.371e-06 0.000221888 0)
(-4.88781e-06 0.000204625 0)
(-4.29846e-06 0.000156191 0)
(2.16325e-06 2.87625e-05 0)
(2.86824e-06 1.07721e-05 0)
(2.66393e-06 1.03799e-05 0)
(1.40692e-06 0.000101849 0)
(-1.81579e-06 0.000217035 0)
(-1.7005e-06 0.000167758 0)
(7.52703e-07 2.31793e-05 0)
(-1.65997e-06 3.99981e-05 0)
(-2.9674e-06 8.24607e-06 0)
(1.21896e-05 0.000320788 0)
(-1.18712e-05 0.000191504 0)
(9.1379e-06 8.98018e-05 0)
(-1.06564e-05 0.000135894 0)
(1.29926e-05 0.000270764 0)
(-1.18859e-05 8.25117e-05 0)
(-1.08126e-05 6.48779e-05 0)
(1.45796e-05 0.000144696 0)
(-9.60867e-06 4.90404e-05 0)
(-8.30366e-06 3.51218e-05 0)
(1.59312e-05 0.000192105 0)
(1.68461e-05 0.000242938 0)
(-4.36412e-06 0.000232431 0)
(-4.10397e-06 0.000182202 0)
(2.61905e-06 5.50589e-05 0)
(2.29134e-06 4.03435e-05 0)
(2.92095e-06 7.16365e-05 0)
(2.50513e-06 5.5854e-05 0)
(-4.14465e-06 0.000231123 0)
(2.79084e-06 7.25219e-05 0)
(2.1949e-06 4.10403e-05 0)
(-3.89504e-06 0.000180972 0)
(-2.29874e-06 0.000295089 0)
(-4.62151e-06 6.03703e-06 0)
(-5.03265e-06 2.84899e-05 0)
(1.07806e-05 0.000205271 0)
(9.97677e-06 0.000156862 0)
(-3.16387e-06 3.84081e-05 0)
(5.80843e-06 0.000185722 0)
(1.59912e-05 0.000230301 0)
(1.50156e-05 0.00018022 0)
(-8.58953e-06 4.16241e-05 0)
(-9.79593e-06 5.64922e-05 0)
(-1.09044e-05 7.321e-05 0)
(1.68499e-05 0.000251443 0)
(1.83897e-05 0.000251122 0)
(4.09806e-07 7.27678e-06 0)
(-1.68747e-06 0.000118042 0)
(-4.48294e-06 1.23455e-05 0)
(2.28968e-07 4.23025e-07 0)
(-4.4155e-06 1.5691e-05 0)
(-7.04021e-07 0.000268207 0)
(1.8559e-07 6.9631e-06 0)
(-3.68292e-06 0.000126539 0)
(1.5265e-05 0.000167771 0)
(-6.87475e-06 2.33709e-05 0)
(1.63789e-05 0.000216997 0)
(-1.50967e-08 -1.0462e-08 0)
(1.02864e-06 0.000200425 0)
(2.87223e-07 1.20668e-07 0)
(1.96074e-07 1.43856e-07 0)
(2.71576e-06 0.000143779 0)
(-3.27828e-07 2.63625e-07 0)
(1.24572e-05 0.000323195 0)
(9.37904e-07 0.000182944 0)
(-4.88532e-07 3.98761e-05 0)
(2.69502e-06 1.59727e-05 0)
(1.72165e-06 0.000182373 0)
(-9.52997e-07 4.01688e-05 0)
(-1.60337e-07 3.52067e-06 0)
(-1.16114e-05 6.50389e-05 0)
(-1.03209e-05 4.91874e-05 0)
(-8.92048e-06 3.52592e-05 0)
(-7.40675e-06 2.34281e-05 0)
(1.64312e-05 0.000167707 0)
(1.70851e-05 0.000191893 0)
(1.76307e-05 0.000216924 0)
(1.80731e-05 0.000242717 0)
(-7.98808e-06 0.00026196 0)
(-7.09674e-06 0.000311661 0)
(-2.29552e-05 0.000257156 0)
(8.19384e-06 1.79319e-05 0)
(5.25244e-06 0.000330477 0)
(6.10807e-06 0.000329047 0)
(1.63854e-06 0.000178314 0)
(1.77713e-06 0.000228317 0)
(-1.24638e-06 7.45069e-05 0)
(-1.12128e-06 5.7639e-05 0)
(-9.85112e-07 4.26084e-05 0)
(-6.51004e-06 1.87334e-05 0)
(2.37258e-06 1.34165e-05 0)
(-8.86095e-06 7.8076e-05 0)
(1.1769e-05 0.00017353 0)
(-8.00383e-06 6.08725e-05 0)
(-7.06976e-06 4.54759e-05 0)
(1.25836e-05 0.000223174 0)
(-4.94781e-06 2.07675e-05 0)
(1.27439e-05 0.000249173 0)
(2.1465e-06 0.000113035 0)
(-1.32604e-06 0.000278467 0)
(1.29369e-06 6.44468e-07 0)
(-9.69172e-07 0.000244378 0)
(6.29716e-07 4.80762e-05 0)
(7.09573e-07 6.38212e-05 0)
(6.61195e-07 8.13001e-05 0)
(3.99575e-06 0.000288536 0)
(-5.36097e-07 3.38185e-07 0)
(2.0215e-05 0.000283897 0)
(-3.02204e-06 0.000119842 0)
(-9.03043e-08 1.92472e-07 0)
(7.23194e-06 0.000170815 0)
(-3.15198e-06 2.1856e-05 0)
(7.74571e-06 0.000220279 0)
(1.56426e-07 1.21298e-07 0)
(-4.23526e-06 2.63897e-05 0)
(8.75973e-06 0.000161052 0)
(9.43967e-06 0.000209793 0)
(1.46335e-06 1.90636e-06 0)
(-6.12839e-06 0.000104417 0)
(1.30587e-06 0.000111688 0)
(-1.39821e-05 0.000303497 0)
(1.29718e-06 0.00017929 0)
(1.38304e-06 0.000229334 0)
(-1.05161e-06 7.37855e-05 0)
(-8.27795e-07 4.20399e-05 0)
(-9.45222e-07 5.69893e-05 0)
(2.07931e-06 0.000113875 0)
(-2.87041e-07 1.08572e-06 0)
(-2.53638e-07 3.70572e-06 0)
(6.23895e-07 0.000267768 0)
(1.37562e-05 0.000122496 0)
(-1.28827e-05 0.0001019 0)
(-9.81045e-06 0.000339751 0)
(-2.22782e-05 0.000221634 0)
(-2.08219e-05 0.000172117 0)
(-2.16154e-05 0.000196457 0)
(-1.98944e-05 0.000148759 0)
(1.08575e-05 3.30253e-05 0)
(1.26385e-05 4.65747e-05 0)
(1.42801e-05 6.20786e-05 0)
(1.57854e-05 7.93796e-05 0)
(2.22543e-05 0.000221631 0)
(2.15912e-05 0.000196457 0)
(-1.08705e-05 3.30261e-05 0)
(-1.2653e-05 4.65761e-05 0)
(2.07969e-05 0.000172116 0)
(-1.4297e-05 6.20798e-05 0)
(1.98719e-05 0.000148759 0)
(-1.58043e-05 7.93808e-05 0)
(-6.26526e-06 1.82078e-05 0)
(-3.44603e-06 0.000277872 0)
(-2.45465e-06 0.000277606 0)
(-3.05712e-06 0.000314859 0)
(5.09299e-06 0.000190291 0)
(-2.69922e-06 3.59182e-05 0)
(-9.63027e-07 1.41194e-06 0)
(-3.95842e-06 0.000332834 0)
(-4.32845e-06 7.10789e-05 0)
(-5.3038e-06 7.081e-05 0)
(-3.87827e-06 5.45603e-05 0)
(-4.75061e-06 5.43209e-05 0)
(6.45266e-06 0.000233675 0)
(7.74891e-06 0.000233784 0)
(1.70205e-05 0.0002297 0)
(1.59769e-05 0.000179658 0)
(-9.17941e-06 4.19686e-05 0)
(-1.04614e-05 5.68807e-05 0)
(-1.16391e-05 7.36389e-05 0)
(-1.02808e-05 0.000151568 0)
(-1.11488e-05 0.000199541 0)
(5.44057e-06 3.12528e-05 0)
(-3.22568e-06 0.000135662 0)
(2.74457e-06 8.99517e-05 0)
(3.36515e-06 0.000240319 0)
(-1.9489e-06 5.02929e-05 0)
(-2.18887e-06 6.6311e-05 0)
(-2.37345e-06 8.39075e-05 0)
(6.34359e-06 8.88745e-05 0)
(5.37626e-06 8.91028e-05 0)
(-7.45232e-06 0.000136912 0)
(-6.30907e-06 0.000136629 0)
(-7.51274e-06 0.000330333 0)
(4.99873e-07 1.3555e-06 0)
(1.25179e-05 0.000284209 0)
(4.50078e-06 9.87738e-05 0)
(1.22661e-05 0.000196248 0)
(-6.17941e-06 3.29146e-05 0)
(1.12866e-05 0.000148535 0)
(-1.04772e-05 0.000118553 0)
(2.53073e-06 2.48893e-05 0)
(-5.85536e-06 0.000213082 0)
(-5.44604e-06 0.000164106 0)
(7.34281e-07 0.000102795 0)
(-9.00359e-07 0.000168883 0)
(-9.58718e-07 0.000218237 0)
(3.88124e-07 2.26701e-05 0)
(7.06306e-06 9.30468e-05 0)
(-8.05702e-06 0.000132083 0)
(-3.85797e-06 0.000295084 0)
(-1.78962e-05 0.000292252 0)
(3.20143e-06 0.000125965 0)
(8.02909e-06 0.000126364 0)
(-6.4519e-06 2.41866e-05 0)
(1.50861e-05 0.000215007 0)
(1.40437e-05 0.000165913 0)
(-7.11426e-07 3.00439e-06 0)
(-2.41489e-06 0.000246083 0)
(1.34358e-06 4.71066e-05 0)
(1.51663e-06 6.27289e-05 0)
(1.66335e-06 8.01065e-05 0)
(-3.68834e-06 0.000119254 0)
(-1.6588e-05 0.000292351 0)
(-4.74459e-06 4.71642e-05 0)
(-5.35574e-06 6.27874e-05 0)
(-5.89589e-06 8.02029e-05 0)
(8.46658e-06 0.000245997 0)
(1.51434e-08 1.95805e-08 0)
(1.03885e-05 0.000117598 0)
(1.33515e-07 9.09586e-06 0)
(-4.8631e-07 8.41595e-07 0)
(-1.01155e-06 3.89067e-06 0)
(-4.86492e-06 1.67376e-05 0)
(-4.96198e-07 1.82258e-07 0)
(2.04245e-06 5.32777e-05 0)
(1.78916e-06 3.87581e-05 0)
(2.28351e-06 6.9651e-05 0)
(-3.46449e-06 0.000235382 0)
(-3.27898e-06 0.000185026 0)
(-1.00745e-05 9.7469e-05 0)
(1.09439e-05 0.000127128 0)
(-9.83953e-07 5.76782e-07 0)
(1.33087e-05 0.000313007 0)
(9.60159e-06 0.000279914 0)
(-2.04277e-05 0.000263406 0)
(7.56173e-06 0.000125382 0)
(2.7316e-06 0.000136239 0)
(-5.13684e-06 0.000332683 0)
(-1.4291e-05 0.000142772 0)
(-1.35931e-05 0.000142139 0)
(2.01844e-05 0.000332584 0)
(-1.6078e-06 0.000296561 0)
(-4.51036e-06 8.95869e-05 0)
(5.4421e-06 0.000136212 0)
(1.65254e-07 9.41593e-06 0)
(2.4674e-06 3.31799e-06 0)
(4.93185e-07 1.81172e-07 0)
(4.81285e-06 0.000145176 0)
(1.77901e-05 0.000339432 0)
(-9.73818e-06 0.000235423 0)
(-9.16069e-06 0.000185021 0)
(5.02358e-06 3.88058e-05 0)
(6.4493e-06 6.96681e-05 0)
(5.76842e-06 5.33001e-05 0)
(-1.80767e-07 1.25807e-07 0)
(-7.23887e-07 0.000308721 0)
(9.10373e-06 0.000126738 0)
(-8.26438e-06 9.79668e-05 0)
(-1.45943e-05 0.000301209 0)
(-2.1791e-05 0.000222774 0)
(-2.11473e-05 0.000197558 0)
(-2.03802e-05 0.000173179 0)
(-1.94791e-05 0.000149775 0)
(1.05261e-05 3.24567e-05 0)
(1.22725e-05 4.59164e-05 0)
(1.38824e-05 6.13373e-05 0)
(1.53592e-05 7.85621e-05 0)
(2.17651e-05 0.000222766 0)
(2.11232e-05 0.000197557 0)
(-1.05384e-05 3.24596e-05 0)
(-1.22858e-05 4.59197e-05 0)
(2.03526e-05 0.000173176 0)
(-1.38978e-05 6.13404e-05 0)
(1.94547e-05 0.00014977 0)
(-1.53764e-05 7.85656e-05 0)
(-3.14043e-06 4.19675e-06 0)
(1.2347e-06 1.15339e-06 0)
(-1.65266e-06 3.0083e-06 0)
(8.10534e-06 0.000124343 0)
(-8.88707e-06 0.000128053 0)
(1.57608e-06 1.88593e-06 0)
(-2.43819e-07 4.07238e-08 0)
(-1.96434e-05 0.000264044 0)
(1.12557e-05 0.000335998 0)
(1.2631e-05 0.000336634 0)
(2.43517e-07 4.06803e-08 0)
(3.55249e-06 4.71096e-06 0)
(1.76245e-05 0.000305775 0)
(-6.682e-06 0.000141632 0)
(-4.3247e-07 3.7624e-07 0)
(-9.798e-07 1.51156e-06 0)
(-1.52851e-07 3.90546e-08 0)
(2.86742e-07 2.21437e-07 0)
(1.81751e-05 0.000112764 0)
(-1.81243e-05 0.000111454 0)
(5.56973e-06 8.49257e-05 0)
(-6.8485e-06 0.00013903 0)
(5.78371e-06 8.71165e-05 0)
(-2.9518e-07 5.02302e-06 0)
(-4.22153e-06 0.000222727 0)
(3.3424e-06 0.000106363 0)
(-2.35378e-06 0.0002203 0)
(-2.25043e-06 0.000170705 0)
(9.66841e-07 2.18672e-05 0)
(1.83886e-06 0.000104425 0)
(-7.45289e-06 0.000140907 0)
(3.78621e-06 4.99196e-06 0)
(6.23856e-06 8.55699e-05 0)
(2.32528e-06 0.000126159 0)
(1.7712e-05 0.00031581 0)
(-5.37912e-06 0.000127204 0)
(-6.18559e-06 0.000128072 0)
(-4.97609e-06 1.05925e-05 0)
(-5.99912e-06 0.000132158 0)
(-5.12965e-06 0.000131238 0)
(5.34071e-06 9.2893e-05 0)
(4.69208e-06 9.38128e-05 0)
(-5.59355e-06 2.58344e-05 0)
(1.1723e-05 0.000162305 0)
(1.26224e-05 0.000211135 0)
(-1.53708e-06 1.70172e-06 0)
(-7.46653e-06 0.000139772 0)
(6.28233e-06 8.65287e-05 0)
(-4.76129e-06 0.000180038 0)
(-5.07028e-06 0.000230129 0)
(2.70651e-06 4.15802e-05 0)
(3.43544e-06 7.32037e-05 0)
(3.08626e-06 5.64677e-05 0)
(-2.45598e-06 1.1442e-05 0)
(-1.56182e-05 0.000189907 0)
(-1.47999e-05 0.000189305 0)
(8.22443e-06 3.62646e-05 0)
(7.82382e-06 3.65803e-05 0)
(1.02945e-05 0.00015059 0)
(1.13174e-05 0.000149845 0)
(-5.5255e-06 3.17768e-05 0)
(-6.11865e-06 3.21991e-05 0)
(1.11718e-05 0.000198481 0)
(1.22883e-05 0.00019767 0)
(-4.4888e-06 0.000293998 0)
(8.97635e-06 0.000268383 0)
(9.10548e-06 0.000267126 0)
(-6.61645e-06 8.71245e-05 0)
(7.79088e-06 0.000138995 0)
(-2.35285e-05 0.000327681 0)
(-6.77026e-06 0.00026121 0)
(-6.50164e-06 0.000259981 0)
(2.24469e-06 1.66435e-05 0)
(2.30678e-06 1.62185e-05 0)
(2.0321e-05 0.000264125 0)
(-8.96431e-06 0.000111904 0)
(-7.69536e-06 0.000111943 0)
(2.01051e-05 0.000298343 0)
(-2.03216e-05 0.000314562 0)
(-2.02954e-05 0.000316066 0)
(-6.12939e-07 3.1088e-06 0)