/*--------------------------------*- C++ -*----------------------------------*\
| =========                 |                                                 |
| \\      /  F ield         | OpenFOAM: The Open Source CFD Toolbox           |
|  \\    /   O peration     | Version:  2.3.1                                 |
|   \\  /    A nd           | Web:      www.OpenFOAM.org                      |
|    \\/     M anipulation  |                                                 |
\*---------------------------------------------------------------------------*/
FoamFile
{
    version     2.0;
    format      ascii;
    class       volScalarField;
    location    "4480";
    object      sigmaEq;
}
// * * * * * * * * * * * * * * * * * * * * * * * * * * * * * * * * * * * * * //

dimensions      [1 -1 -2 0 0 0 0];

internalField   nonuniform List<scalar> 
11800
(
194550
135355
658066
557878
131420
389123
180273
197768
213426
227775
193802
799018
101142
593222
503669
2.17844e+06
139010
140594
255346
156890
443403
721087
942798
845058
1.7861e+06
1.11405e+06
1.17265e+06
582040
1.27564e+06
1.37953e+06
385487
126580
1.11857e+06
141206
148302
369851
150754
1.19278e+06
151173
165051
1.21531e+06
1.32225e+06
611406
1.43113e+06
406798
2.03972e+06
904406
1.05508e+06
182005
273890
839042
590758
146482
238263
2.32488e+06
1.89875e+06
72826.1
545765
426171
406827
1.89819e+06
162043
433021
356108
1.75149e+06
263515
863164
611934
72477.4
1.03066e+06
149761
125088
121087
1.80583e+06
1.87987e+06
358575
1.83267e+06
250175
198509
202067
2.36291e+06
138200
131171
133286
136266
1.33009e+06
414429
1.22745e+06
1.12684e+06
607552
145657
1.33201e+06
168009
69165.3
209615
172498
22374.2
172572
148201
702999
82616.6
775523
1.26421e+06
434679
157532
370690
203730
175135
1.85609e+06
1.239e+06
1.34235e+06
1.13748e+06
420330
616027
251662
1.67569e+06
244987
156405
1.57329e+06
234236
225366
181787
204296
155236
165245
145116
147975
147798
103759
30105.2
2.12174e+06
1.41923e+06
450226
1.33371e+06
648009
1.22875e+06
1.12655e+06
393189
1.14158e+06
561092
1.05183e+06
964521
570352
217821
275705
374991
1.38389e+06
1.41655e+06
808274
418778
229439
221438
147715
292621
268962
206654
535079
738249
1.46485e+06
154231
2.13286e+06
257895
1.86608e+06
538986
585442
632430
320785
240365
2.29361e+06
1.43659e+06
511713
706015
170495
419496
417218
2.04116e+06
2.06326e+06
1.09636e+06
1.00714e+06
1.18799e+06
536831
366678
283389
227057
508343
242430
373235
167535
192256
177699
268552
251121
238952
215945
1.0476e+06
1.32995e+06
1.87452e+06
133195
248858
2.20861e+06
151430
322822
361542
152057
157390
962072
804092
740289
612817
2.12084e+06
652959
964668
2.88497e+06
2.42749e+06
2.44686e+06
379003
141621
936123
859609
790576
294969
426157
141187
142145
251605
152160
1.39653e+06
282588
154452
527683
236356
193639
150928
744133
759840
2.8828e+06
1.3955e+06
248625
259945
1.30399e+06
1.06846e+06
366859
536411
1.18615e+06
1.09753e+06
1.00801e+06
156973
1.28353e+06
451356
622560
583131
170238
134950
458676
408677
155763
2.4454e+06
319108
368192
262200
302744
792930
862288
932041
424314
296930
149569
1.8658e+06
175596
86509
146830
466241
171067
611628
2.1713e+06
437808
434066
658369
476016
548594
398560
1.35132e+06
1.12985e+06
361864
453076
286860
345303
621459
816985
292603
1.31842e+06
1.41402e+06
1.69978e+06
188221
432546
429889
1.97462e+06
1.9929e+06
1.19854e+06
1.17953e+06
1.22159e+06
1.20899e+06
144752
98657.6
326077
2.54518e+06
131026
137665
338207
275954
298086
1.04541e+06
1.07227e+06
1.76756e+06
2.44796e+06
766206
203468
998564
826027
575352
470104
178911
189645
289863
515661
270289
478037
137562
185283
177513
155758
1.40284e+06
178243
137594
2.03965e+06
348318
790493
882399
859230
1.0864e+06
1.04566e+06
110705
109484
710224
930485
641309
1.66038e+06
131169
926005
719407
472497
356360
351524
269509
357796
308664
409804
448676
482968
171556
148271
872357
925338
197789
249130
511107
434751
488683
221295
206939
259425
264739
1.00323e+06
486793
357744
388159
1.21678e+06
1.41111e+06
372764
217052
204054
279564
259284
490708
569335
465492
546035
429832
504239
379636
360669
726121
370744
811598
1.40074e+06
707006
517139
2.24218e+06
144589
1.47067e+06
726539
526873
2.17876e+06
155736
1.50417e+06
371863
1.26239e+06
1.16541e+06
1.13467e+06
207684
95210.1
131585
2.59061e+06
2.24153e+06
1.00204e+06
358936
488067
194148
260461
295549
159801
221708
1.71845e+06
69129.4
621231
476765
1.89409e+06
114684
190338
161944
159212
161460
161748
1.89452e+06
637666
254013
742448
684401
629723
127875
1.43177e+06
469797
658922
180525
939287
203253
1.82269e+06
144940
213133
537298
496060
456964
953384
254446
533171
466944
248710
745869
811596
879086
425195
303844
70449.7
185898
207193
2.35441e+06
818187
645197
464844
382419
200204
161157
117901
117183
204812
106370
123725
130868
176955
352864
158152
201268
637155
778846
366058
1.67775e+06
220998
398009
164042
196560
1.62906e+06
2.14052e+06
676185
734520
264083
234674
127454
1.42557e+06
2.0826e+06
1.83894e+06
2.65553e+06
872895
609465
797807
131050
199893
182914
204639
793388
153116
151175
133414
195523
1.42481e+06
319046
1.45433e+06
849679
184643
237115
1.16768e+06
1.49535e+06
788437
857445
924384
419088
293376
717856
150712
152352
148603
170892
135210
201322
102762
195318
102484
193271
90091.7
187992
172532
179400
122199
1.63025e+06
248395
271890
605554
959989
131559
161414
139842
137301
121848
316642
461301
135391
134703
627359
128867
192024
1.7713e+06
86004.1
173872
561433
516999
540932
586093
601137
633249
297127
221199
2.05632e+06
2.53331e+06
532791
90688.7
378005
360171
405876
287307
865072
800002
735689
183511
89769.6
838870
781909
347866
386993
192314
670357
727533
249230
1.18256e+06
1.1991e+06
1.21301e+06
1.201e+06
2.02593e+06
1.98241e+06
625911
2.41519e+06
881399
146387
1.68351e+06
1.49536e+06
1.62621e+06
831416
336063
363288
197761
1.72792e+06
572896
722523
2.55699e+06
226827
282346
561266
548928
1.43619e+06
748540
2.14e+06
144475
142220
292297
420499
932632
857385
788457
1.9489e+06
161284
428965
920679
1.38634e+06
141483
2.287e+06
2.13885e+06
2.22056e+06
258019
349681
132973
2.27054e+06
656936
262920
449938
2.1368e+06
156383
265282
281279
150720
519606
321683
2.59104e+06
2.27977e+06
218201
645178
825093
316915
375498
278265
244153
685743
202500
645714
476178
1.22004e+06
1.06372e+06
182656
1.38964e+06
148918
439482
541605
1.84889e+06
352569
477960
266308
217310
202187
236921
452368
1.05839e+06
1.16571e+06
151512
145342
147436
194916
375998
1.40883e+06
122206
487992
883512
688788
244779
1.17225e+06
1.2974e+06
842578
1.41116e+06
1.52828e+06
633655
414225
172308
207523
392816
418299
365481
404493
206400
373792
435399
254053
150209
2.64109e+06
1.13655e+06
427505
579497
529411
256827
460801
674988
1.45012e+06
1.33726e+06
1.22653e+06
376068
444678
212760
231699
1.64924e+06
1.2074e+06
1.40577e+06
162124
216306
310683
738728
1.629e+06
521928
102729
163161
2.39264e+06
2.24816e+06
270382
2.05864e+06
119284
173649
126381
787598
137556
239823
266124
1.47063e+06
1.59975e+06
1.73121e+06
1.86621e+06
847269
719779
597849
470469
207627
143519
462470
2.28478e+06
152071
148102
165594
156530
164890
171511
176917
1.76845e+06
892102
916161
539440
998667
1.08411e+06
379974
1.26571e+06
302829
249161
159558
2.36652e+06
150564
182010
175570
183758
150675
2.15264e+06
304833
300736
1.15467e+06
382355
804937
286158
2.19108e+06
967519
484335
359976
1.4843e+06
536333
203443
170068
152078
145223
255823
281178
269689
196336
530082
164822
146905
949442
1.06016e+06
126147
671720
967716
819906
1.11381e+06
2.07711e+06
1.92293e+06
1.76961e+06
1.61562e+06
671784
819568
2.07901e+06
1.92481e+06
967519
1.77145e+06
1.11397e+06
1.6179e+06
1.8536e+06
167537
143869
157050
270223
586248
1.28181e+06
149499
488929
670416
528873
728923
212376
275328
486799
713047
1.52141e+06
1.40287e+06
1.28629e+06
610427
451920
1.13991e+06
229844
292320
181644
376472
350154
318794
655486
511537
525885
390244
140895
782304
214384
401479
492927
1.22054e+06
664097
776776
625691
228196
297121
204283
179669
169370
195987
691021
582850
154024
236778
260475
537034
1.59617e+06
523109
735396
550284
171797
247679
232943
215149
293316
209677
708032
652945
596344
231424
1.70607e+06
807950
234778
1.05e+06
708736
1.52839e+06
2.06914e+06
255626
285312
240719
160624
172935
857634
730090
2.1569e+06
142975
202143
399320
592506
255657
150485
865961
857100
63709.4
148790
414393
337250
95174.8
1.89158e+06
2.0694e+06
343387
129933
308235
436908
933907
791508
861268
2.36113e+06
145449
678185
764142
180947
697644
852368
1.00745e+06
1.15945e+06
2.17488e+06
2.01463e+06
1.85436e+06
1.6939e+06
697235
851851
2.17571e+06
2.01464e+06
1.00606e+06
1.85453e+06
1.15894e+06
1.69439e+06
2.01696e+06
1.73538e+06
1.30826e+06
557125
635446
1.73598e+06
1.28962e+06
383247
128720
123344
1.28882e+06
2.29421e+06
173052
477571
1.88591e+06
1.28893e+06
2.06956e+06
2.11259e+06
1.3723e+06
1.37502e+06
629459
498929
652075
270595
202480
345550
173128
211269
258818
216907
476348
2.22225e+06
650987
218605
131537
416931
447124
2.02145e+06
422241
381939
485248
515082
1.31412e+06
624143
450049
1.68293e+06
480896
625920
224818
184096
432074
374052
403277
999620
650984
632238
1.53096e+06
1.4641e+06
624764
660159
1.15282e+06
1.23815e+06
464339
487509
148647
205805
215481
635133
494375
85035.1
181076
208149
737318
701066
380947
742256
573815
226481
138562
138523
580106
1.40042e+06
136809
2.06854e+06
299507
842358
774406
238194
298176
501114
162409
137884
1.7704e+06
448489
1.15388e+06
1.0659e+06
979427
357810
521803
182814
1.59952e+06
2.11837e+06
192491
158346
1.16486e+06
426810
583287
1.00782e+06
1.09649e+06
1.19952e+06
361087
525580
67425.8
847867
443216
2.11188e+06
351531
1.21527e+06
1.01104e+06
1.13472e+06
151438
156035
159866
168358
170962
149573
1.75162e+06
545320
203283
236039
261985
294627
368522
408546
837095
809825
773766
746358
687091
711097
1.21228e+06
183540
151061
146049
201061
227376
161375
184182
1.44425e+06
298338
542042
463357
1.19276e+06
628485
220293
229713
517027
400337
714084
583845
1.43255e+06
1.2577e+06
1.16083e+06
1.06533e+06
591956
1.64998e+06
818144
1.63842e+06
290135
241300
312733
303217
211310
191094
209556
1.66737e+06
2.15985e+06
388128
125755
288365
650738
505573
141307
167279
279386
265008
277631
257018
341019
320558
240441
551124
611577
595459
660617
506064
562234
617190
141552
1.36062e+06
1.08044e+06
570659
1.36111e+06
1.27843e+06
747324
2.16024e+06
409578
389250
441032
471920
217906
178068
191375
410163
158316
1.81346e+06
233499
152726
908001
64781.6
126427
1.79679e+06
205994
467714
1.48974e+06
687080
1.37441e+06
1.26089e+06
1.61984e+06
1.07612e+06
176521
690210
551967
227993
1.53896e+06
705567
228263
1.2907e+06
1.17692e+06
1.40322e+06
146947
149747
178273
2.61075e+06
312677
491433
600748
271468
153008
151907
471076
509042
197920
1.79761e+06
478839
1.82771e+06
278609
898086
150703
726594
869029
1.14917e+06
462090
622792
745828
300043
2.569e+06
182738
128609
156338
2.19108e+06
1.43563e+06
362524
534357
1.20971e+06
1.12093e+06
1.03004e+06
2.25535e+06
692624
560825
2.24946e+06
2.54166e+06
1.75462e+06
86563.8
602963
1.49608e+06
1.12554e+06
613825
456472
1.13386e+06
1.01151e+06
465375
1.53283e+06
370170
301285
576673
508636
386117
1.77037e+06
2.69225e+06
136079
149005
175466
2.56908e+06
176594
206835
799060
614847
2.27352e+06
2.38167e+06
146789
676942
233375
222386
560292
240739
145286
604919
139761
157797
2.70761e+06
1.18353e+06
657993
490788
441883
315783
899005
830156
762190
229187
2.41e+06
473110
428755
490581
2.01785e+06
824348
1.21259e+06
166286
259940
196460
904142
558261
743601
136059
318024
433920
917085
323680
204660
174701
345837
2.2475e+06
327340
442536
909259
1.4516e+06
2.05183e+06
1.3897e+06
950735
753369
891714
91230.2
260351
363499
777388
717969
661191
2.05181e+06
161443
210483
225685
225226
226055
218914
325970
148728
150701
738009
1.86121e+06
529875
1.17203e+06
1.08209e+06
994389
363506
2.10226e+06
676080
771057
923390
796158
1.29013e+06
2.05761e+06
617580
161086
792085
126982
973317
584699
1.0614e+06
1.15264e+06
414141
1.33744e+06
329917
2.77918e+06
953545
152341
1.91939e+06
2.78693e+06
2.39945e+06
567638
145842
1.07752e+06
182537
172122
124226
300137
163033
168122
144263
152376
1.74206e+06
1.82872e+06
151806
1.19581e+06
192553
183255
149093
250879
1.26015e+06
1.26571e+06
286958
1.28259e+06
1.2852e+06
1.64351e+06
540488
202224
254489
347401
696066
755154
255314
67672.1
174069
818797
392370
960272
1.08085e+06
1.18058e+06
1.28237e+06
659711
464877
340517
190216
163991
2.08184e+06
1.15006e+06
138341
238901
1.02865e+06
799394
435333
471484
213915
191740
353749
313513
123947
241484
164457
1.74768e+06
685670
1.66501e+06
156463
143451
2.78782e+06
144114
2.16388e+06
2.13699e+06
152827
997629
503877
1.71187e+06
166541
946273
1.07372e+06
2.33767e+06
262297
164117
138227
529831
251027
343447
695816
637809
586812
171216
135408
196391
186903
1.23091e+06
1.35592e+06
925347
1.58147e+06
1.45392e+06
1.6787e+06
2.3868e+06
299740
761288
2.27317e+06
666000
2.13169e+06
1.02248e+06
1.11252e+06
1.20551e+06
533948
361980
447399
523462
1.97039e+06
177663
209567
310345
294091
274503
198660
409563
378382
354023
866791
901708
2.63517e+06
291795
134384
185207
2.07994e+06
595431
323746
312661
2.02916e+06
1.06486e+06
734999
115832
217409
138622
1.05002e+06
1.33874e+06
337023
1.50552e+06
205263
199063
2.71171e+06
1.77605e+06
2.17381e+06
425158
565342
987892
307093
780134
2.26636e+06
2.39002e+06
201858
232211
391036
318642
1.13551e+06
1.26853e+06
868689
978619
2.51977e+06
2.31842e+06
297532
196962
115053
1.65752e+06
134293
2.18696e+06
432386
331057
1.17545e+06
376101
153473
2.02709e+06
230266
301574
113952
136349
1.50748e+06
523573
156090
821946
391260
215626
159393
138383
763577
140435
2.07347e+06
1.86096e+06
342302
930688
527473
154961
172715
1.59928e+06
193594
1.07848e+06
276994
595746
1.25541e+06
1.43253e+06
1.98122e+06
213122
337383
2.15686e+06
270526
169314
159384
185851
140925
2.2071e+06
1.72665e+06
398912
550048
950224
953904
1.24398e+06
438817
603372
434400
631334
1.34675e+06
1.24276e+06
1.1402e+06
1.78006e+06
840418
599634
1.70988e+06
603193
1.86014e+06
697260
777388
2.05653e+06
2.78216e+06
2.38573e+06
471128
451208
1.28744e+06
615467
445921
147191
385175
1.97438e+06
165588
194089
2.52442e+06
1.88684e+06
2.16901e+06
1.01137e+06
1.2545e+06
1.26453e+06
1.09203e+06
135809
127996
191582
130496
780218
848466
921101
430743
301845
661772
2.19957e+06
165895
220686
185771
172811
1.14333e+06
1.03324e+06
205768
1.95821e+06
2.21322e+06
1.31948e+06
1.07823e+06
1.78192e+06
2.05256e+06
128712
983272
624111
1.36944e+06
182052
292680
313151
1.75877e+06
1.75197e+06
805989
407723
123444
148909
256384
538778
1.83753e+06
244574
1.4134e+06
168023
411029
277711
370520
634387
326129
498889
48504.8
14010.8
498467
2.60538e+06
227676
186504
187083
145592
133763
199314
205536
148632
149404
586005
147491
161097
199695
1.10053e+06
1.35673e+06
977073
1.82172e+06
2.32076e+06
159682
222559
427061
185015
1.66509e+06
231492
2.43495e+06
262123
341606
660138
490140
258737
268271
622523
140820
166015
211184
133545
203616
131376
2.16705e+06
117515
172685
316116
132166
100029
2.06682e+06
231442
1.78938e+06
1.90627e+06
690405
443772
362214
527526
1.18563e+06
1.10598e+06
1.01639e+06
143587
1.30596e+06
675079
139676
2.21006e+06
148402
155855
413292
1.215e+06
979804
1.08663e+06
1.48676e+06
213661
161248
463156
686573
1.49914e+06
798298
1.61876e+06
574188
1.38309e+06
1.26906e+06
457253
1.60487e+06
568466
1.48062e+06
675235
1.36643e+06
1.25371e+06
788141
1.6069e+06
202823
673387
526138
166062
210809
1.8047e+06
1.13533e+06
1.53771e+06
1.4306e+06
1.24818e+06
1.54484e+06
1.14062e+06
433497
475066
702613
1.69584e+06
161212
2.49116e+06
198887
161210
1.87844e+06
223718
354746
694850
687425
2.05069e+06
121418
1.30657e+06
1.20691e+06
1.10794e+06
402545
592487
2.51791e+06
425482
325077
753487
194196
788785
364528
380325
135461
220602
229191
199880
602845
132582
739936
396278
300844
1.01196e+06
1.34873e+06
1.35408e+06
1.01161e+06
493307
2.37988e+06
146997
148179
2.12531e+06
1.91831e+06
1.16608e+06
2.77529e+06
1.25703e+06
1.08443e+06
1.11283e+06
2.46554e+06
1.24247e+06
994975
2.19086e+06
469696
496691
742162
1.93139e+06
118719
1.64112e+06
196370
286958
451506
757783
825293
894766
439531
312977
497744
81995.7
88031.1
161727
173007
237073
196838
156303
211277
1.23361e+06
2.24449e+06
269920
198414
2.06693e+06
1.51083e+06
596793
810549
162214
169929
1.80057e+06
1.18984e+06
251981
951055
892065
1.18887e+06
143176
161784
165541
142833
1.41179e+06
2.27855e+06
2.22329e+06
1.51076e+06
2.40632e+06
306567
132778
398248
1.21323e+06
1.11385e+06
1.31466e+06
598374
405688
2.54885e+06
561574
709636
927977
300648
254576
1.06131e+06
374481
193581
806349
308251
400616
2.35783e+06
408593
361319
1.26873e+06
1.17186e+06
1.0774e+06
541729
1.61106e+06
1.51815e+06
1.99319e+06
621258
641824
825796
1.70109e+06
812571
582199
1.51246e+06
292195
2.78634e+06
183522
2.12589e+06
569181
650496
154318
692927
1.33066e+06
158990
186382
182884
2.45887e+06
729628
669760
788997
390616
281550
354466
710725
1.60656e+06
717889
1.398e+06
1.64692e+06
1.52236e+06
478067
1.54823e+06
1.17784e+06
1.24665e+06
1.47599e+06
1.55151e+06
1.17915e+06
1.25727e+06
1.48464e+06
856684
713182
54729.2
341223
208973
490171
724293
601722
839985
1.68638e+06
1.56377e+06
1.44244e+06
1.32322e+06
485613
1.3456e+06
668584
181580
125408
130865
225307
119877
576398
1.37087e+06
1.39984e+06
496398
2.30501e+06
186453
168216
1.7932e+06
2.22302e+06
105976
1.42279e+06
562019
762159
1.0651e+06
584957
379901
165711
563690
796083
72266.9
151358
2.33213e+06
309068
230896
565574
520929
612404
391786
148402
154903
398523
1.39799e+06
2.16115e+06
2.50204e+06
387706
431116
1.81263e+06
1.63404e+06
2.12491e+06
126347
1.17881e+06
2.0707e+06
2.51784e+06
2.59621e+06
2.54202e+06
668414
1.16025e+06
500110
2.40078e+06
1.82073e+06
746106
1.56472e+06
172437
152032
1.86293e+06
1.86468e+06
153476
501142
2.3088e+06
1.94231e+06
1.84798e+06
1.91264e+06
2.60706e+06
1.77087e+06
2.30943e+06
1.99225e+06
172963
315378
1.47087e+06
690868
1.20283e+06
252947
166586
210678
194341
175591
234754
209334
501586
2.31659e+06
1.408e+06
496237
686735
1.50541e+06
194831
697535
485314
2.66569e+06
375359
364533
666951
383309
619282
274874
213091
2.17e+06
17824.6
173986
173800
35802.7
544426
576734
206439
226537
240802
166934
610351
606032
146081
2.3232e+06
1.9809e+06
718957
1.50312e+06
516297
139072
1.75363e+06
387664
2.30676e+06
642276
785451
930080
1.07255e+06
2.02895e+06
1.88075e+06
1.73151e+06
1.5844e+06
641309
784242
2.02749e+06
1.87854e+06
927808
1.72959e+06
1.07046e+06
1.58224e+06
355190
271139
657953
717607
634427
299540
243736
206935
165651
154460
177408
148281
156805
265738
1.07969e+06
1.15897e+06
1.04702e+06
586031
1.14032e+06
1.25659e+06
1.93564e+06
822737
663426
2.0503e+06
684074
234663
146199
201174
163478
323638
298480
302557
157350
434264
343313
449247
923424
156582
238976
1.08431e+06
171389
123268
154642
133223
1.6322e+06
189661
220354
772332
616093
295822
770005
241891
146185
133054
2.43126e+06
2.51079e+06
1.53496e+06
1.25783e+06
1.22706e+06
1.56178e+06
2.46556e+06
1.27752e+06
143527
824547
460773
351494
507616
241938
2.32826e+06
255602
1.38387e+06
1.27987e+06
1.17533e+06
618767
418670
724136
424619
322828
2.35205e+06
271121
143741
771398
770757
353045
219505
269033
455749
931531
1.76861e+06
745839
596110
1.08691e+06
1.44237e+06
394571
576872
1.24907e+06
1.152e+06
1.05732e+06
596427
641882
1.03373e+06
858142
1.20548e+06
639259
1.32391e+06
1.43947e+06
416389
1.55853e+06
2.77771e+06
1.956e+06
126690
950382
1.03672e+06
1.12619e+06
343483
231176
1.68767e+06
293441
385703
476174
524614
223857
285234
228389
180266
1.62275e+06
1.2483e+06
1.30908e+06
1.56822e+06
359410
1.95658e+06
2.42578e+06
896212
157003
932856
1.01682e+06
1.10483e+06
1.03269e+06
1.19575e+06
335780
1.91544e+06
838505
783019
718342
848200
305528
426254
244943
226681
532504
626320
577823
664259
724011
784695
480716
477162
687710
690652
1.39699e+06
1.39027e+06
1.17957e+06
1.28697e+06
1.17337e+06
1.28061e+06
695797
756118
267925
165919
189943
227926
1.37955e+06
893544
152279
1.42136e+06
1.17974e+06
1.13152e+06
1.46432e+06
229795
507908
1.82654e+06
772822
1.68739e+06
1.55046e+06
122702
302368
1.25663e+06
748041
527882
1.66933e+06
581078
77719.7
1.28303e+06
1.17844e+06
1.39067e+06
623412
420808
1.70349e+06
663790
536913
2.27164e+06
666351
943920
224832
160755
381649
356979
327224
1.93728e+06
482362
319729
550275
506911
593398
298679
226154
1.2781e+06
1.43264e+06
229031
823118
172797
1.09826e+06
2.20388e+06
1.38046e+06
684654
511472
1.21896e+06
624666
555837
459042
299991
185517
459857
226425
563590
225549
380133
158426
179758
2.30361e+06
468906
1.97945e+06
1.14196e+06
1.22694e+06
663300
494305
1.17589e+06
2.09918e+06
133732
162181
164711
157411
415801
40272.5
13316.9
415447
877045
160572
931866
415571
282725
192846
622623
870604
1.81437e+06
143388
111805
190808
223834
482598
311867
1.23188e+06
1.0994e+06
262322
170249
133988
2.33896e+06
876743
145720
338862
166239
2.6657e+06
2.18328e+06
337810
255420
963740
463231
659170
1.29677e+06
1.09368e+06
1.19401e+06
2.5263e+06
2.01237e+06
161933
1.87983e+06
2.52575e+06
1.98135e+06
2.2064e+06
947525
191663
1.26826e+06
314791
193819
240022
470786
515957
376886
376675
852201
277634
186738
139571
1.23715e+06
1.52795e+06
1.66168e+06
1.79778e+06
1.92098e+06
864516
736361
607168
476734
300874
134651
589041
27273.9
288027
287767
14799.8
639817
320424
252170
96535.2
403601
456652
149768
405462
1.21454e+06
970137
668839
472223
539170
2.32229e+06
1.77229e+06
237677
761349
149646
161927
657743
774811
793270
1.57009e+06
463297
504695
156107
2.09825e+06
167603
368947
428991
400188
1.53589e+06
1.66988e+06
868212
916109
915373
657813
842987
1.56894e+06
1.49401e+06
1.49455e+06
518019
719093
128116
139284
132177
320366
149690
688151
1.46232e+06
1.29768e+06
1.59e+06
1.1617e+06
1.60002e+06
1.16043e+06
788299
517902
1.40218e+06
1.0269e+06
1.40274e+06
1.03041e+06
334744
1.53713e+06
1.29873e+06
1.13843e+06
1.48276e+06
1.31219e+06
1.61814e+06
1.17703e+06
1.61676e+06
1.17641e+06
1.45464e+06
2.67156e+06
590738
829528
1.7488e+06
638604
157548
165817
267666
26509.1
267414
23425.6
151909
498564
1.54969e+06
1.42285e+06
1.67887e+06
746055
516374
2.37472e+06
77763.4
144608
294166
1.01572e+06
341373
941018
463959
2.40974e+06
2.43109e+06
1.44854e+06
173532
312989
1.65256e+06
884364
708621
473609
876218
804311
948963
330419
464562
2.46831e+06
580044
2.19982e+06
154771
150590
142532
152693
101740
2.17416e+06
176097
1.605e+06
98917.2
1.17469e+06
1.48168e+06
178187
152613
226198
671847
236473
569807
524595
384319
415932
449297
189204
416425
561855
696359
466949
1.57506e+06
1.45608e+06
1.33692e+06
1.62843e+06
2.17522e+06
2.39916e+06
140195
136708
137036
151626
320702
188046
348171
2.41281e+06
2.45966e+06
2.47974e+06
1.88096e+06
74394.5
1.29053e+06
2.25697e+06
1.5557e+06
1.22863e+06
1.25295e+06
1.53481e+06
746849
656601
1.34111e+06
889172
1.57358e+06
112967
283670
365930
703379
290151
286379
325531
218319
250821
183902
213606
494291
495906
537629
536872
580875
579458
680477
669486
157470
154434
644770
413518
119546
241157
929406
1.57532e+06
157939
953272
2.05944e+06
639471
1.96156e+06
903187
247061
1.81273e+06
974074
818758
1.29821e+06
2.19622e+06
2.60144e+06
1.0195e+06
440579
2.1878e+06
315534
229578
195907
482104
104550
919323
1.61312e+06
421945
635038
256090
149129
274867
2.35512e+06
426837
499540
482491
354476
1.01215e+06
318098
251133
999035
221057
2.15204e+06
167014
1.27404e+06
474858
516202
1.99914e+06
1.70881e+06
1.03561e+06
1.86173e+06
2.01667e+06
887106
2.17251e+06
739341
590245
1.71035e+06
1.86305e+06
2.17679e+06
2.01851e+06
592222
889854
1.03907e+06
741568
2.17515e+06
215273
1.70744e+06
185511
123661
161871
9809.4
74671.6
937868
100393
1.64179e+06
342309
253542
644452
695803
593386
488381
323569
1.44103e+06
322162
346873
1.29697e+06
106247
510454
473694
470063
1.48888e+06
1.36743e+06
1.61252e+06
708530
593101
252138
433228
856257
1.64065e+06
77785.6
422323
248963
159139
541275
1.72835e+06
983312
841851
1.82572e+06
202669
1.00489e+06
2.13779e+06
1.084e+06
2.005e+06
177019
2.26279e+06
267772
1.50985e+06
544035
671389
154255
17248.4
172833
172608
29473.9
288726
1.5324e+06
219698
1.89609e+06
855535
312214
1.4764e+06
1.41763e+06
1.61068e+06
1.54685e+06
1.74689e+06
1.67805e+06
815782
788836
555203
537787
617359
415713
1.39174e+06
1.28744e+06
1.18216e+06
371480
433029
400766
196839
1.31119e+06
1.14654e+06
100011
221884
164498
186435
197519
2.18165e+06
1.83456e+06
482483
1.58709e+06
1.45872e+06
1.71619e+06
134552
800329
1.47928e+06
1.54696e+06
152680
142830
1.76443e+06
557217
188833
327581
381060
353959
203001
611452
565574
523451
2.05447e+06
2.66663e+06
1.97047e+06
1.40854e+06
691492
498358
209333
228164
344515
247010
152700
134883
259916
753616
602529
152921
1.60958e+06
1.86945e+06
785980
678862
196392
187975
166351
178281
522274
1.76334e+06
1.39176e+06
1.07476e+06
1.10634e+06
1.31939e+06
146346
166554
247632
148328
152456
343047
2.75509e+06
2.18805e+06
168879
209064
944795
814929
565373
1.75459e+06
1.88957e+06
1.48347e+06
1.61787e+06
945501
495625
425656
460803
211668
267540
2.02195e+06
545736
1.29166e+06
92917.2
1.87008e+06
170326
745889
866903
2.75357e+06
149558
769595
179742
720353
192394
453732
1.37799e+06
634905
1.59296e+06
1.03574e+06
1.73912e+06
1.88701e+06
894769
2.03612e+06
752356
611104
752909
611636
290597
894008
1.00983e+06
1.32191e+06
157349
255622
1.61231e+06
696384
2.5309e+06
2.053e+06
2.3012e+06
413237
1.8077e+06
843553
659612
323143
246303
2.47924e+06
1.27947e+06
149795
2.68487e+06
2.27445e+06
77783.3
793837
648472
98986.3
1.03094e+06
838006
119832
212440
1.72645e+06
2.5801e+06
153999
919551
943423
1.88068e+06
1.82166e+06
666680
683194
666846
682370
160798
161543
160768
151208
122786
2.6485e+06
2.07118e+06
1.86277e+06
2.35097e+06
891018
478496
1.9315e+06
1.08749e+06
1.1873e+06
1.28967e+06
82250.2
1.96901e+06
345132
1.47874e+06
2.1048e+06
625973
441490
2.68384e+06
726005
762172
532705
561666
1.43095e+06
1.38244e+06
235791
230951
128431
151962
465361
1.69321e+06
1.56409e+06
1.43749e+06
710071
2.64627e+06
158253
322618
142893
1.42044e+06
1.54923e+06
908129
1.67963e+06
775732
1.82675e+06
655718
1.73509e+06
1.46704e+06
1.59995e+06
1.86942e+06
525511
933069
804406
656447
148740
210691
225553
294324
553039
469114
509039
2.19595e+06
1.02783e+06
1.25385e+06
2.02075e+06
235762
364729
152184
571369
800152
274845
384441
2.03919e+06
218031
145820
147840
150841
146540
92857.1
234277
182601
197220
1.76348e+06
2.08108e+06
180275
156758
201083
348006
761307
2.24418e+06
2.09186e+06
925853
154914
228170
1.79296e+06
158166
158737
2.72399e+06
1.05907e+06
2.06223e+06
585009
1.39953e+06
891227
867937
238377
972093
1.4848e+06
718927
516570
201943
462154
153958
121354
138880
2.20877e+06
1.31905e+06
1.34551e+06
2.19504e+06
342236
367076
189308
695000
168465
150708
160583
440846
343942
35035.9
343665
23987.7
149879
1.36935e+06
415347
603256
1.27649e+06
1.17754e+06
1.08014e+06
214934
2.51571e+06
824120
481864
2.17137e+06
1.3025e+06
1.35324e+06
220910
21710.2
220674
22833.2
1.91558e+06
466944
805255
952297
878580
175911
2.04285e+06
485211
346990
1.11697e+06
858254
145093
46718.2
1.50417e+06
313412
1.49993e+06
385782
513939
943498
1.05719e+06
888012
190178
772018
317002
409986
194355
208714
732428
763740
253522
464542
159504
160712
1.22764e+06
616682
451761
168789
647303
16764.5
62751.1
646766
819672
662267
981569
1.16499e+06
132064
2.50138e+06
2.60292e+06
329508
153657
171180
272167
299139
30943.7
298907
26664
1.32318e+06
453593
630309
2.42538e+06
2.46204e+06
2.09981e+06
1.8953e+06
1.14451e+06
1.01444e+06
971093
861284
2.05328e+06
297922
590274
210524
135422
151110
426978
599752
859251
2.39365e+06
2.4151e+06
303458
157886
795732
864530
289173
1.31319e+06
540191
441498
1.90327e+06
187148
170392
230630
1.28929e+06
1.29802e+06
1.37053e+06
869181
434386
608075
98888.2
101581
1.47834e+06
152558
1.31494e+06
169688
649322
1.05599e+06
925409
1.53459e+06
1.79495e+06
155877
208014
488339
2.13294e+06
10211.2
126326
37472
126976
343502
315011
99724
2.29559e+06
40915
2.17364e+06
565914
54850.5
17685.2
565448
374124
183904
21180.2
183836
476065
2.06961e+06
479572
2.26183e+06
2.60997e+06
75428.9
756539
893749
824913
1.06591e+06
512836
372775
1.14211e+06
714254
124747
280539
448683
320156
801100
1.0577e+06
294323
295582
2.5077e+06
913040
1.05995e+06
986860
1.13934e+06
1.58825e+06
140948
158527
1.32907e+06
1.61438e+06
537778
309632
356774
181568
364309
541991
160653
284409
413494
158526
111062
1.45302e+06
1.69668e+06
330667
735601
573378
585353
1.8095e+06
827636
357626
274350
695815
570712
141032
419194
1.61496e+06
2.07186e+06
558740
388216
985644
1.16467e+06
1.07439e+06
93995
152950
404726
285959
1.53745e+06
557702
120246
59141.7
93205.4
544423
380534
953939
1.12708e+06
1.03987e+06
156473
2.23411e+06
2.55292e+06
172397
175632
167090
163010
2.23921e+06
449185
330460
956293
2.76574e+06
2.22033e+06
637007
219030
586048
541104
329191
307683
350151
193786
168001
169128
479143
2.17293e+06
123653
1.21962e+06
1.32097e+06
2.0736e+06
1.49653e+06
1.46059e+06
560150
552337
755526
767435
345823
392926
337181
152127
148196
889505
286721
2.02353e+06
1.40515e+06
357271
147470
860453
2.58301e+06
145631
1.39681e+06
1.16211e+06
1.10534e+06
1.4427e+06
982367
423787
592480
1.30649e+06
226334
953410
413449
463244
235627
474555
293434
382214
1.04892e+06
520949
218335
189132
253416
1.35161e+06
1.10963e+06
237998
227175
212615
245055
153430
711707
547991
135266
518583
156524
295909
480147
2.36358e+06
2.08089e+06
1.41196e+06
416029
292929
930510
862975
794040
373474
371952
179652
1.27889e+06
172739
731988
951525
274509
233604
2.10647e+06
118564
422913
394464
187240
2.22567e+06
115901
149144
633784
747032
222237
210939
233338
167867
158014
1.41221e+06
123354
173862
21621.6
173741
1.41112e+06
1.347e+06
2.55111e+06
1.51481e+06
1.9139e+06
155380
1.97476e+06
1.35499e+06
19558.3
141962
337204
253418
575665
625303
674131
880785
496729
2.06891e+06
1.22135e+06
1.3241e+06
208751
136990
133667
154862
167695
177451
279130
1.1816e+06
142017
2.5652e+06
627046
255093
1.33238e+06
877276
444660
620783
283922
246402
351247
527344
341220
702393
636019
252253
157788
915682
1.25851e+06
107617
117305
213059
125336
127073