/*--------------------------------*- C++ -*----------------------------------*\
| =========                 |                                                 |
| \\      /  F ield         | OpenFOAM: The Open Source CFD Toolbox           |
|  \\    /   O peration     | Version:  2.3.1                                 |
|   \\  /    A nd           | Web:      www.OpenFOAM.org                      |
|    \\/     M anipulation  |                                                 |
\*---------------------------------------------------------------------------*/
FoamFile
{
    version     2.0;
    format      ascii;
    class       volSymmTensorField;
    location    "4480";
    object      sigma;
}
// * * * * * * * * * * * * * * * * * * * * * * * * * * * * * * * * * * * * * //

dimensions      [1 -1 -2 0 0 0 0];

internalField   nonuniform List<symmTensor> 
11800
(
(155511 76526.3 7.48348e-14 -2822.21 3.96342e-14 37885.1)
(-76890.3 67167.4 1.14881e-13 -215.044 3.64239e-14 -19131.4)
(706120 98227.1 -1.9128e-15 1529.71 -8.29344e-14 175582)
(-612862 49553.8 0 -1985.01 0 -152556)
(-79714.6 64836.6 2.14334e-14 -4823.81 -6.0547e-14 -20975.7)
(-383303 101283 8.30309e-14 2138.56 4.35456e-14 -94574.7)
(-71177.5 97356.9 1.57207e-13 -596.764 -4.08742e-14 -17808.7)
(-100406 101320 -2.34016e-14 826.025 9.41323e-14 -24707.7)
(216651 50020.3 3.10883e-14 460.326 -2.12208e-14 53869.7)
(148542 106506 -8.04814e-14 477.252 -6.77795e-14 36974.8)
(179508 62808.8 -6.24275e-14 1990.26 5.34298e-14 45033.5)
(-888849 35572.7 -7.45142e-14 -6607.75 -3.3801e-14 -222181)
(24706.2 -35892.1 1.33978e-16 -66607.2 1.04124e-16 -10396.5)
(654018 50025.6 6.75409e-14 3953.58 -1.84765e-14 163256)
(-522536 94910.1 -5.63931e-14 6300.33 4.38312e-14 -128089)
(2.40831e+06 -9671.7 0 -8261.33 0 595502)
(-46476.9 75858.8 5.31999e-14 4489.96 4.6902e-15 -10417.8)
(-71770.8 69866.4 -3.00082e-14 8820.76 1.72302e-13 -15619.2)
(150134 119153 -3.04998e-14 -19267.7 2.16708e-14 32470.5)
(113186 63459.7 -1.07108e-13 -12739.1 -3.46405e-14 24923)
(-481277 56358.1 3.33883e-14 -2030.25 3.49866e-14 -119918)
(-777584 89202 5.34013e-14 3975.59 -3.10455e-14 -191948)
(-1.01177e+06 113161 -2.68152e-14 12678.4 1.72315e-14 -247895)
(-928401 64359.3 2.69237e-16 443.815 4.65547e-15 -230245)
(1.96617e+06 84738.8 3.38481e-15 -8850.53 3.88541e-14 485651)
(-1.20847e+06 113016 -2.63385e-14 8894.54 -7.4679e-16 -297639)
(-1.28547e+06 59530.4 0 11444.2 0 -316112)
(635059 44472.7 -8.86416e-14 -5449.07 -5.3525e-14 156219)
(-1.39899e+06 60684.2 -1.52265e-14 12514.1 -7.32684e-14 -344012)
(-1.51249e+06 61156.9 2.03105e-14 14851.4 -3.15592e-14 -371594)
(416079 46766.5 -1.09875e-13 -2118.69 -1.96884e-13 102712)
(83281.2 59709.8 -1.75516e-14 2812.41 -1.44897e-14 21361.6)
(1.23434e+06 109125 -4.30959e-15 14193.6 -1.88111e-14 309787)
(-30207 80170.1 1.4369e-14 -2135.2 -1.07576e-13 -8024.76)
(21272 85013.5 -3.80047e-14 2053.69 -1.631e-13 5787.59)
(-405908 34859.9 -9.97655e-14 -1582.59 -7.24682e-14 -101107)
(23490.8 86267 1.34976e-13 1547.65 -1.60491e-13 6212.54)
(1.32314e+06 61874.3 -1.58314e-14 7106 -6.75712e-14 330062)
(-48190.3 83770 0 -1353.1 0 -12292.7)
(108122 78816 -4.64729e-14 6303.19 8.65575e-14 28391.2)
(-1.35065e+06 43778.2 -8.24355e-14 -6868.97 -3.83038e-14 -336828)
(-1.4699e+06 43119.2 5.90388e-14 -7328.7 -3.3869e-14 -366530)
(667594 59938.1 -3.4195e-14 -547.857 -1.1378e-13 165508)
(-1.58902e+06 43294.6 -1.12092e-14 -5238.68 -5.98585e-14 -395568)
(437432 58963.3 2.92037e-13 991.165 -9.10804e-14 108782)
(2.25253e+06 53705.9 0 -7904.59 0 556936)
(970929 124196 -1.69469e-14 -3622.67 8.86658e-15 240008)
(1.15618e+06 43253.7 -2.99262e-14 -12642.5 -2.07688e-14 283735)
(-112943 86859.3 -1.15772e-13 744.397 -7.13139e-14 -27838.7)
(259913 83534.2 0 2451.49 0 65098)
(-923141 50090.7 -5.61004e-15 2564.64 5.93637e-14 -228414)
(-646259 46644.3 1.94085e-13 3070.63 2.2737e-14 -159588)
(-13226.1 84243.9 1.08863e-13 1233.28 6.7767e-14 -2975.67)
(48156.6 135897 -2.35197e-15 8846.56 2.04921e-14 14143.6)
(-2.58902e+06 4751.18 -3.59683e-15 -13412.2 -5.65296e-15 -645715)
(2.01909e+06 -93084.4 4.84644e-15 -92379.7 8.52748e-15 478056)
(-68956 20430.6 9.37086e-14 1907.19 3.47958e-14 -16636.2)
(-579446 99741.5 6.98753e-15 -6458.93 -5.79348e-14 -145375)
(465321 62251.6 -5.90757e-14 9720.8 8.65143e-14 117868)
(-409654 105291 4.83865e-14 -7657.21 -8.73541e-15 -103543)
(2.09078e+06 20321.9 -4.24039e-14 -15958.7 -1.46928e-14 514805)
(-56407.8 88685.5 4.60773e-14 950.13 -7.4969e-14 -13760.2)
(-456420 81235.4 -2.65572e-14 -2797.53 4.56404e-14 -113941)
(365621 81466.1 8.06471e-14 3680.75 -4.59951e-14 91631.1)
(1.94084e+06 10961.3 4.62701e-15 -1204.41 -2.80172e-14 481263)
(-283192 33699 -1.31821e-13 2040.37 -1.59277e-13 -69759.4)
(-951915 20953.3 9.2674e-14 5063.36 3.08918e-14 -234933)
(-673564 24207.1 2.7092e-15 3938.02 -1.62756e-13 -166148)
(-71519.5 21927.6 0 -3679.06 0 -18658.3)
(-1.12662e+06 61260.2 -2.10779e-15 11904.9 6.88678e-14 -276583)
(-23727.7 85576.1 -2.6409e-14 21.6348 5.45097e-14 -5881.96)
(-56175.8 66641.7 -1.01737e-13 -3267.58 1.1379e-13 -14749.1)
(-49240.9 65260.8 7.13526e-14 -1309.67 -4.36622e-14 -12542.6)
(-1.69724e+06 364481 -6.06624e-15 207745 5.4617e-15 -369574)
(2.07364e+06 72767.7 -1.65642e-15 -7100.26 -1.68387e-14 512750)
(-381346 53793.4 -9.80184e-14 3041.11 -7.12802e-14 -93865.1)
(2.03536e+06 12066.9 -3.56842e-14 4151.51 3.1754e-14 506044)
(-274988 20044.3 8.66592e-14 -342.295 -2.84279e-13 -68315.2)
(-203789 43732.5 1.62985e-14 -408.55 -1.55492e-14 -50665.6)
(-192276 58251.8 1.66408e-13 2175.82 1.66828e-13 -47167.7)
(-2.60821e+06 -51214.7 1.30923e-14 11645.7 6.15385e-14 -644261)
(114949 57067.2 0 9451.05 0 30866.2)
(60798.7 69200.6 -1.72992e-13 2044.09 -6.81439e-14 15592.6)
(42210 73875.2 5.99775e-14 994.074 -4.72152e-16 10719.8)
(-90199.8 65920.5 4.09754e-14 -9345.28 1.15929e-13 -24699.1)
(-1.47434e+06 74591.4 -2.28195e-14 -7782.6 1.14864e-13 -367743)
(451886 53419.6 1.39581e-13 4727.47 -4.34025e-14 113295)
(-1.36031e+06 73111.6 0 -7849.81 0 -339467)
(-1.24765e+06 71692.4 -4.79417e-14 -6959.68 -4.9086e-14 -311293)
(671537 50580.8 6.39284e-14 5873.93 3.90858e-15 168080)
(-14063.2 83879.4 -2.25547e-13 -3102.84 -1.44617e-13 -4259.25)
(1.46018e+06 100545 0 -4761.7 0 361120)
(-120565 73229.8 -4.78526e-14 1886.42 -7.93182e-14 -29446.5)
(74858.6 15518 -2.75837e-14 5035.51 -4.00238e-14 19823.3)
(184025 74874.5 2.11493e-13 1701.57 3.78658e-15 46082.6)
(57159.6 -43105.2 -8.52719e-16 -121426 -6.32162e-16 -15945.7)
(-3030.09 11862.9 2.22107e-17 7125.72 -1.3215e-16 1016.21)
(-57738.2 -42864 -5.40013e-16 121198 3.5982e-16 15745.6)
(-14105 85234.5 -7.01221e-14 353.215 -1.01928e-15 -3412.1)
(-774690 55234.2 -1.71841e-14 -2947.6 6.84753e-14 -192948)
(53536.7 38687.7 3.85366e-14 -51.8032 -1.07765e-13 13270.7)
(844939 62565.4 -8.32305e-14 -7679.6 -1.15082e-13 207741)
(-1.38503e+06 114528 5.54567e-15 -821.946 1.12888e-14 -343858)
(-453346 75941.5 -3.42784e-15 7104.3 1.08098e-14 -110722)
(-2140.61 90948.2 -1.08199e-14 -893.734 -5.38206e-14 -752.882)
(361819 103546 -2.22294e-14 2515.05 -3.84034e-14 90398.6)
(-173345 75908.9 -6.62011e-14 -940.891 1.45911e-13 -43243.8)
(-121352 79202.5 -2.24396e-13 -758.67 -1.08188e-13 -30298.1)
(2.06227e+06 19878.5 1.25304e-14 5537.44 2.60481e-14 513066)
(1.37283e+06 61804.6 2.04841e-14 5001.4 4.16694e-15 341869)
(1.48827e+06 63052.3 3.92435e-14 5767.4 5.45778e-14 370700)
(1.25944e+06 61168.6 1.43807e-13 4433.42 8.51863e-14 313594)
(-457169 55161.6 6.53965e-14 -3944.72 1.02107e-13 -114412)
(-679009 54298.1 -1.72932e-13 -4735.39 6.21598e-14 -169651)
(246390 68106.3 7.36377e-14 -105.483 -3.85887e-14 61108.2)
(1.85673e+06 35112.3 1.88514e-14 30.8755 1.11044e-14 460700)
(262191 31686.6 -5.38925e-14 -2998.63 -2.11856e-13 64311)
(-83260.9 79016.2 -1.86915e-13 806.326 1.74717e-13 -20458.6)
(1.739e+06 78175.2 -2.15771e-14 1278.51 2.68722e-14 431799)
(-150122 110447 -6.0429e-14 -298.803 -1.62591e-14 -37322.4)
(-232011 43574.3 -4.13542e-14 4060.08 -1.73991e-14 -56559.1)
(73056.4 97369.1 1.33761e-13 -2567.22 -1.9144e-13 17489.8)
(104426 104182 -9.31651e-14 -2100.44 6.40638e-14 25389.1)
(-74710.8 79793.7 -2.71241e-14 4303.68 -4.00069e-14 -17469.4)
(-127153 69261.7 -1.70199e-13 -1367.32 -1.32776e-13 -31888.6)
(-2987.97 83778.6 -1.63586e-13 -2489.18 -1.23053e-13 -1358.99)
(-38974.9 83040.7 -9.80698e-14 -495.19 1.07712e-13 -9793.33)
(-8857.26 85252.8 -6.41112e-14 -2303 -6.10819e-14 -2769.09)
(9702.28 57361.2 3.0459e-15 40950.2 1.36436e-13 12567.9)
(-38996 5345.97 -4.42786e-16 -9009.83 6.48262e-14 -11911.2)
(-2.1775e+06 -352045 1.9557e-14 89156.1 -9.85831e-15 -518160)
(-1.57695e+06 75689.5 1.41417e-14 -11975 -2.15674e-15 -394244)
(493376 48902.9 7.38469e-14 3675.21 -7.20067e-14 123328)
(-1.47079e+06 77800.4 -5.67243e-14 482.93 3.56031e-14 -364813)
(716778 44874.9 -3.32352e-14 4128.25 1.00688e-13 178872)
(-1.35418e+06 75258.5 2.16475e-14 604.507 2.17495e-14 -335851)
(-1.24009e+06 73256.9 -1.25022e-13 1225.32 9.5493e-14 -307387)
(410699 69377.4 7.23422e-14 -5195.19 2.01523e-13 100614)
(-1.25759e+06 29301.3 7.75083e-14 8155.23 -1.06459e-13 -310011)
(600652 73005.5 8.9705e-14 -6455.3 -7.14115e-14 147432)
(-1.15859e+06 30775.9 6.42584e-14 7259.83 -1.10553e-13 -285668)
(-1.06151e+06 32754.1 -6.66206e-14 7171.33 -5.99697e-14 -261602)
(-590125 94251.2 4.96677e-15 18622 4.99021e-14 -141802)
(181674 79747.1 -3.61211e-14 -5972.78 -2.40454e-13 43595.1)
(260015 77615.7 -5.77014e-14 -8100.75 -1.66639e-13 62504.9)
(-379325 75816.6 -1.73472e-14 11929.9 9.98528e-14 -91158.1)
(1.53334e+06 47972.5 -1.09892e-13 2022.24 -3.70734e-14 380953)
(-1.58052e+06 -21855 1.05637e-13 -12430.3 3.26423e-14 -395244)
(889783 45347.4 7.43667e-14 -2552.73 -6.92565e-14 220140)
(-449565 44301.4 1.64932e-15 8147.96 9.78603e-15 -109524)
(-206713 75901.3 -9.36562e-14 2103.33 -7.73672e-14 -50767.8)
(-216658 62521.1 8.015e-14 -2966.82 -7.24921e-14 -54493.3)
(23064.4 84517.8 6.09286e-14 1404.28 1.11254e-13 6071.17)
(-307884 54681 -1.37018e-13 -1070.26 1.42053e-13 -76657.9)
(265761 66277.3 -7.1808e-14 -4637.81 -7.58507e-14 64789.8)
(180354 75150.2 -6.58289e-14 2836.85 5.07257e-14 45453.4)
(-574446 62034.3 1.11405e-13 7969.71 -7.4973e-14 -140554)
(-804890 68868.9 4.04508e-14 3425.26 8.85229e-14 -198860)
(1.6253e+06 19497.5 2.48668e-14 1863.8 -3.26602e-16 403733)
(-7536.38 88972.6 3.1985e-14 -753.602 -1.55528e-13 -2056.91)
(2.34729e+06 83949 -2.89024e-14 -14243.2 -1.57415e-14 578876)
(-253429 68125.9 -1.18352e-13 980.743 8.15299e-14 -62637.5)
(2.04904e+06 53665.9 0 -20615.6 0 503292)
(-587865 68909.2 3.47037e-14 -6049.56 1.44904e-13 -147362)
(-641256 68815.8 -3.55821e-14 -6811.84 4.21875e-14 -160799)
(-694366 69712.6 -5.77435e-15 -7184.98 1.52415e-13 -174069)
(324584 76773.1 -8.76893e-14 1078.15 2.15607e-14 80803.4)
(220636 78273.2 -9.35926e-14 672.644 2.30999e-14 54911.2)
(-2.55086e+06 -22018 2.29041e-14 -9674.06 -1.30552e-14 -635320)
(-1.59433e+06 74047 -2.36499e-14 -9327.91 4.45411e-14 -397900)
(562664 52586.2 -9.34122e-14 5171.67 -5.46556e-14 140892)
(782270 49534.2 2.62213e-13 6255.25 -1.40898e-13 195649)
(87313.4 85249.5 5.13605e-14 -8401.5 -1.32756e-13 19579.7)
(-457807 38441.1 0 1676.7 0 -113175)
(-463515 20705.5 1.40484e-13 -3123.78 -7.14023e-14 -115783)
(2.24676e+06 59399.5 3.75953e-14 -15988.6 2.50665e-14 553500)
(2.2994e+06 -15557.8 3.11706e-14 14159.9 2.75236e-14 574040)
(1.21366e+06 23793.2 1.93267e-15 -1275.96 6.59915e-14 300818)
(1.11469e+06 26344.7 1.35482e-14 -999.811 1.60357e-13 276329)
(1.31454e+06 21293.7 3.40647e-14 -2385.36 -4.92422e-14 325572)
(-573474 74996.4 -8.47171e-14 4795.86 7.62067e-14 -141101)
(-380273 70399.2 -8.22138e-14 3721.01 9.01483e-14 -93430.3)
(249995 100282 0 2043.47 0 62535.8)
(170753 96647.7 -3.41361e-15 790.399 1.30681e-13 42563.3)
(545019 74529.8 -1.00567e-13 -158.501 8.22127e-14 135191)
(-229840 70364.3 -8.04291e-14 2979.55 1.90624e-13 -56288.6)
(-356844 105567 -1.58781e-14 4635.58 7.01425e-14 -87390)
(111026 77270 -2.99503e-13 -841.833 -7.94553e-14 27338.9)
(158294 73759.8 -2.07055e-13 -1183.34 8.66114e-14 38982.4)
(-96623 88841.5 -4.03878e-14 2260.09 -5.64886e-16 -23413.4)
(-271726 57228.8 -3.32921e-14 5911.2 -2.07776e-14 -65954.1)
(-250040 58791.8 2.20149e-14 5280.97 -3.75733e-14 -60729.7)
(-252206 42815.8 0 -413.854 0 -62680.1)
(-120024 109189 4.53827e-16 -5313.56 -4.34743e-14 -31098.9)
(-1.1675e+06 2189.66 9.8046e-14 -7088.1 -4.29302e-14 -291438)
(1.4648e+06 57495.2 -1.27269e-13 -6683.13 -1.2829e-14 361789)
(1.78497e+06 181199 7.52395e-15 -305130 3.801e-15 367179)
(-42505.6 74112 2.67459e-14 -3732.42 -6.06086e-14 -11472.6)
(273645 25392.5 9.76026e-14 2450.56 -2.22788e-13 68504.8)
(-2.2345e+06 -280167 1.87958e-14 180696 -1.21231e-14 -509591)
(127403 58844.4 4.17656e-15 3844.16 1.13219e-13 32565.1)
(349685 41530.3 7.87891e-14 891.563 -9.04347e-14 86985.1)
(386437 45624.5 1.10015e-13 -5593.79 -4.64095e-14 94494.9)
(-4901.37 87754.2 8.28735e-14 -105.33 -1.22875e-14 -1242.26)
(-5559.73 90831.6 8.74172e-14 -648.552 7.39038e-15 -1540.4)
(1.06044e+06 33496.4 2.79045e-14 -5116.12 9.27283e-14 261847)
(879161 95871.4 3.54397e-14 8113.19 -8.5431e-15 220151)
(-799734 79499.6 0 7975.48 0 -196451)
(-683535 41762.4 -9.02736e-14 -10478.2 -5.64547e-14 -172199)
(2.17245e+06 -355754 -7.88976e-15 -91330.3 -5.31618e-15 516367)
(-668893 122474 -7.20611e-15 18644.1 8.38545e-14 -161340)
(-1.06878e+06 39575.8 4.94769e-14 -2248.93 -2.91424e-14 -265743)
(-2.26441e+06 -912030 -2.12201e-14 474041 8.2903e-15 -444226)
(2.72283e+06 1681.03 0 37214.8 0 684824)
(-1.98301e+06 -844602 -6.90499e-15 223218 2.134e-15 -436641)
(349360 121493 -4.71375e-14 -163.541 1.66039e-14 86642.8)
(-78222.5 71126 -8.45284e-15 -914.388 1.18169e-13 -19635.5)
(-1.03112e+06 88969.3 4.19362e-14 -8712.79 -4.60957e-14 -258003)
(-944126 89337.3 6.25248e-14 -7827.67 -7.80757e-15 -236199)
(-866326 87241.4 -7.13698e-14 -7035.14 2.77494e-15 -216699)
(307983 62080.4 6.26974e-14 4082.4 -1.74898e-13 77429.7)
(462970 59247.1 -1.57327e-13 5186.35 1.5292e-13 116159)
(45685.8 76768.4 -2.4741e-14 -8025.61 1.1609e-13 9344.26)
(65231.8 72252.9 5.85485e-14 -10989 7.49866e-14 13458.7)
(-147686 115596 -6.64328e-14 24578 1.79679e-14 -30545.5)
(-94635.3 67185.5 4.97466e-14 16246.3 -6.36107e-14 -19449.9)
(-1.24138e+06 -499654 -5.34816e-15 -31080.5 1.11665e-15 -315723)
(233582 116769 -3.77684e-14 17731.9 -1.33738e-13 62356.1)
(-116099 69014.7 -1.30721e-13 -9202.18 -5.97431e-14 -31089.8)
(-545366 110284 0 32.3897 0 -135308)
(233137 63353 1.00104e-13 1220.6 -4.08408e-14 58148.8)
(-114949 94608.8 0 -665.315 0 -28686.3)
(-85767.1 75073 -6.36478e-14 -958.792 -1.0079e-13 -21518.5)
(814984 78556.6 8.89542e-14 4544.66 -9.30237e-14 203342)
(837290 48717.6 1.36215e-13 27.3888 6.50449e-14 207755)
(2.26242e+06 -911339 -7.94141e-15 -474007 -2.624e-15 443741)
(1.23995e+06 -499596 9.27637e-15 31016.5 2.54195e-15 315354)
(-253417 54406.7 1.9402e-14 1986.02 2.76039e-14 -62385.2)
(-270450 55281.3 -5.89447e-14 -2965.6 -1.20503e-13 -67839.9)
(-1.45042e+06 -680.304 -6.4733e-14 -5471.16 -1.48245e-14 -361237)
(1.17692e+06 53112.7 1.46707e-13 -3962.91 -3.83132e-14 291034)
(380429 71148.6 4.87534e-15 -3186.42 2.66919e-13 93601.4)
(572928 76667.5 9.06872e-14 -3915.84 9.85744e-14 141183)
(-1.31511e+06 21529.1 -2.38967e-15 -712.848 5.60797e-14 -326482)
(-1.2167e+06 25838.6 -5.70996e-14 -969.969 1.88785e-14 -302128)
(-1.11716e+06 28395.8 -3.83638e-15 -1012.92 8.87172e-14 -277443)
(-17137.9 90226.1 -1.37978e-13 -906.287 3.98981e-14 -4477.12)
(-1.42426e+06 23837.1 3.70288e-14 -2217.87 3.9811e-14 -353939)
(478383 71713.2 -9.29465e-14 -3240.51 4.55843e-14 117893)
(671684 75808 0 -3617.83 0 165761)
(633414 56329.4 3.53907e-14 -4760.43 8.43986e-14 155982)
(121999 75251.2 -1.16607e-13 685.414 -3.08173e-13 30440.5)
(10619 77286.7 -1.0218e-13 -9105.06 -3.75672e-14 375.633)
(516185 39630.9 -1.28913e-13 15905.7 2.30626e-14 132022)
(-439987 58686.6 -1.10787e-14 -1307.02 -8.96899e-14 -109494)
(69591.2 78527.1 1.50346e-15 -16704.7 1.87026e-14 13122.2)
(1.98051e+06 -844590 -7.18564e-15 -223789 -1.8057e-15 435877)
(313657 82938.1 9.18405e-15 -2694.68 -1.703e-13 77156)
(377907 80622.9 7.93038e-14 204.17 2.69655e-14 93817.1)
(-247724 79678.7 0 -635.705 0 -61623.1)
(-294267 89893.3 2.96263e-14 -7608.79 -8.24191e-14 -74901.6)
(869777 87016.6 0 7876.26 0 217764)
(947868 89213.6 5.22748e-14 8634.03 4.95731e-14 237328)
(1.02552e+06 92890.2 -1.16897e-13 9052.42 -1.13036e-14 256699)
(-462924 56244.2 1.66068e-13 -5971.99 1.68658e-13 -116342)
(-311328 60957.2 8.73146e-15 -4299.41 -1.00968e-13 -78313.6)
(-16596.5 85942.1 9.82838e-14 -502.856 5.23115e-14 -4242.7)
(2.04141e+06 11520.8 -1.51285e-14 -32122.3 -2.75887e-14 498546)
(-12755 101291 -1.06152e-13 -6256.72 3.30656e-14 -4717.2)
(26970.5 49071.8 -1.01058e-13 12276.5 -6.28639e-14 9737.97)
(45822.6 81519.2 7.63678e-14 1376.77 -1.77177e-13 11711.1)
(492666 82213.2 8.1201e-14 494.699 8.57679e-14 122363)
(-192213 3873.9 -1.35162e-13 -3193.49 6.62055e-15 -48484.3)
(651441 91717.8 0 -4063.08 0 160628)
(2.14455e+06 -93609.5 3.47938e-16 -297238 1.39685e-16 458355)
(489739 21707.3 7.80346e-14 7257.66 1.77403e-13 123315)
(470814 34767.9 3.53648e-14 -6861.19 1.92669e-14 115116)
(-708661 78557.7 1.16123e-14 6565.92 2.45189e-14 -174204)
(-503899 73448.9 -9.05567e-14 5546.3 2.90024e-14 -123651)
(-603818 47802.1 -1.85061e-13 -2998.65 -3.23611e-14 -150564)
(-432752 52832.6 9.34699e-15 -3145.32 -9.82512e-15 -108155)
(1.49452e+06 19400.3 -6.43328e-15 -3911.39 2.11914e-14 369850)
(1.23766e+06 98824.9 2.64551e-15 -715.133 -4.3827e-14 306911)
(357788 90632.1 1.63802e-14 -4389.48 9.6859e-15 87685.4)
(481160 74707.8 3.0754e-14 -317.72 5.22927e-14 119307)
(263755 89607.1 8.55905e-14 -4406.85 6.09659e-14 64349.6)
(353413 75096 7.67473e-14 -1472.16 -1.2144e-14 87323.6)
(-675877 51732.6 -1.40843e-14 7060.37 3.53075e-14 -165947)
(-889383 82973.8 -3.90522e-14 2758.15 7.01915e-15 -219990)
(-202657 132152 4.32999e-14 -661.357 3.08859e-14 -50447.4)
(1.46243e+06 58257.4 4.83375e-14 5823.21 3.46558e-14 364303)
(1.58567e+06 57859.1 -1.04664e-14 25910 5.1954e-15 399865)
(1.87968e+06 59351.4 8.50065e-15 -1784.72 5.35071e-15 465944)
(131618 84187.9 -1.66595e-13 -401.778 2.02235e-13 32557.3)
(-483288 22742.8 -1.03216e-13 -6761.73 -5.30576e-14 -121591)
(-467633 37762.5 -1.30975e-13 4093.08 8.75821e-14 -115014)
(2.20088e+06 -10207.6 0 13747.4 0 549494)
(2.20713e+06 66820.1 0 1442.71 0 547992)
(1.32362e+06 51824.6 2.02152e-14 -1829.5 9.61353e-14 327962)
(1.31222e+06 7022.27 6.44352e-14 5315.44 -1.81112e-13 326908)
(-1.36277e+06 10044.4 0 -10042.2 0 -340624)
(-1.32903e+06 52302.8 0 9086.71 0 -327505)
(38004.4 81443.4 -2.29571e-14 2405.47 6.57348e-14 10026.5)
(-92422.9 33807.4 2.45669e-13 -5250.69 -1.03953e-13 -24234.8)
(-358215 35095.4 -6.47789e-14 -3576.14 -2.38954e-14 -89767.8)
(2.87071e+06 3027.02 0 57939.2 0 726658)
(-50589.6 71104.3 -1.6201e-13 -1189.85 -4.03949e-15 -12847.5)
(-60163.1 73898.6 -2.33348e-14 -4771.05 -1.29741e-13 -16111.5)
(318212 97954.9 -8.35098e-14 -7293.35 -5.72157e-14 77145.1)
(-250824 95816.5 -1.73953e-13 -7592.05 7.28226e-14 -64118.4)
(304540 57561.7 5.04637e-14 -8174.86 -5.21782e-14 73534.2)
(-1.16431e+06 49124.8 3.58039e-14 -10739.5 -7.2852e-14 -291553)
(1.17406e+06 54034.5 -1.48809e-14 -12165.9 -8.90763e-14 288290)
(-1.96367e+06 81956.7 1.53997e-14 -12114.8 -6.56719e-14 -490233)
(-2.3136e+06 -211820 8.10424e-15 426724 -5.81121e-15 -468173)
(810734 105348 -1.29165e-14 -16955.7 1.60244e-14 196952)
(92967.8 105987 -8.62705e-15 -5074.17 4.85564e-14 21808.2)
(-1.09849e+06 86773.2 -4.31951e-14 -4664.26 -1.21056e-13 -273714)
(924547 27304.3 -5.62857e-14 12095.6 8.11713e-14 232400)
(-639258 52240.2 6.20422e-14 -11017.5 7.95549e-14 -161347)
(499863 85543.5 9.33024e-14 6170.77 1.63641e-15 125557)
(93612.5 92341.7 2.60524e-14 5650.03 1.21868e-15 24629.1)
(159845 70688.2 -1.10178e-13 -867.504 1.38323e-13 39445.6)
(-316646 60194.2 7.53738e-14 -20096.6 -8.00137e-14 -83552.7)
(-512787 123555 1.22397e-15 8736.36 1.00767e-13 -125065)
(-290933 61486.8 1.16333e-14 -18568.1 -8.09981e-14 -76793.5)
(-470909 119621 7.35802e-14 7971.9 -2.68817e-14 -114864)
(116959 49163.4 -4.60722e-14 -3335.38 1.43041e-14 28192.3)
(-55302 102678 -1.22466e-15 2734.48 -9.09018e-14 -13043.1)
(-36124.9 100513 1.12829e-13 2710.78 9.04705e-14 -8290.73)
(-24160.2 88985.4 5.80836e-14 901.657 -1.26429e-13 -5770.91)
(1.55731e+06 40477.5 3.31726e-14 4562.33 5.14367e-15 387533)
(-16063 102759 -1.2751e-13 -7316.51 -5.66593e-14 -5800.93)
(-61582.8 73508.1 6.30631e-14 -4486.97 -2.11098e-13 -16393.2)
(2.16316e+06 -65877.7 -1.64373e-14 -111354 -1.19679e-14 509096)
(364064 60014.7 6.71919e-14 -5362.25 -8.61784e-14 89001.2)
(-839658 105742 4.47257e-14 15306.4 1.20671e-14 -204538)
(-967902 67938.5 -7.33013e-14 2043.83 -3.20666e-14 -239649)
(-960962 29608.4 0 -11852.6 0 -241375)
(1.20894e+06 16501.5 -6.59641e-14 5691.73 -3.13611e-14 301375)
(1.15815e+06 76835.8 4.04091e-15 9721.17 7.85395e-14 289772)
(-36723.1 60868.8 -7.45941e-14 850.588 6.0785e-14 -8900.7)
(-27957 61336.2 5.41123e-14 1627.53 -3.02491e-13 -6532.89)
(-749313 113269 -2.94927e-14 8883.38 -7.20175e-16 -183716)
(-1.00942e+06 79504.8 0 12891.1 0 -247258)
(711829 47834.1 1.61324e-14 7991.43 3.96028e-14 178602)
(-1.83827e+06 100713 7.05773e-15 -8901.87 -2.22613e-14 -458322)
(65695.5 70674.2 0 16866 0 20485.2)
(1.0208e+06 41168.3 -3.49775e-15 -3392.9 2.42675e-14 252439)
(774390 109861 -1.89314e-15 6111.16 9.18101e-17 193658)
(-490379 90505.4 1.38632e-13 4533.57 -1.78246e-14 -120548)
(-380772 60653.1 -1.35482e-14 -3815.28 9.76546e-14 -95423.8)
(-349708 86128.2 2.14591e-14 3795.59 -8.15202e-14 -85828)
(-274188 64982.8 -1.21293e-15 -3174.33 4.78928e-15 -68819.2)
(-389004 40422.8 5.0171e-14 41.4994 7.40778e-14 -96509.4)
(-328250 46097.5 -8.77609e-14 2763.17 1.76557e-14 -80760)
(-401327 110131 0 972.378 0 -99336.1)
(-450408 111115 -4.40898e-14 -1214.61 3.82887e-14 -112057)
(-489675 114365 -3.59619e-15 -1533.42 -4.09863e-15 -121879)
(134054 70840.3 -2.16016e-13 1320.27 -1.07968e-13 33589.1)
(-26694.6 84630.1 -4.79479e-14 -2360.19 9.54101e-14 -7209.09)
(968755 42008.8 -2.6965e-14 5803.99 7.68507e-14 241808)
(1.01433e+06 57828.5 3.73493e-14 -6649.71 -7.25986e-14 250025)
(167508 74497.6 7.772e-15 1546.02 -5.3833e-14 41945.7)
(245852 67997.9 0 2901.4 0 61720.9)
(-528649 109378 5.50688e-14 -2754.65 -6.04837e-14 -131852)
(469754 64512 -1.0528e-13 4645.19 -1.33794e-15 117708)
(512930 97456.3 -4.60863e-14 5280.43 -2.85484e-15 128579)
(-188620 81977.5 -8.87665e-14 -500.727 1.27178e-13 -46924.6)
(-161015 85869.6 5.17871e-14 -1757.05 3.03738e-15 -40387)
(-230877 90075.7 8.38844e-14 -1263.79 2.98292e-14 -57598.8)
(-256319 76934 0 -3184.08 0 -64388)
(-1.10956e+06 42769.3 2.4533e-14 -297.828 -3.73947e-14 -275378)
(516926 79157.1 -4.06477e-14 -1137.4 -1.60601e-13 127978)
(367292 76629.7 -1.86183e-14 -1242.58 -2.66082e-15 90824.3)
(-118824 212021 -1.11978e-14 23697.8 -7.98193e-15 -23602.7)
(1.33936e+06 34241.9 -8.51982e-14 -9636.79 -5.10236e-14 329932)
(-1.56264e+06 8694.1 7.36846e-14 2187.72 4.40831e-14 -387179)
(-176891 195901 0 -6877.39 0 -45596.6)
(-184407 79391.6 3.1032e-14 2120.88 9.36466e-14 -45229)
(-155645 83919.9 -2.33413e-13 3712.68 -5.91952e-14 -37697.4)
(-269210 78663.3 1.00642e-13 1721.21 1.12512e-15 -66369.4)
(-231829 86595.2 0 3159.89 0 -56737.4)
(526734 62360.9 5.10903e-14 -4729.74 -8.22198e-14 129520)
(604758 88756.1 1.8664e-14 -3608.47 7.90733e-15 149157)
(491761 66651.7 -3.80391e-14 -9721.83 3.64033e-14 119604)
(573420 91910.7 4.06399e-14 -6738.61 1.12178e-13 140605)
(451415 67002.5 3.1898e-14 -8815.25 5.34872e-14 109818)
(526236 90351.1 -6.92767e-14 -6191.03 3.95737e-14 129034)
(413854 39421.2 3.16688e-14 -243.699 1.19547e-13 102625)
(399313 22398.5 9.31172e-14 2062.25 1.99313e-13 99589.3)
(-786633 87038.1 -1.7663e-14 1084.4 2.31722e-14 -194911)
(373866 84326.3 -9.64191e-14 -4677.62 -2.34533e-15 91603.1)
(-885534 61986.8 0 7599.18 0 -217833)
(1.53176e+06 93073.1 5.17477e-14 -13014.1 -3.25403e-14 376833)
(-777980 38116.8 9.71378e-14 2951.34 -1.59519e-13 -192300)
(-566213 44372.4 1.17338e-13 949.313 -7.88349e-14 -140253)
(-1.70867e+06 -807802 -6.57251e-15 270747 1.46912e-15 -356777)
(50763 79199.4 1.31101e-13 111.144 -3.44147e-14 12622.9)
(1.62469e+06 49982.5 -1.72982e-14 -3677.27 -8.79964e-16 402205)
(-794651 60198.7 -2.71698e-14 3038 -7.87869e-14 -196415)
(-571103 58157.1 1.69984e-13 2717.43 8.3623e-14 -141028)
(2.411e+06 -19839.6 2.80639e-14 -5217.03 1.24907e-14 596925)
(-109058 70341.9 -1.88024e-14 -1787.58 7.54016e-14 -27503)
(1.67175e+06 11197.8 4.29829e-14 4893.76 -2.66951e-14 416009)
(-393703 61483.1 5.88263e-14 1579 -1.03672e-13 -97294)
(-1.37663e+06 91485.4 3.48326e-14 14178.8 -4.54e-15 -338051)
(-1.29384e+06 56946.3 -2.12768e-14 -7494.75 -1.61458e-15 -322888)
(1.25486e+06 58545.2 -4.02704e-14 2161.63 2.63115e-14 311893)
(-160930 82933.7 -2.5647e-13 6332.32 -1.16697e-13 -38358.8)
(-3742.23 -43366.7 2.67489e-16 -67996.4 9.50954e-17 -17799.8)
(-19377.2 75100.1 0 3065.92 0 -4047.17)
(-2.26774e+06 -725091 1.0796e-14 284214 -2.97584e-15 -492154)
(1.70581e+06 -807747 1.27869e-14 -273024 4.02049e-15 355503)
(-1.10316e+06 95656.6 4.51024e-14 -8818.81 -4.37084e-14 -275905)
(384796 58788 1.96522e-14 3764.42 7.58127e-14 96409.6)
(535396 54030.2 -6.31477e-14 5090.21 1.4374e-13 134106)
(153604 77973.5 1.26571e-13 -1233.03 3.76807e-14 37806.4)
(-287444 14476 7.33519e-14 2.7519 -1.1277e-13 -71320)
(260226 102716 -6.08985e-14 -1708.35 5.57137e-14 64143.5)
(-131704 61315.6 1.79908e-14 812.697 2.75756e-14 -32476.7)
(-117932 111119 1.28241e-14 4816.25 3.71561e-14 -28066.3)
(-1.86307e+06 -440.126 -5.93393e-15 49867.5 1.40335e-14 -449892)
(15196.9 -25807.8 7.02029e-17 -45070.6 4.35763e-17 -7412.28)
(-653320 102207 -2.71134e-16 8176.14 5.09169e-15 -160073)
(514815 55585.3 4.57084e-14 -3445.5 1.4152e-13 126881)
(1.93054e+06 -374162 1.1371e-15 -50477.3 1.46813e-15 466481)
(-58399.3 60871.5 -1.17355e-14 -10270.7 -9.12048e-14 -17038.4)
(-65457.8 105134 9.31037e-15 -4844.72 8.90397e-14 -17443.5)
(-37122.7 91477.6 -1.59295e-15 4.85075 -1.36311e-13 -9209.7)
(-95371 76163.4 -2.51163e-14 4075.47 3.42036e-14 -22652.3)
(43675.8 90217.5 4.08203e-14 -1632.65 1.05457e-13 10431.8)
(28734.6 92167.1 -9.59696e-14 -161.206 -3.13213e-14 7089.65)
(-1.93422e+06 -371769 4.83307e-15 48718.3 -1.49434e-15 -467831)
(685735 94163.5 -3.70555e-14 2649.4 2.00311e-14 170802)
(-240850 76675.6 -2.56921e-13 -913.432 -7.28748e-14 -59986.4)
(812735 80195.5 1.33183e-13 4832.8 -2.25434e-13 202855)
(747122 79368 -1.67782e-15 4450.51 -8.65523e-14 186480)
(684430 77031.5 -2.47825e-13 2457.08 3.73633e-14 170431)
(118003 43408.3 -1.25555e-13 3953.38 -4.69609e-14 30260)
(-1.58974e+06 30856.2 6.69158e-14 -3986 -6.488e-14 -395436)
(504995 61235.8 1.36132e-13 -2896.26 1.46873e-14 124581)
(717828 63641.1 -6.16255e-14 -2914.72 -8.8098e-14 177384)
(-136866 76185 -2.17602e-13 -324.126 -3.66769e-14 -34039.6)
(1.01114e+06 102775 1.41041e-14 -13510.8 2.03225e-14 247532)
(195580 58649.6 -8.8047e-14 459.81 5.96244e-14 48641.6)
(-2.02278e+06 21817.6 -2.25613e-14 -2712.31 -8.3301e-15 -502565)
(59248.7 78096.4 -1.13549e-13 1815.7 -9.55005e-14 15151.3)
(-171995 83768.3 -2.25774e-13 1310.12 1.06581e-13 -42350.5)
(583790 62720 1.69333e-13 428.114 -2.43439e-14 144956)
(536679 63407.3 1.58414e-13 377.136 3.85442e-14 133255)
(491101 62134.5 -1.14943e-13 -1549.65 3.16515e-14 121468)
(1.05368e+06 44346.2 1.69682e-14 59.476 3.55409e-14 261455)
(234253 84010.9 -7.61915e-14 3348.44 -1.63219e-13 58953.8)
(-584225 67834 5.15939e-14 -9028.9 1.15082e-15 -147198)
(-455007 125196 3.13854e-14 4148.5 3.49618e-14 -111867)
(-256528 50446.1 0 1955.82 0 -63164.6)
(-815120 93368.8 -6.96872e-14 -9266.64 2.12105e-14 -204547)
(-889550 95768.6 -1.0472e-13 -10307.3 -6.90909e-15 -223273)
(-965813 99070.3 -1.04433e-13 -11717.3 5.02863e-14 -242545)
(462394 62229.2 2.16263e-15 7549.52 2.67982e-14 116602)
(315717 67331.1 3.39404e-14 5503.18 -4.24807e-14 79701.2)
(80636.2 6198.39 -9.86698e-14 4109.48 3.55872e-14 21027.1)
(162353 65117.7 0 -1764.53 0 39845.4)
(208347 52264 -1.1555e-13 2025.2 6.89518e-14 52197.7)
(2.33845e+06 -116343 -6.07349e-15 -304854 -2.92299e-15 504575)
(905007 42542.8 1.13432e-13 1805.81 -1.16392e-13 224999)
(-695152 85107.9 0 1530.98 0 -172102)
(-485930 76600.2 -5.62356e-14 9482.56 -2.46751e-15 -118216)
(391170 80825.7 3.00593e-14 -4030.38 -3.7167e-14 96057.2)
(-124572 96470.7 5.02367e-14 -2732.97 4.12048e-14 -31587)
(-15142.1 92814.2 1.48238e-13 -3218.47 -1.1677e-13 -4555.64)
(41560.8 65800.4 1.17817e-13 10099.1 -1.86342e-14 12817.9)
(45345.6 64928.4 -6.15838e-14 11028.3 -5.73186e-14 13987.5)
(-4145.12 118242 -3.08336e-15 -2838.97 -2.52443e-14 -1732.9)
(-10898.3 61188.5 -2.76196e-14 -1004.18 9.28577e-14 -2953.26)
(691.843 71432.1 -1.03532e-13 177.818 7.71316e-14 215.781)
(14070.8 74195 9.89474e-14 -14489.5 -4.49352e-14 -103.895)
(172653 50445.3 -7.60155e-15 2420.38 -3.57474e-14 43439.3)
(-316418 118631 -1.78444e-15 1950.73 -1.72003e-14 -78025.6)
(102723 74487.4 2.4815e-13 1548.75 -4.88118e-14 25871.9)
(15755.2 114909 1.02404e-14 -18801.4 1.45668e-14 -755.825)
(-671947 117208 -2.55871e-14 -2745.72 -1.53468e-14 -167405)
(860619 52517.2 8.49325e-14 3530.65 7.57098e-14 214413)
(-370355 86872.3 -9.54811e-14 -425.371 3.12257e-14 -91998.1)
(-1.54768e+06 275616 -4.41748e-15 272112 2.6396e-15 -316494)
(-228572 48138.4 6.80238e-14 -1954.68 7.38449e-14 -57198.3)
(-374369 118734 0 4081.35 0 -91875.8)
(111491 75037.8 1.32429e-13 613.96 -1.82874e-13 27815.6)
(173536 68376.5 7.0017e-15 -474.397 2.27259e-14 42940.1)
(1.70144e+06 -376407 -1.36859e-15 55008.5 2.38643e-16 435812)
(-2.36137e+06 8336.07 -1.88678e-14 14075.9 8.66954e-15 -582412)
(743752 60947.3 4.17124e-14 3818.55 3.50317e-14 185487)
(809473 60184 -4.22049e-14 3927.66 9.192e-14 201821)
(-244929 82968.8 -3.14233e-13 859.53 -1.12168e-13 -60558.7)
(172661 105543 5.5185e-14 11395.4 1.08715e-13 45668.1)
(-37542.4 71268.9 8.84103e-14 -2835.81 1.34493e-13 -10018.7)
(-964043 -626232 -1.17082e-15 72165.2 4.92645e-16 -221293)
(-2.30292e+06 76371.8 6.17715e-15 1800.98 7.98226e-15 -570953)
(2.04112e+06 36729 3.35528e-14 4029.22 -1.6519e-14 507443)
(-2.94929e+06 -51824.6 -8.69275e-15 -7871.67 -3.74051e-15 -733732)