/*--------------------------------*- C++ -*----------------------------------*\
| =========                 |                                                 |
| \\      /  F ield         | OpenFOAM: The Open Source CFD Toolbox           |
|  \\    /   O peration     | Version:  2.3.1                                 |
|   \\  /    A nd           | Web:      www.OpenFOAM.org                      |
|    \\/     M anipulation  |                                                 |
\*---------------------------------------------------------------------------*/
FoamFile
{
    version     2.0;
    format      ascii;
    class       surfaceScalarField;
    location    "0.03";
    object      phi;
}
// * * * * * * * * * * * * * * * * * * * * * * * * * * * * * * * * * * * * * //

dimensions      [0 3 -1 0 0 0 0];

internalField   nonuniform List<scalar> 
15416
(
-0.00076041
2.01579e-05
0.000752527
-0.000772711
1.29912e-05
-0.000786675
1.45159e-05
-0.000801659
1.52651e-05
-0.000817012
1.5464e-05
-0.000832322
1.52815e-05
-0.000847482
1.51241e-05
-0.000862221
1.46937e-05
-0.000876385
1.4156e-05
-0.000889762
1.33783e-05
-0.000902447
1.27168e-05
-0.00091451
1.21002e-05
-0.000926158
1.17107e-05
-0.000937758
1.1671e-05
-0.000949866
1.21955e-05
-0.00096296
1.31616e-05
-0.000977432
1.45232e-05
-0.000993614
1.62042e-05
-0.00101179
1.82322e-05
-0.00103206
2.03578e-05
-0.00105452
2.25632e-05
-0.00107925
2.48131e-05
-0.00110616
2.69786e-05
-0.00113512
2.90148e-05
-0.00116605
3.09865e-05
-0.00119885
3.28537e-05
-0.00123335
3.45362e-05
-0.0012693
3.59888e-05
-0.00130654
3.72837e-05
-0.00134494
3.84441e-05
-0.00138429
3.93695e-05
-0.00142441
4.01287e-05
-0.00146522
4.07985e-05
-0.00150649
4.1271e-05
-0.00154806
4.15601e-05
-0.00158985
4.17839e-05
-0.00163175
4.18851e-05
-0.00167357
4.18127e-05
-0.00171511
4.1523e-05
-0.00175631
4.11811e-05
-0.00179711
4.07806e-05
-0.00183734
4.02e-05
-0.00187684
3.94807e-05
-0.00191563
3.8754e-05
-0.00195342
3.77612e-05
-0.00199016
3.67039e-05
-0.00202588
3.56843e-05
-0.00206055
3.46257e-05
-0.0020939
3.33118e-05
-0.00212591
3.19824e-05
-0.00215662
3.06714e-05
-0.00218609
2.94348e-05
-0.00221391
2.77876e-05
-0.00224025
2.63112e-05
-0.00226498
2.47058e-05
-0.00228835
2.33489e-05
-0.00230961
2.12471e-05
-0.00232904
1.94271e-05
-0.0023469
1.78641e-05
-0.0023633
1.64046e-05
1.49628e-05
-0.00237825
-0.000598185
3.45619e-05
0.000583688
-0.000617583
3.28817e-05
-0.000636395
3.38128e-05
-0.00065515
3.4347e-05
-0.000674387
3.48326e-05
-0.000693246
3.41382e-05
-0.000712043
3.38588e-05
-0.000730177
3.27502e-05
-0.000748218
3.21334e-05
-0.000765564
3.06746e-05
-0.000782636
2.97618e-05
-0.000799551
2.89947e-05
-0.000816603
2.87683e-05
-0.000834246
2.93295e-05
-0.000852806
3.07811e-05
-0.000872876
3.32315e-05
-0.000894814
3.6429e-05
-0.000918963
4.03004e-05
-0.000945357
4.46282e-05
-0.000974141
4.91876e-05
-0.0010054
5.38815e-05
-0.00103895
5.84039e-05
-0.00107475
6.28113e-05
-0.0011127
6.69802e-05
-0.00115258
7.08751e-05
-0.0011942
7.44778e-05
-0.0012373
7.76228e-05
-0.00128181
8.04837e-05
-0.00132744
8.29162e-05
-0.00137391
8.49188e-05
-0.00142123
8.66667e-05
-0.00146921
8.80779e-05
-0.00151751
8.90675e-05
-0.00156606
8.97919e-05
-0.00161481
9.02925e-05
-0.00166343
9.03823e-05
-0.00171189
9.0327e-05
-0.00176004
8.99395e-05
-0.00180782
8.92864e-05
-0.00185502
8.83685e-05
-0.00190136
8.71111e-05
-0.001947
8.58296e-05
-0.00199175
8.42141e-05
-0.00203534
8.23347e-05
-0.00207787
8.02776e-05
-0.00211915
7.7966e-05
-0.00215918
7.57025e-05
-0.00219759
7.3024e-05
-0.00223466
7.03699e-05
-0.00227025
6.75576e-05
-0.00230427
6.46771e-05
-0.00233693
6.20817e-05
-0.00236697
5.78127e-05
-0.00239653
5.58531e-05
-0.00242316
5.13176e-05
-0.00244852
4.86799e-05
-0.00247046
4.31751e-05
-0.00249212
4.10729e-05
-0.00251188
3.76178e-05
-0.00252979
3.4303e-05
2.93574e-05
-0.0025442
-0.000553434
5.43084e-05
0.000533206
-0.00057583
5.51545e-05
-0.000597875
5.60437e-05
-0.000620069
5.67875e-05
-0.000642076
5.69647e-05
-0.000664589
5.66658e-05
-0.000686706
5.59109e-05
-0.000708734
5.46983e-05
-0.000730597
5.39121e-05
-0.000752507
5.25275e-05
-0.00077436
5.15547e-05
-0.000796033
5.06363e-05
-0.000818226
5.09366e-05
-0.000841047
5.21588e-05
-0.000864951
5.4683e-05
-0.000890313
5.8583e-05
-0.00091759
6.36488e-05
-0.00094706
6.97229e-05
-0.000978867
7.64205e-05
-0.00101321
8.35807e-05
-0.00104999
9.07156e-05
-0.00108931
9.77826e-05
-0.001131
0.000104546
-0.00117489
0.000110896
-0.00122074
0.000116726
-0.00126834
0.000122058
-0.00131751
0.000126755
-0.00136796
0.000130919
-0.00141944
0.000134378
-0.00147196
0.000137435
-0.00152513
0.000139814
-0.00157873
0.000141644
-0.00163283
0.00014314
-0.00168703
0.00014396
-0.00174119
0.00014443
-0.00179523
0.000144406
-0.00184898
0.000144051
-0.00190225
0.000143195
-0.00195496
0.000141987
-0.00200697
0.00014038
-0.00205827
0.000138405
-0.00210837
0.000135928
-0.00215749
0.000133337
-0.0022054
0.000130242
-0.00225203
0.000126904
-0.00229733
0.000123274
-0.00234108
0.00011945
-0.00238331
0.000115251
-0.0024238
0.000110855
-0.00246308
0.000106833
-0.00249964
0.000101233
-0.00253428
9.67114e-05
-0.00256766
9.11812e-05
-0.00259929
8.74655e-05
-0.00262921
8.12079e-05
-0.00265576
7.52153e-05
-0.00268202
6.9429e-05
-0.00270483
6.38744e-05
-0.00272572
5.85063e-05
-0.00274313
5.16944e-05
4.63832e-05
-0.00276017
-0.000539144
7.8721e-05
0.00051389
-0.00056481
8.03687e-05
-0.000590603
8.1763e-05
-0.000616366
8.26202e-05
-0.00064241
8.30811e-05
-0.000668707
8.2978e-05
-0.000694867
8.20485e-05
-0.00072151
8.1292e-05
-0.000747941
8.03002e-05
-0.000774587
7.91082e-05
-0.00080113
7.8053e-05
-0.000828269
7.77183e-05
-0.000855903
7.85524e-05
-0.000884065
8.03043e-05
-0.000913341
8.39581e-05
-0.00094403
8.923e-05
-0.000976503
9.60713e-05
-0.00101108
0.000104243
-0.00104802
0.000113371
-0.00108739
0.000122991
-0.00112948
0.000132879
-0.00117407
0.000142428
-0.00122117
0.000151693
-0.00127054
0.000160273
-0.00132201
0.000168182
-0.00137521
0.000175209
-0.00142998
0.000181483
-0.00148611
0.000187009
-0.0015434
0.000191659
-0.00160144
0.000195463
-0.00166024
0.000198592
-0.0017196
0.000200983
-0.00177906
0.000202582
-0.00183872
0.000203599
-0.00189835
0.000204043
-0.00195776
0.000203799
-0.00201665
0.00020293
-0.00207508
0.000201618
-0.00213283
0.000199731
-0.00218986
0.00019741
-0.00224578
0.000194332
-0.00230082
0.000190974
-0.00235442
0.000186948
-0.00240679
0.000182622
-0.00245766
0.000177785
-0.00250696
0.000172583
-0.0025546
0.000167105
-0.00260075
0.000161414
-0.00264454
0.00015466
-0.00268655
0.000148844
-0.00272758
0.000142264
-0.00276554
0.000134661
-0.0028018
0.000127425
-0.00283486
0.000120509
-0.00286756
0.000113892
-0.00289697
0.000104612
-0.00292447
9.69249e-05
-0.00295005
8.94507e-05
-0.00297218
8.06381e-05
-0.00299236
7.18593e-05
6.30352e-05
-0.00300903
-0.000535757
0.000107695
0.000506323
-0.000565426
0.000109611
-0.000595538
0.000111662
-0.000625752
0.000112796
-0.000656023
0.000113375
-0.000686669
0.000113661
-0.000717998
0.000113408
-0.00074903
0.000112357
-0.000780496
0.000111763
-0.00081209
0.000110707
-0.00084431
0.000110216
-0.000877133
0.000110511
-0.000910369
0.000111737
-0.000944607
0.000114524
-0.000980147
0.000119449
-0.00101653
0.000125568
-0.00105478
0.000134231
-0.00109503
0.000144445
-0.00113748
0.000155804
-0.00118245
0.000167993
-0.00123003
0.000180499
-0.00128032
0.000192769
-0.00133312
0.000204506
-0.00138822
0.000215371
-0.00144533
0.000225246
-0.00150444
0.000234264
-0.00156508
0.000242058
-0.00162704
0.000248932
-0.00169011
0.000254711
-0.00175413
0.000259468
-0.00181878
0.000263234
-0.0018838
0.000265992
-0.00194911
0.000267886
-0.00201452
0.000269002
-0.00207969
0.000269206
-0.00214451
0.000268603
-0.00220905
0.00026746
-0.00227283
0.00026539
-0.00233581
0.000262712
-0.00239779
0.000259391
-0.00245889
0.000255431
-0.00251866
0.000250756
-0.00257714
0.000245441
-0.0026341
0.000239591
-0.00268944
0.000233139
-0.00274356
0.000226724
-0.00279438
0.00021793
-0.00284383
0.00021089
-0.00289221
0.00020304
-0.00293771
0.000194344
-0.00298156
0.000186106
-0.00302378
0.000176859
-0.00306294
0.000166564
-0.00310032
0.000157869
-0.00313302
0.00014657
-0.0031652
0.000136799
-0.00319548
0.0001272
-0.00322231
0.000116284
-0.00324569
0.000104011
-0.00326861
9.4761e-05
8.24144e-05
-0.00328802
-0.000537044
0.000141597
0.000502727
-0.000571827
0.000144035
-0.00060635
0.000145998
-0.000641641
0.000147979
-0.000677336
0.000149051
-0.000712969
0.000149328
-0.000748843
0.000149361
-0.000785517
0.000149118
-0.000822319
0.000148658
-0.000860172
0.000148554
-0.000898612
0.000148675
-0.000937594
0.000149392
-0.000977604
0.000151687
-0.00101825
0.000155041
-0.00105983
0.000160922
-0.001103
0.000168581
-0.00114779
0.000178887
-0.00119463
0.000191153
-0.00124339
0.000204506
-0.00129451
0.000219083
-0.00134835
0.000234358
-0.00140468
0.000249107
-0.00146365
0.000263493
-0.00152499
0.000276681
-0.00158847
0.000288699
-0.00165376
0.00029947
-0.00172066
0.000308919
-0.00178889
0.00031712
-0.00185823
0.000324034
-0.00192848
0.000329703
-0.00199936
0.000334134
-0.00207054
0.000337184
-0.00214195
0.000339329
-0.00221339
0.000340463
-0.00228453
0.000340342
-0.0023553
0.000339377
-0.00242545
0.000337605
-0.00249486
0.000334795
-0.00256346
0.000331316
-0.00263114
0.00032709
-0.00269743
0.000321738
-0.00276248
0.00031581
-0.00282591
0.00030889
-0.00288739
0.000301077
-0.00294736
0.000293132
-0.00300565
0.000285028
-0.00306269
0.000274984
-0.00311687
0.000265083
-0.00316822
0.000254389
-0.00321796
0.000244063
-0.00326478
0.000232912
-0.00330853
0.000220581
-0.00335189
0.000209911
-0.00339074
0.000196701
-0.00342914
0.000184979
-0.00346422
0.000171885
-0.00349435
0.000157341
-0.00352243
0.000144349
-0.00355005
0.000131622
-0.00357272
0.000117401
0.000103025
-0.00359337
-0.000540073
0.000181117
0.000500133
-0.000580394
0.000184165
-0.000620816
0.000186263
-0.000661698
0.000188823
-0.000702496
0.000189822
-0.000744133
0.000190993
-0.000786217
0.000191543
-0.000828651
0.000191667
-0.000872206
0.000192281
-0.000916025
0.000192476
-0.000961211
0.000193804
-0.00100737
0.000195543
-0.00105426
0.000198347
-0.0011021
0.0002027
-0.00115163
0.000210186
-0.00120239
0.000219134
-0.00125442
0.000230675
-0.00130844
0.000244993
-0.0013643
0.000260237
-0.00142255
0.000277269
-0.00148332
0.000295127
-0.00154663
0.000312419
-0.00161262
0.000329474
-0.00168086
0.000344926
-0.00175119
0.000358951
-0.00182338
0.000371674
-0.00189695
0.000382448
-0.00197207
0.000392198
-0.00204829
0.000400247
-0.00212516
0.000406584
-0.00220281
0.000411793
-0.00228071
0.000415135
-0.00235851
0.000417175
-0.00243641
0.000418396
-0.00251411
0.000418088
-0.00259106
0.000416338
-0.0026675
0.000414046
-0.00274296
0.000410277
-0.00281738
0.000405759
-0.00289075
0.000400484
-0.00296289
0.000393887
-0.00303301
0.000385965
-0.00310195
0.000377839
-0.00316903
0.000368173
-0.00323449
0.000358597
-0.00329723
0.000347792
-0.00335736
0.00033512
-0.00341581
0.000323539
-0.00347268
0.000311242
-0.00352526
0.000296599
-0.00357626
0.000283874
-0.00362557
0.000269874
-0.00367041
0.000254747
-0.00371352
0.000239822
-0.00375342
0.000224895
-0.0037899
0.000208378
-0.00382574
0.000193187
-0.00385651
0.000175121
-0.00388388
0.000158942
-0.00390785
0.000141356
0.000124856
-0.00392978
-0.000542656
0.000227195
0.000496342
-0.000589332
0.00023077
-0.000635835
0.000232848
-0.000683575
0.000236597
-0.000731362
0.000237634
-0.000779341
0.00023903
-0.000828324
0.000240618
-0.000877298
0.000240743
-0.000927944
0.000243058
-0.000979214
0.000243732
-0.00103238
0.000247095
-0.00108595
0.000248946
-0.00114142
0.000253661
-0.00119719
0.000258207
-0.00125435
0.000267114
-0.00131372
0.000278245
-0.00137418
0.00029093
-0.0014364
0.000307016
-0.0015008
0.000324497
-0.00156639
0.000342797
-0.00163519
0.000363906
-0.00170611
0.000383349
-0.00178016
0.000403563
-0.00185627
0.000421023
-0.00193414
0.000436865
-0.0020142
0.000451724
-0.00209505
0.000463332
-0.00217758
0.000474768
-0.0022613
0.000483985
-0.00234522
0.000490504
-0.00243033
0.000496943
-0.00251553
0.000500413
-0.00260028
0.000502021
-0.00268531
0.000503543
-0.00277022
0.000503052
-0.00285366
0.000499797
-0.00293683
0.000497256
-0.00301886
0.000492331
-0.00309923
0.000486149
-0.00317893
0.000480203
-0.00325744
0.000472443
-0.00333454
0.000463088
-0.0034079
0.000451217
-0.00348128
0.000441562
-0.00355135
0.00042867
-0.00361836
0.000414835
-0.00368555
0.000402332
-0.00374806
0.000386077
-0.00380799
0.000371152
-0.00386572
0.000354305
-0.0039197
0.00033785
-0.00397176
0.000321962
-0.0040207
0.000303748
-0.00406806
0.000287241
-0.00411094
0.000267817
-0.00415167
0.000249161
-0.00418751
0.000229046
-0.00421925
0.000206783
-0.00424916
0.000188863
-0.00427606
0.000168179
0.000147912
-0.00429917
-0.000542686
0.000490154
0.000279619
-0.000598103
0.000286382
-0.000650757
0.00028576
-0.000707093
0.000292964
-0.000761792
0.000292372
-0.000817805
0.000295121
-0.000874845
0.000297724
-0.00093075
0.000296597
-0.000990962
0.000303195
-0.0010489
0.000301613
-0.00111196
0.000310127
-0.00117277
0.000309826
-0.00123927
0.000320033
-0.00130173
0.000320558
-0.00136905
0.000334293
-0.0014379
0.000347001
-0.00150602
0.000358993
-0.001579
0.000379896
-0.0016515
0.000396986
-0.00172531
0.000416662
-0.00180558
0.000444321
-0.00188337
0.000461267
-0.00196744
0.00048778
-0.00205184
0.000505552
-0.00213798
0.000523146
-0.00222803
0.000541973
-0.00231553
0.000551002
-0.00240697
0.000566432
-0.00249964
0.000576847
-0.00259029
0.000581246
-0.00268427
0.000590982
-0.00277678
0.000593008
-0.00286892
0.000594285
-0.002962
0.000596819
-0.00305587
0.000597054
-0.00314456
0.000588621
-0.00323634
0.00058917
-0.00332526
0.000581343
-0.00341166
0.000572575
-0.00349993
0.000568496
-0.00358244
0.000554969
-0.00366635
0.000547032
-0.00374634
0.000531241
-0.00382449
0.000519733
-0.00390225
0.000506492
-0.0039745
0.000487127
-0.00404668
0.000474593
-0.00411333
0.000452759
-0.00417888
0.000436763
-0.00423905
0.0004145
-0.00429958
0.000398411
-0.00435474
0.000377118
-0.00440801
0.00035707
-0.00445724
0.000336615
-0.00450427
0.000314958
-0.00454556
0.000290466
-0.00458556
0.000269024
-0.00461979
0.000241046
-0.0046513
0.000220412
-0.00467981
0.000196651
-0.0047035
0.00017149
-0.00239027
1.20267e-05
-0.00240077
1.05049e-05
-0.00240966
8.91035e-06
-0.00241676
7.12143e-06
-0.0024219
5.13723e-06
-0.00242478
2.84401e-06
-0.00242604
1.24173e-06
-0.00242532
-6.72856e-07
-0.00242271
-2.4873e-06
-0.0024179
-4.67878e-06
-0.00241134
-6.43558e-06
-0.002403
-8.22967e-06
-0.00239275
-1.01354e-05
-0.00238054
-1.21025e-05
-0.0023666
-1.38229e-05
-0.00235088
-1.56025e-05
-0.00233323
-1.75195e-05
-0.00231366
-1.94425e-05
-0.00229243
-2.10877e-05
-0.00226943
-2.28376e-05
-0.00224482
-2.44643e-05
-0.00221849
-2.61896e-05
-0.00219044
-2.7917e-05
-0.0021606
-2.97105e-05
-0.00212916
-3.13502e-05
-0.0020962
-3.2898e-05
-0.00206171
-3.44627e-05
-0.00202559
-3.60555e-05
-0.00198795
-3.75466e-05
-0.0019489
-3.89145e-05
-0.00190839
-4.03583e-05
-0.00186646
-4.17641e-05
-0.00182326
-4.30354e-05
-0.00177876
-4.43447e-05
-0.00173297
-4.56631e-05
-0.001686
-4.68474e-05
-0.00163792
-4.79706e-05
-0.00158873
-4.90964e-05
-0.0015384
-5.0256e-05
-0.00148704
-5.12887e-05
-0.00143477
-5.2216e-05
-0.00138156
-5.31499e-05
-0.00132745
-5.40691e-05
-0.00127254
-5.4869e-05
-0.00121676
-5.57649e-05
-0.00116016
-5.66032e-05
-0.00110286
-5.73075e-05
-0.00104494
-5.79405e-05
-0.000986349
-5.8619e-05
-0.000927159
-5.92186e-05
-0.000867475
-5.97093e-05
-0.000807397
-6.0112e-05
-0.000746843
-6.05884e-05
-0.000685981
-6.08844e-05
-0.000624819
-6.11838e-05
-0.000563525
-6.13324e-05
-0.000502031
-6.15412e-05
-0.000440555
-6.151e-05
-0.000379292
-6.12909e-05
-0.000318437
-6.08692e-05
-6.02571e-05
-0.000258193
-0.0025583
2.60903e-05
-0.00256879
2.09632e-05
-0.00257728
1.73658e-05
-0.00258357
1.33942e-05
-0.0025896
1.11179e-05
-0.00259207
5.23409e-06
-0.00259311
2.2118e-06
-0.00259078
-3.01009e-06
-0.00258757
-5.68488e-06
-0.00258119
-1.10241e-05
-0.00257303
-1.45712e-05
-0.00256293
-1.83087e-05
-0.00255084
-2.22181e-05
-0.00253684
-2.61047e-05
-0.00252052
-3.01557e-05
-0.00250222
-3.39195e-05
-0.00248186
-3.78948e-05
-0.00245958
-4.17429e-05
-0.00243515
-4.55326e-05
-0.00240882
-4.92071e-05
-0.00238066
-5.26608e-05
-0.00235051
-5.63825e-05
-0.0023185
-5.9978e-05
-0.00228474
-6.35134e-05
-0.00224916
-6.69946e-05
-0.00221182
-7.03296e-05
-0.0021726
-7.37643e-05
-0.00213181
-7.69045e-05
-0.00208935
-8.00467e-05
-0.0020451
-8.31621e-05
-0.00199938
-8.60542e-05
-0.00195223
-8.88761e-05
-0.00190345
-9.17676e-05
-0.00185325
-9.45138e-05
-0.00180176
-9.7117e-05
-0.00174882
-9.97619e-05
-0.00169459
-0.000102178
-0.00163912
-0.00010456
-0.00158253
-0.000106847
-0.00152478
-0.000109045
-0.0014658
-0.000111201
-0.00140588
-0.000113083
-0.00134498
-0.000114978
-0.00128305
-0.000116813
-0.00122027
-0.000118586
-0.00115658
-0.00012033
-0.00109209
-0.000121845
-0.00102671
-0.000123366
-0.000960686
-0.000124694
-0.000894017
-0.000125933
-0.000826748
-0.000127023
-0.000759026
-0.00012788
-0.000690535
-0.000129127
-0.000621909
-0.000129544
-0.000552601
-0.000130531
-0.000483116
-0.000130866
-0.000413159
-0.000131552
-0.000343365
-0.000131352
-0.000273512
-0.000131175
-0.000203742
-0.000130666
-0.000129965
-0.00013405
-0.00277364
3.9519e-05
-0.00278675
3.40315e-05
-0.00279626
2.68491e-05
-0.00280385
2.09649e-05
-0.00280766
1.48927e-05
-0.00281103
8.55318e-06
-0.00281096
2.09221e-06
-0.0028087
-5.2799e-06
-0.00280426
-1.01015e-05
-0.00279824
-1.69966e-05
-0.00278988
-2.28915e-05
-0.00277801
-3.01381e-05
-0.00276442
-3.57827e-05
-0.00274847
-4.20538e-05
-0.00273032
-4.83129e-05
-0.00270985
-5.43922e-05
-0.00268726
-6.04938e-05
-0.00266251
-6.65042e-05
-0.00263557
-7.25022e-05
-0.00260665
-7.81602e-05
-0.00257534
-8.40211e-05
-0.00254213
-8.96445e-05
-0.00250689
-9.5252e-05
-0.00246965
-0.000100801
-0.00243037
-0.000106327
-0.0023891
-0.000111643
-0.00234597
-0.000116931
-0.00230094
-0.000121969
-0.00225397
-0.000127026
-0.00220547
-0.000131643
-0.00215512
-0.000136364
-0.00210301
-0.000140943
-0.00204949
-0.000145222
-0.00199431
-0.000149646
-0.00193756
-0.000153815
-0.00187938
-0.000157906
-0.00181974
-0.000161782
-0.0017587
-0.000165576
-0.00169638
-0.000169153
-0.00163281
-0.000172602
-0.00156813
-0.000175879
-0.00150214
-0.000179078
-0.00143515
-0.000181964
-0.00136711
-0.000184879
-0.0012981
-0.000187624
-0.00122816
-0.000190309
-0.00115727
-0.000192755
-0.00108554
-0.000195129
-0.00101299
-0.000197277
-0.0009399
-0.000199054
-0.00086579
-0.000201157
-0.000791104
-0.000202598
-0.000716072
-0.00020419
-0.000640572
-0.000205073
-0.000564657
-0.000206475
-0.000488115
-0.000207451
-0.000411596
-0.000208117
-0.000334654
-0.000208334
-0.000257606
-0.000208254
-0.00018043
-0.00020786
-0.000207087
-0.00010332
-0.00302522
5.56683e-05
-0.00303785
4.66227e-05
-0.00304841
3.73958e-05
-0.00305538
2.79207e-05
-0.00306024
1.97553e-05
-0.00306302
1.13168e-05
-0.00306181
8.79822e-07
-0.00306034
-6.73938e-06
-0.00305527
-1.51442e-05
-0.00304809
-2.41238e-05
-0.00303719
-3.3738e-05
-0.00302482
-4.2474e-05
-0.00301002
-5.0557e-05
-0.00299213
-5.99384e-05
-0.00297209
-6.83738e-05
-0.00294958
-7.69086e-05
-0.00292464
-8.54413e-05
-0.00289724
-9.39211e-05
-0.00286762
-0.000102151
-0.00283543
-0.000110384
-0.00280125
-0.000118251
-0.00276464
-0.000126299
-0.00272592
-0.000134013
-0.00268497
-0.000141788
-0.00264193
-0.00014938
-0.00259656
-0.000157023
-0.00254911
-0.000164372
-0.0024997
-0.000171387
-0.00244841
-0.000178293
-0.00239495
-0.000185066
-0.00233973
-0.000191526
-0.00228281
-0.000197803
-0.00222391
-0.000204066
-0.00216341
-0.00021008
-0.00210127
-0.000215902
-0.00203753
-0.000221597
-0.00197209
-0.000227187
-0.00190522
-0.000232414
-0.00183692
-0.000237422
-0.00176733
-0.000242185
-0.00169627
-0.000246922
-0.00162416
-0.000251188
-0.00155073
-0.000255405
-0.00147625
-0.00025938
-0.00140068
-0.000263224
-0.00132403
-0.000266974
-0.0012464
-0.000270395
-0.00116793
-0.000273607
-0.00108843
-0.000276791
-0.00100814
-0.000279345
-0.000927489
-0.00028181
-0.000845833
-0.000284261
-0.000763676
-0.000286354
-0.00068072
-0.000288036
-0.000597653
-0.00028955
-0.000513975
-0.000291146
-0.000429971
-0.000292144
-0.000345776
-0.000292549
-0.000261221
-0.000292816
-0.000176603
-0.000292482
-0.000291916
-9.17709e-05
-0.00330386
7.14667e-05
-0.00331608
5.88113e-05
-0.00332772
4.90224e-05
-0.0033357
3.59199e-05
-0.00334001
2.40887e-05
-0.00334218
1.35228e-05
-0.00334378
2.487e-06
-0.0033401
-1.04178e-05
-0.00333431
-2.09287e-05
-0.00332493
-3.34934e-05
-0.00331341
-4.52549e-05
-0.00329963
-5.62396e-05
-0.00328219
-6.7997e-05
-0.00326309
-7.90559e-05
-0.00324202
-8.94601e-05
-0.00321653
-0.000102429
-0.003189
-0.000113009
-0.00315883
-0.000124116
-0.00312602
-0.000135003
-0.00309083
-0.000145605
-0.00305306
-0.000156067
-0.00301313
-0.000166266
-0.00297067
-0.000176522
-0.00292574
-0.000186737
-0.00287826
-0.000196872
-0.00282866
-0.000206599
-0.00277673
-0.000216293
-0.00272246
-0.00022563
-0.00266606
-0.000234669
-0.00260769
-0.00024341
-0.00254716
-0.000252012
-0.00248462
-0.000260318
-0.00242024
-0.000268416
-0.00235405
-0.00027624
-0.00228596
-0.000283965
-0.00221603
-0.000291503
-0.00214459
-0.000298603
-0.00207134
-0.000305647
-0.00199654
-0.000312208
-0.00192016
-0.000318567
-0.00184247
-0.00032461
-0.00176338
-0.000330286
-0.0016831
-0.000335706
-0.00160157
-0.000340936
-0.00151891
-0.0003459
-0.00143531
-0.000350576
-0.00134996
-0.000355739
-0.00126389
-0.000359663
-0.00117732
-0.000363355
-0.00108953
-0.000367109
-0.00100111
-0.000370207
-0.000912179
-0.000373176
-0.000822325
-0.000376195
-0.000731997
-0.000378344
-0.000640565
-0.000380966
-0.000549102
-0.000382597
-0.000457253
-0.00038399
-0.000365016
-0.000384779
-0.0002724
-0.000385427
-0.000179824
-0.000385047
-0.000384794
-8.69367e-05
-0.00361042
8.84607e-05
-0.00362535
7.37067e-05
-0.00363505
5.87212e-05
-0.00364411
4.50146e-05
-0.00365099
3.1021e-05
-0.00365264
1.52172e-05
-0.00365067
5.2366e-07
-0.00364799
-1.31232e-05
-0.00364021
-2.87805e-05
-0.0036317
-4.20731e-05
-0.00361945
-5.75417e-05
-0.00360349
-7.22149e-05
-0.00358526
-8.62156e-05
-0.00356339
-0.000100944
-0.00353782
-0.000115065
-0.00351016
-0.000130129
-0.00347988
-0.000143314
-0.00344704
-0.000156972
-0.00341095
-0.000171103
-0.00337213
-0.000184426
-0.00333079
-0.000197389
-0.00328665
-0.000210428
-0.00323998
-0.000223211
-0.00319074
-0.000236005
-0.00313893
-0.000248642
-0.00308441
-0.000261102
-0.00302748
-0.000273201
-0.00296803
-0.000285064
-0.00290619
-0.000296457
-0.00284226
-0.00030732
-0.00277595
-0.000318352
-0.00270748
-0.000328822
-0.00263697
-0.000338969
-0.00256456
-0.000348664
-0.00249
-0.00035855
-0.00241364
-0.000367875
-0.00233525
-0.000377006
-0.00225506
-0.000385852
-0.00217328
-0.000393996
-0.00208989
-0.000401966
-0.00200469
-0.000409812
-0.00191817
-0.000416818
-0.00183025
-0.000423631
-0.00174085
-0.000430345
-0.00165048
-0.000436255
-0.00155883
-0.000442221
-0.00146645
-0.000448092
-0.00137253
-0.000453556
-0.00127751
-0.000458321
-0.00118174
-0.000462821
-0.00108492
-0.000466971
-0.000987272
-0.000470781
-0.00088933
-0.00047409
-0.000790358
-0.000477277
-0.000690984
-0.000480297
-0.000591059
-0.000482491
-0.000490171
-0.000484847
-0.000389277
-0.000485654
-0.00028818
-0.000486492
-0.000186848
-0.000486363
-0.000486343
-8.52751e-05
-0.00394805
0.000106707
-0.00396415
8.97231e-05
-0.00397652
7.11133e-05
-0.00398514
5.3679e-05
-0.00398848
3.44585e-05
-0.00399121
1.79824e-05
-0.0039902
-4.82546e-07
-0.00398553
-1.78837e-05
-0.0039787
-3.57712e-05
-0.00396669
-5.42193e-05
-0.00395244
-7.18713e-05
-0.00393581
-8.88198e-05
-0.00391388
-0.000108137
-0.00388971
-0.000125079
-0.00386338
-0.000141422
-0.00383325
-0.000160306
-0.00379933
-0.000177265
-0.00376252
-0.000193813
-0.0037224
-0.00021109
-0.00368021
-0.000226491
-0.00363451
-0.000243044
-0.00358627
-0.000258596
-0.00353522
-0.00027428
-0.00348115
-0.000290067
-0.00342424
-0.000305557
-0.00336457
-0.00032076
-0.00330194
-0.000335747
-0.00323688
-0.000350023
-0.00316931
-0.000364008
-0.00309924
-0.000377436
-0.00302654
-0.000391069
-0.0029517
-0.000403764
-0.00287434
-0.000416418
-0.00279511
-0.000428005
-0.00271373
-0.000440008
-0.00263016
-0.000451528
-0.00254452
-0.000462702
-0.00245674
-0.000473669
-0.00236725
-0.00048351
-0.00227591
-0.000493314
-0.00218274
-0.000502986
-0.00208771
-0.00051183
-0.0019916
-0.00051975
-0.00189408
-0.000527844
-0.00179559
-0.000534755
-0.00169511
-0.000542642
-0.00159347
-0.000549673
-0.00149081
-0.000556153
-0.00138768
-0.000561373
-0.00128277
-0.000567657
-0.0011772
-0.000572485
-0.00107123
-0.000576687
-0.0009638
-0.000581477
-0.000856064
-0.000584966
-0.000747124
-0.000589161
-0.000637802
-0.000591758
-0.000527955
-0.000594632
-0.000417803
-0.000595738
-0.0003071
-0.00059718
-0.000196493
-0.000596948
-0.00059727
-8.55153e-05
-0.00431879
0.000126193
-0.00433441
0.000105332
-0.00434646
8.31272e-05
-0.00435604
6.33437e-05
-0.00436196
4.04624e-05
-0.00436272
1.88198e-05
-0.00436131
-1.91638e-06
-0.00435448
-2.48507e-05
-0.00434552
-4.48603e-05
-0.00433307
-6.67302e-05
-0.00431821
-8.67075e-05
-0.0042982
-0.000108856
-0.00427538
-0.000130869
-0.00424903
-0.000151431
-0.00421781
-0.000172716
-0.0041852
-0.000192906
-0.0041489
-0.000213598
-0.00410717
-0.000235423
-0.00406406
-0.000254067
-0.00401654
-0.000273915
-0.00396561
-0.000293822
-0.00391276
-0.000311448
-0.00385712
-0.000329926
-0.00379769
-0.000349473
-0.00373531
-0.000367914
-0.00366995
-0.000386035
-0.00360129
-0.000404297
-0.00352997
-0.00042123
-0.00345574
-0.000438141
-0.00337921
-0.000453957
-0.00329942
-0.000470948
-0.00321764
-0.0004856
-0.00313281
-0.000501308
-0.00304654
-0.000514312
-0.0029575
-0.000529123
-0.00286614
-0.000542956
-0.00277264
-0.000556222
-0.0026764
-0.000569905
-0.00257842
-0.000581494
-0.0024788
-0.000592915
-0.00237688
-0.000604867
-0.00227325
-0.000615487
-0.00216753
-0.000625418
-0.00206116
-0.000634194
-0.00195334
-0.000642512
-0.00184301
-0.000652926
-0.00173304
-0.000659569
-0.00162042
-0.000668655
-0.00150765
-0.000674034
-0.00139356
-0.000681654
-0.00127797
-0.000688001
-0.00116238
-0.000692198
-0.00104533
-0.00069845
-0.000928274
-0.000701935
-0.00080896
-0.000708427
-0.000690027
-0.000710646
-0.000569341
-0.000715225
-0.000449327
-0.000715755
-0.000328474
-0.000718009
-0.000208166
-0.000717204
-0.000718578
-8.68082e-05
-0.00472487
0.00014754
-0.00474124
0.000121688
-0.00475463
9.65005e-05
-0.00476192
7.07544e-05
-0.00476728
4.59656e-05
-0.00476892
2.05718e-05
-0.0047662
-4.6498e-06
-0.0047591
-3.20038e-05
-0.00474771
-5.6341e-05
-0.00473455
-7.97923e-05
-0.00471583
-0.000105438
-0.00469387
-0.000130876
-0.00466884
-0.000155841
-0.00463797
-0.000182153
-0.0046069
-0.000203623
-0.00456913
-0.000230683
-0.00452723
-0.000255509
-0.00448344
-0.000279179
-0.00443309
-0.000304317
-0.00438179
-0.000325088
-0.00432686
-0.00034863
-0.0042675
-0.000370585
-0.00420759
-0.000389636
-0.00414212
-0.00041488
-0.00407308
-0.000436967
-0.00400225
-0.000456821
-0.00392609
-0.000480287
-0.00384905
-0.000498085
-0.00376616
-0.000520941
-0.00368451
-0.000535568
-0.00359511
-0.000560304
-0.00350726
-0.0005734
-0.00341262
-0.000595873
-0.00331992
-0.000607099
-0.00322244
-0.000626548
-0.00312202
-0.00064332
-0.00302109
-0.000657095
-0.0029147
-0.00067625
-0.00280738
-0.000688711
-0.00270003
-0.000700124
-0.00258725
-0.000717597
-0.00247295
-0.000729637
-0.00235882
-0.000739404
-0.00224022
-0.00075271
-0.00212567
-0.000756988
-0.00200271
-0.000775745
-0.00188426
-0.00077789
-0.0017592
-0.000793546
-0.00163843
-0.000794753
-0.00151353
-0.000806439
-0.00138662
-0.000814802
-0.00126266
-0.000816048
-0.00113329
-0.000827694
-0.00100789
-0.000827199
-0.000874949
-0.000841277
-0.000747522
-0.000837934
-0.000613043
-0.000849625
-0.000485197
-0.000843564
-0.000350973
-0.000852205
-0.0002226
-0.000845505
-8.7456e-05
-0.000853673
-0.00019874
-5.94575e-05
-0.00013951
-5.92376e-05
-7.88403e-05
-6.0672e-05
-1.61536e-05
-6.26911e-05
4.6625e-05
-6.27762e-05
0.000107979
-6.13534e-05
0.000168145
-6.01591e-05
0.0002275
-5.93486e-05
0.000286186
-5.86748e-05
0.000344202
-5.80058e-05
0.000401586
-5.73724e-05
0.000458321
-5.67269e-05
0.000514386
-5.60573e-05
0.000569751
-5.53632e-05
0.000624411
-5.46613e-05
0.000678288
-5.38823e-05
0.000731245
-5.29614e-05
0.000783188
-5.19482e-05
0.000834113
-5.09288e-05
0.000883894
-4.97843e-05
0.000932507
-4.86137e-05
0.000979904
-4.74011e-05
0.00102598
-4.60776e-05
0.00107062
-4.46437e-05
0.00111383
-4.32107e-05
0.0011556
-4.17691e-05
0.00119586
-4.02421e-05
0.00123448
-3.86055e-05
0.00127143
-3.6927e-05
0.00130672
-3.52563e-05
0.00134019
-3.34391e-05
0.00137179
-3.15668e-05
0.00140154
-2.97196e-05
0.00142931
-2.77371e-05
0.001455
-2.56655e-05
0.00147863
-2.35993e-05
0.00150018
-2.15067e-05
0.00151952
-1.92905e-05
0.00153645
-1.68871e-05
0.00155095
-1.44474e-05
0.00156302
-1.20207e-05
0.00157279
-9.72605e-06
0.00158
-7.19888e-06
0.00158475
-4.73157e-06
0.00158684
-2.09003e-06
0.00158642
4.24471e-07
0.00158372
2.6938e-06
0.00157861
5.1146e-06
0.00157068
7.95518e-06
0.00155994
1.08007e-05
0.00154632
1.3679e-05
0.00153013
1.62555e-05
0.00151085
1.93214e-05
0.00148862
2.22811e-05
0.00146325
2.53944e-05
0.00143485
2.8438e-05
0.00140279
3.20525e-05
0.0013672
3.56094e-05
0.00132806
3.91248e-05
0.00128536
4.27001e-05
4.63929e-05
0.00123894
-6.45969e-05
-0.000128924
5.68034e-06
-0.000129524
7.60698e-05
-0.000131071
0.000145496
-0.000132122
0.000214722
-0.000132005
0.000283706
-0.000130337
0.000352426
-0.000128878
0.000420452
-0.00012737
0.000488113
-0.000126331
0.000555001
-0.000124889
0.000621343
-0.00012371
0.00068708
-0.000122462
0.000752207
-0.000121186
0.000816739
-0.000119897
0.000880501
-0.000118429
0.000943514
-0.000116899
0.00100563
-0.000115087
0.00106684
-0.00011316
0.00112699
-0.000111076
0.00118609
-0.000108881
0.00124413
-0.000106658
0.00130087
-0.000104137
0.00135633
-0.000101539
0.00141052
-9.88365e-05
0.00146334
-9.60172e-05
0.00151472
-9.31433e-05
0.00156453
-9.00335e-05
0.00161288
-8.69374e-05
0.00165963
-8.36472e-05
0.00170459
-8.0186e-05
0.00174791
-7.67285e-05
0.00178954