/*--------------------------------*- C++ -*----------------------------------*\
| =========                 |                                                 |
| \\      /  F ield         | OpenFOAM: The Open Source CFD Toolbox           |
|  \\    /   O peration     | Version:  2.3.1                                 |
|   \\  /    A nd           | Web:      www.OpenFOAM.org                      |
|    \\/     M anipulation  |                                                 |
\*---------------------------------------------------------------------------*/
FoamFile
{
    version     2.0;
    format      ascii;
    class       volScalarField;
    location    "1040";
    object      sigmaEq;
}
// * * * * * * * * * * * * * * * * * * * * * * * * * * * * * * * * * * * * * //

dimensions      [1 -1 -2 0 0 0 0];

internalField   nonuniform List<scalar> 
11800
(
109909
96145.3
264528
230852
91777.5
175461
107521
107559
112768
116073
107581
320249
50656.6
236982
215077
973916
92223
85587.1
145411
85797.7
190098
292971
457301
408251
791393
525185
478340
239892
532853
590089
170244
98621.7
511738
104822
105948
168755
105393
542731
98687
94175.4
496062
552048
252676
611503
178888
910582
428717
493359
106354
127680
331810
241840
104566
157247
1.03642e+06
922601
52850.8
231248
178396
180028
904592
109861
186782
156604
776350
124762
340084
248525
54309.6
483633
109224
92169.8
88420.6
924805
894412
167823
797380
116197
109232
115282
1.05764e+06
82205.8
92366.1
95681.6
86020
566651
179451
510563
460545
245421
100980
608078
104235
52464.5
103884
86389.8
11130.2
85848.6
103551
282610
67956.8
308262
576956
219656
108909
181273
104163
101168
866255
504606
561275
455057
181445
250729
114376
784351
118298
103854
738008
121700
123702
108946
108520
91865.9
101523
103592
104533
102470
85439.9
31452.3
1.05823e+06
669050
190300
564867
257214
506463
457034
172061
484135
227257
434343
392468
270067
115764
125810
161262
539260
560448
319407
207295
124535
119411
103925
140657
123972
113923
223909
296724
629174
105960
994647
129771
810149
230950
253548
280430
141881
122525
1.09419e+06
631032
210603
278258
103777
182076
183955
904143
914596
447011
403022
497895
221992
163942
133169
122867
210178
116260
191455
102215
100314
108678
136903
125149
121795
139181
405991
524812
940100
98883.3
118474
1.09675e+06
93808.8
140975
158347
107284
109374
382985
324932
293609
244541
1.05063e+06
312210
454303
1.44325e+06
1.10748e+06
1.22414e+06
198578
96050
405245
363644
328945
138881
179001
91690
84172
147301
87630.6
700665
151392
89120.9
222629
123061
106362
98389.8
294363
300287
1.43157e+06
695557
123597
130552
517734
420448
165101
221660
506318
458176
412879
107597
565551
189700
247511
234075
97685.3
101495
217957
176048
114148
1.21486e+06
142587
160255
129414
144047
319714
354918
393863
180052
140100
107326
894622
102242
77029.8
104552
196576
80453.7
249485
1.07579e+06
186032
184132
266682
198612
225310
169245
584351
491422
157118
188494
134806
154536
278880
361521
169020
604499
649431
789455
106704
186210
185307
870063
878592
467702
460809
484623
480217
100903
73842.4
148064
1.19553e+06
95785.3
100847
149050
133976
131872
416791
419076
789694
1.22863e+06
371267
109620
399555
326008
238324
193650
114346
111982
141932
234558
130224
213662
89639.6
105011
108884
107945
652117
105904
98509.4
992018
151036
348102
348193
340065
425850
410937
86105.1
85511.8
336209
430071
307421
795582
81010.6
401581
318807
201316
157274
155943
123121
163020
145127
182867
204652
225417
94688.4
103207
341315
363251
111891
116481
246779
197129
223237
110552
106507
127409
127532
447542
197811
159322
233519
476089
563787
225727
118968
116872
130828
124883
212191
247494
198045
232804
178196
209873
162833
151238
349820
163229
354819
602917
282854
213919
1.12325e+06
100874
634888
291455
219120
1.00562e+06
99666.8
657577
167400
585180
539050
515317
111429
47694.4
97959.7
1.29591e+06
1.11525e+06
445958
159737
198365
112666
117460
136414
91919.8
142145
840000
34613.7
259722
194640
942716
79473.1
109186
96303.3
108969
95620.1
102801
948941
296368
132656
307793
277630
252810
79406.3
632527
196447
260694
108121
451433
108758
871698
98542.1
120079
225926
204259
186680
455110
121179
243759
238492
124396
311691
343741
381568
178210
142317
48680.7
100916
106764
1.17021e+06
327755
259280
199280
165456
104802
107878
79532
84199.3
127404
72224.5
81188.4
99884.9
103751
201737
100871
140120
311115
329283
161645
856997
116948
202774
100002
98874.3
812359
996817
271038
301841
138119
121301
93507.2
715410
950194
852880
1.26577e+06
342529
241273
327628
84741.9
106707
103587
113957
315323
107964
106044
82224.2
100413
710278
150131
641771
467245
98507.8
121112
638427
704993
314954
350528
389484
180487
144873
286816
104706
104256
102637
112060
95014.3
119307
74007.6
110571
70362.3
105989
65209.7
105227
97173.8
106140
77668.9
818255
148978
125599
276158
459696
76083.6
104950
89600.2
84152.9
76626.6
147723
191585
105776
103801
298620
82883.3
120572
883149
60064
112693
243348
221625
235660
258115
266852
285568
130858
113692
973171
1.26966e+06
221197
72159.3
162465
203597
171408
132394
366251
332892
300117
109846
63267.5
337647
334369
152712
163439
99287.5
271791
302138
129958
467816
466918
473029
474749
903178
883793
256652
1.1485e+06
353569
98382
821609
601326
667855
327908
141272
156516
118156
768722
230053
296126
1.21107e+06
120497
127883
264881
227879
624654
298109
955776
101164
96442.9
141094
178961
402860
362728
327276
951675
101995
183209
397286
683720
98802.4
1.10785e+06
1.03894e+06
1.03724e+06
122703
164716
72474.9
1.06072e+06
263601
127239
192857
944233
100041
128333
140003
101090
264208
141671
1.28668e+06
1.0408e+06
119654
298344
378349
141709
158505
134062
126437
367327
136984
259126
200145
522477
482896
105249
650895
106381
185846
221154
927682
161348
224813
130789
123526
103146
115831
211052
483798
535040
90050
93479.7
88253.3
120084
182877
661205
84320.6
205493
354337
272749
119297
469366
528715
331474
589143
654332
258003
180239
102867
103509
178057
192399
161966
174494
118758
157672
190499
123208
100303
1.24274e+06
500185
185536
234891
241529
123207
194492
268589
614009
551971
497459
162489
188293
135901
122518
757172
610725
637877
105249
125181
144638
292026
718543
216716
51475.7
107529
1.18783e+06
1.11974e+06
126287
1.02935e+06
87843.2
101926
92298.7
353779
85433.5
139606
164390
597815
665543
739561
821391
333656
291220
245645
202245
119308
98376.5
195452
1.01253e+06
107464
107966
97282.1
101695
95094.6
99951.5
108065
790237
407064
374211
216214
413511
461465
163955
565949
139395
126595
107825
1.17107e+06
99239.4
104564
97732.8
98013
97787.5
1.06913e+06
140122
142783
612132
168709
362782
143593
1.09264e+06
429768
200233
164172
715164
224985
110491
102754
88763.3
95742
132128
153151
140955
99496.1
288044
121453
98543.3
375154
424143
97642.6
274945
383002
331123
437399
879494
791512
710001
638300
273088
328000
890954
801380
379280
720244
435521
644657
829276
110486
99806.9
109329
126095
267039
633888
109463
216169
281411
236510
310584
117897
138123
201654
281076
643370
578798
521778
247079
191884
487590
114247
134183
111049
177508
161458
144638
264654
213360
218531
167338
104383
386629
116280
162910
206788
529532
265905
309384
284729
107882
128938
109458
99673.1
103158
111237
275981
241566
100206
121624
117228
216352
703090
218510
291657
279364
109534
119756
111238
100763
131722
113452
306660
275402
248631
115305
883699
323794
149198
531478
348625
690683
1.03561e+06
127296
141796
116847
103771
94978.3
342898
292364
1.06622e+06
91003.9
116429
176954
241093
120492
109512
344358
339266
57982.8
97627.6
181757
146542
82297.4
898743
1.02903e+06
146954
98394.5
150738
188133
392591
316064
351662
1.18549e+06
103700
274001
306536
110119
286265
347791
401846
457509
921471
828609
743149
668261
285613
344596
931650
837900
396916
753240
454679
674829
962234
840964
636853
227341
259625
835000
647728
171807
97971
94039.1
643080
1.07826e+06
90249.9
200890
940695
634593
1.03711e+06
1.04836e+06
535272
542512
252542
207111
264396
167511
108751
153160
103409
111150
126000
115210
196018
1.04326e+06
265011
114494
81545.8
180627
194319
930997
186191
168837
199216
212322
580954
244767
186906
821028
201518
252808
109070
106749
195094
163208
180100
466318
267075
256250
643692
616590
253980
263162
501139
539315
199941
203302
100414
107724
112119
261736
202021
47924.5
107803
118427
331674
322007
162561
298627
234882
106669
77841.1
80097.7
301095
678275
87500.8
1.0296e+06
146706
355583
321217
116958
140415
223599
103676
100833
816552
188602
495199
446995
403655
160541
214963
104615
798001
945789
108055
102996
514028
180146
232982
402458
446762
504008
167073
219931
49665.2
412461
188165
933659
202309
548676
403626
449967
108075
100008
93682.4
111066
98529.6
96212.8
796471
222378
99328.9
117369
126139
142174
157614
175868
362268
354837
328018
319348
290063
297586
640183
109305
99731.7
103450
110588
140252
104519
103351
745546
142303
263298
198072
519883
255036
102299
108487
214893
171710
286006
237772
616728
524146
471905
425128
241074
719896
321707
786395
134405
117740
145753
150651
110096
114592
108203
763823
1.08156e+06
164540
85158.2
125679
269967
205133
76868.3
103482
150992
138687
126475
126361
147551
141318
119180
231060
257311
252023
281553
206804
231315
302129
102346
544727
419767
236053
629690
594591
343739
1.07456e+06
186192
176286
202697
223091
104667
103030
112350
208174
102616
831269
134576
108061
360309
47948.7
92855
895179
107437
197301
631273
273772
568337
512250
807680
541579
89245.7
280752
227180
130283
688711
288760
145719
518311
464868
575103
106604
108091
89864.1
1.29649e+06
154794
205866
245891
132404
100583
93130.5
209599
229568
113276
901423
200208
796456
127860
440515
98843.9
289240
350172
501175
193351
249099
300032
142095
1.17736e+06
103598
81276.6
92794.2
1.03343e+06
707559
160925
220187
518342
469895
423477
1.06363e+06
278965
230643
1.13169e+06
1.26383e+06
840782
83842.4
295351
669384
479807
249502
194388
442500
394564
194257
672085
164980
159082
237742
204265
169889
866822
1.27753e+06
88934.2
103059
118788
1.25809e+06
100119
107790
327773
242537
1.13287e+06
1.18589e+06
108138
326347
130470
119933
269651
121715
82673.9
292702
94767.5
108863
1.27461e+06
502593
268389
209897
188724
147476
375926
341031
306456
139138
1.19552e+06
240558
212098
202570
1.00823e+06
386770
540223
87653.6
139025
103389
447554
226554
299128
93081.7
138403
180350
404111
143244
118802
107908
196492
1.11344e+06
145781
186387
398277
726832
1.02601e+06
632638
445754
301317
356706
56858.7
131612
159949
331469
299335
269468
1.01956e+06
93220.1
105980
113889
112495
111579
119088
141545
104184
99295.1
350448
879108
217545
493409
443877
400568
161750
1.00125e+06
276451
309490
365156
313843
586917
969810
309480
102842
430740
93560.9
396231
235809
438002
488529
180500
596396
152819
1.39227e+06
463960
100695
889065
1.38991e+06
1.19774e+06
272547
105801
504252
104577
93778.3
93982.2
166068
102676
96893.5
93957
86867
800855
840025
98797.2
605403
110808
102115
100245
131711
491160
500716
132801
500104
507407
768462
259286
108624
116150
148793
294954
325992
129813
33876.5
103566
424089
167136
379705
427003
475231
527040
263756
194459
169490
99822.5
93589.4
1.04271e+06
554781
104483
124328
460374
368494
191413
210176
125074
97975.3
181064
160815
91880.4
115499
98946.1
862066
279818
702242
89656.6
99072.5
1.3958e+06
106485
1.07171e+06
1.03946e+06
91693.8
453129
213577
859348
101444
401741
531801
1.1681e+06
125680
93335
93443.5
264894
127371
155191
294015
264942
238212
90579.2
102717
95817
90458.3
484384
535557
370356
647419
583509
706225
1.09909e+06
133905
351083
1.04721e+06
352818
1.03769e+06
409186
453898
507143
221144
162802
207269
256988
979744
110197
109919
144767
136245
123919
116123
183728
165944
155425
418814
356015
1.25566e+06
125919
86272.8
122994
1.03477e+06
301060
148487
141345
1.01482e+06
419353
290968
83064.7
117607
92466.4
408567
526825
156771
664600
104850
103263
1.32521e+06
882773
1.08425e+06
183545
228223
427272
167138
311545
1.05617e+06
1.19507e+06
104906
118968
186897
161057
457486
507972
338763
381706
1.1538e+06
1.13179e+06
142833
113467
84666.8
770499
91652
1.00973e+06
235470
148197
536691
163286
94963.3
983599
126095
137014
90771.2
101573
750083
214720
101248
378471
172126
112264
95100.7
99432.6
302634
100465
965511
933078
153462
372799
219328
97077.5
104540
789443
107601
508980
134507
269055
491839
570481
913882
106976
179942
1.05128e+06
132967
103721
86146.3
106934
103464
1.11309e+06
808846
171020
218857
414995
376745
550108
185210
239704
187441
257913
560280
503982
453565
780949
328561
242699
852916
245733
926436
324338
310220
983441
1.40116e+06
1.15987e+06
196213
258057
569451
243935
189021
95465.2
198266
984655
101450
108687
1.18416e+06
875871
1.07472e+06
395582
490997
499357
428235
91649.9
81961.3
125552
84199
326553
359898
399859
177113
136735
310066
1.08467e+06
97874.2
130983
110984
98611
448523
406602
125788
950843
1.10834e+06
525392
422353
873351
1.00414e+06
98718.4
488053
317666
625897
97026.5
130699
139750
792309
790185
400712
174971
94557.2
105562
121515
246197
862037
118732
633957
90466.8
172983
137908
161092
284672
152456
250181
24113.4
6997.23
248274
1.30396e+06
109340
99742.7
113056
96362.8
97150.1
112959
121025
96730.4
108381
243862
95005.4
101364
117266
435513
542471
382456
935156
1.14849e+06
100593
125998
186230
102321
743079
142274
1.18323e+06
124189
149791
291545
202184
129422
125032
284232
100404
112236
120361
91524.8
111692
86244.5
975597
85293.6
95077.3
141744
100161
80359.3
1.03473e+06
108100
882485
901963
336849
243536
163844
220809
507495
463762
417868
101498
594839
345156
103477
1.09931e+06
105706
107025
178077
589638
387034
436589
675904
106611
95465.7
194492
276427
624955
319045
696571
238034
560960
505614
192350
701561
229918
628083
268769
565650
509638
308363
821441
112301
279668
210863
95348.5
112283
866169
441822
607119
561613
490937
616582
444018
178934
197217
288142
714562
104308
1.24568e+06
117097
100176
953090
106454
150091
321470
337868
951208
92641.6
556331
502436
452875
174553
239670
1.15001e+06
177346
145609
333484
110887
345782
159777
205087
91539.2
120350
129575
107280
249302
99997.3
321068
176210
139058
396709
531988
540469
396397
210186
1.05304e+06
106593
106426
959375
894983
529133
1.37886e+06
501116
426462
520802
1.23208e+06
497628
387444
1.08784e+06
243292
240942
299597
939868
91730.6
847838
101598
151549
191172
314290
347048
384832
183905
144434
273226
63170.5
65504.7
100533
96806.5
130171
104073
98704.9
137141
551339
1.11006e+06
125345
116098
1.02785e+06
641295
247233
325196
98316.7
103391
873095
597057
148753
442443
411722
592630
88997.3
95269.2
113092
99351.5
640948
1.09711e+06
1.10553e+06
733386
1.21289e+06
148399
92414
169642
493434
444879
549070
244127
175255
1.16431e+06
234743
283750
370029
137124
132291
505626
191662
98206.9
363536
140936
166381
1.13427e+06
174739
159207
543859
492412
442919
225422
753299
700497
906172
286097
302322
330614
746566
316447
234648
661961
131399
1.38386e+06
107298
1.06101e+06
269069
311670
80533.6
324923
600043
99481.7
108836
102134
1.2289e+06
304743
272083
333981
161914
127739
181537
282869
813689
286985
568989
701205
632471
201086
617726
456656
488132
577279
612537
456555
494247
587318
345722
331342
27393.9
167929
111257
205871
291225
249656
334899
725070
651602
584789
527012
201883
589957
265173
110311
78633.6
86629
136100
77298.1
238612
532580
555913
211596
1.01646e+06
109474
93807.6
814041
1.02241e+06
83162.9
604013
235792
307599
425235
310516
161519
97754.9
232064
400116
60535.3
104973
1.03776e+06
140222
120310
238147
214455
261465
189113
106524
108197
198592
663864
1.07153e+06
1.2414e+06
168981
185821
794003
716159
956983
99372.9
578174
923989
1.24557e+06
1.29046e+06
1.21868e+06
270772
488868
206940
1.09781e+06
768180
304572
715101
99561.2
101617
849849
852277
99175.4
245748
1.13363e+06
914284
854873
883905
1.29506e+06
865155
1.02806e+06
929815
103391
150064
651791
382730
556308
124039
90572.5
113044
105907
112443
126461
110826
211391
1.02159e+06
618568
202853
269222
672006
111250
316817
239109
1.33591e+06
164490
153203
322625
164542
292174
126424
115518
1.08529e+06
8860.05
87200.6
86516.7
17912.5
217887
295743
107392
117989
128691
101608
338976
289068
98347.3
1.10649e+06
962683
280963
660753
210123
103473
773020
172425
1.10892e+06
263371
320568
370058
423519
860992
775832
695434
626181
263098
316285
871285
784153
365251
704322
419487
631728
149376
125956
299366
295065
253375
131473
119452
109127
99641.4
96967.9
94110.3
94062.9
90731
145563
495647
533920
410610
233387
449226
495254
856570
333412
265804
1.00675e+06
339337
117517
71667.9
104504
102101
159622
141047
145883
109286
233341
179883
190261
370042
108357
121526
543757
106771
95272.8
108753
91936.6
711825
115488
147952
306498
245189
162664
316195
145067
88035.3
81133.5
1.21378e+06
1.19379e+06
609008
492208
475424
615245
1.13172e+06
566044
105487
364063
189143
154635
213591
116299
1.16097e+06
123281
590194
533719
481020
250431
179843
320054
176840
144004
1.17527e+06
132630
105322
387019
384091
158428
117009
129179
204354
450809
840867
306143
238137
580415
663506
168991
230354
532070
479027
432427
240640
261752
472246
338715
483094
260851
540299
602136
181282
669196
1.32694e+06
959351
98090.4
375426
416525
461468
161612
124285
788464
132037
170486
234404
245745
106785
132784
123927
103519
648310
483431
511081
613643
183738
970729
1.20434e+06
440541
93578.5
369967
408780
453089
464386
576200
154989
897305
396889
321775
288260
354694
140109
178900
118302
115925
223681
274112
246677
277462
306430
340829
201850
198434
272722
275230
579061
574571
468191
520143
464749
516596
290587
322064
135419
103137
108228
110427
688825
354981
105845
563363
463607
438080
578127
121725
216343
778645
311078
700235
629319
80321.3
135041
567613
296967
221388
737496
287633
62971.8
522578
471378
582824
254289
181791
824366
268861
221130
1.04342e+06
270126
371870
103542
104775
176864
162540
146439
872191
201131
170089
235496
212067
256639
131236
113993
601793
692474
122996
365226
95068.6
542886
1.06773e+06
693762
273676
214382
525640
251949
231075
190109
134896
102308
215616
111360
235351
109277
196448
99106.5
96314.5
1.14313e+06
200440
865749
444323
491043
262489
206239
506898
1.03762e+06
83157.2
100157
107072
99963.7
208521
20020.9
6652.44
206934
413523
91534.7
405416
176225
161248
98132.8
253755
346617
783475
96890.6
90150.7
104438
108361
226779
141758
492018
432875
133263
94908.4
94387
1.13903e+06
415073
95906
176002
94389.7
1.33505e+06
995706
178710
121064
380175
195064
262487
534509
432265
481024
1.15116e+06
904071
104364
888318
1.25597e+06
925911
1.00634e+06
471912
114435
667105
141556
105043
116237
218438
214787
170376
162175
388162
136245
104686
93803.9
586152
619984
690709
768248
846554
341741
298185
250466
204945
133144
94725
287084
13552.5
144403
143293
7408.19
286386
145034
116987
81601.3
171187
198135
109136
214902
660022
382913
267191
196972
224318
1.07742e+06
850559
105858
359412
106233
108319
264123
313174
375560
774986
190094
213438
108469
972276
107894
161613
193691
179131
616758
685477
343530
459708
456270
260625
343615
711200
675824
657593
210991
281046
77887.6
96367.6
81323
141395
84778.4
331393
572540
510983
627515
452599
638482
451327
315289
260066
551947
403147
558543
404325
158796
679824
511928
446315
581939
516269
637593
460938
643903
459474
655486
1.32807e+06
238920
329453
756139
302073
88134.5
106805
134159
13174.4
133121
11715
99507.3
210048
629746
567493
702627
300244
212839
1.12919e+06
61338.3
99937.2
176294
550204
149646
410261
195869
1.1783e+06
1.18961e+06
749551
92700.8
187786
742932
350980
283485
240354
359850
323082
397553
150740
194618
1.24616e+06
292495
1.09198e+06
94500.2
99850.2
104267
95193.4
80624.2
1.07158e+06
97597.7
748025
80760.3
539528
765841
90700.7
110689
122320
314498
130609
245660
221651
168954
184896
204666
107401
170492
227781
278103
196317
670730
605654
545401
799343
1.08117e+06
1.19869e+06
87155.7
90224.6
95908.2
98708.3
144255
91859.4
148498
1.18138e+06
1.22009e+06
1.12232e+06
953273
37269.7
692890
1.0618e+06
614416
474278
491357
608093
347959
348601
606527
355845
786095
81385.4
145305
162286
319396
132020
127180
148554
113797
131365
98356.9
113142
209898
217373
239135
232040
257051
263925
312324
316484
101972
104887
259523
186247
93156.5
113727
506445
792074
103676
423560
923370
262428
860262
356675
128526
890772
387200
325272
512692
974289
1.28139e+06
512426
178581
1.09359e+06
149241
117980
106841
267189
75160.8
471587
779998
180650
291529
128228
108805
129292
1.16835e+06
179466
200803
194944
158756
454097
141898
121994
485328
107130
986177
103113
578929
195602
210392
898934
691415
403805
768469
856115
347692
947917
297202
239226
682903
757656
940071
844821
240021
351979
406972
298485
1.08777e+06
119747
853536
100877
95841.9
95695.1
4884.07
37125.5
442314
58254.1
823296
150002
128331
271783
297068
245202
264497
146246
635496
145008
151165
615496
86990.2
218482
199137
197610
605896
546169
676080
284168
306151
122742
196448
337929
817210
68020.6
183696
121645
92117.7
272476
897323
458704
410411
924865
133071
478198
1.05751e+06
517186
942024
106776
1.03672e+06
136664
710090
226742
279318
102858
8571.4
86613.6
85911.8
14745.7
137007
779161
106441
844898
419052
139684
595546
571201
661851
634768
736863
706978
321961
311224
228948
222355
249823
178828
593166
536813
483183
162797
198058
179190
108755
524196
449059
84893.9
112888
93142.8
107348
107189
1.07476e+06
847376
201596
648962
584972
721653
103420
426416
712685
708896
111884
106358
888169
307635
117269
139381
166224
153106
108587
272268
245859
224366
892570
1.32521e+06
928760
607392
279096
206965
110179
119412
154977
120304
107400
104691
118779
308706
241195
96600
825282
931491
314157
321720
108748
114567
106012
102085
264260
882074
556345
417157
433428
516578
103291
93620.3
143939
95668.5
89743.4
150309
1.37934e+06
1.08626e+06
90418.2
113450
373476
324015
233424
730100
810613
590237
654611
476540
217564
181090
200258
116861
125259
986899
226110
604868
69255.7
937968
93700.3
300481
342352
1.36832e+06
97099
305304
106926
286530
105550
188873
610396
249325
638996
402916
711097
792057
353214
880105
301647
251955
306602
252298
127859
353836
402804
517576
91803.3
141660
738390
337718
1.22719e+06
1.02723e+06
1.14991e+06
219268
854170
432848
295776
142474
114835
1.1429e+06
630901
90607.9
1.28346e+06
1.02158e+06
38968.8
315932
263215
51836.3
550580
387123
94109.4
99287.6
894602
1.23034e+06
104039
359813
369734
816158
789578
268950
276010
271344
281660
98289.5
100748
101215
97207.3
70264.5
1.32573e+06
958718
915744
1.15125e+06
407632
201184
842282
430805
478539
530525
71621.9
954291
154905
693292
1.05104e+06
298691
195892
1.29174e+06
286785
301378
218095
231615
619878
600749
137244
136844
81649.1
99257.8
201620
722293
649839
583421
288440
1.31515e+06
104572
140769
85353.1
574328
637983
354405
709340
305600
793820
262851
721482
583196
646967
801489
215575
369996
320818
269752
98851.1
122032
121815
137097
236743
193472
214927
1.00704e+06
402510
490922
977093
129059
161943
99274.2
260556
347861
130069
167936
1.02961e+06
113410
97647.5
106950
108331
98225.3
77835
151727
107393
116389
816140
983288
101212
87342.1
101601
177109
360678
1.10484e+06
1.0206e+06
492953
110691
106586
830336
105180
108326
1.33845e+06
476627
967850
234819
640825
357112
383108
125814
515721
642250
288639
212749
105295
223038
95571.8
61419.2
86686.3
1.09352e+06
519970
525168
975939
161799
175033
107142
316218
99584.1
99340
112958
181784
172379
17415.6
171071
11986.1
104564
651346
177641
245382
530517
477271
429361
107401
1.17691e+06
424790
205031
955397
506894
537247
110731
10789.3
109865
11419.4
878130
262379
322327
397399
360889
96802.4
1.03416e+06
197460
152234
441653
336614
98148.6
23369
725289
143430
746702
166386
210631
406782
422200
350696
97413.2
344170
147061
174007
106959
115076
332910
345100
120450
191785
92581.2
93847.2
530214
252126
191941
106538
324577
8361.9
31195.9
322107
326667
265728
385615
458498
82665.8
1.21268e+06
1.2822e+06
146474
103520
103737
133456
149932
15383.5
148804
13325.7
574723
189284
255542
1.19467e+06
1.20982e+06
957391
938495
453084
400342
381898
341627
1.02063e+06
138882
263724
110252
84994
98219.3
179123
241390
339410
1.07971e+06
1.1009e+06
138521
72942.3
332586
367913
139624
571956
222160
190286
954946
105806
108558
131028
507189
503140
545498
344865
181438
245238
79972.6
75598.3
681538
86634.8
574185
75518.7
259467
417764
366349
682083
796108
105871
118023
209760
935736
5067.23
63311.7
18758.8
63206.4
154921
150322
80621.8
1.14078e+06
20463.8
1.08855e+06
283761
27270.6
8825.24
281610
161801
92134.8
10531.6
91476.3
205000
906849
202633
1.12952e+06
1.24039e+06
37747.3
303592
374148
339646
464356
211438
159581
520569
375712
68832.5
131812
183468
142028
313862
426681
132670
133062
1.19926e+06
361652
416678
397240
456751
770769
101031
82573.1
644700
805773
297859
135141
152507
97149.8
182555
227748
107771
134386
177715
104476
73132.3
699400
828976
144823
295262
234313
243380
795175
328761
152697
134988
316725
301254
87584.1
177625
811226
983785
228592
168511
392270
484810
436541
79517.1
95839.6
173328
135578
753434
274828
79636.1
40982.8
46666.7
226555
169468
379229
468191
422152
102484
1.10467e+06
1.24612e+06
111213
94602.6
87634.6
83683.7
1.07209e+06
189180
156073
429743
1.33398e+06
1.09494e+06
260449
119794
257698
232727
154197
140692
166806
103113
105047
102972
205804
1.08082e+06
95641.9
480398
520073
916111
650312
634295
233085
228878
301352
306533
179216
165446
152135
90075.9
98875.7
355174
127895
979955
642414
156079
97052.4
451094
1.28173e+06
93282.6
552500
457787
427346
570652
447849
184755
238503
580962
120937
425943
179436
195880
117800
276347
131694
164876
454942
216363
114397
102372
124453
528227
433993
124620
117775
119969
129418
101299
289937
222251
102543
213514
107332
130591
196956
1.16599e+06
1.02765e+06
716104
177960
144364
394974
355739
320228
170180
179711
81588.9
638084
101883
286074
386339
134586
158202
1.05799e+06
74495.3
179932
166553
100127
1.08792e+06
70807.3
109930
254047
302938
115877
107533
123802
94050.6
101369
708351
95693.1
87078
10753.1
86429.6
703059
632717
1.18979e+06
789284
954364
111177
994742
637794
9730.09
70601.6
150062
129313
246217
270251
297888
407071
210323
904081
474578
527907
106101
84726.8
80087.3
93830
107720
101006
132318
572920
71105.9
1.18211e+06
304944
112403
580980
348531
185978
250935
132874
113222
155946
250457
154300
330772
315175
121965
106958
364746
613241
77999.7
79417
130571
81696.2
95836.9
960434
206969
166518
485251
896448
250982
158617
364858
323452
356021
291356
178308
139972
100338
5724.92
45280.6
354823
294784
408419
909208
735561
818206
294071
350303
921333
827539
405724
744625
131414
202029
168655
188677
98797.2
132219
112968
321258
149092
130982
136108
234652
682965
310924
98645.7
125335
91124.6
102643
134783
197338
103835
94796.8
82158.8
516399
180761
229945
167108
208196
439046
372005
419344
337029
642710
184136
117833
182281
366319
274492
145019
186040
257694
101687
180457
111244
110584
296667
295424
124971
392085
129369
130320
748122
626625
94249.6
112157
1.04846e+06
86843.2
128100
83257.5
128200
154224
472087
424219
380286
249541
248602
489783
125852
100043
98162.4
701328
131194
121264
137808
128303
111390
120713
80013
108961
821847
805038
225125
180820
109002
530028
455091
183342
244713
342857
105703
72651.9
101382
1.06215e+06
344145
410749
60692.3
296808
128590
54878
120015
131972
128479
289985
102311
184988
148713
107231
1.2877e+06
195075
576518
161766
987077
369763
435015
228757
175266
563119
83626.4
104432
109416
203557
253119
190964
125406
73488.3
60856.1
447142
182348
148250
86201.8
91455.4
92954.8
94086.6
201905
164693
183779
54501.7
97329.9
928762
94360.8
1.30365e+06
254655
136450
496073
111870
90236
369820
128453
121550
579510
99455.5
342156
718713
647290
796227
90911.2
143855
232068
741950
702951
185653
98207.8
199380
202064
281087
325792
625634
280735
318199
700740
617715
681225
506194
561902
499683
554599
897773
214798
146402
1.08042e+06
96861.5
114856
373098
913602
267436
148656
122204
94375.9
85571.4
108145
117882
87889.6
708458
168145
210963
393781
105631
481605
121332
187566
195104
301320
111493
104323
126919
100230
98625.8
130373
120329
112264
1.08402e+06
117372
97850.5
199180
254300
77346.9
141542
142572
794033
151015
117513
109490
114992
105819
1.06645e+06
172157
160401
389854
167654
142057
1.0244e+06
769689
811509
245941
110139
904765
264355
299308
131078
513733
413101
544812
440451
665206
348044
871586
574713
757522
567832
362257
289267
85324.1
99691
921251
86691.8
99475.7
97872.9
101595
97598.4
86108.9
500648
522400
122816
263862
25470.2
3510.49
261849
121682
78785.4
900212
284754
397797
157658
136287
150815
115153
125343
219746
250477
96671.2
126797
318137
225373
168581
307460
542148
458761
82620.6
472662
397225
1.25896e+06
712981
422669
792699
883432
365435
978629
312504
253813
705177
782172
872539
970962
368214
252874
424755
314417
100407
454114
75694.9
587518
583083
1.26472e+06
111952
232562
669405
107630
396617
72907.2
82527.4
663496
98457.3
146954
370390
480155
1.06967e+06
185032
206706
228942
107528
173423
220267
490925
205671
120454
104883
105890
108145
1.03314e+06
464714
452424
886858
863138
175569
159314
226370
203128
449211
413767
777803
902227
531900
590119
658307
736781
205279
333984
249032
290551
741931
665382
599736
540397
201633
240309
282579
322916
121866
154027
674865
972969
175637
151850
181254
391976
443121
401227
359546
310881
162802
216311
1.3506e+06
84502.1
145753
547400
834289
714066
258206
323387
115172
39582.6
138519
744378
268870
1.17304e+06
120759
149092
690087
872580
93480.9
533926
592689
479350
1.11685e+06
358122
158272
195712
282212
141395
162254
363987
545791
243075
546429
451207
148251
374666
462796
415952
166348
232340
1.28113e+06
1.0319e+06
149489
121558
983210
122238
176385
184932
233811
242898
497089
509869
164003
129853
348513
316495
285237
398483
92285.2
693257
939909
414980
97003
108914
908782
420215
402547
501584
484389
918152
177417
240521
162730
125987
114522
218914
549830
118039
100555
115340
1.21048e+06
937007
293511
147332
115079
160274
91640.5
351342
245987
270254