/*--------------------------------*- C++ -*----------------------------------*\
| =========                 |                                                 |
| \\      /  F ield         | OpenFOAM: The Open Source CFD Toolbox           |
|  \\    /   O peration     | Version:  2.3.1                                 |
|   \\  /    A nd           | Web:      www.OpenFOAM.org                      |
|    \\/     M anipulation  |                                                 |
\*---------------------------------------------------------------------------*/
FoamFile
{
    version     2.0;
    format      ascii;
    class       volScalarField;
    location    "0.94";
    object      nut;
}
// * * * * * * * * * * * * * * * * * * * * * * * * * * * * * * * * * * * * * //

dimensions      [0 2 -1 0 0 0 0];

internalField   nonuniform List<scalar> 
1000
(
0.000520604
0.000526467
0.000526688
0.000526687
0.000526684
0.000526683
0.000526682
0.00052668
0.000526653
0.00052613
0.000526824
0.000529249
0.000529471
0.000529484
0.000529486
0.000529485
0.000529482
0.000529468
0.000529255
0.00052663
0.000527653
0.000530186
0.00053045
0.000530472
0.000530476
0.000530476
0.000530469
0.000530449
0.000530188
0.000527181
0.000528451
0.000531232
0.000531538
0.000531575
0.000531588
0.000531587
0.000531573
0.000531539
0.000531243
0.000527994
0.00052886
0.000532156
0.000532516
0.000532564
0.000532578
0.000532578
0.000532566
0.000532525
0.000532183
0.000528423
0.000526708
0.000528535
0.00052873
0.000528753
0.000528759
0.000528761
0.000528762
0.000528755
0.00052859
0.000526596
0.000528803
0.00102101
0.0010721
0.00107495
0.00107512
0.00107518
0.00107521
0.00107319
0.00102499
0.000528557
0.000529478
0.00108531
0.00114764
0.00115109
0.00115124
0.00115126
0.00115118
0.00114846
0.00108929
0.000529225
0.000530184
0.00109064
0.00115433
0.00115786
0.00115802
0.00115802
0.00115792
0.00115508
0.00109439
0.000529934
0.000530732
0.00109393
0.00115956
0.00116343
0.00116368
0.00116368
0.0011635
0.00116034
0.00109766
0.000530489
0.000527379
0.000529096
0.000529299
0.000529321
0.000529328
0.000529332
0.000529332
0.000529324
0.000529137
0.00052699
0.000529279
0.00107302
0.00113316
0.00113649
0.00113665
0.0011367
0.0011367
0.0011342
0.00107722
0.000529047
0.000529878
0.00114488
0.00121913
0.00122336
0.00122354
0.00122354
0.00122345
0.00122008
0.00114955
0.000529657
0.000530469
0.00115015
0.00122596
0.00123032
0.0012305
0.0012305
0.00123039
0.00122687
0.00115471
0.000530247
0.000531093
0.00115098
0.00122822
0.00123279
0.00123303
0.00123303
0.00123286
0.00122914
0.0011555
0.000530873
0.000527684
0.000529397
0.000529597
0.000529617
0.000529624
0.000529627
0.000529628
0.000529619
0.000529429
0.000527271
0.000529542
0.00108015
0.00114116
0.00114449
0.00114463
0.00114466
0.00114464
0.00114204
0.00108393
0.000529308
0.000530075
0.00114889
0.00122371
0.00122796
0.00122814
0.00122814
0.00122804
0.00122463
0.0011534
0.000529857
0.000530585
0.00115358
0.00122978
0.00123415
0.00123434
0.00123434
0.00123422
0.00123069
0.0011581
0.000530364
0.000531216
0.00115369
0.00123072
0.00123519
0.0012354
0.0012354
0.00123526
0.00123163
0.00115817
0.000530996
0.000527852
0.000529565
0.000529763
0.000529781
0.000529787
0.000529789
0.000529789
0.000529779
0.000529588
0.000527421
0.000529696
0.00108513
0.00114671
0.00115005
0.00115019
0.00115021
0.00115016
0.0011475
0.00108868
0.000529454
0.000530191
0.00114994
0.00122466
0.0012289
0.00122907
0.00122907
0.00122897
0.00122556
0.00115432
0.000529969
0.000530658
0.00115408
0.00122989
0.00123422
0.00123441
0.00123441
0.00123429
0.00123079
0.0011585
0.000530434
0.000531278
0.00115421
0.00123038
0.00123474
0.00123493
0.00123493
0.00123481
0.00123127
0.0011586
0.000531052
0.000527876
0.000529662
0.000529865
0.000529884
0.00052989
0.000529892
0.000529891
0.000529879
0.000529681
0.000527438
0.000529736
0.00108852
0.00115051
0.00115387
0.001154
0.001154
0.00115393
0.00115121
0.00109189
0.000529489
0.000530231
0.00115059
0.00122525
0.00122948
0.00122965
0.00122965
0.00122954
0.00122613
0.00115487
0.000530005
0.000530711
0.0011544
0.00122993
0.00123423
0.00123441
0.00123441
0.00123429
0.00123081
0.00115872
0.000530483
0.000531334
0.00115481
0.00123037
0.00123468
0.00123486
0.00123487
0.00123474
0.00123125
0.00115911
0.000531106
0.000527768
0.000529742
0.000529963
0.000529985
0.000529992
0.000529994
0.00052999
0.000529975
0.000529759
0.000527324
0.00052966
0.00108906
0.00115109
0.00115445
0.00115459
0.00115459
0.00115451
0.00115177
0.00109239
0.000529408
0.00053021
0.00115053
0.00122507
0.00122929
0.00122946
0.00122946
0.00122935
0.00122594
0.00115477
0.000529978
0.000530757
0.00115418
0.00122952
0.00123381
0.00123399
0.00123399
0.00123388
0.00123039
0.00115847
0.000530525
0.000531449
0.00115461
0.00122991
0.00123421
0.0012344
0.00123441
0.00123428
0.00123078
0.00115886
0.000531214
0.000527516
0.000529667
0.000529903
0.000529928
0.000529936
0.000529937
0.000529933
0.000529912
0.000529683
0.00052707
0.000529461
0.00108526
0.00114646
0.00114976
0.00114989
0.0011499
0.00114981
0.00114712
0.0010885
0.000529203
0.000530093
0.00114468
0.00121778
0.00122188
0.00122203
0.00122203
0.00122194
0.00121862
0.00114877
0.000529856
0.000530759
0.00114677
0.00122025
0.00122435
0.00122449
0.0012245
0.00122441
0.00122108
0.00115088
0.000530519
0.000531573
0.00114467
0.00121737
0.00122138
0.00122151
0.00122151
0.00122143
0.00121817
0.00114869
0.000531331
0.00052711
0.000529193
0.000529413
0.000529438
0.000529445
0.000529447
0.00052944
0.000529421
0.000529204
0.000526657
0.000528973
0.00102042
0.00107035
0.00107287
0.00107293
0.00107292
0.00107289
0.00107082
0.00102286
0.000528692
0.000529698
0.00106384
0.00112151
0.00112442
0.00112442
0.00112441
0.00112442
0.00112208
0.00106685
0.000529432
0.000530487
0.00105622
0.00111227
0.00111487
0.00111477
0.00111475
0.00111487
0.0011128
0.00105912
0.000530219
0.000531532
0.00103811
0.00109015
0.00109219
0.00109196
0.00109195
0.00109218
0.0010906
0.00104071
0.000531254
0.000526178
0.000526272
0.000526286
0.000526291
0.000526294
0.000526294
0.000526292
0.000526287
0.000526256
0.000525694
0.000526751
0.000528472
0.00052867
0.000528693
0.000528699
0.000528701
0.000528693
0.000528675
0.00052848
0.000526283
0.000527461
0.000529367
0.000529611
0.000529649
0.000529664
0.000529663
0.000529652
0.000529615
0.000529379
0.000526996
0.000528431
0.000530415
0.000530702
0.000530766
0.000530786
0.00053079
0.000530764
0.000530707
0.000530422
0.000527965
0.00053
0.000532688
0.00053317
0.000533266
0.000533293
0.000533288
0.000533267
0.000533162
0.000532712
0.000529556
0.000534841
0.000550133
0.000553427
0.000553143
0.000552903
0.000552893
0.000553086
0.000553402
0.000550587
0.000534598
0.000567338
0.000711811
0.000737368
0.000731549
0.000728569
0.000728411
0.00073108
0.000737103
0.000715686
0.000569368
0.000763912
0.0012961
0.00136803
0.00135285
0.00134505
0.00134466
0.00135162
0.0013675
0.00130591
0.000775221
0.00123759
0.00221962
0.00234397
0.00233684
0.0023299
0.00232942
0.00233538
0.00234366
0.0022326
0.00125757
0.00188665
0.00340353
0.00359698
0.00360933
0.00360723
0.00360675
0.003608
0.00359716
0.00341874
0.00191061
0.000533341
0.00100021
0.00104408
0.00104506
0.00104462
0.00104461
0.00104503
0.00104439
0.00100226
0.000533083
0.000537587
0.00095509
0.00098796
0.000990517
0.000990792
0.000990805
0.000990566
0.000988287
0.000956305
0.000537561
0.000568855
0.000826325
0.000842533
0.000861094
0.000867123
0.000867235
0.000861545
0.000843129
0.000825429
0.000570656
0.000800169
0.000844886
0.000884785
0.00087932
0.000876673
0.000876497
0.000878913
0.000884944
0.000850356
0.000809796
0.00221844
0.00433812
0.00452598
0.00453667
0.004535
0.00453467
0.00453587
0.00452717
0.00435384
0.00224635
0.000532581
0.00113819
0.00120902
0.0012128
0.00121288
0.00121287
0.00121284
0.00120978
0.00114204
0.000532348
0.000533931
0.00111912
0.0011839
0.00118703
0.00118694
0.00118694
0.00118706
0.00118457
0.00112251
0.000533732
0.0005388
0.00100511
0.00104128
0.00105001
0.00105247
0.00105254
0.0010503
0.0010419
0.00100554
0.000538873
0.000690676
0.000647733
0.000664443
0.000667171
0.000667829
0.000667809
0.000667183
0.000664728
0.000649938
0.000696543
0.0022531
0.00440608
0.00455176
0.00455582
0.00455355
0.00455343
0.00455566
0.00455402
0.00442215
0.00228104
0.000532017
0.0011555
0.00123108
0.0012355
0.00123574
0.00123574
0.00123557
0.00123195
0.00115976
0.000531791
0.000533161
0.00114838
0.00122182
0.00122584
0.00122592
0.00122592
0.00122589
0.00122264
0.00115245
0.000532946
0.00053575
0.00100122
0.00104592
0.0010501
0.00105002
0.00104996
0.00105
0.00104611
0.00100217
0.000535702
0.000676584
0.000604199
0.000616856
0.000618642
0.000619071
0.000619074
0.000618686
0.000617158
0.000606111
0.000681953
0.00233175
0.00453751
0.00467833
0.00468754
0.00468745
0.00468743
0.0046878
0.00468133
0.00455424
0.00236143
0.000531683
0.00115661
0.00123281
0.00123729
0.00123755
0.00123755
0.00123736
0.0012337
0.00116095
0.000531457
0.000532829
0.00115208
0.00122729
0.0012315
0.00123163
0.00123163
0.00123155
0.00122814
0.0011563
0.000532618
0.000534834
0.00100993
0.00105135
0.00105218
0.0010513
0.00105125
0.00105201
0.00105134
0.00101074
0.000534761
0.000700429
0.00059035
0.000603278
0.000604671
0.000605019
0.000605027
0.000604727
0.000603623
0.000592441
0.000707037
0.00236463
0.00456505
0.00470278
0.00471339
0.00471395
0.00471398
0.00471382
0.00470605
0.00458179
0.00239481
0.000531622
0.00115623
0.00123356
0.00123816
0.00123844
0.00123844
0.00123824
0.00123448
0.00116066
0.000531401
0.000532849
0.0011494
0.00122771
0.00123217
0.00123232
0.00123232
0.00123223
0.0012286
0.00115375
0.00053264
0.000535418
0.000994083
0.00103023
0.00102758
0.0010257
0.00102566
0.00102738
0.00103013
0.000994763
0.000535373
0.000776514
0.000614876
0.000633277
0.000638071
0.000639952
0.000639991
0.000638281
0.000633851
0.00061729
0.000784766
0.00237422
0.0045135
0.00464392
0.00465459
0.00465551
0.00465558
0.00465518
0.00464735
0.0045295
0.00240419
0.000531771
0.00115635
0.00123509
0.00123987
0.00124017
0.00124018
0.00123995
0.00123603
0.00116088
0.000531557
0.000533044
0.00114641
0.00122911
0.00123402
0.00123419
0.00123419
0.00123409
0.00123006
0.00115093
0.000532838
0.00053736
0.00101206
0.00105166
0.00104784
0.00104514
0.00104507
0.00104757
0.00105156
0.0010133
0.000537367
0.000831439
0.000628355
0.000648163
0.000655596
0.000658663
0.000658735
0.000655897
0.00064885
0.000630235
0.000838924
0.00235394
0.00433837
0.00445222
0.00446526
0.00446819
0.00446831
0.00446613
0.00445553
0.0043521
0.00238145
0.000532152
0.00115429
0.00123367
0.00123855
0.00123886
0.00123886
0.00123863
0.00123464
0.00115887
0.000531944
0.000533162
0.00114738
0.00123562
0.00124152
0.00124189
0.00124189
0.0012416
0.00123665
0.00115217
0.000532951
0.000539489
0.00108397
0.00113764
0.00113846
0.00113745
0.00113743
0.00113835
0.00113798
0.00108639
0.000539463
0.000759861
0.000616772
0.000635485
0.000640307
0.000642023
0.000642054
0.000640457
0.000635925
0.000618123
0.000763893
0.00224352
0.00394989
0.00404167
0.00405442
0.00405826
0.00405842
0.0040553
0.00404459
0.00396057
0.00226507
0.00053258
0.00109858
0.00116657
0.00117062
0.00117086
0.00117086
0.00117069
0.00116737
0.00110237
0.000532356
0.000532823
0.001112
0.00119449
0.00120094
0.00120166
0.00120167
0.00120104
0.00119549
0.00111641
0.000532595
0.000541385
0.00112269
0.00118594
0.00119072
0.00119126
0.00119127
0.00119079
0.00118664
0.00112573
0.000541328
0.000671895
0.000630394
0.000653467
0.000654459
0.000654164
0.000654144
0.000654417
0.00065366
0.000631351
0.000675126
0.00192775
0.00325121
0.00331996
0.00333081
0.00333441
0.00333453
0.00333151
0.00332213
0.00325893
0.00194165
0.000531222
0.000535146
0.00053566
0.000535771
0.000535814
0.000535818
0.000535777
0.00053568
0.000535196
0.000530791
0.000529722
0.00053632
0.000537175
0.000537309
0.000537346
0.000537351
0.000537321
0.000537207
0.000536396
0.000529286
0.000541316
0.000551227
0.000552571
0.000552911
0.000553023
0.000553025
0.000552927
0.000552604
0.000551358
0.000540982
0.000587532
0.000666992
0.000680516
0.000682541
0.000683059
0.000683053
0.000682575
0.00068077
0.000668265
0.000588516
0.0012635
0.00170031
0.00173143
0.0017397
0.00174223
0.00174231
0.00174007
0.00173251
0.00170405
0.00126923
)
;

boundaryField
{
    walls
    {
        type            nutkWallFunction;
        Cmu             0.09;
        kappa           0.41;
        E               9.8;
        value           nonuniform List<scalar> 
500
(
6.34016e-05
6.34016e-05
6.34016e-05
6.41163e-05
6.41163e-05
6.41421e-05
6.41421e-05
6.41418e-05
6.41418e-05
6.41415e-05
6.41415e-05
6.41414e-05
6.41414e-05
6.41412e-05
6.41412e-05
6.4141e-05
6.4141e-05
6.4138e-05
6.4138e-05
6.40752e-05
6.40752e-05
6.40752e-05
6.41569e-05
6.41569e-05
6.44321e-05
6.44568e-05
6.44581e-05
6.44583e-05
6.44583e-05
6.44578e-05
6.44564e-05
6.44325e-05
6.41312e-05
6.41312e-05
6.42511e-05
6.42511e-05
6.4537e-05
6.45663e-05
6.45686e-05
6.45691e-05
6.4569e-05
6.45682e-05
6.4566e-05
6.45371e-05
6.41935e-05
6.41935e-05
6.43398e-05
6.43398e-05
6.46534e-05
6.46873e-05
6.46914e-05
6.46927e-05
6.46927e-05
6.46912e-05
6.46875e-05
6.46546e-05
6.42841e-05
6.42841e-05
6.43895e-05
6.43895e-05
6.47597e-05
6.47994e-05
6.48047e-05
6.48063e-05
6.48063e-05
6.4805e-05
6.48004e-05
6.47627e-05
6.43362e-05
6.43362e-05
6.41422e-05
6.41422e-05
6.43531e-05
6.43753e-05
6.4378e-05
6.43787e-05
6.4379e-05
6.43791e-05
6.43783e-05
6.43597e-05
6.41276e-05
6.41276e-05
6.43837e-05
6.43536e-05
6.44598e-05
6.4429e-05
6.45385e-05
6.45081e-05
6.46026e-05
6.4573e-05
6.42193e-05
6.42193e-05
6.44163e-05
6.44393e-05
6.44418e-05
6.44427e-05
6.44431e-05
6.44432e-05
6.44423e-05
6.44213e-05
6.4172e-05
6.4172e-05
6.44372e-05
6.44089e-05
6.45045e-05
6.44776e-05
6.45708e-05
6.45438e-05
6.46419e-05
6.46151e-05
6.42537e-05
6.42537e-05
6.44502e-05
6.44727e-05
6.4475e-05
6.44759e-05
6.44762e-05
6.44763e-05
6.44753e-05
6.44541e-05
6.42035e-05
6.42035e-05
6.44666e-05
6.44381e-05
6.45266e-05
6.45e-05
6.45838e-05
6.45569e-05
6.4655e-05
6.4628e-05
6.42726e-05
6.42726e-05
6.4469e-05
6.44912e-05
6.44933e-05
6.4494e-05
6.44943e-05
6.44943e-05
6.44932e-05
6.44718e-05
6.42203e-05
6.42203e-05
6.44838e-05
6.44544e-05
6.45394e-05
6.45123e-05
6.4592e-05
6.45647e-05
6.46612e-05
6.46338e-05
6.42754e-05
6.42754e-05
6.44797e-05
6.45025e-05
6.45046e-05
6.45053e-05
6.45056e-05
6.45055e-05
6.45041e-05
6.4482e-05
6.42221e-05
6.42221e-05
6.44881e-05
6.44581e-05
6.45439e-05
6.45164e-05
6.45977e-05
6.457e-05
6.46676e-05
6.46398e-05
6.42631e-05
6.42631e-05
6.4488e-05
6.45127e-05
6.45151e-05
6.45158e-05
6.4516e-05
6.45157e-05
6.4514e-05
6.449e-05
6.42091e-05
6.42091e-05
6.44796e-05
6.4449e-05
6.45413e-05
6.45131e-05
6.46029e-05
6.45746e-05
6.46802e-05
6.46516e-05
6.42348e-05
6.42348e-05
6.44788e-05
6.45052e-05
6.45078e-05
6.45087e-05
6.45088e-05
6.45083e-05
6.45062e-05
6.44806e-05
6.41805e-05
6.41805e-05
6.44572e-05
6.44258e-05
6.45284e-05
6.44995e-05
6.46027e-05
6.45735e-05
6.46942e-05
6.46647e-05
6.4189e-05
6.4189e-05
6.44254e-05
6.44499e-05
6.44526e-05
6.44534e-05
6.44535e-05
6.44529e-05
6.44508e-05
6.44267e-05
6.41339e-05
6.41339e-05
6.44026e-05
6.43686e-05
6.44838e-05
6.44517e-05
6.45725e-05
6.45398e-05
6.46884e-05
6.46548e-05
6.40804e-05
6.40804e-05
6.40804e-05
6.40907e-05
6.40907e-05
6.40923e-05
6.40923e-05
6.40928e-05
6.40928e-05
6.40931e-05
6.40931e-05
6.40931e-05
6.40931e-05
6.40929e-05
6.40929e-05
6.40924e-05
6.40924e-05
6.40888e-05
6.40888e-05
6.40216e-05
6.40216e-05
6.40216e-05
6.41446e-05
6.41446e-05
6.43435e-05
6.43658e-05
6.43683e-05
6.43691e-05
6.43692e-05
6.43685e-05
6.43663e-05
6.43445e-05
6.40878e-05
6.40878e-05
6.42242e-05
6.42242e-05
6.44437e-05
6.44711e-05
6.44753e-05
6.44768e-05
6.44769e-05
6.44755e-05
6.44716e-05
6.44451e-05
6.41676e-05
6.41676e-05
6.43319e-05
6.43319e-05
6.45596e-05
6.45914e-05
6.45983e-05
6.46006e-05
6.46008e-05
6.45983e-05
6.45917e-05
6.45604e-05
6.42754e-05
6.42754e-05
6.45048e-05
6.45048e-05
6.47943e-05
6.48436e-05
6.48542e-05
6.48571e-05
6.4857e-05
6.4854e-05
6.48431e-05
6.47963e-05
6.44503e-05
6.44503e-05
6.50023e-05
6.50023e-05
6.63919e-05
6.66774e-05
6.66562e-05
6.6637e-05
6.66358e-05
6.66516e-05
6.66746e-05
6.64313e-05
6.49665e-05
6.49665e-05
6.81082e-05
6.81082e-05
8.1562e-05
8.38251e-05
8.32815e-05
8.30078e-05
8.29937e-05
8.32372e-05
8.37973e-05
8.19224e-05
6.8286e-05
6.8286e-05
8.78678e-05
8.78678e-05
0.000140157
0.000146749
0.000145175
0.000144409
0.000144371
0.000145052
0.000146682
0.000141119
8.89858e-05
8.89858e-05
0.000137965
0.000137965
0.000234682
0.000246135
0.000245282
0.000244589
0.000244541
0.000245133
0.000246082
0.000235957
0.000140006
0.000140006
0.000206428
0.000206428
0.000352473
0.000370181
0.000371224
0.000371013
0.000370965
0.000371087
0.000370173
0.000353938
0.000208823
0.000208823
6.48858e-05
6.48541e-05
6.53044e-05
6.52943e-05
6.83857e-05
6.85533e-05
9.28734e-05
9.38828e-05
0.000240018
0.000242818
6.48045e-05
6.47762e-05
6.49508e-05
6.49259e-05
6.54444e-05
6.54466e-05
8.15363e-05
8.21588e-05
0.000243651
0.000246454
6.47426e-05
6.47149e-05
6.48683e-05
6.48421e-05
6.51412e-05
6.51325e-05
8.00909e-05
8.06644e-05
0.000251234
0.000254209
6.47061e-05
6.46786e-05
6.48312e-05
6.48052e-05
6.50403e-05
6.50294e-05
8.22163e-05
8.29048e-05
0.000254498
0.000257534
6.46991e-05
6.4672e-05
6.48339e-05
6.48081e-05
6.50959e-05
6.50869e-05
9.03122e-05
9.11967e-05
0.000255538
0.00025857
6.47157e-05
6.46894e-05
6.48572e-05
6.48316e-05
6.53056e-05
6.53032e-05
9.68606e-05
9.77109e-05
0.000254147
0.000256987
6.47582e-05
6.47326e-05
6.48732e-05
6.48473e-05
6.55648e-05
6.55602e-05
9.04747e-05
9.08861e-05
0.00024448
0.000246786
6.48067e-05
6.47792e-05
6.48374e-05
6.48093e-05
6.57953e-05
6.57869e-05
8.02474e-05
8.06153e-05
0.000214163
0.000215677
6.46483e-05
6.46483e-05
6.50932e-05
6.51508e-05
6.51634e-05
6.51683e-05
6.51687e-05
6.5164e-05
6.51532e-05
6.50991e-05
6.45956e-05
6.45956e-05
6.44824e-05
6.44824e-05
6.5223e-05
6.53169e-05
6.53314e-05
6.53355e-05
6.53359e-05
6.53327e-05
6.53204e-05
6.52315e-05
6.44291e-05
6.44291e-05
6.58115e-05
6.58115e-05
6.69233e-05
6.70733e-05
6.71116e-05
6.71242e-05
6.71243e-05
6.71134e-05
6.70769e-05
6.69382e-05
6.57704e-05
6.57704e-05
7.094e-05
7.094e-05
7.96873e-05
8.11389e-05
8.13599e-05
8.14179e-05
8.14175e-05
8.13641e-05
8.11675e-05
7.98309e-05
7.10489e-05
7.10489e-05
0.000145701
0.000145701
0.000191122
0.000194212
0.000195034
0.000195287
0.000195295
0.000195072
0.000194325
0.000191515
0.00014633
0.00014633
)
;
    }
    lid
    {
        type            nutkWallFunction;
        Cmu             0.09;
        kappa           0.41;
        E               9.8;
        value           nonuniform List<scalar> 
100
(
0.000206428
0.000352473
0.000370181
0.000371224
0.000371013
0.000370965
0.000371087
0.000370173
0.000353938
0.000208823
0.000240018
0.000444142
0.000461176
0.000462057
0.000461882
0.000461849
0.000461972
0.000461267
0.00044565
0.000242818
0.000243651
0.00045008
0.000463189
0.000463482
0.00046326
0.000463247
0.000463461
0.000463387
0.00045162
0.000246454
0.000251234
0.00046255
0.000475191
0.000475959
0.000475938
0.000475936
0.000475979
0.000475462
0.000464161
0.000254209
0.000254498
0.000465643
0.000478043
0.000478955
0.000478999
0.000479001
0.000478992
0.000478342
0.000467265
0.000257534
0.000255538
0.000461647
0.000473491
0.000474401
0.000474469
0.000474474
0.000474451
0.000473805
0.000463219
0.00025857
0.000254147
0.000447301
0.000457821
0.000458948
0.000459176
0.000459186
0.000459024
0.000458138
0.000448687
0.000256987
0.00024448
0.000412638
0.000421238
0.000422407
0.00042276
0.000422774
0.000422492
0.000421524
0.000413737
0.000246786
0.000214163
0.000346511
0.00035303
0.000354063
0.000354408
0.000354421
0.000354132
0.000353249
0.000347307
0.000215677
0.000145701
0.000191122
0.000194212
0.000195034
0.000195287
0.000195295
0.000195072
0.000194325
0.000191515
0.00014633
)
;
    }
}


// ************************************************************************* //
