/*--------------------------------*- C++ -*----------------------------------*\
| =========                 |                                                 |
| \\      /  F ield         | OpenFOAM: The Open Source CFD Toolbox           |
|  \\    /   O peration     | Version:  2.3.1                                 |
|   \\  /    A nd           | Web:      www.OpenFOAM.org                      |
|    \\/     M anipulation  |                                                 |
\*---------------------------------------------------------------------------*/
FoamFile
{
    version     2.0;
    format      ascii;
    class       volScalarField;
    location    "0.94";
    object      p;
}
// * * * * * * * * * * * * * * * * * * * * * * * * * * * * * * * * * * * * * //

dimensions      [0 2 -2 0 0 0 0];

internalField   nonuniform List<scalar> 
1000
(
-0.00155356
-0.00146402
-0.00147625
-0.00148424
-0.00148089
-0.00148168
-0.00146625
-0.00144879
-0.00141347
-0.00139681
-0.00242012
-0.00239677
-0.00242151
-0.0024374
-0.0024508
-0.00244622
-0.00243435
-0.00240269
-0.00237473
-0.00237068
-0.00449896
-0.00450081
-0.00454174
-0.00458967
-0.00461122
-0.00461681
-0.00458186
-0.00453807
-0.00449284
-0.00448876
-0.0069823
-0.00699684
-0.00702417
-0.00705654
-0.00708286
-0.00707562
-0.00705181
-0.00701704
-0.00700227
-0.00699917
-0.0143228
-0.0144539
-0.0146166
-0.0147674
-0.0148488
-0.0148473
-0.014774
-0.0146412
-0.0144942
-0.0143851
-0.000514609
-0.000519564
-0.000539997
-0.000552849
-0.00055879
-0.000554598
-0.000547606
-0.000522863
-0.00049001
-0.000459019
-0.00141231
-0.00141694
-0.00144208
-0.00146935
-0.00147793
-0.00148202
-0.00146345
-0.00143679
-0.00140102
-0.00138677
-0.00337264
-0.00340517
-0.00345519
-0.00349598
-0.00352772
-0.00352231
-0.00349837
-0.00344731
-0.00340598
-0.00337985
-0.00586045
-0.00593133
-0.00597685
-0.00602597
-0.00604796
-0.00605156
-0.00601731
-0.00598132
-0.00594089
-0.00588168
-0.0126045
-0.0127621
-0.0129323
-0.0130921
-0.0131846
-0.013181
-0.0131109
-0.0129635
-0.0128074
-0.0126777
0.0013846
0.00137428
0.00135587
0.00133731
0.00133216
0.00133012
0.00133976
0.0013589
0.00139421
0.00142157
0.000605497
0.000586085
0.000558068
0.000535204
0.000518528
0.000521362
0.000530746
0.000563055
0.000592324
0.000614399
-0.00110235
-0.00114225
-0.00118993
-0.00123847
-0.00125735
-0.00126468
-0.00123105
-0.00119345
-0.00114449
-0.00111135
-0.00338856
-0.00348999
-0.00355732
-0.00360551
-0.0036468
-0.00363563
-0.00361396
-0.00355703
-0.00350545
-0.00342047
-0.00900316
-0.00918025
-0.00935952
-0.00953996
-0.00962832
-0.00964236
-0.00955718
-0.00939786
-0.00922341
-0.00907165
0.00408634
0.0040724
0.00406042
0.00404603
0.00404085
0.00403979
0.00404318
0.00406194
0.00408601
0.0041062
0.00348199
0.00347178
0.00345108
0.00342896
0.00342057
0.00341604
0.00343099
0.00345027
0.00347769
0.00348826
0.0021999
0.00215662
0.00211034
0.00207937
0.00205259
0.00206116
0.00207704
0.00211931
0.00215168
0.00218741
0.00032901
0.000250585
0.000188326
0.000123325
0.000102103
9.38899e-05
0.000133542
0.000176291
0.000244686
0.000317313
-0.00372658
-0.00391429
-0.00409914
-0.00425292
-0.00435168
-0.00434869
-0.00428503
-0.00412254
-0.00395529
-0.00378707
0.00739789
0.00739685
0.00739109
0.0073876
0.0073844
0.00738369
0.00738605
0.00739232
0.00740336
0.00740776
0.00705365
0.00704321
0.00703316
0.00702567
0.0070203
0.00702231
0.00702592
0.00704124
0.00704849
0.00705615
0.00629103
0.00627419
0.00624867
0.00622472
0.00621891
0.00621582
0.00623815
0.00625336
0.00628203
0.0062987
0.00514162
0.00507241
0.0050129
0.00497719
0.00494615
0.00495955
0.0049716
0.0050231
0.0050685
0.00513623
0.00273869
0.00257634
0.00242309
0.00229313
0.00224784
0.00223365
0.00229431
0.00239572
0.00255354
0.00271282
0.0110781
0.0110812
0.0110946
0.0111028
0.0111102
0.0111109
0.0111038
0.0110994
0.0110876
0.0110765
0.0110287
0.0110425
0.0110517
0.0110628
0.0110711
0.0110714
0.0110721
0.0110621
0.0110565
0.0110411
0.0109328
0.0109326
0.0109377
0.0109484
0.0109524
0.0109605
0.0109534
0.0109606
0.0109468
0.0109507
0.0106484
0.0106432
0.0106257
0.0106106
0.0106168
0.0106067
0.010628
0.0106246
0.0106568
0.010675
0.0100146
0.00986641
0.00974347
0.00970893
0.00967159
0.00968767
0.00969323
0.0097505
0.00985505
0.00999674
0.0147691
0.0148066
0.0148366
0.014869
0.0148868
0.0148869
0.0148777
0.0148469
0.0148168
0.0147766
0.0150944
0.0151216
0.015165
0.0152056
0.0152284
0.015235
0.0152132
0.0151907
0.0151427
0.0151129
0.0156952
0.0157633
0.0158209
0.0158699
0.0159045
0.0158994
0.0158902
0.0158353
0.0157948
0.0157356
0.0165084
0.0165703
0.0166311
0.0167007
0.0167254
0.01674
0.0166982
0.0166547
0.0165811
0.0165319
0.0174507
0.0175258
0.0175902
0.0176625
0.0177191
0.017711
0.0176889
0.0175891
0.0175548
0.0174875
0.0181305
0.0181751
0.0182359
0.0182937
0.0183227
0.0183316
0.0183016
0.0182632
0.0181928
0.0181413
0.0187954
0.0188784
0.0189588
0.0190306
0.0190767
0.0190741
0.0190543
0.0189836
0.0189142
0.0188368
0.020209
0.0203115
0.0204355
0.0205474
0.0205978
0.0206144
0.0205493
0.0204711
0.020336
0.0202407
0.0221528
0.0223799
0.0225591
0.0227096
0.022805
0.0227959
0.0227411
0.022556
0.0224142
0.0222003
0.0248501
0.0251392
0.0254008
0.0256599
0.0257783
0.0258073
0.0256629
0.0254471
0.0251806
0.0248903
0.0207079
0.0207915
0.020879
0.0209558
0.0210061
0.0210051
0.0209831
0.0209074
0.0208275
0.0207523
0.0217464
0.021834
0.0219548
0.0220645
0.0221174
0.0221328
0.0220778
0.0219972
0.0218703
0.0217896
0.0238358
0.0240443
0.0242369
0.0243924
0.0244932
0.0244825
0.0244285
0.0242452
0.0240846
0.0238946
0.0270941
0.0274353
0.0277474
0.028029
0.0281529
0.0281907
0.0280197
0.0277863
0.0274557
0.0271155
0.0314463
0.0321718
0.032711
0.0331483
0.0333928
0.0333756
0.033198
0.032736
0.0322729
0.0315428
0.0221487
0.0222246
0.0223296
0.0224261
0.022477
0.02249
0.022447
0.0223698
0.0222648
0.0222028
0.0233996
0.0235266
0.0236773
0.0238015
0.0238789
0.0238803
0.0238332
0.023705
0.0235709
0.0234618
0.0261359
0.0263937
0.0266479
0.0268666
0.0269677
0.0269931
0.0268718
0.0266786
0.0264195
0.0261706
0.0305058
0.031198
0.0316928
0.0320557
0.0322633
0.0322453
0.0320955
0.0317
0.0312695
0.0305826
0.0372319
0.0388804
0.0398389
0.0405088
0.0407719
0.0408158
0.0404895
0.0399388
0.0389841
0.0373001
0.046489
0.050557
0.0522799
0.0532918
0.0537287
0.0536735
0.0533777
0.0523223
0.0507487
0.0466988
0.059656
0.0664984
0.0691625
0.0707912
0.0713301
0.0713812
0.0707997
0.069284
0.0666149
0.059775
0.0750325
0.0931498
0.0993481
0.102066
0.102911
0.102919
0.102134
0.0994209
0.0934343
0.0754757
0.110707
0.148986
0.1628
0.165765
0.166538
0.166538
0.165782
0.162974
0.149614
0.111512
0.015641
0.00516872
0.00538327
0.00572776
0.0059943
0.00598095
0.00570583
0.00545294
0.00518277
0.0156106
0.0356843
0.036908
0.0376978
0.0383876
0.0386921
0.0386985
0.0384189
0.0377768
0.0370041
0.0357796
0.0416331
0.0422437
0.0430632
0.0440628
0.044517
0.0445242
0.0441284
0.0431251
0.0422898
0.0417324
0.0351956
0.0291324
0.0283071
0.029372
0.0299155
0.0299461
0.0294313
0.0283474
0.0290062
0.0351663
0.015563
0.00134491
-0.00181263
-0.0022698
-0.00226162
-0.00224047
-0.00222942
-0.00177723
0.00106539
0.015267
0.00486226
-0.00852827
-0.0127441
-0.0140469
-0.0143219
-0.0143287
-0.0140611
-0.0127664
-0.00869188
0.00463441
0.026505
0.0270692
0.027431
0.0277498
0.0279186
0.0279088
0.0277845
0.027466
0.0271341
0.0265799
0.0304207
0.0309467
0.0313285
0.0317699
0.031945
0.0319655
0.031792
0.0313842
0.0309864
0.030466
0.0271397
0.0271352
0.0272947
0.0275997
0.0277411
0.0277453
0.0276195
0.027304
0.0271277
0.0271519
0.0312046
0.0307297
0.030633
0.0308457
0.0309215
0.0309303
0.0308637
0.0306651
0.0307574
0.0312744
0.0165018
0.0127359
0.011425
0.0110209
0.0109423
0.0109393
0.0110232
0.0114114
0.012699
0.0164553
0.0175407
0.0176117
0.0176407
0.0177529
0.0177729
0.0177998
0.0177419
0.0176648
0.0176317
0.0175405
0.0184839
0.0184094
0.0183603
0.0184381
0.0185037
0.0184946
0.0184633
0.018361
0.0184215
0.0185039
0.0159691
0.0157615
0.0155689
0.0156059
0.0156239
0.0156191
0.0155907
0.0155651
0.0157368
0.0159172
0.018226
0.0163692
0.015677
0.0158229
0.0159262
0.0159241
0.0158446
0.0156834
0.0163458
0.0182755
0.013887
0.0129592
0.012729
0.0127762
0.0128037
0.0128132
0.012776
0.0127033
0.0129554
0.0138795
0.00910753
0.00881521
0.00857663
0.00849321
0.00846516
0.0084621
0.00848318
0.00855333
0.00878053
0.00906831
0.0064657
0.00548068
0.00503249
0.00487034
0.00477552
0.00476643
0.00484562
0.00499494
0.00543155
0.00638029
0.00543337
0.00524977
0.00473977
0.00449062
0.00444206
0.00444275
0.00448822
0.00472412
0.00515295
0.0053919
0.00302935
-0.0027433
-0.00446637
-0.00503745
-0.00517455
-0.00517104
-0.00505196
-0.00451137
-0.00286356
0.00288577
0.00509003
0.00480411
0.00465999
0.004453
0.0042844
0.00427556
0.00439064
0.00458597
0.00484335
0.0051838
0.00123828
0.000916209
0.00067091
0.000514897
0.00043523
0.000428323
0.00047853
0.000646579
0.000867829
0.00115467
-0.00532897
-0.00662779
-0.00738586
-0.00786561
-0.00804692
-0.00806645
-0.00788667
-0.00741734
-0.00673472
-0.00547211
-0.00406421
-0.00517996
-0.00575285
-0.00611611
-0.00623481
-0.00624441
-0.00610818
-0.0057948
-0.00527153
-0.00420561
-0.0171124
-0.0280375
-0.0313862
-0.0327114
-0.033163
-0.0331604
-0.0327749
-0.0314614
-0.0283374
-0.0173311
-0.00402726
-0.00350088
-0.00333258
-0.0039461
-0.00447567
-0.00454637
-0.00410069
-0.00343323
-0.00337689
-0.0040614
-0.00532971
-0.00564838
-0.00587341
-0.00607272
-0.00616232
-0.00618229
-0.00609629
-0.00589663
-0.0057086
-0.00541924
-0.0168298
-0.0183355
-0.0192024
-0.0198281
-0.0200295
-0.0200306
-0.0198129
-0.0192264
-0.018447
-0.017006
-0.0121555
-0.0133961
-0.0138868
-0.0142449
-0.0141555
-0.0141233
-0.0141966
-0.0138797
-0.0135311
-0.0122051
-0.0430909
-0.0541116
-0.057471
-0.0598385
-0.0606461
-0.0606909
-0.0599094
-0.0576764
-0.0543316
-0.0435831
-0.0101503
-0.0101025
-0.00987526
-0.00983017
-0.0101725
-0.010218
-0.00999522
-0.00983347
-0.0100449
-0.0102464
-0.0101954
-0.0104816
-0.0106403
-0.010819
-0.0109061
-0.0109162
-0.0108338
-0.0106604
-0.0105384
-0.0102886
-0.0268237
-0.0281629
-0.0289879
-0.0296678
-0.0299561
-0.0299535
-0.0296412
-0.0289872
-0.0283035
-0.0269364
-0.0173657
-0.0180213
-0.0181378
-0.0183266
-0.0183561
-0.0183321
-0.0182386
-0.0181579
-0.0180227
-0.0172687
-0.0700022
-0.0788054
-0.0818406
-0.0842642
-0.0851628
-0.0851704
-0.0843797
-0.0819384
-0.0790421
-0.0702718
-0.00673
-0.00260915
-0.00021741
0.000778173
0.00113219
0.00108599
0.000736031
-0.00018639
-0.00235564
-0.00691072
-0.0131565
-0.0133449
-0.0134127
-0.0135335
-0.013593
-0.0135973
-0.0135506
-0.0134345
-0.0133901
-0.0132221
-0.0334956
-0.0345977
-0.0353155
-0.0359603
-0.0362689
-0.0362791
-0.0359705
-0.0353391
-0.0346988
-0.033599
-0.0194569
-0.0190849
-0.018608
-0.0185624
-0.0185487
-0.0185451
-0.0185235
-0.0185887
-0.0191043
-0.0194216
-0.0863738
-0.0956205
-0.0986042
-0.101071
-0.102027
-0.102034
-0.101138
-0.0987228
-0.0957193
-0.0865792
0.00594459
0.0206237
0.0255183
0.0275626
0.0281497
0.0281498
0.0275788
0.0256535
0.0210371
0.00640788
-0.0143455
-0.0143398
-0.0143166
-0.0143766
-0.014407
-0.0144137
-0.0143942
-0.0143392
-0.0143658
-0.0143806
-0.0361415
-0.0371082
-0.0377564
-0.0383491
-0.0386479
-0.0386707
-0.0383888
-0.0378021
-0.0371774
-0.0362088
-0.0197728
-0.0187758
-0.0180971
-0.0179181
-0.0178869
-0.0178945
-0.0179165
-0.0180885
-0.0187539
-0.0197177
-0.094138
-0.103534
-0.106695
-0.109144
-0.110128
-0.11014
-0.109191
-0.106792
-0.103637
-0.094295
0.0151343
0.0341329
0.0388961
0.0410744
0.041641
0.0416712
0.0411354
0.0390382
0.0345077
0.0156088
)
;

boundaryField
{
    walls
    {
        type            zeroGradient;
    }
    lid
    {
        type            zeroGradient;
    }
}


// ************************************************************************* //
