/*--------------------------------*- C++ -*----------------------------------*\
| =========                 |                                                 |
| \\      /  F ield         | OpenFOAM: The Open Source CFD Toolbox           |
|  \\    /   O peration     | Version:  2.3.1                                 |
|   \\  /    A nd           | Web:      www.OpenFOAM.org                      |
|    \\/     M anipulation  |                                                 |
\*---------------------------------------------------------------------------*/
FoamFile
{
    version     2.0;
    format      ascii;
    class       surfaceScalarField;
    location    "0.94";
    object      phi;
}
// * * * * * * * * * * * * * * * * * * * * * * * * * * * * * * * * * * * * * //

dimensions      [0 3 -1 0 0 0 0];

internalField   nonuniform List<scalar> 
2700
(
2.34381e-06
5.51945e-05
-5.30484e-05
2.15904e-06
5.44551e-05
-5.42856e-05
1.35779e-06
5.48682e-05
-5.4057e-05
8.57718e-07
5.49498e-05
-5.44715e-05
2.10516e-07
5.51927e-05
-5.45203e-05
-3.75785e-07
5.51605e-05
-5.45836e-05
-7.5242e-07
5.49522e-05
-5.45557e-05
-8.18499e-07
5.45789e-05
-5.45402e-05
-4.87099e-07
5.42183e-05
-5.45314e-05
5.39696e-05
-5.44378e-05
7.93774e-07
0.00011412
-5.96866e-05
1.38304e-06
0.000114459
-6.05759e-05
1.42322e-06
0.000115506
-6.06781e-05
9.35451e-07
0.000116312
-6.08408e-05
1.75943e-07
0.000116858
-6.09137e-05
-5.62798e-07
0.000116874
-6.09358e-05
-1.06753e-06
0.000116352
-6.09115e-05
-1.0361e-06
0.000115438
-6.08646e-05
-4.74853e-07
0.000114428
-6.07638e-05
0.000113275
-5.97461e-05
1.55847e-06
0.000182923
-7.03642e-05
2.39392e-06
0.000185565
-7.19114e-05
2.33027e-06
0.000187718
-7.21046e-05
1.43555e-06
0.000189498
-7.22988e-05
1.96337e-07
0.000190524
-7.23895e-05
-1.06953e-06
0.000190538
-7.24287e-05
-1.93035e-06
0.000189604
-7.23562e-05
-1.99099e-06
0.000187797
-7.2282e-05
-1.16063e-06
0.000185763
-7.21051e-05
0.000182971
-7.08292e-05
2.09956e-06
0.000267438
-8.65444e-05
3.26845e-06
0.000271932
-8.74978e-05
3.23164e-06
0.000275165
-8.73999e-05
1.99921e-06
0.000278167
-8.73944e-05
1.90295e-07
0.00027977
-8.74518e-05
-1.60776e-06
0.00027983
-8.74594e-05
-2.87628e-06
0.000278352
-8.74514e-05
-2.96079e-06
0.000275435
-8.74876e-05
-1.89724e-06
0.000272344
-8.75991e-05
0.000267821
-8.66974e-05
8.69633e-06
-0.000127362
0.000386196
1.04022e-05
-0.000130083
0.000400365
8.86342e-06
-0.000130874
0.000407627
5.01794e-06
-0.000131407
0.000413477
3.17797e-07
-0.000131728
0.000416273
-4.37086e-06
-0.000131761
0.000416372
-8.21915e-06
-0.000131482
0.000413787
-9.8253e-06
-0.000131019
0.000408113
-8.276e-06
-0.000130283
0.000401152
-0.000127596
0.000387199
7.54559e-07
4.88169e-05
-0.000102584
1.02518e-06
5.0104e-05
-0.000104649
1.01513e-06
5.07281e-05
-0.000104771
6.70179e-07
5.10257e-05
-0.000105128
1.46523e-07
5.12513e-05
-0.000105242
-3.73016e-07
5.12564e-05
-0.000105279
-7.65038e-07
5.10365e-05
-0.000105206
-9.04803e-07
5.06733e-05
-0.000105059
-7.26535e-07
5.02003e-05
-0.000104898
4.89605e-05
-0.000104078
7.86295e-07
0.000102046
-0.000113713
1.29091e-06
0.000104042
-0.000114991
1.32109e-06
0.000105272
-0.00011521
8.42181e-07
0.000106166
-0.000115507
1.58695e-07
0.000106719
-0.000115648
-5.59169e-07
0.000106721
-0.000115693
-1.05607e-06
0.000106233
-0.000115578
-1.16601e-06
0.000105313
-0.000115402
-7.7999e-07
0.00010424
-0.000115146
0.000102354
-0.000113904
1.73201e-06
0.000163621
-0.000133618
2.36075e-06
0.000166681
-0.00013516
2.20427e-06
0.00016887
-0.000135561
1.35864e-06
0.000170698
-0.000135944
1.63233e-07
0.000171677
-0.000136192
-1.01873e-06
0.00017172
-0.000136213
-1.90382e-06
0.00017079
-0.000136054
-2.11244e-06
0.000169028
-0.000135739
-1.54375e-06
0.000166954
-0.000135377
0.000163959
-0.000133948
3.21497e-06
0.000237069
-0.000163205
3.7958e-06
0.000243583
-0.000164978
3.38106e-06
0.000247232
-0.000165324
2.00003e-06
0.000250395
-0.000165725
1.90985e-07
0.000252051
-0.000165964
-1.65012e-06
0.000252097
-0.000166017
-3.03294e-06
0.000250601
-0.000165806
-3.53255e-06
0.000247534
-0.000165497
-3.03958e-06
0.000244064
-0.000165169
0.000237649
-0.000163412
8.53828e-06
-0.000229064
0.000330348
9.99091e-06
-0.000231727
0.000343825
8.3951e-06
-0.000233153
0.000351168
4.72835e-06
-0.000234434
0.000357196
2.91322e-07
-0.000235194
0.000360018
-4.11381e-06
-0.000235234
0.000360115
-7.80588e-06
-0.000234606
0.000357486
-9.45943e-06
-0.000233425
0.000351654
-8.15341e-06
-0.000232099
0.000344652
-0.000229511
0.000331466
1.11177e-06
3.95615e-05
-0.000143263
1.1303e-06
4.03973e-05
-0.000145038
9.29559e-07
4.08464e-05
-0.000145389
5.5699e-07
4.10989e-05
-0.000145842
1.26348e-07
4.12875e-05
-0.000146059
-3.10774e-07
4.128e-05
-0.000146107
-6.34522e-07
4.11046e-05
-0.000145958
-7.92298e-07
4.07754e-05
-0.000145684
-6.85844e-07
4.03618e-05
-0.000145324
3.92072e-05
-0.000143936
9.74042e-07
8.1687e-05
-0.000156774
1.23993e-06
8.3381e-05
-0.000158224
1.14447e-06
8.44093e-05
-0.000158681
7.16954e-07
8.52003e-05
-0.000159148
1.23679e-07
8.56413e-05
-0.000159426
-4.55848e-07
8.56639e-05
-0.000159461
-9.02202e-07
8.52205e-05
-0.000159278
-1.03051e-06
8.4438e-05
-0.000158907
-7.84631e-07
8.34524e-05
-0.000158482
8.16468e-05
-0.00015711
1.67576e-06
0.000129462
-0.000183106
2.10861e-06
0.000132496
-0.000184717
1.89716e-06
0.000134491
-0.000185416
1.12957e-06
0.000136081
-0.000186106
1.46121e-07
0.000136959
-0.000186491
-8.75066e-07
0.000136963
-0.000186557
-1.62133e-06
0.000136181
-0.000186231
-1.89366e-06
0.000134602
-0.000185669
-1.49336e-06
0.000132701
-0.000185007
0.00012966
-0.000183474
3.18937e-06
0.000185877
-0.000222744
3.58786e-06
0.000192137
-0.000225039
3.04393e-06
0.000195654
-0.000226006
1.78266e-06
0.000198565
-0.000226896
1.40728e-07
0.000200025
-0.000227454
-1.45912e-06
0.000200099
-0.000227484
-2.77075e-06
0.00019872
-0.000227067
-3.33792e-06
0.000195933
-0.000226237
-3.02027e-06
0.000192547
-0.000225362
0.000186358
-0.000223117
7.75101e-06
-0.000298663
0.000247727
8.73896e-06
-0.000302121
0.000261597
7.19574e-06
-0.00030448
0.000268643
3.98628e-06
-0.000306663
0.000274043
2.5278e-07
-0.000307858
0.000276545
-3.50318e-06
-0.000307957
0.000276613
-6.70102e-06
-0.000306891
0.000274282
-8.29934e-06
-0.000304893
0.000269047
-7.4319e-06
-0.000302657
0.000262349
-0.000299313
0.000248732
5.67057e-07
2.64263e-05
-0.000170226
5.97599e-07
2.70687e-05
-0.000172133
5.31259e-07
2.7377e-05
-0.000172682
3.25963e-07
2.75833e-05
-0.000173207
7.71377e-08
2.77082e-05
-0.000173503
-1.70199e-07
2.77135e-05
-0.000173547
-3.7647e-07
2.75779e-05
-0.00017334
-4.77642e-07
2.73615e-05
-0.000172932
-4.35511e-07
2.70723e-05
-0.000172423
2.6368e-05
-0.000170707
5.50431e-07
5.47814e-05
-0.000185721
7.47643e-07
5.60038e-05
-0.000187356
7.07661e-07
5.67498e-05
-0.000188008
4.36916e-07
5.73129e-05
-0.000188635
8.738e-08
5.76435e-05
-0.000189002
-2.83513e-07
5.76352e-05
-0.000189058
-5.48186e-07
5.73405e-05
-0.00018877
-6.40011e-07
5.67631e-05
-0.000188257
-4.61257e-07
5.60695e-05
-0.000187645
5.48378e-05
-0.000186074
1.0769e-06
8.65594e-05
-0.00021592
1.39207e-06
8.8755e-05
-0.000217813
1.23429e-06
9.02385e-05
-0.000218817
7.49942e-07
9.14397e-05
-0.00021974
7.8685e-08
9.20461e-05
-0.000220307
-5.61191e-07
9.20831e-05
-0.000220347
-1.08228e-06
9.14785e-05
-0.000219918
-1.24404e-06
9.03483e-05
-0.000219075
-9.76277e-07
8.88931e-05
-0.000218161
8.67098e-05
-0.000216329
2.23547e-06
0.000123319
-0.000261814
2.5805e-06
0.000127966
-0.000264628
2.18484e-06
0.00013082
-0.000266164
1.23416e-06
0.000133022
-0.00026759
1.1029e-07
0.000134169
-0.000268381
-1.05604e-06
0.000134187
-0.00026847
-1.97129e-06
0.000133169
-0.000267761
-2.43155e-06
0.000131003
-0.000266494
-2.13071e-06
0.000128284
-0.000265026
0.000123705
-0.000262263
5.58517e-06
-0.000338165
0.000157321
6.27292e-06
-0.000342861
0.000168115
5.06449e-06
-0.000346133
0.000173755
2.79591e-06
-0.000348995
0.000177787
1.51943e-07
-0.000350622
0.000179596
-2.44338e-06
-0.000350701
0.000179667
-4.76009e-06
-0.00034932
0.000177936
-5.96222e-06
-0.000346602
0.000174044
-5.37415e-06
-0.00034352
0.000168662
-0.000338956
0.00015801
1.27017e-07
1.16239e-05
-0.000182008
8.99902e-08
1.18782e-05
-0.00018396
5.68799e-08
1.19979e-05
-0.000184652
3.82025e-08
1.20741e-05
-0.000185258
3.2379e-08
1.21221e-05
-0.000185621
2.63801e-08
1.2116e-05
-0.000185668
9.2659e-09
1.20684e-05
-0.000185391
-3.76177e-08
1.19735e-05
-0.000184883
-6.47466e-08
1.18623e-05
-0.000184248
1.15849e-05
-0.000182367
1.25538e-07
2.44252e-05
-0.000198637
1.36824e-07
2.49176e-05
-0.000200445
1.19351e-07
2.52472e-05
-0.00020128
7.86644e-08
2.55012e-05
-0.000202044
3.04073e-08
2.56278e-05
-0.00020251
-9.5798e-09
2.56353e-05
-0.000202555
-6.31241e-08
2.54857e-05
-0.000202201
-8.24886e-08
2.52491e-05
-0.00020152
-7.91068e-08
2.49172e-05
-0.000200759
2.44103e-05
-0.000198998
3.40388e-07
3.92771e-05
-0.000231204
4.18099e-07
4.03437e-05
-0.000233341
3.55642e-07
4.11187e-05
-0.000234638
1.97229e-07
4.16889e-05
-0.000235832
3.8723e-08
4.20066e-05
-0.00023652
-1.49535e-07
4.1991e-05
-0.000236593
-2.79522e-07
4.17266e-05
-0.000235993
-3.70908e-07
4.1137e-05
-0.000234939
-3.01462e-07
4.04042e-05
-0.000233707
3.93449e-05
-0.000231618
9.51344e-07
5.71085e-05
-0.00028053
1.05021e-06
5.95371e-05
-0.000283917
8.15339e-07
6.12032e-05
-0.000286051
4.60668e-07
6.2442e-05
-0.000287918
2.04615e-08
6.30152e-05
-0.000289009
-3.65797e-07
6.30583e-05
-0.000289052
-7.6299e-07
6.2473e-05
-0.000288157
-9.72144e-07
6.13194e-05
-0.000286382
-9.1029e-07
5.96871e-05
-0.000284393
5.72843e-05
-0.000281073
2.75296e-06
-0.000355511
7.16892e-05
2.98553e-06
-0.000361163
7.76899e-05
2.29999e-06
-0.000365169
8.10878e-05
1.1886e-06
-0.000368675
8.32477e-05
7.54871e-08
-0.000370548
8.42334e-05
-1.08568e-06
-0.000370681
8.42405e-05
-2.1434e-06
-0.00036897
8.33499e-05
-2.86336e-06
-0.000365718
8.12096e-05
-2.67169e-06
-0.000361878
7.79659e-05
-0.000356329
7.20438e-05
-3.71139e-07
-4.31861e-06
-0.000177286
-5.54097e-07
-4.552e-06
-0.000179262
-5.14571e-07
-4.66451e-06
-0.000180037
-3.14908e-07
-4.76976e-06
-0.000180715
-1.43971e-08
-4.83149e-06
-0.000181117
2.93655e-07
-4.8343e-06
-0.000181157
4.936e-07
-4.79629e-06
-0.00018085
5.42958e-07
-4.69805e-06
-0.000180247
3.85109e-07
-4.59938e-06
-0.000179534
-4.38599e-06
-0.000177609
-4.33127e-07
-8.16113e-06
-0.000194446
-6.35527e-07
-8.46656e-06
-0.000196345
-6.06159e-07
-8.66545e-06
-0.000197345
-3.69918e-07
-8.85482e-06
-0.00019824
-1.44067e-08
-8.95536e-06
-0.000198766
3.30562e-07
-8.97517e-06
-0.000198823
5.83684e-07
-8.87489e-06
-0.000198378
6.13096e-07
-8.72658e-06
-0.000197593
4.31493e-07
-8.52534e-06
-0.000196649
-8.23474e-06
-0.000194784
-5.69298e-07
-1.06312e-05
-0.000228118
-8.26104e-07
-1.09732e-05
-0.000230602
-7.85136e-07
-1.11577e-05
-0.000232215
-4.68312e-07
-1.13474e-05
-0.000233636
-3.39749e-08
-1.14789e-05
-0.000234467
4.28846e-07
-1.1467e-05
-0.000234507
7.22457e-07
-1.13964e-05
-0.000233829
8.04692e-07
-1.11824e-05
-0.000232485
5.50565e-07
-1.10408e-05
-0.000230994
-1.07161e-05
-0.000228557
-7.75237e-07
-1.03354e-05
-0.000280144
-1.04065e-06
-1.03627e-05
-0.000284205
-9.70932e-07
-1.01807e-05
-0.000286995
-6.02208e-07
-1.02342e-05
-0.000289415
-2.14684e-08
-1.02424e-05
-0.000290717
5.01032e-07
-1.02793e-05
-0.000290821
9.31309e-07
-1.0226e-05
-0.000289615
9.7478e-07
-1.02299e-05
-0.000287392
7.35919e-07
-1.03809e-05
-0.000284702
-1.03363e-05
-0.000280701
-6.0668e-07
-0.000354219
-1.07376e-05
-9.5755e-07
-0.000361325
-9.71666e-06
-1.07117e-06
-0.000366415
-8.79805e-06
-6.48131e-07
-0.000370587
-8.565e-06
-6.94071e-08
-0.000372848
-8.54589e-06
5.90496e-07
-0.000372926
-8.54097e-06
9.69984e-07
-0.000370948
-8.61192e-06
9.21844e-07
-0.000366934
-8.81026e-06
5.77819e-07
-0.000362117
-9.72525e-06
-0.00035513
-1.07624e-05
-9.49033e-07
-2.08598e-05
-0.000155563
-1.26752e-06
-2.16177e-05
-0.000157339
-1.16433e-06
-2.20431e-05
-0.000158147
-7.08211e-07
-2.2385e-05
-0.000158836
-5.38929e-08
-2.25766e-05
-0.000159238
5.90665e-07
-2.25962e-05
-0.000159287
1.07242e-06
-2.24119e-05
-0.000158943
1.19381e-06
-2.21134e-05
-0.000158346
9.16712e-07
-2.17007e-05
-0.000157581
-2.09504e-05
-0.000155828
-1.09914e-06
-4.20498e-05
-0.00017212
-1.57579e-06
-4.34053e-05
-0.000174145
-1.46553e-06
-4.4289e-05
-0.000175256
-8.82665e-07
-4.50234e-05
-0.000176209
-7.15187e-08
-4.54375e-05
-0.000176772
7.62392e-07
-4.54407e-05
-0.000176802
1.33435e-06
-4.50994e-05
-0.000176357
1.49552e-06
-4.43741e-05
-0.000175461
1.05666e-06
-4.35562e-05
-0.000174437
-4.22273e-05
-0.00017245
-1.79787e-06
-6.27621e-05
-0.000205728
-2.38917e-06
-6.47896e-05
-0.000208569
-2.15238e-06
-6.61869e-05
-0.000210488
-1.2816e-06
-6.73913e-05
-0.000212125
-7.4014e-08
-6.80003e-05
-0.000213009
1.08878e-06
-6.80532e-05
-0.000213092
2.013e-06
-6.74475e-05
-0.000212264
2.24711e-06
-6.63406e-05
-0.000210783
1.7219e-06
-6.49668e-05
-0.000208924
-6.2967e-05
-0.000206122
-3.0647e-06
-8.03445e-05
-0.000259319
-3.79063e-06
-8.36021e-05
-0.000264614
-3.30594e-06
-8.54737e-05
-0.00026817
-1.884e-06
-8.70655e-05
-0.000271046
-1.28375e-07
-8.79058e-05
-0.000272606
1.68754e-06
-8.79082e-05
-0.000272646
3.06629e-06
-8.72004e-05
-0.000271307
3.6293e-06
-8.56102e-05
-0.000268509
2.95215e-06
-8.38762e-05
-0.000265168
-8.06442e-05
-0.000259939
-5.04771e-06
-0.000336296
-9.33068e-05
-5.97342e-06
-0.000346174
-9.77857e-05
-5.08243e-06
-0.000352601
-0.000100091
-2.88485e-06
-0.000357682
-0.000102246
-1.39704e-07
-0.000360204
-0.000103207
2.54235e-06
-0.000360343
-0.000103283
4.8205e-06
-0.00035796
-0.000102329
5.67847e-06
-0.000353181
-0.000100319
4.88709e-06
-0.000346985
-9.8098e-05
-0.000337207
-9.36511e-05
-1.50473e-06
-3.71169e-05
-0.000116932
-2.0202e-06
-3.86618e-05
-0.000118256
-1.83556e-06
-3.94792e-05
-0.000118942
-1.10394e-06
-4.01149e-05
-0.000119519
-1.03569e-07
-4.04792e-05
-0.000119877
9.29406e-07
-4.04787e-05
-0.000119892
1.65206e-06
-4.01822e-05
-0.000119627
1.90664e-06
-3.95553e-05
-0.000119077
1.44551e-06
-3.87985e-05
-0.000118458
-3.72754e-05
-0.000117171
-1.96767e-06
-7.61318e-05
-0.0001313
-2.64491e-06
-7.8739e-05
-0.000133402
-2.39743e-06
-8.05128e-05
-0.000134494
-1.43942e-06
-8.19628e-05
-0.000135376
-1.01267e-07
-8.27126e-05
-0.000135859
1.20055e-06
-8.27683e-05
-0.000135916
2.2096e-06
-8.20313e-05
-0.000135463
2.47987e-06
-8.06897e-05
-0.000134682
1.87863e-06
-7.89587e-05
-0.000133628
-7.63791e-05
-0.000131548
-3.36937e-06
-0.000116724
-0.000161585
-4.29572e-06
-0.000121265
-0.000165113
-3.75628e-06
-0.000124323
-0.000167182
-2.16217e-06
-0.000126787
-0.000168777
-1.57381e-07
-0.000128079
-0.000169665
1.9119e-06
-0.000128091
-0.000169674
3.46044e-06
-0.000126965
-0.000168952
4.09682e-06
-0.000124523
-0.000167377
3.24204e-06
-0.000121643
-0.000165457
-0.000117157
-0.000161974
-6.36828e-06
-0.000156132
-0.000213689
-7.36491e-06
-0.000164082
-0.000220729
-6.12568e-06
-0.000168732
-0.000224927
-3.44962e-06
-0.000172494
-0.00022808
-1.70429e-07
-0.000174261
-0.000229607
3.0314e-06
-0.000174361
-0.000229722
5.80506e-06
-0.000172639
-0.000228221
6.99694e-06
-0.000169099
-0.000225308
6.17404e-06
-0.000164604
-0.00022123
-0.00015671
-0.000214239
-1.12858e-05
-0.000293375
-0.000187624
-1.24104e-05
-0.000308995
-0.000200232
-1.00184e-05
-0.000317303
-0.000206599
-5.418e-06
-0.000323108
-0.000211697
-2.83689e-07
-0.000325831
-0.000213983
4.93676e-06
-0.000325856
-0.000213999
9.44614e-06
-0.000323423
-0.000211948
1.19044e-05
-0.000317762
-0.000206953
1.10012e-05
-0.000309921
-0.000200938
-0.000294396
-0.000188468
-1.94447e-06
-5.16625e-05
-6.34935e-05
-2.64092e-06
-5.36705e-05
-6.39802e-05
-2.40275e-06
-5.48954e-05
-6.43818e-05
-1.45906e-06
-5.58654e-05
-6.47315e-05
-1.17899e-07
-5.63683e-05
-6.49269e-05
1.19064e-06
-5.64096e-05
-6.49596e-05
2.19117e-06
-5.59112e-05
-6.47686e-05
2.46349e-06
-5.50219e-05
-6.44713e-05
1.84419e-06
-5.38284e-05
-6.40847e-05
-5.18347e-05
-6.36192e-05
-2.61217e-06
-0.000107508
-7.27934e-05
-3.60017e-06
-0.000111456
-7.47086e-05
-3.25873e-06
-0.000114258
-7.55331e-05
-1.91936e-06
-0.000116476
-7.60982e-05
-1.57754e-07
-0.000117656
-7.64322e-05
1.65059e-06
-0.000117665
-7.64335e-05
2.97126e-06
-0.000116634
-7.61784e-05
3.4024e-06
-0.000114444
-7.5614e-05
2.48839e-06
-0.000111798
-7.486e-05
-0.000107905
-7.29664e-05
-5.02792e-06
-0.000170118
-9.41257e-05
-6.23734e-06
-0.000177661
-9.76447e-05
-5.33041e-06
-0.000182879
-9.93889e-05
-3.06097e-06
-0.000186978
-0.000100585
-1.66342e-07
-0.000188941
-0.000101145
2.64365e-06
-0.000189059
-0.000101213
5.01636e-06
-0.000187124
-0.000100627
5.90011e-06
-0.000183268
-9.95568e-05
4.83866e-06
-0.000178202
-9.78514e-05
-0.000170723
-9.43413e-05
-1.02397e-05
-0.000238696
-0.000134576
-1.14838e-05
-0.00025443
-0.000142785
-9.26873e-06
-0.000263364
-0.000146787
-5.02532e-06
-0.00027005
-0.000149233
-2.90788e-07
-0.000273134
-0.000150392
4.57826e-06
-0.000273146
-0.00015036
8.70239e-06
-0.000270383
-0.000149403
1.10163e-05
-0.000263826
-0.000146972
9.96957e-06
-0.000255406
-0.000143248
-0.000239796
-0.000135082
-2.0536e-05
-0.000208752
-0.000303201
-2.08407e-05
-0.000231408
-0.000331859
-1.57925e-05
-0.000240656
-0.000345225
-8.23778e-06
-0.000245746
-0.000355296
-3.11588e-07
-0.000247614
-0.000359322
7.46312e-06
-0.00024772
-0.000359433
1.50604e-05
-0.000245814
-0.000355593
1.99482e-05
-0.000241069
-0.000345862
2.01045e-05
-0.000232247
-0.000333124
-0.000209608
-0.000304682
-2.00903e-06
-6.15291e-05
-2.91848e-06
-6.31501e-05
-2.71724e-06
-6.46651e-05
-1.63566e-06
-6.5867e-05
-1.496e-07
-6.6513e-05
1.36562e-06
-6.65212e-05
2.45571e-06
-6.59522e-05
2.72869e-06
-6.47758e-05
1.88678e-06
-6.33427e-05
-6.17549e-05
-3.01634e-06
-0.000131411
-4.2063e-06
-0.000136696
-3.80164e-06
-0.000140607
-2.24435e-06
-0.000143578
-1.56853e-07
-0.000145018
1.90015e-06
-0.000145093
3.51799e-06
-0.000143697
3.94579e-06
-0.000140882
2.85918e-06
-0.000137106
-0.000131876
-6.58109e-06
-0.000218826
-7.90773e-06
-0.000233027
-6.59456e-06
-0.000241362
-3.6555e-06
-0.000247069
-2.33977e-07
-0.000249701
3.2663e-06
-0.000249717
6.15394e-06
-0.00024734
7.54046e-06
-0.000241778
6.36029e-06
-0.000233896
-0.000219802
-1.57426e-05
-0.000337898
-1.60454e-05
-0.000375594
-1.20673e-05
-0.000392225
-6.31759e-06
-0.000402298
-2.56097e-07
-0.000406155
5.67033e-06
-0.000406296
1.14685e-05
-0.000402518
1.52877e-05
-0.000392935
1.53835e-05
-0.000377188
-0.000339592
-3.91805e-05
-0.000507359
-3.36942e-05
-0.00061285
-2.20908e-05
-0.00064489
-1.05045e-05
-0.000659809
-4.19914e-07
-0.000664319
9.76547e-06
-0.00066424
2.09392e-05
-0.000660141
3.24457e-05
-0.000645512
3.85799e-05
-0.000615976
-0.000510707
-0.000100553
-0.000767919
0.000360242
-7.36226e-05
-0.00106234
0.000422076
-3.85986e-05
-0.00112332
0.000443043
-1.65299e-05
-0.00113561
0.00045313
-3.76395e-07
-0.00113705
0.000456345
1.53317e-05
-0.00113705
0.000456311
3.70034e-05
-0.00113532
0.000453381
7.10077e-05
-0.00112376
0.000443559
9.92505e-05
-0.0010684
0.000424021
-0.000774396
0.000362439
-0.000213724
-0.00113542
0.000581322
-0.00014357
-0.00182111
0.000688172
-6.16241e-05
-0.00193105
0.000725388
-2.31397e-05
-0.00191779
0.000743445
-5.28062e-07
-0.00190825
0.000747969
2.19276e-05
-0.00190778
0.000748021
5.88747e-05
-0.00191643
0.000743562
0.000139208
-0.00193023
0.000726178
0.000211419
-0.00183209
0.000690827
-0.00114774
0.000584563
-0.00043508
-0.00159525
0.000894187
-0.000236473
-0.00302152
0.00100089
-7.48566e-05
-0.0031664
0.00107262
-2.11734e-05
-0.00308844
0.0011157
-1.97697e-07
-0.0030572
0.00112675
2.02505e-05
-0.00305634
0.00112683
7.15925e-05
-0.00308522
0.00111637
0.000229744
-0.003164
0.00107443
0.000429987
-0.00303742
0.00100401
-0.00161831
0.000899947
-0.000394589
-0.00221399
0.00101199
-0.000158608
-0.00392598
0.000665582
-4.35613e-05
-0.00403818
0.000753554
-8.82186e-06
-0.00395596
0.000829565
-8.23829e-08
-0.00392366
0.00085453
8.3757e-06
-0.00392286
0.000854831
4.19809e-05
-0.00395308
0.000831077
0.000154745
-0.00403599
0.000755966
0.000389878
-0.00393962
0.000664281
-0.00224154
0.00101181
0.000343417
-0.00255741
0.000177769
-0.00376064
5.4851e-05
-0.00391565
1.47332e-05
-0.00391621
1.06251e-07
-0.00390926
-1.4127e-05
-0.00390892
-5.24624e-05
-0.00391524
-0.000172515
-0.0039162
-0.000338866
-0.00377354
-0.0025804
-4.10593e-05
-0.000311904
0.000409855
-3.6265e-05
-0.000361678
0.000446848
-2.47018e-05
-0.000376472
0.000462506
-1.18954e-05
-0.000388063
0.000472954
-3.98922e-07
-0.000391903
0.000477165
1.10052e-05
-0.00039196
0.000477277
2.35904e-05
-0.000388385
0.000473303
3.50172e-05
-0.000376948
0.000463244
4.03798e-05
-0.000363122
0.000448416
-0.00031366
0.000411593
-6.89511e-05
-0.000246814
0.000584969
-6.23418e-05
-0.000327904
0.000648012
-4.14919e-05
-0.000345296
0.000673638
-1.96237e-05
-0.00035716
0.000690827
-6.05977e-07
-0.000360124
0.000697345
1.82365e-05
-0.000360187
0.000697442
3.98172e-05
-0.000357375
0.000691324
6.04485e-05
-0.000345755
0.000674559
6.76536e-05
-0.000329543
0.000650253
-0.000249114
0.000587684
-5.09203e-05
2.90781e-05
0.000669214
-5.82372e-05
-0.000106531
0.000788182
-3.36787e-05
-0.000116718
0.00082072
-1.49135e-05
-0.000100572
0.00084158
-3.79449e-07
-9.43986e-05
0.000847566
1.40575e-05
-9.42794e-05
0.00084766
3.24418e-05
-0.000100097
0.000841983
5.71254e-05
-0.000116417
0.000821662
4.96309e-05
-0.000107785
0.000791022
2.71307e-05
0.00067325
-5.06246e-05
0.000132044
0.000961471
-5.29583e-05
-0.00036251
0.000928484
-4.08315e-05
-0.000360638
0.00098941
-2.18736e-05
-0.000317897
0.00103235
-9.26859e-07
-0.000302938
0.00104661
2.00578e-05
-0.00030272
0.00104682
3.95212e-05
-0.000317213
0.00103316
5.28568e-05
-0.000360416
0.000990741
4.95643e-05
-0.000365164
0.000929487
0.000125536
0.000964852
0.0002463
-0.00267151
0.00013776
-0.00401419
4.67752e-05
-0.00418464
1.30822e-05
-0.00419972
1.02807e-07
-0.00419844
-1.25208e-05
-0.00419826
-4.48242e-05
-0.00419946
-0.000134016
-0.00418671
-0.000243502
-0.00402867
-0.00269815
-1.97742e-05
-0.000179403
0.000421154
-1.85619e-05
-0.000196458
0.000441786
-1.37113e-05
-0.000201092
0.000452189
-7.00326e-06
-0.00020547
0.000459882
-2.63802e-07
-0.000206996
0.000463481
6.37376e-06
-0.000207067
0.000463553
1.30723e-05
-0.000205614
0.000460293
1.78543e-05
-0.000201369
0.000452848
1.93908e-05
-0.00019701
0.000442979
-0.000180067
0.000422506
-3.40146e-05
-0.000144275
0.000584122
-3.19163e-05
-0.000166203
0.000615814
-2.36862e-05
-0.000168903
0.000633338
-1.19901e-05
-0.000172626
0.000646566
-4.84712e-07
-0.000173529
0.000652446
1.10101e-05
-0.000173554
0.000652639
2.25773e-05
-0.000172802
0.000647124
3.08197e-05
-0.000169145
0.000634396
3.33128e-05
-0.000166752
0.000617615
-0.00014511
0.000586231
-2.55261e-05
2.31838e-05
0.000526939
-2.06461e-05
3.83496e-05
0.000578468
-1.25487e-05
5.02245e-05
0.000593195
-5.95192e-06
5.77533e-05
0.00060428
-1.82133e-07
5.99625e-05
0.000608027
5.55251e-06
5.99602e-05
0.000608112
1.19887e-05
5.784e-05
0.000604652
1.99352e-05
5.04242e-05
0.000593838
2.49191e-05
3.88624e-05
0.000580061
2.39553e-05
0.000528851
-6.49608e-05
0.000316076
0.000733196
-5.08252e-05
0.000286869
0.000664881
-3.41838e-05
0.000329276
0.000692696
-1.74478e-05
0.000352579
0.000719778
-8.01803e-07
0.000359001
0.00072989
1.58061e-05
0.000358988
0.000730167
3.25017e-05
0.000352571
0.000720704
4.93434e-05
0.000329188
0.000694123
6.34065e-05
0.000287518
0.000665777
0.000317028
0.000734737
8.35443e-05
-0.00243931
4.47075e-05
-0.00368898
1.35578e-05
-0.00382483
2.96954e-06
-0.00383713
1.75611e-08
-0.00383702
-2.80895e-06
-0.00383699
-1.29099e-05
-0.0038373
-4.36129e-05
-0.00382742
-8.25922e-05
-0.00370268
-0.00246391
-7.51286e-06
-8.37501e-05
0.000419316
-7.58692e-06
-8.83667e-05
0.000432495
-6.157e-06
-8.90136e-05
0.00043965
-3.28274e-06
-9.0303e-05
0.000445257
-1.8648e-07
-9.09009e-05
0.000448002
2.99525e-06
-9.08894e-05
0.000448137
5.79985e-06
-9.04292e-05
0.000445602
7.28241e-06
-8.9112e-05
0.000440281
7.36194e-06
-8.85736e-05
0.000433451
-8.40284e-05
0.000420342
-1.27728e-05
-6.98496e-05
0.000582911
-1.32293e-05
-7.79023e-05
0.000606076
-1.09738e-05
-7.85721e-05
0.000620959
-5.99575e-06
-8.0797e-05
0.000632252
-2.83664e-07
-8.15403e-05
0.000637733
5.37281e-06
-8.15836e-05
0.000637921
1.04129e-05
-8.09004e-05
0.0006329
1.26693e-05
-7.87911e-05
0.000622045
1.24063e-05
-7.81924e-05
0.000607809
-7.03042e-05
0.000584988
-5.26231e-06
-2.7528e-05
0.000489936
-4.41451e-06
-1.2123e-05
0.000511663
-3.72177e-06
-5.24094e-06
0.000519129
-2.13513e-06
-3.68213e-06
0.000525646
-8.45116e-08
-3.82292e-06
0.000528262
1.96199e-06
-3.86489e-06
0.000528338
3.51469e-06
-3.80372e-06
0.00052594
4.21136e-06
-5.27014e-06
0.000519623
5.09761e-06
-1.18599e-05
0.000512702
-2.7517e-05
0.000490939
-2.60091e-05
6.45903e-05
0.000666866
-2.58779e-05
4.29948e-05
0.00061032
-2.09169e-05
5.19553e-05
0.000631185
-1.1252e-05
5.50935e-05
0.00065204
-5.78298e-07
5.55937e-05
0.00066055
1.00371e-05
5.55545e-05
0.00066081
1.97646e-05
5.4983e-05
0.000652958
2.49676e-05
5.17401e-05
0.000632541
2.47861e-05
4.29451e-05
0.000611732
6.38005e-05
0.000668189
1.70973e-05
-0.00239188
6.66604e-06
-0.00363611
9.44182e-08
-0.00376686
-1.02186e-06
-0.0037815
-4.68429e-09
-0.00378285
1.08867e-06
-0.00378285
6.86136e-08
-0.00378181
-6.50804e-06
-0.00376971
-1.6891e-05
-0.0036499
-0.00241717
-1.04749e-07
1.58029e-06
0.00040746
-3.63241e-07
5.68246e-06
0.000417615
-7.25644e-07
8.36423e-06
0.000422563
-5.1979e-07
9.39774e-06
0.000426665
-4.27648e-08
9.8293e-06
0.000428795
4.44304e-07
9.8334e-06
0.000428899
6.71047e-07
9.4108e-06
0.000426993
3.23094e-07
8.40548e-06
0.000423065
8.05931e-08
5.80966e-06
0.000418363
1.70672e-06
0.000408318
3.88291e-06
-1.22211e-05
0.000592701
2.09305e-06
6.45254e-07
0.000613153
6.95286e-08
4.75208e-06
0.000626102
-4.83131e-07
5.27701e-06
0.000636599
-8.88663e-08
5.14748e-06
0.000641701
3.14909e-07
5.10348e-06
0.000641917
-1.72334e-07
5.15789e-06
0.000637257
-2.11197e-06
4.60241e-06
0.000627204
-3.90821e-06
7.82432e-07
0.000614915
-1.24026e-05
0.000594826
5.30356e-06
-8.01404e-06
0.00047948
4.77644e-06
1.24523e-05
0.000500373
2.10036e-06
1.97144e-05
0.000506813
6.18739e-07
2.03483e-05
0.000511942
2.34145e-09
2.00038e-05
0.000514088
-5.95961e-07
1.99521e-05
0.000514168
-2.02656e-06
2.02408e-05
0.000512184
-4.57799e-06
1.96195e-05
0.000507298
-5.35614e-06
1.26992e-05
0.00050114
-7.99853e-06
0.000480422
3.55987e-05
-6.41529e-05
0.000688281
1.59707e-05
-4.32792e-05
0.000686287
1.68991e-06
-4.38679e-05
0.00071111
-1.82494e-06
-5.09517e-05
0.000728688
-2.91898e-07
-5.40358e-05
0.00073487
1.31374e-06
-5.40884e-05
0.000735101
-1.80479e-06
-5.12429e-05
0.000729431
-1.58607e-05
-4.43045e-05
0.000712393
-3.60151e-05
-4.33719e-05
0.000688792
-6.56047e-05
0.000690183
-6.44285e-06
-0.00245011
-7.2124e-06
-0.00367915
-4.45855e-06
-0.00381399
-2.11095e-06
-0.00383528
1.28803e-08
-0.00383955
2.16875e-06
-0.00383959
4.4061e-06
-0.00383587
6.97452e-06
-0.00381722
6.44011e-06
-0.00369323
-0.00247629
4.90482e-06
9.40684e-05
0.000380256
4.60288e-06
0.000106903
0.000388823
3.1986e-06
0.000113017
0.000392108
1.58601e-06
0.000116665
0.000395016
6.43157e-08
0.000118105
0.000396536
-1.43886e-06
0.000118139
0.000396634
-3.07153e-06
0.000116738
0.000395266
-4.43746e-06
0.000113217
0.000392516
-4.7806e-06
0.000107404
0.00038943
9.46137e-05
0.000380913
1.93478e-05
5.98494e-05
0.000607729
1.5795e-05
9.75803e-05
0.000626402
1.00118e-05
0.000107353
0.000637903
4.59212e-06
0.000111307
0.000647655
1.38046e-07
0.000112123
0.000652478
-4.31594e-06
0.0001121
0.000652675
-9.65146e-06
0.000111272
0.000648273
-1.52341e-05
0.000107473
0.000639012
-1.90444e-05
9.82695e-05
0.000628069
6.04411e-05
0.000609969
1.73655e-05
6.09033e-05
0.000460679
1.2757e-05
0.000124404
0.000477381
6.98712e-06
0.000139368
0.00047977
2.90738e-06
0.000143695
0.000482797
9.64789e-08
0.000144328
0.000483846
-2.73586e-06
0.000144279
0.000483867
-6.64038e-06
0.00014371
0.000482991
-1.23721e-05
0.000139459
0.000480045
-1.7143e-05
0.000125506
0.000477997
6.15738e-05
0.000461345
0.000125331
-0.000182018
0.000806269
7.04618e-05
-1.50178e-05
0.000883714
2.57175e-05
-7.46299e-06
0.000904211
8.46504e-06
-2.92949e-05
0.000921845
4.94012e-08
-3.88528e-05
0.000928782
-8.14406e-06
-3.90061e-05
0.000929091
-2.47855e-05
-3.0156e-05
0.000922639
-6.85777e-05
-7.96452e-06
0.000905858
-0.000124794
-1.30369e-05
0.0008864
-0.000182564
0.000810513
-3.46605e-05
-0.00259792
-2.53787e-05
-0.00370558
-1.1596e-05
-0.00383552
-4.59413e-06
-0.00387308
2.56154e-08
-0.00388481
4.53362e-06
-0.0038851
1.11549e-05
-0.00387436
2.44383e-05
-0.00383956
3.46867e-05
-0.00371826
-0.00262476
8.54196e-06
0.000201121
0.000327885
8.07813e-06
0.00022302
0.000334554
6.00496e-06
0.000232166
0.000335953
3.1091e-06
0.00023831
0.000337492
1.64071e-07
0.000240812
0.000338336
-2.80711e-06
0.00024085
0.000338394
-5.70728e-06
0.000238474
0.000337671
-7.74604e-06
0.00023257
0.000336239
-8.32535e-06
0.00022387
0.000334943
0.000202201
0.0003283
3.4515e-05
0.0001758
0.000598752
2.8967e-05
0.000246482
0.000608641
1.96778e-05
0.000262881
0.000616592
9.44511e-06
0.000272109
0.000624243
3.34667e-07
0.000274586
0.00062824
-8.74787e-06
0.00027458
0.000628417
-1.87841e-05
0.000272265
0.000624809
-2.78988e-05
0.00026333
0.00061751
-3.37647e-05
0.000248014
0.000610025
0.000177684
0.00060062
2.51273e-05
0.000205381
0.000405524
1.80431e-05
0.000315461
0.00041461
1.02378e-05
0.000338496
0.000410971
4.33023e-06
0.000348983
0.000410725
1.32892e-07
0.000351848
0.000410857
-3.97709e-06
0.00035194
0.000410917
-9.73139e-06
0.000349206
0.000410819
-1.73331e-05
0.000339204
0.00041113
-2.48205e-05
0.000317364
0.000414563
0.000208409
0.000405549
0.000214035
-0.000224481
0.0010233
0.000130637
0.000170177
0.00111386
5.79194e-05
0.000189339
0.00112769
2.2031e-05
0.000169374
0.00113889
5.2223e-07
0.000160036
0.00114389
-2.07673e-05
0.000159807
0.00114407
-5.55178e-05
0.000168695
0.00113967
-0.000127025
0.00018873
0.0011288
-0.00021072
0.000173295
0.00111618
-0.000219405
0.0010285
-7.42525e-05
-0.0027489
-5.29809e-05
-0.00355704
-2.65971e-05
-0.00367325
-1.02428e-05
-0.00372053
-9.49149e-08
-0.00373661
9.91998e-06
-0.00373696
2.54035e-05
-0.00372222
5.14021e-05
-0.00367708
7.32374e-05
-0.00356712
-0.00277169
1.04495e-05
0.00032143
0.000243775
9.7957e-06
0.000349004
0.000247985