/*--------------------------------*- C++ -*----------------------------------*\
| =========                 |                                                 |
| \\      /  F ield         | OpenFOAM: The Open Source CFD Toolbox           |
|  \\    /   O peration     | Version:  2.3.1                                 |
|   \\  /    A nd           | Web:      www.OpenFOAM.org                      |
|    \\/     M anipulation  |                                                 |
\*---------------------------------------------------------------------------*/
FoamFile
{
    version     2.0;
    format      ascii;
    class       volVectorField;
    location    "0.7";
    object      U;
}
// * * * * * * * * * * * * * * * * * * * * * * * * * * * * * * * * * * * * * //

dimensions      [0 1 -1 0 0 0 0];

internalField   nonuniform List<vector> 
768
(
(-0.0520267 -0.121415 1.2003e-19)
(-0.0556146 -0.113612 -3.59049e-19)
(-0.0568855 -0.102537 5.83407e-19)
(-0.0600649 -0.0907194 2.28781e-19)
(-0.0665231 -0.0805435 0)
(-0.0756223 -0.0741165 -4.70393e-19)
(-0.0856712 -0.07147 4.73748e-19)
(-0.0959139 -0.0712263 0)
(-0.106367 -0.0706599 4.92767e-19)
(-0.116571 -0.0687564 -8.57545e-19)
(-0.128694 -0.0671576 -3.66675e-19)
(-0.148967 -0.0628303 3.57062e-19)
(-0.036992 -0.144059 4.04929e-19)
(-0.0272956 -0.136684 -7.9446e-19)
(-0.0296145 -0.12348 9.46223e-20)
(-0.0409755 -0.109184 -2.02361e-19)
(-0.056565 -0.0971005 0)
(-0.0751845 -0.0874789 0)
(-0.0961856 -0.0823563 0)
(-0.117154 -0.0831821 -2.00481e-19)
(-0.136383 -0.0885001 0)
(-0.160803 -0.0875609 5.75609e-19)
(-0.201138 -0.0762364 -5.30438e-19)
(-0.253079 -0.0621219 5.59824e-19)
(-0.0339899 -0.161143 -3.43922e-19)
(-0.0183293 -0.151098 -8.98738e-21)
(-0.0262124 -0.135095 6.8626e-19)
(-0.0477785 -0.117691 -3.60095e-19)
(-0.0762527 -0.100746 3.67192e-19)
(-0.104672 -0.0894892 0)
(-0.131237 -0.0830131 3.55008e-19)
(-0.154957 -0.0812715 1.69172e-19)
(-0.179553 -0.0823997 -3.34029e-19)
(-0.219344 -0.0733819 2.99789e-19)
(-0.274948 -0.0544683 -1.46444e-19)
(-0.328384 -0.0387442 -6.23632e-19)
(-0.0220711 -0.185571 4.50205e-19)
(-0.00964296 -0.174351 -1.30872e-19)
(-0.0295242 -0.159212 -6.14432e-19)
(-0.0614968 -0.141973 1.61189e-19)
(-0.0969117 -0.121566 0)
(-0.131824 -0.101895 0)
(-0.162257 -0.0885647 0)
(-0.187172 -0.0809604 2.98953e-19)
(-0.218625 -0.0725422 -2.84243e-19)
(-0.269358 -0.0523439 -2.48264e-19)
(-0.326969 -0.0279434 4.52339e-19)
(-0.368273 -0.0153459 -2.121e-19)
(-0.018564 -0.207148 3.78575e-19)
(-0.0169637 -0.196526 -1.17541e-19)
(-0.0464711 -0.184309 1.43174e-19)
(-0.0838839 -0.166274 -1.5348e-19)
(-0.122065 -0.143892 3.0357e-19)
(-0.15721 -0.120331 -8.68454e-19)
(-0.187012 -0.101296 2.82198e-19)
(-0.21439 -0.0856364 -2.5212e-19)
(-0.253541 -0.0651313 2.3038e-19)
(-0.30772 -0.0345711 -2.09513e-19)
(-0.357 -0.00729672 1.96023e-19)
(-0.380685 0.000142996 0)
(-0.0225849 -0.225664 2.13533e-19)
(-0.0332564 -0.218871 -4.20211e-19)
(-0.0666485 -0.210105 0)
(-0.105376 -0.192039 0)
(-0.144084 -0.168545 0)
(-0.178334 -0.143162 2.4532e-19)
(-0.208334 -0.119165 2.37339e-19)
(-0.240665 -0.0945865 2.28868e-19)
(-0.284562 -0.0626882 -2.08663e-19)
(-0.333958 -0.0242465 -1.6935e-19)
(-0.3683 0.00448077 1.67277e-19)
(-0.373241 0.0078167 -1.67058e-19)
(-0.0342356 -0.238835 -1.52009e-19)
(-0.0538184 -0.239038 8.52711e-21)
(-0.0875499 -0.233263 1.86298e-19)
(-0.125542 -0.216887 3.94792e-19)
(-0.162964 -0.193562 -2.03334e-19)
(-0.197125 -0.167288 -3.26407e-20)
(-0.229573 -0.139335 0)
(-0.2661 -0.107271 1.27642e-20)
(-0.308704 -0.0669933 -1.56102e-19)
(-0.34675 -0.0234082 6.49174e-21)
(-0.363361 0.00650118 1.44246e-19)
(-0.351132 0.00847488 -1.47479e-19)
(-0.0497465 -0.247687 2.26924e-19)
(-0.0755642 -0.254368 8.3024e-21)
(-0.107528 -0.251891 -1.42078e-19)
(-0.143548 -0.237891 -1.73398e-19)
(-0.179616 -0.215618 -1.54651e-19)
(-0.214295 -0.189013 -1.78864e-20)
(-0.248828 -0.15864 -1.43638e-19)
(-0.285573 -0.122034 2.89991e-19)
(-0.321407 -0.0773496 2.64689e-19)
(-0.345216 -0.0315375 -2.25393e-19)
(-0.34514 -0.000815101 0)
(-0.319573 0.00217674 1.19905e-19)
(-0.0652868 -0.253594 1.17349e-20)
(-0.0955624 -0.264062 -8.96013e-20)
(-0.123958 -0.263842 1.88885e-19)
(-0.15679 -0.252088 0)
(-0.191174 -0.230868 1.06191e-19)
(-0.225628 -0.204134 -1.03073e-19)
(-0.259846 -0.172767 0)
(-0.293028 -0.134893 0)
(-0.319823 -0.0900831 0)
(-0.33071 -0.0455874 1.94762e-19)
(-0.318479 -0.0157847 -9.35231e-20)
(-0.285512 -0.0116435 -1.18728e-19)
(-0.0771043 -0.25994 0)
(-0.111265 -0.268641 8.22533e-20)
(-0.134599 -0.267098 -8.32065e-20)
(-0.162855 -0.256045 0)
(-0.194268 -0.235533 0)
(-0.227026 -0.208708 6.16784e-20)
(-0.25887 -0.177498 -5.99203e-20)
(-0.287046 -0.14116 9.36652e-20)
(-0.305999 -0.100052 0)
(-0.308611 -0.0605114 0)
(-0.291264 -0.0341369 8.15455e-20)
(-0.259459 -0.0298589 -1.66015e-19)
(-0.0934753 -0.268361 1.37227e-20)
(-0.11981 -0.264071 3.0833e-20)
(-0.137059 -0.26153 3.54583e-20)
(-0.158179 -0.248181 3.08786e-20)
(-0.186227 -0.227577 -2.61211e-20)
(-0.217007 -0.200975 5.23019e-20)
(-0.246229 -0.170815 -2.61239e-20)
(-0.270357 -0.137658 -9.17775e-20)
(-0.284713 -0.102375 -6.16262e-20)
(-0.284477 -0.0698526 1.40872e-19)
(-0.268712 -0.0485425 -5.45323e-20)
(-0.243427 -0.0442326 7.9367e-20)
(-0.0774022 -0.282826 -2.83102e-20)
(-0.116153 -0.280184 -2.02631e-20)
(-0.125515 -0.261041 -1.08174e-20)
(-0.142152 -0.236336 -2.86009e-20)
(-0.166987 -0.206639 0)
(-0.194607 -0.177915 -2.2121e-20)
(-0.221114 -0.149996 -1.72523e-20)
(-0.242226 -0.121349 2.79751e-20)
(-0.253963 -0.0926158 4.18308e-20)
(-0.253075 -0.0673559 -8.02351e-20)
(-0.239257 -0.0512084 5.84561e-20)
(-0.216147 -0.0479347 -5.91746e-20)
(-0.180911 -0.0508194 -4.31905e-19)
(-0.218367 -0.0354256 5.10276e-19)
(-0.25019 -0.0250697 0)
(-0.269326 -0.0216556 1.83214e-19)
(-0.273909 -0.0215831 -9.59791e-20)
(-0.264211 -0.0210469 8.47182e-20)
(-0.243687 -0.0175824 -7.63574e-20)
(-0.215288 -0.01136 -1.08667e-20)
(-0.183179 -0.000820404 0)
(-0.151408 0.0162823 -1.96944e-19)
(-0.124983 0.0382911 2.06232e-19)
(-0.116823 0.0515438 -3.09716e-19)
(-0.300747 -0.0525222 -3.51031e-19)
(-0.332411 -0.0518368 2.02788e-19)
(-0.345774 -0.0597343 0)
(-0.344937 -0.0704514 1.93852e-19)
(-0.335747 -0.0782313 -2.62849e-19)
(-0.323033 -0.0821211 1.72455e-21)
(-0.306236 -0.0837337 7.01101e-20)
(-0.284525 -0.0810768 -7.84431e-21)
(-0.256429 -0.0699807 1.60028e-20)
(-0.219852 -0.0438485 0)
(-0.174999 -0.000352711 8.10892e-20)
(-0.137118 0.0423025 1.80388e-19)
(-0.362739 -0.0348803 3.56498e-19)
(-0.374407 -0.0426984 0)
(-0.370293 -0.0564976 0)
(-0.358877 -0.070706 5.65379e-20)
(-0.345215 -0.0832959 -1.43975e-19)
(-0.3318 -0.093406 -5.45149e-20)
(-0.319715 -0.10086 5.43398e-20)
(-0.308591 -0.106133 -2.64192e-20)
(-0.294851 -0.106092 -1.28413e-20)
(-0.271457 -0.0905661 0)
(-0.229301 -0.0435571 -6.7533e-20)
(-0.165877 0.0346592 7.53415e-20)
(-0.382488 -0.0213529 0)
(-0.374589 -0.0412569 -2.09126e-19)
(-0.35585 -0.0654216 2.19877e-19)
(-0.3354 -0.0859968 0)
(-0.318325 -0.0994266 5.41548e-20)
(-0.305421 -0.106574 0)
(-0.296813 -0.110178 0)
(-0.292768 -0.113163 0)
(-0.291677 -0.117341 2.42021e-20)
(-0.287413 -0.116944 4.47793e-20)
(-0.268484 -0.0879708 -4.89429e-20)
(-0.215522 0.00335929 -4.73958e-21)
(-0.375842 -0.0157475 -9.30883e-20)
(-0.35388 -0.0453443 -9.77156e-20)
(-0.328126 -0.0754926 0)
(-0.306384 -0.0979806 -9.84475e-20)
(-0.290709 -0.111127 0)
(-0.280546 -0.116462 -4.35287e-20)
(-0.274842 -0.11647 4.33138e-20)
(-0.272989 -0.114263 -4.82026e-21)
(-0.274843 -0.113724 4.0574e-20)
(-0.278745 -0.11767 -1.64471e-19)
(-0.280219 -0.111128 1.27251e-19)
(-0.258545 -0.0323197 -3.07023e-19)
(-0.352812 -0.0145935 9.14364e-20)
(-0.321801 -0.0495961 3.77751e-19)
(-0.292784 -0.0822593 -1.06188e-19)
(-0.27151 -0.104677 3.53345e-22)
(-0.260203 -0.116166 0)
(-0.256156 -0.119415 0)
(-0.25632 -0.117646 4.4664e-21)
(-0.258911 -0.113687 2.36302e-22)
(-0.263014 -0.109841 0)
(-0.268268 -0.109773 0)
(-0.276006 -0.113827 -7.37651e-20)
(-0.284886 -0.0582892 1.65651e-19)
(-0.318781 -0.0157615 9.52875e-21)
(-0.281844 -0.0515366 -9.68379e-20)
(-0.251942 -0.0837741 -1.00019e-19)
(-0.234696 -0.104501 -8.6647e-20)
(-0.230719 -0.113794 0)
(-0.233165 -0.115194 3.2177e-20)
(-0.238472 -0.112177 -3.17947e-20)
(-0.245262 -0.107539 0)
(-0.25287 -0.103344 -2.71107e-20)
(-0.261574 -0.100665 2.66779e-20)
(-0.269397 -0.104912 4.74205e-20)
(-0.297696 -0.0706633 0)
(-0.27991 -0.0200906 8.69215e-21)
(-0.241195 -0.0537517 1.61975e-19)
(-0.215716 -0.0827981 0)
(-0.207875 -0.100116 0)
(-0.210119 -0.107329 -5.75031e-20)
(-0.215842 -0.10776 0)
(-0.222952 -0.104243 0)
(-0.231365 -0.098988 0)
(-0.241009 -0.0940135 1.9622e-20)
(-0.253533 -0.0900445 -5.09723e-20)
(-0.263496 -0.0907686 -7.69165e-20)
(-0.300435 -0.0700031 -8.14922e-20)
(-0.245155 -0.0308414 0)
(-0.212902 -0.0591046 0)
(-0.198794 -0.0816048 0)
(-0.196042 -0.0951541 0)
(-0.197428 -0.100927 5.26653e-20)
(-0.200883 -0.100732 0)
(-0.206472 -0.0964488 0)
(-0.214746 -0.0899477 0)
(-0.225743 -0.0831945 -1.00482e-20)
(-0.240996 -0.0771073 2.93724e-20)
(-0.25682 -0.0748888 -8.95054e-21)
(-0.295019 -0.0567461 5.85418e-20)
(-0.227121 -0.0443137 9.66202e-20)
(-0.20594 -0.0645389 0)
(-0.194179 -0.0814892 -9.98874e-20)
(-0.185944 -0.0929269 0)
(-0.181099 -0.0977805 -5.34301e-20)
(-0.180521 -0.0963348 3.13321e-20)
(-0.184398 -0.0901439 -8.59422e-21)
(-0.192744 -0.0811502 1.87979e-21)
(-0.205179 -0.0712647 9.33137e-21)
(-0.223195 -0.0612444 0)
(-0.243952 -0.0539394 1.25943e-20)
(-0.284605 -0.0333374 4.48933e-21)
(-0.218164 -0.0537262 -9.13533e-20)
(-0.196293 -0.0688583 0)
(-0.176091 -0.0839312 9.13481e-20)
(-0.160712 -0.0940883 7.12006e-20)
(-0.15235 -0.0970595 1.80245e-20)
(-0.151015 -0.093166 7.52873e-21)
(-0.155602 -0.0842448 -4.90247e-21)
(-0.165225 -0.0722851 -4.58146e-21)
(-0.179241 -0.0586899 2.59369e-21)
(-0.199468 -0.0430944 -7.29094e-22)
(-0.223969 -0.026694 3.64359e-20)
(-0.265125 0.00747233 -4.45834e-20)
(-0.188295 -0.0561084 -1.56729e-19)
(-0.159302 -0.0704914 0)
(-0.134775 -0.0846427 0)
(-0.119184 -0.093222 -1.22192e-19)
(-0.113385 -0.0941522 2.55304e-20)
(-0.115533 -0.0880567 -1.90357e-20)
(-0.123234 -0.0770099 0)
(-0.13482 -0.0629994 4.84332e-22)
(-0.149428 -0.0468792 -2.17065e-21)
(-0.168797 -0.026517 2.22037e-21)
(-0.192462 0.00203572 -2.48135e-20)
(-0.223983 0.0733092 4.06525e-20)
(-0.121411 0.0520271 -1.16799e-19)
(-0.113601 0.0555916 -1.19773e-19)
(-0.102514 0.056857 0)
(-0.0906826 0.0600403 -2.29417e-19)
(-0.0805023 0.0665114 2.39753e-19)
(-0.0740825 0.0756228 -9.42027e-19)
(-0.0714501 0.0856898 5.93878e-19)
(-0.0712181 0.0959538 0)
(-0.0706611 0.106441 -2.3784e-19)
(-0.0687418 0.11667 -4.9893e-19)
(-0.0671148 0.128781 7.21884e-19)
(-0.0628231 0.148939 -3.51108e-19)
(-0.144065 0.0369701 3.06618e-19)
(-0.136679 0.0272431 0)
(-0.123461 0.029568 0)
(-0.109154 0.040948 2.02928e-19)
(-0.0970625 0.0565586 2.06551e-19)
(-0.0874284 0.0752006 -4.02342e-19)
(-0.0823004 0.0962194 4.06092e-19)
(-0.0831219 0.117202 0)
(-0.0884494 0.136429 -1.91336e-19)
(-0.0876007 0.160719 7.59933e-19)
(-0.0763613 0.200815 -5.38053e-19)
(-0.0622482 0.252588 0)
(-0.161169 0.0339298 -1.77042e-19)
(-0.151111 0.0182631 6.84885e-19)
(-0.135103 0.0261839 -1.70782e-19)
(-0.117698 0.0477884 1.78056e-19)
(-0.100757 0.0762863 1.83562e-19)
(-0.089494 0.104711 0)
(-0.0829986 0.131277 3.56096e-19)
(-0.0812312 0.154986 -1.81827e-19)
(-0.0823955 0.179474 -3.28299e-19)
(-0.0735079 0.219033 3.07072e-19)
(-0.0546519 0.274467 -2.70216e-19)
(-0.0388488 0.327936 1.29424e-19)
(-0.185603 0.0220122 2.94531e-19)
(-0.17437 0.00961734 -4.35942e-19)
(-0.159238 0.0295542 3.11387e-19)
(-0.14201 0.0615645 -4.92907e-19)
(-0.121612 0.0969951 -5.08902e-19)
(-0.10195 0.131905 4.82862e-21)
(-0.0886151 0.162322 3.23609e-19)
(-0.0810012 0.187185 -1.54307e-19)
(-0.0726587 0.218472 0)
(-0.0525798 0.268997 0)
(-0.0281617 0.326573 1.10084e-19)
(-0.0153877 0.368064 2.11161e-19)
(-0.20718 0.0185232 -5.09061e-19)
(-0.196553 0.0169917 3.86427e-19)
(-0.18435 0.0465541 -1.43651e-19)
(-0.166334 0.0840003 0)
(-0.143974 0.122197 0)
(-0.120439 0.157343 -2.91699e-19)
(-0.101428 0.187115 1.3265e-20)
(-0.0857995 0.214423 -2.57721e-19)
(-0.0653951 0.253421 4.78558e-19)
(-0.0349231 0.30746 -2.17631e-19)
(-0.00755922 0.35678 -9.34058e-20)
(0.0001382 0.380676 -4.64754e-19)
(-0.22568 0.022578 0)
(-0.218898 0.0333396 0)
(-0.210148 0.0667769 0)
(-0.192113 0.105545 2.42258e-19)
(-0.168652 0.144279 0)
(-0.143312 0.178534 0)
(-0.119369 0.20851 2.45505e-19)
(-0.094866 0.24078 0)
(-0.0630884 0.284556 1.97447e-19)
(-0.0247181 0.33385 -1.9237e-19)
(0.00413844 0.368224 3.44317e-19)
(0.00777929 0.373308 1.73698e-19)
(-0.238825 0.0342693 0)
(-0.239053 0.0539395 -1.84949e-19)
(-0.233297 0.0877182 1.86926e-19)
(-0.21695 0.12576 -6.18564e-19)
(-0.193657 0.163219 3.90592e-19)
(-0.16744 0.1974 -3.80046e-19)
(-0.13957 0.229841 1.79965e-20)
(-0.107623 0.266316 3.40703e-19)
(-0.0674973 0.308812 -3.17378e-19)
(-0.0239967 0.346748 -1.16765e-20)
(0.00603837 0.363345 -2.89117e-19)
(0.0083257 0.351167 2.88133e-19)
(-0.247646 0.0498137 -1.99583e-19)
(-0.254344 0.0757185 1.33962e-19)
(-0.251876 0.107717 0)
(-0.237899 0.143796 3.31102e-19)
(-0.215663 0.179909 -3.25571e-19)
(-0.189115 0.214619 1.68117e-19)
(-0.15884 0.249148 3.53025e-20)
(-0.122386 0.285835 -2.87529e-19)
(-0.0778929 0.321552 1.58667e-19)
(-0.0322096 0.345237 0)
(-0.00141245 0.345107 -1.07715e-19)
(0.00185337 0.319535 -3.94366e-19)
(-0.253528 0.0653574 -9.91922e-20)
(-0.263993 0.0957184 -4.1309e-21)
(-0.263751 0.124173 1.564e-20)
(-0.252006 0.157037 0)
(-0.230822 0.191466 -2.02638e-20)
(-0.204136 0.225944 1.87603e-19)
(-0.172865 0.260146 1.18974e-19)
(-0.13516 0.293251 0)
(-0.0905797 0.319922 1.07326e-19)
(-0.0462773 0.33069 0)
(-0.016492 0.318408 6.51858e-21)
(-0.0121639 0.285451 3.36937e-19)
(-0.25987 0.0771312 6.76528e-20)
(-0.268529 0.111382 -6.78718e-20)
(-0.266927 0.134773 8.36513e-20)
(-0.255878 0.163072 -9.63642e-20)
(-0.235375 0.194522 -1.4573e-19)
(-0.208585 0.227294 -1.92309e-20)
(-0.177458 0.259108 0)
(-0.141285 0.2872 3.20111e-20)
(-0.100423 0.306042 -4.22813e-20)
(-0.0611287 0.308576 0)
(-0.0348682 0.291239 0)
(-0.0305106 0.259506 0)
(-0.268337 0.0934964 -2.04149e-20)
(-0.263935 0.119827 -3.5958e-20)
(-0.261319 0.137143 3.58931e-20)
(-0.247929 0.158333 9.36092e-20)
(-0.227304 0.186423 -2.38429e-20)
(-0.200728 0.217208 0)
(-0.170639 0.246391 -3.07179e-20)
(-0.137627 0.270443 -6.29088e-20)
(-0.102576 0.284716 1.0105e-19)
(-0.070314 0.284457 -8.74462e-20)
(-0.0491823 0.268748 -6.80962e-20)
(-0.0448905 0.243548 -7.86233e-20)
(-0.282745 0.0773529 1.92919e-20)
(-0.280102 0.116136 -1.36259e-20)
(-0.260874 0.125609 0)
(-0.236018 0.142297 0)
(-0.20627 0.167125 -7.04129e-22)
(-0.177557 0.19473 -2.35709e-20)
(-0.149691 0.221185 0)
(-0.121156 0.242218 -1.60944e-20)
(-0.0926115 0.253875 -1.76814e-20)
(-0.0675893 0.252954 1.90287e-19)
(-0.0516455 0.239144 -4.35964e-20)
(-0.048483 0.216026 1.38368e-19)
(-0.0509259 0.1807 4.43247e-19)
(-0.0355768 0.218009 0)
(-0.0251595 0.249792 -4.67522e-21)
(-0.0216609 0.268954 1.87911e-19)
(-0.0215368 0.273586 4.20637e-20)
(-0.0209815 0.263934 8.49821e-20)
(-0.0175144 0.243448 -8.70121e-20)
(-0.0112807 0.215083 -4.26332e-20)
(-0.000726539 0.183014 2.36202e-20)
(0.0163724 0.151293 -4.74969e-20)
(0.0383276 0.124953 1.03019e-19)
(0.0515211 0.116858 2.08485e-19)
(-0.0525935 0.300271 1.41688e-19)
(-0.0518042 0.332076 6.67832e-20)
(-0.0596014 0.345612 -7.17048e-20)
(-0.0702826 0.3449 1.29731e-19)
(-0.0780909 0.335766 -1.67579e-19)
(-0.0820243 0.32305 -9.29742e-20)
(-0.0836613 0.306232 6.26392e-20)
(-0.0809973 0.284484 -3.52667e-20)
(-0.0698649 0.256346 5.01163e-20)
(-0.0436965 0.219728 3.78975e-20)
(-0.000223881 0.174872 3.8507e-20)
(0.0423027 0.137124 9.17614e-20)
(-0.0348452 0.362512 -1.21393e-19)
(-0.0425525 0.374443 -5.93244e-20)
(-0.0563247 0.370513 5.72412e-20)
(-0.0705788 0.359175 -5.95052e-20)
(-0.0832402 0.345516 6.07617e-20)
(-0.093422 0.332064 3.01059e-20)
(-0.100918 0.319926 6.08034e-20)
(-0.106188 0.308739 -1.00356e-20)
(-0.106098 0.29493 5.28272e-20)
(-0.0904917 0.27146 0)
(-0.0434282 0.229225 -4.79485e-21)
(0.0347324 0.165771 3.53997e-21)
(-0.0211815 0.382565 0)
(-0.0409623 0.374879 2.0973e-19)
(-0.0651367 0.35621 -2.76253e-19)
(-0.0858148 0.335719 -2.37448e-21)
(-0.0993773 0.318566 -1.07097e-19)
(-0.106626 0.305598 0)
(-0.11029 0.29694 -1.25089e-20)
(-0.113285 0.29286 1.73686e-20)
(-0.117427 0.291745 -4.76357e-20)
(-0.116954 0.287458 9.67318e-20)
(-0.087893 0.268482 -1.56218e-19)
(0.00346484 0.215438 6.51163e-20)
(-0.0154923 0.376049 0)
(-0.0449811 0.354159 1.97698e-19)
(-0.0751934 0.328335 -1.09756e-19)
(-0.0978282 0.306473 -4.69101e-20)
(-0.111114 0.290702 5.13558e-20)
(-0.116551 0.280476 2.12981e-21)
(-0.116607 0.274743 3.82252e-20)
(-0.114392 0.272887 -1.53523e-20)
(-0.113803 0.274755 6.11277e-20)
(-0.117676 0.278688 4.18763e-20)
(-0.111069 0.28019 -1.32455e-19)
(-0.0322322 0.25852 -1.02673e-19)
(-0.0143438 0.352972 0)
(-0.049239 0.321915 -9.24288e-20)
(-0.0819738 0.292759 -1.99111e-19)
(-0.10454 0.271342 0)
(-0.116164 0.259931 7.53068e-22)
(-0.119506 0.255848 -4.05726e-20)
(-0.117772 0.256027 0)
(-0.113794 0.258657 0)
(-0.109884 0.262805 0)
(-0.109725 0.268102 3.81397e-20)
(-0.113711 0.275879 -3.1263e-20)
(-0.058188 0.284847 1.01239e-20)
(-0.0156057 0.318809 0)
(-0.0512484 0.281758 -8.33204e-20)
(-0.0835342 0.251702 3.75375e-19)
(-0.104374 0.23429 0)
(-0.113777 0.230231 7.54072e-20)
(-0.115245 0.232688 -3.52375e-20)
(-0.112241 0.238061 0)
(-0.107574 0.244932 0)
(-0.103322 0.252618 -2.72626e-20)
(-0.100564 0.261379 5.66538e-20)
(-0.104717 0.269232 0)
(-0.0705029 0.297608 6.42064e-20)
(-0.0201167 0.279827 2.94121e-19)
(-0.0536248 0.240989 -3.22195e-19)
(-0.0826648 0.215347 7.86359e-20)
(-0.100033 0.207368 0)
(-0.107301 0.209578 0)
(-0.107754 0.215355 -2.49946e-20)
(-0.104225 0.222559 0)
(-0.0989359 0.231069 0)
(-0.0939109 0.240796 1.97607e-20)
(-0.0898869 0.253365 1.96338e-20)
(-0.0905177 0.26337 -7.1115e-21)
(-0.0697755 0.300316 4.5465e-20)
(-0.0311201 0.245074 -1.1834e-19)
(-0.0592059 0.212741 -1.24222e-19)
(-0.081628 0.198504 0)
(-0.0951545 0.195641 0)
(-0.100904 0.197012 0)
(-0.100671 0.200533 2.2913e-20)
(-0.0963485 0.206216 0)
(-0.0898135 0.21458 0)
(-0.0830271 0.225639 -1.01819e-20)
(-0.0768984 0.240912 0)
(-0.0746174 0.256765 -5.38792e-21)
(-0.0564728 0.29489 -2.43312e-20)
(-0.0447889 0.227196 0)
(-0.0648548 0.205943 1.16084e-19)
(-0.0816881 0.19403 0)
(-0.0930194 0.185702 0)
(-0.0977662 0.180871 -3.59622e-20)
(-0.0962275 0.180369 -2.84266e-20)
(-0.0899749 0.184336 0)
(-0.0809526 0.192755 -4.08786e-21)
(-0.0710573 0.205225 1.35589e-20)
(-0.061022 0.223232 -4.10163e-21)
(-0.0536794 0.243961 0)
(-0.0330962 0.284493 0)
(-0.0542932 0.21828 0)
(-0.0693276 0.196274 0)
(-0.084259 0.175956 1.26467e-19)
(-0.0942403 0.160589 3.15881e-20)
(-0.0970391 0.152311 7.43559e-20)
(-0.0930131 0.151076 -8.11849e-21)
(-0.0840191 0.155751 0)
(-0.0720436 0.165432 1.0103e-21)
(-0.0584686 0.179456 8.47304e-22)
(-0.0428865 0.199641 2.997e-21)
(-0.0264831 0.224057 1.60887e-20)
(0.00764011 0.26508 -1.68508e-21)
(-0.0566918 0.188118 -8.14135e-20)
(-0.0709939 0.159105 8.19337e-20)
(-0.0849874 0.134663 -7.65002e-20)
(-0.0933664 0.119213 -6.45361e-20)
(-0.0941011 0.113555 -1.54502e-20)
(-0.087861 0.115812 -1.31963e-20)
(-0.076743 0.123587 6.97849e-21)
(-0.0627352 0.135213 -1.39212e-21)
(-0.0466691 0.149803 -2.0536e-21)
(-0.0263507 0.169108 2.10036e-21)
(0.0021808 0.192631 7.78797e-21)
(0.0733944 0.224029 0)
(-0.053516 -0.11705 7.34578e-21)
(-0.0541985 -0.130199 3.65864e-21)
(-0.0677344 -0.152598 8.92236e-21)
(-0.0938663 -0.170717 -1.82627e-20)
(-0.129024 -0.169078 1.93908e-20)
(-0.161634 -0.148094 -1.41478e-20)
(-0.186283 -0.11957 2.51786e-20)
(-0.202643 -0.0917381 -2.35558e-21)
(-0.209588 -0.0672924 -2.02404e-20)
(-0.205213 -0.0481167 4.99101e-20)
(-0.188955 -0.0372857 1.37497e-19)
(-0.162814 -0.0373466 -2.35415e-19)
(-0.0354153 -0.0907795 1.00438e-20)
(-0.0415405 -0.081669 -1.77622e-20)
(-0.0555728 -0.0787694 2.68469e-20)
(-0.0745642 -0.0829607 0)
(-0.0964022 -0.0908493 0)
(-0.120346 -0.0918768 0)
(-0.141171 -0.0793693 0)
(-0.153648 -0.0578411 0)
(-0.155231 -0.0358531 4.29317e-21)
(-0.145108 -0.0196327 -4.57484e-20)
(-0.123941 -0.0129016 -4.55603e-21)
(-0.0948892 -0.0175028 1.0824e-19)
(-0.0287291 -0.0746545 0)
(-0.0343169 -0.0670796 2.69618e-20)
(-0.0435952 -0.0598985 -2.88715e-20)
(-0.0566198 -0.0508419 1.8713e-20)
(-0.0706067 -0.0415062 5.34773e-22)
(-0.0839425 -0.0338711 -6.96052e-20)
(-0.0946535 -0.0257576 1.64378e-20)
(-0.0994262 -0.0143554 1.14928e-20)
(-0.095107 -0.00116324 1.09696e-20)
(-0.0804472 0.00889029 0)
(-0.0570025 0.0110111 -2.98018e-20)
(-0.0298668 0.00288192 -3.90942e-20)
(-0.0218263 -0.0594552 -1.487e-20)
(-0.0269359 -0.0541364 1.75236e-20)
(-0.0342514 -0.0486688 2.73567e-20)
(-0.0443778 -0.0398504 0)
(-0.0541962 -0.0263258 0)
(-0.0608326 -0.0102372 1.88582e-20)
(-0.0628631 0.00567589 2.14787e-20)
(-0.0591065 0.0199336 -2.82863e-21)
(-0.0479136 0.0308794 6.48143e-22)
(-0.0290716 0.0360112 0)
(-0.00523678 0.0328871 3.11371e-20)
(0.0167059 0.0196652 -6.83786e-20)
(-0.131076 -0.0477943 3.49166e-19)
(-0.101065 -0.0637912 -6.76236e-20)
(-0.0800995 -0.078349 6.49163e-20)
(-0.0708786 -0.0865298 5.25526e-20)
(-0.0720483 -0.0865727 0)
(-0.0802088 -0.0795226 0)
(-0.0921085 -0.0677236 0)
(-0.105626 -0.0532318 2.63991e-22)
(-0.119639 -0.0367822 3.00556e-21)
(-0.132958 -0.0164816 -3.06772e-21)
(-0.140452 0.00817807 0)
(-0.128904 0.0604405 0)
(-0.0637357 -0.0323248 -1.26221e-19)
(-0.0392196 -0.0510802 5.53821e-20)
(-0.0270922 -0.0665867 -6.66533e-21)
(-0.0275812 -0.0746541 -3.72253e-20)
(-0.0371198 -0.0744876 -2.09942e-20)
(-0.0512163 -0.0676528 2.65506e-21)
(-0.0664585 -0.0565395 -2.13924e-21)
(-0.0809307 -0.0431156 1.32241e-22)
(-0.0938346 -0.0281853 3.86776e-21)
(-0.103703 -0.0112244 0)
(-0.10936 0.00817149 1.17542e-20)
(-0.102675 0.0316999 -1.1863e-20)
(-0.00489534 -0.0155159 8.98545e-20)
(0.0102708 -0.0364655 4.04475e-20)
(0.0119959 -0.0525012 -3.91114e-22)
(0.00226968 -0.0603741 3.50166e-20)
(-0.0138725 -0.0603149 3.30518e-21)
(-0.0316131 -0.0543874 -8.25334e-21)
(-0.048007 -0.044882 3.7113e-22)
(-0.0618749 -0.0334765 -1.0971e-22)
(-0.0729802 -0.0210045 -4.35e-21)
(-0.0808252 -0.00747788 -2.63127e-21)
(-0.084855 0.00664411 0)
(-0.0821519 0.021219 0)
(0.0311276 -0.000649528 -4.70367e-20)
(0.0359303 -0.0210663 -7.97436e-20)
(0.0303983 -0.0367457 -1.45104e-20)
(0.0165443 -0.045444 3.87649e-20)
(-0.00144649 -0.0471637 3.99474e-20)
(-0.0194173 -0.0434704 6.31167e-21)
(-0.0348383 -0.0363937 1.69467e-21)
(-0.0469754 -0.0274888 0)
(-0.0560199 -0.0175918 3.12242e-21)
(-0.0620855 -0.0069385 9.95481e-21)
(-0.0651084 0.00404707 0)
(-0.0640757 0.0147174 -8.18381e-21)
(-0.117022 0.053477 -5.91552e-21)
(-0.130252 0.0542229 1.25615e-21)
(-0.152688 0.0678195 2.9343e-20)
(-0.1707 0.0940368 2.12938e-20)
(-0.168839 0.129204 6.195e-20)
(-0.147705 0.161722 6.05737e-22)
(-0.119161 0.186266 0)
(-0.0914002 0.20252 0)
(-0.067092 0.209358 4.84859e-20)
(-0.048105 0.204899 -5.98326e-20)
(-0.0374779 0.188581 -5.24071e-20)
(-0.0377087 0.162411 -1.25991e-20)
(-0.0907264 0.0354357 -1.26469e-20)
(-0.0815945 0.0416163 1.26437e-20)
(-0.0787059 0.0556796 -2.63975e-20)
(-0.0829443 0.0746735 -5.41355e-20)
(-0.0908154 0.0965092 1.39545e-21)
(-0.0917113 0.120412 -2.15585e-20)
(-0.0790628 0.141137 0)
(-0.0574908 0.153478 -1.36479e-20)
(-0.0355662 0.154921 -1.63335e-20)
(-0.0194837 0.144684 4.3189e-20)
(-0.0129313 0.123447 0)
(-0.0177019 0.0944022 -1.02862e-19)
(-0.0746207 0.0287481 1.84511e-20)
(-0.0670219 0.034364 2.74348e-20)
(-0.0597892 0.0436662 4.14687e-20)
(-0.0506912 0.0566951 3.45991e-20)
(-0.0413579 0.070663 0)
(-0.0337327 0.0839602 0)
(-0.025592 0.0945983 -1.02161e-20)
(-0.0141485 0.0992628 2.26094e-20)
(-0.000962391 0.0948142 0)
(0.00902061 0.0800518 -3.4801e-21)
(0.0110161 0.0565615 0)
(0.00276025 0.0294957 1.03473e-20)
(-0.0594361 0.0218488 -6.80713e-20)
(-0.0541005 0.0269779 3.6619e-21)
(-0.0485972 0.0343063 -4.12725e-20)
(-0.0397213 0.0444257 2.92203e-20)
(-0.0261489 0.0542126 2.8976e-20)
(-0.0100478 0.0608031 1.28102e-20)
(0.00585294 0.0627719 -1.26532e-20)
(0.0200909 0.0589403 1.61078e-20)
(0.0310021 0.0476558 0)
(0.0360675 0.0287418 -3.3957e-20)
(0.0328455 0.00489448 -8.17404e-20)
(0.0195066 -0.0169448 2.14684e-19)
(-0.0482476 0.130693 6.69378e-20)
(-0.064212 0.100815 6.78528e-20)
(-0.0786329 0.080082 -1.23975e-19)
(-0.0866239 0.0710878 -4.65856e-20)
(-0.0864798 0.0724199 0)
(-0.0792929 0.0806744 1.41586e-20)
(-0.0674328 0.0926209 0)
(-0.0529681 0.106155 5.8218e-22)
(-0.0366116 0.120129 2.90522e-21)
(-0.0163884 0.133363 -1.1434e-20)
(0.00825147 0.140696 -2.9535e-20)
(0.0605365 0.129101 2.79304e-20)
(-0.0326278 0.0633732 0)
(-0.0513779 0.0390898 -5.56211e-20)
(-0.0667692 0.0272282 1.07759e-19)
(-0.0746705 0.0279383 4.30063e-20)
(-0.0743473 0.0376123 0)
(-0.0673961 0.0517664 8.78661e-21)
(-0.0562296 0.0670302 0)
(-0.0428479 0.0815048 -1.49132e-22)
(-0.0280621 0.0943598 3.72222e-21)
(-0.0112274 0.104113 7.95147e-21)
(0.0081545 0.109634 1.1577e-20)
(0.0317374 0.102809 -4.78949e-20)
(-0.0157503 0.00468096 9.07289e-20)
(-0.0366744 -0.010262 4.44734e-20)
(-0.0525881 -0.011759 -6.22727e-20)
(-0.0603139 -0.0018604 4.86876e-20)
(-0.0601345 0.0143676 -4.84452e-21)
(-0.0541227 0.0321157 -3.43823e-21)
(-0.0445799 0.0484936 -1.14852e-22)
(-0.0332388 0.0623676 -3.18157e-22)
(-0.0209381 0.0734205 -5.59503e-22)
(-0.00757492 0.0811435 -2.55975e-21)
(0.00653245 0.085037 -2.62458e-20)
(0.0211625 0.0822339 -9.2778e-21)
(-0.00085606 -0.0311931 -1.21706e-19)
(-0.0212154 -0.0358392 0)
(-0.0367854 -0.0301574 0)
(-0.0453621 -0.016183 -5.33969e-20)
(-0.0469837 0.00187338 -4.20033e-21)
(-0.0432246 0.0198421 3.70238e-22)
(-0.0361186 0.0351777 -2.58011e-21)
(-0.0273187 0.0471817 1.13026e-22)
(-0.0177102 0.0561827 0)
(-0.00723486 0.0621997 0)
(0.00379502 0.0651389 1.58794e-20)
(0.0145859 0.064059 1.77311e-20)
)
;

boundaryField
{
    rotor
    {
        type            movingWallVelocity;
        value           nonuniform List<vector> 
96
(
(-0.0426949 -0.118108 2.57506e-21)
(-0.0503281 -0.115063 2.68794e-16)
(-0.0577458 -0.111525 2.68792e-16)
(-0.0649163 -0.107509 0)
(-0.0718087 -0.103033 2.68792e-16)
(-0.0783937 -0.0981163 2.68792e-16)
(-0.0846429 -0.092779 2.68792e-16)
(-0.0905297 -0.0870445 2.68792e-16)
(-0.0960289 -0.0809372 0)
(-0.101117 -0.0744833 5.37581e-16)
(-0.105772 -0.0677105 5.37586e-16)
(-0.109974 -0.0606477 5.37584e-16)
(-0.113705 -0.0533252 2.57506e-21)
(-0.116949 -0.0457744 -2.68792e-16)
(-0.119692 -0.0380275 0)
(-0.121923 -0.0301178 0)
(-0.123632 -0.0220792 2.68793e-16)
(-0.124811 -0.013946 0)
(-0.125456 -0.00575308 0)
(-0.125564 0.00246447 0)
(-0.125134 0.0106715 2.68792e-16)
(-0.124168 0.0188328 -2.68792e-16)
(-0.12267 0.0269134 2.68792e-16)
(-0.120648 0.0348788 0)
(-0.118108 0.0426949 0)
(-0.115063 0.0503281 -2.57506e-21)
(-0.111525 0.0577458 0)
(-0.107509 0.0649163 2.68792e-16)
(-0.103033 0.0718087 -2.68792e-16)
(-0.0981163 0.0783937 2.68792e-16)
(-0.092779 0.0846429 -2.68789e-16)
(-0.0870445 0.0905297 -2.68792e-16)
(-0.0809372 0.0960289 2.68792e-16)
(-0.0744833 0.101117 2.68792e-16)
(-0.0677105 0.105772 0)
(-0.0606477 0.109974 2.57506e-21)
(-0.0533252 0.113705 5.37584e-16)
(-0.0457744 0.116949 2.68792e-16)
(-0.0380275 0.119692 5.37586e-16)
(-0.0301178 0.121923 0)
(-0.0220792 0.123632 2.68792e-16)
(-0.013946 0.124811 5.37584e-16)
(-0.00575308 0.125456 2.68792e-16)
(0.00246447 0.125564 0)
(0.0106715 0.125134 2.68792e-16)
(0.0188328 0.124168 2.68792e-16)
(0.0269134 0.12267 1.28753e-21)
(0.0348788 0.120648 5.37584e-16)
(-0.0425425 -0.126557 5.37584e-16)
(-0.0475475 -0.141446 8.06375e-16)
(-0.0525525 -0.156335 2.68792e-16)
(-0.0575574 -0.171224 2.68792e-16)
(-0.0625624 -0.186113 2.68792e-16)
(-0.0675674 -0.201002 5.37584e-16)
(-0.0725724 -0.215891 8.06375e-16)
(-0.0775774 -0.23078 2.68792e-16)
(-0.0825824 -0.245669 2.68792e-16)
(-0.0875874 -0.260558 5.37584e-16)
(-0.0925924 -0.275447 2.68792e-16)
(-0.0975974 -0.290336 0)
(-0.126557 0.0425425 2.68792e-16)
(-0.141446 0.0475475 2.68792e-16)
(-0.156335 0.0525525 5.37584e-16)
(-0.171224 0.0575575 5.37584e-16)
(-0.186113 0.0625624 0)
(-0.201002 0.0675674 0)
(-0.215891 0.0725724 0)
(-0.23078 0.0775774 3.70281e-33)
(-0.245669 0.0825824 2.68792e-16)
(-0.260558 0.0875874 0)
(-0.275447 0.0925924 5.37584e-16)
(-0.290336 0.0975974 5.37584e-16)
(-0.126557 0.0425425 1.17549e-34)
(-0.141446 0.0475475 2.68792e-16)
(-0.156335 0.0525525 5.37584e-16)
(-0.171224 0.0575575 5.37584e-16)
(-0.186113 0.0625624 -1.52814e-33)
(-0.201002 0.0675674 2.68792e-16)
(-0.215891 0.0725724 2.68792e-16)
(-0.23078 0.0775774 5.37584e-16)
(-0.245669 0.0825824 -2.68792e-16)
(-0.260558 0.0875874 0)
(-0.275447 0.0925924 2.68792e-16)
(-0.290336 0.0975974 0)
(0.0425425 0.126557 2.68792e-16)
(0.0475475 0.141446 -1.29304e-33)
(0.0525525 0.156335 -2.68792e-16)
(0.0575575 0.171224 0)
(0.0625624 0.186113 2.68792e-16)
(0.0675674 0.201002 0)
(0.0725724 0.215891 2.68792e-16)
(0.0775774 0.23078 1.05794e-33)
(0.0825824 0.245669 0)
(0.0875874 0.260558 0)
(0.0925924 0.275447 2.68792e-16)
(0.0975974 0.290336 0)
)
;
    }
    stator
    {
        type            movingWallVelocity;
        value           nonuniform 0();
    }
    AMI1
    {
        type            cyclicAMI;
        value           nonuniform List<vector> 
48
(
(-0.0176387 -0.0515695 -4.19696e-22)
(-0.0230204 -0.0475009 1.12973e-20)
(-0.0302622 -0.0437253 2.69253e-20)
(-0.0401095 -0.0377254 3.29263e-21)
(-0.0492205 -0.0268932 3.07977e-20)
(-0.0536798 -0.0114733 6.14858e-21)
(-0.0522871 0.00614291 -5.34329e-21)
(-0.0462361 0.0233429 -8.42347e-21)
(-0.0352225 0.036149 4.61714e-21)
(-0.0174937 0.0413744 -3.88207e-21)
(0.00459838 0.0378764 7.37329e-20)
(0.0244072 0.024731 -6.50606e-20)
(0.0362109 0.00521529 2.50427e-20)
(0.0382938 -0.014259 -5.72363e-22)
(0.0313684 -0.0295069 5.44456e-21)
(0.0177 -0.0385943 2.11719e-20)
(0.000859179 -0.0413562 2.01125e-20)
(-0.015631 -0.0390128 5.92667e-21)
(-0.0296011 -0.0332762 1.58652e-21)
(-0.0404173 -0.0256352 1.08375e-22)
(-0.0482902 -0.0170039 1.59636e-21)
(-0.0534376 -0.00775786 9.27007e-21)
(-0.0558834 0.0017315 -5.52262e-21)
(-0.0551071 0.0108812 -5.76982e-21)
(-0.0515511 0.0176605 -4.17402e-20)