/*--------------------------------*- C++ -*----------------------------------*\
| =========                 |                                                 |
| \\      /  F ield         | OpenFOAM: The Open Source CFD Toolbox           |
|  \\    /   O peration     | Version:  2.3.1                                 |
|   \\  /    A nd           | Web:      www.OpenFOAM.org                      |
|    \\/     M anipulation  |                                                 |
\*---------------------------------------------------------------------------*/
FoamFile
{
    version     2.0;
    format      ascii;
    class       surfaceVectorField;
    location    "0.7";
    object      Uf;
}
// * * * * * * * * * * * * * * * * * * * * * * * * * * * * * * * * * * * * * //

dimensions      [0 1 -1 0 0 0 0];

internalField   nonuniform List<vector> 
1460
(
(-0.0544767 -0.119158 -1.1951e-19)
(-0.0433031 -0.133013 2.59831e-19)
(-0.0562635 -0.108103 1.12311e-19)
(-0.0384634 -0.126357 -5.72706e-19)
(-0.0580138 -0.0958044 4.06094e-19)
(-0.0403965 -0.114423 3.37269e-19)
(-0.0628482 -0.0849449 1.1439e-19)
(-0.0482996 -0.101228 7.146e-21)
(-0.0712041 -0.077506 -2.35196e-19)
(-0.0606785 -0.0893358 0)
(-0.0808877 -0.0730753 3.24896e-21)
(-0.0732261 -0.0824163 -2.3957e-19)
(-0.0910985 -0.0716622 2.36874e-19)
(-0.0880336 -0.0793637 2.41279e-19)
(-0.101342 -0.0711251 2.46384e-19)
(-0.103191 -0.0803638 -9.83766e-20)
(-0.111139 -0.0694481 -1.8061e-19)
(-0.117999 -0.0830886 2.50965e-19)
(-0.12183 -0.0674057 -6.1211e-19)
(-0.135244 -0.0820996 -1.35913e-19)
(-0.138153 -0.0645905 -8.14881e-21)
(-0.161076 -0.0765595 -4.47034e-19)
(-0.196847 -0.0683004 4.68502e-19)
(-0.164721 -0.0567135 -3.74215e-20)
(-0.031817 -0.139552 -1.91031e-19)
(-0.0378217 -0.151625 3.6765e-20)
(-0.0279685 -0.129062 -3.54705e-19)
(-0.0257366 -0.142524 -4.08291e-19)
(-0.0348652 -0.115565 -5.38695e-20)
(-0.0308073 -0.127707 3.75052e-19)
(-0.0485708 -0.102835 -1.01181e-19)
(-0.0467876 -0.111876 -2.79909e-19)
(-0.0655432 -0.0918456 0)
(-0.0672245 -0.0982096 1.80526e-19)
(-0.0863048 -0.0856433 0)
(-0.0921268 -0.0865136 0)
(-0.107589 -0.0837132 -1.00241e-19)
(-0.116014 -0.0803111 1.74536e-19)
(-0.12713 -0.0861666 -1.00241e-19)
(-0.138206 -0.0796773 -3.02626e-20)
(-0.148019 -0.0875781 2.87804e-19)
(-0.159589 -0.0831486 -1.64222e-19)
(-0.180406 -0.0815106 2.54871e-20)
(-0.191012 -0.0786508 4.40005e-19)
(-0.226956 -0.0690885 1.39424e-20)
(-0.238291 -0.0641835 -3.36461e-19)
(-0.290619 -0.0496903 -1.85416e-20)
(-0.277109 -0.0574223 1.04396e-19)
(-0.0251138 -0.153499 -1.88407e-19)
(-0.0279124 -0.173247 4.77614e-20)
(-0.021408 -0.141287 3.30148e-19)
(-0.0147382 -0.162248 -6.90035e-20)
(-0.0363791 -0.125292 1.63083e-19)
(-0.0286759 -0.146539 4.85535e-20)
(-0.0616175 -0.108605 4.52794e-22)
(-0.0551909 -0.12925 -1.03413e-19)
(-0.0909145 -0.0957232 1.83596e-19)
(-0.0869284 -0.110647 1.86385e-19)
(-0.118827 -0.0872725 1.77504e-19)
(-0.118879 -0.0949289 0)
(-0.144141 -0.0832141 2.55753e-19)
(-0.147543 -0.0848057 1.80201e-19)
(-0.16746 -0.0820203 -8.3598e-20)
(-0.171888 -0.0800075 2.33077e-19)
(-0.198922 -0.0774764 -1.712e-20)
(-0.199699 -0.0764693 -3.09515e-19)
(-0.247159 -0.0639341 7.66056e-20)
(-0.244618 -0.0621444 2.99261e-20)
(-0.301957 -0.046779 -3.86469e-19)
(-0.301068 -0.0406198 1.48399e-19)
(-0.348495 -0.0263709 -4.20992e-19)
(-0.34553 -0.0367962 -1.33717e-19)
(-0.0138433 -0.174913 1.82682e-19)
(-0.0213225 -0.195855 4.14888e-19)
(-0.0186237 -0.164769 -3.63209e-19)
(-0.0142257 -0.184858 -1.27164e-19)
(-0.0447907 -0.149307 -2.26621e-19)
(-0.0387707 -0.171124 -2.43608e-19)
(-0.0789482 -0.131375 8.05946e-20)
(-0.0732668 -0.153512 8.35161e-21)
(-0.114996 -0.112572 0)
(-0.110067 -0.132048 1.49672e-19)
(-0.148072 -0.0964373 0)
(-0.14488 -0.110553 -4.28182e-19)
(-0.175439 -0.0855067 1.49477e-19)
(-0.174909 -0.0944342 1.39135e-19)
(-0.202854 -0.0767115 7.60694e-21)
(-0.201131 -0.0827047 2.72525e-20)
(-0.243902 -0.0623727 -2.66254e-19)
(-0.236363 -0.0682677 -3.05138e-20)
(-0.298522 -0.0403899 1.03879e-19)
(-0.288616 -0.0431147 -2.29158e-19)
(-0.347737 -0.021714 1.19545e-19)
(-0.341995 -0.017421 3.25965e-19)
(-0.374557 -0.00741147 -1.07527e-19)
(-0.375001 -0.0181563 -1.0605e-19)
(-0.0151399 -0.19526 1.60508e-19)
(-0.0207769 -0.216204 2.97114e-19)
(-0.0307151 -0.188316 1.28166e-20)
(-0.0245267 -0.207764 -2.66932e-19)
(-0.0642758 -0.173681 -5.15295e-21)
(-0.0558464 -0.197344 7.25067e-20)
(-0.102913 -0.154988 7.5045e-20)
(-0.0944176 -0.179036 -7.77258e-20)
(-0.140467 -0.133222 -2.8831e-19)
(-0.132458 -0.156392 1.53735e-19)
(-0.173058 -0.111922 -2.86955e-19)
(-0.167517 -0.131696 -3.17957e-19)
(-0.20093 -0.0937017 1.50394e-20)
(-0.197803 -0.109872 2.60057e-19)
(-0.23377 -0.0752072 -1.087e-20)
(-0.227802 -0.0895935 -1.78956e-20)
(-0.280997 -0.0501399 1.04333e-20)
(-0.269213 -0.0634978 1.64623e-20)
(-0.332948 -0.0213381 -3.72308e-21)
(-0.320893 -0.0291727 -1.89689e-19)
(-0.368739 -0.00351535 9.80115e-20)
(-0.362737 -0.00123398 1.81834e-19)
(-0.377157 0.00419594 -8.2456e-20)
(-0.377589 -0.00745851 -4.65442e-20)
(-0.0252534 -0.215582 -7.28539e-20)
(-0.0278646 -0.232343 3.29415e-20)
(-0.0488858 -0.212252 -2.10105e-19)
(-0.0423032 -0.22932 -2.02789e-19)
(-0.0852495 -0.19971 0)
(-0.0759847 -0.222059 9.20381e-20)
(-0.124825 -0.180439 0)
(-0.115098 -0.204461 1.95042e-19)
(-0.161896 -0.156773 1.2266e-19)
(-0.152516 -0.181529 -1.00455e-19)
(-0.193877 -0.131799 2.44867e-19)
(-0.187152 -0.155453 1.05239e-19)
(-0.224358 -0.10673 2.33103e-19)
(-0.21868 -0.129264 1.20084e-19)
(-0.262531 -0.0785632 1.01023e-20)
(-0.253113 -0.100975 1.22105e-19)
(-0.310016 -0.0440633 -1.89007e-19)
(-0.296288 -0.0650536 -1.82696e-19)
(-0.351844 -0.0103741 -1.03662e-21)
(-0.340091 -0.0240861 -8.10205e-20)
(-0.370442 0.00634435 1.72967e-21)
(-0.365757 0.00531772 1.55898e-19)
(-0.362291 0.00809132 -1.57385e-19)
(-0.36198 -0.00285507 -3.78108e-20)
(-0.0419822 -0.233811 -7.17411e-20)
(-0.041036 -0.243526 3.93346e-20)
(-0.0696772 -0.234039 8.75063e-20)
(-0.0634229 -0.24712 8.41601e-21)
(-0.106072 -0.224228 2.90545e-19)
(-0.0965395 -0.242933 2.39368e-20)
(-0.144306 -0.205306 9.53181e-20)
(-0.133657 -0.227748 1.09888e-19)
(-0.180475 -0.181 -1.17987e-19)
(-0.170082 -0.205245 -1.79263e-19)
(-0.213508 -0.153498 -1.63204e-20)
(-0.204682 -0.178774 -3.04936e-20)
(-0.2476 -0.12306 6.3821e-21)
(-0.238221 -0.149675 -7.102e-20)
(-0.287579 -0.0872916 -7.26796e-20)
(-0.274823 -0.115511 1.55467e-19)
(-0.328713 -0.0459779 -8.01218e-20)
(-0.314142 -0.0731137 5.75945e-20)
(-0.355755 -0.00893433 7.53687e-20)
(-0.345336 -0.0283175 -1.08161e-19)
(-0.356648 0.00784448 1.33596e-21)
(-0.353857 0.0021094 7.29254e-20)
(-0.335059 0.00451032 -1.52744e-20)
(-0.333458 -0.0028797 -6.8975e-20)
(-0.0615973 -0.248375 1.29707e-19)
(-0.0568317 -0.250828 1.23049e-19)
(-0.0907612 -0.251483 -5.91642e-20)
(-0.0847005 -0.259496 -4.01389e-20)
(-0.125215 -0.244314 -1.57738e-19)
(-0.115123 -0.258081 2.16773e-20)
(-0.161585 -0.22676 -1.64025e-19)
(-0.14896 -0.245603 -8.76035e-20)
(-0.197146 -0.202571 -8.49202e-20)
(-0.18397 -0.224114 -2.55904e-20)
(-0.231532 -0.173792 -8.07624e-20)
(-0.218576 -0.197554 -6.00356e-20)
(-0.267056 -0.140189 7.2301e-20)
(-0.252987 -0.166809 -7.25682e-20)
(-0.303856 -0.100022 2.7734e-19)
(-0.288071 -0.129635 1.46508e-19)
(-0.334295 -0.0552192 1.43424e-20)
(-0.319668 -0.084783 1.33725e-19)
(-0.345734 -0.0165585 -1.12697e-19)
(-0.337352 -0.0394203 -1.28288e-20)
(-0.33155 0.00116073 5.99527e-20)
(-0.331388 -0.00909713 -4.62738e-20)
(-0.302047 -0.00588142 -3.80318e-21)
(-0.29781 -0.00797261 6.42987e-20)
(-0.0805635 -0.259176 -3.73454e-20)
(-0.0717842 -0.256502 5.92503e-21)
(-0.109368 -0.263129 4.57782e-20)
(-0.103155 -0.266408 -3.76361e-21)
(-0.140211 -0.257674 9.44425e-20)
(-0.128958 -0.265593 5.3022e-20)
(-0.17396 -0.241444 5.30957e-20)
(-0.158569 -0.254785 0)
(-0.20844 -0.217554 1.28066e-21)
(-0.1913 -0.234157 5.36168e-20)
(-0.242656 -0.188356 -5.15366e-20)
(-0.224983 -0.207467 -2.15059e-20)
(-0.276389 -0.15378 0)
(-0.258237 -0.176137 -2.96661e-20)
(-0.306798 -0.112823 0)
(-0.28925 -0.138845 4.63729e-20)
(-0.326041 -0.0684461 9.73809e-20)
(-0.312513 -0.0955722 0)
(-0.324953 -0.0309326 4.87759e-20)
(-0.319571 -0.0532444 9.83367e-20)
(-0.301223 -0.0132544 -1.06126e-19)
(-0.304879 -0.0250681 -6.84799e-21)
(-0.272401 -0.0210462 -1.4214e-19)
(-0.263641 -0.0203801 -5.93642e-20)
(-0.0954533 -0.26747 4.11267e-20)
(-0.0839264 -0.264577 6.79773e-21)
(-0.123014 -0.26804 -4.76566e-22)
(-0.114374 -0.266869 5.67815e-20)
(-0.148809 -0.261717 -4.16032e-20)
(-0.134923 -0.264803 -2.4424e-20)
(-0.178592 -0.245837 0)
(-0.159471 -0.252794 1.52962e-20)
(-0.210566 -0.222013 3.08392e-20)
(-0.189014 -0.232478 -1.29395e-20)
(-0.242803 -0.192933 1.82665e-21)
(-0.220918 -0.205792 5.70336e-20)
(-0.272888 -0.159256 1.68724e-20)
(-0.251814 -0.174912 -4.31787e-20)
(-0.296728 -0.120791 4.68326e-20)
(-0.278376 -0.139845 -2.38393e-21)
(-0.307761 -0.080641 0)
(-0.2954 -0.101268 -3.05275e-20)
(-0.300167 -0.0474813 4.07727e-20)
(-0.29683 -0.0649026 6.97829e-20)
(-0.274867 -0.0317036 -3.97972e-20)
(-0.28037 -0.0408402 1.41372e-20)
(-0.251847 -0.0363803 -4.69198e-20)
(-0.242147 -0.0365037 -3.46974e-20)
(-0.107967 -0.269536 3.74171e-20)
(-0.0879884 -0.274634 1.87026e-21)
(-0.129453 -0.264937 4.31701e-20)
(-0.120283 -0.271057 1.40087e-20)
(-0.147985 -0.255509 3.31685e-20)
(-0.133092 -0.260379 1.25236e-20)
(-0.17234 -0.23809 2.37872e-21)
(-0.150932 -0.24189 6.94338e-21)
(-0.201307 -0.21386 1.08922e-20)
(-0.175715 -0.21788 -1.31752e-20)
(-0.231283 -0.185502 1.52759e-20)
(-0.204992 -0.190276 1.54172e-20)
(-0.258062 -0.153999 -5.89507e-20)
(-0.233273 -0.160961 -2.1727e-20)
(-0.277508 -0.119992 -7.67019e-20)
(-0.256318 -0.129675 -3.2427e-20)
(-0.284771 -0.0862524 3.96227e-20)
(-0.269656 -0.0973217 -1.22812e-20)
(-0.276687 -0.0592607 4.26971e-20)
(-0.269275 -0.0681246 3.544e-20)
(-0.255718 -0.0461786 1.24174e-20)
(-0.254632 -0.0490544 1.4659e-21)
(-0.230514 -0.0449652 1.07044e-20)
(-0.230099 -0.0486247 -5.99316e-21)
(-0.100396 -0.290575 -2.42867e-20)
(-0.0628149 -0.201621 -1.1898e-21)
(-0.121353 -0.2717 -1.55403e-20)
(-0.0839303 -0.206475 -1.9024e-20)
(-0.134224 -0.249385 -1.97092e-20)
(-0.0941108 -0.208698 -2.11095e-20)
(-0.154825 -0.221881 -1.43005e-20)
(-0.116808 -0.204647 -2.3475e-20)
(-0.180591 -0.192001 -1.10605e-20)
(-0.146557 -0.189135 9.61456e-21)
(-0.207636 -0.163692 -1.96867e-20)
(-0.178185 -0.163187 -1.87745e-20)
(-0.23137 -0.135364 3.53636e-21)
(-0.204061 -0.134712 5.68824e-21)
(-0.247773 -0.106692 3.67392e-20)
(-0.222856 -0.1064 1.53302e-20)
(-0.253214 -0.079745 -1.92021e-20)
(-0.232314 -0.0796405 1.10541e-20)
(-0.245812 -0.059039 -1.08895e-20)
(-0.229828 -0.0571586 -1.57052e-20)
(-0.227253 -0.0493042 1.85503e-21)
(-0.214903 -0.0433889 9.7647e-20)
(-0.20196 -0.0518885 -1.07952e-19)
(-0.190244 -0.0417042 -1.4656e-19)
(-0.199802 -0.0431924 3.99354e-20)
(-0.236622 -0.0582502 -3.79124e-19)
(-0.234518 -0.0303322 2.55138e-19)
(-0.271558 -0.0505575 3.45724e-19)
(-0.259665 -0.0233363 9.16071e-20)
(-0.294881 -0.0490423 0)
(-0.271058 -0.0215004 4.48287e-20)
(-0.30486 -0.0519492 1.88434e-19)
(-0.269653 -0.0214009 -5.63047e-21)
(-0.303494 -0.0536342 -1.81747e-19)
(-0.255454 -0.0194331 2.58179e-21)
(-0.2925 -0.0561606 4.3993e-20)
(-0.23077 -0.014488 -4.37819e-20)
(-0.27413 -0.055491 -4.48545e-21)
(-0.198937 -0.00610574 -5.43337e-21)
(-0.249359 -0.0504618 -9.38362e-21)
(-0.164712 0.00742548 -9.8472e-20)
(-0.219489 -0.0390541 7.85262e-21)
(-0.135634 0.0268119 -8.72619e-22)
(-0.185543 -0.016845 -1.00303e-19)
(-0.12167 0.0451122 -5.17418e-20)
(-0.150059 0.016898 1.44824e-19)
(-0.127433 0.0447561 -6.50043e-20)
(-0.316918 -0.0523252 -7.25584e-20)
(-0.331822 -0.042576 -7.73168e-21)
(-0.338976 -0.0557442 1.01394e-19)
(-0.3539 -0.0451938 1.03089e-19)
(-0.34502 -0.0649983 9.69258e-20)
(-0.358748 -0.0552469 0)
(-0.340906 -0.0744612 -3.572e-20)
(-0.352602 -0.0672927 1.31816e-19)
(-0.329538 -0.0801976 -1.30404e-19)
(-0.340903 -0.0779162 -2.06711e-19)
(-0.314981 -0.0829546 3.62849e-20)
(-0.327745 -0.0840714 -2.59249e-20)
(-0.295869 -0.0824116 3.10681e-20)
(-0.313004 -0.0890768 6.23568e-20)
(-0.270462 -0.0755295 4.07926e-21)
(-0.29631 -0.0910576 -1.69764e-20)
(-0.236862 -0.0570659 8.00141e-21)
(-0.275191 -0.0862328 2.4316e-21)
(-0.195439 -0.0224687 4.05446e-20)
(-0.245073 -0.0658246 0)
(-0.156133 0.0209938 1.30739e-19)
(-0.201273 -0.0196642 1.12169e-20)
(-0.151064 0.0392141 1.29871e-19)
(-0.368337 -0.0386881 1.78249e-19)
(-0.372845 -0.0274052 1.80957e-19)
(-0.372154 -0.0495286 0)
(-0.374701 -0.0414647 -1.02975e-19)
(-0.364563 -0.0635956 2.82689e-20)
(-0.363198 -0.0608376 1.08268e-19)
(-0.352148 -0.0770226 -4.39394e-20)
(-0.347194 -0.0787344 2.86984e-20)
(-0.338993 -0.0884214 -9.92449e-20)
(-0.331821 -0.0920948 -4.5136e-20)
(-0.326035 -0.0971549 2.0712e-22)
(-0.318748 -0.100447 -2.76716e-20)
(-0.314359 -0.103499 1.39603e-20)
(-0.308428 -0.105669 2.75827e-20)
(-0.301944 -0.106101 -1.95118e-20)
(-0.300799 -0.109548 -1.34103e-20)
(-0.283108 -0.0983346 -6.42066e-21)
(-0.293278 -0.111511 5.31053e-21)
(-0.248516 -0.0674069 -3.37665e-20)
(-0.279378 -0.103975 2.20495e-20)
(-0.194858 -0.00514259 3.90424e-21)
(-0.248869 -0.0666755 -5.83792e-20)
(-0.190607 0.0182614 3.59093e-20)
(-0.378121 -0.0311257 -1.04563e-19)
(-0.379321 -0.0183546 -4.58962e-20)
(-0.365149 -0.0533143 5.05792e-21)
(-0.364456 -0.0430744 -1.54196e-19)
(-0.345941 -0.0757984 1.09938e-19)
(-0.342285 -0.0700605 1.11469e-19)
(-0.32716 -0.0927749 2.70774e-20)
(-0.32118 -0.0915572 -4.85385e-20)
(-0.312178 -0.103044 2.70774e-20)
(-0.304803 -0.10467 2.74543e-20)
(-0.301342 -0.108394 0)
(-0.293187 -0.111173 -2.14613e-20)
(-0.294804 -0.111671 0)
(-0.285986 -0.113173 2.13554e-20)
(-0.292196 -0.115254 1.2101e-20)
(-0.283015 -0.11362 -2.37658e-21)
(-0.290332 -0.11705 3.44907e-20)
(-0.283355 -0.115298 3.22741e-20)
(-0.277959 -0.102456 -2.08181e-21)
(-0.283076 -0.116887 -5.78235e-20)
(-0.235578 -0.0439373 -2.68412e-20)
(-0.27427 -0.0993903 3.79307e-20)
(-0.236733 -0.0142302 -1.53773e-19)
(-0.364311 -0.0303097 -9.5402e-20)
(-0.364642 -0.0148219 -2.99004e-21)
(-0.340996 -0.0604159 -4.88578e-20)
(-0.338259 -0.0469007 1.35515e-19)
(-0.317713 -0.0868657 -4.92237e-20)
(-0.310895 -0.078161 -5.24119e-20)
(-0.299188 -0.10469 -4.92237e-20)
(-0.289282 -0.100836 -5.0836e-20)
(-0.286081 -0.11386 -2.17643e-20)
(-0.275678 -0.113466 0)
(-0.277944 -0.116486 1.57501e-22)
(-0.268495 -0.118033 -2.20439e-20)
(-0.273894 -0.115366 1.92468e-20)
(-0.265689 -0.117307 2.41396e-20)
(-0.273635 -0.114008 1.78769e-20)
(-0.266047 -0.114294 -2.27538e-21)
(-0.277543 -0.115608 -6.27474e-20)
(-0.269021 -0.112 2.05476e-20)
(-0.281348 -0.114053 -1.45902e-20)
(-0.273515 -0.113389 -8.32919e-20)
(-0.261086 -0.0738308 -8.9886e-20)
(-0.277941 -0.111553 2.80343e-20)
(-0.271502 -0.0449831 -7.41228e-20)
(-0.336457 -0.0317296 2.34594e-19)
(-0.336006 -0.0151565 5.09709e-20)
(-0.307237 -0.0659079 1.36033e-19)
(-0.302041 -0.0506046 1.43163e-19)
(-0.283042 -0.0937209 -5.48867e-20)
(-0.272543 -0.0832069 -1.0314e-19)
(-0.266986 -0.110662 1.76673e-22)
(-0.253168 -0.105214 -4.26281e-20)
(-0.258867 -0.11789 0)
(-0.245502 -0.115746 0)
(-0.256551 -0.118555 2.2332e-21)
(-0.244731 -0.117923 1.58966e-20)
(-0.257687 -0.115668 2.34189e-21)
(-0.247482 -0.115391 -1.3448e-20)
(-0.260816 -0.111772 1.18151e-22)
(-0.252175 -0.11102 1.1956e-22)
(-0.265996 -0.109765 0)
(-0.258032 -0.106977 -1.33937e-20)
(-0.274554 -0.111352 -3.68825e-20)
(-0.264976 -0.105373 1.31799e-20)
(-0.272159 -0.0881624 2.78369e-20)
(-0.27262 -0.108868 -1.38949e-20)
(-0.291267 -0.0645838 8.38131e-20)
(-0.299043 -0.0331036 -3.7803e-20)
(-0.298955 -0.0191965 1.52842e-20)
(-0.266214 -0.0674148 -9.53765e-20)
(-0.260918 -0.0547457 3.11284e-20)
(-0.244731 -0.0945356 -9.64394e-20)
(-0.233744 -0.0841935 -5.05658e-20)
(-0.234354 -0.109497 -4.33235e-20)
(-0.221002 -0.104082 -4.38056e-20)
(-0.23289 -0.114632 1.60885e-20)
(-0.220336 -0.111705 -2.84316e-20)
(-0.236252 -0.11372 -2.69612e-22)
(-0.224527 -0.112172 1.62675e-20)
(-0.242055 -0.10986 -1.58974e-20)
(-0.230779 -0.108683 -1.60743e-20)
(-0.249241 -0.105432 -1.35553e-20)
(-0.238397 -0.103651 0)
(-0.25741 -0.101982 -1.63411e-23)
(-0.247033 -0.0990532 -4.00436e-21)
(-0.267727 -0.102373 3.70492e-20)
(-0.257657 -0.0958004 -1.17152e-20)
(-0.275904 -0.0897283 2.37102e-20)
(-0.266538 -0.0981852 -1.46447e-20)
(-0.299242 -0.0710013 -4.02927e-20)
(-0.258682 -0.0361173 7.67091e-20)
(-0.26182 -0.0273172 4.3914e-21)
(-0.228342 -0.0682348 8.09873e-20)
(-0.226391 -0.0584583 8.1832e-20)
(-0.212758 -0.0917285 0)
(-0.206954 -0.083432 0)
(-0.210283 -0.103996 -2.87516e-20)
(-0.201797 -0.0985665 0)
(-0.21372 -0.107652 -2.87516e-20)
(-0.203767 -0.104567 -2.16015e-21)
(-0.219773 -0.106031 0)
(-0.208418 -0.104487 0)
(-0.227362 -0.101618 0)
(-0.214787 -0.100615 0)
(-0.236486 -0.0964851 9.81099e-21)
(-0.223149 -0.0948493 0)
(-0.247434 -0.0920097 -1.58484e-20)
(-0.23349 -0.089066 4.94164e-21)
(-0.260619 -0.0900165 -6.39444e-20)
(-0.247406 -0.0841464 -1.01899e-20)
(-0.275108 -0.0821272 -7.92043e-20)
(-0.260285 -0.0833342 -4.24127e-20)
(-0.298048 -0.0644567 -1.00729e-20)
(-0.227659 -0.0443843 0)
(-0.235934 -0.0381352 4.78359e-20)
(-0.205791 -0.0703345 0)
(-0.209213 -0.0624139 0)
(-0.198081 -0.0885663 0)
(-0.196466 -0.0816825 -4.94535e-20)
(-0.197565 -0.0982171 2.63326e-20)
(-0.191058 -0.0939886 0)
(-0.199743 -0.100915 2.63326e-20)
(-0.189345 -0.0993614 1.38239e-22)
(-0.204008 -0.0986165 0)
(-0.190788 -0.0986819 1.55123e-20)
(-0.21078 -0.0932005 0)
(-0.19553 -0.0936138 -4.25493e-21)
(-0.220499 -0.0865578 -5.02409e-21)
(-0.203863 -0.0860782 9.30672e-22)
(-0.233547 -0.0801299 9.66212e-21)
(-0.215623 -0.0780051 2.31288e-22)
(-0.25062 -0.0756808 1.02109e-20)
(-0.232307 -0.0700766 1.48304e-20)
(-0.270831 -0.0671098 1.36776e-20)
(-0.25054 -0.064928 2.51733e-21)
(-0.289988 -0.0455897 3.17808e-20)
(-0.215549 -0.0540047 4.83101e-20)
(-0.223019 -0.0482624 6.33992e-21)
(-0.199911 -0.0729616 -4.99437e-20)
(-0.20128 -0.066374 0)
(-0.190593 -0.0873581 -4.99437e-20)
(-0.1854 -0.0821287 -7.3069e-21)
(-0.184184 -0.0954946 -2.67151e-20)
(-0.173497 -0.0932918 3.52703e-20)
(-0.181272 -0.0971247 -1.05549e-20)
(-0.16685 -0.0974643 -1.79592e-20)
(-0.182673 -0.0932562 1.11423e-20)
(-0.165885 -0.0949382 1.95407e-20)
(-0.18862 -0.0856477 -3.35721e-21)
(-0.170121 -0.0874919 -6.88705e-21)
(-0.199119 -0.0761992 5.60558e-21)
(-0.179121 -0.0772005 -1.42018e-21)
(-0.214376 -0.0662322 4.66569e-21)
(-0.192404 -0.0658995 5.99376e-21)
(-0.235071 -0.0573143 6.29713e-21)
(-0.211701 -0.0539684 -3.61168e-22)
(-0.261408 -0.0443672 8.54179e-21)
(-0.234584 -0.0428598 1.99562e-20)
(-0.275213 -0.0140146 -1.64775e-20)
(-0.20683 -0.0611211 -4.56767e-20)
(-0.203902 -0.0537517 -1.23754e-19)
(-0.186344 -0.0764486 4.5674e-20)
(-0.178148 -0.0691884 0)
(-0.16895 -0.0891645 8.12744e-20)
(-0.155822 -0.0836316 4.60751e-20)
(-0.15706 -0.0956863 4.46125e-20)
(-0.14019 -0.0934181 -2.38017e-20)
(-0.151985 -0.0951566 1.24534e-20)
(-0.133044 -0.0955909 2.16965e-20)
(-0.153375 -0.0887106 1.31313e-21)
(-0.133423 -0.0906921 -5.73686e-21)
(-0.160297 -0.0782635 -4.74197e-21)
(-0.139557 -0.0807322 -2.47276e-21)
(-0.172147 -0.0654921 -1.03964e-21)
(-0.150157 -0.0677484 -2.0569e-21)
(-0.189346 -0.0508932 9.41844e-22)
(-0.164479 -0.0529965 2.32436e-22)
(-0.213556 -0.0345537 1.78534e-20)
(-0.184434 -0.0359765 7.32689e-22)
(-0.244937 -0.00951173 -3.22131e-21)
(-0.209476 -0.0175679 2.39097e-20)
(-0.247808 0.0294693 -4.00403e-20)
(-0.173832 -0.0633142 -7.83645e-20)
(-0.160271 -0.051246 8.88189e-20)
(-0.14761 -0.0777694 0)
(-0.130612 -0.0666955 -3.35298e-20)
(-0.127485 -0.0890749 -6.10961e-20)
(-0.107747 -0.0812638 3.21874e-20)
(-0.116681 -0.0937715 -4.83309e-20)
(-0.0952566 -0.0898068 -3.58719e-20)
(-0.114634 -0.0911299 3.24732e-21)
(-0.0928981 -0.0903431 1.28717e-20)
(-0.119363 -0.0825317 -9.51787e-21)
(-0.0980259 -0.0837581 -9.59725e-21)
(-0.12885 -0.0700023 2.42166e-22)
(-0.107807 -0.0722823 0)
(-0.141828 -0.0549548 -8.4316e-22)
(-0.12034 -0.057919 3.27056e-22)
(-0.158375 -0.0367854 8.11255e-22)
(-0.134609 -0.0413066 3.95867e-22)
(-0.18159 -0.0120626 -1.12966e-20)
(-0.150764 -0.0198036 -4.01622e-22)
(-0.216445 0.0397606 7.91947e-21)
(-0.165638 0.00980009 -1.25102e-20)
(-0.173344 0.0790192 2.04958e-20)
(-0.119152 0.0544659 -1.18286e-19)
(-0.133016 0.0432866 9.35571e-20)
(-0.108083 0.0562368 -5.98865e-20)
(-0.12635 0.0384248 -6.10001e-20)
(-0.0957721 0.0579861 -1.14708e-19)
(-0.114401 0.0403605 0)
(-0.0849055 0.0628297 5.16806e-21)
(-0.101193 0.0482758 -7.20086e-21)
(-0.0774689 0.0711988 -3.5207e-19)
(-0.089295 0.0606711 2.27652e-19)
(-0.0730482 0.0808971 -1.72504e-19)
(-0.0823751 0.0732332 -6.77202e-19)
(-0.0716484 0.091128 2.96939e-19)
(-0.0793274 0.0880583 5.01731e-19)
(-0.0711218 0.1014 -1.1892e-19)
(-0.0803334 0.103233 0)
(-0.0694449 0.11123 -3.68385e-19)
(-0.08307 0.118054 -1.97715e-19)
(-0.0673803 0.121928 1.07379e-19)
(-0.0821129 0.135252 1.18797e-19)
(-0.0645659 0.138182 1.85388e-19)
(-0.0765954 0.160964 8.2526e-20)
(-0.0683545 0.196594 -1.78818e-19)
(-0.0567619 0.164599 4.50193e-20)
(-0.139549 0.0317781 1.53309e-19)
(-0.15164 0.0377824 6.88316e-20)
(-0.129048 0.027918 0)
(-0.142528 0.0256785 3.36716e-19)
(-0.115539 0.0348278 1.01464e-19)
(-0.1277 0.0307715 -8.39629e-20)
(-0.1028 0.048553 2.0474e-19)
(-0.111864 0.0467795 1.907e-19)
(-0.0918024 0.0655488 -9.78957e-20)
(-0.0981904 0.0672454 1.95249e-19)
(-0.0855903 0.0863299 5.9178e-21)
(-0.0864882 0.0921568 -2.04535e-19)
(-0.0836552 0.107631 2.03046e-19)
(-0.0802724 0.116054 3.81512e-19)
(-0.0861146 0.127181 -9.56681e-20)
(-0.0796225 0.138249 -8.93934e-20)
(-0.0875756 0.148003 2.81223e-19)
(-0.0831155 0.159579 -2.58672e-19)
(-0.081592 0.180201 1.13849e-19)
(-0.0787241 0.190823 5.37289e-19)
(-0.0692149 0.226551 -2.69026e-19)
(-0.0643218 0.2379 -4.06374e-19)
(-0.049793 0.290157 6.36298e-20)
(-0.0575197 0.276623 7.08442e-20)
(-0.153509 0.0250467 2.41924e-19)
(-0.173274 0.0278583 5.51619e-20)
(-0.141297 0.02136 2.65547e-19)
(-0.162262 0.0146954 1.32986e-19)
(-0.1253 0.0363701 3.63722e-21)
(-0.146555 0.0286782 6.94051e-20)
(-0.108615 0.0616392 1.80809e-19)
(-0.129272 0.0552307 -1.50064e-19)
(-0.0957294 0.0909495 9.17811e-20)
(-0.110674 0.0869888 -1.55597e-19)
(-0.0872678 0.118866 1.78048e-19)
(-0.094957 0.11894 2.37763e-21)
(-0.0831884 0.144177 8.07876e-20)
(-0.0848212 0.147597 3.401e-19)
(-0.0820033 0.167441 -2.55063e-19)
(-0.0800045 0.171912 -1.63732e-19)
(-0.0775364 0.198727 -1.34549e-20)
(-0.0765196 0.199588 -1.66643e-19)
(-0.0640841 0.246756 1.84279e-20)
(-0.062319 0.244286 1.55868e-19)
(-0.0469242 0.301494 -6.89556e-20)
(-0.0408182 0.30063 -8.29548e-20)
(-0.0264442 0.348165 1.66808e-19)
(-0.0368336 0.345198 4.01562e-21)
(-0.174929 0.0137971 -4.76439e-20)
(-0.195887 0.0212721 -9.88609e-20)
(-0.164792 0.018626 -6.22775e-20)
(-0.184882 0.0142243 -3.33396e-20)
(-0.149338 0.044839 -8.4516e-20)
(-0.171159 0.0388244 8.97335e-20)
(-0.131415 0.0790224 -5.00905e-19)
(-0.153562 0.0733565 -2.49884e-19)
(-0.11262 0.115077 -2.47602e-19)
(-0.132114 0.110171 -2.57993e-19)
(-0.0964898 0.148145 1.70944e-19)
(-0.110637 0.144983 -1.41371e-19)
(-0.0855544 0.175481 8.46512e-20)
(-0.0945279 0.174989 1.70597e-19)
(-0.0767915 0.202786 -7.71536e-20)
(-0.0828075 0.201153 -2.05294e-19)
(-0.0625447 0.24364 0)
(-0.0684556 0.236227 2.35948e-19)
(-0.0406159 0.298141 5.50421e-20)
(-0.0434061 0.288306 -1.07301e-19)
(-0.0218484 0.347442 1.60623e-19)
(-0.0176612 0.341685 1.08527e-20)
(-0.00743473 0.374446 -1.21174e-19)
(-0.0180942 0.374941 1.0558e-19)
(-0.195282 0.0151307 -9.13391e-20)
(-0.216229 0.0207499 -2.578e-19)
(-0.188351 0.030771 1.21388e-19)
(-0.207793 0.0245775 1.95696e-19)
(-0.17373 0.0643745 -7.18257e-20)
(-0.197387 0.055949 -7.27484e-20)
(-0.155056 0.103035 0)
(-0.179104 0.0945591 1.19573e-19)
(-0.133314 0.140597 -1.4585e-19)
(-0.156488 0.132618 0)
(-0.112041 0.173175 -1.33049e-19)
(-0.131827 0.167678 -1.47723e-19)
(-0.093851 0.201001 -1.22228e-19)
(-0.110043 0.197938 1.26122e-19)
(-0.0754175 0.233723 1.09281e-19)
(-0.089818 0.227871 -1.30516e-19)
(-0.0504424 0.2808 1.28525e-19)
(-0.0638327 0.269146 3.39808e-19)
(-0.0216484 0.332713 -1.55518e-19)
(-0.0295881 0.320705 -2.05163e-19)
(-0.00365569 0.368636 -2.78626e-19)
(-0.00154 0.362586 1.21193e-19)
(0.00417222 0.377184 -1.51122e-19)
(-0.00733469 0.37769 -2.32377e-19)
(-0.215605 0.0252922 0)
(-0.232347 0.0278745 0)
(-0.212291 0.0489934 0)
(-0.229343 0.0424027 -9.13717e-20)
(-0.199768 0.0853983 1.21129e-19)
(-0.222098 0.0761308 9.23482e-20)
(-0.180527 0.125006 1.21129e-19)
(-0.204527 0.115294 -1.84306e-19)
(-0.156898 0.162091 0)
(-0.181634 0.152734 1.92967e-19)
(-0.131975 0.194064 1.22753e-19)
(-0.155609 0.187383 -1.87757e-19)
(-0.106973 0.224504 1.22753e-19)
(-0.129489 0.218895 1.33107e-19)
(-0.0788978 0.26258 9.87234e-20)
(-0.101298 0.253271 1.6832e-19)
(-0.0444941 0.309952 -1.50314e-21)
(-0.0655144 0.29633 -5.68961e-20)
(-0.0107864 0.351759 7.96862e-20)
(-0.0246259 0.340028 -1.04617e-19)
(0.00614629 0.370451 2.59007e-19)
(0.00490618 0.365704 3.13764e-20)
(0.0079898 0.362337 2.30233e-19)
(-0.00274985 0.362095 8.6849e-20)
(-0.233825 0.0420639 -9.24745e-20)
(-0.243502 0.0410814 -9.8681e-20)
(-0.234067 0.0698235 -8.90191e-21)
(-0.247117 0.0635563 -2.72679e-20)
(-0.224282 0.106268 -2.15819e-19)
(-0.242941 0.0967227 9.45028e-20)
(-0.205379 0.144539 -1.13603e-19)
(-0.227788 0.133882 -1.45005e-19)
(-0.181123 0.180738 5.2731e-21)
(-0.205318 0.170352 3.0608e-20)
(-0.153692 0.21378 -1.79982e-19)
(-0.178905 0.204977 -1.03843e-19)
(-0.123354 0.247843 1.7935e-19)
(-0.149898 0.23851 3.16749e-20)
(-0.0877142 0.287735 1.06883e-20)
(-0.11587 0.275056 2.44129e-20)
(-0.0465193 0.32876 -1.64527e-19)
(-0.0736454 0.314261 -7.63159e-20)
(-0.00946603 0.355755 -1.54037e-19)
(-0.0289568 0.345339 -5.90321e-21)
(0.00752892 0.356673 -3.3654e-21)
(0.00157061 0.353826 -1.99425e-19)
(0.00426528 0.335053 -5.35579e-20)
(-0.00287814 0.333493 1.44067e-19)
(-0.248364 0.0617166 -4.48058e-20)
(-0.250776 0.0568976 -1.49911e-19)
(-0.251472 0.0909367 6.69809e-20)
(-0.259456 0.0848418 6.56357e-20)
(-0.24431 0.125433 1.65551e-19)
(-0.258036 0.115309 7.73846e-21)
(-0.226783 0.161854 2.75446e-21)
(-0.245573 0.149199 1.67278e-19)
(-0.202643 0.197454 -7.87268e-20)
(-0.224114 0.184264 -1.74509e-19)
(-0.173944 0.231855 1.0171e-19)
(-0.197606 0.218898 1.77758e-19)
(-0.140465 0.267347 -1.26113e-19)
(-0.166957 0.253299 8.37668e-20)
(-0.100463 0.304053 -6.23826e-20)
(-0.129943 0.288316 -1.45264e-19)
(-0.0558218 0.334372 7.93334e-20)
(-0.0853015 0.319792 1.39249e-19)
(-0.0171994 0.345737 -5.38573e-20)
(-0.0400998 0.337355 0)
(0.000689286 0.331533 -2.5104e-19)
(-0.0097463 0.331338 -4.70022e-20)
(-0.00629788 0.302001 -2.69126e-20)
(-0.00815152 0.297758 -5.92656e-20)
(-0.259129 0.0806847 -4.99836e-20)
(-0.256432 0.0718394 -1.65885e-20)
(-0.263067 0.109562 1.97966e-21)
(-0.266318 0.103292 -3.56886e-20)
(-0.257583 0.140439 7.82002e-21)
(-0.265487 0.129105 5.06678e-20)
(-0.241382 0.174231 -1.01319e-20)
(-0.254661 0.158803 -4.77092e-20)
(-0.217531 0.208744 8.39423e-20)
(-0.234052 0.191578 -8.88833e-20)
(-0.188407 0.242964 1.53288e-19)
(-0.207402 0.225281 7.87146e-20)
(-0.153961 0.276648 5.94868e-20)
(-0.17616 0.258513 6.00707e-20)
(-0.113198 0.306951 5.3663e-20)
(-0.139034 0.289446 1.58484e-20)
(-0.0690343 0.326075 5.3663e-20)
(-0.0959985 0.31259 3.32565e-20)
(-0.0316374 0.324917 3.25929e-21)
(-0.0538898 0.319551 0)
(-0.013881 0.301179 1.68026e-19)
(-0.0257761 0.304838 3.29128e-21)
(-0.0216162 0.272402 1.70122e-19)
(-0.0207864 0.263584 1.1728e-19)
(-0.267412 0.0955383 -1.47568e-20)
(-0.264525 0.0839638 2.40271e-20)
(-0.267893 0.123156 7.88973e-21)
(-0.266745 0.114441 -5.20628e-20)
(-0.261562 0.149011 -6.35644e-21)
(-0.264614 0.135049 5.99935e-20)
(-0.245672 0.178827 -1.21047e-19)
(-0.252583 0.159661 6.67457e-21)
(-0.22187 0.210826 -8.30605e-20)
(-0.232258 0.189245 -8.53514e-20)
(-0.192849 0.243054 -9.61546e-21)
(-0.205601 0.22116 -9.70458e-21)
(-0.159295 0.273079 1.60055e-20)
(-0.174798 0.252021 -1.52166e-20)
(-0.121032 0.296819 -4.00852e-21)
(-0.139886 0.278502 -1.9132e-20)
(-0.0811305 0.307759 -2.11407e-20)
(-0.10155 0.295427 2.92934e-20)
(-0.0481629 0.300147 0)
(-0.0654371 0.296806 -4.33178e-20)
(-0.0324078 0.274899 0)
(-0.0415211 0.280378 -3.37325e-20)
(-0.0370242 0.251937 -3.89473e-20)
(-0.0370758 0.242224 0)
(-0.269464 0.107989 -2.81865e-20)
(-0.274583 0.087973 -7.35802e-22)
(-0.264765 0.129505 1.00003e-20)
(-0.270947 0.120285 -2.489e-20)
(-0.255287 0.14811 6.47511e-20)
(-0.26018 0.133201 1.81041e-20)
(-0.237823 0.172512 3.48831e-20)
(-0.241613 0.151069 4.72155e-20)
(-0.213598 0.201503 -1.19215e-20)
(-0.217555 0.175889 -4.32436e-21)
(-0.185286 0.23146 -1.53589e-20)
(-0.189966 0.205164 -1.1682e-20)
(-0.153889 0.258179 -4.82551e-20)
(-0.160713 0.233398 -1.54938e-20)
(-0.12007 0.277545 1.90706e-20)
(-0.129557 0.256364 -3.97072e-20)
(-0.0865823 0.284761 6.80195e-21)
(-0.097414 0.269619 4.22056e-20)
(-0.0598181 0.276704 -7.77712e-20)
(-0.0684659 0.269211 4.59895e-20)
(-0.0468399 0.255818 -7.4987e-20)
(-0.0495847 0.2546 -5.59538e-20)
(-0.0455568 0.230522 2.02515e-20)
(-0.0492433 0.23023 -3.93116e-20)
(-0.290526 0.100376 -3.86743e-20)
(-0.201572 0.0627572 6.7933e-21)
(-0.271573 0.12139 -6.81294e-21)
(-0.20646 0.0839327 -1.68785e-20)
(-0.249136 0.134339 0)
(-0.208644 0.0942302 1.45491e-20)
(-0.221531 0.154962 -3.52065e-22)
(-0.204488 0.116949 1.05581e-20)
(-0.19164 0.180723 -1.35836e-20)
(-0.188822 0.146728 1.77841e-20)
(-0.16336 0.207732 -1.17855e-20)
(-0.162808 0.178298 -1.21254e-20)
(-0.135109 0.231395 -8.04722e-21)
(-0.134352 0.204093 0)
(-0.106587 0.247717 -1.87655e-20)
(-0.106131 0.222795 -8.11434e-21)
(-0.0798561 0.253104 8.63026e-20)
(-0.079533 0.23216 1.1528e-20)
(-0.0593775 0.2457 7.51389e-20)
(-0.0572628 0.229617 7.16208e-20)
(-0.0498055 0.22715 4.73858e-20)
(-0.0436972 0.214664 -4.7965e-20)
(-0.0524597 0.201822 2.84773e-20)
(-0.0421496 0.189989 6.3514e-20)
(-0.0433194 0.199513 2.21624e-19)
(-0.0583322 0.236284 2.95272e-19)
(-0.0304523 0.234138 -2.33761e-21)
(-0.0506097 0.271215 3.27707e-20)
(-0.0233849 0.259283 9.14203e-20)
(-0.0490177 0.294601 -5.0691e-20)
(-0.0214814 0.270718 1.14987e-19)
(-0.0518692 0.304653 1.59362e-19)
(-0.0213449 0.269351 6.35229e-20)
(-0.0535528 0.303336 -6.47027e-20)