/*--------------------------------*- C++ -*----------------------------------*\
| =========                 |                                                 |
| \\      /  F ield         | OpenFOAM: The Open Source CFD Toolbox           |
|  \\    /   O peration     | Version:  2.3.1                                 |
|   \\  /    A nd           | Web:      www.OpenFOAM.org                      |
|    \\/     M anipulation  |                                                 |
\*---------------------------------------------------------------------------*/
FoamFile
{
    version     2.0;
    format      ascii;
    class       surfaceScalarField;
    location    "0.85";
    object      phi;
}
// * * * * * * * * * * * * * * * * * * * * * * * * * * * * * * * * * * * * * //

dimensions      [0 3 -1 0 0 0 0];

internalField   nonuniform List<scalar> 
23326
(
-1.24126e-05
0.000111475
-9.90615e-05
-2.13157e-05
0.000126927
-0.000118023
-2.69456e-05
0.000141324
-0.000135694
-3.05845e-05
0.00015689
-0.000153251
-3.36998e-05
0.00016952
-0.000166404
-3.5901e-05
0.000181829
-0.000179628
-3.74097e-05
0.000192434
-0.000190925
-3.81787e-05
0.000201103
-0.000200334
-3.85689e-05
0.000207664
-0.000207274
-3.86263e-05
0.00021273
-0.000212672
-3.85353e-05
0.000216516
-0.000216607
0.000219262
-3.83701e-05
-0.000219427
-6.91195e-06
0.000118387
-1.36662e-05
0.000133681
-1.96987e-05
0.000147356
-2.41777e-05
0.000161369
-2.78517e-05
0.000173194
-3.05645e-05
0.000184542
-3.24625e-05
0.000194332
-3.3716e-05
0.000202356
-3.45034e-05
0.000208452
-3.49571e-05
0.000213184
-3.51766e-05
0.000216736
0.000219355
-3.52694e-05
-5.58063e-06
0.000123968
-1.08776e-05
0.000138977
-1.58815e-05
0.00015236
-1.99842e-05
0.000165471
-2.35205e-05
0.00017673
-2.62847e-05
0.000187306
-2.8337e-05
0.000196384
-2.97959e-05
0.000203815
-3.08595e-05
0.000209515
-3.15886e-05
0.000213913
-3.20573e-05
0.000217204
0.00021972
-3.24229e-05
-4.70005e-06
0.000128668
-9.26907e-06
0.000143546
-1.35493e-05
0.00015664
-1.71624e-05
0.000169084
-2.03556e-05
0.000179923
-2.29511e-05
0.000189901
-2.50108e-05
0.000198444
-2.65506e-05
0.000205355
-2.7718e-05
0.000210683
-2.86172e-05
0.000214812
-2.92869e-05
0.000217874
0.000220283
-2.985e-05
-3.84807e-06
0.000132516
-7.88327e-06
0.000147581
-1.16825e-05
0.000160439
-1.49526e-05
0.000172355
-1.7842e-05
0.000182812
-2.02863e-05
0.000192346
-2.22406e-05
0.000200398
-2.37811e-05
0.000206895
-2.50334e-05
0.000211935
-2.59733e-05
0.000215752
-2.67836e-05
0.000218684
0.000220929
-2.74292e-05
-3.20414e-06
0.00013572
-6.76427e-06
0.000151141
-1.01518e-05
0.000163827
-1.31254e-05
0.000175328
-1.58109e-05
0.000185498
-1.80422e-05
0.000194577
-1.99028e-05
0.000202259
-2.14384e-05
0.000208431
-2.26538e-05
0.000213151
-2.36709e-05
0.000216769
-2.45202e-05
0.000219534
0.000221659
-2.52507e-05
-2.75732e-06
0.000138478
-5.91713e-06
0.000154301
-8.94691e-06
0.000166857
-1.16667e-05
0.000178048
-1.40836e-05
0.000187915
-1.61812e-05
0.000196674
-1.79385e-05
0.000204016
-1.9384e-05
0.000209876
-2.06131e-05
0.00021438
-2.16533e-05
0.000217809
-2.25606e-05
0.000220441
0.00022247
-2.33716e-05
-2.42371e-06
0.000140902
-5.26048e-06
0.000157138
-7.98429e-06
0.00016958
-1.04254e-05
0.000180489
-1.26574e-05
0.000190147
-1.45998e-05
0.000198617
-1.62564e-05
0.000205673
-1.76319e-05
0.000211252
-1.88403e-05
0.000215588
-1.98853e-05
0.000218854
-2.07876e-05
0.000221343
0.000223267
-2.15844e-05
-2.1584e-06
0.00014306
-4.73051e-06
0.00015971
-7.19918e-06
0.000172049
-9.45088e-06
0.000182741
-1.1482e-05
0.000192178
-1.32546e-05
0.000200389
-1.48058e-05
0.000207224
-1.61522e-05
0.000212598
-1.72958e-05
0.000216732
-1.83068e-05
0.000219865
-1.92086e-05
0.000222245
0.000224135
-2.00764e-05
-1.93469e-06
0.000144995
-4.2747e-06
0.00016205
-6.53168e-06
0.000174306
-8.5915e-06
0.000184801
-1.04818e-05
0.000194068
-1.21297e-05
0.000202037
-1.35605e-05
0.000208655
-1.48082e-05
0.000213846
-1.5936e-05
0.000217859
-1.69263e-05
0.000220855
-1.78244e-05
0.000223143
0.000224948
-1.86378e-05
-1.74885e-06
0.000146743
-3.89831e-06
0.000164199
-5.96617e-06
0.000176374
-7.86595e-06
0.0001867
-9.59579e-06
0.000195798
-1.11246e-05
0.000203566
-1.24703e-05
0.000210001
-1.36537e-05
0.00021503
-1.47151e-05
0.000218921
-1.56741e-05
0.000221814
-1.65864e-05
0.000224055
0.000225736
-1.73735e-05
-1.58503e-06
0.000148328
-3.55878e-06
0.000166173
-5.46307e-06
0.000178278
-7.2465e-06
0.000188484
-8.82481e-06
0.000197376
-1.02535e-05
0.000204995
-1.15137e-05
0.000211261
-1.2635e-05
0.000216151
-1.36465e-05
0.000219932
-1.45735e-05
0.000222741
-1.53933e-05
0.000224875
0.000226528
-1.61859e-05
-1.44707e-06
0.000149776
-3.26573e-06
0.000167992
-5.03684e-06
0.000180049
-6.67523e-06
0.000190122
-8.16987e-06
0.000198871
-9.50218e-06
0.000206327
-1.06624e-05
0.000212421
-1.1728e-05
0.000217217
-1.26697e-05
0.000220874
-1.35496e-05
0.000223621
-1.43546e-05
0.00022568
0.000227205
-1.50317e-05
-1.32814e-06
0.000151104
-3.03239e-06
0.000169696
-4.66427e-06
0.000181681
-6.17443e-06
0.000191632
-7.56679e-06
0.000200263
-8.79083e-06
0.000207551
-9.9121e-06
0.000213542
-1.08961e-05
0.0002182
-1.18228e-05
0.000221801
-1.26925e-05
0.000224491
-1.34966e-05
0.000226484
0.000228034
-1.43251e-05
-1.21784e-06
0.000152322
-2.78776e-06
0.000171266
-4.33355e-06
0.000183227
-5.7463e-06
0.000193045
-7.02689e-06
0.000201544
-8.20079e-06
0.000208725
-9.23166e-06
0.000214573
-1.01957e-05
0.000219165
-1.10291e-05
0.000222634
-1.1827e-05
0.000225289
-1.25914e-05
0.000227249
0.000228701
-1.32583e-05
-1.12188e-06
0.000153443
-2.59e-06
0.000172734
-4.0207e-06
0.000184658
-5.3386e-06
0.000194363
-6.54267e-06
0.000202748
-7.62279e-06
0.000209805
-8.59906e-06
0.000215549
-9.48204e-06
0.000220048
-1.0332e-05
0.000223484
-1.11257e-05
0.000226083
-1.18471e-05
0.00022797
0.000229364
-1.25103e-05
-1.03621e-06
0.00015448
-2.39273e-06
0.000174091
-3.72968e-06
0.000185995
-4.97423e-06
0.000195607
-6.10265e-06
0.000203876
-7.12032e-06
0.000210823
-8.04068e-06
0.00021647
-8.91303e-06
0.00022092
-9.69349e-06
0.000224265
-1.04074e-05
0.000226796
-1.11037e-05
0.000228666
0.000230023
-1.17627e-05
-9.46924e-07
0.000155427
-2.2275e-06
0.000175371
-3.49221e-06
0.000187259
-4.66181e-06
0.000196777
-5.72523e-06
0.00020494
-6.6896e-06
0.000211787
-7.55845e-06
0.000217339
-8.30739e-06
0.000221669
-9.05916e-06
0.000225016
-9.76654e-06
0.000227504
-1.04394e-05
0.000229339
0.000230666
-1.10822e-05
-8.79473e-07
0.000156306
-2.0822e-06
0.000176574
-3.24934e-06
0.000188427
-4.35224e-06
0.00019788
-5.33053e-06
0.000205918
-6.23813e-06
0.000212695
-7.04147e-06
0.000218142
-7.83025e-06
0.000222458
-8.51749e-06
0.000225704
-9.19339e-06
0.00022818
-9.81249e-06
0.000229958
0.000231283
-1.04297e-05
-8.17953e-07
0.000157124
-1.92737e-06
0.000177683
-3.05059e-06
0.00018955
-4.06914e-06
0.000198899
-5.01996e-06
0.000206869
-5.85383e-06
0.000213529
-6.63784e-06
0.000218926
-7.33652e-06
0.000223156
-8.01718e-06
0.000226384
-8.60716e-06
0.00022877
-9.21787e-06
0.000230569
0.000231831
-9.76606e-06
-7.61814e-07
0.000157886
-1.80452e-06
0.000178726
-2.84399e-06
0.000190589
-3.8092e-06
0.000199864
-4.67804e-06
0.000207738
-5.49196e-06
0.000214342
-6.2103e-06
0.000219644
-6.87728e-06
0.000223823
-7.50025e-06
0.000227007
-8.11745e-06
0.000229387
-8.67618e-06
0.000231128
0.000232388
-9.23324e-06
-6.85626e-07
0.000158571
-1.66851e-06
0.000179709
-2.6543e-06
0.000191575
-3.58586e-06
0.000200795
-4.4112e-06
0.000208563
-5.13544e-06
0.000215067
-5.8175e-06
0.000220326
-6.45014e-06
0.000224456
-7.07389e-06
0.000227631
-7.6439e-06
0.000229957
-8.19705e-06
0.000231681
0.000232911
-8.71951e-06
-6.4403e-07
0.000159216
-1.56716e-06
0.000180632
-2.4973e-06
0.000192505
-3.33512e-06
0.000201633
-4.11891e-06
0.000209347
-4.82414e-06
0.000215772
-5.47536e-06
0.000220978
-6.07565e-06
0.000225056
-6.64568e-06
0.000228201
-7.1928e-06
0.000230504
-7.71207e-06
0.0002322
0.000233415
-8.21622e-06
-5.83406e-07
0.000159799
-1.45069e-06
0.0001815
-2.33034e-06
0.000193385
-3.12275e-06
0.000202426
-3.86281e-06
0.000210087
-4.53481e-06
0.000216444
-5.15119e-06
0.000221594
-5.72606e-06
0.000225631
-6.24611e-06
0.000228721
-6.73793e-06
0.000230996
-7.24817e-06
0.000232711
0.000233912
-7.74576e-06
-5.38731e-07
0.000160338
-1.3378e-06
0.000182299
-2.17168e-06
0.000194219
-2.94668e-06
0.000203201
-3.62384e-06
0.000210764
-4.26184e-06
0.000217082
-4.82138e-06
0.000222154
-5.34487e-06
0.000226155
-5.86264e-06
0.000229239
-6.36601e-06
0.000231499
-6.82104e-06
0.000233166
0.000234389
-7.29803e-06
-5.06479e-07
0.000160844
-1.25582e-06
0.000183048
-2.02317e-06
0.000194986
-2.7586e-06
0.000203936
-3.4e-06
0.000211405
-3.97978e-06
0.000217662
-4.51053e-06
0.000222684
-5.03016e-06
0.000226674
-5.50293e-06
0.000229712
-5.95356e-06
0.00023195
-6.42853e-06
0.000233641
0.000234828
-6.8676e-06
-4.49601e-07
0.000161294
-1.15439e-06
0.000183753
-1.87995e-06
0.000195712
-2.55285e-06
0.000204609
-3.18526e-06
0.000212038
-3.73454e-06
0.000218211
-4.23815e-06
0.000223188
-4.70851e-06
0.000227145
-5.15536e-06
0.000230159
-5.61276e-06
0.000232407
-6.00005e-06
0.000234028
0.000235238
-6.40949e-06
-3.9981e-07
0.000161694
-1.08474e-06
0.000184438
-1.76919e-06
0.000196396
-2.38488e-06
0.000205225
-2.95734e-06
0.00021261
-3.4798e-06
0.000218733
-3.98156e-06
0.00022369
-4.40119e-06
0.000227564
-4.82658e-06
0.000230584
-5.23763e-06
0.000232818
-5.66537e-06
0.000234456
0.000235592
-6.01949e-06
-3.73444e-07
0.000162067
-9.90527e-07
0.000185055
-1.61826e-06
0.000197024
-2.2449e-06
0.000205851
-2.76657e-06
0.000213132
-3.2572e-06
0.000219224
-3.68335e-06
0.000224116
-4.1376e-06
0.000228019
-4.51347e-06
0.00023096
-4.90989e-06
0.000233215
-5.26898e-06
0.000234815
0.000236011
-5.68763e-06
-3.1689e-07
0.000162384
-8.81749e-07
0.00018562
-1.51768e-06
0.00019766
-2.06568e-06
0.000206399
-2.58167e-06
0.000213648
-3.02237e-06
0.000219665
-3.45191e-06
0.000224545
-3.82582e-06
0.000228392
-4.21426e-06
0.000231348
-4.55919e-06
0.00023356
-4.95397e-06
0.00023521
0.000236343
-5.28665e-06
-2.92926e-07
0.000162677
-8.41196e-07
0.000186168
-1.37529e-06
0.000198194
-1.91754e-06
0.000206941
-2.37842e-06
0.000214109
-2.82046e-06
0.000220107
-3.20262e-06
0.000224928
-3.58546e-06
0.000228775
-3.92293e-06
0.000231686
-4.28083e-06
0.000233918
-4.57979e-06
0.000235508
0.000236693
-4.92976e-06
-2.59634e-07
0.000162937
-7.416e-07
0.00018665
-1.28779e-06
0.00019874
-1.75036e-06
0.000207404
-2.21218e-06
0.000214571
-2.60373e-06
0.000220498
-2.98679e-06
0.000225311
-3.29487e-06
0.000229083
-3.64563e-06
0.000232036
-3.95741e-06
0.000234229
-4.28686e-06
0.000235838
0.000236957
-4.55052e-06
-2.30789e-07
0.000163167
-6.63141e-07
0.000187082
-1.15448e-06
0.000199231
-1.63872e-06
0.000207888
-2.04964e-06
0.000214981
-2.41822e-06
0.000220867
-2.7283e-06
0.000225621
-3.07224e-06
0.000229427
-3.37438e-06
0.000232339
-3.67197e-06
0.000234527
-3.96774e-06
0.000236134
0.000237254
-4.26438e-06
-1.71246e-07
0.000163339
-6.12161e-07
0.000187523
-1.07414e-06
0.000199693
-1.48183e-06
0.000208296
-1.86791e-06
0.000215368
-2.2138e-06
0.000221213
-2.53058e-06
0.000225937
-2.82675e-06
0.000229723
-3.1136e-06
0.000232625
-3.36663e-06
0.00023478
-3.64372e-06
0.000236411
0.000237553
-3.94301e-06
-1.79553e-07
0.000163518
-5.41076e-07
0.000187885
-9.48768e-07
0.000200101
-1.37973e-06
0.000208727
-1.71492e-06
0.000215703
-2.01261e-06
0.000221511
-2.30923e-06
0.000226234
-2.58991e-06
0.000230004
-2.8293e-06
0.000232865
-3.094e-06
0.000235045
-3.35988e-06
0.000236677
0.000237795
-3.60227e-06
-1.16139e-07
0.000163634
-4.72143e-07
0.000188241
-8.74627e-07
0.000200504
-1.20469e-06
0.000209057
-1.54369e-06
0.000216042
-1.84654e-06
0.000221813
-2.1219e-06
0.000226509
-2.35442e-06
0.000230237
-2.57683e-06
0.000233087
-2.82085e-06
0.000235289
-3.02928e-06
0.000236885
0.000238039
-3.27284e-06
-9.88612e-08
0.000163733
-4.01255e-07
0.000188543
-7.55117e-07
0.000200857
-1.10969e-06
0.000209412
-1.40091e-06
0.000216333
-1.65667e-06
0.000222069
-1.88699e-06
0.00022674
-2.09966e-06
0.000230449
-2.33405e-06
0.000233322
-2.56058e-06
0.000235515
-2.75654e-06
0.000237081
0.000238218
-2.9358e-06
-6.88916e-08
0.000163802
-3.39021e-07
0.000188813
-6.62488e-07
0.000201181
-9.68774e-07
0.000209718
-1.23799e-06
0.000216602
-1.49922e-06
0.00022233
-1.7131e-06
0.000226954
-1.91119e-06
0.000230647
-2.10039e-06
0.000233511
-2.28863e-06
0.000235704
-2.47687e-06
0.000237269
0.000238405
-2.66415e-06
-3.07951e-08
0.000163833
-2.7439e-07
0.000189057
-5.73716e-07
0.00020148
-8.56607e-07
0.000210001
-1.10495e-06
0.000216851
-1.295e-06
0.00022252
-1.51594e-06
0.000227175
-1.69848e-06
0.00023083
-1.87587e-06
0.000233688
-2.02689e-06
0.000235855
-2.22179e-06
0.000237464
0.000238635
-2.45123e-06
-3.87891e-09
0.000163837
-2.16413e-07
0.000189269
-4.88833e-07
0.000201753
-7.47244e-07
0.000210259
-9.75074e-07
0.000217078
-1.17323e-06
0.000222719
-1.3234e-06
0.000227325
-1.46107e-06
0.000230968
-1.61927e-06
0.000233846
-1.77262e-06
0.000236008
-1.9081e-06
0.0002376
0.000238742
-2.01525e-06
6.42176e-09
0.00016383
-1.59218e-07
0.000189435
-4.04264e-07
0.000201998
-6.15129e-07
0.00021047
-8.22122e-07
0.000217285
-9.73529e-07
0.00022287
-1.13329e-06
0.000227485
-1.2823e-06
0.000231117
-1.39926e-06
0.000233963
-1.54656e-06
0.000236155
-1.67639e-06
0.00023773
0.000238918
-1.85217e-06
3.84996e-08
0.000163792
-9.63908e-08
0.00018957
-2.93013e-07
0.000202194
-5.09406e-07
0.000210686
-6.70305e-07
0.000217446
-8.3253e-07
0.000223032
-9.47643e-07
0.0002276
-1.05271e-06
0.000231222
-1.18393e-06
0.000234095
-1.28525e-06
0.000236257
-1.41641e-06
0.000237861
0.000239021
-1.51999e-06
6.24973e-08
0.000163729
-6.40054e-08
0.000189696
-2.38561e-07
0.000202369
-4.05755e-07
0.000210854
-5.48735e-07
0.000217589
-6.65162e-07
0.000223149
-7.64909e-07
0.000227699
-8.83332e-07
0.00023134
-9.7014e-07
0.000234181
-1.05881e-06
0.000236345
-1.15311e-06
0.000237955
0.000239124
-1.25559e-06
9.61884e-08
0.000163633
1.67402e-08
0.000189776
-1.28501e-07
0.000202514
-2.76647e-07
0.000211002
-4.01952e-07
0.000217715
-5.01317e-07
0.000223248
-5.84803e-07
0.000227783
-6.59897e-07
0.000231415
-7.32669e-07
0.000234254
-8.06606e-07
0.000236419
-8.80426e-07
0.000238029
0.000239193
-9.49799e-07
1.1995e-07
0.000163513
6.88059e-08
0.000189827
-5.00022e-08
0.000202633
-1.76985e-07
0.000211129
-2.84795e-07
0.000217822
-3.41371e-07
0.000223305
-4.0827e-07
0.00022785
-4.68273e-07
0.000231475
-5.27086e-07
0.000234313
-5.88639e-07
0.000236481
-6.59479e-07
0.0002381
0.000239285
-7.51702e-07
1.25891e-07
0.000163387
1.18574e-07
0.000189834
2.28294e-08
0.000202729
-6.03322e-08
0.000211212
-1.46332e-07
0.000217908
-2.10331e-07
0.000223369
-2.61712e-07
0.000227901
-2.78787e-07
0.000231492
-3.22164e-07
0.000234356
-3.39502e-07
0.000236498
-3.82762e-07
0.000238143
0.000239289
-3.86555e-07
1.73319e-07
0.000163214
1.65825e-07
0.000189842
1.19724e-07
0.000202775
3.17986e-08
0.0002113
-3.67255e-09
0.000217944
-5.34899e-08
0.000223418
-6.23164e-08
0.00022791
-9.23784e-08
0.000231522
-9.43992e-08
0.000234358
-1.28881e-07
0.000236532
-1.45953e-07
0.00023816
0.000239356
-2.1284e-07
1.83216e-07
0.000163031
2.22995e-07
0.000189802
1.69093e-07
0.000202829
1.28736e-07
0.00021134
1.03962e-07
0.000217969
9.88484e-08
0.000223424
7.88494e-08
0.00022793
9.16241e-08
0.00023151
1.03892e-07
0.000234346
1.13019e-07
0.000236523
9.16394e-08
0.000238181
0.000239341
1.06885e-07
2.07495e-07
0.000162823
2.46221e-07
0.000189763
2.63492e-07
0.000202811
2.44339e-07
0.000211359
2.12683e-07
0.000218
2.2346e-07
0.000223413
2.73371e-07
0.00022788
2.72912e-07
0.00023151
2.9937e-07
0.00023432
3.21117e-07
0.000236502
3.32752e-07
0.00023817
0.000239351
3.22289e-07
2.32389e-07
0.000162591
3.21044e-07
0.000189675
3.34746e-07
0.000202798
3.34423e-07
0.00021136
3.72232e-07
0.000217962
3.72758e-07
0.000223412
4.10682e-07
0.000227842
4.80181e-07
0.000231441
5.21019e-07
0.000234279
5.29984e-07
0.000236493
5.95413e-07
0.000238104
0.000239302
6.4443e-07
2.39559e-07
0.000162351
3.70336e-07
0.000189544
4.04592e-07
0.000202763
4.23243e-07
0.000211341
4.51296e-07
0.000217934
5.20714e-07
0.000223343
5.73014e-07
0.00022779
6.2837e-07
0.000231385
7.09511e-07
0.000234198
7.84542e-07
0.000236418
8.21008e-07
0.000238068
0.000239274
8.49317e-07
2.8498e-07
0.000162066
4.1821e-07
0.000189411
4.98446e-07
0.000202683
5.36854e-07
0.000211303
6.08386e-07
0.000217863
6.67149e-07
0.000223284
7.6161e-07
0.000227695
8.30378e-07
0.000231317
8.94757e-07
0.000234133
9.50171e-07
0.000236362
1.018e-06
0.000238
0.000239266
1.0262e-06
2.89247e-07
0.000161777
4.65704e-07
0.000189234
5.42825e-07
0.000202606
6.24534e-07
0.000211221
7.12973e-07
0.000217774
8.13953e-07
0.000223183
8.95445e-07
0.000227614
1.00644e-06
0.000231206
1.08615e-06
0.000234054
1.18833e-06
0.00023626
1.28642e-06
0.000237902
0.000239167
1.38542e-06
3.15927e-07
0.000161461
5.1442e-07
0.000189036
6.36172e-07
0.000202484
7.37305e-07
0.00021112
8.16156e-07
0.000217696
9.32781e-07
0.000223067
1.05686e-06
0.00022749
1.18264e-06
0.00023108
1.30436e-06
0.000233932
1.41962e-06
0.000236145
1.49598e-06
0.000237826
0.000239082
1.58102e-06
3.40528e-07
0.000161121
5.61378e-07
0.000188815
7.05273e-07
0.00020234
8.24168e-07
0.000211001
9.46358e-07
0.000217573
1.07889e-06
0.000222934
1.21783e-06
0.000227351
1.35695e-06
0.000230941
1.49294e-06
0.000233796
1.62038e-06
0.000236017
1.74171e-06
0.000237704
0.000238955
1.8689e-06
3.66326e-07
0.000160754
6.09802e-07
0.000188571
7.73276e-07
0.000202177
9.11227e-07
0.000210863
1.07642e-06
0.000217408
1.22367e-06
0.000222787
1.3771e-06
0.000227197
1.53037e-06
0.000230787
1.70564e-06
0.000233621
1.84428e-06
0.000235879
1.96974e-06
0.000237579
0.00023885
2.0745e-06
3.69576e-07
0.000160385
6.56327e-07
0.000188285
8.41425e-07
0.000201992
1.02372e-06
0.000210681
1.17893e-06
0.000217253
1.34205e-06
0.000222624
1.53725e-06
0.000227002
1.73208e-06
0.000230593
1.86522e-06
0.000233488
2.04552e-06
0.000235698
2.19083e-06
0.000237434
0.000238664
2.37626e-06
4.1671e-07
0.000159968
7.03453e-07
0.000187998
9.34226e-07
0.000201761
1.11046e-06
0.000210504
1.28343e-06
0.00021708
1.51587e-06
0.000222391
1.69874e-06
0.000226819
1.87876e-06
0.000230413
2.08052e-06
0.000233286
2.2417e-06
0.000235537
2.43376e-06
0.000237241
0.00023859
2.50769e-06
4.20945e-07
0.000159547
7.52806e-07
0.000187666
1.00402e-06
0.00020151
1.22323e-06
0.000210285
1.43971e-06
0.000216864
1.60822e-06
0.000222223
1.83231e-06
0.000226595
2.0574e-06
0.000230187
2.27474e-06
0.000233068
2.4867e-06
0.000235325
2.67118e-06
0.000237057
0.000238367
2.89478e-06
4.46737e-07
0.0001591
7.77551e-07
0.000187335
1.04816e-06
0.000201239
1.28616e-06
0.000210047
1.5189e-06
0.000216631
1.78297e-06
0.000221959
2.02385e-06
0.000226354
2.26223e-06
0.000229949
2.49708e-06
0.000232834
2.71967e-06
0.000235103
2.92815e-06
0.000236848
0.000238175
3.11966e-06
4.58882e-07
0.000158641
8.50829e-07
0.000186943
1.14294e-06
0.000200947
1.40002e-06
0.00020979
1.6514e-06
0.000216379
1.90306e-06
0.000221707
2.15809e-06
0.000226099
2.41088e-06
0.000229696
2.68335e-06
0.000232561
2.91879e-06
0.000234867
3.14289e-06
0.000236624
0.000237949
3.36921e-06
5.01485e-07
0.00015814
8.98971e-07
0.000186546
1.21327e-06
0.000200633
1.51472e-06
0.000209489
1.78056e-06
0.000216114
2.04918e-06
0.000221438
2.34591e-06
0.000225803
2.61214e-06
0.00022943
2.8422e-06
0.000232331
3.11594e-06
0.000234594
3.34272e-06
0.000236398
0.000237722
3.56948e-06
5.07539e-07
0.000157632
9.47834e-07
0.000186105
1.28135e-06
0.000200299
1.57676e-06
0.000209193
1.88645e-06
0.000215804
2.19705e-06
0.000221128
2.47962e-06
0.00022552
2.78725e-06
0.000229122
3.08682e-06
0.000232032
3.31972e-06
0.000234361
3.60125e-06
0.000236116
0.000237463
3.86064e-06
5.34119e-07
0.000157098
9.72565e-07
0.000185667
1.37832e-06
0.000199894
1.69159e-06
0.00020888
2.01897e-06
0.000215477
2.31723e-06
0.000220829
2.64472e-06
0.000225193
2.93879e-06
0.000228828
3.24942e-06
0.000231721
3.5482e-06
0.000234062
3.82643e-06
0.000235838
0.000237248
4.04141e-06
5.43743e-07
0.000156555
1.04665e-06
0.000185164
1.42388e-06
0.000199516
1.78198e-06
0.000208522
2.12647e-06
0.000215132
2.46852e-06
0.000220487
2.80962e-06
0.000224852
3.1438e-06
0.000228494
3.4445e-06
0.00023142
3.78541e-06
0.000233721
4.0635e-06
0.00023556
0.000236918
4.39327e-06
5.72811e-07
0.000155982
1.07596e-06
0.000184661
1.49573e-06
0.000199097
1.90025e-06
0.000208117
2.23456e-06
0.000214798
2.62103e-06
0.000220101
2.9484e-06
0.000224524
3.29302e-06
0.00022815
3.67502e-06
0.000231038
3.9701e-06
0.000233426
4.29946e-06
0.00023523
0.000236681
4.53641e-06
6.0837e-07
0.000155373
1.12826e-06
0.000184141
1.58972e-06
0.000198635
1.97418e-06
0.000207733
2.37326e-06
0.000214399
2.73993e-06
0.000219734
3.12573e-06
0.000224138
3.51824e-06
0.000227757
3.85232e-06
0.000230704
4.21418e-06
0.000233064
4.54645e-06
0.000234898
0.000236317
4.91034e-06
6.16363e-07
0.000154757
1.1665e-06
0.000183591
1.65036e-06
0.000198151
2.07043e-06
0.000207313
2.48678e-06
0.000213982
2.87542e-06
0.000219346
3.28761e-06
0.000223726
3.66533e-06
0.000227379
4.05977e-06
0.00023031
4.44038e-06
0.000232683
4.77019e-06
0.000234568
0.000236005
5.08267e-06
6.39632e-07
0.000154117
1.22677e-06
0.000183004
1.71539e-06
0.000197663
2.19657e-06
0.000206832
2.61419e-06
0.000213565
3.04172e-06
0.000218918
3.44714e-06
0.000223321
3.88975e-06
0.000226937
4.24378e-06
0.000229956
4.64047e-06
0.000232287
5.02551e-06
0.000234183
0.000235613
5.41756e-06
6.61631e-07
0.000153456
1.27372e-06
0.000182392
1.80152e-06
0.000197135
2.25865e-06
0.000206375
2.71247e-06
0.000213111
3.18702e-06
0.000218444
3.60256e-06
0.000222905
4.03818e-06
0.000226501
4.46158e-06
0.000229532
4.87124e-06
0.000231877
5.25432e-06
0.0002338
0.000235289
5.57838e-06
7.00816e-07
0.000152755
1.31355e-06
0.000181779
1.89006e-06
0.000196558
2.3886e-06
0.000205876
2.83965e-06
0.00021266
3.30503e-06
0.000217978
3.78754e-06
0.000222423
4.23842e-06
0.00022605
4.67696e-06
0.000229094
5.10299e-06
0.000231451
5.51836e-06
0.000233385
0.000234866
5.94155e-06
6.8173e-07
0.000152073
1.37901e-06
0.000181082
1.95311e-06
0.000195984
2.473e-06
0.000205356
2.99111e-06
0.000212142
3.44721e-06
0.000217522
3.94815e-06
0.000221922
4.41368e-06
0.000225585
4.89172e-06
0.000228616
5.30341e-06
0.000231039
5.74838e-06
0.00023294
0.000234479
6.13454e-06
7.52885e-07
0.00015132
1.3927e-06
0.000180442
1.99133e-06
0.000195386
2.55623e-06
0.000204791
3.09355e-06
0.000211604
3.61805e-06
0.000216998
4.10798e-06
0.000221432
4.58754e-06
0.000225105
5.08084e-06
0.000228122
5.55545e-06
0.000230565
5.98299e-06
0.000232512
0.000234077
6.3854e-06
7.41476e-07
0.000150579
1.50938e-06
0.000179674
2.13092e-06
0.000194764
2.71792e-06
0.000204204
3.2494e-06
0.000211073
3.7915e-06
0.000216455
4.29762e-06
0.000220926
4.81979e-06
0.000224583
5.30145e-06
0.000227641
5.79478e-06
0.000230071
6.24605e-06
0.000232061
0.000233578
6.7452e-06
7.64599e-07
0.000149814
1.50574e-06
0.000178933
2.1691e-06
0.000194101
2.75064e-06
0.000203623
3.35344e-06
0.00021047
3.88638e-06
0.000215923
4.46105e-06
0.000220351
4.97165e-06
0.000224072
5.49483e-06
0.000227118
5.97256e-06
0.000229594
6.45216e-06
0.000231582
0.000233146
6.88361e-06
8.23462e-07
0.000148991
1.57487e-06
0.000178181
2.26367e-06
0.000193412
2.8912e-06
0.000202995
3.45691e-06
0.000209904
4.0631e-06
0.000215316
4.60176e-06
0.000219812
5.15481e-06
0.000223519
5.72087e-06
0.000226551
6.24397e-06
0.000229071
6.78387e-06
0.000231042
0.000232663
7.26731e-06
8.22871e-07
0.000148168
1.61425e-06
0.00017739
2.32643e-06
0.0001927
3.00614e-06
0.000202315
3.62023e-06
0.00020929
4.21111e-06
0.000214725
4.8242e-06
0.000219199
5.39342e-06
0.00022295
5.92004e-06
0.000226025
6.45383e-06
0.000228537
6.96049e-06
0.000230535
0.000232181
7.44283e-06
8.18101e-07
0.00014735
1.66042e-06
0.000176548
2.41882e-06
0.000191941
3.0917e-06
0.000201643
3.75089e-06
0.000208631
4.37035e-06
0.000214106
4.9643e-06
0.000218605
5.54969e-06
0.000222365
6.15133e-06
0.000225423
6.7296e-06
0.000227958
7.26545e-06
0.000229999
0.000231642
7.80394e-06
8.81651e-07
0.000146468
1.72727e-06
0.000175702
2.48902e-06
0.000191179
3.20855e-06
0.000200923
3.86309e-06
0.000207977
4.52131e-06
0.000213448
5.13798e-06
0.000217989
5.79941e-06
0.000221703
6.35268e-06
0.00022487
6.95073e-06
0.00022736
7.51422e-06
0.000229436
0.000231164
7.99275e-06
8.93682e-07
0.000145574
1.76874e-06
0.000174827
2.58516e-06
0.000190363
3.29449e-06
0.000200214
4.00293e-06
0.000207268
4.68011e-06
0.000212771
5.31444e-06
0.000217354
5.96106e-06
0.000221057
6.62478e-06
0.000224206
7.20435e-06
0.000226781
7.77788e-06
0.000228862
0.000230535
8.40647e-06
9.11269e-07
0.000144663
1.84975e-06
0.000173889
2.64998e-06
0.000189563
3.42337e-06
0.00019944
4.14489e-06
0.000206547
4.84118e-06
0.000212074
5.51905e-06
0.000216676
6.15622e-06
0.000220419
6.8294e-06
0.000223533
7.46362e-06
0.000226147
8.06825e-06
0.000228257
0.000230005
8.59869e-06
9.42749e-07
0.00014372
1.86762e-06
0.000172964
2.75716e-06
0.000188673
3.54549e-06
0.000198652
4.31301e-06
0.000205779
4.96792e-06
0.000211419
5.69911e-06
0.000215945
6.37802e-06
0.000219741
7.03774e-06
0.000222873
7.67402e-06
0.00022551
8.28078e-06
0.000227651
0.000229369
8.91623e-06
9.62118e-07
0.000142758
1.91602e-06
0.00017201
2.82146e-06
0.000187768
3.63323e-06
0.00019784
4.39787e-06
0.000205014
5.16835e-06
0.000210649
5.88271e-06
0.000215231
6.60464e-06
0.000219019
7.25396e-06
0.000222224
7.93341e-06
0.000224831
8.55899e-06
0.000227025
0.000228788
9.14057e-06
9.88531e-07
0.00014177
1.98758e-06
0.000171011
2.89772e-06
0.000186858
3.75753e-06
0.00019698
4.55732e-06
0.000204215
5.33767e-06
0.000209869
6.09695e-06
0.000214472
6.81203e-06
0.000218304
7.53411e-06
0.000221502
8.18312e-06
0.000224182
8.90677e-06
0.000226301
0.000228135
9.55937e-06
1.01747e-06
0.000140752
2.04009e-06
0.000169988
2.9761e-06
0.000185922
3.89774e-06
0.000196059
4.69463e-06
0.000203418
5.4713e-06
0.000209092
6.28863e-06
0.000213654
7.02176e-06
0.00021757
7.73418e-06
0.00022079
8.47572e-06
0.00022344
9.13219e-06
0.000225645
0.000227541
9.72659e-06
1.05045e-06
0.000139702
2.09948e-06
0.000168939
3.11567e-06
0.000184905
3.96564e-06
0.000195209
4.82212e-06
0.000202561
5.68352e-06
0.00020823
6.41771e-06
0.00021292
7.26056e-06
0.000216728
8.01712e-06
0.000220033
8.76449e-06
0.000222693
9.4416e-06
0.000224968
0.000226814
1.01681e-05
1.06951e-06
0.000138632
2.15565e-06
0.000167853
3.18235e-06
0.000183879
4.09527e-06
0.000194296
5.01546e-06
0.000201641
5.82044e-06
0.000207425
6.6789e-06
0.000212062
7.44965e-06
0.000215957
8.22205e-06
0.000219261
8.9687e-06
0.000221946
9.67597e-06
0.000224261
0.000226137
1.03529e-05
1.09451e-06
0.000137538
2.208e-06
0.000166739
3.24159e-06
0.000182845
4.26641e-06
0.000193271
5.13249e-06
0.000200775
6.03986e-06
0.000206518
6.87941e-06
0.000211222
7.65416e-06
0.000215182
8.48742e-06
0.000218427
9.25532e-06
0.000221178
1.00389e-05
0.000223477
0.000225465
1.0711e-05
1.11883e-06
0.000136419
2.26522e-06
0.000165593
3.34715e-06
0.000181763
4.33805e-06
0.00019228
5.30899e-06
0.000199804
6.22348e-06
0.000205604
7.08448e-06
0.000210361
7.92028e-06
0.000214346
8.73355e-06
0.000217614
9.54865e-06
0.000220363
1.03092e-05
0.000222716
0.000224714
1.106e-05
1.14584e-06
0.000135273
2.35943e-06
0.000164379
3.4666e-06
0.000180656
4.49234e-06
0.000191254
5.47226e-06
0.000198824
6.38542e-06
0.00020469
7.29246e-06
0.000209454
8.19091e-06
0.000213448
9.04786e-06
0.000216757
9.85262e-06
0.000219559
1.0658e-05
0.000221911
0.000223939
1.14337e-05
1.17183e-06
0.000134101
2.38043e-06
0.000163171
3.52116e-06
0.000179515
4.58977e-06
0.000190186
5.57149e-06
0.000197842
6.5749e-06
0.000203687
7.47749e-06
0.000208551
8.37674e-06
0.000212549
9.24783e-06
0.000215886
1.00588e-05
0.000218748
1.08432e-05
0.000221127
0.000223245
1.15367e-05
1.19529e-06
0.000132906
2.43856e-06
0.000161927
3.65485e-06
0.000178299
4.75062e-06
0.00018909
5.78258e-06
0.00019681
6.74415e-06
0.000202725
7.69399e-06
0.000207602
8.64057e-06
0.000211602
9.55427e-06
0.000214972
1.04227e-05
0.000217879
1.12506e-05
0.000220299
0.00022236
1.21354e-05
1.25658e-06
0.000131649
2.5325e-06
0.000160651
3.74639e-06
0.000177085
4.8719e-06
0.000187964
5.93119e-06
0.000195751
6.94224e-06
0.000201714
7.94049e-06
0.000206603
8.90487e-06
0.000210638
9.77609e-06
0.000214101
1.07075e-05
0.000216948
1.15542e-05
0.000219452
0.000221534
1.23807e-05
1.23928e-06
0.00013041
2.59027e-06
0.0001593
3.83751e-06
0.000175838
5.00271e-06
0.000186799
6.15169e-06
0.000194602
7.14333e-06
0.000200723
8.1625e-06
0.000205584
9.15371e-06
0.000209646
1.00893e-05
0.000213166
1.09946e-05
0.000216043
1.18966e-05
0.00021855
0.000220656
1.27746e-05
1.30425e-06
0.000129106
2.64758e-06
0.000157957
3.93307e-06
0.000174552
5.17363e-06
0.000185559
6.23894e-06
0.000193537
7.37096e-06
0.000199591
8.41762e-06
0.000204538
9.38178e-06
0.000208682
1.03631e-05
0.000212184
1.13124e-05
0.000215093
1.22148e-05
0.000217648
0.000219826
1.3045e-05
1.31977e-06
0.000127786
2.70364e-06
0.000156573
4.02494e-06
0.000173231
5.2587e-06
0.000184325
6.46943e-06
0.000192326
7.55776e-06
0.000198502
8.62959e-06
0.000203466
9.66716e-06
0.000207645
1.06952e-05
0.000211156
1.16458e-05
0.000214143
1.25998e-05
0.000216694
0.000218862
1.35636e-05
1.37206e-06
0.000126414
2.79835e-06
0.000155147
4.16237e-06
0.000171867
5.43551e-06
0.000183052
6.63014e-06
0.000191132
7.77283e-06
0.00019736
8.89457e-06
0.000202344
9.95524e-06
0.000206584
1.09822e-05
0.000210129
1.19737e-05
0.000213151
1.29193e-05
0.000215748
0.000218027
1.37538e-05
1.36606e-06
0.000125048
2.85936e-06
0.000153654
4.25881e-06
0.000170468
5.56943e-06
0.000181741
6.84763e-06
0.000189853
8.01646e-06
0.000196191
9.09293e-06
0.000201268
1.02271e-05
0.00020545
1.12525e-05
0.000209104
1.22683e-05
0.000212135
1.32554e-05
0.000214761
0.00021699
1.4293e-05
1.45878e-06
0.000123589
2.91792e-06
0.000152195
4.35735e-06
0.000169028
5.75359e-06
0.000180345
6.97413e-06
0.000188633
8.22367e-06
0.000194941
9.37002e-06
0.000200121
1.04813e-05
0.000204339
1.15797e-05
0.000208005
1.26658e-05
0.000211049
1.36544e-05
0.000213772
0.000216118
1.45261e-05
1.44485e-06
0.000122144
3.01788e-06
0.000150622
4.50096e-06
0.000167545
5.89088e-06
0.000178955
7.24294e-06
0.000187281
8.43565e-06
0.000193749
9.67928e-06
0.000198878
1.08173e-05
0.000203201