/*--------------------------------*- C++ -*----------------------------------*\
| =========                 |                                                 |
| \\      /  F ield         | OpenFOAM: The Open Source CFD Toolbox           |
|  \\    /   O peration     | Version:  2.3.1                                 |
|   \\  /    A nd           | Web:      www.OpenFOAM.org                      |
|    \\/     M anipulation  |                                                 |
\*---------------------------------------------------------------------------*/
FoamFile
{
    version     2.0;
    format      ascii;
    class       volScalarField;
    location    "0.47";
    object      epsilon;
}
// * * * * * * * * * * * * * * * * * * * * * * * * * * * * * * * * * * * * * //

dimensions      [0 2 -3 0 0 0 0];

internalField   nonuniform List<scalar> 
15166
(
1077.7
1003.56
1000.25
1063.99
1106.59
1135.6
1106.48
1023.38
922.594
805.884
688.735
589.594
1078.27
882.478
931.159
1001.44
1045.9
1069.26
1037.37
960.082
864.421
756.767
649.26
551.05
1090.34
787.863
864.753
940.353
987.165
1006.84
974.571
902.597
812.606
712.856
612.961
518.038
1106.21
716.763
805.507
883.593
931.666
948.686
917.286
850.314
766.043
673.222
579.452
486.919
1123.5
663.274
753.866
832.186
880.315
895.169
865.122
802.776
723.96
637.28
548.834
460.044
1142.25
622.155
708.593
785.718
833.066
846.114
817.583
759.473
685.758
604.513
520.739
435.222
1162.58
589.992
668.619
743.56
789.566
801.104
774.136
719.928
650.899
574.492
494.743
411.506
1184.12
564.615
633.201
705.214
749.489
759.755
734.326
683.693
618.958
546.892
470.829
390.687
1206.66
544.523
601.757
670.282
712.55
721.717
697.756
650.383
589.584
521.451
448.792
371.659
1229.89
528.604
573.763
638.388
678.475
686.671
664.087
619.696
562.482
497.936
428.514
354.776
1253.57
516.028
548.77
609.196
647
654.323
633.011
591.341
537.412
476.161
409.803
339.245
1277.57
506.153
526.389
582.411
617.883
624.41
604.265
565.074
514.154
455.964
392.65
325.95
1301.74
498.488
506.297
557.771
590.898
596.687
577.61
540.682
492.531
437.2
376.867
314.017
1325.95
492.642
488.216
535.058
565.851
570.95
552.84
517.986
472.376
419.709
362.074
301.393
1350.04
488.302
471.908
514.077
542.564
547.006
529.779
496.815
453.564
403.402
348.395
290.863
1374
485.216
457.167
494.661
520.88
524.697
508.27
477.044
435.962
388.147
335.658
280.971
1397.66
483.177
443.815
476.659
500.657
503.871
488.168
458.532
419.466
373.864
323.744
271.516
1421.04
482.015
431.704
459.944
481.767
484.394
469.346
441.182
403.99
360.464
312.574
262.643
1444.05
481.584
420.697
444.397
464.098
466.154
451.701
424.881
389.44
347.868
302.104
254.48
1466.57
481.771
410.68
429.917
447.548
449.045
435.125
409.552
375.738
336.017
292.263
246.773
1488.54
482.467
401.549
416.412
432.025
432.972
419.535
395.114
362.822
324.834
282.96
239.267
1510.01
483.599
393.214
403.802
417.447
417.854
404.853
381.495
350.623
314.269
274.144
232.09
1531.01
485.078
385.596
392.012
403.741
403.614
391.004
368.632
339.091
304.268
265.744
224.96
1551.25
486.864
378.626
380.978
390.842
390.184
377.926
356.466
328.174
294.791
257.755
218.286
1570.94
488.908
372.244
370.642
378.688
377.506
365.563
344.952
317.826
285.789
250.137
211.858
1589.92
491.139
366.392
360.949
367.225
365.525
353.863
334.038
308.007
277.235
242.884
205.861
1608.22
493.534
361.02
351.85
356.402
354.188
342.775
323.684
298.678
269.092
235.978
200.138
1625.88
496.055
356.085
343.302
346.176
343.452
332.258
313.85
289.805
261.338
229.397
194.802
1642.81
498.691
351.553
335.265
336.505
333.274
322.277
304.499
281.359
253.949
223.14
189.811
1659.09
501.434
347.381
327.701
327.351
323.618
312.79
295.604
273.311
246.902
217.159
184.875
1674.69
504.209
343.54
320.577
318.679
314.447
303.768
287.13
265.636
240.171
211.458
180.283
1689.42
507.05
339.999
313.863
310.458
305.733
295.178
279.055
258.31
233.742
205.997
175.775
1703.3
509.93
336.74
307.531
302.66
297.444
286.999
271.35
251.313
227.593
200.783
171.603
1716.73
512.808
333.732
301.556
295.257
289.555
279.199
263.995
244.625
221.713
195.791
167.506
1729.21
515.687
330.965
295.912
288.225
282.042
271.758
256.968
238.23
216.084
191.015
163.684
1740.89
518.574
328.411
290.58
281.542
274.88
264.653
250.251
232.109
210.69
186.432
159.888
1752.06
521.448
326.06
285.537
275.185
268.05
257.867
243.826
226.244
205.517
182.032
156.291
1762.3
524.303
323.894
280.767
269.136
261.531
251.378
237.673
220.623
200.555
177.817
152.966
1771.91
527.14
321.9
276.251
263.376
255.308
245.171
231.78
215.232
195.796
173.773
149.69
1780.84
529.944
320.062
271.974
257.889
249.36
239.231
226.133
210.062
191.227
169.906
146.688
1788.8
532.744
318.368
267.925
252.661
243.678
233.543
220.717
205.097
186.834
166.164
143.489
1796.13
535.647
316.821
264.089
247.678
238.243
228.094
215.521
200.328
182.61
162.538
140.267
1802.56
538.558
315.4
260.452
242.925
233.044
222.871
210.533
195.745
178.543
159.05
137.423
1808.38
541.532
314.132
257.01
238.392
228.067
217.862
205.744
191.339
174.629
155.683
134.567
1813.48
544.421
313.031
253.754
234.064
223.301
213.056
201.142
187.099
170.858
152.444
131.968
1817.79
547.132
312.072
250.685
229.932
218.734
208.441
196.718
183.019
167.225
149.311
129.267
1821.33
549.896
311.232
247.801
225.99
214.36
204.012
192.463
179.09
163.721
146.3
126.892
1824.33
552.484
310.504
245.073
222.228
210.17
199.756
188.368
175.304
160.341
143.39
124.444
1826.57
554.985
309.844
242.504
218.641
206.153
195.665
184.425
171.652
157.078
140.585
122.218
1828.08
557.414
309.301
240.081
215.22
202.303
191.731
180.627
168.13
153.927
137.866
119.91
1828.87
559.682
308.838
237.794
211.957
198.608
187.948
176.967
164.73
150.882
135.247
117.841
1829.05
561.999
308.452
235.644
208.846
195.067
184.31
173.441
161.45
147.941
132.719
115.828
1828.57
564.126
308.135
233.609
205.879
191.67
180.811
170.042
158.284
145.099
130.263
113.685
1827.36
566.207
307.881
231.701
203.05
188.412
177.443
166.766
155.227
142.351
127.891
111.761
1825.64
568.208
307.69
229.903
200.352
185.288
174.204
163.606
152.274
139.695
125.598
109.923
1823.35
570.135
307.556
228.212
197.778
182.291
171.086
160.558
149.422
137.127
123.391
108.227
1820.29
571.867
307.473
226.622
195.327
179.417
168.085
157.619
146.667
134.642
121.253
106.484
1816.7
573.658
307.443
225.138
192.99
176.659
165.198
154.784
144.004
132.241
119.19
104.878
1812.6
575.248
307.462
223.746
190.766
174.018
162.417
152.048
141.431
129.918
117.176
103.034
1807.72
576.779
307.502
222.433
188.643
171.482
159.742
149.408
138.945
127.669
115.224
101.416
1802.38
578.168
307.613
221.216
186.626
169.052
157.166
146.86
136.54
125.491
113.338
99.945
1796.53
579.575
307.766
220.081
184.709
166.724
154.687
144.402
134.215
123.383
111.521
98.5624
1790.07
580.804
307.954
219.026
182.882
164.492
152.302
142.029
131.969
121.345
109.761
97.1278
1782.99
581.975
308.157
218.056
181.15
162.356
150.007
139.741
129.797
119.372
108.06
95.7829
1775.37
582.992
308.425
217.151
179.507
160.31
147.801
137.533
127.699
117.464
106.408
94.3849
1767.12
583.974
308.703
216.318
177.95
158.352
145.678
135.404
125.671
115.619
104.808
93.0876
1758.75
584.914
309.02
215.563
176.474
156.48
143.638
133.351
123.711
113.831
103.251
91.7473
1749.15
585.686
309.361
214.869
175.078
154.69
141.675
131.37
121.816
112.099
101.744
90.5347
1739.58
586.401
309.743
214.243
173.764
152.981
139.791
129.46
119.986
110.423
100.282
89.3242
1729.66
587.004
310.158
213.684
172.521
151.348
137.981
127.619
118.216
108.801
98.8687
88.2044
1718.86
587.605
310.589
213.196
171.358
149.79
136.243
125.845
116.507
107.231
97.4969
87.0439
1707.65
587.906
311.059
212.763
170.264
148.309
134.575
124.135
114.855
105.711
96.1678
85.9837
1695.91
588.363
311.523
212.375
169.238
146.898
132.977
122.489
113.26
104.243
94.8858
84.9524
1683.74
588.584
312.092
212.081
168.293
145.561
131.448
120.906
111.722
102.823
93.6425
83.9145
1671.02
588.715
312.614
211.824
167.403
144.289
129.981
119.383
110.237
101.449
92.437
82.9327
1658.3
588.918
313.19
211.634
166.586
143.083
128.579
117.917
108.804
100.122
91.267
81.9037
1644.64
588.888
313.776
211.497
165.838
141.947
127.241
116.512
107.426
98.8382
90.1313
80.9516
1630.23
588.653
314.377
211.42
165.152
140.876
125.965
115.162
106.096
97.5993
89.0308
79.9894
1615.83
588.534
315.028
211.401
164.533
139.868
124.749
113.867
104.817
96.4023
87.9658
79.1012
1601.22
588.249
315.695
211.442
163.975
138.924
123.593
112.627
103.586
95.2482
86.9319
78.1714
1585.71
587.853
316.404
211.539
163.485
138.045
122.497
111.441
102.401
94.1332
85.9325
77.3306
1569.96
587.385
317.097
211.698
163.061
137.23
121.456
110.307
101.263
93.0568
84.9673
76.5516
1553.79
586.79
317.805
211.902
162.695
136.471
120.476
109.227
100.173
92.0221
84.0386
75.7667
1537.15
586.115
318.556
212.162
162.394
135.777
119.553
108.199
99.1294
91.0284
83.1399
74.9505
1520.1
585.369
319.327
212.477
162.159
135.142
118.684
107.222
98.13
90.0717
82.2734
74.2158
1503.04
584.546
320.125
212.871
161.979
134.567
117.873
106.292
97.1755
89.1552
81.4375
73.4557
1485.17
583.576
320.937
213.31
161.867
134.057
117.117
105.416
96.2642
88.2741
80.6318
72.7941
1466.95
582.504
321.767
213.795
161.828
133.607
116.42
104.589
95.3967
87.4327
79.8598
72.0933
1448.35
581.332
322.615
214.347
161.844
133.222
115.78
103.813
94.5745
86.6287
79.1172
71.4219
1429.36
580.073
323.525
214.974
161.934
132.9
115.195
103.087
93.7967
85.8622
78.3982
70.6997
1410.02
578.693
324.4
215.64
162.083
132.634
114.666
102.409
93.0602
85.1302
77.7159
70.1955
1390.3
577.193
325.294
216.383
162.308
132.439
114.194
101.783
92.3706
84.4417
77.0759
69.6385
1370.63
575.7
326.244
217.185
162.599
132.307
113.781
101.21
91.725
83.7883
76.4661
69.1424
1349.88
573.926
327.193
218.045
162.961
132.247
113.428
100.688
91.1243
83.1743
75.8898
68.6362
1329.5
572.175
328.153
218.965
163.399
132.245
113.135
100.22
90.5679
82.5991
75.347
68.1767
1308.46
570.23
329.109
219.941
163.898
132.317
112.903
99.8032
90.0591
82.0657
74.837
67.6867
1287.07
568.263
330.123
221.001
164.48
132.458
112.733
99.4421
89.5968
81.5699
74.3575
67.2748
1265.35
566.059
331.132
222.121
165.138
132.676
112.629
99.1339
89.1816
81.1143
73.9121
66.8489
1243.68
563.923
332.153
223.305
165.882
132.961
112.589
98.8836
88.8137
80.7
73.5016
66.4858
1221.38
561.495
333.208
224.574
166.706
133.333
112.617
98.6942
88.4979
80.3292
73.1256
66.0903
1198.77
559.006
334.258
225.906
167.61
133.776
112.717
98.5628
88.2311
79.9999
72.782
65.7813
1175.85
556.373
335.308
227.324
168.61
134.307
112.887
98.4913
88.0163
79.7139
72.4803
65.5225
1152.67
553.585
336.393
228.808
169.696
134.922
113.136
98.4877
87.859
79.4783
72.2207
65.2498
1129.23
550.706
337.468
230.358
170.881
135.63
113.461
98.5498
87.7585
79.2902
71.9994
65.0086
1105.84
547.754
338.577
231.999
172.158
136.434
113.866
98.6819
87.7153
79.1494
71.819
64.8538
1081.9
544.6
339.672
233.732
173.544
137.331
114.358
98.8851
87.7327
79.0633
71.687
64.7008
1058.02
541.365
340.796
235.536
175.028
138.327
114.942
99.1662
87.8143
79.0269
71.5949
64.6246
1033.62
537.898
341.895
237.412
176.626
139.434
115.619
99.5294
87.9653
79.0508
71.5567
64.5817
1008.64
534.248
343.014
239.411
178.337
140.658
116.398
99.9756
88.1868
79.1351
71.5672
64.5522
984.017
530.605
344.162
241.467
180.173
141.997
117.285
100.51
88.4839
79.28
71.6278
64.58
958.954
526.748
345.288
243.651
182.145
143.467
118.282
101.146
88.8631
79.494
71.7452
64.6228
933.654
522.694
346.422
245.916
184.239
145.066
119.4
101.882
89.3275
79.7818
71.9281
64.767
908.477
518.564
347.534
248.285
186.479
146.819
120.644
102.729
89.8867
80.1505
72.1865
64.963
882.88
514.21
348.649
250.742
188.867
148.715
122.03
103.69
90.5415
80.596
72.4967
65.1155
857.086
509.655
349.798
253.338
191.415
150.772
123.556
104.777
91.2981
81.1235
72.8731
65.3922
831.167
504.984
350.873
256.018
194.112
152.992
125.237
105.994
92.1644
81.7453
73.3348
65.7252
805.09
500.118
351.983
258.822
196.986
155.405
127.082
107.356
93.1535
82.4696
73.8752
66.1531
779.152
495.139
353.061
261.726
200.044
158.007
129.118
108.88
94.2813
83.3078
74.5176
66.6599
753.147
489.922
354.154
264.784
203.302
160.822
131.346
110.573
95.5531
84.2732
75.2721
67.2998
726.604
484.439
355.181
267.948
206.766
163.866
133.795
112.461
96.9838
85.3726
76.1436
68.0092
700.13
478.842
356.201
271.267
210.44
167.154
136.47
114.551
98.5885
86.6082
77.1103
68.7153
673.86
473.067
357.209
274.71
214.362
170.709
139.4
116.86
100.382
88.0029
78.2138
69.6245
647.61
467.066
358.191
278.307
218.538
174.553
142.611
119.425
102.393
89.5847
79.4869
70.6684
620.942
460.829
359.138
282.083
222.981
178.713
146.139
122.264
104.638
91.3611
80.9064
71.8489
594.569
454.428
360.078
286.018
227.736
183.225
150.002
125.416
107.15
93.3572
82.5176
73.1606
568.31
447.804
361.001
290.153
232.814
188.125
154.252
128.911
109.957
95.5991
84.3243
74.6667
541.736
440.968
361.92
294.528
238.286
193.467
158.944
132.809
113.109
98.1315
86.3811
76.3828
515.467
433.952
362.882
299.161
244.187
199.312
164.127
137.158
116.652
100.995
88.7096
78.2908
489.186
426.775
363.924
304.145
250.603
205.738
169.889
142.022
120.635
104.223
91.3371
80.4325
463.061
419.473
365.15
309.575
257.634
212.857
176.308
147.476
125.122
107.861
94.2924
82.8764
436.889
412.177
366.723
315.645
265.464
220.79
183.511
153.619
130.19
111.979
97.6535
85.6454
410.805
405.184
369.046
322.688
274.342
229.744
191.638
160.564
135.917
116.633
101.44
88.7836
384.57
399.298
372.848
331.242
284.597
239.922
200.819
168.404
142.398
121.886
105.693
92.2117
358.176
397.474
380.242
342.614
296.922
251.754
211.373
177.403
149.808
127.877
110.494
96.0364
328.051
400.066
389.137
355.338
309.502
263.677
222.044
186.798
157.58
134.279
115.655
100.318
204.084
0.00127437
6.61709
4.94846
4.91161
12.0021
11.4394
81.0999
45.1588
26.4323
7.60895
0.00269734
0.0225714
574.718
12.1831
0.000851388
481.442
0.218371
0.207453
0.00082838
2.43317
5.66604
0.255358
0.0183568
209.852
6.57438
4.01575
16.2386
16.9301
48.371
14.6174
364.47
0.00108587
7.42517
0.021151
2.3258
87.312
12.693
29.737
0.00290811
0.239113
0.000794184
0.119458
23.9601
23.6689
5.45023
0.0575835
0.0148355
23.9216
2.39954
2.27267
77.6347
18.4159
0.000749082
215.542
0.00118111
0.0042835
0.000793147
12.7278
11.3094
3.50648
378.965
0.000746608
0.00894711
0.713961
0.00121404
75.9415
17.9974
321.655
18.769
185.479
0.0485407
28.3989
43.4647
0.0188433
0.000739222
41.214
0.000696187
0.0790809
11.2059
0.211302
0.000699391
75.35
20.5117
0.00845117
70.1873
75.0799
0.000739954
5.19585
25.7364
19.5223
26.1245
0.000741583
0.000984329
53.6131
0.000751858
15.1984
0.00909396
0.000728965
76.8244
144.539
1.15124
0.000785213
0.00114024
0.000707795
68.0712
66.1496
101.277
19.2725
0.0283493
0.527091
0.000709766
8.28724
0.000913651
0.000734492
8.34991
0.0108548
1.92816
69.2535
0.649419
120.097
0.0204741
176.395
0.995329
0.320156
53.3354
0.00104699
1333.1
0.0233473
0.000742466
123.043
0.000758846
87.3233
0.00114261
4.19342
0.00146179
28.4061
13.2091
8.70756
0.00176225
0.00877349
2.76323
14.1752
0.128646
31.2681
198.491
17.248
0.00121801
61.6761
21.7512
0.585196
8.01222
0.000693014
0.265996
0.616564
0.000716844
12.5463
0.00072703
89.0481
0.00234145
0.0178404
0.000857517
0.326183
0.00608332
2.60488
0.191007
314.809
30.1566
18.4521
0.00068687
205.68
47.3598
217.145
0.00947186
0.0006801
18.5017
0.00070594
20.4647
0.723476
34.7355
330.642
3.28962
0.0834637
26.3602
0.000796754
13.4497
0.00072407
0.000721553
30.1128
0.000736009
9.21546
0.000697705
199.402
0.00130531
16.1362
14.1844
10.8613
4.5565
0.000709812
409.897
63.8296
19.7512
54.8029
9.17194
20.1026
0.142253
0.181128
1.48664
39.2751
1.55935
139.741
52.5991
48.1485
34.2891
0.000722342
15.4567
0.00601968
11.2032
426.914
20.9699
20.2821
64.0544
24.587
0.000718584
0.000731012
55.5836
70.2632
0.000758435
1485.38
0.0228403
167.472
0.297616
0.00070464
89.0368
10.2818
12.1995
11.7482
70.5056
34.7444
20.4973
0.507639
0.393831
32.6443
95.4655
196.149
132.8
82.9049
0.000837433
44.8989
16.2079
17.201
43.1312
5.54306
4010.18
21.7498
1.83408
4.02817
19.1563
14.4997
24.6072
1.553
12.6807
0.0075796
0.174984
577.548
13.1496
58.3996
48.4787
8.02088
164.448
10.7455
0.0432499
174.61
87.619
85.5334
186.188
30.0793
105.964
29.1218
27.2095
178.812
29.6745
26.812
21.0097
25.2618
11.0088
12.5182
82.2573
86.0464
1.95067
26.8113
170.926
99.5034
98.8973
16.1905
191.454
0.677855
85.1605
0.0705418
54.5247
6.5783
1.01877
336.836
214.351
0.569115
54.0386
32.9337
0.00073701
0.690695
0.522513
0.708804
40.7767
0.000720434
97.9455
20.0142
0.0941287
93.3649
43.0625
0.000721189
442.736
0.0292774
14.5195
10.7401
9248.07
50.2902
42.6472
18.4732
0.000714316
0.000717284
39.9757
13.4931
0.000683313
11.0564
0.000703649
0.000717372
0.000740051
0.000705937
0.231949
0.000725323
0.00175274
123.094
49.867
0.000755471
19.1171
0.00381962
75.8049
147.326
90.5731
1101.6
15.0715
0.000659471
0.00074436
0.0952263
0.710565
96.1959
0.000682232
0.178212
24.5167
51.5221
5.43944
27.697
25.1731
71.2732
1008.97
2.59266
4.97113
0.000883402
0.000735548
1.60996
4.12618
0.242993
28.1265
50.7703
5051.76
175.037
2.94452
22.8832
65.9949
0.000734757
8.93444
49.838
0.00151416
0.000714538
51.8794
3771.22
81.0696
0.000685448
0.0499537
3.97389
0.0156105
0.000730472
53.1678
6.86672
17.599
16.0695
0.000919398
920.991
0.000714642
1.66834
18.8623
0.00204583
0.00469382
92.7632
0.00319544
45.4687
313.834
85.436
26.1216
41.2517
98.9828
0.000714963
0.000689675
0.000729242
74.8523
0.0843506
315.267
5355.14
4.53356
59.7346
0.000724187
0.0434678
14.4787
0.000689965
0.000725725
97.5163
0.00067989
1.72332
55.118
27.681
0.000667674
0.00255818
0.25936
0.239518
10.9758
0.407609
0.000700725
809.892
54.1663
0.813623
0.0054477
33.3629
88.9552
0.00234458
15.3589
0.00225207
65.204
0.000844032
12.722
1.03218
0.000705393
77.0723
11.1058
172.088
0.00351766
10.0357
2.70039
0.00146967
89.4756
51.102
2.51823
210.767
0.015232
0.0467334
0.00488252
117.009
31.651
0.202565
2.45282
4.17119
171.024
0.830729
83.3537
1148.54
0.000673702
211.044
56.3837
10.4203
0.000697365
19.7032
94.472
0.151304
84.5111
23.3661
2.4211
0.326821
30.0452
120.682
0.000863268
0.010359
55.295
0.03281
0.00190319
240.855
1087.32
0.0331499
22.7771
52.1713
0.631746
46.222
26.9827
52.1188
19.3115
24.4696
0.000738984
0.189239
44.9572
18.5926
116.652
21.7101
98.136
175.883
991.208
75.0558
2.57846
0.000727144
216.705
91.0624
46.2564
10.3916
1.11727
0.149639
11.1604
0.000731113
17.0703
0.000732151
35.6885
10.6872
92.1674
29.3694
78.0539
111.048
119.949
29.6987
221.001
0.000734514
0.340639
58.1045
1424.35
7.72909
23.9185
0.000875353
0.0194388
6.20014
118.189
18.209
0.000699181
0.0653789
0.00070843
0.0541419
19.8447
0.0280689
66.1388
2.82833
72.0828
0.446115
0.442292
298.247
658.804
0.000740135
0.000740699
5.49771
186.012
17.5801
13.2296
3.27161
30.8976
19.499
0.000664906
0.752036
12.235
0.00134325
77.489
12.8392
26.9355
17.4187
0.00564428
0.000664754
0.0148124
0.000713659
26.9393
20.3157
122.756
22.9295
0.00073161
139.391
0.123244
118.659
1.7953
194.088
0.0305854
0.5081
0.000685118
38.9045
566.807
19.5399
4.60079
0.000657787
104.447
44.9269
50.5644
0.000700556
0.620437
56.7683
26.8951
0.00187204
1071.12
0.000918077
59.1281
28.9759
0.000879817
2.05189
0.141196
1.09077
0.00070051
0.000741847
75.5062
36.4472
19.7847
54.0702
0.0013523
1.92134
0.220815
44.7499
8.30477
0.00100856
1.57308
403.337
0.000688998
0.0028908
26.2945
130.869
88.4894
0.000720252
696.111
23.8529
115.77
0.0201931
2.51913
144.833
0.000735713
101.368
2.4776
18.1082
7.84811
45.3217
7.97713
94.3606
96.8866
15.9417
4967.27
0.000746669
0.000719184
142.827
47.2983
0.00130353
0.000723312
9.37538
0.000745337
51.976
52.5758
1.13885
0.000701386
39.9137
0.404279
21.4501
66.6096
25.5953
0.267019
2.35764
118.992
0.000738987
2.36775
61.5358
21.5156
18.1852
0.00232526
10.7089
2.74444
2789.48
0.000711223
2.56614
35.7477
18.3448
0.000771069
0.166362
28.7982
55.73
77.3464
0.0607266
205.02
31.8893
0.303964
31.5697
0.000712601
0.00246712
9.09574
0.000684433
26.5398
0.000726289
115.093
0.00454587
57.1728
0.000732331
0.924462
51.927
127.019
7.58757
31.0873
0.388054
241.806
0.00778796
0.15557
18.4012
0.000697684
0.000745103
27.9531
0.383182
94.8463
25.9057
0.000758628
90.8105
105.902
81.2722
7.20522
170.462
95.8211
0.000740884
2399.22
4212.4
49.7601
0.000759723
0.00435873
273.531
54.221
0.000704667
90.886
0.000698265
0.111492
303.599
0.000851916
16.9049
0.00072004
0.0642287
121.431
0.000762143
0.00101785
0.000734967
0.000938549
0.013716
1018.32
51.4701
0.309736
11.3894
0.000726474
49.2931
0.000729749
8.99125
1.82512
0.0157946
4.43996
0.00628653
73.9527
0.000725033
10698.8
4.25163
30.2308
208.298
4.79181
0.000697113
26.0423
180.194
1.99007
49.7043
58.3626
184.814
23.1179
0.0364544
28.607
0.174932
0.00103706
0.29243
4116.68
155.073
1.03299
0.0291793
20.6418
0.00092432
9.4081
52.2723
174.544
64.4362
60.5206
0.030131
0.00176364
32.543
24.4002
0.0490937
42.7608
0.000720324
120.913
218.986
0.000766948
176.406
48.8592
1.15431
0.152744
140.092
0.0155337
0.31679
13.4098
3.00437
2.84578
0.000752868
27.1346
0.111468
150.169
28.1055
79.894
6.18238
0.00223537
39.2219
0.000730491
0.00072403
10.5807
0.149541
1.72214
211.989
0.000669105
72.7578
0.148701
0.0586026
0.000791258
166.395
8.12227
0.348366
40.6867
0.0585541
309.41
3.96185
0.000716372
236.617
270.71
0.00159325
0.00318264
77.6553
26.5948
0.418663
233.404
0.0277709
2.02076
0.246063
0.391634
32.0597
94.3405
0.000736748
96.1979
22.0612
0.00735472
1.29278
1498.05
15.9816
0.000731446
0.000683579
35.4556
23.5299
66.9749
0.000683098
34.3268
2.89297
32.2541
0.000926289
167.472
46.6505
0.00156364
16.4328
0.00074096
86.8696
32.1848
28.3431
40.2226
0.000716164
0.000718333
9.82889
110.4
5.68045
37.9965
0.000665408
0.0436176
0.000734261
0.00194272
39.7943
0.088706
0.34809
0.91729
21.7524
152.293
24.7976
65.6862
0.000728964
29.4243
37.8964
20.6605
0.000738997
44.1345
0.000735326
0.000726962
0.158954
20.7586
0.0161934
336.763
35.1099
328.376
0.000762574
0.00132083
0.0372644
110.275
4.60524
145.809
0.000725841
0.00071597
0.00196177
0.00296919
139.763
44.8579
83.1161
0.308831
0.036031
3.86416
3.79032
57.2951
15.2978
61.2779
18.9405
0.000690187
182.59
0.00155583
1.83322
62.1364
26.2521
1.31019
0.619563
0.000943311
106.322
7.47887
20.0267
28.5111
0.000722606
67.2859
43.0404
171.595
0.00440599
59.1332
47.6227
56.6667
191.116
22.078
55.8472
0.277506
814.122
4.28425
0.188825
121.149
0.00072954
94.0505
173.506
0.000703879
35.8324
0.00130991
102.239
102.351
1.77325
18.8109
106.395
97.4735
13.3801
0.943423
50.2276
9.34897
0.00560328
0.000696504
24.6833
0.0862057
19.5034
58.146
4.48833
53.9287
105.074
0.000717039
15.9817
461.703
243.562
10.398
99.7533
18.2195
208.573
97.3438
1.65218
0.0159486
0.221737
68.1244
84.0297
0.222193
53.8671
59.8998
53.0005
11.0926
2.07387
10.6425
32.9919
0.000738547
238.742
88.8092
1.51864
0.000738418
26.8043
15.5597
17.163
0.000720227
149.681
0.000728796
12.0521
0.180618
0.000733693
39.4108
81.5261
0.000701061
50.527
27.9135
24.8506
12.7045
40.4063
15.4361
40.748
52.8686
1.71738
0.000708689
0.00128163
33.6916
5.62499
0.125988
0.000738541
84.189
0.00185352
0.977034
0.25078
10.8755
8.66914
0.0645066
0.523436
394.636
173.187
24.3363
1421.43
56.946
0.000706103
51.5609
18.0414
182.302
0.000709435
5.48297
0.000737103
0.000866605
17.4583
4.00029
0.0327351
0.000802652
56.9931
3020.6
0.00246924
0.00072892
1.63791
9.51027
0.0158719
0.0871844
3169.27
0.553619
0.000795785
0.000727663
66.8444
20.7734
0.306528
0.0667996
64.2425
193.17
29.5413
103.473
35.2938
0.000730546
16.6208
0.000723076
130.356
15.492
2935.97
6.15441
0.146536
0.000951899
97.3584
0.000739878
0.000712132
0.00176177
13.7145
18.5062
61.686
0.000719014
16.6902
0.000727254
529.708
61.7484
0.000744625
126.182
6.27529
0.000729066
0.000766868
0.0263523
139.709
5.64865
0.01739
0.000727497
0.000709719
134.683
91.5312
20.8813
34.5864
0.474664
34.4934
0.000718456
0.00406375
6.88874
209.963
48.1316
0.00325728
0.000731397
33.2608
0.000727515
87.9404
140.605
7.23278
0.038206
91.8394
16.6086
3.15447
0.000727966
7.44166
95.0674
85.2048
0.00217321
0.0221224
31.8225
3012.27
0.0536026
4.56418
0.000703037
0.000689904
0.000740627
0.0102667
31.9864
69.9612
0.0416089
99.6757
22.5744
419.995
8.16127
0.0109768
0.00276795
0.00617587
2.59028
48.0765
20.1538
0.000753059
96.3215
0.000716165
0.00631926
65.6581
49.7179
0.0266883
5.32437
9.8287
0.00104962
0.740399
2.52771
0.000722278
0.000931225
146.957
0.000888892
0.000753606
110.967
25.2432
3163.53
8.83007
1375.52
0.000851879
0.000700283
3520.45
17.3005
1.17936
3.72169
0.0572875
18.5508
1.02488
986.628
47.0408
66.6518
143.513
104.545
1.05626
27.1943
99.3804
0.00693323
80.7337
0.000980885
37.0332
6.32214
0.735996
7.88617
6.98892
3.50005
2.03912
39.2247
61.0169
45.0641
28.7074
50.2176
36.1597
6.28047
0.00109215
0.000724308
0.236983
252.39
0.000725512
80.0884
0.00070556
0.00379292
189.95
112.721
45.0471
74.951
979.746
77.5627
19.0882
40.2795
0.000724388
16.7219
74.494
0.000760093
198.593
0.00253929
719.432
250.265
294.799
14.1518
84.1492
4.53337
0.501096
16.0454
94.3973
20.5336
12.2253
5.38849
77.2857
0.135765
124.336
335.523
0.00367995
34.5745
0.000739834
0.000988034
17.5248
133.348
168.943
14.6293
0.612679
0.218591
0.320277
0.00084845
22.8512
0.000847934
154.808
0.000802988
0.120889
258.611
5.55384
2.89844
192.113
157.849
0.0019469
0.000740093
0.194286
13.6205
0.166083
112.996
0.0371939
25.7626
5.13017
27.1026
56.1326
0.000867453
0.000719445
130.489
0.722728
5.57531
56.3047
29.268
38.8172
0.0038899
164.643
56.1527
90.4926
0.000828357
1.28789
24.7618
79.1433
1.00386
14.0353
0.000737694
11.8602
0.000710643
221.848
0.00436201
34.7292
0.172572
10.1447
0.000761946
1961.4
0.000739093
142.751
0.0160693
0.000727373
0.0067834
14.5697
0.000729276
0.000733365
10.3282
0.0268844
20.4682
0.063436
0.000772367
22.4133
6.44882
39.6929
0.000782259
111.688
4.55493
351.891
37.5084
29.9436
57.4802
93.0144
4.63511
299.27
249.184
98.3267
0.000753326
2.42117
25.6175
18.216
0.00128564
0.016328
20.6331
482.279
0.000735472
1.66494
105.135
0.000675634
57.8747
66.8375
182.225
73.3771
52.5629
12.3109
0.341797
202.368
9.27781
73.7965
51.7791
52.4074
0.489073
0.000727258
34.189
0.00182382
0.000750513
0.000711669
177.896
0.00072755
0.000913163
18.3851
9466.32
2.85515
2.58843
52.7445
11.1669
0.000728509
42.3181
223.835
0.0161876
4.73946
55.7986
49.0299
0.282517
0.0208524
0.000717028
0.00072621
0.0173082
0.0416911
25.2445
21.2212
88.1914
14.1342
13.9378
0.00099549
197.961
28.2686
0.00074783
23.1038
826.994
0.00073464
6.95813
119.793
43.7447
91.7406
0.717469
143.962
0.00085674
0.925196
0.000773855
0.00198767
0.000746828
63.3796
18.1482
0.0967097
0.000739345
0.000686727
188.249
28.6445
2.7345
19.9821
6.24249
36.3336
18.427
24.4755
26.5618
0.000732269
0.482329
0.87914
0.35395
19.0567
77.2008
49.5762
84.0748
27.8187
88.0963
161.595
95.3707
46.5647
32.1641
0.131523
56.787
29.6188
0.0202636
79.5649
53.9127
10.9295
0.000699443
0.000742731
0.000873459
0.00118267
49.9012
0.000674429
109.753
50.5035
229.906
28.9515
0.000726439
12.4734
15.8884
58.0823
15.369
29.478
13.7345
0.000754697
0.000742226
0.00345302
0.176011
0.000710772
84.5296
13.9611
1.7426
47.6592
15.0685
39.0289
118.305
0.000728216
19.0922
30.9769
0.000944599
0.0907677
52.8285
168.852
20.2798
4.7516
0.000753929
33.6857
39.6364
0.000959491
0.0116208
0.000722848
39.7524
0.00116593
0.517921
112.709
0.763649
0.0999082
21.808
2877.59
0.000758169
30.2111
0.000675475
10.2401
23.0476
22.2873
17.0768
60.8659
31.7186
58.2619
188.995
45.3515
0.000732409
0.000718148
0.0475259
0.206885
53.1952
4.54797
0.000730217
164.41
2.89804
0.00301836
52.3403
0.0545805
0.00287139
0.0322884
74.2068
0.00203747
0.000734265
21.353
83.4572
25.1426
1.62571
53.9654
8.24937
0.000737456
16.8036
0.146137
0.0685518
0.000791097
34.6987
20.0456
5.51025
139.122
94.6195
16.4152
2.90029
0.000725724
25.8582
0.000726199
223.157
0.00407537
33.412
0.157982
53.6939
0.00810693
0.00356627
4.54833
3.74134
386.584
0.000853141
1.89406
46.3901
91.2241
6.40677
114.717
1.32764
0.000812297
0.000744797
58.1927
24.6027
313.17
2.24701
0.16445
54.9289
21.0961
59.5201
0.0668311
0.00072599
0.000734803
1.2741
767.877
18.6067
105.976
0.000842773
0.00453221
1.10949
48.9156
22.8255
45.0719
57.9197
60.8523
0.000741921
0.00073554
179.029
135.888
61.5911
427.113
48.0779
0.0161017
132.991
0.000724665
226.236
0.0177345
0.0210114
0.000727211
0.0347064
0.173058
53.6943
48.4277
0.000754517
116.31
0.000719035
82.8555
148.522
0.000718105
0.470205
0.0007544
16.4695
0.324097
5.61858
0.00069177
13.1869
90.9349
13.1428
45.1294
1.24011
60.6261
1.58076
62.6682
33.3871
84.0311
30.8109
0.000955094
0.000736188
27.2198
0.480814
61.6478
0.000731901
123.351
0.000724325
0.00131041
0.250161
0.000720459
273.63
97.6679
0.000762186
21.8766
2.57093
0.175172
33.1979
0.00188089
0.000708275
43.0001
9.15618
0.0205691
46.5958
2371.87
108.393
1.62925
183.004
0.225342
0.000735777
0.000900522
0.027656
1.55169
57.7053
140.766
312.549
52.4242
55.0418
10.606
1.9798
37.3413
154.175
56.1171
0.0352183
0.08546
13.0667
83.8768
0.000793201
1.00349
17.531
192.489
0.000726906
49.0899
0.000680746
0.00644345
129.557
0.000790474
65.1867
1155.57
0.000738013
175.249
0.000870178
8.89673
0.00652822
0.00103375
47.5294
16.2047
64.6343
8.4689
79.5641
350.449
105.553
5.96046
36.6787
20.3423
0.000705297
162.904
0.0565393
88.6079
4.03129
10.5353
0.0346302
0.00108868
167.197
116.637
12.6436
48.3855
18.0944
0.0103091
0.000694831
0.000744475
1.65761
75.3309
17.253
0.000703922
1167.96
20.4522
0.00960857
0.141789
20.1879
0.000664425
0.392113
0.000762217
0.000723747
21.4319
30.0425
0.0546539
0.00624129
0.000708807
29.0777
1.77406
20.7292
0.00231498
0.032177
0.00738198
61.1667
103.267
1.23307
0.000729311
160.24
0.000780822
0.0337227
0.00416207
0.00141257
34.8228
64.8504
0.000725232
49.9814
0.000748745
0.000696269
0.000880815
53.4412
15.4256
53.2222
42.4433
20.0771
61.895
0.0442232
0.00072878
0.00706939
0.00161842
2.86895
0.000713542
61.6052
11.7271
0.033088
101.13
0.353784
22.3074
1.87887
0.00184171
125.488
56.7795
20.191
0.0072445
0.146487
214.857
0.000732765
8.92414
57.7599
0.000724659
0.708816
0.00279787
19.527
0.00069166
81.5041
37.2702
1.71716
0.43079
94.1655
365.897
4.71896
125.548
0.00104644