/*--------------------------------*- C++ -*----------------------------------*\
| =========                 |                                                 |
| \\      /  F ield         | OpenFOAM: The Open Source CFD Toolbox           |
|  \\    /   O peration     | Version:  2.3.1                                 |
|   \\  /    A nd           | Web:      www.OpenFOAM.org                      |
|    \\/     M anipulation  |                                                 |
\*---------------------------------------------------------------------------*/
FoamFile
{
    version     2.0;
    format      ascii;
    class       volVectorField;
    location    "0.47";
    object      U;
}
// * * * * * * * * * * * * * * * * * * * * * * * * * * * * * * * * * * * * * //

dimensions      [0 1 -1 0 0 0 0];

internalField   nonuniform List<vector> 
15166
(
(5.97403 0.559945 3.19327e-19)
(7.18676 1.03438 1.59855e-18)
(8.26903 0.902222 -8.94009e-19)
(9.30107 0.95629 8.0174e-19)
(10.0961 1.02019 8.23976e-19)
(10.8727 1.07498 4.34252e-19)
(11.5267 1.17341 -8.59504e-19)
(12.0689 1.23918 8.32987e-19)
(12.4642 1.33353 -4.22538e-19)
(12.7711 1.39302 1.67145e-18)
(12.997 1.44848 -1.22765e-18)
(13.1508 1.5068 1.22175e-18)
(6.66612 1.02632 4.89019e-19)
(7.60222 1.42492 5.24154e-20)
(8.55502 1.2094 2.74515e-20)
(9.4768 1.22948 4.56099e-19)
(10.2373 1.24939 -3.9601e-19)
(10.9651 1.27589 0)
(11.5823 1.33751 4.25024e-19)
(12.0879 1.38345 1.45183e-21)
(12.4665 1.44389 4.18304e-19)
(12.7601 1.4857 -8.43359e-19)
(12.9764 1.52576 1.65664e-18)
(13.1344 1.5647 -1.23424e-18)
(7.20866 1.25742 -4.63371e-19)
(8.0376 1.56821 -2.47807e-18)
(8.89939 1.37642 4.88139e-19)
(9.72199 1.4105 -9.25303e-19)
(10.4313 1.41722 -1.65941e-20)
(11.1023 1.43291 8.84018e-19)
(11.6751 1.47251 -1.26961e-18)
(12.1419 1.50343 -4.35702e-19)
(12.4973 1.54164 8.31621e-19)
(12.7724 1.56904 5.99617e-21)
(12.9766 1.5953 -1.23788e-18)
(13.1301 1.62009 1.62281e-18)
(7.51482 1.37413 0)
(8.35039 1.62659 -1.08484e-18)
(9.1811 1.47816 2.54415e-18)
(9.94679 1.52639 -1.44514e-18)
(10.6198 1.53135 9.2528e-19)
(11.2454 1.54615 1.36581e-18)
(11.7793 1.57484 -4.23947e-19)
(12.2125 1.59689 4.3571e-19)
(12.5453 1.62124 -8.51553e-19)
(12.8023 1.63803 8.41239e-19)
(12.9949 1.65298 4.1741e-19)
(13.1437 1.66615 8.27411e-19)
(7.72611 1.44767 -6.25654e-19)
(8.59201 1.66231 -5.80181e-19)
(9.4073 1.55331 -1.57529e-18)
(10.1389 1.60712 1.48603e-18)
(10.7879 1.61244 -4.70721e-19)
(11.3802 1.62865 -4.56031e-19)
(11.8832 1.6515 -4.44791e-19)
(12.2893 1.66819 4.5112e-19)
(12.6024 1.68384 -4.29789e-19)
(12.8434 1.69335 -4.2343e-19)
(13.0255 1.70077 -1.26308e-18)
(13.1674 1.70719 -4.66281e-21)
(7.91379 1.4991 1.23992e-18)
(8.80888 1.68485 1.17544e-18)
(9.60759 1.60959 -1.09928e-18)
(10.3124 1.66476 2.07596e-18)
(10.9415 1.67167 -1.98439e-18)
(11.5069 1.68943 9.502e-19)
(11.9844 1.70865 0)
(12.3682 1.72175 9.05146e-19)
(12.6644 1.73169 -1.76277e-18)
(12.8915 1.73607 8.61724e-19)
(13.0638 1.73806 0)
(13.1987 1.73922 1.25612e-18)
(8.08657 1.53346 -6.74607e-19)
(9.01003 1.69515 6.20896e-19)
(9.7924 1.64854 0)
(10.4749 1.70355 0)
(11.0854 1.71328 5.19072e-19)
(11.6276 1.73265 4.97771e-19)
(12.0831 1.74964 -9.51128e-19)
(12.4478 1.76031 1.38427e-18)
(12.7291 1.76637 4.54196e-19)
(12.9442 1.7669 0)
(13.1082 1.76444 4.35635e-19)
(13.2378 1.76132 0)
(8.24115 1.55405 -1.3631e-18)
(9.19331 1.69573 1.25578e-18)
(9.96184 1.6731 5.74798e-19)
(10.6261 1.72706 5.61888e-19)
(11.2201 1.74013 -2.61912e-18)
(11.7421 1.76103 5.09647e-19)
(12.1786 1.77682 0)
(12.5268 1.78599 -4.65764e-19)
(12.7951 1.7895 4.64869e-19)
(13 1.7874 2.75863e-21)
(13.1565 1.78198 -8.71e-19)
(13.2798 1.77626 8.59084e-19)
(8.37871 1.56381 1.40258e-18)
(9.35922 1.68907 -1.29116e-18)
(10.1164 1.68648 5.90163e-19)
(10.7659 1.73874 -1.69065e-18)
(11.3453 1.75507 2.1564e-18)
(11.85 1.77722 -2.06481e-18)
(12.2701 1.79243 9.94062e-19)
(12.6042 1.80072 0)
(12.8614 1.80266 4.72833e-19)
(13.0574 1.79884 0)
(13.2072 1.79136 9.01334e-19)
(13.3251 1.78318 -4.37036e-19)
(8.50242 1.56508 1.44223e-18)
(9.51037 1.67688 0)
(10.258 1.69107 6.23242e-19)
(10.8952 1.74123 5.88076e-19)
(11.4616 1.76048 5.58651e-19)
(11.9513 1.78352 5.34353e-19)
(12.3573 1.79846 0)
(12.6792 1.80628 0)
(12.9268 1.80725 -1.42735e-18)
(13.1152 1.80234 2.33102e-18)
(13.2593 1.79357 -9.02405e-19)
(13.3721 1.78522 -1.3397e-18)
(8.61499 1.55964 1.4716e-18)
(9.64931 1.66033 -2.01473e-18)
(10.3888 1.68852 1.89427e-18)
(11.0154 1.73635 -1.77353e-18)
(11.57 1.7581 -5.56673e-19)
(12.0466 1.78169 -5.33035e-19)
(12.4401 1.79654 1.03609e-18)
(12.7515 1.80409 -1.00413e-18)
(12.9908 1.80452 -1.4631e-18)
(13.1726 1.79896 -4.675e-19)
(13.3117 1.78907 1.8565e-18)
(13.4196 1.77935 -8.93839e-19)
(8.71815 1.54865 -1.50759e-18)
(9.77771 1.64009 -2.05017e-18)
(10.5103 1.67995 -3.1814e-19)
(11.1275 1.72537 1.2123e-18)
(11.6712 1.7492 8.56872e-19)
(12.1361 1.77308 -2.20021e-18)
(12.5188 1.78789 2.11549e-18)
(12.821 1.79533 -3.85534e-21)
(13.053 1.79554 -1.49096e-18)
(13.2291 1.78987 9.65944e-19)
(13.3634 1.77983 -4.66328e-19)
(13.4667 1.76926 9.05398e-19)
(8.813 1.53307 -1.14851e-18)
(9.89675 1.61673 -3.53611e-19)
(10.6236 1.66628 3.22596e-19)
(11.2323 1.70924 0)
(11.7661 1.73477 2.89665e-19)
(12.2205 1.7587 -2.82765e-19)
(12.5935 1.77352 0)
(12.8876 1.78091 0)
(13.113 1.78106 2.54176e-19)
(13.2838 1.77547 0)
(13.4131 1.76583 0)
(13.5105 1.75538 -9.15807e-19)
(8.90057 1.51362 -3.86922e-19)
(10.0075 1.59069 3.51962e-19)
(10.7295 1.64824 0)
(11.3304 1.68877 0)
(11.8551 1.7156 1.18759e-18)
(12.3001 1.7394 -8.60623e-19)
(12.6644 1.75416 1.09231e-18)
(12.9513 1.76146 -1.0607e-18)
(13.1711 1.76142 7.67888e-19)
(13.3375 1.75536 -5.67755e-21)
(13.4632 1.74488 -1.93846e-18)
(13.5579 1.73723 1.17932e-18)
(8.98157 1.49088 -1.59007e-18)
(10.1108 1.56228 0)
(10.8288 1.62641 1.34314e-18)
(11.4226 1.66455 -1.59645e-18)
(11.9387 1.69236 0)
(12.3753 1.71588 2.91876e-19)
(12.7318 1.73057 1.10939e-18)
(13.0123 1.73783 -2.4197e-18)
(13.2272 1.73792 2.08201e-18)
(13.3897 1.73222 -1.01447e-18)
(13.5123 1.72176 9.81268e-19)
(13.6039 1.70852 -1.19473e-18)
(9.05669 1.46532 3.47818e-21)
(10.2074 1.53178 7.35634e-19)
(10.9221 1.6013 0)
(11.5093 1.63711 3.1972e-19)
(12.0175 1.66561 0)
(12.4463 1.68874 8.797e-19)
(12.7959 1.70334 -7.81701e-21)
(13.0707 1.71058 -8.23969e-19)
(13.2811 1.7108 0)
(13.44 1.70542 -2.58307e-19)
(13.5592 1.69542 2.51262e-19)
(13.648 1.68082 0)
(9.12651 1.43735 4.02394e-19)
(10.2978 1.49942 -1.11951e-18)
(11.0099 1.57329 1.03885e-18)
(11.591 1.60684 -4.57393e-21)
(12.0919 1.63579 3.0911e-19)
(12.5135 1.65844 -2.97823e-19)
(12.8567 1.67291 0)
(13.1264 1.6801 0)
(13.3329 1.68042 1.06751e-18)
(13.4885 1.67525 -7.85953e-19)
(13.6047 1.66577 -5.05978e-19)
(13.6902 1.65218 -2.45542e-19)
(9.1914 1.40723 4.11456e-19)
(10.3826 1.46532 3.72752e-19)
(11.0927 1.5427 -3.47716e-19)
(11.6681 1.57407 6.59463e-19)
(12.1621 1.60325 -1.57336e-18)
(12.5771 1.62537 3.06285e-19)
(12.9146 1.63968 0)
(13.1796 1.64683 5.5837e-19)
(13.3825 1.64727 -5.45096e-19)
(13.5353 1.64232 -7.9041e-19)
(13.649 1.63326 2.58658e-19)
(13.7322 1.62089 7.43775e-19)
(9.25181 1.37525 0)
(10.4623 1.42967 0)
(11.1709 1.50982 0)
(11.7409 1.53909 3.37063e-19)
(12.2284 1.56832 0)
(12.6374 1.58985 6.08633e-19)
(12.9695 1.60396 -8.86146e-19)
(13.2304 1.61108 0)
(13.4301 1.61171 -5.47649e-19)
(13.5803 1.60709 5.32755e-19)
(13.6918 1.59847 0)
(13.7731 1.58637 0)
(9.3081 1.34163 2.12259e-18)
(10.5372 1.39259 -1.53823e-18)
(11.2448 1.47489 7.18588e-19)
(11.8097 1.50211 -1.01053e-18)
(12.2911 1.53124 1.29025e-18)
(12.6944 1.55213 -9.25309e-19)
(13.0217 1.56602 8.92917e-19)
(13.2787 1.5731 2.8313e-19)
(13.4754 1.57394 -1.1131e-18)
(13.6232 1.56972 8.11218e-19)
(13.7325 1.56173 0)
(13.8119 1.5493 0)
(9.36053 1.30654 -1.71734e-18)
(10.6077 1.35419 0)
(11.3146 1.4381 0)
(11.8748 1.46335 -6.81273e-19)
(12.3504 1.49222 6.54601e-19)
(12.7485 1.51243 -9.32881e-19)
(13.0712 1.52606 5.1163e-21)
(13.3247 1.53306 8.72417e-19)
(13.5187 1.53404 5.60489e-19)
(13.6642 1.53011 -5.48967e-19)
(13.7714 1.52262 -2.67087e-19)
(13.8486 1.50989 0)
(9.40926 1.27018 -1.2999e-18)
(10.674 1.31459 1.18166e-18)
(11.3806 1.39966 0)
(11.9364 1.42296 -6.87778e-19)
(12.4066 1.45146 9.92276e-19)
(12.7997 1.47096 0)
(13.1183 1.48427 0)
(13.3685 1.49113 2.95261e-19)
(13.56 1.49216 5.6647e-19)
(13.7037 1.48834 -5.54963e-19)
(13.8092 1.481 5.37081e-19)
(13.8853 1.47008 0)
(9.45478 1.23255 -4.25448e-21)
(10.7364 1.27374 -1.18798e-18)
(11.4432 1.35964 0)
(11.9946 1.38108 1.04427e-18)
(12.4598 1.40912 -9.98065e-19)
(12.8482 1.42788 3.20479e-19)
(13.163 1.44085 3.08617e-19)
(13.4102 1.44758 -8.85785e-19)
(13.5996 1.44872 5.77486e-19)
(13.7415 1.44518 -2.80486e-19)
(13.8457 1.43824 2.68465e-21)
(13.9207 1.4285 0)
(9.49658 1.19375 -8.79835e-19)
(10.7951 1.23178 8.01682e-19)
(11.5023 1.31826 0)
(12.0497 1.33785 -3.4958e-19)
(12.5101 1.36535 0)
(12.8942 1.38336 -3.20086e-19)
(13.2054 1.39598 3.08957e-21)
(13.45 1.40258 3.00984e-19)
(13.6373 1.40382 -2.91644e-19)
(13.7776 1.40051 -2.69167e-21)
(13.8806 1.39377 -2.53349e-21)
(13.9547 1.38524 -1.07125e-18)
(9.53535 1.15424 -4.48033e-19)
(10.8502 1.18913 -8.02061e-19)
(11.5582 1.27569 7.51772e-19)
(12.1019 1.29343 3.55949e-19)
(12.5577 1.32031 0)
(12.9378 1.33755 3.26044e-19)
(13.2456 1.34981 -6.25387e-19)
(13.4877 1.35625 -5.99008e-19)
(13.6731 1.35758 8.80375e-19)
(13.8121 1.35452 -2.57985e-21)
(13.9141 1.34801 -2.47264e-21)
(13.9873 1.33993 2.68965e-19)
(9.57159 1.11383 4.42969e-19)
(10.9021 1.14547 -8.1454e-19)
(11.611 1.23195 -3.79428e-19)
(12.1513 1.2479 -3.55308e-19)
(12.6027 1.27411 -3.4239e-19)
(12.979 1.29057 3.25771e-19)
(13.2837 1.30244 -1.26447e-18)
(13.5235 1.30872 2.9219e-21)
(13.7072 1.31012 0)
(13.845 1.3073 8.57352e-19)
(13.9461 1.30104 -2.83116e-19)
(14.0189 1.29393 -2.71763e-19)
(9.6049 1.07254 -4.54991e-19)
(10.9508 1.1009 0)
(11.661 1.18715 3.14495e-21)
(12.198 1.20134 3.61132e-19)
(12.6453 1.22684 6.86785e-19)
(13.018 1.24252 3.25396e-19)
(13.3198 1.254 -1.27449e-18)
(13.5574 1.26012 3.12003e-19)
(13.7396 1.26162 8.98373e-19)
(13.8762 1.25914 0)
(13.9766 1.25325 0)
(14.0489 1.24602 0)
(9.63522 1.03041 1.82564e-18)
(10.9964 1.05548 -8.19855e-19)
(11.7082 1.14139 7.71377e-19)
(12.2421 1.15384 -3.6056e-19)
(12.6855 1.17859 6.97421e-19)
(13.0547 1.19349 9.92259e-19)
(13.3539 1.20455 -9.62425e-19)
(13.5894 1.21049 5.93882e-21)
(13.7702 1.21205 1.20433e-18)
(13.9058 1.20982 -8.7975e-19)
(14.0053 1.20443 2.84966e-19)
(14.0768 1.19802 -5.44871e-19)
(9.66293 0.9878 -4.57789e-19)
(11.0391 1.00954 -4.1526e-19)
(11.7526 1.09479 -3.84063e-19)
(12.2837 1.10548 -7.25746e-19)
(12.7234 1.12945 -3.40779e-19)
(13.0894 1.14355 3.36326e-19)
(13.386 1.15418 3.18456e-19)
(13.6197 1.15992 -9.35499e-19)
(13.7992 1.1615 3.06907e-19)
(13.9339 1.1594 5.88304e-19)
(14.0327 1.15419 -2.85075e-19)
(14.1036 1.14936 -2.79692e-19)
(9.6881 0.944609 -9.20667e-19)
(11.0789 0.962991 1.66947e-18)
(11.7945 1.04744 0)
(12.3229 1.05633 0)
(12.7591 1.07949 0)
(13.122 1.09279 6.73444e-19)
(13.4162 1.10298 6.49811e-19)
(13.6483 1.10852 -3.13282e-19)
(13.8266 1.11013 3.06038e-19)
(13.9605 1.10826 2.05584e-21)
(14.0589 1.10328 -5.73553e-19)
(14.1293 1.09876 5.60807e-19)
(9.71118 0.901077 9.31176e-19)
(11.1164 0.91591 -2.07202e-19)
(11.8339 0.999273 -1.95766e-19)
(12.3598 1.00644 0)
(12.7927 1.02879 0)
(13.1526 1.04127 -3.37678e-19)
(13.4446 1.05102 3.2502e-19)
(13.6751 1.05636 -6.36143e-19)
(13.8524 1.058 3.05079e-19)
(13.9855 1.05635 -8.97244e-19)
(14.0835 1.05165 0)
(14.1537 1.04768 -2.81516e-19)
(9.73164 0.857035 -1.86888e-18)
(11.151 0.868129 6.36717e-19)
(11.8709 0.950294 1.95556e-19)
(12.3945 0.95582 -5.52519e-19)
(12.8242 0.977363 7.12036e-19)
(13.1814 0.989052 0)
(13.4713 0.998361 6.5491e-19)
(13.7003 1.0035 -6.40205e-19)
(13.8766 1.00516 0)
(14.0091 1.00376 0)
(14.1065 0.999415 0)
(14.1763 0.994881 5.60439e-19)
(9.74973 0.812996 0)
(11.183 0.820203 0)
(11.9054 0.900733 -3.92729e-19)
(12.427 0.904589 1.69376e-21)
(12.8537 0.925312 0)
(13.2082 0.93621 -6.8228e-19)
(13.4962 0.945074 1.48978e-18)
(13.7238 0.949989 -4.83402e-19)
(13.8992 0.951636 -6.18847e-19)
(14.0312 0.950365 1.57708e-19)
(14.1282 0.946286 6.05114e-21)
(14.1976 0.942042 5.77312e-19)
(9.76577 0.768563 4.71182e-19)
(11.2126 0.771635 -2.1434e-19)
(11.9376 0.85054 1.9875e-19)
(12.4573 0.852819 -1.86247e-19)
(12.8811 0.872699 8.95851e-19)
(13.2332 0.882801 -1.73408e-19)
(13.5193 0.891216 -4.97115e-19)
(13.7457 0.895916 -3.19073e-19)
(13.9204 0.897569 3.14375e-19)
(14.0519 0.896496 -3.04101e-19)
(14.1487 0.892801 1.4835e-19)
(14.2178 0.888582 -1.41536e-19)
(9.77977 0.723719 7.12111e-19)
(11.2397 0.722565 -6.42911e-19)
(11.9676 0.799815 -1.98607e-19)
(12.4856 0.800506 1.88626e-19)
(12.9067 0.819559 -5.37685e-19)
(13.2564 0.828875 5.19841e-19)
(13.5408 0.836845 -3.22569e-21)
(13.766 0.841348 -1.64034e-19)
(13.94 0.843033 -3.1298e-19)
(14.0712 0.842154 4.59957e-19)
(14.1678 0.838796 1.47666e-19)
(14.2369 0.835112 -4.38259e-19)
(9.79122 0.678738 2.39692e-19)
(11.2644 0.673261 0)
(11.9954 0.748653 -2.00514e-19)
(12.5118 0.747718 9.26354e-22)
(12.9304 0.765925 0)
(13.2778 0.774459 1.74357e-19)
(13.5605 0.781996 0)
(13.7847 0.786322 0)
(13.958 0.788079 0)
(14.0889 0.787511 0)
(14.1853 0.784663 -2.97734e-19)
(14.2546 0.780799 5.80748e-19)
(9.80111 0.633555 -4.8034e-19)
(11.2868 0.623654 0)
(12.0211 0.697072 4.0172e-19)
(12.5361 0.69445 -1.8931e-19)
(12.9522 0.711836 -3.61332e-19)
(13.2974 0.719591 1.76735e-19)
(13.5786 0.726685 -3.36013e-19)
(13.8018 0.730802 3.28834e-19)
(13.9745 0.732572 -3.16162e-19)
(14.1049 0.732222 3.16417e-21)
(14.201 0.729987 1.53785e-19)
(14.2701 0.727315 2.91532e-19)
(9.80878 0.587882 0)
(11.307 0.573485 -2.16946e-19)
(12.0446 0.64502 -2.0123e-19)
(12.5583 0.640711 0)
(12.9722 0.657307 -3.62768e-19)
(13.3154 0.664272 7.01587e-19)
(13.595 0.670914 -3.40722e-19)
(13.8173 0.674794 0)
(13.9894 0.676502 0)
(14.1195 0.676154 -1.55527e-19)
(14.2154 0.673954 -1.50779e-19)
(14.2837 0.673965 0)
(9.81435 0.542238 4.81901e-19)
(11.3248 0.523329 -4.21941e-21)
(12.066 0.592659 -2.93646e-21)
(12.5787 0.586557 -3.37495e-21)
(12.9904 0.602392 -5.50575e-19)
(13.3316 0.608569 0)
(13.6099 0.614742 0)
(13.8313 0.618376 0)
(14.0031 0.620018 0)
(14.1331 0.619641 1.55605e-19)
(14.2294 0.616895 -1.49784e-19)
(14.2987 0.618754 2.94388e-21)
(9.81812 0.496139 -6.05499e-19)
(11.3405 0.472699 6.56003e-19)
(12.0854 0.539914 4.04406e-19)
(12.5971 0.532001 -3.85395e-19)
(13.0069 0.547145 9.1252e-20)
(13.3463 0.552543 0)
(13.6232 0.558287 3.40013e-19)
(13.8439 0.561721 -3.31047e-21)
(14.0153 0.563463 -3.23526e-19)
(14.1452 0.563603 0)
(14.2415 0.561617 -2.28524e-19)
(14.3105 0.55824 0)
(9.81995 0.449943 2.05229e-21)
(11.3541 0.421958 4.39743e-19)
(12.1027 0.486857 1.0205e-19)
(12.6136 0.47712 2.8685e-19)
(13.0216 0.491635 -2.77862e-19)
(13.3592 0.49624 0)
(13.635 0.50154 3.41205e-19)
(13.8549 0.504744 -3.32491e-21)
(14.026 0.506416 -2.43848e-19)
(14.1558 0.506605 0)
(14.2519 0.504997 1.53047e-19)
(14.3213 0.50513 0)
(9.82044 0.403768 1.21359e-21)
(11.3655 0.370941 3.3042e-19)
(12.118 0.433335 -1.02037e-19)
(12.6283 0.421999 1.92963e-19)
(13.0346 0.435913 0)
(13.3706 0.439681 0)
(13.6452 0.444538 -8.61219e-20)
(13.8645 0.447497 -8.35364e-20)
(14.0353 0.449124 -8.0937e-20)
(14.1651 0.449438 -7.89911e-20)
(14.2613 0.448057 -1.52583e-19)
(14.331 0.448542 1.48926e-19)
(9.81906 0.357345 -1.22542e-19)
(11.3747 0.319405 -1.09857e-19)
(12.1314 0.379367 2.04012e-19)
(12.6412 0.366649 -4.83667e-19)
(13.0459 0.379982 1.85916e-19)
(13.3803 0.382899 0)
(13.6538 0.387304 8.61359e-20)
(13.8726 0.390021 8.35594e-20)
(14.0432 0.391615 -1.61816e-19)
(14.173 0.392046 2.3815e-19)
(14.2694 0.390809 1.53549e-19)
(14.3392 0.391369 -1.51202e-19)
(9.81596 0.311182 0)
(11.3816 0.268012 0)
(12.1427 0.325063 1.02872e-19)
(12.6523 0.311044 0)
(13.0556 0.323915 -9.29033e-20)
(13.3885 0.325901 8.94965e-20)
(13.661 0.329865 1.72136e-19)
(13.8792 0.332334 -2.52679e-19)
(14.0496 0.333901 0)
(14.1794 0.334508 -7.9489e-20)
(14.2761 0.333643 7.66207e-20)
(14.3461 0.333476 -2.25103e-19)
(9.81128 0.264829 6.17454e-20)
(11.3864 0.216228 2.20473e-19)
(12.1518 0.27047 -3.09402e-19)
(12.6617 0.255338 0)
(13.0637 0.267661 4.63494e-20)
(13.3951 0.268676 8.88558e-20)
(13.6666 0.272221 -3.46827e-19)
(13.8843 0.274441 4.20582e-19)
(14.0546 0.275952 -1.64431e-19)
(14.1846 0.276631 1.19388e-19)
(14.2814 0.275976 0)
(14.3518 0.275627 7.5779e-20)
(9.80481 0.218586 -6.17656e-20)
(11.3894 0.164383 0)
(12.159 0.215804 -5.10657e-20)
(12.6694 0.199698 9.78635e-20)
(13.0702 0.21121 1.39315e-19)
(13.4 0.211168 -9.02228e-20)
(13.6707 0.214396 -4.34838e-20)
(13.888 0.216388 4.2202e-20)
(14.0582 0.217879 8.15759e-20)
(14.1883 0.218778 -1.20127e-19)
(14.2854 0.218758 -3.89121e-20)
(14.3564 0.217447 -3.7588e-20)
(9.79672 0.17241 -9.22896e-20)
(11.3905 0.112335 1.39275e-19)
(12.1641 0.161147 -7.7491e-20)
(12.6753 0.144067 1.21565e-19)
(13.0747 0.154394 -2.10042e-19)
(13.4035 0.153466 1.79923e-19)
(13.6733 0.156468 -6.57727e-20)
(13.8902 0.15817 4.18638e-20)
(14.0604 0.159591 -1.64356e-19)
(14.1906 0.160495 6.04152e-20)
(14.288 0.160675 3.89415e-20)
(14.359 0.159534 3.81135e-20)
(9.78716 0.126572 -9.2775e-20)
(11.3898 0.0600915 2.80818e-20)
(12.1675 0.106475 2.58582e-20)
(12.6795 0.0882735 -2.44052e-20)
(13.0776 0.0973083 -2.31643e-20)
(13.4054 0.0958622 4.52481e-20)
(13.6745 0.0983793 2.17824e-20)
(13.891 0.0998168 0)
(14.0612 0.101214 0)
(14.1917 0.102283 2.00236e-20)
(14.2894 0.103014 0)
(14.3611 0.102108 0)
(9.77615 0.0807969 -1.55434e-20)
(11.3871 0.00762411 1.38725e-20)
(12.1692 0.0517617 7.13609e-22)
(12.6818 0.0323979 -1.2664e-20)
(13.079 0.040068 0)
(13.4058 0.0381803 0)
(13.6742 0.0401825 1.15362e-20)
(13.8904 0.0413538 -2.1177e-20)
(14.0606 0.0427244 1.0352e-20)
(14.1914 0.0438589 6.27062e-22)
(14.2895 0.0447651 0)
(14.3613 0.0444238 0)
(9.7633 0.0352111 4.67024e-20)
(11.3825 -0.0449293 2.77746e-20)
(12.1691 -0.00309862 -1.38505e-20)
(12.6824 -0.0235258 3.82242e-22)
(13.0789 -0.0172 -1.1706e-20)
(13.4047 -0.019593 1.12788e-20)
(13.6724 -0.0181137 -1.16015e-20)
(13.8884 -0.0171629 -3.16853e-20)
(14.0587 -0.0158201 -1.00977e-20)
(14.1897 -0.0145102 9.5116e-21)
(14.2882 -0.0130831 -9.78114e-21)
(14.3606 -0.0128486 0)
(9.74894 -0.0101001 4.64543e-20)
(11.3761 -0.0972628 -8.3759e-20)
(12.1673 -0.0579318 1.31311e-20)
(12.6813 -0.0795174 -2.42772e-20)
(13.0772 -0.0744875 3.55516e-20)
(13.4021 -0.0774089 3.40603e-20)
(13.6692 -0.0764535 1.09181e-20)
(13.885 -0.0757521 1.05994e-20)
(14.0554 -0.074492 1.03103e-20)
(14.1867 -0.0732195 3.01272e-20)
(14.2855 -0.0718465 -9.78976e-21)
(14.3575 -0.0707227 5.7279e-20)
(9.73315 -0.0553393 -6.17939e-20)
(11.3677 -0.149581 -8.284e-20)
(12.1637 -0.112751 1.30184e-19)
(12.6785 -0.135552 -2.44985e-20)
(13.074 -0.131766 -1.1669e-19)
(13.398 -0.135234 1.8053e-19)
(13.6646 -0.134789 -4.41183e-20)
(13.8803 -0.134337 0)
(14.0509 -0.13319 4.12715e-20)
(14.1827 -0.131953 -2.00903e-20)
(14.2821 -0.130862 1.95754e-20)
(14.3552 -0.128389 -1.9132e-20)
(9.71559 -0.100427 -1.25504e-19)
(11.3575 -0.201774 -5.53308e-22)
(12.1582 -0.167543 0)
(12.6742 -0.191589 -9.76266e-20)
(13.0692 -0.188973 9.41362e-20)
(13.3925 -0.192994 0)
(13.6586 -0.193038 -1.18882e-24)
(13.8742 -0.192804 0)
(14.0451 -0.191669 -4.12739e-20)
(14.1773 -0.190183 0)
(14.2774 -0.188762 0)
(14.3518 -0.185967 -7.50546e-20)
(9.69651 -0.145076 6.24942e-20)
(11.3456 -0.253605 5.52287e-20)
(12.151 -0.222232 -4.15623e-19)
(12.6681 -0.247577 3.923e-19)
(13.0629 -0.246103 -1.88258e-19)
(13.3855 -0.250679 0)
(13.6512 -0.251194 -4.3699e-20)
(13.8667 -0.251175 0)
(14.0378 -0.250116 0)
(14.1704 -0.248535 0)
(14.271 -0.247001 0)
(14.3458 -0.244385 -1.50789e-19)
(9.67608 -0.189476 1.24977e-19)
(11.3318 -0.305274 2.23497e-19)
(12.142 -0.276864 0)
(12.6604 -0.303488 2.93307e-19)
(13.055 -0.303126 -9.45438e-20)
(13.377 -0.308285 0)
(13.6423 -0.309262 -8.65364e-20)
(13.8577 -0.309503 8.65058e-20)
(14.029 -0.30855 1.65913e-19)
(14.1621 -0.306903 2.40317e-19)
(14.2632 -0.305018 -1.57487e-19)
(14.3385 -0.302844 7.54181e-20)
(9.65434 -0.233592 -5.00178e-19)
(11.3161 -0.35673 -1.11793e-19)
(12.1313 -0.331389 1.03937e-19)
(12.6511 -0.359309 -8.22564e-23)
(13.0456 -0.360034 -9.36984e-20)
(13.367 -0.365785 9.01569e-20)
(13.6318 -0.367257 8.64312e-20)
(13.8473 -0.367772 -2.55246e-19)
(14.0189 -0.366975 0)
(14.1524 -0.365394 -2.40231e-19)
(14.2541 -0.363446 3.13153e-19)
(14.3297 -0.361308 -3.06117e-19)
(9.63081 -0.277754 2.50094e-19)
(11.2988 -0.408218 2.22803e-19)
(12.1188 -0.385776 -2.08642e-19)
(12.6401 -0.415014 -9.80455e-20)
(13.0346 -0.41681 1.86349e-19)
(13.3554 -0.423176 -9.18803e-20)
(13.6201 -0.425128 -8.81516e-20)
(13.8355 -0.425926 8.46751e-20)
(14.0074 -0.425266 0)
(14.1415 -0.423623 0)
(14.2438 -0.421306 0)
(14.3201 -0.418943 7.76245e-22)
(9.6058 -0.321284 -2.50025e-19)
(11.2795 -0.459143 0)
(12.1045 -0.439973 -1.45406e-22)
(12.6274 -0.470568 0)
(13.022 -0.47344 9.34593e-20)
(13.3425 -0.480414 -3.58501e-19)
(13.6067 -0.482863 2.63135e-19)
(13.8222 -0.483954 -8.46988e-20)
(13.9946 -0.483428 0)
(14.1294 -0.481888 -3.19175e-19)
(14.2326 -0.479901 3.14282e-19)
(14.3097 -0.477655 -7.67093e-20)
(9.57946 -0.364856 -3.74833e-19)
(11.2586 -0.51007 2.23014e-19)
(12.0885 -0.493958 -3.1137e-19)
(12.6131 -0.525945 1.95523e-19)
(13.0079 -0.529899 -2.80179e-19)
(13.3279 -0.537522 0)
(13.592 -0.540443 0)
(13.8076 -0.541768 3.36428e-19)
(13.9804 -0.541241 -4.94999e-19)
(14.1159 -0.539286 -1.58727e-19)
(14.2201 -0.536348 1.57937e-19)
(14.2995 -0.534696 0)
(9.55134 -0.408019 0)
(11.2358 -0.560598 -1.30336e-21)
(12.0707 -0.547708 -2.08532e-19)
(12.5972 -0.581139 -1.65355e-21)
(12.9922 -0.586182 -1.88087e-19)
(13.312 -0.59446 5.36994e-19)
(13.5758 -0.597872 -3.49397e-19)
(13.7915 -0.599453 1.67268e-19)
(13.9647 -0.598997 -1.65755e-19)
(14.1008 -0.596989 1.58129e-19)
(14.2055 -0.593732 -1.57339e-19)
(14.2853 -0.590197 2.99348e-19)
(9.52208 -0.450803 7.48413e-19)
(11.2115 -0.610746 2.23003e-19)
(12.0512 -0.601198 0)
(12.5796 -0.636136 3.90494e-19)
(12.975 -0.642305 3.70993e-19)
(13.2945 -0.651262 -1.82964e-19)
(13.5582 -0.655172 -3.4881e-19)
(13.7742 -0.65702 3.85104e-22)
(13.9478 -0.656656 0)
(14.0845 -0.654655 0)
(14.19 -0.651253 0)
(14.2698 -0.646963 0)
(9.4915 -0.493366 -7.48246e-19)
(11.1853 -0.660711 -2.22234e-19)
(12.0299 -0.654531 0)
(12.5603 -0.690952 -1.95215e-19)
(12.9562 -0.698242 -1.85813e-19)
(13.2756 -0.707884 -1.77516e-19)
(13.5394 -0.712271 3.42385e-21)
(13.7555 -0.714386 8.40982e-19)
(13.9297 -0.714123 -3.28914e-19)
(14.0672 -0.712144 0)
(14.1734 -0.70899 3.08911e-19)
(14.2538 -0.704903 -3.04265e-19)
(9.45913 -0.535703 -2.49401e-19)
(11.1573 -0.710437 1.30481e-21)
(12.0068 -0.707588 2.08182e-19)
(12.5394 -0.745546 0)
(12.9359 -0.753932 1.71952e-21)
(13.2554 -0.764224 3.58544e-19)
(13.519 -0.769067 -3.44006e-19)
(13.7356 -0.771418 5.04892e-19)
(13.9103 -0.771208 0)
(14.0485 -0.769107 0)
(14.1557 -0.765574 0)
(14.2372 -0.761724 4.47279e-19)
(9.42522 -0.577579 -9.94693e-19)
(11.1275 -0.759667 -6.64504e-19)
(11.982 -0.760287 6.2044e-19)
(12.5168 -0.799838 0)
(12.9141 -0.809313 -3.70681e-19)
(13.2336 -0.820233 -1.78526e-19)
(13.4974 -0.825502 0)
(13.7143 -0.828083 3.3273e-19)
(13.8896 -0.828013 -3.2751e-19)
(14.0286 -0.826011 0)
(14.1365 -0.822686 0)
(14.2188 -0.818282 -1.5099e-19)
(9.38981 -0.619135 9.90772e-19)
(11.096 -0.808567 -2.23887e-19)
(11.9553 -0.812671 -2.04397e-19)
(12.4926 -0.853797 1.96005e-19)
(12.8907 -0.864346 1.85235e-19)
(13.2104 -0.875861 -5.31555e-19)
(13.4744 -0.881538 3.45803e-19)
(13.6915 -0.884375 -3.34038e-19)
(13.8674 -0.884423 -3.23409e-19)
(14.0071 -0.882387 3.18298e-19)
(14.1161 -0.878854 0)
(14.1997 -0.874406 -1.48632e-19)
(9.35294 -0.660194 4.92452e-19)
(11.0627 -0.856965 -6.65441e-19)
(11.927 -0.864686 -2.05804e-19)
(12.4668 -0.907422 1.15757e-18)
(12.8658 -0.91901 -7.41185e-19)
(13.1857 -0.931117 1.77702e-19)
(13.4498 -0.937218 6.83083e-19)
(13.6673 -0.940317 -5.02791e-19)
(13.8437 -0.940543 1.6183e-19)
(13.9843 -0.9386 0)
(14.0941 -0.935187 0)
(14.1787 -0.930978 1.4983e-19)
(9.31504 -0.700857 -9.23523e-22)
(11.0276 -0.904916 0)
(11.8969 -0.916371 6.11608e-19)
(12.4393 -0.960693 -9.68996e-19)
(12.8394 -0.973316 -7.32661e-19)
(13.1595 -0.986036 7.10953e-19)
(13.4238 -0.992552 5.10334e-19)
(13.6415 -0.995937 -8.33642e-19)
(13.8186 -0.996338 -1.61914e-19)
(13.9599 -0.994338 -7.83581e-19)
(14.0708 -0.990498 4.63877e-19)
(14.1569 -0.986882 0)
(9.27503 -0.741408 -2.47262e-19)
(10.9907 -0.952781 0)
(11.865 -0.967693 1.019e-18)
(12.4102 -1.0136 -1.54004e-18)
(12.8114 -1.02728 3.70896e-19)
(13.1318 -1.04061 -3.52055e-19)
(13.3963 -1.04761 1.70919e-19)
(13.6144 -1.0513 4.94438e-19)
(13.7921 -1.05193 -6.47657e-19)
(13.9342 -1.05009 1.5722e-19)
(14.0461 -1.0463 4.5635e-19)
(14.1328 -1.04348 -5.97678e-19)
(9.23342 -0.781079 4.91137e-19)
(10.9521 -0.999732 4.37755e-19)
(11.8314 -1.01841 8.12011e-19)
(12.3794 -1.066 -1.53598e-18)
(12.7817 -1.08082 1.10159e-18)
(13.1026 -1.09484 -3.47569e-19)
(13.3673 -1.10234 3.44034e-19)
(13.5859 -1.10638 3.30703e-19)
(13.7642 -1.10714 0)
(13.9074 -1.10523 0)
(14.0204 -1.10082 -3.00947e-19)
(14.1086 -1.09809 6.3555e-21)
(9.19081 -0.820322 -2.29528e-21)
(10.9118 -1.04614 -2.02718e-21)
(11.796 -1.06863 0)
(12.3468 -1.11795 -3.80318e-19)
(12.7506 -1.13394 1.09621e-18)
(13.0719 -1.14867 -3.49636e-19)
(13.3369 -1.15671 -6.7266e-19)
(13.556 -1.1611 3.32876e-19)
(13.7351 -1.162 3.17229e-19)
(13.8793 -1.16017 -9.36977e-19)
(13.9934 -1.15561 0)
(14.0822 -1.1536 -2.95277e-19)
(9.14688 -0.859129 -2.40841e-21)
(10.8698 -1.09204 4.32257e-19)
(11.7589 -1.11841 -4.08658e-19)
(12.3126 -1.16943 -1.14207e-18)
(12.7177 -1.18664 -3.57765e-19)
(13.0396 -1.20213 1.39969e-18)
(13.305 -1.21067 1.65278e-21)
(13.5246 -1.21538 1.61464e-21)
(13.7046 -1.21637 3.19289e-19)
(13.8498 -1.21442 3.11019e-19)
(13.965 -1.2092 0)
(14.0556 -1.20586 8.74252e-19)
(9.10146 -0.897585 -4.89025e-19)
(10.8263 -1.13756 -4.33319e-19)
(11.7199 -1.16764 -4.04884e-19)
(12.2767 -1.22046 -3.77878e-19)
(12.6833 -1.23891 7.2721e-19)
(13.0058 -1.25518 -1.04088e-18)
(13.2717 -1.26423 3.43539e-19)
(13.4919 -1.26922 6.57163e-19)
(13.6727 -1.27033 0)
(13.8188 -1.26849 3.06502e-19)
(13.935 -1.2635 -1.20377e-18)
(14.0256 -1.26038 5.91435e-19)
(9.05423 -0.935448 4.83409e-19)
(10.7806 -1.18253 -4.3578e-19)
(11.6792 -1.21651 -1.20221e-18)
(12.2391 -1.27108 3.43686e-21)
(12.6473 -1.29074 0)
(12.9705 -1.30775 -3.45378e-19)
(13.237 -1.31729 -3.33733e-19)
(13.4579 -1.32256 3.25555e-19)
(13.6396 -1.32381 0)
(13.7867 -1.32202 3.08368e-19)
(13.9041 -1.3172 5.96403e-19)
(13.9963 -1.31376 -6.37946e-21)
(9.00529 -0.97253 4.85932e-19)
(10.7333 -1.22662 0)
(11.6364 -1.26464 8.00488e-19)
(12.1997 -1.32114 -3.79608e-19)
(12.6095 -1.34207 -3.58123e-19)
(12.9338 -1.35977 1.03227e-18)
(13.2008 -1.36977 -9.9844e-19)
(13.4225 -1.37529 9.71814e-19)
(13.605 -1.37666 0)
(13.7532 -1.37485 -3.03839e-19)
(13.8718 -1.36984 8.97027e-19)
(13.9655 -1.36618 2.88709e-19)
(8.95536 -1.00903 -9.65067e-19)
(10.6844 -1.2701 4.28197e-19)
(11.5921 -1.31229 -3.57342e-21)
(12.1585 -1.37073 -7.54272e-19)
(12.5704 -1.39291 7.14877e-19)
(12.8955 -1.41126 0)
(13.1633 -1.42169 -3.30442e-19)
(13.3856 -1.42748 -3.22463e-19)
(13.5691 -1.42904 0)
(13.7183 -1.42742 3.00455e-19)
(13.8382 -1.42272 -8.94086e-19)
(13.9331 -1.41925 -2.90055e-19)
(8.90421 -1.04516 0)
(10.6334 -1.31318 2.6828e-21)
(11.5459 -1.35949 1.18991e-18)
(12.1159 -1.41979 -6.64536e-21)
(12.5296 -1.44319 -1.78e-18)
(12.8559 -1.46218 1.36579e-18)
(13.1243 -1.47301 -1.3172e-18)
(13.3474 -1.47908 6.42939e-19)
(13.5317 -1.48084 0)
(13.682 -1.47923 0)
(13.8033 -1.4742 -2.93213e-19)
(13.9003 -1.47053 5.72154e-19)
(8.85094 -1.08068 0)
(10.5806 -1.35562 2.83509e-21)
(11.4978 -1.40608 -1.18145e-18)
(12.0714 -1.46825 7.47635e-19)
(12.4873 -1.49284 0)
(12.8146 -1.5125 6.76254e-19)
(13.0838 -1.52377 -3.30124e-19)
(13.3077 -1.53016 0)
(13.4929 -1.53219 -6.15612e-19)
(13.6444 -1.53085 6.0564e-19)
(13.7669 -1.52622 -2.94532e-19)
(13.8649 -1.52292 0)
(8.79603 -1.1156 9.53162e-19)
(10.5262 -1.39743 4.25234e-19)
(11.4479 -1.45192 7.87047e-19)
(12.0252 -1.51602 0)
(12.4433 -1.54182 7.01134e-19)
(12.7718 -1.5622 -3.43138e-19)
(13.0419 -1.57396 -6.55693e-19)
(13.2665 -1.58071 0)
(13.4527 -1.58295 3.06474e-19)
(13.6055 -1.5816 0)
(13.7295 -1.57664 0)
(13.8297 -1.57278 0)
(8.73945 -1.14968 4.71954e-19)
(10.4696 -1.4384 -8.47314e-19)
(11.3962 -1.49701 -3.92956e-19)
(11.9772 -1.56306 0)
(12.3976 -1.59014 6.97443e-19)
(12.7274 -1.61128 -3.3799e-19)
(12.9983 -1.62357 -6.45508e-19)
(13.2239 -1.63067 9.45421e-19)
(13.4112 -1.63313 -9.15083e-19)
(13.5652 -1.63194 8.95021e-19)
(13.6907 -1.62729 -8.66115e-19)
(13.7918 -1.62393 6.33365e-21)
(8.68152 -1.1829 1.88332e-18)
(10.4114 -1.47829 -4.24822e-19)
(11.3425 -1.54124 0)
(11.9273 -1.60929 1.09417e-18)
(12.3502 -1.63776 -6.26434e-21)
(12.6814 -1.6597 -6.71367e-19)
(12.9533 -1.67256 -3.21138e-19)
(13.1798 -1.68002 -2.38501e-21)
(13.3682 -1.68259 6.04453e-19)
(13.5235 -1.68128 -5.96878e-19)
(13.6505 -1.6761 1.14954e-18)
(13.7542 -1.67256 -1.11411e-18)
(8.62242 -1.21558 -9.38498e-19)
(10.3516 -1.51746 -4.18765e-19)
(11.287 -1.58468 -3.8555e-19)
(11.8758 -1.65478 -2.89555e-21)
(12.3011 -1.68467 -3.44987e-19)
(12.6338 -1.70747 -6.61056e-19)
(12.9067 -1.72091 6.46331e-19)
(13.1342 -1.72877 -2.47762e-21)
(13.3238 -1.73154 0)
(13.4803 -1.73034 -8.7946e-19)
(13.6085 -1.72509 5.73187e-19)
(13.7129 -1.7208 0)
(8.56176 -1.24756 4.72703e-19)
(10.2899 -1.55591 8.32952e-19)
(11.2298 -1.62735 1.15271e-18)
(11.8223 -1.6995 -1.09083e-18)
(12.2502 -1.73088 -3.39686e-19)
(12.5844 -1.75456 9.91382e-19)
(12.8586 -1.76865 3.19515e-19)
(13.0872 -1.77687 -3.09651e-19)
(13.278 -1.77992 -1.19263e-18)
(13.4358 -1.77904 1.17283e-18)
(13.5655 -1.77433 -2.85304e-19)
(13.6708 -1.77007 -1.10774e-18)
(8.49945 -1.2788 -9.23824e-19)
(10.2264 -1.59356 1.64951e-18)
(11.1705 -1.66926 -3.86427e-19)
(11.767 -1.74352 3.58042e-19)
(12.1976 -1.77637 3.40439e-19)
(12.5336 -1.80093 -2.84529e-21)
(12.809 -1.8156 9.43446e-19)
(13.0388 -1.82417 -1.23098e-18)
(13.2309 -1.82746 0)
(13.3903 -1.82668 2.88356e-19)
(13.5218 -1.82223 0)
(13.6294 -1.81832 2.74542e-19)
(8.43546 -1.30921 -1.83637e-18)
(10.161 -1.63031 1.645e-18)
(11.1093 -1.71035 -3.8161e-19)