/*--------------------------------*- C++ -*----------------------------------*\
| =========                 |                                                 |
| \\      /  F ield         | OpenFOAM: The Open Source CFD Toolbox           |
|  \\    /   O peration     | Version:  2.3.1                                 |
|   \\  /    A nd           | Web:      www.OpenFOAM.org                      |
|    \\/     M anipulation  |                                                 |
\*---------------------------------------------------------------------------*/
FoamFile
{
    version     2.0;
    format      ascii;
    class       volSymmTensorField;
    location    "1720";
    object      sigma;
}
// * * * * * * * * * * * * * * * * * * * * * * * * * * * * * * * * * * * * * //

dimensions      [1 -1 -2 0 0 0 0];

internalField   nonuniform List<symmTensor> 
11800
(
(95885.9 60830.8 4.66098e-14 -2276.61 2.47265e-14 23226.4)
(-49949.4 57578.1 7.15502e-14 -2419.47 2.27351e-14 -12993.8)
(419264 70023 -1.12035e-15 958.251 -5.24294e-14 104266)
(-367923 41655.8 0 810.948 0 -91088)
(-51321.8 55339.7 1.33504e-14 -6796.81 -3.7778e-14 -14420.4)
(-231235 73914.3 5.21228e-14 2793.41 2.73763e-14 -56681.1)
(-42565.3 72836.5 9.79961e-14 -614.124 -2.5516e-14 -10713.7)
(-59505.8 72922.4 -1.46216e-14 1234.72 5.89308e-14 -14458.2)
(132100 47217.1 2.01362e-14 366.039 -1.38017e-14 32867.5)
(86867.9 76112.2 -5.0746e-14 841.614 -4.28067e-14 21762.5)
(111030 52650.6 -3.88844e-14 261.709 3.33338e-14 27613.7)
(-533352 32236.6 -4.69401e-14 -4388.06 -2.13368e-14 -133424)
(16509.4 -24015.1 8.95999e-17 -44566.7 6.96306e-17 -6961.58)
(388956 41753.1 4.26548e-14 2704.13 -1.17063e-14 97178.9)
(-313839 68959 -3.5375e-14 6105.26 2.75445e-14 -76355)
(1.52564e+06 -425.447 0 -4737.68 0 377366)
(-28012.2 60211.6 3.31614e-14 2142.22 2.93011e-15 -6418.86)
(-42797.4 54553.9 -1.87477e-14 4911.27 1.07883e-13 -9400.32)
(90191.9 90779.2 -1.97548e-14 -12063.1 1.40894e-14 19385.4)
(65748.3 50336.3 -6.7546e-14 -6852.88 -2.18724e-14 14613.2)
(-290348 46695.1 2.09671e-14 433.593 2.19965e-14 -71933.7)
(-465925 64911.5 3.35896e-14 2102.05 -1.95539e-14 -115084)
(-658911 88600.2 -1.76537e-14 8815.32 1.14323e-14 -161302)
(-604837 56571.4 1.81698e-16 715.988 3.09176e-15 -149895)
(1.23788e+06 62541.2 2.06547e-15 -6086.19 2.54002e-14 305632)
(-778955 87092.9 -1.72886e-14 6073.26 -5.11565e-16 -191768)
(-778740 45349.8 0 6852.42 0 -191521)
(382259 36807.3 -5.53006e-14 -5179.82 -3.34382e-14 93561.1)
(-856438 46816.7 -9.896e-15 8075.67 -4.69972e-14 -210496)
(-936782 48182.7 1.30142e-14 8905.25 -2.03596e-14 -230225)
(255515 40243.7 -6.84414e-14 -1328.33 -1.22847e-13 63069)
(50427 56156.2 -1.15621e-14 1906.05 -9.65214e-15 12984.9)
(784738 83033.9 -2.77822e-15 8752.2 -1.23725e-14 196881)
(-21006.5 66722.3 8.95551e-15 -631.641 -6.71294e-14 -5368.86)
(13586.3 69128.7 -2.36653e-14 3760.1 -1.01769e-13 4304)
(-251537 32077.8 -6.21485e-14 2826.6 -4.51926e-14 -61710)
(14268.1 69318.8 8.40679e-14 2525.65 -1.00152e-13 4166.87)
(841470 53546.6 -1.01971e-14 4414.8 -4.44285e-14 209881)
(-29732.2 65529.7 0 -3152.07 0 -8159.25)
(62998 60104 -2.92752e-14 3553.19 5.45896e-14 16512.7)
(-818507 36627.1 -5.2514e-14 -3865.22 -2.44595e-14 -204047)
(-899952 37020.4 3.77059e-14 -3975.56 -2.16743e-14 -224283)
(401157 47129 -2.12887e-14 -2536.84 -7.11011e-14 98905.7)
(-984259 38197.5 -7.35581e-15 -3783.99 -3.86496e-14 -245154)
(268239 48275.5 1.81965e-13 1932.19 -5.68554e-14 67035)
(1.42464e+06 40553.7 0 -5307.5 0 352165)
(623709 95461.7 -1.11719e-14 -2706.5 5.89314e-15 154083)
(744947 42877.4 -1.96516e-14 -7983.37 -1.3745e-14 182856)
(-67640.1 67179.7 -7.21526e-14 -1167.9 -4.45243e-14 -17072.7)
(154585 62685.2 0 1571.05 0 38745.6)
(-550184 37443 -3.45595e-15 2427.32 3.71504e-14 -135910)
(-387651 36893.9 1.21061e-13 4531.6 1.42108e-14 -95059.8)
(-8042.11 68371.6 6.77905e-14 -436.052 4.22858e-14 -2103.6)
(27523 105787 -1.56584e-15 5738.39 1.36638e-14 8252.83)
(-1.63762e+06 5165.89 -2.45594e-15 -8690.23 -3.70088e-15 -408483)
(1.33198e+06 -49639.9 3.18628e-15 -61170.2 5.79099e-15 315314)
(-44949.6 23315.6 5.84062e-14 1743.81 2.17129e-14 -10720.2)
(-349158 72440.5 4.37523e-15 -3634.04 -3.66564e-14 -87534.8)
(277432 50093.2 -3.70977e-14 5788.84 5.43633e-14 70273)
(-249449 74560.8 3.05893e-14 -5509.89 -5.52276e-15 -63260.4)
(1.36467e+06 24250.8 -2.80969e-14 -9928.3 -9.74013e-15 336140)
(-34073.6 71172.4 2.86888e-14 432.742 -4.67726e-14 -8346.97)
(-275796 61341.6 -1.67523e-14 -2414.88 2.8874e-14 -69029.8)
(217543 61742.7 5.06029e-14 1238.35 -2.89036e-14 54284.1)
(1.22433e+06 16853.5 3.11283e-15 -32.5424 -1.83327e-14 303774)
(-175218 33338.4 -8.21307e-14 2486.21 -9.93803e-14 -42858.3)
(-568498 20208.6 5.79735e-14 2558.68 1.93641e-14 -140421)
(-404954 22798.1 1.61712e-15 4052.03 -1.01621e-13 -99472)
(-46196.5 25055.2 0 -2514.17 0 -12086.1)
(-726490 53266.7 -1.28564e-15 7595.35 4.54492e-14 -178372)
(-17597.2 70307.4 -1.64493e-14 440.035 3.40143e-14 -4257.04)
(-35965.7 56805.1 -6.33746e-14 -3109.21 7.10108e-14 -9695.27)
(-31945.5 55152.4 4.44489e-14 -3469.83 -2.72425e-14 -8787.27)
(-1.13267e+06 259151 -4.05517e-15 147157 3.73494e-15 -244526)
(1.35103e+06 57421.4 -1.01353e-15 -4796.88 -1.12727e-14 334027)
(-236774 44388.4 -6.10543e-14 5936.75 -4.44501e-14 -57275.5)
(1.27299e+06 15943.7 -2.32661e-14 3246.58 2.07005e-14 316661)
(-170804 23683 5.39966e-14 771.52 -1.77383e-13 -42188.5)
(-126956 41944.1 1.01508e-14 2931.86 -9.7026e-15 -30773)
(-121795 51150.5 1.03615e-13 3347.83 1.04066e-13 -29389.1)
(-1.65393e+06 -28862.9 8.79506e-15 6229.94 4.02549e-14 -408829)
(67748.1 47484.2 0 6064.21 0 18314.3)
(38731.1 57351.4 -1.07743e-13 613.395 -4.25191e-14 9762.18)
(26546.6 61080.8 3.73533e-14 2340.49 -2.97436e-16 7167.48)
(-54620.2 53080.5 2.57723e-14 -5778.54 7.30243e-14 -14986.1)
(-909984 58092.4 -1.44241e-14 -4502.84 7.39888e-14 -226903)
(273821 45620.8 8.699e-14 2693.93 -2.70993e-14 68609)
(-830381 54999.5 0 -4276.04 0 -207095)
(-755266 53606.8 -3.0536e-14 -3781.36 -3.12547e-14 -188335)
(401228 42334.3 3.99142e-14 3632.13 2.43153e-15 100454)
(-9149.37 66860.6 -1.40443e-13 -2179.68 -9.02152e-14 -2810.97)
(929630 77277.7 0 -3351.5 0 229828)
(-75147.6 60012.8 -2.97949e-14 1782.87 -4.94743e-14 -18203.3)
(51681.7 20610 -1.71982e-14 3699.32 -2.49806e-14 13741.2)
(109688 56243.4 1.32506e-13 475.787 2.36605e-15 27333.8)
(38215.4 -28838.7 -5.7039e-16 -81241.6 -4.22888e-16 -10675.7)
(-2022.79 7909.22 1.48139e-17 4747.76 -8.81044e-17 676.121)
(-38472.9 -28577.8 -3.60042e-16 80825.5 2.39954e-16 10508.5)
(-9119.03 68304.3 -4.36648e-14 -1076.94 -6.38322e-16 -2529.83)
(-463921 43697.2 -1.07534e-14 -2106.31 4.31458e-14 -115631)
(35957.8 37258 2.40049e-14 -349.045 -6.72577e-14 8835.26)
(502612 49005.9 -5.21593e-14 -5057.62 -7.23598e-14 123453)
(-880778 85197.8 3.63891e-15 215.45 7.39424e-15 -218486)
(-293527 64904.9 -2.23677e-15 4681.49 7.10433e-15 -71668.5)
(516.774 72311.9 -6.74111e-15 -448.477 -3.35822e-14 16.9461)
(222901 80550.9 -1.43552e-14 1633.03 -2.49395e-14 55711.5)
(-102727 57869.3 -4.13718e-14 340.412 9.13733e-14 -25404.2)
(-72256.9 61843.2 -1.39907e-13 -545.704 -6.75664e-14 -18063.8)
(1.33276e+06 22087.1 8.17144e-15 4075.06 1.72754e-14 331695)
(830302 48824.9 1.30753e-14 2654.87 2.65116e-15 206674)
(911239 50865.4 2.50818e-14 3371.28 3.5127e-14 226933)
(756047 47230.8 9.11826e-14 2948.7 5.40996e-14 188322)
(-278341 46425.6 4.07831e-14 -4006.77 6.37484e-14 -70056.1)
(-407840 44090.1 -1.07951e-13 -3622.61 3.88336e-14 -102092)
(144548 52720.8 4.64792e-14 -160.141 -2.43979e-14 35825.7)
(1.20086e+06 34785.4 1.24051e-14 512.911 7.34966e-15 298084)
(165613 29269.5 -3.35935e-14 -3292.62 -1.32151e-13 40275)
(-50838.9 64385.3 -1.16394e-13 1430.78 1.09007e-13 -12259.1)
(1.12428e+06 61994.9 -1.43572e-14 696.707 1.79028e-14 279128)
(-91053.2 78674.5 -3.8109e-14 286.921 -1.027e-14 -22521)
(-149789 43144.8 -2.67795e-14 2616.96 -1.13169e-14 -36516.4)
(43958.1 73008.2 8.33864e-14 -3026.32 -1.19522e-13 10156)
(61651.7 74203.2 -5.82526e-14 -1193.82 4.01061e-14 15000.8)
(-43248 60865.3 -1.69225e-14 544.472 -2.49917e-14 -10595.6)
(-78673.8 57191.8 -1.05986e-13 412.505 -8.28185e-14 -19418.2)
(-2548.93 67867.4 -1.01861e-13 -2552.21 -7.6775e-14 -1265.7)
(-25761.2 67661.4 -6.10743e-14 -3904.07 6.72003e-14 -7360.55)
(-4591.45 67930.7 -3.99305e-14 -1427.54 -3.81117e-14 -1493.44)
(6940.13 51126.1 1.90435e-15 31411.5 8.52698e-14 9515.82)
(-29588.3 11605.6 -3.12671e-16 -6790.51 4.06069e-14 -9026.31)
(-1.45507e+06 -231417 1.30926e-14 60234.8 -6.66695e-15 -346087)
(-1.02119e+06 60693.8 9.30922e-15 -7295.02 -1.41554e-15 -255188)
(300012 41233.7 4.60436e-14 4051.68 -4.4951e-14 75444.4)
(-904931 59037.9 -3.63278e-14 1319.83 2.2856e-14 -224204)
(428352 37202.2 -2.08275e-14 4679.66 6.29894e-14 107444)
(-822859 55163.4 1.38505e-14 1614.03 1.39064e-14 -203768)
(-747787 53117 -7.91571e-14 2093.24 6.05908e-14 -185022)
(249512 54752.7 4.50415e-14 -1676.35 1.25767e-13 61493.1)
(-775205 30199 4.9542e-14 5351.71 -6.84284e-14 -191016)
(359094 54904.3 5.60743e-14 -1839.36 -4.46875e-14 88642.1)
(-705651 28995.4 4.08025e-14 4710.8 -7.05995e-14 -173917)
(-641659 29599.5 -4.23395e-14 5007.1 -3.813e-14 -157966)
(-374638 74745.9 3.24963e-15 11846.9 3.24884e-14 -90015.9)
(108369 62756.2 -2.2476e-14 -5168.11 -1.50085e-13 25606.1)
(153641 58643.7 -3.60087e-14 -5273.2 -1.0427e-13 36813.1)
(-226994 57081.7 -1.08848e-14 7176.87 6.30158e-14 -54541)
(911274 35700.1 -6.91233e-14 996.183 -2.32915e-14 226353)
(-947555 -6665.57 6.65802e-14 -8087.7 2.06435e-14 -237114)
(528775 38590.6 4.67778e-14 -2459.8 -4.35864e-14 130589)
(-290837 44229.7 1.07937e-15 5387.06 6.42738e-15 -70826)
(-129338 60783.1 -5.83132e-14 2990.41 -4.82492e-14 -31349.4)
(-135307 53081.9 4.99069e-14 -687.515 -4.52191e-14 -33743)
(13420.5 68179.8 3.79387e-14 2078.12 6.94116e-14 3845.52)
(-191072 45898 -8.5335e-14 1396.03 8.86092e-14 -47062.4)
(157730 52384.3 -4.48077e-14 -4236.58 -4.74174e-14 38084.7)
(106100 62055.6 -4.10101e-14 1284.59 3.16588e-14 26644.2)
(-346078 48909 6.94623e-14 6063.13 -4.68172e-14 -84364.6)
(-481073 52315.3 2.53815e-14 2066 5.54815e-14 -118851)
(1.00951e+06 23371.9 1.60797e-14 1299.86 -2.35985e-16 250803)
(-4164.55 70509.5 1.99152e-14 330.963 -9.70258e-14 -951.19)
(1.51453e+06 62449.8 -1.90337e-14 -10129.3 -1.0395e-14 373272)
(-157490 54745.5 -7.37099e-14 1636.96 5.08584e-14 -38670.3)
(1.27883e+06 40968.5 0 -13347.6 0 313992)
(-357406 54263.7 2.2109e-14 -2538.56 9.21013e-14 -89309.6)
(-392783 55296.8 -2.26588e-14 -3327.09 2.69575e-14 -98283)
(-430539 57900.7 -3.58074e-15 -4018.16 9.80717e-14 -107823)
(192005 58974.2 -5.47628e-14 423.947 1.34929e-14 47745.6)
(130382 62865 -5.83095e-14 -306.558 1.44212e-14 32274.3)
(-1.66719e+06 -7985.93 1.51541e-14 -7346.47 -8.66613e-15 -415485)
(-998551 58167.1 -1.52053e-14 -5457.83 2.88842e-14 -249115)
(337153 44799 -5.82313e-14 4022.2 -3.41228e-14 84652.4)
(463813 40513.3 1.64152e-13 3360.36 -8.83311e-14 115915)
(54547.2 65664.3 3.20164e-14 -6158.66 -8.28936e-14 12006.2)
(-281384 32813.2 0 1762.79 0 -69379.7)
(-286994 21852.7 8.75304e-14 377.951 -4.45458e-14 -71115.3)
(1.41527e+06 43889.9 2.44352e-14 -10986.3 1.63366e-14 348431)
(1.45102e+06 -3334.69 2.02197e-14 9548.86 1.7948e-14 362398)
(735752 25897 1.10264e-15 -308.406 4.22639e-14 182479)
(670403 26340 8.33371e-15 331.885 1.02072e-13 166423)
(807026 25239.9 2.20104e-14 -1023.56 -3.17747e-14 199986)
(-343994 55868.9 -5.28606e-14 3163.79 4.76264e-14 -84566.9)
(-231236 55768.2 -5.12254e-14 1698.94 5.62654e-14 -56952.8)
(148721 72359.8 0 1367.81 0 37240.1)
(99916.4 74224.1 -2.15233e-15 943.535 8.15535e-14 25025.4)
(324879 57103.6 -6.33448e-14 -575.092 5.18438e-14 80466.3)
(-138905 54563.5 -5.06324e-14 1138.33 1.20302e-13 -34182.8)
(-227895 82067.1 -1.02767e-14 2882.23 4.56609e-14 -55830.2)
(67002.7 61887.4 -1.86612e-13 -801.072 -4.95915e-14 16426)
(94361.6 56748.8 -1.29386e-13 -391.248 5.42095e-14 23316)
(-62166.3 68369.2 -2.51485e-14 1773.22 -3.51139e-16 -14984.7)
(-171270 50601 -2.13148e-14 3143.96 -1.33443e-14 -41715.5)
(-155600 49643.2 1.4006e-14 2524.77 -2.39706e-14 -37981.2)
(-158911 41078.5 0 -799.063 0 -39627.4)
(-80206.7 86136.6 3.04761e-16 -3243.32 -2.86263e-14 -20705.6)
(-693888 8491.29 6.14466e-14 -5565.01 -2.69107e-14 -173549)
(875337 41264.7 -8.04633e-14 -4044.52 -8.03062e-15 216185)
(1.18177e+06 136219 5.00449e-15 -212782 2.54819e-15 240426)
(-28340.8 62177.7 1.66615e-14 -2173.63 -3.78233e-14 -7571.26)
(173361 25206.5 6.07892e-14 1108.52 -1.38958e-13 43289.4)
(-1.48982e+06 -177402 1.25454e-14 123182 -8.25356e-15 -339091)
(80227.6 50610.3 2.60319e-15 3517.73 7.06443e-14 20778.9)
(214816 35085.3 4.91021e-14 2352.46 -5.64201e-14 53883.8)
(236665 37640.4 6.85549e-14 -3854.96 -2.89542e-14 57764.9)
(-3171.43 70613.3 5.16131e-14 -23.7802 -7.6677e-15 -792.797)
(-3771.4 72448.3 5.4446e-14 -566.95 4.61203e-15 -1076.43)
(634370 30142.9 1.75089e-14 -4087.73 5.87135e-14 156386)
(525384 68424.3 2.24225e-14 3570.33 -5.42268e-15 131244)
(-475782 57873.2 0 3779.1 0 -117114)
(-407528 36497.7 -5.66294e-14 -6889.59 -3.5466e-14 -102826)
(1.44653e+06 -233560 -5.25189e-15 -61574.4 -3.60354e-15 343635)
(-427453 93049.8 -4.63458e-15 11875.7 5.49059e-14 -103113)
(-690682 40499 3.24252e-14 -1640.4 -1.92189e-14 -171779)
(-1.51284e+06 -608654 -1.41862e-14 319698 5.56393e-15 -296042)
(1.74114e+06 2724.64 0 24053.7 0 437981)
(-1.32536e+06 -564241 -4.61891e-15 150517 1.43047e-15 -291502)
(220829 94669.6 -3.09384e-14 -188.338 1.09856e-14 54745.4)
(-50002.8 58933.3 -5.26651e-15 -2620.01 7.37274e-14 -13056.8)
(-637727 68577.8 2.68911e-14 -5102.04 -2.96896e-14 -159499)
(-577243 66653.6 3.99347e-14 -4127.39 -4.97245e-15 -144250)
(-525240 64413.4 -4.53391e-14 -3732.83 1.74062e-15 -131249)
(187374 52331.4 3.90876e-14 2972.7 -1.09163e-13 47228.8)
(277006 48242.1 -9.82685e-14 3271.7 9.56253e-14 69542.5)
(27874.2 60031.7 -1.54212e-14 -6002.43 7.24685e-14 5426.83)
(38840.6 54825.1 3.65859e-14 -7361.69 4.69257e-14 7810.56)
(-96577 88140.1 -4.30716e-14 15360.2 1.16926e-14 -20151.5)
(-57824.9 52407.3 3.13455e-14 9846.42 -4.01512e-14 -11904.4)
(-831144 -334826 -3.58296e-15 -21326.6 7.46014e-16 -211515)
(141890 88427.1 -2.43281e-14 10802.5 -8.6718e-14 37886.2)
(-69793.5 54043.8 -8.17756e-14 -6084.63 -3.74342e-14 -18826.9)
(-327477 77916.1 0 -71.1882 0 -81271.4)
(141764 55076.5 6.47071e-14 482.725 -2.65103e-14 35294.4)
(-69036.6 69413.1 0 -289.791 0 -17201.3)
(-53586.6 60625.1 -3.96341e-14 11.644 -6.287e-14 -13293)
(483809 57154.1 5.60969e-14 2874.68 -5.86613e-14 120756)
(497599 39984.9 8.56681e-14 -506.092 4.09541e-14 123339)
(1.50628e+06 -606365 -5.29128e-15 -317654 -1.75023e-15 294922)
(827527 -333791 6.19175e-15 21436.8 1.69285e-15 210645)
(-159025 45816.9 1.20835e-14 932.729 1.72182e-14 -39225.9)
(-170366 47506.2 -3.67021e-14 -2201.94 -7.51658e-14 -42817.5)
(-870798 7346.24 -4.09119e-14 -4188.06 -9.41683e-15 -217102)
(700558 41012.9 9.21409e-14 -3253.73 -2.41404e-14 173015)
(230962 57213.8 2.98796e-15 -1439.07 1.66594e-13 56949.3)
(342488 58178.6 5.65693e-14 -2535.6 6.16117e-14 84349.1)
(-814026 25833.2 -1.43441e-15 -827.596 3.61585e-14 -202182)
(-744921 27093 -3.64565e-14 -441.22 1.20582e-14 -184939)
(-677823 28195.8 -2.3103e-15 -475.321 5.64795e-14 -168300)
(-9695.86 71537.8 -8.59227e-14 -1102.19 2.48897e-14 -2679.21)
(-894950 26990 2.40426e-14 -1896.79 2.58801e-14 -222526)
(286331 55559.2 -5.79741e-14 -1615.59 2.84775e-14 70643.8)
(397146 55991.3 0 -2750.91 0 97857.4)
(376348 46130.7 2.21948e-14 -2731.41 5.31755e-14 92701.8)
(73675.4 59092.3 -7.25979e-14 2256.7 -1.92216e-13 18840.3)
(5344.85 64770.9 -6.36367e-14 -7145.19 -2.34473e-14 -446.699)
(328543 41928.8 -8.45869e-14 10254.4 1.52999e-14 84062.5)
(-267406 46702.5 -7.04111e-15 -1111.86 -5.67794e-14 -66624.7)
(41423 68531.6 9.77422e-16 -10907 1.25045e-14 7571.65)
(1.31927e+06 -562626 -4.7923e-15 -149595 -1.20251e-15 290221)
(186008 62052.2 5.87931e-15 -2653.93 -1.07717e-13 45493.8)
(224838 61028.7 5.0076e-14 -741.454 1.7049e-14 55602.9)
(-150364 61495.5 0 1035.34 0 -37051.5)
(-178325 67522.2 1.85681e-14 -3897.23 -5.17886e-14 -45213)
(520777 63843.7 0 5404.05 0 130556)
(572447 66665.4 3.33144e-14 5144.25 3.17045e-14 143312)
(626918 70590.6 -7.51185e-14 5310.97 -7.2122e-15 156869)
(-279681 45698.5 1.03726e-13 -4202.5 1.05462e-13 -70437.3)
(-191616 50481.1 5.43353e-15 -3086.03 -6.30196e-14 -48309.6)
(-11883.2 69833.3 6.11982e-14 1393.24 3.2633e-14 -2602.77)
(1.3367e+06 19321.8 -9.9329e-15 -20312.2 -1.85056e-14 326623)
(-9225.24 73220.2 -6.62613e-14 -4427.94 2.0667e-14 -3387.63)
(13430.5 46005.7 -6.49491e-14 7478.37 -4.05465e-14 5187.91)
(27719.7 66965 4.75604e-14 516.741 -1.10552e-13 7006.03)
(294242 61625.6 5.10613e-14 -623.9 5.40572e-14 72852.5)
(-122610 10547.9 -8.42373e-14 -2849.6 4.14284e-15 -31129.1)
(386715 68751.5 0 -2614.39 0 95303.2)
(1.42235e+06 -49780.1 2.31571e-16 -204638 9.30044e-17 302140)
(300204 21402.9 4.85992e-14 3987.96 1.10648e-13 75476.2)
(287142 30003.6 2.20323e-14 -4739.77 1.20159e-14 70069.6)
(-423578 57366.6 7.27877e-15 4417.93 1.53556e-14 -104002)
(-302041 55899.6 -5.64639e-14 2771.28 1.80974e-14 -74255)
(-361602 40386.1 -1.1575e-13 -259.308 -2.02916e-14 -89785.1)
(-259455 44562.1 5.82572e-15 -1616.89 -6.13536e-15 -64777.2)
(931131 24371.2 -4.2177e-15 -1988.73 1.37704e-14 230539)
(768820 74930.7 1.80856e-15 -758.605 -2.84602e-14 190572)
(212300 66703 1.02524e-14 -2014.99 6.07079e-15 52176)
(286339 57509.3 1.92285e-14 433.874 3.27855e-14 71154.2)
(156203 67081.3 5.33829e-14 -3683.95 3.80868e-14 37843.1)
(211536 57953.7 4.78856e-14 -3047.87 -7.59004e-15 51730.1)
(-423425 46815.8 -9.05085e-15 3994.37 2.28306e-14 -104069)
(-554773 65824 -2.51668e-14 1489.27 4.52198e-15 -137281)
(-132244 100012 2.82331e-14 -302.159 2.02394e-14 -32887.3)
(935034 49380.4 3.16395e-14 3920.05 2.28125e-14 232974)
(1.01489e+06 50045 -6.88652e-15 16911.3 3.44194e-15 256010)
(1.21028e+06 49900.2 5.5819e-15 -1165.41 3.53275e-15 300007)
(80150.7 65198.6 -1.03763e-13 2264.62 1.26158e-13 20448.9)
(-296490 22662.4 -6.43248e-14 -2262.3 -3.30968e-14 -74126.6)
(-285183 31999.8 -8.16064e-14 5292.32 5.46389e-14 -69446.6)
(1.38545e+06 -26.5596 0 9859.36 0 346205)
(1.38717e+06 48814.9 0 130.954 0 344218)
(785853 39628.5 1.25575e-14 -1872.52 6.05756e-14 194521)
(781619 13119.2 4.08442e-14 3678.43 -1.14161e-13 194848)
(-817475 13781.4 0 -6748.35 0 -204507)
(-795963 38846.5 0 5746.96 0 -196069)
(23944 65752.6 -1.42968e-14 3182.4 4.10116e-14 6730.6)
(-61949.3 35446.4 1.53081e-13 -4566.03 -6.48843e-14 -16503.8)
(-224591 31215.6 -4.03541e-14 -3270.25 -1.49044e-14 -56537)
(1.86141e+06 2662.77 0 37848.2 0 471244)
(-33315.2 59980 -1.00916e-13 -4457.67 -2.53563e-15 -9372.22)
(-37957.9 62745.1 -1.45354e-14 -5556.4 -8.09752e-14 -10796.8)
(188382 70568.9 -5.22631e-14 -3906.62 -3.58572e-14 45772)
(-151151 70516.8 -1.09089e-13 -3794.53 4.57382e-14 -38445)
(180696 47185.6 3.19055e-14 -6070.27 -3.30316e-14 43328.2)
(-697640 38364.8 2.24385e-14 -6022.49 -4.58875e-14 -174593)
(697795 41081.9 -9.23075e-15 -7072.56 -5.61448e-14 171382)
(-1.24127e+06 60928.8 9.83549e-15 -7318.94 -4.2857e-14 -309801)
(-1.54299e+06 -132525 5.41741e-15 295716 -3.96963e-15 -309473)
(524277 85253.3 -8.55587e-15 -11029.2 1.07027e-14 127347)
(53477.4 75836.9 -5.45334e-15 -3419.11 3.06846e-14 12420.5)
(-658347 63131.5 -2.74234e-14 -3904.66 -7.65152e-14 -164318)
(549812 28103.6 -3.54245e-14 5955.59 5.1063e-14 137897)
(-387031 42028.5 3.92704e-14 -7177.41 5.03773e-14 -97811.1)
(297143 61681.4 5.85134e-14 3526.23 1.01057e-15 74602.2)
(53663.8 73341.5 1.62262e-14 2040.44 7.60495e-16 13821.4)
(97163.9 59990.2 -6.8631e-14 -1234.97 8.63273e-14 23801.9)
(-196156 51931.7 4.81455e-14 -12361 -5.12748e-14 -51737.4)
(-315884 90506.9 8.44647e-16 4725.1 6.45689e-14 -77204.9)
(-178278 51170.7 7.36935e-15 -11612 -5.15954e-14 -47115.5)
(-287451 86391.6 4.67572e-14 3796.05 -1.7103e-14 -70380.4)
(69742.4 46834.5 -2.9812e-14 -1966.44 9.30051e-15 16816.6)
(-32498.2 74033.3 -7.71661e-16 2104.77 -5.69215e-14 -7541.24)
(-21304.7 75222.5 7.03389e-14 1650.94 5.64917e-14 -4876.5)
(-14882.7 71147.8 3.61729e-14 48.2911 -7.88895e-14 -3680.71)
(1.00292e+06 38179.1 2.18344e-14 2959.74 3.36745e-15 249579)
(-10482 75120.1 -8.00045e-14 -4343.88 -3.56054e-14 -3678.61)
(-39808.3 61648.3 3.92775e-14 -6638.13 -1.31723e-13 -11524.3)
(1.42646e+06 -32131 -1.09081e-14 -74282.7 -8.06883e-15 335503)
(216956 48680.7 4.19573e-14 -4465.02 -5.38651e-14 52723.2)
(-520787 79612.9 2.87892e-14 9453.61 7.80486e-15 -126872)
(-575835 49187.8 -4.60404e-14 1895.73 -2.01711e-14 -142406)
(-573138 27412.6 0 -6139.05 0 -143730)
(721572 19080.1 -4.16177e-14 4796 -1.97997e-14 180227)
(689503 56018 2.4199e-15 6770.9 4.96742e-14 172760)
(-24866.7 52642.4 -4.64724e-14 2068.76 3.79384e-14 -5656.64)
(-18910.1 52920.6 3.37252e-14 1881.44 -1.8878e-13 -4225.15)
(-478997 86789.4 -1.92354e-14 5688.28 -4.82729e-16 -117438)
(-644278 65131.1 0 8190.79 0 -157826)
(459861 47457.1 1.05821e-14 5328.13 2.63921e-14 115423)
(-1.19998e+06 77151.7 4.6129e-15 -5062.16 -1.48278e-14 -298996)
(37200.8 54139.9 0 8880.33 0 11433.7)
(634245 40250.6 -2.30545e-15 -1723.71 1.57588e-14 156941)
(479153 83332 -1.22481e-15 3762.82 6.05751e-17 119821)
(-293591 66099 8.67021e-14 4784.91 -1.11519e-14 -71658.5)
(-228722 48670.6 -8.44611e-15 603.585 6.11679e-14 -56600.9)
(-208948 64210.4 1.33613e-14 2884.49 -5.09114e-14 -51128.6)
(-162544 51423.4 -7.55327e-16 -719.982 2.99129e-15 -40509)
(-241521 35606.4 3.12551e-14 1874.88 4.62055e-14 -59461)
(-202248 40093.2 -5.46712e-14 5552.95 1.10221e-14 -48804.2)
(-243634 77963.8 0 1168.98 0 -60160.6)
(-276614 81155.2 -2.80599e-14 -459.134 2.44266e-14 -68747.6)
(-304389 85267.8 -2.3055e-15 -661.794 -2.63287e-15 -75689.4)
(80125.5 55467.8 -1.34546e-13 1560.12 -6.7338e-14 20267.9)
(-16557.8 67874.4 -2.98586e-14 -2415.92 5.95268e-14 -4707.77)
(575696 34127 -1.70767e-14 3719.99 4.84575e-14 143765)
(602113 44532.9 2.36087e-14 -4777.3 -4.57741e-14 148211)
(101310 60477.1 4.84754e-15 -1171.34 -3.36107e-14 24846.4)
(145556 53514 0 1573.03 0 36505.6)
(-335448 84260.5 3.56336e-14 -1438.61 -3.93111e-14 -83588.3)
(288970 55491.3 -6.80496e-14 2870.9 -8.32084e-16 72411.5)
(315366 76165.4 -2.97827e-14 3098.36 -1.835e-15 79017.5)
(-111757 62315.2 -5.53381e-14 -2253.5 7.94268e-14 -28288.3)
(-94438.7 64334.1 3.23007e-14 -2300.85 1.9023e-15 -24003)
(-139224 66770.1 5.24755e-14 521.333 1.86873e-14 -34415)
(-154847 59165.8 0 -936.481 0 -38653)
(-699272 40462.7 1.58363e-14 -449.008 -2.42909e-14 -173615)
(305425 59585.6 -2.53202e-14 127.088 -1.00551e-13 75813.8)
(220220 60228.9 -1.16055e-14 -548.686 -1.65954e-15 54504.9)
(-82368.4 156954 -7.41838e-15 16697.6 -5.38287e-15 -16294.3)
(796682 29755.8 -5.34407e-14 -6278.58 -3.2048e-14 196115)
(-939308 13337.7 4.65798e-14 1852.38 2.78995e-14 -232602)
(-120732 146547 0 -3621.8 0 -30854.8)
(-114493 62581.9 1.93339e-14 2526.29 5.84413e-14 -27781.2)
(-97564.5 65516 -1.45425e-13 4078.03 -3.69302e-14 -23195.9)
(-164685 58068.2 6.28355e-14 1301.49 7.06396e-16 -40538.8)
(-142065 62665 0 2816.11 0 -34550.5)
(320545 52330 3.29354e-14 -2580.93 -5.30383e-14 78893.3)
(368465 68968.6 1.19876e-14 -2429.38 5.08949e-15 90820.9)
(295771 54370 -2.43382e-14 -5585.25 2.33299e-14 72001)
(345715 69817.7 2.58428e-14 -4020.89 7.18047e-14 84781.1)
(268612 52698.3 2.02226e-14 -4136.9 3.40391e-14 65621.5)
(313924 66797.9 -4.40449e-14 -3179.96 2.52078e-14 77101.9)
(253253 33814.7 1.97147e-14 1024.96 7.45707e-14 63091.4)
(244412 23349.4 5.79882e-14 4327.77 1.24321e-13 61717.4)
(-508639 71248.1 -1.15698e-14 1085.36 1.52962e-14 -125934)
(223288 63827.9 -6.01644e-14 -3257.25 -1.45625e-15 54594)
(-549956 53140 0 4624.03 0 -135308)
(949409 69736.9 3.35464e-14 -8734.16 -2.11426e-14 233400)
(-465166 34149.5 6.06697e-14 1760.22 -9.99429e-14 -114980)
(-341817 37688.9 7.31618e-14 160.487 -4.92224e-14 -84771.9)
(-1.14259e+06 -540149 -4.40162e-15 182310 9.82196e-16 -238264)
(33956.8 64333.6 8.16363e-14 609.126 -2.14695e-14 8576.52)
(1.01046e+06 43157.9 -1.11899e-14 -2260.86 -5.54036e-16 250154)
(-474704 47722.8 -1.70574e-14 1641.64 -4.93691e-14 -117376)
(-344293 47397.2 1.06052e-13 834.737 5.22588e-14 -85219)
(1.55073e+06 -6193.39 1.84445e-14 -2699.09 8.21232e-15 384097)
(-67964.3 58126.2 -1.17097e-14 -260.262 4.70382e-14 -16927.9)
(1.04735e+06 17647.4 2.79913e-14 3405.48 -1.74368e-14 260715)
(-241671 49284.5 3.66417e-14 1713.76 -6.46819e-14 -59538.3)
(-882667 72056.4 2.27866e-14 9443 -2.95982e-15 -216665)
(-829961 49201.3 -1.39226e-14 -4911.81 -1.0754e-15 -207149)
(797242 50629.3 -2.64084e-14 1128.62 1.73346e-14 198092)
(-98167.6 63346.2 -1.60925e-13 4165.3 -7.33489e-14 -23323.9)
(-2526.15 -29017.6 1.78996e-16 -45498.5 6.36646e-17 -11915.9)
(-14007.5 62484.6 0 3000.98 0 -2730.93)
(-1.51521e+06 -482988 7.22193e-15 193178 -1.99128e-15 -328023)
(1.137e+06 -538569 8.52982e-15 -182492 2.68377e-15 236832)
(-691966 73379.7 2.91194e-14 -5519.84 -2.83478e-14 -173060)
(232544 49320.9 1.22364e-14 1464.4 4.73455e-14 58062.2)
(317583 43964.6 -3.95747e-14 1884.03 9.00378e-14 79266.3)
(96892.7 62046.4 7.88457e-14 -1638.08 2.35157e-14 23634.6)
(-178300 18801.9 4.57067e-14 659.745 -7.03569e-14 -44076.3)
(152907 74115.8 -3.82811e-14 -935.013 3.50619e-14 37707.3)
(-79067.1 50651.4 1.13076e-14 1052.62 1.73593e-14 -19357)
(-79241.4 87503.4 8.371e-15 3282.11 2.44174e-14 -18847)
(-1.23171e+06 11138.9 -3.91518e-15 32226 9.46829e-15 -297615)
(10153.9 -17263.8 4.69498e-17 -30153.1 2.91442e-17 -4962.22)
(-394349 72851.3 -1.67513e-16 4880.35 3.22247e-15 -96635.1)
(306811 45005.4 2.85841e-14 -1677.44 8.88722e-14 75709.9)
(1.28737e+06 -249227 7.48546e-16 -33997.3 9.93749e-16 310987)
(-35511.1 50049.1 -7.3793e-15 -5618.06 -5.74305e-14 -10205)
(-40452.6 76187.5 5.85613e-15 -2400.63 5.60773e-14 -10632.8)
(-23611.5 67203.2 -1.00289e-15 516.108 -8.612e-14 -5730.43)
(-63552.9 63787 -1.62613e-14 2665.66 2.22315e-14 -15107.4)
(26218.1 66485.4 2.55183e-14 -796.274 6.60276e-14 6307.66)
(17768.6 70133.4 -5.98236e-14 -774.299 -1.95585e-14 4216.62)
(-1.29404e+06 -248100 3.24584e-15 33006.7 -9.98748e-16 -312887)
(432792 75073.2 -2.42275e-14 1407.12 1.31676e-14 107734)
(-150215 60936.6 -1.6005e-13 1242.19 -4.54602e-14 -36963.1)
(491013 63068.8 8.55516e-14 3772.07 -1.44673e-13 122766)
(447045 60763.2 -9.53522e-16 3897.79 -5.51662e-14 111888)
(406903 57908.1 -1.56902e-13 1948.52 2.37843e-14 101444)
(72655.5 40544 -7.82048e-14 4278.28 -2.9292e-14 19088.8)
(-1.00033e+06 30307.4 4.3256e-14 -2932.83 -4.21502e-14 -248930)
(303749 48268 8.48714e-14 -1623.52 9.15274e-15 74963.4)
(425701 48265.7 -3.84647e-14 -1648.8 -5.51322e-14 105216)
(-85901.3 61573.3 -1.35521e-13 -503.358 -2.28827e-14 -21438.8)
(655767 82291 9.28177e-15 -9118.17 1.35606e-14 160447)
(120693 49426.5 -5.48425e-14 -1284.43 3.71941e-14 29627.7)
(-1.32233e+06 25275.3 -1.49567e-14 -2075.32 -5.58776e-15 -328611)
(36613.4 63144.7 -7.07126e-14 1976.86 -5.95762e-14 9575.02)
(-108514 65228.8 -1.4066e-13 2466.13 6.65218e-14 -26312.7)
(351885 52615.9 1.08365e-13 770.937 -1.56872e-14 87501)
(320149 51307.2 1.00735e-13 900.11 2.4513e-14 79658.8)
(291290 49170 -7.27752e-14 -757.542 2.01005e-14 72087)
(684830 44856.5 1.11408e-14 325.189 2.37417e-14 170001)
(138411 63172.8 -4.74953e-14 2089.96 -1.0197e-13 34861)
(-365746 56795.7 3.32345e-14 -5421.77 7.5477e-16 -92094.4)
(-293737 95951.2 2.05019e-14 2862.08 2.29532e-14 -72172.1)
(-159532 45349.4 0 989.799 0 -39337.5)
(-493774 68703.6 -4.41882e-14 -4934.98 1.34576e-14 -123740)
(-542683 71305 -6.67983e-14 -5501.98 -4.45389e-15 -136016)
(-596175 75676.1 -6.69433e-14 -6712.68 3.23106e-14 -149589)
(275517 50115.6 1.33919e-15 4203.12 1.67588e-14 69404.3)
(190063 55728.4 2.11523e-14 2580.89 -2.6513e-14 47798.8)
(57141.9 13036.2 -6.15128e-14 2605.05 2.22068e-14 14824.4)
(100252 51946.7 0 -1882.03 0 24407.6)
(130149 43579.3 -7.198e-14 5.109 4.30071e-14 32293.9)
(1.55281e+06 -66681.1 -4.04109e-15 -211284 -1.96037e-15 332859)
(541618 36600.3 7.18446e-14 239.693 -7.37391e-14 134446)
(-413504 62204.2 0 479.434 0 -102480)
(-294488 58169.7 -3.55284e-14 5376.02 -1.57272e-15 -71734.6)
(232449 61705 1.8867e-14 -2905.59 -2.33501e-14 56954.4)
(-74807.6 68911.2 3.1474e-14 -1514.62 2.5845e-14 -18937.1)
(-12044.3 72397.4 9.23515e-14 -1105.98 -7.28817e-14 -3262.86)
(22018.8 52478.4 7.48612e-14 6236.36 -1.18703e-14 7010.69)
(24432.4 53919.9 -3.93305e-14 6593.4 -3.67108e-14 7698.12)
(-5830.49 88588.6 -1.97938e-15 -2635.81 -1.62901e-14 -2100.66)
(-6132.56 48246.3 -1.73041e-14 -516.985 5.82681e-14 -1649.89)
(-1359.94 55137.1 -6.46198e-14 -2317.18 4.82024e-14 -912.37)
(8229.7 62887.6 6.16271e-14 -11490.2 -2.80375e-14 -809.002)
(106064 48240.4 -4.93787e-15 1781.72 -2.34551e-14 26758.6)
(-210572 94753.1 -1.17382e-15 1293.2 -1.1497e-14 -51926.4)
(61912.6 60910.5 1.5474e-13 73.3955 -3.04943e-14 15380)
(6170.27 92237.5 6.75217e-15 -12159 9.72968e-15 -1485.92)
(-433422 90712.4 -1.67695e-14 -1605.02 -1.01195e-14 -107939)
(527110 46540.2 5.45199e-14 3012.45 4.88068e-14 131534)
(-224086 63048.8 -5.9586e-14 32.5857 1.95056e-14 -55592.3)
(-1.03226e+06 200186 -2.95003e-15 189027 1.78903e-15 -209223)
(-144606 44736.9 4.23567e-14 -2322.65 4.60704e-14 -36456)
(-238687 90162 0 2799 0 -58528.6)
(67670 59802.7 8.25536e-14 -1690.55 -1.14179e-13 16370.8)
(102948 52930.6 4.37306e-15 -241.414 1.42271e-14 25483.5)
(1.13595e+06 -251518 -9.17002e-16 37237.3 1.61779e-16 291092)
(-1.52476e+06 13201.1 -1.23977e-14 8647.14 5.70433e-15 -376178)
(444541 49308.2 2.64726e-14 4344.79 2.22944e-14 111378)
(488743 50654.3 -2.71214e-14 3657.08 5.8947e-14 122174)
(-152391 64945.5 -1.95773e-13 3331.58 -6.99761e-14 -36984.6)
(101197 76718.9 3.48174e-14 5911.33 6.87672e-14 26575.8)
(-24630.6 59467.1 5.50698e-14 -4334.92 8.39362e-14 -7186.92)
(-645604 -419574 -7.83683e-16 47629.7 3.29657e-16 -148370)
(-1.47096e+06 55272.2 4.07999e-15 1896.83 5.2526e-15 -364506)
(1.31434e+06 32649.2 2.2199e-14 2454.14 -1.09972e-14 326723)
(-1.92668e+06 -30709.2 -5.80857e-15 -6123.96 -2.51739e-15 -479569)
(567921 43125.3 -2.3991e-14 -4045.93 -3.74171e-14 139909)
(394234 40694.4 -3.97886e-14 -2757.54 1.46353e-13 97133.2)
(-513576 67763.1 0 10372.2 0 -124855)
(64871.3 43281.9 -7.20525e-14 -6205.11 3.42845e-14 14556.3)
(-47436.1 75160.8 -5.86866e-14 3329.24 3.11087e-14 -10943.8)