/*--------------------------------*- C++ -*----------------------------------*\
| =========                 |                                                 |
| \\      /  F ield         | OpenFOAM: The Open Source CFD Toolbox           |
|  \\    /   O peration     | Version:  2.3.1                                 |
|   \\  /    A nd           | Web:      www.OpenFOAM.org                      |
|    \\/     M anipulation  |                                                 |
\*---------------------------------------------------------------------------*/
FoamFile
{
    version     2.0;
    format      ascii;
    class       volScalarField;
    location    "0.3";
    object      p;
}
// * * * * * * * * * * * * * * * * * * * * * * * * * * * * * * * * * * * * * //

dimensions      [0 2 -2 0 0 0 0];

internalField   nonuniform List<scalar> 
3072
(
-0.0608028
-0.0616905
-0.0632685
-0.064825
-0.0658849
-0.0664936
-0.0669044
-0.0672567
-0.0676427
-0.0682168
-0.0691715
-0.0704403
-0.0586356
-0.0612209
-0.0638139
-0.0654447
-0.0660156
-0.0657523
-0.0650684
-0.0641296
-0.0626789
-0.0610781
-0.0601268
-0.0602156
-0.0544831
-0.0575779
-0.0600928
-0.0614269
-0.0615709
-0.0607001
-0.0592278
-0.0576611
-0.0564027
-0.0557628
-0.0558348
-0.0564481
-0.047603
-0.0498861
-0.0513856
-0.052157
-0.0519306
-0.0509915
-0.0498601
-0.04903
-0.0487614
-0.0490605
-0.0498014
-0.0508229
-0.0396461
-0.04055
-0.041359
-0.0415539
-0.041268
-0.0408043
-0.0405103
-0.040627
-0.0412373
-0.0423205
-0.0438139
-0.0456073
-0.0324551
-0.0324346
-0.0324064
-0.0323199
-0.0322575
-0.0323306
-0.0326849
-0.033426
-0.0346106
-0.0362705
-0.0384108
-0.0409585
-0.0261894
-0.0254139
-0.0249394
-0.0247998
-0.0249767
-0.0254136
-0.0261331
-0.0272013
-0.0287155
-0.0307914
-0.0335302
-0.0369327
-0.0203699
-0.01917
-0.0185019
-0.0184119
-0.0188191
-0.0195317
-0.02048
-0.0217294
-0.0234466
-0.0258573
-0.0292
-0.0335964
-0.0146993
-0.0134218
-0.0126022
-0.0126712
-0.0133963
-0.0144219
-0.0155843
-0.016971
-0.018833
-0.021521
-0.0254424
-0.0308757
-0.00904312
-0.00805001
-0.00702014
-0.00733783
-0.008565
-0.0100062
-0.0114221
-0.0129625
-0.0149537
-0.0178467
-0.022218
-0.0285498
-0.00336998
-0.00238322
-0.00162744
-0.00237324
-0.00428848
-0.00627291
-0.00799733
-0.00972711
-0.011845
-0.0148593
-0.0194775
-0.026352
0.000916332
0.00367351
0.00344698
0.0018112
-0.000815963
-0.0032946
-0.00529931
-0.00723019
-0.00948005
-0.0125328
-0.0171415
-0.0240585
-0.0717138
-0.0726951
-0.0732309
-0.0729999
-0.0712048
-0.0681541
-0.0647008
-0.0619872
-0.061004
-0.0617062
-0.0628829
-0.063399
-0.0611101
-0.0621145
-0.0624291
-0.0618474
-0.0611
-0.0600456
-0.0588084
-0.0579317
-0.0580976
-0.0595205
-0.0612834
-0.0620508
-0.057309
-0.0581201
-0.0586193
-0.0585864
-0.0579833
-0.0571452
-0.0563421
-0.0558788
-0.0560732
-0.0572658
-0.0593947
-0.0610099
-0.0519452
-0.0529616
-0.0536943
-0.0540676
-0.0540468
-0.0537121
-0.0533322
-0.053196
-0.0534199
-0.0541611
-0.0562458
-0.0591999
-0.0475022
-0.04922
-0.0504949
-0.0511886
-0.0513107
-0.0510093
-0.0505782
-0.050358
-0.0504488
-0.0507714
-0.0524421
-0.0566499
-0.0436932
-0.0462492
-0.0482261
-0.0493561
-0.0495784
-0.0490517
-0.0481664
-0.0473994
-0.0470319
-0.0470204
-0.0482404
-0.0529614
-0.0407652
-0.0444982
-0.0474499
-0.0490988
-0.0492781
-0.0481628
-0.046326
-0.0444645
-0.0431341
-0.0425886
-0.043271
-0.0475336
-0.0388021
-0.0440556
-0.0482537
-0.0504902
-0.0504753
-0.0483455
-0.0449891
-0.041462
-0.0386324
-0.0371174
-0.0369911
-0.0402542
-0.0376118
-0.0446145
-0.0502345
-0.0530866
-0.0527323
-0.0492126
-0.043834
-0.0381283
-0.0332945
-0.0302105
-0.0289739
-0.0315118
-0.0367004
-0.0453501
-0.0523316
-0.055844
-0.0549896
-0.0499601
-0.0424324
-0.0343627
-0.0271875
-0.0218031
-0.0187981
-0.0200813
-0.0354343
-0.0452845
-0.0533273
-0.0572892
-0.0559357
-0.0496404
-0.0403661
-0.0303698
-0.0211043
-0.0131222
-0.00688533
-0.00352099
-0.0333357
-0.0435652
-0.0520336
-0.0561313
-0.0545108
-0.0475276
-0.0373728
-0.0264535
-0.0161857
-0.00671277
0.00272452
0.0141457
-0.060918
-0.0618065
-0.0633867
-0.0649455
-0.066006
-0.0666138
-0.0670228
-0.0673737
-0.0677588
-0.0683319
-0.0692845
-0.0705491
-0.0587528
-0.0613429
-0.0639412
-0.0655758
-0.0661481
-0.0658834
-0.0651966
-0.0642563
-0.0628052
-0.0612014
-0.0602432
-0.0603226
-0.0545975
-0.0576985
-0.0602193
-0.0615573
-0.0617035
-0.0608322
-0.0593568
-0.0577851
-0.0565204
-0.0558735
-0.0559381
-0.0565439
-0.0477095
-0.0499981
-0.0514995
-0.0522744
-0.0520501
-0.0511107
-0.0499766
-0.0491423
-0.0488689
-0.0491629
-0.0498986
-0.0509142
-0.0397427
-0.0406467
-0.0414603
-0.0416587
-0.0413751
-0.040912
-0.0406172
-0.0407319
-0.0413394
-0.0424189
-0.0439075
-0.0456951
-0.0325482
-0.0325285
-0.0325026
-0.032419
-0.0323594
-0.032434
-0.0327885
-0.0335285
-0.0347108
-0.0363671
-0.0385025
-0.0410439
-0.0262824
-0.0255073
-0.0250349
-0.0248984
-0.0250782
-0.0255169
-0.0262366
-0.0273036
-0.0288154
-0.0308875
-0.0336209
-0.0370161
-0.0204637
-0.0192646
-0.0185986
-0.0185117
-0.0189219
-0.0196361
-0.0205846
-0.0218327
-0.0235472
-0.0259537
-0.0292901
-0.0336779
-0.0147943
-0.0135181
-0.0127001
-0.0127721
-0.0135004
-0.0145279
-0.0156906
-0.0170759
-0.018935
-0.0216182
-0.0255323
-0.0309554
-0.00913807
-0.00814714
-0.00711774
-0.0074382
-0.00866965
-0.0101137
-0.0115302
-0.0130696
-0.0150579
-0.0179457
-0.0223087
-0.028629
-0.00346629
-0.00247892
-0.00172183
-0.002471
-0.00439274
-0.00638183
-0.0081076
-0.00983676
-0.0119521
-0.014961
-0.0195704
-0.0264326
0.000820746
0.00358197
0.00335766
0.0017181
-0.000918827
-0.00340509
-0.00541212
-0.00734297
-0.00959061
-0.0126377
-0.0172371
-0.0241417
-0.0718158
-0.0727874
-0.0733114
-0.0730685
-0.0712625
-0.0682025
-0.0647436
-0.0620294
-0.06105
-0.0617574
-0.0629372
-0.0634537
-0.0612067
-0.0622012
-0.0625068
-0.0619155
-0.0611594
-0.0600982
-0.0588565
-0.0579789
-0.058148
-0.0595762
-0.0613423
-0.0621091
-0.0573971
-0.0582004
-0.0586923
-0.0586532
-0.0580442
-0.0572014
-0.0563952
-0.0559307
-0.0561272
-0.0573253
-0.0594594
-0.0610751
-0.0520299
-0.0530398
-0.0537665
-0.0541345
-0.0541094
-0.0537717
-0.0533901
-0.0532536
-0.053479
-0.0542252
-0.0563169
-0.0592723
-0.0475834
-0.049295
-0.0505646
-0.0512544
-0.0513738
-0.0510711
-0.0506402
-0.0504213
-0.0505142
-0.0508413
-0.0525199
-0.0567313
-0.0437716
-0.0463211
-0.048293
-0.0494199
-0.0496412
-0.0491153
-0.0482321
-0.0474684
-0.0471044
-0.0470975
-0.0483255
-0.0530524
-0.0408403
-0.0445657
-0.0475123
-0.0491594
-0.0493398
-0.0482274
-0.0463949
-0.0445381
-0.0432128
-0.0426727
-0.0433642
-0.0476336
-0.0388735
-0.0441178
-0.0483105
-0.0505463
-0.050535
-0.0484107
-0.0450601
-0.0415385
-0.0387141
-0.0372049
-0.037088
-0.0403573
-0.0376796
-0.0446715
-0.0502858
-0.0531381
-0.0527907
-0.049279
-0.043907
-0.0382061
-0.0333757
-0.0302957
-0.0290654
-0.0316018
-0.036766
-0.045404
-0.0523807
-0.0558958
-0.0550504
-0.0500299
-0.0425076
-0.0344396
-0.0272643
-0.0218813
-0.0188743
-0.0201416
-0.0355007
-0.0453393
-0.053379
-0.0573467
-0.0560019
-0.0497146
-0.0404425
-0.0304431
-0.0211726
-0.0131867
-0.00693902
-0.00354723
-0.0334053
-0.0436244
-0.0520909
-0.0561945
-0.0545827
-0.0476048
-0.0374476
-0.0265194
-0.0162405
-0.00675743
0.00269509
0.0141483
-0.0608202
-0.0617087
-0.0632888
-0.0648474
-0.065908
-0.0665162
-0.0669259
-0.0672775
-0.0676633
-0.0682373
-0.0691911
-0.0704576
-0.0586548
-0.0612441
-0.0638415
-0.0654753
-0.0660473
-0.0657831
-0.0650971
-0.0641572
-0.0627061
-0.0611031
-0.0601472
-0.0602297
-0.0545007
-0.0576007
-0.0601202
-0.0614571
-0.0616026
-0.0607313
-0.0592564
-0.0576858
-0.0564225
-0.0557776
-0.0558448
-0.0564534
-0.0476152
-0.049903
-0.0514036
-0.0521773
-0.0519519
-0.0510118
-0.0498777
-0.0490439
-0.0487717
-0.0490675
-0.0498054
-0.0508238
-0.0396511
-0.0405551
-0.0413674
-0.0415641
-0.0412788
-0.0408142
-0.0405184
-0.040633
-0.0412413
-0.0423225
-0.0438136
-0.0456045
-0.0324579
-0.032438
-0.0324108
-0.0323251
-0.0322629
-0.0323353
-0.0326884
-0.033428
-0.034611
-0.0362692
-0.0384077
-0.0409531
-0.0261926
-0.0254174
-0.0249433
-0.0248038
-0.0249804
-0.0254165
-0.0261347
-0.0272012
-0.0287138
-0.030788
-0.0335251
-0.0369254
-0.0203747
-0.0191751
-0.0185067
-0.0184163
-0.0188229
-0.0195342
-0.0204809
-0.0217284
-0.0234437
-0.0258526
-0.0291934
-0.0335879
-0.0147061
-0.0134291
-0.0126081
-0.0126763
-0.0134004
-0.0144245
-0.015585
-0.0169694
-0.0188292
-0.0215152
-0.0254348
-0.0308662
-0.00905042
-0.00805809
-0.00702629
-0.00734311
-0.00856948
-0.0100089
-0.0114224
-0.0129604
-0.0149492
-0.0178401
-0.0222096
-0.0285397
-0.00337732
-0.00238806
-0.00163181
-0.00237828
-0.00429252
-0.00627505
-0.00799704
-0.00972423
-0.0118397
-0.0148519
-0.0194684
-0.0263413
0.000912523
0.00367073
0.00344332
0.0018054
-0.000820216
-0.00329626
-0.00529815
-0.00722629
-0.00947372
-0.0125244
-0.0171314
-0.024047
-0.071727
-0.0727022
-0.0732303
-0.0729914
-0.0711888
-0.0681313
-0.0646735
-0.0619588
-0.0609779
-0.0616837
-0.0628629
-0.0633795
-0.0611176
-0.0621158
-0.0624247
-0.0618367
-0.0610835
-0.0600244
-0.0587841
-0.0579066
-0.0580746
-0.0595014
-0.0612669
-0.0620341
-0.0573097
-0.0581162
-0.058611
-0.0585743
-0.0579674
-0.0571261
-0.056321
-0.055857
-0.056053
-0.0572495
-0.0593822
-0.0609981
-0.0519426
-0.0529555
-0.0536849
-0.054055
-0.0540315
-0.053695
-0.0533141
-0.053178
-0.0534031
-0.0541479
-0.0562376
-0.0591931
-0.0474965
-0.0492115
-0.0504837
-0.0511753
-0.0512958
-0.0509936
-0.0505628
-0.0503437
-0.0504363
-0.0507622
-0.0524384
-0.0566492
-0.0436853
-0.046239
-0.0482139
-0.0493426
-0.0495643
-0.0490379
-0.0481538
-0.047389
-0.047024
-0.0470158
-0.0482416
-0.0529669
-0.0407557
-0.0444866
-0.047437
-0.0490854
-0.0492652
-0.0481511
-0.0463162
-0.0444572
-0.0431299
-0.0425881
-0.0432769
-0.0475445
-0.0387915
-0.0440431
-0.0482403
-0.050477
-0.0504635
-0.0483356
-0.0449812
-0.0414564
-0.0386295
-0.0371181
-0.0369986
-0.040266
-0.0376004
-0.0446012
-0.0502204
-0.0530731
-0.0527213
-0.049204
-0.0438271
-0.0381226
-0.0332899
-0.0302083
-0.0289762
-0.0315136
-0.0366883
-0.0453361
-0.0523173
-0.055831
-0.0549798
-0.0499528
-0.0424256
-0.0343548
-0.0271783
-0.0217944
-0.0187887
-0.0200621
-0.0354217
-0.0452701
-0.0533131
-0.0572774
-0.055927
-0.0496336
-0.0403579
-0.0303576
-0.0210877
-0.0131029
-0.0068595
-0.00347702
-0.0333224
-0.0435505
-0.0520193
-0.0561193
-0.0545018
-0.0475193
-0.0373608
-0.0264345
-0.0161589
-0.00667928
0.00276745
0.0142102
-0.0607887
-0.0616769
-0.0632558
-0.064813
-0.0658729
-0.0664809
-0.0668906
-0.0672418
-0.067627
-0.0682001
-0.0691529
-0.0704187
-0.0586224
-0.0612096
-0.0638044
-0.0654365
-0.0660078
-0.0657439
-0.0650585
-0.0641185
-0.0626668
-0.0610642
-0.0601094
-0.0601932
-0.0544686
-0.0575653
-0.0600821
-0.0614175
-0.0615622
-0.060691
-0.0592173
-0.0576482
-0.0563868
-0.0557433
-0.0558113
-0.0564203
-0.0475854
-0.0498694
-0.0513698
-0.0521423
-0.0519165
-0.0509771
-0.0498443
-0.0490121
-0.0487409
-0.0490371
-0.0497749
-0.0507928
-0.0396264
-0.0405304
-0.0413401
-0.0415357
-0.0412503
-0.0407862
-0.0404912
-0.0406064
-0.0412147
-0.0422954
-0.0437859
-0.0455757
-0.0324353
-0.0324148
-0.032387
-0.0323011
-0.032239
-0.0323118
-0.0326651
-0.0334047
-0.0345874
-0.0362448
-0.038382
-0.0409257
-0.0261705
-0.0253949
-0.0249209
-0.0247818
-0.0249588
-0.0253952
-0.0261136
-0.0271802
-0.0286923
-0.0307656
-0.033501
-0.0368989
-0.020352
-0.0191522
-0.0184845
-0.0183949
-0.0188021
-0.019514
-0.0204611
-0.0217087
-0.0234238
-0.0258316
-0.0291704
-0.0335614
-0.0146823
-0.0134051
-0.0125856
-0.012655
-0.01338
-0.0144049
-0.0155659
-0.0169508
-0.0188104
-0.0214953
-0.0254124
-0.0308397
-0.00902583
-0.00803346
-0.00700341
-0.00732163
-0.00854897
-0.00998934
-0.0114037
-0.0129423
-0.0149311
-0.0178209
-0.0221878
-0.0285134
-0.00335195
-0.00236427
-0.00160901
-0.00235624
-0.00427181
-0.00625547
-0.0079784
-0.00970629
-0.0118219
-0.0148331
-0.0194471
-0.0263159
0.000937868
0.00369488
0.0034666
0.00182863
-0.000798684
-0.00327629
-0.00527932
-0.00720822
-0.00945585
-0.0125058
-0.0171108
-0.024023
-0.0716879
-0.0726638
-0.0731938
-0.0729573
-0.0711579
-0.0681039
-0.0646489
-0.0619352
-0.0609533
-0.0616572
-0.062835
-0.0633513
-0.0610821
-0.0620812
-0.0623913
-0.0618053
-0.0610542
-0.0599971
-0.0587583
-0.0578813
-0.0580483
-0.059473
-0.0612371
-0.0620044
-0.0572769
-0.0580838
-0.0585794
-0.0585436
-0.0579379
-0.0570978
-0.0562935
-0.0558297
-0.056025
-0.0572197
-0.0593506
-0.0609661
-0.0519113
-0.0529241
-0.0536536
-0.0540243
-0.0540015
-0.0536655
-0.0532849
-0.0531487
-0.0533734
-0.0541168
-0.0562044
-0.059159
-0.0474666
-0.0491807
-0.0504525
-0.0511441
-0.0512648
-0.0509628
-0.050532
-0.0503126
-0.0504047
-0.0507296
-0.0524039
-0.0566131
-0.043656
-0.0462078
-0.0481813
-0.0493093
-0.0495309
-0.0490048
-0.0481209
-0.0473561
-0.0469908
-0.0469821
-0.0482061
-0.0529295
-0.0407261
-0.0444538
-0.0474015
-0.0490485
-0.049228
-0.0481146
-0.0462809
-0.0444228
-0.0430962
-0.0425543
-0.0432416
-0.0475072
-0.0387607
-0.0440076
-0.048201
-0.0504356
-0.0504219
-0.0482956
-0.0449439
-0.0414218
-0.0385971
-0.0370868
-0.036966
-0.0402325
-0.0375684
-0.0445634
-0.0501779
-0.053028
-0.0526761
-0.0491614
-0.0437889
-0.0380893
-0.033261
-0.0301819
-0.0289507
-0.0314899
-0.0366562
-0.0452977
-0.0522737
-0.0557845
-0.0549334
-0.0499096
-0.0423884
-0.0343245
-0.0271545
-0.0217752
-0.0187734
-0.020053
-0.0353909
-0.0452335
-0.0532715
-0.057233
-0.0558825
-0.0495925
-0.0403236
-0.0303317
-0.0210701
-0.0130918
-0.00685649
-0.00348425
-0.0332943
-0.0435178
-0.0519826
-0.0560802
-0.0544626
-0.0474833
-0.0373316
-0.0264139
-0.0161474
-0.00667596
0.00276055
0.0141887
0.00676355
0.00775219
0.0080184
0.00536075
0.00177094
-0.00118286
-0.00343008
-0.00550703
-0.0078252
-0.0108171
-0.0151738
-0.0216306
0.00729491
0.00592231
0.00572786
0.00456612
0.00238175
1.84657e-05
-0.00218979
-0.00437833
-0.00676304
-0.00965845
-0.0136108
-0.0192543
0.00646918
0.00540727
0.00490347
0.0040193
0.00236874
0.000331483
-0.00168722
-0.00375618
-0.00610499
-0.00892825
-0.0125202
-0.017308
0.00534972
0.00471674
0.00401068
0.00304504
0.00181238
0.000150235
-0.00166366
-0.00360347
-0.00582563
-0.00846588
-0.0116724
-0.0156756
-0.0303165
-0.0400159
-0.0481813
-0.052133
-0.0504457
-0.0435163
-0.0335377
-0.0228031
-0.0127206
-0.00362578
0.00427859
0.0100293
-0.0267812
-0.0352683
-0.0425229
-0.0460521
-0.0444714
-0.0383764
-0.0295525
-0.0198213
-0.0105256
-0.00236375
0.00401725
0.00792561
-0.0235016
-0.0305044
-0.0364969
-0.0394216
-0.0379301
-0.033295
-0.0261674
-0.017778
-0.00950285
-0.00215828
0.00335001
0.00635254
-0.0206397
-0.026334
-0.0313513
-0.033904
-0.031694
-0.0283384
-0.0226524
-0.015547
-0.00896563
-0.00303171
0.00174846
0.00455814
0.00667522
0.00766895
0.00793803
0.00527315
0.00167021
-0.00129563
-0.00354702
-0.00562466
-0.00793985
-0.0109247
-0.0152714
-0.0217162
0.00721182
0.00583664
0.00564437
0.00447658
0.00227797
-0.000100165
-0.00231338
-0.00450252
-0.00688248
-0.00976799
-0.0137087
-0.0193403
0.00638252
0.00531773
0.00481516
0.00392754
0.00226136
0.000196304
-0.00183244
-0.00389028
-0.00622678
-0.00903694
-0.0126166
-0.0173929
0.00526069
0.00462185
0.00391695
0.00295472
0.00172548
2.97783e-05
-0.00181772
-0.0037486
-0.00594719
-0.00856964
-0.0117638
-0.0157574
-0.0303897
-0.0400802
-0.0482442
-0.0522007
-0.05052
-0.0435921
-0.0336063
-0.0228583
-0.0127597
-0.00364858
0.00427759
0.0100597
-0.026856
-0.0353354
-0.0425881
-0.0461199
-0.044542
-0.0384438
-0.0296097
-0.019863
-0.0105493
-0.00236792
0.00403648
0.00797081
-0.0235764
-0.0305715
-0.0365613
-0.0394854
-0.0379907
-0.0333482
-0.0262093
-0.0178048
-0.00951257
-0.00214865
0.00338214
0.00640714
-0.0207132
-0.0264005
-0.0314139
-0.0339644
-0.0317439
-0.0283773
-0.0226795
-0.0155593
-0.00896217
-0.00301219
0.00178674
0.0046145
0.00675099
0.00774561
0.00801504
0.00535794
0.00176826
-0.00118424
-0.00342859
-0.00550242
-0.00781792
-0.0108075
-0.0151626
-0.021618
0.00728374
0.00592049
0.00572669
0.00456245
0.00237769
1.72111e-05
-0.00218731
-0.00437265
-0.00675467
-0.00964772
-0.0135981
-0.0192402
0.00645599
0.00539978
0.00489977
0.00401638
0.00236694
0.00033201
-0.0016837
-0.00374951
-0.00609545
-0.0089163
-0.0125063
-0.0172926
0.00533218
0.00470461
0.0040036
0.00304219
0.00181269
0.000153246
-0.0016579
-0.00359492
-0.00581451
-0.00845254
-0.0116573
-0.0156591
-0.0303024
-0.0400005
-0.0481659
-0.0521191
-0.0504338
-0.0435036
-0.0335194
-0.0227755
-0.0126825
-0.00357707
0.00434106
0.0101118
-0.0267656
-0.0352512
-0.0425048
-0.046034
-0.0444533
-0.038356
-0.0295254
-0.019784
-0.0104767
-0.00230219
0.00409368
0.00801753
-0.0234844
-0.030485
-0.0364748
-0.0393968
-0.0379036
-0.0332647
-0.0261302
-0.0177311
-0.00944456
-0.00208733
0.00343537
0.00645126
-0.0206216
-0.0263129
-0.0313257
-0.0338725
-0.0316596
-0.0282991
-0.0226062
-0.0154911
-0.00889885
-0.00295424
0.00183794
0.00465848
0.00678396
0.00777403
0.00804029
0.00538092
0.00178992
-0.00116353
-0.00340905
-0.00548384
-0.00779965
-0.0107888
-0.0151424
-0.0215956
0.00731768
0.00594634
0.00575088
0.00458648
0.00240107
3.89609e-05
-0.00216716
-0.00435357
-0.00673598
-0.00962884
-0.0135783
-0.0192191
0.00649105
0.00542895
0.0049254
0.00404095
0.00239039
0.000354038
-0.00166303
-0.00372985
-0.00607639
-0.00889723
-0.0124868
-0.0172723
0.00536951
0.00473619
0.00403119
0.00306786
0.0018365
0.000175382
-0.00163708
-0.00357511
-0.00579529
-0.0084335
-0.011638
-0.0156393
-0.0302773
-0.0399727
-0.0481358
-0.0520877
-0.0504023
-0.0434747
-0.0334965
-0.0227609
-0.0126765
-0.00357933
0.00432989
0.0100921
-0.0267432
-0.0352279
-0.0424812
-0.0460105
-0.0444305
-0.0383349
-0.0295092
-0.0197751
-0.0104753
-0.00230838
0.00407987
0.00799734
-0.023464
-0.0304649
-0.0364568
-0.039381
-0.0378881
-0.0332505
-0.0261201
-0.017727
-0.00944704
-0.00209627
0.00342007
0.00643108
-0.0206017
-0.0262946
-0.0313111
-0.0338631
-0.0316495
-0.0282907
-0.0226011
-0.0154908
-0.00890424
-0.00296493
0.00182238
0.00463959
-9.59691e-06
-0.00163135
-0.00347992
-0.00561905
-0.0081346
-0.0110831
-0.0145297
-0.0184597
-0.0229197
-0.0270566
-0.0300014
-0.027716
-0.000417989
-0.00190309
-0.00362511
-0.00561455
-0.00792868
-0.0106174
-0.0137332
-0.0172151
-0.0208201
-0.0237702
-0.0250842
-0.0240655
-0.000962294
-0.00234418
-0.00394678
-0.00578718
-0.00789761
-0.0103026
-0.0130092
-0.0159161
-0.018743
-0.0208929
-0.0217037
-0.021259
-0.00146824
-0.00275715
-0.00426318
-0.00598411
-0.00792942
-0.0100968
-0.0124601
-0.0148853
-0.0171284
-0.0187883
-0.0192734
-0.0193846
-0.0249028
-0.020304
-0.0144252
-0.00886467
-0.00407631
-0.000111579
0.00257152
0.00380556
0.00386668
0.00345159
0.00253608
0.00148767
-0.0220194
-0.0179439
-0.0127234
-0.00802224
-0.00400931
-0.000776379
0.00146845
0.00263357
0.00287532
0.00256913
0.00185858
0.000921627
-0.0200373
-0.0160966
-0.0113318
-0.00741607
-0.00413316
-0.00145203
0.000465084
0.00155406
0.00189909
0.00170584
0.00112486
0.000267771
-0.0187599
-0.0147894
-0.0104043
-0.00714204
-0.00439404
-0.0020953
-0.000403806
0.000619894
0.00101805
0.000918324
0.000439568
-0.000332771
0.000118915
-0.00149333
-0.00333987
-0.00549391
-0.00802111
-0.0109781
-0.0144312
-0.0183664
-0.02283
-0.0269675
-0.0299076
-0.0276308
-0.000295317
-0.00177062
-0.00349413
-0.00549604
-0.00781848
-0.0105139
-0.0136348
-0.0171209
-0.0207287
-0.0236793
-0.0249914
-0.0239804
-0.000854767
-0.00222227
-0.00382398
-0.00567209
-0.00778916
-0.0101998
-0.0129107
-0.015821
-0.0186502
-0.0208009
-0.0216125
-0.0211742
-0.0013691
-0.00264616
-0.00414813
-0.00587275
-0.00782283
-0.00999463
-0.0123616
-0.0147897
-0.0170347
-0.0186958
-0.0191825
-0.0192992
-0.0248248
-0.0202317
-0.0143578
-0.00880199
-0.00401898
-6.00977e-05
0.0026171
0.00384567
0.00390164
0.0034819
0.00256376
0.00151293
-0.0219431
-0.0178732
-0.0126574
-0.00796074
-0.00395328
-0.000725656
0.00151381
0.00267385
0.00291091
0.00260058
0.00188719
0.000947784
-0.0199639
-0.0160285
-0.011268
-0.00735624
-0.00407825
-0.00140198
0.000510254
0.00159457
0.00193532
0.0017383
0.00115438
0.000294798
-0.0186887
-0.0147239
-0.0103432
-0.00708371
-0.00434005
-0.00204577
-0.000358759
0.00066064
0.00105483
0.000951571
0.000469895
-0.000304921
0.00014215
-0.00147172
-0.00331946
-0.00547424
-0.00800168
-0.0109585
-0.0144115
-0.018347
-0.0228121
-0.026953
-0.0298998
-0.0276226
-0.000271231
-0.00174823
-0.00347306
-0.00547582
-0.00779868
-0.0104942
-0.0136152
-0.017102
-0.0207115
-0.0236653
-0.0249823
-0.0239729
-0.00082983
-0.00219905
-0.00380213
-0.00565123
-0.00776896
-0.01018
-0.0128914
-0.0158026
-0.0186336
-0.0207869
-0.0216019
-0.021167
-0.00134336
-0.00262217
-0.00412557
-0.00585129
-0.00780221
-0.00997469
-0.0123424
-0.0147715
-0.0170181
-0.0186813
-0.0191705
-0.0192916
-0.0248189
-0.0202289
-0.0143591
-0.00880818
-0.00402976
-7.47105e-05
0.00259991
0.0038275
0.00388295
0.00346228
0.00254119
0.00148836
-0.0219395
-0.0178723
-0.0126603
-0.00796812
-0.00396455
-0.00074018
0.00149702
0.00265565
0.00289159
0.00257985
0.00186428
0.000922965
-0.0199629
-0.0160295
-0.0112721
-0.00736472
-0.00409009
-0.00141655
0.00049362
0.00157639
0.00191576
0.0017172
0.00113131
0.000269877
-0.0186911
-0.0147263
-0.0103481
-0.0070933
-0.00435247
-0.00206048
-0.00037537
0.000642414
0.0010351
0.000930248
0.000446741
-0.000329909
0.000115991
-0.00149944
-0.00334886
-0.00550537
-0.00803451
-0.010993
-0.0144475
-0.0183843
-0.0228507
-0.026993
-0.0299404
-0.0276673
-0.000297708
-0.00177632
-0.00350281
-0.00550728
-0.00783181
-0.0105289
-0.0136513
-0.0171394
-0.0207501
-0.0237051
-0.025023
-0.0240186
-0.000856449
-0.0022273
-0.00383202
-0.00568281
-0.00780223
-0.0102149
-0.0129278
-0.0158403
-0.0186725
-0.0208272
-0.0216441
-0.0212133
-0.00137006
-0.00265053
-0.00415558
-0.00588297
-0.00783556
-0.0100097
-0.0123788
-0.0148093
-0.0170573
-0.0187219
-0.0192134
-0.0193375
-0.0248674
-0.0202813
-0.0144163
-0.00887064
-0.00409765
-0.000148435
0.00252048
0.00374236
0.00379527
0.00337366
0.00245285
0.001391
-0.0219894
-0.0179261
-0.0127192
-0.00803223
-0.0040336
-0.000814539
0.00141758
0.00257137
0.00280494
0.00249359
0.00178029
0.000826607
-0.0200139
-0.0160851
-0.0113334
-0.00743057
-0.0041602
-0.00149127
0.00041434
0.00149298
0.00182956
0.00162885
0.0010441
0.000179193
-0.0187416
-0.0147834
-0.010412
-0.00716036
-0.00442309
-0.00213528
-0.00045441
0.000559625
0.000949549
0.000842303
0.00035708
-0.000422247
-0.00192726
-0.00312231
-0.00453128
-0.00614083
-0.00794261
-0.00991384
-0.0120187
-0.0141003
-0.0159599
-0.0173212
-0.0177505
-0.0178833
-0.00234097
-0.00345452
-0.00477316
-0.0062779
-0.00794882
-0.00974777
-0.0116598
-0.0134823
-0.0150827
-0.016255
-0.0167099
-0.0167754
-0.00270557
-0.00374902
-0.00498922
-0.00640212
-0.00795982
-0.00961619
-0.0113646
-0.0129891
-0.014397
-0.015426
-0.0158768
-0.0159575
-0.00302135
-0.0040039
-0.0051756
-0.00650892
-0.00797119
-0.00951731
-0.0111148
-0.0125948
-0.013859
-0.0147849
-0.0152412
-0.0153608
-0.00329012
-0.00422064
-0.00533335
-0.00659835
-0.00797996
-0.009433
-0.0109105
-0.0122805
-0.0134393
-0.0142941
-0.0147549
-0.0149096
-0.00351432
-0.00440119
-0.00546423
-0.00667179
-0.0079861
-0.00936124
-0.0107439
-0.0120327
-0.0131128
-0.0139186
-0.0143813
-0.0145631
-0.00369673
-0.00454781
-0.00556999
-0.00673037
-0.00798961
-0.00930064
-0.0106077
-0.0118415
-0.0128606
-0.0136286
-0.0140921
-0.0142917
-0.00384018
-0.0046628
-0.00565242
-0.0067752
-0.00799066
-0.00925006
-0.0104941
-0.011701
-0.0126693
-0.0134078
-0.0138707
-0.0140815
-0.00394745
-0.00474835
-0.00571319
-0.0068074
-0.00798964
-0.00920935
-0.0103938
-0.0116102
-0.0125283
-0.0132448
-0.0137061
-0.013924
-0.00402107
-0.00480646
-0.0057538
-0.00682788
-0.00798689
-0.00918056
-0.0103374
-0.0115299
-0.0124276
-0.0131306
-0.013591
-0.0138133
-0.00406316
-0.00483898
-0.00577563
-0.00683743
-0.00798236
-0.00916255
-0.0103152
-0.0114629
-0.0123622
-0.0130593
-0.0135196
-0.0137452
-0.00407937
-0.00485101
-0.00578295
-0.00683913
-0.00797723
-0.00915376
-0.0103047
-0.0114257
-0.012327
-0.0130246
-0.013486
-0.0137157
-0.0166503
-0.0136548
-0.00993842
-0.00715321
-0.00470327
-0.00266662
-0.00114513
-0.000182921
0.000241157
0.000210024
-0.00018557
-0.000877321
-0.0143295
-0.0123043
-0.00949586
-0.00716407
-0.00497205
-0.00314853
-0.00176671
-0.000863181
-0.000430054
-0.000412805
-0.000743361
-0.00136603
-0.012734
-0.0112302
-0.00911414
-0.00708966
-0.00517479
-0.00354076
-0.00228039
-0.00143334
-0.00100201
-0.000951578
-0.00123126
-0.0017958
-0.0114758
-0.0103756
-0.0087439
-0.00700234
-0.00532162
-0.00385404
-0.00270033
-0.00190657
-0.00148359
-0.00141087
-0.00165123
-0.0021675
-0.0105865
-0.00972792
-0.00841503
-0.00691052
-0.00542566
-0.00410096
-0.00304017
-0.00229525
-0.00188406
-0.00179669
-0.00200675
-0.00248352
-0.00991966
-0.00922963
-0.00813703
-0.0068229
-0.00549849
-0.0042937
-0.00331228
-0.00261057
-0.00221227
-0.00211549
-0.00230215
-0.00274692
-0.00942123
-0.00884698
-0.00791018
-0.0067459
-0.00554928
-0.00444263
-0.00352717
-0.00286221
-0.00247625
-0.00237336
-0.00254207
-0.00296122
-0.00905126
-0.00855754
-0.00773189
-0.006682
-0.0055848
-0.00455593
-0.0036933
-0.00305837
-0.00268304
-0.00257607
-0.00273105
-0.00313005
-0.00878391
-0.00834531
-0.00759783
-0.00663256
-0.00560968
-0.00463975
-0.00381764
-0.00320578
-0.00283873
-0.00272893
-0.00287333
-0.00325675
-0.00860119
-0.00819869
-0.00750377
-0.00659765
-0.00562706
-0.004699
-0.00390555
-0.00330983
-0.00294831
-0.00283721
-0.00297246
-0.00334434
-0.0084904
-0.0081089
-0.00744601
-0.00657687
-0.00563891
-0.00473685
-0.00396087
-0.0033745
-0.00301577
-0.0029017
-0.00303106
-0.00339531
-0.00844226
-0.00806805
-0.00741975
-0.00656781
-0.0056447
-0.00475417
-0.00398545
-0.00340242
-0.00304431
-0.00292813
-0.00305471
-0.00341542
-0.00182907
-0.00301651
-0.0044217
-0.00603292
-0.00783784
-0.00981243
-0.0119205
-0.0140046
-0.0158659
-0.0172285
-0.0176594
-0.0177952
-0.00224441
-0.00335192
-0.0046674
-0.00617269
-0.00784567
-0.00964747
-0.0115615
-0.0133865
-0.0149885
-0.0161621
-0.0166183
-0.0166853
-0.00261091
-0.00364911
-0.00488638
-0.00629908
-0.00785798
-0.00951581
-0.0112674
-0.0128932
-0.0143025
-0.0153327
-0.0157846
-0.0158661
-0.00292836
-0.00390617
-0.00507505
-0.00640767
-0.00787056
-0.00941783
-0.0110176
-0.0124989
-0.0137644
-0.0146912
-0.0151484
-0.0152684
-0.00319855
-0.00412466
-0.00523459
-0.00649856
-0.00788035
-0.00933426
-0.0108134
-0.0121846
-0.0133444
-0.0142001
-0.0146616
-0.0148166
-0.00342394
-0.00430662
-0.0053669
-0.00657319
-0.00788736
-0.00926309
-0.010647
-0.0119369
-0.0130179
-0.0138244
-0.0142877
-0.0144697
-0.00360732
-0.00445435
-0.00547378
-0.00663271
-0.00789157
-0.00920296
-0.010511
-0.0117457
-0.0127657
-0.0135343
-0.0139983
-0.0141981
-0.00375153
-0.00457021
-0.00555707
-0.00667828
-0.00789318
-0.00915273
-0.0103975
-0.0116053
-0.0125743
-0.0133134
-0.0137767
-0.0139877
-0.00385938
-0.0046564
-0.00561848
-0.00671103
-0.00789258
-0.0091123
-0.0102972
-0.0115147
-0.0124333
-0.0131503
-0.013612
-0.01383
-0.0039334
-0.00471497
-0.00565954
-0.0067319
-0.00789013
-0.0090837
-0.0102406
-0.0114346
-0.0123326
-0.0130361
-0.0134968
-0.0137193
-0.00397573
-0.00474777
-0.00568165
-0.00674169
-0.00788577
-0.00906585
-0.0102188
-0.0113673
-0.0122672
-0.0129647
-0.0134253
-0.0136511
-0.00399205
-0.00475992
-0.0056891
-0.00674351
-0.00788073
-0.00905715
-0.0102084
-0.0113301
-0.012232
-0.01293
-0.0133917
-0.0136216
-0.0165828
-0.0135897
-0.00987975
-0.00709554
-0.00464994
-0.00261751
-0.00110017
-0.000141978
0.000278378
0.0002439
-0.000154562
-0.000848772
-0.0142654
-0.0122435
-0.00944008
-0.00710577
-0.0049192
-0.00309978
-0.00172185
-0.000822082
-0.000392468
-0.000378414
-0.00071178
-0.00133689
-0.0126723
-0.0111705
-0.00905795
-0.00703371
-0.00512266
-0.00349236
-0.00223562
-0.00139212
-0.000964135
-0.000916773
-0.0011992
-0.00176616
-0.011416
-0.0103173
-0.00868804
-0.00694779
-0.00527018
-0.00380597
-0.00265567
-0.00186527
-0.00144549
-0.00137573
-0.00161878
-0.00213744
-0.0105281
-0.00967069
-0.00835974
-0.00685693
-0.0053748
-0.00405319
-0.00299562
-0.00225389
-0.00184578
-0.00176129
-0.00197398
-0.00245311
-0.00986234
-0.00917327
-0.0080823
-0.00677
-0.00544809
-0.0042462
-0.00326783
-0.00256918
-0.00217385
-0.00207987
-0.00226911
-0.00271623
-0.00936472
-0.0087913
-0.00785595
-0.00669351
-0.00549926
-0.00439534
-0.00348281
-0.0028208
-0.00243772
-0.00233757
-0.00250883
-0.00293031
-0.00899536
-0.00850239
-0.00767809
-0.00663
-0.00553507
-0.00450882
-0.00364902
-0.00301695
-0.00264443
-0.00254015
-0.00269766
-0.00309897
-0.00872846
-0.00829056
-0.00754437
-0.00658085
-0.00556018
-0.00459278
-0.00377342
-0.00316435
-0.00280006
-0.00269291
-0.00283981
-0.00322555
-0.00854606
-0.00814422
-0.00745054
-0.00654616
-0.00557772
-0.00465214
-0.00386138
-0.0032684
-0.00290961
-0.00280115
-0.00293887
-0.00331304
-0.00843546
-0.00805462
-0.00739294
-0.00652551
-0.00558967
-0.00469005
-0.00391672
-0.00333307
-0.00297704
-0.00286559
-0.00299742
-0.00336396
-0.00838742
-0.00801385
-0.00736676
-0.00651651
-0.00559551
-0.0047074
-0.00394131
-0.00336099
-0.00300558
-0.00289201
-0.00302104
-0.00338404
-0.00180263
-0.00299186
-0.00439853
-0.00601094
-0.00781682
-0.00979225
-0.0119012
-0.0139863
-0.015849
-0.0172133
-0.017646
-0.0177844
-0.00221738
-0.0033267
-0.00464371
-0.00615027
-0.00782429
-0.00962701
-0.011542
-0.013368
-0.0149713
-0.0161463
-0.0166039
-0.0166724
-0.00258339
-0.00362341
-0.00486224
-0.00627627
-0.0078363
-0.00949512
-0.0112477
-0.0128746
-0.0142851
-0.0153164
-0.0157694
-0.0158518
-0.00290041
-0.00388007
-0.00505054
-0.00638454
-0.00784861
-0.00939695
-0.0109978
-0.0124801
-0.0137467
-0.0146746
-0.0151326
-0.0152533
-0.00317026
-0.00409822
-0.00520978
-0.00647516
-0.00785818
-0.0093132
-0.0107934
-0.0121657
-0.0133265
-0.0141831
-0.0146453
-0.0148009
-0.00339537
-0.00427991
-0.00534183
-0.00654956
-0.007865
-0.00924187
-0.0106269
-0.0119178
-0.0129997
-0.0138071
-0.0142711
-0.0144535
-0.00357851
-0.00442742
-0.00544851
-0.0066089
-0.00786905
-0.0091816
-0.0104907
-0.0117265
-0.0127474
-0.0135168
-0.0139814
-0.0141816
-0.00372255
-0.00454311
-0.00553163
-0.00665433
-0.00787053
-0.00913126
-0.0103771
-0.011586
-0.0125559
-0.0132957
-0.0137595
-0.0139709
-0.00383026
-0.00462917
-0.00559292
-0.00668696
-0.00786984