/*--------------------------------*- C++ -*----------------------------------*\
| =========                 |                                                 |
| \\      /  F ield         | OpenFOAM: The Open Source CFD Toolbox           |
|  \\    /   O peration     | Version:  2.3.1                                 |
|   \\  /    A nd           | Web:      www.OpenFOAM.org                      |
|    \\/     M anipulation  |                                                 |
\*---------------------------------------------------------------------------*/
FoamFile
{
    version     2.0;
    format      ascii;
    class       surfaceVectorField;
    location    "0.3";
    object      Uf;
}
// * * * * * * * * * * * * * * * * * * * * * * * * * * * * * * * * * * * * * //

dimensions      [0 1 -1 0 0 0 0];

internalField   nonuniform List<vector> 
5856
(
(-0.106352 -0.0457123 -5.96592e-20)
(-0.123308 -0.0695481 1.17853e-19)
(-0.0855009 -0.0387184 -2.96066e-20)
(-0.103224 -0.0629905 -1.35128e-19)
(-0.0731585 -0.0263002 0)
(-0.0938905 -0.0406595 1.6117e-19)
(-0.0694127 -0.0150649 -3.81124e-21)
(-0.0938628 -0.0176116 -1.38571e-20)
(-0.0733822 -0.00709658 5.05196e-20)
(-0.10191 0.00339373 -2.95748e-20)
(-0.0840322 0.000350929 6.18056e-21)
(-0.117975 0.0232856 6.16571e-20)
(-0.0997482 0.0150289 1.16909e-19)
(-0.140309 0.044843 -1.24704e-19)
(-0.119007 0.0439021 1.33018e-21)
(-0.164835 0.0719717 2.38222e-19)
(-0.141623 0.0832292 -4.15888e-19)
(-0.189484 0.105156 -1.52959e-19)
(-0.166021 0.123471 3.81279e-20)
(-0.213329 0.136928 -2.58357e-19)
(-0.189332 0.159162 2.89286e-19)
(-0.2341 0.162864 2.4129e-19)
(-0.250348 0.182495 -2.18788e-19)
(-0.208896 0.188033 -3.39298e-19)
(-0.111518 -0.0891594 4.43179e-20)
(-0.13751 -0.100781 1.99013e-19)
(-0.105741 -0.0723629 5.1403e-20)
(-0.129346 -0.0848334 -1.97617e-19)
(-0.112974 -0.0391379 1.50472e-19)
(-0.140804 -0.0457009 1.17804e-19)
(-0.128136 -0.00474573 -4.04024e-20)
(-0.159192 -0.00471096 2.19037e-20)
(-0.14967 0.0281764 -1.86333e-20)
(-0.18165 0.0346341 -5.3477e-20)
(-0.17682 0.0636549 -7.20449e-20)
(-0.207701 0.0734054 -3.29976e-20)
(-0.207616 0.102854 -7.66841e-21)
(-0.234519 0.112355 -5.15299e-21)
(-0.237296 0.141133 7.58058e-20)
(-0.257208 0.148211 5.03318e-20)
(-0.261072 0.172146 3.98348e-21)
(-0.273014 0.177477 7.11179e-20)
(-0.278068 0.192418 -4.2868e-20)
(-0.282108 0.197322 -1.6536e-19)
(-0.28923 0.202797 -2.45127e-19)
(-0.28623 0.208055 2.91144e-19)
(-0.287525 0.212611 -3.43305e-19)
(-0.29559 0.206595 -1.54699e-21)
(-0.139821 -0.0946979 -2.7414e-20)
(-0.158326 -0.110066 4.44473e-20)
(-0.160286 -0.0584017 -1.40382e-19)
(-0.173281 -0.0759489 -9.17529e-20)
(-0.187939 -0.0109088 -1.28872e-20)
(-0.202551 -0.0252105 -1.4504e-20)
(-0.215638 0.0366476 9.07454e-21)
(-0.231311 0.0238931 5.81071e-20)
(-0.243024 0.0828417 -6.86782e-20)
(-0.25755 0.0722767 -3.89201e-20)
(-0.267445 0.125581 3.63647e-20)
(-0.278793 0.115896 -4.16461e-20)
(-0.285263 0.161107 5.41166e-20)
(-0.292317 0.151455 7.78844e-20)
(-0.294699 0.186334 4.65278e-20)
(-0.297375 0.176529 -5.51543e-20)
(-0.296289 0.200902 -9.94888e-20)
(-0.295703 0.191247 3.81648e-20)
(-0.292778 0.207372 1.71602e-19)
(-0.290617 0.198266 -1.91939e-19)
(-0.287388 0.209846 2.01576e-19)
(-0.285313 0.20147 3.97667e-19)
(-0.281587 0.204042 -1.39598e-19)
(-0.282369 0.211745 -1.40005e-19)
(-0.179047 -0.0809925 0)
(-0.181449 -0.09437 0)
(-0.214776 -0.0353019 3.68179e-20)
(-0.214482 -0.0503572 0)
(-0.247653 0.0179093 5.42615e-20)
(-0.248258 0.00116659 -1.14124e-20)
(-0.275747 0.0688113 5.23366e-21)
(-0.276352 0.0521208 2.63568e-20)
(-0.295421 0.113379 -1.17927e-20)
(-0.295306 0.0970765 -9.06178e-21)
(-0.304934 0.148 0)
(-0.30351 0.132308 1.96818e-20)
(-0.304858 0.17101 -3.09353e-20)
(-0.301991 0.156264 -2.24721e-20)
(-0.298273 0.183855 -6.15809e-20)
(-0.294227 0.170518 -3.13659e-20)
(-0.289414 0.190262 -5.35975e-20)
(-0.284606 0.178934 -3.10722e-20)
(-0.281945 0.194191 3.38545e-20)
(-0.276736 0.185565 7.43299e-20)
(-0.277758 0.19806 6.0118e-20)
(-0.27243 0.192758 1.10242e-20)
(-0.27177 0.200565 5.16288e-20)
(-0.276828 0.202194 -5.41971e-20)
(-0.210553 -0.0576492 0)
(-0.200172 -0.0697304 7.91814e-20)
(-0.247846 -0.00903952 -4.94309e-20)
(-0.239885 -0.0230891 0)
(-0.278114 0.0409873 -3.84783e-20)
(-0.270007 0.0258232 -1.19385e-20)
(-0.297377 0.0852818 1.36395e-20)
(-0.290248 0.070051 1.08411e-20)
(-0.304499 0.119793 2.28459e-20)
(-0.298011 0.105023 2.97366e-21)
(-0.301081 0.143123 -3.10098e-21)
(-0.294928 0.129092 2.02161e-20)
(-0.29129 0.15731 -2.27894e-20)
(-0.285132 0.144325 -2.30821e-20)
(-0.280079 0.166602 0)
(-0.27362 0.155075 0)
(-0.271228 0.175077 9.7483e-20)
(-0.264269 0.16552 -3.48625e-20)
(-0.266454 0.184772 5.02525e-20)
(-0.259023 0.177706 1.09413e-20)
(-0.26576 0.195424 2.48111e-21)
(-0.258226 0.191267 1.64016e-19)
(-0.261386 0.204415 -8.2068e-20)
(-0.26832 0.205496 -4.29286e-21)
(-0.230201 -0.0352543 8.02118e-20)
(-0.212191 -0.0499179 2.08755e-20)
(-0.26146 0.0124137 3.82e-20)
(-0.251207 -0.00195546 0)
(-0.28259 0.0555473 3.82e-20)
(-0.272439 0.0419727 2.39178e-20)
(-0.291322 0.0899685 0)
(-0.282834 0.07718 0)
(-0.288809 0.114029 0)
(-0.28147 0.101863 -1.4543e-21)
(-0.279138 0.129723 0)
(-0.272438 0.117817 0)
(-0.267426 0.141457 0)
(-0.260709 0.129719 -1.25507e-20)
(-0.257664 0.153447 -3.53162e-20)
(-0.250363 0.142205 0)
(-0.251831 0.167747 -1.24563e-19)
(-0.243538 0.157704 2.98216e-20)
(-0.250377 0.183963 1.24806e-19)
(-0.240942 0.176044 -1.27196e-19)
(-0.253124 0.200238 8.22686e-20)
(-0.24272 0.195385 2.82413e-19)
(-0.248828 0.213208 -1.42599e-19)
(-0.259644 0.214306 -4.20474e-20)
(-0.23942 -0.0202653 -6.39159e-20)
(-0.218673 -0.0427048 -1.58596e-20)
(-0.261261 0.0261558 -1.58372e-20)
(-0.253144 0.00980226 0)
(-0.272406 0.0621763 -1.58372e-20)
(-0.26395 0.0491347 3.4323e-22)
(-0.272737 0.0876761 -1.47185e-21)
(-0.266018 0.0765278 0)
(-0.265085 0.104382 -1.47185e-21)
(-0.258957 0.0937753 -1.171e-22)
(-0.254072 0.116804 -1.27022e-20)
(-0.248028 0.105621 0)
(-0.24373 0.129789 -1.27022e-20)
(-0.237166 0.117695 1.03084e-20)
(-0.236271 0.146099 6.66049e-20)
(-0.228598 0.133528 9.21918e-21)
(-0.232512 0.165868 2.90563e-20)
(-0.223136 0.153845 6.7346e-20)
(-0.232802 0.187443 2.85902e-20)
(-0.221259 0.177282 -6.67772e-20)
(-0.23749 0.208338 5.86004e-20)
(-0.223635 0.201381 5.87661e-20)
(-0.230909 0.222938 -5.27148e-21)
(-0.246698 0.225704 6.44114e-20)
(-0.242796 -0.016052 4.97483e-20)
(-0.225894 -0.0502345 5.02672e-20)
(-0.25447 0.0316846 1.65407e-20)
(-0.249698 0.0115177 -1.07672e-20)
(-0.257007 0.0621282 1.65407e-20)
(-0.252028 0.0487395 -7.38511e-21)
(-0.251564 0.0815152 1.44635e-21)
(-0.247391 0.0709853 -4.83944e-21)
(-0.241723 0.0942104 1.44635e-21)
(-0.237084 0.0841879 2.78575e-21)
(-0.231306 0.106065 2.35294e-20)
(-0.225949 0.094874 0)
(-0.222404 0.121316 3.2417e-20)
(-0.216139 0.108296 2.24542e-20)
(-0.215795 0.14138 9.32292e-21)
(-0.208135 0.126956 1.29275e-20)
(-0.211949 0.165408 -2.9244e-20)
(-0.202061 0.150748 1.60164e-20)
(-0.211637 0.191181 -3.74032e-20)
(-0.198632 0.177863 -6.67015e-20)
(-0.21593 0.21555 -6.35056e-21)
(-0.199154 0.205366 -5.88513e-20)
(-0.205002 0.229032 5.78178e-20)
(-0.225634 0.234645 -2.16633e-19)
(-0.245059 -0.0249703 -1.08807e-20)
(-0.241694 -0.0701961 -1.25404e-20)
(-0.246378 0.0285065 -3.58945e-20)
(-0.246921 0.00214508 -2.66147e-21)
(-0.241656 0.0569163 -2.99042e-20)
(-0.24176 0.0417574 -1.67406e-20)
(-0.231918 0.073073 -3.55217e-21)
(-0.230557 0.0620279 1.66784e-21)
(-0.221008 0.0845101 1.33828e-21)
(-0.217616 0.074237 1.19799e-22)
(-0.211143 0.0969768 -1.33451e-21)
(-0.206354 0.0854098 0)
(-0.202574 0.114017 2.82392e-21)
(-0.196932 0.100058 -7.36666e-21)
(-0.195135 0.136528 1.97989e-20)
(-0.188246 0.120331 -9.51364e-21)
(-0.189207 0.163309 -2.13589e-20)
(-0.179952 0.145999 1.78111e-21)
(-0.18589 0.19168 -8.97876e-20)
(-0.17299 0.17502 -4.82055e-21)
(-0.186883 0.217582 4.33681e-21)
(-0.169174 0.203883 -5.27563e-20)
(-0.17065 0.227333 6.52254e-20)
(-0.194007 0.235957 1.28704e-19)
(-0.254273 -0.0475104 -2.30111e-21)
(-0.267387 -0.0923931 4.32224e-21)
(-0.243588 0.0137152 1.94563e-20)
(-0.251797 -0.0204234 1.04597e-20)
(-0.229359 0.0465399 1.58702e-20)
(-0.236094 0.0256282 9.177e-21)
(-0.214772 0.0630592 5.53529e-21)
(-0.217077 0.0491627 4.93776e-21)
(-0.20255 0.0750953 -1.24221e-21)
(-0.200036 0.0637144 -1.95129e-21)
(-0.19262 0.0885388 -6.04863e-21)
(-0.187854 0.076482 0)
(-0.183459 0.106486 -1.93328e-20)
(-0.178515 0.0918416 -6.10469e-21)
(-0.174044 0.129938 -2.80978e-20)
(-0.168811 0.112402 -6.49273e-21)
(-0.164571 0.157711 1.9313e-20)
(-0.157545 0.138272 -1.49509e-20)
(-0.156334 0.186651 3.41266e-20)
(-0.145713 0.16723 3.4443e-20)
(-0.151504 0.211756 5.02683e-21)
(-0.135605 0.195055 0)
(-0.13028 0.215686 1.38786e-20)
(-0.152858 0.227072 -4.34007e-20)
(-0.273643 -0.0670534 1.19069e-20)
(-0.268499 -0.0993332 6.4779e-21)
(-0.249365 -0.01045 0)
(-0.263286 -0.053296 -2.04292e-21)
(-0.222129 0.0289932 -1.38079e-21)
(-0.241085 -0.00269646 -1.13016e-21)
(-0.199978 0.0507687 -1.32372e-21)
(-0.212345 0.0297517 -1.78074e-21)
(-0.184895 0.0654714 -7.04089e-22)
(-0.187272 0.0513058 -7.56768e-22)
(-0.174397 0.0798722 0)
(-0.170704 0.0676071 0)
(-0.164766 0.0977632 6.97927e-21)
(-0.159928 0.0835226 9.55679e-22)
(-0.153369 0.120748 6.97927e-21)
(-0.149425 0.103004 7.79539e-21)
(-0.139723 0.147755 0)
(-0.135875 0.127244 0)
(-0.125323 0.175195 0)
(-0.119266 0.154178 0)
(-0.113082 0.197442 8.88759e-21)
(-0.102101 0.17898 0)
(-0.0885325 0.194982 8.50407e-20)
(-0.106879 0.208154 -9.65383e-20)
(-0.271828 -0.0916536 1.66408e-20)
(-0.181505 -0.0892146 -1.90044e-20)
(-0.259722 -0.0464108 -3.20119e-21)
(-0.198113 -0.0565812 -2.07821e-21)
(-0.228942 -0.00239723 -7.61692e-24)
(-0.198812 -0.0259493 -1.14968e-21)
(-0.196473 0.0306738 -4.38167e-22)
(-0.190618 0.00387547 -1.79031e-21)
(-0.17277 0.0538923 -4.69083e-23)
(-0.17506 0.0326424 -4.08989e-22)
(-0.157055 0.071665 9.64144e-22)
(-0.158794 0.0554545 0)
(-0.14537 0.0889895 2.22567e-21)
(-0.145113 0.0743109 -3.51927e-21)
(-0.132882 0.109556 7.81638e-22)
(-0.131965 0.0930595 -9.0025e-21)
(-0.116481 0.133647 0)
(-0.116111 0.114238 1.02769e-20)
(-0.0965204 0.157733 0)
(-0.0959163 0.137138 1.4107e-20)
(-0.076489 0.175643 7.73319e-20)
(-0.0728084 0.157262 0)
(-0.0616912 0.180802 -1.34176e-20)
(-0.0513416 0.167706 1.32172e-19)
(-0.222986 0.20927 -1.17014e-20)
(-0.261365 0.196759 -1.26342e-19)
(-0.230676 0.222866 2.05693e-19)
(-0.267003 0.206611 2.14683e-19)
(-0.231647 0.229444 2.56415e-19)
(-0.267182 0.212881 -2.34549e-19)
(-0.226659 0.230459 4.32659e-19)
(-0.260995 0.217048 2.81288e-19)
(-0.213721 0.224232 2.06555e-19)
(-0.253577 0.213429 5.498e-20)
(-0.19465 0.210876 -6.61971e-20)
(-0.240846 0.206086 1.55416e-19)
(-0.170587 0.190826 -2.1234e-19)
(-0.22366 0.193423 -5.82959e-20)
(-0.141531 0.166257 1.06521e-19)
(-0.202125 0.175831 -4.00315e-19)
(-0.107347 0.141861 1.06521e-19)
(-0.174379 0.156428 2.59399e-19)
(-0.0698671 0.125164 -2.55162e-19)
(-0.13611 0.140355 -8.93531e-20)
(-0.038556 0.122628 -2.98675e-21)
(-0.0850565 0.131473 -2.59907e-19)
(-0.0371343 0.12932 2.05869e-19)
(-0.297836 0.207368 1.13664e-19)
(-0.287377 0.214257 2.07084e-19)
(-0.2964 0.207649 -1.82279e-19)
(-0.286066 0.215059 5.60749e-20)
(-0.291191 0.20811 -1.84721e-19)
(-0.283489 0.214995 -4.66972e-19)
(-0.282489 0.207111 -9.24569e-20)
(-0.278892 0.214433 1.27282e-19)
(-0.273737 0.204488 0)
(-0.273348 0.212098 2.15497e-19)
(-0.263611 0.197716 1.60986e-19)
(-0.268183 0.205695 -1.43616e-19)
(-0.250465 0.186207 -2.50528e-19)
(-0.262637 0.195805 2.44811e-20)
(-0.23069 0.17096 -2.39915e-19)
(-0.254992 0.182825 -2.11311e-19)
(-0.197637 0.154805 7.50678e-20)
(-0.240251 0.168227 1.7037e-19)
(-0.145012 0.142319 -9.10461e-20)
(-0.207755 0.155531 5.33595e-20)
(-0.0799562 0.13843 -5.62644e-20)
(-0.144502 0.149055 -1.70687e-19)
(-0.059004 0.146767 2.78022e-19)
(-0.278702 0.21427 1.50105e-19)
(-0.279742 0.207119 -5.68025e-20)
(-0.276458 0.216454 -2.27984e-19)
(-0.279223 0.210023 -1.02971e-19)
(-0.27575 0.216811 -1.53868e-19)
(-0.279045 0.211747 -1.80473e-19)
(-0.274933 0.214055 4.4421e-19)
(-0.279092 0.210605 9.06276e-20)
(-0.273563 0.208418 7.17524e-20)
(-0.27806 0.207046 -1.02956e-19)
(-0.272628 0.200586 -2.87623e-19)
(-0.276613 0.20112 -2.14842e-20)
(-0.271923 0.190683 7.32197e-20)
(-0.275943 0.193158 -1.9587e-20)
(-0.268416 0.179094 2.10367e-19)
(-0.276322 0.18368 9.33952e-20)
(-0.252691 0.167065 1.48342e-19)
(-0.274619 0.173034 -6.74421e-21)
(-0.208028 0.157057 -2.22672e-20)
(-0.259363 0.162971 8.76312e-20)
(-0.124733 0.15283 1.53507e-19)
(-0.207278 0.159486 3.30397e-20)
(-0.0993092 0.164765 1.01126e-19)
(-0.277941 0.205744 -3.16202e-19)
(-0.273796 0.207593 -1.1266e-19)
(-0.279589 0.20796 -5.61516e-20)
(-0.277149 0.21236 -1.52446e-19)
(-0.280318 0.208251 6.86982e-20)
(-0.280716 0.21382 -2.65675e-20)
(-0.280452 0.20642 -4.60203e-19)
(-0.28339 0.212069 4.12936e-20)
(-0.279899 0.201866 -1.95713e-19)
(-0.284867 0.206902 -3.28104e-19)
(-0.279307 0.195115 2.54793e-19)
(-0.284773 0.1994 3.5282e-19)
(-0.280043 0.187003 4.40598e-22)
(-0.284002 0.190694 1.27087e-19)
(-0.282635 0.178308 -1.28384e-19)
(-0.284319 0.18189 -1.30248e-19)
(-0.28173 0.170028 -6.92587e-20)
(-0.286526 0.173199 -5.91189e-20)
(-0.257448 0.163787 1.46527e-19)
(-0.284934 0.164793 -1.78287e-19)
(-0.177898 0.162405 -8.40908e-21)
(-0.255943 0.163792 3.90238e-19)
(-0.150685 0.180698 -3.87468e-19)
(-0.27308 0.213269 5.70024e-20)
(-0.267608 0.215077 3.57933e-20)
(-0.278869 0.217315 -1.23658e-19)
(-0.275702 0.221561 2.15033e-19)
(-0.284609 0.21698 -5.35351e-20)
(-0.284149 0.222999 -2.30812e-19)
(-0.288677 0.212394 1.83677e-19)
(-0.291569 0.219192 4.02431e-19)
(-0.290487 0.204838 2.28704e-19)
(-0.296428 0.211391 3.32975e-21)
(-0.290039 0.195506 2.2323e-19)
(-0.298068 0.201025 3.24097e-19)
(-0.288513 0.185736 -4.54814e-21)
(-0.296704 0.18992 -1.9653e-19)
(-0.288442 0.176694 -6.04271e-20)
(-0.293894 0.179791 8.62613e-20)
(-0.291089 0.169464 -1.69939e-19)
(-0.292267 0.171326 -5.80851e-20)
(-0.28436 0.165669 7.02227e-20)
(-0.293064 0.163778 -1.18892e-19)
(-0.223766 0.16798 7.71133e-20)
(-0.283863 0.1632 7.60044e-20)
(-0.201213 0.191333 -2.62331e-20)
(-0.269091 0.224115 1.94565e-19)
(-0.258792 0.226846 1.6547e-19)
(-0.280017 0.228294 1.08347e-19)
(-0.271414 0.234038 1.04123e-19)
(-0.290586 0.22652 2.22985e-19)
(-0.284821 0.233854 -9.49135e-20)
(-0.299109 0.219489 2.18258e-19)
(-0.297162 0.226815 1.14508e-19)
(-0.30417 0.208729 9.85674e-20)
(-0.306392 0.215043 9.939e-20)
(-0.30507 0.196355 -1.0161e-19)
(-0.311023 0.201005 4.83872e-21)
(-0.302236 0.184361 -1.06972e-19)
(-0.310592 0.187243 -1.9782e-19)
(-0.297705 0.174243 9.13492e-20)
(-0.305995 0.175715 4.75386e-21)
(-0.295562 0.166984 -8.13308e-21)
(-0.299565 0.167394 -3.9608e-22)
(-0.29511 0.164118 -1.09543e-19)
(-0.295371 0.161514 -8.9547e-20)
(-0.256005 0.170071 -2.8864e-20)
(-0.293995 0.160183 -1.06269e-19)
(-0.240912 0.196301 2.59147e-20)
(-0.259842 0.2368 7.45863e-20)
(-0.243083 0.238294 -1.44451e-19)
(-0.275422 0.239851 -1.009e-19)
(-0.259085 0.244447 -8.59131e-20)
(-0.291165 0.234759 -2.06871e-19)
(-0.276911 0.240543 -1.99582e-19)
(-0.304715 0.223308 -5.58381e-21)
(-0.294204 0.228396 -8.40668e-21)
(-0.31388 0.208272 4.91903e-21)
(-0.308437 0.211484 7.00324e-21)
(-0.317316 0.192648 -9.25749e-20)
(-0.31724 0.193509 -9.67351e-20)
(-0.31497 0.178951 -8.60846e-20)
(-0.319299 0.177735 2.4632e-19)
(-0.308191 0.168745 -8.91801e-20)
(-0.315005 0.166172 -1.68624e-19)
(-0.300405 0.162605 -8.77308e-20)
(-0.306198 0.159458 -7.34422e-20)
(-0.297186 0.161065 -8.77308e-20)
(-0.296793 0.157537 -1.57172e-19)
(-0.27337 0.170638 -9.01628e-20)
(-0.292663 0.156879 6.85105e-20)
(-0.26474 0.197554 3.33285e-20)
(-0.240667 0.244807 -3.09816e-19)
(-0.216862 0.243966 -1.57067e-19)
(-0.259734 0.244257 -1.85537e-19)
(-0.23411 0.246685 -8.64039e-21)
(-0.280154 0.233845 2.45918e-21)
(-0.254981 0.236788 -7.69916e-21)
(-0.299016 0.21689 4.29416e-21)
(-0.276812 0.218157 -7.99407e-22)
(-0.313242 0.197415 -9.68227e-20)
(-0.296591 0.195668 1.05541e-19)
(-0.320534 0.179251 2.46872e-19)
(-0.310933 0.174252 -1.80131e-19)
(-0.320309 0.165327 1.65104e-19)
(-0.317207 0.15784 2.44619e-19)
(-0.313707 0.157001 -1.55295e-19)
(-0.315281 0.148369 -1.46436e-19)
(-0.30322 0.154348 -1.43504e-19)
(-0.306702 0.145619 -7.50432e-20)
(-0.294705 0.156642 7.98169e-21)
(-0.295162 0.150097 -1.22696e-19)
(-0.278413 0.170338 1.91845e-19)
(-0.284618 0.154108 1.65625e-19)
(-0.270962 0.197848 1.52204e-19)
(-0.208199 0.242605 1.56502e-19)
(-0.179167 0.23946 1.55472e-20)
(-0.228692 0.236316 1.81644e-19)
(-0.194989 0.236602 8.52071e-20)
(-0.252803 0.21931 -7.28305e-21)
(-0.216855 0.219202 2.95657e-19)
(-0.276996 0.196407 1.01461e-19)
(-0.242383 0.193518 -3.26238e-19)
(-0.297133 0.172972 2.3488e-20)
(-0.267832 0.165757 -8.90806e-20)
(-0.309649 0.1536 -1.88202e-19)
(-0.288767 0.141965 -9.5772e-20)
(-0.313215 0.141502 -7.63018e-20)
(-0.300786 0.12671 7.2889e-21)
(-0.308732 0.137564 -6.67517e-20)
(-0.303043 0.12155 5.94471e-20)
(-0.298534 0.141121 -5.32944e-20)
(-0.296838 0.125343 8.0337e-20)
(-0.287012 0.150543 5.06475e-20)
(-0.285757 0.137952 -2.01053e-20)
(-0.273245 0.169446 1.25291e-19)
(-0.27173 0.152052 1.20924e-21)
(-0.25938 0.199664 1.16976e-20)
(-0.162918 0.228237 -5.78518e-20)
(-0.132752 0.222941 -1.70405e-19)
(-0.182324 0.214948 2.05625e-19)
(-0.144477 0.213477 2.0999e-19)
(-0.208972 0.191094 -2.17643e-20)
(-0.165115 0.188762 2.07531e-19)
(-0.238026 0.162494 -5.24771e-19)
(-0.193054 0.156098 -4.30447e-19)
(-0.264085 0.135625 -2.15982e-19)
(-0.223811 0.123591 -4.57016e-20)
(-0.282718 0.116276 1.18176e-19)
(-0.251371 0.0988376 -7.19827e-20)
(-0.291463 0.107776 1.44641e-19)
(-0.269851 0.0865225 -1.11344e-19)
(-0.290589 0.110483 2.08134e-19)
(-0.27723 0.0873361 2.21575e-19)
(-0.282222 0.122953 1.1518e-19)
(-0.274517 0.0992801 -3.89249e-20)
(-0.270562 0.142934 -6.91596e-20)
(-0.264796 0.121047 4.98129e-20)
(-0.255478 0.171179 -1.14061e-19)
(-0.251345 0.148827 -8.2506e-20)
(-0.230748 0.202202 -2.63156e-20)
(-0.1104 0.203064 8.79073e-20)
(-0.0831681 0.195959 -2.09972e-19)
(-0.125505 0.182585 2.11955e-19)
(-0.0890851 0.179431 2.1054e-19)
(-0.151441 0.151834 -2.06942e-19)
(-0.106927 0.148442 7.99594e-20)
(-0.183597 0.117917 7.39806e-20)
(-0.135262 0.110275 6.192e-20)
(-0.215497 0.0887225 9.98884e-20)
(-0.169544 0.074655 2.76863e-19)
(-0.241048 0.0708563 -3.04489e-19)
(-0.202623 0.0505328 -1.05011e-19)
(-0.256189 0.0671768 -2.86851e-20)
(-0.227413 0.0423564 -1.27406e-19)
(-0.260023 0.0771129 -2.05213e-20)
(-0.240299 0.0495348 1.64166e-19)
(-0.253825 0.0989976 -9.84459e-20)
(-0.241133 0.0690879 -1.15043e-19)
(-0.240776 0.13192 1.20349e-20)
(-0.23156 0.0989657 1.57324e-20)
(-0.217591 0.177286 -7.58816e-21)
(-0.217184 0.138433 2.4837e-20)
(-0.181322 0.195573 -9.48051e-20)
(-0.0574075 0.169402 -1.09798e-19)
(-0.0376005 0.162367 -9.75707e-20)
(-0.0669039 0.142688 8.47755e-20)
(-0.0365333 0.139676 -3.89029e-21)
(-0.0901476 0.106433 3.53586e-19)
(-0.0500776 0.103777 -1.19852e-19)
(-0.1232 0.0689295 2.6047e-19)
(-0.0768934 0.0622579 2.76827e-19)
(-0.159118 0.0391906 5.28332e-20)
(-0.112514 0.0257505 -2.07789e-19)
(-0.190509 0.0241336 6.76523e-20)
(-0.149252 0.00398281 1.70249e-20)
(-0.211893 0.0256232 6.96795e-20)
(-0.17928 0.000636472 -6.88692e-20)
(-0.220917 0.0414511 6.96795e-20)
(-0.19759 0.0134042 6.48006e-20)
(-0.217132 0.0688089 0)
(-0.202469 0.0378993 -2.33681e-20)
(-0.201171 0.108118 3.21519e-21)
(-0.192641 0.0712258 0)
(-0.161782 0.1759 -2.00505e-20)
(-0.165857 0.113611 3.24201e-21)
(-0.0961362 0.161686 5.10226e-20)
(-0.0457517 0.106312 3.13262e-20)
(-0.0695915 0.12328 -9.33055e-21)
(-0.0387613 0.0854197 3.81158e-20)
(-0.0630497 0.103155 4.2188e-20)
(-0.0263311 0.073047 -1.15102e-19)
(-0.0407052 0.093796 -5.80369e-20)
(-0.0150789 0.0692808 -6.31351e-20)
(-0.0176424 0.0937454 -7.42784e-20)
(-0.00710074 0.0732361 -1.15578e-20)
(0.00337068 0.101774 -1.13783e-20)
(0.000330314 0.0838816 -7.13766e-20)
(0.023269 0.117819 -1.43974e-20)
(0.0149566 0.0995979 1.34471e-19)
(0.0448122 0.140146 -1.16423e-19)
(0.043781 0.118851 6.46934e-20)
(0.0719103 0.164674 2.26671e-19)
(0.0830982 0.141458 -1.91731e-19)
(0.105089 0.189325 -9.27142e-20)
(0.123354 0.165854 -5.98716e-20)
(0.136874 0.213172 -4.90312e-21)
(0.159065 0.189171 0)
(0.162824 0.233951 -1.56734e-19)
(0.182464 0.250212 -1.24167e-21)
(0.187955 0.208746 -5.63861e-20)
(-0.0892482 0.111453 1.14026e-21)
(-0.100882 0.137472 5.29452e-20)
(-0.0724494 0.10565 -5.09342e-20)
(-0.0849371 0.129285 8.7627e-20)
(-0.0392097 0.112865 -1.41205e-20)
(-0.0457849 0.140742 -9.14007e-20)
(-0.00480221 0.128013 -2.14241e-20)
(-0.00477425 0.159123 -4.89038e-20)
(0.0281244 0.149532 -1.37995e-20)
(0.0345843 0.181572 -9.95982e-21)
(0.0635913 0.176662 -5.9218e-20)
(0.0733562 0.207604 -4.03427e-20)
(0.102787 0.207447 -2.69759e-20)
(0.112309 0.234415 2.21443e-20)
(0.141085 0.237134 6.82206e-20)
(0.148178 0.257113 8.01119e-20)
(0.172132 0.260923 8.64076e-20)
(0.177465 0.27293 -2.9433e-20)
(0.192433 0.277932 -1.15681e-19)
(0.197332 0.282032 7.62928e-20)
(0.202827 0.289105 -1.62251e-19)
(0.208076 0.286157 -1.62374e-19)
(0.212631 0.287452 -1.28636e-21)
(0.206622 0.295477 3.18528e-19)
(-0.0948091 0.139778 1.43118e-19)
(-0.110181 0.1583 0)
(-0.0584988 0.160249 5.45724e-20)
(-0.0760588 0.173266 2.52113e-19)
(-0.0109843 0.187916 -1.28328e-19)
(-0.0252903 0.202559 -1.57875e-19)
(0.0365919 0.215614 -3.798e-20)
(0.0238195 0.231325 -2.0189e-21)
(0.0827988 0.242992 -3.71933e-20)
(0.0722144 0.257562 -3.08324e-21)
(0.125554 0.267411 4.29431e-20)
(0.11585 0.278803 7.86267e-21)
(0.161104 0.285232 1.30275e-19)
(0.151433 0.292329 2.05773e-20)
(0.186358 0.294676 -2.10265e-20)
(0.176536 0.297391 1.0858e-19)
(0.200943 0.296272 -4.21421e-20)
(0.191275 0.295717 -8.10824e-20)
(0.207414 0.29276 3.20704e-20)
(0.198301 0.290621 -1.14075e-19)
(0.209875 0.287362 0)
(0.201498 0.285302 1.16033e-19)
(0.204056 0.28156 1.217e-19)
(0.211756 0.282334 -6.93129e-20)
(-0.0810876 0.179038 1.08469e-19)
(-0.0944605 0.18144 4.9007e-20)
(-0.0353899 0.214807 4.07972e-20)
(-0.0504254 0.214505 7.76597e-20)
(0.017838 0.247694 -3.51026e-20)
(0.00109242 0.248303 -9.32998e-20)
(0.0687538 0.275797 3.3971e-20)
(0.052054 0.276408 3.48226e-20)
(0.113338 0.295476 4.21098e-20)
(0.0970201 0.295369 1.46776e-21)
(0.147983 0.304993 -1.64927e-20)
(0.132272 0.303577 4.01414e-20)
(0.171018 0.304917 -3.34509e-21)
(0.156253 0.302058 -3.88675e-20)
(0.18388 0.298324 5.03404e-20)
(0.170527 0.294287 2.95623e-20)
(0.190288 0.289449 -1.51905e-19)
(0.178949 0.28465 -3.49171e-20)
(0.194209 0.281958 -3.0257e-20)
(0.185574 0.276759 -1.02214e-19)
(0.198067 0.277749 2.41401e-19)
(0.192756 0.272432 1.74206e-19)
(0.200554 0.271753 1.29458e-19)
(0.202193 0.276801 6.6107e-20)
(-0.0577158 0.210567 1.90305e-20)
(-0.0697802 0.200174 -3.73791e-20)
(-0.00910306 0.247883 -5.40214e-20)
(-0.0231317 0.239912 -6.64211e-20)
(0.0409265 0.278172 -2.3353e-20)
(0.0257743 0.270052 -1.96653e-21)
(0.0852248 0.297446 2.238e-21)
(0.0699976 0.290305 0)
(0.119749 0.304575 -7.00985e-22)
(0.104974 0.298075 1.71993e-21)
(0.143098 0.301157 1.7711e-20)
(0.129059 0.294996 -2.92635e-21)
(0.157301 0.291359 -4.79988e-21)
(0.144307 0.285197 1.92126e-20)
(0.166599 0.280132 -5.54635e-20)
(0.155064 0.273674 -2.72107e-20)
(0.175071 0.271261 1.7815e-20)
(0.165507 0.264307 -7.18758e-20)
(0.184758 0.266467 1.03505e-19)
(0.177686 0.259044 -3.33859e-20)
(0.195404 0.265755 6.07229e-20)
(0.191241 0.258231 2.68594e-19)
(0.204385 0.261374 -1.72587e-19)
(0.205472 0.268299 -1.0178e-19)
(-0.0352867 0.230216 -1.25015e-19)
(-0.0499379 0.212189 -1.18322e-19)
(0.0123762 0.261489 -1.42699e-20)
(-0.00197716 0.251221 -5.47374e-21)
(0.0555009 0.282631 2.15489e-20)
(0.0419418 0.272464 3.54104e-20)
(0.0899187 0.291372 -5.60228e-22)
(0.0771389 0.282867 -1.33054e-20)
(0.113985 0.288865 -5.60228e-22)
(0.101822 0.281511 -2.38087e-21)
(0.129691 0.279195 -1.98307e-21)
(0.117782 0.272483 -6.03344e-21)
(0.141431 0.267475 -3.59149e-21)
(0.129691 0.260752 -2.00672e-21)
(0.153422 0.257703 -4.39178e-20)
(0.142178 0.250401 -1.76757e-20)
(0.167718 0.251857 -1.25473e-19)
(0.157674 0.243568 -4.29199e-20)
(0.183929 0.250391 1.31516e-19)
(0.176009 0.240964 -1.14107e-19)
(0.2002 0.253125 3.73414e-20)
(0.195344 0.242732 2.17751e-19)
(0.213165 0.248826 -1.74016e-19)
(0.214269 0.259629 -8.89201e-20)
(-0.0202797 0.239418 5.00762e-21)
(-0.0427174 0.218658 2.02518e-20)
(0.0261354 0.261267 4.71778e-20)
(0.00979512 0.253131 3.37809e-20)
(0.0621446 0.272419 3.76632e-22)
(0.0491164 0.263948 4.18346e-21)
(0.0876373 0.272758 -1.53962e-20)
(0.0764987 0.266025 -8.83466e-21)
(0.104344 0.265114 -8.03652e-21)
(0.093742 0.258972 2.93076e-21)
(0.11677 0.254104 -6.10626e-21)
(0.10559 0.24805 -3.89761e-22)
(0.129757 0.243762 -1.66093e-20)
(0.117665 0.237192 9.50982e-21)
(0.146065 0.236301 -1.66093e-20)
(0.133497 0.228626 -1.67941e-20)
(0.165829 0.232539 -3.042e-20)
(0.153811 0.223166 0)
(0.1874 0.232823 -3.042e-20)
(0.177241 0.221288 5.46712e-20)
(0.208291 0.237502 7.36983e-21)
(0.201333 0.22366 7.69801e-21)
(0.222886 0.230922 8.54596e-20)
(0.225658 0.246695 1.78987e-20)
(-0.0160638 0.24277 4.99608e-20)
(-0.0502668 0.225872 4.06845e-20)
(0.0316744 0.254448 -9.84799e-21)
(0.01152 0.249658 -1.08634e-20)
(0.0621071 0.256995 -5.17333e-21)
(0.048735 0.252008 -9.95071e-21)
(0.081487 0.251562 9.61307e-21)
(0.0709682 0.247382 -2.62449e-24)
(0.0941803 0.24173 1.09263e-20)
(0.0841644 0.237086 4.98893e-21)
(0.106035 0.231321 1.56057e-20)
(0.0948496 0.225959 6.05134e-21)
(0.121286 0.222426 9.61683e-21)
(0.108271 0.216157 1.54095e-20)
(0.141348 0.215823 0)
(0.126929 0.20816 6.58066e-21)
(0.165371 0.21198 8.63336e-20)
(0.150717 0.202093 -1.61153e-20)
(0.191136 0.21167 9.45543e-20)
(0.177824 0.198669 8.72341e-20)
(0.215498 0.215958 8.96082e-20)
(0.205317 0.199193 -9.08098e-20)
(0.228979 0.205035 1.33319e-19)
(0.234595 0.22565 -1.42792e-19)
(-0.0249934 0.245017 -2.08786e-20)
(-0.0702594 0.241674 3.26226e-21)
(0.028508 0.246342 -1.09779e-20)
(0.0021496 0.24687 -2.6738e-21)
(0.0569118 0.241635 -4.93953e-21)
(0.0417685 0.241732 0)
(0.0730579 0.23191 -4.93953e-21)
(0.0620239 0.230547 -2.77317e-21)
(0.084491 0.221012 0)
(0.0742244 0.217617 0)
(0.0969564 0.211156 5.74289e-21)
(0.0853943 0.206364 0)
(0.113995 0.202595 1.18483e-20)
(0.10004 0.19695 5.17984e-21)
(0.136502 0.195164 -9.63516e-21)
(0.120311 0.188271 -2.20067e-20)
(0.163276 0.189244 -1.62852e-20)
(0.145973 0.179985 -1.79133e-21)
(0.191638 0.185934 -9.97157e-20)
(0.174987 0.173033 0)
(0.217533 0.186929 -4.96463e-20)
(0.203839 0.169225 -6.14878e-20)
(0.227287 0.170705 5.42951e-20)
(0.235914 0.194047 2.03748e-19)
(-0.0475387 0.254228 2.55423e-20)
(-0.0924856 0.26737 1.19459e-20)
(0.0137219 0.243555 1.04563e-20)
(-0.0204179 0.251756 1.15293e-20)
(0.0465494 0.22934 2.34279e-21)
(0.0256487 0.236073 0)
(0.0630575 0.214767 2.34279e-21)
(0.0491717 0.217076 5.01929e-21)
(0.0750862 0.202557 0)
(0.0637126 0.200042 0)
(0.0885265 0.192636 -5.95312e-22)
(0.0764735 0.187865 0)
(0.106471 0.18348 -3.01674e-20)
(0.0918288 0.178531 -6.0083e-22)
(0.129919 0.174072 -1.4092e-20)
(0.112386 0.168832 -1.30286e-20)
(0.157685 0.164609 1.49051e-20)
(0.138253 0.157576 1.50433e-20)
(0.186616 0.156384 4.12329e-20)
(0.167204 0.145755 -2.72184e-20)
(0.211717 0.151566 4.12329e-20)
(0.195022 0.135661 3.9829e-20)
(0.215657 0.130348 3.92342e-20)
(0.227046 0.152925 6.40861e-20)
(-0.0671036 0.273621 -2.32547e-21)
(-0.0994429 0.268533 -2.11797e-21)
(-0.0104298 0.249351 9.8526e-22)
(-0.0533075 0.26329 1.02241e-21)
(0.0290172 0.222123 2.13907e-21)
(-0.00267332 0.241093 0)
(0.0507801 0.199981 2.13907e-21)
(0.0297665 0.212369 2.15786e-21)
(0.0654719 0.184904 0)
(0.0513092 0.187301 -7.13471e-23)
(0.0798643 0.174409 0)
(0.0676013 0.170724 1.05543e-22)
(0.09775 0.164781 1.64997e-20)
(0.0835114 0.159935 -2.45756e-21)
(0.120732 0.153392 1.64997e-20)
(0.102991 0.149429 1.74436e-20)
(0.147736 0.139757 -2.7473e-20)
(0.127229 0.13589 0)
(0.17517 0.125372 -2.79662e-20)
(0.15416 0.119298 -2.77143e-20)
(0.197419 0.113149 3.77984e-20)
(0.178961 0.102154 2.40705e-20)
(0.194973 0.0886036 4.56188e-21)
(0.208149 0.10696 4.63945e-20)
(-0.0917353 0.271883 2.25884e-20)
(-0.0892519 0.181506 7.38486e-21)
(-0.0464241 0.25977 -2.91987e-21)
(-0.0566153 0.198136 -2.94423e-21)
(-0.0023805 0.228973 0)
(-0.025947 0.198844 2.5158e-21)
(0.0306849 0.196512 -7.19791e-23)
(0.00389576 0.190657 -2.50306e-21)
(0.0538928 0.172808 2.74592e-23)
(0.0326445 0.175123 9.64976e-23)
(0.0716596 0.157072 -2.37285e-21)
(0.0554344 0.158861 1.16037e-22)
(0.0889811 0.145365 -1.17152e-21)
(0.074286 0.145146 -2.50001e-21)
(0.109544 0.132878 8.28011e-22)
(0.0930454 0.131962 -3.54303e-21)
(0.133633 0.116495 0)
(0.114231 0.116102 3.80098e-21)
(0.157719 0.0965575 2.67012e-20)
(0.137131 0.0959241 6.49584e-21)
(0.175636 0.0765495 -9.58765e-21)
(0.157256 0.0728429 2.69239e-20)
(0.180818 0.0617695 -1.83767e-19)
(0.167713 0.0514007 -7.11119e-20)
(0.209208 0.222851 1.67163e-19)
(0.19673 0.261241 2.59318e-19)
(0.222813 0.230556 -2.72931e-19)
(0.20658 0.266892 6.61932e-20)
(0.229393 0.231545 -2.80375e-19)
(0.212846 0.267085 -5.88219e-19)
(0.230405 0.226576 6.69723e-20)
(0.21701 0.260911 2.2566e-19)
(0.224174 0.213657 -1.54568e-19)
(0.213387 0.253505 -4.66552e-20)
(0.210813 0.1946 9.88728e-20)
(0.206039 0.240789 0)
(0.190756 0.170547 4.67965e-20)
(0.19337 0.223617 -2.51622e-21)
(0.16618 0.141496 -5.20763e-20)
(0.175774 0.202093 2.87054e-20)
(0.141785 0.107307 5.82218e-20)
(0.156373 0.17435 -1.6673e-19)
(0.125107 0.0698178 3.13619e-19)
(0.140315 0.136065 -1.76989e-19)
(0.122606 0.0385111 6.73822e-20)
(0.131452 0.0849804 6.69631e-19)
(0.129313 0.0370659 -4.72534e-19)
(0.207382 0.297734 1.61392e-19)
(0.214266 0.287303 2.59998e-19)
(0.207646 0.296309 -2.46929e-19)
(0.215056 0.285994 -1.67325e-19)
(0.208093 0.291113 -8.23556e-20)
(0.214984 0.283418 -1.6683e-19)
(0.207085 0.282419 9.04944e-20)
(0.214412 0.278827 1.49623e-19)
(0.204458 0.273678 9.04944e-20)
(0.212077 0.273288 2.13656e-20)
(0.19768 0.263566 -8.53062e-20)
(0.205671 0.268134 -6.92549e-20)
(0.186167 0.250434 -2.00732e-21)
(0.195777 0.262604 -8.67328e-20)
(0.170918 0.230665 -8.84553e-20)
(0.182795 0.254973 3.55705e-19)
(0.15477 0.1976 -4.05678e-19)