/*--------------------------------*- C++ -*----------------------------------*\
| =========                 |                                                 |
| \\      /  F ield         | OpenFOAM: The Open Source CFD Toolbox           |
|  \\    /   O peration     | Version:  2.3.1                                 |
|   \\  /    A nd           | Web:      www.OpenFOAM.org                      |
|    \\/     M anipulation  |                                                 |
\*---------------------------------------------------------------------------*/
FoamFile
{
    version     2.0;
    format      ascii;
    class       volScalarField;
    location    "0.04";
    object      epsilon;
}
// * * * * * * * * * * * * * * * * * * * * * * * * * * * * * * * * * * * * * //

dimensions      [0 2 -3 0 0 0 0];

internalField   nonuniform List<scalar> 
9648
(
3430.75
3265.1
3098.11
2935.82
2785.61
2654.46
2546.34
2462.3
2400.57
2357.42
2328.29
2308.51
2294.7
2284.32
2275.41
2266.69
2257.59
2247.86
2237.25
2225.6
2213.07
2199.77
2185.81
2171.47
2156.96
2142.39
2127.92
2113.76
2100.12
2087.09
2074.84
2063.49
2053.16
2043.9
2035.87
2029.08
2023.56
2019.38
2016.66
2015.39
2015.54
2017.16
2020.28
2024.8
2030.82
2038.38
2047.38
2057.71
2069.43
2082.63
2097.22
2113.04
2130.32
2148.9
2168.75
2189.77
2212.09
2235.84
2260.78
2286.8
2313.91
1166.08
1102.3
1037.02
971.226
907.824
849.775
799.565
758.733
728.259
707.971
697.05
693.637
695.831
702.182
711.377
722.324
734.307
746.894
759.741
772.471
784.958
797.066
808.664
819.731
830.293
840.308
849.754
858.66
867.093
875.094
882.682
889.939
896.942
903.7
910.285
916.773
923.176
929.521
935.862
942.276
948.773
955.357
962.064
968.936
975.958
983.202
990.679
998.359
1006.24
1014.39
1022.8
1031.42
1040.19
1049.29
1058.56
1068.09
1077.74
1087.76
1098.03
1108.5
1119.13
702.76
661.645
619.586
577.646
537.635
501.234
470.301
445.951
429.068
419.589
417.153
420.651
428.864
440.601
454.799
470.611
487.38
504.643
522.027
539.243
556.08
572.37
588.008
602.923
617.073
630.426
642.964
654.709
665.671
675.889
685.406
694.269
702.524
710.224
717.425
724.169
730.513
736.493
742.157
747.55
752.714
757.697
762.522
767.232
771.859
776.428
780.969
785.484
790.006
794.535
799.076
803.633
808.181
812.856
817.502
822.3
827.125
832.19
837.269
842.425
847.641
536.624
505.778
474.392
443.512
414.385
388.263
366.36
349.597
338.619
333.569
334.232
339.927
349.783
362.822
378.15
394.985
412.716
430.859
449.036
466.949
484.363
501.099
517.037
532.09
546.215
559.381
571.581
582.826
593.132
602.543
611.103
618.864
625.887
632.225
637.938
643.086
647.731
651.918
655.706
659.141
662.274
665.16
667.844
670.369
672.771
675.084
677.335
679.547
681.747
683.944
686.132
688.367
690.638
692.982
695.338
697.799
700.367
703.04
705.789
708.615
711.566
460.29
435.434
410.348
385.923
363.112
342.865
326.069
313.495
305.668
302.831
304.907
311.476
321.869
335.278
350.89
367.953
385.86
404.112
422.31
440.155
457.391
473.819
489.314
503.78
517.184
529.502
540.73
550.891
560.001
568.11
575.276
581.552
587.016
591.727
595.747
599.153
602.017
604.39
606.338
607.911
609.16
610.149
610.93
611.557
612.062
612.486
612.867
613.226
613.578
613.952
614.341
614.766
615.26
615.825
616.461
617.18
618.022
618.964
619.994
621.123
622.356
421.545
400.645
379.74
359.523
340.766
324.227
310.622
300.579
294.588
292.921
295.621
302.422
312.832
326.151
341.641
358.537
376.228
394.197
412.025
429.418
446.109
461.862
476.564
490.097
502.455
513.624
523.602
532.433
540.121
546.736
552.351
557.01
560.817
563.838
566.123
567.776
568.891
569.502
569.698
569.529
569.035
568.298
567.373
566.32
565.165
563.951
562.717
561.506
560.328
559.187
558.098
557.06
556.097
555.226
554.437
553.776
553.241
552.819
552.498
552.29
552.172
402.036
384.019
366.066
348.795
332.81
318.751
307.221
298.788
293.878
292.792
295.643
302.281
312.344
325.241
340.307
356.736
373.907
391.305
408.456
425.119
441.002
455.819
469.501
481.869
492.977
502.819
511.38
518.76
524.907
529.937
533.954
536.957
539.106
540.451
541.018
540.95
540.381
539.296
537.832
536.033
533.911
531.587
529.112
526.556
523.916
521.248
518.598
515.99
513.462
511.013
508.643
506.343
504.152
502.042
500.044
498.174
496.442
494.865
493.4
492.017
490.761
393.895
378.013
362.261
347.097
333.089
320.696
310.512
303.074
298.732
297.81
300.472
306.616
316.034
328.187
342.572
358.262
374.674
391.272
407.494
423.167
438.035
451.696
464.228
475.251
484.956
493.339
500.379
506.253
510.774
514.16
516.59
517.946
518.476
518.191
517.089
515.369
513.185
510.425
507.364
504.015
500.325
496.475
492.562
488.624
484.615
480.641
476.685
472.812
469.045
465.4
461.878
458.458
455.154
451.919
448.835
445.925
443.113
440.5
437.957
435.477
433.179
393.12
378.85
364.83
351.106
338.61
327.269
317.804
310.993
306.704
305.677
307.791
313.206
321.666
332.752
346.146
360.893
376.381
391.964
407.161
421.73
435.355
447.785
458.903
468.549
476.816
483.597
489.196
493.605
496.394
498.131
498.855
498.658
497.85
496.028
493.193
490.051
486.235
481.817
477.32
472.376
467.074
461.465
456.311
451.176
445.755
440.788
435.464
430.554
425.418
420.668
415.755
411.342
407.16
402.755
398.502
394.849
390.953
387.673
384.035
380.279
377.097
2342.66
2373.07
2404.9
2438.2
2473.32
2510.9
2551.12
2594.41
2639.85
2686.66
2734.2
2782.78
2832.62
2883.68
2935.65
2988.77
3043.15
3098.7
3155.26
3213.09
3272.03
3332.18
3393.76
3456.35
3519.89
3584.53
3650.37
3717.41
3785.54
3854.73
3925.24
3996.9
4069.75
4143.97
4219.62
4296.57
4374.95
4454.99
4536.81
4620.26
4705.3
4792.29
4881.22
4971.77
5064.35
5158.74
5254.61
5351.88
5450.8
5551.53
5653.91
5757.75
5863.99
5972
6082.22
6194.08
6308.34
6424.71
6542.85
6662.13
6782.71
1129.88
1141.31
1153.03
1165.03
1177.35
1190.1
1203.49
1217.23
1231.46
1245.65
1260.05
1274.51
1289.02
1303.54
1318.05
1332.57
1347.08
1361.63
1376.19
1390.79
1405.4
1420.01
1434.55
1448.96
1463.27
1477.48
1491.56
1505.54
1519.36
1533.07
1546.67
1560.12
1573.45
1586.68
1599.82
1612.85
1625.82
1638.71
1651.53
1664.28
1676.97
1689.65
1702.25
1714.77
1727.23
1739.59
1751.81
1763.86
1775.78
1787.57
1799.23
1810.75
1822.25
1833.87
1845.4
1857.16
1869.03
1881.21
1893.3
1905.62
1918.48
853.042
858.542
864.255
870.141
876.188
882.271
888.636
895.024
901.511
907.911
914.332
920.753
927.217
933.62
939.986
946.312
952.593
958.832
965.021
971.152
977.211
983.206
989.122
994.949
1000.67
1006.29
1011.77
1017.12
1022.33
1027.41
1032.34
1037.11
1041.74
1046.22
1050.55
1054.75
1058.8
1062.7
1066.47
1070.09
1073.57
1076.92
1080.15
1083.24
1086.19
1088.98
1091.6
1094.01
1096.22
1098.24
1100.04
1101.69
1103.16
1104.49
1105.62
1106.7
1107.71
1108.66
1109.54
1110.44
1111.42
714.6
717.754
720.998
724.358
727.775
731.241
734.768
738.354
741.928
745.465
748.995
752.522
756.024
759.479
762.924
766.331
769.705
773.038
776.322
779.547
782.711
785.804
788.833
791.789
794.664
797.443
800.12
802.685
805.13
807.454
809.656
811.721
813.648
815.443
817.112
818.652
820.062
821.341
822.481
823.49
824.376
825.155
825.834
826.425
826.929
827.344
827.634
827.791
827.799
827.678
827.389
826.954
826.4
825.711
824.873
823.917
822.894
821.754
820.554
819.327
818.04
623.696
625.108
626.6
628.159
629.781
631.417
633.063
634.761
636.515
638.266
640.042
641.822
643.583
645.337
647.073
648.777
650.494
652.172
653.814
655.413
656.967
658.478
659.948
661.378
662.756
664.072
665.315
666.475
667.556
668.553
669.459
670.256
670.94
671.508
671.975
672.335
672.589
672.726
672.742
672.644
672.449
672.159
671.804
671.406
670.975
670.523
669.997
669.43
668.757
668.01
667.149
666.163
665.098
663.925
662.655
661.275
659.821
658.235
656.623
654.932
653.12
552.175
552.271
552.468
552.709
553.014
553.361
553.728
554.147
554.587
555.063
555.548
556.059
556.577
557.087
557.594
558.1
558.614
559.09
559.525
559.923
560.286
560.621
560.94
561.248
561.525
561.761
561.952
562.088
562.189
562.254
562.281
562.23
562.097
561.859
561.544
561.143
560.643
560.054
559.354
558.555
557.67
556.701
555.689
554.673
553.673
552.721
551.74
550.792
549.796
548.815
547.755
546.591
545.397
544.092
542.761
541.292
539.8
538.184
536.584
534.852
533.029
489.631
488.628
487.735
486.942
486.21
485.524
484.877
484.287
483.716
483.152
482.62
482.119
481.615
481.127
480.629
480.142
479.677
479.173
478.611
477.984
477.31
476.625
475.932
475.258
474.572
473.848
473.089
472.276
471.474
470.703
469.997
469.26
468.5
467.644
466.751
465.767
464.661
463.491
462.231
460.892
459.472
457.944
456.399
454.875
453.387
452.037
450.673
449.455
448.23
447.16
446.037
444.776
443.55
442.199
440.895
439.396
437.997
436.444
435.038
433.442
431.847
430.984
428.961
427.05
425.317
423.675
422.173
420.685
419.336
418.008
416.605
415.238
413.929
412.581
411.224
409.822
408.493
407.262
405.992
404.642
403.104
401.479
399.876
398.237
396.647
395.104
393.509
391.863
390.045
388.247
386.551
385.148
383.782
382.552
381.24
379.999
378.638
377.018
375.297
373.575
371.872
370.046
368.019
366.017
364.072
362.133
360.457
358.685
357.245
355.802
354.808
353.723
352.359
351.15
349.741
348.5
346.936
345.689
344.232
343.213
341.858
340.625
373.642
370.64
367.398
364.794
362.017
359.904
357.474
355.739
354.073
352.062
350.009
348.405
346.396
344.329
342.045
339.759
338.002
336.415
334.705
332.636
330.091
327.749
325.284
322.77
320.498
318.304
316.112
313.384
310.349
307.402
305.098
303.098
301.464
299.883
298.786
297.52
295.561
293.242
291.086
289.331
287.492
284.951
282.57
280.346
278.151
276.171
273.939
272.262
270.518
269.956
269.109
267.553
266.522
265.039
263.812
262.173
261.073
259.704
259.349
258.42
257.482
6907.21
7039.71
7180.77
7325.69
7480.43
7643.98
7792.05
7945.85
8104.33
8266.62
8433.09
8602.35
8775.03
8951.56
9131.07
9312.77
9496.73
9683.14
9871.35
10060.5
10250.8
10441.8
10633.1
10824.9
11017
11208.7
11399.6
11589.6
11778.8
11966.2
12151.8
12335.3
12515.9
12692.9
12866.5
13035.2
13198.1
13355
13506.2
13649.9
13783.7
13908.1
14022.4
14123.8
14205.3
14266.2
14306.4
14324.8
14321.4
14296.9
14250
14178.5
14083.4
13962.9
13815.1
13638
13431.5
13195.4
12925.9
12619.9
12275.4
1932.19
1947.36
1961.73
1974.12
1987.09
2000.65
2015.46
2030.65
2046.07
2062.05
2078.48
2095.2
2112.21
2129.5
2147.07
2164.76
2182.51
2200.25
2217.9
2235.4
2252.68
2269.8
2286.73
2303.47
2320.02
2336.33
2352.46
2368.41
2384.2
2399.89
2415.44
2430.85
2446.19
2461.45
2476.6
2491.72
2506.73
2521.7
2536.77
2552.03
2567.48
2583.04
2598.8
2614.9
2637.87
2666.55
2697.62
2730.28
2764.02
2797.88
2832.2
2866.61
2902.19
2937.88
2974.05
3010.2
3048.17
3086.94
3125.78
3164.68
3204
1112.54
1113.56
1112.78
1111.58
1111.19
1111.64
1112.86
1114.27
1115.59
1116.94
1118.33
1119.81
1121.31
1122.83
1124.35
1125.81
1127.13
1128.28
1129.25
1130.01
1130.57
1130.93
1131.09
1131.05
1130.82
1130.41
1129.84
1129.12
1128.29
1127.33
1126.27
1125.12
1123.88
1122.58
1121.22
1119.81
1118.37
1116.92
1115.47
1114.06
1112.71
1111.46
1110.3
1109.3
1108.83
1109.09
1111.73
1117.18
1124.15
1132.6
1142.58
1154
1167.66
1182.49
1199.87
1219.13
1241.85
1266.77
1295.06
1327.25
1364.53
816.653
814.552
811.279
808.235
805.845
804.142
803.001
802.058
801.105
800.171
799.252
798.366
797.482
796.626
795.74
794.773
793.666
792.42
791.032
789.515
787.864
786.073
784.142
782.078
779.89
777.598
775.211
772.737
770.185
767.563
764.873
762.119
759.314
756.462
753.564
750.635
747.688
744.729
741.77
738.818
735.894
733.002
730.166
727.4
724.752
722.277
720.168
718.958
718.844
719.502
721.1
723.546
727.042
731.422
737.117
744.194
752.891
763.341
775.875
791.09
809.358
651.107
648.381
644.961
641.934
639.388
637.378
635.772
634.416
633.138
631.944
630.761
629.602
628.458
627.353
626.2
624.986
623.618
622.135
620.547
618.873
617.107
615.218
613.226
611.145
608.982
606.755
604.475
602.149
599.77
597.345
594.873
592.358
589.8
587.206
584.583
581.941
579.289
576.639
573.997
571.374
568.777
566.219
563.712
561.267
558.894
556.598
554.475
552.582
551.252
550.354
549.912
549.984
550.605
551.791
553.636
556.324
559.883
564.445
570.266
577.574
586.656
530.957
528.39
525.421
522.89
520.639
518.824
517.287
516.039
514.944
514.014
513.063
512.151
511.255
510.44
509.585
508.672
507.582
506.414
505.168
503.872
502.503
501.004
499.436
497.821
496.152
494.472
492.761
491.041
489.28
487.49
485.659
483.797
481.891
479.961
478.01
476.053
474.096
472.149
470.212
468.299
466.421
464.591
462.819
461.117
459.473
457.888
456.405
455.035
453.856
453.046
452.457
452.149
452.164
452.512
453.284
454.513
456.271
458.669
461.831
465.836
470.916
429.94
427.813
425.447
423.567
421.752
420.29
418.953
418.008
417.264
416.83
416.256
415.73
415.194
414.832
414.419
413.995
413.346
412.705
411.973
411.2
410.367
409.351
408.343
407.363
406.35
405.391
404.406
403.454
402.454
401.45
400.384
399.298
398.165
397.032
395.884
394.757
393.633
392.526
391.424
390.357
389.333
388.385
387.506
386.703
385.955
385.257
384.623
384.027
383.517
383.227
383.066
383.064
383.241
383.648
384.307
385.27
386.598
388.324
390.528
393.3
396.734
338.989
337.393
335.65
334.444
333.073
331.983
330.758
330.199
329.898
330.148
329.945
329.784
329.527
329.651
329.687
329.838
329.645
329.643
329.417
329.099
328.761
328.132
327.687
327.46
327.162
327.002
326.74
326.626
326.414
326.243
325.909
325.602
325.231
324.939
324.646
324.43
324.175
323.935
323.685
323.518
323.423
323.454
323.608
323.825
324.088
324.36
324.589
324.772
324.985
325.237
325.66
326.157
326.825
327.644
328.662
329.89
331.392
333.179
335.301
337.828
340.764
256.322
255.232
254.12
253.352
252.481
251.601
250.203
250.07
250.389
251.503
251.554
251.591
251.386
251.936
252.394
253.196
253.47
254.212
254.257
254.049
254.065
253.532
253.744
254.467
254.823
255.457
255.681
256.393
256.956
257.611
257.683
258.003
258.334
258.832
259.483
260.244
260.707
261.109
261.677
262.343
263.394
264.45
265.814
267.249
268.554
269.682
270.513
271.075
271.88
272.342
273.29
274.142
275.64
277.029
278.814
280.537
282.751
284.932
287.432
290.417
293.386
11894.1
11473.5
11007.9
10495.3
9934.77
9325.84
8665.67
7952.78
7188.45
6221.94
5204.07
4695.65
4505.75
4502.16
4559.14
4543.76
4470.67
4362.42
4230.22
4087.84
3944.72
3804.54
3671.44
3549.37
3441.28
3349.82
3277.46
3225.99
3196.6
3190.06
3203.89
3233.8
3277.29
3331.5
3394.38
3464.18
3539.31
3618.17
3699.24
3780.76
3861.05
3938.87
4012.99
4082.15
4145.74
4202.85
4252.33
4293.14
4324.49
4345.39
4354.33
4349.85
4330.69
4294.56
4240.35
4167.91
4076.94
3970.65
3853
3724.71
3584.99
3246.19
3288.17
3330.27
3372.1
3412.74
3451.21
3485.5
3515.36
3537.86
3541.82
3544.84
3562.08
3622.68
3722.82
3770.48
3593.14
3320.71
3019.36
2746.05
2506.86
2297.43
2113.75
1951.83
1809.01
1683.6
1574.6
1481.92
1404.84
1343.56
1299.01
1269.6
1252.49
1245.29
1245.56
1251.77
1262.86
1277.87
1295.93
1316.2
1337.91
1360.35
1382.92
1405
1426.09
1445.78
1463.62
1479.14
1491.87
1501.34
1507.06
1508.47
1504.9
1495.8
1480.72
1459.83
1434.38
1404.03
1368.82
1327.7
1280.09
1226.05
1406.99
1456.06
1511.91
1575.65
1647.83
1730.58
1823.47
1928.11
2043.37
2164.27
2287.85
2412.09
2554.61
2736.02
2969.54
3111.54
3125.56
2980.8
2734.6
2469.65
2212.31
1981.16
1778.99
1600.78
1444.67
1308.99
1192.57
1094.48
1013.77
949.692
901.603
866.964
843.127
827.882
819.393
816.284
817.499
822.153
829.449
838.658
849.153
860.374
871.839
883.126
893.911
903.869
912.67
919.957
925.361
928.489
928.935
926.349
920.308
910.556
897.049
880.295
859.913
835.931
807.97
776.065
740.674
831.488
858.122
890.449
929.432
976.428
1033.1
1101.03
1181.8
1275.63
1381.14
1494.83
1614.1
1744.16
1896.7
2089.17
2297.69
2491.91
2633.74
2662.39
2573.8
2383.43
2155.75
1931.26
1717
1524.1
1354.53
1206.91
1080.98
975.722
889.666
821.082
767.95
728.159
699.332
679.187
665.923
658.185
654.886
655.062
657.85
662.518
668.417
675.009
681.875
688.692
695.183
701.066
706.011
709.706
711.797
711.973
709.927
705.364
698.041
687.837
674.853
658.832
639.695
617.5
592.46
565.165
597.864
611.788
629.082
650.539
677.109
710.057
750.891
800.925
861.39
932.546
1013.41
1102.51
1200.69
1312.37
1446.06
1604.91
1786.34
1978.93
2152.12
2269.44
2305.49
2248.03
2115.86
1925.11
1725.31
1533.96
1355.32
1197.95
1062.94
948.738
853.711
776.688
716.301
670.437
636.326
611.584
594.383
583.293
577.052
574.514
574.723
576.81
580.093
584.061
588.355
592.701
596.818
600.414
603.122
604.667
604.741
603.093
599.416
593.487
585.207
574.482
561.143
545.163
526.674
505.896
483.418
477.255
485.177
494.994
507.254
522.499
541.46
565.104
594.515
630.635
674.345
725.876
785.138
852.519
929.452
1019.35
1126.35
1253.58
1402.05
1565.91
1730.21
1873.79
1971.26
2003.56
1964.76
1862.49
1717.08
1541.84
1372.32
1216.5
1075.82
952.957
848.989
764.419
696.961
644.811
605.44
576.488
556.079
542.555
534.315
530.09
528.624
528.998
530.525
532.787
535.449
538.252
540.837
542.885
544.034
544.091
542.743
539.706
534.728
527.752
518.633
507.249
493.604
477.823
460.129
441.006
400.959
406.128
412.44
420.147
429.592
441.203
455.49
473.075
494.694
520.98
552.578
589.896
633.432
684.015
743.109
812.962
896.145
995.328
1111.61
1242.52
1381.1
1515.15
1628.13
1703.18
1727.1
1695.77
1615.18
1498.42
1363.41
1219.07
1082.63
957.625
850.43
761.367
688.687
631.494
587.811
555.721
533.279
518.24
509.021
503.723
501.102
500.192
500.507
501.634
503.276
505.055
506.539
507.419
507.44
506.415
503.876
499.689
493.75
485.911
476.077
464.303
450.678
435.37
418.808
344.255
348.33
353.094
358.72
365.389
373.301
382.744
394.077
407.727
424.126
443.758
467.082
494.665
527.046
565.072
610.003
663.291
726.874
802.607
891.092
991.552
1100.48
1211.41
1314.33
1397.23
1447.92
1460.07
1430.7
1367.67
1280.8
1174.12
1054.4
939.244
838.702
752.09
679.362
619.949
574.228
541.22
517.932
502.927
493.22
487.237
483.617
481.892
481.426
481.987
482.97
484.048
484.617
484.742
484.024
482.022
478.56
473.547
466.897
458.402
448.224
436.377
423.083
408.538
297.086
301.082
305.185
310.224
315.668
322.048
329.05
337.377
346.803
357.925
370.723
385.93
403.657
424.561
448.818
477.721
512.009
552.576
601.171
657.809
724.09
798.794
880.291
965.557
1048.44
1120.59
1174.06
1201.86
1200.42
1179.72
1129.31
1050.17
968.726
884.879
803.362
726.905
660.337
604.081
560.888
528.483
506.971
492.249
482.361
475.611
471.627
469.482
468.966
469.176
469.925
470.232
470.559
470.383
468.993
466.314
462.171
456.695
449.289
440.782
430.412
419.075
406.073
9.54171
278.122
263.469
8.33922
13.063
0.0697195
0.000756124
88.6755
0.000763215
0.0176537
296.739
2.36443
0.000756097
365.041
0.0529148
164.908
0.000761262
90.0301
274.357
0.000756938
9.01861
370.142
273.199
0.000780182
0.000759763
0.631271
0.000757065
34.7106
0.000759861
0.000761286
24.0992
0.000754162
0.0115179
428.238
1.37852
287.772
420.853
15.9415
0.000754372
44.5362
224.519
76.4103
0.000752743
124.717
346.584
0.340296
0.000752461
0.00162233
0.00242314
2.6984
341.496
441.436
0.000752278
0.000765479
0.347669
0.000752032
0.000761187
48.6271
426.069
370.85
140.333
0.000797975
2.99552
0.00426652
292.85
0.000752105
662.621
77.9864
0.00112994
0.000752403
0.00105411
88.4145
188.573
0.000751699
0.357569
292
306.668
62.2164
0.000751934
1.93583
0.00112673
47.8298
0.00336991
137.338
0.000752868
10.3243
0.000762317
431.89
0.0223858
0.000878861
0.0841201
0.000751786
0.000784144
391.285
218.755
0.00077099
0.714666
7.75057
0.00178045
266.831
0.000752129
9.18839
26.4162
0.000751599
0.000751828
0.000751996
8.59952
0.129731
0.000768808
235.096
284.632
0.00479357
358.126
455.353
109.545
415.083
616.123
0.00097603
0.0258648
0.000755849
0.000751682
343.022
0.000773707
365.092
456.311
49.5395
0.000752219
1.29487
1.32452
0.000752398
0.0479837
0.00445523
138.362
0.000766533
402.235
0.000752261
0.000751821
478.772
424.91
0.00075293
3.05236
216.905
1.07407
0.83466
462.767
148.75
0.0033277
462.012
0.00304373
320.472
0.00676969
0.000752388
103.447
133.003
264.216
0.000754289
0.000754286
0.0872568
0.000751861
751.943
0.0872773
0.00139245
0.000753823
0.000752013
0.000757978
26.785
89.1349
151.966
0.000775849
341.884
313.071
299.169
182.693
0.0103272
395.093
434.97
513.332
0.000753189
0.00112764
169.925
319.995
80.4472
128.238
0.000751835
0.000765841
368.243
0.0050645
1.38888
0.000758329
0.000752191
0.241664
0.000796756
387.387
1.74485
0.000751724
0.10514
123.139
219.037
0.0011535
1005.09
0.000751965
0.000753891
163.021
35.3072
328.991
0.00117785
0.000762661
0.00249998
62.2618
901.48
22.3484
202.93
0.0149638
295.678
6.31032
88.2947
113.359
77.2805
3.67649
426.903
0.000758767
0.0225049
0.000752763
0.00075324
594.639
0.00228431
0.0025027
0.000758603
0.0090526
95.943
392.825
0.0181268
246.04
1.43573
0.44838
0.000753415
3.03361
21.3273
1.39457
0.00104859
16.8036
59.5465
7.79763
0.0012158
343.523
46.1756
31.2073
146.819
0.000905787
0.000751776
0.000824171
0.00544562
481.327
0.00075564
0.000766207
0.000753965
5.38235
107.074
271.655
360.649
0.0188464
3.32756
417.46
0.00113948
639.174
156.646
0.000752319
396.871
0.000752813
528.701
5.86891
420.711
0.00104215
0.000752054
12.438
33.968
0.000759152
0.000753172
0.000755825
0.000762075
0.914569
157.975
31.5302
0.0228868
0.00075993
0.000752969
0.000751721
119.577
7.28144
0.000866856
39.8742
0.0776846
0.509073
0.00075184
1.04988
0.000759988
0.171431
150.97
330.176
0.0110108
0.000756293
0.000881529
64.3724
0.893585
173.494
411.953
0.000794977
0.000752138
0.000753291
197.487
0.00075761
132.694
0.000752346
64.0917
0.0792959
0.0761576
375.101
312.485
0.000891978
360.624
54.1002
181.787
121.717
0.0428759
416.873
409.513
93.8364
286.371
109.611
188.455
0.0509387
424.989
358.68
322.744
433.844
0.000865259
323.302
382.718
297.638
0.0112232
0.000786022
0.000752164
0.000767074
5.41297
1.0343
23.2187
0.0283445
0.000755213
234.444
0.000752098
454.759
31.5106
242.871
96.4069
5.84368
0.000817173
0.000818769
2.48855
422.831
0.00122309
49.6631
362.499
537.566
95.7616
267.499
67.9575
0.000762461
358.507
218.784
216.392
0.000754067
282.759
222.456
0.000760446
440.179
0.000754911
352.947
309.295
448.022
80.7557
384.146
200.374
0.00077775
192.954
0.000806515
288.575
100.772
497.217
354.227
0.649696
0.427001
1.97914
0.000813935
301.805
2.42092
0.00221488
0.000860888
334.011
0.000806117
111.544
0.000752913
0.000756864
0.00184504
151.969
0.128375
27.2771
0.000756858
86.1078
0.0849297
295.49
206.54
44.277
340.459
0.00080688
353.221
30.0553
0.000751772
94.409
29.698
0.000752068
0.00075182
290.143
0.00219092
77.03
2.24512
423.822
0.0122583
4.30405
55.9161
214.45
33.8028
165.025
99.3268
0.000854364
0.11644
683.639
68.7039
419.719
343.35
222.628
0.0161486
173.409
173.389
19.1009
139.555
73.2671
31.2179
0.000798122
98.389
450.025
0.000891149
155.755
7.37849
76.0115
0.00407556
0.0189427
360.42
0.000808317
414.68
0.000854508
14.4454
0.000756981
11.7152
181.387
0.301084
0.000862158
0.00090908
424.931
460.543
0.000754583
24.0498
355.122
364.913
0.00087796
2.83453
460.117
397.188
463.455
310.21
489.468
288.95
41.9601
0.000758183
0.000773598
383.271
214.486
445.913
216.803
0.000802968
360.503
412.21
0.000803021
122.751
449.841
0.0463197
0.0147831
136.354
145.8
2.04975
211.646
0.00153292
0.000752023
0.000751978
5.84542
196.588
406.867
0.000752297
0.000757708
0.000751856
461.174
0.105221
0.000752236
0.109904
151.768
343.045
0.00138245
0.00146004
0.000751632
0.000756486
0.000801466
141.736
218.286
64.2266
1.61075
373.288
336.72
0.00148704
139.546
516.274
466.029
73.0554
468.717
0.000808298
0.00120824
0.000753283
272.548
0.455381
0.000752652
3.01625
0.053408
389.169
0.000758893
384.917
1.98305
0.129562
258.322
0.000752825
0.000751766
0.000767833
461.951
46.0271
170.938
315.216
11.7738
672.216
0.0007518
0.000977381
2.68274
0.000758615
0.00793688
256.244
511.67
0.000753329
116.08
1033.32
265.381
460.408
0.00130331
468.758
0.000890928
0.00786571
401.221
0.000752048
181.633
0.000759799
0.000760416
0.0708522
433.796
1.40348
294.876
218.07
0.000762253
476.016
426.924
0.000753653
8.44862
0.00175011
0.000757692
0.000755025
0.0020821
170.495
36.3407
0.000805225
359.002
362.478
284.014
0.000752074
950.884
0.00108986
13.9234
3.40856
0.0214551
758.557
806.004
216.43
219.553
0.000772422
0.000751809
0.00107046
107.839
177.13
1.2071
0.00181336
0.000753459
0.000753162
0.00104508
0.000751661
0.00106826
877.36
3.83949
0.00664127
460.375
242.902
0.000762711
422.69
0.000758542
12.6721
0.000762299
0.00942767
97.0775
0.00561673
0.00075217
0.721828
414.496
312.451
0.000758025
0.000752199
0.435117
0.000751773
0.00075206
183.56
0.000782978
937.579
441.363
15.5696
133.838
281.56
274.552
425.24
0.000752707
0.00240761
0.0203308
299.664
127.019
290.577
0.0104716
19.2155
229.52
383.941
209.815
0.000757932
108
0.000752801
1.71626
438.616
20.4243
522.943
73.7743
6.4325
88.0313
0.657251
0.00175518
439.351
0.000753221
296.72
0.000761191
20.4134
370.845
165.888
1.59105
0.0017009
42.6207
0.000755827
0.00075304
0.15195
0.00312567
430.296
0.00157501
466.492
0.000752473
0.00478933
0.000752759
110.77
0.00088674
237.299
284.45
0.00263061
244.008
363.17
0.000754634
211.436
364.668
0.000796492
363.559
1.3811
0.000810371
0.000752841
319.565
0.000752259
0.000815453
0.0202242
0.887772
407.477
346.446
0.000753599
0.000753504
0.00223549
12.2634
0.00188783
0.000946615
9.02483
0.000751929
0.000804341
0.000753027
211.747
343.905
20.9602
328.246
0.0035452
456.05
0.000794441
0.00239041
0.00338975
0.232807
0.000753892
340.598
0.000752004
0.0072283
0.000754901
0.000753449
0.00263745
0.000751823
11.0081
23.6856
427.752
9.90019
18.1662
534.789
161.39
0.000786892
378.057
415.14
62.1103
74.5872
0.000767155
257.789
148.163
0.000751834
389.335
547.726
0.000753247
0.000751565
207.468
228.32
0.000764527
406.646
382.769
2.04155
420.362
345.573
197.991
957.363
70.2155
50.5517
354.086
369.367
0.00266416
332.366
98.2559
491.419
0.000795967
7.32739
0.204019
289.634
242.675
0.00467438
312.292
253.935
31.7071
0.276318
19.677
573.832
0.00096211
558.187
420.166
0.0458054
285.922
37.8101
112.352
243.692
0.000755134
0.00160576
1.31533
22.8107
0.0260064
0.000752184
7.08742
13.5143
0.000959172
0.000758895
191.578
1.66449
99.2377
53.3877
0.00126805
0.00081042
0.000761024
295.358
0.000772294
21.6848
448.743
0.918587
179.719
0.000852716
3.63635
0.000752913
0.000751714
90.188
0.000751591
0.14957
536.533
247.395
0.256786
182.129
33.5701
0.00460754
0.000902152
44.4347
382.182
0.000753247
0.00075284
191.517
0.00600816
0.000758074
97.9611
0.000812411
267.172
490.02
146.899
0.111739
9.66167
450.488
244.903
341.643
0.00075892
360.888
0.000761441
45.2582
0.000803724
0.000753049
560.222
0.00224537
379.793
0.0140783
0.00878793
195.402
47.0529
0.0278873
0.00078754
265.984
0.000784328
0.000753058
416.813
220.529
30.7308
446.157
0.000763847
0.000751578
6.93336
195.447
0.000751913
281.049
168.216
0.000754874
220.874
0.000752528
21.7507
6.84361
3.49275
1.93744
176.063
1.01676
0.000752425
356.509
338.419
0.000751935
0.0350087
533.852
0.000753006
306.505
303.758
320.613
0.000752059
0.000752439
334.447
0.524458
0.000814235
143.614
206.587
319.404
0.000751764
0.000790667
0.00579128
0.0195673
0.000751881
0.00215002
154.495
346.96
0.000754602
27.668
0.000752012
52.1228
0.00107148
0.000782971
12.4849
0.000752127
1.95204
0.000752303
103.143
0.747986
44.0543
239.969
311.442
403.34
1.18286
1.49934
0.00075885
1.11346
354.96
358.101
0.0342247
0.000775978
168.358
0.000752086
0.130161
0.000753017
437.681
58.8941
22.6798
286.192
227.255
32.1977
80.4521
46.2096
292.488
189.417
0.000758225
0.000779816
0.000964351
0.000756949
0.00277463
177.152
0.000929192
331.986
0.000874581
0.00204427
0.975024
377.494
0.00139956
60.2175
0.0348023
123.296
15.0362
412.288
0.000799636
0.000955629
0.000754633
185.471
82.4617
64.2905
2.11727
0.000815818
56.032
0.182191
41.492
0.000755393
843.531
0.000752977
478.574
0.333662
83.908
0.000757856
83.3589
76.1978
0.00075177
180.301
6.5737
0.0170141
0.000754669
0.000752142
389.378
92.1254
0.377833
0.000751942
0.00223049
820.339
242.273
0.000762765
0.00164763
0.000751931
233.596
186.222
521.627
22.3582
0.000751781
407.86
462.944
0.000752479
0.000752306
102.933
0.000752001
0.00201145
0.00078048
206.265
0.00104637
467.79
435.889
0.000763688
0.000815342
0.000751652
0.000755986
58.6787
431.962
404.888
0.00753759
52.4188
523.082
0.192827
48.1094
0.000805968
899.379
0.503965
455.417
25.5748
193.148
418.121
0.000751907
0.000759
199.464
155.064
323.598
1.01237
446.966
2.4077
60.0933
0.00243247
0.000889776
390.4
190.576
0.108399
0.00134259
0.000756104
0.0174878
5.65383
0.113044
79.6535
0.000754241
260.897
434.842
1.46096
335.001
179.92
336.847
4.16852
376.91
365.443
7.78544
33.1264
0.000752133
85.9738
41.6669
0.000752
0.000753147
2.0751
0.000753238
0.000792361
332.312
216.167
0.000756538
300.598
0.000751825
0.000752858
0.000752168
0.000776375
0.00141998
442.488
106.07
317.265
0.000756034
0.000752163
1.47483
0.000773365
0.0433815
0.000762314
0.000753694
399.133
0.000834956
0.00140551
165.366
0.00243932
0.000752198
378.416
0.00075281
0.000757989
0.000752174
0.000770817
0.000761494
0.00121904
0.00416043
0.000752175
0.000765445
392.921
463.318
95.1512
0.0677413
414.368
13.2695
0.00129669
454.975
369.323
302.134
383.157
0.000752568
79.3021
206.66
0.0700067
513.177
192.231
0.312967
437.402
0.000751588
577.335
0.00188167
5.08551
0.000757058
309.486
0.000761237
650.717
18.5532
0.000752066
0.426649
0.00115846
0.000761945
0.000755865
1.43562
0.000790426
0.000764682
401.964
0.000751573
0.0498426
298.709
263.151
0.000828542
0.000962277
16.0623
340.035
0.000751954
0.000757192
1.74437
121.01
193.655
0.00197315
4.45808
0.000754183
0.00076873
0.000751771
0.00504883
80.9782
0.00545257
351.493
445.851
336.024
241.831
0.000771212
326.915
59.7764
0.000751837
0.000755967
0.00075505
0.000789974
0.000753391
407.453
0.000752116
0.000753225
343.622
0.586375
0.00120592
0.000774443
428.219
19.1988
0.00104116
0.00078165
236.641
0.000762252
0.00100932
0.000771494
0.000777981
221.722
246.252
0.00112576
0.000831311
0.1577
0.000752049
344.398
0.000769803
237.835
0.0233509
51.2276
0.000752393
21.863
0.000751895
142.151
0.00076057
0.00077815
0.00167
127.294
1.04215
389.532
0.000752167
0.00121557
0.000921067
332.489
198.845
211.776
0.00213882
0.00416366
5.75434
0.000752907
13.4451
70.4704
0.00219366
366.587
235.752
45.0238
0.00115688
0.227951
157.064
312.023
505.367
0.0117401
408.169
0.0120012
216.024
0.0306997
0.361372
100.961
0.000761883
468.418
0.000791902