/*--------------------------------*- C++ -*----------------------------------*\
| =========                 |                                                 |
| \\      /  F ield         | OpenFOAM: The Open Source CFD Toolbox           |
|  \\    /   O peration     | Version:  2.3.1                                 |
|   \\  /    A nd           | Web:      www.OpenFOAM.org                      |
|    \\/     M anipulation  |                                                 |
\*---------------------------------------------------------------------------*/
FoamFile
{
    version     2.0;
    format      ascii;
    class       volScalarField;
    location    "0.04";
    object      nut;
}
// * * * * * * * * * * * * * * * * * * * * * * * * * * * * * * * * * * * * * //

dimensions      [0 2 -1 0 0 0 0];

internalField   nonuniform List<scalar> 
9648
(
0.00030531
0.000299717
0.00029449
0.000289343
0.00028449
0.000280128
0.000276474
0.000273623
0.00027153
0.000270056
0.000269041
0.000268359
0.000267872
0.000267466
0.000267103
0.00026675
0.000266372
0.000265941
0.000265467
0.000264959
0.000264406
0.000263814
0.000263204
0.000262571
0.000261916
0.00026126
0.000260612
0.000259978
0.000259354
0.000258757
0.00025819
0.000257656
0.000257162
0.000256716
0.000256315
0.000255969
0.000255686
0.000255464
0.000255294
0.000255182
0.000255143
0.000255167
0.000255253
0.000255412
0.000255628
0.000255891
0.000256216
0.000256615
0.000257076
0.000257576
0.000258131
0.000258758
0.000259425
0.000260134
0.000260898
0.000261723
0.000262588
0.000263457
0.000264376
0.000265372
0.000266446
0.00165485
0.00159524
0.00152305
0.00144117
0.00135116
0.00125618
0.00116177
0.00107554
0.00100322
0.0009485
0.000911361
0.000890373
0.000882618
0.00088475
0.000894305
0.000909582
0.000929262
0.000952293
0.000977968
0.00100591
0.00103564
0.00106683
0.00109932
0.00113284
0.00116711
0.00120202
0.00123749
0.00127337
0.00130948
0.00134571
0.00138205
0.00141837
0.00145454
0.00149063
0.00152654
0.00156216
0.00159757
0.00163279
0.00166775
0.00170229
0.00173648
0.00177043
0.00180405
0.00183727
0.0018702
0.00190257
0.00193438
0.0019658
0.00199687
0.00202736
0.0020573
0.00208684
0.00211615
0.00214439
0.00217221
0.00219929
0.00222615
0.00225165
0.00227636
0.00230042
0.00232395
0.00403688
0.00392329
0.00377842
0.00360555
0.00340543
0.00318364
0.00294843
0.0027171
0.00250626
0.00233257
0.00220261
0.0021177
0.00207226
0.00205834
0.00206809
0.00209509
0.00213464
0.00218316
0.00223824
0.0022982
0.00236171
0.00242794
0.00249613
0.00256572
0.00263625
0.00270741
0.00277897
0.00285055
0.00292199
0.00299312
0.00306373
0.00313377
0.00320321
0.00327188
0.00333974
0.00340684
0.00347309
0.00353857
0.00360322
0.00366701
0.00372999
0.00379207
0.00385344
0.00391403
0.00397377
0.00403263
0.00409054
0.00414771
0.00420388
0.00425914
0.0043134
0.00436674
0.00441973
0.00447074
0.00452201
0.00457111
0.00461988
0.00466553
0.00471111
0.00475571
0.00479947
0.00700357
0.00683946
0.00662519
0.00635839
0.00603846
0.00567013
0.00526596
0.00484984
0.00445233
0.00410488
0.00382839
0.00363148
0.00350911
0.00344917
0.00343695
0.00345959
0.00350702
0.00357181
0.00364882
0.00373438
0.00382604
0.00392188
0.00402063
0.00412135
0.0042233
0.00432587
0.00442863
0.00453114
0.00463313
0.00473424
0.00483441
0.00493349
0.00503132
0.00512796
0.00522324
0.00531723
0.00540986
0.00550121
0.00559123
0.00567996
0.0057674
0.0058536
0.00593852
0.00602233
0.0061049
0.00618626
0.00626644
0.0063455
0.0064232
0.00649959
0.00657512
0.00664873
0.00672117
0.00679183
0.00686243
0.00693101
0.00699766
0.00706248
0.00712594
0.00718797
0.00724765
0.0102672
0.010052
0.00976419
0.0093977
0.00894893
0.0084233
0.00783708
0.00722029
0.0066153
0.00606804
0.00561498
0.00527565
0.00504962
0.0049222
0.00487244
0.00488002
0.00492822
0.00500476
0.00510076
0.00521021
0.00532884
0.00545371
0.00558266
0.00571421
0.00584729
0.00598111
0.00611492
0.0062482
0.00638044
0.00651133
0.00664058
0.00676804
0.00689367
0.00701734
0.00713895
0.00725861
0.0073763
0.00749195
0.00760562
0.00771729
0.00782701
0.00793474
0.00804063
0.00814468
0.0082469
0.00834732
0.00844588
0.00854266
0.00863795
0.00873105
0.00882263
0.00891233
0.00899959
0.0090847
0.00916817
0.00925014
0.00932948
0.00940683
0.00948227
0.00955529
0.00962581
0.013675
0.0134072
0.0130426
0.0125729
0.0119936
0.0113094
0.0105402
0.00972234
0.00890654
0.00815105
0.007507
0.00700647
0.00665685
0.0064441
0.00634298
0.00632605
0.00636914
0.00645414
0.00656754
0.00670024
0.00684609
0.00700052
0.00716052
0.00732372
0.00748875
0.0076545
0.00782011
0.00798481
0.00814784
0.00830877
0.0084673
0.00862301
0.00877594
0.00892602
0.00907305
0.00921707
0.00935823
0.00949647
0.00963187
0.00976432
0.00989366
0.01002
0.0101435
0.0102642
0.010382
0.0104972
0.0106101
0.0107197
0.0108269
0.0109316
0.0110334
0.0111327
0.0112291
0.0113222
0.0114131
0.0115007
0.0115854
0.0116678
0.0117474
0.0118233
0.011897
0.0171466
0.0168289
0.0163901
0.0158204
0.0151155
0.01428
0.0133365
0.0123267
0.0113062
0.0103434
0.00950121
0.008826
0.00833511
0.00801929
0.00785183
0.00779939
0.00783026
0.00791968
0.00804829
0.00820335
0.00837646
0.00856117
0.00875329
0.00894918
0.00914693
0.00934548
0.00954358
0.00974059
0.00993509
0.0101266
0.0103148
0.0104986
0.0106782
0.0108539
0.0110253
0.0111921
0.0113549
0.0115134
0.0116681
0.0118189
0.0119651
0.0121067
0.012244
0.0123771
0.0125057
0.0126304
0.0127513
0.012868
0.0129813
0.0130907
0.0131964
0.0132982
0.0133956
0.0134892
0.0135785
0.0136645
0.0137466
0.0138244
0.013898
0.0139676
0.0140334
0.0206435
0.0202803
0.0197753
0.0191154
0.018299
0.0173245
0.0162214
0.0150345
0.0138196
0.0126555
0.0116115
0.0107504
0.0101011
0.00966242
0.00940986
0.00930738
0.00931654
0.00940474
0.00954553
0.00972032
0.00991959
0.0101346
0.0103602
0.0105902
0.010821
0.0110527
0.0112837
0.0115135
0.0117403
0.011963
0.012182
0.0123942
0.012599
0.012799
0.0129938
0.013182
0.0133638
0.0135395
0.0137104
0.0138772
0.0140378
0.0141919
0.0143387
0.0144798
0.0146142
0.0147426
0.0148652
0.0149815
0.0150932
0.0151997
0.0153005
0.0153962
0.0154869
0.015571
0.0156497
0.015724
0.015793
0.0158567
0.0159136
0.0159648
0.0160104
0.0241443
0.0237449
0.0231894
0.0224502
0.0215474
0.0204483
0.0191988
0.0178605
0.0164567
0.0151077
0.0138548
0.0128012
0.0119756
0.0113937
0.0110292
0.0108569
0.0108291
0.0109083
0.0110595
0.0112476
0.0114687
0.011713
0.0119722
0.0122423
0.0125044
0.0127688
0.0130321
0.0132933
0.0135536
0.0138076
0.0140612
0.0143068
0.0145312
0.0147509
0.0149708
0.0151809
0.0153769
0.0155652
0.0157459
0.0159269
0.0161015
0.0162697
0.0164225
0.0165687
0.0167044
0.0168319
0.0169485
0.0170569
0.0171581
0.0172543
0.0173407
0.0174199
0.0174953
0.0175602
0.0176148
0.0176656
0.0177122
0.0177499
0.0177781
0.0177982
0.0178121
0.000267522
0.000268599
0.000269763
0.000271013
0.000272327
0.000273673
0.000275095
0.000276635
0.000278242
0.000279869
0.000281482
0.000283139
0.000284817
0.000286494
0.000288186
0.000289917
0.00029167
0.000293418
0.000295171
0.000296954
0.000298751
0.000300566
0.000302417
0.000304269
0.000306113
0.00030797
0.000309848
0.000311743
0.000313641
0.000315551
0.000317472
0.000319397
0.000321328
0.000323278
0.000325233
0.000327203
0.000329196
0.000331214
0.000333239
0.000335275
0.000337342
0.00033943
0.000341536
0.000343673
0.000345822
0.000347964
0.000350116
0.000352301
0.000354502
0.000356689
0.000358885
0.000361122
0.000363361
0.000365599
0.00036787
0.000370175
0.000372493
0.000374761
0.000377049
0.00037939
0.000381792
0.00234709
0.00236748
0.00238699
0.00240578
0.00242377
0.00244025
0.00245435
0.00246725
0.00247776
0.00248817
0.00249708
0.00250537
0.00251298
0.00251984
0.00252592
0.00253111
0.00253556
0.00253918
0.00254203
0.00254412
0.00254552
0.00254634
0.00254641
0.00254576
0.00254438
0.00254227
0.00253949
0.00253591
0.00253165
0.00252659
0.00252069
0.00251403
0.00250661
0.00249837
0.00248935
0.00247966
0.00246921
0.00245813
0.0024464
0.00243405
0.00242112
0.00240761
0.00239367
0.00237925
0.00236428
0.00234872
0.00233247
0.00231558
0.00229788
0.00227946
0.00226037
0.00224067
0.00222046
0.00219935
0.00217827
0.00215638
0.00213413
0.00211087
0.00208783
0.00206453
0.00204088
0.00484079
0.0048808
0.00491804
0.00495343
0.00498724
0.00502076
0.0050506
0.00507912
0.00510454
0.00512933
0.00515234
0.00517419
0.00519421
0.00521323
0.00523085
0.00524705
0.00526192
0.00527545
0.00528765
0.00529857
0.00530839
0.00531703
0.00532462
0.00533115
0.0053366
0.00534093
0.00534422
0.00534638
0.00534744
0.00534721
0.00534578
0.00534295
0.00533869
0.00533311
0.00532612
0.00531784
0.00530828
0.00529754
0.00528562
0.00527266
0.0052587
0.00524385
0.00522819
0.00521187
0.0051947
0.00517663
0.00515739
0.00513685
0.00511479
0.00509124
0.00506634
0.00503969
0.00501192
0.00498296
0.00495376
0.00492308
0.00489121
0.0048581
0.00482451
0.00478986
0.00475412
0.00730588
0.00736175
0.0074157
0.00746669
0.00751574
0.00756295
0.00760766
0.00764937
0.00768889
0.00772677
0.00776257
0.00779601
0.00782748
0.0078574
0.00788504
0.00791086
0.00793468
0.00795654
0.00797645
0.00799457
0.00801097
0.00802585
0.0080392
0.00805118
0.00806174
0.00807095
0.00807879
0.00808535
0.00809072
0.00809477
0.00809728
0.00809809
0.00809705
0.00809406
0.00808919
0.00808256
0.00807419
0.00806417
0.00805264
0.00803975
0.00802563
0.00801031
0.00799416
0.00797724
0.00795956
0.00794097
0.00792108
0.00789959
0.00787619
0.00785075
0.00782339
0.00779393
0.00776279
0.0077305
0.00769797
0.00766446
0.0076298
0.00759424
0.00755813
0.00752067
0.00748233
0.00969368
0.00975973
0.00982324
0.00988388
0.00994124
0.0099962
0.0100486
0.0100974
0.0101432
0.0101868
0.0102276
0.0102658
0.0103019
0.0103354
0.0103665
0.0103955
0.0104211
0.0104442
0.0104647
0.0104826
0.0104982
0.0105119
0.0105237
0.0105338
0.0105422
0.0105488
0.010554
0.010558
0.0105611
0.0105632
0.0105643
0.0105637
0.010561
0.0105559
0.0105486
0.010539
0.0105273
0.0105137
0.0104983
0.0104814
0.010463
0.0104434
0.0104228
0.0104018
0.0103801
0.0103579
0.0103345
0.0103093
0.0102822
0.010253
0.0102212
0.010187
0.0101511
0.010114
0.0100771
0.0100398
0.0100029
0.00996577
0.00992856
0.00989077
0.00985316
0.0119673
0.0120349
0.012099
0.0121608
0.0122188
0.0122733
0.0123245
0.0123713
0.0124148
0.0124548
0.012492
0.0125262
0.0125576
0.0125862
0.0126119
0.0126347
0.012654
0.0126701
0.0126825
0.0126913
0.012697
0.0127002
0.0127011
0.0127001
0.012697
0.0126917
0.0126846
0.0126762
0.0126674
0.0126588
0.0126506
0.0126416
0.0126309
0.0126178
0.0126021
0.0125835
0.0125621
0.0125387
0.0125136
0.0124871
0.0124591
0.0124296
0.0123994
0.0123689
0.0123383
0.012308
0.0122769
0.0122447
0.0122105
0.0121744
0.0121349
0.012092
0.0120475
0.0120023
0.0119584
0.0119158
0.0118753
0.0118357
0.0117977
0.0117605
0.0117245
0.0140954
0.0141537
0.0142079
0.0142585
0.0143052
0.0143485
0.0143873
0.0144217
0.0144521
0.0144781
0.0145002
0.0145189
0.0145345
0.0145467
0.0145563
0.0145637
0.014568
0.0145682
0.0145635
0.0145534
0.0145392
0.0145217
0.0145017
0.0144797
0.0144557
0.0144286
0.0143983
0.0143658
0.014333
0.0143021
0.0142748
0.0142496
0.0142245
0.0141974
0.0141678
0.0141343
0.0140966
0.0140564
0.0140152
0.0139735
0.0139305
0.0138857
0.0138402
0.0137954
0.0137511
0.0137079
0.013665
0.013622
0.0135779
0.0135324
0.0134824
0.0134269
0.01337
0.0133124
0.0132578
0.0132078
0.0131626
0.0131206
0.0130824
0.0130464
0.0130128
0.0160509
0.0160866
0.0161165
0.016142
0.0161625
0.0161778
0.0161893
0.0161982
0.0162032
0.0162021
0.0161958
0.0161857
0.0161705
0.0161524
0.0161321
0.016111
0.0160909
0.0160672
0.0160371
0.0159996
0.0159544
0.0159053
0.0158531
0.0157998
0.0157469
0.0156898
0.0156271
0.0155583
0.0154863
0.0154165
0.0153566
0.0153057
0.0152596
0.0152138
0.0151667
0.0151149
0.0150543
0.0149892
0.0149246
0.0148627
0.0148004
0.0147352
0.0146691
0.0146055
0.0145439
0.0144828
0.0144243
0.014368
0.0143122
0.0142571
0.0141956
0.0141228
0.0140494
0.0139744
0.0139042
0.0138448
0.013794
0.0137504
0.0137129
0.0136803
0.0136504
0.0178141
0.0178189
0.0178056
0.0177927
0.0177677
0.0177338
0.0176906
0.0176528
0.0176209
0.0175795
0.0175283
0.0174742
0.0174077
0.0173365
0.017269
0.0171962
0.0171383
0.0170857
0.0170212
0.0169532
0.0168665
0.0167737
0.0166778
0.0165751
0.016488
0.0164029
0.0163001
0.0161922
0.0160655
0.0159334
0.0158108
0.0157288
0.0156501
0.0155872
0.0155202
0.0154544
0.0153668
0.0152672
0.0151694
0.0150828
0.0149996
0.0149102
0.0148186
0.014729
0.0146557
0.0145613
0.0144938
0.0144157
0.0143554
0.0142912
0.0142235
0.0141288
0.0140354
0.0139393
0.0138346
0.0137738
0.0137109
0.0136744
0.0136347
0.0136147
0.0135802
0.000384163
0.000386573
0.000389166
0.000391854
0.000394689
0.000397619
0.000400202
0.000402881
0.000405618
0.000408372
0.000411134
0.000413944
0.000416771
0.00041959
0.000422425
0.000425289
0.000428154
0.000430993
0.000433812
0.000436632
0.000439429
0.000442203
0.000444967
0.000447698
0.000450382
0.000453037
0.000455664
0.000458255
0.000460793
0.000463289
0.000465732
0.000468118
0.000470438
0.0004727
0.000474884
0.000476993
0.000479026
0.000480976
0.000482824
0.000484557
0.000486182
0.000487684
0.000489054
0.000490285
0.000491254
0.000491946
0.000492396
0.000492628
0.000492613
0.00049231
0.000491742
0.000490931
0.000489804
0.000488355
0.000486585
0.000484483
0.000481987
0.000479014
0.000475601
0.000471745
0.000467397
0.00201688
0.00199437
0.00197137
0.00194849
0.00192502
0.00189965
0.0018753
0.00185127
0.00182802
0.00180488
0.00178197
0.00175931
0.00173682
0.00171441
0.00169194
0.00166938
0.00164652
0.00162332
0.00159979
0.001576
0.00155206
0.00152788
0.00150354
0.00147911
0.00145464
0.00143022
0.00140583
0.00138158
0.00135745
0.00133345
0.00130963
0.001286
0.00126252
0.00123921
0.00121611
0.00119317
0.00117047
0.00114801
0.00112577
0.00110383
0.0010822
0.00106096
0.00104008
0.00101956
0.000997207
0.000973231
0.000948897
0.000924674
0.000900809
0.000877556
0.000854795
0.000832638
0.000810875
0.000789785
0.000769335
0.000749721
0.000730668
0.000712429
0.000695198
0.000679106
0.000664221
0.00471784
0.00468222
0.00464647
0.00461196
0.00457757
0.00454245
0.00450688
0.00447128
0.00443656
0.00440211
0.00436766
0.00433283
0.00429789
0.0042627
0.00422687
0.00419018
0.00415225
0.00411304
0.00407251
0.00403087
0.00398809
0.00394419
0.00389929
0.00385352
0.00380698
0.00375988
0.00371225
0.00366424
0.00361574
0.0035669
0.00351761
0.00346783
0.00341759
0.00336672
0.00331527
0.00326318
0.00321052
0.00315722
0.00310331
0.00304879
0.00299368
0.00293794
0.00288173
0.00282492
0.00276678
0.00270668
0.00264009
0.00256671
0.00249105
0.00241345
0.00233406
0.00225346
0.00217042
0.00208772
0.00200317
0.00191876
0.00183255
0.00174758
0.00166298
0.00157913
0.00149573
0.00744372
0.00740568
0.00736853
0.00733271
0.00729704
0.00726154
0.00722556
0.00719008
0.00715571
0.00712197
0.00708784
0.00705324
0.00701832
0.00698282
0.00694629
0.00690826
0.00686824
0.00682617
0.0067821
0.00673609
0.00668827
0.00663842
0.00658689
0.00653394
0.00647978
0.00642462
0.00636861
0.00631188
0.0062543
0.00619583
0.00613635
0.00607578
0.00601387
0.00595056
0.00588582
0.00581958
0.00575176
0.00568243
0.00561151
0.00553905
0.00546491
0.00538922
0.00531194
0.00523307
0.0051523
0.00506915
0.00498199
0.00488629
0.0047813
0.0046708
0.00455367
0.00443123
0.00430251
0.00416962
0.00403024
0.00388509
0.00373415
0.00357824
0.00341746
0.00325091
0.00307989
0.00981548
0.00977853
0.00974271
0.00970858
0.00967455
0.00964161
0.00960927
0.00957819
0.00954858
0.00952003
0.00949084
0.00946117
0.00943083
0.00939996
0.00936813
0.00933417
0.00929769
0.00925885
0.00921747
0.00917368
0.00912746
0.00907866
0.00902786
0.00897559
0.00892213
0.00886798
0.00881308
0.00875753
0.00870107
0.00864353
0.00858461
0.00852408
0.00846169
0.00839734
0.00833093
0.0082625
0.008192
0.00811935
0.00804445
0.00796733
0.00788801
0.00780657
0.007723
0.00763724
0.00754904
0.00745821
0.00736311
0.00726287
0.00715163
0.00703218
0.00690452
0.00676816
0.00662316
0.00647
0.00630813
0.00613564
0.00595368
0.00576197
0.00555889
0.00534408
0.00511732
0.0116893
0.0116553
0.0116218
0.0115902
0.0115596
0.0115307
0.0115031
0.0114784
0.0114562
0.0114361
0.0114149
0.0113927
0.0113693
0.0113457
0.0113211
0.0112945
0.0112653
0.0112338
0.0111992
0.0111618
0.0111216
0.0110783
0.0110335
0.010988
0.0109423
0.0108967
0.0108511
0.0108052
0.0107587
0.0107111
0.0106619
0.0106106
0.0105571
0.0105014
0.0104434
0.0103834
0.0103211
0.0102563
0.010189
0.0101192
0.010047
0.00997273
0.00989628
0.00981737
0.00973575
0.00965108
0.00956197
0.00946764
0.00936581
0.00925138
0.00912826
0.00899548
0.0088526
0.00870021
0.00853664
0.00836215
0.008176
0.00797667
0.00776276
0.00753462
0.00728924
0.0129821
0.0129529
0.0129227
0.012894
0.0128675
0.0128436
0.0128219
0.0128051
0.0127934
0.0127848
0.012774
0.0127609
0.0127457
0.0127309
0.0127164
0.0127007
0.0126822
0.0126617
0.0126371
0.0126091
0.0125779
0.0125436
0.0125099
0.0124775
0.0124467
0.012418
0.0123898
0.0123623
0.0123345
0.0123059
0.0122749
0.0122416
0.0122057
0.0121679
0.0121285
0.0120876
0.0120444
0.0119984
0.0119497
0.011899
0.0118468
0.011793
0.0117377
0.0116802
0.0116196
0.0115547
0.0114842
0.0114076
0.0113239
0.0112283
0.0111226
0.0110066
0.0108811
0.0107448
0.0105977
0.0104387
0.0102668
0.0100811
0.00988015
0.00966199
0.00942478
0.013628
0.0136053
0.0135792
0.0135526
0.0135322
0.013514
0.0134988
0.0134916
0.0134943
0.0135012
0.0135031
0.0134991
0.0134921
0.0134875
0.0134865
0.0134846
0.0134816
0.0134753
0.0134622
0.0134445
0.0134241
0.0134022
0.0133852
0.0133734
0.0133668
0.0133643
0.013362
0.0133619
0.013363
0.0133624
0.0133576
0.01335
0.01334
0.0133297
0.0133206
0.013311
0.0132978
0.0132811
0.0132624
0.0132436
0.0132267
0.0132089
0.0131904
0.0131701
0.0131451
0.0131132
0.0130736
0.0130258
0.0129717
0.0129088
0.0128336
0.0127492
0.0126566
0.0125537
0.0124397
0.0123143
0.0121761
0.0120222
0.0118516
0.0116629
0.0114544
0.0135808
0.013567
0.0135471
0.0135096
0.0135059
0.0134905
0.0134872
0.0134837
0.0135142
0.0135324
0.0135566
0.0135549
0.0135587
0.0135547
0.0135803
0.0135865
0.0136131
0.0136171
0.013616
0.0136075
0.0135964
0.0135934
0.0136018
0.0136121
0.0136473
0.0136818
0.013715
0.0137449
0.0137928
0.013826
0.0138553
0.0138748
0.0139022
0.0139238
0.0139661
0.0140005
0.0140285
0.0140461
0.0140723
0.0140974
0.0141416
0.0141737
0.0142113
0.0142445
0.0142688
0.0142799
0.0142799
0.0142717
0.014266
0.0142501
0.0142272
0.0141949
0.0141629
0.0141143
0.014053
0.0139852
0.0138996
0.0137952
0.0136692
0.0135294
0.0133662
0.000462375
0.000456608
0.000450137
0.000442856
0.000434609
0.000425187
0.000414468
0.000402267
0.000388338
0.000367284
0.000347504
0.00033789
0.000334877
0.000335677
0.000336929
0.000335995
0.000333874
0.000330874
0.000327299
0.000323485
0.000319599
0.00031573
0.000312017
0.000308558
0.000305446
0.000302805
0.000300728
0.00029928
0.000298489
0.0002984
0.000298927
0.000299935
0.000301332
0.000303039
0.000304967
0.000307073
0.000309305
0.000311613
0.000313926
0.000316205
0.00031842
0.000320533
0.000322503
0.000324331
0.000325971
0.000327402
0.00032861
0.000329613
0.000330358
0.000330814
0.000330943
0.000330756
0.000330152
0.000329109
0.000327597
0.000325641
0.000323201
0.000320287
0.000317028
0.000313444
0.000309521
0.000650302
0.000637872
0.000627083
0.000618142
0.000611341
0.000606923
0.000605461
0.000607356
0.00061223
0.000621125
0.000645209
0.000687289
0.000756429
0.000873618
0.00103668
0.00115526
0.00125529
0.00133884
0.00139886
0.00144216
0.00147421
0.00149522
0.00150755
0.00151304
0.00151232
0.00150692
0.00149831
0.00148805
0.00147615
0.0014628
0.00145353
0.0014523
0.00145769
0.00146826
0.00148315
0.00150175
0.00152342
0.00154755
0.00157335
0.00160004
0.00162692
0.00165331
0.00167882
0.00170313
0.0017261
0.00174759
0.0017675
0.00178571
0.00180201
0.00181627
0.00182834
0.00183785
0.00184436
0.0018466
0.00184337
0.00183148
0.00181116
0.00178412
0.00175472
0.00172532
0.00169388
0.00141421
0.00133449
0.00125806
0.00118562
0.0011185
0.00105681
0.00100257
0.000956444
0.000919541
0.000892674
0.000882463
0.000895517
0.000940277
0.00103114
0.00118791
0.00137888
0.00159309
0.00183955
0.00203721
0.00220108
0.00234695
0.00246952
0.00256965
0.00265258
0.00271915
0.00277126
0.00281202
0.00284361
0.00286799
0.00288707
0.00290216
0.00292502
0.00295984
0.00300502
0.00305974
0.00312327
0.00319472
0.00327288
0.00335603
0.00344221
0.00352944
0.00361576
0.00369972
0.00378038
0.00385715
0.00392973
0.00399785
0.00406119
0.00411946
0.00417252
0.0042202
0.00426172
0.0042965
0.00432285
0.00433836
0.00433607
0.00431656
0.0042807
0.00423438
0.00418014
0.00411612
0.00290416
0.00272541
0.00254389
0.00236211
0.0021822
0.00200659
0.00183846
0.00168115
0.00153881
0.00141449
0.00131464
0.00124605
0.00121482
0.00122843
0.00130106
0.00143647
0.00163355
0.00189156
0.00217138
0.00244968
0.0027392
0.00298558
0.00319493
0.00338237
0.00354423
0.00368219
0.00380216
0.00390711
0.00399998
0.00408448
0.00416366
0.00424175
0.00433066
0.00443479
0.00455394
0.00468795
0.0048362
0.00499718
0.00516838
0.00534641
0.0055276
0.00570805
0.00588471
0.00605524
0.00621833
0.00637304
0.00651882
0.00665487
0.00678091
0.00689659
0.00700218
0.00709661
0.0071789
0.00724735
0.00729911
0.00732651
0.00732931
0.0073085
0.00726635
0.0072036
0.00711619
0.0048787
0.0046269
0.00436204
0.00408503
0.00379796
0.00350325
0.00320434
0.002908
0.00262096
0.00235179
0.00211116
0.00190992
0.00175502
0.00165078
0.00160449
0.00162429
0.00171678
0.00188757
0.00212775
0.00241784
0.00274335
0.00307171
0.0033855
0.0036984
0.00396209
0.00419
0.00439535
0.00457865
0.00474476
0.00490119
0.00505319
0.00520619
0.00536566
0.00554338
0.00574359
0.00596713
0.00621392
0.00648243
0.00676913
0.00706889
0.0073759
0.00768379
0.00798711
0.00828153
0.00856423
0.0088333
0.00908706
0.00932418
0.00954426
0.00974699
0.00993238
0.0101
0.0102479
0.0103747
0.0104765
0.0105476
0.0105877
0.010596
0.0105714
0.0105114
0.0104099
0.00702618
0.00674311
0.00643989
0.00611375
0.0057653
0.00539524
0.00500479
0.00459776
0.00418269
0.00376956
0.00337379
0.00301166
0.00269591
0.00243516
0.00223581
0.00210433
0.00204798
0.00207384
0.00218544
0.002379
0.00264526
0.00296354
0.00330858
0.00366482
0.00400528
0.00432223
0.00462829
0.00488841
0.00512165
0.0053428
0.00555765
0.00577525
0.00600761
0.00626139
0.00654519
0.00686476
0.00722145
0.00761385
0.00803731
0.00848422
0.00894594
0.00941256
0.00987551
0.0103275
0.0107636
0.01118
0.0115739
0.0119421
0.0122842
0.0125989
0.0128871
0.0131472
0.0133786
0.0135797
0.0137447
0.0138718
0.0139592
0.014005
0.0140057
0.0139554
0.0138446
0.00916692
0.00888614
0.00858024
0.00824701
0.00788377
0.00748802
0.0070595
0.00659932
0.0061108
0.00560294
0.00508809
0.00458423
0.00410936
0.0036781
0.00330287
0.0029931
0.00275782
0.00260493
0.00254132
0.00257063
0.00269228
0.0028989
0.00317519
0.00350178
0.00385312
0.00420687
0.00455252
0.00487336
0.00517243
0.00546661
0.00573407
0.00599714
0.0062813
0.00659867
0.00695573
0.00736202
0.00782412
0.00834284
0.00891281
0.0095236
0.0101625
0.0108149
0.0114677
0.0121098
0.012733
0.0133307
0.0138971
0.0144283
0.0149212
0.0153753
0.0157892
0.016164
0.0164967
0.0167863
0.0170283
0.0172234
0.0173682
0.0174596
0.0174915
0.0174559
0.0173396
0.0112243
0.0109702
0.0106893
0.0103784
0.0100334
0.00965138
0.00922884
0.00876494
0.0082596
0.00771691
0.00714499
0.0065567
0.00596791
0.00539659
0.00485959
0.00437029
0.00394353
0.00359175
0.00332574
0.00315426
0.0030812
0.00310723
0.00322738
0.00343075
0.00369967
0.00401167
0.00434637
0.00468294
0.00501212
0.00533286
0.0056344
0.00593023
0.00626054
0.00661975
0.00702247
0.00749381
0.00804338
0.00867351
0.00938289
0.01016
0.0109871
0.0118444
0.0127109
0.0135724
0.014415
0.0152274
0.0160007
0.0167263
0.0174014
0.0180215
0.018588
0.0190979
0.0195515
0.0199442
0.0202788
0.0205553
0.0207672
0.020912
0.0209809
0.020968
0.0208517
0.0131839
0.0129784
0.0127476
0.0124833
0.0121787
0.0118359
0.0114459
0.011012
0.0105283
0.0100022
0.00943007
0.00881813
0.0081816
0.00753042
0.00688372
0.00624715
0.00564639
0.0050994
0.00462779
0.00424374
0.00394453
0.00374851
0.00365801
0.00367153
0.00377621
0.00395838
0.00419854
0.00447781
0.0047804
0.00510036
0.00540821
0.00571768
0.00604853
0.00641594
0.0068294
0.00733833
0.00794208
0.00865674
0.00947873
0.010409
0.0114147
0.0124854
0.0135756
0.014681
0.0157685
0.0168313
0.0178426
0.018798
0.0196841
0.0205025
0.0212467
0.0219169
0.0225048
0.0230205
0.0234634
0.0238334
0.0241213
0.0243333
0.0244448
0.0244691
0.0243581
0.0276624
0.0303607
0.0302505
0.0206689
0.0351726
0.00513117
0.00124479
0.0305448
0.00124931
0.00328182
0.0161758
0.00889496
0.00124477
0.050096
0.00473099
0.017301
0.00124807
0.0329817
0.0168242
0.00124531
0.0252105
0.0525034
0.0412955
0.00126006
0.00124712
0.00169669
0.00124539
0.0178447
0.00124717
0.00124809
0.069575
0.00124352
0.00275276
0.0453691
0.00904374
0.0149239
0.0084046
0.00616686
0.00124366
0.0930316
0.0160597
0.0298779
0.00124261
0.0171547
0.0243773
0.00748127
0.00124243
0.00155549
0.000619742
0.00911775
0.020556
0.0189864
0.00124231
0.00125075
0.00184366
0.00124216
0.00124803
0.0148805
0.00875684
0.0230774
0.0217652
0.00127106
0.0214243
0.00214786
0.0260968
0.0012422
0.00619882
0.0279715
0.00144906
0.00124201
0.000990952
0.0102327
0.016823
0.00124194
0.0014628
0.0540341
0.0263413
0.00940557
0.00124209
0.00940464
0.00145121
0.0899453
0.000822172
0.0134019
0.00124203
0.00547464
0.00124875
0.035735
0.00104873
0.00131905
0.00131645
0.001242
0.00126252
0.0220303
0.0254321
0.00125427
0.00808667
0.0429468
0.00170925
0.0212222
0.00124222
0.0484383
0.00628777
0.00124187
0.00124202
0.00124213
0.00403035
0.00532435
0.00125287
0.0226792
0.020759
0.00121634
0.0319985
0.0284273
0.0258907
0.0441183
0.00838549
0.00137299
0.0039361
0.00124461
0.00124193
0.0246638
0.00125545
0.0191469
0.0160195
0.0267783
0.00124225
0.00430494
0.00607946
0.00124238
0.00296247
0.00216314
0.0198424
0.00125138
0.0473217
0.00124213
0.00124202
0.0161903
0.0199161
0.00124273
0.024162
0.0241437
0.00160819
0.00744022
0.0233396
0.0645721
0.000565972
0.0213734
0.00204054
0.0355703
0.000424235
0.00124238
0.0110112
0.0131547
0.0239287
0.00124361
0.00124361
0.00481694
0.00124204
0.00556829
0.00189268
0.0015577
0.00124288
0.00124212
0.00124236
0.00785482
0.0252769
0.0161277
0.00125732
0.0400081
0.0171936
0.012721
0.0303924
0.00249867
0.0402169
0.0337827
0.0120281
0.0012429
0.00144843
0.0199355
0.0176661
0.0330513
0.0238126
0.001242
0.00125099
0.0361254
0.00230226
0.00835725
0.00124365
0.00124226
0.0040964
0.00127043
0.0215384
0.00236139
0.00124196
0.00483849
0.0215223
0.0380901
0.00146219
0.00445727
0.00124206
0.00124335
0.109168
0.0100349
0.0308576
0.00147374
0.00124897
0.00173146
0.0157229
0.00415784
0.00615382
0.0311898
0.000440193
0.0202573
0.00472491
0.0123791
0.018864
0.0397693
0.0084319
0.0368076
0.00124647
0.00364168
0.00124262
0.00124293
0.00879215
0.0018401
0.00189959
0.00124636
0.00242096
0.0107029
0.0466491
0.00291312
0.030857
0.00584825
0.0053782
0.00124304
0.0123108
0.00666465
0.004068
0.00141137
0.0712439
0.0260869
0.00680494
0.000923262
0.0193259
0.00913428
0.0130067
0.0166173
0.00133426
0.00124197
0.00128703
0.00237563
0.0139881
0.00124447
0.00125111
0.0012434
0.00334646
0.117924
0.0507264
0.020042
0.00048458
0.00827643
0.0197226
0.0014538
0.00586343
0.0705068
0.00124233
0.0271189
0.00124199
0.00555599
0.00340464
0.0273858
0.00140691
0.00124207
0.00633751
0.018229
0.00124248
0.00124289
0.00124459
0.00124859
0.00808413
0.0161521
0.00781008
0.00100643
0.0012425
0.00124276
0.00124195
0.0133389
0.0339762
0.00131242
0.015254
0.00486659
0.00253785
0.00124203
0.00479019
0.00124249
0.00294666
0.0179318
0.0235763
0.000459977
0.00124489
0.00131969
0.00932351
0.00291058
0.0186549
0.0192346
0.00126921
0.00124221
0.00124297
0.0170772
0.00124574
0.0589537
0.00124212
0.0228279
0.00112534
0.0012506
0.0298403
0.0114789
0.00132682
0.0182285
0.0907591
0.0179255
0.11407
0.000755839
0.0202241
0.0244328
0.118441
0.0142843
0.0153496
0.0168787
0.00343863
0.0200399
0.0200948
0.0185944
0.0316698
0.00131099
0.0389998
0.0305381
0.0184945
0.00296943
0.00126369
0.00124222
0.00125176
0.00406641
0.0082109
0.0733836
0.00398331
0.0012442
0.0231189
0.00124217
0.0280841
0.0106879
0.0195188
0.0976638
0.00440128
0.00128203
0.00128398
0.00938204
0.0465484
0.00148385
0.0116139
0.0350211
0.00796625
0.0115837
0.0440784
0.096532
0.00124884
0.0194089
0.025691
0.0166664
0.00124347
0.0261134
0.0244904
0.00124755
0.0297036
0.00124401
0.0165332
0.0753581
0.0232243
0.0117076
0.029262
0.0218935
0.00125851
0.0209083
0.00127633
0.0410845
0.0114348
0.0130975
0.0194216
0.00740596
0.00704037
0.0065995
0.00128101
0.0121793
0.019423
0.0018276
0.00130278
0.0246848
0.00127611
0.0123218
0.00124249
0.00124525
0.00172736
0.0141311
0.00125529
0.00952306
0.00124525
0.012701
0.00520648
0.026909
0.0186771
0.0116317
0.0249839
0.00127668
0.0190831
0.00802903
0.00124198
0.0111543
0.00962414
0.00124218
0.00124202
0.0144126
0.00184045
0.0871098
0.00753262
0.0401822
0.0031526
0.00441459
0.014297
0.0892604
0.00955935
0.0855044
0.0185353
0.00130472
0.0016329
0.00768992
0.0470248
0.0182516
0.0260593
0.0418369
0.00188866
0.0221733
0.0224487
0.00542126
0.0201207
0.0173996
0.0101466
0.00127108
0.011675
0.0179711
0.00132586
0.0754292
0.00721434
0.0180785
0.00219647
0.0016948
0.0441328
0.00127687
0.0186014
0.00130521
0.0101697
0.00124533
0.00525913
0.0185273
0.00668434
0.00130925
0.00133599
0.0468407
0.0234136
0.00124378
0.0216225
0.0337198
0.00957785
0.00130789
0.00779944
0.0223746
0.0500249
0.0241959
0.0118232
0.0141538
0.0817109
0.00879754
0.0012452
0.00123454
0.0188947
0.0159475
0.0181106
0.0197607
0.0012303
0.0286187
0.0465124
0.0012743
0.0210317
0.0316464
0.000757591
0.00267782
0.109924
0.0176701
0.00252944
0.0158649
0.00161505
0.00124205
0.00124212
0.0358049
0.0632367
0.00881247
0.00124205
0.0012458
0.00124204
0.0191763
0.0011306
0.00124228
0.00127868
0.111432
0.0278207
0.0015512
0.00157836
0.00124189
0.00124502
0.0012729
0.0136509
0.0166303
0.0403607
0.00694291
0.0229496
0.0129647
0.00160567
0.0801846
0.0116859
0.0168074
0.0115438
0.0139103
0.00127745
0.00147909
0.00124296
0.0137222
0.00151884
0.00124255
0.00857442
0.00337638
0.0200066
0.0012426
0.0219391
0.00323842
0.00204689
0.0210056
0.00124267
0.00124195