/*--------------------------------*- C++ -*----------------------------------*\
| =========                 |                                                 |
| \\      /  F ield         | OpenFOAM: The Open Source CFD Toolbox           |
|  \\    /   O peration     | Version:  2.3.1                                 |
|   \\  /    A nd           | Web:      www.OpenFOAM.org                      |
|    \\/     M anipulation  |                                                 |
\*---------------------------------------------------------------------------*/
FoamFile
{
    version     2.0;
    format      ascii;
    class       volVectorField;
    location    "0.04";
    object      U;
}
// * * * * * * * * * * * * * * * * * * * * * * * * * * * * * * * * * * * * * //

dimensions      [0 1 -1 0 0 0 0];

internalField   nonuniform List<vector> 
9648
(
(0.156528 -5.43635 -5.46183e-22)
(0.304429 -5.47254 1.00983e-22)
(0.453745 -5.50551 0)
(0.603896 -5.53596 0)
(0.754895 -5.5632 -1.57211e-21)
(0.907167 -5.58573 -6.14916e-21)
(1.06102 -5.60202 -2.85783e-21)
(1.21584 -5.61149 -2.64771e-21)
(1.37167 -5.61503 2.64805e-21)
(1.52895 -5.61462 1.20354e-20)
(1.68903 -5.6128 -1.20246e-20)
(1.85335 -5.61225 -2.11337e-20)
(2.02337 -5.6153 1.15798e-19)
(2.19982 -5.62411 3.27125e-20)
(2.38381 -5.6402 -3.04851e-19)
(2.57634 -5.6644 0)
(2.77857 -5.69696 0)
(2.99164 -5.73772 6.38792e-20)
(3.21666 -5.78606 2.09514e-19)
(3.45427 -5.84106 -6.06562e-19)
(3.7051 -5.90168 -1.91175e-20)
(3.96971 -5.96625 1.66451e-19)
(4.24808 -6.03331 2.09933e-19)
(4.54041 -6.10135 -9.64718e-19)
(4.84664 -6.16879 0)
(5.16661 -6.23394 5.97591e-19)
(5.49988 -6.2951 -6.26245e-19)
(5.84596 -6.35081 0)
(6.20423 -6.39934 0)
(6.5738 -6.43928 -3.961e-19)
(6.9539 -6.46911 -8.88956e-19)
(7.34342 -6.48744 1.40747e-18)
(7.74136 -6.49306 0)
(8.14654 -6.48467 0)
(8.55765 -6.46138 1.10105e-18)
(8.97352 -6.42209 -1.20326e-18)
(9.39263 -6.36606 0)
(9.8138 -6.29266 2.61643e-18)
(10.2356 -6.20114 7.15375e-19)
(10.6564 -6.09103 -2.116e-18)
(11.0747 -5.96193 4.823e-20)
(11.4892 -5.81389 1.5248e-18)
(11.8983 -5.64642 -2.04962e-18)
(12.3003 -5.45965 4.13319e-19)
(12.6942 -5.2539 0)
(13.0785 -5.029 0)
(13.4516 -4.7853 3.16507e-18)
(13.8121 -4.52327 4.65545e-19)
(14.1591 -4.24365 -1.44648e-18)
(14.4916 -3.94675 -4.88102e-19)
(14.8087 -3.63282 -5.11197e-19)
(15.109 -3.30234 5.07904e-19)
(15.3916 -2.95607 2.63823e-19)
(15.6549 -2.59539 -2.62329e-19)
(15.8979 -2.22187 1.34337e-18)
(16.1201 -1.83643 -1.32002e-18)
(16.3205 -1.44028 -1.68447e-20)
(16.4985 -1.03448 0)
(16.6535 -0.620229 -2.68478e-19)
(16.785 -0.199039 -3.48446e-20)
(16.8928 0.227963 -3.2747e-20)
(0.0408731 -3.9267 3.7127e-22)
(0.146162 -3.96419 0)
(0.250848 -3.99698 0)
(0.35511 -4.02756 -1.00644e-20)
(0.459544 -4.05684 5.92792e-21)
(0.565127 -4.08513 1.27677e-20)
(0.672827 -4.11337 0)
(0.783749 -4.14251 0)
(0.899144 -4.17417 -3.79093e-22)
(1.02061 -4.20978 0)
(1.14982 -4.25104 -2.05974e-20)
(1.28833 -4.29904 2.08934e-20)
(1.43761 -4.35528 -1.24565e-20)
(1.59853 -4.42104 0)
(1.77172 -4.49661 1.13487e-19)
(1.95752 -4.5818 6.80264e-20)
(2.1564 -4.67596 -6.74218e-20)
(2.36882 -4.77829 9.57363e-20)
(2.59534 -4.8877 -2.94178e-19)
(2.83621 -5.00288 2.54053e-19)
(3.0916 -5.12235 -2.88135e-19)
(3.36177 -5.24429 -1.61277e-19)
(3.64645 -5.36705 -1.60559e-19)
(3.94549 -5.48898 5.70175e-19)
(4.25862 -5.60844 1.9828e-19)
(4.58552 -5.72371 2.42163e-19)
(4.92567 -5.83315 -2.04195e-19)
(5.27842 -5.9353 0)
(5.64312 -6.02854 0)
(6.01882 -6.11158 0)
(6.40469 -6.18294 0)
(6.79967 -6.24137 0)
(7.20273 -6.28572 0)
(7.61281 -6.31482 0)
(8.02853 -6.32784 -5.01321e-19)
(8.44879 -6.32376 4.45562e-19)
(8.8722 -6.30193 4.99133e-19)
(9.29749 -6.26172 -2.54791e-18)
(9.72334 -6.20245 -5.46304e-19)
(10.1483 -6.12372 1.69192e-18)
(10.5709 -6.02523 1.19874e-18)
(10.9896 -5.90697 -1.24481e-18)
(11.4032 -5.76847 5.88534e-19)
(11.81 -5.60997 6.29101e-19)
(12.2088 -5.43167 -6.76006e-19)
(12.5982 -5.23349 6.69804e-19)
(12.9768 -5.01584 -1.4537e-18)
(13.3432 -4.7792 0)
(13.6961 -4.52436 -3.73182e-19)
(14.0345 -4.25171 7.50961e-19)
(14.3572 -3.96162 -3.77854e-19)
(14.663 -3.65472 0)
(14.9514 -3.33179 7.79818e-19)
(15.2215 -2.99383 0)
(15.4719 -2.6421 0)
(15.7018 -2.27755 1.86432e-18)
(15.9104 -1.90128 -8.41946e-19)
(16.097 -1.51457 -2.03472e-19)
(16.2609 -1.11825 2.16784e-19)
(16.4017 -0.713813 0)
(16.5188 -0.302376 5.44443e-20)
(0.10199 -3.3378 -7.47462e-22)
(0.19472 -3.37644 0)
(0.287882 -3.41179 3.22963e-21)
(0.381956 -3.44514 -9.2831e-22)
(0.478105 -3.47811 0)
(0.577465 -3.51154 -1.87235e-20)
(0.680762 -3.54669 -8.16619e-21)
(0.789191 -3.58433 0)
(0.904028 -3.62583 2.3005e-21)
(1.02663 -3.67223 2.18732e-21)
(1.15829 -3.72514 1.62749e-20)
(1.29995 -3.78552 -6.18881e-21)
(1.4526 -3.85457 0)
(1.61726 -3.93304 0)
(1.79471 -4.02118 7.0777e-20)
(1.98542 -4.11874 -5.28497e-20)
(2.18984 -4.22488 -5.62464e-20)
(2.40829 -4.33863 0)
(2.64099 -4.45875 2.52394e-19)
(2.88816 -4.58375 -2.62955e-19)
(3.1499 -4.71199 -2.02817e-19)
(3.42614 -4.8417 -2.29664e-19)
(3.71663 -4.97115 0)
(4.02101 -5.09866 -4.34107e-19)
(4.33891 -5.22254 -1.5502e-19)
(4.66986 -5.34115 1.89602e-19)
(5.01328 -5.45293 2.15299e-19)
(5.36852 -5.55642 0)
(5.7348 -5.65022 0)
(6.1112 -5.733 0)
(6.4968 -5.80349 0)
(6.89056 -5.86051 0)
(7.29148 -5.90296 0)
(7.69843 -5.9299 0)
(8.11015 -5.94051 -1.0492e-18)
(8.52546 -5.93396 3.48565e-19)
(8.94307 -5.90963 -3.90723e-19)
(9.36174 -5.86695 1.97297e-18)
(9.78016 -5.80542 0)
(10.197 -5.72472 8.48946e-19)
(10.6107 -5.62468 8.84212e-19)
(11.02 -5.50521 4.37688e-19)
(11.4234 -5.36609 -5.15403e-19)
(11.8197 -5.20746 -9.85011e-19)
(12.2074 -5.02948 1.54647e-18)
(12.5853 -4.8323 -5.2502e-19)
(12.952 -4.6163 -1.07561e-18)
(13.3063 -4.38193 0)
(13.6471 -4.1298 0)
(13.9734 -3.86045 -2.98618e-19)
(14.2839 -3.5746 -2.91294e-19)
(14.5775 -3.27316 -5.98075e-19)
(14.8535 -2.95708 -6.31171e-19)
(15.1109 -2.62725 0)
(15.3489 -2.28435 -6.23159e-19)
(15.5666 -1.92972 -6.53867e-19)
(15.7634 -1.56405 0)
(15.9384 -1.189 1.23452e-20)
(16.091 -0.805062 0)
(16.2209 -0.41375 0)
(16.3277 -0.0160434 -4.02999e-20)
(0.121131 -3.00841 1.33459e-21)
(0.205493 -3.05247 -3.04777e-21)
(0.291342 -3.09501 6.49767e-21)
(0.37889 -3.13686 2.19238e-21)
(0.469025 -3.17934 0)
(0.563082 -3.2233 8.19003e-21)
(0.662404 -3.26954 6.52849e-21)
(0.768342 -3.31865 0)
(0.882677 -3.37133 3.26277e-21)
(1.0068 -3.42846 -1.78721e-21)
(1.14233 -3.49103 3.93377e-21)
(1.29012 -3.56004 1.29456e-20)
(1.45088 -3.63644 0)
(1.62491 -3.72101 -2.35227e-20)
(1.81251 -3.81415 -5.34452e-20)
(2.01354 -3.91579 -3.04054e-20)
(2.22802 -4.02528 1.37483e-19)
(2.456 -4.14173 -1.02368e-19)
(2.69745 -4.26396 1.21019e-19)
(2.95258 -4.39042 2.16311e-19)
(3.22147 -4.51959 3.22785e-19)
(3.50386 -4.64978 1.91049e-19)
(3.79957 -4.77931 8.80121e-20)
(4.10812 -4.90656 3.46393e-19)
(4.42915 -5.02981 1.10641e-19)
(4.7622 -5.1475 1.3241e-19)
(5.10666 -5.25815 1.60987e-19)
(5.46197 -5.36034 -4.81366e-19)
(5.82731 -5.45282 3.50123e-19)
(6.2018 -5.53428 4.06788e-19)
(6.58461 -5.60351 -8.37126e-19)
(6.97468 -5.65946 4.30027e-19)
(7.37105 -5.70103 -4.64428e-19)
(7.77275 -5.72738 2.30929e-19)
(8.17853 -5.73778 2.59538e-19)
(8.58721 -5.73145 2.93197e-19)
(8.99766 -5.70774 -2.89601e-19)
(9.40866 -5.6662 -3.2158e-19)
(9.81897 -5.60634 -9.60843e-19)
(10.2273 -5.52792 -7.05131e-19)
(10.6324 -5.43084 -1.4332e-18)
(11.0327 -5.31493 -1.87079e-18)
(11.427 -5.18015 7.71546e-19)
(11.814 -5.02651 2.07253e-20)
(12.1925 -4.85419 -4.41624e-19)
(12.561 -4.66339 -4.32432e-19)
(12.9186 -4.45441 2.62058e-18)
(13.2638 -4.22773 -4.4026e-19)
(13.5958 -3.98384 0)
(13.9135 -3.72329 0)
(14.2159 -3.44671 -4.43778e-19)
(14.5018 -3.15508 2.32548e-20)
(14.7706 -2.8492 4.8257e-19)
(15.0212 -2.52993 0)
(15.2529 -2.19821 5.19482e-19)
(15.4648 -1.85515 0)
(15.6562 -1.50171 0)
(15.8264 -1.13877 3.96927e-19)
(15.975 -0.767566 1.25243e-19)
(16.1016 -0.389386 -1.27993e-19)
(16.2057 -0.0055354 6.56537e-20)
(0.151254 -2.77882 1.61687e-22)
(0.232311 -2.82915 2.46333e-21)
(0.315419 -2.87932 -8.47393e-21)
(0.401144 -2.92962 -5.52816e-21)
(0.490248 -2.9812 8.71456e-21)
(0.584337 -3.03462 -4.64289e-21)
(0.685001 -3.09056 7.65064e-22)
(0.793648 -3.14929 9.65689e-21)
(0.912353 -3.21125 -5.01929e-21)
(1.04229 -3.27702 6.00341e-21)
(1.18514 -3.34724 -7.11907e-21)
(1.34141 -3.42268 -6.9382e-21)
(1.51181 -3.50399 -5.62843e-21)
(1.69614 -3.59191 0)
(1.89459 -3.68683 3.07042e-20)
(2.10641 -3.78905 2.22017e-20)
(2.33129 -3.89804 0)
(2.56903 -4.01309 7.00144e-20)
(2.81931 -4.13312 0)
(3.08234 -4.25656 -1.13138e-19)
(3.35827 -4.38208 1.20486e-19)
(3.6466 -4.50824 3.14024e-21)
(3.94725 -4.63336 -1.44873e-20)
(4.25953 -4.75601 1.88773e-20)
(4.58316 -4.87438 -3.95215e-19)
(4.91772 -4.98702 -2.32516e-19)
(5.26253 -5.09252 4.8351e-19)
(5.61722 -5.18947 5.32002e-19)
(5.98091 -5.27684 -2.96408e-19)
(6.35274 -5.35329 0)
(6.73201 -5.41771 0)
(7.11758 -5.46914 0)
(7.50862 -5.50646 3.93478e-19)
(7.90426 -5.52892 -1.62825e-18)
(8.30327 -5.53595 8.61506e-19)
(8.70445 -5.52672 -4.40339e-19)
(9.10689 -5.50055 -9.6246e-19)
(9.5093 -5.45718 9.80859e-19)
(9.91056 -5.39605 2.91587e-20)
(10.3096 -5.317 -5.68398e-19)
(10.705 -5.22006 5.93501e-19)
(11.0955 -5.10503 6.17296e-19)
(11.4797 -4.9719 0)
(11.8564 -4.82061 -6.29317e-19)
(12.2244 -4.65139 0)
(12.5826 -4.46443 -1.02045e-18)
(12.9297 -4.25999 3.10776e-19)
(13.2647 -4.03854 0)
(13.5867 -3.80042 -3.77369e-19)
(13.8944 -3.54633 -1.06477e-20)
(14.1872 -3.27677 8.14823e-19)
(14.464 -2.99272 -3.84062e-19)
(14.7239 -2.69501 -2.17707e-19)
(14.9662 -2.38446 3.93186e-19)
(15.19 -2.06211 -3.46913e-21)
(15.3946 -1.7288 2.0674e-19)
(15.5789 -1.38561 9.93498e-20)
(15.7426 -1.03338 2.11504e-19)
(15.8854 -0.673074 -5.31751e-19)
(16.0068 -0.306011 2.13606e-19)
(16.1063 0.0664704 -2.74157e-20)
(0.18907 -2.59596 -6.35968e-22)
(0.26915 -2.65372 0)
(0.351461 -2.71156 1.14481e-20)
(0.437568 -2.7703 0)
(0.527426 -2.83069 -5.71612e-21)
(0.623397 -2.89312 -1.69282e-20)
(0.727053 -2.95814 -1.0781e-20)
(0.839994 -3.02579 -1.71458e-20)
(0.964606 -3.09631 2.34504e-21)
(1.10179 -3.17005 2.12046e-21)
(1.25342 -3.24726 -4.07864e-21)
(1.41951 -3.32851 1.91309e-21)
(1.60082 -3.41404 4.83334e-21)
(1.7965 -3.5044 -1.43488e-20)
(2.00691 -3.59992 2.69721e-20)
(2.23059 -3.70143 -9.21671e-21)
(2.46663 -3.80836 -3.85015e-20)
(2.71491 -3.92025 -6.01517e-20)
(2.97442 -4.03622 0)
(3.24561 -4.15452 7.54014e-20)
(3.52885 -4.27418 2.13534e-21)
(3.82311 -4.39417 -2.31622e-19)
(4.12873 -4.51272 -1.51143e-20)
(4.44455 -4.6288 -1.2076e-19)
(4.7704 -4.74034 4.67936e-19)
(5.10607 -4.84604 2.0133e-20)
(5.45059 -4.94464 -1.81949e-19)
(5.80409 -5.03458 -3.22714e-20)
(6.16549 -5.11525 0)
(6.5339 -5.1852 0)
(6.90898 -5.24331 0)
(7.28929 -5.28899 0)
(7.67413 -5.32086 0)
(8.06298 -5.33825 4.22351e-20)
(8.45449 -5.34091 -3.61318e-19)
(8.84723 -5.32796 -2.49213e-20)
(9.24081 -5.29844 2.27494e-20)
(9.63376 -5.25249 3.73952e-19)
(10.0251 -5.18938 8.87544e-19)
(10.414 -5.109 -1.34059e-18)
(10.799 -5.01171 9.44032e-19)
(11.1788 -4.89714 -4.77164e-19)
(11.5519 -4.76545 0)
(11.9175 -4.61623 5.43787e-19)
(12.2745 -4.4499 0)
(12.6214 -4.2667 5.79825e-19)
(12.9575 -4.06662 -5.96801e-19)
(13.2814 -3.85051 2.77152e-19)
(13.5924 -3.61825 3.00499e-19)
(13.8896 -3.37064 -3.16523e-19)
(14.1721 -3.10814 2.69414e-20)
(14.4391 -2.83193 -7.63692e-21)
(14.6896 -2.54252 6.48263e-19)
(14.9231 -2.24094 -6.71313e-19)
(15.1386 -1.92813 -3.30748e-19)
(15.3353 -1.60521 -1.61505e-19)
(15.5123 -1.27287 -5.19281e-19)
(15.6691 -0.931849 0)
(15.8057 -0.58294 3.51656e-19)
(15.9216 -0.227715 -9.06575e-20)
(16.0163 0.132638 0)
(0.237426 -2.43719 0)
(0.31717 -2.50293 0)
(0.399798 -2.56882 -5.34256e-21)
(0.487451 -2.63611 1.20342e-20)
(0.579205 -2.70536 4.81658e-21)
(0.678155 -2.77646 2.66213e-20)
(0.786172 -2.85012 -1.13613e-20)
(0.904269 -2.92596 1.84736e-20)
(1.03628 -3.00432 6.06058e-22)
(1.18144 -3.08531 -2.61311e-20)
(1.34307 -3.16892 2.32753e-20)
(1.51942 -3.25564 0)
(1.71243 -3.34505 0)
(1.91942 -3.4376 8.57857e-21)
(2.14251 -3.53301 1.57373e-20)
(2.37843 -3.63334 -4.86752e-20)
(2.62584 -3.73756 8.20576e-20)
(2.88518 -3.84547 4.42569e-20)
(3.15391 -3.9567 -8.81377e-20)
(3.43305 -4.06875 -6.54432e-20)
(3.72408 -4.18118 7.86769e-20)
(4.02394 -4.29388 -9.7586e-21)
(4.33485 -4.40441 0)
(4.65388 -4.51298 2.32887e-19)
(4.98161 -4.61658 -3.93433e-19)
(5.31831 -4.71413 1.30326e-19)
(5.66181 -4.80491 2.9342e-19)
(6.01383 -4.88656 -8.53521e-19)
(6.37259 -4.95957 1.75284e-19)
(6.7368 -5.02213 0)
(7.1074 -5.07276 0)
(7.48182 -5.11206 0)
(7.85969 -5.13773 2.60193e-19)
(8.24138 -5.14905 8.12817e-19)
(8.62502 -5.1467 -5.4996e-19)
(9.00836 -5.12977 3.11805e-19)
(9.39267 -5.09599 3.50926e-19)
(9.77547 -5.0471 -6.94526e-19)
(10.156 -4.98153 0)
(10.5342 -4.89901 -7.15835e-19)
(10.908 -4.8011 3.76699e-19)
(11.2766 -4.68659 2.48812e-20)
(11.6379 -4.55631 -2.20064e-20)
(11.9917 -4.40871 4.25624e-19)
(12.337 -4.24491 2.21117e-20)
(12.6719 -4.0655 -1.38101e-18)
(12.9964 -3.86955 4.70357e-19)
(13.3085 -3.65883 -9.8609e-19)
(13.6079 -3.43216 0)
(13.8934 -3.19119 0)
(14.1651 -2.93539 1.05759e-18)
(14.4215 -2.66711 -2.50762e-19)
(14.6619 -2.38612 -5.53277e-19)
(14.8859 -2.09332 -2.64233e-19)
(15.0926 -1.79025 8.54748e-19)
(15.2809 -1.47797 4.32163e-19)
(15.4501 -1.1567 1.50385e-19)
(15.5993 -0.827495 -3.36905e-21)
(15.7289 -0.490091 -1.50705e-19)
(15.839 -0.146597 0)
(15.9287 0.201147 0)
(0.297978 -2.29097 8.97823e-22)
(0.378545 -2.36581 0)
(0.461624 -2.43946 0)
(0.552074 -2.51586 -5.48156e-21)
(0.645446 -2.59382 0)
(0.748252 -2.6737 -2.29511e-20)
(0.861358 -2.75539 -1.06453e-20)
(0.984742 -2.83862 2.29321e-20)
(1.12585 -2.92411 0)
(1.2788 -3.01153 1.54331e-20)
(1.45187 -3.1008 5.99513e-21)
(1.63813 -3.19269 0)
(1.84392 -3.28559 0)
(2.06078 -3.38049 -3.26613e-22)
(2.29742 -3.47454 -1.13076e-21)
(2.54598 -3.57366 -1.35811e-20)
(2.80392 -3.67483 -2.13376e-20)
(3.07501 -3.77834 0)
(3.35219 -3.88511 3.88411e-20)
(3.63864 -3.9902 -7.76963e-20)
(3.9387 -4.0943 -9.79733e-20)
(4.24268 -4.19949 -1.37744e-19)
(4.55969 -4.30073 -2.2284e-20)
(4.8813 -4.40174 -1.86465e-19)
(5.21059 -4.49668 1.81841e-19)
(5.54897 -4.5852 2.08363e-19)
(5.88995 -4.66802 -2.56666e-19)
(6.24073 -4.74001 2.53211e-20)
(6.59676 -4.80507 2.79908e-20)
(6.95527 -4.86017 -3.07651e-19)
(7.32145 -4.90216 0)
(7.6893 -4.9352 -3.94976e-19)
(8.05959 -4.95398 7.81186e-19)
(8.43411 -4.958 -3.27979e-20)
(8.80982 -4.95068 4.82123e-19)
(9.182 -4.93071 -4.75138e-19)
(9.55754 -4.89134 5.3939e-19)
(9.9296 -4.83972 5.67159e-19)
(10.2982 -4.7716 -1.12315e-18)
(10.6657 -4.68604 6.30708e-19)
(11.0274 -4.58814 6.16522e-19)
(11.3848 -4.47324 9.88807e-19)
(11.7331 -4.34462 -3.58308e-19)
(12.0745 -4.19752 0)
(12.4078 -4.03599 2.41105e-20)
(12.7296 -3.86116 3.98054e-19)
(13.0425 -3.66864 -3.84964e-19)
(13.3415 -3.46458 4.22094e-19)
(13.6288 -3.24317 0)
(13.9016 -3.0097 0)
(14.1619 -2.75988 -2.821e-20)
(14.4071 -2.50011 4.63e-19)
(14.6365 -2.22684 0)
(14.8504 -1.94258 2.30397e-19)
(15.0479 -1.64982 2.33101e-19)
(15.2273 -1.34893 -4.77013e-19)
(15.3884 -1.03896 -2.33379e-19)
(15.5289 -0.722415 -1.25488e-19)
(15.6504 -0.395877 0)
(15.7545 -0.0645293 0)
(15.8385 0.269568 1.49118e-20)
(0.373742 -2.15087 -2.55427e-21)
(0.457719 -2.23539 6.16794e-21)
(0.539434 -2.3159 2.62444e-22)
(0.634845 -2.40436 -1.16509e-20)
(0.727823 -2.489 2.39295e-20)
(0.833842 -2.57936 -1.41529e-20)
(0.952689 -2.66811 0)
(1.08045 -2.75654 2.78848e-21)
(1.23364 -2.8498 2.34405e-20)
(1.39164 -2.94175 0)
(1.57952 -3.03601 -3.2779e-20)
(1.77273 -3.13257 1.2385e-20)
(1.99356 -3.22865 -1.4842e-20)
(2.21733 -3.32667 -1.39329e-20)
(2.46907 -3.41619 9.64044e-22)
(2.72957 -3.51564 -4.17229e-21)
(2.99512 -3.61348 2.59974e-20)
(3.28287 -3.71074 -3.2382e-20)
(3.56492 -3.81345 0)
(3.85359 -3.91345 -5.80447e-22)
(4.16823 -4.00856 2.16715e-19)
(4.46908 -4.10816 -2.20801e-20)
(4.8006 -4.19559 -1.37917e-19)
(5.12075 -4.2891 2.56759e-19)
(5.45012 -4.37691 0)
(5.79306 -4.45614 -1.77735e-19)
(6.12593 -4.5319 -1.76437e-19)
(6.47748 -4.59278 4.19393e-19)
(6.83195 -4.6507 -4.27797e-22)
(7.18107 -4.6999 2.69245e-19)
(7.54612 -4.72953 -5.46921e-19)
(7.90427 -4.75716 8.82558e-19)
(8.26476 -4.77071 -6.52151e-19)
(8.63276 -4.76815 -6.91989e-19)
(9.0032 -4.75429 0)
(9.35994 -4.73202 4.11197e-19)
(9.73157 -4.68421 0)
(10.0899 -4.63241 -3.74021e-21)
(10.4451 -4.56469 5.1066e-19)
(10.8046 -4.47262 -9.32603e-19)
(11.1527 -4.37435 -5.58763e-21)
(11.5008 -4.25806 -1.06416e-18)
(11.8312 -4.13378 0)
(12.16 -3.98904 -3.16089e-19)
(12.4822 -3.82992 1.20195e-18)
(12.787 -3.66096 -3.07292e-19)
(13.0924 -3.47063 3.30779e-19)
(13.375 -3.27531 0)
(13.6524 -3.05823 3.43562e-19)
(13.9099 -2.83237 -1.03898e-18)
(14.1601 -2.58422 -1.79379e-20)
(14.3928 -2.33306 0)
(14.6093 -2.07045 3.61817e-19)
(14.8139 -1.79561 -1.33983e-20)
(15.0026 -1.50994 0)
(15.1702 -1.21913 2.10233e-19)
(15.3252 -0.926195 -1.87463e-19)
(15.4543 -0.624474 1.98705e-19)
(15.5661 -0.310098 1.96765e-19)
(15.6665 0.0129745 -9.91903e-20)
(15.7421 0.333525 -3.75257e-20)
(16.9764 0.659829 1.02337e-19)
(17.0352 1.09506 -3.47678e-20)
(17.069 1.533 0)
(17.0776 1.97236 0)
(17.0614 2.41116 5.47891e-19)
(17.0208 2.84815 7.81342e-19)
(16.9556 3.28172 -8.04756e-19)
(16.866 3.71038 -2.63335e-19)
(16.7519 4.1331 2.63321e-19)
(16.6139 4.54878 5.08734e-19)
(16.4522 4.95668 -5.0912e-19)
(16.2675 5.3552 -4.87039e-19)
(16.0612 5.74257 2.41398e-18)
(15.8338 6.11791 4.61773e-19)
(15.5855 6.48021 -4.04463e-18)
(15.3171 6.82814 0)
(15.0294 7.16083 0)
(14.7235 7.4774 4.00729e-19)
(14.4002 7.77732 1.16989e-18)
(14.0603 8.05948 -2.94663e-18)
(13.7052 8.32354 -5.48979e-20)
(13.3355 8.56954 6.43743e-19)
(12.9516 8.79614 6.57516e-19)
(12.5552 9.00159 -2.32832e-18)
(12.1481 9.18532 0)
(11.7315 9.34707 1.01633e-18)
(11.3063 9.48635 -8.81415e-19)
(10.8741 9.60278 0)
(10.4359 9.6962 0)
(9.99329 9.76627 -3.47026e-19)
(9.54731 9.8131 -5.44542e-19)
(9.0992 9.83639 6.9321e-19)
(8.65039 9.83628 0)
(8.20192 9.81281 0)
(7.75521 9.76594 1.07697e-19)
(7.31137 9.69604 -3.17883e-20)
(6.87168 9.60316 0)
(6.43741 9.48782 -3.83948e-19)
(6.00958 9.35033 -1.69396e-19)
(5.5894 9.19103 5.85141e-19)
(5.17799 9.01037 1.72161e-20)
(4.77665 8.80895 -6.2464e-19)
(4.38618 8.58744 9.07519e-19)
(4.00769 8.34619 -1.93564e-19)
(3.64224 8.08605 0)
(3.2906 7.8078 0)
(2.95374 7.51208 -1.98672e-18)
(2.63259 7.1999 -2.993e-19)
(2.3281 6.8723 9.96147e-19)
(2.04097 6.53049 3.50175e-19)
(1.77185 6.17546 3.92763e-19)
(1.52154 5.80834 -3.99009e-19)
(1.2907 5.43034 -2.18946e-19)
(1.07955 5.04291 2.22601e-19)
(0.888526 4.64709 -1.18765e-18)
(0.717606 4.24443 1.22935e-18)
(0.56701 3.83616 1.69331e-21)
(0.436788 3.42407 0)
(0.32698 3.00966 2.73347e-19)
(0.237593 2.59473 3.5401e-20)
(0.168414 2.18158 3.60136e-20)
(16.612 0.114831 -5.44317e-20)
(16.6806 0.53637 0)
(16.7241 0.960399 0)
(16.7428 1.38482 6.1639e-19)
(16.7372 1.80874 -4.11576e-19)
(16.7075 2.23142 -1.44696e-18)
(16.6538 2.65148 0)
(16.576 3.06737 0)
(16.4741 3.4781 -7.72329e-19)
(16.3481 3.88214 0)
(16.1987 4.27812 -1.11473e-18)
(16.0271 4.66421 7.35589e-19)
(15.834 5.04036 -3.6355e-19)
(15.6194 5.40576 0)
(15.3838 5.75931 1.40887e-18)
(15.1279 6.09961 6.41717e-19)
(14.8525 6.42554 -6.43134e-19)
(14.5586 6.73594 5.91494e-19)
(14.2469 7.03012 -1.73282e-18)
(13.9186 7.30694 1.15306e-18)
(13.5746 7.56543 -1.09468e-18)
(13.2156 7.80551 -5.56938e-19)
(12.8429 8.02667 -4.792e-19)
(12.458 8.22777 1.33851e-18)
(12.0621 8.40778 4.15847e-19)
(11.6561 8.56624 3.46532e-19)
(11.2412 8.70272 -2.95074e-19)
(10.8188 8.81672 0)
(10.3902 8.90805 0)
(9.95665 8.97625 0)
(9.51939 9.02137 0)
(9.07971 9.04315 0)
(8.63896 9.04154 0)
(8.19823 9.01665 0)
(7.75901 8.96838 -4.34061e-20)
(7.3224 8.89695 1.00641e-20)
(6.88976 8.80246 -6.95955e-20)
(6.46228 8.68529 4.16103e-19)
(6.04108 8.54584 1.4978e-19)
(5.62744 8.38441 -4.7644e-19)
(5.22253 8.20141 -4.07616e-19)
(4.82761 7.99738 4.89938e-19)
(4.44358 7.77295 -2.74601e-19)
(4.07166 7.52852 -3.13507e-19)
(3.71286 7.2648 3.88433e-19)
(3.36801 6.98252 -3.93368e-19)
(3.03806 6.6824 8.935e-19)
(2.72399 6.36532 0)
(2.42672 6.03232 2.6989e-19)
(2.14708 5.68447 -5.61687e-19)
(1.88573 5.32283 2.92173e-19)
(1.64356 4.94848 0)
(1.42135 4.56261 -6.63413e-19)
(1.21939 4.16649 0)
(1.03847 3.76107 0)
(0.878584 3.34789 -1.71443e-18)
(0.740181 2.92817 7.92238e-19)
(0.623142 2.50359 2.0361e-19)
(0.527867 2.07528 -2.11908e-19)
(0.454226 1.64477 0)
(0.402184 1.2135 -5.58654e-20)
(16.4111 0.386524 4.02771e-20)
(16.4711 0.793139 0)
(16.5078 1.20155 -1.60076e-19)
(16.5205 1.60991 -1.22888e-20)
(16.509 2.01711 0)
(16.474 2.42252 1.27485e-18)
(16.4157 2.82539 6.17773e-19)
(16.3338 3.2256 0)
(16.2282 3.62053 2.36979e-20)
(16.0998 4.00838 5.86892e-19)
(15.9495 4.38771 8.87589e-19)
(15.7774 4.75677 -2.90348e-19)
(15.5836 5.11537 0)
(15.3691 5.46286 0)
(15.1345 5.79825 1.02586e-18)
(14.8807 6.12044 -4.97185e-19)
(14.6083 6.42837 -4.54669e-19)
(14.3182 6.72107 0)
(14.0113 6.99777 1.34559e-18)
(13.6885 7.25753 -1.26496e-18)
(13.351 7.49945 -7.83839e-19)
(12.9998 7.72273 -7.37474e-19)
(12.6359 7.92652 0)
(12.2605 8.11045 -9.97015e-19)
(11.8747 8.27397 -3.16853e-19)
(11.4794 8.41659 2.62661e-19)
(11.0759 8.53783 2.48001e-19)
(10.6654 8.63734 0)
(10.2492 8.71486 0)
(9.82862 8.77009 0)
(9.40476 8.80288 0)
(8.97885 8.81317 0)
(8.55214 8.80091 0)
(8.12585 8.76613 0)
(7.70128 8.70883 -4.19455e-20)
(7.27956 8.62915 1.55526e-21)
(6.86193 8.52726 5.92323e-20)
(6.44955 8.40348 -3.59808e-19)
(6.04354 8.25821 0)
(5.64513 8.09179 -2.75554e-19)
(5.25545 7.90467 -3.35542e-19)
(4.87564 7.69737 -1.84573e-19)
(4.50673 7.47043 2.40127e-19)
(4.14978 7.22434 5.13125e-19)
(3.80575 6.95977 -8.69898e-19)
(3.4755 6.67731 3.0203e-19)
(3.15982 6.37775 6.84529e-19)
(2.85961 6.06194 0)
(2.57564 5.7309 0)
(2.30879 5.38554 2.17885e-19)
(2.05972 5.02691 2.28197e-19)
(1.82915 4.65611 4.73772e-19)
(1.61779 4.27415 5.04426e-19)
(1.42606 3.8823 0)
(1.25475 3.48142 5.42711e-19)
(1.10393 3.07304 5.71954e-19)
(0.974034 2.65813 0)
(0.864972 2.23834 -4.57718e-21)
(0.777265 1.8146 0)
(0.710678 1.38819 0)
(0.665514 0.959939 4.06115e-20)
(16.2871 0.382986 -6.56123e-20)
(16.3455 0.774704 1.27723e-19)
(16.381 1.16878 -2.50702e-19)
(16.3934 1.56414 -1.3586e-19)
(16.3825 1.95923 0)
(16.348 2.35267 -5.21503e-19)
(16.2894 2.74369 -5.15329e-19)
(16.2081 3.13143 0)
(16.105 3.51468 2.45092e-20)
(15.9799 3.89154 -4.88798e-19)
(15.8331 4.26072 9.08723e-19)
(15.6648 4.62129 8.86328e-19)
(15.4753 4.97164 0)
(15.2657 5.3108 -4.21738e-19)
(15.0365 5.63783 -8.3214e-19)
(14.7885 5.95162 -4.07545e-19)
(14.5225 6.25126 1.16671e-18)
(14.2392 6.53587 -7.36094e-19)
(13.9395 6.8047 7.02094e-19)
(13.6244 7.05697 9.92776e-19)
(13.2949 7.29188 1.26185e-18)
(12.952 7.50866 6.10251e-19)
(12.5968 7.70646 2.70791e-19)
(12.2303 7.88471 7.95866e-19)
(11.8536 8.04294 2.31676e-19)
(11.4678 8.18068 2.25293e-19)
(11.0739 8.2975 1.81002e-19)
(10.6733 8.39313 -5.09582e-19)
(10.2673 8.46723 2.83408e-19)
(9.85693 8.51956 2.25859e-19)
(9.4435 8.54993 -4.06294e-19)
(9.02811 8.55834 1.80243e-19)
(8.61202 8.54472 -9.98949e-20)
(8.19642 8.50917 3.44157e-20)
(7.78261 8.45161 1.868e-20)
(7.37167 8.37217 -2.94037e-20)
(6.9648 8.27103 2.96076e-20)
(6.56307 8.1485 4.91498e-20)
(6.16764 8.00499 2.61925e-19)
(5.77972 7.84088 2.24444e-19)
(5.40042 7.65658 5.51093e-19)
(5.03079 7.45266 8.18162e-19)
(4.67199 7.22963 -3.69265e-19)
(4.325 6.98799 -3.89316e-22)
(3.99076 6.72837 2.4198e-19)
(3.67018 6.45128 2.62856e-19)
(3.36383 6.15757 -1.65126e-18)
(3.07264 5.84802 2.87304e-19)
(2.79722 5.52369 0)
(2.53858 5.1854 0)
(2.2972 4.83408 3.51227e-19)
(2.07385 4.47094 -5.02864e-21)
(1.86921 4.09683 -3.92449e-19)
(1.68366 3.71302 0)
(1.5181 3.32029 -4.32549e-19)
(1.37241 2.92012 0)
(1.24719 2.51354 0)
(1.14211 2.10192 -3.57451e-19)
(1.058 1.68635 -1.20264e-19)
(0.994475 1.26782 1.23246e-19)
(0.952405 0.847089 -6.34201e-20)
(16.1836 0.443343 1.36373e-21)
(16.2385 0.823406 -1.09393e-19)
(16.271 1.20567 3.18947e-19)
(16.2809 1.589 2.10833e-19)
(16.2682 1.97223 -3.08993e-19)
(16.2327 2.35417 2.06038e-19)
(16.1748 2.73318 -2.55721e-21)
(16.0949 3.10721 -3.95397e-19)
(15.9929 3.47625 5.98689e-19)
(15.8698 3.83924 -7.74449e-19)
(15.7257 4.19504 7.16039e-19)
(15.5607 4.54245 -7.68863e-19)
(15.3755 4.8802 -3.64053e-19)
(15.1707 5.20735 0)
(14.947 5.52271 3.68432e-19)
(14.7052 5.82517 3.00052e-19)
(14.4458 6.11399 0)
(14.1697 6.38817 5.78569e-19)
(13.8776 6.64703 0)
(13.5705 6.8899 -5.55205e-19)
(13.2495 7.11592 4.59122e-19)
(12.9157 7.3244 -3.14386e-20)
(12.57 7.51447 -2.98972e-20)
(12.2133 7.68549 -3.78967e-21)
(11.8468 7.83704 -7.8342e-19)
(11.4713 7.96866 -3.22002e-19)
(11.0881 8.07996 6.08881e-19)
(10.6983 8.17076 5.05854e-19)
(10.3032 8.24069 -2.41941e-19)
(9.9041 8.28952 0)
(9.50204 8.31694 0)
(9.09805 8.3231 0)
(8.69345 8.30789 8.51418e-20)
(8.28939 8.27149 -1.22626e-19)
(7.88724 8.21369 -3.86932e-21)
(7.48793 8.13462 2.18103e-20)
(7.09261 8.03445 1.87216e-19)
(6.70232 7.91343 -2.26798e-19)
(6.31808 7.7721 8.0831e-21)
(5.94123 7.61081 2.18191e-19)
(5.57281 7.4299 -2.14516e-19)
(5.21378 7.23003 -2.75461e-19)
(4.86542 7.01167 0)
(4.52868 6.77532 3.54133e-19)
(4.20445 6.52162 0)
(3.89377 6.25088 6.47675e-19)
(3.59687 5.96407 -2.20829e-19)
(3.31474 5.66189 0)
(3.04777 5.34543 2.72391e-19)
(2.79728 5.01545 1.33144e-20)
(2.56345 4.67272 -6.0201e-19)
(2.34704 4.31845 3.10414e-19)
(2.14888 3.95344 1.74366e-19)
(1.96906 3.57894 -3.34506e-19)
(1.80889 3.19569 4.36346e-21)
(1.66773 2.805 -1.81531e-19)
(1.54667 2.40796 -9.25767e-20)
(1.44486 2.00593 -1.94499e-19)
(1.36368 1.59999 4.98449e-19)
(1.30247 1.19112 -2.04033e-19)
(1.26281 0.779977 2.61949e-20)
(16.0896 0.497086 2.27067e-20)
(16.1411 0.864519 0)
(16.1707 1.23392 -3.51398e-19)
(16.1785 1.60428 0)
(16.1643 1.97435 1.74224e-19)
(16.1283 2.34288 5.0539e-19)
(16.0706 2.70859 3.29205e-19)
(15.9914 3.07052 6.66902e-19)
(15.891 3.42726 6.06761e-21)
(15.77 3.77797 -6.60012e-21)
(15.6286 4.12133 -4.44529e-20)
(15.4673 4.45639 -3.08793e-19)
(15.2863 4.78205 2.91814e-19)
(15.0863 5.09748 -8.49099e-19)
(14.8682 5.40151 5.72912e-19)
(14.6326 5.69296 -3.37815e-20)
(14.38 5.97107 -4.96824e-19)
(14.1111 6.2349 -5.06541e-19)
(13.8267 6.48388 0)
(13.5278 6.71751 4.266e-19)
(13.2156 6.93483 -2.89225e-20)
(12.8909 7.13523 -8.06264e-19)
(12.5549 7.31781 8.19482e-23)
(12.2085 7.4817 -2.94523e-19)
(11.8523 7.62673 8.73991e-19)
(11.4877 7.75239 -3.10315e-20)
(11.1153 7.8583 -2.60201e-19)
(10.7366 7.94452 -4.345e-20)
(10.3529 8.01052 0)
(9.9652 8.05617 0)
(9.57485 8.08087 0)
(9.18249 8.08512 0)
(8.78969 8.06865 0)
(8.39742 8.03191 2.85783e-20)
(8.00737 7.97436 3.09453e-20)
(7.62007 7.89615 3.3101e-20)
(7.23674 7.79745 3.20882e-20)
(6.8583 7.67837 -1.28301e-19)
(6.48551 7.53972 -3.07849e-19)
(6.11998 7.38183 5.46276e-19)
(5.76274 7.20484 -4.09628e-19)
(5.41445 7.00961 2.48859e-19)
(5.07668 6.79659 0)
(4.75036 6.56622 -3.0995e-19)
(4.43625 6.3193 0)
(4.13579 6.05563 -3.73058e-19)
(3.84835 5.7765 4.03552e-19)
(3.57556 5.48247 -2.08822e-19)
(3.31705 5.17485 -2.24024e-19)
(3.07488 4.85411 2.49304e-19)
(2.8487 4.52089 5.09809e-21)
(2.6393 4.17655 9.75244e-21)
(2.44777 3.82151 -5.58277e-19)
(2.27362 3.45731 5.88171e-19)
(2.11891 3.08428 3.02972e-19)
(1.98207 2.70407 1.53972e-19)
(1.86522 2.31746 4.85863e-19)
(1.76617 1.92603 0)
(1.68775 1.53086 -3.41856e-19)
(1.6284 1.13311 8.79261e-20)
(1.59089 0.733149 0)
(15.9974 0.552854 0)
(16.0451 0.907209 0)
(16.0716 1.26354 1.51031e-19)
(16.0769 1.62049 -2.8629e-19)
(16.061 1.97716 -1.47922e-19)
(16.0242 2.33235 -7.13828e-19)
(15.9666 2.68463 2.73133e-19)
(15.888 3.0329 -5.67392e-19)
(15.7889 3.37653 1.17121e-20)
(15.6701 3.71438 7.881e-19)
(15.5317 4.04487 -1.04598e-18)
(15.374 4.36717 0)
(15.1972 4.68012 0)
(15.0021 4.98356 9.59075e-19)
(14.7896 5.27605 4.5357e-19)
(14.5605 5.55586 -9.20295e-19)
(14.3149 5.82281 1.28998e-18)
(14.0535 6.07585 3.96548e-19)
(13.777 6.31447 -7.7e-19)
(13.4863 6.53861 -3.80144e-19)
(13.183 6.74682 3.3196e-19)
(12.8678 6.93898 -5.07535e-20)
(12.5419 7.11391 0)
(12.2062 7.27022 5.72554e-19)
(11.8608 7.40846 -7.57786e-19)
(11.5073 7.52792 2.36707e-19)
(11.1464 7.62809 3.74387e-19)
(10.779 7.70963 -8.42438e-19)
(10.4071 7.77148 1.57898e-19)
(10.0313 7.81404 0)
(9.65326 7.83574 0)
(9.27277 7.8382 0)
(8.89231 7.82033 1.79624e-20)
(8.51206 7.78367 -2.42091e-21)
(8.13485 7.7266 6.18402e-20)
(7.76019 7.64951 -6.77345e-20)
(7.38953 7.55262 -8.64451e-20)
(7.02381 7.43555 2.13457e-19)
(6.66288 7.29983 0)
(6.3091 7.14571 3.60317e-19)
(5.96376 6.97296 -1.8341e-19)
(5.62643 6.78274 4.35122e-21)
(5.29949 6.57549 1.09286e-20)
(4.98404 6.35161 -2.67843e-19)
(4.68014 6.11236 -1.12151e-20)
(4.39076 5.85618 1.00163e-18)
(4.11288 5.58556 -3.48446e-19)
(3.8501 5.30019 7.7091e-19)
(3.59992 5.00236 0)
(3.3668 4.69184 0)
(3.14866 4.36891 -9.13511e-19)
(2.94636 4.03552 2.3291e-19)
(2.76232 3.69141 4.97398e-19)
(2.59369 3.33848 2.60019e-19)
(2.44533 2.97642 -8.1019e-19)
(2.31248 2.60753 -4.22314e-19)
(2.20037 2.23207 -1.46893e-19)
(2.10339 1.85228 -9.53095e-23)
(2.02802 1.46905 1.51802e-19)
(1.96971 1.0838 0)
(1.93455 0.696491 0)
(15.9025 0.608087 -1.49257e-20)
(15.9457 0.948571 0)
(15.9686 1.29132 0)
(15.9709 1.63435 1.26349e-19)
(15.9529 1.97701 0)
(15.915 2.31817 4.81056e-19)
(15.8575 2.65652 2.35504e-19)
(15.7793 2.99043 -4.60871e-19)
(15.6809 3.32089 0)
(15.5641 3.64605 -4.65359e-19)
(15.4294 3.96248 3.13129e-20)
(15.2753 4.27149 0)
(15.1031 4.57075 0)
(14.9126 4.8615 -4.17115e-19)
(14.7058 5.14256 3.73634e-19)
(14.4839 5.40971 -3.87653e-19)
(14.2453 5.665 -3.71451e-19)
(13.9914 5.90704 0)
(13.7231 6.13431 3.36519e-19)
(13.4408 6.34867 -5.83864e-19)
(13.147 6.54691 -5.46398e-19)
(12.8414 6.73051 -5.57824e-19)
(12.5258 6.89804 -9.69306e-22)
(12.2021 7.04578 -3.84374e-19)
(11.8676 7.17688 4.30233e-19)
(11.5253 7.29015 3.43803e-19)
(11.177 7.38358 -3.39483e-19)
(10.821 7.4606 3.82705e-20)
(10.4617 7.51756 -6.06671e-21)
(10.0975 7.55787 -2.02723e-19)
(9.73307 7.5753 0)
(9.36408 7.57669 -5.57741e-20)
(8.99709 7.55647 7.27185e-20)
(8.62835 7.52094 -2.6074e-20)
(8.26551 7.46449 -5.63121e-20)
(7.90438 7.38852 1.29336e-19)
(7.54718 7.29397 -1.93315e-19)
(7.1959 7.17862 -2.77705e-19)
(6.84714 7.04605 5.23559e-19)
(6.50543 6.89605 -3.13392e-19)
(6.17352 6.72788 -3.7656e-19)
(5.84698 6.54302 -6.3243e-19)
(5.53092 6.34181 2.32593e-19)
(5.22721 6.12482 0)