/*--------------------------------*- C++ -*----------------------------------*\
| =========                 |                                                 |
| \\      /  F ield         | OpenFOAM: The Open Source CFD Toolbox           |
|  \\    /   O peration     | Version:  2.3.1                                 |
|   \\  /    A nd           | Web:      www.OpenFOAM.org                      |
|    \\/     M anipulation  |                                                 |
\*---------------------------------------------------------------------------*/
FoamFile
{
    version     2.0;
    format      ascii;
    class       volScalarField;
    location    "0.31";
    object      nut;
}
// * * * * * * * * * * * * * * * * * * * * * * * * * * * * * * * * * * * * * //

dimensions      [0 2 -1 0 0 0 0];

internalField   nonuniform List<scalar> 
9648
(
0.000273028
0.000272657
0.000272608
0.000272409
0.000272029
0.000271391
0.000270559
0.000269539
0.000268314
0.000266867
0.000265193
0.000263333
0.000261288
0.000259072
0.000256736
0.000254329
0.000251875
0.000249398
0.00024694
0.000244545
0.000242228
0.000240011
0.00023792
0.000235953
0.000234113
0.000232413
0.000230855
0.000229434
0.00022814
0.000226978
0.000225939
0.000225025
0.00022423
0.000223556
0.00022299
0.000222523
0.000222162
0.000221893
0.000221703
0.000221609
0.000221617
0.00022172
0.000221919
0.000222204
0.00022256
0.000222982
0.000223478
0.000224069
0.00022474
0.000225483
0.000226311
0.000227245
0.00022826
0.000229358
0.000230548
0.000231824
0.000233149
0.000234463
0.000235774
0.000237082
0.000238373
0.000455586
0.000459798
0.000464484
0.000470163
0.000476252
0.000481797
0.00048892
0.000498813
0.000511421
0.000526865
0.000545212
0.000566755
0.00059143
0.000619078
0.000649503
0.000682591
0.000718085
0.000755628
0.000794908
0.000835765
0.000877863
0.000920969
0.000964907
0.00100942
0.00105422
0.00109918
0.00114418
0.00118905
0.00123358
0.00127771
0.00132145
0.00136468
0.00140735
0.00144947
0.0014909
0.00153148
0.00157133
0.00161051
0.00164905
0.00168687
0.00172403
0.0017606
0.00179637
0.00183117
0.00186503
0.00189772
0.00192927
0.0019599
0.00198975
0.00201869
0.00204667
0.00207374
0.00210007
0.00212516
0.0021497
0.00217348
0.00219713
0.00221966
0.00224172
0.00226355
0.00228533
0.000788539
0.00082961
0.000868491
0.000905764
0.00094472
0.00098692
0.00103177
0.00108034
0.00113207
0.00118778
0.00124686
0.00130991
0.00137682
0.00144746
0.00152156
0.00159875
0.00167867
0.00176076
0.0018446
0.00192978
0.00201587
0.00210259
0.00218954
0.00227642
0.00236297
0.00244897
0.00253424
0.00261847
0.00270154
0.00278335
0.0028638
0.00294296
0.0030209
0.00309745
0.00317264
0.00324642
0.00331874
0.00338973
0.00345919
0.00352739
0.00359439
0.00366024
0.00372528
0.00378912
0.00385159
0.00391255
0.00397184
0.00402983
0.00408637
0.00414172
0.0041959
0.004249
0.00430156
0.00435208
0.00440283
0.00445149
0.00449993
0.00454541
0.00459108
0.00463593
0.00468011
0.00126564
0.00134422
0.00142074
0.00149652
0.00157356
0.00165306
0.00173526
0.00182061
0.00190911
0.00200154
0.00209767
0.00219794
0.00230208
0.00241012
0.00252154
0.00263587
0.0027526
0.00287111
0.00299091
0.0031115
0.00323253
0.0033535
0.00347413
0.00359416
0.00371336
0.00383147
0.00394833
0.00406374
0.0041776
0.00428967
0.00440003
0.00450848
0.00461501
0.00471999
0.00482331
0.00492561
0.00502666
0.00512603
0.0052238
0.00531927
0.00541296
0.00550567
0.0055972
0.00568813
0.00577792
0.0058663
0.0059533
0.00603862
0.0061222
0.00620421
0.00628522
0.00636429
0.00644219
0.00651829
0.00659422
0.00666805
0.00673988
0.00680976
0.0068781
0.00694485
0.00700906
0.00181315
0.00192189
0.00203071
0.00213978
0.00225006
0.00236284
0.00247879
0.0025981
0.00272126
0.00284865
0.00298024
0.00311605
0.003256
0.00339987
0.00354702
0.00369672
0.00384826
0.00400113
0.0041547
0.00430857
0.00446224
0.00461535
0.00476752
0.00491852
0.0050682
0.00521641
0.00536297
0.00550778
0.0056507
0.00579166
0.00593033
0.00606668
0.00620077
0.00633247
0.00646266
0.0065915
0.00671926
0.00684607
0.00697051
0.00709293
0.00721312
0.00733092
0.00744758
0.00756247
0.0076763
0.0077893
0.00790084
0.00801086
0.00811895
0.00822444
0.00832822
0.00843008
0.00852959
0.00862694
0.00872257
0.00881658
0.00890772
0.00899657
0.00908315
0.00916688
0.00924771
0.00236777
0.00249916
0.00263567
0.00277549
0.00291825
0.00306448
0.00321479
0.00336953
0.00352872
0.00369249
0.00386065
0.00403283
0.00420902
0.00438868
0.00457139
0.00475623
0.00494209
0.00512871
0.00531524
0.00550135
0.0056867
0.00587069
0.00605318
0.00623375
0.00641245
0.0065892
0.00676391
0.00693649
0.00710668
0.00727426
0.00743954
0.00760208
0.00776207
0.00791984
0.00807452
0.00822733
0.00837859
0.00852755
0.00867665
0.0088236
0.00896822
0.0091114
0.00924995
0.00938559
0.00951901
0.009651
0.00978344
0.00991348
0.0100415
0.0101668
0.010289
0.0104087
0.0105258
0.0106398
0.0107516
0.0108602
0.010966
0.0110693
0.0111695
0.0112656
0.0113592
0.0029046
0.00305509
0.003219
0.00339053
0.00356752
0.00374941
0.00393647
0.00412877
0.00432613
0.00452793
0.00473409
0.00494366
0.00515646
0.00537203
0.00559056
0.00581048
0.00603056
0.00625067
0.00646963
0.00668728
0.0069036
0.00711764
0.00732953
0.00753835
0.0077445
0.00794825
0.00814941
0.00834823
0.00854356
0.00873583
0.00892498
0.0091111
0.00929528
0.00947654
0.00965491
0.00982924
0.00999917
0.0101683
0.0103348
0.0105016
0.0106696
0.0108335
0.0109937
0.0111471
0.0112944
0.0114411
0.011587
0.0117321
0.0118753
0.0120149
0.0121511
0.0122837
0.0124129
0.0125387
0.0126608
0.01278
0.0128961
0.0130084
0.0131167
0.0132209
0.0133214
0.00341944
0.00358746
0.00377947
0.00398405
0.00419746
0.00441629
0.00464154
0.00487316
0.00510961
0.00535089
0.00559611
0.00584403
0.00609362
0.00634432
0.00659784
0.0068528
0.00710727
0.00736122
0.00761259
0.0078607
0.00810723
0.0083506
0.00859175
0.00882805
0.00905959
0.00928833
0.00951388
0.00973709
0.00995637
0.010171
0.0103821
0.0105886
0.0107918
0.0109941
0.0111932
0.0113872
0.0115775
0.0117602
0.011941
0.012123
0.0123051
0.0124889
0.0126653
0.0128331
0.012994
0.0131499
0.0133048
0.0134578
0.0136096
0.0137581
0.013902
0.0140416
0.0141783
0.0143108
0.0144385
0.0145622
0.014682
0.014799
0.0149112
0.0150177
0.0151195
0.00391833
0.00409989
0.00431987
0.00455412
0.00480585
0.00505988
0.00532163
0.00559404
0.00586639
0.00614782
0.00643057
0.00672027
0.00700617
0.0072911
0.00757445
0.00786348
0.00815179
0.00843993
0.00872833
0.00900395
0.0092783
0.00955169
0.00982261
0.010091
0.0103443
0.0105957
0.0108428
0.0110877
0.0113304
0.0115671
0.0118024
0.0120285
0.0122416
0.012458
0.0126761
0.0128888
0.0130951
0.0132963
0.0134881
0.0136797
0.0138747
0.0140734
0.0142598
0.0144425
0.0146187
0.0147815
0.0149432
0.0150956
0.015252
0.0154013
0.0155504
0.0156857
0.0158222
0.0159607
0.0160922
0.0162102
0.0163297
0.0164414
0.0165558
0.0166632
0.0167586
0.000239567
0.000240659
0.000241725
0.000242763
0.000243755
0.000244674
0.000245562
0.000246457
0.000247334
0.000248152
0.000248889
0.000249612
0.000250305
0.000250971
0.000251641
0.00025236
0.000253137
0.000253974
0.000254897
0.000255941
0.000257077
0.000258281
0.000259546
0.000260837
0.000262133
0.000263448
0.000264789
0.000266139
0.000267485
0.000268841
0.000270206
0.000271574
0.000272946
0.000274335
0.000275728
0.000277131
0.000278555
0.000279999
0.000281449
0.000282905
0.000284386
0.000285888
0.000287405
0.000288949
0.00029051
0.000292068
0.000293641
0.000295251
0.000296884
0.000298515
0.000300161
0.000301849
0.000303547
0.000305253
0.000306995
0.000308779
0.000310595
0.000312396
0.000314243
0.000316171
0.000318184
0.00230718
0.00232674
0.00234589
0.00236495
0.00238358
0.00240101
0.00241636
0.00243073
0.0024427
0.0024546
0.00246488
0.00247444
0.00248287
0.00249021
0.00249633
0.002501
0.00250429
0.00250606
0.00250639
0.00250534
0.0025031
0.00249988
0.00249562
0.00249044
0.00248442
0.00247756
0.00246994
0.00246138
0.00245201
0.00244174
0.00243055
0.00241854
0.00240572
0.00239202
0.0023775
0.00236223
0.00234613
0.00232931
0.00231174
0.00229347
0.00227451
0.00225485
0.00223465
0.00221386
0.00219243
0.00217034
0.00214754
0.00212412
0.00209993
0.00207506
0.0020495
0.00202321
0.00199632
0.00196818
0.00193986
0.00191036
0.00188048
0.0018494
0.00181857
0.00178758
0.00175648
0.00472193
0.00476261
0.00480049
0.00483713
0.00487232
0.00490728
0.00493854
0.00496825
0.00499459
0.00501988
0.0050429
0.00506428
0.00508318
0.00510056
0.00511599
0.00512944
0.00514099
0.00515063
0.00515843
0.00516447
0.00516898
0.0051719
0.00517335
0.00517336
0.00517194
0.00516911
0.00516495
0.0051594
0.00515246
0.00514398
0.00513412
0.00512272
0.00510979
0.00509547
0.0050796
0.00506229
0.00504349
0.00502326
0.00500158
0.00497856
0.00495427
0.00492881
0.00490223
0.00487471
0.00484609
0.00481636
0.00478537
0.00475312
0.00471945
0.00468434
0.00464796
0.00460955
0.00456956
0.00452754
0.0044844
0.0044389
0.00439144
0.00434237
0.00429252
0.00424182
0.00419006
0.00707161
0.00713154
0.00718929
0.00724399
0.00729663
0.00734722
0.00739531
0.00743938
0.00748124
0.00752096
0.00755808
0.00759232
0.00762401
0.00765361
0.00768045
0.00770504
0.00772726
0.00774711
0.00776464
0.00777999
0.00779323
0.00780455
0.00781392
0.00782147
0.00782713
0.00783093
0.00783281
0.00783286
0.00783116
0.00782759
0.00782204
0.0078145
0.00780494
0.0077933
0.00777963
0.00776392
0.00774609
0.00772606
0.00770393
0.00767978
0.00765381
0.00762607
0.00759696
0.00756654
0.00753492
0.007502
0.0074676
0.00743159
0.00739391
0.00735431
0.0073129
0.00726917
0.0072229
0.00717405
0.00712289
0.00706887
0.00701169
0.00695231
0.00689141
0.00682856
0.00676435
0.00932545
0.00940091
0.00947336
0.0095425
0.00960798
0.0096707
0.00973055
0.00978653
0.00983915
0.00988929
0.00993614
0.00997998
0.0100212
0.0100593
0.0100948
0.0101278
0.0101572
0.010184
0.0102078
0.0102288
0.0102472
0.0102632
0.0102769
0.0102884
0.0102976
0.0103045
0.0103091
0.0103117
0.0103123
0.010311
0.0103076
0.010302
0.0102941
0.0102837
0.0102711
0.0102559
0.010238
0.0102175
0.0101941
0.010168
0.0101394
0.0101084
0.0100756
0.0100413
0.0100057
0.00996894
0.0099307
0.00989042
0.00984866
0.00980531
0.00975977
0.00971169
0.00966078
0.00960663
0.00954948
0.00948806
0.00942328
0.0093556
0.00928557
0.00921282
0.00913867
0.0114489
0.0115354
0.0116178
0.0116974
0.0117728
0.0118442
0.0119122
0.0119756
0.0120355
0.0120917
0.012145
0.0121948
0.0122414
0.0122846
0.0123245
0.0123612
0.0123943
0.0124243
0.0124506
0.0124731
0.0124922
0.0125084
0.0125219
0.0125327
0.0125408
0.0125461
0.0125486
0.0125487
0.0125467
0.012543
0.0125378
0.0125304
0.0125207
0.0125086
0.0124943
0.0124773
0.0124571
0.0124338
0.0124071
0.0123772
0.0123439
0.0123074
0.0122682
0.0122272
0.0121848
0.0121416
0.0120967
0.0120503
0.0120024
0.0119536
0.0119028
0.0118489
0.0117924
0.0117326
0.0116693
0.0116009
0.0115285
0.0114518
0.0113729
0.0112911
0.0112071
0.013418
0.0135105
0.0135986
0.0136824
0.0137621
0.0138379
0.0139091
0.0139756
0.0140383
0.0140968
0.0141514
0.0142027
0.0142506
0.0142942
0.0143339
0.0143707
0.014404
0.0144336
0.0144589
0.0144792
0.0144952
0.0145075
0.0145165
0.0145225
0.0145254
0.0145247
0.0145204
0.0145124
0.014502
0.0144903
0.014478
0.0144639
0.0144484
0.0144309
0.0144121
0.014391
0.014366
0.0143375
0.0143057
0.0142705
0.0142315
0.014188
0.0141407
0.0140909
0.0140393
0.0139876
0.0139333
0.0138779
0.0138211
0.0137651
0.0137075
0.0136462
0.0135831
0.0135168
0.0134475
0.0133717
0.0132915
0.013206
0.0131187
0.0130277
0.0129343
0.0152171
0.0153097
0.0153973
0.0154795
0.015557
0.0156293
0.0156973
0.0157611
0.0158214
0.0158771
0.0159279
0.0159755
0.0160199
0.0160603
0.0160953
0.0161263
0.0161555
0.0161819
0.0162041
0.0162203
0.0162299
0.0162357
0.0162376
0.0162354
0.01623
0.0162207
0.0162072
0.0161876
0.0161631
0.0161363
0.0161109
0.0160835
0.0160566
0.0160281
0.0160015
0.0159746
0.0159424
0.0159052
0.0158653
0.0158238
0.0157789
0.0157295
0.015674
0.0156147
0.0155535
0.0154927
0.0154273
0.0153613
0.0152925
0.0152271
0.0151617
0.0150909
0.0150192
0.0149457
0.0148709
0.0147879
0.0147006
0.014606
0.0145107
0.0144113
0.0143101
0.0168554
0.0169434
0.017028
0.0170988
0.0171678
0.0172231
0.0172807
0.0173261
0.0173739
0.0174243
0.017467
0.0174961
0.0175308
0.0175647
0.0175925
0.0176116
0.0176258
0.0176403
0.0176574
0.0176696
0.0176703
0.0176691
0.0176665
0.0176547
0.0176383
0.0176176
0.0175955
0.017569
0.0175298
0.0174832
0.0174394
0.0173919
0.017346
0.0172967
0.0172546
0.0172187
0.0171778
0.0171268
0.017073
0.01702
0.0169666
0.0169163
0.0168538
0.0167856
0.0167196
0.016651
0.0165791
0.0165023
0.0164225
0.0163445
0.01627
0.0161866
0.0161009
0.0160205
0.0159369
0.0158504
0.0157555
0.0156556
0.0155508
0.015445
0.0153351
0.000320197
0.000322191
0.000324264
0.000326415
0.000328614
0.000330815
0.00033305
0.000335346
0.000337682
0.000340041
0.000342423
0.000344845
0.000347291
0.000349823
0.000353054
0.000355833
0.000358617
0.000361389
0.000364163
0.000366964
0.000369777
0.000372603
0.000375452
0.000378304
0.000381143
0.000383979
0.00038681
0.000389626
0.000392407
0.000395157
0.000397866
0.000400522
0.000403113
0.000405641
0.000408082
0.00041043
0.000412678
0.000414798
0.000416634
0.000417965
0.000418879
0.000419386
0.000419483
0.000419166
0.000418378
0.000417055
0.000415154
0.00041261
0.000409301
0.000405072
0.000399787
0.000393279
0.000385259
0.000375396
0.000363081
0.000341415
0.000330912
0.000325319
0.000323046
0.000322026
0.00031999
0.00172484
0.00169318
0.001661
0.00162864
0.00159607
0.00156358
0.0015306
0.0014979
0.00146504
0.00143259
0.00140095
0.00136878
0.00133736
0.00130626
0.001271
0.00123657
0.00120253
0.00116913
0.00113642
0.00110444
0.00107317
0.00104245
0.00101225
0.000982558
0.000953358
0.000924692
0.000896535
0.000868941
0.000841887
0.00081538
0.000789459
0.000764146
0.000739432
0.000715364
0.000691998
0.000669354
0.000647529
0.000626601
0.000606138
0.000583513
0.000560291
0.000538072
0.000516906
0.000496979
0.000478386
0.000461328
0.000446077
0.000432895
0.000422046
0.000413862
0.000408704
0.000407003
0.000409187
0.000415853
0.000425417
0.000447707
0.000482175
0.00053752
0.000622549
0.00074479
0.000869199
0.00413778
0.00408481
0.00403096
0.00397567
0.00391911
0.00386156
0.00380294
0.00374368
0.00368372
0.0036237
0.00356159
0.00350048
0.00344177
0.00338289
0.00332114
0.00325705
0.00319169
0.00312614
0.0030607
0.00299564
0.00293082
0.00286593
0.00280095
0.00273591
0.00267071
0.00260543
0.00253999
0.00247445
0.00240865
0.00234267
0.0022764
0.00220984
0.00214302
0.00207587
0.00200843
0.00194069
0.00187271
0.00180444
0.00173567
0.00166506
0.00159231
0.00150753
0.00141544
0.00132051
0.00122388
0.00112678
0.00103081
0.000937502
0.000848806
0.000766708
0.000693173
0.000630055
0.000578584
0.000540121
0.000514307
0.000505264
0.000515684
0.000550585
0.00061937
0.000735624
0.000898977
0.00669914
0.00663364
0.00656662
0.00649744
0.00642561
0.00635224
0.00627736
0.00620171
0.00612563
0.00604894
0.00596835
0.00589036
0.00581487
0.00573908
0.00566015
0.00557781
0.00549295
0.00540725
0.00532127
0.00523534
0.00514924
0.00506221
0.00497449
0.00488613
0.00479693
0.00470692
0.00461597
0.00452409
0.00443102
0.0043367
0.00424104
0.00414406
0.00404569
0.00394596
0.0038449
0.00374248
0.00363866
0.00353344
0.00342658
0.00331753
0.00320545
0.00308696
0.00295372
0.00280345
0.00264155
0.00246828
0.00228442
0.00209121
0.0018911
0.00168812
0.00148683
0.00129445
0.00111735
0.000962295
0.000833054
0.000734641
0.000670209
0.000639843
0.000645591
0.000694747
0.000796537
0.00906268
0.00898623
0.00890802
0.00882766
0.00874315
0.00865647
0.00856809
0.00847967
0.00839066
0.00830099
0.0082066
0.00811498
0.00802562
0.00793621
0.00784368
0.0077473
0.00764754
0.00754692
0.00744579
0.00734464
0.00724285
0.0071393
0.00703468
0.00692915
0.00682217
0.00671395
0.00660407
0.00649256
0.00637895
0.00626322
0.00614528
0.00602529
0.00590329
0.00577944
0.0056537
0.00552621
0.00539695
0.00526588
0.00513281
0.00499747
0.00485931
0.00471701
0.00456724
0.0044007
0.00421604
0.00401537
0.00379715
0.00355997
0.00330268
0.00302611
0.00273176
0.00242441
0.00211289
0.00180958
0.00152853
0.00128416
0.00108869
0.000944645
0.000849603
0.000802796
0.000807828
0.0111202
0.0110329
0.0109442
0.0108533
0.0107571
0.010658
0.0105564
0.0104556
0.0103547
0.0102536
0.0101471
0.010043
0.00994087
0.0098396
0.00973478
0.00962616
0.00951377
0.00940121
0.00928809
0.00917495
0.00906065
0.00894338
0.00882517
0.00870626
0.00858534
0.00846273
0.00833774
0.00821047
0.0080801
0.00794693
0.00781082
0.00767246
0.00753194
0.00738967
0.00724548
0.00709968
0.0069522
0.00680315
0.00665237
0.00649974
0.0063448
0.00618704
0.00602494
0.00585469
0.00566565
0.00546124
0.00523865
0.00499636
0.00473122
0.0044404
0.00412185
0.00377422
0.00339942
0.00300529
0.0026043
0.00221748
0.00186762
0.00157043
0.00133231
0.0011544
0.00103622
0.0128363
0.0127384
0.0126396
0.0125393
0.0124317
0.0123203
0.0122056
0.0120929
0.0119808
0.0118695
0.0117512
0.0116354
0.0115217
0.0114101
0.0112944
0.0111754
0.0110521
0.0109298
0.010807
0.0106844
0.0105598
0.0104306
0.0103015
0.0101725
0.0100404
0.00990599
0.00976805
0.00962755
0.00948252
0.00933422
0.00918251
0.00902927
0.00887416
0.00871814
0.00856048
0.00840189
0.00824201
0.00808146
0.00791996
0.00775773
0.00759411
0.00742889
0.00726129
0.00708929
0.0069083
0.00670854
0.00649292
0.0062594
0.00600529
0.00572764
0.00542257
0.00508617
0.00471584
0.0043102
0.00387407
0.00341918
0.00296537
0.00253603
0.00214975
0.0018188
0.00155053
0.0142016
0.0140927
0.0139842
0.0138754
0.0137576
0.0136348
0.0135076
0.0133828
0.0132604
0.0131398
0.0130109
0.0128844
0.0127607
0.0126406
0.012516
0.0123881
0.0122561
0.0121257
0.0119952
0.0118655
0.011732
0.0115922
0.0114548
0.0113187
0.011177
0.0110317
0.0108817
0.0107292
0.0105702
0.0104079
0.0102423
0.0100776
0.00991137
0.009746
0.00957913
0.00941262
0.00924521
0.00907937
0.00891398
0.00875
0.00858556
0.00842107
0.00825534
0.00808717
0.0079135
0.00772642
0.00752306
0.00730366
0.0070669
0.0068107
0.00653242
0.006228
0.00589246
0.00552165
0.00511312
0.0046686
0.00419692
0.00371272
0.00323531
0.00278342
0.00237444
0.0152219
0.0150997
0.0149837
0.0148635
0.0147403
0.014605
0.0144696
0.0143299
0.0141997
0.0140684
0.0139333
0.0137958
0.0136664
0.0135378
0.0134093
0.0132714
0.0131369
0.0129968
0.0128613
0.0127279
0.0125844
0.0124379
0.0122942
0.0121501
0.0119998
0.0118412
0.0116814
0.0115151
0.0113429
0.0111667
0.010991
0.0108185
0.0106446
0.0104733
0.0103016
0.0101315
0.00996189
0.00979945
0.00963878
0.00948307
0.009325
0.00916912
0.00901182
0.00885228
0.00868922
0.00851815
0.00832921
0.00812425
0.00790635
0.00767879
0.00743245
0.007169
0.00687667
0.00655731
0.00620063
0.00580994
0.00537785
0.00491575
0.00442692
0.00392659
0.00343515
0.000316038
0.000311519
0.000306593
0.000301282
0.000295796
0.000290234
0.000284753
0.000279541
0.000274755
0.000270506
0.000266856
0.000263864
0.000261484
0.000259647
0.000258294
0.000257351
0.00025672
0.000256322
0.000256111
0.000256056
0.000256113
0.00025626
0.000256489
0.000256781
0.000257124
0.000257526
0.000257984
0.000258495
0.000259049
0.000259651
0.000260293
0.000260971
0.000261679
0.000262413
0.000263156
0.000263905
0.000264651
0.00026538
0.000266067
0.000266705
0.000267295
0.000267814
0.000268255
0.000268628
0.000268919
0.000269126
0.000269276
0.000269399
0.000269502
0.000269592
0.000269701
0.000269867
0.000270068
0.000270321
0.00027063
0.000270995
0.00027138
0.000271743
0.000272102
0.000272452
0.000272776
0.000934859
0.000990528
0.00103477
0.00106184
0.00107336
0.00107418
0.00106201
0.00103747
0.00100298
0.000960713
0.000912757
0.000862342
0.000811977
0.000763612
0.000717681
0.000675793
0.000639396
0.000608912
0.000584026
0.000564267
0.000548915
0.000537201
0.000528391
0.000521894
0.000517259
0.000514148
0.000512306
0.000511531
0.000511664
0.000512559
0.000514083
0.000516103
0.000518471
0.000521027
0.000523624
0.000526113
0.000528327
0.000530122
0.000531333
0.000531806
0.000531391
0.000529941
0.000527322
0.000523415
0.000518146
0.0005115
0.000503546
0.000494475
0.000484589
0.000474353
0.000464335
0.00045517
0.000447443
0.000441595
0.000437926
0.000436446
0.000436978
0.000439132
0.000442481
0.000446515
0.000450938
0.00107009
0.00124208
0.00141039
0.00156414
0.00166548
0.00174529
0.00180124
0.00182815
0.00182935
0.00180833
0.00176593
0.00170643
0.00163384
0.00155164
0.00146191
0.0013692
0.00127965
0.00119765
0.00112487
0.00106364
0.00101438
0.000976375
0.000948126
0.000927871
0.000913991
0.000905205
0.00090053
0.00089917
0.000900454
0.0009038
0.000908739
0.000914734
0.000921235
0.000927705
0.000933592
0.000938411
0.000941676
0.000942933
0.000941737
0.000937714
0.000930564
0.000920114
0.000906281
0.000889136
0.000868798
0.000845579
0.000819875
0.000792231
0.000763295
0.000733999
0.000705579
0.00067954
0.000657704
0.000641781
0.000633339
0.000633257
0.00064175
0.000658476
0.000682638
0.000713132
0.00074872
0.000947796
0.00114265
0.00136963
0.00160876
0.00182679
0.00202419
0.00220598
0.00234056
0.0024338
0.0024972
0.00252779
0.00252751
0.0025012
0.00245062
0.00237737
0.0022847
0.00217667
0.00206433
0.00195372
0.00185122
0.00176142
0.00168766
0.00163067
0.00158927
0.00156128
0.00154463
0.00153745
0.00153822
0.00154542
0.00155772
0.00157403
0.00159323
0.00161403
0.00163514
0.0016553
0.00167334
0.00168805
0.00169831
0.001703
0.00170111
0.00169175
0.00167428
0.00164827
0.00161359
0.00157033
0.00151908
0.00146067
0.00139628
0.00132712
0.00125504
0.00118232
0.00111206
0.00104826
0.000995914
0.000960506
0.000946469
0.000955068
0.000986196
0.00103766
0.001106
0.0011848
0.000869042
0.000990168
0.00117222
0.00140706
0.00167141
0.00194495
0.00221291
0.00245308
0.00265975
0.00284021
0.00297699
0.0030652
0.00312152
0.00314557
0.00313887
0.00310634
0.00304983
0.00297042
0.00287962
0.00278584
0.00269427
0.00261197
0.00254398
0.00249263
0.00245793
0.00243884
0.00243407
0.00244228
0.00246149
0.00248975
0.00252548
0.00256694
0.00261208
0.0026587
0.00270474
0.00274814
0.00278687
0.00281895
0.00284234
0.00285514
0.00285557
0.00284232
0.00281413
0.00277027
0.00271011
0.00263402
0.0025425
0.00243678
0.00231831
0.00218927
0.00205256
0.00191261
0.00177529
0.0016492
0.00154603
0.00148021
0.00145383
0.00146988
0.00152453
0.00160619
0.00170597
0.000979506
0.000986534
0.00106081
0.00120456
0.00141299
0.00167414
0.00196945
0.00227273
0.0025627
0.00282828
0.00305698
0.00324441
0.00340073
0.00351248
0.00358106
0.00362472
0.00364434
0.0036426
0.00362629
0.00359836
0.00356536
0.00353166
0.00350202
0.00348065
0.00347093
0.0034738
0.00349014
0.00352068
0.00356414
0.00361864
0.00368276
0.00375452
0.00383146
0.00391076
0.0039897
0.00406547
0.00413535
0.00419651
0.00424609
0.00428135
0.00429966
0.00429903
0.00427746
0.0042335
0.00416554
0.00407361
0.00395739
0.00381771
0.00365541
0.00347252
0.00327154
0.00305701
0.00283522
0.00261589
0.00241466
0.00224962
0.00213295
0.00207747
0.00208572
0.00214745
0.00224692
0.00134966
0.00121877
0.00115985
0.00117492
0.00126492
0.00142846
0.0016591
0.00194175
0.00225446
0.00257312
0.00287472
0.00314401
0.00337631
0.00356661
0.00371851
0.00384746
0.00394221
0.00401073
0.00407034
0.00412311
0.00417799
0.00423363
0.00428955
0.00434664
0.00440574
0.00446869
0.00453808
0.0046177
0.00470697
0.00480479
0.00491047
0.00502232
0.00513817
0.0052552
0.00537061
0.00548138
0.00558439
0.00567622
0.00575336
0.00581243
0.00585025
0.00586432
0.00585219
0.00581198
0.00574116
0.00563914
0.00550487
0.00533865
0.00514086
0.00491283
0.00465635
0.00437519
0.00407424
0.00376185
0.00345291
0.00316727
0.00292708
0.00275992
0.00268405
0.00269709
0.00277885
0.00202195
0.0017367
0.00152547
0.00139257
0.00133972
0.00136721
0.00147378
0.00165495
0.00190105
0.00219513
0.00251389
0.00283313
0.00313428
0.00340292
0.00363428
0.00383181
0.00399761
0.00413859
0.00427322
0.00438627
0.00451306
0.00464867
0.00479132
0.00493977
0.00509443
0.00525262
0.00541261
0.00557232
0.00573454
0.00589919
0.00606567
0.00623206
0.00639682
0.00655826
0.00671414
0.00686207
0.0069992
0.00712179
0.0072258
0.00730736
0.00736388
0.00739166
0.00738866
0.00735282
0.0072811
0.00717155
0.00702349
0.00683531
0.00660818
0.00634225
0.00603912
0.00570076
0.00532979
0.00493387
0.00452534
0.00412249
0.00375535
0.00346318
0.00328729
0.00323783
0.00329279
0.00296709
0.00254489
0.0021835
0.00189258
0.00168216
0.00155584
0.00151484
0.00155684
0.00167825
0.00187215
0.00212558
0.00242192
0.00274204
0.00306478
0.00337215
0.00365775
0.00390771
0.00412305
0.00430743
0.00446952
0.0046602
0.00484819
0.00504427
0.00525571
0.00548887
0.00573789
0.00599751
0.00626036
0.00652046
0.00677543
0.00702489
0.00726436
0.00749079
0.00770699
0.00790963
0.00809905
0.00827355
0.00842902
0.00856075
0.00866368
0.0087398
0.00877941
0.00878562
0.00875377
0.00868352
0.00856791
0.00841114
0.0082027
0.00795205
0.00765331
0.00731281
0.00692696
0.0064968
0.00603252
0.00553952
0.00503279
0.00455227
0.00414928
0.00387878
0.00376756
0.00379154
0.00505447
0.0182872
0.0185538
0.00187322
0.00516297
0.00708871
0.00125138
0.00606827
0.00128729
0.00333916
0.0108093
0.0150021
0.0012511
0.0134038
0.00664752
0.0196889
0.00126265
0.00654309
0.0101966
0.00125549
0.00188125
0.0132746
0.0180689
0.00127781
0.00127738
0.00475892
0.00125504
0.00297451
0.00125918
0.00131491
0.00687945
0.00128124
0.00272424
0.00875998
0.0141026
0.00949517
0.00831866
0.0141531
0.00124744
0.0140459
0.00491999
0.0129503
0.00124645
0.0194622
0.00529199
0.00994617
0.00135728
0.00240988
0.0015207
0.0152045
0.0106383
0.0152606
0.00124882
0.00144139
0.0019423
0.000327584
0.00131219
0.00459412
0.00916091
0.0176244
0.00402501
0.00135324
0.00131945
0.00367473
0.0189962
0.00441603
0.00939556
0.00440538
0.00148347
0.00124257
0.0131471
0.0143776
0.00473488
0.000559982
0.00269271
0.0183333
0.0184449
0.0172799
0.00124544
0.0145121
0.0019378
0.0134267
0.000790096
0.0189111
0.00124261
0.0120522
0.00128322
0.0118585
0.0017681
0.00158872
0.00560253
0.00124514
0.00137817
0.0170117
0.0190118
0.0013399
0.0109541
0.00436454
0.0017761
0.0190514
0.00219906
0.0176421
0.00844777
0.00124507
0.00124244
0.00124912
0.00593238
0.00668473
0.00126436
0.0194466
0.0187732
0.0016232
0.00799988
0.00762856
0.00533849
0.012273
0.0103879
0.00140492
0.00596717
0.00143712
0.00130797
0.00562607
0.00161567
0.017138
0.0128892
0.00317276
0.00124598
0.0133045
0.0137544
0.00124609
0.00348829
0.00376067
0.00287777
0.00156789
0.0130542
0.00124544
0.00124261
0.0134251
0.0157011
0.0012521
0.00320242
0.0192573
0.00428018
0.00907735
0.00825368
0.0178065
0.000469911
0.00892958
0.002497
0.0162437
0.0131193
0.000268821
0.014438
0.018838
0.0191309
0.00128581
0.00126723
0.00828834
0.00126416
0.00854876
0.000745738
0.00161954
0.0012444
0.00124702
0.00124299
0.0177899
0.00413123
0.006427
0.00129259
0.0144311
0.00674903
0.00222326
0.0132976
0.00252682
0.00776196
0.00575365
0.0116794
0.00125787
0.00170607
0.00394077
0.0127301
0.0132113
0.0172651
0.00124689
0.00132581
0.00899317
0.00396873
0.0116605
0.00124493
0.00135861
0.00570883
0.00129858
0.0163223
0.0105173
0.00126552
0.0086905
0.00325796
0.0182619
0.00151457
0.00657967
0.00124682
0.00125267
0.0198912
0.0158796
0.0157707
0.00152266
0.00129251
0.001843
0.0161173
0.00590644
0.0108452
0.0182812
0.0145453
0.0186567
0.00390173
0.0195466
0.0184296
0.0128053
0.0156317
0.0122042
0.0015087
0.00419136
0.00125059
0.0012757
0.0107812
0.00297427
0.00312774
0.00153627
0.00245164
0.0145864
0.00996241
0.00287372
0.0185454
0.0139888
0.00455215
0.00124482
0.00442291
0.018035
0.0132764
0.00145037
0.00939625
0.00339457
0.00333329
0.00330424
0.0176386
0.00735207
0.00418973
0.0196042
0.00138856
0.00124401
0.00142184
0.00231121
0.00977248
0.00129781
0.00158249
0.00124623
0.0076648
0.0190851
0.0186428
0.0140391
0.0129281
0.0162784
0.0161445
0.00148759
0.00835786
0.0190735
0.00124581
0.00434196
0.00124271
0.00447721
0.0075996
0.00421352
0.00164928
0.00124605
0.0158817
0.00296052
0.00124298
0.00125422
0.00125757
0.00126121
0.00985135
0.00649048
0.0180327
0.00178158
0.00124292
0.00124429
0.00124546
0.019396
0.00396995
0.00150406
0.0129046
0.00596233
0.00154986
0.00124875
0.00802527
0.0012427
0.00219666
0.00402972
0.00726695
0.00301377
0.00141665
0.00173579
0.0169326
0.00503771
0.00261289
0.0160769
0.00131474
0.00124322
0.00124528
0.0195589
0.00127304
0.0158611
0.00124523
0.0131512
0.0113767
0.00269877
0.00556776
0.00594556
0.00154281
0.0136408
0.0135509
0.00271413
0.0215519
0.00984727
0.0158103
0.0141635
0.0191865
0.00851137
0.0193079
0.00466837
0.00667407
0.0159789
0.017407
0.013253
0.0121829
0.0014039
0.016184
0.00544897
0.0185201
0.0036278
0.00133073
0.00124626
0.00129664
0.00393967
0.010268
0.00694358
0.00616382
0.00124962
0.0194022
0.00124591
0.00711831
0.0143268
0.0192338
0.0141796
0.0161449
0.00166799
0.00147307
0.00149325
0.00823925
0.00220245
0.00605865
0.00937068
0.0108331
0.0185054
0.0180157
0.0166143
0.00131327
0.0172725
0.0189902
0.00281144
0.0012535
0.0189786
0.0193049
0.00127659
0.0115264
0.00125439
0.0105261
0.0164447
0.0113122
0.019363
0.00506922
0.0195182
0.00127581
0.0196022
0.00138748
0.0175223
0.0178318
0.0118201
0.0173858
0.0128628
0.00831948
0.0106055
0.00147114
0.00376509
0.00132277
0.00205043
0.00123069
0.00705697
0.00138086
0.0185978
0.0012445
0.00125499
0.00176136
0.00931196
0.00516697
0.0139991
0.00154021
0.0194471
0.00783527
0.0184965
0.00619832
0.0164654
0.0103102
0.0012991
0.0174192
0.0179288
0.00124877
0.0177629
0.0148372
0.00124844
0.00124221
0.0090613
0.00183158
0.0122896
0.00148549
0.00661159
0.00364879
0.00959861
0.0159911
0.0179555
0.0159481
0.0169993
0.0177519
0.00140272
0.00123548
0.00915253
0.0116858
0.0156899
0.0110706
0.0183249
0.00458229
0.0191517
0.0191325
0.00658933
0.00292751
0.0160101
0.0148686
0.00132431
0.0183192
0.0143992
0.00144491
0.0198147
0.0166526
0.0160758
0.00342897
0.00465091
0.0129536
0.00167081
0.0158466
0.00153838
0.00324363
0.00125161
0.0113707
0.00284424
0.00861918
0.00156819
0.00136671
0.00870714
0.00871179
0.00131282
0.002695
0.0105941
0.00275917
0.00128511
0.0162015
0.00904922
0.0130373
0.0077804
0.00352044
0.0121629
0.0169449
0.0182585
0.00711551
0.0116295
0.0166838
0.0061076
0.0150268
0.0195035
0.000497489
0.00597835
0.0121524
0.0012973
0.00318164
0.00787397
0.0129578
0.00276197
0.0213445
0.00422843
0.0105669