/*--------------------------------*- C++ -*----------------------------------*\
| =========                 |                                                 |
| \\      /  F ield         | OpenFOAM: The Open Source CFD Toolbox           |
|  \\    /   O peration     | Version:  2.3.1                                 |
|   \\  /    A nd           | Web:      www.OpenFOAM.org                      |
|    \\/     M anipulation  |                                                 |
\*---------------------------------------------------------------------------*/
FoamFile
{
    version     2.0;
    format      ascii;
    class       surfaceScalarField;
    location    "0.31";
    object      phi;
}
// * * * * * * * * * * * * * * * * * * * * * * * * * * * * * * * * * * * * * //

dimensions      [0 3 -1 0 0 0 0];

internalField   nonuniform List<scalar> 
15416
(
-0.000701585
-7.1129e-06
0.000704937
-0.000697059
-4.52693e-06
-0.000694376
-2.68296e-06
-0.000692994
-1.383e-06
-0.000692958
-3.68081e-08
-0.000694597
1.6379e-06
-0.000698686
4.08697e-06
-0.000705373
6.68553e-06
-0.000714931
9.55574e-06
-0.000727672
1.2739e-05
-0.00074399
1.63161e-05
-0.000764082
2.00902e-05
-0.000788061
2.39775e-05
-0.000815986
2.7923e-05
-0.000847927
3.19388e-05
-0.000883782
3.58542e-05
-0.000923343
3.95618e-05
-0.000966385
4.30433e-05
-0.00101275
4.63674e-05
-0.0010621
4.93509e-05
-0.00111416
5.20611e-05
-0.00116868
5.45105e-05
-0.00122528
5.65962e-05
-0.00128362
5.83154e-05
-0.00134344
5.97958e-05
-0.00140451
6.10485e-05
-0.00146657
6.20163e-05
-0.00152929
6.2682e-05
-0.00159245
6.31353e-05
-0.00165587
6.34052e-05
-0.00171921
6.33706e-05
-0.00178228
6.3086e-05
-0.00184496
6.2686e-05
-0.00190706
6.20377e-05
-0.00196846
6.12257e-05
-0.00202912
6.04641e-05
-0.00208896
5.97057e-05
-0.00214784
5.88915e-05
-0.00220546
5.78959e-05
-0.00226178
5.67829e-05
-0.00231672
5.54868e-05
-0.00237005
5.38742e-05
-0.00242171
5.20574e-05
-0.00247181
5.0311e-05
-0.0025201
4.83402e-05
-0.00256657
4.63849e-05
-0.00261131
4.45862e-05
-0.00265431
4.28442e-05
-0.00269539
4.0974e-05
-0.00273444
3.90306e-05
-0.0027715
3.7077e-05
-0.00280669
3.52362e-05
-0.00283952
3.2872e-05
-0.00287046
3.09647e-05
-0.0028993
2.88535e-05
-0.00292642
2.71137e-05
-0.00295085
2.4428e-05
-0.00297303
2.21705e-05
-0.00299331
2.02722e-05
-0.00301185
1.85366e-05
1.68317e-05
-0.00302869
-0.000400667
-5.92172e-06
0.000399475
-0.000402759
-2.43554e-06
-0.000407094
1.65158e-06
-0.000414666
6.18824e-06
-0.000426758
1.20541e-05
-0.000442712
1.759e-05
-0.000462644
2.40178e-05
-0.000486458
3.04975e-05
-0.000514718
3.78139e-05
-0.000546961
4.498e-05
-0.000583356
5.27096e-05
-0.000623747
6.04799e-05
-0.000668019
6.82472e-05
-0.000716035
7.59374e-05
-0.000767489
8.33918e-05
-0.000822237
9.06014e-05
-0.000880009
9.73334e-05
-0.000940584
0.000103621
-0.00100361
0.000109388
-0.00106886
0.000114609
-0.00113614
0.000119334
-0.00120499
0.000123359
-0.00127524
0.000126832
-0.00134665
0.000129725
-0.00141892
0.000132074
-0.00149182
0.000133947
-0.00156501
0.00013519
-0.00163846
0.000136068
-0.00171187
0.000136442
-0.00178493
0.000136367
-0.00185765
0.000136073
-0.00192985
0.000135438
-0.00200109
0.000134265
-0.0020713
0.00013268
-0.00214047
0.000130715
-0.00220821
0.00012822
-0.00227468
0.000125792
-0.00233985
0.000123385
-0.00240385
0.000121096
-0.00246647
0.000118776
-0.00252729
0.000116074
-0.00258642
0.000113245
-0.00264357
0.000109828
-0.00269843
0.000105914
-0.00275124
0.000101739
-0.00280191
9.73122e-05
-0.00285054
9.32004e-05
-0.00289674
8.89048e-05
-0.00294091
8.4978e-05
-0.00298299
8.09965e-05
-0.00302292
7.69572e-05
-0.00306103
7.33296e-05
-0.00309566
6.75165e-05
-0.00312959
6.4919e-05
-0.0031597
5.89809e-05
-0.00318827
5.56898e-05
-0.00321248
4.86424e-05
-0.00323653
4.62189e-05
-0.0032583
4.20384e-05
-0.00327791
3.81361e-05
3.20851e-05
-0.00329317
-0.000257692
2.79221e-06
0.000248978
-0.000269213
9.0857e-06
-0.000284532
1.69692e-05
-0.000304159
2.58146e-05
-0.000327513
3.54066e-05
-0.000355455
4.55308e-05
-0.000387525
5.60856e-05
-0.000424001
6.6972e-05
-0.000464782
7.85936e-05
-0.00050995
9.01463e-05
-0.000559215
0.000101974
-0.000612185
0.000113449
-0.000668978
0.000125038
-0.000729203
0.000136162
-0.000792655
0.000146843
-0.000859047
0.000156992
-0.000928153
0.000166439
-0.000999694
0.00017516
-0.00107335
0.000183039
-0.00114895
0.000190207
-0.00122604
0.00019642
-0.00130455
0.000201859
-0.00138416
0.000206449
-0.00146462
0.000210208
-0.00154564
0.000213123
-0.00162696
0.000215306
-0.00170843
0.000216667
-0.00178979
0.000217375
-0.00187077
0.000217316
-0.00195148
0.000216976
-0.00203146
0.000216051
-0.00211052
0.000214642
-0.00218882
0.000212911
-0.00226585
0.000210205
-0.00234151
0.000206822
-0.0024157
0.000202734
-0.00248823
0.000198395
-0.00255905
0.000193898
-0.00262818
0.000189656
-0.00269566
0.000185375
-0.00276158
0.000181037
-0.0028253
0.000176276
-0.00288723
0.000171365
-0.00294698
0.000165759
-0.00300447
0.000159607
-0.00305964
0.000152918
-0.00311217
0.00014612
-0.00316226
0.000139198
-0.00320977
0.000132524
-0.00325555
0.000126707
-0.00329769
0.000119002
-0.00333728
0.000112843
-0.00337525
0.000105449
-0.00341092
0.000100574
-0.00344443
9.24948e-05
-0.00347365
8.49158e-05
-0.00350272
7.77207e-05
-0.00352747
7.09676e-05
-0.00354999
6.45581e-05
-0.00356824
5.63867e-05
5.0237e-05
-0.00358639
-0.000188642
1.87681e-05
0.000172666
-0.000208841
2.92847e-05
-0.000233137
4.12638e-05
-0.000261616
5.42929e-05
-0.000294431
6.82204e-05
-0.000331736
8.28345e-05
-0.000373442
9.77905e-05
-0.000419901
0.00011343
-0.000470667
0.000129358
-0.000525828
0.000145306
-0.000584934
0.000161078
-0.000648164
0.000176678
-0.000715081
0.000191953
-0.000785254
0.000206334
-0.000858619
0.000220208
-0.000934819
0.000233191
-0.00101356
0.00024518
-0.00109455
0.00025614
-0.00117755
0.000266036
-0.00126216
0.00027481
-0.00134836
0.000282613
-0.00143564
0.000289146
-0.00152391
0.000294741
-0.00161283
0.000299169
-0.00170224
0.00030256
-0.00179171
0.000304786
-0.00188115
0.000306117
-0.00197038
0.000306628
-0.00205925
0.000306258
-0.00214723
0.000305094
-0.0022344
0.000303297
-0.00232061
0.000300832
-0.00240544
0.000297571
-0.0024893
0.000293772
-0.00257195
0.000289558
-0.00265321
0.000284595
-0.00273246
0.00027888
-0.00280956
0.000272598
-0.00288442
0.000265318
-0.00295705
0.000257782
-0.00302735
0.00024999
-0.00309614
0.000242949
-0.00316275
0.000236216
-0.00322761
0.000229455
-0.00329013
0.000221761
-0.00334991
0.000213012
-0.00340678
0.000203524
-0.00346105
0.000194032
-0.00351183
0.000183674
-0.00356013
0.00017514
-0.00360712
0.000165969
-0.00365007
0.000155709
-0.00369083
0.000146128
-0.00372747
0.000137155
-0.00376375
0.000128748
-0.00379588
0.00011704
-0.00382575
0.000107591
-0.00385338
9.86003e-05
-0.00387681
8.79912e-05
-0.00389799
7.75729e-05
6.72293e-05
-0.00391498
-0.000157116
4.17679e-05
0.000134116
-0.000184112
5.62809e-05
-0.000215596
7.27474e-05
-0.000251721
9.04165e-05
-0.000292521
0.00010902
-0.000338199
0.000128511
-0.000388925
0.000148515
-0.000444156
0.000168661
-0.000504129
0.00018933
-0.000568452
0.000209627
-0.000637156
0.000229782
-0.000709924
0.000249444
-0.000786212
0.000268239
-0.000866054
0.000286175
-0.000949238
0.00030339
-0.00103474
0.000318691
-0.00112288
0.00033331
-0.0012132
0.000346452
-0.00130533
0.00035816
-0.00139911
0.000368596
-0.0014942
0.000377714
-0.00159048
0.000385452
-0.00168754
0.000391831
-0.00178512
0.000396766
-0.00188285
0.000400272
-0.0019808
0.000402716
-0.0020785
0.00040381
-0.00217579
0.000404005
-0.00227246
0.000403155
-0.00236836
0.000401249
-0.00246306
0.000398228
-0.00255637
0.000394067
-0.00264844
0.00038913
-0.00273924
0.000383946
-0.00282872
0.000378465
-0.00291668
0.000372857
-0.00300301
0.000366628
-0.00308709
0.000358403
-0.00316836
0.000348551
-0.0032467
0.000337065
-0.00332261
0.000325489
-0.00339581
0.000314959
-0.00346722
0.000305549
-0.00353671
0.000296967
-0.0036041
0.000287667
-0.00366956
0.000277678
-0.00372977
0.000263925
-0.00378745
0.000252324
-0.00384321
0.00024009
-0.00389498
0.000227352
-0.00394456
0.000215702
-0.00399202
0.000203161
-0.00403554
0.000189574
-0.00407682
0.000178359
-0.00411209
0.000163973
-0.00414692
0.00015184
-0.00417951
0.000140174
-0.00420792
0.000127002
-0.00423216
0.000112238
-0.00425614
0.000101562
8.70454e-05
-0.00427596
-0.000144192
7.12265e-05
0.000114734
-0.0001782
9.02882e-05
-0.000216874
0.000111421
-0.000260836
0.000134379
-0.000310006
0.000158188
-0.000364206
0.000182711
-0.000423454
0.000207762
-0.000487915
0.000233121
-0.000557058
0.000258473
-0.000631121
0.000283689
-0.000709575
0.000308235
-0.000791953
0.000331821
-0.000878272
0.000354558
-0.000967725
0.000375627
-0.00106011
0.000395775
-0.00115547
0.00041404
-0.00125327
0.00043111
-0.00135336
0.000446532
-0.00145504
0.000459839
-0.00155817
0.000471752
-0.0016627
0.000482274
-0.00176804
0.00049082
-0.00187423
0.000498029
-0.00198086
0.000503374
-0.00208768
0.00050705
-0.00219426
0.000509257
-0.00230055
0.000510093
-0.00240621
0.000509702
-0.00251118
0.000508161
-0.00261523
0.000505478
-0.00271815
0.000501288
-0.00281941
0.000495546
-0.002919
0.000488915
-0.0030169
0.000481525
-0.00311275
0.000473856
-0.0032072
0.000466386
-0.00330012
0.00045852
-0.00339113
0.000449586
-0.00348036
0.00043812
-0.00356634
0.000424636
-0.00364818
0.000409668
-0.00372695
0.00039491
-0.00380249
0.000381782
-0.00387586
0.000369242
-0.00394783
0.000357347
-0.00401749
0.00034555
-0.00408509
0.000330395
-0.00414795
0.000315341
-0.00420641
0.000299222
-0.00426256
0.000284059
-0.00431479
0.000268281
-0.00436305
0.000251524
-0.0044109
0.00023743
-0.00445294
0.000220372
-0.00449457
0.000205571
-0.00453208
0.000189318
-0.00456343
0.000171506
-0.00459249
0.000156055
-0.00462135
0.000141092
-0.00464415
0.000124362
0.000107648
-0.00466475
-0.000144617
0.000107119
0.000108726
-0.00018582
0.000131491
-0.000232388
0.000157989
-0.00028469
0.000186681
-0.000342305
0.000215803
-0.000405658
0.000246064
-0.000474377
0.000276482
-0.000548209
0.000306952
-0.000627408
0.00033767
-0.000711058
0.000367338
-0.000799571
0.000396746
-0.000892331
0.000424581
-0.000988604
0.00045083
-0.00108814
0.000475166
-0.00119125
0.00049888
-0.00129702
0.000519794
-0.00140486
0.000538949
-0.00151496
0.00055663
-0.0016266
0.000571511
-0.00173982
0.000585008
-0.00185416
0.000596651
-0.00196933
0.000605993
-0.00208532
0.000613974
-0.00220159
0.000619572
-0.00231779
0.000623195
-0.00243372
0.000625199
-0.00254879
0.000625227
-0.00266337
0.00062424
-0.00277704
0.000621755
-0.00288966
0.000617703
-0.00300127
0.000612769
-0.00311127
0.000605884
-0.003219
0.000597306
-0.00332415
0.000587855
-0.003427
0.000576898
-0.00352745
0.000565493
-0.00362636
0.000555109
-0.00372517
0.000543911
-0.003822
0.000532682
-0.00391584
0.00051921
-0.00400583
0.000502613
-0.00408928
0.000484468
-0.00416989
0.000466779
-0.00424804
0.000448614
-0.00432454
0.000432626
-0.0043987
0.00041639
-0.00446893
0.000398462
-0.00453623
0.000381847
-0.00460069
0.000363909
-0.00465912
0.000343109
-0.00471541
0.000324968
-0.00476952
0.000305875
-0.00481792
0.000285919
-0.00486423
0.000266718
-0.00490649
0.000247843
-0.00494453
0.000227345
-0.00498207
0.000209035
-0.00501351
0.000187475
-0.00504097
0.000168547
-0.00506447
0.000147849
0.000128923
-0.00508575
-0.000155873
0.000149679
0.000113314
-0.000204681
0.000180299
-0.000259422
0.00021273
-0.000320917
0.000248175
-0.00038809
0.000282975
-0.000460988
0.000318961
-0.000539738
0.000355232
-0.000623384
0.000390598
-0.000713019
0.000427304
-0.000807227
0.000461544
-0.000906955
0.000496474
-0.00101026
0.000527885
-0.00111818
0.000558746
-0.00122834
0.00058533
-0.00134188
0.00061241
-0.00145891
0.000636821
-0.0015778
0.000657837
-0.00169868
0.000677537
-0.0018216
0.000694457
-0.00194475
0.000708206
-0.00206987
0.000721784
-0.00219516
0.000731246
-0.00232187
0.000740603
-0.00244865
0.00074626
-0.0025748
0.000749275
-0.00270093
0.00075136
-0.00282543
0.000749874
-0.00294923
0.000748279
-0.00307222
0.000744629
-0.0031932
0.000738299
-0.00331391
0.000732663
-0.00343314
0.000724357
-0.00354947
0.00071394
-0.00366363
0.000703232
-0.00377472
0.000689945
-0.00388134
0.000673333
-0.00398691
0.000658199
-0.00409106
0.000643874
-0.00419457
0.000630614
-0.00429695
0.000617869
-0.00439444
0.000602273
-0.00448675
0.000582328
-0.00457091
0.000558138
-0.00465407
0.000536556
-0.00473405
0.000512003
-0.0048112
0.000490689
-0.00488942
0.000473695
-0.00496078
0.000452207
-0.00502753
0.000430835
-0.00509106
0.000406859
-0.00514945
0.000383613
-0.00520539
0.00036197
-0.00525745
0.000338115
-0.00530777
0.000317123
-0.00535247
0.000292585
-0.00539442
0.000269317
-0.00543039
0.000244997
-0.00546167
0.000218746
-0.00549127
0.000198121
-0.00551734
0.000173908
0.000150573
-0.005539
-0.000175698
0.000127258
0.000198119
-0.000233391
0.00023799
-0.000295615
0.000274953
-0.000367843
0.0003204
-0.0004445
0.000359631
-0.000528009
0.000402467
-0.000617654
0.000444874
-0.000710591
0.000483532
-0.000813176
0.000529885
-0.000916849
0.000565213
-0.00103023
0.000609856
-0.00114358
0.000641232
-0.00126651
0.000681669
-0.00138535
0.000704172
-0.00151166
0.000738708
-0.00164145
0.000766604
-0.00177005
0.000786451
-0.0019044
0.000811908
-0.00203864
0.000828751
-0.00217207
0.000841667
-0.00231196
0.000861688
-0.0024459
0.000865127
-0.00258511
0.00087973
-0.00272346
0.000884564
-0.00285972
0.000885534
-0.00299843
0.000890033
-0.00313153
0.000883097
-0.0032661
0.000883395
-0.00340006
0.000879392
-0.00352868
0.000866978
-0.00365947
0.000862451
-0.00378716
0.000850323
-0.0039119
0.000836575
-0.00403569
0.000826396
-0.00415887
0.000815302
-0.00427266
0.000791387
-0.00438606
0.00077627
-0.00449442
0.000752339
-0.00460095
0.000730341
-0.00471095
0.000718451
-0.00481274
0.000697424
-0.00491392
0.000683366
-0.00500673
0.000657537
-0.0050958
0.00063139
-0.00518169
0.000601191
-0.00526135
0.000570283
-0.00534336
0.000553088
-0.00541907
0.00052595
-0.00549112
0.000502444
-0.00555578
0.000471531
-0.00562041
0.000448289
-0.00567837
0.000420038
-0.00573342
0.0003932
-0.00578453
0.000368312
-0.00583321
0.000341329
-0.00587406
0.000310186
-0.00591336
0.000284308
-0.00594619
0.000251582
-0.00597639
0.000228318
-0.00600311
0.000200615
-0.00602421
0.000171651
-0.00304193
1.32422e-05
-0.00305338
1.14497e-05
-0.00306315
9.7628e-06
-0.00307104
7.88854e-06
-0.00307668
5.64105e-06
-0.00307972
3.03209e-06
-0.003081
1.28071e-06
-0.00308019
-8.05943e-07
-0.0030774
-2.79741e-06
-0.00307218
-5.2155e-06
-0.00306509
-7.09803e-06
-0.00305595
-9.13469e-06
-0.00304479
-1.11707e-05
-0.00303155
-1.32351e-05
-0.00301656
-1.49925e-05
-0.00299973
-1.68321e-05
-0.00298088
-1.88516e-05
-0.00295999
-2.08929e-05
-0.00293739
-2.25905e-05
-0.00291293
-2.44645e-05
-0.00288668
-2.62519e-05
-0.00285881
-2.78703e-05
-0.0028292
-2.96098e-05
-0.00279776
-3.14377e-05
-0.0027647
-3.30609e-05
-0.00273024
-3.44548e-05
-0.00269412
-3.61257e-05
-0.00265634
-3.77779e-05
-0.00261703
-3.93116e-05
-0.00257634
-4.06879e-05
-0.00253416
-4.2174e-05
-0.00249055
-4.3616e-05
-0.00244569
-4.48594e-05
-0.00239952
-4.61698e-05
-0.00235202
-4.74945e-05
-0.00230337
-4.86511e-05
-0.00225363
-4.97409e-05
-0.00220276
-5.08636e-05
-0.0021507
-5.20595e-05
-0.00209761
-5.30913e-05
-0.00204363
-5.39827e-05
-0.00198871
-5.49132e-05
-0.00193288
-5.58301e-05
-0.0018763
-5.65789e-05
-0.00181883
-5.74731e-05
-0.00176055
-5.82805e-05
-0.00170164
-5.89089e-05
-0.00164218
-5.94526e-05
-0.00158206
-6.01167e-05
-0.00152138
-6.06803e-05
-0.00146026
-6.1125e-05
-0.0013988
-6.14558e-05
-0.00133683
-6.19699e-05
-0.00127464
-6.2189e-05
-0.00121222
-6.24226e-05
-0.00114977
-6.24454e-05
-0.00108704
-6.27322e-05
-0.00102425
-6.27827e-05
-0.000961597
-6.26543e-05
-0.000899146
-6.24505e-05
-6.22088e-05
-0.000836936
-0.00330827
2.83409e-05
-0.00331884
2.20154e-05
-0.00332739
1.83131e-05
-0.00333373
1.42218e-05
-0.00333994
1.18543e-05
-0.00334199
5.07528e-06
-0.00334246
1.75708e-06
-0.00333916
-4.11153e-06
-0.0033352
-6.76484e-06
-0.00332766
-1.27538e-05
-0.0033183
-1.64607e-05
-0.00330662
-2.08132e-05
-0.00329295
-2.48435e-05
-0.00327739
-2.87964e-05
-0.00325936
-3.30174e-05
-0.0032393
-3.6897e-05
-0.00321711
-4.10434e-05
-0.00319297
-4.5031e-05
-0.00316661
-4.8953e-05
-0.00313831
-5.27572e-05
-0.00310826
-5.63091e-05
-0.003076
-6.01278e-05
-0.00304183
-6.37819e-05
-0.00300591
-6.73562e-05
-0.00296815
-7.08182e-05
-0.00292856
-7.40477e-05
-0.00288717
-7.75127e-05
-0.00284428
-8.06654e-05
-0.00279972
-8.38699e-05
-0.00275334
-8.70723e-05
-0.00270552
-8.99867e-05
-0.00265632
-9.28147e-05
-0.00260545
-9.57298e-05
-0.00255315
-9.84675e-05
-0.00249963
-0.000101017
-0.00244462
-0.000103662
-0.00238832
-0.000106036
-0.00233078
-0.00010841
-0.00227213
-0.000110705
-0.00221231
-0.000112906
-0.00215121
-0.000115088
-0.00208919
-0.000116924
-0.00202622
-0.000118801
-0.00196218
-0.000120616
-0.00189732
-0.000122335
-0.00183158
-0.000124017
-0.00176509
-0.000125401
-0.00169768
-0.000126864
-0.00162969
-0.000128101
-0.00156112
-0.000129257
-0.00149197
-0.00013027
-0.00142247
-0.000130953
-0.001352
-0.000132437
-0.00128178
-0.000132406
-0.00121064
-0.000133567
-0.00113952
-0.000133567
-0.00106759
-0.000134656
-0.000996287
-0.000134087
-0.000924936
-0.000134004
-0.000853606
-0.00013378
-0.000133962
-0.000781852
-0.00360023
4.2173e-05
-0.00361414
3.59226e-05
-0.00362361
2.77829e-05
-0.00363082
2.14286e-05
-0.00363375
1.47792e-05
-0.00363686
8.17858e-06
-0.00363549
3.88572e-07
-0.00363213
-7.47163e-06
-0.00362641
-1.24889e-05
-0.00361905
-2.01118e-05
-0.00360923
-2.62883e-05
-0.00359568
-3.43582e-05
-0.00358038
-4.01502e-05
-0.00356248
-4.66962e-05
-0.00354228
-5.32183e-05
-0.00351967
-5.9502e-05
-0.0034949
-6.58138e-05
-0.00346793
-7.20047e-05
-0.0034387
-7.81839e-05
-0.00340751
-8.39476e-05
-0.00337382
-8.99969e-05
-0.00333823
-9.57207e-05
-0.0033006
-0.000101408
-0.00326098
-0.00010698
-0.0032193
-0.000112495
-0.00317562
-0.000117731
-0.00313012
-0.000123009
-0.00308272
-0.000128062
-0.00303337
-0.000133221
-0.00298259
-0.000137855
-0.00292993
-0.000142646
-0.00287547
-0.000147268
-0.00281972
-0.000151476
-0.00276228
-0.000155908
-0.00270329
-0.000160007
-0.00264289
-0.000164059
-0.00258104
-0.000167886
-0.00251777
-0.000171678
-0.00245322
-0.000175253
-0.00238744
-0.000178687
-0.00232059
-0.000181939
-0.00225234
-0.00018517
-0.00218315
-0.000187989
-0.00211289
-0.00019088
-0.00204168
-0.000193549
-0.00196958
-0.000196108
-0.00189656
-0.000198419
-0.00182275
-0.00020068
-0.00174811
-0.000202739
-0.00167312
-0.000204246
-0.00159685
-0.000206538
-0.00152
-0.000207802
-0.00144302
-0.000209415
-0.00136568
-0.000209746
-0.00128807
-0.000211182
-0.00120955
-0.000212088
-0.00113162
-0.00021258
-0.00105301
-0.000212699
-0.000974433
-0.000212578
-0.000895454
-0.000212759
-0.000212286
-0.00081713
-0.00393172
5.89139e-05
-0.00394435
4.85515e-05
-0.00395471
3.81399e-05
-0.00396082
2.7533e-05
-0.00396476
1.87124e-05
-0.0039662
9.61715e-06
-0.00396338
-2.43668e-06
-0.00396059
-1.0262e-05
-0.00395381
-1.92621e-05
-0.00394496
-2.89696e-05
-0.00393185
-3.93954e-05
-0.00391757
-4.86462e-05
-0.00390075
-5.69628e-05
-0.00388053
-6.69215e-05
-0.00385812
-7.56297e-05
-0.00383317
-8.44525e-05
-0.00380572
-9.32614e-05
-0.00377575
-0.000101979
-0.00374355
-0.000110381
-0.00370868
-0.000118819
-0.00367187
-0.000126806
-0.00363255
-0.000135046
-0.00359114
-0.000142815
-0.00354751
-0.000150606
-0.00350186
-0.000158142
-0.00345384
-0.000165753
-0.0034038
-0.000173051
-0.00335182
-0.00018004
-0.00329804
-0.000186998
-0.00324202
-0.000193875
-0.00318432
-0.00020035
-0.00312497
-0.000206616
-0.00306359
-0.000212851
-0.0030007
-0.000218801
-0.00293621
-0.000224495
-0.00287016
-0.000230106
-0.00280237
-0.000235674
-0.00273321
-0.000240841
-0.00266263
-0.000245837
-0.00259079
-0.000250526
-0.00251746
-0.00025526
-0.00244317
-0.000259464
-0.00236749
-0.00026367
-0.00229081
-0.000267561
-0.00221301
-0.000271343
-0.00213418
-0.000274938
-0.0020544
-0.000278201
-0.0019739
-0.000281175
-0.00189223
-0.000284405
-0.00180985
-0.000286627
-0.00172742
-0.000288966
-0.00164369
-0.000291533
-0.00155961
-0.000293501
-0.00147446
-0.000294887
-0.00138981
-0.000295836
-0.00130435
-0.000297545
-0.00121881
-0.000298124
-0.00113331
-0.000298195
-0.00104731
-0.000298572
-0.000961515
-0.000298557
-0.000298359
-0.000875441
-0.00429155
7.45135e-05
-0.00430298
5.9973e-05
-0.00431417
4.93265e-05
-0.00432118
3.45407e-05
-0.00432399
2.15222e-05
-0.00432453
1.01501e-05
-0.00432512
-1.84053e-06
-0.00431925
-1.61352e-05
-0.00431131
-2.72104e-05
-0.00429943
-4.08462e-05
-0.00428548
-5.33495e-05
-0.00426935
-6.47792e-05
-0.00424919
-7.71173e-05
-0.00422758
-8.85387e-05
-0.00420411
-9.90984e-05
-0.00417563
-0.00011293
-0.00414524
-0.000123657
-0.00411217
-0.000135043
-0.00407643
-0.000146129
-0.00403833
-0.000156917
-0.00399759
-0.00016755
-0.00395474
-0.00017789
-0.00390931
-0.000188249
-0.00386145
-0.000198467
-0.00381102
-0.000208569
-0.00375862
-0.000218152
-0.00370393
-0.000227737
-0.00364693
-0.000237039
-0.00358785
-0.000246075
-0.00352685
-0.000254882
-0.0034637
-0.000263492
-0.00339854
-0.000271774
-0.00333165
-0.000279748
-0.00326299
-0.000287457
-0.00319245
-0.000295032
-0.00312011
-0.000302448
-0.00304638
-0.000309407
-0.00297081
-0.000316408
-0.0028937
-0.000322947
-0.002815
-0.00032922
-0.00273515
-0.000335111
-0.00265388
-0.000340738
-0.00257147
-0.000346074
-0.00248781
-0.00035122
-0.00240302
-0.000356133
-0.0023175
-0.000360457
-0.00222978
-0.000365918
-0.0021416
-0.000369353
-0.00205321
-0.000372797
-0.00196342
-0.000376416
-0.00187316
-0.000379229
-0.00178255
-0.000382142
-0.00169085
-0.000385199
-0.00159885
-0.000386884
-0.00150523
-0.000389457
-0.00141222
-0.000390552
-0.00131918
-0.000391164
-0.00122567
-0.000391705
-0.00113176
-0.000392486
-0.00103864
-0.000391678
-0.000391757
-0.000945237
-0.00468117
9.09417e-05
-0.00469541
7.42143e-05
-0.00470349
5.74048e-05
-0.00471137
4.24202e-05
-0.00471706
2.721e-05
-0.00471661
9.69771e-06
-0.00471213
-6.3231e-06
-0.00470734
-2.09256e-05
-0.00469661
-3.79434e-05
-0.0046857
-5.17588e-05
-0.00467075
-6.82969e-05
-0.00465181
-8.37278e-05
-0.00463075
-9.81739e-05
-0.00460576
-0.000113525
-0.00457677
-0.000128092
-0.00454588
-0.000143824
-0.0045124
-0.000157139
-0.00447643
-0.00017101
-0.00443713
-0.000185428
-0.00439507
-0.000198974
-0.00435054
-0.000212081
-0.0043031
-0.000225333
-0.00425315
-0.000238196
-0.00420071
-0.000250912
-0.0041458
-0.000263475
-0.00408819
-0.000275763
-0.00402838
-0.000287549
-0.00396609
-0.000299331
-0.00390149
-0.000310667
-0.00383485
-0.00032153
-0.00376585
-0.000332491
-0.00369471
-0.000342914
-0.00362165
-0.000352799
-0.00354676
-0.000362345
-0.00346974
-0.000372051
-0.00339105
-0.000381138
-0.00331032
-0.000390138
-0.00322786
-0.000398868
-0.00314384
-0.00040697
-0.0030583
-0.000414761
-0.00297101
-0.000422395
-0.00288249
-0.000429256
-0.0027926
-0.000435962
-0.00270118
-0.000442641
-0.00260885
-0.000448466
-0.00251538
-0.000453929
-0.00242141
-0.000459882
-0.00232576
-0.000465
-0.00222885
-0.000469707
-0.00213145
-0.000473821
-0.00203283
-0.000477847
-0.00193318
-0.00048179
-0.0018339
-0.000484477
-0.00173304
-0.000487748
-0.00163251
-0.000489978
-0.00153136
-0.000491704
-0.00142892
-0.000493605
-0.00132685
-0.000493777
-0.00122545
-0.000493887
-0.00112343
-0.000493697
-0.000493503
-0.00102168
-0.00510289
0.000108088
-0.00511784
8.91611e-05
-0.00512869
6.82604e-05
-0.0051354
4.9141e-05
-0.00513606
2.78723e-05
-0.00513662
1.02493e-05
-0.00513304
-9.90416e-06
-0.00512534
-2.86221e-05
-0.00511558
-4.77112e-05
-0.00510002
-6.73145e-05
-0.00508244
-8.58832e-05
-0.00506265
-0.000103517
-0.00503698
-0.000123843
-0.0050093
-0.000141207
-0.00497965
-0.000157745
-0.00494602
-0.000177448
-0.00490837
-0.000194792
-0.00486789
-0.000211494
-0.00482423
-0.000229088
-0.00477869
-0.000244513
-0.00472946
-0.000261306
-0.00467772
-0.000277074
-0.00462309
-0.000292825
-0.00456555
-0.000308454
-0.00450522
-0.000323802
-0.00444225
-0.000338737
-0.00437657
-0.000353223
-0.00430863
-0.000367272
-0.00423833
-0.000380971
-0.00416545
-0.00039441
-0.00409012
-0.00040782
-0.00401265
-0.000420377
-0.00393281
-0.000432638
-0.00385116
-0.000443996
-0.0037675
-0.000455706
-0.00368172
-0.000466924
-0.00359393
-0.000477926
-0.00350408
-0.000488718
-0.00341242
-0.00049863
-0.00331898
-0.000508197
-0.00322402
-0.000517352
-0.0031271
-0.000526179
-0.00302938
-0.000533678
-0.00293037
-0.000541652
-0.00283036
-0.00054848
-0.00272835
-0.00055593
-0.00262499
-0.000563241
-0.00252099
-0.000569004
-0.00241675
-0.000573947
-0.0023103
-0.000580275
-0.0022034
-0.00058474
-0.00209634
-0.000588853
-0.00198742
-0.00059339
-0.00187842
-0.000596755
-0.0017683
-0.000600097
-0.00165772
-0.00060228
-0.00154763
-0.000603695
-0.00143688
-0.00060452
-0.00132574
-0.000605034
-0.00121474
-0.000604696
-0.000604258
-0.00110398
-0.00555673
0.000125813
-0.00557011
0.000102548
-0.00557969
7.78455e-05
-0.00558693
5.63851e-05
-0.00559038
3.13285e-05
-0.00558802
7.8864e-06
-0.00558365
-1.42683e-05
-0.00557291
-3.93636e-05
-0.00556016
-6.04633e-05
-0.00554403
-8.34541e-05
-0.00552579
-0.000104124
-0.00550162
-0.000127683
-0.0054751
-0.000150365
-0.00544488
-0.000171426
-0.00540933
-0.0001933
-0.00537313
-0.000213641
-0.00533305
-0.000234881
-0.00528697
-0.000257569
-0.00524044
-0.00027562
-0.00518897
-0.000295978
-0.0051343
-0.00031598
-0.00507765
-0.000333721
-0.00501822
-0.000352254
-0.00495509
-0.000371581
-0.00488905
-0.000389844
-0.00482004
-0.000407743
-0.00474829
-0.000424973
-0.00467392
-0.000441649
-0.004597
-0.00045789
-0.00451758
-0.000473822
-0.00443529
-0.000490112
-0.00435099
-0.000504676
-0.00426404
-0.000519587
-0.00417572
-0.000532321
-0.00408471
-0.000546711
-0.0039915
-0.000560137
-0.00389617
-0.000573248
-0.00379831
-0.000586584
-0.00369821
-0.00059873
-0.00359663
-0.000609771
-0.00349345
-0.000620533
-0.00338846
-0.000631166
-0.0032813
-0.000640842
-0.00317429
-0.000648655
-0.00306509
-0.00065768
-0.0029537
-0.000667322
-0.00284303
-0.000673909
-0.00272957
-0.00068246
-0.00261588
-0.00068764
-0.00250126
-0.000694889
-0.0023846
-0.0007014
-0.00226816
-0.000705291
-0.00215042
-0.000711137
-0.00203279
-0.00071438
-0.00191275
-0.000720132
-0.00179334
-0.000721691
-0.00167231
-0.000724726
-0.00155201
-0.000724825
-0.00143147
-0.000725565
-0.00131148
-0.000724685
-0.000724936
-0.0011908
-0.00604248
0.000144072
-0.00605556
0.00011562
-0.00606554
8.78336e-05
-0.00606879
5.96369e-05
-0.0060708
3.33395e-05
-0.00606907
6.16137e-06
-0.00606286
-2.04709e-05
-0.00605188
-5.0349e-05
-0.00603572
-7.66208e-05
-0.00601892
-0.000100251
-0.00599609
-0.000126964
-0.00596968
-0.000154084
-0.0059409
-0.000179144
-0.00590528
-0.000207051
-0.00587042
-0.000228153
-0.00582832
-0.000255747
-0.00578188
-0.000281325
-0.0057341
-0.000305344
-0.0056797
-0.000330019
-0.00562435
-0.00035133
-0.00556639
-0.000373937
-0.00550268
-0.000397432
-0.00543899
-0.000415943
-0.00536956
-0.000441012
-0.00529656
-0.000462842
-0.00522199
-0.000482307
-0.00514261
-0.000504361
-0.00506225
-0.000522003
-0.00497641
-0.000543731
-0.00489196
-0.000558268
-0.00480013
-0.000581942
-0.00470991
-0.000594897
-0.00461356
-0.000615936
-0.00451948
-0.000626394
-0.00442103
-0.000645164
-0.00431952
-0.000661652
-0.00421731
-0.000675448
-0.00411012
-0.000693783
-0.00400085
-0.000707994
-0.00389212
-0.0007185
-0.003778
-0.000734649
-0.00366249
-0.000746676
-0.00354827
-0.000755064
-0.00342921
-0.000767715
-0.00331421
-0.000772682
-0.00319139
-0.000790132
-0.00307235
-0.00079295
-0.00294733
-0.000807476
-0.0028265
-0.000808478
-0.00270234
-0.000819044
-0.00257531
-0.000828426
-0.00245143
-0.000829176
-0.00232222
-0.000840341
-0.00219636
-0.000840239
-0.00206355
-0.000852943
-0.00193578
-0.000849465
-0.00180161
-0.000858894
-0.00167515
-0.000851276
-0.00154163
-0.000859093
-0.00141391
-0.000852396
-0.00127964
-0.000859213
-0.000774537
-6.2399e-05
-0.000712496
-6.20403e-05
-0.000650832
-6.16628e-05
-0.000589585
-6.12463e-05
-0.000528819
-6.07655e-05
-0.000468579
-6.02392e-05
-0.000409129
-5.94505e-05
-0.000350521
-5.86071e-05
-0.000292974
-5.75466e-05
-0.000236632
-5.63419e-05
-0.000181226
-5.54061e-05
-0.000124832
-5.63942e-05
-6.67054e-05
-5.81264e-05
-7.40916e-06
-5.92963e-05
5.06577e-05
-5.8067e-05
0.000105927
-5.52692e-05
0.000158991
-5.30643e-05
0.000210345
-5.13547e-05
0.00026014
-4.97953e-05
0.000308373
-4.82331e-05
0.000355056
-4.66838e-05
0.000400134
-4.50778e-05
0.000443534
-4.34004e-05
0.000485123
-4.15897e-05
0.000524843
-3.97207e-05
0.000562632
-3.77888e-05
0.00059837
-3.57384e-05
0.000631925
-3.35558e-05
0.000663183
-3.12586e-05
0.000692053
-2.88707e-05
0.000718338
-2.62847e-05
0.000741878
-2.35408e-05
0.000762553
-2.0675e-05
0.000780116
-1.75639e-05
0.000794352
-1.42361e-05
0.000805067
-1.0715e-05
0.000812001
-6.93416e-06
0.000814901
-2.90058e-06
0.000814388
5.13078e-07
0.000810341
4.04624e-06
0.000802858
7.48336e-06
0.000791275
1.15836e-05
0.000775078
1.61964e-05
0.000753844
2.12347e-05
0.000726937
2.69069e-05
0.000693733
3.32046e-05
0.000653612
4.01217e-05
0.000605836
4.77768e-05
0.000549548
5.62889e-05
0.000483982
6.55671e-05
0.000408413
7.557e-05
0.000322279
8.61363e-05
0.000225031
9.72494e-05
0.000115963
0.000109069
-1.11779e-05
0.000127141
-0.000151429
0.000140251
-0.000281417
0.000129989
-0.000389438
0.000108021
-0.000471359
8.1921e-05
-0.000532349
6.09899e-05
5.07842e-05
-0.000583133
-0.00071072
-0.00013353
-0.00063929
-0.00013347
-0.000568079
-0.000132873
-0.000497128
-0.000132197
-0.000426793
-0.0001311
-0.000356586
-0.000130445
-0.000286922
-0.000129114
-0.000217663
-0.000127866
-0.000149145
-0.000126065
-8.12036e-05
-0.000124283
-1.2742e-05
-0.000123868
5.60809e-05
-0.000125217
0.000123671
-0.000125717
0.000190017
-0.000125642
0.000255693
-0.000123743
0.000320791
-0.000120367
0.000384771
-0.000117045
0.000447426
-0.00011401
0.000508684
-0.000111053
0.000568562
-0.000108112
0.000627065
-0.000105187
0.000684048
-0.000102061
0.000739484
-9.88373e-05
0.000793369
-9.54743e-05
0.000845596
-9.19483e-05
0.000896105
-8.82985e-05
0.000944765
-8.43982e-05
0.000991594
-8.03851e-05
0.00103644
-7.61092e-05
0.00107914
-7.15672e-05
0.0011197
-6.68491e-05