/*--------------------------------*- C++ -*----------------------------------*\
| =========                 |                                                 |
| \\      /  F ield         | OpenFOAM: The Open Source CFD Toolbox           |
|  \\    /   O peration     | Version:  2.3.1                                 |
|   \\  /    A nd           | Web:      www.OpenFOAM.org                      |
|    \\/     M anipulation  |                                                 |
\*---------------------------------------------------------------------------*/
FoamFile
{
    version     2.0;
    format      ascii;
    class       volScalarField;
    location    "0.13";
    object      nut;
}
// * * * * * * * * * * * * * * * * * * * * * * * * * * * * * * * * * * * * * //

dimensions      [0 2 -1 0 0 0 0];

internalField   nonuniform List<scalar> 
9648
(
0.000272814
0.000270447
0.000269698
0.000268613
0.000267293
0.00026571
0.000263897
0.000261885
0.000259689
0.000257326
0.000254826
0.000252257
0.000249641
0.000247003
0.000244396
0.00024186
0.000239409
0.00023705
0.000234805
0.000232699
0.000230728
0.000228899
0.000227219
0.000225678
0.000224269
0.000222998
0.000221862
0.000220855
0.000219965
0.000219195
0.000218537
0.000217981
0.000217525
0.00021717
0.000216903
0.000216734
0.000216661
0.000216677
0.000216777
0.000216948
0.0002172
0.000217532
0.000217931
0.00021842
0.000218988
0.000219625
0.000220355
0.000221185
0.000222109
0.00022311
0.000224202
0.000225398
0.000226663
0.000227979
0.000229333
0.0002307
0.000232036
0.000233293
0.000234498
0.000235674
0.00023682
0.000444532
0.000447937
0.000450451
0.00045675
0.000467668
0.000481742
0.000498715
0.000518807
0.000541878
0.0005679
0.000596563
0.000627889
0.000661613
0.000697435
0.000735062
0.000774329
0.000814966
0.000856623
0.000899025
0.000942075
0.000985499
0.00102914
0.0010729
0.0011166
0.00116005
0.00120321
0.00124605
0.00128848
0.00133038
0.0013717
0.00141249
0.00145263
0.00149204
0.00153079
0.00156881
0.00160603
0.00164251
0.00167831
0.00171334
0.00174742
0.00178059
0.00181293
0.00184433
0.00187475
0.00190433
0.00193287
0.00196052
0.00198731
0.00201333
0.00203837
0.00206255
0.00208608
0.00210916
0.00213132
0.00215327
0.00217477
0.00219642
0.00221705
0.00223728
0.00225726
0.0022771
0.000883144
0.000911014
0.000943272
0.000984725
0.00103254
0.00108531
0.00114159
0.00120198
0.00126588
0.00133388
0.00140495
0.00147926
0.00155632
0.00163574
0.00171704
0.00179979
0.00188361
0.001968
0.00205263
0.0021372
0.00222144
0.00230519
0.00238818
0.00247027
0.00255131
0.00263124
0.00271005
0.00278755
0.00286379
0.00293874
0.00301235
0.00308465
0.00315567
0.00322528
0.00329343
0.00336027
0.00342577
0.00349004
0.00355315
0.00361499
0.00367557
0.00373481
0.00379278
0.00384955
0.00390501
0.0039592
0.00401219
0.00406418
0.00411501
0.00416482
0.00421361
0.00426149
0.00430902
0.00435466
0.00440074
0.00444481
0.00448875
0.00452965
0.00457073
0.00461088
0.0046502
0.00146487
0.0015299
0.00159886
0.00167561
0.00175862
0.0018466
0.00193873
0.00203493
0.00213486
0.0022388
0.00234589
0.00245605
0.00256852
0.00268309
0.00279906
0.00291598
0.0030334
0.00315086
0.00326801
0.00338452
0.00350021
0.00361476
0.00372805
0.00383996
0.0039504
0.00405928
0.00416659
0.00427227
0.00437633
0.00447873
0.00457961
0.00467897
0.00477678
0.00487307
0.00496781
0.00506106
0.00515278
0.00524327
0.00533219
0.00541985
0.00550623
0.00559122
0.00567511
0.00575774
0.00583906
0.00591909
0.00599774
0.00607519
0.00615124
0.00622596
0.00629981
0.00637172
0.00644242
0.0065113
0.00658001
0.00664661
0.0067112
0.00677382
0.00683489
0.00689436
0.00695125
0.00209678
0.00219581
0.00229908
0.002409
0.00252478
0.00264587
0.00277174
0.00290173
0.00303574
0.00317348
0.00331429
0.00345763
0.00360307
0.00375021
0.00389833
0.00404683
0.00419522
0.00434318
0.00449032
0.00463643
0.00478122
0.0049245
0.00506606
0.00520585
0.00534384
0.00548005
0.00561434
0.00574674
0.00587725
0.00600587
0.00613269
0.0062578
0.0063812
0.00650299
0.00662301
0.00674151
0.00685856
0.0069736
0.00708725
0.00719904
0.00730915
0.00741802
0.0075253
0.00763138
0.00773597
0.00783887
0.0079401
0.00803946
0.00813726
0.0082329
0.00832705
0.00841933
0.00850918
0.00859678
0.00868261
0.0087668
0.00884812
0.00892719
0.00900406
0.0090782
0.00914953
0.00272534
0.00285783
0.00299538
0.00313931
0.00328896
0.00344385
0.00360361
0.00376781
0.00393579
0.00410711
0.00428103
0.00445683
0.00463426
0.00481268
0.00499171
0.00517067
0.00534868
0.00552581
0.00570151
0.00587567
0.00604813
0.00621851
0.00638681
0.00655284
0.00671676
0.00687854
0.0070382
0.00719574
0.00735092
0.00750395
0.00765488
0.00780368
0.00795071
0.00809564
0.00823875
0.00838
0.00851929
0.00865724
0.00879253
0.00892594
0.00905732
0.009186
0.00931352
0.00943891
0.00956243
0.00968443
0.00980438
0.00992153
0.0100364
0.0101489
0.0102589
0.0103666
0.0104717
0.0105736
0.0106734
0.0107699
0.0108638
0.0109551
0.0110435
0.011128
0.01121
0.00334084
0.00350741
0.00368049
0.00385974
0.00404439
0.00423413
0.00442859
0.00462725
0.0048296
0.00503431
0.00524116
0.00544892
0.00565748
0.00586632
0.00607574
0.00628429
0.0064911
0.00669643
0.00689948
0.0071004
0.0072993
0.0074954
0.00768898
0.00787944
0.00806734
0.00825288
0.00843594
0.00861672
0.0087947
0.00896982
0.00914253
0.00931262
0.00948029
0.00964603
0.00980902
0.0099695
0.0101287
0.0102845
0.0104391
0.0105911
0.0107392
0.0108855
0.0110281
0.0111683
0.0113062
0.0114413
0.0115748
0.0117053
0.011833
0.0119573
0.0120787
0.012197
0.0123119
0.0124236
0.0125316
0.0126368
0.0127389
0.0128374
0.012932
0.0130227
0.01311
0.0039415
0.0041419
0.00435115
0.00456655
0.00478731
0.00501177
0.00524104
0.00547461
0.00571112
0.00594947
0.00618917
0.00642859
0.00666748
0.00690517
0.00714385
0.00738162
0.00761696
0.00785038
0.00807999
0.00830607
0.00853022
0.00875064
0.00896858
0.00918176
0.00939105
0.00959792
0.00980187
0.0100041
0.0102027
0.0103978
0.0105899
0.0107777
0.0109628
0.0111459
0.0113258
0.0115027
0.0116765
0.0118483
0.0120174
0.0121837
0.0123473
0.0125057
0.0126602
0.0128114
0.0129579
0.0131019
0.0132431
0.013381
0.0135159
0.0136467
0.0137735
0.0138967
0.0140172
0.0141336
0.0142453
0.014353
0.0144573
0.0145587
0.0146554
0.0147467
0.0148334
0.00452368
0.0047532
0.00499886
0.00524707
0.0055064
0.00576309
0.00602542
0.00629529
0.00656317
0.00683547
0.00710699
0.0073809
0.00764947
0.0079137
0.00817748
0.00844409
0.00870749
0.00897066
0.00923064
0.00947864
0.00972658
0.00997126
0.0102139
0.0104522
0.0106782
0.0109033
0.0111243
0.0113458
0.0115658
0.0117794
0.0119919
0.0121955
0.012389
0.0125861
0.0127828
0.0129707
0.0131564
0.0133408
0.0135196
0.0137002
0.0138772
0.0140506
0.0142115
0.0143707
0.0145274
0.0146735
0.0148193
0.0149564
0.0150961
0.0152251
0.0153548
0.0154713
0.0155901
0.0157115
0.0158255
0.0159252
0.0160271
0.0161213
0.0162187
0.0163091
0.0163873
0.000237869
0.000238824
0.000239765
0.000240697
0.000241608
0.000242478
0.000243297
0.000244084
0.000244822
0.000245523
0.000246164
0.000246816
0.000247471
0.000248128
0.000248825
0.000249609
0.00025049
0.000251465
0.00025254
0.000253723
0.000254968
0.000256255
0.000257585
0.000258933
0.000260285
0.000261651
0.000263034
0.000264431
0.000265827
0.000267235
0.000268653
0.000270077
0.000271507
0.000272955
0.00027441
0.000275878
0.000277367
0.000278878
0.000280398
0.000281926
0.000283481
0.000285059
0.000286655
0.00028828
0.000289923
0.000291568
0.00029323
0.000294931
0.000296659
0.000298387
0.000300134
0.000301925
0.000303729
0.000305544
0.000307399
0.000309298
0.000311233
0.000313159
0.000315137
0.000317201
0.000319359
0.00229687
0.00231425
0.00233119
0.00234778
0.00236369
0.00237811
0.00239021
0.00240192
0.00241209
0.00242217
0.00243055
0.00243814
0.00244458
0.00244977
0.0024536
0.00245594
0.00245693
0.0024565
0.00245481
0.00245196
0.00244816
0.00244355
0.00243807
0.0024318
0.00242477
0.00241694
0.00240836
0.0023989
0.00238868
0.00237762
0.00236569
0.00235299
0.00233952
0.00232521
0.00231011
0.00229429
0.00227767
0.00226036
0.00224232
0.00222359
0.0022042
0.00218412
0.00216353
0.00214235
0.00212057
0.00209815
0.00207504
0.00205134
0.00202691
0.00200184
0.00197611
0.0019497
0.00192271
0.00189454
0.0018662
0.00183673
0.00180689
0.00177596
0.00174533
0.00171468
0.00168407
0.00468703
0.00472283
0.0047562
0.00478822
0.00481866
0.00484855
0.00487511
0.00489945
0.00492147
0.00494276
0.00496195
0.00497962
0.00499498
0.00500886
0.00502086
0.00503101
0.00503944
0.00504615
0.00505125
0.00505479
0.00505702
0.00505783
0.00505735
0.0050556
0.0050526
0.00504834
0.00504285
0.00503604
0.00502794
0.00501839
0.00500756
0.00499527
0.00498154
0.00496649
0.00494996
0.00493205
0.00491269
0.00489194
0.00486977
0.00484627
0.00482153
0.00479562
0.00476861
0.00474065
0.00471161
0.00468145
0.00465005
0.0046174
0.00458337
0.00454794
0.00451126
0.00447261
0.00443245
0.0043903
0.00434705
0.00430145
0.00425392
0.00420481
0.00415502
0.00410456
0.00405337
0.00700643
0.00705907
0.00710983
0.00715784
0.0072041
0.00724743
0.00728852
0.0073265
0.00736261
0.00739688
0.00742876
0.00745795
0.00748487
0.00750997
0.00753257
0.00755315
0.0075716
0.00758793
0.00760218
0.00761447
0.00762488
0.00763358
0.00764052
0.00764585
0.00764947
0.00765144
0.00765166
0.00765019
0.00764712
0.00764232
0.00763571
0.00762723
0.00761687
0.00760456
0.00759034
0.00757418
0.00755598
0.00753567
0.00751332
0.007489
0.0074629
0.00743506
0.00740585
0.00737534
0.00734361
0.00731057
0.00727603
0.00723988
0.00720208
0.00716241
0.00712093
0.00707721
0.00703103
0.00698234
0.0069314
0.00687759
0.00682066
0.00676152
0.00670097
0.00663868
0.00657541
0.00921789
0.00928413
0.00934755
0.0094079
0.00946493
0.00951857
0.00957006
0.00961918
0.00966521
0.00970896
0.0097497
0.00978771
0.00982338
0.00985636
0.0098869
0.00991534
0.00994055
0.00996336
0.00998351
0.0100011
0.0100163
0.0100294
0.0100405
0.0100495
0.0100566
0.0100615
0.0100644
0.0100654
0.0100647
0.0100622
0.010058
0.0100516
0.010043
0.0100323
0.0100194
0.0100041
0.00998628
0.00996592
0.00994281
0.0099171
0.00988892
0.0098585
0.00982624
0.00979251
0.00975749
0.00972124
0.00968344
0.00964357
0.0096022
0.00955925
0.00951411
0.00946645
0.00941605
0.00936252
0.00930608
0.00924543
0.00918144
0.00911453
0.00904538
0.00897374
0.00890106
0.0112885
0.011364
0.0114355
0.0115045
0.0115695
0.011631
0.0116893
0.0117447
0.0117972
0.0118463
0.0118929
0.0119363
0.0119768
0.0120144
0.0120489
0.0120807
0.0121093
0.012135
0.0121574
0.0121763
0.0121922
0.0122055
0.0122162
0.0122247
0.0122308
0.0122342
0.0122352
0.012234
0.0122309
0.0122264
0.0122206
0.0122127
0.0122028
0.0121907
0.0121766
0.0121599
0.0121402
0.0121175
0.0120917
0.0120628
0.0120307
0.0119955
0.0119579
0.0119184
0.0118775
0.0118358
0.0117923
0.0117471
0.0117004
0.0116527
0.011603
0.0115501
0.0114946
0.0114361
0.0113741
0.0113071
0.0112363
0.0111611
0.0110838
0.0110037
0.0109219
0.0131935
0.0132733
0.013349
0.0134207
0.0134888
0.0135523
0.013613
0.0136708
0.0137255
0.0137764
0.0138239
0.0138684
0.01391
0.0139477
0.0139819
0.0140136
0.0140422
0.0140676
0.0140892
0.014106
0.014119
0.0141286
0.0141352
0.0141392
0.0141404
0.0141384
0.0141331
0.0141245
0.0141136
0.0141016
0.0140894
0.0140754
0.0140603
0.0140434
0.0140255
0.0140053
0.0139814
0.0139541
0.0139236
0.0138901
0.013853
0.0138117
0.0137668
0.0137196
0.0136708
0.0136219
0.0135702
0.0135173
0.0134628
0.013409
0.0133534
0.0132939
0.0132326
0.0131683
0.0131011
0.0130275
0.0129497
0.0128664
0.0127817
0.0126933
0.012603
0.0149162
0.0149941
0.0150675
0.0151358
0.0151999
0.0152594
0.0153162
0.0153707
0.0154225
0.0154704
0.015514
0.0155549
0.0155931
0.0156278
0.0156573
0.0156833
0.015708
0.0157305
0.0157494
0.0157626
0.0157697
0.0157736
0.0157738
0.0157704
0.0157641
0.0157541
0.0157407
0.0157214
0.0156975
0.0156717
0.0156475
0.0156215
0.015596
0.0155692
0.0155446
0.0155197
0.0154893
0.0154539
0.0154159
0.0153765
0.0153341
0.0152875
0.0152351
0.0151794
0.0151223
0.0150658
0.0150046
0.0149427
0.0148778
0.0148161
0.0147541
0.0146861
0.0146172
0.0145466
0.0144748
0.0143948
0.0143109
0.0142196
0.0141277
0.014032
0.0139347
0.0164676
0.0165383
0.0166062
0.0166597
0.016712
0.0167529
0.0167993
0.0168362
0.0168758
0.0169181
0.0169537
0.0169766
0.0170055
0.0170346
0.0170574
0.0170717
0.0170822
0.0170936
0.0171083
0.0171185
0.0171172
0.0171151
0.0171122
0.0171004
0.0170844
0.0170643
0.0170436
0.0170186
0.0169813
0.0169378
0.0168974
0.016853
0.0168107
0.0167651
0.0167273
0.0166953
0.0166577
0.0166095
0.0165586
0.0165082
0.0164576
0.0164105
0.0163513
0.0162869
0.0162255
0.0161625
0.0160961
0.016025
0.0159512
0.0158793
0.0158099
0.0157309
0.0156493
0.015573
0.0154937
0.0154112
0.015321
0.0152257
0.0151253
0.0150243
0.0149191
0.000321521
0.000323673
0.000325907
0.000328216
0.000330566
0.000332907
0.000335266
0.000337668
0.000340099
0.000342551
0.000344983
0.000347537
0.000350367
0.000353559
0.000356395
0.000359279
0.000362176
0.000365063
0.000367954
0.000370871
0.000373793
0.000376721
0.000379667
0.000382605
0.000385521
0.000388424
0.000391313
0.000394178
0.000396999
0.000399779
0.000402507
0.000405173
0.000407764
0.00041028
0.000412698
0.000415012
0.00041722
0.000419202
0.000420727
0.000421799
0.000422475
0.000422749
0.000422608
0.000422039
0.00042098
0.000419363
0.00041714
0.000414242
0.000410542
0.000405882
0.000400119
0.000393083
0.000384477
0.000374026
0.000359347
0.000339733
0.000330696
0.000326244
0.000324628
0.000323777
0.000321539
0.00165317
0.00162247
0.00159147
0.00156043
0.00152917
0.00149781
0.00146575
0.00143373
0.001402
0.00137095
0.00133912
0.00130836
0.00127686
0.0012436
0.00121146
0.00117987
0.00114865
0.00111782
0.00108737
0.00105736
0.00102783
0.00099866
0.000969874
0.000941502
0.000913567
0.000886126
0.000859174
0.00083278
0.000806932
0.000781649
0.000756976
0.000732935
0.000709523
0.000686784
0.000664776
0.000643517
0.000623126
0.000603716
0.000582555
0.000560475
0.000538819
0.000518218
0.000498747
0.000480589
0.000463846
0.000448718
0.00043547
0.000424357
0.000415639
0.000409637
0.000406708
0.000407284
0.000411785
0.000420422
0.00043377
0.000459712
0.000499344
0.00056177
0.000655716
0.000783981
0.000895632
0.00400204
0.00395055
0.00389863
0.00384558
0.00379127
0.00373567
0.00367836
0.00361976
0.00356078
0.00349966
0.00344125
0.00338427
0.00332698
0.00326864
0.00320902
0.00314858
0.00308723
0.00302536
0.00296308
0.00290066
0.00283805
0.00277506
0.00271172
0.00264812
0.00258425
0.00252022
0.00245603
0.00239175
0.00232727
0.00226268
0.00219788
0.00213285
0.00206763
0.00200212
0.00193634
0.00187029
0.00180398
0.0017374
0.00166933
0.00159928
0.00152109
0.00143309
0.00134188
0.00124856
0.00115434
0.0010605
0.000968689
0.000880431
0.000797633
0.000722146
0.000655733
0.00059999
0.00055591
0.0005245
0.000506187
0.000504658
0.00052282
0.000566729
0.000646859
0.00077597
0.00094325
0.00651164
0.00644833
0.00638424
0.00631855
0.00625035
0.00618039
0.00610816
0.00603435
0.00595956
0.00588306
0.00580931
0.00573683
0.00566425
0.00559075
0.0055149
0.00543691
0.00535674
0.00527527
0.0051928
0.00510965
0.00502573
0.0049405
0.00485422
0.00476706
0.00467895
0.00459001
0.0045002
0.00440958
0.00431794
0.00422521
0.00413131
0.00403622
0.00393982
0.0038421
0.00374304
0.0036426
0.0035407
0.00343728
0.00333181
0.00322371
0.00311062
0.00298814
0.002846
0.00269243
0.00252779
0.00235253
0.00216776
0.00197515
0.00177763
0.00157975
0.00138638
0.00120464
0.00104041
0.000899492
0.000785176
0.000701449
0.000650297
0.000632136
0.000650222
0.000712965
0.000827031
0.00882707
0.00875351
0.00867921
0.00860358
0.00852415
0.00844257
0.00835868
0.00827396
0.00818776
0.00810077
0.00801447
0.00792951
0.0078446
0.00775909
0.00767092
0.00757948
0.00748468
0.00738829
0.00729055
0.00719192
0.00709201
0.00698999
0.00688654
0.00678196
0.00667597
0.00656887
0.00646039
0.00635057
0.00623901
0.00612563
0.00601028
0.00589303
0.00577386
0.00565283
0.00552988
0.00540508
0.00527839
0.00514971
0.00501876
0.00488517
0.00474798
0.00460525
0.00445135
0.00427671
0.00408721
0.00388152
0.00365824
0.00341622
0.00315476
0.00287546
0.00258085
0.00227692
0.00197358
0.00168363
0.00142083
0.00119781
0.00102361
0.000898803
0.000820874
0.000790048
0.000810207
0.0108377
0.010754
0.0106701
0.010585
0.0104953
0.010403
0.0103079
0.0102131
0.0101173
0.0100211
0.00992356
0.00982725
0.00973101
0.0096349
0.00953536
0.00943203
0.00932441
0.00921561
0.00910527
0.00899406
0.00888118
0.00876514
0.00864788
0.00852988
0.00841021
0.00828928
0.00816656
0.00804208
0.00791502
0.00778554
0.00765338
0.00751904
0.00738255
0.0072442
0.00710382
0.00696166
0.00681762
0.00667172
0.0065238
0.00637365
0.00622073
0.00606423
0.00590171
0.00572557
0.00553183
0.00532244
0.00509443
0.00484626
0.0045748
0.00427748
0.0039528
0.00360042
0.00322385
0.00283292
0.00244198
0.00207254
0.00174518
0.00147224
0.0012576
0.0011014
0.00100312
0.0125083
0.0124147
0.0123215
0.012228
0.012128
0.0120252
0.0119191
0.0118147
0.0117102
0.0116058
0.0114976
0.0113906
0.0112838
0.0111781
0.011068
0.0109541
0.0108348
0.0107153
0.0105944
0.0104729
0.0103493
0.0102212
0.010093
0.00996526
0.00983526
0.00970389
0.0095699
0.00943403
0.00929425
0.00915149
0.00900543
0.0088577
0.00870795
0.00855703
0.00840429
0.00825033
0.00809477
0.00793812
0.00778011
0.00762091
0.00745993
0.00729684
0.00713054
0.00695768
0.00676892
0.00656616
0.00634682
0.00610887
0.00584954
0.00556583
0.00525392
0.00491024
0.00453304
0.00412248
0.00368563
0.00323653
0.0027959
0.00238601
0.00202305
0.00171698
0.00147347
0.0138305
0.0137264
0.0136243
0.013523
0.0134138
0.0133011
0.0131845
0.0130706
0.0129583
0.0128467
0.0127287
0.0126116
0.0124954
0.0123813
0.0122616
0.012138
0.0120085
0.0118798
0.0117501
0.0116207
0.011488
0.0113494
0.0112133
0.0110796
0.0109419
0.010802
0.0106586
0.0105133
0.0103618
0.0102071
0.0100488
0.00989105
0.00973146
0.00957232
0.00941139
0.00925036
0.00908793
0.00892639
0.00876479
0.00860408
0.0084426
0.00828073
0.00811727
0.0079505
0.0077757
0.00758409
0.00737753
0.00715479
0.00691422
0.00665345
0.00636973
0.00605889
0.00571618
0.0053381
0.00492351
0.00447604
0.00400653
0.00353079
0.00306814
0.0026363
0.00225104
0.0148107
0.014694
0.0145854
0.0144729
0.0143586
0.0142357
0.014112
0.0139863
0.0138686
0.0137482
0.0136239
0.013496
0.0133752
0.0132514
0.0131253
0.0129902
0.0128556
0.0127164
0.0125809
0.0124477
0.0123056
0.0121605
0.0120194
0.0118807
0.0117376
0.0115878
0.0114376
0.0112815
0.011119
0.0109519
0.0107845
0.0106204
0.010454
0.0102902
0.0101248
0.00996062
0.00979574
0.00963759
0.0094805
0.00932827
0.00917332
0.00902087
0.00886694
0.00871047
0.00854936
0.00837468
0.00818326
0.00797568
0.00775488
0.00752391
0.00727367
0.00700552
0.00670774
0.00638218
0.00601905
0.00562245
0.00518661
0.00472429
0.00424021
0.00375036
0.00327505
0.000317728
0.00031348
0.000308986
0.000304334
0.000299748
0.000295312
0.000291147
0.000287377
0.000284079
0.000281279
0.000278971
0.000277161
0.000275777
0.000274741
0.000274006
0.000273514
0.000273199
0.000273009
0.00027293
0.000272958
0.000273069
0.000273253
0.00027351
0.00027382
0.000274171
0.000274564
0.000274995
0.000275448
0.000275904
0.00027636
0.000276796
0.000277196
0.000277544
0.000277828
0.000278022
0.000278121
0.000278113
0.000277988
0.000277728
0.000277338
0.000276838
0.000276237
0.000275556
0.000274842
0.00027412
0.000273424
0.000272807
0.000272314
0.00027195
0.000271704
0.000271588
0.000271608
0.00027171
0.00027188
0.000272095
0.000272331
0.000272535
0.00027267
0.000272765
0.000272819
0.000272808
0.000958225
0.00101023
0.00104974
0.00107234
0.0010806
0.00107992
0.00106913
0.00104969
0.00102459
0.000996167
0.000965854
0.00093604
0.000907561
0.000879971
0.000853665
0.00083148
0.000812559
0.000796527
0.000783684
0.000774179
0.000767909
0.000764587
0.000763729
0.000764839
0.000767418
0.000771072
0.000775424
0.000780155
0.000784866
0.000789184
0.000792773
0.000795313
0.000796452
0.000795843
0.000793215
0.000788337
0.000780987
0.000771014
0.000758249
0.000742565
0.000723866
0.000702134
0.000677468
0.000650109
0.00062055
0.000589617
0.000558452
0.00052847
0.000501026
0.000477257
0.000457932
0.000443338
0.000433293
0.000427242
0.000424445
0.000424067
0.000425445
0.000427984
0.000431276
0.000435141
0.00043961
0.00111484
0.00128403
0.00144697
0.00159461
0.00169366
0.00177384
0.00183431
0.00187102
0.0018875
0.00188853
0.00187523
0.00185171
0.00182125
0.00178442
0.00174338
0.00170355
0.00166779
0.00163505
0.0016073
0.00158624
0.00157276
0.0015669
0.00156789
0.0015746
0.00158562
0.00159984
0.00161611
0.00163336
0.00165043
0.00166623
0.00167983
0.00169017
0.0016962
0.00169693
0.00169146
0.00167916
0.00165951
0.00163223
0.00159719
0.00155441
0.00150408
0.00144662
0.00138254
0.00131253
0.00123725
0.0011577
0.0010752
0.000991736
0.000909983
0.000833598
0.000766982
0.000714293
0.000678491
0.000660014
0.000657473
0.000668418
0.00069057
0.00072178
0.000758686
0.000798075
0.000841755
0.000988163
0.00118876
0.00141603
0.00165087
0.00186529
0.00206174
0.00224641
0.00239357
0.00250465
0.00259383
0.00265957
0.00270279
0.00272894
0.00273923
0.00273552
0.00272152
0.00270134
0.00268022
0.0026604
0.0026455
0.00263879
0.0026419
0.00265492
0.00267729
0.00270788
0.00274511
0.00278702
0.00283163
0.00287686
0.00292064
0.0029612
0.00299672
0.00302516
0.00304451
0.003053
0.00304921
0.0030319
0.00300025
0.00295371
0.00289196
0.00281492
0.00272296
0.00261673
0.00249713
0.00236512
0.00222208
0.00206962
0.00191
0.00174619
0.0015829
0.00142703
0.00128813
0.00117775
0.00110513
0.00107423
0.00108143
0.00111781
0.0011724
0.0012396
0.00131384
0.00139141
0.000885378
0.00101856
0.00120925
0.00144786
0.00171238
0.00198475
0.00225296
0.00249978
0.00272023
0.00292256
0.00309638
0.00323138
0.00334708
0.00344446
0.00352315
0.00358842
0.00364185
0.00368363
0.00371956
0.00375381
0.00379002
0.00383253
0.00388413
0.00394453
0.00401242
0.00408828
0.00417147
0.00425933
0.00434879
0.00443674
0.00452066
0.0045979
0.0046655
0.0047204
0.0047599
0.00478164
0.00478357
0.00476414
0.00472206
0.00465633
0.00456624
0.00445181
0.00431327
0.00415135
0.00396672
0.00376085
0.00353519
0.00329201
0.00303435
0.00276663
0.0024963
0.00223557
0.00200395
0.00182121
0.00170032
0.00164997
0.00166059
0.00171496
0.00179671
0.00189319
0.0019955
0.00096428
0.000987086
0.00107472
0.0012287
0.00144401
0.00170913
0.00200685
0.00231415
0.00261245
0.00289331
0.00314904
0.00337713
0.00359041
0.00378419
0.00395227
0.00411395
0.0042693
0.00441473
0.00455292
0.00468491
0.00481289
0.00494034
0.0050705
0.00520487
0.00534314
0.00548401
0.00562751
0.00577621
0.00592624
0.00607351
0.00621493
0.00634715
0.00646657
0.00656922
0.00665156
0.00671031
0.00674274
0.00674634
0.00671912
0.00665921
0.00656513
0.00643617
0.00627216
0.0060732
0.00583946
0.00557235
0.00527299
0.00494339
0.00458624
0.00420575
0.00380914
0.00340901
0.00302773
0.00269319
0.0024387
0.00228941
0.00224314
0.00227614
0.00235964
0.00247097
0.0025956
0.00129589
0.00118592
0.00114503
0.00117495
0.00127664
0.00144907
0.0016865
0.00197529
0.00229544
0.00262505
0.0029447
0.00324311
0.00352077
0.00377983
0.00402715
0.00428042
0.00453585
0.00478536
0.00504108
0.00529825
0.00555441
0.0058069
0.00605488
0.0062993
0.00654084
0.00677896
0.00701261
0.00724206
0.00747035
0.00769233
0.0079046
0.00810323
0.00828458
0.00844387
0.00857712
0.00868026
0.00875006
0.00878281
0.00877609
0.0087268
0.00863293
0.0084926
0.00830558
0.00807103
0.00778865
0.00745922
0.00708398
0.00666448
0.00620364
0.0057054
0.0051773
0.00463225
0.00409425
0.00360022
0.00320039
0.00293834
0.00282288
0.00282634
0.00290753
0.00303294
0.00318102
0.00192402
0.00166406
0.00147625
0.00136369
0.00132755
0.00136826
0.00148531
0.00167533
0.00193015
0.00223443
0.00256721
0.00290733
0.003241
0.00356028
0.00386775
0.00417456
0.00449004
0.00482224
0.00518576
0.00556117
0.00595027
0.00634344
0.00673019
0.00710859
0.00747939
0.00784108
0.00819166
0.0085301
0.00885587
0.00916914
0.00946655
0.00974291
0.00999599
0.0102201
0.0104115
0.0105651
0.0106784
0.0107452
0.0107637
0.0107283
0.0106384
0.0104888
0.0102809
0.0100119
0.00968177
0.00928942
0.008838
0.00832713
0.00776129
0.00714448
0.00648592
0.00579946
0.00511211
0.00446983
0.00393515
0.00356713
0.0033848
0.00335932
0.00343826
0.00357858
0.00375077
0.00282809
0.00243023
0.00209452
0.00182854
0.00164047
0.00153279
0.00150673
0.00156077
0.00169273
0.00189724
0.00216325
0.00247661
0.00282187
0.00318267
0.00354729
0.00391792
0.0042893
0.00467374
0.00508194
0.00552396
0.00602505
0.00654729
0.00706226
0.0075726
0.00808013
0.0085798
0.00906439
0.00953306
0.00997903
0.0104012
0.0108002
0.0111655
0.0115011
0.0117987
0.012057
0.0122669
0.0124328
0.0125386
0.0125903
0.0125715
0.0124936
0.0123364
0.0121138
0.0118127
0.0114398
0.010986
0.0104635
0.00986229
0.00919529
0.00846373
0.00768297
0.00686588
0.00604385
0.00527442
0.00462668
0.00416994
0.00392917
0.00387908
0.00395429
0.00410924
0.00430142
0.00462642
0.0175993
0.0177016
0.00408334
0.0045436
0.00648948
0.00125326
0.0141443
0.00126403
0.00330398
0.0156093
0.0141899
0.00125293
0.0140682
0.00606424
0.0189552
0.00125723
0.0159492
0.014527
0.00126077
0.00534695
0.0139706
0.0172896
0.00128319
0.00125821
0.004482
0.00125965
0.00305358
0.00125444
0.00127016
0.00474286
0.00128531
0.00274609
0.00823508
0.0132606
0.0137434
0.0128532
0.0136963
0.00124895
0.0248373
0.00475208
0.011363
0.00124353
0.0187763
0.00606951
0.00933981
0.0012559
0.00220212
0.00131632
0.014427
0.0113447
0.0152467
0.00124581
0.00131616
0.00162447
0.000322579
0.00126918
0.00447254
0.0140595
0.0174253
0.00502823
0.0013133
0.00518319
0.00341865
0.0184451
0.0116102
0.0144109
0.0103663
0.00154072
0.00124202
0.0440613
0.0139716
0.00457629
0.000373648
0.00256812
0.0173635
0.017998
0.0167306
0.00124265
0.0137391
0.0017733
0.0249461
0.000659167
0.0182331
0.00124215
0.011681
0.00126244
0.0119067
0.00169939
0.00147812
0.00532546
0.00124245
0.00131415
0.0168755
0.0183811
0.00128836
0.0103555
0.00339382
0.00178663
0.0185471
0.00710138
0.0274801
0.00809462
0.00124238
0.00124379
0.00124482
0.0055567
0.00635773
0.00126833
0.0189245
0.0182819
0.00158709
0.00900489
0.00643759
0.00940748
0.0111714
0.0153485
0.00144297
0.00554257
0.00128633
0.00104261
0.00642129
0.00118806
0.0168384
0.0131491
0.00834943
0.00124325
0.0127214
0.0130114
0.00124332
0.00352056
0.00351609
0.00303465
0.00136381
0.0117088
0.00124366
0.00124379
0.0135482
0.0157049
0.00124548
0.00270361
0.0187025
0.00405474
0.00869693
0.00857442
0.0229498
0.00043813
0.0102588
0.00238361
0.0162503
0.0286725
0.000365636
0.0140691
0.0181645
0.018649
0.00125255
0.00124873
0.00786875
0.00125063
0.0132141
0.000803575
0.00161835
0.00124514
0.00124384
0.00124285
0.0171456
0.00731682
0.00625697
0.00134268
0.0148559
0.00749415
0.00228035
0.0203047
0.00258777
0.00888327
0.00552741
0.0166809
0.00124634
0.00161288
0.00466158
0.018441
0.0115004
0.0164546
0.00124392
0.00127875
0.0100502
0.00369617
0.0111838
0.00124424
0.00125377
0.00543735
0.00130815
0.016318
0.0102327
0.00124833
0.0083357
0.00380595
0.016849
0.00154606
0.0100851
0.00124405
0.00124616
0.0143576
0.0153829
0.0159225
0.00155693
0.00126506
0.00203624
0.0155949
0.00888922
0.0105096
0.0169996
0.0403366
0.0181628
0.00365064
0.0187026
0.0178459
0.0108121
0.0149016
0.0123454
0.00131553
0.00402632
0.00124494
0.00127314
0.0158813
0.0027308
0.00289935
0.00112514
0.0025182
0.0142135
0.0110777
0.00289348
0.0175555
0.013263
0.00539636
0.00124499
0.00423609
0.017133
0.0127317
0.00150027
0.00637042
0.00748039
0.00312871
0.00458363
0.0172601
0.00707952
0.00405182
0.0188606
0.00139035
0.00124346
0.0013577
0.00236729
0.0134503
0.00125784
0.00118281
0.00124767
0.00720346
0.0129181
0.019085
0.0200117
0.0237389
0.0154331
0.0160461
0.00154911
0.0129917
0.0209827
0.00124295
0.00500189
0.00124221
0.00538374
0.00714319
0.00454596
0.00156615
0.00124382
0.0153193
0.00305539
0.00124287
0.00124618
0.00124908
0.00125902
0.0094726
0.00631875
0.0172446
0.00171914
0.00124283
0.00124557
0.00124256
0.0186136
0.003562
0.00141904
0.0123526
0.00567802
0.00141716
0.00124406
0.00761434
0.00124264
0.00190638
0.00388767
0.00811172
0.00238346
0.00128315
0.00156261
0.0164152
0.00480586
0.00270267
0.0159459
0.00129719
0.00124213
0.00124518
0.0188373
0.00125506
0.024024
0.00124368
0.0122464
0.014963
0.00268259
0.00642851
0.00824545
0.00144957
0.0196454
0.0243993
0.00265549
0.0146959
0.0367634
0.0157996
0.0186501
0.0131022
0.0123469
0.0185776
0.00451291
0.00626387
0.0159291
0.0171133
0.0192559
0.0134105
0.00158173
0.0162022
0.00632242
0.0179317
0.00347553
0.00129689
0.00124327
0.00127124
0.00369133
0.00989653
0.00471294
0.00571653
0.00125086
0.0188895
0.00124327
0.00587304
0.01389
0.0186068
0.00983054
0.0154748
0.00148348
0.00138208
0.00175632
0.00856406
0.00201621
0.0058596
0.0103699
0.0163835
0.0178826
0.0171276
0.0234148
0.00127136
0.0169564
0.0183358
0.0027255
0.00124678
0.0184086
0.0187496
0.00125868
0.0125946
0.00124727
0.0111603
0.0155353
0.0137179
0.0185115
0.0058625
0.0189541
0.00128017
0.0190027
0.00133355
0.0205775
0.0172586
0.016693
0.0170545
0.0121613
0.00795418
0.0101962
0.00137919
0.00414614
0.00468293
0.00200011
0.00136642
0.00794147
0.00133085
0.017978
0.00124476
0.00124893
0.00179246
0.00912414
0.00488353
0.013577
0.00107944
0.0186271
0.00729265
0.0179693
0.0081118
0.015951
0.0111198
0.00132137
0.0170719
0.0172778
0.00124381
0.0171938
0.0143928
0.00124479
0.00124367
0.0132069
0.00190528
0.00883993
0.00167642
0.00716501
0.00348854
0.00932219
0.0154777
0.0151544
0.0154328
0.0135076
0.0171716
0.00158606
0.00104266
0.0136873
0.00956295
0.0155811
0.0119002
0.0168409
0.00429627
0.018565
0.0185401
0.00625882
0.00311714
0.0154135
0.0144322
0.00141899
0.0177158
0.0144977
0.00140376
0.0201815
0.0159866
0.0154727
0.0030834
0.00435526
0.0136607
0.00147544
0.0157279
0.00144004
0.00315068
0.00125121
0.0110034
0.00305071
0.00816889
0.00145777
0.00145027
0.00858062
0.00928109
0.0099273
0.00361549
0.0115641
0.00285386
0.00129523
0.0152133
0.0101393
0.0115349
0.00755734
0.00380966
0.0170969
0.0152696
0.0176041
0.0207646
0.0417313
0.0164518
0.00593072
0.0150136
0.0188746
0.000627225
0.00687056
0.0108094
0.00131619
0.00362281
0.00647856
0.0214789
0.00279221
0.0147248
0.00408117
0.0103043
0.00606775
0.00168153
0.00124314
0.00154365
0.0288578
0.0152358
0.0130998
0.0012434