/*--------------------------------*- C++ -*----------------------------------*\
| =========                 |                                                 |
| \\      /  F ield         | OpenFOAM: The Open Source CFD Toolbox           |
|  \\    /   O peration     | Version:  2.3.1                                 |
|   \\  /    A nd           | Web:      www.OpenFOAM.org                      |
|    \\/     M anipulation  |                                                 |
\*---------------------------------------------------------------------------*/
FoamFile
{
    version     2.0;
    format      ascii;
    class       volSymmTensorField;
    location    "1600";
    object      sigma;
}
// * * * * * * * * * * * * * * * * * * * * * * * * * * * * * * * * * * * * * //

dimensions      [1 -1 -2 0 0 0 0];

internalField   nonuniform List<symmTensor> 
11800
(
(91203.3 59605.7 4.43927e-14 -2234.13 2.35555e-14 22075.1)
(-47832.8 56828.8 6.81466e-14 -2592.96 2.16598e-14 -12511.7)
(396746 67791.4 -1.05816e-15 916.972 -5.00321e-14 98668.2)
(-348704 41029.8 0 1031.08 0 -86264.6)
(-49091.1 54597.6 1.27154e-14 -6952.43 -3.59895e-14 -13905.5)
(-219302 71757.3 4.96942e-14 2840.92 2.61058e-14 -53708.3)
(-40321.1 70919.1 9.33448e-14 -616.268 -2.43096e-14 -10157.4)
(-56301.6 70692.4 -1.39318e-14 1268.69 5.61653e-14 -13654.8)
(125459 46965.9 1.92751e-14 357.739 -1.32183e-14 31217.6)
(82021.4 73706.7 -4.84094e-14 874.482 -4.08442e-14 20568.1)
(105652 51860.7 -3.70351e-14 125.303 3.17552e-14 26245.5)
(-505450 31965.7 -4.47733e-14 -4213.82 -2.03573e-14 -126458)
(15864.7 -23080.2 8.61085e-17 -42832.7 6.69176e-17 -6691.32)
(368147 41085.7 4.06991e-14 2608.68 -1.11742e-14 91992.1)
(-297463 66915.7 -3.37236e-14 6089.77 2.62648e-14 -72295.6)
(1.45628e+06 294.75 0 -4463.32 0 360225)
(-26564.4 58990.2 3.15873e-14 1957.43 2.79185e-15 -6105.49)
(-40529.9 53350.2 -1.78631e-14 4605.59 1.02822e-13 -8913.54)
(85485.1 88517.1 -1.891e-14 -11499.2 1.34932e-14 18357.4)
(62019.2 49285 -6.44373e-14 -6386.04 -2.08689e-14 13803.7)
(-275364 45928 1.99911e-14 625.037 2.09758e-14 -68168.2)
(-441466 62995.4 3.20329e-14 1953.87 -1.86509e-14 -109052)
(-631176 86635.7 -1.69329e-14 8512.11 1.09759e-14 -154495)
(-579406 55926.1 1.74792e-16 737.788 2.96867e-15 -143579)
(1.18066e+06 60779.6 1.9619e-15 -5867.77 2.4342e-14 291490)
(-745205 85027.4 -1.65767e-14 5852.06 -4.93006e-16 -183449)
(-738957 44227.2 0 6489.76 0 -181740)
(362423 36210.9 -5.26814e-14 -5158.99 -3.18602e-14 88644.4)
(-813831 45717.5 -9.47679e-15 7723.04 -4.49318e-14 -200012)
(-891564 47145.2 1.24406e-14 8436.88 -1.9479e-14 -219122)
(242913 39740.6 -6.51867e-14 -1265.93 -1.17032e-13 59957.4)
(47844.2 55835.6 -1.10908e-14 1837.67 -9.27125e-15 12327.1)
(749410 80955.9 -2.65783e-15 8325.49 -1.18659e-14 188009)
(-20283.7 65668.3 8.53027e-15 -513.586 -6.39522e-14 -5160.23)
(12981.7 67883.4 -2.2539e-14 3894.86 -9.69512e-14 4187.41)
(-239419 31866.6 -5.91936e-14 3174.41 -4.305e-14 -58617.1)
(13542.8 67989.8 8.0069e-14 2603.28 -9.5412e-14 4006.17)
(803622 52863.4 -9.75417e-15 4203.95 -4.26078e-14 200438)
(-28284.1 64107 0 -3295.34 0 -7835.51)
(59454.4 58618.2 -2.79239e-14 3339.86 5.20775e-14 15580.5)
(-776725 36052.6 -5.01621e-14 -3629.33 -2.33712e-14 -193622)
(-855189 36526.8 3.6029e-14 -3712.94 -2.07157e-14 -213111)
(380250 46128.7 -2.02749e-14 -2692.93 -6.77483e-14 93679.6)
(-936756 37774.9 -7.05272e-15 -3668.29 -3.6982e-14 -233338)
(254959 47445.8 1.73318e-13 2007.03 -5.41669e-14 63758.5)
(1.35959e+06 39511.3 0 -5104.19 0 336076)
(596419 93170.8 -1.07175e-14 -2630.96 5.65909e-15 147331)
(712623 42815.3 -1.88433e-14 -7614.71 -1.31922e-14 174927)
(-64085 65643.8 -6.87261e-14 -1319.58 -4.24199e-14 -16228.2)
(146314 61030.7 0 1504.39 0 36676.6)
(-520926 36454.5 -3.2868e-15 2416.09 3.54053e-14 -128653)
(-367359 36135.5 1.15324e-13 4647.78 1.3541e-14 -89996)
(-7634.85 67133.7 6.45642e-14 -567.526 4.02842e-14 -2035.18)
(25900.6 103379 -1.50398e-15 5496.86 1.31261e-14 7790.36)
(-1.56287e+06 5203.01 -2.36604e-15 -8318.8 -3.54736e-15 -389843)
(1.27791e+06 -46257.6 3.05566e-15 -58713.1 5.57511e-15 302507)
(-43062.6 23544.2 5.56331e-14 1731.23 2.06852e-14 -10255.2)
(-331083 70279 4.17e-15 -3413.17 -3.49842e-14 -82995.2)
(262684 49132.6 -3.53708e-14 5480.32 5.18371e-14 66537)
(-236869 72126.8 2.91907e-14 -5343.06 -5.27028e-15 -60097.7)
(1.30758e+06 24532.7 -2.69708e-14 -9458.45 -9.35031e-15 322090)
(-32319.6 69805.5 2.73229e-14 391.83 -4.45578e-14 -7921.93)
(-261618 59760.4 -1.59818e-14 -2387.36 2.75563e-14 -65505.2)
(205920 60187.5 4.82423e-14 1045.25 -2.75607e-14 51352.2)
(1.16804e+06 17296.2 2.99363e-15 57.2863 -1.75709e-14 289829)
(-166736 33316.2 -7.82275e-14 2521.68 -9.46754e-14 -40745)
(-538419 20155.1 5.52472e-14 2360.84 1.84584e-14 -133007)
(-383877 22694.3 1.53145e-15 4061.65 -9.68185e-14 -94240)
(-44206.2 25303.1 0 -2422.26 0 -11569.5)
(-695050 52611.4 -1.22124e-15 7257.36 4.36065e-14 -170655)
(-17115.7 69110.1 -1.5667e-14 472.671 3.24044e-14 -4129.47)
(-34377.6 56035.1 -6.03612e-14 -3097.33 6.76504e-14 -9298.29)
(-30586.5 54361.1 4.23356e-14 -3640.11 -2.59527e-14 -8492.31)
(-1.08821e+06 250798 -3.89678e-15 142362 3.59865e-15 -234684)
(1.29422e+06 56192.8 -9.6318e-16 -4617.26 -1.08343e-14 319976)
(-225426 43657.5 -5.81507e-14 6165.88 -4.23426e-14 -54403)
(1.21309e+06 16235.6 -2.22894e-14 3174.37 1.98312e-14 301779)
(-162620 23974.4 5.14309e-14 859.245 -1.68987e-13 -40136.2)
(-120921 41810.1 9.66787e-15 3195.16 -9.24335e-15 -29210.2)
(-116259 50598.9 9.86821e-14 3440.54 9.91362e-14 -27992.5)
(-1.57895e+06 -27103.3 8.45668e-15 5804.78 3.85808e-14 -390329)
(64037.1 46714.9 0 5801.96 0 17328.5)
(36997.1 56423.3 -1.02618e-13 501.153 -4.05062e-14 9304.08)
(25315.5 60078.5 3.55761e-14 2446.63 -2.83712e-16 6888.34)
(-51832 52055.3 2.45777e-14 -5496.88 6.96528e-14 -14224.5)
(-865658 56773.5 -1.37644e-14 -4243.58 7.0775e-14 -215840)
(259845 45017.7 8.28588e-14 2534.31 -2.58186e-14 65101.7)
(-788764 53562.1 0 -3999.37 0 -196701)
(-716605 52173.3 -2.91679e-14 -3536.4 -2.98532e-14 -178682)
(380018 41691.5 3.80276e-14 3458.26 2.31551e-15 95148.1)
(-8763.85 65532.7 -1.33758e-13 -2107.25 -8.59419e-14 -2697.34)
(887945 75422.2 0 -3240.75 0 219513)
(-71580.5 58980.4 -2.83764e-14 1775.41 -4.71301e-14 -17320)
(49860.6 21011.9 -1.63824e-14 3594.57 -2.37989e-14 13263.3)
(103850 54774.4 1.263e-13 379.56 2.25444e-15 25861.4)
(36725 -27715.7 -5.48173e-16 -78080.2 -4.06424e-16 -10261.1)
(-1943.51 7598.35 1.42319e-17 4560.78 -8.4641e-17 649.398)
(-36957 -27453.1 -3.45878e-16 77649.1 2.30523e-16 10096.5)
(-8727.28 66982.6 -4.15865e-14 -1190.13 -6.084e-16 -2460.71)
(-439532 42783.1 -1.02481e-14 -2040.62 4.11554e-14 -109563)
(34576.3 37147.7 2.28634e-14 -371.811 -6.40758e-14 8486.82)
(475744 47933.8 -4.97181e-14 -4849.29 -6.90028e-14 116839)
(-841161 82870.6 3.48892e-15 300.305 7.08789e-15 -208635)
(-280964 64004.2 -2.14311e-15 4493.57 6.81282e-15 -68598)
(725.589 70851.9 -6.42072e-15 -413.618 -3.19924e-14 77.4064)
(211983 78713.4 -1.37361e-14 1564.23 -2.38807e-14 52985.4)
(-97192.6 56451.5 -3.94211e-14 443.465 8.70886e-14 -24005.4)
(-68405.8 60487.5 -1.3327e-13 -529.544 -6.43753e-14 -17104.3)
(1.27542e+06 22240.8 7.82868e-15 3955.48 1.65849e-14 317439)
(787706 47786.6 1.2493e-14 2470.16 2.53202e-15 196059)
(865922 49884.9 2.39686e-14 3181.68 3.35978e-14 215642)
(716524 46121.3 8.70467e-14 2833.67 5.16563e-14 178487)
(-264307 45749.2 3.88496e-14 -4013.75 6.07353e-14 -66575.7)
(-386567 43294.3 -1.02846e-13 -3537.27 3.70012e-14 -96792.9)
(136552 51492.9 4.4345e-14 -161.851 -2.32827e-14 33841.1)
(1.14931e+06 34732.3 1.1898e-14 547.258 7.05416e-15 285302)
(158028 29084.6 -3.1999e-14 -3316.72 -1.2589e-13 38387)
(-48292.2 63241.6 -1.10854e-13 1480.9 1.03845e-13 -11614.8)
(1.07596e+06 60697 -1.37888e-14 650.102 1.71966e-14 267129)
(-86423.2 76160.3 -3.63551e-14 337.302 -9.79936e-15 -21359.7)
(-143320 43081.7 -2.56335e-14 2501.82 -1.08386e-14 -34939.9)
(41673.8 71103.6 7.94292e-14 -3063.11 -1.13873e-13 9580.09)
(58291.7 71850.9 -5.55098e-14 -1120.52 3.82239e-14 14185.3)
(-40780.8 59387.3 -1.61211e-14 248.266 -2.38122e-14 -10056.9)
(-74865.9 56249.3 -1.00941e-13 553.39 -7.88943e-14 -18438.5)
(-2514.11 66626.1 -9.7012e-14 -2557.48 -7.31398e-14 -1258.36)
(-24723 66457.1 -5.81682e-14 -4172.55 6.4018e-14 -7169.56)
(-4256.38 66573.9 -3.8031e-14 -1359 -3.63074e-14 -1393.29)
(6723.37 50636.6 1.81468e-15 30662 8.12506e-14 9276.07)
(-28849.2 12097.4 -3.0245e-16 -6616.15 3.87045e-14 -8799.66)
(-1.39816e+06 -221925 1.25833e-14 57960.2 -6.41534e-15 -332532)
(-977510 59489.3 8.92902e-15 -6927.46 -1.35724e-15 -244259)
(284837 40639.8 4.38595e-14 4082.8 -4.28257e-14 71686.9)
(-860486 57546.9 -3.47244e-14 1390.14 2.18539e-14 -213159)
(405720 36604.2 -1.98527e-14 4726.88 6.00278e-14 101840)
(-781140 53572.4 1.32376e-14 1695.35 1.32898e-14 -193396)
(-709136 51523.7 -7.55526e-14 2159.85 5.78476e-14 -175415)
(236862 53613.2 4.2897e-14 -1398.57 1.19816e-13 58423.3)
(-737315 30248.3 4.73437e-14 5137.43 -6.54384e-14 -181668)
(340139 53487.9 5.34322e-14 -1472.5 -4.2588e-14 84029.9)
(-670082 28839.4 3.8959e-14 4514.57 -6.74589e-14 -165141)
(-608694 29337.5 -4.04311e-14 4836.86 -3.64134e-14 -149829)
(-357699 73179.1 3.11461e-15 11311.4 3.11189e-14 -85945.9)
(102615 61429.4 -2.14041e-14 -5106.46 -1.42986e-13 24193.9)
(145293 57154.3 -3.43045e-14 -5051.08 -9.93698e-14 34796.8)
(-215044 55590.1 -1.03771e-14 6806.02 6.0121e-14 -51668)
(862458 34743.4 -6.59197e-14 916.394 -2.22086e-14 214221)
(-897870 -5466.16 6.35109e-14 -7746.92 1.97005e-14 -224702)
(500441 38053.7 4.461e-14 -2452.76 -4.15693e-14 123561)
(-278358 44193.3 1.03454e-15 5169.83 6.16316e-15 -67783.5)
(-123264 59603.5 -5.5537e-14 3060.8 -4.5962e-14 -29824.8)
(-128920 52348.3 4.75312e-14 -508.406 -4.30768e-14 -32113.8)
(12662.1 66899.1 3.61328e-14 2131.5 6.61248e-14 3670.58)
(-181903 45216.2 -8.12753e-14 1590.6 8.44112e-14 -44739.2)
(149251 51295.7 -4.26866e-14 -4205.21 -4.51837e-14 35988.7)
(100271 61036.5 -3.90605e-14 1162.32 3.01611e-14 25167.6)
(-328162 47886.7 6.61675e-14 5914.13 -4.46054e-14 -79956.2)
(-455672 51019.2 2.41974e-14 1958.54 5.28856e-14 -112576)
(961132 23655.5 1.53887e-14 1256.92 -2.28838e-16 238788)
(-3899.76 69068.4 1.89671e-14 416.262 -9.24305e-14 -864.326)
(1.44908e+06 60743.1 -1.82572e-14 -9806.56 -9.97429e-15 357114)
(-149959 53702.9 -7.02032e-14 1689.04 4.84491e-14 -36788.9)
(1.21832e+06 39960.8 0 -12775.7 0 299120)
(-339312 53085.8 2.11191e-14 -2266.81 8.7951e-14 -84752.7)
(-373270 54202 -2.1643e-14 -3056.72 2.57602e-14 -93374.3)
(-409814 56937.4 -3.40842e-15 -3769.91 9.37991e-14 -102619)
(181600 57578.3 -5.21761e-14 374 1.28591e-14 45151.5)
(123298 61663.6 -5.55379e-14 -383.922 1.37395e-14 30497.4)
(-1.59771e+06 -6890.99 1.45441e-14 -7164.92 -8.32064e-15 -398202)
(-951741 56898.8 -1.45414e-14 -5159.08 2.7653e-14 -237426)
(319456 44195.5 -5.54676e-14 3932.74 -3.25098e-14 80239.3)
(438824 39805.9 1.56448e-13 3132.45 -8.42011e-14 109658)
(51974.6 64133.7 3.04968e-14 -5982.95 -7.89767e-14 11411.5)
(-267534 32378 0 1770.04 0 -65941.5)
(-273138 21949.4 8.33708e-14 653.836 -4.24363e-14 -67608.8)
(1.34994e+06 42663.9 2.34002e-14 -10588.4 1.565e-14 332321)
(1.38436e+06 -2380.81 1.93586e-14 9186.94 1.71948e-14 345767)
(698221 26041.6 1.03752e-15 -233.261 4.03986e-14 173185)
(635515 26322.3 7.92409e-15 438.285 9.74908e-14 157793)
(767163 25525.4 2.10626e-14 -918.289 -3.04013e-14 190121)
(-325992 54372.9 -5.0358e-14 3034.49 4.53812e-14 -80132.4)
(-219540 54629.2 -4.87911e-14 1538.83 5.36039e-14 -54090.4)
(140773 70170.2 0 1315.9 0 35255.1)
(94356 72472.7 -2.05323e-15 955.431 7.76944e-14 23648.7)
(307593 55715.7 -6.042e-14 -604.548 4.94573e-14 76170)
(-131773 53301.8 -4.82911e-14 994.971 1.14776e-13 -32448.6)
(-217758 80185.9 -9.83628e-15 2741.69 4.37356e-14 -53350)
(63547.7 60687.1 -1.77744e-13 -798.539 -4.72457e-14 15569.3)
(89342.4 55413.1 -1.23284e-13 -327.776 5.1664e-14 22086.3)
(-59462.3 66769.4 -2.39515e-14 1735.36 -3.34347e-16 -14323.2)
(-163372 50049.2 -2.03733e-14 2923.61 -1.27599e-14 -39810.6)
(-148178 48897 1.33765e-14 2304.45 -2.29013e-14 -36194.1)
(-151585 40949 0 -829.714 0 -37817.1)
(-77075.9 84290.6 2.93042e-16 -3079.62 -2.74581e-14 -19888.2)
(-656731 8990.25 5.8571e-14 -5447.22 -2.5652e-14 -164300)
(829064 39991.8 -7.67849e-14 -3834 -7.65359e-15 204756)
(1.13428e+06 132628 4.80609e-15 -205477 2.44943e-15 230454)
(-27227.8 61242.6 1.58694e-14 -2051.38 -3.60335e-14 -7264.76)
(165485 25197 5.78975e-14 1002.73 -1.32373e-13 41309)
(-1.43118e+06 -169343 1.20531e-14 118654 -7.94824e-15 -325664)
(76521.3 49968.8 2.4796e-15 3492.23 6.73001e-14 19853)
(204227 34586 4.67701e-14 2468.16 -5.37483e-14 51285.2)
(224906 37020.2 6.52981e-14 -3718.48 -2.75831e-14 54881.1)
(-3035.56 69270.6 4.91576e-14 -17.6141 -7.30481e-15 -757.555)
(-3631.1 71007.7 5.18561e-14 -560.841 4.39379e-15 -1040.11)
(600918 29866.5 1.6692e-14 -4008.26 5.60403e-14 148105)
(497609 66255 2.13995e-14 3213.56 -5.17743e-15 124264)
(-450367 56172.3 0 3444 0 -110891)
(-385871 36078.8 -5.3986e-14 -6613.03 -3.38169e-14 -97383.3)
(1.38935e+06 -223944 -5.04412e-15 -59234.2 -3.46846e-15 330028)
(-408481 90706.7 -4.43246e-15 11341.6 5.26288e-14 -98538.4)
(-660970 40543.2 3.1084e-14 -1590.61 -1.84381e-14 -164395)
(-1.45364e+06 -584761 -1.36322e-14 307551 5.34923e-15 -284368)
(1.664e+06 2812.09 0 23019.5 0 418584)
(-1.27356e+06 -542158 -4.43886e-15 144800 1.37507e-15 -280068)
(210730 92529.5 -2.96641e-14 -189.293 1.05434e-14 52239.5)
(-47785.8 57979.4 -5.01622e-15 -2754.3 7.02365e-14 -12540)
(-606830 66948.8 2.57084e-14 -4814.3 -2.83997e-14 -151761)
(-548431 64849.5 3.8159e-14 -3839.05 -4.74959e-15 -137029)
(-498459 62600.6 -4.32932e-14 -3476.5 1.65934e-15 -124540)
(177907 51575.7 3.72329e-14 2886.2 -1.03999e-13 44858.6)
(262412 47382.3 -9.36288e-14 3123.81 9.11243e-14 65884.8)
(26475.9 58725.2 -1.46891e-14 -5844.76 6.90419e-14 5119.01)
(36765.7 53457.3 3.48604e-14 -7076.33 4.47212e-14 7366.54)
(-92556.5 85952.5 -4.12348e-14 14634.4 1.11991e-14 -19334)
(-54941 51228.2 2.98996e-14 9346.63 -3.83076e-14 -11312.9)
(-798825 -321841 -3.44393e-15 -20554.3 7.16825e-16 -203305)
(134688 86168.5 -2.32714e-14 10258.1 -8.30204e-14 35964.2)
(-66164.8 52865.8 -7.79302e-14 -5839.32 -3.56814e-14 -17865.7)
(-310379 75358.2 0 -77.9928 0 -77030.6)
(134585 54394.1 6.19241e-14 424.587 -2.53833e-14 33498.6)
(-65439.3 67432.5 0 -259.668 0 -16301.2)
(-51058.9 59495.7 -3.77477e-14 88.8032 -5.98914e-14 -12646.7)
(457814 55463.1 5.35149e-14 2747.03 -5.59611e-14 114275)
(470934 39284.5 8.16963e-14 -546.324 3.90611e-14 116713)
(1.44672e+06 -582344 -5.08256e-15 -305348 -1.68143e-15 283198)
(795035 -320728 5.94877e-15 20678.8 1.62599e-15 202395)
(-151614 45149.7 1.15086e-14 849.906 1.64024e-14 -37407.7)
(-162508 46903.2 -3.49548e-14 -2142.35 -7.16045e-14 -40853.1)
(-825294 7976.3 -3.90398e-14 -4086.97 -8.99181e-15 -205786)
(663177 40065.3 8.78534e-14 -3195.68 -2.30267e-14 163755)
(219230 56130 2.83978e-15 -1301.53 1.58713e-13 54072.6)
(324406 56732.7 5.38891e-14 -2424.79 5.8708e-14 79890)
(-774667 26149 -1.35943e-15 -831.469 3.45922e-14 -192417)
(-707863 27176.9 -3.48338e-14 -401.105 1.15221e-14 -175735)
(-643321 28167 -2.19047e-15 -435.089 5.39455e-14 -159729)
(-9111.19 70078.5 -8.18337e-14 -1118.14 2.37108e-14 -2538.1)
(-853352 27216.4 2.30215e-14 -1874.42 2.47845e-14 -212199)
(271261 54298.8 -5.52268e-14 -1487.4 2.71337e-14 66936.2)
(375606 54437.1 0 -2682.86 0 92529.8)
(356167 45314.6 2.1158e-14 -2566.82 5.0722e-14 87735.3)
(69880.3 57831.6 -6.91408e-14 2380.72 -1.83108e-13 17929.4)
(4930.38 63789 -6.0609e-14 -6990.84 -2.23382e-14 -511.242)
(313799 42077.5 -8.11001e-14 9810.24 1.4689e-14 80293.9)
(-253854 45739.5 -6.72378e-15 -1097.56 -5.4193e-14 -63258.7)
(39207.2 67701.6 9.36024e-16 -10446.9 1.20163e-14 7136.03)
(1.26719e+06 -540416 -4.60378e-15 -143760 -1.15502e-15 278746)
(175985 60396.7 5.61956e-15 -2650.84 -1.02799e-13 43007.8)
(212820 59474.5 4.77791e-14 -816.362 1.62697e-14 52602.5)
(-142723 60057.8 0 1162.74 0 -35124)
(-169225 65756.6 1.76993e-14 -3607.55 -4.93818e-14 -42883.3)
(493380 62000.1 0 5212.67 0 123711)
(542972 64866.9 3.18241e-14 4870.93 3.02998e-14 135931)
(595618 68809.7 -7.18341e-14 5014.71 -6.89062e-15 149029)
(-265306 44875 9.88283e-14 -4065.59 1.00498e-13 -66836.6)
(-182222 49667.9 5.17449e-15 -2992.23 -6.00388e-14 -45955.3)
(-11513.2 68570.1 5.82851e-14 1542.51 3.10872e-14 -2473.93)
(1.28128e+06 19904.2 -9.52421e-15 -19384.8 -1.779e-14 313101)
(-8950.11 71020.8 -6.31275e-14 -4284.41 1.9693e-14 -3283.75)
(12368.5 45730.2 -6.21105e-14 7103.64 -3.87917e-14 4831.43)
(26297.2 65825.9 4.52976e-14 448.582 -1.05319e-13 6636.17)
(278658 59989.9 4.86931e-14 -709.459 5.15653e-14 68964.7)
(-117141 11075.4 -8.02371e-14 -2822.37 3.94822e-15 -29765.5)
(365934 66932.9 0 -2496.15 0 90176.3)
(1.36549e+06 -46368.7 2.22406e-16 -197336 8.93303e-17 289842)
(285325 21385.1 4.62871e-14 3730.94 1.05405e-13 71720.7)
(272722 29636 2.0985e-14 -4573.76 1.14464e-14 66533.1)
(-401215 55704.5 6.93829e-15 4247.98 1.46357e-14 -98495.5)
(-286204 54529.6 -5.37857e-14 2552.66 1.72408e-14 -70379.6)
(-342601 39804.9 -1.10305e-13 -43.1702 -1.93433e-14 -85016.9)
(-245858 43920.8 5.5491e-15 -1496.84 -5.84552e-15 -61373.8)
(886863 24736.6 -4.04346e-15 -1837.26 1.31868e-14 219593)
(731984 73027.5 1.74267e-15 -756.258 -2.72518e-14 181433)
(200882 64821.5 9.77093e-15 -1826.71 5.78676e-15 49389.6)
(271049 56155.8 1.8323e-14 494.522 3.12529e-14 67375.5)
(147763 65318.6 5.08528e-14 -3627.04 3.62895e-14 35763.1)
(200402 56613.3 4.56183e-14 -3172.72 -7.23229e-15 48936.7)
(-403587 46400.5 -8.65515e-15 3755.12 2.18495e-14 -99206.5)
(-528485 64449.2 -2.40751e-14 1390.09 4.32564e-15 -130783)
(-126708 97452 2.70483e-14 -276.585 1.94019e-14 -31507.5)
(893592 48658.3 3.03261e-14 3771.05 2.18807e-14 222654)
(970034 49406.3 -6.60488e-15 16204.6 3.30395e-15 244706)
(1.15767e+06 49133.7 5.35229e-15 -1114.98 3.3897e-15 286966)
(76109.1 63715.7 -9.88273e-14 2475.09 1.20182e-13 19498.3)
(-281827 22662.5 -6.12697e-14 -1908.35 -3.15288e-14 -70400.5)
(-270860 31553.8 -7.77284e-14 5387.86 5.20513e-14 -65869.1)
(1.32137e+06 766.765 0 9554.33 0 330230)
(1.32275e+06 47391.3 0 32.6678 0 328210)
(743652 38671.3 1.1956e-14 -1875.96 5.77814e-14 184050)
(739974 13598.2 3.89901e-14 3549.04 -1.089e-13 184483)
(-774673 14075.9 0 -6489.66 0 -193822)
(-754125 37792.2 0 5481.72 0 -185754)
(22838.7 64522.7 -1.36165e-14 3244.32 3.90696e-14 6471.73)
(-59554.7 35578.2 1.45808e-13 -4512.37 -6.18154e-14 -15896.3)
(-214101 30917.4 -3.84354e-14 -3246.73 -1.41982e-14 -53928.3)
(1.78207e+06 2648.48 0 36264.5 0 451167)
(-31957.9 59109.3 -9.61171e-14 -4715.13 -2.4175e-15 -9099.32)
(-36213.1 61872.7 -1.38442e-14 -5618.78 -7.71446e-14 -10379.3)
(178193 68416.5 -4.98082e-14 -3640.01 -3.41792e-14 43310.1)
(-143329 68524 -1.03993e-13 -3497.94 4.36102e-14 -36430.9)
(170973 46353.1 3.04471e-14 -5907.26 -3.15268e-14 40956.2)
(-661013 37516.2 2.13884e-14 -5652.46 -4.37686e-14 -165413)
(660415 40058 -8.78691e-15 -6670.95 -5.3557e-14 162207)
(-1.18451e+06 59263.3 9.39817e-15 -6939.34 -4.10626e-14 -295624)
(-1.4823e+06 -126309 5.20579e-15 285371 -3.82429e-15 -296982)
(501757 83634.9 -8.21268e-15 -10560.7 1.02837e-14 121876)
(50372.6 73449.8 -5.20395e-15 -3287.36 2.92801e-14 11682.8)
(-623799 61264 -2.61838e-14 -3847.62 -7.30149e-14 -155732)
(520402 28160.2 -3.37853e-14 5472.31 4.86973e-14 130480)
(-367227 41208.7 3.74809e-14 -6876.83 4.80842e-14 -92822.7)
(281231 59803.1 5.578e-14 3319.8 9.61414e-16 70602.8)
(50527 71860 1.54543e-14 1756.12 7.24505e-16 12972.5)
(92243.2 59160.3 -6.53674e-14 -1264.44 8.2243e-14 22573.7)
(-186695 51249.8 4.60054e-14 -11753.3 -4.90155e-14 -49239.1)
(-300421 87878.6 8.14762e-16 4410.91 6.17233e-14 -73446)
(-169434 50331.8 7.03427e-15 -11065.9 -4.92843e-14 -44785.7)
(-273046 83753.7 4.46491e-14 3469.01 -1.63344e-14 -66887.6)
(66033.7 46620.3 -2.85336e-14 -1859.6 8.90702e-15 15922.9)
(-30714.7 71783.6 -7.36045e-16 2057.43 -5.42519e-14 -7110.45)
(-20143 73244.3 6.7001e-14 1567.33 5.38226e-14 -4609.01)
(-14154.1 69751.3 3.44517e-14 -18.9913 -7.51552e-14 -3516.64)
(959342 37973.3 2.09424e-14 2834.87 3.22774e-15 238736)
(-10047 72941.3 -7.62719e-14 -4112.58 -3.39512e-14 -3513.28)
(-38097.6 60720.5 3.74091e-14 -6807.9 -1.25488e-13 -11142)
(1.36849e+06 -29510.1 -1.04727e-14 -71362.7 -7.76143e-15 321843)
(205411 47794.7 3.99749e-14 -4394.28 -5.13267e-14 49876.3)
(-495741 77530.2 2.75363e-14 8995.83 7.46971e-15 -120771)
(-545076 47716.1 -4.38984e-14 1881.86 -1.92364e-14 -134778)
(-542708 27237.6 0 -5690.77 0 -136069)
(683311 19273.8 -3.97045e-14 4727.91 -1.88911e-14 170716)
(652716 54372.6 2.29263e-15 6544.25 4.74057e-14 163576)
(-23935.1 51997.8 -4.42634e-14 2164.52 3.61437e-14 -5401.73)
(-18199.2 52261.3 3.21237e-14 1901.48 -1.79848e-13 -4043.79)
(-457756 84677.6 -1.84288e-14 5435.58 -4.64036e-16 -112230)
(-615588 63970.8 0 7821.57 0 -150799)
(440053 47390.9 1.01455e-14 5120.81 2.53519e-14 110457)
(-1.1498e+06 75272 4.42067e-15 -4763.33 -1.42425e-14 -286470)
(34963.2 52832.6 0 8250.28 0 10722.1)
(603871 40150.1 -2.21167e-15 -1589.85 1.50897e-14 149438)
(455958 81219 -1.17227e-15 3585.24 5.81187e-17 114022)
(-278155 64182.8 8.26224e-14 4806.03 -1.06277e-14 -67823.4)
(-216796 47729 -8.04534e-15 953.925 5.83014e-14 -53554.8)
(-197905 62498 1.27252e-14 2813.36 -4.85069e-14 -48406.1)
(-153785 50367.1 -7.19381e-16 -526.397 2.85005e-15 -38287.7)
(-229943 35235.5 2.97692e-14 2019.7 4.40161e-14 -56552.4)
(-192357 39629.6 -5.20719e-14 5774.04 1.05011e-14 -46295)
(-231255 75414.6 0 1183.28 0 -57085.4)
(-262961 78772.9 -2.68e-14 -398.123 2.3337e-14 -65344.9)
(-289829 82949.7 -2.20405e-15 -590.34 -2.51764e-15 -72058.9)
(75892 54268.6 -1.28147e-13 1578.82 -6.41465e-14 19222.1)
(-15761.8 66567.1 -2.84376e-14 -2420.81 5.67082e-14 -4511.49)
(544844 33499.3 -1.62996e-14 3557.96 4.62263e-14 136070)
(569759 43478.5 2.25289e-14 -4628.99 -4.36661e-14 140220)
(96113.9 59383.4 4.6178e-15 -1385.86 -3.20221e-14 23504)
(137683 52376.4 0 1469.55 0 34526.5)
(-320258 82252.8 3.41056e-14 -1340.35 -3.7646e-14 -79795)
(274767 54752.6 -6.51224e-14 2733.4 -7.92322e-16 68853.5)
(299849 74463.1 -2.85009e-14 2929.8 -1.75481e-15 75125.5)
(-105728 60779.8 -5.27121e-14 -2392.32 7.56757e-14 -26826.8)
(-89216.3 62651.9 3.07699e-14 -2344.22 1.81313e-15 -22718)
(-132038 64939 5.00079e-14 663.161 1.7812e-14 -32596.7)
(-146889 57769.1 0 -757.395 0 -36634)
(-667026 40252.7 1.51525e-14 -462.716 -2.32604e-14 -165618)
(288830 58050.1 -2.41161e-14 227.389 -9.58328e-14 71721.1)
(208678 58948.9 -1.10546e-14 -493.556 -1.58089e-15 51654.8)
(-79494.4 152564 -7.12091e-15 16139.8 -5.178e-15 -15719.6)
(754099 29408.1 -5.09454e-14 -6013.24 -3.05571e-14 185615)
(-890372 13706.1 4.44496e-14 1825.58 2.66276e-14 -220466)
(-116309 142606 0 -3372.03 0 -29695.3)
(-109007 61271.8 1.84149e-14 2557.58 5.56759e-14 -26412.2)
(-93006.9 64081 -1.38514e-13 4106.24 -3.51812e-14 -22058)
(-156485 56456.1 5.98654e-14 1267.85 6.73492e-16 -38512.6)
(-135024 60791.1 0 2788.6 0 -32810.3)
(304355 51515.1 3.1508e-14 -2412.98 -5.07438e-14 74918)
(349912 67388.1 1.14627e-14 -2338.09 4.86795e-15 86240.2)
(280382 53374.6 -2.32612e-14 -5259.79 2.23022e-14 68263.5)
(327835 68051.4 2.46798e-14 -3806.05 6.86308e-14 80398.2)
(254264 51547.9 1.9305e-14 -3769.67 3.25105e-14 62152.7)
(297258 64921.4 -4.20618e-14 -2944.09 2.40786e-14 73025.2)
(240643 33381.1 1.87757e-14 1125.12 7.10377e-14 59987.5)
(232250 23430.5 5.52288e-14 4507.15 1.1843e-13 58744.1)
(-486792 69978 -1.10906e-14 1085.89 1.46765e-14 -120514)
(211471 62222.8 -5.73163e-14 -3145.27 -1.38642e-15 51689.8)
(-523596 52413.4 0 4392.24 0 -128825)
(903658 67880.2 3.21153e-14 -8394.09 -2.02462e-14 222133)
(-440627 33839.6 5.78047e-14 1666.77 -9.52623e-14 -108915)
(-324213 37171.3 6.96915e-14 98.383 -4.68962e-14 -80419.3)
(-1.098e+06 -519065 -4.23061e-15 175351 9.43864e-16 -228927)
(32637.5 63175 7.77508e-14 648.352 -2.04527e-14 8258.9)
(962200 42600.3 -1.07096e-14 -2147.09 -5.2842e-16 238209)
(-449606 46746.9 -1.62628e-14 1531.21 -4.70579e-14 -111177)
(-326499 46561 1.0103e-13 686.22 4.9795e-14 -80840.8)
(1.48311e+06 -5131.24 1.76877e-14 -2502.76 7.87574e-15 367369)
(-64736.8 57172.2 -1.11525e-14 -139.279 4.48103e-14 -16097.1)
(998294 18137.8 2.68123e-14 3289.07 -1.67086e-14 248513)
(-229739 48335.7 3.48991e-14 1724.23 -6.16192e-14 -56575)
(-843848 70502.8 2.18391e-14 9070.64 -2.83555e-15 -207125)
(-793503 48570.2 -1.33442e-14 -4708.22 -1.03296e-15 -198052)
(761285 49980 -2.5318e-14 1047.2 1.66283e-14 189150)
(-93242.7 61798.8 -1.53418e-13 3995.07 -6.99429e-14 -22144.2)
(-2429.89 -27888.1 1.7203e-16 -43728.5 6.11912e-17 -11452.8)
(-13585.9 61495.3 0 2995.85 0 -2627.6)
(-1.45594e+06 -463922 6.94043e-15 186012 -1.91377e-15 -315095)
(1.09219e+06 -517364 8.19448e-15 -175367 2.5785e-15 227483)
(-659656 71599.4 2.78628e-14 -5267.96 -2.71399e-14 -164981)
(220596 48584.6 1.16539e-14 1283.22 4.51093e-14 55052.7)
(300492 43173.1 -3.77226e-14 1630.59 8.58187e-14 74962.7)
(92440 60804.3 7.50967e-14 -1670.28 2.24031e-14 22521.8)
(-169726 19146.4 4.35352e-14 711.695 -6.70253e-14 -41935.8)
(144485 71858.3 -3.65039e-14 -875.183 3.34392e-14 35632.5)
(-74939.2 49795.6 1.07824e-14 1072.93 1.65565e-14 -18327.7)
(-76195.8 85613.9 8.0208e-15 3162.72 2.34152e-14 -18121)
(-1.18203e+06 12017.3 -3.75638e-15 30840.3 9.10842e-15 -285634)
(9757.22 -16591.4 4.51204e-17 -28979.6 2.80089e-17 -4769.46)
(-374020 70528.1 -1.59374e-16 4620.13 3.07557e-15 -91655.5)
(290484 44168.4 2.72387e-14 -1536.45 8.47356e-14 71693.6)
(1.2367e+06 -239382 7.17963e-16 -32704.6 9.56338e-16 298735)
(-33718.1 49181.7 -7.03699e-15 -5251.47 -5.47765e-14 -9669.15)
(-38492.1 73898.8 5.5847e-15 -2205.14 5.34871e-14 -10097.8)
(-22557.5 65278.3 -9.56469e-16 560.675 -8.21756e-14 -5457.85)
(-61048 62783.2 -1.55651e-14 2552.28 2.129e-14 -14514)
(24843 64621.9 2.43162e-14 -729.395 6.29299e-14 5983.08)
(16906.8 68411 -5.69841e-14 -823.017 -1.86345e-14 3990.72)
(-1.2436e+06 -238355 3.12076e-15 31775.5 -9.59725e-16 -300678)
(412917 73543.9 -2.32186e-14 1311.3 1.26277e-14 102778)
(-143102 59710.6 -1.52441e-13 1411.3 -4.33067e-14 -35156.4)
(465756 61695.9 8.18071e-14 3692.65 -1.38324e-13 116480)
(423490 59274.9 -8.96711e-16 3856.92 -5.26991e-14 106033)
(385119 56385.6 -1.49756e-13 1910.82 2.2717e-14 96029.9)
(69091.8 40323.5 -7.44854e-14 4303.97 -2.79041e-14 18211)
(-954016 30247 4.13956e-14 -2850.39 -4.03627e-14 -237418)
(287956 47258.3 8.08446e-14 -1522.92 8.718e-15 71069.8)
(402781 47063.1 -3.66452e-14 -1548.51 -5.25424e-14 99554)
(-81898.5 60432.5 -1.29073e-13 -517.585 -2.17991e-14 -20449.1)
(627826 80644.6 8.90233e-15 -8767.66 1.30282e-14 153601)
(114812 48709.5 -5.22342e-14 -1422.42 3.54322e-14 28134.2)
(-1.26725e+06 25521 -1.43581e-14 -2025.21 -5.37174e-15 -314933)
(34834.7 61973.6 -6.73477e-14 1989.69 -5.67543e-14 9136.87)
(-103533 63782.9 -1.33974e-13 2557.01 6.33751e-14 -25054.2)
(333679 51795 1.03572e-13 800.037 -1.50066e-14 82991)
(303155 50330.8 9.62015e-14 942.535 2.34102e-14 75452.9)
(275606 48130.3 -6.94613e-14 -693.526 1.91927e-14 68211.4)
(655826 44857.7 1.06823e-14 349.629 2.28125e-14 162811)
(130889 61541.2 -4.5241e-14 1991.96 -9.71585e-14 32970.5)
(-348576 55897.1 3.17912e-14 -5136.1 7.23612e-16 -87763.2)
(-281059 93619 1.9646e-14 2760.58 2.20085e-14 -69051.5)
(-151914 44956.3 0 913.514 0 -37466.3)
(-468543 66740.5 -4.21842e-14 -4600.75 1.28482e-14 -117397)
(-515445 69352.4 -6.38177e-14 -5129.77 -4.26086e-15 -129165)
(-567142 73803.6 -6.39963e-14 -6320.78 3.08974e-14 -142288)
(260851 49165.8 1.27451e-15 3941.59 1.59701e-14 65700.5)
(180200 54825.5 2.01478e-14 2350.91 -2.52587e-14 45294.7)
(55296.2 13574.7 -5.8594e-14 2487.11 2.11558e-14 14337.2)
(95374.4 50917.7 0 -1892.25 0 23194.8)
(124008 42902.8 -6.85575e-14 -154.376 4.09691e-14 30730.6)
(1.49093e+06 -62804.5 -3.88102e-15 -203901 -1.88454e-15 319338)
(513086 36118.9 6.85763e-14 115.064 -7.03869e-14 127336)
(-391407 60401.5 0 390.913 0 -97019)
(-279458 56702 -3.39012e-14 5052.78 -1.50238e-15 -68085.4)
(219990 60195.3 1.79876e-14 -2817.43 -2.22645e-14 53884.9)
(-70906.4 66742.9 2.99998e-14 -1420.09 2.46382e-14 -17945.7)
(-11802.4 70804.7 8.79614e-14 -940.976 -6.94342e-14 -3161.9)
(20483.8 51407.4 7.14851e-14 5934.11 -1.13386e-14 6554.81)
(22787.7 53026.2 -3.75813e-14 6248.48 -3.50907e-14 7204.46)
(-5961.15 86226.6 -1.8926e-15 -2621.5 -1.55861e-14 -2129.53)
(-5762.95 47222.8 -1.64937e-14 -478.982 5.55504e-14 -1548.75)
(-1522.78 53861.9 -6.15629e-14 -2514.64 4.59298e-14 -1001.76)
(7770.6 62000.5 5.86956e-14 -11254.3 -2.67102e-14 -864.374)
(100833 48035.4 -4.72841e-15 1732.47 -2.24881e-14 25448.6)
(-202249 92830.3 -1.12574e-15 1244.04 -1.10478e-14 -49873.4)
(58708.8 59850.8 1.47402e-13 -42.586 -2.90553e-14 14556.3)
(5416.66 90410.4 6.47766e-15 -11632 9.34872e-15 -1542.15)
(-414679 88597.8 -1.60759e-14 -1515.02 -9.70824e-15 -103266)
(500921 46041.9 5.21291e-14 2975.9 4.66915e-14 125027)
(-212612 61183 -5.67661e-14 67.7949 1.85849e-14 -52736.5)
(-991672 194187 -2.83445e-15 182461 1.72196e-15 -200782)
(-138013 44477.2 4.03405e-14 -2351.99 4.38887e-14 -34827.3)
(-228018 87887.5 0 2696.15 0 -55906.9)
(64229.9 58614.2 7.86356e-14 -1872.88 -1.08783e-13 15472.1)
(97404.8 51718.6 4.16655e-15 -221.443 1.35594e-14 24113.2)
(1.0914e+06 -241677 -8.81437e-16 35833.4 1.55733e-16 279689)
(-1.45901e+06 13570.8 -1.18887e-14 8225.58 5.47106e-15 -359968)
(421057 48367.4 2.52749e-14 4389.9 2.12932e-14 105562)
(463564 49877 -2.59356e-14 3641.4 5.63548e-14 115923)
(-145129 63540.4 -1.86467e-13 3525.89 -6.66619e-14 -35134.6)
(95587.5 74436.9 3.32169e-14 5480.51 6.56278e-14 25077)
(-23616 58542.6 5.24508e-14 -4453.1 7.99648e-14 -6964.51)
(-620517 -403295 -7.53185e-16 45701.7 3.16825e-16 -142623)
(-1.40559e+06 53607.2 3.91497e-15 1902.88 5.03785e-15 -348283)
(1.25722e+06 32310.1 2.13055e-14 2330.52 -1.05625e-14 312519)
(-1.84629e+06 -29047.8 -5.58138e-15 -5985.8 -2.42101e-15 -459588)
(537462 42150.6 -2.28716e-14 -3807.03 -3.56899e-14 132411)
(373043 39980.7 -3.79524e-14 -2532.76 1.39543e-13 91931.1)
(-487072 65635.5 0 9839.48 0 -118411)
(61369.1 43146.2 -6.8913e-14 -5969.32 3.28056e-14 13745.8)
(-44818.9 72694.4 -5.59391e-14 3172.44 2.9657e-14 -10333.3)