/*--------------------------------*- C++ -*----------------------------------*\
| =========                 |                                                 |
| \\      /  F ield         | OpenFOAM: The Open Source CFD Toolbox           |
|  \\    /   O peration     | Version:  2.3.1                                 |
|   \\  /    A nd           | Web:      www.OpenFOAM.org                      |
|    \\/     M anipulation  |                                                 |
\*---------------------------------------------------------------------------*/
FoamFile
{
    version     2.0;
    format      ascii;
    class       volScalarField;
    location    "0.68";
    object      nut;
}
// * * * * * * * * * * * * * * * * * * * * * * * * * * * * * * * * * * * * * //

dimensions      [0 2 -1 0 0 0 0];

internalField   nonuniform List<scalar> 
1000
(
0.000546815
0.000553235
0.000553391
0.000553384
0.00055338
0.000553379
0.000553378
0.000553377
0.00055336
0.00055284
0.000553441
0.000554762
0.000554856
0.000554857
0.000554857
0.000554856
0.000554853
0.000554848
0.00055475
0.000553084
0.000553901
0.000555204
0.000555316
0.000555321
0.000555322
0.00055532
0.000555315
0.000555308
0.000555194
0.00055337
0.000554253
0.000555676
0.000555804
0.000555817
0.00055582
0.000555819
0.000555812
0.000555801
0.000555674
0.000553747
0.000554671
0.000556297
0.000556447
0.000556469
0.000556476
0.000556474
0.00055647
0.000556449
0.000556311
0.000554188
0.000553282
0.000554459
0.00055457
0.000554586
0.000554592
0.000554594
0.000554595
0.000554593
0.00055451
0.00055308
0.000554614
0.00106877
0.00111322
0.00111526
0.00111543
0.0011155
0.00111553
0.00111434
0.00107336
0.000554338
0.000554966
0.00112001
0.00117145
0.00117363
0.00117371
0.00117372
0.0011737
0.00117219
0.00112427
0.000554686
0.000555304
0.00112305
0.00117491
0.0011771
0.00117718
0.00117717
0.00117714
0.00117559
0.00112702
0.000555027
0.000555718
0.00112399
0.00117642
0.00117869
0.00117878
0.00117878
0.00117873
0.0011771
0.00112786
0.000555448
0.00055371
0.000554749
0.000554857
0.000554872
0.000554879
0.000554882
0.000554884
0.000554882
0.00055479
0.000553283
0.000554851
0.00111375
0.00116438
0.00116661
0.00116675
0.0011668
0.00116682
0.00116539
0.00111836
0.000554599
0.000555161
0.00117025
0.00122969
0.00123227
0.00123235
0.00123236
0.00123233
0.00123053
0.00117514
0.000554914
0.000555459
0.00117317
0.00123315
0.00123575
0.00123583
0.00123583
0.00123579
0.00123396
0.00117792
0.00055521
0.000555837
0.00117334
0.00123368
0.00123632
0.00123642
0.00123641
0.00123637
0.00123448
0.001178
0.000555589
0.00055388
0.000554906
0.000555009
0.000555021
0.000555027
0.00055503
0.000555032
0.000555029
0.000554937
0.000553426
0.000554985
0.0011182
0.00116904
0.00117121
0.00117131
0.00117135
0.00117135
0.00116989
0.00112231
0.000554729
0.000555258
0.00117281
0.00123244
0.00123502
0.00123511
0.00123511
0.00123508
0.00123326
0.00117754
0.000555014
0.000555521
0.00117543
0.00123557
0.00123818
0.00123826
0.00123826
0.00123822
0.00123638
0.00118012
0.000555273
0.000555858
0.0011755
0.00123582
0.00123844
0.00123853
0.00123853
0.00123848
0.00123662
0.00118014
0.000555608
0.000553971
0.000554992
0.00055509
0.0005551
0.000555105
0.000555108
0.000555109
0.000555106
0.000555014
0.000553499
0.000555063
0.00112092
0.00117189
0.00117404
0.00117413
0.00117415
0.00117414
0.00117264
0.00112477
0.000554798
0.000555314
0.00117332
0.00123285
0.00123541
0.00123549
0.0012355
0.00123546
0.00123365
0.00117793
0.000555065
0.000555557
0.00117569
0.00123565
0.00123823
0.00123832
0.00123831
0.00123828
0.00123644
0.0011803
0.000555305
0.000555868
0.00117581
0.00123581
0.00123839
0.00123848
0.00123848
0.00123844
0.00123659
0.00118038
0.000555614
0.000553986
0.000555034
0.000555132
0.000555142
0.000555146
0.000555148
0.000555149
0.000555145
0.000555051
0.000553504
0.000555082
0.00112261
0.00117366
0.00117578
0.00117585
0.00117585
0.00117582
0.00117431
0.00112624
0.000554811
0.000555334
0.00117362
0.00123306
0.00123561
0.00123569
0.00123569
0.00123566
0.00123384
0.00117812
0.000555082
0.000555582
0.00117584
0.00123566
0.00123823
0.00123832
0.00123831
0.00123828
0.00123644
0.00118036
0.000555328
0.000555897
0.00117601
0.00123578
0.00123836
0.00123844
0.00123844
0.0012384
0.00123656
0.00118049
0.00055564
0.00055393
0.000555045
0.000555147
0.000555156
0.00055516
0.000555161
0.000555161
0.000555156
0.000555058
0.000553443
0.000555046
0.00112286
0.00117389
0.00117601
0.00117608
0.00117608
0.00117605
0.00117453
0.00112644
0.00055477
0.000555325
0.00117365
0.00123302
0.00123557
0.00123565
0.00123565
0.00123562
0.0012338
0.0011781
0.000555068
0.000555607
0.00117583
0.00123557
0.00123814
0.00123822
0.00123822
0.00123819
0.00123635
0.00118032
0.000555348
0.00055596
0.00117597
0.00123566
0.00123822
0.00123831
0.00123831
0.00123827
0.00123643
0.00118043
0.000555697
0.000553802
0.000554978
0.000555084
0.000555094
0.000555097
0.000555098
0.000555097
0.000555091
0.000554989
0.000553311
0.000554947
0.00112104
0.00117174
0.00117384
0.00117391
0.00117391
0.00117388
0.00117237
0.00112456
0.000554666
0.000555271
0.0011711
0.00122998
0.0012325
0.00123257
0.00123257
0.00123254
0.00123074
0.00117549
0.000555008
0.000555607
0.00117285
0.00123198
0.00123451
0.00123458
0.00123458
0.00123455
0.00123274
0.00117725
0.000555341
0.000556031
0.00117219
0.00123107
0.00123358
0.00123365
0.00123365
0.00123361
0.00123182
0.00117653
0.000555761
0.000553592
0.000554733
0.000554832
0.000554841
0.000554844
0.000554844
0.000554843
0.000554837
0.00055474
0.000553096
0.000554709
0.00107163
0.00111527
0.001117
0.00111704
0.00111703
0.00111701
0.00111575
0.00107441
0.00055441
0.000555079
0.00111241
0.00116217
0.00116418
0.0011642
0.00116419
0.00116419
0.00116275
0.00111583
0.000554795
0.000555478
0.00110958
0.00115883
0.00116074
0.00116073
0.00116072
0.00116075
0.00115939
0.00111295
0.000555188
0.000556001
0.00110083
0.00114845
0.00115015
0.00115007
0.00115006
0.00115014
0.00114897
0.00110402
0.000555706
0.000552862
0.000552901
0.000552906
0.000552908
0.000552909
0.000552909
0.000552909
0.000552907
0.000552889
0.000552335
0.000553151
0.000554281
0.000554385
0.000554395
0.000554398
0.000554398
0.000554396
0.000554389
0.000554289
0.000552639
0.000553504
0.00055473
0.000554853
0.000554869
0.000554873
0.000554875
0.00055487
0.000554857
0.00055474
0.000552992
0.000553971
0.000555212
0.000555349
0.000555372
0.00055538
0.000555381
0.000555372
0.000555351
0.000555217
0.000553458
0.000554691
0.000555972
0.000556132
0.000556165
0.000556176
0.000556176
0.000556163
0.000556127
0.000555971
0.000554185
0.000556319
0.000557786
0.000557995
0.000558037
0.000558047
0.000558047
0.000558034
0.000557988
0.000557782
0.000555837
0.000559787
0.000568705
0.000569529
0.000569286
0.000569156
0.000569148
0.000569264
0.000569495
0.000568933
0.000559488
0.000596497
0.000694271
0.000700927
0.00069662
0.000695029
0.000694951
0.00069633
0.000700562
0.000696549
0.000598156
0.000818476
0.00120771
0.0012375
0.00122902
0.00122539
0.00122513
0.00122814
0.00123647
0.00121408
0.000827416
0.00133689
0.00211854
0.00219501
0.0021964
0.00219495
0.00219456
0.00219519
0.00219373
0.00212824
0.00135122
0.000556698
0.00108012
0.0011239
0.00112512
0.00112494
0.00112493
0.00112511
0.00112433
0.00108294
0.000556407
0.00055761
0.00105467
0.00109441
0.0010955
0.00109534
0.00109533
0.00109551
0.00109483
0.00105721
0.000557347
0.000562577
0.00102412
0.00105969
0.00106332
0.00106397
0.00106399
0.00106339
0.00106021
0.00102574
0.00056254
0.000639096
0.000696887
0.000712211
0.000730616
0.000736145
0.000736238
0.000731075
0.000712825
0.000696105
0.000642577
0.00157476
0.00296818
0.00305811
0.0030575
0.00305488
0.0030545
0.00305635
0.00305752
0.00298131
0.00159525
0.000556399
0.00116974
0.00122816
0.00123062
0.00123069
0.00123068
0.00123066
0.0012289
0.00117401
0.000556137
0.000556947
0.00116534
0.00122267
0.00122497
0.00122498
0.00122498
0.00122501
0.0012234
0.00116953
0.000556703
0.000558104
0.00115862
0.00121417
0.00121737
0.00121772
0.00121773
0.00121744
0.00121494
0.00116251
0.000557921
0.000607257
0.000733469
0.000741301
0.000744773
0.000745792
0.000745832
0.000744921
0.000741568
0.00073281
0.000609441
0.00160773
0.00299273
0.00305943
0.00305832
0.00305652
0.00305635
0.00305784
0.00306006
0.00300615
0.00162855
0.000556151
0.00117612
0.00123601
0.00123861
0.0012387
0.0012387
0.00123865
0.00123678
0.00118058
0.000555894
0.000556598
0.00117539
0.00123508
0.00123764
0.00123771
0.00123771
0.00123768
0.00123586
0.00117985
0.000556351
0.00055726
0.00115806
0.00121364
0.00121621
0.00121628
0.00121628
0.00121624
0.00121434
0.00116196
0.000557061
0.000603186
0.000696835
0.000701869
0.000703261
0.000703736
0.000703757
0.000703324
0.000701962
0.00069616
0.000605246
0.0016449
0.00307717
0.00314194
0.00314368
0.00314305
0.00314299
0.00314358
0.00314336
0.00309166
0.00166714
0.000556013
0.00117629
0.00123634
0.00123895
0.00123904
0.00123904
0.00123899
0.00123712
0.00118079
0.000555757
0.000556422
0.00117586
0.00123582
0.0012384
0.00123848
0.00123848
0.00123844
0.0012366
0.00118036
0.000556173
0.000556943
0.001159
0.00121465
0.00121696
0.00121696
0.00121695
0.00121698
0.00121533
0.00116291
0.000556733
0.00060281
0.000677108
0.000680425
0.000680816
0.000680922
0.000680928
0.000680812
0.000680365
0.000676266
0.000604915
0.00166308
0.0031136
0.00317835
0.00318155
0.00318154
0.00318153
0.00318166
0.00318016
0.00312864
0.00168607
0.000555985
0.00117605
0.00123649
0.00123913
0.00123922
0.00123922
0.00123917
0.00123728
0.00118063
0.000555732
0.000556426
0.00117514
0.00123593
0.00123856
0.00123864
0.00123864
0.00123861
0.00123673
0.00117971
0.000556178
0.000557016
0.00115615
0.00121134
0.00121338
0.0012133
0.0012133
0.0012134
0.001212
0.00116003
0.000556803
0.000626073
0.000622222
0.000623516
0.000621993
0.000621372
0.000621365
0.000621927
0.000623374
0.000621678
0.00062922
0.00166866
0.0031112
0.0031751
0.0031784
0.00317848
0.00317849
0.0031786
0.00317711
0.00312642
0.00169217
0.000556048
0.00117583
0.00123689
0.00123959
0.0012397
0.0012397
0.00123964
0.0012377
0.00118049
0.000555801
0.000556568
0.00117381
0.0012362
0.00123896
0.00123904
0.00123904
0.001239
0.00123703
0.00117846
0.000556318
0.000557583
0.00115115
0.0012057
0.00120727
0.00120699
0.00120697
0.00120726
0.00120628
0.00115489
0.000557389
0.000662464
0.000615305
0.00062026
0.000619518
0.000619242
0.000619242
0.00061948
0.000620243
0.000615452
0.000666911
0.00167167
0.00308066
0.00314183
0.00314492
0.00314504
0.00314506
0.00314522
0.00314404
0.00309575
0.00169576
0.000556196
0.00117431
0.00123586
0.00123864
0.00123875
0.00123875
0.00123868
0.00123669
0.00117901
0.000555952
0.000556731
0.001172
0.00123683
0.00123983
0.00123995
0.00123994
0.00123987
0.00123766
0.00117674
0.000556478
0.000558937
0.0011689
0.00122754
0.00122892
0.00122845
0.00122843
0.00122886
0.00122817
0.0011732
0.000558765
0.000688034
0.000690594
0.000697396
0.000693112
0.000691092
0.000691035
0.000692888
0.000697201
0.000690736
0.000692128
0.00165718
0.00296416
0.00301907
0.00302378
0.00302488
0.00302495
0.00302427
0.00302148
0.00297774
0.00168051
0.000556371
0.00112782
0.00118224
0.00118468
0.00118479
0.00118479
0.00118473
0.00118296
0.00113179
0.000556112
0.000556717
0.00113269
0.00119327
0.00119645
0.00119671
0.00119671
0.00119649
0.00119405
0.0011369
0.000556442
0.000560742
0.001167
0.00122793
0.00123189
0.00123249
0.00123249
0.00123194
0.00122875
0.00117111
0.000560569
0.000623302
0.000774313
0.00079496
0.000792902
0.000791523
0.000791487
0.000792766
0.000794912
0.00077437
0.000625365
0.00153883
0.00257077
0.00261239
0.00261886
0.0026211
0.0026212
0.00261946
0.00261447
0.0025803
0.00155618
0.000555297
0.000557478
0.000557731
0.000557784
0.000557804
0.000557807
0.000557785
0.000557744
0.000557513
0.000554803
0.000554948
0.000558154
0.000558491
0.000558536
0.000558549
0.000558549
0.000558539
0.000558505
0.000558186
0.000554445
0.000561737
0.000566832
0.000567494
0.00056767
0.000567724
0.000567721
0.000567681
0.000567501
0.000566912
0.000561321
0.000583459
0.000619506
0.000624823
0.000625767
0.000626052
0.000626061
0.0006258
0.000624983
0.000620302
0.000583811
0.00110265
0.00140374
0.00142013
0.00142437
0.00142579
0.00142584
0.00142465
0.00142094
0.00140697
0.00110852
)
;

boundaryField
{
    walls
    {
        type            nutkWallFunction;
        Cmu             0.09;
        kappa           0.41;
        E               9.8;
        value           nonuniform List<scalar> 
500
(
6.6595e-05
6.6595e-05
6.6595e-05
6.73692e-05
6.73692e-05
6.73868e-05
6.73868e-05
6.73859e-05
6.73859e-05
6.73855e-05
6.73855e-05
6.73853e-05
6.73853e-05
6.73851e-05
6.73851e-05
6.73851e-05
6.73851e-05
6.73831e-05
6.73831e-05
6.73206e-05
6.73206e-05
6.73206e-05
6.73922e-05
6.73922e-05
6.75377e-05
6.75477e-05
6.75477e-05
6.75476e-05
6.75475e-05
6.75472e-05
6.75467e-05
6.75361e-05
6.73474e-05
6.73474e-05
6.74431e-05
6.74431e-05
6.75857e-05
6.75975e-05
6.7598e-05
6.7598e-05
6.75977e-05
6.75973e-05
6.75965e-05
6.75843e-05
6.73787e-05
6.73787e-05
6.74814e-05
6.74814e-05
6.76369e-05
6.76506e-05
6.76518e-05
6.76521e-05
6.7652e-05
6.76513e-05
6.76501e-05
6.76366e-05
6.74203e-05
6.74203e-05
6.75297e-05
6.75297e-05
6.77069e-05
6.77231e-05
6.77255e-05
6.77263e-05
6.7726e-05
6.77255e-05
6.77233e-05
6.77085e-05
6.74712e-05
6.74712e-05
6.7373e-05
6.7373e-05
6.75051e-05
6.75174e-05
6.75193e-05
6.75199e-05
6.75202e-05
6.75203e-05
6.75201e-05
6.75111e-05
6.73472e-05
6.73472e-05
6.75225e-05
6.7489e-05
6.75612e-05
6.75273e-05
6.75984e-05
6.75649e-05
6.76454e-05
6.76129e-05
6.74213e-05
6.74213e-05
6.7537e-05
6.75489e-05
6.75507e-05
6.75515e-05
6.75519e-05
6.75521e-05
6.75519e-05
6.7542e-05
6.73696e-05
6.73696e-05
6.75484e-05
6.75179e-05
6.75825e-05
6.75526e-05
6.76155e-05
6.75853e-05
6.76578e-05
6.76278e-05
6.74404e-05
6.74404e-05
6.75545e-05
6.75657e-05
6.75671e-05
6.75678e-05
6.75682e-05
6.75684e-05
6.75681e-05
6.75582e-05
6.73854e-05
6.73854e-05
6.75633e-05
6.75323e-05
6.75933e-05
6.75637e-05
6.76224e-05
6.75924e-05
6.76599e-05
6.76296e-05
6.74506e-05
6.74506e-05
6.7564e-05
6.75747e-05
6.75759e-05
6.75764e-05
6.75767e-05
6.75769e-05
6.75766e-05
6.75666e-05
6.73935e-05
6.73935e-05
6.75719e-05
6.75399e-05
6.75995e-05
6.75694e-05
6.76264e-05
6.75959e-05
6.76609e-05
6.76301e-05
6.74523e-05
6.74523e-05
6.75685e-05
6.75792e-05
6.75803e-05
6.75807e-05
6.7581e-05
6.75811e-05
6.75807e-05
6.75705e-05
6.73941e-05
6.73941e-05
6.7574e-05
6.75413e-05
6.76018e-05
6.75713e-05
6.76293e-05
6.75985e-05
6.76642e-05
6.7633e-05
6.74463e-05
6.74463e-05
6.75695e-05
6.75805e-05
6.75815e-05
6.75819e-05
6.75821e-05
6.75821e-05
6.75816e-05
6.7571e-05
6.73873e-05
6.73873e-05
6.75702e-05
6.75368e-05
6.7601e-05
6.75698e-05
6.76323e-05
6.76008e-05
6.76714e-05
6.76395e-05
6.74322e-05
6.74322e-05
6.75618e-05
6.75732e-05
6.75742e-05
6.75746e-05
6.75747e-05
6.75747e-05
6.7574e-05
6.75631e-05
6.73727e-05
6.73727e-05
6.75593e-05
6.75254e-05
6.75951e-05
6.75633e-05
6.76324e-05
6.76002e-05
6.76795e-05
6.76467e-05
6.7409e-05
6.7409e-05
6.75348e-05
6.75455e-05
6.75464e-05
6.75467e-05
6.75468e-05
6.75467e-05
6.75461e-05
6.75356e-05
6.73489e-05
6.73489e-05
6.75334e-05
6.74973e-05
6.75742e-05
6.754e-05
6.76184e-05
6.75835e-05
6.76765e-05
6.76408e-05
6.73232e-05
6.73232e-05
6.73232e-05
6.73274e-05
6.73274e-05
6.73279e-05
6.73279e-05
6.73281e-05
6.73281e-05
6.73282e-05
6.73282e-05
6.73283e-05
6.73283e-05
6.73282e-05
6.73282e-05
6.7328e-05
6.7328e-05
6.7326e-05
6.7326e-05
6.72595e-05
6.72595e-05
6.72595e-05
6.73551e-05
6.73551e-05
6.74827e-05
6.74943e-05
6.74953e-05
6.74956e-05
6.74957e-05
6.74955e-05
6.74947e-05
6.74838e-05
6.72931e-05
6.72931e-05
6.73941e-05
6.73941e-05
6.75324e-05
6.75459e-05
6.75476e-05
6.75481e-05
6.75482e-05
6.75477e-05
6.75464e-05
6.75335e-05
6.73322e-05
6.73322e-05
6.74456e-05
6.74456e-05
6.75854e-05
6.76004e-05
6.76028e-05
6.76037e-05
6.76037e-05
6.76028e-05
6.76005e-05
6.75859e-05
6.73835e-05
6.73835e-05
6.75248e-05
6.75248e-05
6.76682e-05
6.76856e-05
6.7689e-05
6.76902e-05
6.76902e-05
6.76889e-05
6.7685e-05
6.7668e-05
6.74635e-05
6.74635e-05
6.77061e-05
6.77061e-05
6.78599e-05
6.78815e-05
6.7886e-05
6.78872e-05
6.78871e-05
6.78857e-05
6.78808e-05
6.78589e-05
6.76474e-05
6.76474e-05
6.8051e-05
6.8051e-05
6.88514e-05
6.89219e-05
6.89027e-05
6.88918e-05
6.88912e-05
6.8901e-05
6.89188e-05
6.88711e-05
6.80098e-05
6.80098e-05
7.16583e-05
7.16583e-05
8.06678e-05
8.12084e-05
8.08218e-05
8.06801e-05
8.06735e-05
8.07958e-05
8.11749e-05
8.08789e-05
7.18074e-05
7.18074e-05
9.46347e-05
9.46347e-05
0.000132224
0.000134785
0.000133957
0.000133615
0.000133591
0.000133874
0.000134681
0.000132841
9.55514e-05
9.55514e-05
0.000150246
0.000150246
0.000224541
0.000231358
0.000231468
0.000231347
0.000231311
0.000231352
0.000231223
0.000225459
0.000151703
0.000151703
6.77505e-05
6.77152e-05
6.78493e-05
6.78173e-05
6.83551e-05
6.83455e-05
7.62293e-05
7.65882e-05
0.000174589
0.000176694
6.77176e-05
6.76859e-05
6.77772e-05
6.77476e-05
6.7899e-05
6.78759e-05
7.30205e-05
7.32506e-05
0.000177986
0.000180126
6.76905e-05
6.76592e-05
6.77378e-05
6.77078e-05
6.78067e-05
6.77818e-05
7.25984e-05
7.28155e-05
0.000181533
0.000183809
6.76752e-05
6.76442e-05
6.7718e-05
6.76877e-05
6.77736e-05
6.77475e-05
7.25479e-05
7.2767e-05
0.000183248
0.000185596
6.76721e-05
6.76414e-05
6.77182e-05
6.76881e-05
6.77812e-05
6.77547e-05
7.48295e-05
7.51533e-05
0.000183764
0.000186163
6.76787e-05
6.76488e-05
6.77339e-05
6.77036e-05
6.78399e-05
6.7815e-05
7.85828e-05
7.90468e-05
0.000184023
0.000186487
6.76941e-05
6.76645e-05
6.77529e-05
6.7722e-05
6.7983e-05
6.79606e-05
8.16649e-05
8.21205e-05
0.000182831
0.000185259
6.77117e-05
6.76803e-05
6.77542e-05
6.77207e-05
6.81874e-05
6.81652e-05
7.49897e-05
7.52101e-05
0.000172017
0.000173888
6.75862e-05
6.75862e-05
6.78278e-05
6.78554e-05
6.7861e-05
6.78631e-05
6.78634e-05
6.7861e-05
6.78568e-05
6.78318e-05
6.75263e-05
6.75263e-05
6.75603e-05
6.75603e-05
6.79087e-05
6.79448e-05
6.79495e-05
6.79509e-05
6.79509e-05
6.79498e-05
6.79463e-05
6.79121e-05
6.74992e-05
6.74992e-05
6.83036e-05
6.83036e-05
6.88642e-05
6.89365e-05
6.89555e-05
6.89613e-05
6.89609e-05
6.89567e-05
6.89371e-05
6.88732e-05
6.82528e-05
6.82528e-05
7.06609e-05
7.06609e-05
7.4474e-05
7.50294e-05
7.51292e-05
7.51594e-05
7.51605e-05
7.51328e-05
7.50469e-05
7.45614e-05
7.06947e-05
7.06947e-05
0.000127754
0.000127754
0.000158904
0.000160539
0.000160954
0.000161094
0.000161099
0.000160983
0.000160622
0.000159247
0.000128406
0.000128406
)
;
    }
    lid
    {
        type            nutkWallFunction;
        Cmu             0.09;
        kappa           0.41;
        E               9.8;
        value           nonuniform List<scalar> 
100
(
0.000150246
0.000224541
0.000231358
0.000231468
0.000231347
0.000231311
0.000231352
0.000231223
0.000225459
0.000151703
0.000174589
0.00030799
0.000315953
0.000315796
0.000315525
0.000315488
0.000315683
0.000315882
0.000309258
0.000176694
0.000177986
0.000310302
0.000316222
0.000316105
0.000315943
0.000315926
0.000316058
0.000316273
0.000311598
0.000180126
0.000181533
0.000317919
0.00032367
0.000323808
0.000323748
0.000323742
0.000323797
0.000323796
0.000319317
0.000183809
0.000183248
0.000321239
0.000326994
0.000327264
0.000327261
0.00032726
0.000327273
0.000327159
0.000322689
0.000185596
0.000183764
0.000321138
0.000326829
0.000327111
0.000327118
0.000327119
0.000327128
0.000327011
0.000322606
0.000186163
0.000184023
0.000318658
0.000324133
0.000324396
0.000324405
0.000324406
0.000324422
0.000324335
0.000320122
0.000186487
0.000182831
0.000309084
0.000314067
0.000314442
0.000314517
0.000314521
0.000314485
0.000314291
0.000310434
0.000185259
0.000172017
0.000273914
0.00027782
0.00027841
0.000278613
0.000278622
0.000278468
0.000278023
0.000274888
0.000173888
0.000127754
0.000158904
0.000160539
0.000160954
0.000161094
0.000161099
0.000160983
0.000160622
0.000159247
0.000128406
)
;
    }
}


// ************************************************************************* //
