/*--------------------------------*- C++ -*----------------------------------*\
| =========                 |                                                 |
| \\      /  F ield         | OpenFOAM: The Open Source CFD Toolbox           |
|  \\    /   O peration     | Version:  2.3.1                                 |
|   \\  /    A nd           | Web:      www.OpenFOAM.org                      |
|    \\/     M anipulation  |                                                 |
\*---------------------------------------------------------------------------*/
FoamFile
{
    version     2.0;
    format      ascii;
    class       volScalarField;
    location    "0.05";
    object      epsilon;
}
// * * * * * * * * * * * * * * * * * * * * * * * * * * * * * * * * * * * * * //

dimensions      [0 2 -3 0 0 0 0];

internalField   nonuniform List<scalar> 
9648
(
2505.43
2452.46
2380.08
2322.95
2279.82
2248.32
2224.81
2206.1
2189.58
2173.49
2156.47
2137.46
2116.02
2092.08
2065.36
2035.91
2004.01
1970.07
1934.33
1897.07
1858.76
1819.82
1780.58
1741.52
1702.98
1665.24
1628.53
1593.11
1559.21
1526.94
1496.42
1467.75
1440.98
1416.11
1393.19
1372.17
1353.01
1335.68
1320.2
1306.5
1294.47
1284.1
1275.32
1268.02
1262.21
1257.86
1254.86
1253.08
1252.54
1253.25
1255.11
1257.97
1261.95
1266.96
1272.94
1279.85
1287.74
1296.7
1306.59
1317.35
1329.01
808.276
769.163
731.213
700.22
676.029
658.734
647.911
642.161
640.313
641.136
643.607
646.898
650.591
654.366
657.984
661.192
663.879
666.042
667.667
668.667
669.114
669.033
668.427
667.392
666.037
664.407
662.546
660.532
658.457
656.379
654.329
652.38
650.588
648.956
647.531
646.352
645.416
644.726
644.303
644.181
644.349
644.792
645.522
646.548
647.85
649.46
651.37
653.553
655.995
658.717
661.661
664.834
668.212
671.859
675.692
679.743
683.932
688.406
693.091
697.947
702.955
454.986
428.62
406.062
388.165
375.469
367.993
365.689
367.66
373.147
381.051
390.717
401.407
412.639
424.019
435.257
446.138
456.499
466.245
475.298
483.606
491.153
497.92
503.934
509.234
513.871
517.89
521.342
524.291
526.789
528.892
530.654
532.123
533.344
534.358
535.206
535.915
536.52
537.04
537.5
537.92
538.322
538.73
539.15
539.601
540.098
540.645
541.252
541.913
542.635
543.411
544.245
545.152
546.109
547.18
548.273
549.488
550.745
552.164
553.607
555.106
556.645
337.524
318.972
303.467
291.616
283.878
280.471
281.325
285.984
293.816
304.039
315.984
329.01
342.621
356.395
370.015
383.224
395.833
407.707
418.744
428.885
438.085
446.327
453.625
460.011
465.537
470.259
474.234
477.529
480.198
482.311
483.924
485.097
485.891
486.351
486.528
486.468
486.211
485.788
485.234
484.578
483.85
483.079
482.292
481.51
480.751
480.031
479.362
478.751
478.209
477.738
477.329
477.015
476.775
476.624
476.519
476.511
476.592
476.751
476.964
477.232
477.576
288.865
274.756
263.163
254.617
249.56
248.249
250.699
256.655
265.621
276.961
290.035
304.229
319.025
333.983
348.755
363.04
376.632
389.365
401.126
411.849
421.48
429.99
437.397
443.729
449.055
453.44
456.954
459.673
461.658
462.987
463.732
463.959
463.742
463.139
462.205
460.998
459.571
457.959
456.203
454.336
452.388
450.399
448.398
446.414
444.464
442.566
440.737
438.983
437.307
435.719
434.21
432.786
431.454
430.207
429.037
427.939
426.932
425.988
425.089
424.239
423.434
267.32
255.996
246.842
240.323
236.859
236.743
240.072
246.699
256.243
268.155
281.823
296.638
312.067
327.642
342.993
357.77
371.741
384.734
396.61
407.323
416.808
425.016
431.984
437.723
442.334
445.898
448.489
450.209
451.114
451.302
450.857
449.842
448.358
446.471
444.23
441.716
439
436.106
433.09
429.983
426.811
423.622
420.449
417.323
414.257
411.271
408.378
405.598
402.923
400.346
397.872
395.491
393.206
391.017
388.906
386.898
384.974
383.109
381.289
379.521
377.778
259.064
249.623
242.092
236.895
234.432
235.015
238.802
245.743
255.527
267.665
281.585
296.654
312.34
328.144
343.707
358.582
372.542
385.409
397.006
407.338
416.331
423.889
430.108
434.937
438.546
441.02
442.435
442.946
442.564
441.431
439.659
437.27
434.416
431.16
427.527
423.639
419.597
415.389
411.109
406.777
402.403
398.055
393.762
389.563
385.445
381.442
377.57
373.83
370.229
366.752
363.391
360.136
357.001
353.945
350.985
348.129
345.367
342.691
340.06
337.454
334.898
258.394
250.257
243.837
239.492
237.635
238.55
242.492
249.479
259.227
271.315
285.207
300.23
315.867
331.575
347.073
361.751
375.417
387.909
398.934
408.602
416.864
423.514
428.823
432.535
434.951
436.16
436.237
435.422
433.602
431.032
427.876
424.047
419.784
415.109
410.037
404.741
399.321
393.708
388.119
382.535
376.92
371.383
365.988
360.725
355.558
350.567
345.718
341.053
336.546
332.196
327.981
323.893
319.917
316.006
312.211
308.557
304.984
301.523
298.08
294.667
291.365
262.549
255.27
249.604
245.71
244.187
245.11
248.904
255.727
265.128
276.931
290.536
305.302
320.618
335.933
351.111
365.401
378.631
390.515
400.928
409.872
417.138
422.79
426.866
429.493
430.745
430.506
429.312
427.162
423.672
419.605
414.888
409.716
404.286
398.14
391.451
384.927
377.942
370.736
363.835
356.788
349.733
342.673
336.296
330
323.607
317.783
311.714
306.188
300.489
295.238
289.881
285.021
280.249
275.299
270.514
266.211
261.679
257.636
253.17
248.705
244.724
1341.9
1356.06
1371.34
1387.82
1405.73
1425.51
1447.3
1470.44
1494.16
1518.74
1543.8
1569.57
1596.15
1623.52
1651.54
1680.36
1710.05
1740.58
1771.86
1804.07
1837.15
1871.16
1906.26
1942.37
1979.36
2017.36
2056.49
2096.8
2138.29
2181
2225.11
2270.59
2317.49
2365.96
2416.09
2467.87
2521.39
2576.84
2634.34
2693.88
2755.48
2819.42
2885.73
2954.35
3025.6
3099.5
3175.96
3254.97
3336.74
3421.45
3508.95
3599.02
3692.1
3787.93
3886.53
3987.69
4091.99
4199.88
4311.2
4425.67
4543.37
708.108
713.745
719.588
725.562
731.663
737.975
744.607
751.332
758.153
764.907
771.758
778.594
785.4
792.158
798.855
805.509
812.111
818.688
825.242
831.778
838.31
844.826
851.313
857.729
864.072
870.365
876.601
882.802
888.96
895.099
901.237
907.36
913.488
919.647
925.839
932.072
938.371
944.736
951.179
957.709
964.345
971.115
977.998
985.005
992.161
999.458
1006.89
1014.43
1022.12
1029.95
1037.88
1045.9
1054
1062.31
1070.59
1079.12
1087.84
1097.04
1106.48
1116.42
1127.09
558.303
560.047
561.931
563.885
565.894
567.853
569.88
571.852
573.795
575.652
577.491
579.29
581.069
582.767
584.396
585.958
587.449
588.873
590.225
591.506
592.71
593.849
594.92
595.926
596.864
597.734
598.532
599.267
599.937
600.553
601.109
601.613
602.069
602.477
602.853
603.193
603.505
603.788
604.048
604.287
604.513
604.734
604.96
605.181
605.411
605.643
605.867
606.074
606.271
606.457
606.599
606.732
606.809
606.838
606.729
606.577
606.389
606.204
606.07
606.084
606.322
477.961
478.396
478.845
479.327
479.806
480.249
480.697
481.111
481.443
481.71
481.918
482.073
482.163
482.178
482.141
482.036
481.864
481.621
481.303
480.904
480.427
479.87
479.24
478.538
477.768
476.927
476.021
475.049
474.014
472.922
471.776
470.572
469.316
468.017
466.684
465.317
463.92
462.496
461.043
459.57
458.085
456.603
455.129
453.675
452.246
450.843
449.451
448.074
446.707
445.369
444.031
442.698
441.374
440.025
438.609
437.117
435.588
434.009
432.454
430.989
429.625
422.667
421.901
421.132
420.349
419.548
418.708
417.891
417.07
416.233
415.343
414.423
413.46
412.441
411.374
410.253
409.069
407.856
406.578
405.238
403.832
402.363
400.833
399.246
397.61
395.924
394.19
392.407
390.576
388.706
386.8
384.858
382.875
380.858
378.814
376.757
374.687
372.606
370.512
368.405
366.291
364.187
362.099
360.044
358.037
356.089
354.207
352.361
350.586
348.849
347.177
345.551
343.963
342.434
340.927
339.406
337.834
336.226
334.547
332.901
331.302
329.751
376.073
374.377
372.692
370.976
369.249
367.5
365.748
363.988
362.204
360.398
358.553
356.684
354.781
352.831
350.843
348.82
346.775
344.676
342.523
340.321
338.073
335.783
333.46
331.112
328.738
326.338
323.914
321.466
319.012
316.554
314.09
311.607
309.113
306.609
304.119
301.642
299.171
296.715
294.261
291.812
289.387
286.994
284.655
282.391
280.222
278.162
276.163
274.273
272.454
270.76
269.138
267.58
266.137
264.739
263.398
261.995
260.595
259.115
257.687
256.244
254.852
332.378
329.879
327.382
324.876
322.336
319.755
317.181
314.614
312.024
309.399
306.763
304.116
301.439
298.746
296.017
293.271
290.523
287.741
284.92
282.056
279.162
276.261
273.346
270.445
267.544
264.643
261.749
258.848
255.988
253.17
250.412
247.655
244.927
242.202
239.534
236.891
234.256
231.668
229.102
226.551
224.031
221.537
219.115
216.786
214.56
212.498
210.49
208.654
206.898
205.35
203.89
202.47
201.218
200.026
198.95
197.768
196.68
195.467
194.371
193.181
192.079
288.095
284.884
281.677
278.499
275.289
272.065
268.84
265.66
262.461
259.184
255.924
252.679
249.414
246.135
242.823
239.561
236.343
233.098
229.839
226.481
223.124
219.82
216.506
213.254
210.052
206.87
203.736
200.547
197.446
194.45
191.664
188.888
186.235
183.582
181.071
178.586
176.039
173.536
171.119
168.764
166.405
164.021
161.734
159.547
157.434
155.56
153.658
152.008
150.408
149.172
148.007
146.792
145.806
144.862
144.103
143.129
142.373
141.44
140.763
139.864
139.091
240.483
236.592
232.513
228.919
225.118
221.75
218.064
214.794
211.445
207.876
204.364
201.114
197.632
194.066
190.375
186.824
183.582
180.412
177.299
173.863
170.28
166.945
163.524
160.206
156.992
153.898
151.056
147.839
144.615
141.514
138.937
136.353
134.076
131.774
129.947
128.093
125.935
123.682
121.625
119.812
118.008
115.874
113.904
112.104
110.292
108.806
107.021
105.662
104.165
103.448
102.688
101.68
101.057
100.388
100.009
99.149
98.7032
97.9452
97.7796
97.2022
96.7356
4665.64
4793.34
4925.66
5059.39
5199.14
5368.43
5537.6
5700.48
5867.26
6038.02
6213.34
6392.56
6576.34
6765.09
6958.15
7155.21
7356.67
7562.69
7772.58
7985.82
8202.35
8421.86
8643.91
8868.7
9095.77
9324.16
9553.48
9783.54
10014
10243.8
10472.8
10700.4
10925.5
11147.6
11366.3
11580.1
11787.9
11989.7
12184.5
12369.8
12544
12705.4
12842
12950.3
13032.6
13089.7
13120.5
13123.8
13099.8
13048.5
12967.8
12855.1
12710.2
12530.8
12314.2
12057.5
11759.2
11417.7
11028.2
10586.1
10088.4
1138.67
1151.45
1164.73
1174.25
1184.34
1196.01
1209.59
1224.14
1238.73
1253.74
1269.2
1285.07
1301.34
1318.03
1335.14
1352.59
1370.41
1388.57
1407.01
1425.71
1444.62
1463.79
1483.18
1502.82
1522.67
1542.67
1562.88
1583.26
1603.85
1624.67
1645.69
1666.94
1688.49
1710.34
1732.52
1755.12
1778.15
1801.79
1826.18
1851.35
1877.39
1904.32
1938.95
1980.31
2026.6
2076.39
2126.34
2177.61
2230.89
2285.97
2342.7
2400.9
2461.65
2524.08
2588.66
2655.01
2724.76
2796.92
2870.62
2945.3
3020.31
606.737
607.771
607.568
605.307
604.31
604.272
605.277
606.82
608.352
609.896
611.459
613.113
614.818
616.594
618.438
620.321
622.22
624.116
626.005
627.868
629.715
631.534
633.318
635.062
636.765
638.42
640.036
641.612
643.168
644.69
646.198
647.706
649.209
650.741
652.304
653.924
655.611
657.403
659.327
661.416
663.702
666.239
669.292
673.068
678.811
688.299
699.745
713.454
729.476
747.964
769.134
793.127
821.007
852.021
887.88
928.284
975.244
1027.97
1088.12
1156.64
1235.09
428.252
427.101
424.605
421.481
419.412
418.048
417.369
417.081
416.887
416.737
416.609
416.513
416.445
416.437
416.467
416.518
416.558
416.587
416.604
416.614
416.605
416.569
416.491
416.37
416.201
415.993
415.747
415.463
415.147
414.802
414.429
414.03
413.614
413.181
412.735
412.286
411.843
411.412
411.001
410.617
410.277
409.992
409.8
409.733
409.901
410.583
412.451
415.227
418.994
423.818
429.967
437.497
446.767
457.841
471.398
487.834
507.796
531.936
561.191
596.893
640.225
328.109
326.5
323.999
321.432
319.584
318.258
317.395
316.873
316.501
316.247
316.025
315.837
315.687
315.61
315.568
315.562
315.525
315.483
315.439
315.401
315.356
315.273
315.153
314.995
314.8
314.576
314.329
314.061
313.771
313.463
313.136
312.792
312.428
312.048
311.654
311.249
310.838
310.428
310.021
309.621
309.235
308.872
308.542
308.253
308.025
307.905
308.05
308.716
309.775
311.266
313.297
315.985
319.447
323.808
329.279
336.21
344.867
355.678
369.282
386.428
408.048
253.305
251.807
249.831
248.024
246.624
245.617
244.899
244.484
244.249
244.199
244.163
244.172
244.225
244.393
244.607
244.863
245.066
245.279
245.502
245.747
245.99
246.181
246.344
246.486
246.604
246.725
246.84
246.962
247.074
247.185
247.289
247.39
247.477
247.555
247.623
247.688
247.752
247.818
247.882
247.952
248.031
248.126
248.242
248.386
248.558
248.767
249.061
249.551
250.251
251.141
252.262
253.686
255.489
257.729
260.546
264.057
268.44
273.948
280.91
289.679
300.86
190.726
189.531
188.138
187.042
186.074
185.408
184.859
184.623
184.561
184.783
184.917
185.103
185.323
185.735
186.184
186.703
187.116
187.586
188.059
188.557
189.057
189.463
189.883
190.33
190.77
191.263
191.761
192.304
192.841
193.407
193.967
194.545
195.114
195.697
196.278
196.88
197.49
198.117
198.745
199.39
200.046
200.735
201.448
202.195
202.963
203.762
204.606
205.502
206.578
207.722
208.968
210.355
211.91
213.7
215.771
218.212
221.126
224.627
228.885
234.131
240.654
137.952
137.054
136.163
135.63
134.997
134.604
134.123
134.037
134.114
134.601
134.779
135.009
135.245
135.803
136.348
137.018
137.463
138.081
138.629
139.181
139.755
140.158
140.685
141.362
142.01
142.777
143.509
144.368
145.183
146.081
146.926
147.838
148.735
149.707
150.677
151.728
152.777
153.87
154.961
156.107
157.277
158.523
159.838
161.197
162.602
164.042
165.493
166.957
168.511
170.145
171.811
173.531
175.357
177.301
179.41
181.724
184.311
187.238
190.596
194.519
199.138
95.8297
95.1052
94.6197
94.4405
94.0376
93.7827
93.1801
93.2373
93.4036
94.1747
94.1788
94.312
94.3708
95.0082
95.4466
96.1907
96.4373
97.132
97.479
97.7674
98.2409
98.34
98.8895
99.8491
100.492
101.361
102
103.037
103.858
104.899
105.613
106.614
107.571
108.727
109.865
111.202
112.367
113.614
114.91
116.31
117.866
119.509
121.337
123.306
125.269
127.193
129.046
130.755
132.618
134.37
136.341
138.235
140.506
142.756
145.288
147.839
150.745
153.738
157.052
160.854
164.914
9535.14
8922.39
8244.88
7500.41
6683.92
5463.84
4676.7
4371.17
4320.43
4386.34
4406.5
4332.96
4220.79
4083.83
3936.81
3790.38
3648.27
3513.58
3388.91
3275.92
3176.26
3090.92
3020.3
2964.56
2923.49
2896.49
2883.14
2883.06
2895.91
2920.96
2957.45
3004.33
3060.47
3124.59
3195.69
3270.35
3346
3420.68
3492.59
3559.88
3620.76
3674.25
3719.4
3755.12
3781.13
3796.63
3800.96
3793.24
3773.2
3740
3693.07
3631.44
3555.65
3465
3360.44
3243.69
3119.16
2992.44
2867.13
2743.31
2621.86
3095.85
3167.95
3234.67
3295.16
3339.2
3367.35
3387.75
3446.22
3547.64
3680.53
3560.28
3248.75
2905.11
2585.07
2321.47
2098.63
1911.1
1752.82
1618.05
1503.45
1406.43
1325.42
1258.79
1205.06
1163.02
1131.42
1108.99
1094.57
1087.12
1085.61
1089.11
1096.94
1108.55
1123.64
1142.3
1161.93
1182.26
1202.35
1221.42
1238.83
1254.12
1267.01
1277.18
1284.39
1288.46
1289.18
1286.33
1279.69
1269.06
1254.21
1234.94
1211.1
1182.67
1149.71
1112.35
1071.51
1028.43
984.936
941.245
896.422
852.321
1323.8
1424.29
1536.85
1663.07
1801.15
1946.99
2091.69
2246.92
2433.32
2699.44
2939.02
3024.81
2924.02
2647.52
2337.16
2046.9
1793.04
1583.53
1407.26
1260.29
1138.06
1037.16
954.66
887.942
834.914
793.5
761.825
738.301
721.592
710.594
704.486
702.613
704.338
709.182
716.612
725.708
735.33
745.074
754.398
762.873
770.158
775.981
780.129
782.43
782.77
781.025
777.075
770.793
762.071
750.78
736.831
720.177
700.745
678.619
653.948
627.189
598.843
569.578
540.016
510.683
482.222
692.898
756.388
832.652
923.104
1028.22
1145.83
1271.44
1406.36
1559.95
1756.43
1996.8
2245.29
2458.44
2558.91
2495.1
2292.79
2024.24
1771.04
1539.78
1343.49
1179.77
1044.14
933.532
843.722
771.595
714.104
668.616
632.965
605.479
584.856
570.217
560.916
556.218
555.291
557.312
561.446
566.639
572.337
578.036
583.301
587.778
591.197
593.352
594.109
593.366
591.043
587.053
581.318
573.758
564.314
552.924
539.574
524.254
507.042
488.08
467.644
446.075
423.755
401.164
378.816
357.374
435.293
469.697
512.935
566.65
631.992
708.947
796.139
892.633
1001.17
1130.73
1291.93
1487.88
1714.26
1945.82
2128.99
2218.28
2181.62
2036.61
1811.03
1584.23
1377.56
1196.3
1046.39
922.518
821.707
740.129
674.345
621.477
579.361
546.212
520.966
502.926
491.144
484.422
481.604
481.685
483.761
486.885
490.454
493.945
496.951
499.163
500.373
500.446
499.293
496.85
493.058
487.863
481.193
473.017
463.316
452.074
439.316
425.119
409.619
393.015
375.552
357.532
339.335
321.383
304.291
315.119
333.41
356.782
386.624
424.107
470.06
524.78
588.293
661.107
746.223
848.897
975.284
1131.39
1318.41
1524.59
1726.04
1884.43
1961.08
1936.34
1817.99
1637.34
1434.1
1251.05
1088.01
950.936
837.229
743.633
667.096
605.155
555.225
515.913
486.567
466.009
452.492
444.396
440.395
439.325
440.09
441.858
443.944
445.854
447.208
447.776
447.414
446.036
443.578
440.004
435.261
429.301
422.093
413.644
403.951
393.021
380.934
367.811
353.813
339.149
324.07
308.89
293.968
279.852
248.835
259.177
272.32
289.045
310.257
336.865
369.568
408.931
455.616
510.714
576.584
656.605
755.346
877.788
1026.27
1198.37
1382.6
1556.27
1689.06
1749.63
1725.43
1626.68
1480.46
1304.13
1140.71
993.968
867.172
760.602
673.299
601.529
543.644
499.388
467.537
445.425
430.783
421.836
416.996
415.021
414.8
415.392
416.191
416.687
416.63
415.836
414.229
411.733
408.33
403.962
398.575
392.134
384.681
376.195
366.669
356.177
344.821
332.754
320.148
307.239
294.263
281.552
269.574
204.686
211.4
219.629
229.821
242.521
258.327
277.899
301.874
330.943
365.904
407.938
458.801
521.148
598.224
693.622
810.262
948.557
1104.45
1266.6
1411.34
1514.87
1559.15
1537.8
1454.95
1330.91
1180
1029.98
894.029
779.438
682.144
601.331
538.197
492.152
458.938
435.723
420.336
410.578
404.91
402.102
400.747
400.154
399.551
398.702
397.327
395.39
392.731
389.414
385.305
380.4
374.559
367.935
360.45
352.042
342.809
332.834
322.287
311.308
300.116
288.851
277.843
267.442
169.718
175.107
181.129
188.433
196.987
207.396
219.802
235.001
253.332
275.589
302.321
334.833
374.408
423.105
483.083
557.47
648.588
758.099
887.46
1024.99
1158.12
1271.92
1350.38
1384.12
1363.75
1292.67
1177.04
1038.78
907.899
789.69
686.454
602.821
540.81
493.275
458.876
434.699
418.361
407.316
400.946
396.688
394.165
391.897
389.997
387.7
385.278
382.187
378.88
374.816
370.358
364.889
359.016
352.41
344.909
336.743
327.827
318.595
308.877
299.248
289.31
279.786
270.526
8.78131
266.194
247.701
8.69892
12.6749
0.0704379
0.000753938
79.5823
0.000761206
0.0162914
376.712
3.16696
0.000753842
308.132
0.0538934
70.2994
0.0007589
81.8501
326.566
0.000755673
9.27262
310.057
259.057
0.000779563
0.000757481
0.279443
0.000755775
20.186
0.000757417
0.000760144
31.1935
0.000752982
0.0107544
332.791
1.75996
372.796
842.676
11.4184
0.000751639
61.7947
118.636
61.1567
0.000749688
48.1587
251.409
0.350603
0.000749921
0.00184773
0.0466148
3.61867
331.19
361.685
0.000749404
0.000769862
0.174152
0.00074932
0.00075992
20.0124
802.824
307.374
101.949
0.000797708
5.0423
0.00451599
228.199
0.000749618
801.298
67.8444
0.00114433
0.000750237
0.021226
30.731
100.794
0.000748635
0.105033
308.199
275.501
27.4548
0.000748856
2.65075
0.00114056
63.2212
0.0127588
50.2369
0.000751153
7.88935
0.000760198
363.257
0.0236935
0.000885014
0.0360613
0.000748653
0.000784677
328.493
140.184
0.000770548
0.854889
11.4944
0.00175959
159.763
0.000749559
27.3297
7.52691
0.000748395
0.000748627
0.000748956
1.74087
0.131558
0.000767421
136.193
173.768
0.00653006
279.461
334.874
89.1737
363.319
442.274
0.000983938
0.0271717
0.000755746
0.000748563
253.545
0.000801928
242.044
414.082
43.4538
0.000749177
1.47739
1.70212
0.000749342
0.0454048
0.00472367
91.4086
0.000776633
363.777
0.000749915
0.000748597
389.443
367.133
0.000749771
5.22088
128.808
0.282353
0.99666
355.695
152.962
0.0421802
366.469
0.00306645
303.367
0.217306
0.000750022
35.5406
48.7664
170.463
0.00075196
0.000751445
0.10209
0.000748822
905.969
0.317739
0.00138333
0.000751956
0.000748999
0.000757783
16.423
70.6388
70.7676
0.000784136
306.481
281.799
228.374
176.082
0.0100113
293.912
307.155
418.651
0.000750191
0.00113234
123.464
401.003
67.3801
65.1774
0.000748929
0.000764921
289.865
0.0053596
1.84367
0.000757516
0.00074947
0.248496
0.000797061
357.577
0.591821
0.000748606
0.126158
85.3846
208.008
0.00116401
1129.06
0.000749209
0.000750874
176.801
8.05735
317.191
0.00118805
0.000760558
0.00303324
16.4965
1297.38
9.79856
180.207
0.425112
178.657
1.03789
30.3682
43.8635
69.8296
5.15774
366.847
0.000761411
0.0215793
0.000749632
0.000751314
445.874
0.00237266
0.00260418
0.000762187
0.00885537
33.6717
307.78
0.0171276
229.31
1.81775
3.56505
0.000750376
2.43293
9.84251
1.50635
0.00106114
33.7846
49.7643
1.58184
0.0219844
220.072
11.5512
10.8286
59.9677
0.000907312
0.00074882
0.000825295
0.00523355
388.372
0.000753819
0.000779316
0.000751076
2.30019
129.84
292.435
444.922
0.487385
4.52965
316.672
0.00115685
971.684
161.112
0.000749187
268.845
0.000750996
776.507
2.32253
284.75
0.0010485
0.000749457
11.4218
20.7355
0.000759002
0.000750078
0.000753031
0.000760021
1.07842
72.0558
11.0049
0.0220038
0.000759857
0.000749815
0.000748569
43.2963
7.93008
0.000870386
9.68188
0.0764329
0.345243
0.00074873
1.11054
0.00075991
0.513461
82.7051
274.045
0.222704
0.000756089
0.000914415
28.0805
0.301173
116.775
302.742
0.000794305
0.000749062
0.000750301
84.188
0.000754955
134.482
0.00075012
30.6954
1.33882
0.0344088
265.383
437.979
0.000896317
452.043
68.3536
113.125
141.527
0.906683
367.712
433.014
118.384
395.279
39.8845
101.502
0.0577566
346.433
242.96
398.108
368.784
0.000918338
301.001
268.476
162.461
0.0111822
0.000785279
0.00074909
0.000765464
0.907788
1.27507
31.7457
0.0299003
0.000752736
138.153
0.000749086
330.456
6.04159
133.03
109.454
3.75427
0.000851181
0.000822875
2.07462
324.248
0.00131285
14.1135
291.473
652.639
36.0843
252.656
83.6713
0.000761159
238.516
142.076
128.837
0.000751131
215.731
134.409
0.000758124
362.387
0.000752046
354.958
282.92
370.417
28.0083
266.533
106.162
0.000776696
98.2459
0.00080693
320.795
37.0326
411.306
233.115
0.899208
0.465176
2.65977
0.000818504
283.318
4.76294
0.00222042
0.000986896
269.591
0.000806613
40.8917
0.000750773
0.000754092
0.0018476
54.1321
0.0409892
5.25595
0.000758808
28.8865
0.088358
266.344
173.722
10.2461
311.448
0.000809581
227.941
17.3335
0.000748601
35.4161
6.03753
0.000749077
0.000748643
389.775
0.00225644
85.123
1.82201
308.043
0.0119383
0.574585
14.0185
211.34
7.82482
167.379
36.127
0.000906124
0.124035
436.997
63.9173
302.211
316.755
210.713
0.0136321
89.3067
90.0797
4.5875
92.585
23.1852
6.29031
0.000818096
36.7135
392.792
0.000895395
160.953
8.90086
24.6865
0.00427946
0.0143972
306.232
0.000840202
299.788
0.000859399
4.87358
0.000754372
7.70132
126.494
0.320024
0.000869298
0.00093297
330.752
357.886
0.000757502
19.9911
300.828
330.405
0.000995244
3.92285
363.182
358.838
349.152
289.692
416.511
272.289
20.8089
0.000864496
0.00226477
261.135
106.809
342.945
112.649
0.00208021
262.187
359.694
0.000805354
84.2836
331.755
0.935209
0.0139716
153.331
79.2546
0.604886
104.511
0.00152036
0.000749265
0.000749187
21.5
187.076
796.95
0.00075005
0.000755354
0.000748653
374.589
0.0437662
0.000749126
0.0395857
166.925
281.064
0.00143668
0.0014956
0.000748551
0.000753798
0.000831197
49.6734
131.286
59.2873
2.10477
327.975
339.198
0.00149186
141.465
407.487
396.392
24.5064
425.849
0.000808918
0.00130402
0.000750222
231.403
0.112411
0.000749562
4.19455
0.0599776
278.902
0.00075864
350.669
1.57686
0.11396
151.481
0.000749718
0.000748866
0.00077283
407.065
21.9474
83.0175
289.564
26.6864
461.7
0.000748638
0.000989792
2.32599
0.000767819
0.00803897
164.213
730.028
0.000750283
54.6744
1004.44
177.727
408.896
0.0013294
410.339
0.000921213
0.00801246
298.411
0.00074936
76.0014
0.000759142
0.000758252
0.041754
363.452
1.9005
206.452
114.61
0.000763304
386.754
491.795
0.000753267
9.09538
0.0496412
0.000755135
0.000752209
0.00206741
65.3494
12.1769
0.000810212
291.07
303.563
178.846
0.000749391
1224.87
0.00112145
7.24908
2.74939
0.023001
1240.42
492.584
140.384
115.176
0.000770779
0.00074865
0.00123034
124.144
110.251
1.65224
0.00186898
0.000751045
0.000750144
0.00112334
0.00074857
0.00108114
1276.57
15.0362
0.00637315
351.25
151.125
0.000760406
485.882
0.000755987
3.90928
0.000762284
0.00916111
99.0172
0.00574364
0.000749661
1.0065
379.269
302.46
0.000755782
0.000749331
0.231342
0.000748795
0.000749356
175.123
0.000782391
598.553
387.577
13.66
90.3195
194.862
338.928
308.866
0.000749571
0.00236903
0.0244569
371.568
80.0407
231.147
0.288274
15.3497
246.415
282.114
182.51
0.000940074
103.019
0.00075083
0.254233
312.861
15.3854
770.078
64.9994
7.74636
30.2516
0.262783
0.00627375
317.47
0.000750168
272.12
0.000762146
4.65542
248.084
120.626
0.438719
0.00171609
10.7837
0.00075316
0.000749956
0.0486666
0.00327504
303.417
0.00181702
382.01
0.000750409
0.00503108
0.000749638
40.712
0.00104959
254.83
198.371
0.00283094
157.128
362.301
0.000751702
129.962
280.096
0.000798445
239.138
1.30151
0.000831383
0.00075035
311.611
0.00074911
0.000820814
0.0216559
0.264244
402.639
233.947
0.000752234
0.000750873
0.0756756
6.28695
0.00194866
0.0111318
10.2792
0.000749023
0.000804848
0.000750919
106.404
217.506
4.69763
312.175
0.00371958
345.539
0.000798563
0.00247807
0.0035523
0.0656988
0.000750925
309.337
0.000749058
0.00731604
0.000752737
0.000754148
0.00286746
0.000748869
4.31271
6.57769
404.978
4.41069
9.05811
412.313
152.937
0.000785811
323.284
333.974
17.5486
24.536
0.000765848
286.791
91.6041
0.000748856
388.292
1045.69
0.000751725
0.000748383
88.7483
90.1792
0.000994348
305.758
383.448
3.02148
409.64
298.687
70.7504
1101.74
68.244
45.6864
259.481
319.923
0.00284519
325.528
71.1888
667.35
0.000795584
2.0066
2.15439
159.192
158.322
0.00477131
292.992
123.816
24.3368
0.174497
4.38994
428.796
0.00096925
430.859
410.212
0.0435867
154.112
11.4154
42.0751
140.523
0.000752088
0.00159025
1.6365
6.80384
0.0173887
0.000749546
1.18133
4.16663
0.000967442
0.000758665
155.7
1.23099
42.3841
14.9267
0.00129583
0.000814288
0.000903211
359.782
0.000770798
4.47897
335.297
1.12202
125.902
0.000855026
0.686698
0.000749848
0.000748702
31.3313
0.000748411
0.146383
758.945
233.39
0.258996
64.0192
7.91462
0.106455
0.000903968
9.81652
356.804
0.000750109
0.00075019
96.1843
0.00610955
0.000757875
35.2861
0.00402503
163.478
430.178
73.0408
0.0470622
10.0463
792.498
216.382
269.568
0.000756499
297.213
0.000763685
70.28
0.000817521
0.00075107
871.667
0.00232119
590.614
0.0131057
0.00922514
93.807
13.1317
0.250265
0.000787156
175.322
0.000783879
0.000750012
362.109
127.167
18.1811
372.383
0.000762191
0.00074836
8.34228
101.895
0.000748779
270.673
77.9096
0.00075198
96.6349
0.000749723
9.19665
6.25836
4.87057
0.275153
108.024
7.23074
0.000749595
255.305
332.278
0.000748768
0.025071
441.73
0.000750252
173.279
281.552
342.826
0.000748919
0.000749322
251.621
0.396776
0.000813968
49.5267
120.411
261.877
0.000748505
0.000790457
0.00598349
0.0183961
0.000749027
0.00220354
58.5509
412.169
0.000751661
5.14006
0.000749165
22.0127
0.00108267
0.000782105
6.07072
0.000749217
1.67006
0.00074916
51.0242
2.90452
11.3619
114.02
347.179
303.581
0.895009
8.24652
0.000758535
1.52066
239.09
323.872
0.0363548
0.000774301
80.6046
0.00074907
0.334263
0.000749918
418.724
31.5944
7.90045
215.375
101.016
11.6139
26.7714
13.5564
154.125
67.4245
0.000755775
0.000781375
0.0010374
0.000757445
0.00291388
151.587
0.000934122
287.995
0.000909021
0.032997
0.466595
326.497
0.00144243
15.3649
0.0281562
115.145
6.74712
405.552
0.000813884
0.000965072
0.000763257
64.9195
67.0948
27.0204
0.312281
0.00564698
28.0042
0.0858684
39.9843
0.000764261
526.301
0.000750353
649.961
0.392736
32.1356
0.000755914
31.5896
33.035
0.000748733
112.871
7.66973
0.0136966
0.000752334
0.000749027
309.19
32.9661
3.81358
0.000748739
0.0023146
1077.65
116.529
0.00112315
0.00169572
0.000748877
173.157
98.0582
628.288
7.8704
0.000748671
339.72
424.09
0.00075033
0.000750087
36.0984
0.000749157
0.00203611
0.00134596
97.1479
0.00107881
553.447
332.77
0.000764664
0.000816612
0.000748563
0.000753353
20.2758
498.195
357.139
0.00771762
13.0394
851.524
0.194881
12.1409
0.000826893
580.886
0.589101
405.629
6.87486
116.267
322.426
0.000749066
0.000758501
95.4702
163.725
273.561
1.31609
343.021
0.655351
71.9077
0.00244133
0.000894952
284.651
99.5357
0.126542
0.0213316
0.000753293
0.0186358
5.06435
0.0501671
25.558
0.000766255
220.144
355.169
1.88317
304.368
69.6991
410.815
3.24592
284.965
633.056
3.87565
19.2666
0.000749424
31.4927
21.9019
0.000749206
0.000750429
1.88016
0.000750177
0.000794825
402.488
186.095
0.000753718
373.982
0.000748716
0.000749757
0.000748996
0.000777589
0.00142745
362.907
80.9991
197.168
0.000753909
0.000749439
1.18604
0.000771988
0.0415006
0.000762313
0.00075191
317.513
0.000836216
0.0014693
120.639
0.00247699
0.000749817
282.181
0.000749728
0.000755474
0.000749658
0.000770446
0.0012064
0.00127635
0.00426827
0.00074964
0.000763559
285.166
417.52
47.9837
0.0325547
304.98
2.77912
0.00135441
370.264
527.506
167.75
437.611
0.000750053
84.4866
78.8776
0.0729815
395.818
197.674
0.319599
367.435
0.000748443
408.883
0.0236405
5.93987
0.000756691
255.04
0.000764537
465.703
6.98351
0.000749496
0.472838
0.00118022
0.000796648
0.000753478
1.8589
0.000789894
0.000762573
427.445
0.000748406
0.051258
161.608
158.976
0.000833049
0.000968928
6.73847
233.228
0.000748966
0.000754441
0.495916
49.3268
76.1238
0.00195413
3.23319
0.00075112
0.000767187
0.00074867
0.00532293
46.0106
0.00542096
306.48
346.401
226.138
148.507
0.000769717
318.549
20.4164
0.000748824
0.000755124
0.000753735
0.000800558
0.000750354
331.025
0.00074956
0.000750189
324.414
0.167685
0.00122994
0.00101689
304.992
7.93017
0.00257008
0.000780456
132.517
0.000762252
0.0165439
0.000769939
0.000776974
126.692
221.212
0.00118764
0.000853301
1.43803
0.000749208
335.13
0.000767933
184.243
0.060497
16.9434
0.000750075
7.18981
0.000749085
61.6452
0.000760252
0.000777286
0.00171967
89.3887
0.704628
276.913
0.000749106
0.00127933
0.00093455
222.481
72.3517
159.444
0.00211568
0.0042945
1.00475
0.000751062
25.5747
26.6689
0.00227928
304.853
106.497
54.7347
0.00116869
0.261457
115.246
220.469
397.874
0.0109995
299.53
0.140453
154.112
0.0227219
0.486159
70.0337
0.000761833
383.289