/*--------------------------------*- C++ -*----------------------------------*\
| =========                 |                                                 |
| \\      /  F ield         | OpenFOAM: The Open Source CFD Toolbox           |
|  \\    /   O peration     | Version:  2.3.1                                 |
|   \\  /    A nd           | Web:      www.OpenFOAM.org                      |
|    \\/     M anipulation  |                                                 |
\*---------------------------------------------------------------------------*/
FoamFile
{
    version     2.0;
    format      ascii;
    class       volScalarField;
    location    "0.05";
    object      k;
}
// * * * * * * * * * * * * * * * * * * * * * * * * * * * * * * * * * * * * * //

dimensions      [0 2 -2 0 0 0 0];

internalField   nonuniform List<scalar> 
9648
(
2.78875
2.7258
2.67298
2.63101
2.59918
2.57557
2.55776
2.5435
2.53083
2.51831
2.50491
2.48998
2.47309
2.45402
2.43272
2.40924
2.38371
2.35632
2.3273
2.29693
2.26552
2.23337
2.20081
2.16814
2.13566
2.10363
2.07229
2.04186
2.0125
1.98438
1.95761
1.93228
1.90848
1.88626
1.86564
1.84663
1.82926
1.81349
1.79931
1.7867
1.77562
1.76602
1.75788
1.75112
1.74572
1.7416
1.73873
1.73707
1.73656
1.73714
1.73878
1.74143
1.74505
1.74959
1.75507
1.76144
1.76869
1.77675
1.78566
1.79549
1.80625
3.24286
3.05513
2.87225
2.7106
2.57826
2.47924
2.41219
2.37295
2.35553
2.35441
2.3646
2.38251
2.40561
2.43221
2.46108
2.49142
2.52261
2.55418
2.58581
2.61728
2.64844
2.67918
2.70947
2.73929
2.76865
2.79759
2.82619
2.85447
2.88247
2.91026
2.93793
2.96551
2.99307
3.02069
3.04841
3.07623
3.10424
3.13249
3.16097
3.18961
3.21849
3.24767
3.27709
3.30672
3.33662
3.36665
3.3968
3.42715
3.45773
3.48838
3.51909
3.54969
3.58027
3.61053
3.64073
3.67066
3.70053
3.7298
3.75871
3.7873
3.81563
3.87482
3.62978
3.39662
3.18708
3.01222
2.87981
2.79179
2.74559
2.73452
2.75106
2.78737
2.83744
2.89648
2.96099
3.02846
3.0971
3.1657
3.23332
3.29933
3.36333
3.425
3.4842
3.54084
3.59495
3.64661
3.69594
3.74308
3.78813
3.83125
3.87259
3.91226
3.95047
3.98738
4.02307
4.05766
4.09132
4.12409
4.15611
4.18742
4.21808
4.24818
4.27775
4.3069
4.33566
4.36403
4.39202
4.41959
4.44684
4.47364
4.49999
4.52589
4.5514
4.57668
4.60118
4.62567
4.64933
4.67277
4.69509
4.71729
4.739
4.76024
4.48676
4.21502
3.95468
3.71661
3.51276
3.35335
3.24406
3.18492
3.17083
3.19365
3.24405
3.31382
3.39607
3.48579
3.57909
3.67324
3.76634
3.85701
3.9443
4.02762
4.10653
4.18076
4.25028
4.31516
4.37561
4.43182
4.48407
4.53261
4.5777
4.61958
4.65858
4.69498
4.72904
4.76104
4.79117
4.81968
4.84676
4.87257
4.89726
4.92096
4.94382
4.96599
4.98755
5.00868
5.02938
5.04975
5.06984
5.08968
5.10924
5.12855
5.14771
5.16648
5.18502
5.2032
5.22141
5.23918
5.25653
5.27344
5.28995
5.30604
5.32151
5.08339
4.79642
4.51834
4.2603
4.03449
3.85279
3.72364
3.64998
3.62886
3.65262
3.71121
3.79464
3.89442
4.00381
4.11766
4.23214
4.34463
4.4533
4.55689
4.65465
4.74598
4.83052
4.90821
4.97914
5.04368
5.10218
5.155
5.20255
5.24518
5.28331
5.31735
5.3477
5.37483
5.39908
5.42075
5.44025
5.45789
5.47383
5.48835
5.50161
5.51381
5.52514
5.53584
5.54604
5.55585
5.56537
5.57467
5.58381
5.59287
5.6017
5.61046
5.61906
5.62739
5.63549
5.64346
5.65132
5.65882
5.666
5.67276
5.67897
5.68458
5.67635
5.3798
5.08913
4.8155
4.57139
4.3695
4.22053
4.13035
4.09833
4.11817
4.17968
4.27166
4.38404
4.50842
4.63848
4.76918
4.897
5.01978
5.13572
5.24405
5.34403
5.43504
5.51713
5.5902
5.6549
5.71172
5.76115
5.80383
5.84006
5.87048
5.8957
5.91605
5.93229
5.9449
5.9542
5.96079
5.96523
5.96767
5.9685
5.96791
5.96605
5.96329
5.95988
5.95605
5.95189
5.94758
5.94331
5.93891
5.93462
5.93033
5.92601
5.92165
5.91721
5.9126
5.90795
5.90319
5.89832
5.89324
5.88775
5.88168
5.87518
6.27616
5.97328
5.67319
5.38659
5.12611
4.90491
4.73555
4.62661
4.57988
4.59089
4.65017
4.74554
4.86564
5.00047
5.14282
5.28584
5.42543
5.55888
5.68365
5.79918
5.90463
5.99885
6.08231
6.15423
6.21575
6.26754
6.31011
6.34464
6.371
6.39032
6.40345
6.41036
6.41229
6.40983
6.40309
6.39311
6.38081
6.36611
6.34987
6.33221
6.31307
6.29308
6.27252
6.25174
6.23054
6.20939
6.18848
6.16774
6.14737
6.12715
6.10708
6.08708
6.06714
6.04706
6.02692
6.007
5.98712
5.96712
5.9467
5.92577
5.90462
6.88965
6.58241
6.27488
5.97682
5.70114
5.46023
5.26933
5.13929
5.07361
5.07084
5.12245
5.21592
5.33876
5.47912
5.62961
5.78119
5.92924
6.07063
6.20116
6.32054
6.42846
6.52275
6.60545
6.67365
6.72903
6.7727
6.80526
6.82873
6.8418
6.84673
6.84513
6.83557
6.82002
6.79909
6.77296
6.74291
6.70984
6.67352
6.63632
6.59799
6.55784
6.51697
6.47598
6.43493
6.3932
6.35196
6.31085
6.27032
6.23034
6.191
6.15193
6.11334
6.07493
6.03594
5.99725
5.95935
5.92129
5.88358
5.84492
5.80582
5.76733
7.52159
7.2106
6.89724
6.58709
6.29822
6.03583
5.82083
5.66846
5.57781
5.5566
5.59424
5.68111
5.80165
5.94231
6.09552
6.25194
6.40537
6.55179
6.6879
6.80887
6.91494
7.00728
7.08496
7.15039
7.19831
7.23033
7.25166
7.26198
7.25722
7.24473
7.22493
7.19845
7.16429
7.12106
7.07144
7.02104
6.96115
6.89687
6.8348
6.77076
6.70469
6.63657
6.57314
6.50975
6.44189
6.37948
6.31151
6.24872
6.18185
6.11967
6.05413
5.99404
5.93493
5.87158
5.80866
5.75171
5.69112
5.63532
5.57275
5.50893
5.45104
1.81792
1.83051
1.84421
1.85907
1.87518
1.89273
1.91196
1.93231
1.9531
1.97448
1.9961
2.01831
2.04108
2.06432
2.08799
2.11229
2.13718
2.16255
2.18837
2.21485
2.24188
2.26951
2.29789
2.3269
2.35637
2.3865
2.41736
2.44897
2.48127
2.51431
2.5482
2.5829
2.61844
2.65495
2.69242
2.73086
2.77037
2.81103
2.85284
2.89578
2.93995
2.98545
3.03227
3.08042
3.12999
3.18088
3.23313
3.28682
3.34195
3.39845
3.45631
3.51554
3.57613
3.63792
3.70103
3.76536
3.83108
3.89815
3.96682
4.03713
4.10912
3.84374
3.87065
3.89726
3.92353
3.94921
3.97398
3.99742
4.01997
4.04133
4.06235
4.08225
4.10152
4.11999
4.13754
4.15413
4.1697
4.18438
4.19811
4.21096
4.22292
4.23411
4.24455
4.25408
4.26263
4.27017
4.27675
4.28242
4.28712
4.29093
4.29385
4.29589
4.29711
4.29756
4.29727
4.29627
4.29465
4.29241
4.28964
4.28634
4.28257
4.27839
4.27385
4.26903
4.26393
4.25855
4.25285
4.24674
4.24027
4.23337
4.22604
4.21817
4.20964
4.20044
4.19009
4.17896
4.16655
4.15339
4.13933
4.12541
4.11182
4.09901
4.78054
4.80034
4.81932
4.83784
4.8558
4.87336
4.88924
4.9039
4.91728
4.93003
4.94185
4.95295
4.96307
4.97236
4.98069
4.98806
4.9945
5.00001
5.00457
5.00819
5.01093
5.01277
5.01377
5.01396
5.0133
5.01178
5.00941
5.0062
5.00215
4.99727
4.9916
4.98513
4.97792
4.97003
4.96148
4.95235
4.94264
4.93241
4.9217
4.91057
4.8991
4.88738
4.87548
4.86345
4.85129
4.83898
4.82641
4.81357
4.8004
4.78691
4.77299
4.75842
4.74313
4.7268
4.70934
4.69034
4.66997
4.64844
4.62653
4.60456
4.58284
5.33651
5.35072
5.3642
5.37679
5.38865
5.39968
5.40945
5.41804
5.42557
5.43218
5.43775
5.44222
5.44571
5.44829
5.44989
5.45057
5.45031
5.44909
5.44687
5.44367
5.43951
5.43442
5.42843
5.4216
5.41393
5.40541
5.39605
5.38585
5.37486
5.36308
5.3505
5.33713
5.323
5.30821
5.29283
5.27692
5.26049
5.24359
5.22625
5.20859
5.19073
5.17279
5.15491
5.1372
5.11972
5.10247
5.0853
5.06822
5.05119
5.03428
5.01731
5.00015
4.98273
4.96468
4.94574
4.92542
4.90386
4.88113
4.85802
4.83479
4.8118
5.68951
5.69373
5.69703
5.69925
5.70028
5.70029
5.69939
5.69787
5.69549
5.69222
5.68804
5.68296
5.67701
5.67017
5.66247
5.65395
5.64458
5.63432
5.62316
5.6111
5.59819
5.5845
5.57008
5.55499
5.53923
5.5228
5.5057
5.48796
5.46965
5.45077
5.43129
5.41112
5.39032
5.36896
5.34718
5.325
5.30245
5.27958
5.25637
5.23294
5.20949
5.18613
5.16309
5.14059
5.11874
5.09761
5.0769
5.05679
5.03715
5.01818
4.99958
4.98123
4.96324
4.94509
4.92644
4.90653
4.88565
4.86343
4.84099
4.81837
4.79597
5.86805
5.86019
5.8514
5.84166
5.83078
5.81876
5.80573
5.79198
5.7775
5.76222
5.74619
5.72947
5.712
5.69376
5.67479
5.65519
5.63497
5.61399
5.59219
5.56959
5.54634
5.52252
5.49822
5.47356
5.4485
5.42305
5.39722
5.37102
5.34467
5.31821
5.29158
5.26448
5.23699
5.20908
5.18104
5.15276
5.12423
5.09563
5.06683
5.0379
5.00909
4.9805
4.95245
4.9253
4.89927
4.8746
4.85064
4.82793
4.8061
4.78577
4.76617
4.74712
4.72925
4.71165
4.69425
4.67542
4.65606
4.63507
4.61424
4.59282
4.57178
5.88304
5.86091
5.83797
5.81413
5.78916
5.763
5.73602
5.70861
5.68048
5.65151
5.62205
5.59219
5.56177
5.53086
5.49943
5.46775
5.43588
5.40345
5.37035
5.33648
5.3022
5.26778
5.23317
5.19873
5.1643
5.12982
5.09536
5.0607
5.02654
4.99301
4.96033
4.92751
4.89488
4.86199
4.82953
4.79688
4.76379
4.73089
4.69806
4.66523
4.63254
4.59994
4.56805
4.53735
4.50801
4.48093
4.45437
4.43007
4.40683
4.38652
4.36719
4.3481
4.33121
4.3149
4.29969
4.28213
4.26519
4.24584
4.22761
4.20778
4.18895
5.72857
5.68987
5.65061
5.6112
5.57091
5.52985
5.48829
5.44723
5.40563
5.36266
5.31967
5.27683
5.23357
5.19003
5.14603
5.10291
5.06075
5.01832
4.97558
4.93125
4.8867
4.84304
4.79927
4.75639
4.71438
4.6727
4.63173
4.5897
4.5487
4.50931
4.47323
4.43724
4.40303
4.36855
4.33604
4.30332
4.26869
4.23388
4.19998
4.16679
4.13333
4.09922
4.06593
4.03398
4.00323
3.97612
3.9481
3.92381
3.9001
3.88214
3.8651
3.84677
3.83194
3.81791
3.80615
3.78975
3.77594
3.7585
3.74422
3.72651
3.71076
5.3888
5.33126
5.26949
5.21432
5.1558
5.10286
5.04612
4.99563
4.94509
4.89122
4.83759
4.78774
4.73507
4.68138
4.62583
4.57211
4.52409
4.47807
4.43334
4.38393
4.33121
4.28306
4.23382
4.18559
4.13945
4.0953
4.05538
4.00996
3.9633
3.9186
3.88254
3.84603
3.81485
3.78274
3.75879
3.73424
3.7035
3.66918
3.63755
3.60933
3.5809
3.54823
3.51631
3.48678
3.45752
3.43422
3.40479
3.38246
3.35757
3.34595
3.3335
3.3161
3.30483
3.29452
3.28839
3.27179
3.26156
3.24495
3.23677
3.22205
3.21035
4.18284
4.25869
4.33688
4.41552
4.49701
4.59411
4.69067
4.78263
4.87595
4.9705
5.06649
5.16393
5.26288
5.36335
5.46518
5.56836
5.67289
5.77862
5.88528
5.99281
6.101
6.20971
6.31886
6.42836
6.5379
6.64721
6.75619
6.86467
6.97243
7.07907
7.18456
7.28859
7.39074
7.49089
7.58877
7.68389
7.77588
7.86477
7.94994
8.03046
8.10594
8.17555
8.23403
8.2804
8.31546
8.33943
8.35213
8.35348
8.34324
8.321
8.28613
8.2378
8.17521
8.09733
8.00297
7.89076
7.75921
7.60657
7.43077
7.22942
6.99984
4.08712
4.07852
4.07314
4.06017
4.04803
4.03331
4.02078
4.01063
4.00143
3.99297
3.98533
3.97827
3.97166
3.9654
3.95932
3.9533
3.94709
3.94058
3.93368
3.9264
3.91875
3.91063
3.90206
3.89303
3.88352
3.87355
3.86311
3.85231
3.84115
3.82969
3.81802
3.80621
3.79431
3.78241
3.7706
3.759
3.74774
3.73706
3.72719
3.71829
3.71044
3.70383
3.70044
3.6993
3.69971
3.70157
3.7039
3.70735
3.71227
3.71871
3.72688
3.73709
3.7501
3.76598
3.78537
3.80876
3.83736
3.87144
3.91138
3.95794
4.01182
4.56135
4.54324
4.52029
4.49146
4.46817
4.44772
4.43031
4.41463
4.39937
4.38435
4.36946
4.35469
4.34007
4.32561
4.31115
4.29648
4.28128
4.26544
4.2489
4.23169
4.21377
4.19505
4.17547
4.155
4.13362
4.11135
4.08821
4.06424
4.03945
4.0139
3.98759
3.96053
3.93277
3.90429
3.87511
3.84525
3.81476
3.78366
3.75201
3.71985
3.68723
3.65418
3.62088
3.58733
3.55334
3.51882
3.48469
3.4509
3.41744
3.38439
3.35194
3.32036
3.29009
3.26144
3.23526
3.21216
3.19345
3.18003
3.17375
3.17653
3.19091
4.78842
4.76713
4.73832
4.70779
4.68382
4.66387
4.64738
4.63313
4.61973
4.60687
4.59407
4.58138
4.56886
4.55666
4.54455
4.53225
4.51937
4.50587
4.49177
4.47711
4.46186
4.4458
4.42888
4.4111
4.39243
4.37294
4.35267
4.33166
4.3099
4.28742
4.2642
4.24024
4.21551
4.18999
4.16368
4.13657
4.10866
4.07998
4.05051
4.02024
3.98916
3.95731
3.92471
3.89134
3.85709
3.82172
3.78465
3.74665
3.70768
3.66777
3.62682
3.58498
3.54229
3.49903
3.45529
3.41139
3.36791
3.3255
3.28518
3.24814
3.21625
4.77244
4.74979
4.72108
4.69326
4.67102
4.65292
4.63822
4.62627
4.61572
4.60637
4.59708
4.58796
4.57908
4.57083
4.56278
4.5546
4.54561
4.53606
4.526
4.51558
4.50467
4.49291
4.48036
4.46705
4.45303
4.43843
4.4233
4.40767
4.3915
4.37479
4.35749
4.33959
4.32101
4.30174
4.28176
4.26109
4.23974
4.21771
4.19498
4.17155
4.14742
4.12263
4.09718
4.07103
4.04414
4.01652
3.98798
3.95781
3.9262
3.8932
3.85877
3.82288
3.78553
3.74676
3.70658
3.66487
3.62185
3.5777
3.53258
3.48695
3.44151
4.54862
4.52657
4.50082
4.47781
4.45854
4.44316
4.43045
4.42099
4.41346
4.40808
4.40238
4.39686
4.3916
4.3876
4.38383
4.38002
4.37495
4.36952
4.36373
4.35785
4.35163
4.34441
4.33662
4.32849
4.31996
4.31137
4.30262
4.29382
4.28469
4.2753
4.26551
4.25531
4.24457
4.23334
4.22158
4.20936
4.19668
4.18356
4.16992
4.15581
4.14124
4.12626
4.11091
4.09515
4.07892
4.06219
4.04485
4.0265
4.00663
3.98518
3.96216
3.93756
3.91134
3.88355
3.85409
3.82295
3.79012
3.75548
3.71897
3.68069
3.64058
4.16618
4.14589
4.12426
4.10715
4.09099
4.07855
4.0674
4.06033
4.05546
4.05427
4.05107
4.04804
4.04511
4.0447
4.04425
4.04404
4.04147
4.03922
4.0366
4.03418
4.03166
4.02763
4.02386
4.02068
4.01751
4.01517
4.01291
4.01126
4.00933
4.00753
4.0053
4.00301
4.0003
3.99752
3.99446
3.99145
3.98827
3.98504
3.98156
3.97805
3.97445
3.97103
3.96773
3.96454
3.96124
3.95779
3.95401
3.94955
3.94425
3.93725
3.92859
3.91829
3.90643
3.89299
3.87797
3.86136
3.84309
3.82307
3.80118
3.77727
3.75111
3.68814
3.66949
3.65221
3.64114
3.62755
3.61774
3.60674
3.60155
3.59866
3.60178
3.59887
3.59608
3.59305
3.59486
3.59543
3.59696
3.59378
3.59287
3.59081
3.58915
3.58801
3.58416
3.58265
3.58403
3.58516
3.58824
3.59089
3.59552
3.59903
3.60333
3.60631
3.61018
3.61355
3.61802
3.62234
3.6278
3.63304
3.63892
3.64479
3.65165
3.65906
3.66777
3.67765
3.68832
3.69951
3.71082
3.72169
3.73174
3.74151
3.74998
3.75686
3.76225
3.76668
3.76985
3.77193
3.77279
3.7726
3.77094
3.76779
3.76303
3.75616
3.18782
3.169
3.15639
3.15062
3.1386
3.1301
3.11647
3.11321
3.11141
3.11988
3.11325
3.10798
3.10138
3.10461
3.1022
3.10395
3.09555
3.09472
3.08893
3.08368
3.08171
3.07341
3.07308
3.0809
3.08376
3.08978
3.09294
3.10218
3.10663
3.11352
3.1148
3.12127
3.12655
3.13553
3.14399
3.15575
3.16458
3.17555
3.18764
3.20245
3.22022
3.24004
3.26343
3.28927
3.31492
3.33949
3.36207
3.38155
3.40337
3.42233
3.44351
3.46263
3.48624
3.50759
3.53058
3.55199
3.57492
3.59525
3.61504
3.63577
3.65259
6.73928
6.44402
6.1102
5.73295
5.30028
4.62225
4.1839
4.01038
3.98561
4.02771
4.03557
3.98855
3.91811
3.83193
3.73896
3.64562
3.55403
3.46617
3.38394
3.30872
3.24175
3.18393
3.13582
3.09764
3.06935
3.05078
3.04176
3.04204
3.05131
3.06908
3.09471
3.12739
3.1662
3.2102
3.25853
3.30892
3.3596
3.40925
3.4566
3.50057
3.54012
3.57465
3.6036
3.62645
3.6429
3.65243
3.65469
3.64934
3.636
3.61403
3.58306
3.54263
3.49244
3.43214
3.36223
3.28373
3.19916
3.11142
3.02294
2.93592
2.85379
4.07401
4.14406
4.22278
4.31164
4.39861
4.50931
4.67668
4.95028
5.38348
6.106
6.48172
6.50081
6.38679
6.18897
5.96562
5.74041
5.51819
5.30337
5.09892
4.90675
4.72913
4.56856
4.42662
4.30468
4.20345
4.12354
4.06576
4.03074
4.01865
4.02902
4.0606
4.11093
4.17675
4.25451
4.34101
4.43489
4.53104
4.62599
4.71627
4.79925
4.87303
4.93639
4.98847
5.02858
5.05624
5.07103
5.07248
5.06018
5.03353
4.99202
4.93508
4.86209
4.77235
4.66468
4.53888
4.39361
4.22918
4.04625
3.85118
3.65055
3.44618
3.21954
3.26606
3.33437
3.42975
3.55304
3.70947
3.91104
4.19085
4.60442
5.28511
6.08697
6.77406
7.281
7.43802
7.32714
7.12847
6.88215
6.62128
6.35773
6.10044
5.85555
5.62911
5.42453
5.24446
5.09101
4.96498
4.86696
4.79745
4.75701
4.7457
4.76308
4.80752
4.87563
4.96293
5.06486
5.1769
5.29487
5.41332
5.52792
5.63522
5.73248
5.81757
5.88901
5.94577
5.98712
6.01242
6.02109
6.01245
5.98589
5.94078
5.87665
5.79252
5.68772
5.56161
5.414
5.24415
5.05205
4.83901
4.60873
4.36645
4.11852
3.19171
3.17755
3.17741
3.19581
3.23649
3.30374
3.4064
3.56433
3.81175
4.21917
4.8242
5.59033
6.46081
7.25707
7.76687
8.00143
7.96151
7.77097
7.50948
7.21906
6.92364
6.63817
6.37271
6.13256
5.92212
5.7428
5.59531
5.48014
5.39828
5.35049
5.33796
5.36087
5.41655
5.49993
5.60496
5.72538
5.85604
5.99058
6.12359
6.2505
6.36761
6.47199
6.56161
6.63501
6.69117
6.72927
6.74852
6.74808
6.72722
6.68537
6.62193
6.53611
6.42708
6.29464
6.13857
5.95867
5.75514
5.52936
5.28411
5.02333
4.75379
3.39735
3.35576
3.31865
3.28837
3.26762
3.26
3.27235
3.31725
3.4148
3.60066
3.91995
4.40794
5.08898
5.93499
6.8195
7.61618
8.17502
8.4374
8.44511
8.2588
7.98643
7.67553
7.36317
7.06416
6.79077
6.54792
6.33841
6.16357
6.02553
5.92553
5.86672
5.85225
5.88096
5.94728
6.04408
6.16408
6.30005
6.44573
6.59367
6.73784
6.87343
6.99659
7.10461
7.19558
7.26813
7.32121
7.35382
7.3649
7.35375
7.31969
7.26224
7.18053
7.07384
6.94195
6.78483
6.60234
6.39505
6.16439
5.91253
5.64299
5.36243
3.59884
3.55569
3.51171
3.46743
3.42389
3.38301
3.3488
3.32873
3.33465
3.3855
3.5093
3.74032
4.118
4.67504
5.40778
6.27309
7.16615
7.94487
8.50659
8.77561
8.79208
8.61671
8.34362
8.02708
7.70779
7.40397
7.1265
6.88094
6.67378
6.5064
6.38447
6.31634
6.30396
6.34139
6.42033
6.53223
6.66795
6.82027
6.98025
7.14008
7.29354
7.43558
7.56276
7.67263
7.76343
7.8338
7.88261
7.9085
7.91069
7.88836
7.84112
7.76815
7.66862
7.54243
7.38934
7.20956
7.00375
6.77308
6.51988
6.2474
5.96174
3.72249
3.69114
3.65685
3.61936
3.57861
3.53487
3.48987
3.4473
3.41343
3.39844
3.41787
3.49357
3.65449
3.9357
4.36895
4.97387
5.73971
6.6083
7.48072
8.22245
8.74072
9.00231
9.02721
8.86382
8.59418
8.27798
7.95253
7.63917
7.35992
7.11534
6.91519
6.77713
6.70966
6.70583
6.75624
6.8516
6.98078
7.13452
7.30348
7.47726
7.64817
7.80937
7.95671
8.08705
8.19824
8.28851
8.35644
8.40062
8.41976
8.41298
8.38001
8.31999
8.23185
8.11544
7.9707
7.79811
7.59809
7.37228
7.12208
6.85084
6.56412
3.74714
3.73522
3.7198
3.70044
3.67636
3.64718
3.61292
3.57493
3.53591
3.50082
3.47775
3.47895
3.52201
3.63059
3.83363
4.16168
4.64068
5.28014
6.05978
6.90353
7.71575
8.39945
8.88025
9.12665
9.15368
8.99706
8.72288
8.38909
8.06519
7.75147
7.4674
7.24829
7.11508
7.05756
7.06711
7.13615
7.25063
7.39972
7.57379
7.75922
7.947
8.12752
8.29598
8.44849
8.58257
8.69527
8.78576
8.85156
8.89176
8.90415
8.88969
8.84673
8.77363
8.67079
8.53824
8.37697
8.18749
7.97111
7.72812
7.46241
7.1778
3.67048
3.68496
3.69427
3.7018
3.70239
3.69839
3.68586
3.66816
3.64299
3.61511
3.58556
3.56256
3.55513
3.57753
3.64766
3.7892
4.03024
4.3976
4.91981
5.57193
6.32102
7.10714
7.85378
8.48969
8.94423
9.17406
9.16675
8.96574
8.69025
8.36264
8.01946
7.73074
7.53327
7.41075
7.36596
7.39668
7.48641
7.62303
7.797
7.99076
8.19379
8.3934
8.58369
8.76022
8.91974
9.05771
9.1746
9.26529
9.33099
9.36584
9.37471
9.35323
9.29854
9.21338
9.09586
8.95122
8.77527
8.57519
8.34233
8.08876
7.8084
1.10432
8.48493
8.17028
0.994765
1.54037
0.0635572
0.00322989
4.11038
0.00325147
0.0241535
5.80481
0.64944
0.0032296
11.1259
0.0534195
2.67821
0.00324463
4.29965
5.34578
0.00323506
1.11754
11.5552
9.15578
0.00330575
0.00324042
0.116209
0.00323536
1.37024
0.00324022
0.00324835
4.20774
0.00322704
0.0180251
12.1666
0.457364
5.30656
7.66796
1.26335
0.00322304
7.29008
3.30469
3.58499
0.00321717
2.10518
6.82915
0.172496
0.00321792
0.00570087
0.0193166
0.712693
7.47826
7.70863
0.00321637
0.00327709
0.0448564
0.00321612
0.00324767
1.1239
7.84807
7.82316
3.70791
0.00335885
1.04639
0.0104889
6.95084
0.00321688
8.67542
3.63099
0.00430515
0.00321756
0.0102821
1.91633
3.05508
0.00321408
0.0378858
11.6964
8.11893
1.98242
0.00321474
0.59529
0.00430176
7.06302
0.00984985
2.45302
0.00321956
1.00408
0.00324849
11.7728
0.0156658
0.00360901
0.0329095
0.00321413
0.00332076
7.95871
4.84809
0.00327917
0.288577
2.12012
0.0057706
4.57113
0.00321681
4.94176
0.750159
0.00321336
0.00321405
0.00321504
0.281182
0.0884203
0.00326989
4.30974
4.76048
0.00898155
8.17746
10.13
4.00431
12.6934
7.98565
0.00388289
0.0348112
0.00323526
0.00321387
6.82992
0.00334559
5.67341
7.96105
2.77755
0.00321554
0.386503
0.432044
0.0032161
0.0426675
0.0108027
3.23867
0.00329658
12.9856
0.00321724
0.00321397
7.40428
8.14381
0.00321746
1.15019
4.36699
0.100327
0.305658
9.7625
8.25769
0.0183353
9.6659
0.00835856
9.2806
0.072111
0.00321821
2.0562
2.42513
5.19816
0.00322399
0.00322246
0.0778486
0.00321464
8.96274
0.112476
0.00488986
0.00322289
0.00321504
0.00323427
1.59124
3.48956
2.43289
0.00331916
9.66594
5.94767
3.75028
6.11702
0.0170989
9.99796
10.1002
8.78296
0.00321872
0.00427553
3.77701
6.84484
3.97768
2.87541
0.00321483
0.0032625
8.95298
0.0118283
0.462205
0.00323544
0.00321657
0.125619
0.00335714
8.55031
0.19102
0.00321399
0.0890094
3.35588
7.99648
0.00435906
9.19618
0.00321557
0.00322075
12.9689
0.69984
9.0064
0.00442071
0.00324956
0.00767091
0.990207
8.93713
1.03362
6.90434
0.132671
4.79055
0.14065
1.8125
1.95433
4.3533
0.875307
11.9376
0.00325203
0.0294073
0.00321704
0.00322207
8.1339
0.00700635
0.00746459
0.00325398
0.015804
2.02141
11.0091
0.0239956
7.88803
0.449933
0.991354
0.00321927
0.36235
1.08684
0.389493
0.00409098
5.52415
2.95019
0.178688
0.0109355
5.34048
0.799077
0.722146
2.43281
0.00367147
0.00321455
0.00343897
0.0116862
8.77342
0.00322953
0.00329921
0.00322136
0.422673
11.824
10.7887
8.67044
0.151663
0.801531
7.07289
0.00433771
8.98777
8.97453
0.00321563
8.07816
0.00321915
4.79296
0.420494
8.63307
0.00405624
0.0032161
1.30905
1.42836
0.00323703
0.00321838
0.00322717
0.00324796
0.330278
2.46249
1.07551
0.0152433
0.00323887
0.0032176
0.00321388
2.20971
1.29407
0.00356815
0.680283
0.0642469
0.069217
0.00321436
0.312698
0.00323897
0.171177
2.83293
6.7621
0.0757495
0.00323628
0.00368886
1.99206
0.0636601
3.5289
6.70083
0.00334891
0.00321525
0.00321904
3.0115
0.00323291
7.2656
0.00321764
1.8832
0.387959
0.02933
8.05732
4.73585
0.00364126
8.22604
7.22445
3.3765
11.9561
0.276547
8.27829
10.585
11.4414
5.24676
1.89858
3.07488
0.0512007
7.72497
5.85509
7.16384
11.3623
0.00370073
9.55395
8.29988
4.34736
0.0192422
0.00332252
0.00321532
0.00326409
0.132614
0.367731
4.50049
0.0367731
0.00322631
4.41016
0.00321523
9.96869
0.525896
3.93187
9.28544
0.64631
0.00350912
0.00343227
0.305155
11.9773
0.00470541
0.813661
8.75786
8.29963
2.20276
9.25885
8.22462
0.00325134
5.65084
4.94009
3.48581
0.00322152
6.6693
4.54572
0.00324233
11.0133
0.00322424
7.33929
13.5626
10.2063
1.74475
8.15103
3.59992
0.00329728
3.35812
0.00338576
10.193
2.22987
8.96203
5.56586
0.303288
0.194989
0.554304
0.00341958
3.87666
1.05478
0.00672412
0.00378817
6.88226
0.00338487
2.32033
0.00321978
0.00323033
0.00595798
2.10932
0.0281188
0.492419
0.00324423
1.71199
0.0720532
8.04637
4.16059
0.789493
7.64351
0.00339369
5.43567
1.63017
0.00321396
2.19177
0.559679
0.0032154
0.00321409
5.30938
0.00682096
7.44507
0.260188
10.7882
0.0203936
0.136276
0.887932
12.4373
0.701484
10.5081
1.70646
0.00366695
0.0364577
7.64934
4.38594
6.47864
7.93201
8.29719
0.0196859
3.26536
3.30744
0.485461
3.29895
1.24146
0.565335
0.00341776
2.22667
8.06493
0.00363792
9.36891
1.18354
1.31037
0.0103019
0.0197417
10.2351
0.00347884
6.5029
0.00353695
0.413293
0.00323117
0.962926
3.63158
0.155965
0.00356435
0.00374211
12.2375
9.84209
0.00323413
1.62938
8.65664
3.63669
0.00379507
0.723246
9.78937
13.1889
9.75344
3.82762
9.18604
13.9421
1.75937
0.00329514
0.00381558
5.94124
3.10415
7.1212
3.57893
0.00388371
7.63848
12.8964
0.00338136
3.26784
10.5271
0.276724
0.0213207
12.0861
2.7362
0.189251
3.05553
0.0052181
0.00321551
0.00321573
4.17097
9.26946
7.45961
0.00321726
0.0032341
0.00321412
9.47233
0.0268166
0.00321548
0.0330462
12.7489
7.49421
0.00500893
0.00514388
0.00321379
0.00322947
0.00345388
2.00525
3.52406
3.9603
0.478808
8.27279
6.32219
0.00516536
9.12679
8.61305
9.53071
1.60119
7.55086
0.00339159
0.00468666
0.00321881
3.86378
0.061761
0.00321684
0.771283
0.0525524
6.46856
0.00323639
8.48813
0.385704
0.0360009
4.39475
0.00321731
0.00321463
0.00328584
7.94719
1.80416
3.00993
6.04619
4.70151
7.86095
0.00321409
0.00389849
0.35663
0.00326095
0.015555
3.71936
8.28473
0.00321898
2.11971
9.05592
5.52873
7.95603
0.00476916
7.83689
0.00370728
0.0156405
10.3687
0.00321599
2.83615
0.00323887
0.00324271
0.0220758
11.5057
0.472428
3.74628
3.237
0.0032577
8.92226
3.83586
0.00322681
1.17397
0.0197279
0.00323344
0.00322473
0.00637541
2.67862
0.769814
0.00339543
7.59658
9.47785
5.05011
0.00321633
9.28289
0.00424539
0.92799
0.433175
0.029512
7.68665
7.59429
3.62274
3.63725
0.00327983
0.00321412
0.00438942
10.3281
4.33122
0.442702
0.00597948
0.00322127
0.00321858
0.00423742
0.00321389
0.00414281
8.99606
3.08256
0.0132326
9.90123
4.80672
0.00324912
9.52537
0.00323598
0.393869
0.00324424
0.0171389
6.73834
0.0124551
0.00321643
0.32413
8.42815
8.76126
0.00323537
0.00321616
0.112755
0.00321456
0.00321578
8.54015
0.00331406
7.86917
8.13456
1.46482
3.29402
3.74774
5.21214
6.55754
0.00321687
0.00707258
0.0159345
4.37833
3.00489
7.07769
0.0972575
1.29635
8.4011
9.11662
6.87067
0.00331931
5.72219
0.00321945
0.0835031
10.341
1.55224
4.82957
3.97506
1.37882
1.89361
0.108811
0.00679685
10.6489
0.00321865
13.0248
0.00325428
0.369971
5.75263
3.69355
0.151532
0.00567599
0.772836
0.00322757
0.00321801
0.0289276
0.00875366
10.0668
0.00564764
9.15178
0.00321809
0.011503
0.00321707
1.91668
0.00388915
9.01848
3.75092
0.00771535
3.69133
8.38731
0.00322322
3.52806
8.4733
0.00336119
5.60316
0.227548
0.00345585
0.0032192
8.85367
0.00321549
0.00342624
0.0283194
0.0995317
7.46688
5.76689
0.0032219
0.00322075
0.0283477
0.851697
0.00615476
0.00715155
1.2681
0.00321499
0.00337978
0.00322089
3.44665
5.27995
0.466558
9.13651
0.00948096
10.2531
0.00336139
0.00720933
0.00918218
0.0345494
0.00322089
9.35726
0.00321509
0.0146294
0.00322631
0.00322657
0.00778449
0.00321478
0.45161
0.688288
10.9261
0.471817
1.01316
8.45788
5.80275
0.00332407
13.4623
7.62284
1.15006
1.56064
0.00326524
4.34063
3.93529
0.00321463
7.94351
8.61063
0.00322328
0.00321333
3.09953
3.19156
0.00338614
6.97672
7.87112
0.623259
7.67521
8.06066
2.87075
9.22332
5.09029
3.00925
6.69693
8.1468
0.00773986
8.85414
3.74171
4.33217
0.00335269
0.341716
0.638556
4.29288
5.16497
0.0110461
3.85037
3.72047
1.83476
0.0449706
0.357276
8.22184
0.00384392
8.39979
7.18543
0.0417506
4.20978
0.830795
1.92248
4.21662
0.00322437
0.00538294
0.419667
0.720244
0.0175586
0.0032163
0.149818
0.353074
0.00383813
0.00323627
4.11462
0.328462
2.09492
1.03646
0.00468695
0.00340724
0.00333076
6.2083
0.00327987
0.498127
10.7597
0.342337
3.65684
0.00352422
0.104133
0.00321767
0.00321428
1.82451
0.00321341
0.0975235
8.39524
8.98719
0.141696
2.68269
0.572879
0.0423709
0.00366162
0.718551
8.58998
0.00321844
0.00321872
3.3002
0.0130596
0.00323445
1.67914
0.00456256
3.68654
9.25294
2.57161
0.0395486
1.22648
5.769
7.40229
7.23069
0.00323749
8.92989
0.00325882
8.84051
0.00341606
0.00322134
8.69654
0.00695835
4.92332
0.0209848
0.0174339
2.86965
0.772546
0.084082
0.00332802
5.43083
0.00331843
0.00321819
8.18325
4.14717
1.67443
10.3604
0.0032544
0.00321326
1.13982
3.45158
0.00321451
8.65495
2.55674
0.00322406
3.24219
0.00321733
0.680905
0.893026
0.845131
0.0832371
3.28552
1.69706
0.00321694
6.45288
8.75986
0.00321445
0.0170039
8.69274
0.0032189
4.53901
13.8818
3.9981
0.0032149
0.00321613
6.4965
0.080186
0.00340614
2.02413
3.3848
6.12409
0.00321369
0.00333776
0.0127143
0.0251367
0.00321504
0.00670947
2.52992
9.24764
0.00322309
0.43615
0.00321528
1.23595
0.00414917
0.00331319
0.827584
0.00321582
0.301383
0.00321564
2.5624
0.752646
0.78111
3.53683
4.14824
10.7526
0.270793
1.9093
0.00323617
0.41315
5.78388
3.64529
0.041808
0.00329019
2.93866
0.00321524
0.11025
0.00321791
7.40383
1.70843
0.585584
6.58935
2.97886
0.774945
1.66029
0.786513
4.19748
2.79818
0.00323534
0.0033111
0.00401534
0.00324031
0.00806396
6.2139
0.00374599
8.00723
0.00367449
0.0162136
0.172948
13.6936
0.00502102
0.945545
0.0176151
5.9848
0.868806
7.22412
0.00340564
0.00383083
0.00323725
2.6591
3.43466
1.95955
0.0973287
0.00500563
1.78553
0.056246
3.42975
0.00324234
7.7107
0.0032192
4.3322
0.182096
2.05941
0.00323577
2.03831
1.5504
0.00321437
3.38674
1.08994
0.0194995
0.00322511
0.00321521
11.137
2.02755
0.997397
0.00321439
0.00688678
9.22157
3.5856
0.00340702
0.00558168
0.0032148
5.99826
3.54659
8.29635
0.898558
0.00321415
13.2395
7.61456
0.0032179
0.00321713
1.55134
0.00321564
0.00635574
0.00357088
2.92733
0.00413312
8.66449
7.06586
0.00326174
0.00341389
0.0032138
0.00322814
1.4755
3.82242
8.29353
0.0150501
0.828847
8.56065
0.105501
0.914811
0.00344307
7.85386
0.225896
10.0444
0.696367
3.36383
12.0175
0.00321537
0.00323678
3.21867
10.4895
6.44628
0.367786
10.9499
0.172675
7.33252
0.00715157
0.00363741
9.37999
3.41866
0.0387803
0.0107846
0.00322795
0.0261451
0.808251
0.0273657
1.23161
0.0032363
3.85755
11.7682
0.447304
9.81729
2.78447
8.18373
0.604721
9.09159
5.53693
0.599251
1.69078
0.00321643
1.99917
1.80253
0.00321535
0.00321943
0.374824
0.00321867
0.00335053
8.48003
4.10453
0.00322922
6.00226
0.00321426
0.00321741
0.00321516
0.00329991
0.00500619
10.8313
4.17283
5.04673
0.0032298
0.00321648
0.323025
0.00328339
0.0404102
0.00324439
0.00322385
12.0234
0.00347009
0.00508806
3.78539
0.00723885
0.00321679
8.99876
0.00321728
0.00323444
0.00321711
0.00327886
0.00342475
0.0046222
0.0096459
0.00321637
0.00325845
6.61895
7.83063
2.47214
0.029246
10.7823
0.411871
0.00481339
9.82286
4.56425
4.42964
3.87963
0.00321831
6.88098
2.65831
0.0634943
8.35397
8.64433
0.154958
11.102
0.00321351
7.94868
0.0119708
0.903326
0.00323192
7.4703
0.00326133
7.96505
0.855125
0.00321587
0.201185
0.00439796
0.00329441
0.00322852
0.480562
0.00333609
0.00325554
10.8187
0.0032134
0.0515013
4.32359
3.65495
0.00346141
0.00384149
0.858279
5.92569
0.00321507
0.00323138
0.0882874
1.89933
2.91489
0.00620238
0.598433
0.00322148
0.00326921
0.00321416
0.0118066
2.16566
0.0119157
10.1248
10.9678
5.75439
4.7115
0.00327669
8.95636
1.47057
0.00321457
0.00322866
0.00322609
0.0033672
0.0032192
12.9126
0.00321609
0.00321871
8.00372
0.0828457
0.00452557
0.00345096
10.3467
0.894587
0.00479404
0.00330837
4.01019
0.00324419
0.00878573
0.00327735
0.00329811
4.11248
7.57652
0.00439816
0.00351907
0.414327
0.00321536
7.7254
0.0032714
6.35676
0.0271984
0.934856
0.00321835
0.531891
0.00321542
2.20368
0.00324059
0.00329901
0.00568284
4.20027
0.135491
6.37508
0.0032154
0.00463125
0.00374678
5.67537
2.6084
3.78907
0.00654749
0.00996053
0.175633
0.00321983
4.19488
1.83905
0.00686389
9.91581
3.41626
5.80271
0.00436838
0.133733
3.8668
6.21809
8.63806
0.0186764
10.4464
0.0509983
5.53301
0.0267761
0.198471
3.62769
0.00324329
9.11232
0.00337944
0.00717018
0.00321853
0.0236869
0.00333316
1.0443
0.00323498
8.01404
0.0773381
0.00322696
0.00323273
0.00323501
0.126976
0.0312116
8.32826
0.464435
10.8766
0.0587248
0.00321636
0.00321377