/*--------------------------------*- C++ -*----------------------------------*\
| =========                 |                                                 |
| \\      /  F ield         | OpenFOAM: The Open Source CFD Toolbox           |
|  \\    /   O peration     | Version:  2.3.1                                 |
|   \\  /    A nd           | Web:      www.OpenFOAM.org                      |
|    \\/     M anipulation  |                                                 |
\*---------------------------------------------------------------------------*/
FoamFile
{
    version     2.0;
    format      ascii;
    class       volScalarField;
    location    "0.05";
    object      nut;
}
// * * * * * * * * * * * * * * * * * * * * * * * * * * * * * * * * * * * * * //

dimensions      [0 2 -1 0 0 0 0];

internalField   nonuniform List<scalar> 
9648
(
0.00027937
0.000272664
0.000270173
0.000268194
0.000266696
0.00026554
0.000264648
0.000263924
0.000263273
0.000262604
0.000261869
0.000261058
0.000260136
0.000259073
0.000257888
0.000256593
0.000255182
0.000253647
0.000252009
0.000250297
0.000248515
0.000246681
0.000244819
0.000242936
0.000241044
0.000239169
0.000237328
0.00023553
0.000233781
0.000232098
0.000230483
0.000228945
0.000227489
0.000226124
0.000224846
0.000223664
0.000222583
0.000221601
0.000220707
0.000219904
0.000219203
0.000218594
0.000218072
0.000217646
0.000217299
0.000217023
0.000216826
0.000216718
0.000216685
0.000216707
0.000216794
0.00021696
0.000217178
0.000217448
0.000217782
0.000218183
0.000218634
0.000219106
0.000219636
0.000220246
0.000220938
0.00117095
0.00109215
0.00101541
0.000944362
0.000884973
0.000839788
0.000808257
0.000789183
0.000779881
0.000778136
0.000781872
0.000789727
0.000800547
0.000813626
0.000828474
0.000844904
0.000862687
0.000881547
0.000901312
0.000922006
0.000943456
0.000965604
0.000988456
0.0010119
0.00103581
0.00106017
0.001085
0.0011102
0.00113565
0.00116132
0.00118722
0.00121323
0.00123928
0.00126544
0.0012916
0.00131768
0.00134374
0.00136977
0.0013957
0.00142138
0.00144686
0.0014722
0.0014973
0.00152207
0.00154661
0.00157067
0.00159424
0.00161744
0.0016403
0.00166261
0.00168448
0.00170573
0.00172647
0.00174625
0.00176551
0.00178397
0.00180202
0.00181874
0.00183455
0.0018496
0.001864
0.00296993
0.00276649
0.00255708
0.00235511
0.00217491
0.0020283
0.00191821
0.0018453
0.00180354
0.00178755
0.00178965
0.00180514
0.00182984
0.00186094
0.00189645
0.00193501
0.00197579
0.00201802
0.00206125
0.00210518
0.00214955
0.00219427
0.00223914
0.00228407
0.00232899
0.00237385
0.00241868
0.00246331
0.00250776
0.00255198
0.0025959
0.00263954
0.00268294
0.002726
0.00276869
0.00281108
0.00285307
0.00289475
0.00293601
0.00297684
0.00301722
0.00305704
0.00309644
0.00313531
0.00317356
0.00321113
0.00324794
0.0032841
0.00331937
0.0033538
0.00338733
0.00341992
0.00345195
0.00348218
0.00351233
0.00354051
0.00356813
0.00359304
0.00361765
0.00364116
0.00366372
0.00536789
0.0050129
0.00463824
0.00426309
0.00391208
0.00360837
0.00336676
0.00319227
0.00307973
0.00301917
0.00299746
0.00300394
0.00302958
0.0030684
0.00311578
0.00316876
0.0032253
0.00328394
0.00334375
0.00340406
0.00346445
0.00352452
0.0035841
0.00364307
0.00370139
0.00375899
0.00381589
0.00387205
0.0039275
0.00398217
0.0040362
0.0040896
0.00414237
0.00419465
0.00424636
0.00429759
0.00434831
0.00439857
0.00444833
0.00449758
0.0045463
0.00459447
0.00464203
0.00468903
0.00473535
0.00478094
0.00482577
0.00486983
0.0049129
0.00495497
0.00499635
0.00503616
0.00507494
0.0051122
0.00514917
0.00518437
0.00521788
0.00524976
0.00528031
0.00530951
0.00533667
0.00805107
0.00753579
0.00698194
0.00641556
0.0058701
0.00538153
0.00497767
0.00467168
0.00446192
0.00433544
0.0042739
0.00425975
0.00427861
0.0043198
0.00437546
0.00444026
0.00451056
0.00458405
0.00465906
0.00473455
0.0048097
0.00488396
0.00495694
0.00502844
0.00509844
0.00516695
0.00523392
0.00529941
0.00536344
0.00542608
0.0054874
0.0055475
0.00560656
0.00566461
0.00572172
0.00577805
0.00583363
0.00588843
0.00594249
0.00599577
0.00604831
0.00610003
0.00615099
0.00620112
0.00625038
0.00629872
0.00634602
0.00639229
0.00643763
0.00648151
0.00652438
0.00656593
0.00660574
0.00664397
0.00668095
0.00671676
0.0067505
0.00678263
0.00681321
0.00684181
0.00686836
0.010848
0.0101752
0.00944304
0.00868421
0.00794051
0.00725818
0.00667784
0.00622372
0.00589938
0.005692
0.00557895
0.00553616
0.00554299
0.00558331
0.00564558
0.00572172
0.00580581
0.00589457
0.00598523
0.00607627
0.00616658
0.00625521
0.00634164
0.00642537
0.00650641
0.00658477
0.00666054
0.00673376
0.0068044
0.00687264
0.00693864
0.00700238
0.0070642
0.00712425
0.0071826
0.00723947
0.00729511
0.00734953
0.00740277
0.0074548
0.00750551
0.00755502
0.00760334
0.00765044
0.0076963
0.00774098
0.00778462
0.00782638
0.00786697
0.00790615
0.00794372
0.00797978
0.00801413
0.00804645
0.00807739
0.00810626
0.00813333
0.00815885
0.00818251
0.0082037
0.00822334
0.0136843
0.0128642
0.0119651
0.0110234
0.0100879
0.00921316
0.0084517
0.00783948
0.00738778
0.00708672
0.00691145
0.00683224
0.00682174
0.00685804
0.0069256
0.00701265
0.00711109
0.00721597
0.00732319
0.00743055
0.00753683
0.00764057
0.00774109
0.00783723
0.00792893
0.00801639
0.00809966
0.00817911
0.00825432
0.00832578
0.00839374
0.00845781
0.0085185
0.00857624
0.00863096
0.00868302
0.00873297
0.00878082
0.00882705
0.00887149
0.0089138
0.00895417
0.00899275
0.00902956
0.00906425
0.00909728
0.00912879
0.00915843
0.0091865
0.00921269
0.00923711
0.00925963
0.00927986
0.00929813
0.00931418
0.00932862
0.00934108
0.00935123
0.00935919
0.00936521
0.00936944
0.0165331
0.0155821
0.0145329
0.0134243
0.0123099
0.0112482
0.0103052
0.0095283
0.00893712
0.00852958
0.00828014
0.00815549
0.00812117
0.0081486
0.00821824
0.0083151
0.00842805
0.00855029
0.00867537
0.00879933
0.00892199
0.0090414
0.00915734
0.00926719
0.00936928
0.009465
0.00955452
0.00963856
0.00971609
0.00978812
0.0098557
0.00991696
0.00997214
0.0100227
0.0100688
0.0101102
0.0101472
0.0101807
0.0102125
0.0102422
0.0102687
0.0102923
0.010313
0.0103313
0.0103459
0.0103583
0.010368
0.0103753
0.0103806
0.0103841
0.0103852
0.0103848
0.0103822
0.0103762
0.0103681
0.0103587
0.0103466
0.0103325
0.0103149
0.0102953
0.0102744
0.0193933
0.018331
0.0171531
0.0158931
0.0146202
0.0133769
0.0122513
0.0113083
0.0105613
0.0100344
0.00969449
0.00951436
0.00944841
0.00946022
0.00952402
0.00962725
0.00975247
0.00989292
0.0100405
0.0101799
0.0103167
0.0104524
0.0105834
0.0107138
0.0108264
0.010929
0.0110241
0.0111112
0.011188
0.0112576
0.0113235
0.0113825
0.0114262
0.011463
0.0114969
0.0115257
0.0115393
0.0115473
0.0115555
0.011564
0.0115681
0.0115678
0.0115629
0.0115573
0.0115412
0.0115261
0.0115015
0.0114772
0.0114459
0.0114163
0.0113796
0.011345
0.0113118
0.0112706
0.0112255
0.0111843
0.0111396
0.0110936
0.01104
0.0109823
0.0109276
0.000221651
0.000222385
0.000223211
0.00022413
0.000225126
0.000226177
0.000227322
0.000228534
0.00022977
0.000231028
0.000232282
0.000233581
0.000234904
0.000236233
0.000237582
0.000238972
0.000240389
0.000241813
0.00024325
0.000244724
0.00024622
0.000247738
0.000249298
0.000250879
0.000252469
0.000254086
0.000255739
0.000257426
0.000259133
0.00026087
0.000262639
0.000264436
0.000266263
0.000268132
0.000270031
0.00027197
0.000273954
0.000275986
0.000278051
0.000280153
0.000282309
0.000284513
0.000286762
0.000289068
0.000291418
0.000293796
0.00029622
0.000298708
0.000301245
0.000303805
0.000306402
0.00030906
0.000311742
0.000314447
0.000317194
0.000319988
0.000322813
0.000325629
0.000328495
0.000331442
0.000334474
0.00187781
0.00188915
0.00189967
0.00190951
0.00191846
0.00192598
0.00193142
0.00193578
0.00193881
0.00194172
0.00194339
0.00194456
0.00194511
0.00194498
0.00194417
0.0019426
0.00194039
0.00193746
0.00193385
0.00192958
0.00192469
0.00191928
0.00191322
0.00190655
0.00189925
0.00189134
0.00188286
0.00187374
0.00186408
0.00185381
0.00184293
0.00183154
0.00181964
0.0018072
0.00179428
0.00178094
0.00176714
0.00175297
0.00173842
0.00172353
0.00170833
0.00169282
0.00167712
0.00166121
0.00164507
0.00162868
0.00161203
0.00159517
0.00157802
0.00156061
0.00154292
0.00152491
0.00150657
0.00148743
0.0014681
0.00144786
0.0014272
0.00140566
0.00138431
0.00136296
0.00134166
0.00368406
0.00370308
0.0037199
0.00373556
0.00374998
0.00376412
0.00377522
0.00378479
0.00379259
0.00379998
0.00380606
0.00381131
0.00381519
0.00381833
0.00382044
0.00382155
0.0038217
0.00382087
0.00381908
0.00381632
0.00381273
0.00380822
0.00380288
0.00379675
0.00378979
0.00378198
0.00377336
0.0037639
0.00375363
0.00374245
0.00373051
0.00371774
0.00370417
0.00368994
0.00367497
0.00365939
0.00364317
0.00362641
0.00360912
0.00359139
0.0035733
0.00355492
0.00353631
0.0035176
0.0034987
0.00347964
0.00346031
0.00344074
0.00342082
0.00340058
0.00338004
0.0033587
0.00333672
0.00331364
0.00328979
0.00326411
0.00323683
0.00320803
0.00317857
0.00314837
0.00311752
0.00536246
0.00538615
0.00540827
0.00542821
0.00544675
0.00546403
0.0054787
0.00549139
0.00550286
0.00551321
0.00552214
0.00552946
0.0055355
0.00554059
0.00554427
0.00554686
0.00554831
0.00554861
0.00554777
0.00554585
0.00554287
0.00553893
0.00553399
0.00552817
0.00552142
0.00551376
0.00550513
0.00549557
0.00548511
0.00547371
0.0054613
0.00544793
0.00543364
0.00541847
0.00540251
0.00538584
0.00536848
0.00535046
0.0053319
0.0053129
0.00529363
0.00527416
0.00525472
0.00523541
0.00521628
0.00519731
0.00517837
0.00515946
0.00514053
0.00512149
0.00510236
0.00508278
0.00506256
0.00504136
0.00501911
0.00499496
0.00496871
0.00494066
0.00491157
0.00488126
0.00485029
0.00689275
0.00691554
0.0069362
0.00695454
0.00697034
0.00698432
0.00699578
0.00700582
0.00701404
0.00702099
0.00702625
0.00703005
0.00703265
0.00703391
0.00703401
0.00703314
0.00703069
0.00702719
0.00702253
0.00701677
0.00701004
0.00700243
0.00699399
0.00698478
0.00697476
0.00696394
0.00695236
0.00694
0.00692692
0.00691309
0.0068984
0.00688272
0.00686607
0.0068485
0.00683016
0.00681103
0.00679119
0.00677077
0.00674977
0.00672834
0.00670669
0.00668501
0.00666358
0.00664264
0.00662231
0.00660264
0.00658342
0.00656444
0.00654598
0.00652805
0.00651025
0.00649239
0.00647435
0.0064555
0.0064356
0.00641339
0.00638932
0.00636314
0.0063357
0.00630694
0.00627782
0.00824058
0.00825576
0.00826823
0.00827884
0.0082866
0.00829173
0.00829418
0.00829487
0.0082941
0.00829163
0.00828801
0.00828299
0.00827674
0.0082694
0.00826094
0.00825154
0.00824097
0.00822951
0.00821704
0.00820352
0.00818926
0.00817445
0.00815912
0.00814342
0.00812732
0.00811077
0.00809381
0.00807646
0.00805895
0.0080413
0.0080234
0.00800472
0.00798526
0.00796491
0.00794389
0.00792193
0.00789916
0.00787586
0.00785203
0.0078278
0.00780336
0.00777883
0.0077547
0.00773139
0.00770909
0.00768815
0.00766788
0.0076486
0.00763016
0.00761308
0.00759638
0.00757967
0.00756349
0.00754695
0.00752945
0.00750913
0.00748709
0.00746211
0.00743619
0.00740881
0.00738116
0.0093716
0.0093717
0.00936939
0.00936471
0.0093576
0.00934808
0.00933592
0.00932234
0.00930733
0.0092908
0.00927318
0.00925479
0.00923567
0.00921565
0.00919517
0.00917468
0.00915382
0.00913237
0.00911013
0.00908694
0.00906353
0.0090402
0.00901694
0.00899411
0.00897162
0.00894927
0.00892704
0.00890469
0.00888304
0.00886249
0.00884315
0.00882368
0.00880421
0.00878402
0.00876365
0.00874203
0.00871878
0.00869486
0.00867064
0.00864614
0.00862132
0.00859608
0.00857101
0.00854704
0.0085244
0.00850399
0.00848367
0.0084652
0.00844768
0.0084331
0.00841881
0.00840391
0.00839059
0.0083772
0.00836321
0.0083446
0.00832452
0.00830037
0.0082756
0.0082487
0.00822192
0.0102518
0.0102277
0.0102019
0.0101749
0.0101463
0.0101157
0.0100838
0.0100524
0.0100201
0.00998609
0.00995179
0.00991788
0.00988364
0.00984936
0.00981517
0.00978277
0.00975279
0.00972345
0.00969406
0.00966328
0.00963224
0.00960309
0.00957465
0.00954777
0.0095228
0.0094991
0.00947679
0.00945356
0.00943122
0.00941142
0.00939601
0.00938134
0.00936881
0.00935594
0.00934503
0.00933258
0.00931585
0.00929669
0.00927768
0.00925906
0.0092401
0.0092203
0.00919946
0.00917952
0.00916145
0.00914667
0.00912986
0.00911573
0.00910173
0.00909283
0.00908411
0.0090726
0.00906368
0.00905606
0.00904778
0.00903102
0.00901289
0.00898873
0.00896349
0.00893598
0.0089098
0.0108678
0.0108119
0.0107481
0.0106895
0.0106273
0.0105684
0.0105093
0.0104569
0.0104086
0.0103579
0.0103062
0.0102579
0.0102103
0.0101634
0.010116
0.0100703
0.010034
0.0100037
0.00997695
0.0099486
0.00991512
0.00988953
0.00986563
0.00984187
0.00982313
0.00980802
0.00979868
0.00978892
0.00977557
0.00976573
0.00976464
0.00976345
0.00976891
0.00977295
0.00978525
0.00979767
0.00980215
0.00979659
0.00979127
0.0097858
0.00977942
0.00977869
0.00976959
0.00976047
0.009755
0.00975539
0.00974893
0.00974522
0.00974022
0.00974004
0.0097392
0.00973331
0.00972692
0.0097307
0.00973134
0.00971683
0.00969978
0.00967557
0.00964315
0.00961239
0.00958873
0.000337499
0.00034053
0.000343663
0.000346823
0.000350073
0.000353833
0.000357595
0.000361131
0.000364691
0.000368255
0.00037182
0.00037543
0.000379058
0.000382685
0.000386329
0.000390009
0.000393705
0.000397388
0.000401063
0.000404748
0.000408419
0.000412075
0.000415728
0.000419356
0.000422941
0.000426493
0.000430015
0.000433497
0.00043692
0.000440286
0.000443588
0.000446818
0.000449964
0.000453032
0.000456002
0.000458873
0.000461642
0.000464309
0.000466834
0.000469202
0.000471426
0.000473465
0.000475153
0.000476502
0.00047751
0.000478172
0.000478507
0.00047854
0.000478242
0.000477566
0.000476517
0.000475106
0.000473248
0.00047092
0.0004681
0.000464754
0.000460786
0.000456079
0.000450617
0.000444336
0.000437114
0.00132032
0.00130018
0.00128196
0.00126348
0.00124525
0.00122414
0.00120289
0.00118259
0.00116331
0.00114453
0.00112627
0.00110842
0.00109093
0.00107372
0.00105672
0.00103991
0.00102316
0.00100646
0.000989791
0.000973197
0.000956716
0.000940283
0.00092392
0.000907634
0.000891434
0.000875359
0.000859392
0.000843589
0.000827942
0.000812466
0.000797206
0.000782183
0.00076738
0.000752828
0.000738563
0.00072457
0.000710909
0.000697585
0.000684642
0.00067211
0.000659992
0.000648343
0.000635598
0.00062194
0.000607867
0.000593888
0.000580669
0.000568055
0.000555958
0.000544446
0.0005336
0.000523525
0.000514165
0.000505701
0.000498177
0.00049175
0.000486385
0.000482289
0.000479654
0.000478685
0.000479594
0.00308623
0.00305657
0.00302677
0.00299946
0.00297331
0.00294636
0.00291848
0.00289049
0.00286331
0.0028366
0.00281017
0.00278366
0.00275733
0.0027311
0.00270478
0.00267825
0.00265122
0.00262365
0.00259548
0.00256686
0.0025377
0.00250796
0.0024776
0.00244663
0.00241504
0.00238289
0.0023502
0.00231702
0.0022833
0.00224919
0.00221461
0.00217958
0.00214415
0.00210823
0.00207186
0.002035
0.0019977
0.00195991
0.00192163
0.00188286
0.00184361
0.00180382
0.00176302
0.00172079
0.00167405
0.00161904
0.00156182
0.00150225
0.0014409
0.00137824
0.00131472
0.00125103
0.00118661
0.0011236
0.00106098
0.00100036
0.000941132
0.000885374
0.000833126
0.000785149
0.000741948
0.00481868
0.0047888
0.00475889
0.00473258
0.00470762
0.00468284
0.00465736
0.00463203
0.00460741
0.00458345
0.00455942
0.00453531
0.00451129
0.00448731
0.00446316
0.0044385
0.00441288
0.00438625
0.00435866
0.00433017
0.00430079
0.00427027
0.00423863
0.00420588
0.00417204
0.00413716
0.00410133
0.00406461
0.00402695
0.00398835
0.00394882
0.00390832
0.00386676
0.00382409
0.00378029
0.00373529
0.00368903
0.00364152
0.00359269
0.0035425
0.00349083
0.0034377
0.00338288
0.00332614
0.0032665
0.00320154
0.00312551
0.00304259
0.00295283
0.00285671
0.00275333
0.00264388
0.00252772
0.00240671
0.00227941
0.00214701
0.00201036
0.0018711
0.00173081
0.0015908
0.00145416
0.00624749
0.00621884
0.00619131
0.00616741
0.00614443
0.00612229
0.00610021
0.00607882
0.00605823
0.00603857
0.00601846
0.00599817
0.0059778
0.00595775
0.00593759
0.00591643
0.00589377
0.0058698
0.00584462
0.00581844
0.00579118
0.00576251
0.00573252
0.00570139
0.00566915
0.00563605
0.00560209
0.00556733
0.00553165
0.00549504
0.00545736
0.00541856
0.00537852
0.00533715
0.00529438
0.0052502
0.00520458
0.00515745
0.00510871
0.00505832
0.00500622
0.00495236
0.00489664
0.00483886
0.00477868
0.00471549
0.00464651
0.00456662
0.00447859
0.00438254
0.00427746
0.00416252
0.00403735
0.00390181
0.00375513
0.00359542
0.00342336
0.00323886
0.00304136
0.00283182
0.00261233
0.00735121
0.00732339
0.00729758
0.00727579
0.00725424
0.00723381
0.00721358
0.007195
0.00717741
0.00716141
0.00714394
0.00712575
0.00710717
0.00708934
0.00707099
0.00705134
0.0070292
0.00700567
0.00698077
0.00695502
0.00692832
0.0069
0.00687076
0.00684106
0.00681085
0.00678049
0.00674984
0.00671892
0.00668734
0.00665509
0.00662183
0.00658753
0.00655203
0.00651536
0.0064774
0.00643827
0.0063979
0.00635627
0.00631324
0.00626883
0.00622295
0.00617567
0.00612693
0.00607651
0.00602427
0.00596992
0.0059121
0.00584707
0.00577332
0.00569141
0.00560086
0.00550046
0.00538917
0.00526669
0.00513099
0.0049813
0.00481618
0.00463345
0.00443118
0.00420905
0.00396478
0.00819048
0.00816203
0.00813689
0.0081168
0.00809492
0.00807471
0.00805442
0.00803674
0.00802016
0.00800583
0.00798739
0.00796743
0.00794647
0.00792721
0.00790634
0.00788352
0.00785616
0.00782775
0.00779795
0.00776805
0.0077378
0.0077058
0.00767436
0.00764425
0.00761462
0.00758611
0.00755788
0.00753033
0.00750214
0.0074735
0.00744362
0.00741304
0.00738139
0.00734921
0.00731623
0.00728286
0.00724881
0.00721419
0.00717882
0.007143
0.0071067
0.00707011
0.00703336
0.00699612
0.00695807
0.0069187
0.006877
0.00683159
0.00677778
0.00671655
0.00664714
0.00656877
0.00648114
0.00638272
0.00627277
0.00614958
0.00601122
0.00585607
0.00568149
0.00548454
0.0052622
0.00887418
0.00884221
0.00881644
0.0087975
0.00877298
0.00875103
0.00872907
0.00870953
0.00869061
0.00867418
0.00864875
0.0086206
0.00859106
0.00856443
0.00853289
0.00849841
0.00845587
0.00841377
0.00837091
0.00833002
0.0082905
0.00824894
0.00821113
0.00817809
0.00814597
0.00811611
0.00808666
0.00805924
0.00802967
0.0079994
0.00796656
0.00793439
0.0079013
0.00786946
0.00783742
0.00780662
0.00777542
0.00774524
0.00771552
0.00768774
0.00766156
0.00763755
0.00761557
0.00759527
0.00757538
0.00755488
0.00753255
0.00750691
0.00747667
0.00743841
0.00739334
0.0073411
0.00728175
0.00721406
0.00713713
0.00704945
0.0069498
0.00683515
0.00670349
0.00655172
0.00637643
0.00954398
0.00950348
0.00947637
0.00945969
0.00942788
0.00940232
0.0093809
0.00935558
0.00932809
0.00930216
0.00926228
0.00921787
0.00917308
0.00913051
0.00907447
0.00901446
0.00894279
0.00887405
0.00880945
0.00875362
0.00870029
0.00864477
0.0085949
0.00855565
0.00851677
0.00847669
0.00844086
0.00840591
0.0083634
0.00831712
0.00826774
0.00822412
0.00817858
0.00813819
0.00809743
0.00805994
0.00802111
0.00798815
0.00795834
0.00793581
0.00791819
0.00790573
0.00789945
0.00789689
0.00789486
0.00789113
0.00788332
0.00787073
0.00786065
0.00784485
0.00782744
0.00780613
0.00778506
0.00775651
0.00772158
0.00768064
0.00763014
0.00756693
0.007489
0.0073961
0.00728093
0.000428689
0.000418866
0.000407539
0.000394379
0.000378275
0.000351925
0.000336872
0.000331143
0.000330907
0.000332855
0.000332628
0.000330437
0.000327342
0.000323601
0.000319594
0.000315575
0.0003116
0.000307746
0.000304107
0.000300766
0.000297773
0.000295177
0.000293019
0.000291303
0.000290024
0.000289197
0.000288819
0.000288881
0.000289354
0.000290223
0.00029145
0.000292993
0.000294802
0.000296834
0.000299034
0.000301315
0.000303592
0.000305808
0.000307889
0.000309803
0.000311515
0.000312998
0.000314226
0.000315197
0.000315875
0.000316233
0.000316265
0.000315982
0.00031534
0.000314308
0.00031287
0.000311038
0.000308731
0.000305963
0.000302762
0.000299184
0.00029531
0.000291163
0.000286849
0.000282784
0.000279561
0.00048251
0.000487884
0.000496148
0.000507752
0.000521471
0.000543469
0.000581041
0.000639969
0.00073524
0.000911689
0.00106204
0.00117074
0.00126371
0.00133354
0.00137972
0.00141316
0.00143402
0.00144414
0.00144613
0.00144126
0.00143115
0.00141726
0.00140099
0.00138393
0.00136731
0.00135256
0.00134152
0.00133588
0.00133698
0.00134576
0.00136254
0.00138657
0.00141633
0.00144982
0.00148472
0.00152345
0.00156288
0.00160184
0.00163898
0.00167331
0.00170412
0.00173094
0.00175358
0.00177189
0.00178578
0.00179524
0.00180024
0.00180082
0.00179682
0.00178824
0.00177494
0.00175674
0.00173318
0.00170332
0.00166686
0.0016214
0.00156524
0.00149603
0.00141816
0.00133797
0.00125405
0.000704707
0.000674051
0.000651087
0.000636585
0.000630801
0.000636066
0.000658157
0.000703492
0.000784138
0.000931271
0.0011346
0.00136535
0.00163171
0.00188069
0.00206739
0.00223428
0.00237739
0.00249173
0.00258507
0.00265764
0.00271151
0.00274964
0.00277408
0.00278779
0.00279388
0.00279596
0.00279835
0.00280563
0.0028224
0.00285247
0.00289832
0.00296052
0.00303755
0.0031258
0.00322176
0.00332368
0.0034314
0.00353973
0.00364557
0.00374639
0.00384015
0.00392532
0.00400092
0.00406643
0.00412139
0.00416559
0.00419884
0.00422092
0.0042316
0.00423074
0.00421827
0.00419313
0.00415488
0.00410221
0.004034
0.00394635
0.00383588
0.00370001
0.00353995
0.00336006
0.00316576
0.00132318
0.00120139
0.00109125
0.000995756
0.000916861
0.000857304
0.000821368
0.000813018
0.000838265
0.000912145
0.00104896
0.00125269
0.00152812
0.00185229
0.00217594
0.00251312
0.00281819
0.00306878
0.00329613
0.00349115
0.00365693
0.00379824
0.00391527
0.00401169
0.00409079
0.0041565
0.00421418
0.00427018
0.00433166
0.00440535
0.00449731
0.00461121
0.00474727
0.00490272
0.00507329
0.00525464
0.00544683
0.00564324
0.00583847
0.00602808
0.00620842
0.00637656
0.00653056
0.00666898
0.00679085
0.00689541
0.00698203
0.00705001
0.00709881
0.00712807
0.00713749
0.00712574
0.00709135
0.00703299
0.00694842
0.00683324
0.00668261
0.00649347
0.00626417
0.00599513
0.00569115
0.00238639
0.00215777
0.00193242
0.00171746
0.00152052
0.00134916
0.00121053
0.0011095
0.00104825
0.00103192
0.00107045
0.00117529
0.00135965
0.00162922
0.00196596
0.00235342
0.00275702
0.00314594
0.00354428
0.00387488
0.00416712
0.0044322
0.00466312
0.00486843
0.00505084
0.00521364
0.00536193
0.0055015
0.00564006
0.00578543
0.00594598
0.00612891
0.00633766
0.00657136
0.00682674
0.0070993
0.00738414
0.00767997
0.00797807
0.00827191
0.00855611
0.00882619
0.00907881
0.00931144
0.0095221
0.0097092
0.00987121
0.0100064
0.0101144
0.0101942
0.0102448
0.0102647
0.0102512
0.0102022
0.0101144
0.00998225
0.00980079
0.00956549
0.00927171
0.00891739
0.00850503
0.00369907
0.00341281
0.00311084
0.00279878
0.00248775
0.00219126
0.00192329
0.00169514
0.00151381
0.00138236
0.00130565
0.00129101
0.00134897
0.00149198
0.00172634
0.00205189
0.00245264
0.00289682
0.00336336
0.00381246
0.004249
0.00465956
0.00500816
0.00532999
0.00562278
0.00589289
0.00614662
0.00638778
0.00662398
0.00686208
0.00711076
0.00737957
0.00767496
0.00799837
0.00834808
0.00872014
0.00910837
0.00951269
0.00992435
0.0103352
0.0107381
0.0111266
0.0114959
0.0118419
0.0121613
0.0124514
0.0127094
0.0129325
0.0131193
0.0132681
0.0133774
0.0134446
0.0134667
0.0134405
0.0133607
0.0132217
0.0130171
0.0127402
0.0123857
0.0119493
0.0114303
0.00501186
0.00473117
0.00441955
0.00407888
0.00371492
0.00333837
0.00296596
0.00261547
0.00230157
0.00203528
0.00182344
0.00167293
0.00159129
0.00158817
0.00167392
0.00185798
0.0021445
0.00252543
0.00298184
0.00347775
0.00398512
0.00448381
0.00495396
0.00542205
0.0058274
0.00620467
0.00656369
0.00690521
0.0072407
0.00757492
0.00791656
0.00827745
0.00866618
0.009086
0.00953661
0.0100157
0.0105176
0.0110383
0.0115735
0.0121135
0.0126493
0.0131724
0.013676
0.0141547
0.014603
0.0150169
0.0153913
0.0157226
0.0160078
0.0162445
0.0164298
0.0165605
0.0166327
0.0166418
0.0165822
0.0164474
0.0162293
0.015921
0.0155139
0.0150028
0.0143852
0.00617382
0.00593979
0.00567012
0.00536241
0.00501566
0.00463434
0.00422738
0.00381024
0.0034001
0.0030145
0.00266837
0.00237418
0.00214221
0.00198305
0.00190695
0.00192378
0.00204335
0.00227189
0.00260925
0.00303915
0.00353691
0.00407245
0.00461523
0.00515248
0.0056661
0.00617395
0.00664865
0.00708468
0.00751087
0.00792747
0.00834579
0.00878563
0.0092577
0.00976781
0.0103161
0.0109037
0.0115239
0.0121707
0.0128391
0.013521
0.0142044
0.0148794
0.0155357
0.0161678
0.0167669
0.0173266
0.0178398
0.0183011
0.0187058
0.0190506
0.0193306
0.0195417
0.0196791
0.0197382
0.0197129
0.0195963
0.01938
0.0190542
0.0186087
0.0180385
0.0173378
0.00714431
0.00697919
0.00678129
0.00654505
0.0062628
0.00593563
0.00556273
0.00515311
0.00471484
0.00426799
0.00382726
0.00341145
0.00303815
0.00272245
0.00247884
0.00231801
0.0022539
0.00229587
0.00245465
0.00272605
0.00310502
0.00357415
0.00411097
0.00468653
0.00527951
0.00585975
0.00642514
0.00696452
0.00748635
0.00797025
0.00843181
0.0089227
0.0094442
0.0100202
0.0106416
0.0113273
0.012057
0.01284
0.0136462
0.0144867
0.0153297
0.0161788
0.0170031
0.0178146
0.0185854
0.0193198
0.0199947
0.0206131
0.0211581
0.0216359
0.0220315
0.0223417
0.0225615
0.0226872
0.0227136
0.0226344
0.0224376
0.0221156
0.0216498
0.0210465
0.0202842
0.012499
0.0243412
0.0242543
0.0102381
0.016848
0.00516137
0.00124532
0.0191069
0.00124997
0.00322287
0.00805025
0.0119861
0.00124526
0.0361557
0.00476549
0.00918289
0.0012485
0.0203277
0.00787579
0.00124644
0.0121217
0.0387577
0.0291231
0.00126163
0.00124759
0.00434941
0.0012465
0.00837118
0.00124755
0.00124931
0.051083
0.0012447
0.00271902
0.0400323
0.0106971
0.00679824
0.00627974
0.0125801
0.00124384
0.0774026
0.0082849
0.0189136
0.00124254
0.00828223
0.0166953
0.00763805
0.00124273
0.00158302
0.000720415
0.0126328
0.0151973
0.0147866
0.0012424
0.00125547
0.00103983
0.00124234
0.00124916
0.00568062
0.00690475
0.0179201
0.0121372
0.00127286
0.0195434
0.00219255
0.0190548
0.00124243
0.00845335
0.0174896
0.0014577
0.00124193
0.00044827
0.0107549
0.00833399
0.0012419
0.0012299
0.03995
0.0215336
0.012883
0.00124204
0.0120318
0.00146022
0.0710167
0.000684373
0.0107801
0.00124196
0.0115012
0.00124933
0.0343389
0.000932217
0.00132455
0.00270298
0.00124191
0.00126482
0.0173541
0.0150899
0.00125595
0.00876712
0.0351946
0.00170323
0.011771
0.00124247
0.0804214
0.00672872
0.00124174
0.00124189
0.00124211
0.00408742
0.00534848
0.00125394
0.0122741
0.0117375
0.0011118
0.0215357
0.0275794
0.0161831
0.0399126
0.0129769
0.00137907
0.00401388
0.00124648
0.00124185
0.0165584
0.00125618
0.0119684
0.0137752
0.0159786
0.00124212
0.00910025
0.0098698
0.00124229
0.00360857
0.00222344
0.0103274
0.00125937
0.0417189
0.00124222
0.00124187
0.0126696
0.0162583
0.00124263
0.0228053
0.0133249
0.00320839
0.00843659
0.024115
0.0401213
0.000717316
0.0229451
0.00205055
0.0255521
0.00215364
0.00124279
0.0107065
0.010854
0.0142663
0.00124404
0.00124371
0.00534268
0.00124202
0.00798014
0.00358337
0.00155565
0.0012432
0.00124203
0.00124237
0.013876
0.0155146
0.00752752
0.00126447
0.0274364
0.0112978
0.00554273
0.0191252
0.00262839
0.0306089
0.0298914
0.0165833
0.0012429
0.00145293
0.0103991
0.0105153
0.0211335
0.0114169
0.00124199
0.00125236
0.0248875
0.00234939
0.0104287
0.0012437
0.00124244
0.00571521
0.00127259
0.0184008
0.00554892
0.00124188
0.00565198
0.0118707
0.0276669
0.00146917
0.00674124
0.0012421
0.00124334
0.0856181
0.00547077
0.0230157
0.00148045
0.00124957
0.00174594
0.00534937
0.0055408
0.00981299
0.0238076
0.0037264
0.0115609
0.00171542
0.00973597
0.00783676
0.0244253
0.0133692
0.0349617
0.00125007
0.00360674
0.00124253
0.00124363
0.0133545
0.00186205
0.00192568
0.00125029
0.00253846
0.0109216
0.0354407
0.00302557
0.0244206
0.0100232
0.0248104
0.00124302
0.004857
0.010801
0.00906393
0.00141946
0.0812931
0.0157407
0.00181665
0.000489562
0.0116638
0.004975
0.00433432
0.00888262
0.00133711
0.00124195
0.0012897
0.00234852
0.0178375
0.00124525
0.00125704
0.00124348
0.00699017
0.0969083
0.0358219
0.0152069
0.00424747
0.0127649
0.0142176
0.00146381
0.00748206
0.0449923
0.00124218
0.0218457
0.00124191
0.00266259
0.00685171
0.0235564
0.00141228
0.0012421
0.0135026
0.00885535
0.00124249
0.00124283
0.00124473
0.00124922
0.00910366
0.00757393
0.00945992
0.000950387
0.00124251
0.00124266
0.00124186
0.0101499
0.0190055
0.00131649
0.00430191
0.00486034
0.00124894
0.00124196
0.00792425
0.00124249
0.00513602
0.00873335
0.015017
0.00231886
0.0012467
0.00133931
0.0127186
0.00121105
0.00959777
0.0133483
0.00127076
0.00124209
0.00124297
0.0096952
0.00124597
0.0353282
0.00124219
0.0103983
0.0101179
0.00225008
0.0220167
0.00460877
0.00133133
0.0134724
0.0687212
0.00907021
0.0909038
0.00759145
0.0167732
0.0232877
0.0995204
0.0062679
0.00813384
0.00838346
0.00408501
0.015503
0.0126991
0.011602
0.0315064
0.00134219
0.0272924
0.023093
0.0104699
0.00298007
0.00126519
0.0012421
0.00125269
0.00174355
0.00954485
0.0574218
0.0040703
0.00124455
0.0126704
0.00124204
0.0270648
0.00411994
0.0104591
0.0708953
0.0100138
0.00130202
0.00128846
0.00403966
0.0398185
0.00151783
0.00422176
0.0236832
0.0094992
0.012102
0.030537
0.0727608
0.00124995
0.012049
0.0154594
0.00848812
0.00124351
0.0185563
0.0138363
0.001248
0.0301234
0.00124409
0.0136576
0.0585147
0.02531
0.00978186
0.0224345
0.0109865
0.00125981
0.0103305
0.00127856
0.029149
0.0120842
0.0175748
0.0119602
0.00920648
0.00735607
0.0103967
0.00128578
0.00477402
0.021023
0.00183264
0.00130867
0.0158124
0.00127839
0.0118497
0.00124276
0.00124541
0.00172915
0.00739732
0.00173607
0.00415203
0.00124834
0.00913167
0.00528814
0.0218776
0.00896805
0.00547493
0.0168828
0.00128034
0.0116661
0.0137982
0.00124186
0.0122076
0.00466941
0.00124218
0.00124189
0.00650904
0.00185571
0.0586048
0.00334399
0.034004
0.00313537
0.00290889
0.00506175
0.0658737
0.00565984
0.0593736
0.00725438
0.00133557
0.000964443
0.0120507
0.0270862
0.0124997
0.0178766
0.0294044
0.00255855
0.0107454
0.0109295
0.00462353
0.0105792
0.00598268
0.0045728
0.00128505
0.0121543
0.0149033
0.00133025
0.0490819
0.0141637
0.00625994
0.00223198
0.00243633
0.0307875
0.00129637
0.0126953
0.0013101
0.00315435
0.0012456
0.0108359
0.00938348
0.00684092
0.00131533
0.00135085
0.0407496
0.0243598
0.00124272
0.0119522
0.0224193
0.00360254
0.00130243
0.0120009
0.023748
0.0436274
0.0245213
0.0045516
0.0182336
0.0642496
0.0133878
0.00113039
0.000578548
0.0121655
0.0081193
0.0133084
0.0102334
0.000652572