/*--------------------------------*- C++ -*----------------------------------*\
| =========                 |                                                 |
| \\      /  F ield         | OpenFOAM: The Open Source CFD Toolbox           |
|  \\    /   O peration     | Version:  2.3.1                                 |
|   \\  /    A nd           | Web:      www.OpenFOAM.org                      |
|    \\/     M anipulation  |                                                 |
\*---------------------------------------------------------------------------*/
FoamFile
{
    version     2.0;
    format      ascii;
    class       volScalarField;
    location    "0.05";
    object      p;
}
// * * * * * * * * * * * * * * * * * * * * * * * * * * * * * * * * * * * * * //

dimensions      [0 2 -2 0 0 0 0];

internalField   nonuniform List<scalar> 
9648
(
0.783776
1.67336
2.03681
2.17002
2.17669
2.0916
1.92459
1.67502
1.33504
0.895973
0.359767
-0.278843
-1.02967
-1.89672
-2.88545
-4.00047
-5.24406
-6.61814
-8.12389
-9.77134
-11.5713
-13.5214
-15.6227
-17.8734
-20.2738
-22.8198
-25.5074
-28.3361
-31.2994
-34.397
-37.616
-40.9479
-44.3839
-47.9081
-51.515
-55.186
-58.9128
-62.6815
-66.4735
-70.2732
-74.0612
-77.8312
-81.5502
-85.2092
-88.7975
-92.2867
-95.6644
-98.9133
-102.034
-105.006
-107.788
-110.381
-112.786
-114.974
-116.945
-118.685
-120.181
-121.438
-122.433
-123.175
-123.65
2.3792
2.6939
2.94749
3.08073
3.09698
3.02361
2.8713
2.64063
2.32657
1.92312
1.42125
0.817207
0.108865
-0.708986
-1.6412
-2.69261
-3.8641
-5.15654
-6.57261
-8.12244
-9.81413
-11.6493
-13.6268
-15.7456
-18.0041
-20.3999
-22.929
-25.5894
-28.3783
-31.2921
-34.3213
-37.4569
-40.6896
-44.0071
-47.3997
-50.8547
-54.3613
-57.9058
-61.4725
-65.0464
-68.6119
-72.1541
-75.6524
-79.0934
-82.4608
-85.7355
-88.9033
-91.9473
-94.854
-97.6112
-100.215
-102.645
-104.89
-106.938
-108.774
-110.393
-111.778
-112.937
-113.849
-114.513
-114.912
2.56439
2.77214
2.94904
3.05159
3.07862
3.03025
2.91176
2.71548
2.43913
2.07341
1.61511
1.05763
0.396638
-0.37288
-1.25638
-2.25729
-3.3769
-4.61483
-5.97513
-7.46674
-9.09767
-10.87
-12.7835
-14.8362
-17.0266
-19.3511
-21.8067
-24.391
-27.1018
-29.935
-32.8824
-35.9348
-39.0826
-42.315
-45.6209
-48.9887
-52.4069
-55.8625
-59.341
-62.8278
-66.3076
-69.7642
-73.1803
-76.5413
-79.8311
-83.0325
-86.1307
-89.1114
-91.9591
-94.6587
-97.2009
-99.5729
-101.767
-103.762
-105.559
-107.14
-108.509
-109.639
-110.536
-111.196
-111.629
2.9837
3.1741
3.33662
3.43579
3.46686
3.43072
3.32765
3.15277
2.90075
2.56385
2.13796
1.61705
0.997558
0.273351
-0.560685
-1.5081
-2.56856
-3.74361
-5.03608
-6.45604
-8.01017
-9.70145
-11.5297
-13.4934
-15.5894
-17.8149
-20.1656
-22.6408
-25.2374
-27.9516
-30.7762
-33.7017
-36.7189
-39.8177
-42.9866
-46.2142
-49.4896
-52.7997
-56.1313
-59.4707
-62.8028
-66.1117
-69.3807
-72.5956
-75.7402
-78.7989
-81.7571
-84.6009
-87.3176
-89.8924
-92.3145
-94.5722
-96.6555
-98.5504
-100.249
-101.741
-103.021
-104.078
-104.907
-105.505
-105.874
3.31414
3.48928
3.65533
3.76994
3.8203
3.80723
3.729
3.58341
3.36198
3.06081
2.6712
2.19164
1.61537
0.939258
0.155623
-0.735784
-1.73725
-2.84827
-4.07391
-5.42155
-6.90004
-8.5102
-10.2556
-12.1306
-14.1344
-16.2623
-18.5108
-20.8792
-23.3648
-25.9632
-28.6692
-31.4716
-34.3625
-37.3327
-40.3701
-43.4628
-46.6019
-49.7726
-52.9641
-56.1639
-59.3571
-62.5275
-65.6589
-68.7379
-71.7487
-74.6758
-77.5064
-80.2258
-82.8222
-85.2828
-87.5963
-89.7514
-91.7389
-93.5474
-95.1667
-96.5873
-97.8004
-98.8014
-99.5881
-100.153
-100.495
3.66044
3.83229
4.00253
4.13036
4.20312
4.21522
4.16431
4.04787
3.85801
3.58984
3.23681
2.79461
2.25998
1.62973
0.896285
0.0584187
-0.883018
-1.93363
-3.09051
-4.36638
-5.76872
-7.2986
-8.96052
-10.7478
-12.6576
-14.688
-16.831
-19.092
-21.4642
-23.9449
-26.5305
-29.2067
-31.9672
-34.8055
-37.707
-40.6598
-43.6577
-46.6833
-49.7284
-52.7833
-55.8321
-58.8589
-61.8454
-64.7822
-67.6518
-70.4396
-73.1348
-75.7206
-78.1882
-80.5255
-82.7224
-84.7657
-86.6484
-88.3618
-89.8936
-91.2323
-92.37
-93.3043
-94.0357
-94.5559
-94.8603
4.06409
4.23345
4.40689
4.54473
4.63896
4.67348
4.64919
4.56006
4.4005
4.16657
3.84648
3.44182
2.94416
2.35983
1.67309
0.88947
0.00359874
-0.98603
-2.07702
-3.27885
-4.609
-6.05787
-7.63989
-9.33772
-11.1544
-13.085
-15.1201
-17.2719
-19.5301
-21.8905
-24.3563
-26.9051
-29.5294
-32.2336
-34.9979
-37.8062
-40.6596
-43.5357
-46.4296
-49.3387
-52.2416
-55.1233
-57.9605
-60.7509
-63.4761
-66.121
-68.6764
-71.1244
-73.4588
-75.6675
-77.7443
-79.6702
-81.4432
-83.0601
-84.5031
-85.7578
-86.815
-87.6774
-88.3513
-88.8281
-89.0946
4.54702
4.7248
4.90108
5.04373
5.15114
5.20502
5.19232
5.13391
4.99709
4.7986
4.51065
4.14453
3.67983
3.14876
2.50563
1.76849
0.942329
0.000875004
-1.02142
-2.14813
-3.42018
-4.78506
-6.29119
-7.90214
-9.61641
-11.4565
-13.3694
-15.4161
-17.5652
-19.7951
-22.1533
-24.5731
-27.0456
-29.6183
-32.26
-34.9018
-37.6133
-40.3405
-43.072
-45.8423
-48.5935
-51.3406
-54.014
-56.6538
-59.2444
-61.7335
-64.1582
-66.4527
-68.6583
-70.7238
-72.6861
-74.4776
-76.1299
-77.6559
-79.0196
-80.1747
-81.1574
-81.9286
-82.5481
-82.9917
-83.2124
5.15922
5.31361
5.5159
5.63486
5.76532
5.80071
5.79754
5.78348
5.63318
5.50168
5.21766
4.92631
4.4576
4.03393
3.3885
2.68458
1.95008
1.02145
0.0922429
-0.944985
-2.25056
-3.4604
-4.94744
-6.4332
-8.03713
-9.85186
-11.5736
-13.5549
-15.6224
-17.6597
-19.9696
-22.232
-24.5308
-27.0237
-29.5779
-31.916
-34.5822
-37.1582
-39.6843
-42.3745
-44.9134
-47.5888
-50.0391
-52.5865
-55.0901
-57.338
-59.7093
-61.7697
-63.9066
-65.7488
-67.6377
-69.2234
-70.7739
-72.266
-73.5402
-74.5499
-75.527
-76.1357
-76.7528
-77.1646
-77.2918
-123.842
-123.776
-123.444
-122.836
-121.969
-120.831
-119.429
-117.758
-115.818
-113.629
-111.183
-108.5
-105.596
-102.473
-99.1276
-95.5751
-91.8226
-87.8936
-83.7845
-79.5097
-75.1007
-70.5524
-65.8715
-61.0603
-56.1487
-51.1476
-46.0696
-40.936
-35.749
-30.5325
-25.2898
-20.0388
-14.7983
-9.573
-4.38622
0.75687
5.83695
10.8422
15.7634
20.586
25.299
29.8842
34.3393
38.6493
42.8037
46.7979
50.6188
54.2564
57.6991
60.9418
63.9794
66.8017
69.3996
71.7696
73.9052
75.8007
77.4506
78.8524
80.0088
80.9216
81.5942
-115.051
-114.944
-114.595
-113.993
-113.145
-112.044
-110.693
-109.08
-107.216
-105.108
-102.77
-100.221
-97.4569
-94.479
-91.292
-87.9045
-84.328
-80.5752
-76.6524
-72.5721
-68.3495
-63.9911
-59.5189
-54.9446
-50.271
-45.5095
-40.6765
-35.7872
-30.8503
-25.8795
-20.8858
-15.8834
-10.8867
-5.90785
-0.961801
3.94136
8.78715
13.563
18.2576
22.8593
27.3558
31.734
35.9857
40.1001
44.0677
47.8819
51.5317
55.0065
58.2965
61.3964
64.3001
66.999
69.4847
71.7539
73.8002
75.6186
77.2036
78.5533
79.6668
80.5458
81.1933
-111.817
-111.749
-111.418
-110.842
-110.03
-108.938
-107.601
-105.979
-104.135
-102.063
-99.7533
-97.2044
-94.4444
-91.4823
-88.3233
-84.9758
-81.4478
-77.7501
-73.8916
-69.8842
-65.7394
-61.4639
-57.0718
-52.5759
-47.9857
-43.3131
-38.5728
-33.7788
-28.9419
-24.0733
-19.1845
-14.2893
-9.40068
-4.53221
0.30374
5.09541
9.83054
14.4968
19.0822
23.5752
27.964
32.2369
36.3846
40.3972
44.2666
47.9851
51.5424
54.9284
58.1342
61.1544
63.9819
66.6097
69.0308
71.2411
73.2348
75.0069
76.553
77.8708
78.9602
79.8222
80.4601
-106.007
-105.901
-105.547
-104.938
-104.058
-102.951
-101.661
-100.167
-98.4191
-96.445
-94.2442
-91.8211
-89.1853
-86.3488
-83.3186
-80.1025
-76.7096
-73.1497
-69.4333
-65.5727
-61.5791
-57.4621
-53.2321
-48.8993
-44.4745
-39.9696
-35.3988
-30.7755
-26.1108
-21.4149
-16.6987
-11.9755
-7.25862
-2.56099
2.10627
6.73144
11.3028
15.8089
20.237
24.5761
28.8147
32.9419
36.9479
40.824
44.562
48.1551
51.5924
54.8652
57.9638
60.884
63.6178
66.159
68.5023
70.6424
72.5747
74.2926
75.7936
77.0733
78.1331
78.9726
79.5952
-100.609
-100.494
-100.145
-99.5595
-98.7392
-97.7006
-96.3896
-94.8812
-93.1572
-91.2213
-89.0736
-86.7181
-84.1612
-81.413
-78.4798
-75.3688
-72.0869
-68.6439
-65.0506
-61.3196
-57.4612
-53.486
-49.403
-45.221
-40.9506
-36.6034
-32.193
-27.7332
-23.2341
-18.7055
-14.1564
-9.60163
-5.05309
-0.524564
3.97536
8.43459
12.8428
17.1884
21.4584
25.6421
29.7293
33.7082
37.5702
41.3065
44.9096
48.3742
51.6876
54.8437
57.8313
60.6476
63.2844
65.7354
67.9975
70.0635
71.9317
73.5923
75.0458
76.2839
77.3114
78.1247
78.7285
-94.9448
-94.8067
-94.443
-93.8541
-93.0454
-92.0218
-90.7677
-89.2997
-87.6248
-85.7469
-83.6668
-81.3878
-78.9159
-76.2628
-73.4337
-70.434
-67.2695
-63.9482
-60.4832
-56.8881
-53.1717
-49.3451
-45.416
-41.391
-37.2823
-33.0984
-28.854
-24.5649
-20.2385
-15.8837
-11.5074
-7.1267
-2.7521
1.60045
5.92678
10.2141
14.4529
18.6329
22.7393
26.7626
30.6932
34.5192
38.2327
41.8247
45.2874
48.6209
51.807
54.8443
57.7164
60.4265
62.9631
65.3213
67.5001
69.4891
71.292
72.8934
74.2988
75.4937
76.4886
77.2738
77.8597
-89.1487
-88.9877
-88.6121
-88.0209
-87.2219
-86.2178
-84.9993
-83.5681
-81.941
-80.1239
-78.1143
-75.9127
-73.5275
-70.9726
-68.2527
-65.3689
-62.3258
-59.1267
-55.7933
-52.338
-48.7688
-45.0966
-41.3279
-37.4664
-33.5244
-29.5076
-25.4357
-21.3231
-17.1767
-13.0002
-8.80094
-4.59727
-0.402022
3.7679
7.91402
12.0214
16.0832
20.0923
24.0302
27.8857
31.6547
35.3243
38.885
42.3275
45.6457
48.8442
51.9006
54.8173
57.5712
60.1694
62.6023
64.8645
66.957
68.8654
70.6026
72.1438
73.5025
74.6531
75.6133
76.3695
76.94
-83.2378
-83.0457
-82.6613
-82.0576
-81.2733
-80.2944
-79.113
-77.7032
-76.1163
-74.3749
-72.4399
-70.3147
-68.0182
-65.5629
-62.9631
-60.2009
-57.2836
-54.2068
-51.0134
-47.7045
-44.2849
-40.7715
-37.1758
-33.4816
-29.7122
-25.8673
-21.9771
-18.0449
-14.0786
-10.0844
-6.06159
-2.0377
1.97468
5.95044
9.90897
13.8201
17.6894
21.5305
25.2982
28.9701
32.5806
36.0943
39.4916
42.7862
45.9486
49.0148
51.9362
54.7343
57.3596
59.8406
62.1629
64.3224
66.3314
68.1544
69.8306
71.3102
72.6266
73.7254
74.6503
75.3756
75.9391
-77.2829
-77.045
-76.6438
-76.025
-75.2557
-74.2951
-73.1554
-71.721
-70.1998
-68.6051
-66.6885
-64.661
-62.4183
-60.0457
-57.6381
-54.9559
-52.1649
-49.265
-46.1653
-43.0225
-39.7096
-36.3348
-32.976
-29.3932
-25.8129
-22.2012
-18.4234
-14.7021
-10.8537
-7.12997
-3.19453
0.558704
4.46
8.15922
11.9615
15.6678
19.3055
23.045
26.6306
30.0958
33.602
36.9148
40.1254
43.3241
46.2251
49.256
51.9451
54.6989
57.093
59.5138
61.7411
63.7343
65.7444
67.3998
69.1086
70.4383
71.7817
72.7273
73.71
74.3389
74.9781
82.0289
82.2387
82.268
82.144
81.8209
81.2877
80.5631
79.6148
78.4245
77.0125
75.3913
73.5676
71.5478
69.3378
66.9438
64.3728
61.6329
58.7344
55.6869
52.5015
49.1909
45.7639
42.2356
38.6183
34.9265
31.1731
27.3721
23.5404
19.6892
15.8379
11.998
8.18633
4.41977
0.710036
-2.92187
-6.46387
-9.89717
-13.207
-16.3708
-19.3753
-22.218
-24.8824
-27.3551
-29.609
-31.6351
-33.4147
-34.911
-36.1432
-37.1011
-37.768
-38.1292
-38.1703
-37.8817
-37.261
-36.3012
-35.0021
-33.3705
-31.4148
-29.159
-26.6378
-23.9027
81.61
81.7989
81.8075
81.6847
81.3813
80.8649
80.1494
79.2157
78.0546
76.679
75.1004
73.3256
71.3604
69.2109
66.8841
64.3883
61.7311
58.922
55.9707
52.8872
49.6827
46.3673
42.9539
39.4548
35.8836
32.253
28.5765
24.8685
21.1423
17.4133
13.6951
10.0025
6.35085
2.75407
-0.771008
-4.20994
-7.54668
-10.7674
-13.8682
-16.8306
-19.6316
-22.2551
-24.6885
-26.9161
-28.9494
-30.7758
-32.3355
-33.6271
-34.6463
-35.3818
-35.8227
-35.9571
-35.7792
-35.279
-34.4562
-33.3053
-31.8372
-30.0546
-27.981
-25.6473
-23.1016
80.8711
81.0489
81.0695
80.9679
80.6726
80.1707
79.4741
78.5699
77.4511
76.1259
74.6032
72.89
70.9917
68.9148
66.6653
64.2508
61.6788
58.9588
56.1002
53.1126
50.0064
46.7917
43.4806
40.0856
36.6193
33.0946
29.5244
25.9221
22.3011
18.6757
15.0598
11.4674
7.91265
4.41031
0.975284
-2.37764
-5.63412
-8.7811
-11.8074
-14.695
-17.4267
-19.991
-22.3793
-24.5804
-26.5562
-28.2982
-29.7977
-31.0691
-32.0831
-32.8276
-33.294
-33.4717
-33.3554
-32.935
-32.2121
-31.1836
-29.8598
-28.2451
-26.3604
-24.237
-21.9205
79.9935
80.1623
80.1976
80.12
79.8366
79.3526
78.6758
77.801
76.723
75.4481
73.9818
72.3317
70.5022
68.5002
66.3303
64.0005
61.5179
58.8933
56.1352
53.2533
50.2568
47.1555
43.9616
40.6875
37.3447
33.9465
30.5047
27.0321
23.5418
20.0476
16.5628
13.1009
9.67524
6.30028
2.99034
-0.240158
-3.37778
-6.40975
-9.32342
-12.1037
-14.7357
-17.2064
-19.5037
-21.6127
-23.5117
-25.195
-26.7047
-27.975
-28.9882
-29.7452
-30.2409
-30.4662
-30.4167
-30.0858
-29.4755
-28.5875
-27.4307
-26.0136
-24.3573
-22.4923
-20.4606
79.1103
79.2784
79.3281
79.2683
78.999
78.5357
77.8815
77.0384
76.0012
74.7777
73.3688
71.7844
70.0264
68.1028
66.0156
63.7745
61.3847
58.8601
56.2075
53.4361
50.5545
47.5703
44.498
41.349
38.1334
34.8653
31.5548
28.215
24.857
21.4957
18.1429
14.8117
11.5142
8.26521
5.07794
1.96705
-1.05558
-3.97704
-6.78573
-9.467
-12.0072
-14.3927
-16.612
-18.654
-20.5071
-22.1663
-23.6326
-24.8653
-25.8677
-26.6323
-27.1504
-27.416
-27.4256
-27.1774
-26.673
-25.9188
-24.923
-23.6991
-22.2684
-20.6608
-18.9164
78.2265
78.4002
78.461
78.4144
78.1597
77.72
77.0917
76.2838
75.2883
74.1183
72.7682
71.2532
69.5697
67.7292
65.7279
63.5794
61.2849
58.8653
56.3229
53.6672
50.9053
48.0417
45.0946
42.0753
38.9908
35.8576
32.6825
29.4795
26.2576
23.0334
19.8165
16.6199
13.4536
10.3337
7.27222
4.28401
1.37986
-1.42806
-4.12952
-6.70944
-9.1551
-11.4526
-13.5924
-15.566
-17.3661
-18.9832
-20.4079
-21.6251
-22.6292
-23.4083
-23.9565
-24.2691
-24.346
-24.1862
-23.7951
-23.1789
-22.3502
-21.3214
-20.1172
-18.7634
-17.3001
77.2963
77.4783
77.5467
77.5108
77.2712
76.8576
76.2603
75.4913
74.5392
73.4245
72.1358
70.6939
69.09
67.3366
65.425
63.3722
61.1768
58.8657
56.4384
53.9041
51.2679
48.5293
45.71
42.824
39.875
36.8819
33.8472
30.7846
27.703
24.6201
21.5443
18.4866
15.4546
12.4661
9.53351
6.67106
3.88918
1.19761
-1.39552
-3.87396
-6.22407
-8.43349
-10.4922
-12.3987
-14.146
-15.723
-17.1184
-18.3265
-19.3348
-20.131
-20.7115
-21.0771
-21.2246
-21.1595
-20.8839
-20.4124
-19.7498
-18.9192
-17.9361
-16.8287
-15.631
76.2873
76.4836
76.5533
76.528
76.2982
75.9139
75.3503
74.6277
73.7177
72.6647
71.4349
70.0745
68.5513
66.8941
65.0724
63.122
61.0243
58.8329
56.5182
54.1156
51.6117
48.9995
46.3174
43.563
40.7499
37.9045
35.0133
32.0961
29.1572
26.22
23.2916
20.3777
17.4828
14.629
11.8285
9.09325
6.43951
3.86722
1.3824
-0.993639
-3.24829
-5.37079
-7.34927
-9.18133
-10.8846
-12.425
-13.7911
-14.9924
-16.0089
-16.8239
-17.4417
-17.862
-18.0813
-18.1131
-17.9595
-17.63
-17.1339
-16.4973
-15.737
-14.8606
-13.9131
75.2399
75.5197
75.5201
75.5821
75.2854
74.9869
74.3705
73.7747
72.8411
71.9386
70.6825
69.4805
67.9662
66.4977
64.6995
62.9345
60.8331
58.8711
56.6275
54.3777
52.0358
49.4532
46.9893
44.3949
41.6365
39.0159
36.1923
33.4993
30.6278
27.9081
25.0588
22.352
19.5448
16.8918
14.1632
11.609
9.02866
6.62369
4.19979
1.97769
-0.226224
-2.23311
-4.16835
-5.90039
-7.56957
-9.1107
-10.4185
-11.6324
-12.6693
-13.4955
-14.168
-14.6352
-14.9295
-15.065
-15.036
-14.8594
-14.5011
-14.0369
-13.5095
-12.8322
-12.1326
-21.027
-18.1022
-15.264
-12.6662
-10.4985
-9.64174
-10.1788
-11.0892
-11.8083
-12.2845
-12.6391
-12.7704
-12.7835
-12.7866
-12.7793
-12.7725
-12.7849
-12.8131
-12.8547
-12.9107
-12.9759
-13.0495
-13.1345
-13.2293
-13.341
-13.4752
-13.6345
-13.8185
-14.013
-14.1992
-14.3491
-14.4378
-14.4418
-14.3442
-14.1373
-13.8113
-13.3716
-12.8267
-12.1841
-11.449
-10.6454
-9.79396
-8.90549
-7.9955
-7.07666
-6.16067
-5.2609
-4.38937
-3.55364
-2.76159
-2.01388
-1.31488
-0.669173
-0.0807671
0.443038
0.900786
1.28233
1.5753
1.75157
1.79367
1.64667
-20.4116
-17.6647
-14.9858
-12.5411
-10.5644
-9.6545
-9.91385
-10.5467
-10.9397
-11.3083
-11.7425
-11.8816
-11.8485
-11.8283
-11.8054
-11.7744
-11.7689
-11.7771
-11.7994
-11.8387
-11.8842
-11.9365
-11.997
-12.073
-12.1679
-12.2854
-12.4301
-12.6011
-12.7868
-12.9676
-13.1166
-13.2062
-13.2097
-13.1155
-12.9261
-12.6269
-12.2276
-11.7204
-11.1121
-10.4254
-9.66822
-8.8574
-8.00641
-7.12848
-6.23796
-5.34853
-4.47291
-3.6235
-2.80658
-2.0288
-1.2901
-0.588681
0.0660813
0.660443
1.18962
1.65762
2.05722
2.37379
2.5697
2.66147
2.62415
-19.4727
-16.9787
-14.5603
-12.385
-10.6859
-9.82921
-9.86413
-10.2838
-10.6142
-10.9632
-11.2691
-11.3278
-11.3142
-11.3842
-11.4078
-11.381
-11.3995
-11.4274
-11.4645
-11.5257
-11.5911
-11.6636
-11.7436
-11.8334
-11.9378
-12.0596
-12.2057
-12.3743
-12.5579
-12.7386
-12.8929
-12.9967
-13.0314
-12.9752
-12.8101
-12.5263
-12.1096
-11.5921
-10.9836
-10.2962
-9.54365
-8.73939
-7.89578
-7.02463
-6.14134
-5.2601
-4.39642
-3.55756
-2.7522
-1.97962
-1.24175
-0.536586
0.118415
0.709606
1.22988
1.68088
2.05759
2.3396
2.52158
2.59762
2.58737
-18.3196
-16.1498
-14.0652
-12.2186
-10.797
-10.0155
-9.89335
-10.1299
-10.3969
-10.6528
-10.8374
-10.8631
-10.841
-10.8656
-10.8499
-10.8482
-10.9194
-10.9561
-10.9887
-11.0642
-11.1281
-11.1974
-11.2742
-11.3575
-11.4564
-11.5735
-11.7178
-11.8875
-12.0741
-12.2622
-12.4248
-12.5369
-12.5767
-12.5249
-12.3639
-12.1043
-11.7433
-11.2683
-10.6936
-10.0354
-9.30813
-8.52589
-7.69948
-6.84324
-5.97294
-5.10765
-4.2603
-3.43789
-2.64104
-1.86691
-1.10966
-0.378364
0.302923
0.909198
1.43609
1.88719
2.26507
2.55875
2.75202
2.8492
2.89497
-17.0884
-15.2498
-13.5002
-11.9634
-10.774
-10.0552
-9.8189
-9.89327
-10.0615
-10.2336
-10.3572
-10.384
-10.3584
-10.3472
-10.3241
-10.3328
-10.382
-10.399
-10.4705
-10.5913
-10.6523
-10.7228
-10.8012
-10.878
-10.9773
-11.0947
-11.2466
-11.4255
-11.6258
-11.8326
-12.016
-12.1473
-12.2042
-12.1707
-12.0317
-11.7897
-11.4388
-10.9824
-10.4278
-9.7882
-9.07814
-8.30992
-7.49563
-6.6496
-5.79282
-4.94422
-4.11487
-3.30578
-2.50962
-1.71352
-0.917694
-0.137493
0.57781
1.20123
1.72353
2.1596
2.52332
2.80696
2.99773
3.11004
3.19051
-15.7743
-14.2517
-12.8113
-11.5492
-10.5563
-9.90593
-9.60305
-9.55423
-9.62488
-9.72771
-9.81723
-9.85333
-9.84867
-9.83476
-9.81606
-9.81738
-9.85013
-9.88778
-9.97601
-10.0627
-10.1348
-10.2411
-10.3303
-10.3977
-10.506
-10.6254
-10.7916
-10.9892
-11.2119
-11.4508
-11.6633
-11.8192
-11.8947
-11.8788
-11.7538
-11.5222
-11.179
-10.7321
-10.1862
-9.55556
-8.85175
-8.0895
-7.27945
-6.44098
-5.59513
-4.76094
-3.94591
-3.13836
-2.32697
-1.48911
-0.634245
0.202514
0.958428
1.58472
2.0944
2.50391
2.8415
3.11399
3.2988
3.41613
3.51843
-14.3872
-13.1495
-11.9854
-10.9585
-10.1392
-9.5668
-9.24526
-9.1233
-9.11836
-9.16636
-9.22277
-9.26356
-9.28199
-9.29151
-9.29045
-9.29966
-9.32417
-9.37449
-9.45807
-9.54644
-9.63064
-9.72713
-9.79287
-9.88713
-10.0323
-10.1542
-10.3513
-10.5784
-10.8348
-11.1228
-11.3765
-11.5661
-11.6575
-11.6555
-11.5349
-11.3068
-10.9631
-10.5139
-9.96747
-9.33551
-8.62773
-7.86296
-7.05016
-6.21294
-5.37448
-4.55001
-3.73291
-2.91971
-2.06664
-1.18122
-0.265438
0.615205
1.3711
1.99286
2.4645
2.84138
3.18263
3.4598
3.65984
3.79984
3.9129
-12.9213
-11.943
-11.0197
-10.1971
-9.53533
-9.04935
-8.74768
-8.59068
-8.54513
-8.55017
-8.5853
-8.61968
-8.66288
-8.68676
-8.71113
-8.72527
-8.75548
-8.8231
-8.9154
-8.97983
-9.03444
-9.12206
-9.2325
-9.35181
-9.48084
-9.62765
-9.90474
-10.1835
-10.4749
-10.8554
-11.1788
-11.4129
-11.5074
-11.5144
-11.3812
-11.1509
-10.7911
-10.3243
-9.76174
-9.11994
-8.39596
-7.61922
-6.79339
-5.95703
-5.1212
-4.28715
-3.46082
-2.60514
-1.72384
-0.790379
0.139369
1.00443
1.7327
2.29059
2.72465
3.10277
3.47002
3.81466
4.08122
4.26782
4.40861
-11.3679
-10.5883
-9.91657
-9.25661
-8.7628
-8.35302
-8.10362
-7.94157
-7.89715
-7.87114
-7.90002
-7.92595
-8.00517
-8.03153
-8.05612
-8.05279
-8.08106
-8.20273
-8.40319
-8.37227
-8.31044
-8.36693
-8.54339
-8.67502
-8.91991
-9.05106
-9.45017
-9.75274
-10.063
-10.6362
-11.1605
-11.3837
-11.402
-11.4815
-11.2773
-11.0777
-10.6827
-10.167
-9.55753
-8.88466
-8.12074
-7.3249
-6.48514
-5.65158
-4.82092
-3.96892
-3.09906
-2.19478
-1.29244
-0.361928
0.5171
1.30254
1.9219
2.38728
2.79195
3.19723
3.69036
4.14573
4.52809
4.83472
5.00277
21.516
14.8603
13.8833
24.7009
22.0593
41.0874
26.3886
23.2602
25.7221
29.3195
-0.0773577
49.9707
26.4744
17.0453
42.7498
-50.3557
30.0446
24.3248
-0.0616496
26.0418
25.0536
17.3154
19.8697
27.2831
25.5874
13.3503
26.1022
18.6405
29.8503
21.7291
24.5504
25.8927
29.1
9.39422
49.0494
-3.64572
-12.9915
61.8334
26.99
27.0875
-7.3382
17.4089
28.7119
-43.2143
6.33958
51.9535
23.9672
19.2777
25.7855
51.2495
7.89857
-16.6665
26.0783
22.9437
21.8364
25.7956
21.8233
8.84004
-10.4783
-6.08559
7.6283
29.0415
26.2642
12.011
-1.05568
25.2855
-12.0058
21.0022
24.5954
28.2765
25.456
61.8341
-4.04612
24.8275
19.0039
20.7213
7.99069
68.2725
26.1446
53.1254
18.1872
26.5019
25.6274
10.7553
28.2553
46.4655
26.0974
5.6489
23.7811
18.778
8.07026
26.1201
20.9518
-6.58468
-8.3327
21.2484
59.5731
23.801
28.6413
-53.6954
25.2027
26.5546
9.31014
26.1111
26.8581
26.0524
7.26609
53.017
27.391
-37.3284
-58.9217
24.2088
9.06501
2.18453
17.9919
10.2182
-9.58105
25.3864
18.1457
23.7919
24.5913
6.36568
23.7868
-65.7887
-5.27935
22.2419
27.4664
-10.3739
1.65922
28.5741
19.9302
12.0835
2.86712
23.6333
12.394
24.5123
26.7587
-22.0239
-6.55292
25.3081
23.404
-19.6981
12.5231
52.1797
0.903282
25.6753
25.9195
-0.873486
42.5808
16.0101
25.94
25.7972
61.7914
13.1417
-24.3061
22.7557
22.7922
1.16247
25.9303
-12.2639
25.6889
30.834
26.3404
25.8082
27.0676
46.5735
18.5643
-3.35604
25.7402
15.4131
6.20807
-6.50936
19.7852
19.7833
9.76453
5.64969
-6.29478
23.3271
35.4029
0.881806
4.79398
18.518
-3.99727
23.7093
21.6113
10.2663
10.5274
60.6692
23.7548
24.1149
19.4485
26.998
3.03328
-9.26897
25.9412
-1.74535
8.18138
20.4447
25.8723
-9.70211
23.8191
27.5416
25.5346
-23.2431
14.4747
25.7503
23.4756
24.3172
-14.5474
-8.78927
31.5396
15.0249
25.7581
-64.4839
12.1547
-27.1407
-28.072
20.6443
57.5277
6.98276
23.8254
44.4682
25.5373
25.8891
-9.02736
12.6036
11.4873
23.9764
20.0369
63.1285
11.8368
20.9141
15.0415
-0.746125
25.1303
28.129
20.0772
-13.3424
-10.6002
24.9465
25.5586
20.6084
15.0819
25.7734
-69.2925
2.03547
11.1337
-48.06
30.1928
26.2256
24.7087
25.2403
-6.17497
22.5233
23.8018
27.0508
14.2814
25.6282
21.4354
5.54967
25.6807
40.6428
-28.946
24.5134
-12.9461
26.4273
28.4662
5.77485
28.2068
-7.70369
12.8335
5.36208
35.2342
24.9618
68.1668
19.3643
26.7202
24.7316
28.2251
29.1587
54.7797
-4.14409
-27.129
23.4173
27.0431
27.155
26.0924
-11.8256
23.0656
24.5273
-0.611344
52.9812
22.9837
26.0644
28.5044
28.0857
23.2165
-1.54239
7.32144
25.7157
23.6533
20.71
69.7747
15.2487
-1.264
-38.8011
31.808
28.4963
28.2647
-44.9838
24.2803
24.9166
25.0099
9.72055
26.0014
18.2829
6.95157
-9.44615
23.8347
3.26114
26.3361
-2.72782
26.2175
25.3257
-4.00738
4.0441
25.624
-5.95737
-43.4694
-3.66236
0.197505
-15.5727
-54.1957
6.78133
4.51065
25.5504
17.1739
6.66759
-65.1295
46.3942
28.632
27.1955
26.2098
12.379
53.2955
25.1585
16.3783
27.0474
-32.2662
27.2654
2.4579
-14.3515
-60.4499
24.9002
-20.8286
22.5036
19.3934
23.7606
10.5463
18.869
4.18754
10.3117
-9.71863
34.1029
19.6614
26.5937
21.7811
-62.9672
-6.06874
-4.49039
28.4305
-1.00809
-17.405
26.4483
2.39861
28.0527
6.50235
22.4545
-0.651509
-23.968
6.29528
-38.4998
27.5245
-44.8548
26.3674
17.894
54.5844
-5.62587
-65.3179
7.13997
50.2061
49.5353
19.5986
-6.83519
26.3871
35.6197
25.7592
7.51394
27.037
31.7571
26.2871
29.3815
25.4086
-1.79284
12.3814
-15.1081
24.1263
-34.2608
26.7448
9.45779
-0.811011
-25.4863
9.21917
25.9481
-69.891
44.1832
23.4557
56.1014
-19.3247
26.0939
26.9672
-4.40743
22.6025
24.9613
23.4633
7.4164
39.5115
-0.589772
-18.5673
24.3112
-24.7086
24.806
-20.7612
25.6156
24.4215
-10.5595
22.1023
-48.9813
9.67017
21.1263
10.1378
-26.0929
-24.4169
6.46445
3.6904
-11.5913
-17.4952
25.7097
41.1451
-7.86613
33.61
26.6706
60.7821
-10.5231
21.3561
10.9761
14.0923
22.7142
-46.5995
19.3055
16.1959
28.4204
41.5561
-1.77946
56.9963
18.9387
25.0145
10.276
0.766526
24.8154
22.722
11.1948
-7.46749
25.5639
34.8224
-0.516055
13.2685
1.66892
-6.38505
-5.41265
22.8887
41.0687
25.5745
25.4233
-61.1472
-8.42138
-31.5184
-56.3978
25.8538
7.06492
11.1379
26.1275
7.13815
3.3333
25.8835
18.9834
25.7506
-1.32217
-8.24229
-8.62162
30.3643
26.4189
24.9639
26.4504
23.8068
-11.7187
26.3167
27.3298
23.636
-2.74617
19.7182
26.4662
8.85687
25.7183
8.39704
15.2439
14.9623
26.1968
28.5659
22.8875
0.0847432
-4.25802
21.4728
48.8821
0.028433
4.99632
25.8527
24.2769
-7.10285
-4.12803
-30.757
-6.49747
27.7312
19.3663
24.4638
-6.54026
3.07845
27.3153
42.5364
-0.120148
-41.2062
25.7837
2.80816
-17.4821
20.4838
-56.17
23.6028
23.1746
22.7439
-8.49138
47.9279
-39.1254
6.09695
25.0531
-10.4831
26.2116
17.4778
24.3222
24.4071
44.8692
-5.49658
-10.3586
27.3844
0.35536
-10.0597
-15.4012
-7.63262
26.0415
-9.94442
20.2948
44.1451
10.1692
23.1759
-41.2567
23.8436
23.4475
21.914
5.32722
61.9962
-6.78591
-7.04267
22.4937
-5.8823
-7.15756
24.7496
25.3041
25.613
24.0835
24.4563
34.4251
-23.063
9.48978
25.6529
-6.20246
12.4004
-43.9054
24.8587
-9.80396
24.2355
-12.3554
20.7966
4.10336
-8.29265
-11.0522
-4.1057
-55.9954
28.0853
26.2415
21.4052
26.442
-0.981001
12.798
13.8597
23.2946
23.4858
20.453
25.8142
18.3765
-9.18901
26.1956
24.2978
1.40859
-23.6158
30.1519
1.36634
28.9734
12.3295
28.0401
40.4514
23.6846
42.6991
28.2672
4.78594
-0.722067
13.3171
27.1814
23.5706
-4.57198
25.7856
25.7304
23.129
21.6036
-11.1941
-7.08692
64.3538
4.38631
-6.2924
-2.46143
-46.3169
23.7853
25.6677
24.1111
-8.77643
3.17872
0.835673
25.2969
22.2813
21.2983
9.13373
13.9871
25.283
21.127
24.6501
3.07829
5.41058
63.8367
-7.03922
19.5741
23.1265
56.6007
13.9767
25.6304
5.12573
24.3039
23.1091
22.647
8.77518
-64.4825
1.33228
-6.40035
39.7766
3.05675
23.1659
28.5889
13.4203
11.355
6.03112
19.8706
-4.55326
25.9389
19.8972
27.2049
-42.5063
25.7276
21.9253
-6.27506
15.1122
-5.14405
8.0494
24.7345
-4.07203
9.32127
26.2791
-67.8589
24.5199
25.6396
23.6297
13.1089
27.7032
19.9115
4.13324
13.3329
1.2051
-51.455
28.1673
22.8019
25.2942
-20.2977
13.634
25.6912
64.8663
25.8295
24.7467
23.9613
-58.3679
-70.9375
6.6686
14.7206
10.035
1.93539
25.7853
26.3403
10.5149
17.68
27.7123
15.0563
28.4182
37.3122
22.6065
25.0971
15.4202
24.7713
14.4495
7.44863
3.89193
15.1957
33.7248
-8.11351
19.9886
31.6025
19.0396
-15.802
6.35246
-35.5239
28.8947
-6.4498
4.59632
24.0728
4.90784
-11.78
24.5119
24.765
-38.1251
9.64129
24.6726
-29.1717
5.30987
63.7947
0.361701
2.03918
56.52
-10.1232
22.9805
23.4168
-22.1243
-0.182037
14.2685
12.023
14.68
-8.06577
30.3941
8.36895
24.7524
-63.667
-13.7758
41.6114
-6.11818
-54.0971
22.0343
22.7064
8.37801
-8.05148
22.3283
-8.37843
0.357539
19.0917
-62.7581
6.00604
-41.3785
-51.3756
29.2905
28.9715
-6.1743
11.6237
21.2972
25.5634
12.9125
15.2846
35.035
28.1661
1.33258
-16.2096
-3.43249
7.49026
20.8638
19.8249
24.7537
3.87771
27.0042
-19.5763
2.88301
60.8066
-0.807765
33.3177
15.9578
28.8119
25.6341
-27.3189
24.7341
48.1394
-11.0879
19.7622
51.6344
73.2733
5.05238
24.7043
32.9615
-17.8406
3.84627
28.529
23.3041
-46.3446
42.6603
28.1027
-26.5405
25.6348
-6.64462
-4.73833
-1.75749
6.35418
68.1198
-9.69304
12.3844
7.41215
29.3643
11.1853
22.9712
26.1094
25.5496
24.2417
-11.0297
22.0614
-10.3707
30.3016
23.2259
-7.44221
3.08712
25.933
23.9732
-17.6952
24.963
26.6976
-5.60077
-32.2377
61.1718
0.203227
22.7347
26.0352
59.2788
-41.8119
23.1524
16.2895
-5.60791
28.4262
-33.2425
26.1363
16.0847
47.1672
55.0534
4.18088
-2.2746
26.0528
26.0981
-29.9397
11.2862
24.1194
22.6003
-6.51088
26.2539
-69.2294
22.5755
-7.65493
24.4397
27.4167
6.32292
23.4657
30.7004
3.41299
-4.12628
6.47964
26.5586
27.6462
35.6131
20.4321
24.5587
22.7773
-18.8694
9.47131
29.0032
-0.343328
26.7248
9.02518
24.978
26.2841
-20.1596
23.6622
21.0048
27.6024
3.60647
25.9762
0.390473
-47.4998
-7.77954
9.80906
-13.6713
25.9812
28.0315
12.6719
-56.518
-7.21064
13.0355
28.9303
-40.3176
26.3164
25.7027
26.8082
-1.42774
12.1294
14.3675
-2.90607
-9.99731
12.1835
-34.7782
5.11505
-60.1074
71.6075
25.6716
25.97
21.2681
25.9572
11.4452
14.6817
26.085
3.47719
20.8988
24.5146
-8.29805
19.1003
23.6348
-17.116
22.8954
21.2503
-24.0746
1.06778
25.6182
25.4464
25.0536
67.168
20.376
36.192
1.01796
25.4909
10.3225
15.3896
22.4996
25.6255
-11.3451
23.2394
-8.4054
17.2656
71.3573
22.0844
70.7678
3.9364
24.5437
-2.13605
49.3124
11.106
26.3502
24.8821
12.609
64.7098
26.1831
23.0843
12.2127
-12.0258
-51.5577
25.6148
13.9621
23.5649
2.43705
-26.0489
-9.07748
-29.657
23.6031
14.6123
-5.4308
28.2756
27.5619
-2.4905
24.3278
36.4409
25.8826
-9.42629
24.4702
-5.13504
-31.7301
26.0095
26.9395
26.5073
22.654
-24.9618
-7.35733
-1.93823
34.8254
-12.8874
-10.9757
19.7254
-28.9514
25.6961
-11.5631
36.0453
-0.310346
8.02241
-2.96509
10.7503
25.7659
24.2828
-55.3341
25.8428
6.81046
-2.98914
4.47915
10.4029
24.9074
40.638
20.3275
9.06456
-38.0132
24.6917
25.858
28.6639
5.47914
4.17382
20.2523
0.0439615
25.2902
-5.90551
6.17531
50.7993
16.1845
-13.3901
6.84972
-18.1511
8.80479
-11.1939
20.89
69.9318
24.5976
65.8301
68.2791
28.3388
26.2818
21.8071
27.1881
25.9658
8.88876
-2.2888
29.3786
1.75762
24.1964
28.5828
23.0829
26.2061
35.098
1.47416
15.5761
-67.0538
26.3745
24.2221
-15.2678
23.0917
20.179
26.5774
23.6884
13.7905
30.4213
15.9557
2.59356
40.8687
25.9037
8.6289
28.2859
29.1189
25.6266
21.2759
25.4317
24.0668
15.0388
28.2162
28.6784
-37.068
-6.94568
5.27725
18.4518
9.60529
-17.4647
23.8257
-1.09393
-8.27782
-67.0134
-7.69787
25.9638
24.0788
10.8538
24.9769
-7.79632
23.5405
50.2225
2.93544
25.7285
-9.38032
25.9603
55.7078
26.6859
2.24201
25.9516
-10.1507
-26.7337
27.5595
58.0734
22.4649
24.5219
26.9453
53.4611
25.9885
27.5323
5.28928
25.8688
34.2837
-63.966
-6.76499
25.7162
25.7436
-22.9316
-40.7516
26.0051
29.2829
19.7341
-2.24138
-8.06666
27.6407
-18.5351
28.8697
25.8623
26.2438
9.63264
8.73431
20.7594
14.8379
4.11712
-45.6777
-26.4078
23.5009
13.7941
-26.7268
27.1346
28.0437
27.6141
21.8752
29.0131
13.6068
28.3337
23.8223
10.2256
0.159634
21.3013
24.4309
7.19763
24.852
25.7782
31.141
-55.0413
27.3888
25.6081
27.5924
26.8479
-34.2937
13.6411
18.3782
25.5085
26.2178
28.351
7.95926
27.8778
5.40982
22.4929
5.11237
24.7999
13.5817
25.5913
-3.63593
24.4028
24.9077
18.7548
11.5964
19.6297
-44.2226
25.3422
24.0265
18.1241
-46.9601
26.1408
-3.80144
26.8105
21.5941
10.2401
25.2495
26.2663
64.8989
12.7749
13.3349
-38.8088
26.3431
36.657
-6.31358
5.84726
-19.2406
-6.78694
31.8403
9.52118
25.9154
1.72634
8.50517
-4.76792
13.047
28.1468
-4.71495
22.0095
37.8181
24.7014
39.0094
24.3351
61.0173
29.4716
26.687
48.2659
23.5861
25.649
27.6353