/*--------------------------------*- C++ -*----------------------------------*\
| =========                 |                                                 |
| \\      /  F ield         | OpenFOAM: The Open Source CFD Toolbox           |
|  \\    /   O peration     | Version:  2.3.1                                 |
|   \\  /    A nd           | Web:      www.OpenFOAM.org                      |
|    \\/     M anipulation  |                                                 |
\*---------------------------------------------------------------------------*/
FoamFile
{
    version     2.0;
    format      ascii;
    class       volVectorField;
    location    "0.05";
    object      U;
}
// * * * * * * * * * * * * * * * * * * * * * * * * * * * * * * * * * * * * * //

dimensions      [0 1 -1 0 0 0 0];

internalField   nonuniform List<vector> 
9648
(
(0.167675 -5.79416 -1.86819e-21)
(0.341887 -5.87811 5.32389e-22)
(0.491747 -5.86538 0)
(0.646084 -5.86284 0)
(0.801835 -5.85715 -1.51276e-20)
(0.95834 -5.84973 -2.82565e-20)
(1.11602 -5.84188 1.97785e-20)
(1.27556 -5.83571 5.22756e-21)
(1.43811 -5.83326 -5.22064e-21)
(1.60524 -5.83681 -4.34773e-21)
(1.77878 -5.84701 4.33684e-21)
(1.95883 -5.86467 -4.50489e-21)
(2.14592 -5.89069 3.27409e-20)
(2.34137 -5.92559 1.63308e-20)
(2.54632 -5.96904 -1.5706e-19)
(2.76173 -6.02078 0)
(2.98858 -6.08022 0)
(3.22782 -6.14676 4.91646e-20)
(3.4803 -6.21912 1.66358e-19)
(3.74645 -6.29607 -4.92952e-19)
(4.02681 -6.37656 -2.17452e-20)
(4.32191 -6.45909 1.38082e-19)
(4.63164 -6.54221 1.86435e-19)
(4.95609 -6.62441 -8.80298e-19)
(5.29505 -6.7041 0)
(5.6483 -6.77959 5.66725e-19)
(6.01526 -6.84916 -5.96736e-19)
(6.39531 -6.91135 0)
(6.78776 -6.96443 0)
(7.19165 -7.00705 -3.89971e-19)
(7.60614 -7.03772 -8.85657e-19)
(8.02998 -7.05504 1.40984e-18)
(8.46208 -7.05784 0)
(8.9011 -7.04482 0)
(9.3456 -7.01506 1.11594e-18)
(9.79427 -6.96749 -1.22933e-18)
(10.2455 -6.90139 0)
(10.6979 -6.81617 2.68482e-18)
(11.15 -6.71113 7.3805e-19)
(11.6001 -6.58581 -2.17972e-18)
(12.0464 -6.43988 5.47777e-20)
(12.4875 -6.27344 1.57528e-18)
(12.9219 -6.08606 -2.1271e-18)
(13.3476 -5.87793 4.29158e-19)
(13.7634 -5.64946 0)
(14.168 -5.4005 0)
(14.5595 -5.13148 3.28984e-18)
(14.9366 -4.84292 4.84809e-19)
(15.2986 -4.53556 -1.50702e-18)
(15.6447 -4.20933 -5.08634e-19)
(15.9729 -3.86429 -5.32508e-19)
(16.2813 -3.5026 5.29245e-19)
(16.5695 -3.12579 2.74676e-19)
(16.8364 -2.73452 -2.73215e-19)
(17.081 -2.33032 1.39797e-18)
(17.3026 -1.91415 -1.37055e-18)
(17.5004 -1.48734 -1.88873e-20)
(17.6739 -1.05101 0)
(17.8224 -0.606512 -2.78086e-19)
(17.9456 -0.155353 -3.6134e-20)
(18.043 0.301348 -3.37476e-20)
(-0.0219886 -4.21317 1.1617e-21)
(0.115423 -4.22194 0)
(0.222796 -4.2145 0)
(0.330418 -4.21607 -2.84925e-20)
(0.439877 -4.22672 1.91095e-20)
(0.553182 -4.24647 5.98548e-20)
(0.671665 -4.27575 0)
(0.796825 -4.3145 0)
(0.929625 -4.36348 2.97019e-20)
(1.07132 -4.42295 0)
(1.22356 -4.49349 2.56479e-20)
(1.38684 -4.57538 -9.72794e-21)
(1.56145 -4.66847 2.82624e-21)
(1.74818 -4.77204 0)
(1.94783 -4.88524 5.50696e-20)
(2.1609 -5.00704 3.89648e-20)
(2.38794 -5.13633 -3.85687e-20)
(2.62944 -5.27189 6.82551e-20)
(2.88593 -5.41219 -2.12244e-19)
(3.15761 -5.55564 2.04491e-19)
(3.44464 -5.70086 -2.41339e-19)
(3.74729 -5.84617 -1.40168e-19)
(4.06523 -5.99003 -1.38544e-19)
(4.3982 -6.13079 5.13883e-19)
(4.74582 -6.26687 1.803e-19)
(5.10767 -6.39656 2.28476e-19)
(5.48312 -6.51824 -1.86234e-19)
(5.8714 -6.63045 0)
(6.2718 -6.73159 0)
(6.68329 -6.82041 0)
(7.10498 -6.89546 0)
(7.53567 -6.95551 0)
(7.97422 -6.99944 0)
(8.41941 -7.02611 0)
(8.86975 -7.03468 -5.18438e-19)
(9.32402 -7.02414 4.56454e-19)
(9.78068 -6.9939 5.15516e-19)
(10.2384 -6.94335 -2.64074e-18)
(10.6957 -6.87187 -5.68064e-19)
(11.1509 -6.77907 1.76643e-18)
(11.6026 -6.66473 1.25671e-18)
(12.0491 -6.52893 -1.30786e-18)
(12.4889 -6.37123 6.16969e-19)
(12.9205 -6.192 6.60635e-19)
(13.3422 -5.99152 -7.11632e-19)
(13.7527 -5.76977 7.05528e-19)
(14.1505 -5.52729 -1.53847e-18)
(14.5341 -5.26468 0)
(14.9022 -4.98269 -3.9429e-19)
(15.2537 -4.68133 7.93939e-19)
(15.5879 -4.36089 -3.99748e-19)
(15.9036 -4.02308 0)
(16.1994 -3.6691 8.25763e-19)
(16.4746 -3.29965 0)
(16.7279 -2.91602 0)
(16.9586 -2.51927 1.97683e-18)
(17.1659 -2.11062 -8.92771e-19)
(17.3492 -1.69158 -2.1539e-19)
(17.508 -1.26297 2.3012e-19)
(17.6416 -0.826377 0)
(17.7495 -0.383087 5.77549e-20)
(0.0417979 -3.60547 -1.67861e-21)
(0.153762 -3.60193 0)
(0.262444 -3.5992 7.86215e-21)
(0.370803 -3.60415 -8.5195e-22)
(0.480728 -3.6182 0)
(0.59456 -3.64241 -6.53328e-20)
(0.713677 -3.67829 -3.27542e-20)
(0.839747 -3.72593 0)
(0.974091 -3.78608 2.9417e-21)
(1.11796 -3.85853 -2.43089e-20)
(1.27222 -3.94372 -2.2864e-20)
(1.4379 -4.04103 6.9518e-21)
(1.61598 -4.14988 0)
(1.80719 -4.26924 0)
(2.01224 -4.39798 1.8708e-20)
(2.23157 -4.53483 -2.81255e-20)
(2.46563 -4.67837 -3.12596e-20)
(2.71471 -4.82707 0)
(2.97903 -4.97927 1.85542e-19)
(3.25873 -5.13328 -1.96342e-19)
(3.55385 -5.28756 -1.60653e-19)
(3.86429 -5.44046 -1.90504e-19)
(4.18972 -5.59039 0)
(4.5297 -5.73575 -3.8714e-19)
(4.88366 -5.87493 -1.41166e-19)
(5.25104 -6.00634 1.79867e-19)
(5.63112 -6.12843 2.08763e-19)
(6.02312 -6.23981 0)
(6.42615 -6.33909 0)
(6.83926 -6.42501 0)
(7.2614 -6.49634 0)
(7.6914 -6.55198 0)
(8.12812 -6.59088 0)
(8.57027 -6.61212 0)
(9.01647 -6.61493 -1.0923e-18)
(9.4654 -6.59852 3.63701e-19)
(9.91564 -6.56234 -4.1146e-19)
(10.3659 -6.50588 2.08074e-18)
(10.8146 -6.4287 0)
(11.2604 -6.33053 9.0114e-19)
(11.7017 -6.21129 9.41707e-19)
(12.1369 -6.07095 4.65868e-19)
(12.5647 -5.90938 -5.5365e-19)
(12.9835 -5.72683 -1.05744e-18)
(13.392 -5.52354 1.66516e-18)
(13.7886 -5.29975 -5.66898e-19)
(14.1721 -5.05598 -1.16105e-18)
(14.5412 -4.79279 0)
(14.8946 -4.51092 0)
(15.2311 -4.21113 -3.24216e-19)
(15.5496 -3.89442 -3.15143e-19)
(15.8492 -3.5615 -6.49096e-19)
(16.129 -3.21328 -6.8686e-19)
(16.388 -2.85104 0)
(16.6253 -2.47544 -6.77446e-19)
(16.8402 -2.08808 -7.1253e-19)
(17.0322 -1.68964 0)
(17.2005 -1.28217 1.42018e-20)
(17.3443 -0.86598 0)
(17.4635 -0.442698 0)
(17.5581 -0.0133959 -4.38566e-20)
(0.0239868 -3.30718 2.86252e-21)
(0.125114 -3.30627 -6.58601e-21)
(0.227747 -3.30955 1.46532e-20)
(0.333683 -3.32027 6.39158e-21)
(0.444304 -3.33997 0)
(0.560849 -3.3699 2.78026e-20)
(0.684849 -3.41127 2.72197e-20)
(0.817414 -3.46478 0)
(0.95984 -3.53088 4.08932e-21)
(1.11284 -3.60969 2.04236e-20)
(1.27728 -3.70112 -4.21726e-20)
(1.45353 -3.80465 -3.31028e-20)
(1.64219 -3.9195 0)
(1.84374 -4.04457 -1.23422e-21)
(2.05881 -4.17868 -9.47543e-21)
(2.28766 -4.32052 -8.67845e-21)
(2.53065 -4.46859 7.57345e-20)
(2.78802 -4.62126 -6.16932e-20)
(3.05988 -4.77686 8.17671e-20)
(3.34636 -4.93363 1.60423e-19)
(3.64751 -5.09008 2.52218e-19)
(3.96305 -5.24466 1.59743e-19)
(4.29272 -5.39578 7.13234e-20)
(4.6359 -5.54192 3.082e-19)
(4.99209 -5.68148 9.73273e-20)
(5.36065 -5.81295 1.22476e-19)
(5.74086 -5.93488 1.54877e-19)
(6.132 -6.04587 -4.64322e-19)
(6.53318 -6.14472 3.43337e-19)
(6.94342 -6.23019 4.08835e-19)
(7.3618 -6.30116 -8.47113e-19)
(7.78713 -6.35664 4.3794e-19)
(8.21828 -6.39561 -4.77871e-19)
(8.65413 -6.41725 2.3799e-19)
(9.0933 -6.42086 2.71551e-19)
(9.53449 -6.40573 3.10401e-19)
(9.97644 -6.37131 -3.07074e-19)
(10.4178 -6.31718 -3.45164e-19)
(10.8573 -6.24295 -1.02926e-18)
(11.2935 -6.14843 -7.62385e-19)
(11.7248 -6.03357 -1.55163e-18)
(12.15 -5.89831 -2.03252e-18)
(12.5676 -5.74268 8.40327e-19)
(12.976 -5.5668 2.51094e-20)
(13.3741 -5.37094 -4.86249e-19)
(13.7605 -5.15538 -4.74647e-19)
(14.1339 -4.92055 2.88219e-18)
(14.493 -4.66698 -4.84801e-19)
(14.8367 -4.39527 0)
(15.164 -4.10611 0)
(15.4739 -3.80038 -4.87844e-19)
(15.7652 -3.47909 2.79669e-20)
(16.0373 -3.14309 5.34014e-19)
(16.2891 -2.79337 0)
(16.5199 -2.43108 5.78107e-19)
(16.7288 -2.05742 0)
(16.9153 -1.67347 0)
(17.0788 -1.28015 4.41916e-19)
(17.2187 -0.878958 1.38736e-19)
(17.3349 -0.471254 -1.42132e-19)
(17.4269 -0.0584333 7.30942e-20)
(0.0249074 -3.12158 1.33508e-22)
(0.12695 -3.12589 5.38507e-21)
(0.23232 -3.13543 -1.81442e-20)
(0.342481 -3.15191 -1.28437e-20)
(0.458669 -3.1768 2.07389e-20)
(0.582306 -3.2113 -1.35723e-20)
(0.714623 -3.25657 4.10942e-22)
(0.856563 -3.31347 2.89993e-20)
(1.00926 -3.3825 -3.44682e-20)
(1.17307 -3.46388 4.569e-20)
(1.3487 -3.55739 -4.79619e-20)
(1.53622 -3.66255 3.2118e-20)
(1.73605 -3.7784 1.40752e-20)
(1.94838 -3.90392 0)
(2.17387 -4.03784 1.26295e-20)
(2.41249 -4.17902 3.05703e-21)
(2.66454 -4.32586 0)
(2.93024 -4.47676 3.36211e-20)
(3.20944 -4.63002 0)
(3.50242 -4.78385 -8.08612e-20)
(3.80923 -4.93684 8.80606e-20)
(4.12943 -5.08759 3.0372e-21)
(4.46282 -5.23451 -1.67114e-20)
(4.80864 -5.37629 2.12943e-20)
(5.16637 -5.5112 -3.55312e-19)
(5.53544 -5.63786 -2.17541e-19)
(5.91502 -5.75484 4.58079e-19)
(6.30459 -5.86079 5.14472e-19)
(6.70316 -5.95465 -2.93419e-19)
(7.10982 -6.03522 0)
(7.52372 -6.10147 0)
(7.94359 -6.15253 0)
(8.36846 -6.18736 4.09532e-19)
(8.79725 -6.20522 -1.70399e-18)
(9.22862 -6.20556 9.09316e-19)
(9.66126 -6.18765 -4.67082e-19)
(10.0941 -6.15091 -1.03034e-18)
(10.5257 -6.0951 1.05427e-18)
(10.955 -6.0198 3.46302e-20)
(11.3806 -5.92489 -6.19589e-19)
(11.8011 -5.81038 6.51254e-19)
(12.2151 -5.67625 6.79223e-19)
(12.6211 -5.52253 0)
(13.018 -5.3493 -6.94062e-19)
(13.4044 -5.15685 0)
(13.779 -4.94548 -1.13282e-18)
(14.1405 -4.71558 3.43002e-19)
(14.4879 -4.46768 0)
(14.8202 -4.20226 -4.22146e-19)
(15.1361 -3.92014 -1.19218e-20)
(15.4349 -3.62201 9.17631e-19)
(15.7157 -3.30887 -4.30803e-19)
(15.9774 -2.98165 -2.45603e-19)
(16.2194 -2.64129 4.42226e-19)
(16.4409 -2.289 -3.71143e-21)
(16.6409 -1.92567 2.33392e-19)
(16.8189 -1.55251 1.11796e-19)
(16.9744 -1.17041 2.38944e-19)
(17.1071 -0.78055 -6.01111e-19)
(17.2166 -0.384348 2.41541e-19)
(17.3026 0.01674 -3.10712e-20)
(0.0281466 -2.98705 -1.14725e-21)
(0.133332 -2.99807 0)
(0.243451 -3.01453 2.23464e-20)
(0.360103 -3.03753 0)
(0.484035 -3.06826 -1.24539e-20)
(0.617008 -3.10767 -3.98472e-20)
(0.760054 -3.15691 -2.74339e-20)
(0.913933 -3.21677 -5.14383e-20)
(1.07949 -3.28792 2.51468e-21)
(1.25656 -3.3706 2.005e-21)
(1.44567 -3.46455 -5.00153e-21)
(1.64637 -3.56936 1.936e-20)
(1.85907 -3.68406 -1.23886e-20)
(2.08338 -3.80755 3.7195e-20)
(2.32037 -3.93858 -6.32521e-21)
(2.56964 -4.07639 -1.00013e-20)
(2.83123 -4.21918 -5.62756e-21)
(3.10561 -4.36546 -2.89893e-20)
(3.39216 -4.51369 0)
(3.69138 -4.66175 4.50106e-20)
(4.00365 -4.80852 1.9651e-21)
(4.32798 -4.95284 -1.80823e-19)
(4.66464 -5.09309 -1.69771e-20)
(5.01238 -5.22826 -9.62716e-20)
(5.37083 -5.35645 4.11163e-19)
(5.73948 -5.47632 2.2557e-20)
(6.11736 -5.58659 -1.68289e-19)
(6.5043 -5.68574 -3.80388e-20)
(6.89918 -5.77312 0)
(7.30105 -5.84742 0)
(7.70939 -5.90766 0)
(8.12266 -5.9533 0)
(8.53994 -5.98309 0)
(8.96054 -5.99634 5.036e-20)
(9.38295 -5.99279 -3.83432e-19)
(9.80572 -5.97166 -2.88399e-20)
(10.2282 -5.93218 2.77796e-20)
(10.6489 -5.87443 4.00519e-19)
(11.0666 -5.79785 9.69167e-19)
(11.4805 -5.70236 -1.46693e-18)
(11.8889 -5.58827 1.04006e-18)
(12.2906 -5.45542 -5.26167e-19)
(12.684 -5.30399 0)
(13.0681 -5.13377 6.07672e-19)
(13.4417 -4.94523 0)
(13.8034 -4.73865 6.5206e-19)
(14.1522 -4.51427 -6.72968e-19)
(14.4868 -4.27287 3.11041e-19)
(14.8064 -4.01461 3.39597e-19)
(15.1101 -3.74034 -3.58491e-19)
(15.397 -3.45079 3.37843e-20)
(15.6662 -3.14699 -8.55016e-21)
(15.9169 -2.82959 7.37234e-19)
(16.1485 -2.4998 -7.65219e-19)
(16.3601 -2.15869 -3.76582e-19)
(16.5508 -1.80744 -1.8373e-19)
(16.72 -1.44677 -5.9365e-19)
(16.8672 -1.07753 0)
(16.9924 -0.700812 4.02507e-19)
(17.0952 -0.318321 -1.04057e-19)
(17.1752 0.0687977 0)
(0.0379935 -2.87746 0)
(0.147768 -2.89614 0)
(0.263788 -2.91995 -9.96154e-21)
(0.388219 -2.95006 2.29814e-20)
(0.521083 -2.98712 1.13324e-20)
(0.664678 -3.03179 6.10722e-20)
(0.819909 -3.08518 -2.61305e-20)
(0.986837 -3.14787 4.87095e-20)
(1.16705 -3.22088 9.33905e-22)
(1.35844 -3.30432 -7.38884e-20)
(1.56258 -3.39798 8.60585e-20)
(1.77731 -3.50158 0)
(2.00398 -3.614 0)
(2.24055 -3.73424 -5.16833e-20)
(2.48996 -3.86063 -1.39041e-20)
(2.75035 -3.99349 9.36905e-21)
(3.0216 -4.13055 -4.57981e-21)
(3.30508 -4.27051 1.59976e-20)
(3.59874 -4.4122 -3.20369e-20)
(3.90381 -4.55273 -3.91663e-20)
(4.22171 -4.69131 5.35305e-20)
(4.54951 -4.82768 -1.12428e-20)
(4.88937 -4.9594 0)
(5.23841 -5.08674 1.94636e-19)
(5.59682 -5.20687 -3.4341e-19)
(5.96464 -5.31864 1.14198e-19)
(6.33966 -5.42117 2.66159e-19)
(6.72335 -5.51218 -8.06918e-19)
(7.11383 -5.59202 1.67545e-19)
(7.5098 -5.65914 0)
(7.91197 -5.71222 0)
(8.3177 -5.75185 0)
(8.7263 -5.77597 2.69899e-19)
(9.13795 -5.78371 8.50906e-19)
(9.55074 -5.7757 -5.78317e-19)
(9.96238 -5.75123 3.33723e-19)
(10.3737 -5.7083 3.816e-19)
(10.7824 -5.64827 -7.56311e-19)
(11.1875 -5.57003 0)
(11.5887 -5.47333 -7.83067e-19)
(11.984 -5.35941 4.15709e-19)
(12.3725 -5.22753 3.05496e-20)
(12.752 -5.07841 -2.63917e-20)
(13.1223 -4.91095 4.7671e-19)
(13.482 -4.72619 2.65834e-20)
(13.8295 -4.52462 -1.55862e-18)
(14.1644 -4.30569 5.32809e-19)
(14.485 -4.07093 -1.12096e-18)
(14.791 -3.8197 0)
(15.0811 -3.55361 0)
(15.355 -3.27258 1.21092e-18)
(15.6115 -2.97851 -2.8625e-19)
(15.8499 -2.67132 -6.36586e-19)
(16.0701 -2.35206 -3.02353e-19)
(16.2709 -2.02262 9.85607e-19)
(16.4512 -1.68387 4.98241e-19)
(16.6105 -1.33602 1.73841e-19)
(16.7483 -0.980348 -4.39373e-21)
(16.8649 -0.617035 -1.747e-19)
(16.9602 -0.248364 0)
(17.0335 0.124113 0)
(0.0558614 -2.77925 1.17167e-21)
(0.171271 -2.80672 0)
(0.29357 -2.83812 0)
(0.427122 -2.87597 -1.01158e-20)
(0.56938 -2.91954 0)
(0.724643 -2.96988 -4.70012e-20)
(0.892581 -3.02738 -2.39759e-20)
(1.0729 -3.09251 5.0385e-20)
(1.2695 -3.16712 0)
(1.4753 -3.2509 4.35243e-20)
(1.69593 -3.34368 6.68672e-21)
(1.92455 -3.44571 0)
(2.1665 -3.55518 0)
(2.41422 -3.6717 2.62415e-20)
(2.67724 -3.79142 -2.77692e-20)
(2.94931 -3.91858 1.22581e-20)
(3.22939 -4.04883 4.15709e-21)
(3.52266 -4.1812 0)
(3.82264 -4.31599 1.4226e-20)
(4.13278 -4.44757 -2.81012e-20)
(4.45751 -4.57634 -5.03798e-20)
(4.78704 -4.70417 -9.46684e-20)
(5.13069 -4.82574 -2.47185e-20)
(5.48019 -4.94487 -1.50093e-19)
(5.83794 -5.05607 1.46479e-19)
(6.20521 -5.15865 1.76794e-19)
(6.57556 -5.25322 -2.3357e-19)
(6.95583 -5.33454 3.00407e-20)
(7.34152 -5.40643 3.25719e-20)
(7.7298 -5.46623 -2.95855e-19)
(8.12561 -5.51096 0)
(8.52285 -5.54478 -4.00984e-19)
(8.92168 -5.56263 7.95519e-19)
(9.32397 -5.56364 -3.97689e-20)
(9.72669 -5.55132 5.10223e-19)
(10.1251 -5.52463 -5.03052e-19)
(10.5254 -5.47702 5.81166e-19)
(10.9211 -5.41493 6.15334e-19)
(11.312 -5.33504 -1.2231e-18)
(11.6999 -5.23638 6.9666e-19)
(12.0807 -5.1231 6.8026e-19)
(12.4554 -4.99176 1.10043e-18)
(12.8193 -4.8454 -4.02719e-19)
(13.1746 -4.67971 0)
(13.5195 -4.49884 2.98242e-20)
(13.8511 -4.30331 4.53441e-19)
(14.1714 -4.08952 -4.37596e-19)
(14.4761 -3.86275 4.84188e-19)
(14.7671 -3.61844 0)
(15.0419 -3.36158 0)
(15.3016 -3.08914 -3.52005e-20)
(15.5439 -2.80586 5.36664e-19)
(15.7684 -2.50846 0)
(15.9759 -2.19976 2.67545e-19)
(16.165 -1.88317 2.70926e-19)
(16.3338 -1.55813 -5.54963e-19)
(16.4819 -1.22374 -2.71022e-19)
(16.6085 -0.882914 -1.46681e-19)
(16.7149 -0.53296 0)
(16.8021 -0.179512 0)
(16.8676 0.176569 1.73745e-20)
(0.0841624 -2.6844 -3.27471e-21)
(0.206309 -2.72232 8.98795e-21)
(0.334693 -2.76006 8.1382e-22)
(0.479642 -2.80779 -2.01456e-20)
(0.630574 -2.85608 4.28054e-20)
(0.796128 -2.91434 -2.45095e-20)
(0.977082 -2.97579 0)
(1.1698 -3.04062 2.98842e-21)
(1.38586 -3.11808 4.86181e-20)
(1.60341 -3.20024 0)
(1.84411 -3.29206 -8.22956e-20)
(2.08333 -3.3919 3.66858e-20)
(2.3431 -3.49816 -3.88579e-20)
(2.59914 -3.61113 -3.80379e-20)
(2.87792 -3.72042 2.38707e-20)
(3.16133 -3.84315 1.86343e-20)
(3.44715 -3.96575 -4.22993e-20)
(3.75519 -4.08807 3.47819e-20)
(4.05732 -4.21624 0)
(4.36737 -4.33989 -3.09845e-22)
(4.70511 -4.45774 9.29491e-20)
(5.02868 -4.57861 -2.3501e-20)
(5.38451 -4.68504 -1.04186e-19)
(5.72972 -4.79626 1.88192e-19)
(6.08497 -4.89975 0)
(6.45458 -4.99298 -1.51668e-19)
(6.81403 -5.08043 -1.49674e-19)
(7.19257 -5.15044 3.78484e-19)
(7.57448 -5.21526 4.30437e-23)
(7.95087 -5.26893 2.60264e-19)
(8.34318 -5.30217 -5.36785e-19)
(8.72815 -5.33186 8.80328e-19)
(9.11457 -5.34508 -6.6362e-19)
(9.50787 -5.33957 -7.16316e-19)
(9.90289 -5.32192 0)
(10.2833 -5.29352 4.39399e-19)
(10.6772 -5.23865 0)
(11.0567 -5.17789 -5.24265e-21)
(11.4311 -5.09877 5.64894e-19)
(11.8079 -4.99516 -1.03049e-18)
(12.1718 -4.88242 -7.54398e-21)
(12.5335 -4.75212 -1.19874e-18)
(12.8766 -4.61171 0)
(13.2154 -4.44925 -3.59894e-19)
(13.546 -4.27379 1.37539e-18)
(13.8571 -4.08597 -3.51773e-19)
(14.1654 -3.87706 3.8312e-19)
(14.4501 -3.65956 0)
(14.7272 -3.42108 3.99749e-19)
(14.9838 -3.17279 -1.20874e-18)
(15.2295 -2.90631 -2.21026e-20)
(15.4557 -2.63419 0)
(15.6628 -2.34873 4.2252e-19)
(15.8568 -2.05103 -1.68731e-20)
(16.0348 -1.74612 0)
(16.1891 -1.43438 2.48953e-19)
(16.326 -1.12003 -2.21455e-19)
(16.4384 -0.795485 2.34819e-19)
(16.5321 -0.459761 2.32787e-19)
(16.6124 -0.119239 -1.18068e-19)
(16.667 0.221012 -4.44779e-20)
(18.114 0.762772 1.05799e-19)
(18.1585 1.22739 -3.60087e-20)
(18.177 1.69392 0)
(18.1694 2.16052 0)
(18.1358 2.62546 5.65631e-19)
(18.0764 3.08731 8.03234e-19)
(17.991 3.54452 -8.28864e-19)
(17.8799 3.99582 -2.70728e-19)
(17.7433 4.44052 2.70851e-19)
(17.5821 4.87713 5.21813e-19)
(17.3966 5.30496 -5.22474e-19)
(17.1876 5.72209 -4.98361e-19)
(16.9565 6.12693 2.46958e-18)
(16.704 6.51868 4.71286e-19)
(16.4303 6.89629 -4.12059e-18)
(16.1363 7.25844 0)
(15.8229 7.60426 0)
(15.4912 7.9329 4.06534e-19)
(15.1422 8.24385 1.18562e-18)
(14.7766 8.53599 -2.9757e-18)
(14.3959 8.80885 -6.15649e-20)
(14.001 9.06249 6.43326e-19)
(13.5924 9.29603 6.61912e-19)
(13.1712 9.50827 -2.32729e-18)
(12.7392 9.69788 0)
(12.298 9.86467 1.01144e-18)
(11.8486 10.0081 -8.6635e-19)
(11.3924 10.1279 0)
(10.9305 10.2239 0)
(10.4645 10.2958 -3.37748e-19)
(9.9955 10.3436 -5.1955e-19)
(9.52471 10.367 6.50179e-19)
(9.05361 10.3663 0)
(8.58327 10.3415 0)
(8.11515 10.2927 5.88421e-20)
(7.65035 10.2202 1.6302e-20)
(7.19019 10.1241 0)
(6.73595 10.005 -5.05554e-19)
(6.28865 9.86322 -2.02201e-19)
(5.84952 9.69918 6.9227e-19)
(5.4197 9.51335 2.22527e-20)
(5.00051 9.30642 -7.09458e-19)
(4.59275 9.0791 1.0151e-18)
(4.19755 8.83181 -2.15867e-19)
(3.81599 8.56545 0)
(3.44881 8.2808 0)
(3.09697 7.97847 -2.18365e-18)
(2.76134 7.65941 -3.27945e-19)
(2.44286 7.32462 1.08843e-18)
(2.14221 6.97529 3.82308e-19)
(1.85999 6.61226 4.28061e-19)
(1.59694 6.23657 -4.34951e-19)
(1.35375 5.84956 -2.3861e-19)
(1.13073 5.45276 2.42643e-19)
(0.928462 5.04736 -1.29548e-18)
(0.747218 4.63521 1.34389e-18)
(0.587236 4.21805 8.49601e-22)
(0.448343 3.79808 0)
(0.330228 3.37684 2.99886e-19)
(0.232842 2.95587 3.88573e-20)
(0.155994 2.53706 3.97229e-20)
(17.8309 0.0648767 -5.77143e-20)
(17.886 0.515339 0)
(17.9155 0.967428 0)
(17.9192 1.42028 6.5077e-19)
(17.8974 1.8722 -4.34362e-19)
(17.8502 2.32142 -1.52916e-18)
(17.7774 2.76769 0)
(17.679 3.20865 0)
(17.5551 3.64388 -8.12017e-19)
(17.4065 4.07117 0)
(17.234 4.48915 -1.16955e-18)
(17.0386 4.89661 7.71347e-19)
(16.8211 5.29313 -3.81202e-19)
(16.5817 5.67785 0)
(16.3209 6.04967 1.47832e-18)
(16.0395 6.40722 6.69066e-19)
(15.7384 6.74936 -6.71163e-19)
(15.4186 7.07497 6.1483e-19)
(15.0811 7.38341 -1.80027e-18)
(14.7267 7.67354 1.20188e-18)
(14.3569 7.94435 -1.13894e-18)
(13.9722 8.19562 -5.82037e-19)
(13.5737 8.42687 -4.94215e-19)
(13.163 8.63754 1.37901e-18)
(12.7414 8.82637 4.25947e-19)
(12.31 8.9928 3.51138e-19)
(11.8699 9.13637 -2.90659e-19)
(11.4225 9.25663 0)
(10.969 9.35336 0)
(10.5108 9.42608 0)
(10.0491 9.47483 0)
(9.58513 9.49937 0)
(9.1204 9.49965 0)
(8.656 9.47585 0)
(8.19346 9.42786 -2.90118e-20)
(7.7339 9.35594 -1.3196e-20)
(7.27869 9.26021 -1.00018e-19)
(6.82905 9.14109 5.74059e-19)
(6.3861 8.999 1.88048e-19)
(5.95114 8.83428 -5.91109e-19)
(5.52538 8.64739 -4.91984e-19)
(5.11012 8.43889 5.83074e-19)
(4.70626 8.20948 -3.29217e-19)
(4.31507 7.95961 -3.69802e-19)
(3.93762 7.69004 4.52873e-19)
(3.57471 7.40152 -4.59083e-19)
(3.22734 7.09472 1.03396e-18)
(2.89645 6.77053 0)
(2.58304 6.42994 3.12013e-19)
(2.28786 6.07395 -6.49465e-19)
(2.01157 5.7035 3.37902e-19)
(1.75498 5.31956 0)
(1.51888 4.92336 -7.69348e-19)
(1.30351 4.51629 0)
(1.10967 4.0995 0)
(0.937508 3.6747 -1.99068e-18)
(0.787617 3.24341 9.20478e-19)
(0.659899 2.80751 2.38588e-19)
(0.554684 2.36835 -2.47074e-19)
(0.471903 1.92748 0)
(0.411544 1.48617 -6.54876e-20)
(17.6281 0.419496 4.38355e-20)
(17.6729 0.854332 0)
(17.6923 1.28923 -1.74137e-19)
(17.6862 1.72371 -1.42807e-20)
(17.6558 2.15688 0)
(17.6002 2.58904 1.38762e-18)
(17.5197 3.01859 6.7043e-19)
(17.414 3.44361 0)
(17.2837 3.8614 2.76925e-20)
(17.1305 4.2708 6.35541e-19)
(16.9546 4.67023 9.6316e-19)
(16.7561 5.0584 -3.1521e-19)
(16.5357 5.43505 0)
(16.2943 5.79944 0)
(16.0326 6.15061 1.10577e-18)
(15.7515 6.48746 -5.36521e-19)
(15.4517 6.80897 -4.86048e-19)
(15.1343 7.1142 0)
(14.8002 7.40242 1.44788e-18)
(14.4504 7.67274 -1.35518e-18)
(14.086 7.92426 -8.35965e-19)
(13.708 8.15627 -7.84299e-19)
(13.3178 8.36784 0)
(12.9163 8.55849 -1.05707e-18)
(12.5048 8.72787 -3.36017e-19)
(12.0843 8.87547 2.75175e-19)
(11.656 9.00086 2.5971e-19)
(11.2211 9.1037 0)
(10.7809 9.18374 0)
(10.3365 9.24067 0)
(9.88921 9.27436 0)
(9.44024 9.28475 0)
(8.9909 9.27184 0)
(8.54242 9.23567 0)
(8.09613 9.17629 1.41997e-20)
(7.65317 9.09388 -1.95577e-20)
(7.21479 8.98864 8.89479e-20)
(6.78215 8.86092 -5.19934e-19)
(6.35638 8.71114 0)
(5.93868 8.53972 -3.62476e-19)
(5.53023 8.34712 -4.32124e-19)
(5.1322 8.13391 -2.37428e-19)
(4.7456 7.90069 2.96264e-19)
(4.37153 7.64799 6.39795e-19)
(4.01101 7.37651 -1.076e-18)
(3.66487 7.08689 3.72327e-19)
(3.33396 6.77989 8.43011e-19)
(3.01917 6.45636 0)
(2.72135 6.11728 0)
(2.44131 5.76351 2.66067e-19)
(2.17971 5.39601 2.80498e-19)
(1.93715 5.01577 5.8096e-19)
(1.71429 4.62381 6.15103e-19)
(1.51142 4.22144 0)
(1.32915 3.80966 6.67551e-19)
(1.16749 3.39022 7.00733e-19)
(1.02695 2.96439 0)
(0.907657 2.53398 -3.54402e-21)
(0.810323 2.10008 0)
(0.734898 1.66402 0)
(0.681643 1.22656 5.07424e-20)
(17.4947 0.358597 -7.30689e-20)
(17.5383 0.778551 1.4192e-19)
(17.5572 1.20015 -2.77971e-19)
(17.5512 1.62184 -1.52013e-19)
(17.5197 2.04259 0)
(17.4627 2.46198 -5.82025e-19)
(17.382 2.87792 -5.74181e-19)
(17.2784 3.2907 0)
(17.1518 3.69696 3.01023e-20)
(17.0021 4.09571 -5.4389e-19)
(16.8298 4.48583 1.00482e-18)
(16.6354 4.86619 9.79251e-19)
(16.4196 5.2352 0)
(16.1833 5.5919 -4.6563e-19)
(15.9272 5.93536 -9.20345e-19)
(15.6521 6.26447 -4.50116e-19)
(15.3589 6.57836 1.28824e-18)
(15.0484 6.87619 -8.09405e-19)
(14.7217 7.15723 7.70551e-19)
(14.3796 7.42071 1.08768e-18)
(14.0233 7.6659 1.37942e-18)
(13.6539 7.89207 6.68481e-19)
(13.2725 8.09844 2.91693e-19)
(12.8803 8.28436 8.64487e-19)
(12.4782 8.44939 2.46733e-19)
(12.0674 8.59306 2.41366e-19)
(11.6491 8.71502 1.90171e-19)
(11.2245 8.81494 -5.30376e-19)
(10.7948 8.89253 2.87811e-19)
(10.3612 8.94754 2.23054e-19)
(9.9248 8.97982 -3.93481e-19)
(9.48685 8.98937 1.7011e-19)
(9.04861 8.97618 -7.42424e-20)
(8.61134 8.94032 1.78334e-20)
(8.1763 8.8818 1.37991e-21)
(7.74462 8.80078 -5.51742e-20)
(7.3175 8.69747 5.56438e-20)
(6.89601 8.5722 7.60536e-20)
(6.48129 8.42544 3.74792e-19)
(6.07454 8.25762 3.05042e-19)
(5.67692 8.06918 7.37871e-19)
(5.28949 7.86072 1.0781e-18)
(4.91339 7.6328 -4.82393e-19)
(4.54966 7.38598 2.50431e-21)
(4.19926 7.12089 3.07803e-19)
(3.8631 6.8381 3.36531e-19)
(3.54179 6.53843 -2.11219e-18)
(3.23632 6.2227 3.67443e-19)
(2.9474 5.89192 0)
(2.67597 5.54688 0)
(2.4225 5.18843 4.51779e-19)
(2.18771 4.81772 -3.17398e-21)
(1.97212 4.4356 -5.01381e-19)
(1.77596 4.04326 0)
(1.59974 3.64163 -5.50385e-19)
(1.44333 3.23239 0)
(1.3073 2.81685 0)
(1.19161 2.39657 -4.58406e-19)
(1.09737 1.97281 -1.55864e-19)
(1.02443 1.54657 1.5973e-19)
(0.973586 1.11852 -8.22429e-20)
(17.3648 0.421709 1.65927e-21)
(17.4031 0.829502 -1.24076e-19)
(17.4175 1.23901 3.61228e-19)
(17.4078 1.64881 2.38797e-19)
(17.374 2.05758 -3.49583e-19)
(17.3169 2.46315 2.33034e-19)
(17.2363 2.86346 -3.3807e-21)
(17.1322 3.2586 -4.4584e-19)
(17.0057 3.64844 6.75998e-19)
(16.8573 4.03126 -8.73509e-19)
(16.6871 4.40592 8.02617e-19)
(16.4957 4.77113 -8.69174e-19)
(16.2838 5.12567 -4.10126e-19)
(16.0519 5.46855 0)
(15.8011 5.79861 4.17776e-19)
(15.5321 6.11474 3.33298e-19)
(15.2454 6.41621 0)
(14.9421 6.7021 6.43504e-19)
(14.623 6.97174 0)
(14.2892 7.22444 -6.19449e-19)
(13.9418 7.4594 5.01475e-19)
(13.5818 7.67596 -3.8797e-20)
(13.2104 7.87336 -3.84716e-20)
(12.8286 8.05096 -3.14708e-21)
(12.4374 8.20832 -8.53966e-19)
(12.0379 8.345 -3.43672e-19)
(11.6313 8.46066 6.46324e-19)
(11.2187 8.55507 5.23285e-19)
(10.8013 8.62789 -2.51273e-19)
(10.3803 8.67886 0)
(9.95671 8.70781 0)
(9.53166 8.71484 0)
(9.10646 8.69995 6.47114e-20)
(8.68231 8.66324 1.15221e-20)
(8.26053 8.60458 -8.38203e-20)
(7.84207 8.52416 6.60901e-20)
(7.42809 8.42217 3.07302e-19)
(7.01962 8.29891 -3.5603e-19)
(6.61768 8.15493 1.36422e-20)
(6.22353 7.99066 3.04959e-19)
(5.83828 7.80651 -2.97313e-19)
(5.46297 7.60309 -3.73676e-19)
(5.09875 7.38097 0)
(4.74665 7.1407 4.75301e-19)
(4.40761 6.88288 0)
(4.08255 6.60787 8.57933e-19)
(3.77188 6.31665 -2.96315e-19)
(3.47657 6.00997 0)
(3.19719 5.68886 3.57049e-19)
(2.93497 5.35405 1.66172e-20)
(2.69012 5.00628 -7.83689e-19)
(2.46335 4.6467 4.07942e-19)
(2.25531 4.2761 2.26608e-19)
(2.06587 3.89558 -4.39491e-19)
(1.89583 3.50596 5.70667e-21)
(1.74437 3.10876 -2.38453e-19)
(1.61264 2.70531 -1.22397e-19)
(1.50006 2.29717 -2.5661e-19)
(1.40842 1.88561 6.59116e-19)
(1.33734 1.47155 -2.7063e-19)
(1.28843 1.05542 3.47743e-20)
(17.2321 0.45943 2.60905e-20)
(17.2659 0.852489 0)
(17.2764 1.24683 -4.03108e-19)
(17.2636 1.64133 0)
(17.2277 2.03462 2.00136e-19)
(17.1691 2.42527 5.785e-19)
(17.0876 2.81248 3.75526e-19)
(16.9836 3.19434 7.62413e-19)
(16.8578 3.57032 7.48945e-21)
(16.7107 3.93941 -8.43794e-21)
(16.5428 4.30014 -5.60036e-20)
(16.3545 4.65153 -3.52249e-19)
(16.1463 4.99256 3.31533e-19)
(15.919 5.32225 -9.63136e-19)
(15.6736 5.63954 6.52358e-19)
(15.4106 5.94326 -4.29153e-20)
(15.1307 6.23262 -5.59091e-19)
(14.8347 6.50677 -5.73375e-19)
(14.5234 6.76521 0)
(14.198 7.00738 4.75322e-19)
(13.8596 7.2324 -3.63204e-20)
(13.5092 7.43965 -8.99494e-19)
(13.148 7.62841 -1.14836e-21)
(12.777 7.79792 -3.1447e-19)
(12.3971 7.94787 9.40776e-19)
(12.0093 8.07778 -3.75124e-20)
(11.6147 8.18743 -2.77125e-19)
(11.2144 8.27667 -5.76075e-20)
(10.8099 8.34509 0)
(10.4021 8.39243 0)
(9.99195 8.41841 0)
(9.58041 8.42341 0)
(9.16888 8.40736 0)
(8.7585 8.37048 4.00339e-20)
(8.35074 8.31238 7.58541e-20)
(7.94622 8.23328 4.03651e-20)
(7.54614 8.13335 4.3052e-20)
(7.15145 8.01277 -1.9981e-19)
(6.76292 7.87228 -4.53951e-19)
(6.38195 7.71239 7.89836e-19)
(6.00976 7.53334 -5.81111e-19)
(5.64709 7.33584 3.4735e-19)
(5.29527 7.1205 0)
(4.95536 6.88785 -4.21294e-19)
(4.6282 6.6385 0)
(4.31496 6.3724 -5.01237e-19)
(4.01529 6.09081 5.40146e-19)
(3.73074 5.79441 -2.81423e-19)
(3.46124 5.4844 -2.99796e-19)
(3.20869 5.16121 3.32119e-19)
(2.97283 4.82553 9.61694e-21)
(2.75441 4.47868 1.2482e-20)
(2.55431 4.12108 -7.43693e-19)
(2.37188 3.75396 7.82258e-19)
(2.20841 3.37771 4.04128e-19)
(2.06205 2.99418 2.0598e-19)
(1.93494 2.6043 6.48456e-19)
(1.82512 2.2099 0)
(1.73604 1.81224 -4.58331e-19)
(1.66654 1.41242 1.1798e-19)
(1.61963 1.01037 0)
(17.0844 0.499925 0)
(17.1129 0.877842 0)
(17.119 1.25689 1.75513e-19)
(17.1025 1.63572 -3.31197e-19)
(17.0638 2.01335 -1.71595e-19)
(17.0032 2.38847 -8.25638e-19)
(16.9209 2.75964 3.14277e-19)
(16.8167 3.12564 -6.55929e-19)
(16.6913 3.4863 1.49594e-20)
(16.5456 3.84043 9.05861e-19)
(16.3802 4.18614 -1.203e-18)
(16.195 4.52269 0)
(15.9907 4.84896 0)
(15.768 5.16465 1.09764e-18)
(15.5281 5.46843 5.16853e-19)
(15.2717 5.7586 -1.05235e-18)
(14.999 6.03487 1.4664e-18)
(14.7107 6.29632 4.47765e-19)
(14.4075 6.54262 -8.67453e-19)
(14.0908 6.77353 -4.29183e-19)
(13.7618 6.98774 3.69317e-19)
(13.4215 7.185 -6.45463e-20)
(13.0711 7.36458 0)
(12.7116 7.52525 6.29699e-19)
(12.3435 7.6672 -8.20199e-19)
(11.968 7.78982 2.53346e-19)
(11.5862 7.89283 3.84484e-19)
(11.199 7.97659 -8.51421e-19)
(10.8082 8.04025 1.57177e-19)
(10.4144 8.08387 0)
(10.0189 8.10653 0)
(9.62163 8.10959 0)
(9.22486 8.09237 -1.40727e-20)
(8.82916 8.05586 -1.10936e-19)
(8.43676 7.99866 1.50164e-19)
(8.04735 7.92128 -1.19924e-19)
(7.66241 7.82395 -1.40991e-19)
(7.28293 7.70637 3.34813e-19)
(6.90881 7.56979 0)
(6.54197 7.41491 5.2176e-19)
(6.184 7.24154 -2.64248e-19)
(5.83471 7.05055 7.05841e-21)
(5.49594 6.84276 1.29508e-20)
(5.1691 6.6186 -3.70127e-19)
(4.85436 6.37895 -1.33893e-20)
(4.55423 6.12257 1.36051e-18)
(4.26609 5.85186 -4.72212e-19)
(3.99327 5.56666 1.03759e-18)
(3.7338 5.26918 0)
(3.49197 4.95906 0)
(3.26567 4.63666 -1.2212e-18)
(3.05581 4.30408 3.11986e-19)
(2.86476 3.96105 6.63209e-19)
(2.68951 3.60895 3.47806e-19)
(2.5339 3.24742 -1.07986e-18)
(2.39256 2.87902 -5.63239e-19)
(2.2709 2.50405 -1.95948e-19)
(2.16326 2.12494 -3.57091e-22)
(2.07722 1.74288 2.0327e-19)
(2.00861 1.35922 0)
(1.96422 0.973237 0)
(16.9116 0.536155 -1.73961e-20)
(16.9338 0.897583 0)
(16.9346 1.26002 0)
(16.9138 1.62226 1.48183e-19)
(16.8718 1.98311 0)
(16.8093 2.34152 5.61094e-19)
(16.7265 2.69571 2.73506e-19)
(16.6221 3.04448 -5.34805e-19)
(16.4967 3.38927 0)
(16.3526 3.7282 -5.40937e-19)
(16.1907 4.05708 3.99516e-20)
(16.009 4.3779 0)
(15.8092 4.6879 0)
(15.5913 4.98846 -4.80918e-19)
(15.3572 5.27858 4.25881e-19)
(15.1085 5.5539 -4.44412e-19)
(14.8436 5.8163 -4.2437e-19)
(14.5637 6.06452 0)
(14.2699 6.29712 3.81248e-19)
(13.9625 6.5162 -6.50078e-19)
(13.6441 6.71863 -6.04122e-19)
(13.3145 6.90516 -6.19892e-19)
(12.9752 7.07563 -2.07967e-21)
(12.6287 7.22637 -4.03815e-19)
(12.273 7.36002 4.60797e-19)
(11.9104 7.47528 3.53524e-19)
(11.5429 7.57047 -3.50322e-19)
(11.1691 7.64888 4.89535e-20)
(10.7931 7.70722 -6.9663e-21)
(10.4135 7.74803 -1.80696e-19)
(10.0343 7.76628 0)
(9.65137 7.76838 -4.76628e-22)
(9.27101 7.74941 -4.74947e-20)
(8.89022 7.71482 -3.36007e-20)
(8.5156 7.6589 -1.36499e-19)
(8.14286 7.58348 2.27899e-19)
(7.77449 7.48967 -3.06196e-19)
(7.41256 7.37537 -4.09734e-19)
(7.05382 7.24329 7.81855e-19)
(6.702 7.09419 -4.53501e-19)
(6.36023 6.92731 -5.32145e-19)
(6.02433 6.74345 -8.81477e-19)
(5.69899 6.54385 3.20504e-19)
(5.38643 6.32905 0)