/*--------------------------------*- C++ -*----------------------------------*\
| =========                 |                                                 |
| \\      /  F ield         | OpenFOAM: The Open Source CFD Toolbox           |
|  \\    /   O peration     | Version:  2.3.1                                 |
|   \\  /    A nd           | Web:      www.OpenFOAM.org                      |
|    \\/     M anipulation  |                                                 |
\*---------------------------------------------------------------------------*/
FoamFile
{
    version     2.0;
    format      ascii;
    class       volVectorField;
    location    "700";
    object      D;
}
// * * * * * * * * * * * * * * * * * * * * * * * * * * * * * * * * * * * * * //

dimensions      [0 1 0 0 0 0 0];

internalField   nonuniform List<vector> 
11800
(
(3.16223e-06 9.61731e-05 0)
(-4.11929e-06 0.000106693 0)
(2.31955e-06 3.43551e-05 0)
(-2.69033e-06 4.59031e-05 0)
(-3.76798e-06 0.00010652 0)
(-1.75903e-06 4.59882e-05 0)
(-6.66075e-07 7.31671e-05 0)
(-6.41562e-07 5.7215e-05 0)
(2.84715e-07 9.67065e-06 0)
(4.69975e-07 3.55604e-05 0)
(3.51731e-06 9.5955e-05 0)
(-3.37201e-06 3.94926e-05 0)
(-3.91669e-09 -3.11801e-09 0)
(2.0578e-06 3.41602e-05 0)
(-2.39089e-06 4.60853e-05 0)
(2.5382e-06 6.03419e-06 0)
(-3.94389e-07 7.2965e-05 0)
(-3.86528e-07 5.70218e-05 0)
(1.51509e-07 9.77361e-06 0)
(2.74072e-07 3.53946e-05 0)
(-2.06228e-06 4.58286e-05 0)
(-3.09278e-06 3.96407e-05 0)
(-5.85105e-07 2.20733e-06 0)
(-6.23594e-07 2.29585e-06 0)
(2.24731e-06 6.86326e-06 0)
(-9.22107e-07 3.60405e-06 0)
(-3.40781e-06 2.4271e-05 0)
(4.55871e-06 6.59621e-05 0)
(-3.08928e-06 1.86777e-05 0)
(-2.72525e-06 1.3639e-05 0)
(4.80321e-06 8.23884e-05 0)
(1.65059e-08 1.7312e-06 0)
(1.16369e-06 4.59394e-06 0)
(-2.52579e-06 0.000109386 0)
(1.95008e-06 0.000108909 0)
(-5.57941e-06 8.77162e-05 0)
(1.81284e-06 0.000109272 0)
(1.14375e-06 4.71889e-06 0)
(-6.51614e-07 7.70626e-05 0)
(4.67533e-07 3.8837e-05 0)
(-3.34891e-06 2.45283e-05 0)
(-3.0387e-06 1.89115e-05 0)
(4.45304e-06 6.56059e-05 0)
(-2.68356e-06 1.38483e-05 0)
(4.69555e-06 8.20154e-05 0)
(2.41877e-06 6.08144e-06 0)
(6.50712e-07 2.59963e-06 0)
(7.27047e-07 2.5591e-06 0)
(-9.95599e-07 7.7125e-05 0)
(7.52608e-07 3.88883e-05 0)
(-5.36347e-06 5.79264e-05 0)
(-5.67854e-06 7.38786e-05 0)
(-5.72272e-07 9.51881e-05 0)
(2.63991e-08 1.64523e-06 0)
(-3.12894e-06 7.14249e-06 0)
(4.47168e-07 3.96343e-07 0)
(-6.95778e-06 0.000110832 0)
(-1.85681e-06 3.31483e-05 0)
(1.97975e-06 4.72628e-05 0)
(-1.36364e-06 3.19201e-05 0)
(8.79715e-07 1.24121e-06 0)
(-9.44274e-07 9.52563e-05 0)
(-1.62035e-06 3.30781e-05 0)
(1.72011e-06 4.73452e-05 0)
(2.10495e-06 6.76286e-06 0)
(-6.63905e-06 9.84419e-05 0)
(-5.56357e-06 5.7688e-05 0)
(-5.91009e-06 7.36189e-05 0)
(-6.61068e-06 0.000110659 0)
(-9.66397e-07 3.7172e-06 0)
(-2.25781e-06 0.000109681 0)
(-3.94395e-06 0.000109109 0)
(-4.05704e-06 0.000108736 0)
(-4.35735e-08 5.2661e-08 0)
(9.39441e-07 1.29287e-06 0)
(-5.25855e-06 8.79503e-05 0)
(2.72057e-06 9.36606e-06 0)
(-6.74602e-06 9.87947e-05 0)
(-5.3823e-06 9.9595e-05 0)
(-5.03226e-06 9.99141e-05 0)
(-2.98421e-06 7.04913e-06 0)
(3.62668e-07 4.02372e-05 0)
(3.61179e-06 0.000108285 0)
(3.21798e-06 0.000108349 0)
(-5.33495e-07 4.12864e-05 0)
(-2.60357e-06 1.52769e-05 0)
(4.33952e-06 7.95422e-05 0)
(-2.91993e-06 2.05073e-05 0)
(-3.19901e-06 2.62778e-05 0)
(4.1072e-06 6.32513e-05 0)
(-1.75854e-07 9.32178e-05 0)
(1.24054e-06 4.37394e-06 0)
(-3.36481e-06 0.00010021 0)
(6.79412e-06 0.000111649 0)
(1.05885e-06 5.02856e-05 0)
(-1.04414e-09 -7.94252e-10 0)
(2.68155e-11 -1.67089e-10 0)
(1.03426e-09 -7.86887e-10 0)
(-1.27363e-07 9.63086e-05 0)
(-3.19964e-06 4.03138e-05 0)
(5.83853e-06 0.000111264 0)
(3.61387e-06 4.40443e-05 0)
(-1.51629e-06 6.30908e-06 0)
(-3.55146e-07 4.91668e-06 0)
(-2.46569e-07 0.000106061 0)
(3.81954e-07 1.00973e-05 0)
(-8.10323e-07 5.64268e-05 0)
(-8.32802e-07 7.23017e-05 0)
(1.3473e-06 2.43017e-06 0)
(2.87776e-06 2.04966e-05 0)
(2.57078e-06 1.52669e-05 0)
(3.14963e-06 2.62654e-05 0)
(-4.50322e-06 7.95527e-05 0)
(-4.26616e-06 6.32645e-05 0)
(6.20866e-07 3.48789e-05 0)
(1.06565e-06 2.2233e-06 0)
(6.47487e-06 9.88289e-05 0)
(-2.72524e-06 0.000101335 0)
(1.08669e-06 2.14414e-06 0)
(-5.08298e-07 3.59764e-05 0)
(-3.23899e-07 9.42597e-06 0)
(5.49212e-07 7.36764e-05 0)
(5.2444e-07 5.7675e-05 0)
(-8.76783e-07 7.08127e-05 0)
(-3.38632e-06 0.000100572 0)
(-3.47761e-07 9.60207e-05 0)
(-2.1949e-06 0.000106101 0)
(-5.528e-07 0.000105824 0)
(-7.46701e-06 0.000114376 0)
(-7.73304e-06 0.000114108 0)
(-2.68169e-07 1.23749e-07 0)
(-1.16628e-06 2.86275e-06 0)
(4.45568e-06 7.72977e-05 0)
(-2.77976e-06 1.66318e-05 0)
(4.20554e-06 6.11301e-05 0)
(-3.09533e-06 2.20136e-05 0)
(-3.37441e-06 2.79191e-05 0)
(4.10704e-06 7.73647e-05 0)
(-2.56396e-06 1.65853e-05 0)
(3.87667e-06 6.11928e-05 0)
(-2.85593e-06 2.19631e-05 0)
(-3.11418e-06 2.78649e-05 0)
(-7.12222e-07 8.75749e-06 0)
(1.41166e-06 7.50121e-05 0)
(1.32621e-06 5.89725e-05 0)
(-1.24376e-06 3.7078e-05 0)
(5.74586e-06 4.04637e-05 0)
(-5.80943e-06 3.96344e-05 0)
(3.55246e-06 4.43445e-05 0)
(-4.9154e-07 5.2066e-06 0)
(-3.73747e-06 9.28073e-05 0)
(-3.70575e-06 9.32767e-05 0)
(1.74304e-06 0.000108107 0)
(-4.17289e-06 8.78316e-05 0)
(1.61468e-06 6.32235e-05 0)
(1.74249e-06 7.95036e-05 0)
(-4.66037e-06 7.05207e-05 0)
(-4.36928e-06 5.47546e-05 0)
(2.40777e-06 1.10772e-05 0)
(-3.94141e-07 9.35518e-05 0)
(1.46584e-06 2.47123e-06 0)
(-3.81823e-06 8.79142e-05 0)
(2.84708e-06 9.49537e-06 0)
(-1.82448e-06 2.72906e-05 0)
(-1.6695e-06 2.14326e-05 0)
(-1.49427e-06 1.61039e-05 0)
(2.26589e-06 6.18793e-05 0)
(2.39929e-06 7.8094e-05 0)
(-1.32322e-06 1.7164e-06 0)
(-2.25511e-06 1.06763e-05 0)
(4.24753e-06 7.12612e-05 0)
(3.9776e-06 5.54539e-05 0)
(9.09064e-07 7.22266e-05 0)
(-6.3497e-06 8.73275e-05 0)
(-6.41314e-06 8.78262e-05 0)
(2.59197e-06 6.87265e-06 0)
(2.59196e-06 7.05512e-06 0)
(2.66596e-06 1.9935e-05 0)
(2.92351e-06 2.56522e-05 0)
(2.37509e-06 1.47628e-05 0)
(-4.01326e-06 6.40681e-05 0)
(-4.23205e-06 8.04084e-05 0)
(1.64389e-06 6.28505e-05 0)
(1.75283e-06 7.91218e-05 0)
(1.84647e-06 3.94925e-05 0)
(-9.52618e-07 3.69997e-05 0)
(-5.46589e-07 8.80092e-06 0)
(1.05652e-06 7.49172e-05 0)
(9.91485e-07 5.8883e-05 0)
(-1.49197e-06 9.15961e-05 0)
(-5.62683e-07 1.77565e-05 0)
(-6.24902e-07 2.32639e-05 0)
(-5.47177e-06 9.7716e-05 0)
(-1.87613e-07 4.30254e-06 0)
(-5.39739e-06 4.79761e-05 0)
(4.69485e-06 3.26057e-05 0)
(6.46528e-08 6.7158e-08 0)
(-3.29831e-06 0.000109553 0)
(6.4295e-06 9.92099e-05 0)
(-2.33149e-07 1.46325e-07 0)
(4.21493e-06 0.000103784 0)
(5.28064e-06 8.92965e-05 0)
(5.66804e-06 8.93662e-05 0)
(-2.23204e-07 0.000106578 0)
(-4.90261e-07 0.000106906 0)
(3.12935e-06 3.18685e-05 0)
(2.75813e-06 3.20019e-05 0)
(-3.69245e-06 4.87453e-05 0)
(-3.25957e-06 4.85854e-05 0)
(2.61663e-07 1.20499e-07 0)
(-7.02112e-07 6.20477e-06 0)
(-8.0013e-07 3.52993e-06 0)
(-1.95359e-08 7.42178e-09 0)
(2.3866e-06 4.14836e-06 0)
(-6.08167e-08 1.94678e-08 0)
(2.99615e-07 3.46936e-06 0)
(-3.73362e-06 0.000106038 0)
(-1.99855e-06 1.49294e-05 0)
(-2.24032e-06 2.01266e-05 0)
(-2.45831e-06 2.58636e-05 0)
(3.33264e-06 8.01027e-05 0)
(3.16561e-06 6.37872e-05 0)
(1.69085e-07 7.47856e-05 0)
(1.55673e-07 5.87581e-05 0)
(-1.28346e-07 8.8614e-06 0)
(-2.31818e-07 3.68964e-05 0)
(-8.95234e-08 1.47585e-08 0)
(2.89199e-07 1.09749e-05 0)
(-6.12592e-07 5.48537e-05 0)
(-1.7806e-06 3.57132e-05 0)
(4.13111e-07 1.08206e-05 0)
(-8.4152e-07 5.51264e-05 0)
(-2.56977e-06 0.000100559 0)
(3.17603e-06 3.9762e-05 0)
(2.95728e-06 3.94759e-05 0)
(1.92449e-08 7.28592e-09 0)
(8.84872e-08 1.45298e-08 0)
(-4.92779e-06 9.38823e-05 0)
(-4.74284e-06 9.42627e-05 0)
(-4.86177e-06 3.40133e-05 0)
(5.26556e-06 4.63681e-05 0)
(4.10033e-06 8.03743e-05 0)
(3.88409e-06 6.40391e-05 0)
(-2.42611e-06 1.47851e-05 0)
(-2.72909e-06 1.99587e-05 0)
(-2.99592e-06 2.56783e-05 0)
(-2.07082e-07 9.5653e-05 0)
(-2.08924e-06 1.0234e-05 0)
(4.01088e-06 7.21037e-05 0)
(3.76024e-06 5.62425e-05 0)
(2.52538e-06 4.01526e-05 0)
(2.04052e-06 9.04399e-05 0)
(3.23812e-06 0.000111778 0)
(3.87049e-07 3.42055e-06 0)
(-1.32499e-06 3.22277e-05 0)
(-1.05556e-08 1.30416e-06 0)
(6.00215e-08 1.9146e-08 0)
(1.18722e-06 3.38947e-05 0)
(1.01628e-06 3.35623e-05 0)
(-1.35515e-06 4.64542e-05 0)
(-1.16762e-06 4.67762e-05 0)
(2.38031e-06 2.58542e-05 0)
(2.17213e-06 2.01182e-05 0)
(1.93752e-06 1.49245e-05 0)
(-3.27583e-06 6.37877e-05 0)
(-3.4548e-06 8.01139e-05 0)
(-1.85727e-06 0.000109585 0)
(7.43646e-07 9.66279e-07 0)
(-4.99601e-08 6.47225e-05 0)
(-3.31269e-08 1.43244e-05 0)
(2.3392e-06 0.000105881 0)
(1.97761e-06 3.92242e-05 0)
(-7.64835e-06 0.000104673 0)
(2.27449e-06 4.04248e-05 0)
(1.08139e-07 8.42763e-08 0)
(6.19334e-06 8.62962e-05 0)
(6.2298e-06 8.58349e-05 0)
(-3.91961e-06 5.63111e-05 0)
(-4.17937e-06 7.21717e-05 0)
(-3.50731e-06 5.61781e-05 0)
(-3.74029e-06 7.20307e-05 0)
(2.06383e-06 1.01961e-05 0)
(1.8471e-06 1.02616e-05 0)
(1.84299e-06 5.19929e-05 0)
(2.20143e-06 5.19358e-05 0)
(1.97554e-06 6.75612e-05 0)
(2.36074e-06 6.74997e-05 0)
(-1.17241e-06 1.26732e-05 0)
(-1.39166e-06 1.27122e-05 0)
(-2.65576e-07 5.89287e-06 0)
(1.26934e-06 3.8161e-06 0)
(1.18883e-06 3.68871e-06 0)
(1.22585e-06 2.81594e-06 0)
(1.73649e-06 9.0811e-05 0)
(-6.24877e-06 8.64509e-05 0)
(-6.28227e-06 8.59716e-05 0)
(2.66378e-06 7.64358e-06 0)
(2.61453e-06 7.43421e-06 0)
(5.03449e-06 4.04741e-05 0)
(5.09929e-06 4.09002e-05 0)
(-5.09799e-06 3.96069e-05 0)
(-5.12805e-06 3.91868e-05 0)
(2.16325e-06 0.000108037 0)
(-6.13757e-06 0.000109395 0)
(-5.89664e-06 9.27318e-05 0)
(1.65184e-06 1.95972e-06 0)
(-3.62577e-06 0.000108072 0)
(-3.24335e-06 0.000107715 0)
(1.48945e-06 5.25514e-05 0)
(-1.00639e-06 4.75373e-05 0)
(8.30521e-07 3.2911e-05 0)
(-4.37133e-06 4.06188e-05 0)
(4.1992e-06 3.94297e-05 0)
(-2.29903e-06 7.52079e-06 0)
(-7.28837e-08 4.82579e-08 0)
(3.68943e-07 1.62915e-06 0)
(3.47293e-07 3.49828e-05 0)
(-3.71964e-06 3.52115e-05 0)
(3.84648e-06 4.4972e-05 0)
(-2.17195e-06 3.2239e-05 0)
(2.41757e-06 4.83176e-05 0)
(1.1707e-06 8.15645e-05 0)
(1.63472e-06 8.13976e-05 0)
(-8.15842e-07 1.91634e-05 0)
(-1.11363e-06 1.92726e-05 0)
(-8.99637e-07 2.48115e-05 0)
(-1.22689e-06 2.49309e-05 0)
(1.95459e-07 1.00314e-05 0)
(-4.65016e-07 5.65459e-05 0)
(-4.66487e-07 7.24354e-05 0)
(-7.28124e-07 0.000104186 0)
(1.11996e-06 2.79913e-06 0)
(-2.41202e-07 4.63902e-05 0)
(-2.94111e-06 0.000106699 0)
(4.82192e-07 4.10502e-07 0)
(2.54695e-06 6.50142e-05 0)
(-1.57923e-06 1.41728e-05 0)
(-4.5142e-06 4.68489e-05 0)
(-4.24361e-06 4.66298e-05 0)
(3.94982e-06 3.35641e-05 0)
(3.71899e-06 3.37565e-05 0)
(-4.37915e-06 0.0001111 0)
(-4.42666e-06 0.00011064 0)
(-8.41335e-07 5.92786e-06 0)
(-9.9491e-07 5.90593e-06 0)
(4.04103e-07 1.70515e-06 0)
(-9.85762e-07 1.7665e-06 0)
(1.60261e-07 4.85388e-05 0)
(1.39108e-06 1.03763e-05 0)
(1.16564e-06 1.04402e-05 0)
(-2.65144e-06 5.59473e-05 0)
(-2.23117e-06 5.58229e-05 0)
(-2.82738e-06 7.17879e-05 0)
(-2.37904e-06 7.16559e-05 0)
(-5.66029e-06 8.98764e-05 0)
(-5.24157e-06 8.99103e-05 0)
(-1.33956e-06 2.9037e-05 0)
(-1.2568e-06 2.30332e-05 0)
(-1.1324e-06 1.75482e-05 0)
(1.72131e-06 8.41342e-05 0)
(-3.60171e-07 9.47631e-05 0)
(3.77343e-06 3.93951e-05 0)
(3.56814e-06 3.97172e-05 0)
(1.59062e-06 7.3316e-05 0)
(1.53455e-06 5.73586e-05 0)
(-8.55954e-07 9.59954e-06 0)
(7.58478e-07 1.06974e-05 0)
(6.19105e-07 1.0897e-05 0)
(-1.32602e-06 7.07993e-05 0)
(-1.56786e-06 7.11447e-05 0)
(-1.46936e-06 5.53508e-05 0)
(-1.20689e-06 5.49946e-05 0)
(-1.68006e-06 9.84114e-06 0)
(3.06744e-06 5.69419e-05 0)
(3.26905e-06 7.28505e-05 0)
(-5.1723e-08 4.98944e-07 0)
(5.58645e-06 4.4598e-05 0)
(-5.29634e-06 3.56506e-05 0)
(-3.03513e-08 4.65048e-07 0)
(-1.70519e-06 8.036e-05 0)
(-1.99125e-06 8.07804e-05 0)
(-1.57842e-06 6.40553e-05 0)
(-1.83977e-06 6.44554e-05 0)
(1.04446e-06 1.45027e-05 0)
(8.94643e-07 1.47456e-05 0)
(1.2085e-06 1.96719e-05 0)
(1.03125e-06 1.99432e-05 0)
(1.32602e-06 2.53683e-05 0)
(1.13014e-06 2.56655e-05 0)
(6.13033e-06 9.00381e-05 0)
(6.24535e-06 9.04753e-05 0)
(-6.95967e-07 3.5581e-06 0)
(2.28487e-06 6.53198e-05 0)
(-1.41379e-06 1.39864e-05 0)
(2.26193e-06 1.11692e-05 0)
(-4.09371e-06 5.45841e-05 0)
(-4.37638e-06 7.03287e-05 0)
(-7.09386e-08 2.16577e-08 0)
(7.46241e-07 9.36698e-05 0)
(2.23918e-06 1.06765e-05 0)
(-4.14694e-06 5.54529e-05 0)
(-4.43163e-06 7.1243e-05 0)
(1.79455e-06 3.25178e-06 0)
(-3.1072e-06 0.000101195 0)
(2.17432e-06 8.59817e-06 0)
(-4.87342e-06 8.37908e-05 0)
(-1.21521e-06 4.73093e-06 0)
(-1.2944e-06 4.89831e-06 0)
(1.24247e-06 4.84756e-06 0)
(-5.80315e-07 4.63225e-05 0)
(-5.00293e-09 -3.68125e-09 0)
(-3.29641e-06 0.000110512 0)
(-6.35423e-08 2.56149e-08 0)
(6.99866e-08 2.12869e-08 0)
(-1.7204e-06 1.0359e-05 0)
(3.26383e-06 7.18394e-05 0)
(3.05852e-06 5.59936e-05 0)
(2.4886e-06 9.38112e-05 0)
(-7.3641e-06 0.000100364 0)
(9.17439e-07 4.35267e-05 0)
(-6.66251e-07 4.24551e-05 0)
(-2.06638e-07 4.9443e-06 0)
(-5.71287e-07 6.32609e-07 0)
(-3.6099e-09 -3.25042e-09 0)
(-1.95159e-06 3.25227e-05 0)
(2.16317e-06 4.79993e-05 0)
(1.95719e-07 6.89106e-08 0)
(-2.95587e-07 4.18664e-05 0)
(-2.81455e-07 4.14854e-05 0)
(-4.98524e-08 3.55079e-05 0)
(-7.02628e-08 9.71717e-06 0)
(3.3717e-08 5.71263e-05 0)
(2.42647e-08 7.31023e-05 0)
(-1.98558e-07 7.01488e-08 0)
(7.42351e-07 5.33233e-06 0)
(-2.57461e-06 8.24891e-05 0)
(1.54258e-06 1.85838e-05 0)
(1.70018e-06 2.41737e-05 0)
(1.8377e-06 3.02632e-05 0)
(5.24819e-06 0.000106231 0)
(-2.23492e-06 9.30726e-06 0)
(4.5072e-06 7.39642e-05 0)
(4.23614e-06 5.79901e-05 0)
(-3.06e-06 9.82931e-05 0)
(5.20601e-07 1.42866e-06 0)
(3.99767e-06 9.6542e-05 0)
(-1.05281e-06 1.74015e-06 0)
(2.78487e-06 0.000106638 0)
(-2.22634e-06 8.24976e-05 0)
(1.32372e-06 1.85767e-05 0)
(1.45887e-06 2.41664e-05 0)
(1.57768e-06 3.02536e-05 0)
(4.54397e-07 1.35612e-06 0)
(1.83182e-06 6.68833e-05 0)
(-1.10783e-06 1.30615e-05 0)
(-3.97277e-07 5.31225e-06 0)
(-5.37273e-06 9.68697e-05 0)
(-2.13736e-06 2.73856e-05 0)
(-1.95664e-06 2.15204e-05 0)
(-1.75232e-06 1.61835e-05 0)
(2.65301e-06 6.17837e-05 0)
(2.8091e-06 7.79923e-05 0)
(7.2592e-06 0.000112358 0)
(4.19911e-06 9.90774e-05 0)
(4.66185e-06 9.8914e-05 0)
(7.31716e-08 5.40096e-08 0)
(2.7317e-06 3.23497e-05 0)
(-3.21027e-06 4.81829e-05 0)
(-1.45242e-06 3.27869e-05 0)
(1.56213e-06 4.77114e-05 0)
(-5.0904e-07 5.11685e-05 0)
(-3.94103e-07 8.08591e-05 0)
(1.97388e-07 2.53075e-05 0)
(1.81064e-07 1.96155e-05 0)
(-1.30431e-08 1.40425e-05 0)
(-1.23541e-07 4.98078e-05 0)
(-8.29369e-08 6.52068e-05 0)
(3.28976e-06 0.00011221 0)
(2.05133e-07 5.46554e-06 0)
(-1.05419e-07 1.3229e-06 0)
(5.94166e-07 6.90009e-05 0)
(3.2181e-08 1.36673e-06 0)
(-5.91709e-07 4.12373e-06 0)
(1.34893e-06 1.40082e-05 0)
(-2.40092e-06 6.52794e-05 0)
(-5.82824e-08 6.93661e-08 0)
(-4.98031e-06 9.68263e-05 0)
(-4.85773e-07 9.53902e-06 0)
(8.29193e-07 7.34722e-05 0)
(8.30532e-07 5.74639e-05 0)
(1.37767e-07 3.2807e-08 0)
(-1.74048e-06 3.30679e-06 0)
(1.68924e-06 2.47394e-05 0)
(1.53582e-06 1.90988e-05 0)
(-2.53263e-06 8.16778e-05 0)
(4.59265e-07 3.37383e-05 0)
(-3.38797e-06 0.000109139 0)
(-6.98132e-08 9.68671e-09 0)
(-2.24598e-06 5.09714e-06 0)
(1.46225e-06 2.86028e-06 0)
(-1.51594e-06 1.73552e-06 0)
(3.79455e-06 4.00735e-05 0)
(2.83935e-06 4.81919e-05 0)
(-2.58429e-06 3.23402e-05 0)
(1.67394e-07 1.39056e-05 0)
(-4.58244e-07 4.99855e-05 0)
(-3.89006e-07 6.5436e-05 0)
(3.48991e-06 9.549e-05 0)
(3.34772e-06 4.3659e-05 0)
(1.66366e-06 0.000109951 0)
(1.60074e-06 0.000110347 0)
(4.44193e-07 4.79819e-05 0)
(6.42985e-07 3.35001e-05 0)
(6.89988e-08 9.53073e-09 0)
(-4.81416e-06 8.69581e-05 0)
(1.97142e-06 7.18633e-06 0)
(6.4886e-09 1.12276e-07 0)
(8.70314e-07 6.31942e-05 0)
(1.15208e-06 6.34009e-05 0)
(1.9616e-09 1.00781e-08 0)
(-1.08951e-06 2.77415e-06 0)
(2.37637e-06 2.51285e-05 0)
(2.16325e-06 1.94553e-05 0)
(1.92401e-06 1.43114e-05 0)
(-3.31551e-06 6.4726e-05 0)
(-3.49284e-06 8.11365e-05 0)
(3.04853e-06 4.16741e-05 0)
(3.82792e-07 9.37659e-05 0)
(-1.99421e-06 0.000105231 0)
(-1.89097e-06 0.000105765 0)
(-2.37594e-07 8.21053e-05 0)
(-2.11308e-07 8.25347e-05 0)
(1.13538e-07 1.85387e-05 0)
(1.00396e-07 1.8799e-05 0)
(1.23651e-07 2.41257e-05 0)
(1.09057e-07 2.4412e-05 0)
(6.29153e-08 3.02105e-05 0)
(8.27772e-08 3.05111e-05 0)
(1.95084e-07 4.81326e-05 0)
(3.96344e-07 4.8859e-05 0)
(7.07633e-07 7.26622e-05 0)
(-2.4173e-07 5.10506e-05 0)
(-1.39404e-07 3.33171e-08 0)
(-1.5603e-07 1.26327e-06 0)
(1.60809e-06 6.65481e-05 0)
(-9.86918e-07 1.32549e-05 0)
(5.14971e-07 1.73629e-06 0)
(6.38277e-06 0.000106733 0)
(-5.41423e-07 8.28775e-05 0)
(3.01495e-07 1.83403e-05 0)
(3.31326e-07 2.39075e-05 0)
(3.15662e-07 2.99617e-05 0)
(-4.96931e-06 9.032e-05 0)
(1.72898e-06 3.42515e-05 0)
(2.4553e-06 0.000113052 0)
(2.78369e-06 0.000112809 0)
(-5.87831e-07 4.24766e-06 0)
(-3.63513e-07 6.4402e-05 0)
(1.5557e-07 1.45191e-05 0)
(8.95534e-08 9.94465e-08 0)
(6.26294e-06 0.000109634 0)
(-1.11691e-07 2.19575e-06 0)
(-1.31838e-06 2.06785e-05 0)
(-1.44474e-06 2.64689e-05 0)
(-1.72041e-06 2.67307e-05 0)
(-1.57153e-06 2.09188e-05 0)
(-1.16207e-06 1.54198e-05 0)
(-1.39917e-06 1.56416e-05 0)
(2.05683e-06 6.26078e-05 0)
(2.1771e-06 7.88677e-05 0)
(1.08809e-06 1.57542e-06 0)
(-7.29022e-08 4.6045e-08 0)
(-5.5121e-06 7.54401e-05 0)
(-5.73273e-06 0.000109419 0)
(1.84483e-06 4.88223e-05 0)
(-1.98264e-07 2.24533e-06 0)
(-3.02076e-06 6.25001e-05 0)
(-3.19031e-06 7.8751e-05 0)
(1.82811e-06 1.57297e-05 0)
(2.04063e-06 2.10157e-05 0)
(2.22924e-06 2.68345e-05 0)
(2.67854e-06 9.41096e-05 0)
(6.15746e-06 0.00011001 0)
(-3.49934e-06 4.04135e-05 0)
(1.50398e-06 1.41685e-05 0)
(-2.6572e-06 6.50117e-05 0)
(1.76241e-06 4.91793e-05 0)
(-7.43773e-07 3.57688e-05 0)
(1.87336e-06 2.49379e-05 0)
(1.70434e-06 1.92802e-05 0)
(-2.78657e-06 8.1398e-05 0)
(-5.17934e-06 4.08465e-05 0)
(4.97647e-06 3.92618e-05 0)
(4.97259e-06 3.96732e-05 0)
(-5.11528e-06 4.04103e-05 0)
(-2.6567e-06 7.4327e-06 0)
(-2.73085e-06 7.65462e-06 0)
(-2.42931e-06 3.96738e-05 0)
(-1.42654e-06 1.77701e-06 0)
(-3.9021e-06 3.99575e-05 0)
(-5.99145e-07 9.08186e-05 0)
(-5.9034e-07 7.48848e-07 0)
(3.98253e-06 2.40465e-05 0)
(3.61198e-06 1.84753e-05 0)
(-5.39334e-06 5.84015e-05 0)
(8.75794e-07 2.49545e-05 0)
(7.97481e-07 1.92938e-05 0)
(-1.36294e-06 8.13624e-05 0)
(2.01286e-06 6.44708e-06 0)
(2.94002e-06 4.78247e-05 0)
(-2.68822e-06 3.26667e-05 0)
(-1.68139e-06 1.97158e-06 0)
(1.45598e-06 7.29377e-05 0)
(1.40388e-06 5.70176e-05 0)
(-7.9519e-07 9.78114e-06 0)
(4.31993e-06 6.90857e-05 0)
(-2.41254e-06 1.18497e-05 0)
(4.0328e-06 5.34208e-05 0)
(-2.81196e-06 7.33677e-06 0)
(3.01129e-06 0.000105435 0)
(3.46159e-06 0.000105286 0)
(3.33851e-06 8.11372e-05 0)
(3.18243e-06 6.47324e-05 0)
(-1.96984e-06 1.43514e-05 0)
(-2.20938e-06 1.94549e-05 0)
(-2.43044e-06 2.51281e-05 0)
(-6.23332e-07 6.50139e-07 0)
(-2.74405e-06 9.81968e-05 0)
(2.90994e-06 6.40551e-05 0)
(-1.82995e-06 1.4762e-05 0)
(-3.79528e-07 5.03847e-07 0)
(2.45666e-06 0.000106571 0)
(7.46564e-07 6.49861e-07 0)
(6.20925e-07 4.94154e-07 0)
(1.53102e-06 2.30263e-06 0)
(2.98385e-06 8.64556e-05 0)
(-5.19103e-06 8.87251e-05 0)
(6.79144e-06 0.000106865 0)
(1.54812e-06 2.41727e-06 0)
(3.04429e-06 4.3647e-05 0)
(4.06518e-06 9.14221e-05 0)
(-6.67161e-06 8.66714e-05 0)
(2.77955e-06 7.34964e-06 0)
(-1.57324e-06 9.19719e-05 0)
(6.24393e-07 2.50279e-05 0)
(5.69116e-07 1.93605e-05 0)
(-1.00332e-06 8.12565e-05 0)
(-2.82145e-07 1.41057e-06 0)
(1.74104e-06 5.13462e-05 0)
(6.22821e-08 2.50299e-08 0)
(-2.37555e-06 5.04879e-06 0)
(-4.12594e-07 4.27031e-05 0)
(-1.04758e-06 8.96953e-06 0)
(-1.21574e-06 9.02603e-06 0)
(1.97129e-06 5.85701e-05 0)
(2.29619e-06 5.84673e-05 0)
(2.44301e-06 7.44746e-05 0)
(2.09757e-06 7.45841e-05 0)
(7.07915e-08 2.96078e-07 0)
(-2.93666e-08 3.45476e-06 0)
(-3.69478e-06 5.29545e-05 0)
(-3.95998e-06 6.85862e-05 0)
(2.12442e-06 1.21167e-05 0)
(-1.31205e-06 7.37213e-06 0)
(-7.24045e-07 7.04152e-05 0)
(-1.22004e-06 3.25318e-06 0)
(2.04622e-06 0.000105597 0)
(-1.80248e-06 3.67208e-05 0)
(-2.08195e-06 3.66336e-05 0)
(7.15448e-08 7.88084e-08 0)
(-1.20662e-06 3.7902e-05 0)
(-6.67662e-07 8.28028e-06 0)
(1.27541e-06 5.99212e-05 0)
(1.35582e-06 7.60195e-05 0)
(-1.62818e-06 7.04256e-05 0)
(-1.45189e-06 5.46488e-05 0)
(7.62919e-07 1.10956e-05 0)
(1.07496e-06 4.32334e-06 0)
(9.98849e-07 4.17183e-06 0)
(4.25239e-07 3.66207e-05 0)
(-6.35107e-07 7.44483e-05 0)
(-6.03011e-07 5.8434e-05 0)
(2.55538e-07 9.02865e-06 0)
(-6.20191e-07 1.51875e-05 0)
(-1.14852e-06 3.3414e-06 0)
(3.85803e-06 0.000107985 0)
(-3.88951e-06 6.61652e-05 0)
(3.04233e-06 3.2544e-05 0)
(-3.55154e-06 4.7969e-05 0)
(4.11551e-06 9.18163e-05 0)
(-4.07985e-06 3.00594e-05 0)
(-3.7745e-06 2.39824e-05 0)
(4.72656e-06 5.08686e-05 0)
(-3.41841e-06 1.8417e-05 0)
(-3.0156e-06 1.34158e-05 0)
(5.09743e-06 6.63602e-05 0)
(5.36076e-06 8.28277e-05 0)
(-1.45389e-06 7.94314e-05 0)
(-1.37961e-06 6.31421e-05 0)
(8.80709e-07 2.05516e-05 0)
(7.88658e-07 1.53111e-05 0)
(9.62729e-07 2.63305e-05 0)
(8.39832e-07 2.08315e-05 0)
(-1.38328e-06 7.90085e-05 0)
(9.17007e-07 2.66361e-05 0)
(7.53113e-07 1.5562e-05 0)
(-1.3121e-06 6.2742e-05 0)
(-7.95504e-07 9.96769e-05 0)
(-1.80578e-06 2.46643e-06 0)
(-1.85506e-06 1.09936e-05 0)
(3.42418e-06 7.06358e-05 0)
(3.2037e-06 5.48672e-05 0)
(-1.15892e-06 1.4613e-05 0)
(1.82803e-06 6.42873e-05 0)
(5.09041e-06 7.87402e-05 0)
(4.81344e-06 6.24939e-05 0)
(-3.08853e-06 1.57672e-05 0)
(-3.45383e-06 2.10513e-05 0)
(-3.77632e-06 2.68696e-05 0)
(5.35968e-06 8.55761e-05 0)
(5.85496e-06 8.54723e-05 0)
(1.46093e-07 2.96282e-06 0)
(-6.06345e-07 4.20456e-05 0)
(-1.71032e-06 4.92937e-06 0)
(9.01493e-08 1.85831e-07 0)
(-1.67026e-06 6.20901e-06 0)
(-2.83211e-07 9.09917e-05 0)
(6.04554e-08 2.83948e-06 0)
(-1.26277e-06 4.48718e-05 0)
(4.91114e-06 5.84341e-05 0)
(-2.5513e-06 9.0947e-06 0)
(5.22196e-06 7.4435e-05 0)
(-6.13145e-09 -4.24835e-09 0)
(2.80291e-07 6.90632e-05 0)
(1.15324e-07 4.92524e-08 0)
(7.84907e-08 6.13356e-08 0)
(8.40858e-07 5.05716e-05 0)
(-1.32949e-07 1.14486e-07 0)
(3.94415e-06 0.000108763 0)
(2.52864e-07 6.33838e-05 0)
(-2.02403e-07 1.51436e-05 0)
(9.90587e-07 6.31719e-06 0)
(5.06531e-07 6.31978e-05 0)
(-3.68001e-07 1.5249e-05 0)
(-6.98605e-08 1.46745e-06 0)
(-4.05058e-06 2.40373e-05 0)
(-3.66952e-06 1.84681e-05 0)
(-3.2377e-06 1.34647e-05 0)
(-2.74776e-06 9.11497e-06 0)
(5.29078e-06 5.84127e-05 0)
(5.47088e-06 6.62913e-05 0)
(5.62567e-06 7.44113e-05 0)
(5.75547e-06 8.27562e-05 0)
(-2.61987e-06 8.89746e-05 0)
(-2.33564e-06 0.000105034 0)
(-7.4303e-06 8.74243e-05 0)
(3.04196e-06 7.04768e-06 0)
(1.63006e-06 0.000111119 0)
(1.90483e-06 0.000110656 0)
(4.80385e-07 6.1877e-05 0)
(5.20354e-07 7.81006e-05 0)
(-4.66087e-07 2.73212e-05 0)
(-4.25272e-07 2.14594e-05 0)
(-3.79116e-07 1.61263e-05 0)
(-2.44076e-06 7.3574e-06 0)
(8.77552e-07 5.34223e-06 0)
(-3.06238e-06 2.8545e-05 0)
(3.76741e-06 6.03157e-05 0)
(-2.81367e-06 2.2589e-05 0)
(-2.53298e-06 1.71502e-05 0)
(3.99613e-06 7.64353e-05 0)
(-1.8495e-06 8.1247e-06 0)
(4.04024e-06 8.48431e-05 0)
(6.67084e-07 4.03732e-05 0)
(-4.83947e-07 9.43056e-05 0)
(5.22575e-07 2.67309e-07 0)
(-3.64845e-07 8.32947e-05 0)
(1.90248e-07 1.80806e-05 0)
(2.08603e-07 2.36215e-05 0)
(1.83049e-07 2.96518e-05 0)
(1.22533e-06 9.75602e-05 0)
(-2.16991e-07 1.44528e-07 0)
(6.43681e-06 9.60622e-05 0)
(-1.04764e-06 4.26454e-05 0)
(-3.72827e-08 8.67574e-08 0)
(2.29751e-06 5.94314e-05 0)
(-1.18225e-06 8.53422e-06 0)
(2.44115e-06 7.54989e-05 0)
(6.2657e-08 5.19275e-08 0)
(-1.56987e-06 1.02192e-05 0)
(2.80256e-06 5.624e-05 0)
(2.98985e-06 7.21026e-05 0)
(5.73376e-07 8.04633e-07 0)
(-2.0935e-06 3.74832e-05 0)
(3.8809e-07 3.99228e-05 0)
(-4.54785e-06 0.000102394 0)
(3.69655e-07 6.21949e-05 0)
(3.9361e-07 7.84293e-05 0)
(-3.9956e-07 2.70728e-05 0)
(-3.23249e-07 1.59222e-05 0)
(-3.64065e-07 2.12314e-05 0)
(6.44362e-07 4.06542e-05 0)
(-1.16959e-07 4.68237e-07 0)
(-1.06367e-07 1.54222e-06 0)
(1.43076e-07 9.08498e-05 0)
(4.50343e-06 4.35232e-05 0)
(-4.35858e-06 3.66323e-05 0)
(-3.20932e-06 0.000114121 0)
(-7.22909e-06 7.59342e-05 0)
(-6.81323e-06 5.98497e-05 0)
(-7.03672e-06 6.77717e-05 0)
(-6.55757e-06 5.22026e-05 0)
(3.90256e-06 1.26437e-05 0)
(4.44342e-06 1.75297e-05 0)
(4.91846e-06 2.29986e-05 0)
(5.34036e-06 2.89795e-05 0)
(7.1135e-06 7.5934e-05 0)
(6.9235e-06 6.77713e-05 0)
(-3.95808e-06 1.26472e-05 0)
(-4.51088e-06 1.7534e-05 0)
(6.7033e-06 5.98498e-05 0)
(-4.99746e-06 2.30014e-05 0)
(6.45212e-06 5.22013e-05 0)
(-5.42829e-06 2.89832e-05 0)
(-2.35211e-06 7.15959e-06 0)
(-1.16444e-06 9.41133e-05 0)
(-8.46294e-07 9.40274e-05 0)
(-1.03857e-06 0.000106068 0)
(1.59489e-06 6.57726e-05 0)
(-9.95876e-07 1.37112e-05 0)
(-3.85151e-07 6.02879e-07 0)
(-1.32899e-06 0.000111882 0)
(-1.52433e-06 2.61387e-05 0)
(-1.85941e-06 2.60454e-05 0)
(-1.38968e-06 2.03763e-05 0)
(-1.69502e-06 2.02915e-05 0)
(2.02133e-06 7.98327e-05 0)
(2.43786e-06 7.9868e-05 0)
(5.42216e-06 7.85456e-05 0)
(5.12601e-06 6.23106e-05 0)
(-3.29781e-06 1.58902e-05 0)
(-3.68504e-06 2.11869e-05 0)
(-4.02701e-06 2.70166e-05 0)
(-3.40821e-06 5.31307e-05 0)
(-3.65178e-06 6.87755e-05 0)
(1.94584e-06 1.20065e-05 0)
(-1.10919e-06 4.78946e-05 0)
(8.82472e-07 3.25982e-05 0)
(1.02853e-06 8.19825e-05 0)
(-7.17665e-07 1.88683e-05 0)
(-7.92552e-07 2.44876e-05 0)
(-8.47402e-07 3.05421e-05 0)
(2.09975e-06 3.22307e-05 0)
(1.77253e-06 3.23088e-05 0)
(-2.49728e-06 4.83068e-05 0)
(-2.12204e-06 4.82138e-05 0)
(-2.47019e-06 0.000111073 0)
(1.93686e-07 5.7961e-07 0)
(3.9632e-06 9.61625e-05 0)
(1.46438e-06 3.55836e-05 0)
(3.90915e-06 6.77064e-05 0)
(-2.25704e-06 1.2615e-05 0)
(3.64163e-06 5.21334e-05 0)
(-3.52078e-06 4.22128e-05 0)
(9.05224e-07 9.6635e-06 0)
(-1.93723e-06 7.31675e-05 0)
(-1.82227e-06 5.72401e-05 0)
(1.99885e-07 3.6939e-05 0)
(-3.42879e-07 5.88014e-05 0)
(-3.59056e-07 7.48375e-05 0)
(1.22008e-07 8.83905e-06 0)
(2.33505e-06 3.36467e-05 0)
(-2.70111e-06 4.67093e-05 0)
(-1.29613e-06 9.96753e-05 0)
(-5.80288e-06 9.87608e-05 0)
(1.00874e-06 4.46812e-05 0)
(2.60321e-06 4.48117e-05 0)
(-2.39115e-06 9.39908e-06 0)
(4.80619e-06 7.37905e-05 0)
(4.51623e-06 5.78274e-05 0)
(-2.84897e-07 1.25813e-06 0)
(-8.29886e-07 8.3846e-05 0)
(4.43192e-07 1.77349e-05 0)
(4.88956e-07 2.32404e-05 0)
(5.24843e-07 2.92432e-05 0)
(-1.26869e-06 4.24491e-05 0)
(-5.38281e-06 9.87925e-05 0)
(-1.70627e-06 1.77546e-05 0)
(-1.89085e-06 2.32596e-05 0)
(-2.04786e-06 2.92752e-05 0)
(2.66647e-06 8.38176e-05 0)
(6.11352e-09 8.76058e-09 0)
(3.39804e-06 4.18941e-05 0)
(3.83582e-08 3.67526e-06 0)
(-1.9604e-07 3.64739e-07 0)
(-4.01748e-07 1.61656e-06 0)
(-1.83473e-06 6.60579e-06 0)
(-2.01909e-07 7.50792e-08 0)
(6.81267e-07 1.99239e-05 0)
(6.11662e-07 1.47396e-05 0)
(7.46102e-07 2.56448e-05 0)
(-1.1647e-06 8.0386e-05 0)
(-1.11223e-06 6.4061e-05 0)
(-3.42767e-06 3.51406e-05 0)
(3.56451e-06 4.5064e-05 0)
(-3.98062e-07 2.44851e-07 0)
(4.21799e-06 0.000105469 0)
(3.02607e-06 9.47741e-05 0)
(-6.61683e-06 8.94433e-05 0)
(2.45008e-06 4.44859e-05 0)
(8.48995e-07 4.80855e-05 0)
(-1.70736e-06 0.000111833 0)
(-4.73321e-06 5.02354e-05 0)
(-4.5054e-06 5.00272e-05 0)
(6.4305e-06 0.000111801 0)
(-5.73534e-07 0.000100152 0)
(-1.56663e-06 3.24741e-05 0)
(1.7397e-06 4.8076e-05 0)
(5.01581e-08 3.79993e-06 0)
(9.61507e-07 1.37962e-06 0)
(1.9868e-07 7.36296e-08 0)
(1.52699e-06 5.10309e-05 0)
(5.66011e-06 0.000114019 0)
(-3.18217e-06 8.03996e-05 0)
(-3.01638e-06 6.40589e-05 0)
(1.76832e-06 1.47541e-05 0)
(2.17806e-06 2.56478e-05 0)
(1.98626e-06 1.9929e-05 0)
(-7.35124e-08 5.39746e-08 0)
(-2.89101e-07 0.000104083 0)
(2.95755e-06 4.49356e-05 0)
(-2.81894e-06 3.53102e-05 0)
(-4.74417e-06 0.000101655 0)
(-7.07122e-06 7.63033e-05 0)
(-6.88425e-06 6.81292e-05 0)
(-6.66797e-06 6.01963e-05 0)
(-6.41926e-06 5.25368e-05 0)
(3.78626e-06 1.24367e-05 0)
(4.31775e-06 1.72955e-05 0)
(4.78453e-06 2.27403e-05 0)
(5.19891e-06 2.87e-05 0)
(6.95497e-06 7.63013e-05 0)
(6.77092e-06 6.81288e-05 0)
(-3.84107e-06 1.2441e-05 0)
(-4.38427e-06 1.73003e-05 0)
(6.55698e-06 6.01956e-05 0)
(-4.86253e-06 2.27438e-05 0)
(6.31311e-06 5.25341e-05 0)
(-5.286e-06 2.87045e-05 0)
(-1.2363e-06 1.73554e-06 0)
(4.88019e-07 4.90199e-07 0)
(-6.54296e-07 1.25843e-06 0)
(2.63104e-06 4.41404e-05 0)
(-2.97941e-06 4.53733e-05 0)
(6.1854e-07 7.95549e-07 0)
(-9.93435e-08 1.64442e-08 0)
(-6.36461e-06 8.96492e-05 0)
(3.55827e-06 0.000112906 0)
(4.00036e-06 0.000113112 0)
(9.82225e-08 1.61989e-08 0)
(1.37825e-06 1.93789e-06 0)
(5.60533e-06 0.000103131 0)
(-2.24048e-06 4.98635e-05 0)
(-1.74977e-07 1.63588e-07 0)
(-3.91633e-07 6.44426e-07 0)
(-6.2116e-08 1.5879e-08 0)
(1.14564e-07 9.49664e-08 0)
(6.00168e-06 4.02713e-05 0)
(-6.08344e-06 3.98343e-05 0)
(1.84473e-06 3.08872e-05 0)
(-2.29716e-06 4.90058e-05 0)
(1.91347e-06 3.16331e-05 0)
(-1.23256e-07 2.07068e-06 0)
(-1.40912e-06 7.62909e-05 0)
(1.06946e-06 3.81376e-05 0)
(-8.0807e-07 7.55051e-05 0)
(-7.81161e-07 5.93957e-05 0)
(3.35995e-07 8.53901e-06 0)
(5.68524e-07 3.74871e-05 0)
(-2.49376e-06 4.96244e-05 0)
(1.46775e-06 2.04958e-06 0)
(2.07022e-06 3.11063e-05 0)
(7.1945e-07 4.47456e-05 0)
(5.63313e-06 0.000106375 0)
(-1.82212e-06 4.50924e-05 0)
(-2.08772e-06 4.53803e-05 0)
(-1.90811e-06 4.25132e-06 0)
(-2.02344e-06 4.67348e-05 0)
(-1.73759e-06 4.64302e-05 0)
(1.75505e-06 3.35956e-05 0)
(1.53523e-06 3.39074e-05 0)
(-2.06883e-06 1.0012e-05 0)
(3.76595e-06 5.6649e-05 0)
(4.01464e-06 7.25371e-05 0)
(-6.13396e-07 7.21356e-07 0)
(-2.49927e-06 4.92503e-05 0)
(2.0833e-06 3.14328e-05 0)
(-1.59299e-06 6.24379e-05 0)
(-1.68087e-06 7.86869e-05 0)
(9.34298e-07 1.57559e-05 0)
(1.13686e-06 2.68709e-05 0)
(1.04161e-06 2.1047e-05 0)
(-9.43966e-07 4.58402e-06 0)
(-5.10261e-06 6.56457e-05 0)
(-4.83835e-06 6.54502e-05 0)
(2.92807e-06 1.38292e-05 0)
(2.78221e-06 1.39444e-05 0)
(3.31457e-06 5.2809e-05 0)
(3.64992e-06 5.25638e-05 0)
(-2.02409e-06 1.21999e-05 0)
(-2.23753e-06 1.23536e-05 0)
(3.55432e-06 6.84315e-05 0)
(3.91534e-06 6.8168e-05 0)
(-1.49865e-06 9.93245e-05 0)
(2.82495e-06 9.10474e-05 0)
(2.86653e-06 9.06413e-05 0)
(-2.28167e-06 3.16363e-05 0)
(2.50885e-06 4.89941e-05 0)
(-7.6213e-06 0.000110216 0)
(-2.22894e-06 8.87323e-05 0)
(-2.14264e-06 8.83354e-05 0)
(8.20136e-07 6.57234e-06 0)
(8.44542e-07 6.41099e-06 0)
(6.47352e-06 8.96704e-05 0)
(-3.02929e-06 3.99927e-05 0)
(-2.60686e-06 4.00065e-05 0)
(6.40287e-06 0.000100729 0)
(-6.58519e-06 0.000105971 0)
(-6.5769e-06 0.000106457 0)