/*--------------------------------*- C++ -*----------------------------------*\
| =========                 |                                                 |
| \\      /  F ield         | OpenFOAM: The Open Source CFD Toolbox           |
|  \\    /   O peration     | Version:  2.3.1                                 |
|   \\  /    A nd           | Web:      www.OpenFOAM.org                      |
|    \\/     M anipulation  |                                                 |
\*---------------------------------------------------------------------------*/
FoamFile
{
    version     2.0;
    format      ascii;
    class       volVectorField;
    location    "680";
    object      D;
}
// * * * * * * * * * * * * * * * * * * * * * * * * * * * * * * * * * * * * * //

dimensions      [0 1 0 0 0 0 0];

internalField   nonuniform List<vector> 
11800
(
(3.08229e-06 9.39505e-05 0)
(-4.01993e-06 0.000104214 0)
(2.26424e-06 3.3625e-05 0)
(-2.62779e-06 4.49013e-05 0)
(-3.67727e-06 0.000104045 0)
(-1.71871e-06 4.49844e-05 0)
(-6.51518e-07 7.15062e-05 0)
(-6.27771e-07 5.59418e-05 0)
(2.78201e-07 9.48422e-06 0)
(4.57501e-07 3.48023e-05 0)
(3.42863e-06 9.37377e-05 0)
(-3.29426e-06 3.86424e-05 0)
(-3.84962e-09 -3.06583e-09 0)
(2.0086e-06 3.34346e-05 0)
(-2.33548e-06 4.50793e-05 0)
(2.48804e-06 5.92025e-06 0)
(-3.86513e-07 7.1309e-05 0)
(-3.78933e-07 5.57532e-05 0)
(1.47701e-07 9.58509e-06 0)
(2.66164e-07 3.46405e-05 0)
(-2.01472e-06 4.48286e-05 0)
(-3.02157e-06 3.87871e-05 0)
(-5.74434e-07 2.16693e-06 0)
(-6.122e-07 2.25381e-06 0)
(2.20231e-06 6.73305e-06 0)
(-9.04897e-07 3.53739e-06 0)
(-3.33296e-06 2.37708e-05 0)
(4.44527e-06 6.44766e-05 0)
(-3.02333e-06 1.83009e-05 0)
(-2.66891e-06 1.33701e-05 0)
(4.68297e-06 8.05024e-05 0)
(1.59714e-08 1.69963e-06 0)
(1.14081e-06 4.50828e-06 0)
(-2.46565e-06 0.000106841 0)
(1.90004e-06 0.000106376 0)
(-5.44386e-06 8.57002e-05 0)
(1.76618e-06 0.00010673 0)
(1.12121e-06 4.63081e-06 0)
(-6.37393e-07 7.53066e-05 0)
(4.5497e-07 3.80024e-05 0)
(-3.27528e-06 2.40224e-05 0)
(-2.97377e-06 1.85297e-05 0)
(4.34222e-06 6.41291e-05 0)
(-2.62802e-06 1.3575e-05 0)
(4.57796e-06 8.01385e-05 0)
(2.37089e-06 5.9666e-06 0)
(6.3819e-07 2.5519e-06 0)
(7.13113e-07 2.51212e-06 0)
(-9.72912e-07 7.53676e-05 0)
(7.33344e-07 3.80524e-05 0)
(-5.23497e-06 5.66359e-05 0)
(-5.54091e-06 7.22003e-05 0)
(-5.60252e-07 9.29895e-05 0)
(2.56882e-08 1.61526e-06 0)
(-3.06759e-06 7.00672e-06 0)
(4.39036e-07 3.88988e-07 0)
(-6.78879e-06 0.000108252 0)
(-1.81537e-06 3.24462e-05 0)
(1.93068e-06 4.62287e-05 0)
(-1.33369e-06 3.12464e-05 0)
(8.63442e-07 1.21857e-06 0)
(-9.23081e-07 9.30561e-05 0)
(-1.58438e-06 3.23776e-05 0)
(1.67725e-06 4.63092e-05 0)
(2.06279e-06 6.63466e-06 0)
(-6.47757e-06 9.61639e-05 0)
(-5.43025e-06 5.64032e-05 0)
(-5.7668e-06 7.1947e-05 0)
(-6.45019e-06 0.000108084 0)
(-9.48328e-07 3.64839e-06 0)
(-2.20427e-06 0.000107129 0)
(-3.84892e-06 0.000106571 0)
(-3.95922e-06 0.000106207 0)
(-4.27959e-08 5.16722e-08 0)
(9.22072e-07 1.26928e-06 0)
(-5.13091e-06 8.59286e-05 0)
(2.66475e-06 9.18557e-06 0)
(-6.58192e-06 9.65082e-05 0)
(-5.25176e-06 9.72888e-05 0)
(-4.91034e-06 9.76002e-05 0)
(-2.92576e-06 6.91524e-06 0)
(3.52526e-07 3.93696e-05 0)
(3.52085e-06 0.000105767 0)
(3.13674e-06 0.00010583 0)
(-5.22491e-07 4.03941e-05 0)
(-2.54921e-06 1.49734e-05 0)
(4.23075e-06 7.77257e-05 0)
(-2.85704e-06 2.00906e-05 0)
(-3.12822e-06 2.57326e-05 0)
(4.00502e-06 6.18317e-05 0)
(-1.73607e-07 9.10672e-05 0)
(1.21626e-06 4.2925e-06 0)
(-3.28399e-06 9.78889e-05 0)
(6.62508e-06 0.000109049 0)
(1.03166e-06 4.91792e-05 0)
(-1.02619e-09 -7.81093e-10 0)
(2.6293e-11 -1.64228e-10 0)
(1.016e-09 -7.73826e-10 0)
(-1.26305e-07 9.40827e-05 0)
(-3.1258e-06 3.94443e-05 0)
(5.69292e-06 0.000108673 0)
(3.52631e-06 4.30866e-05 0)
(-1.48696e-06 6.19003e-06 0)
(-3.48709e-07 4.82486e-06 0)
(-2.42527e-07 0.000103597 0)
(3.73408e-07 9.9022e-06 0)
(-7.92454e-07 5.51727e-05 0)
(-8.14153e-07 7.06619e-05 0)
(1.32194e-06 2.38549e-06 0)
(2.8136e-06 2.00801e-05 0)
(2.51526e-06 1.49635e-05 0)
(3.07739e-06 2.57204e-05 0)
(-4.39423e-06 7.7736e-05 0)
(-4.1638e-06 6.18446e-05 0)
(6.04919e-07 3.41367e-05 0)
(1.04556e-06 2.18251e-06 0)
(6.31348e-06 9.65416e-05 0)
(-2.66018e-06 9.89865e-05 0)
(1.06625e-06 2.10482e-06 0)
(-4.97984e-07 3.52087e-05 0)
(-3.18012e-07 9.24454e-06 0)
(5.3389e-07 7.20031e-05 0)
(5.09908e-07 5.63907e-05 0)
(-8.5709e-07 6.92092e-05 0)
(-3.30497e-06 9.82421e-05 0)
(-3.41268e-07 9.38018e-05 0)
(-2.14289e-06 0.000103636 0)
(-5.41223e-07 0.000103366 0)
(-7.28568e-06 0.00011171 0)
(-7.54521e-06 0.000111449 0)
(-2.63495e-07 1.21519e-07 0)
(-1.14465e-06 2.8101e-06 0)
(4.34412e-06 7.55361e-05 0)
(-2.72119e-06 1.62993e-05 0)
(4.10116e-06 5.9762e-05 0)
(-3.02813e-06 2.15637e-05 0)
(-3.29922e-06 2.73367e-05 0)
(4.00405e-06 7.56014e-05 0)
(-2.51002e-06 1.62538e-05 0)
(3.78031e-06 5.98232e-05 0)
(-2.79402e-06 2.15143e-05 0)
(-3.0449e-06 2.72838e-05 0)
(-6.98496e-07 8.58961e-06 0)
(1.37511e-06 7.33062e-05 0)
(1.29215e-06 5.76568e-05 0)
(-1.21623e-06 3.62846e-05 0)
(5.60878e-06 3.95905e-05 0)
(-5.67435e-06 3.87807e-05 0)
(3.4663e-06 4.33797e-05 0)
(-4.82433e-07 5.10914e-06 0)
(-3.64736e-06 9.06668e-05 0)
(-3.61643e-06 9.11247e-05 0)
(1.6981e-06 0.000105594 0)
(-4.07199e-06 8.58127e-05 0)
(1.5734e-06 6.18047e-05 0)
(1.69768e-06 7.76881e-05 0)
(-4.5479e-06 6.89242e-05 0)
(-4.2653e-06 5.35407e-05 0)
(2.35742e-06 1.08618e-05 0)
(-3.86512e-07 9.13931e-05 0)
(1.43828e-06 2.42577e-06 0)
(-3.72607e-06 8.58933e-05 0)
(2.78863e-06 9.31223e-06 0)
(-1.78451e-06 2.67226e-05 0)
(-1.63385e-06 2.09956e-05 0)
(-1.46331e-06 1.57828e-05 0)
(2.20878e-06 6.04931e-05 0)
(2.33834e-06 7.63129e-05 0)
(-1.29915e-06 1.685e-06 0)
(-2.20956e-06 1.04692e-05 0)
(4.14136e-06 6.96468e-05 0)
(3.87946e-06 5.42231e-05 0)
(8.84893e-07 7.05886e-05 0)
(-6.1952e-06 8.5321e-05 0)
(-6.25708e-06 8.58075e-05 0)
(2.54021e-06 6.74219e-06 0)
(2.54008e-06 6.92105e-06 0)
(2.60665e-06 1.95308e-05 0)
(2.85656e-06 2.5121e-05 0)
(2.32392e-06 1.44701e-05 0)
(-3.91701e-06 6.26287e-05 0)
(-4.1297e-06 7.85708e-05 0)
(1.60192e-06 6.14407e-05 0)
(1.70778e-06 7.73156e-05 0)
(1.80143e-06 3.86424e-05 0)
(-9.31896e-07 3.62081e-05 0)
(-5.36203e-07 8.63216e-06 0)
(1.02872e-06 7.32137e-05 0)
(9.65574e-07 5.75695e-05 0)
(-1.45725e-06 8.94852e-05 0)
(-5.51541e-07 1.73999e-05 0)
(-6.12189e-07 2.27864e-05 0)
(-5.339e-06 9.54557e-05 0)
(-1.84417e-07 4.22254e-06 0)
(-5.26983e-06 4.69248e-05 0)
(4.58513e-06 3.19158e-05 0)
(6.34646e-08 6.58834e-08 0)
(-3.21915e-06 0.000107005 0)
(6.26923e-06 9.69133e-05 0)
(-2.29055e-07 1.4367e-07 0)
(4.10914e-06 0.000101375 0)
(5.14855e-06 8.72417e-05 0)
(5.52643e-06 8.73097e-05 0)
(-2.19734e-07 0.000104102 0)
(-4.80222e-07 0.000104422 0)
(3.05591e-06 3.11958e-05 0)
(2.69319e-06 3.13261e-05 0)
(-3.60558e-06 4.76757e-05 0)
(-3.18311e-06 4.75197e-05 0)
(2.56985e-07 1.18252e-07 0)
(-6.88804e-07 6.08782e-06 0)
(-7.85247e-07 3.46469e-06 0)
(-1.91952e-08 7.2898e-09 0)
(2.3407e-06 4.07104e-06 0)
(-5.9763e-08 1.91205e-08 0)
(2.93553e-07 3.40526e-06 0)
(-3.64374e-06 0.000103575 0)
(-1.95711e-06 1.46333e-05 0)
(-2.1924e-06 1.97182e-05 0)
(-2.40429e-06 2.53278e-05 0)
(3.24864e-06 7.82725e-05 0)
(3.08639e-06 6.23547e-05 0)
(1.63112e-07 7.30853e-05 0)
(1.50095e-07 5.74476e-05 0)
(-1.26419e-07 8.69142e-06 0)
(-2.27947e-07 3.61072e-05 0)
(-8.79884e-08 1.44999e-08 0)
(2.82469e-07 1.07617e-05 0)
(-5.99546e-07 5.36375e-05 0)
(-1.74065e-06 3.49516e-05 0)
(4.03848e-07 1.06106e-05 0)
(-8.22924e-07 5.39036e-05 0)
(-2.50853e-06 9.82292e-05 0)
(3.09965e-06 3.89055e-05 0)
(2.88611e-06 3.86262e-05 0)
(1.89004e-08 7.15254e-09 0)
(8.69394e-08 1.42675e-08 0)
(-4.80836e-06 9.17156e-05 0)
(-4.62797e-06 9.20866e-05 0)
(-4.7506e-06 3.3291e-05 0)
(5.13813e-06 4.53552e-05 0)
(3.99742e-06 7.85375e-05 0)
(3.78729e-06 6.26004e-05 0)
(-2.37567e-06 1.4492e-05 0)
(-2.67053e-06 1.9554e-05 0)
(-2.92986e-06 2.51466e-05 0)
(-2.04057e-07 9.34431e-05 0)
(-2.04723e-06 1.00359e-05 0)
(3.91047e-06 7.04687e-05 0)
(3.66726e-06 5.49927e-05 0)
(2.46425e-06 3.9287e-05 0)
(1.98817e-06 8.83572e-05 0)
(3.15639e-06 0.000109175 0)
(3.79331e-07 3.35738e-06 0)
(-1.29591e-06 3.15469e-05 0)
(-1.05612e-08 1.28046e-06 0)
(5.89556e-08 1.87949e-08 0)
(1.15823e-06 3.31753e-05 0)
(9.91276e-07 3.28506e-05 0)
(-1.32444e-06 4.54394e-05 0)
(-1.14139e-06 4.57538e-05 0)
(2.32551e-06 2.53186e-05 0)
(2.12354e-06 1.97101e-05 0)
(1.89555e-06 1.46284e-05 0)
(-3.19762e-06 6.23551e-05 0)
(-3.37157e-06 7.82835e-05 0)
(-1.81359e-06 0.000107035 0)
(7.29939e-07 9.48655e-07 0)
(-5.05632e-08 6.32672e-05 0)
(-3.33304e-08 1.40412e-05 0)
(2.27958e-06 0.000103422 0)
(1.92952e-06 3.83805e-05 0)
(-7.46222e-06 0.000102243 0)
(2.21924e-06 3.95528e-05 0)
(1.06173e-07 8.26846e-08 0)
(6.03883e-06 8.43148e-05 0)
(6.0744e-06 8.38647e-05 0)
(-3.82633e-06 5.50597e-05 0)
(-4.07861e-06 7.0535e-05 0)
(-3.42405e-06 5.49299e-05 0)
(-3.65032e-06 7.03975e-05 0)
(2.02091e-06 9.99883e-06 0)
(1.80858e-06 1.0063e-05 0)
(1.79681e-06 5.08455e-05 0)
(2.14661e-06 5.07898e-05 0)
(1.92526e-06 6.60369e-05 0)
(2.30102e-06 6.59768e-05 0)
(-1.14878e-06 1.24248e-05 0)
(-1.36344e-06 1.24629e-05 0)
(-2.60858e-07 5.78203e-06 0)
(1.24472e-06 3.74531e-06 0)
(1.16578e-06 3.62036e-06 0)
(1.20252e-06 2.76409e-06 0)
(1.69163e-06 8.87193e-05 0)
(-6.09675e-06 8.44658e-05 0)
(-6.12943e-06 8.39982e-05 0)
(2.61011e-06 7.49779e-06 0)
(2.56197e-06 7.2926e-06 0)
(4.91416e-06 3.96007e-05 0)
(4.97731e-06 4.00168e-05 0)
(-4.97964e-06 3.87539e-05 0)
(-5.00911e-06 3.83437e-05 0)
(2.10797e-06 0.000105525 0)
(-5.98867e-06 0.00010685 0)
(-5.75334e-06 9.05932e-05 0)
(1.62126e-06 1.92376e-06 0)
(-3.53855e-06 0.000105559 0)
(-3.16554e-06 0.000105211 0)
(1.45176e-06 5.13906e-05 0)
(-9.83994e-07 4.64967e-05 0)
(8.09875e-07 3.22144e-05 0)
(-4.26982e-06 3.97421e-05 0)
(4.09883e-06 3.8581e-05 0)
(-2.25382e-06 7.37764e-06 0)
(-7.15961e-08 4.73759e-08 0)
(3.61889e-07 1.59945e-06 0)
(3.37697e-07 3.42382e-05 0)
(-3.63465e-06 3.44615e-05 0)
(3.7532e-06 4.39923e-05 0)
(-2.12335e-06 3.15579e-05 0)
(2.35792e-06 4.72583e-05 0)
(1.13996e-06 7.96986e-05 0)
(1.59254e-06 7.95358e-05 0)
(-7.99144e-07 1.87762e-05 0)
(-1.09044e-06 1.8883e-05 0)
(-8.80736e-07 2.42994e-05 0)
(-1.20064e-06 2.44161e-05 0)
(1.90735e-07 9.83758e-06 0)
(-4.55521e-07 5.52888e-05 0)
(-4.56842e-07 7.07924e-05 0)
(-7.12227e-07 0.000101768 0)
(1.0986e-06 2.74761e-06 0)
(-2.37117e-07 4.53769e-05 0)
(-2.87073e-06 0.00010422 0)
(4.7344e-07 4.0289e-07 0)
(2.4828e-06 6.35518e-05 0)
(-1.54682e-06 1.38928e-05 0)
(-4.40799e-06 4.58246e-05 0)
(-4.1439e-06 4.56107e-05 0)
(3.85695e-06 3.28522e-05 0)
(3.63141e-06 3.30401e-05 0)
(-4.27345e-06 0.000108514 0)
(-4.31979e-06 0.000108065 0)
(-8.25324e-07 5.81634e-06 0)
(-9.75896e-07 5.79483e-06 0)
(3.96385e-07 1.67404e-06 0)
(-9.67779e-07 1.73423e-06 0)
(1.54706e-07 4.74743e-05 0)
(1.36184e-06 1.01754e-05 0)
(1.14099e-06 1.0238e-05 0)
(-2.58895e-06 5.47047e-05 0)
(-2.17887e-06 5.45833e-05 0)
(-2.75981e-06 7.01606e-05 0)
(-2.32248e-06 7.00319e-05 0)
(-5.52279e-06 8.78076e-05 0)
(-5.11437e-06 8.78407e-05 0)
(-1.31039e-06 2.84293e-05 0)
(-1.23006e-06 2.25608e-05 0)
(-1.10899e-06 1.7196e-05 0)
(1.67696e-06 8.22056e-05 0)
(-3.53377e-07 9.25748e-05 0)
(3.68308e-06 3.85472e-05 0)
(3.48255e-06 3.88617e-05 0)
(1.5497e-06 7.16515e-05 0)
(1.4955e-06 5.60819e-05 0)
(-8.39224e-07 9.41458e-06 0)
(7.4213e-07 1.04899e-05 0)
(6.05596e-07 1.06855e-05 0)
(-1.29531e-06 6.91961e-05 0)
(-1.53121e-06 6.95331e-05 0)
(-1.43555e-06 5.41226e-05 0)
(-1.17944e-06 5.3775e-05 0)
(-1.64649e-06 9.6512e-06 0)
(2.99119e-06 5.56753e-05 0)
(3.18684e-06 7.11974e-05 0)
(-5.0918e-08 4.89848e-07 0)
(5.45185e-06 4.36271e-05 0)
(-5.17456e-06 3.48901e-05 0)
(-2.99259e-08 4.56552e-07 0)
(-1.66503e-06 7.85236e-05 0)
(-1.94404e-06 7.89337e-05 0)
(-1.54167e-06 6.26163e-05 0)
(-1.79663e-06 6.30067e-05 0)
(1.02148e-06 1.42157e-05 0)
(8.74787e-07 1.44535e-05 0)
(1.18106e-06 1.92736e-05 0)
(1.00764e-06 1.9539e-05 0)
(1.29501e-06 2.48436e-05 0)
(1.10348e-06 2.51342e-05 0)
(5.97735e-06 8.79651e-05 0)
(6.08953e-06 8.83917e-05 0)
(-6.83061e-07 3.49233e-06 0)
(2.22711e-06 6.385e-05 0)
(-1.3849e-06 1.37103e-05 0)
(2.21454e-06 1.09518e-05 0)
(-3.99642e-06 5.33743e-05 0)
(-4.27089e-06 6.87369e-05 0)
(-6.971e-08 2.12718e-08 0)
(7.25757e-07 9.15082e-05 0)
(2.19248e-06 1.04693e-05 0)
(-4.04825e-06 5.42222e-05 0)
(-4.32473e-06 6.9629e-05 0)
(1.76039e-06 3.19162e-06 0)
(-3.03273e-06 9.88498e-05 0)
(2.12988e-06 8.43333e-06 0)
(-4.75527e-06 8.18707e-05 0)
(-1.19215e-06 4.64267e-06 0)
(-1.26978e-06 4.80681e-06 0)
(1.21798e-06 4.75698e-06 0)
(-5.68129e-07 4.53109e-05 0)
(-4.91735e-09 -3.61978e-09 0)
(-3.21732e-06 0.00010794 0)
(-6.24322e-08 2.51559e-08 0)
(6.87453e-08 2.08965e-08 0)
(-1.68588e-06 1.01585e-05 0)
(3.18178e-06 7.02109e-05 0)
(2.98259e-06 5.47498e-05 0)
(2.42522e-06 9.16462e-05 0)
(-7.18484e-06 9.80394e-05 0)
(8.94001e-07 4.25814e-05 0)
(-6.52081e-07 4.15352e-05 0)
(-2.03079e-07 4.85194e-06 0)
(-5.61124e-07 6.21125e-07 0)
(-3.54801e-09 -3.19569e-09 0)
(-1.90804e-06 3.18351e-05 0)
(2.10965e-06 4.69476e-05 0)
(1.92244e-07 6.76386e-08 0)
(-2.90205e-07 4.09604e-05 0)
(-2.76407e-07 4.05885e-05 0)
(-5.02218e-08 3.47511e-05 0)
(-6.95454e-08 9.5298e-06 0)
(3.11075e-08 5.58553e-05 0)
(2.18467e-08 7.1443e-05 0)
(-1.95115e-07 6.8894e-08 0)
(7.27407e-07 5.2324e-06 0)
(-2.51307e-06 8.06007e-05 0)
(1.50809e-06 1.82092e-05 0)
(1.66101e-06 2.36758e-05 0)
(1.79425e-06 2.96274e-05 0)
(5.11701e-06 0.000103763 0)
(-2.19028e-06 9.12814e-06 0)
(4.3945e-06 7.22838e-05 0)
(4.13138e-06 5.6698e-05 0)
(-2.98667e-06 9.60187e-05 0)
(5.10789e-07 1.40265e-06 0)
(3.89717e-06 9.43104e-05 0)
(-1.03362e-06 1.70836e-06 0)
(2.71428e-06 0.00010416 0)
(-2.17338e-06 8.06091e-05 0)
(1.29397e-06 1.82022e-05 0)
(1.42508e-06 2.36686e-05 0)
(1.54018e-06 2.9618e-05 0)
(4.45818e-07 1.33145e-06 0)
(1.78509e-06 6.53755e-05 0)
(-1.08549e-06 1.28049e-05 0)
(-3.89996e-07 5.21273e-06 0)
(-5.24238e-06 9.46301e-05 0)
(-2.0903e-06 2.68154e-05 0)
(-1.91465e-06 2.10814e-05 0)
(-1.71583e-06 1.58607e-05 0)
(2.58646e-06 6.03998e-05 0)
(2.73805e-06 7.62137e-05 0)
(7.0788e-06 0.000109741 0)
(4.09367e-06 9.67839e-05 0)
(4.54503e-06 9.66245e-05 0)
(7.18438e-08 5.29886e-08 0)
(2.66729e-06 3.16659e-05 0)
(-3.13503e-06 4.71268e-05 0)
(-1.42035e-06 3.20932e-05 0)
(1.52302e-06 4.66666e-05 0)
(-4.98518e-07 5.0041e-05 0)
(-3.86237e-07 7.90105e-05 0)
(1.917e-07 2.47842e-05 0)
(1.76046e-07 1.92184e-05 0)
(-1.36566e-08 1.37653e-05 0)
(-1.22295e-07 4.87129e-05 0)
(-8.27373e-08 6.37397e-05 0)
(3.20676e-06 0.000109596 0)
(2.00657e-07 5.36304e-06 0)
(-1.0367e-07 1.29884e-06 0)
(5.77734e-07 6.74415e-05 0)
(3.13827e-08 1.34188e-06 0)
(-5.80752e-07 4.04715e-06 0)
(1.31963e-06 1.37316e-05 0)
(-2.34404e-06 6.38105e-05 0)
(-5.72471e-08 6.80717e-08 0)
(-4.85963e-06 9.45877e-05 0)
(-4.76589e-07 9.35528e-06 0)
(8.06988e-07 7.18039e-05 0)
(8.08572e-07 5.61846e-05 0)
(1.35341e-07 3.22095e-08 0)
(-1.70797e-06 3.2457e-06 0)
(1.6502e-06 2.42288e-05 0)
(1.50137e-06 1.8713e-05 0)
(-2.47212e-06 7.98093e-05 0)
(4.47137e-07 3.30225e-05 0)
(-3.30661e-06 0.0001066 0)
(-6.8618e-08 9.51893e-09 0)
(-2.20298e-06 5.00166e-06 0)
(1.43451e-06 2.80754e-06 0)
(-1.48841e-06 1.70374e-06 0)
(3.70354e-06 3.92097e-05 0)
(2.76961e-06 4.71356e-05 0)
(-2.52618e-06 3.16567e-05 0)
(1.62991e-07 1.36312e-05 0)
(-4.48954e-07 4.88863e-05 0)
(-3.81321e-07 6.39634e-05 0)
(3.4019e-06 9.3284e-05 0)
(3.26655e-06 4.27105e-05 0)
(1.62068e-06 0.000107393 0)
(1.5593e-06 0.000107779 0)
(4.31848e-07 4.69307e-05 0)
(6.26623e-07 3.27899e-05 0)
(6.77943e-08 9.36101e-09 0)
(-4.69744e-06 8.49606e-05 0)
(1.93169e-06 7.04977e-06 0)
(6.34049e-09 1.10168e-07 0)
(8.47233e-07 6.17761e-05 0)
(1.12211e-06 6.19778e-05 0)
(1.92148e-09 9.88093e-09 0)
(-1.06933e-06 2.72317e-06 0)
(2.32185e-06 2.46092e-05 0)
(2.11506e-06 1.90617e-05 0)
(1.88252e-06 1.40283e-05 0)
(-3.23628e-06 6.32706e-05 0)
(-3.40867e-06 7.92812e-05 0)
(2.9748e-06 4.07726e-05 0)
(3.71271e-07 9.1602e-05 0)
(-1.94714e-06 0.000102787 0)
(-1.84644e-06 0.000103309 0)
(-2.3362e-07 8.02263e-05 0)
(-2.07997e-07 8.06452e-05 0)
(1.10043e-07 1.8165e-05 0)
(9.71718e-08 1.84198e-05 0)
(1.19676e-07 2.3629e-05 0)
(1.05392e-07 2.39088e-05 0)
(6.00854e-08 2.9576e-05 0)
(7.94815e-08 2.98698e-05 0)
(1.88704e-07 4.70778e-05 0)
(3.8512e-07 4.77868e-05 0)
(6.88415e-07 7.10136e-05 0)
(-2.37644e-07 4.99258e-05 0)
(-1.37e-07 3.27276e-08 0)
(-1.53351e-07 1.24031e-06 0)
(1.56686e-06 6.50484e-05 0)
(-9.67088e-07 1.29942e-05 0)
(5.05197e-07 1.70459e-06 0)
(6.22372e-06 0.000104253 0)
(-5.29988e-07 8.09797e-05 0)
(2.93938e-07 1.7971e-05 0)
(3.22732e-07 2.34156e-05 0)
(3.07064e-07 2.93329e-05 0)
(-4.84881e-06 8.82403e-05 0)
(1.68738e-06 3.35238e-05 0)
(2.39283e-06 0.000110418 0)
(2.71314e-06 0.000110181 0)
(-5.76939e-07 4.16872e-06 0)
(-3.56448e-07 6.29545e-05 0)
(1.5137e-07 1.42318e-05 0)
(8.79069e-08 9.75588e-08 0)
(6.10688e-06 0.000107083 0)
(-1.09877e-07 2.15556e-06 0)
(-1.29056e-06 2.02581e-05 0)
(-1.41345e-06 2.59195e-05 0)
(-1.68286e-06 2.61754e-05 0)
(-1.53812e-06 2.04932e-05 0)
(-1.1383e-06 1.51133e-05 0)
(-1.37031e-06 1.53303e-05 0)
(2.00478e-06 6.12039e-05 0)
(2.1216e-06 7.70677e-05 0)
(1.06789e-06 1.54663e-06 0)
(-7.16147e-08 4.5206e-08 0)
(-5.37848e-06 7.37237e-05 0)
(-5.59376e-06 0.000106873 0)
(1.79886e-06 4.77509e-05 0)
(-1.94834e-07 2.20422e-06 0)
(-2.94885e-06 6.10988e-05 0)
(-3.11361e-06 7.69539e-05 0)
(1.78821e-06 1.54165e-05 0)
(1.99466e-06 2.05878e-05 0)
(2.1776e-06 2.62768e-05 0)
(2.61048e-06 9.19373e-05 0)
(6.004e-06 0.00010745 0)
(-3.41843e-06 3.95417e-05 0)
(1.47138e-06 1.38885e-05 0)
(-2.59406e-06 6.35494e-05 0)
(1.71839e-06 4.80994e-05 0)
(-7.27977e-07 3.50059e-05 0)
(1.83016e-06 2.44229e-05 0)
(1.66618e-06 1.88904e-05 0)
(-2.71979e-06 7.95363e-05 0)
(-5.05873e-06 3.99643e-05 0)
(4.8579e-06 3.84169e-05 0)
(4.85397e-06 3.88187e-05 0)
(-4.99631e-06 3.95384e-05 0)
(-2.60446e-06 7.29125e-06 0)
(-2.67703e-06 7.50874e-06 0)
(-2.3737e-06 3.88194e-05 0)
(-1.40058e-06 1.74448e-06 0)
(-3.81179e-06 3.90964e-05 0)
(-5.86418e-07 8.87267e-05 0)
(-5.79807e-07 7.35255e-07 0)
(3.89251e-06 2.35512e-05 0)
(3.53273e-06 1.81028e-05 0)
(-5.26405e-06 5.70994e-05 0)
(8.54931e-07 2.44392e-05 0)
(7.7906e-07 1.89037e-05 0)
(-1.33122e-06 7.95015e-05 0)
(1.97267e-06 6.32512e-06 0)
(2.86793e-06 4.67771e-05 0)
(-2.62765e-06 3.19757e-05 0)
(-1.65074e-06 1.93543e-06 0)
(1.41837e-06 7.12825e-05 0)
(1.36802e-06 5.57491e-05 0)
(-7.7968e-07 9.59247e-06 0)
(4.21211e-06 6.75242e-05 0)
(-2.36335e-06 1.16183e-05 0)
(3.9336e-06 5.2239e-05 0)
(-2.75672e-06 7.1972e-06 0)
(2.93513e-06 0.000102986 0)
(3.37434e-06 0.000102842 0)
(3.25434e-06 7.92819e-05 0)
(3.10274e-06 6.32768e-05 0)
(-1.92916e-06 1.40676e-05 0)
(-2.16229e-06 1.90613e-05 0)
(-2.37719e-06 2.46088e-05 0)
(-6.1224e-07 6.38333e-07 0)
(-2.67849e-06 9.59247e-05 0)
(2.83696e-06 6.26161e-05 0)
(-1.79212e-06 1.44695e-05 0)
(-3.728e-07 4.94705e-07 0)
(2.39415e-06 0.000104095 0)
(7.3301e-07 6.37927e-07 0)
(6.09687e-07 4.85013e-07 0)
(1.50238e-06 2.26029e-06 0)
(2.90835e-06 8.44703e-05 0)
(-5.06506e-06 8.66844e-05 0)
(6.62236e-06 0.000104381 0)
(1.51908e-06 2.37279e-06 0)
(2.97032e-06 4.26988e-05 0)
(3.96298e-06 8.93154e-05 0)
(-6.5092e-06 8.46809e-05 0)
(2.72379e-06 7.20968e-06 0)
(-1.53652e-06 8.98518e-05 0)
(6.09151e-07 2.45109e-05 0)
(5.55657e-07 1.8969e-05 0)
(-9.80452e-07 7.93983e-05 0)
(-2.77144e-07 1.38491e-06 0)
(1.69737e-06 5.02143e-05 0)
(6.11637e-08 2.45682e-08 0)
(-2.3301e-06 4.95422e-06 0)
(-4.04436e-07 4.17774e-05 0)
(-1.02704e-06 8.79737e-06 0)
(-1.1918e-06 8.85272e-06 0)
(1.92155e-06 5.72641e-05 0)
(2.23854e-06 5.71638e-05 0)
(2.38107e-06 7.27818e-05 0)
(2.04414e-06 7.28887e-05 0)
(6.94189e-08 2.90592e-07 0)
(-2.91626e-08 3.39094e-06 0)
(-3.60732e-06 5.1784e-05 0)
(-3.86479e-06 6.70369e-05 0)
(2.07949e-06 1.18797e-05 0)
(-1.28648e-06 7.23204e-06 0)
(-7.08107e-07 6.88214e-05 0)
(-1.19728e-06 3.19317e-06 0)
(1.99382e-06 0.000103145 0)
(-1.76192e-06 3.59356e-05 0)
(-2.03487e-06 3.58505e-05 0)
(7.02279e-08 7.73111e-08 0)
(-1.1799e-06 3.70892e-05 0)
(-6.54859e-07 8.12203e-06 0)
(1.24255e-06 5.85824e-05 0)
(1.32063e-06 7.42891e-05 0)
(-1.59007e-06 6.88315e-05 0)
(-1.41853e-06 5.34375e-05 0)
(7.4642e-07 1.08799e-05 0)
(1.05387e-06 4.24289e-06 0)
(9.79268e-07 4.09428e-06 0)
(4.13763e-07 3.58379e-05 0)
(-6.21304e-07 7.27562e-05 0)
(-5.90139e-07 5.71313e-05 0)
(2.49684e-07 8.85527e-06 0)
(-6.07953e-07 1.4886e-05 0)
(-1.12708e-06 3.27973e-06 0)
(3.76104e-06 0.000105474 0)
(-3.79617e-06 6.46747e-05 0)
(2.97071e-06 3.18557e-05 0)
(-3.46816e-06 4.6918e-05 0)
(4.01207e-06 8.97e-05 0)
(-3.98798e-06 2.94282e-05 0)
(-3.69157e-06 2.34887e-05 0)
(4.61107e-06 4.97481e-05 0)
(-3.34544e-06 1.80458e-05 0)
(-2.95327e-06 1.31516e-05 0)
(4.97079e-06 6.48651e-05 0)
(5.22679e-06 8.0931e-05 0)
(-1.41991e-06 7.76177e-05 0)
(-1.34773e-06 6.17252e-05 0)
(8.60301e-07 2.0134e-05 0)
(7.70955e-07 1.50069e-05 0)
(9.39744e-07 2.57842e-05 0)
(8.20284e-07 2.04077e-05 0)
(-1.35104e-06 7.72051e-05 0)
(8.95018e-07 2.60829e-05 0)
(7.36131e-07 1.52525e-05 0)
(-1.28186e-06 6.13348e-05 0)
(-7.77965e-07 9.73688e-05 0)
(-1.77253e-06 2.42111e-06 0)
(-1.81762e-06 1.078e-05 0)
(3.33825e-06 6.90366e-05 0)
(3.12438e-06 5.36506e-05 0)
(-1.13531e-06 1.43237e-05 0)
(1.7815e-06 6.28426e-05 0)
(4.9632e-06 7.69433e-05 0)
(4.6941e-06 6.10927e-05 0)
(-3.0237e-06 1.54532e-05 0)
(-3.37907e-06 2.06225e-05 0)
(-3.69235e-06 2.63109e-05 0)
(5.2257e-06 8.36122e-05 0)
(5.70879e-06 8.3511e-05 0)
(1.43007e-07 2.90834e-06 0)
(-5.93603e-07 4.11354e-05 0)
(-1.67767e-06 4.83723e-06 0)
(8.84648e-08 1.82341e-07 0)
(-1.63793e-06 6.09191e-06 0)
(-2.78278e-07 8.88956e-05 0)
(5.89965e-08 2.78731e-06 0)
(-1.23433e-06 4.38947e-05 0)
(4.78994e-06 5.71313e-05 0)
(-2.50036e-06 8.91985e-06 0)
(5.0917e-06 7.27432e-05 0)
(-6.02661e-09 -4.17761e-09 0)
(2.71567e-07 6.75023e-05 0)
(1.13257e-07 4.83378e-08 0)
(7.70651e-08 6.01751e-08 0)
(8.189e-07 4.94584e-05 0)
(-1.30611e-07 1.12395e-07 0)
(3.84504e-06 0.000106233 0)
(2.44872e-07 6.1961e-05 0)
(-1.99036e-07 1.4843e-05 0)
(9.7053e-07 6.19794e-06 0)
(4.9234e-07 6.17796e-05 0)
(-3.61117e-07 1.49462e-05 0)
(-6.87758e-08 1.44075e-06 0)
(-3.96149e-06 2.35423e-05 0)
(-3.59112e-06 1.80958e-05 0)
(-3.17072e-06 1.31994e-05 0)
(-2.69286e-06 8.93969e-06 0)
(5.16036e-06 5.71104e-05 0)
(5.3351e-06 6.47978e-05 0)
(5.48549e-06 7.272e-05 0)
(5.61179e-06 8.08612e-05 0)
(-2.55726e-06 8.69278e-05 0)
(-2.28016e-06 0.000102595 0)
(-7.24924e-06 8.54154e-05 0)
(2.98128e-06 6.91365e-06 0)
(1.58791e-06 0.000108532 0)
(1.85591e-06 0.00010808 0)
(4.66855e-07 6.04909e-05 0)
(5.05701e-07 7.63193e-05 0)
(-4.56845e-07 2.67525e-05 0)
(-4.17024e-07 2.10219e-05 0)
(-3.71976e-07 1.58048e-05 0)
(-2.39283e-06 7.21748e-06 0)
(8.59974e-07 5.24209e-06 0)
(-2.99411e-06 2.79484e-05 0)
(3.67379e-06 5.89673e-05 0)
(-2.75252e-06 2.21263e-05 0)
(-2.47953e-06 1.68066e-05 0)
(3.8959e-06 7.46947e-05 0)
(-1.81301e-06 7.96953e-06 0)
(3.93875e-06 8.28972e-05 0)
(6.49757e-07 3.95024e-05 0)
(-4.74103e-07 9.21285e-05 0)
(5.13304e-07 2.62328e-07 0)
(-3.57775e-07 8.13867e-05 0)
(1.85115e-07 1.77169e-05 0)
(2.02764e-07 2.3136e-05 0)
(1.77497e-07 2.90301e-05 0)
(1.19308e-06 9.53038e-05 0)
(-2.13177e-07 1.41905e-07 0)
(6.27629e-06 9.38423e-05 0)
(-1.02442e-06 4.1721e-05 0)
(-3.66236e-08 8.51402e-08 0)
(2.23978e-06 5.81045e-05 0)
(-1.15906e-06 8.37085e-06 0)
(2.37924e-06 7.37811e-05 0)
(6.15143e-08 5.09434e-08 0)
(-1.53846e-06 1.00215e-05 0)
(2.73281e-06 5.49902e-05 0)
(2.91453e-06 7.04677e-05 0)
(5.62788e-07 7.89962e-07 0)
(-2.04605e-06 3.66803e-05 0)
(3.77359e-07 3.90626e-05 0)
(-4.43794e-06 0.00010002 0)
(3.58825e-07 6.08011e-05 0)
(3.82078e-07 7.66401e-05 0)
(-3.91827e-07 2.65098e-05 0)
(-3.17305e-07 1.56051e-05 0)
(-3.57167e-07 2.07989e-05 0)
(6.27559e-07 3.97768e-05 0)
(-1.14966e-07 4.59707e-07 0)
(-1.04612e-07 1.51415e-06 0)
(1.37499e-07 8.87571e-05 0)
(4.39484e-06 4.25779e-05 0)
(-4.25836e-06 3.5849e-05 0)
(-3.13243e-06 0.000111461 0)
(-7.05333e-06 7.42057e-05 0)
(-6.64921e-06 5.85125e-05 0)
(-6.86625e-06 6.62422e-05 0)
(-6.40118e-06 5.10499e-05 0)
(3.82056e-06 1.23954e-05 0)
(4.34683e-06 1.71775e-05 0)
(4.80823e-06 2.25265e-05 0)
(5.21744e-06 2.83727e-05 0)
(6.93673e-06 7.42055e-05 0)
(6.75204e-06 6.62418e-05 0)
(-3.87657e-06 1.23989e-05 0)
(-4.41483e-06 1.71818e-05 0)
(6.53832e-06 5.85126e-05 0)
(-4.88784e-06 2.25293e-05 0)
(6.2948e-06 5.10487e-05 0)
(-5.30609e-06 2.83764e-05 0)
(-2.30601e-06 7.02362e-06 0)
(-1.13782e-06 9.19409e-05 0)
(-8.2752e-07 9.18571e-05 0)
(-1.01504e-06 0.000103604 0)
(1.55401e-06 6.42918e-05 0)
(-9.75805e-07 1.3441e-05 0)
(-3.78315e-07 5.91944e-07 0)
(-1.29834e-06 0.000109276 0)
(-1.49128e-06 2.55967e-05 0)
(-1.81883e-06 2.55055e-05 0)
(-1.36033e-06 1.99626e-05 0)
(-1.659e-06 1.98796e-05 0)
(1.96964e-06 7.80092e-05 0)
(2.3759e-06 7.80436e-05 0)
(5.28681e-06 7.67534e-05 0)
(4.99907e-06 6.09138e-05 0)
(-3.22847e-06 1.55735e-05 0)
(-3.60515e-06 2.07552e-05 0)
(-3.93734e-06 2.64546e-05 0)
(-3.32765e-06 5.19559e-05 0)
(-3.56413e-06 6.72215e-05 0)
(1.90466e-06 1.17718e-05 0)
(-1.08432e-06 4.68455e-05 0)
(8.60657e-07 3.19088e-05 0)
(1.00129e-06 8.01065e-05 0)
(-7.03121e-07 1.84875e-05 0)
(-7.76065e-07 2.39827e-05 0)
(-8.29389e-07 2.99e-05 0)
(2.04992e-06 3.15497e-05 0)
(1.73023e-06 3.16261e-05 0)
(-2.43912e-06 4.72477e-05 0)
(-2.07289e-06 4.7157e-05 0)
(-2.41144e-06 0.000108487 0)
(1.90043e-07 5.69049e-07 0)
(3.86355e-06 9.39402e-05 0)
(1.42875e-06 3.4825e-05 0)
(3.81149e-06 6.61785e-05 0)
(-2.21082e-06 1.23677e-05 0)
(3.55206e-06 5.09825e-05 0)
(-3.43904e-06 4.12985e-05 0)
(8.86066e-07 9.47719e-06 0)
(-1.89145e-06 7.15066e-05 0)
(-1.77981e-06 5.59663e-05 0)
(1.93664e-07 3.61488e-05 0)
(-3.3633e-07 5.74898e-05 0)
(-3.52038e-07 7.31359e-05 0)
(1.18874e-07 8.66951e-06 0)
(2.27952e-06 3.2933e-05 0)
(-2.63822e-06 4.56884e-05 0)
(-1.26626e-06 9.73672e-05 0)
(-5.66197e-06 9.6475e-05 0)
(9.83053e-07 4.37085e-05 0)
(2.53956e-06 4.38359e-05 0)
(-2.34333e-06 9.21807e-06 0)
(4.68616e-06 7.21144e-05 0)
(4.40469e-06 5.65393e-05 0)
(-2.79849e-07 1.23527e-06 0)
(-8.11375e-07 8.19245e-05 0)
(4.32613e-07 1.73787e-05 0)
(4.76906e-07 2.27633e-05 0)
(5.11515e-07 2.86308e-05 0)
(-1.24024e-06 4.15293e-05 0)
(-5.25224e-06 9.6506e-05 0)
(-1.67045e-06 1.73979e-05 0)
(-1.85e-06 2.27821e-05 0)
(-2.00253e-06 2.86621e-05 0)
(2.59884e-06 8.18968e-05 0)
(5.999e-09 8.59077e-09 0)
(3.31601e-06 4.09874e-05 0)
(3.72597e-08 3.60725e-06 0)
(-1.92601e-07 3.58085e-07 0)
(-3.94524e-07 1.58712e-06 0)
(-1.79904e-06 6.48085e-06 0)
(-1.98407e-07 7.37348e-08 0)
(6.65304e-07 1.95201e-05 0)
(5.97794e-07 1.44476e-05 0)
(7.2807e-07 2.5114e-05 0)
(-1.13784e-06 7.85489e-05 0)
(-1.08687e-06 6.26218e-05 0)
(-3.34949e-06 3.43922e-05 0)
(3.47793e-06 4.40821e-05 0)
(-3.91062e-07 2.40401e-07 0)
(4.11214e-06 0.00010302 0)
(2.94948e-06 9.25857e-05 0)
(-6.45579e-06 8.73851e-05 0)
(2.39012e-06 4.35179e-05 0)
(8.26946e-07 4.70317e-05 0)
(-1.6674e-06 0.000109229 0)
(-4.62112e-06 4.91301e-05 0)
(-4.39881e-06 4.89268e-05 0)
(6.27038e-06 0.000109198 0)
(-5.61458e-07 9.78327e-05 0)
(-1.53196e-06 3.17876e-05 0)
(1.69631e-06 4.70225e-05 0)
(4.88248e-08 3.72954e-06 0)
(9.43698e-07 1.35444e-06 0)
(1.95147e-07 7.2268e-08 0)
(1.48849e-06 4.99066e-05 0)
(5.5189e-06 0.000111362 0)
(-3.10565e-06 7.85623e-05 0)
(-2.9445e-06 6.26197e-05 0)
(1.72997e-06 1.44617e-05 0)
(2.12786e-06 2.51168e-05 0)
(1.94179e-06 1.9525e-05 0)
(-7.22106e-08 5.29849e-08 0)
(-2.84013e-07 0.000101668 0)
(2.88545e-06 4.39568e-05 0)
(-2.75488e-06 3.45579e-05 0)
(-4.62941e-06 9.92986e-05 0)
(-6.89932e-06 7.45658e-05 0)
(-6.71749e-06 6.65909e-05 0)
(-6.50743e-06 5.88507e-05 0)
(-6.26614e-06 5.13762e-05 0)
(3.7068e-06 1.21928e-05 0)
(4.224e-06 1.69483e-05 0)
(4.6774e-06 2.2274e-05 0)
(5.07935e-06 2.80995e-05 0)
(6.78206e-06 7.45639e-05 0)
(6.60316e-06 6.65905e-05 0)
(-3.76209e-06 1.2197e-05 0)
(-4.29107e-06 1.69531e-05 0)
(6.39551e-06 5.885e-05 0)
(-4.75603e-06 2.22775e-05 0)
(6.15907e-06 5.13735e-05 0)
(-5.16716e-06 2.8104e-05 0)
(-1.21379e-06 1.7038e-06 0)
(4.79113e-07 4.81163e-07 0)
(-6.42507e-07 1.23555e-06 0)
(2.56682e-06 4.31806e-05 0)
(-2.91004e-06 4.43842e-05 0)
(6.0715e-07 7.81035e-07 0)
(-9.76401e-08 1.61575e-08 0)
(-6.20978e-06 8.7586e-05 0)
(3.46866e-06 0.000110275 0)
(3.89989e-06 0.000110476 0)
(9.65045e-08 1.59074e-08 0)
(1.3526e-06 1.90236e-06 0)
(5.46536e-06 0.000100738 0)
(-2.18837e-06 4.87672e-05 0)
(-1.719e-07 1.60602e-07 0)
(-3.84677e-07 6.32734e-07 0)
(-6.10441e-08 1.55983e-08 0)
(1.12478e-07 9.31722e-08 0)
(5.85866e-06 3.94026e-05 0)
(-5.94185e-06 3.89759e-05 0)
(1.80101e-06 3.02371e-05 0)
(-2.24374e-06 4.79301e-05 0)
(1.86804e-06 3.09659e-05 0)
(-1.21216e-07 2.03282e-06 0)
(-1.37627e-06 7.45538e-05 0)
(1.04281e-06 3.73193e-05 0)
(-7.90007e-07 7.37872e-05 0)
(-7.6394e-07 5.80697e-05 0)
(3.28568e-07 8.37553e-06 0)
(5.53655e-07 3.66841e-05 0)
(-2.43558e-06 4.85339e-05 0)
(1.44042e-06 2.01196e-06 0)
(2.02129e-06 3.04511e-05 0)
(7.00652e-07 4.37714e-05 0)
(5.49248e-06 0.000103904 0)
(-1.78035e-06 4.41099e-05 0)
(-2.03959e-06 4.43911e-05 0)
(-1.87198e-06 4.17221e-06 0)
(-1.97675e-06 4.57133e-05 0)
(-1.69775e-06 4.54159e-05 0)
(1.71295e-06 3.28831e-05 0)
(1.49817e-06 3.31877e-05 0)
(-2.0273e-06 9.81856e-06 0)
(3.67279e-06 5.53893e-05 0)
(3.91412e-06 7.08916e-05 0)
(-6.02462e-07 7.0826e-07 0)
(-2.44098e-06 4.81687e-05 0)
(2.034e-06 3.07702e-05 0)
(-1.55591e-06 6.10382e-05 0)
(-1.6413e-06 7.68914e-05 0)
(9.13429e-07 1.54423e-05 0)
(1.10988e-06 2.63124e-05 0)
(1.0176e-06 2.06185e-05 0)
(-9.26174e-07 4.49862e-06 0)
(-4.97962e-06 6.41679e-05 0)
(-4.72183e-06 6.39772e-05 0)
(2.86567e-06 1.35562e-05 0)
(2.72281e-06 1.3669e-05 0)
(3.2328e-06 5.16419e-05 0)
(3.56009e-06 5.14027e-05 0)
(-1.98283e-06 1.19613e-05 0)
(-2.19179e-06 1.21118e-05 0)
(3.46531e-06 6.68859e-05 0)
(3.8175e-06 6.66289e-05 0)
(-1.46379e-06 9.70249e-05 0)
(2.75328e-06 8.89498e-05 0)
(2.79383e-06 8.85537e-05 0)
(-2.23064e-06 3.0969e-05 0)
(2.44693e-06 4.79186e-05 0)
(-7.43604e-06 0.000107651 0)
(-2.17598e-06 8.66914e-05 0)
(-2.09179e-06 8.63042e-05 0)
(8.03379e-07 6.44808e-06 0)
(8.27342e-07 6.28991e-06 0)
(6.3121e-06 8.76064e-05 0)
(-2.95952e-06 3.91308e-05 0)
(-2.54704e-06 3.91443e-05 0)
(6.24327e-06 9.83956e-05 0)
(-6.42519e-06 0.000103509 0)
(-6.41711e-06 0.000103983 0)