/*--------------------------------*- C++ -*----------------------------------*\
| =========                 |                                                 |
| \\      /  F ield         | OpenFOAM: The Open Source CFD Toolbox           |
|  \\    /   O peration     | Version:  2.3.1                                 |
|   \\  /    A nd           | Web:      www.OpenFOAM.org                      |
|    \\/     M anipulation  |                                                 |
\*---------------------------------------------------------------------------*/
FoamFile
{
    version     2.0;
    format      ascii;
    class       volSymmTensorField;
    location    "680";
    object      sigma;
}
// * * * * * * * * * * * * * * * * * * * * * * * * * * * * * * * * * * * * * //

dimensions      [1 -1 -2 0 0 0 0];

internalField   nonuniform List<symmTensor> 
11800
(
(45893.7 47676.4 2.27083e-14 -1816.28 1.21028e-14 10936.5)
(-27371 49551.6 3.48601e-14 -4273.61 1.11441e-14 -7851.66)
(176513 45792.3 -4.50053e-16 497.488 -2.65453e-14 43919.9)
(-161029 34731 0 3218.93 0 -39155.9)
(-27527.5 47388.9 6.50643e-15 -8465.34 -1.84989e-14 -8930.56)
(-102807 50510.1 2.59092e-14 3342.35 1.3662e-14 -24679.3)
(-18502.9 52138.4 4.78286e-14 -637.414 -1.25039e-14 -4749.1)
(-25028.3 48772.6 -7.17906e-15 1581.52 2.90889e-14 -5817.62)
(60304.5 44574.6 1.08424e-14 272.244 -7.50494e-15 15030.3)
(34703.6 49975.7 -2.55194e-14 1170.65 -2.16177e-14 8901.12)
(53604.9 44145.4 -1.89464e-14 -1192.27 1.63158e-14 13004.6)
(-232713 29137.6 -2.3548e-14 -2499.52 -1.07617e-14 -58360.9)
(9560.17 -13946.7 5.19842e-17 -25890.2 4.03983e-17 -4051.82)
(164601 34379.3 2.15403e-14 1652.82 -5.96102e-15 41251)
(-137584 46778 -1.75509e-14 5968.38 1.37317e-14 -32656.6)
(776213 7242.88 0 -1759.98 0 192158)
(-12477.2 46968 1.61834e-14 164.5 1.43877e-15 -3055.02)
(-18370.8 41426.7 -9.20274e-15 1604.18 5.32709e-14 -4160.14)
(39307.2 66407 -1.06368e-14 -5956.44 7.65474e-15 8275.01)
(25626 38803.6 -3.39828e-14 -1850.23 -1.10388e-14 5899.26)
(-129063 38248.7 1.04321e-14 2543.16 1.09787e-14 -31392.1)
(-202414 44082.8 1.67845e-14 494.677 -9.80551e-15 -50100.2)
(-359531 67658.9 -9.88222e-15 5569.25 6.51257e-15 -87825)
(-330330 49862.8 1.07463e-16 970.258 1.76515e-15 -81720.9)
(619538 43494.3 9.44769e-16 -3734.67 1.3983e-14 152793)
(-414445 64931.8 -9.61144e-15 3710.41 -3.11975e-16 -101912)
(-349104 33060.1 0 2934.42 0 -85891.6)
(169550 30285 -2.70478e-14 -4969.82 -1.64166e-14 40835.6)
(-396051 34790.7 -5.37151e-15 4286.51 -2.46974e-14 -97204.7)
(-448065 36910.2 6.82152e-15 3843.85 -1.08531e-14 -110220)
(120721 34769.1 -3.3352e-14 -662.62 -6.0136e-14 29788.9)
(22570.2 53012.7 -6.48162e-15 1147.43 -5.54797e-15 5884.83)
(403080 60721.8 -1.47864e-15 4092.09 -6.90927e-15 101028)
(-13293.1 55454.9 4.37192e-15 628.543 -3.28821e-14 -3142.34)
(7148.34 55819.1 -1.15238e-14 5206.29 -4.98389e-14 3065.44)
(-121986 29753.1 -3.02863e-14 6557.24 -2.20905e-14 -28640.1)
(6542.02 55117.8 4.09614e-14 3359.39 -4.90611e-14 2456.74)
(432602 46307 -5.41556e-15 2122.29 -2.47914e-14 107864)
(-14216.1 50150.9 0 -4693.07 0 -4691.75)
(24862.8 43897.2 -1.46861e-14 1252.35 2.74685e-14 6479.69)
(-367295 30255.3 -2.71201e-14 -1303.25 -1.27084e-14 -91456.7)
(-416287 31543.4 1.96006e-14 -1111.64 -1.13233e-14 -103565)
(176970 36268.7 -1.03567e-14 -4226.56 -3.4932e-14 42861.2)
(-470863 33590.9 -4.08604e-15 -2567.53 -2.06473e-14 -117468)
(126207 39295.3 8.87236e-14 2742.48 -2.78615e-14 31995)
(721752 29184.5 0 -3114.32 0 178309)
(329054 70973.3 -6.27351e-15 -1938.39 3.37065e-15 81164.1)
(395993 42440.3 -1.09359e-14 -4026.72 -7.78618e-15 97254.8)
(-29565.3 50589.4 -3.51986e-14 -2793.37 -2.18289e-14 -8028.84)
(65526.2 44663.9 0 844.172 0 16467.8)
(-235965 26702.9 -1.63365e-15 2296.04 1.83197e-14 -57977.9)
(-170302 28687.6 5.91887e-14 5778.28 6.98359e-15 -40821.6)
(-3686.47 55065.3 3.3008e-14 -1842.53 2.07075e-14 -1371.86)
(10031.5 80123.3 -8.98996e-16 3110.62 7.8707e-15 3260.84)
(-829740 5369.4 -1.48903e-15 -4684.18 -2.04367e-15 -207038)
(749245 -12965.2 1.77827e-15 -34702.3 3.46889e-15 177293)
(-24842.7 25737.5 2.85149e-14 1605.99 1.06352e-14 -5765.51)
(-154202 48934.3 2.15981e-15 -1247.45 -1.86006e-14 -38570.2)
(118798 39549.3 -1.84573e-14 2469.53 2.70957e-14 30088.9)
(-113775 48126.9 1.54887e-14 -3703.4 -2.79668e-15 -29148.9)
(748790 27420.7 -1.59626e-14 -4805.73 -5.53862e-15 184598)
(-15332.4 56489.8 1.39636e-14 0.515391 -2.28953e-14 -3804.16)
(-122882 44095.5 -8.43397e-15 -2111.39 1.46467e-14 -31013.4)
(92526.6 44804.7 2.51232e-14 -831.098 -1.44079e-14 22751.5)
(616023 21656.3 1.82897e-15 965.445 -1.01144e-14 153087)
(-84688.9 33067.7 -4.00487e-14 2868.13 -4.86592e-14 -20301.4)
(-245420 19519.1 2.8555e-14 429.592 9.58971e-15 -60787.2)
(-179173 21615.6 7.00804e-16 4166.31 -4.98238e-14 -43422.6)
(-24981.2 27680 0 -1538.78 0 -6580.15)
(-386932 46320 -5.87345e-16 3969.96 2.55792e-14 -95020.6)
(-12455.6 57512.1 -8.0161e-15 790.997 1.66605e-14 -2894.23)
(-19030.4 48565.3 -3.08923e-14 -2984.89 3.47884e-14 -5462.44)
(-17453.7 46684.6 2.16687e-14 -5293.1 -1.33396e-14 -5643.94)
(-653858 169573 -2.34947e-15 95628.8 2.26902e-15 -138508)
(738105 44238.6 -4.68107e-16 -2844.45 -6.55047e-15 182433)
(-115459 36502.9 -2.97451e-14 8394.87 -2.17256e-14 -26564.9)
(625562 19044.4 -1.2729e-14 2457.88 1.13195e-14 155825)
(-83448.8 26768.2 2.63452e-14 1712.27 -8.68655e-14 -20280.5)
(-62531 40463.6 4.94524e-15 5746.19 -4.75192e-15 -14089.5)
(-62701.8 45210.9 5.04386e-14 4339.42 5.09201e-14 -14480.9)
(-843618 -10042.7 5.1517e-15 1632.42 2.21934e-14 -208914)
(27853.6 39008.4 0 3206.53 0 7706.66)
(20240.2 47421 -5.24946e-14 -582.674 -2.08223e-14 4877.42)
(13424.1 50359.5 1.81964e-14 3483.24 -1.49425e-16 4195.05)
(-24538.5 41854.7 1.28764e-14 -2756 3.6628e-14 -6772.32)
(-430923 43805.5 -7.2982e-15 -1729.83 3.92924e-14 -107350)
(124283 39059 4.2438e-14 988.545 -1.3287e-14 31082.3)
(-380796 39350.4 0 -1241.31 0 -94791.1)
(-337906 37985.8 -1.57638e-14 -1093.66 -1.61205e-14 -84112.6)
(173686 35302.8 1.95612e-14 1755.15 1.18066e-15 43530.4)
(-5019.03 52583 -6.83712e-14 -1406.98 -4.41448e-14 -1594.43)
(479305 57386.6 0 -2187.5 0 118382)
(-37069.4 48935.6 -1.45029e-14 1693.52 -2.42032e-14 -8777.48)
(32272.7 24876.7 -8.40502e-15 2582.66 -1.22433e-14 8648.31)
(46958.5 40238.9 6.55296e-14 -576.946 1.16229e-15 11508.2)
(22154.5 -16743.3 -3.31065e-16 -47189.3 -2.45533e-16 -6211.64)
(-1168.22 4558.57 8.54198e-18 2732.8 -5.07756e-17 388.204)
(-22137.6 -16464.4 -2.07477e-16 46617.1 1.3838e-16 6073.86)
(-4929.21 54110 -2.12596e-14 -2279.26 -3.15685e-16 -1788.57)
(-201176 33676.2 -5.3006e-15 -1402.74 2.16582e-14 -50263.8)
(21233.5 36061.5 1.17001e-14 -591.441 -3.29592e-14 5121.72)
(213429 37315.5 -2.58109e-14 -2842.64 -3.61234e-14 52250.7)
(-452637 60119.4 2.02136e-15 1105.39 4.08932e-15 -112034)
(-157807 55357.8 -1.22614e-15 2618.65 3.96009e-15 -38505.3)
(2747.99 56698.1 -3.2873e-15 -71.1178 -1.64457e-14 664.187)
(104932 60757.2 -7.67287e-15 874.588 -1.35119e-14 26252.7)
(-43192.4 42439.7 -2.03244e-14 1435.37 4.5138e-14 -10360.8)
(-30970.5 47155 -6.83188e-14 -370.34 -3.31472e-14 -7776.3)
(713780 23776.8 4.47349e-15 2854.18 9.83279e-15 177811)
(370054 37531.9 6.7875e-15 662.466 1.36463e-15 91982.3)
(421443 40224.9 1.30625e-14 1343.34 1.86167e-14 104902)
(329359 35129.1 4.65253e-14 1706.31 2.77166e-14 82144)
(-128138 39085.8 1.99287e-14 -4080.1 3.12538e-14 -32805.9)
(-179552 35408.2 -5.28792e-14 -2699.56 1.90661e-14 -45220.4)
(58376.2 39280.6 2.34376e-14 -201.962 -1.23568e-14 14434.2)
(644379 34352 6.93729e-15 917.968 4.16421e-15 160111)
(84655.1 27262.1 -1.64094e-14 -3542.66 -6.46586e-14 20125.6)
(-23653.7 52129.1 -5.66788e-14 1957.65 5.33667e-14 -5383.24)
(602694 48099.5 -8.23434e-15 181.559 1.02935e-14 149586)
(-41061 51376.4 -1.91731e-14 789.256 -5.18839e-15 -9992.25)
(-79933.9 42530.8 -1.44117e-14 1394.75 -6.15485e-15 -19487.2)
(19513.5 52450.7 4.0705e-14 -3421.03 -5.85895e-14 3992.86)
(25622.7 48726.7 -2.86563e-14 -424.701 1.97962e-14 6252.13)
(-16781 44848.1 -8.27807e-15 -2642.11 -1.22688e-14 -4819.26)
(-38025.5 47077.7 -5.16083e-14 1908.84 -4.05158e-14 -8961.28)
(-2172.15 54528.4 -4.95888e-14 -2607.48 -3.75858e-14 -1185.92)
(-14687.1 54778.1 -2.97484e-14 -6775.43 3.28975e-14 -5325.29)
(-1013 53417.1 -1.94551e-14 -690.637 -1.86621e-14 -422.707)
(4626.6 45909 9.37761e-16 23424.2 4.19486e-14 6959.98)
(-21713.1 16848.3 -2.03116e-16 -4932.85 2.00999e-14 -6611.4)
(-842345 -129241 7.61e-15 35653.1 -3.95868e-15 -200157)
(-549539 47840.5 5.21e-15 -3298.04 -7.86668e-16 -137170)
(137586 34765.7 2.24865e-14 4392.5 -2.20295e-14 35227.8)
(-424615 42842.9 -1.90167e-14 2071.16 1.2036e-14 -104842)
(185480 30634.6 -1.03056e-14 5187.84 3.10346e-14 47308.6)
(-372203 37841.8 7.23281e-15 2496.57 7.24902e-15 -91731.6)
(-330632 35771.4 -4.02385e-14 2849.45 3.09708e-14 -81329.4)
(114128 42442.4 2.19203e-14 1312.73 6.15905e-14 28643.1)
(-365722 30668.3 2.58063e-14 3032.48 -3.61471e-14 -89990.5)
(155711 39551.8 2.75655e-14 2111.21 -2.20346e-14 39158.9)
(-321438 27192.1 2.08968e-14 2595.89 -3.66876e-14 -79111.3)
(-285851 26629.1 -2.17333e-14 3214.16 -1.9594e-14 -70128)
(-191635 57940.6 1.79307e-15 6108.44 1.77094e-14 -46032.8)
(46772.5 48397 -1.09192e-14 -4509.18 -7.35226e-14 10486.4)
(64039.3 42454.5 -1.76235e-14 -2894.3 -5.13997e-14 15171.3)
(-98126.3 40818.3 -5.40392e-15 3160.34 3.17617e-14 -23563)
(385487 25297.9 -3.45409e-14 163.258 -1.16023e-14 95687.6)
(-412308 6138.18 3.34449e-14 -4397.83 1.04619e-14 -103393)
(223805 32645.8 2.33754e-14 -2416.1 -2.18119e-14 54931.2)
(-156032 43992.3 5.95934e-16 3044.24 3.57741e-15 -37959.4)
(-64432.7 48100.4 -2.83805e-14 3745.94 -2.35899e-14 -15057.6)
(-67062.8 45165.5 2.42963e-14 1233.16 -2.21234e-14 -16333.7)
(5341.59 54489.7 1.84723e-14 2654.32 3.39828e-14 1983.95)
(-93040.4 38520.7 -4.15661e-14 3480.47 4.33469e-14 -22221.6)
(66785.6 40524.8 -2.19255e-14 -3909.7 -2.3319e-14 15600.8)
(43733.8 51015.3 -1.99849e-14 -26.6719 1.55068e-14 10844.6)
(-154053 37833.3 3.3926e-14 4468.11 -2.29615e-14 -37114.9)
(-208093 38238.7 1.26007e-14 896.676 2.74673e-14 -51409.7)
(486627 26415.2 8.62238e-15 815.778 -1.5918e-16 120944)
(-1325.09 55022.7 9.6936e-15 1244.93 -4.74834e-14 -19.8879)
(807894 44013.2 -1.06626e-14 -6650.89 -5.85893e-15 198805)
(-76981.8 43511.1 -3.5902e-14 2188.47 2.48823e-14 -18557.7)
(624768 29985.9 0 -7192.38 0 153233)
(-162076 41449.5 1.14199e-14 433.218 4.72869e-14 -40107)
(-181990 43436.7 -1.16913e-14 -371.827 1.40302e-14 -45247.8)
(-206558 47505.2 -1.71846e-15 -1317.39 5.19434e-14 -51578.1)
(80380.2 43830 -2.68543e-14 -118.477 6.65393e-15 19914.6)
(54567.4 49874.9 -2.84189e-14 -1137.47 7.06857e-15 13257.1)
(-917408 3761.57 8.58026e-15 -5388.35 -4.9424e-15 -228964)
(-492620 44435.4 -8.03781e-15 -2179.81 1.55952e-14 -122770)
(147555 38208.2 -2.84243e-14 3060.84 -1.67264e-14 37370.8)
(195371 32761.6 8.101e-14 899.44 -4.37599e-14 48698.8)
(27014.8 49105.6 1.56252e-14 -4278.62 -4.0646e-14 5641.31)
(-133343 28116.3 0 1839.87 0 -32628.7)
(-138861 22837.2 4.26847e-14 3340.86 -2.18018e-14 -33625.3)
(709281 30541.2 1.32679e-14 -6719.19 8.92791e-15 174320)
(730634 6886.13 1.09265e-14 5635.49 9.82155e-15 182683)
(330264 27402 3.986e-16 501.803 2.21234e-14 82069.7)
(293744 26041.5 3.9112e-15 1471.06 5.26035e-14 73248.9)
(376181 28306.2 1.17801e-14 127.148 -1.69479e-14 93369.7)
(-150844 39675.1 -2.58645e-14 1777.81 2.34051e-14 -36986.3)
(-106077 43477.5 -2.49778e-14 -17.1862 2.75646e-14 -26324.1)
(63475.3 48688.1 0 808.196 0 15950)
(40426.3 55345 -1.08182e-15 1074.92 3.99366e-14 10297.3)
(138731 41999.8 -3.1768e-14 -936.248 2.60791e-14 34189.8)
(-61969.8 40784.2 -2.53562e-14 -431.722 6.06371e-14 -15483.1)
(-118392 61862.2 -5.52325e-15 1418.04 2.48835e-14 -29023.5)
(30019.1 48883.7 -9.09695e-14 -764.069 -2.42914e-14 7258.78)
(40517.2 42212.8 -6.35472e-14 297.219 2.6742e-14 10126.9)
(-33256.8 51181.4 -1.22423e-14 1366.99 -1.70008e-16 -7912.51)
(-85960.1 44593.3 -1.11499e-14 813.962 -7.03467e-15 -21126.5)
(-75485.1 41471.7 7.20925e-15 204.634 -1.24249e-14 -18678.6)
(-80680.9 39640.5 0 -1122.69 0 -20297.1)
(-46401.7 66444.3 1.78212e-16 -1469.79 -1.60283e-14 -11877.9)
(-294097 13726.1 3.04114e-14 -4297.04 -1.3327e-14 -74037.6)
(376278 27391.8 -4.07477e-14 -1764.55 -3.96061e-15 92924.5)
(670158 97810.9 2.86791e-15 -134323 1.48523e-15 132951)
(-16468.2 52178.6 8.12286e-15 -869.128 -1.85305e-14 -4301.75)
(89293.4 25065.6 2.96106e-14 -20.8498 -6.79716e-14 22150.3)
(-858244 -90415.4 7.24419e-15 74336.9 -4.96914e-15 -194503)
(40690.4 43720.5 1.27224e-15 3255.07 3.45946e-14 10903.8)
(101671 29688.1 2.39565e-14 3594.19 -2.76119e-14 26118.4)
(111024 30956.2 3.34396e-14 -2395.13 -1.41697e-14 26953)
(-1716.23 56254.9 2.51431e-14 49.9293 -3.75598e-15 -413.444)
(-2269.31 57050.4 2.65273e-14 -496.553 2.25951e-15 -686.266)
(273515 27004.6 8.69074e-15 -3263.62 2.98493e-14 67054.8)
(225797 44865.9 1.13771e-14 -314.962 -2.7744e-15 55946.5)
(-202399 39403.8 0 196.345 0 -50170.6)
(-174562 31817.2 -2.80971e-14 -3883.42 -1.76655e-14 -44275.9)
(830832 -130070 -3.01445e-15 -36269 -2.14971e-15 197147)
(-222463 67889.9 -2.45179e-15 6146.72 3.03406e-14 -53672.4)
(-369812 41133.8 1.79596e-14 -1095.9 -1.07993e-14 -92029.8)
(-875471 -351428 -8.22127e-15 188761 3.25136e-15 -170387)
(907790 3455.86 0 12887.4 0 228439)
(-767665 -326534 -2.68036e-15 88813.8 8.33723e-16 -168437)
(111751 71755 -1.71964e-14 -220.507 6.2186e-15 27673)
(-26352.9 48721 -2.56931e-15 -4057.07 3.60971e-14 -7545.33)
(-303785 50944.7 1.41222e-14 -2020.9 -1.57636e-14 -75876.6)
(-265985 47073.2 2.07626e-14 -983.99 -2.56611e-15 -66240.4)
(-236121 44713.1 -2.32487e-14 -934.862 8.63139e-16 -58818.3)
(86095.6 44125.4 1.9083e-14 2051.89 -5.34785e-14 21871.2)
(120476 38860.4 -4.82095e-14 1676.6 4.7064e-14 30308.5)
(12915 45883.7 -7.52469e-15 -4313.95 3.55117e-14 2134.1)
(16613.9 39932.4 1.79691e-14 -4314.42 2.31386e-14 3051.76)
(-53173.8 64596.4 -2.32481e-14 7531.16 6.36671e-15 -11324.9)
(-26670.7 39498.6 1.57354e-14 4444.31 -2.02471e-14 -5514.81)
(-483249 -195076 -2.08622e-15 -13068 4.31661e-16 -123146)
(64039.7 64067.1 -1.29221e-14 4911.88 -4.68089e-14 17108.3)
(-30745.9 41173.9 -4.02797e-14 -3467.8 -1.85197e-14 -8489.1)
(-143100 50151.9 0 -155.711 0 -35544.7)
(64186.2 47756.1 3.46683e-14 -144.72 -1.43469e-14 15890)
(-30321.8 47926.4 0 27.7408 0 -7516.58)
(-26603.2 48514.8 -1.92985e-14 828.277 -3.07607e-14 -6395.28)
(203833 38784.6 2.8221e-14 1480.75 -2.9509e-14 50942.4)
(210370 32291.2 4.27922e-14 -971.241 2.05181e-14 51956.2)
(865016 -347779 -3.04398e-15 -184975 -1.00908e-15 168732)
(477761 -193213 3.57597e-15 13342.6 9.72587e-16 121853)
(-79856.9 38623.4 5.88511e-15 46.1293 8.42304e-15 -19802.7)
(-86425 40992.6 -1.78629e-14 -1564.17 -3.67717e-14 -21831.9)
(-380154 13997.1 -2.06993e-14 -3087.87 -4.82723e-15 -95090.1)
(298354 30709.3 4.58605e-14 -2639.17 -1.2117e-14 73372.8)
(105467 45508.2 1.39805e-15 45.0301 8.16107e-14 26179.7)
(148557 42527.3 2.76577e-14 -1349.6 3.02861e-14 36525.1)
(-388639 29193.7 -6.233e-16 -918.732 1.92488e-14 -96657.2)
(-344602 27860.7 -1.89365e-14 30.1152 6.26925e-15 -85495.4)
(-305347 27721.7 -1.0167e-15 -2.18815 2.9118e-14 -75763.3)
(-3444.69 55871.4 -4.18398e-14 -1267.05 1.21804e-14 -1169.08)
(-445447 29424.8 1.30231e-14 -1613.83 1.40564e-14 -110925)
(124903 41930.4 -2.83401e-14 -236.371 1.39818e-14 30932.2)
(165782 39141.4 0 -2019.51 0 40632.8)
(159021 37183 1.10036e-14 -1016.36 2.66881e-14 39204.1)
(33143.3 45525.6 -3.53289e-14 3592.14 -9.40133e-14 9114.82)
(925.399 54283.2 -3.10009e-14 -5499.51 -1.14919e-14 -1134.93)
(169309 43722 -4.69837e-14 5443.42 8.71342e-15 43359.6)
(-121244 36141.2 -3.61433e-15 -941.237 -2.8852e-14 -30316.5)
(17556.8 59939.5 5.31343e-16 -6016.15 7.24602e-15 2863.47)
(758520 -323558 -2.76277e-15 -86585.6 -6.90815e-16 166721)
(77944.9 43988.6 3.07385e-15 -2612.12 -5.46132e-14 18691.6)
(95244.5 44044.4 2.52781e-14 -1527.93 8.63455e-15 23253)
(-68136.1 45840.5 0 2454.01 0 -16297.1)
(-80415.1 48329 9.1914e-15 -757.024 -2.58106e-14 -20140.5)
(224965 43853.9 0 3328.62 0 56644.2)
(253970 47205.3 1.7223e-14 2184.62 1.65375e-14 63557.1)
(288579 51343 -3.9661e-14 2138.01 -3.73933e-15 72132.9)
(-125419 36701.5 5.0884e-14 -2729.19 5.19001e-14 -31796.3)
(-91069 41660 2.64241e-15 -2079.4 -3.08741e-14 -23112)
(-7929.01 56333.7 2.97962e-14 2986.46 1.59708e-14 -1226.35)
(738969 25798.6 -5.52615e-15 -10295.3 -1.07999e-14 180799)
(-6241.03 49436.1 -3.24538e-14 -2890.81 1.01591e-14 -2265.79)
(1933.84 43047.3 -3.43049e-14 3419.53 -2.16029e-14 1328.28)
(12549.9 54773 2.31668e-14 -202.047 -5.41393e-14 3063.74)
(126441 43857.7 2.54959e-14 -1583.86 2.71552e-14 30979.5)
(-64285.3 16163.5 -4.11178e-14 -2561.03 2.04497e-15 -16585.9)
(162941 49004.7 0 -1385.04 0 40085.4)
(809840 -12824 1.3288e-16 -125979 5.34063e-17 169680)
(141147 21161.2 2.36759e-14 1234.8 5.41101e-14 35327.8)
(133012 26025.1 1.07406e-14 -2957.37 5.8751e-15 32269.2)
(-183310 39356.7 3.60383e-15 2582.7 7.58704e-15 -44842)
(-132343 41097.2 -2.75782e-14 420.391 8.85899e-15 -32732.8)
(-157415 33975.6 -5.69908e-14 2070.67 -1.00568e-14 -38544)
(-113737 37556.6 2.84249e-15 -322.657 -3.00915e-15 -28300.4)
(452714 28343.2 -2.33798e-15 -376.221 7.47193e-15 112234)
(370724 54374.1 1.09901e-15 -792.021 -1.54176e-14 91787.6)
(89600.4 46268.4 5.05686e-15 11.6996 3.00556e-15 22234.6)
(122011 42756.2 9.45765e-15 1079.59 1.62451e-14 30541.4)
(65738.6 48015.8 2.60907e-14 -3076.14 1.86992e-14 15547.8)
(92185.8 43419.3 2.34273e-14 -4397.61 -3.7302e-15 21782)
(-209035 42337.2 -4.77884e-15 1412.73 1.22401e-14 -51515.4)
(-270666 50971.6 -1.33827e-14 413.785 2.4023e-15 -67055)
(-72468.3 72555.5 1.545e-14 -0.707353 1.12051e-14 -17981)
(487426 41699 1.74732e-14 2284.91 1.27636e-14 121507)
(530436 43275.9 -3.84971e-15 9243.12 1.95422e-15 133905)
(642196 41732.1 3.10591e-15 -613.953 1.99032e-15 159189)
(36985.5 49256 -5.05469e-14 4520.31 6.17284e-14 10298.4)
(-139710 22613.9 -3.13826e-14 1539.39 -1.61892e-14 -34282.8)
(-132061 27187.4 -3.97952e-14 6316.43 2.67388e-14 -31199.8)
(693039 8473.37 0 6551.56 0 173583)
(690936 33363.9 0 -975.989 0 171193)
(331314 29207.2 6.06734e-15 -1894.89 3.04098e-14 81735.6)
(333073 18173.8 2.08219e-14 2269.79 -5.73639e-14 83205.3)
(-356350 16820.7 0 -3959.26 0 -89400)
(-345232 27362.1 0 2886.99 0 -84942.7)
(12165.3 52602.3 -6.96337e-15 3849.16 2.0078e-14 3973.5)
(-36416.5 36828.6 7.46847e-14 -3995.92 -3.18046e-14 -10027.1)
(-112513 27974.3 -1.96685e-14 -3021.08 -7.28964e-15 -28666.2)
(1.00515e+06 2200.67 0 20748.3 0 254545)
(-18840.5 50665.2 -4.91851e-14 -7211.99 -1.26198e-15 -6464.15)
(-19348.1 53409 -7.08375e-15 -6225.71 -3.9684e-14 -6345.38)
(78905.3 47217.2 -2.57709e-14 -1030.29 -1.77478e-14 19322.4)
(-66994 48868 -5.40835e-14 -576.464 2.27693e-14 -16765.6)
(75825.1 37996.6 1.61593e-14 -4293.25 -1.67842e-14 17748.5)
(-303105 29064.3 1.11045e-14 -2021.18 -2.30134e-14 -75708)
(295124 29913.8 -4.44219e-15 -2747.03 -2.82072e-14 72544.7)
(-627853 42894.2 5.11189e-15 -3212.25 -2.34952e-14 -156580)
(-889458 -65420.5 3.13865e-15 184469 -2.40643e-15 -174922)
(281273 68068.9 -4.8572e-15 -5988.37 6.18778e-15 68303.8)
(20066.4 49904.1 -2.76059e-15 -2009.83 1.55203e-14 4480.21)
(-285919 42845.9 -1.40375e-14 -3316.82 -3.87226e-14 -71765.2)
(233272 28551.2 -1.77279e-14 720.722 2.55248e-14 58058.4)
(-173424 33011.5 1.99477e-14 -3930.41 2.56173e-14 -44005.2)
(126046 41282 2.90117e-14 1308.71 4.80633e-16 31599.2)
(20122.7 57365.9 7.9026e-15 -1002.82 3.72454e-16 4744.04)
(44534.2 50984.5 -3.34359e-14 -1555.39 4.22831e-14 10663.9)
(-93915 44534.2 2.50376e-14 -5788.27 -2.68807e-14 -24738.4)
(-148807 62080.3 5.22536e-16 1341.34 3.38435e-14 -36589.3)
(-82775.6 42018.2 3.75122e-15 -5709.47 -2.66399e-14 -21954.9)
(-131923 57818 2.39947e-14 273.355 -8.80362e-15 -32664.9)
(29649 44581.9 -1.60136e-14 -827.231 5.0537e-15 7151.25)
(-13269.3 49666.4 -3.87324e-16 1567.82 -2.81141e-14 -2903.38)
(-8833.97 53869.4 3.43371e-14 753.637 2.77022e-14 -2004.89)
(-7103.89 56206.2 1.76197e-14 -669.508 -3.86361e-14 -1928.74)
(532413 36082.7 1.22169e-14 1616.57 1.86024e-15 132504)
(-5771.53 51467.5 -3.97166e-14 -1858.69 -1.77493e-14 -1893.21)
(-21559.1 51717.4 1.91381e-14 -8455.23 -6.45132e-14 -7447.17)
(801637 -3677.98 -6.21879e-15 -42851.4 -4.76065e-15 188270)
(93155.9 39009.3 2.0569e-14 -3715.39 -2.6479e-14 22192)
(-250093 57093.7 1.52643e-14 4507.64 4.18694e-15 -60934.6)
(-244838 33189.7 -2.29192e-14 1733.53 -1.00812e-14 -60319)
(-245642 25356.9 0 -1294.21 0 -61269.8)
(309000 21028 -2.09616e-14 4042.44 -9.99013e-15 77672.2)
(292877 38129.5 1.04761e-15 4323.44 2.5181e-14 73741.5)
(-14930.1 45747.5 -2.26611e-14 3089.77 1.85938e-14 -2937.83)
(-11327.1 45869 1.64634e-14 2093.13 -9.24985e-14 -2291.12)
(-249503 64140.3 -1.05328e-14 3006.23 -2.81265e-16 -61160.9)
(-334292 52762.2 0 4218.48 0 -81897.9)
(246126 47008.3 5.8741e-15 3102.03 1.51842e-14 61838.4)
(-658348 57006.3 2.53837e-15 -1819.2 -8.52144e-15 -163801)
(13140.3 39875.1 0 2094.29 0 3780.02)
(306022 39197.3 -1.29395e-15 -302.474 8.53695e-15 75855.2)
(228507 60528.8 -6.57666e-16 1790.41 3.40693e-17 57141.6)
(-127702 45330.9 4.26784e-14 5023.49 -5.49645e-15 -30439.1)
(-100516 38366.3 -4.12305e-15 4383.69 3.02347e-14 -23852.5)
(-90593.4 45708.9 6.50228e-15 2126.01 -2.49768e-14 -21950.6)
(-68652.6 39946.6 -3.67698e-16 1362.21 1.46786e-15 -16696.1)
(-117785 31581.4 1.52324e-14 3429.97 2.25997e-14 -28373.7)
(-96528.3 35073.6 -2.66475e-14 7922.08 5.40497e-15 -21985)
(-110039 50301.4 0 1341.16 0 -26970.3)
(-129199 55339.2 -1.44562e-14 213.611 1.26608e-14 -32003.8)
(-147081 60193.7 -1.21013e-15 119.768 -1.38868e-15 -36464)
(34866.1 42526 -6.55411e-14 1765.54 -3.29253e-14 9089.05)
(-8047.05 53826.2 -1.45396e-14 -2467.3 2.91397e-14 -2608.82)
(243359 27222.5 -8.68521e-15 1967.94 2.43693e-14 60870.5)
(253608 33024.2 1.19495e-14 -3196.88 -2.30168e-14 62132)
(45670.3 48613 2.36902e-15 -3475.74 -1.64771e-14 10469.3)
(61040.4 41104.8 0 451.337 0 15257.3)
(-171346 62661.6 1.91406e-14 -310.569 -2.13409e-14 -42591.4)
(135505 47550 -3.64551e-14 1365.93 -4.02671e-16 33960.4)
(147668 57800.4 -1.59471e-14 1269.44 -9.693e-16 36954.4)
(-47116 45684.9 -2.70149e-14 -3749.41 3.89661e-14 -12620.7)
(-38449.5 46135.2 1.57893e-14 -2774.87 9.40323e-16 -10228.6)
(-61945.6 46899 2.58471e-14 2043.78 9.2407e-15 -14862.9)
(-69276.4 43951.9 0 995.434 0 -16941.9)
(-350820 38246.6 8.45551e-15 -551.463 -1.31692e-14 -87182.3)
(127203 42933.7 -1.23321e-14 1217.14 -4.96431e-14 31863.6)
(96604.5 46387 -5.66382e-15 46.6687 -8.11371e-16 23981.1)
(-51396.9 110127 -4.21305e-15 10846.8 -3.17759e-15 -10061.3)
(338352 25899.1 -2.65083e-14 -3414.97 -1.59552e-14 83104.7)
(-411784 17170.4 2.35804e-14 1610.41 1.41666e-14 -101772)
(-73080.1 104569 0 -776.014 0 -18325.2)
(-55768.9 48423.8 9.42294e-15 2870.11 2.86191e-14 -13125.3)
(-48781.7 50029.6 -7.08905e-14 4390.17 -1.80691e-14 -11014.4)
(-76690.9 40573.4 3.07934e-14 946.974 3.50886e-16 -18793.6)
(-66499.6 42373 0 2528.04 0 -15872.7)
(145545 43504.8 1.75276e-14 -761.585 -2.82685e-14 35923.6)
(167898 51845.3 6.32142e-15 -1435.45 2.69764e-15 41302.7)
(129510 43567.8 -1.27104e-14 -2056.56 1.2233e-14 31623.8)
(152532 50675.7 1.32852e-14 -1704.5 3.75348e-14 37423.3)
(113664 40168.2 1.03151e-14 -150.206 1.75327e-14 28165)
(133953 46409.9 -2.26327e-14 -619.386 1.30147e-14 33082.8)
(118539 29132 9.59507e-15 2102.25 3.64801e-14 29933.7)
(114474 24172.4 2.82446e-14 6243.45 6.08118e-14 29952.3)
(-272702 57702.4 -6.40063e-15 1120.49 8.61376e-15 -67384.9)
(96584 46442.2 -2.94393e-14 -2061.39 -7.03712e-16 23453)
(-265065 45290.7 0 2109.35 0 -65244.7)
(454939 49663.9 1.81006e-14 -5093.62 -1.14686e-14 111616)
(-201414 30663.3 2.97592e-14 753.443 -4.94329e-14 -49788)
(-153106 32010.6 3.57327e-14 -502.233 -2.41321e-14 -38113.4)
(-662551 -313207 -2.56075e-15 107239 5.69179e-16 -137784)
(19871.9 51865.5 3.97456e-14 1032.72 -1.05067e-14 5186.87)
(488875 37115.3 -6.0062e-15 -1068.6 -2.77316e-16 121035)
(-205011 37082.9 -8.48004e-15 441.363 -2.4428e-14 -50758)
(-153593 38313.5 5.18773e-14 -759.063 2.56808e-14 -38297.9)
(820568 5201.98 1.02843e-14 -565.138 4.58218e-15 203459)
(-33510 47891.1 -5.70435e-15 1023.47 2.30212e-14 -8060.57)
(517158 22909.2 1.52703e-14 2133.27 -9.57949e-15 128847)
(-114046 39048.8 1.78541e-14 1824.83 -3.16576e-14 -27844.4)
(-463317 55404.2 1.25668e-14 5426.95 -1.61876e-15 -113612)
(-436122 42464.8 -7.68332e-15 -2678.04 -6.17952e-16 -108875)
(408786 43739.7 -1.46485e-14 237.674 9.71762e-15 101487)
(-45156.2 46493.5 -7.98954e-14 2349.98 -3.65834e-14 -10621.1)
(-1495.42 -16854.2 1.03979e-16 -26433.8 3.70333e-17 -6929.8)
(-9504.9 51913.6 0 2945.99 0 -1627.4)
(-877021 -277741 4.19139e-15 115902 -1.15621e-15 -188849)
(654628 -310333 4.91958e-15 -105605 1.54963e-15 136224)
(-342827 54196.3 1.55555e-14 -2719.59 -1.53103e-14 -85737.1)
(104549 41297.3 5.9553e-15 -478.089 2.32254e-14 25822)
(133984 35305.5 -1.95853e-14 -841.644 4.45086e-14 33035.3)
(49336.6 48696 3.84284e-14 -1982.35 1.15208e-14 11749.5)
(-86810.3 22456.9 2.23005e-14 1213.12 -3.4443e-14 -21238.4)
(62251.8 49613.7 -1.90971e-14 -284.384 1.75443e-14 15375.4)
(-34576.1 41265.2 5.63881e-15 1254.93 8.69309e-15 -8267.66)
(-46347.5 67274.3 4.59325e-15 1985.11 1.36081e-14 -11007.2)
(-696171 20786 -2.20275e-15 17239.9 5.59471e-15 -168456)
(5878.77 -10021.2 2.72403e-17 -17511.9 1.69135e-17 -2886.41)
(-175077 47614.9 -7.96873e-17 2070.74 1.63631e-15 -42926.3)
(131224 35806.2 1.40663e-14 -171.825 4.42233e-14 32516.8)
(741858 -143344 4.18791e-16 -20004.1 5.91073e-16 179107)
(-16153.5 40522.7 -3.68416e-15 -1665.29 -2.87801e-14 -4421.2)
(-19295.1 51351 2.92597e-15 -294.767 2.81154e-14 -4860.64)
(-12162.5 46250 -5.02184e-16 966.06 -4.3533e-14 -2778.06)
(-36523.9 53008.8 -8.74696e-15 1449.83 1.20703e-14 -8702.59)
(11511.8 46267.1 1.25468e-14 -101.86 3.26015e-14 2831.04)
(8561.76 51524.4 -2.9198e-14 -1300.19 -9.59241e-15 1801.74)
(-751123 -143277 1.89986e-15 19655.9 -5.78422e-16 -181492)
(218070 58711.6 -1.3344e-14 354.747 7.34379e-15 54195.6)
(-74108.9 47697 -7.79934e-14 3063.06 -2.22373e-14 -17627.9)
(218111 48173.6 4.51258e-14 2915.41 -7.61214e-14 54841)
(192667 44598.5 -3.39925e-16 3460.22 -2.85267e-14 48663.1)
(171871 41315.1 -7.97504e-14 1550.06 1.22593e-14 43029.2)
(34659.7 38149.9 -3.81121e-14 4562.3 -1.43316e-14 9731.78)
(-499818 29617.8 2.31766e-14 -2024.57 -2.28585e-14 -124517)
(134637 37334.9 4.14414e-14 -539.242 4.4655e-15 33272.4)
(179593 35190.1 -1.88353e-14 -565.697 -2.71873e-14 44420.2)
(-43161.9 49327.9 -6.60118e-14 -660.401 -1.1201e-14 -10873.2)
(354318 64779.6 5.1914e-15 -5395.24 7.82396e-15 86574.9)
(57897.5 41703.5 -2.67228e-14 -2753.9 1.81994e-14 13682.3)
(-727964 28043.6 -8.50735e-15 -1535.6 -3.26144e-15 -181004)
(17648.3 50614.1 -3.44409e-14 2121.71 -2.91583e-14 4905.34)
(-55208.2 49637.7 -6.85643e-14 3441.96 3.25911e-14 -12844.3)
(155169 43681.2 5.66207e-14 1087.84 -8.33895e-15 38770.5)
(136593 40663.9 5.1786e-14 1359.57 1.26042e-14 34228.9)
(122068 37789.7 -3.69943e-14 -56.5831 1.02976e-14 30273.5)
(371963 45175.7 6.19782e-15 571.295 1.37315e-14 92433.4)
(57791.4 45508.4 -2.318e-14 1042.94 -5.00653e-14 14598)
(-180206 47102.2 1.76537e-14 -2328.35 4.18593e-16 -45290.6)
(-156780 70943.5 1.12687e-14 1761.42 1.27634e-14 -38463.1)
(-78195.2 41092.8 0 176.401 0 -19358.1)
(-221453 47415.1 -2.25504e-14 -1305.17 6.87793e-15 -55270.9)
(-248458 50174.8 -3.46153e-14 -1459.54 -2.36975e-15 -62009.6)
(-282412 55456.7 -3.51259e-14 -2485.51 1.70521e-14 -70688.8)
(118162 39762.6 6.42139e-16 1379.15 8.24935e-15 29660.7)
(84511.3 45935.7 1.03178e-14 108.114 -1.29858e-14 20995.8)
(37470.2 18764.6 -3.00518e-14 1347.06 1.08774e-14 9631.35)
(48193.7 40909.1 0 -1985.43 0 11465.2)
(64593.4 36304.4 -3.50833e-14 -1698.79 2.10367e-14 15605.4)
(886480 -24749.9 -2.31736e-15 -131778 -1.14361e-15 187257)
(233871 31248.2 3.65556e-14 -1136.66 -3.75436e-14 57746)
(-175796 42634.5 0 -447.552 0 -43729.6)
(-132383 42154.8 -1.79592e-14 1893.54 -8.13156e-16 -32377.1)
(98460.1 45271.4 9.37483e-15 -1954.11 -1.1632e-14 23945.1)
(-32822.7 45377.1 1.55645e-14 -496.172 1.28204e-14 -8267.08)
(-9438.22 55219.6 4.50101e-14 666.736 -3.57052e-14 -2176.38)
(5453.7 40763.5 3.84081e-14 2970.11 -6.12947e-15 2090.12)
(6699.63 44182 -2.04447e-14 2847.74 -1.92185e-14 2368.9)
(-7278.29 63065.9 -1.04245e-15 -2455.23 -8.68965e-15 -2415.08)
(-2117.78 37028.9 -8.5572e-15 -112.718 2.89358e-14 -553.431)
(-3080.86 41268.4 -3.16426e-14 -4442.8 2.36851e-14 -1866.77)
(3334.39 53412.4 3.00267e-14 -8976.71 -1.37298e-14 -1399.98)
(49555.7 46202.8 -2.67789e-15 1220.74 -1.30245e-14 12598.7)
(-120758 74380.9 -6.56011e-16 723.311 -6.65842e-15 -29783.1)
(27600 49377.7 7.55857e-14 -1174.11 -1.49717e-14 6556.8)
(-1911.13 72907.5 3.79344e-15 -6512.96 5.62598e-15 -2090.19)
(-230967 68091.1 -9.28927e-15 -605.091 -5.6844e-15 -57457.8)
(244041 41147.4 2.87093e-14 2593.36 2.5971e-14 61195.1)
(-100983 42854.9 -2.91661e-14 416.154 9.57383e-15 -24952.6)
(-595116 135969 -1.70552e-15 118483 1.06733e-15 -118262)
(-74190.3 41900.6 2.06198e-14 -2636.39 2.25502e-14 -19062.3)
(-123436 65645 0 1724.12 0 -30199.2)
(30844.4 46916 4.02947e-14 -3645.49 -5.59762e-14 6748.59)
(43471.1 39700.6 2.14501e-15 -40.8795 7.02238e-15 10775.9)
(656325 -145649 -5.34274e-16 22183.6 9.64949e-17 168352)
(-814701 17155.8 -6.90895e-15 4063.46 3.18843e-15 -201136)
(190925 39058.3 1.35402e-14 4838.09 1.14836e-14 48572.8)
(216684 42210.3 -1.43196e-14 3478.17 3.09587e-14 54626.6)
(-74681.3 49787.3 -9.5425e-14 5428.21 -3.42351e-14 -17183.1)
(40702.1 51899.3 1.75373e-14 1296.06 3.48701e-14 10420.6)
(-13811.7 49580 2.68386e-14 -5604.7 4.11284e-14 -4817.61)
(-375570 -244348 -4.55373e-16 26783 1.91436e-16 -86541.2)
(-764601 37176 2.30121e-15 1992.1 2.93647e-15 -189219)
(697553 29004.1 1.25693e-14 1147.27 -6.31297e-15 173362)
(-1.05906e+06 -12984.9 -3.36282e-15 -4652.3 -1.47985e-15 -263929)
(239857 32478.7 -1.19092e-14 -1487.98 -1.87701e-14 59144.3)
(166326 32834.4 -1.99633e-14 -346.173 7.28483e-14 41183)
(-227702 44648.7 0 4642.1 0 -55345.6)
(26994.1 41807.8 -3.81607e-14 -3615.69 1.83196e-14 5800.67)
(-19252.2 48428.3 -2.90347e-14 1648.32 1.54409e-14 -4367.87)
(-12567.1 49202.9 -2.48978e-14 -387.436 -5.59805e-15 -3214.29)