/*--------------------------------*- C++ -*----------------------------------*\
| =========                 |                                                 |
| \\      /  F ield         | OpenFOAM: The Open Source CFD Toolbox           |
|  \\    /   O peration     | Version:  2.3.1                                 |
|   \\  /    A nd           | Web:      www.OpenFOAM.org                      |
|    \\/     M anipulation  |                                                 |
\*---------------------------------------------------------------------------*/
FoamFile
{
    version     2.0;
    format      ascii;
    class       volScalarField;
    location    "0.25";
    object      nut;
}
// * * * * * * * * * * * * * * * * * * * * * * * * * * * * * * * * * * * * * //

dimensions      [0 2 -1 0 0 0 0];

internalField   nonuniform List<scalar> 
15166
(
9.71469e-05
0.000156364
0.00026045
0.000373689
0.000473008
0.000586719
0.000703962
0.000831234
0.000949958
0.00107205
0.00118783
0.00128714
9.71642e-05
0.000170129
0.000280948
0.000394032
0.00049693
0.000609653
0.000725587
0.000848047
0.00096445
0.00108205
0.00119353
0.00129363
9.75313e-05
0.000181311
0.000297025
0.000410799
0.000516559
0.000628667
0.000743329
0.000862077
0.000976287
0.00109011
0.00119804
0.00129793
9.80081e-05
0.000191321
0.000310723
0.000425245
0.000533041
0.000644598
0.000758004
0.000873785
0.000985881
0.00109644
0.00120139
0.00130112
9.85175e-05
0.000200368
0.000322834
0.000438064
0.00054722
0.000658187
0.000770298
0.000883582
0.000993646
0.00110134
0.00120379
0.00130293
9.90681e-05
0.0002085
0.000333689
0.000449564
0.000559603
0.000669898
0.000780701
0.000891804
0.000999884
0.00110503
0.00120526
0.00130367
9.96546e-05
0.000215804
0.000343547
0.000459976
0.000570493
0.000680077
0.00078957
0.000898693
0.00100486
0.00110768
0.00120591
0.00130402
0.000100275
0.000222364
0.000352608
0.00046946
0.000580164
0.000688983
0.000797177
0.00090447
0.0010088
0.0011095
0.0012061
0.00130451
0.00010091
0.000228245
0.000361022
0.000478207
0.000588844
0.000696835
0.000803739
0.000909327
0.00101187
0.00111064
0.00120582
0.00130417
0.000101556
0.000233486
0.000368879
0.000486309
0.000596703
0.000703824
0.000809436
0.000913391
0.00101423
0.00111124
0.00120522
0.00130333
0.000102208
0.00023814
0.000376245
0.000493861
0.000603857
0.000710072
0.000814405
0.000916796
0.001016
0.00111142
0.00120453
0.00130349
0.000102859
0.000242238
0.000383155
0.000500934
0.000610413
0.000715691
0.000818758
0.000919644
0.00101729
0.00111131
0.00120376
0.00130282
0.000103505
0.000245825
0.000389646
0.000507568
0.000616462
0.000720777
0.000822584
0.000922016
0.00101819
0.00111095
0.00120279
0.00130113
0.000104144
0.000248957
0.000395741
0.00051381
0.00062206
0.000725387
0.000825959
0.00092398
0.00101875
0.00111034
0.00120139
0.00129854
0.000104776
0.000251645
0.000401454
0.000519705
0.000627262
0.000729598
0.000828944
0.000925611
0.00101905
0.00110954
0.00119987
0.00129628
0.000105393
0.000253944
0.000406785
0.00052527
0.000632115
0.000733444
0.000831583
0.000926932
0.00101911
0.00110858
0.00119817
0.00129333
0.000106
0.000255874
0.000411738
0.00053053
0.000636656
0.000736975
0.000833927
0.00092801
0.00101898
0.00110745
0.00119626
0.00129038
0.000106588
0.00025748
0.000416337
0.000535514
0.000640927
0.000740238
0.00083602
0.000928853
0.00101866
0.00110618
0.00119416
0.00128695
0.000107159
0.000258796
0.000420571
0.000540222
0.000644931
0.00074324
0.000837869
0.000929515
0.00101821
0.0011048
0.00119194
0.00128359
0.000107716
0.000259837
0.000424461
0.00054467
0.000648714
0.000746021
0.000839524
0.000930003
0.00101762
0.00110331
0.00118962
0.00128024
0.000108257
0.000260645
0.000428001
0.000548867
0.000652271
0.000748599
0.00084099
0.000930335
0.00101691
0.00110171
0.00118712
0.00127642
0.00010878
0.000261229
0.000431198
0.00055283
0.000655638
0.000750988
0.000842288
0.000930532
0.00101611
0.00110001
0.00118448
0.00127249
0.000109277
0.000261629
0.000434072
0.000556544
0.000658812
0.000753213
0.000843446
0.000930617
0.0010152
0.00109821
0.00118176
0.00126936
0.000109765
0.000261854
0.000436621
0.000560029
0.00066181
0.000755289
0.000844476
0.000930602
0.00101421
0.00109632
0.00117894
0.00126567
0.000110227
0.000261922
0.000438855
0.000563296
0.000664644
0.000757226
0.000845384
0.000930481
0.00101314
0.00109436
0.00117611
0.0012626
0.000110673
0.000261863
0.000440784
0.00056634
0.000667321
0.000759029
0.00084618
0.000930278
0.001012
0.00109233
0.00117324
0.00125905
0.000111103
0.000261679
0.000442417
0.000569151
0.000669846
0.000760714
0.000846882
0.000929994
0.00101079
0.00109026
0.00117043
0.00125626
0.00011151
0.000261404
0.000443783
0.000571745
0.000672215
0.000762281
0.000847496
0.000929637
0.00100952
0.00108816
0.00116771
0.00125368
0.000111897
0.000261033
0.000444868
0.000574134
0.000674444
0.000763744
0.000848017
0.000929221
0.00100821
0.00108604
0.00116497
0.00125027
0.000112264
0.000260566
0.000445707
0.000576301
0.000676533
0.000765102
0.000848464
0.000928736
0.00100685
0.0010839
0.00116226
0.00124743
0.000112608
0.000260052
0.000446288
0.000578256
0.000678479
0.000766367
0.000848838
0.000928205
0.00100546
0.00108176
0.00115951
0.00124399
0.000112942
0.000259467
0.00044665
0.000579997
0.000680291
0.000767537
0.000849149
0.000927617
0.00100404
0.0010796
0.00115679
0.00124107
0.000113263
0.00025883
0.000446782
0.000581545
0.000681974
0.000768622
0.000849389
0.000926991
0.00100259
0.00107744
0.00115403
0.00123745
0.000113552
0.00025816
0.000446723
0.000582884
0.000683518
0.000769618
0.000849575
0.000926324
0.00100112
0.00107526
0.00115128
0.00123437
0.000113829
0.000257455
0.000446461
0.000584038
0.000684935
0.000770527
0.000849703
0.000925619
0.000999625
0.00107307
0.0011485
0.00123072
0.000114099
0.000256723
0.000446034
0.00058498
0.000686216
0.000771358
0.000849782
0.000924878
0.000998107
0.00107088
0.00114576
0.00122791
0.000114335
0.000255963
0.000445428
0.000585745
0.00068737
0.000772104
0.000849799
0.000924097
0.000996573
0.00106869
0.00114309
0.00122539
0.000114565
0.000255188
0.000444668
0.000586316
0.000688391
0.000772776
0.000849774
0.000923293
0.000995026
0.0010665
0.00114042
0.00122207
0.000114774
0.000254401
0.000443766
0.000586711
0.000689289
0.000773359
0.0008497
0.000922463
0.000993474
0.00106432
0.00113775
0.00121886
0.000114963
0.000253607
0.000442736
0.000586935
0.000690065
0.000773878
0.000849581
0.000921602
0.000991907
0.00106215
0.00113507
0.00121548
0.000115144
0.000252793
0.000441584
0.000586983
0.000690711
0.000774313
0.000849415
0.000920725
0.000990332
0.00105996
0.00113228
0.00121158
0.000115299
0.000251901
0.000440298
0.000586869
0.00069123
0.000774675
0.000849207
0.000919819
0.000988748
0.00105776
0.00112948
0.00120875
0.000115447
0.00025098
0.000438918
0.0005866
0.000691631
0.000774961
0.000848956
0.000918899
0.000987155
0.00105555
0.00112668
0.00120535
0.000115568
0.000249995
0.000437397
0.000586167
0.000691905
0.000775168
0.000848662
0.00091795
0.000985547
0.00105332
0.00112391
0.00120256
0.000115673
0.000249006
0.000435716
0.000585585
0.000692062
0.000775298
0.000848325
0.000916981
0.000983931
0.0010511
0.00112115
0.00119909
0.000115767
0.000248055
0.000433907
0.000584836
0.000692092
0.000775356
0.000847954
0.000915992
0.000982307
0.00104887
0.00111841
0.00119651
0.000115848
0.000247051
0.000432009
0.00058388
0.000691981
0.000775339
0.000847534
0.000914985
0.00098067
0.00104665
0.00111569
0.00119312
0.000115904
0.000246079
0.000430018
0.000582787
0.000691735
0.000775233
0.00084707
0.000913957
0.000979028
0.00104443
0.00111301
0.00119049
0.00011595
0.00024511
0.000427989
0.000581528
0.000691352
0.000775051
0.000846567
0.000912901
0.000977377
0.00104221
0.00111033
0.00118725
0.000115983
0.000244146
0.000425851
0.000580123
0.000690844
0.000774772
0.000846016
0.000911829
0.000975713
0.00104
0.00110769
0.00118464
0.000116005
0.000243226
0.000423656
0.000578579
0.000690211
0.000774423
0.000845419
0.000910736
0.000974049
0.00103778
0.001105
0.00118103
0.00011601
0.000242268
0.000421409
0.000576882
0.000689439
0.000773974
0.000844773
0.000909615
0.000972375
0.00103558
0.00110232
0.00117767
0.000116001
0.000241363
0.000419121
0.000575082
0.000688542
0.000773444
0.000844078
0.00090848
0.000970698
0.00103338
0.00109968
0.00117534
0.000115984
0.000240464
0.000416796
0.000573138
0.000687511
0.000772829
0.000843341
0.000907322
0.000969014
0.00103119
0.00109708
0.00117259
0.000115945
0.000239574
0.000414439
0.000571081
0.000686356
0.000772121
0.00084255
0.000906139
0.000967327
0.001029
0.00109453
0.00116989
0.000115892
0.000238692
0.000412057
0.000568915
0.00068508
0.000771316
0.000841704
0.000904933
0.000965633
0.00102683
0.00109197
0.00116654
0.000115833
0.000237864
0.000409658
0.000566649
0.00068367
0.000770424
0.000840811
0.000903701
0.000963933
0.00102467
0.00108941
0.00116364
0.000115759
0.000237004
0.000407244
0.000564264
0.000682143
0.000769443
0.000839852
0.000902446
0.000962235
0.00102252
0.00108682
0.00115994
0.000115667
0.000236197
0.000404818
0.000561789
0.000680485
0.000768352
0.000838851
0.00090117
0.000960534
0.00102037
0.00108428
0.00115795
0.000115574
0.000235404
0.000402419
0.000559255
0.000678728
0.000767181
0.00083778
0.000899859
0.000958818
0.00101822
0.00108174
0.00115515
0.00011546
0.000234648
0.00039998
0.000556615
0.000676842
0.000765905
0.000836653
0.000898524
0.0009571
0.00101608
0.00107921
0.00115203
0.000115332
0.000233868
0.000397541
0.000553899
0.000674831
0.000764528
0.000835462
0.000897151
0.00095537
0.00101395
0.00107667
0.00114857
0.000115194
0.000233139
0.00039511
0.000551116
0.000672729
0.000763059
0.000834205
0.000895755
0.000953632
0.00101181
0.00107414
0.00114561
0.000115047
0.000232423
0.000392719
0.000548249
0.000670508
0.000761487
0.000832891
0.000894325
0.00095189
0.00100968
0.00107157
0.00114215
0.000114886
0.00023175
0.000390305
0.000545349
0.000668185
0.000759824
0.000831506
0.00089286
0.000950131
0.00100755
0.00106901
0.00113929
0.000114719
0.000231085
0.000387934
0.000542394
0.000665749
0.000758065
0.000830052
0.000891364
0.000948364
0.00100541
0.00106643
0.00113601
0.000114516
0.000230411
0.000385572
0.000539369
0.00066323
0.000756202
0.000828535
0.000889825
0.000946576
0.00100327
0.00106387
0.00113332
0.000114344
0.000229792
0.000383243
0.000536319
0.000660612
0.000754244
0.000826949
0.000888248
0.000944777
0.00100112
0.00106129
0.00113002
0.000114126
0.000229193
0.000380926
0.000533231
0.000657889
0.000752185
0.000825284
0.000886629
0.000942953
0.000998972
0.00105873
0.00112704
0.000113887
0.000228612
0.000378633
0.000530101
0.000655097
0.00075004
0.000823545
0.000884969
0.000941118
0.000996813
0.00105614
0.00112364
0.000113662
0.000228025
0.000376378
0.000526924
0.000652201
0.000747795
0.000821738
0.000883259
0.000939257
0.000994643
0.00105356
0.0011207
0.000113419
0.000227533
0.000374134
0.000523735
0.000649232
0.000745442
0.000819855
0.000881504
0.000937372
0.000992458
0.00105094
0.0011172
0.000113167
0.000226978
0.000371965
0.000520562
0.000646195
0.000743008
0.000817888
0.000879701
0.000935466
0.000990263
0.0010483
0.00111378
0.000112898
0.000226509
0.000369747
0.000517305
0.000643043
0.000740464
0.000815835
0.000877843
0.000933523
0.000988054
0.00104567
0.00111072
0.000112619
0.000226058
0.000367635
0.000514075
0.000639866
0.000737841
0.00081372
0.000875934
0.00093156
0.000985834
0.00104304
0.00110743
0.000112302
0.000225561
0.00036553
0.000510819
0.000636598
0.000735136
0.000811518
0.000873978
0.000929568
0.000983597
0.00104042
0.00110466
0.000112001
0.000225133
0.00036348
0.000507572
0.000633259
0.000732326
0.000809234
0.000871952
0.000927532
0.000981344
0.00103777
0.00110133
0.000111709
0.000224778
0.000361479
0.000504312
0.000629873
0.000729425
0.000806867
0.000869878
0.000925471
0.000979072
0.00103512
0.00109838
0.000111375
0.000224376
0.000359499
0.000501063
0.000626424
0.000726447
0.00080442
0.000867742
0.000923364
0.000976778
0.00103244
0.00109497
0.000111013
0.000224016
0.000357572
0.000497809
0.000622933
0.00072338
0.000801888
0.000865544
0.000921225
0.000974457
0.00102978
0.00109223
0.000110672
0.00022369
0.000355658
0.000494575
0.000619379
0.000720224
0.000799271
0.000863274
0.000919043
0.000972109
0.00102709
0.00108903
0.000110307
0.000223374
0.00035383
0.000491331
0.000615768
0.000716973
0.000796576
0.000860939
0.000916811
0.000969738
0.00102437
0.00108543
0.000109931
0.00022309
0.000352052
0.000488125
0.000612133
0.000713668
0.000793786
0.000858537
0.000914532
0.000967345
0.00102163
0.0010821
0.000109544
0.000222826
0.000350301
0.000484946
0.000608453
0.000710275
0.000790911
0.000856059
0.000912207
0.000964918
0.00101892
0.00107937
0.000109143
0.000222581
0.000348603
0.000481791
0.000604726
0.000706808
0.00078796
0.00085351
0.000909832
0.000962465
0.00101617
0.00107611
0.000108704
0.000222343
0.000346943
0.000478615
0.000601
0.000703274
0.000784912
0.000850902
0.000907401
0.000959969
0.00101342
0.00107326
0.000108282
0.000222138
0.000345334
0.000475493
0.000597234
0.000699646
0.000781788
0.000848201
0.00090492
0.000957447
0.00101064
0.00106978
0.000107844
0.00022196
0.000343783
0.000472428
0.000593415
0.000695961
0.000778561
0.000845426
0.00090239
0.000954897
0.00100788
0.00106696
0.000107392
0.000221812
0.000342288
0.000469384
0.000589611
0.000692196
0.000775246
0.000842572
0.00089979
0.000952313
0.00100512
0.00106419
0.000106928
0.000221685
0.000340807
0.000466351
0.000585768
0.000688362
0.000771853
0.000839634
0.000897117
0.000949674
0.00100236
0.00106182
0.000106451
0.000221584
0.000339427
0.000463397
0.000581937
0.000684495
0.000768376
0.000836622
0.000894396
0.000947011
0.00099956
0.00105807
0.000105962
0.000221514
0.000338101
0.000460453
0.000578073
0.000680539
0.000764822
0.000833531
0.00089161
0.000944315
0.000996762
0.00105512
0.000105433
0.000221408
0.000336791
0.00045756
0.000574213
0.000676537
0.000761181
0.000830344
0.000888753
0.000941574
0.000993886
0.00105152
0.000104943
0.000221406
0.00033555
0.000454726
0.000570352
0.000672457
0.00075745
0.000827074
0.000885826
0.000938775
0.000990978
0.0010482
0.000104384
0.000221363
0.000334374
0.000451945
0.000566478
0.000668368
0.000753627
0.000823708
0.000882834
0.000935924
0.000987993
0.0010445
0.000103839
0.000221365
0.000333266
0.000449231
0.000562651
0.000664203
0.00074973
0.000820264
0.000879759
0.00093301
0.000984992
0.00104142
0.00010328
0.000221359
0.000332186
0.000446546
0.000558812
0.000660004
0.000745749
0.00081672
0.000876598
0.000930028
0.000981906
0.00103772
0.000102705
0.00022144
0.00033118
0.000443936
0.000554997
0.000655745
0.000741678
0.000813099
0.00087336
0.000926996
0.000978817
0.00103451
0.000102089
0.00022144
0.000330243
0.000441396
0.000551185
0.000651481
0.000737539
0.000809377
0.000870046
0.00092389
0.000975642
0.00103082
0.000101483
0.000221543
0.000329338
0.000438895
0.000547407
0.000647143
0.000733323
0.000805545
0.00086663
0.000920714
0.000972481
0.00102792
0.000100864
0.00022164
0.000328514
0.000436482
0.000543672
0.000642813
0.00072902
0.000801627
0.000863125
0.000917452
0.000969255
0.00102445
0.000100228
0.000221782
0.000327769
0.000434117
0.000539953
0.00063844
0.000724654
0.000797629
0.000859534
0.000914141
0.000965952
0.00102061
9.9575e-05
0.000221962
0.000327056
0.000431845
0.000536289
0.000634058
0.000720207
0.00079352
0.000855847
0.000910748
0.000962625
0.0010173
9.89069e-05
0.000222133
0.00032643
0.000429665
0.000532653
0.000629644
0.000715703
0.000789322
0.000852056
0.000907267
0.000959268
0.00101419
9.81943e-05
0.00022229
0.000325844
0.000427548
0.00052908
0.000625212
0.000711138
0.000785017
0.000848169
0.000903711
0.000955848
0.00101047
9.74904e-05
0.00022251
0.000325344
0.000425495
0.000525544
0.000620793
0.0007065
0.000780629
0.000844188
0.000900065
0.000952373
0.001007
9.67416e-05
0.000222712
0.000324888
0.000423554
0.000522095
0.000616391
0.000701794
0.000776132
0.00084009
0.000896324
0.000948769
0.00100298
9.59994e-05
0.000222983
0.00032453
0.000421725
0.000518701
0.000611983
0.000697047
0.000771535
0.00083588
0.00089248
0.000945069
0.000998843
9.52702e-05
0.00022333
0.000324224
0.000419942
0.000515398
0.000607583
0.000692241
0.000766859
0.000831572
0.000888533
0.000941313
0.000995097
9.44689e-05
0.000223596
0.000323977
0.000418318
0.000512165
0.000603221
0.00068739
0.0007621
0.000827145
0.000884476
0.000937411
0.000990892
9.36682e-05
0.000223934
0.000323828
0.000416743
0.000509008
0.00059888
0.000682518
0.000757221
0.0008226
0.000880308
0.000933479
0.000987249
9.28511e-05
0.000224328
0.000323735
0.000415301
0.000505971
0.000594598
0.000677607
0.000752276
0.000817955
0.00087603
0.000929451
0.000983045
9.19859e-05
0.000224662
0.00032374
0.000413961
0.000503019
0.00059033
0.000672685
0.000747244
0.000813196
0.000871666
0.000925357
0.000978756
9.11223e-05
0.000225079
0.000323816
0.000412759
0.000500171
0.000586137
0.000667715
0.000742137
0.000808307
0.00086714
0.000921087
0.000974867
9.02401e-05
0.000225554
0.000323915
0.000411628
0.000497433
0.000582005
0.000662754
0.000736919
0.000803281
0.000862463
0.000916679
0.00097033
8.93359e-05
0.000225996
0.000324177
0.000410658
0.000494853
0.000577976
0.000657793
0.000731654
0.00079816
0.000857681
0.000912206
0.00096619
8.8407e-05
0.000226515
0.000324471
0.000409814
0.0004924
0.000574011
0.000652867
0.000726328
0.000792916
0.000852736
0.00090755
0.000961404
8.74254e-05
0.000226982
0.00032489
0.000409134
0.000490094
0.000570178
0.000647941
0.000720941
0.000787548
0.000847689
0.000902843
0.000957011
8.64127e-05
0.000227515
0.000325341
0.000408551
0.000487942
0.00056646
0.000643088
0.000715536
0.000782098
0.000842496
0.000897984
0.000952106
8.54299e-05
0.000228157
0.000325934
0.000408148
0.000485961
0.000562871
0.000638261
0.000710076
0.000776561
0.000837192
0.000892995
0.000947082
8.44034e-05
0.000228766
0.000326616
0.000407874
0.000484187
0.000559437
0.000633532
0.000704595
0.000770887
0.000831695
0.000887729
0.000942057
8.33139e-05
0.000229388
0.000327394
0.000407794
0.000482574
0.000556174
0.000628898
0.00069913
0.000765125
0.000826052
0.00088234
0.000936633
8.21883e-05
0.000230034
0.000328273
0.000407879
0.000481176
0.000553103
0.000624379
0.000693661
0.000759295
0.000820294
0.000876866
0.000931641
8.10872e-05
0.000230807
0.000329257
0.000408124
0.000480033
0.000550244
0.000619985
0.000688249
0.000753391
0.000814357
0.000871125
0.000925681
7.99113e-05
0.000231532
0.00033036
0.000408594
0.000479106
0.000547628
0.000615787
0.000682879
0.000747439
0.000808306
0.000865206
0.000919827
7.86882e-05
0.000232293
0.000331584
0.000409275
0.000478474
0.000545284
0.000611795
0.000677625
0.00074146
0.000802114
0.00085906
0.000913439
7.74833e-05
0.000233183
0.000332933
0.000410146
0.000478105
0.000543235
0.000608019
0.000672476
0.000735484
0.000795817
0.000852743
0.000906997
7.6199e-05
0.00023403
0.000334425
0.000411287
0.000478057
0.000541523
0.000604545
0.000667498
0.000729528
0.000789399
0.000846225
0.00090022
7.48864e-05
0.000234935
0.000336055
0.000412658
0.00047836
0.000540176
0.000601362
0.000662715
0.000723603
0.000782872
0.000839537
0.000893825
7.35086e-05
0.00023585
0.000337818
0.000414345
0.000479037
0.000539223
0.000598556
0.000658156
0.000717715
0.000776229
0.000832579
0.000886556
7.20999e-05
0.000236815
0.000339791
0.000416322
0.000480139
0.000538738
0.000596118
0.00065385
0.000711921
0.000769506
0.000825448
0.000879432
7.06134e-05
0.000237732
0.000341926
0.000418646
0.000481659
0.000538681
0.000594061
0.0006498
0.00070623
0.000762678
0.000818037
0.000871527
6.90766e-05
0.000238701
0.000344243
0.000421283
0.00048359
0.000539054
0.000592395
0.000645997
0.000700573
0.000755701
0.000810284
0.000863524
6.74662e-05
0.000239555
0.00034667
0.000424251
0.000485865
0.000539793
0.000591103
0.000642555
0.000695127
0.000748691
0.000802296
0.000855383
6.54938e-05
0.00023861
0.000347125
0.000426133
0.000487051
0.000539788
0.000589299
0.000638913
0.0006895
0.000741855
0.000794313
0.00084686
0.000466489
0.00154198
0.00162257
0.00186788
0.00186973
0.000608477
0.000596893
0.000462017
0.00135868
0.0020456
0.00379717
0.00200838
0.00420101
0.00141609
0.000544518
0.00133045
0.00148686
0.00501847
0.00500291
0.00131677
0.000701774
0.000479293
0.00729329
0.00352824
0.000467007
0.00162487
0.0005529
0.000755315
0.00192772
0.00121185
0.00176591
0.000334566
0.00145875
0.00376178
0.00408718
0.00101359
0.000155471
0.00155319
0.00046488
0.00206116
0.00181625
0.00129125
0.00380289
0.00103367
0.000276589
0.000480839
0.00572542
0.00370734
0.000279673
0.00070588
0.0010144
0.000464479
0.000340552
0.00124158
0.00163713
0.00150216
0.00236707
0.00129062
0.00155368
0.000541946
0.000597901
0.000335517
0.00124141
0.00284463
0.00413692
0.00151823
0.00091746
0.000321141
0.000653725
0.00226278
0.00170927
0.00526864
0.000463059
0.00107976
0.0035569
0.00127098
0.00137154
0.00123839
0.0055513
0.000462485
0.00452739
0.00123985
0.000197793
0.000384606
0.00282922
0.00159067
0.000919027
0.00124133
0.00263271
0.000200126
0.000571174
0.0014544
0.00124138
0.00140319
0.000351604
0.00127299
0.000753368
0.00163571
0.00124219
0.000929444
0.000749129
0.00313473
0.00128762
0.00148259
0.00123885
0.000351338
0.000351084
0.000421469
0.0013045
0.000235359
0.00149522
0.00123988
0.000437815
0.00136586
0.00124077
0.000509621
0.00313954
0.00225498
0.0015381
0.00428094
0.000768829
0.00375566
0.00146102
0.00349391
0.0044403
0.0028049
0.00141129
0.000259567
0.00399003
0.00124135
3.9282e-05
0.00124223
5.61723e-05
0.00148297
0.000548233
0.00162595
0.000174596
0.00240486
0.00043963
0.0017427
0.00295098
0.000671651
0.000461115
0.000426597
8.88957e-05
0.00161923
0.000465353
0.00152048
0.00139413
0.000575995
0.000571428
0.00050295
0.00124261
0.00441625
0.00347855
0.00124347
0.000437765
0.00127084
0.00164138
0.00192052
0.00366202
0.0013354
0.00451723
0.00259723
0.000740866
0.00328988
0.000276025
0.000256275
0.000545024
0.00123829
0.00154723
0.00107457
0.00163289
0.00302872
0.00124053
0.00158814
0.00123857
0.000413167
0.00228711
0.00132286
0.000276018
0.00522976
0.00425754
0.000469286
0.00129726
0.000456001
0.00125532
0.00124025
9.31028e-05
0.00124086
0.00230679
0.00124587
0.000394323
0.00155636
0.000445362
0.000550703
0.000604293
0.000525837
0.00123979
0.00220031
0.00145099
0.000461153
0.000282977
0.000455573
0.000470727
0.00689854
0.00416433
0.00316105
0.00111271
0.00271539
5.36549e-05
0.00136931
0.000466159
0.000413931
0.00123976
0.000466393
0.00250061
0.00144596
0.00221612
0.000192267
0.000387271
0.00144915
0.000421648
0.00124794
0.00125101
0.00275999
0.00158699
0.00126818
0.00106438
0.00408485
5.24367e-05
0.00445636
0.00124157
0.000890796
0.0014805
0.000472106
0.000458273
0.00147052
0.00109334
0.000452248
0.00423592
0.00584534
0.00432394
0.00266939
6.46513e-05
5.39745e-05
5.65697e-05
0.00131922
0.00388998
0.000465454
0.00220027
0.0010814
0.00231661
0.000348477
0.000234648
0.00282748
0.000960588
0.000449065
0.00205846
0.000428127
0.00271269
0.000471134
0.00292264
0.00416251
7.27159e-05
0.000467949
0.00129361
0.000474304
0.0014426
0.00120903
0.000669309
0.00520777
0.00137251
4.49545e-05
4.57245e-05
0.00137741
0.000178195
5.76386e-05
0.000283863
0.000139034
0.000376281
0.000175387
0.000465622
0.000469086
0.0013232
0.000602296
0.0016004
4.7365e-05
0.00129903
0.00073842
0.000138441
0.00145296
4.63467e-05
4.60376e-05
0.000445746
0.000395987
0.0018371
4.49313e-05
0.00579132
0.00038179
0.000451163
0.000977066
0.000492703
0.00176476
0.0036645
0.00150014
0.00028822
0.00124093
0.00516861
0.00471229
0.00563126
0.000186106
0.00124539
0.00127907
0.00046036
0.00427511
4.91629e-05
0.00119582
0.00123978
8.28082e-05
0.00458257
0.00206657
0.00147612
0.000235436
0.000452787
0.00119511
0.00139549
0.0012412
0.001256
0.000184776
0.00130884
0.00125284
0.0021626
0.00124172
0.00125516
0.00126418
0.00123873
0.00755345
0.00124185
0.001727
0.000768658
0.000471117
0.00124211
0.000522704
0.00227645
4.56085e-05
5.33854e-05
0.00163484
0.00139506
0.00135944
0.00124141
0.00126768
0.00628016
0.00220314
4.09335e-05
0.00124029
0.0049251
0.000368256
0.00133124
0.00234631
0.00010406
0.000269547
0.00131372
0.00147949
0.000817197
0.00190326
0.00135514
0.0012413
0.00140529
0.00137995
0.00499088
9.76707e-05
0.000452904
0.000134052
0.00146484
0.000609177
0.000460785
0.00138677
0.00125255
0.00175865
0.00100449
0.0016457
0.0012617
0.000467473
0.000347572
0.000595687
0.00124858
0.00425184
0.000524682
0.0037601
0.00126074
0.00115859
0.00190349
0.000395335
0.000445986
0.00137344
0.00141179
0.00124373
0.00299062
0.00139595
0.00184335
0.00236387
0.000882701
0.00216643
0.00391547
0.000168225
0.00138081
0.00145354
6.54848e-05
0.000421462
0.00124067
0.00125257
0.00124188
0.00128114
0.00601327
0.000452476
0.000127863
0.000525696
0.000524521
0.00125605
0.000227002
0.000465788
0.00123883
0.00124732
0.000454367
0.00125185
0.0027087
0.00135464
0.000449995
0.00124106
0.00196612
0.00424693
0.00503969
0.000455941
0.00462169
0.00123844
0.0012329
0.00114675
0.00128083
0.00252013
0.000291331
4.03474e-05
0.00193283
0.000454743
0.00189304
0.000971207
0.00132568
0.000437906
0.00148529
0.00123903
0.0019681
0.000456004
5.42315e-05
0.00220268
0.0019759
0.000675254
0.00163077
4.76115e-05
0.000423327
0.00441741
0.000522093
0.00339492
0.0049275
0.00243935
0.00131062
0.00128081
0.00171693
0.000668665
0.000553625
5.89706e-05
0.00359308
0.000282896
9.53296e-05
0.00124261
0.00177841
0.00131953
0.000437707
0.00123897
0.000329695
0.000868373
0.000333345
0.000204105
0.000467866
0.00244219
0.00442147
9.53739e-05
5.02704e-05
0.00133929
0.00308926
0.00123096
0.0041727
0.000917101
0.000317215
0.00137368
0.00421592
0.000160006
0.00105657
0.00115677
0.000467797
0.000226513
0.00121194
0.000475788
0.000313819
0.00127147
0.003379
0.000402035
0.000700808
0.00135664
0.000192499
0.00184535
0.000447418
0.00126907
0.000930332
0.00334976
0.00124127
0.000651064
4.1328e-05
0.00123238
0.00148117
0.00207623
0.00424698
0.00144537
0.0012752
0.000465528
0.00124132
0.000295659
0.00147611
4.44349e-05
9.53074e-05
0.00185245
4.71956e-05
0.000799606
0.00123019
0.00158017
0.00126926
0.00396224
0.00133244
0.000376411
0.000439296
0.00192191
0.00134311
0.00366488
0.00176415
0.00261631
0.00171676
0.0012391
0.00463725
0.00123873
0.00566471
0.000556813
0.00448646
0.000959838
0.000625857
0.000433409
0.00487432
0.00310284
0.000454069
6.86336e-05
0.00124138
0.00124141
0.00107596
0.000704053
0.00039094
0.00242189
0.00533652
0.00127723
0.000330634
0.00124116
0.004098
0.00047102
0.00157712
0.00126382
0.000490258
0.000105498
0.000390877
0.00256861
0.00124313
0.00339125
0.0012427
0.00138017
0.00294853
0.000368655
0.00158124
0.00125379
0.0013972
0.00582101
0.000417326
0.000881333
0.00137894
0.000196735
0.00422676
0.00124386
0.00056717
8.12561e-05
0.000458887
0.00326617
0.00124138
0.00144565
0.00128317
0.000462948
0.00124937
0.000703316
0.00103427
0.00125575
0.0017818
0.000394803
0.00136801
0.000966695
0.00114915
0.00134593
0.000733695
0.00488361
0.00337518
0.00123912
0.00124141
0.00158267
0.000459894
0.00047006
0.000460201
0.00157983
0.000743036
0.00394171
0.00117076
0.000462928
0.0013967
0.00240071
0.000324555
0.00123824
0.00208558
0.000283022
0.000278418
0.00125285
0.00124604
6.876e-05
0.000187412
0.00131753
0.00392621
0.000806629
0.000412625
0.00125211
3.538e-05
0.000665614
0.000696784
0.00166714
0.00102492
0.000833693
0.00139799
0.00127275
0.000445291
0.000132496
0.00126201
0.00124189
0.00139873
0.0011505
0.00155824
0.00123991
0.00213567
0.00124132
0.00115783
0.000496628
0.00483855
0.00124778
0.00145575
0.00055801
0.000358509
0.00198432
0.000197204
0.00733813
0.000770326
0.00135808
0.00124096
0.0030697
0.00139307
0.000232672
0.00151884
0.00174941
0.0023763
0.00226412
0.000133123
0.0012398
0.000743398
0.00115543
0.000454174
0.00128697
0.00490011
0.000367836
0.000312986
0.00186208
0.00513959
0.00153281
0.000465364
0.00248698
0.000464776
0.00124058
0.00197152
0.00127915
0.00123848
0.000105757
0.00124147
4.68464e-05
0.00228842
0.00109374
0.00127473
0.00115262
0.000423166
0.00182517
0.00148959
0.00127883
0.00609838
0.00221826
0.00279621
0.00503737
0.00158146
0.00123934
0.00124152
0.000462942
0.00561436
5.88211e-05
0.000525627
0.00127935
4.63788e-05
4.07792e-05
4.47936e-05
0.00301284
0.000681903
3.77183e-05
0.00124132
0.000132933
0.000125332
0.000463024
0.0012423
0.00240263
0.00143047
0.000114071
0.00124315
0.00164485
0.00123934
0.00519258
0.00222134
0.00132805
0.000447818
0.00123976
0.0044279
0.000417055
0.00124246
0.0014238
0.0012407
0.0013826
0.00306566
0.00127461
0.00111638
0.00249699
0.000459038
0.00124017
0.00105018
0.00124191
0.000596042
0.00266645
0.00346253
0.000503152
0.00274281
0.00159744
0.0012587
0.000157049
0.000980709
0.00115511
5.32364e-05
0.000485497
0.00123828
0.000131017
0.000589984
0.000733477
0.00100409
0.00119426
0.00138429
0.000471897
0.00431793
0.00121781
0.00359097
0.00143086
0.00342226
0.000133115
0.000751386
0.00120869
0.00019279
0.000387808
0.001371
0.00186703
0.00129207
0.000596392
0.000974847
0.00117863
0.00410548
0.00173067
0.00029614
0.00018843
0.00426814
0.000154967
0.0012482
5.10572e-05
0.00157544
0.00127894
0.00145612
0.00111246
0.000996648
0.00603756
0.00133882
0.00322276
0.00284767
0.00138336
0.00287674
0.00272206
0.00124195
0.00148905
0.00468788
4.41087e-05
0.000466429
4.46833e-05
0.000692965
0.0018856
0.00106525
0.00124069
0.0012416
0.000438146
0.00654587
0.00127665
0.00155012
0.00124092
0.00159491
0.00248831
0.00507897
0.00130757
0.00159138
0.00144447
0.00203602
0.00134372
0.00543148
0.000389408
0.000525291
0.0012406
0.000539045
0.00143919
0.00167813
0.00215543
4.8077e-05
0.00362871
0.00206452
0.000673103
0.00399734
0.00242332
0.00388388
0.00562986
0.00128175
3.94812e-05
0.00124132
0.00127925
0.000442685
0.00278516
0.00270639
0.00108047
0.000431536
0.00124157
0.0012441
0.00146495
0.000131513
0.00136469
0.00123961
0.00132172
0.00271104
0.000464925
0.00137697
5.29377e-05
0.00114767
0.00166091
0.000368312
0.00125602
0.00129274
0.000126241
0.000380604
0.000155682
0.00124373
0.00123961
0.00108374
0.00159715
0.00234514
0.00125154
0.00124543
0.00423341
0.00126142
0.00180713
0.00302868
0.00551625
0.00237435
0.00147299
0.00043946
5.52051e-05
0.000457723
0.00199307
0.00124276
0.000285633
0.00125345
0.000265336
0.00124122