/*--------------------------------*- C++ -*----------------------------------*\
| =========                 |                                                 |
| \\      /  F ield         | OpenFOAM: The Open Source CFD Toolbox           |
|  \\    /   O peration     | Version:  2.3.1                                 |
|   \\  /    A nd           | Web:      www.OpenFOAM.org                      |
|    \\/     M anipulation  |                                                 |
\*---------------------------------------------------------------------------*/
FoamFile
{
    version     2.0;
    format      ascii;
    class       volScalarField;
    location    "0.25";
    object      p;
}
// * * * * * * * * * * * * * * * * * * * * * * * * * * * * * * * * * * * * * //

dimensions      [0 2 -2 0 0 0 0];

internalField   nonuniform List<scalar> 
15166
(
-16.9509
-21.9986
-24.7784
-26.9961
-28.879
-30.4802
-31.9151
-33.1742
-34.2622
-35.0702
-35.8134
-36.388
-21.6885
-24.2115
-25.5769
-27.2494
-28.827
-30.2555
-31.5625
-32.7437
-33.7773
-34.6086
-35.3511
-35.946
-26.8967
-27.7882
-28.0631
-29.0015
-30.0017
-31.0193
-32.0206
-32.955
-33.8065
-34.5343
-35.1811
-35.72
-29.8858
-30.2991
-30.2924
-30.8548
-31.4474
-32.1175
-32.8236
-33.5132
-34.1658
-34.7466
-35.2678
-35.6982
-31.763
-32.0182
-31.9913
-32.3926
-32.7701
-33.2257
-33.721
-34.2199
-34.7044
-35.1479
-35.5527
-35.9033
-33.4186
-33.5382
-33.4797
-33.7552
-33.9917
-34.3016
-34.644
-34.9953
-35.3426
-35.6667
-35.9648
-36.2287
-35.0163
-35.016
-34.9079
-35.062
-35.1795
-35.3681
-35.5836
-35.8113
-36.0409
-36.2574
-36.4543
-36.6184
-36.4962
-36.408
-36.2622
-36.3152
-36.3354
-36.42
-36.5272
-36.649
-36.7763
-36.8981
-37.0077
-37.0956
-37.8402
-37.6857
-37.5165
-37.4923
-37.4378
-37.4382
-37.4563
-37.489
-37.5293
-37.5693
-37.6032
-37.622
-39.0687
-38.8608
-38.676
-38.5912
-38.4793
-38.4122
-38.3578
-38.3169
-38.284
-38.2535
-38.2194
-38.1734
-40.2037
-39.9524
-39.7555
-39.6212
-39.4633
-39.3408
-39.2267
-39.1242
-39.0294
-38.939
-38.848
-38.7382
-41.2625
-40.974
-40.767
-40.5907
-40.3948
-40.2257
-40.0615
-39.9071
-39.7595
-39.6177
-39.4812
-39.3387
-42.2522
-41.9327
-41.7174
-41.5053
-41.2775
-41.0686
-40.862
-40.6631
-40.47
-40.2826
-40.1018
-39.9279
-43.1808
-42.8344
-42.6121
-42.3694
-42.1145
-41.8716
-41.6285
-41.3906
-41.157
-40.9259
-40.689
-40.4334
-44.0546
-43.6849
-43.4563
-43.187
-42.9088
-42.6367
-42.3625
-42.0918
-41.8246
-41.5634
-41.3112
-41.049
-44.8789
-44.4888
-44.2544
-43.9619
-43.6637
-43.3664
-43.0658
-42.7671
-42.471
-42.1796
-41.8977
-41.6222
-45.658
-45.25
-45.0105
-44.6973
-44.3815
-44.0623
-43.7386
-43.4154
-43.0938
-42.7749
-42.462
-42.161
-46.3968
-45.9723
-45.7274
-45.3957
-45.0644
-44.7258
-44.3819
-44.0374
-43.6938
-43.3525
-43.0148
-42.6869
-47.0969
-46.658
-46.4082
-46.0601
-45.715
-45.3593
-44.9976
-44.6342
-44.2711
-43.9107
-43.5545
-43.2059
-47.7619
-47.3097
-47.0553
-46.6924
-46.3348
-45.9637
-45.5861
-45.2055
-44.8249
-44.4466
-44.074
-43.7147
-48.3935
-47.9295
-47.6707
-47.2945
-46.9257
-46.5407
-46.1485
-45.7524
-45.3552
-44.9593
-44.5675
-44.1909
-48.9935
-48.519
-48.2564
-47.8681
-47.489
-47.0915
-46.6861
-46.2757
-45.8633
-45.4508
-45.0379
-44.6331
-49.5669
-49.0812
-48.8142
-48.4148
-48.0266
-47.6176
-47.2003
-46.7772
-46.352
-45.9272
-45.5041
-45.089
-50.1113
-49.6154
-49.3452
-48.9359
-48.5393
-48.12
-47.6921
-47.2579
-46.8212
-46.3848
-45.949
-45.5151
-50.6233
-50.1227
-49.8503
-49.432
-49.0278
-48.5994
-48.1621
-47.7179
-47.2707
-46.8237
-46.378
-45.9324
-51.1168
-50.6073
-50.3312
-49.9046
-49.4936
-49.0569
-48.611
-48.1577
-47.7012
-47.2444
-46.7884
-46.3306
-51.5856
-51.0681
-50.7894
-50.3549
-49.9375
-49.4931
-49.0394
-48.5779
-48.113
-47.6482
-47.1864
-46.7223
-52.0317
-51.506
-51.2249
-50.7832
-50.3601
-49.9087
-49.4478
-48.9788
-48.5059
-48.0319
-47.5599
-47.091
-52.4507
-51.9213
-51.6388
-51.1904
-50.7621
-50.3042
-49.8369
-49.3607
-48.8803
-48.3982
-47.9153
-47.428
-52.8502
-52.3154
-52.0318
-51.5773
-51.1443
-50.6807
-50.2073
-49.7247
-49.2377
-48.7492
-48.2618
-47.7684
-53.2295
-52.6919
-52.4053
-51.9448
-51.5075
-51.0385
-50.5595
-50.0709
-49.5778
-49.0831
-48.5896
-48.0897
-53.5928
-53.0499
-52.76
-52.2936
-51.8521
-51.378
-50.8937
-50.3997
-49.9008
-49.4003
-48.9023
-48.4009
-53.9266
-53.3855
-53.0942
-52.6229
-52.1778
-51.699
-51.2101
-50.711
-50.2068
-49.7003
-49.1947
-48.6854
-54.2496
-53.7039
-53.4093
-52.9335
-52.4851
-52.0022
-51.509
-51.0055
-50.4969
-49.9863
-49.4774
-48.9679
-54.5535
-54.0032
-53.7067
-53.2261
-52.7744
-52.2877
-51.7908
-51.2835
-50.7713
-50.2573
-49.7445
-49.2298
-54.8345
-54.2834
-53.986
-53.5008
-53.0462
-52.5558
-52.0554
-51.5448
-51.0295
-50.5128
-49.9994
-49.4859
-55.0997
-54.5461
-54.2479
-53.758
-53.3004
-52.8068
-52.3034
-51.7895
-51.2705
-50.7491
-50.229
-49.7145
-55.3528
-54.7929
-54.4934
-53.9982
-53.538
-53.0412
-52.5347
-52.0176
-51.495
-50.9686
-50.4388
-49.9025
-55.5791
-55.0201
-54.7216
-54.2215
-53.7592
-53.2594
-52.7504
-52.2305
-51.7049
-51.1756
-50.6414
-50.0819
-55.7972
-55.2317
-54.9336
-54.428
-53.9639
-53.4618
-52.9507
-52.4289
-51.9017
-51.3731
-50.8518
-50.3254
-55.9922
-55.4255
-55.1285
-54.6177
-54.1526
-53.6484
-53.1352
-52.6113
-52.0813
-51.5468
-51.0112
-50.4752
-56.1721
-55.6056
-55.3054
-54.7902
-54.325
-53.8185
-53.3034
-52.7771
-52.2449
-51.7086
-51.172
-50.629
-56.3408
-55.7705
-55.4666
-54.9472
-54.4816
-53.9729
-53.4557
-52.9274
-52.3931
-51.8552
-51.317
-50.7692
-56.4839
-55.9175
-55.6134
-55.0873
-54.6229
-54.1119
-53.5929
-53.0626
-52.5263
-51.9867
-51.4487
-50.9074
-56.6191
-56.0493
-55.7431
-55.2133
-54.7501
-54.2362
-53.7152
-53.183
-52.6448
-52.1031
-51.5615
-51.0155
-56.7315
-56.1632
-55.855
-55.3248
-54.8637
-54.3453
-53.8228
-53.2889
-52.7496
-52.2071
-51.6675
-51.1339
-56.8304
-56.2624
-55.951
-55.4234
-54.9615
-54.4382
-53.9157
-53.3809
-52.8401
-52.2955
-51.75
-51.2058
-56.9118
-56.3483
-56.0289
-55.5089
-55.0382
-54.5184
-53.9951
-53.4588
-52.9171
-52.3721
-51.8277
-51.2921
-56.9809
-56.4181
-56.0938
-55.578
-55.1029
-54.5841
-54.0599
-53.5228
-52.9802
-52.4341
-51.8864
-51.3408
-57.0335
-56.473
-56.1439
-55.6301
-55.1537
-54.6351
-54.1101
-53.5724
-53.0289
-52.482
-51.935
-51.3969
-57.0668
-56.5099
-56.1796
-55.6669
-55.1893
-54.671
-54.1453
-53.607
-53.0625
-52.5134
-51.9605
-51.4069
-57.0891
-56.5328
-56.2011
-55.6891
-55.2105
-54.6922
-54.166
-53.6272
-53.0818
-52.532
-51.9784
-51.4162
-57.0953
-56.5403
-56.2077
-55.696
-55.2167
-54.6986
-54.1721
-53.6332
-53.0883
-52.5404
-51.9943
-51.4466
-57.0825
-56.5328
-56.1993
-55.6882
-55.2083
-54.6901
-54.1633
-53.6245
-53.0796
-52.5313
-51.9835
-51.431
-57.0585
-56.5116
-56.1763
-55.6657
-55.1852
-54.6671
-54.14
-53.601
-53.0559
-52.5072
-51.9595
-51.4142
-57.0192
-56.4754
-56.1389
-55.6286
-55.1478
-54.6298
-54.1027
-53.564
-53.0193
-52.4707
-51.9208
-51.3692
-56.9698
-56.4244
-56.0869
-55.5774
-55.0963
-54.5787
-54.0522
-53.5144
-52.9711
-52.4242
-51.8774
-51.336
-56.8964
-56.3584
-56.0206
-55.5117
-55.0307
-54.514
-53.9885
-53.4525
-52.9107
-52.3653
-51.817
-51.2598
-56.8171
-56.2774
-55.9391
-55.4314
-54.951
-54.4354
-53.9116
-53.3775
-52.8382
-52.2965
-51.7598
-51.2379
-56.7165
-56.1808
-55.8426
-55.3361
-54.8566
-54.3428
-53.8207
-53.2883
-52.7502
-52.2076
-51.6628
-51.125
-56.6017
-56.0696
-55.7317
-55.2269
-54.7484
-54.2362
-53.7154
-53.184
-52.6461
-52.103
-51.556
-51.0103
-56.4765
-55.9462
-55.6074
-55.104
-54.6267
-54.116
-53.5964
-53.0657
-52.5279
-51.9851
-51.4384
-50.8844
-56.3356
-55.8063
-55.4684
-54.9667
-54.4909
-53.9818
-53.4635
-52.9337
-52.3967
-51.8556
-51.3147
-50.7784
-56.1754
-55.6508
-55.3144
-54.8153
-54.341
-53.8333
-53.3162
-52.7872
-52.2512
-51.7106
-51.1676
-50.621
-56.0035
-55.4813
-55.146
-54.6493
-54.1766
-53.6706
-53.1543
-52.6267
-52.0922
-51.5544
-51.0176
-50.4842
-55.8154
-55.2978
-54.9639
-54.4693
-53.998
-53.4933
-52.9785
-52.4524
-51.9201
-51.3846
-50.8483
-50.3097
-55.6148
-55.1016
-54.7681
-54.2753
-53.8052
-53.302
-52.789
-52.2651
-51.7353
-51.2031
-50.6729
-50.1513
-55.4065
-54.8916
-54.5578
-54.0668
-53.598
-53.0966
-52.5856
-52.0645
-51.5374
-51.0069
-50.4749
-49.9441
-55.1709
-54.6639
-54.3322
-53.8435
-53.3763
-52.8772
-52.3689
-51.8507
-51.3268
-50.7996
-50.2729
-49.7611
-54.9266
-54.4233
-54.0926
-53.6058
-53.1405
-52.6438
-52.1386
-51.6232
-51.1023
-50.5772
-50.0493
-49.5288
-54.67
-54.1701
-53.8392
-53.3547
-52.8912
-52.3972
-51.895
-51.3824
-50.864
-50.3413
-49.8175
-49.3135
-54.3985
-53.9005
-53.5714
-53.0898
-52.6289
-52.1375
-51.6378
-51.1278
-50.6113
-50.09
-49.5639
-49.0432
-54.1128
-53.6182
-53.2894
-52.8108
-52.3527
-51.8645
-51.3674
-50.8596
-50.3451
-49.8263
-49.3036
-48.7877
-53.8047
-53.3176
-52.9929
-52.5185
-52.0635
-51.5784
-51.0839
-50.5788
-50.067
-49.5521
-49.0363
-48.5331
-53.4848
-53.0034
-52.6819
-52.2117
-51.7601
-51.2781
-50.7864
-50.284
-49.7753
-49.2631
-48.748
-48.2373
-53.1597
-52.6806
-52.3593
-51.8921
-51.4428
-50.9638
-50.4749
-49.9756
-49.4703
-48.9624
-48.4548
-47.9631
-52.8153
-52.3411
-52.022
-51.5583
-51.1118
-50.6353
-50.1496
-49.6538
-49.1519
-48.6466
-48.1378
-47.6324
-52.4576
-51.9864
-51.6698
-51.2096
-50.7659
-50.2926
-49.8102
-49.3183
-48.8206
-48.3202
-47.8191
-47.3341
-52.0849
-51.6192
-51.3039
-50.8466
-50.4056
-49.9356
-49.4573
-48.9695
-48.4762
-47.9798
-47.48
-46.9827
-51.6941
-51.2356
-50.9229
-50.4693
-50.0313
-49.5651
-49.0908
-48.6072
-48.1185
-47.6268
-47.1361
-46.6634
-51.294
-50.8395
-50.5284
-50.0785
-49.6435
-49.1813
-48.7109
-48.2312
-47.746
-47.2569
-46.7637
-46.2833
-50.8803
-50.4298
-50.1207
-49.6744
-49.2431
-48.7847
-48.3179
-47.8419
-47.3599
-46.8735
-46.3811
-45.8902
-50.4505
-50.0047
-49.698
-49.2565
-48.8292
-48.3751
-47.9123
-47.4405
-46.9631
-46.4826
-46.0002
-45.5222
-50.0046
-49.5647
-49.2613
-48.8249
-48.402
-47.9523
-47.494
-47.0269
-46.5547
-46.0804
-45.6081
-45.1528
-49.5435
-49.11
-48.8103
-48.3794
-47.961
-47.5157
-47.0618
-46.5992
-46.1309
-45.6596
-45.1854
-44.7177
-49.0671
-48.6419
-48.346
-47.9202
-47.506
-47.0651
-46.6154
-46.1573
-45.6939
-45.2276
-44.7614
-44.3159
-48.5857
-48.1624
-47.8683
-47.4474
-47.0371
-46.6005
-46.1556
-45.7022
-45.2438
-44.7822
-44.3163
-43.8494
-48.0849
-47.6676
-47.3763
-46.9604
-46.554
-46.1223
-45.6823
-45.2345
-44.7821
-44.3278
-43.8751
-43.4399
-47.5685
-47.1576
-46.8696
-46.4585
-46.0569
-45.6301
-45.1958
-44.7539
-44.3073
-43.859
-43.4112
-42.9879
-47.0384
-46.6342
-46.3495
-45.9434
-45.546
-45.1246
-44.6957
-44.2595
-43.8182
-43.3739
-42.9275
-42.5064
-46.4952
-46.0967
-45.815
-45.414
-45.0214
-44.6055
-44.1824
-43.7516
-43.3157
-42.8756
-42.4272
-41.9805
-45.9382
-45.5457
-45.2674
-44.8721
-44.4846
-44.0741
-43.657
-43.2327
-42.8044
-42.3752
-41.9485
-41.5586
-45.368
-44.9822
-44.7067
-44.3171
-43.9347
-43.5301
-43.119
-42.7009
-42.279
-41.8552
-41.4265
-41.0097
-44.7848
-44.403
-44.1317
-43.7485
-43.3717
-42.973
-42.5674
-42.1551
-41.7389
-41.3203
-40.8991
-40.501
-44.1806
-43.809
-43.5427
-43.1661
-42.7949
-42.4023
-42.0025
-41.5964
-41.1864
-40.7744
-40.3584
-39.9477
-43.5713
-43.2033
-42.9399
-42.5695
-42.2046
-41.8181
-41.4247
-41.0254
-40.6224
-40.2188
-39.8168
-39.4399
-42.9467
-42.5841
-42.3242
-41.96
-41.6008
-41.2206
-40.8339
-40.4412
-40.0448
-39.6469
-39.2446
-38.8449
-42.2978
-41.9462
-41.6929
-41.336
-40.9832
-40.6099
-40.2297
-39.8442
-39.4553
-39.0654
-38.676
-38.3104
-41.6467
-41.2998
-41.049
-40.6985
-40.352
-39.9857
-39.6128
-39.2345
-38.8535
-38.4713
-38.0864
-37.7056
-40.9778
-40.6385
-40.392
-40.0482
-39.7084
-39.3489
-38.9834
-38.613
-38.2398
-37.8662
-37.4956
-37.1505
-40.2981
-39.9639
-39.7213
-39.3843
-39.0511
-38.6993
-38.3413
-37.9787
-37.6131
-37.2454
-36.8737
-36.5145
-39.5992
-39.2738
-39.0367
-38.7076
-38.3815
-38.0372
-37.6871
-37.3324
-36.9749
-36.6162
-36.2542
-35.9012
-38.8883
-38.5711
-38.3391
-38.018
-37.6992
-37.3631
-37.0215
-36.6754
-36.3273
-35.98
-35.6353
-35.3064
-38.17
-37.8572
-37.6294
-37.3158
-37.0045
-36.6764
-36.3433
-36.0059
-35.6667
-35.3277
-34.9901
-34.6741
-37.4341
-37.13
-36.907
-36.6008
-36.2971
-35.9771
-35.6521
-35.323
-34.9922
-34.6603
-34.3255
-33.9997
-36.6867
-36.3888
-36.171
-35.8731
-35.5769
-35.2652
-34.9482
-34.6284
-34.3071
-33.9863
-33.6678
-33.3771
-35.924
-35.6351
-35.4222
-35.1323
-34.8438
-34.5407
-34.2329
-33.9221
-33.61
-33.298
-32.9827
-32.6729
-35.1522
-34.8692
-34.6606
-34.379
-34.0988
-33.8044
-33.5061
-33.2053
-32.9031
-32.6016
-32.2998
-32.0125
-34.3669
-34.09
-33.8872
-33.614
-33.3421
-33.057
-32.7685
-32.4783
-32.1874
-31.8983
-31.6121
-31.3465
-33.5656
-33.2982
-33.101
-32.8365
-32.5734
-32.2985
-32.0202
-31.7405
-31.4606
-31.1819
-30.9017
-30.6275
-32.7549
-32.4946
-32.3032
-32.0479
-31.7939
-31.5291
-31.2618
-30.993
-30.7248
-30.4583
-30.1947
-29.9526
-31.9305
-31.6788
-31.4937
-31.2476
-31.003
-30.7488
-30.4926
-30.2357
-29.9798
-29.7251
-29.469
-29.2273
-31.0998
-30.8542
-30.6739
-30.437
-30.2019
-29.9583
-29.7135
-29.4687
-29.2259
-28.9866
-28.7505
-28.5485
-30.256
-30.0176
-29.8424
-29.6152
-29.39
-29.1576
-28.9238
-28.6907
-28.4598
-28.2329
-28.0085
-27.7937
-29.3983
-29.1692
-29.0013
-28.7837
-28.5683
-28.3465
-28.1241
-27.9019
-27.6811
-27.4616
-27.2399
-27.0184
-28.5369
-28.3119
-28.149
-27.9412
-27.7361
-27.5257
-27.3153
-27.1055
-26.8975
-26.6926
-26.4927
-26.3201
-27.658
-27.4428
-27.2873
-27.0899
-26.8955
-26.6969
-26.4992
-26.3031
-26.1095
-25.919
-25.7284
-25.5429
-26.7734
-26.5657
-26.4161
-26.2292
-26.0461
-25.8607
-25.6766
-25.4953
-25.3169
-25.143
-24.9737
-24.8263
-25.8794
-25.6812
-25.5381
-25.3614
-25.1896
-25.0168
-24.8468
-24.6811
-24.5196
-24.3625
-24.208
-24.071
-24.9827
-24.789
-24.6516
-24.4856
-24.326
-24.1669
-24.0118
-23.8613
-23.7167
-23.5779
-23.4444
-23.3453
-24.0754
-23.8887
-23.7584
-23.6031
-23.4555
-23.3104
-23.1708
-23.0362
-22.9072
-22.784
-22.663
-22.5445
-23.1577
-22.9806
-22.8578
-22.7144
-22.5796
-22.4492
-22.3252
-22.207
-22.094
-21.9854
-21.8775
-21.771
-22.2391
-22.0691
-21.9525
-21.8208
-21.6999
-21.585
-21.478
-21.3783
-21.2851
-21.1992
-21.1235
-21.085
-21.3175
-21.1529
-21.0434
-20.9236
-20.8169
-20.7187
-20.6298
-20.5495
-20.4766
-20.4095
-20.3444
-20.2878
-20.3878
-20.2318
-20.1303
-20.0237
-19.932
-19.8514
-19.7821
-19.7222
-19.6704
-19.6251
-19.5847
-19.574
-19.4578
-19.3092
-19.215
-19.1215
-19.0463
-18.9849
-18.9363
-18.899
-18.8705
-18.848
-18.8262
-18.8114
-18.5279
-18.3849
-18.2992
-18.2204
-18.1626
-18.1224
-18.0971
-18.0844
-18.0817
-18.0864
-18.0952
-18.1182
-17.5943
-17.4591
-17.3827
-17.3198
-17.282
-17.265
-17.2657
-17.2808
-17.3069
-17.3413
-17.3819
-17.4371
-16.6636
-16.5346
-16.4682
-16.4234
-16.4081
-16.4175
-16.4471
-16.492
-16.5481
-16.6121
-16.6821
-16.7711
-15.7316
-15.6109
-15.5565
-15.5329
-15.5445
-15.5844
-15.6465
-15.7243
-15.8117
-15.9033
-15.993
-16.0859
-14.8032
-14.6891
-14.65
-14.653
-14.6977
-14.7744
-14.8739
-14.9887
-15.1112
-15.2362
-15.3599
-15.4985
-13.8739
-13.7691
-13.7519
-13.7918
-13.8797
-14.0011
-14.144
-14.2986
-14.4579
-14.616
-14.7667
-14.9166
-12.9399
-12.8493
-12.8696
-12.9644
-13.1096
-13.2846
-13.4757
-13.6727
-13.8685
-14.0582
-14.236
-14.408
-11.994
-11.9366
-12.0269
-12.206
-12.4257
-12.6613
-12.8999
-13.1338
-13.3628
-13.5808
-13.7763
-13.9378
-11.0135
-11.1023
-11.3444
-11.6532
-11.9551
-12.2386
-12.5132
-12.7743
-13.0219
-13.2689
-13.4728
-13.6591
-1.45032
9.6949
-10.3163
-19.2173
-19.8562
-7.13394
-4.69743
32.6953
-44.7362
-39.7764
-34.8128
-14.7875
16.5783
-40.9295
1.39279
-6.72619
-40.9556
-30.4684
-29.9067
-6.45905
27.9741
26.3231
17.7874
-16.0844
-0.788921
-10.8594
24.3646
0.644934
-42.3825
-37.8093
-42.3899
30.8037
9.56828
-34.4277
16.7822
18.0544
33.6012
-30.8072
33.2036
-14.6944
2.33369
-1.96536
24.616
-0.411914
33.4179
26.1226
19.0408
19.9513
33.3491
27.9622
18.7692
32.5123
30.9298
1.50584
-36.6944
9.40417
12.8647
-2.34258
-31.5612
0.925662
24.1692
30.2206
1.55133
-3.89631
17.5362
9.69711
-13.7425
30.4853
16.195
-39.2325
-36.7914
13.9389
33.1034
-13.2883
-15.4591
2.63216
-44.2743
-1.66656
10.0252
28.7988
2.74458
-1.91966
33.8566
32.5456
2.01041
-44.2302
-13.7629
0.934176
-39.4379
33.5267
27.9064
-41.2751
-0.210428
7.81939
34.2838
-4.1676
0.522939
-1.89998
-0.624686
-13.3636
-15.9536
14.5949
5.57341
8.89916
-1.6948
33.9229
1.86323
33.1916
-13.6789
0.382187
17.8578
-2.05314
30.5074
-7.69561
1.70132
15.6823
-19.8379
-6.19961
-45.5452
-33.2007
-10.6552
-21.4199
-41.8103
15.4222
-18.1047
-40.0343
-1.91367
11.4487
19.2904
1.04558
31.5834
1.41512
21.4253
8.83559
23.5208
10.761
34.0076
-39.2279
31.524
10.3673
-19.0647
28.6582
27.1212
0.556471
30.8866
-36.8738
31.6614
-10.6316
-47.8212
3.39972
0.341494
16.6605
-1.65908
4.83445
22.1796
3.23942
31.8095
-1.34542
-41.5162
-14.5243
-21.9993
-6.29795
-30.1183
-15.022
24.1409
26.3222
31.4775
34.2889
10.93
1.5087
-37.8675
-18.0847
-36.6567
-19.1689
-1.10065
-41.198
1.97316
32.3781
25.2067
-36.9714
30.9522
-32.0391
-7.55594
33.3791
6.30759
31.448
3.50824
-1.689
31.766
1.63596
-40.241
-1.72988
31.8264
-5.87947
32.0174
8.09052
26.8692
30.3602
2.39769
-60.9768
-47.4434
32.4014
34.3121
31.1356
32.8512
14.1271
-7.96617
-36.1597
-13.8514
-15.9263
4.36075
-46.9058
33.3729
34.2016
1.9551
31.1767
-11.1633
-13.1422
-63.0643
30.5365
32.4247
-47.707
33.5509
-3.21889
-3.24353
-39.6308
-44.6411
-2.04946
-56.0364
19.9538
33.6718
-17.0949
-2.28521
-13.0308
-13.3858
27.4029
31.1999
-47.2291
-1.8018
32.8699
-33.242
19.4587
-40.3815
-45.5995
32.9303
2.50795
19.8955
6.01647
-42.1359
31.334
-39.9541
-13.4226
-40.2724
-71.0847
28.2464
-31.6505
0.0967757
32.6427
-42.0603
33.3818
-15.2308
27.0927
17.3012
-8.6005
-14.3836
27.5816
-46.5255
32.6733
-3.68118
6.17561
0.181994
18.6011
-45.0977
33.077
32.8701
-44.2177
21.8627
34.4023
34.2317
32.6496
32.5574
23.3658
33.6804
33.1813
-25.4765
27.3844
-33.0489
33.2112
-49.997
29.4663
32.632
-42.1158
34.9205
34.9145
30.4491
31.9231
28.0228
30.6858
23.9415
34.206
29.0746
-0.736802
-10.8025
-37.2864
22.3451
-46.3779
34.4732
1.5648
14.4025
16.6585
-27.737
34.6742
3.45703
-50.8179
32.4902
24.3111
34.8674
-31.4416
2.02775
27.7026
21.9894
-41.6798
-15.3399
69.6511
34.204
-30.8018
-26.2062
-2.29862
2.59436
34.7071
-4.08281
0.682786
-41.6963
-2.25468
2.65682
4.25962
-1.69368
14.9983
2.17031
6.53075
-0.276056
32.972
0.137302
29.3279
12.8742
31.6001
33.5578
-41.9399
-60.3165
-12.6844
-0.18854
-4.04243
13.8608
26.0022
34.7659
-1.17184
-25.3005
33.5215
-46.0841
-39.9107
30.0862
33.6843
-48.9189
-60.9498
21.2655
-21.6307
-3.16892
0.34013
-1.54628
0.76076
-29.6488
30.2364
33.9572
-33.5531
-41.5169
28.7198
33.1551
-48.1716
3.57931
-35.7659
-11.0885
-11.0416
-1.39424
33.1056
-66.6308
27.9454
-0.874086
21.693
28.6145
19.7086
3.51905
-37.2403
-35.648
30.7576
30.2846
-3.01054
-55.3724
-2.78727
-33.7965
-26.8326
13.1277
-14.3293
-13.0055
14.0886
-43.0715
30.8101
-48.6683
-41.1909
31.3044
33.2548
-2.20072
-0.828953
1.5695
-49.1907
12.7217
28.6826
-62.1036
30.3656
30.5675
3.42637
0.238728
30.6331
1.71939
-2.97911
32.47
0.619953
-21.6313
-47.2375
33.89
0.606055
-14.0179
-11.2268
-31.3504
29.4206
-32.4204
1.98317
-41.1711
-37.3368
28.5679
-6.76713
34.5438
33.2177
12.9547
32.0569
8.53652
-14.4654
-6.79563
31.8711
26.9986
2.14491
-37.2924
29.7093
33.3925
10.7437
-41.7434
28.3038
9.6597
34.7711
34.1954
-32.2241
28.5104
-10.3209
22.7963
-4.45798
-50.0043
-28.1515
2.294
29.3131
22.853
33.2768
-25.8236
33.5975
19.0155
0.863402
-37.7333
-46.7172
30.8285
2.01118
31.8688
-13.1679
0.135619
33.4477
33.2658
-23.2001
-20.6052
30.1953
34.118
-6.1986
-19.3102
-42.8732
-22.2312
0.97197
32.3108
-57.3306
-17.1421
30.5358
-23.8088
-1.02628
33.0927
33.9078
-40.4977
31.0279
33.6068
2.46951
26.2399
34.3576
22.8573
-48.1732
31.0905
-37.4369
31.6197
-49.1773
-13.7855
-36.6899
2.01913
-15.7945
31.4283
-37.6445
-13.9898
21.4128
15.8283
-12.538
1.33743
31.5463
-0.677064
3.81906
-14.8157
33.6629
30.245
-38.7657
34.915
-15.3221
-17.4756
-37.0276
-2.14617
25.9548
-47.3306
-36.0632
30.3759
-42.4138
-7.67357
-17.6965
-21.4696
-47.8958
-43.2141
-1.81634
-26.2736
1.97528
19.5988
9.10004
13.8127
-17.402
28.4629
33.6233
-30.2239
26.2085
28.9568
-13.9222
0.0238498
-0.0902235
16.5214
-13.4564
30.6384
-38.9431
-31.2805
-25.965
31.7791
0.542662
17.0119
27.6788
10.8497
-49.6016
24.359
29.9873
30.3141
12.4204
0.493585
-9.28773
-2.65622
-36.0318
-35.8894
33.0026
-43.6768
4.27282
-45.6524
25.0151
32.9395
27.5437
-43.7609
0.14145
-32.3759
1.33626
28.4449
-13.4362
32.2702
-36.532
-0.106623
-45.9265
-40.832
33.4195
1.86136
-0.654592
-26.6853
-17.3556
11.6871
11.8405
8.29699
-12.8435
-6.27403
7.61619
29.7151
-29.1527
-33.8024
-1.84779
0.835635
-44.274
34.1338
32.6796
33.5571
10.7014
29.3229
-6.83006
-30.7123
25.6761
-1.77846
11.3728
30.1319
1.58079
14.3819
33.8541
-50.1717
-50.6243
3.40601
-13.0961
29.1596
-49.6
19.2966
25.0813
32.1368
-2.09998
31.9727
29.3892
23.4514
-22.1533
-9.41683
-0.311794
-48.0917
-50.8554
32.1712
-60.3978
4.45715
2.77494
-45.726
-31.0335
10.4284
1.97937
-41.8063
-1.10422
-36.3112
31.6578
-31.071
2.04245
-45.8226
-0.0425463
32.8722
-37.5672
33.5647
17.0788
25.479
-48.3008
-1.12725
18.9435
-48.017
31.7439
-36.8127
-3.96846
-40.1802
-17.9648
1.15193
2.37417
24.1735
-15.0503
32.231
4.07694
-25.3618
34.2125
34.2611
-38.4988
23.484
-38.2379
33.787
27.3567
33.0494
-2.16281
13.5016
-1.13493
1.53123
30.1491
2.15084
34.8492
-10.6712
-35.423
1.48291
28.6338
34.0738
-36.8877
-5.31477
-26.7413
18.8967
-52.4225
-17.304
-28.5333
-40.5634
-1.85343
0.859912
33.1761
20.6283
34.2902
29.5841
3.84066
34.8011
34.8809
32.877
-36.8727
-16.749
32.8726
-0.516609
4.28319
-56.1903
33.4573
1.27653
15.0983
-38.1953
6.49136
-2.35545
-41.3423
2.07417
-26.4582
-57.5023
6.34783
32.1217
-1.60371
22.9619
32.7271
1.43197
-8.66123
-1.26768
7.34667
-9.45321
-52.0522
-32.105
27.5526
29.3647
1.9362
-13.898
-0.617739
-0.599664
-21.2278
14.837
30.5942
16.4585
-43.479
-2.85172
-109.343
-0.502933
-10.3205
32.8709
30.0895
-1.64902
31.6832
-17.6267
29.2375
-10.5244
-42.6919
-43.731
31.3394
-24.6556
-15.0269
17.2373
8.04758
27.3307
-57.618
-13.3744
29.0122
0.172298
32.5474
-8.07617
-39.4763
-44.9054
-16.2926
-13.9864
-43.1262
-23.7827
6.09008
34.3478
29.1737
-12.3895
7.39051
-3.31103
33.7837
-37.1551
-5.28
-42.0482
-28.4033
25.8674
24.2228
-48.1782
-11.1224
27.649
-12.2209
-38.8021
-38.6226
0.225235
-43.155
-15.7408
34.0799
32.4471
30.5525
0.121043
-10.7052
-2.81314
1.76316
2.39509
31.0338
23.1837
20.4884
-37.6276
0.688514
-43.6242
15.4315
23.5401
1.97578
-38.3398
-4.19052
26.378
-42.6567
23.7301
30.5311
28.5107
-2.1062
26.2442
-37.921
10.2216
14.0982
31.946
-39.6736
27.9633
15.9388
-15.2621
-13.9873
26.9507
-26.7152
-28.9002
30.8639
0.433058
-50.497
15.3247
12.5766
-9.05334
-57.9944
26.8639
-0.40801
1.2272
-45.2688
29.9271
-48.5172
1.4147
-36.3486
-38.1027
33.7347
6.52501
33.5167
-29.9518
6.55937
29.3221
-2.02768
-50.2314
34.0645
34.0012
34.6076
3.20499
2.01122
15.2847
-41.1269
-40.4881
-32.05
0.360008
-14.362
3.90165
12.7525
-39.4289
25.0018
27.6725
27.9914
16.9099
33.2814
32.592
-37.2927
0.0232705
34.2696
-32.3164
31.6837
1.16599
-41.5139
-4.31304
1.9941
4.49456
29.8181
-20.7189
-10.794
26.3648
-54.3663
-4.67366
3.81269
16.24
23.0286
-11.7494
27.8163
2.62448
-3.10823
-13.6859
13.9029
-13.0014
-40.8846
33.1942
-16.5591
22.1998
-35.625
28.2512
30.3833
32.3462
-40.4907
31.8377
1.69225
32.6912
-10.5354
-2.26275
-41.3745
30.0023
21.0418
25.7144
-8.178
-43.8293
-35.6632
-0.40581
34.1028
2.75075
33.1417
-31.5484
33.1222
-2.02812
-45.3247
34.2187
-35.5681
33.0315
32.9677
-15.0014
-29.4711
23.6207
0.684284
15.0862
34.8816
-1.35954
-48.1559
32.201
-2.31273
-15.4657
10.6727
33.1987
33.6548
-31.4566
31.4257
32.5892
-10.3366
31.5222
27.0091
30.5752
31.2624
1.60296
-1.60439
-39.9576
-5.99839
-38.5835
32.9533
-0.804622
-36.8841
33.1547
-2.25917
30.0599
25.1406
31.0499
31.0506
18.4486
-41.1173
-37.9328
30.7907
-33.0457
-21.1865
26.0592
33.8203
-45.3805
-30.5871
-38.5953
-21.5312
-15.9043
28.5285
-9.882
-18.2769
-31.1252
-0.42531
-40.356
32.9828
12.6814
1.72457
-3.20788
-3.20825
31.495
-2.10154
32.5861
-0.147848
31.7695
-7.39281
3.35732
-46.2743
33.6713
1.90132
31.4311
33.7346
-25.0887
27.0593
-17.7763
32.256
-1.60605
30.3413
21.4566
2.94441
10.3738
34.4565
30.9354
-0.144485
2.32894
33.676
2.34963
28.6722
-31.2522
-31.5233
31.3131
-19.2301
18.6952
-100.473
-44.7444
33.4994
-53.3636
-41.4451
2.3272
31.071
-42.9847
-44.2788
2.48386
26.4037
-1.18748
-7.21599
30.6152
-10.4871
-17.2332
6.32944
-13.8936
-61.6259
13.9263
-1.1396
24.9502
0.479172
10.4684
24.6882
-64.2238
24.6501
5.48916
-3.13408
-47.6106
26.861
4.74099
7.89507
27.7843
24.4378
33.6416
34.6846
-15.0389
-1.38145
-13.6722
2.64466
39.2569
26.7149
-87.2567
29.5141
-29.7811
1.12285
-50.6271
-0.313848
2.76074
11.6012
30.7178
31.6786
-48.0383
2.65477
-16.9794
-1.89331
27.143
-48.1301
0.96424
32.9299
1.42885
1.12311
5.79439
16.3193
-13.2407
-40.507
-22.0777
2.98796
-2.61628
31.315
32.3654
32.1013
-44.7657
27.5805
31.2644
2.89366
11.4007
-35.2103
32.3789
-14.2357
14.0746
1.30429
34.0989
-2.03849
31.9374
32.1159
-7.65395
-12.0502
33.1985
-16.4664
21.8032
1.68345
-35.805
-40.575
33.1067
-2.85364
-17.834
-35.3347
-20.78
23.262
-38.5957
1.97623
1.55934
0.332763
-19.5809
33.9483
-46.8804
0.272318
34.8242
-43.476
29.6578
25.6966
-18.9916
14.0709
1.72965
20.51
30.4522
31.2393
-1.02265
-40.3185
-2.33555
-16.7973
-17.1019
-44.1915
21.5538
-39.7771
-41.4306
8.89331
14.3884
2.30214
-1.64864
6.33138
-12.6704
-7.31684
0.978857
-43.8625
33.3768
-0.78618
31.4703
-34.5776
3.54576
1.91648
-61.945
31.4302
-35.6242
-20.5736
23.5166
30.2839
-26.9817
20.094
-40.0606
33.0023
32.5505
34.7563
25.7689
33.7512
31.7373
-18.4035
33.6523
3.7305
33.2936
15.2538
28.4023
-22.9019
29.3576
-32.7812
11.3614
34.4672
22.7811
34.2612
33.3564
34.5622
-28.1332
-3.82757
8.56671
2.1127
-20.3242
-39.0751
1.94933
-44.6962
2.61326
15.3823
32.7894
30.9518
-43.4261
-22.5862
22.7286
-46.1841
-7.22488
34.5077
-2.79273
32.3329
-49.1572
0.790966
-16.0364
-4.17642
21.3016
32.1033
30.7621
25.3503
31.5355
-1.80302
21.0857
30.5525
-46.5594
5.93795
14.4655
29.3163
31.473
-19.0035
32.0347
-16.9483
-7.3265
-12.6117
1.2331
-8.90753
32.4647
-41.3688
33.2283
29.7173
-26.7181
-29.8874
25.7951
1.47497
32.8718
1.26624
1.6985
-0.741221
15.9079
32.0374
28.6348
-38.3194
32.986
32.5485
6.31764
3.50695
26.4997
26.6296
19.8658
33.0227
-22.3306
33.5423
-0.832789
33.6934
7.4826
7.33761
1.94823
-37.3005
-18.945
28.7793
-26.3044
-42.0035
-45.8931
2.0483
-39.9409
34.5
33.8131
-0.313997
-9.5962
27.9937
32.7164
-34.9914
31.8838
-1.7393
-37.1453
3.10375
32.2185
-16.2652
31.0863
13.6663
-12.3389
-0.646068
43.8187
-0.877386
-44.9133
18.1235
3.32202
16.269
30.698
-1.37845
-0.584945
-1.89857
15.9756
32.8992
-25.827
-3.48153
31.6003
25.0838
34.068
1.86392
34.4505
25.8245
27.7073
-21.9095
33.6478
-15.9183
34.7955
-11.0409
30.7093
32.1789
33.8854
-0.726356
25.9999
32.5517
31.8925
7.62815
0.834892
31.3691
23.858
1.75007
-4.78591
-50.6063
0.949052
-37.1584
-45.307
32.8791
33.5246
-27.2519
24.6987
-31.6179
-51.7075
-25.8334
-13.3888
-35.9687
34.748
28.4001
-1.4694
33.8041
-5.593
-0.80001
2.93773
-0.152979
1.91415
4.18817
-25.7014
-99.7132
-31.1675
8.16033
-37.8265
29.1139
-3.68979
30.9727
28.3066
-21.3062
27.1168
-43.2499
34.6476
24.7127
20.222
-1.98529
2.24583
16.4855
21.3173
33.6271
32.8083
-43.905
27.9016
30.9195
-8.96847
32.744
33.3524
-1.1209
32.7741
-42.0877
4.06685
-18.5873
14.6903
-18.3362
32.9628
-31.9988
-16.0513
7.04351
-32.87
5.31441
-10.4481
1.21199
-18.7035
-40.3062
-25.4814
-0.625319
-1.4368
25.5365
32.4427
-38.1168
31.2278
-24.4667
33.2706
32.1492
2.05377
33.6002
-1.25111
-33.0838
27.9688
-31.6464
24.1339
-49.4584
-16.075
33.5387
33.8298
-50.4773
32.4101
-14.3489
34.5881
-38.595
22.765
-31.635
33.8984
12.0371
5.1912
-41.0523
-32.2019
1.73264
-0.106487
-6.9245
-5.48396
34.3683
-0.922887
32.9744
30.2764
31.7907
-43.0496
2.93357
-33.8121
30.4028
34.1586
32.1722
32.875
-42.2484
-5.02546
1.63997
3.45874
-28.7195
2.9228
33.4751
31.3312
5.23747
-17.6366
-35.9567
34.0238
32.9626
1.89452
31.1586
-27.0777
8.709
11.5572
34.2116
33.4588
-9.8689
26.477
-1.43749
2.77611
34.6091
7.31765
-19.5835
2.47396
32.5858
-9.83155
23.7445
-50.0104
16.092
-27.9615
-40.2524
6.26419
3.44662
-9.88819
0.846183
30.7724
33.3992
32.4122
-1.11469
22.7733
-27.9299
8.2052
-13.1884
-16.8347
-0.29811
2.14171
14.6176
-11.7657
0.732673
28.8249
4.04879
-45.8881
-5.95188
-7.47293
-22.5456
23.1826
13.8747
21.3221
-48.2135
12.3294
-1.89811
32.4421
30.9212
-40.264
0.0218835
34.7582
31.3153
-4.33921
32.1525
-28.1396
-26.4707
5.69697
26.4809
-9.30649
30.8731
-47.8835
-39.9078
11.083
-30.13
-1.49977
33.521
-1.824
-23.0465
14.5844
31.167
-27.7656
-38.243
16.6186
-13.8526
-0.748161
-32.9128
-10.5947
3.24499
-3.68693
34.0812
33.5981
25.1482
13.8532
29.3651
-6.36262
1.57162
2.423
-40.4122
-15.3044
-36.0634
26.3691
33.6159
32.7989
-21.235
17.1317
2.80928
-1.22526
29.3854
-26.9665
-38.7118
-14.6001
4.12317
-16.0614
20.4341
34.3165
33.1746
-25.6542
34.3771
-40.5942
-0.688624
4.20907
-17.6361
33.7527
-41.0015
32.5831
34.6438
8.06107
-48.6946
-2.69316
31.5873
19.7344
19.9356
-1.60007
21.4344
17.6249
-37.6624
-32.9245
-0.990841
32.316
-3.20295
33.4988
-42.7769
-1.66592
21.1551
-0.369364
29.3411
-26.3225
26.8743
-1.63718
29.498
33.7444
31.6025
-38.2616
19.9014
-36.6842
3.6074
-14.4873
34.2999
-49.7648
-12.4576
-8.44662
-4.29187
33.6095
6.57924
-13.6008
1.35526
-24.0649
1.92838
7.59342
-0.0342719
-3.14302
-16.6802
-13.2766
1.21129
-43.554
-17.3011
-26.0011
-38.0054
-8.65517
-2.52403
34.325
-6.49827
0.927542
-29.5662
-10.454
-43.7625
21.8668
-12.2842
10.5497
-0.931536
-7.54228
-22.593
20.2997
-36.0796
-12.5914
-11.1907
-26.9007
33.6252
-40.8949
3.51187
-0.286775
-42.8375
-11.7175
12.1366
18.4307
1.49774
-40.2316
5.67395
-30.6475
-40.326
32.9185
-2.39712
34.4086
1.26237
-14.0479
31.2261
1.83941
34.4529
-29.723
1.70296
32.719
1.59967
13.5057
15.0145
4.00382
-23.845
29.1051
-43.7926
-27.5964
-48.1368
11.6678
32.9154
29.792
-42.264
-16.9627
2.06701
-58.0608
23.7225
-43.4702
12.829
-18.5172
0.284449
-2.62764
31.2053
-14.7037
31.1256
-28.5583
31.2728
-2.5922
1.97766
4.33583
22.5634
11.8835
-23.1082
-1.87062
-30.1826
32.057
18.2636
-16.0147
-38.2038
0.255919
27.849
0.871424
1.88984
30.9178
-41.1953
-25.4302
16.3439
-2.12726
-34.9821
-7.76243
32.439
4.96017
21.1263
17.5496