/*--------------------------------*- C++ -*----------------------------------*\
| =========                 |                                                 |
| \\      /  F ield         | OpenFOAM: The Open Source CFD Toolbox           |
|  \\    /   O peration     | Version:  2.3.1                                 |
|   \\  /    A nd           | Web:      www.OpenFOAM.org                      |
|    \\/     M anipulation  |                                                 |
\*---------------------------------------------------------------------------*/
FoamFile
{
    version     2.0;
    format      ascii;
    class       volScalarField;
    location    "0.24";
    object      k;
}
// * * * * * * * * * * * * * * * * * * * * * * * * * * * * * * * * * * * * * //

dimensions      [0 2 -2 0 0 0 0];

internalField   nonuniform List<scalar> 
9648
(
2.71162
2.70661
2.70406
2.69786
2.68756
2.67318
2.655
2.6328
2.60651
2.57611
2.5418
2.50396
2.46315
2.42003
2.37533
2.32983
2.28425
2.23926
2.19539
2.15313
2.11283
2.07476
2.0391
2.00596
1.97539
1.94741
1.92198
1.89905
1.87851
1.86028
1.84423
1.83023
1.81815
1.80789
1.79933
1.79244
1.78714
1.78343
1.7813
1.78064
1.78143
1.7836
1.78707
1.79187
1.79797
1.80534
1.81405
1.82413
1.83563
1.84859
1.86305
1.87907
1.89668
1.91583
1.93646
1.95832
1.98097
2.00382
2.02642
2.04848
2.06974
1.73818
1.73315
1.72805
1.72469
1.72535
1.73203
1.74631
1.7684
1.79818
1.83562
1.88015
1.93093
1.98697
2.04721
2.11063
2.17629
2.24334
2.31104
2.3788
2.44617
2.51278
2.5784
2.64286
2.70607
2.76802
2.82874
2.88833
2.94679
3.00418
3.06058
3.11611
3.17083
3.22481
3.27814
3.33079
3.38268
3.43392
3.48469
3.53504
3.58515
3.6352
3.68528
3.73538
3.78526
3.83491
3.88407
3.93276
3.98119
4.02946
4.07746
4.12493
4.17196
4.21858
4.26435
4.30953
4.35384
4.39748
4.43976
4.48096
4.52113
4.56035
1.46548
1.51206
1.56249
1.62033
1.68698
1.76226
1.8456
1.93665
2.0346
2.13871
2.24768
2.36054
2.47612
2.59324
2.71081
2.82778
2.94336
3.05678
3.16745
3.27498
3.37904
3.47948
3.57618
3.66922
3.7587
3.8448
3.92771
4.00754
4.0845
4.15879
4.23061
4.3002
4.36781
4.43348
4.49724
4.55936
4.61981
4.67877
4.73641
4.79261
4.84779
4.90208
4.95563
5.00863
5.06071
5.11181
5.16184
5.21079
5.25859
5.30532
5.35099
5.39566
5.43954
5.48191
5.52369
5.56386
5.60316
5.64053
5.67718
5.71269
5.74714
1.42263
1.51779
1.62008
1.7308
1.85032
1.97829
2.11382
2.25578
2.40283
2.55371
2.70687
2.86103
3.01481
3.16712
3.31682
3.46293
3.60474
3.74162
3.87316
3.99911
4.11931
4.23366
4.3423
4.44545
4.54341
4.63645
4.72493
4.80912
4.88942
4.96617
5.03968
5.11025
5.17791
5.24286
5.30554
5.36615
5.42551
5.48355
5.53972
5.59429
5.64669
5.69762
5.74778
5.7971
5.84599
5.89411
5.94143
5.98789
6.03317
6.07729
6.1204
6.16224
6.20311
6.24283
6.28189
6.31973
6.35637
6.39181
6.42613
6.45936
6.4913
1.48871
1.62522
1.7715
1.92718
2.09159
2.26392
2.44275
2.62637
2.81316
3.00131
3.18911
3.37494
3.55756
3.73585
3.90876
4.07526
4.23477
4.38691
4.5314
4.66825
4.79738
4.91888
5.03301
5.14011
5.24069
5.33524
5.42412
5.50793
5.58704
5.66195
5.73316
5.80071
5.86495
5.92606
5.98409
6.04037
6.09496
6.14802
6.19994
6.24941
6.29722
6.34332
6.38771
6.43128
6.47355
6.5153
6.55677
6.59762
6.63772
6.67645
6.71397
6.75027
6.78533
6.81927
6.85224
6.88431
6.91519
6.94495
6.9735
7.00071
7.02664
1.60371
1.77693
1.96234
2.15818
2.36253
2.5739
2.79037
3.00992
3.23039
3.44958
3.66564
3.87665
4.08161
4.27926
4.4691
4.64988
4.82101
4.9826
5.13429
5.2765
5.40937
5.53285
5.6476
5.75382
5.85241
5.94402
6.02926
6.10874
6.1828
6.25209
6.31702
6.37817
6.43588
6.49031
6.54201
6.59052
6.63728
6.68223
6.72474
6.76708
6.80769
6.84715
6.88581
6.92148
6.95559
6.98856
7.0214
7.05455
7.08717
7.11876
7.149
7.17789
7.2056
7.23201
7.25742
7.28179
7.30519
7.32752
7.34849
7.36792
7.38616
1.74757
1.95437
2.17553
2.40773
2.64772
2.89363
3.14295
3.39336
3.64261
3.88747
4.12658
4.35725
4.57899
4.7905
4.99242
5.18248
5.36038
5.52677
5.68095
5.82408
5.9566
6.07791
6.18948
6.29083
6.38357
6.46875
6.54676
6.61905
6.68507
6.74547
6.80148
6.85271
6.90091
6.94682
6.98909
7.02913
7.06619
7.09899
7.13104
7.16095
7.19149
7.22328
7.25342
7.28189
7.30614
7.32837
7.35089
7.37345
7.39653
7.41882
7.43992
7.45964
7.4781
7.49513
7.51085
7.5258
7.5399
7.55297
7.56448
7.57425
7.58284
1.90838
2.14575
2.39958
2.66465
2.93633
3.21204
3.48967
3.76667
4.0402
4.30625
4.56404
4.8094
5.04306
5.26296
5.47276
5.668
5.84866
6.01651
6.16906
6.30899
6.4377
6.55296
6.65872
6.75161
6.83484
6.91008
6.97762
7.04
7.09518
7.14451
7.18903
7.22758
7.26309
7.29633
7.32745
7.35605
7.38202
7.4036
7.42051
7.43698
7.45326
7.47131
7.49192
7.50942
7.52309
7.53403
7.5435
7.55377
7.5643
7.57479
7.58421
7.5923
7.59947
7.60473
7.60869
7.61209
7.61429
7.61645
7.61646
7.61416
7.61126
2.07658
2.33881
2.62222
2.91385
3.21497
3.51504
3.81531
4.1168
4.4084
4.69306
4.96457
5.22313
5.46376
5.68748
5.89981
6.09713
6.27765
6.44394
6.59584
6.72939
6.84964
6.95643
7.05242
7.13748
7.20821
7.2695
7.32405
7.37388
7.41539
7.4515
7.48308
7.50842
7.52874
7.54557
7.55949
7.57446
7.58671
7.5953
7.60019
7.59882
7.59592
7.59501
7.59958
7.60409
7.60556
7.60626
7.5995
7.59406
7.58783
7.58255
7.57553
7.56812
7.5611
7.55204
7.54182
7.53146
7.51782
7.50855
7.49442
7.47666
7.46032
2.09001
2.10923
2.12757
2.14505
2.16175
2.17785
2.19363
2.20951
2.22451
2.23866
2.25168
2.26421
2.27636
2.28841
2.30062
2.31363
2.32785
2.3436
2.36118
2.38094
2.40248
2.42532
2.44919
2.4737
2.49859
2.52392
2.5497
2.57577
2.60204
2.62856
2.65545
2.68261
2.71003
2.73788
2.76608
2.79462
2.82359
2.85309
2.88305
2.9134
2.94425
2.9757
3.00771
3.04026
3.07345
3.10711
3.14126
3.17604
3.21149
3.24747
3.28405
3.3213
3.35931
3.39788
3.43733
3.47758
3.51894
3.56114
3.60452
3.64921
3.69531
4.5987
4.635
4.67038
4.70488
4.73826
4.77011
4.79998
4.82861
4.85514
4.88093
4.90504
4.92819
4.95028
4.97135
4.99125
5.00989
5.02742
5.0438
5.05906
5.07318
5.0862
5.09817
5.10895
5.11861
5.12716
5.1345
5.14051
5.14499
5.14806
5.14969
5.14987
5.14864
5.14607
5.14211
5.13681
5.13025
5.12238
5.1133
5.10297
5.09143
5.07873
5.0649
5.05004
5.03408
5.01701
4.99877
4.97925
4.95851
4.93647
4.91316
4.88853
4.86252
4.83527
4.80633
4.77641
4.74491
4.71246
4.67861
4.64441
4.60976
4.57484
5.77996
5.81173
5.84202
5.87134
5.89963
5.92727
5.95287
5.9767
5.99866
6.01945
6.03871
6.05678
6.07351
6.08919
6.10354
6.11655
6.12825
6.13863
6.14766
6.15533
6.16173
6.16681
6.17059
6.17307
6.17425
6.17411
6.17267
6.16987
6.16567
6.16004
6.15299
6.14448
6.13452
6.12316
6.11039
6.09624
6.08071
6.0638
6.04553
6.02592
6.00506
5.98303
5.95988
5.93565
5.9103
5.88377
5.85591
5.82668
5.79601
5.76391
5.73035
5.69506
5.65817
5.6195
5.57926
5.53713
5.49336
5.4482
5.40214
5.35529
5.30783
6.52219
6.55172
6.57997
6.60671
6.63226
6.65661
6.67947
6.70035
6.71968
6.73752
6.75383
6.76856
6.78173
6.79345
6.80363
6.8124
6.81971
6.82552
6.8298
6.83257
6.83387
6.83379
6.83233
6.82951
6.82529
6.81963
6.81254
6.80403
6.79412
6.78279
6.76997
6.75562
6.73973
6.72232
6.70348
6.68318
6.66138
6.63807
6.61322
6.58693
6.55929
6.53043
6.50051
6.46962
6.43781
6.40502
6.37102
6.33578
6.29922
6.26135
6.22203
6.18112
6.13859
6.09432
6.04827
6.00022
5.95036
5.89899
5.84662
5.79331
5.73952
7.05123
7.07457
7.09644
7.1167
7.13524
7.15221
7.16771
7.18177
7.19439
7.20559
7.21527
7.22346
7.23018
7.23532
7.23897
7.24123
7.24191
7.24104
7.23854
7.23441
7.22877
7.22175
7.21344
7.2039
7.19301
7.18074
7.16712
7.15217
7.13599
7.11859
7.0999
7.07975
7.05812
7.03503
7.0106
6.98478
6.95746
6.92861
6.89812
6.86606
6.83258
6.79784
6.76211
6.72563
6.68853
6.65084
6.61218
6.57257
6.53189
6.4903
6.44742
6.40304
6.35726
6.3098
6.26056
6.20906
6.15574
6.1007
6.04468
5.98764
5.93019
7.40303
7.41853
7.43243
7.44484
7.45551
7.46445
7.47176
7.47751
7.48176
7.48446
7.48577
7.48569
7.48415
7.48105
7.47643
7.47047
7.46309
7.45409
7.44332
7.43073
7.41655
7.40102
7.38431
7.36657
7.3476
7.32729
7.30569
7.28285
7.25909
7.23451
7.20912
7.18246
7.15457
7.12534
7.09508
7.0636
7.03064
6.99624
6.96013
6.92235
6.88304
6.84229
6.80053
6.75824
6.71569
6.67321
6.62997
6.58637
6.54203
6.49754
6.45208
6.40514
6.35722
6.30775
6.25679
6.20317
6.14778
6.09039
6.03248
5.97333
5.91383
7.59016
7.59614
7.60055
7.60335
7.6044
7.60368
7.60114
7.59734
7.59196
7.58477
7.57622
7.56655
7.55547
7.54284
7.52858
7.51324
7.49689
7.47892
7.459
7.43685
7.41292
7.3877
7.36139
7.33439
7.30642
7.27702
7.24632
7.21419
7.18148
7.14853
7.1158
7.08212
7.04786
7.01247
6.97675
6.94013
6.90182
6.86219
6.82096
6.77809
6.73352
6.68705
6.63936
6.59119
6.54301
6.49595
6.44797
6.40066
6.35284
6.30644
6.25967
6.21104
6.16209
6.11169
6.06052
6.00568
5.94965
5.89099
5.83302
5.77329
5.71362
7.60692
7.60162
7.59463
7.58644
7.57651
7.56513
7.55164
7.53793
7.52281
7.50508
7.48604
7.4665
7.44549
7.42305
7.39821
7.3726
7.34733
7.32079
7.29232
7.26051
7.22608
7.19091
7.15447
7.11751
7.08047
7.04196
7.00205
6.95948
6.91601
6.87299
6.83244
6.79117
6.75089
6.7098
6.67008
6.63039
6.58771
6.54301
6.49752
6.45143
6.40316
6.3521
6.29939
6.2458
6.19201
6.14122
6.08825
6.03762
5.98615
5.93921
5.89314
5.84379
5.795
5.74492
5.6954
5.64009
5.58491
5.52579
5.46994
5.41149
5.35411
7.44085
7.42198
7.39987
7.37872
7.35476
7.33303
7.30725
7.28409
7.26083
7.23487
7.20698
7.1794
7.14955
7.11958
7.08408
7.04623
7.01204
6.97907
6.94659
6.90916
6.86332
6.82004
6.77505
6.7276
6.68159
6.63532
6.59019
6.53903
6.48207
6.42635
6.37709
6.32688
6.28036
6.23388
6.19407
6.15635
6.11253
6.06232
6.01292
5.9666
5.91907
5.86593
5.8093
5.75237
5.69414
5.64151
5.58273
5.52914
5.47272
5.42793
5.38542
5.33584
5.28905
5.24164
5.19631
5.14101
5.08818
5.02878
4.97724
4.92227
4.87047
3.74281
3.79137
3.84121
3.89232
3.94469
3.99846
4.0535
4.10994
4.16746
4.22609
4.28605
4.34665
4.40941
4.47783
4.56075
4.63206
4.70489
4.77853
4.85297
4.92836
5.00469
5.08196
5.16006
5.23892
5.31833
5.39804
5.47793
5.55783
5.63753
5.7167
5.79523
5.87281
5.94903
6.02368
6.0964
6.16662
6.23392
6.29711
6.35151
6.39123
6.41801
6.43243
6.43437
6.42313
6.39766
6.35654
6.29786
6.21929
6.11812
5.99119
5.83471
5.64423
5.41476
5.1395
4.80728
4.24576
3.98776
3.85544
3.8034
3.78012
3.73155
4.53936
4.50364
4.46721
4.43014
4.39239
4.35459
4.31647
4.27879
4.24107
4.20403
4.16707
4.12221
4.07845
4.03605
3.98905
3.94517
3.90059
3.85584
3.81134
3.76728
3.72366
3.68026
3.637
3.59387
3.55083
3.50792
3.46517
3.4227
3.38053
3.33874
3.29746
3.25682
3.21695
3.17807
3.14044
3.10436
3.07026
3.0387
3.01052
2.98674
2.96514
2.9459
2.92943
2.9163
2.90742
2.9037
2.90616
2.91612
2.93502
2.96412
3.00463
3.05765
3.12435
3.2072
3.29493
3.42917
3.60336
3.87348
4.25625
4.75358
5.09627
5.25997
5.21175
5.16285
5.1129
5.06181
5.01004
4.95783
4.9056
4.85286
4.80037
4.74
4.6743
4.61307
4.5542
4.49572
4.43798
4.37907
4.31922
4.25888
4.19844
4.13795
4.07718
4.01611
3.95474
3.893
3.83094
3.76854
3.70584
3.64279
3.57941
3.51567
3.4516
3.38725
3.32264
3.25785
3.19296
3.12809
3.06336
2.99892
2.93495
2.8714
2.80793
2.74526
2.68404
2.62462
2.56758
2.51382
2.46456
2.42146
2.38668
2.36302
2.35403
2.36442
2.39973
2.46276
2.56504
2.70993
2.92799
3.26353
3.76736
4.39009
5.68545
5.63147
5.57699
5.52156
5.4647
5.40713
5.3491
5.29116
5.23252
5.17313
5.10271
5.03045
4.96359
4.89952
4.83677
4.77463
4.71166
4.64809
4.58415
4.52021
4.45619
4.39171
4.3269
4.26184
4.19642
4.13074
4.06476
3.99848
3.93181
3.86472
3.79718
3.72922
3.66084
3.5921
3.52306
3.45378
3.38431
3.31472
3.245
3.17517
3.1052
3.035
2.9638
2.89183
2.81959
2.74719
2.67489
2.60313
2.5326
2.46438
2.39992
2.34139
2.29173
2.25476
2.2342
2.23622
2.26886
2.34964
2.50775
2.78599
3.21392
5.87241
5.81517
5.7577
5.69945
5.63929
5.57837
5.51689
5.45583
5.39385
5.33027
5.256
5.18174
5.11265
5.0467
4.98201
4.91795
4.85327
4.78871
4.7242
4.66002
4.59585
4.53095
4.46582
4.40058
4.335
4.26927
4.20328
4.13703
4.07032
4.00316
3.93549
3.86743
3.799
3.73034
3.66149
3.59256
3.52364
3.45476
3.38594
3.31718
3.24849
3.17988
3.1112
3.04183
2.97169
2.9009
2.82949
2.75755
2.68523
2.61287
2.54087
2.46985
2.40077
2.3349
2.27383
2.2205
2.18088
2.16565
2.19149
2.28336
2.47164
5.85359
5.79469
5.73588
5.6766
5.61447
5.55158
5.48776
5.42507
5.36161
5.29659
5.22177
5.14827
5.07931
5.01404
4.94938
4.88536
4.82065
4.75708
4.69401
4.63177
4.56963
4.50628
4.44301
4.38002
4.31666
4.25334
4.18968
4.12585
4.06134
3.99634
3.93073
3.86487
3.79877
3.73267
3.66657
3.60068
3.53502
3.46972
3.40474
3.34016
3.27599
3.2123
3.14906
3.08613
3.02298
2.95923
2.89487
2.82998
2.76461
2.69883
2.63275
2.5664
2.49978
2.43291
2.36566
2.29864
2.23427
2.17782
2.13819
2.12877
2.16838
5.65181
5.59261
5.53391
5.47565
5.41254
5.34895
5.2836
5.22098
5.15791
5.09449
5.02089
4.94999
4.88283
4.82055
4.75758
4.69561
4.63221
4.57148
4.51148
4.45286
4.39442
4.33371
4.27402
4.21552
4.15631
4.0974
4.03775
3.97819
3.9174
3.85614
3.79404
3.73215
3.67017
3.6087
3.54738
3.48666
3.42637
3.36683
3.30792
3.24989
3.1926
3.13632
3.08095
3.02647
2.97267
2.919
2.86483
2.8102
2.75525
2.70011
2.64484
2.58941
2.53364
2.47711
2.41919
2.35931
2.29756
2.23566
2.17736
2.12909
2.10077
5.29147
5.23294
5.1759
5.12122
5.05837
4.99569
4.92959
4.86896
4.80841
4.74965
4.67841
4.6112
4.5467
4.48948
4.4292
4.37117
4.31001
4.25379
4.19817
4.14411
4.09039
4.03256
3.97766
3.92613
3.87259
3.81928
3.76434
3.71038
3.65382
3.59705
3.53893
3.48238
3.42577
3.37072
3.31561
3.26174
3.20807
3.15585
3.10457
3.05499
3.00643
2.95952
2.91408
2.86977
2.82652
2.78442
2.7419
2.69893
2.65594
2.61315
2.57084
2.52897
2.48739
2.44556
2.40279
2.35814
2.31088
2.26082
2.20889
2.1574
2.11072
4.80806
4.74991
4.69652
4.64824
4.5872
4.52689
4.46054
4.40444
4.34891
4.29758
4.22967
4.16635
4.10421
4.05399
3.99648
3.94443
3.88581
3.8359
3.78546
3.73543
3.6866
3.63078
3.58173
3.54128
3.49389
3.44512
3.39415
3.34691
3.29346
3.24077
3.18547
3.13602
3.08528
3.03831
2.98978
2.9437
2.89592
2.85168
2.80895
2.76936
2.73084
2.69451
2.66021
2.62711
2.59405
2.56173
2.52984
2.49721
2.46607
2.43535
2.40745
2.38061
2.35552
2.3306
2.30569
2.27942
2.25116
2.21994
2.18576
2.14824
2.10891
3.64025
3.53856
3.42887
3.31253
3.19521
3.0801
2.96956
2.86662
2.77391
2.69306
2.62465
2.56854
2.52382
2.48919
2.46312
2.4441
2.43065
2.42163
2.41612
2.41337
2.41282
2.41408
2.41685
2.42098
2.42637
2.43293
2.44058
2.44929
2.45901
2.46968
2.48122
2.49354
2.50653
2.51999
2.53376
2.54762
2.56133
2.57462
2.58726
2.599
2.6096
2.61884
2.62662
2.63292
2.63776
2.64136
2.64396
2.64591
2.64759
2.64948
2.65193
2.65521
2.65947
2.66482
2.67106
2.67797
2.68515
2.69235
2.69905
2.70463
2.7087
5.0875
5.01005
4.88416
4.70698
4.51271
4.30462
4.08151
3.84977
3.61736
3.39134
3.1768
2.9788
2.79978
2.63988
2.49877
2.37728
2.27489
2.18987
2.11987
2.063
2.01745
1.98136
1.9531
1.93137
1.91515
1.90376
1.89666
1.89338
1.89349
1.89666
1.90259
1.91096
1.92141
1.93354
1.94692
1.96107
1.97543
1.98948
2.0026
2.0141
2.02324
2.0292
2.03107
2.02793
2.01911
2.00414
1.98286
1.95575
1.92391
1.88917
1.85379
1.82029
1.79107
1.7679
1.75149
1.74191
1.738
1.73814
1.73975
1.74059
1.73985
4.89783
5.25729
5.45342
5.46239
5.32603
5.12936
4.87584
4.58831
4.28421
3.97448
3.67002
3.3811
3.11399
2.87253
2.65871
2.47309
2.31371
2.17674
2.05992
1.96293
1.8842
1.82146
1.77223
1.73407
1.70487
1.68307
1.6675
1.65718
1.6513
1.64918
1.65027
1.65406
1.65994
1.66727
1.67542
1.68376
1.69167
1.69849
1.70354
1.7061
1.70546
1.70096
1.69201
1.67805
1.65861
1.63338
1.60225
1.56544
1.52368
1.47829
1.43145
1.38621
1.34618
1.31486
1.29497
1.28833
1.29503
1.31396
1.3428
1.37913
1.42068
3.74973
4.34041
4.90568
5.34349
5.56587
5.60926
5.49167
5.25017
4.946
4.60034
4.23913
3.88572
3.5513
3.24573
2.97309
2.73265
2.52101
2.33574
2.17574
2.04054
1.92887
1.83889
1.76799
1.71311
1.67122
1.63986
1.61714
1.6016
1.59201
1.58732
1.58679
1.58971
1.5953
1.60269
1.61103
1.61948
1.62722
1.63342
1.63721
1.63773
1.63409
1.62555
1.6114
1.59108
1.56418
1.53057
1.49038
1.44407
1.3924
1.33662
1.27866
1.22145
1.16894
1.12603
1.09787
1.08907
1.10143
1.13453
1.18628
1.25387
1.33381
2.77616
3.20657
3.74836
4.34409
4.89357
5.31769
5.56472
5.60959
5.48743
5.22918
4.88305
4.50841
4.12548
3.75895
3.4233
3.12044
2.85079
2.61147
2.40264
2.22449
2.07583
1.9549
1.85899
1.78423
1.7266
1.68278
1.65038
1.6275
1.6125
1.6039
1.60073
1.60219
1.60736
1.61517
1.62461
1.63468
1.64439
1.65276
1.65877
1.66137
1.65954
1.65237
1.63902
1.6188
1.59115
1.55587
1.51305
1.46313
1.40675
1.34506
1.27982
1.21371
1.15062
1.09585
1.0564
1.03973
1.05039
1.09057
1.15899
1.25156
1.36299
2.27882
2.48362
2.8019
3.23766
3.76332
4.32396
4.84373
5.24047
5.46441
5.50241
5.36858
5.10728
4.75434
4.3657
3.98513
3.62173
3.29063
2.9922
2.7241
2.49137
2.29545
2.13575
2.00908
1.91001
1.83298
1.7734
1.72833
1.69542
1.67273
1.65818
1.65053
1.64893
1.65235
1.65953
1.66929
1.68047
1.69194
1.70259
1.71127
1.71679
1.71796
1.7138
1.70331
1.68572
1.66023
1.62661
1.58478
1.53516
1.47819
1.41491
1.34685
1.27655
1.20766
1.14536
1.09701
1.07161
1.07661
1.11773
1.19606
1.30753
1.44554
2.10616
2.163
2.29187
2.51266
2.83709
3.26166
3.7592
4.27619
4.74446
5.09763
5.28913
5.30824
5.17368
4.91868
4.58893
4.21167
3.83868
3.48473
3.14715
2.84574
2.58803
2.37731
2.21091
2.08078
1.97904
1.89907
1.8369
1.79015
1.75679
1.73371
1.71928
1.71251
1.71233
1.71725
1.72589
1.73693
1.74909
1.76112
1.77173
1.77962
1.78346
1.78224
1.77482
1.76038
1.73786
1.70703
1.66765
1.62016
1.56479
1.50256
1.43482
1.36404
1.29368
1.22854
1.17571
1.14474
1.1452
1.18594
1.27122
1.39839
1.55995
2.07586
2.06301
2.08589
2.16129
2.3069
2.53747
2.85941
3.26298
3.71995
4.18131
4.58723
4.88501
5.04541
5.05703
4.93523
4.70401
4.40023
4.05266
3.66581
3.29675
2.96422
2.68839
2.47165
2.30148
2.16715
2.0599
1.97514
1.91028
1.86249
1.82763
1.80368
1.78921
1.78327
1.78399
1.78981
1.79918
1.81067
1.82284
1.83431
1.84357
1.84927
1.85035
1.84564
1.83426
1.81488
1.78723
1.75101
1.70658
1.65405
1.5944
1.52893
1.45996
1.39076
1.32594
1.27216
1.23906
1.23743
1.27869
1.37015
1.51126
1.69395
2.07053
2.03773
2.01829
2.02235
2.06299
2.15494
2.31251
2.54544
2.85392
3.22633
3.62874
4.02496
4.37188
4.63389
4.78064
4.80301
4.70228
4.48574
4.1901
3.81723
3.41721
3.07521
2.80458
2.58826
2.41103
2.26669
2.14991
2.06034
1.99411
1.94344
1.9066
1.88109
1.86659
1.86081
1.86181
1.8677
1.87705
1.8879
1.89903
1.9083
1.91502
1.91743
1.91496
1.90619
1.89001
1.86556
1.83318
1.79211
1.74339
1.6871
1.62535
1.55976
1.49368
1.43178
1.37984
1.34728
1.34573
1.38888
1.48557
1.63873
1.83807
0.250988
6.44772
6.12528
0.245661
0.299316
0.121764
0.00319539
2.52937
0.00335443
0.0231292
3.57815
1.05304
0.00319317
6.23175
0.106496
5.38488
0.00325481
2.6632
3.8716
0.00323011
0.253653
6.08083
6.2376
0.00331605
0.00331293
0.104966
0.00322414
0.520951
0.00324195
0.00343497
0.577063
0.00374041
0.0162535
2.76079
0.768518
3.66063
2.82686
1.55418
0.00317759
2.87464
1.8923
1.88285
0.00320545
4.65629
3.42043
0.27433
0.00358488
0.01475
0.213882
1.07787
6.73698
7.73767
0.00317537
0.00407111
0.0390709
0.0436355
0.00342488
0.689614
2.70181
7.3821
2.57438
0.00364876
0.192551
0.0315068
6.41865
0.711013
2.26676
1.82276
0.00437079
0.00321179
0.920298
2.53177
1.72092
0.0248999
0.0400924
4.33982
6.74898
3.22148
0.00315213
0.915346
0.00695552
2.93799
0.0122575
4.75848
0.00321673
1.06067
0.00334047
2.41514
0.0155039
0.00484058
0.11562
0.00314568
0.00373636
7.56324
5.41671
0.00355713
0.42899
0.240764
0.00604043
6.57425
0.356689
2.25068
0.741829
0.00313947
0.00317162
0.00316619
0.304351
0.123262
0.00325409
6.07425
6.77068
0.00977566
4.84004
1.64353
2.65215
2.97175
2.03681
0.00394727
0.0830601
0.00415723
0.0038961
3.67721
0.00679135
7.37078
7.70318
1.0476
0.00321041
0.994472
1.00038
0.00320633
0.0340818
0.0330976
1.7433
0.00551141
3.31202
0.00321489
0.0031686
7.66526
7.77856
0.00322183
0.129131
5.58223
0.104798
0.298715
1.70972
4.77949
0.0523382
1.81931
0.0118043
7.05413
1.28059
0.0542254
2.7821
4.69631
6.26785
0.00328773
0.00325062
0.211626
0.00346581
2.24319
0.0373069
0.00509549
0.00321171
0.00321411
0.00323607
2.77992
1.83026
1.57299
0.00343494
6.85724
4.9675
3.18797
4.98946
0.0140147
4.01562
1.87569
2.13562
0.00322882
0.00552612
2.99726
3.3075
1.92537
3.62243
0.00320846
0.00349484
5.1643
0.0356171
0.556983
0.00323299
0.00356581
0.103418
0.0034151
7.71138
0.659903
0.00342502
0.248694
1.85812
5.20058
0.0045263
2.21717
0.00321079
0.00322545
4.66331
2.35055
7.27777
0.00457153
0.00336811
0.00783322
2.66914
2.48351
1.07939
4.83898
1.25877
6.8937
0.190993
4.2689
4.03992
1.79998
1.33302
2.52806
0.00480767
0.0362184
0.00321799
0.0036752
2.07362
0.0178449
0.019731
0.00545814
0.0131568
2.73794
4.97033
0.0188287
5.79002
1.04634
0.269629
0.00318376
0.143914
2.71729
1.00337
0.00418793
0.934541
1.1992
0.182569
0.482327
7.25761
0.784851
0.490667
5.11069
0.00384487
0.00317661
0.00396424
0.0105556
1.97219
0.00334088
0.00614073
0.00317393
0.382664
3.70864
4.25022
2.97685
1.33517
1.40203
7.59984
0.00439218
2.37475
4.59645
0.0032058
2.21974
0.00321609
4.14862
0.380988
1.75393
0.00519999
0.00321492
1.85848
0.513688
0.00323843
0.00322743
0.00324102
0.00324492
0.353214
1.61198
2.92897
0.0153852
0.00324018
0.00317042
0.00314227
4.68725
0.187473
0.00437485
1.58687
0.0861825
0.0439593
0.00315646
0.261644
0.00323949
0.0417751
1.46577
4.91527
0.404966
0.00393984
0.00591344
3.2102
0.131701
1.97346
7.55938
0.00347811
0.00319577
0.00318732
5.77654
0.00329375
4.82095
0.00321727
1.7949
1.28798
0.0272556
3.20126
4.11887
0.0045811
2.96124
3.05166
1.65246
4.48355
0.689491
7.77897
2.6833
3.60105
3.86308
4.45217
1.71192
0.15363
7.6978
7.32646
3.2401
2.33561
0.00411625
6.96693
3.01712
6.83748
0.0269698
0.00354637
0.00321006
0.00339649
0.176761
0.412789
0.574986
0.0897545
0.0031876
5.99871
0.00321106
1.58846
1.87855
6.3623
2.28154
1.78364
0.00585998
0.00420088
0.0973327
3.09248
0.0102078
0.740199
5.45068
2.3256
4.09994
6.10359
3.51842
0.00343611
7.33755
5.39286
1.74541
0.00322684
6.29421
5.64054
0.00331375
2.16788
0.00323011
6.9097
5.67475
2.06981
4.12516
2.77893
5.62635
0.00330664
5.62794
0.00380258
3.88798
3.95903
2.14527
7.31235
0.696523
0.209885
0.54293
0.00419513
4.35873
0.188693
0.00800355
0.00553073
4.70942
0.00377329
4.31843
0.00320556
0.00322831
0.00602297
1.81098
0.100893
1.78621
0.00545806
4.18762
0.158478
6.59181
4.51786
2.58815
6.40181
0.00342392
7.319
2.85374
0.00320485
3.88676
2.0026
0.00316741
0.00317344
3.63763
0.00650684
1.68413
0.0964544
2.63982
0.0261151
0.582019
2.58874
4.73414
2.35729
3.69349
3.62929
0.00412122
0.0236642
1.93872
1.5158
7.56276
6.63276
5.1936
0.063681
5.06288
5.03785
0.497877
1.76143
2.78466
2.01719
0.00359468
4.0866
7.80519
0.00410149
4.53416
1.84209
2.80952
0.0233231
0.0657988
6.38815
0.00587303
7.55765
0.00455248
0.262223
0.00320509
0.980746
2.34933
0.226228
0.00473576
0.00377037
2.98341
1.76469
0.0344035
0.426043
6.09915
4.11686
0.00481577
1.4106
1.81778
3.52901
1.64128
4.25168
2.18982
5.45276
3.19124
0.871271
0.741058
7.45535
1.92393
7.6589
6.0472
0.0832047
3.65349
3.11872
0.00341435
1.85164
1.74924
1.38027
0.0174801
4.67405
1.46008
0.672939
1.92698
0.00544485
0.00321185
0.0655122
2.04479
4.35405
2.88146
0.0032182
0.0032002
0.00320914
1.90535
0.0282757
0.00321075
0.120321
4.2332
5.209
0.0103927
0.0105722
0.00317132
0.0032053
0.00590247
1.7544
1.74729
1.4913
0.452599
7.49805
6.00224
0.0052773
3.06733
2.07607
2.16533
3.96664
7.44733
0.00347647
0.0103781
0.00322893
3.9147
0.234835
0.00317307
1.33455
0.158188
7.47329
0.00323778
7.66734
1.10929
0.0435689
6.50764
0.00322254
0.00318714
0.00405634
7.74849
3.20339
5.24554
5.19663
0.79814
2.01883
0.00315096
0.00592939
0.0977517
0.0101511
0.0245035
1.97647
2.42732
0.00321839
1.28292
2.12217
6.18915
7.74301
0.00793055
7.7091
0.00587024
0.0292206
3.89257
0.00319385
5.57564
0.0032374
0.00334358
0.0229276
2.33193
0.614136
2.57133
1.8921
0.00365095
1.98594
4.69093
0.0250624
0.2504
1.06955
0.00329673
0.00325457
0.00687426
5.3529
0.539272
0.0034114
7.2565
6.18215
6.68701
0.0372918
2.32249
0.00426856
2.33841
0.145008
0.0888714
2.89753
1.92934
1.91703
6.08684
0.00328718
0.00315388
0.0100933
4.29347
4.47101
0.942376
0.0135762
0.00332593
0.00322818
0.00873907
0.0617647
0.00645916
2.46177
1.77448
0.0116311
1.70893
6.00336
0.00326446
2.6189
0.00321707
0.495622
0.00324469
0.0217158
2.16916
0.0196098
0.00320517
0.741044
7.82251
7.07614
0.00320303
0.0032536
0.378733
0.0801597
0.00321285
4.15229
0.00365573
1.94521
7.81264
2.33019
1.728
2.46232
3.9251
7.58049
0.0032203
0.00741895
0.015509
4.37495
1.45222
6.39249
0.376543
0.372741
4.4343
3.92162
4.94265
0.348306
2.5339
0.00321827
0.344283
1.85293
2.47678
4.0735
1.78073
0.184292
2.49925
0.102317
0.0107111
1.92487
0.00322985
5.75553
0.00365843
0.380966
7.40164
2.81304
0.544871
0.00725396
0.761974
0.00328132
0.00319042
0.10272
0.0219714
2.01159
0.0149017
1.95161
0.0032186
0.027026
0.00317156
4.46588
0.00549962
4.28734
2.52822
0.0214822
1.93188
7.59291
0.00324652
1.72202
4.70209
0.00339063
7.368
0.0689878
0.0035863
0.00338873
7.22459
0.00317955
0.00425243
0.0846248
0.100885
7.20428
7.24336
0.00322023
0.00325127
0.643629
2.24689
0.0143303
0.516153
1.97966
0.00321359
0.00377773
0.00371259
6.00581
7.25866
0.493999
7.19583
0.0255506
1.74433
0.00338102
0.0142447
0.0243209
0.0367193
0.00322329
6.95646
0.0031996
0.0242424
0.00330299
0.163201
0.0220332
0.0193106
0.408492
0.678756
2.5073
0.367003
1.0582
2.06574
5.13796
0.00341953
5.12574
7.64613
1.13042
3.95518
0.00328071
4.51028
3.79982
0.00320981
7.49314
2.61276
0.00643983
0.0207043
5.84041
5.64995
0.0271897
7.55698
7.42918
0.781171
7.38018
7.18508
4.89427
2.22141
1.49233
1.0904
7.21329
7.43581
0.0215009
7.40395
2.44679
4.45411
0.00342728
0.337008
0.257981
6.77718
5.848
0.019538
4.33347
6.39034
0.487134
0.0355892
0.38448
2.06315
0.00523181
2.09793
7.01862
0.0336755
6.73078
1.29102
4.39936
6.32671
0.00321668
0.00564835
1.02452
0.701014
0.0186383
0.00321433
0.192573
0.262981
0.00444356
0.00323624
4.36501
0.964986
2.99553
1.01307
0.00832281
0.00412285
0.0380417
3.61063
0.00342992
1.81133
1.82919
0.466797
2.35697
0.00391634
0.119099
0.0031995
0.670548
4.27018
0.00388802
0.116008
2.39004
5.64236
0.219724
3.95939
0.596384
0.0978498
0.00390143
2.32572
7.70173
0.00320745
0.00326926
5.62047
0.0236361
0.00323522
3.75989
0.57408
1.9353
2.24193
1.4765
0.141015
1.6964
3.6848
5.675
4.6368
0.00326409
5.83336
0.00390154
2.18421
0.00348686
0.00426412
2.40468
0.00658205
4.03346
0.0205805
0.0386315
1.85156
0.72692
0.0792229
0.00362371
6.21091
0.00359769
0.00316783
7.75748
5.83073
2.77255
2.12897
0.00340392
0.00316367
1.82999
5.61156
0.00318325
6.52329
1.68972
0.00323396
5.94812
0.00317444
0.36065
0.901253
1.32812
0.344092
1.59479
1.91887
0.0031754
7.24087
7.45439
0.00320913
0.0173975
2.1708
0.0031726
6.94623
5.52521
4.48851
0.00321131
0.00317369
3.73651
0.044208
0.00349663
1.83637
1.72001
4.38023
0.00316577
0.00339628
0.0235741
0.0193733
0.0032118
0.0064469
5.14392
3.11033
0.0032168
1.28066
0.00321161
0.715145
0.00425896
0.00354576
2.20438
0.00325852
0.108092
0.00317759
2.84838
0.230414
1.64817
6.22757
4.48786
3.9851
0.794681
1.26824
0.00323533
0.903435
7.30461
4.11128
0.104042
0.00343772
5.22113
0.00321055
0.0376548
0.0031682
7.23024
0.78598
0.372054
6.34872
2.22155
0.488763
4.10067
0.720354
6.75345
4.49009
0.0032928
0.00332113
0.00809842
0.00349581
0.0225233
4.25289
0.00381249
7.02825
0.00596675
0.0434114
0.564984
4.96753
0.00493839
2.67156
0.0175515
2.91284
2.36419
7.03421
0.0034896
0.00388727
0.117795
3.63769
1.7378
3.62237
0.405027
0.858989
1.54525
0.0505818
0.898563
0.747916
1.94972
0.00326677
4.43226
0.402314
3.08923
0.0033411
3.00089
0.989335
0.00406318
1.64509
1.75466
0.0633696
0.00318777
0.00321202
5.16702
2.77599
1.41423
0.00319818
0.0172309
2.29111
6.2717
0.907699
0.0123795
0.00320712
5.44357
5.21888
2.34876
2.58274
0.003207
3.80323
7.4724
0.00321015
0.00321584
1.24625
0.00383212
0.00953716
0.0949609
1.94764
0.00417139
2.46301
7.63764
0.00327162
0.00348935
0.00317731
0.00328555
3.68093
4.70653
7.72253
0.0281329
2.31435
2.49075
0.0862973
2.85373
0.00358874
1.95926
0.218162
2.29924
0.686238
1.65387
3.407
0.0995637
0.00323698
5.84957
4.64707
4.87006
0.880628
1.93295
0.174116
1.37711
0.0090972
0.00473371
3.72868
5.49611
0.0236838
0.238821
0.00323706
0.0760513
1.8491
0.0282912
1.03927
0.486785
3.86721
2.34186
0.431142
6.88004
5.40392
3.17819
1.59672
4.49732
3.74158
0.559358
2.61371
0.00502958
2.76485
2.89379
0.00320271
0.00317227
0.108005
0.00322003
0.00337053
3.24121
4.5168
0.00321603
3.483
0.00320899
0.00319095
0.00320685
0.00329987
0.00585267
2.12474
2.57106
7.0663
0.00319683
0.00375444
0.933154
0.00351486
0.032895
0.00324542
0.00361743
4.68599
0.00385561
0.0108779
2.90165
0.0102421
0.00321645
4.23171
0.00321015
0.00325626
0.588805
0.00356724
0.732258
0.00465711
0.0293355
0.00320336
0.00325694
7.48293
7.64682
2.62632
0.0269723
3.25864
1.52267
0.00480942
1.95718
4.29917
6.89299
4.6501
0.00335983
1.70378
2.54369
0.142057
1.97331
4.59284
0.170457
2.25128
0.397481
1.96062
0.0540231
1.00274
0.00323403
6.67681
0.00352895
2.05221
2.41887
0.00321292
0.306902
0.00707206
0.0135498
0.00319204
0.747868
0.00361679
0.0032312
2.75593
0.0197493
0.106764
6.83767
1.91836
0.00350506
0.00391838
2.3453
7.15914
0.00323201
0.003238
0.074329
1.36811
5.50761
0.00658839
1.60332
0.00321275
0.00341423
0.00316266
0.0342354
1.00052
0.0101306
6.64584
1.97131
7.15748
6.00956
0.00348169
7.32285
3.6724
0.00318205
0.00322595
0.00321834
0.00440686
0.00319969
4.09129
0.00320682
0.003229
6.87687
0.314476
0.00750428
0.0152866
2.21236
0.911716
0.00957784
0.00343309
6.26941
0.00324519
1.05193
0.00327398
0.00348859
5.87265
5.71428
0.00857716
0.0036002
0.378019
0.00320472
6.92231
0.00326457
5.5079
0.0217445
0.732543
0.0255993
0.374272
0.704557
1.51561
0.0032412
0.00352612
0.0111831
3.13318
0.110333
7.46175
0.00321381
0.0046679
0.00549494
7.1346
2.79187
3.13726
0.00692232
0.00901711
0.211585
0.00322025
1.52208
2.45044
0.0165936
6.13709
6.12401
2.50783
0.00524593
0.378043
2.95242
6.78568
2.03548
0.0186984
3.41175
0.0779772
5.16569
0.0889855
0.506895
2.50068
0.00324352
1.97595
0.0045542
0.0114016
0.00632045
0.0479658
0.0036513
1.2628
0.00322267
3.24178
0.0937314
0.0036179
0.732534
0.00323221
0.272979
0.113252
2.56364
0.466739
4.86001
0.232357
0.00321424
0.00318202
0.402916
0.0876927
2.7943
7.16707
0.0032206
3.92554
2.63177
0.0223491
2.02374
0.815029
2.57808
2.35824
0.0366403
0.00577991
7.21803
1.54331
5.81951
0.00320893
1.79832
0.00321135