/*--------------------------------*- C++ -*----------------------------------*\
| =========                 |                                                 |
| \\      /  F ield         | OpenFOAM: The Open Source CFD Toolbox           |
|  \\    /   O peration     | Version:  2.3.1                                 |
|   \\  /    A nd           | Web:      www.OpenFOAM.org                      |
|    \\/     M anipulation  |                                                 |
\*---------------------------------------------------------------------------*/
FoamFile
{
    version     2.0;
    format      ascii;
    class       volVectorField;
    location    "0.24";
    object      U;
}
// * * * * * * * * * * * * * * * * * * * * * * * * * * * * * * * * * * * * * //

dimensions      [0 1 -1 0 0 0 0];

internalField   nonuniform List<vector> 
9648
(
(0.15263 -4.75917 -2.7273e-22)
(0.277217 -4.72344 -2.47446e-23)
(0.400287 -4.69747 0)
(0.522102 -4.67484 0)
(0.644292 -4.65844 9.75166e-21)
(0.769122 -4.65076 1.55745e-20)
(0.899216 -4.65505 -2.90007e-20)
(1.03647 -4.67219 -1.36042e-20)
(1.18082 -4.70392 1.35628e-20)
(1.33387 -4.75249 4.1681e-20)
(1.49793 -4.81911 -4.14789e-20)
(1.67484 -4.90444 -6.00288e-20)
(1.8665 -5.00871 3.19086e-19)
(2.07483 -5.13148 8.25026e-20)
(2.30137 -5.27157 -7.73778e-19)
(2.54722 -5.42736 0)
(2.81336 -5.59685 0)
(3.1005 -5.77773 1.39794e-19)
(3.40915 -5.96719 4.49845e-19)
(3.73925 -6.16233 -1.29189e-18)
(4.09067 -6.36046 -2.2345e-20)
(4.46315 -6.55845 3.54844e-19)
(4.85582 -6.7534 4.18225e-19)
(5.26787 -6.94256 -1.8949e-18)
(5.69828 -7.1233 0)
(6.14599 -7.29314 1.12975e-18)
(6.60962 -7.4497 -1.1824e-18)
(7.08776 -7.59101 0)
(7.5789 -7.71496 0)
(8.08133 -7.81995 -7.13946e-19)
(8.59355 -7.90441 -1.57418e-18)
(9.11382 -7.96703 2.46797e-18)
(9.64063 -8.0068 0)
(10.1724 -8.02269 0)
(10.7071 -8.01403 1.8799e-18)
(11.2431 -7.97993 -2.0191e-18)
(11.778 -7.92 0)
(12.3103 -7.83399 4.31882e-18)
(12.8383 -7.72185 1.1618e-18)
(13.3603 -7.58349 -3.4385e-18)
(13.8747 -7.41897 6.47269e-20)
(14.3805 -7.22899 2.44025e-18)
(14.8765 -7.01347 -3.23923e-18)
(15.3609 -6.77325 6.51501e-19)
(15.8325 -6.50913 0)
(16.2892 -6.22093 0)
(16.7288 -5.90912 4.89822e-18)
(17.1506 -5.57442 7.1645e-19)
(17.5539 -5.21763 -2.21036e-18)
(17.9378 -4.83879 -7.43572e-19)
(18.3003 -4.4401 -7.71727e-19)
(18.6405 -4.02331 7.67117e-19)
(18.9579 -3.5899 3.9554e-19)
(19.2517 -3.14057 -3.9349e-19)
(19.5206 -2.67705 2.0057e-18)
(19.7643 -2.20041 -1.97381e-18)
(19.9818 -1.71211 -2.1912e-20)
(20.1728 -1.21336 0)
(20.3367 -0.705628 -3.99979e-19)
(20.4733 -0.190537 -5.16651e-20)
(20.5825 0.330729 -4.89456e-20)
(-0.0678775 -2.46943 2.84702e-22)
(0.00493791 -2.48446 0)
(0.0794304 -2.5095 0)
(0.155771 -2.55267 4.57738e-21)
(0.239357 -2.61864 -5.60882e-21)
(0.332928 -2.7068 -3.67978e-20)
(0.438177 -2.81548 0)
(0.557324 -2.94393 0)
(0.690935 -3.09341 -4.6448e-20)
(0.83983 -3.26241 0)
(1.00545 -3.45004 -1.12806e-19)
(1.18861 -3.65462 8.90958e-20)
(1.39012 -3.8747 -4.81707e-20)
(1.61088 -4.10841 0)
(1.85156 -4.35368 2.99866e-19)
(2.1124 -4.6083 1.77351e-19)
(2.39366 -4.86992 -1.74418e-19)
(2.6954 -5.13623 2.25889e-19)
(3.01774 -5.40466 -6.87595e-19)
(3.36037 -5.67269 5.45994e-19)
(3.7229 -5.93799 -6.03324e-19)
(4.10497 -6.19802 -3.24736e-19)
(4.5057 -6.45042 -3.32445e-19)
(4.92427 -6.69292 1.13972e-18)
(5.3597 -6.9234 3.94121e-19)
(5.81105 -7.1398 4.66735e-19)
(6.27713 -7.34024 -4.14102e-19)
(6.75663 -7.52301 0)
(7.24823 -7.68628 0)
(7.7503 -7.82872 0)
(8.26144 -7.94901 0)
(8.78007 -8.04613 0)
(9.30483 -8.11931 0)
(9.8345 -8.16769 0)
(10.3673 -8.19057 -8.41981e-19)
(10.9016 -8.18694 7.64639e-19)
(11.4355 -8.15628 8.40086e-19)
(11.9669 -8.09858 -4.26643e-18)
(12.4943 -8.01394 -9.02962e-19)
(13.0157 -7.90266 2.77631e-18)
(13.5297 -7.76514 1.94536e-18)
(14.0353 -7.60175 -2.00593e-18)
(14.5314 -7.41233 9.58272e-19)
(15.0168 -7.19772 1.01004e-18)
(15.4898 -6.95842 -1.07168e-18)
(15.9486 -6.69431 1.06244e-18)
(16.391 -6.40611 -2.2733e-18)
(16.8157 -6.09456 0)
(17.2215 -5.76062 -5.7904e-19)
(17.6085 -5.40481 1.16326e-18)
(17.9756 -5.02865 -5.8436e-19)
(18.3214 -4.63356 0)
(18.6451 -4.22082 1.19852e-18)
(18.9459 -3.79118 0)
(19.2227 -3.3461 0)
(19.4748 -2.88676 2.83399e-18)
(19.7015 -2.41451 -1.27633e-18)
(19.9021 -1.93104 -3.10149e-19)
(20.0763 -1.43716 3.27244e-19)
(20.2236 -0.934626 0)
(20.3433 -0.42475 8.21675e-20)
(0.0576083 -1.44356 -4.37943e-22)
(0.118946 -1.50401 0)
(0.18642 -1.58547 9.16448e-23)
(0.260129 -1.68694 -3.98678e-22)
(0.343717 -1.80742 0)
(0.439325 -1.94787 3.07503e-20)
(0.54815 -2.10857 2.13977e-20)
(0.671661 -2.28834 0)
(0.811845 -2.48649 2.5681e-21)
(0.969879 -2.70136 4.75897e-20)
(1.14658 -2.93171 9.57265e-20)
(1.34247 -3.1755 -3.31665e-20)
(1.558 -3.43084 0)
(1.79346 -3.69555 0)
(2.04906 -3.96748 2.27327e-19)
(2.3247 -4.24447 -1.44399e-19)
(2.6203 -4.52425 -1.54663e-19)
(2.93564 -4.80462 0)
(3.27044 -5.0833 5.93731e-19)
(3.62431 -5.35812 -6.15777e-19)
(3.99673 -5.62701 -4.59393e-19)
(4.38709 -5.88785 -5.04939e-19)
(4.79457 -6.13862 0)
(5.21821 -6.3774 -9.01962e-19)
(5.65704 -6.60234 -3.16787e-19)
(6.11006 -6.81172 3.75103e-19)
(6.57619 -7.00388 4.13567e-19)
(7.05423 -7.17727 0)
(7.54291 -7.33043 0)
(8.04069 -7.46217 0)
(8.54603 -7.57153 0)
(9.05738 -7.65772 0)
(9.57325 -7.72007 0)
(10.0924 -7.75777 0)
(10.6136 -7.76992 -1.84672e-18)
(11.1356 -7.7556 6.13181e-19)
(11.6572 -7.71442 -6.74441e-19)
(12.1763 -7.64671 3.39319e-18)
(12.691 -7.55294 0)
(13.1989 -7.43353 1.44153e-18)
(13.6976 -7.28882 1.48893e-18)
(14.1861 -7.11882 7.37923e-19)
(14.6636 -6.92379 -8.41401e-19)
(15.1293 -6.70455 -1.62164e-18)
(15.5826 -6.46141 2.52286e-18)
(16.0216 -6.19446 -8.53185e-19)
(16.4451 -5.90411 -1.73678e-18)
(16.8515 -5.59123 0)
(17.2393 -5.25732 0)
(17.6076 -4.90379 -4.72528e-19)
(17.9555 -4.53156 -4.61614e-19)
(18.282 -4.14162 -9.43887e-19)
(18.5866 -3.73497 -9.87099e-19)
(18.8682 -3.313 0)
(19.1263 -2.87648 -9.74759e-19)
(19.3601 -2.42717 -1.01503e-18)
(19.5693 -1.9658 0)
(19.7528 -1.49465 1.64405e-20)
(19.9103 -1.01397 0)
(20.0415 -0.525544 0)
(20.1465 -0.0304372 -6.26493e-20)
(0.0415976 -0.964889 8.77882e-22)
(0.108958 -1.06337 -1.32359e-21)
(0.187181 -1.18002 9.78285e-22)
(0.276095 -1.31467 -1.60807e-21)
(0.375872 -1.46724 0)
(0.488072 -1.63783 -1.26764e-20)
(0.614323 -1.82618 -1.8416e-20)
(0.755859 -2.03146 0)
(0.91401 -2.25256 3.32055e-21)
(1.08949 -2.48813 -4.05821e-20)
(1.28305 -2.73659 9.14626e-20)
(1.49493 -2.99614 1.10933e-19)
(1.72539 -3.26469 0)
(1.97457 -3.54016 -8.75892e-20)
(2.24264 -3.82049 -1.85776e-19)
(2.52933 -4.10364 -9.88901e-20)
(2.83446 -4.38751 3.80165e-19)
(3.15779 -4.67002 -2.74371e-19)
(3.4989 -4.94914 3.07114e-19)
(3.85744 -5.22287 5.22131e-19)
(4.23296 -5.48941 7.54486e-19)
(4.62469 -5.74693 4.24633e-19)
(5.03194 -5.99363 2.04253e-19)
(5.45375 -6.22784 7.39877e-19)
(5.88921 -6.44784 2.42809e-19)
(6.33735 -6.65203 2.75669e-19)
(6.79715 -6.83886 3.23998e-19)
(7.26767 -7.00692 -9.69338e-19)
(7.74767 -7.15508 6.9449e-19)
(8.2359 -7.28249 7.82474e-19)
(8.7311 -7.38826 -1.59827e-18)
(9.23154 -7.47163 8.15466e-19)
(9.73578 -7.53157 -8.70543e-19)
(10.242 -7.56691 4.33425e-19)
(10.7488 -7.57702 4.73995e-19)
(11.2554 -7.5613 5.24353e-19)
(11.7607 -7.52005 -5.17871e-19)
(12.2647 -7.45422 -5.63916e-19)
(12.7655 -7.36349 -1.68947e-18)
(13.2606 -7.24777 -1.2169e-18)
(13.7478 -7.10674 -2.46564e-18)
(14.2239 -6.94015 -3.1904e-18)
(14.6879 -6.74962 1.30651e-18)
(15.1393 -6.53649 2.89877e-20)
(15.5768 -6.30125 -7.28805e-19)
(16.0003 -6.04359 -7.13867e-19)
(16.4089 -5.76295 4.31371e-18)
(16.8017 -5.46002 -7.22713e-19)
(17.1776 -5.13619 0)
(17.5349 -4.79297 0)
(17.8724 -4.43157 -7.23755e-19)
(18.1891 -4.05319 3.22339e-20)
(18.4842 -3.65874 7.75199e-19)
(18.7571 -3.24927 0)
(19.0072 -2.82606 8.24203e-19)
(19.2337 -2.39042 0)
(19.4362 -1.94354 0)
(19.6139 -1.48637 6.26566e-19)
(19.7666 -1.02051 1.99062e-19)
(19.894 -0.547403 -2.02806e-19)
(19.9957 -0.0685394 1.03712e-19)
(0.137702 -0.73309 5.28042e-23)
(0.207644 -0.851165 1.1537e-21)
(0.291163 -0.9862 -2.32582e-21)
(0.388267 -1.13873 2.28306e-22)
(0.498859 -1.30872 -1.97772e-21)
(0.624028 -1.49561 5.07502e-21)
(0.764566 -1.69875 2.56376e-21)
(0.921219 -1.91698 -1.34036e-20)
(1.09499 -2.14917 4.17761e-20)
(1.28595 -2.3939 -6.05506e-20)
(1.49463 -2.64952 6.84279e-20)
(1.72076 -2.91425 -8.5492e-20)
(1.96453 -3.18598 -4.94513e-20)
(2.22575 -3.46271 0)
(2.5047 -3.74241 9.07895e-20)
(2.8008 -4.02336 8.71821e-20)
(3.11386 -4.30352 0)
(3.44362 -4.58095 2.15241e-19)
(3.78951 -4.85381 0)
(4.15132 -5.12018 -2.84075e-19)
(4.52862 -5.37853 3.0938e-19)
(4.92058 -5.6273 1.0522e-20)
(5.32664 -5.86481 -1.79088e-20)
(5.7457 -6.08967 3.00933e-20)
(6.17697 -6.30011 -8.63843e-19)
(6.61955 -6.49464 -4.94115e-19)
(7.07241 -6.67184 1.01641e-18)
(7.53473 -6.83049 1.10059e-18)
(8.00541 -6.96993 -5.95096e-19)
(8.48327 -7.08923 0)
(8.96739 -7.18753 0)
(9.45644 -7.26381 0)
(9.94871 -7.31653 7.47298e-19)
(10.4427 -7.34504 -3.07879e-18)
(10.9362 -7.34907 1.60768e-18)
(11.4275 -7.32905 -8.16978e-19)
(11.9167 -7.28596 -1.75894e-18)
(12.4026 -7.21963 1.78268e-18)
(12.8851 -7.12922 4.35882e-20)
(13.3639 -7.01307 -1.00606e-18)
(13.8356 -6.8705 1.04059e-18)
(14.2991 -6.70266 1.07358e-18)
(14.7515 -6.51199 0)
(15.1901 -6.30122 -1.09196e-18)
(15.6138 -6.07053 0)
(16.0208 -5.81861 -1.7312e-18)
(16.4124 -5.54439 5.3428e-19)
(16.7889 -5.24811 0)
(17.1498 -4.93134 -6.24993e-19)
(17.4935 -4.59571 -1.44499e-20)
(17.8184 -4.24243 1.33059e-18)
(18.1229 -3.87273 -6.31774e-19)
(18.4064 -3.48759 -3.50457e-19)
(18.6682 -3.08809 6.42684e-19)
(18.9077 -2.67556 -4.54304e-21)
(19.1243 -2.25098 3.34602e-19)
(19.3173 -1.81565 1.61515e-19)
(19.4863 -1.3705 3.40478e-19)
(19.6311 -0.916765 -8.54827e-19)
(19.7513 -0.455965 3.43072e-19)
(19.8466 0.0103312 -4.38702e-20)
(0.230947 -0.614259 -4.21825e-22)
(0.314758 -0.74653 0)
(0.412919 -0.895035 3.41912e-21)
(0.525785 -1.06028 0)
(0.652606 -1.24192 8.68011e-23)
(0.79462 -1.43901 5.92037e-21)
(0.952165 -1.65082 7.87728e-21)
(1.12574 -1.87589 2.62061e-20)
(1.31628 -2.11305 4.07054e-21)
(1.52324 -2.36099 6.24803e-21)
(1.74725 -2.61796 1.265e-21)
(1.98737 -2.88239 -3.24136e-20)
(2.24397 -3.15216 4.80055e-20)
(2.51617 -3.42526 -1.46373e-19)
(2.80501 -3.69972 1.24676e-19)
(3.10947 -3.97439 -8.91588e-21)
(3.42912 -4.24699 -1.54486e-19)
(3.76407 -4.51585 -1.8586e-19)
(4.1133 -4.77932 0)
(4.47686 -5.0354 2.20665e-19)
(4.85466 -5.28291 8.55631e-21)
(5.24539 -5.5206 -5.69666e-19)
(5.64903 -5.74677 -2.40668e-20)
(6.06405 -5.96042 -3.07623e-19)
(6.48974 -6.15965 1.08297e-18)
(6.92541 -6.34307 3.61604e-20)
(7.36991 -6.5095 -4.01893e-19)
(7.82301 -6.65774 -4.25551e-20)
(8.28316 -6.7875 0)
(8.74927 -6.8978 0)
(9.22063 -6.98738 0)
(9.69559 -7.05535 0)
(10.1738 -7.1003 0)
(10.6541 -7.12152 5.70382e-20)
(11.1345 -7.12011 -6.90044e-19)
(11.6131 -7.09662 -3.83323e-20)
(12.0868 -7.05116 2.80312e-20)
(12.5552 -6.98437 7.06848e-19)
(13.0168 -6.89307 1.61492e-18)
(13.4719 -6.77611 -2.42981e-18)
(13.9236 -6.6332 1.69649e-18)
(14.3696 -6.46477 -8.57291e-19)
(14.809 -6.27577 0)
(15.2378 -6.0682 9.53922e-19)
(15.649 -5.84218 0)
(16.042 -5.59609 9.97529e-19)
(16.4165 -5.32791 -1.01768e-18)
(16.775 -5.03906 4.77252e-19)
(17.1195 -4.73035 5.09537e-19)
(17.4481 -4.40337 -5.31249e-19)
(17.7591 -4.05935 3.88073e-20)
(18.0508 -3.69953 -1.0285e-20)
(18.322 -3.32466 1.07949e-18)
(18.5723 -2.93617 -1.10986e-18)
(18.8012 -2.53529 -5.47188e-19)
(19.0076 -2.12331 -2.67856e-19)
(19.191 -1.701 -8.51177e-19)
(19.351 -1.26918 0)
(19.4878 -0.829003 5.74113e-19)
(19.6009 -0.382283 -1.47298e-19)
(19.6901 0.0697144 0)
(0.343985 -0.561527 0)
(0.443578 -0.704342 0)
(0.558255 -0.863066 -1.74659e-21)
(0.689346 -1.03787 1.75126e-21)
(0.833958 -1.22791 -1.71332e-21)
(0.994366 -1.43171 -9.66002e-21)
(1.17 -1.64852 5.42965e-21)
(1.36071 -1.87655 -1.81942e-20)
(1.56875 -2.11491 -1.37476e-21)
(1.79138 -2.36233 4.9584e-20)
(2.03093 -2.61711 -9.26573e-20)
(2.28441 -2.87804 0)
(2.55352 -3.14271 0)
(2.83539 -3.40936 1.66525e-19)
(3.13367 -3.67551 1.06662e-19)
(3.44562 -3.94139 -2.35054e-19)
(3.77064 -4.20415 3.81129e-19)
(4.11006 -4.46225 1.5904e-19)
(4.46138 -4.71469 -3.18191e-19)
(4.82541 -4.95872 -1.92297e-19)
(5.20312 -5.19353 2.20546e-19)
(5.59132 -5.41879 -5.59162e-21)
(5.99201 -5.63197 0)
(6.40198 -5.83351 5.66001e-19)
(6.82097 -6.02062 -9.30047e-19)
(7.24891 -6.19197 3.09625e-19)
(7.68365 -6.34696 6.83086e-19)
(8.12666 -6.48362 -1.89745e-18)
(8.5761 -6.60286 3.86274e-19)
(9.02975 -6.7031 0)
(9.4876 -6.78288 0)
(9.94724 -6.84255 0)
(10.4079 -6.87957 5.25241e-19)
(10.8717 -6.89407 1.62521e-18)
(11.3378 -6.88714 -1.10179e-18)
(11.8025 -6.8591 6.06315e-19)
(12.2656 -6.8097 6.5946e-19)
(12.7189 -6.73887 -1.30693e-18)
(13.1598 -6.64577 0)
(13.5922 -6.52846 -1.32362e-18)
(14.0156 -6.38586 6.90385e-19)
(14.439 -6.22041 4.03176e-20)
(14.8612 -6.03505 -3.52946e-20)
(15.2764 -5.83136 7.73525e-19)
(15.6785 -5.60947 2.90675e-20)
(16.0578 -5.367 -2.45166e-18)
(16.4165 -5.10359 8.28094e-19)
(16.758 -4.82149 -1.70943e-18)
(17.0844 -4.5207 0)
(17.3964 -4.20317 0)
(17.6923 -3.86862 1.80209e-18)
(17.9697 -3.51933 -4.30397e-19)
(18.2275 -3.15529 -9.33076e-19)
(18.4657 -2.77786 -4.47759e-19)
(18.6831 -2.38921 1.42972e-18)
(18.8787 -1.99031 7.20226e-19)
(19.0519 -1.58146 2.48654e-19)
(19.2022 -1.1638 -4.80566e-21)
(19.3301 -0.737483 -2.4871e-19)
(19.4359 -0.304951 0)
(19.5184 0.131976 0)
(0.474468 -0.550654 4.51861e-22)
(0.592966 -0.701204 0)
(0.725236 -0.867213 0)
(0.877248 -1.0492 -1.14122e-21)
(1.03996 -1.2452 0)
(1.21968 -1.45292 2.64299e-21)
(1.41358 -1.67188 5.36294e-21)
(1.62032 -1.89985 -1.11872e-20)
(1.84709 -2.13662 0)
(2.08395 -2.38098 -2.97023e-20)
(2.34005 -2.63118 4.14652e-21)
(2.60526 -2.88676 0)
(2.8877 -3.14452 0)
(3.17621 -3.40327 -7.00172e-20)
(3.48427 -3.65804 7.65906e-20)
(3.80345 -3.91394 -9.60575e-20)
(4.13195 -4.16559 -1.10464e-19)
(4.47582 -4.4114 0)
(4.82786 -4.65257 1.42172e-19)
(5.19078 -4.8833 -2.99737e-19)
(5.56917 -5.10403 -3.35204e-19)
(5.95252 -5.31658 -3.92241e-19)
(6.35059 -5.51528 -3.43581e-20)
(6.75462 -5.70492 -4.95314e-19)
(7.16594 -5.87956 4.75863e-19)
(7.58631 -6.03808 5.29183e-19)
(8.00889 -6.1817 -6.01289e-19)
(8.44127 -6.30542 3.27078e-20)
(8.87942 -6.41333 4.29514e-20)
(9.31932 -6.50363 -6.91961e-19)
(9.765 -6.57288 0)
(10.209 -6.6246 -8.3439e-19)
(10.6515 -6.65449 1.65475e-18)
(11.0959 -6.6612 -4.86127e-20)
(11.5424 -6.64879 9.74196e-19)
(11.9887 -6.61761 -9.71477e-19)
(12.4388 -6.56006 1.06719e-18)
(12.8817 -6.48571 1.10426e-18)
(13.3095 -6.3907 -2.18162e-18)
(13.7202 -6.27132 1.1776e-18)
(14.1186 -6.13298 1.15076e-18)
(14.5138 -5.97034 1.83044e-18)
(14.9099 -5.79095 -6.61256e-19)
(15.3086 -5.5915 0)
(15.6956 -5.37083 3.60856e-20)
(16.0625 -5.13113 7.16148e-19)
(16.4074 -4.87147 -6.94423e-19)
(16.7304 -4.59798 7.42247e-19)
(17.0397 -4.30601 0)
(17.3334 -3.99865 0)
(17.6133 -3.67317 -4.08232e-20)
(17.8752 -3.33539 7.95172e-19)
(18.1181 -2.98167 0)
(18.3432 -2.61526 3.94643e-19)
(18.5488 -2.2401 3.97775e-19)
(18.733 -1.85542 -8.09301e-19)
(18.8954 -1.46064 -3.96671e-19)
(19.0345 -1.05822 -2.10615e-19)
(19.1525 -0.64534 0)
(19.2506 -0.228123 0)
(19.326 0.192269 2.51681e-20)
(0.623137 -0.56566 -1.26687e-21)
(0.766701 -0.720638 2.61136e-21)
(0.915628 -0.889403 -1.30024e-23)
(1.09489 -1.07658 -2.58058e-21)
(1.27152 -1.2753 3.46039e-21)
(1.47017 -1.48667 -1.78963e-21)
(1.68301 -1.70369 0)
(1.90171 -1.92766 1.54621e-21)
(2.15247 -2.16138 -1.39808e-20)
(2.39753 -2.39936 0)
(2.67605 -2.64394 6.11256e-20)
(2.94558 -2.89389 -3.84889e-20)
(3.24488 -3.14499 3.93073e-20)
(3.5325 -3.39619 5.04557e-20)
(3.85306 -3.63398 -6.61863e-20)
(4.17916 -3.88109 -8.09235e-20)
(4.50682 -4.12159 2.67118e-19)
(4.85944 -4.35178 -2.78124e-19)
(5.20559 -4.58447 0)
(5.56261 -4.80339 -9.37229e-21)
(5.94833 -5.00882 8.23946e-19)
(6.31876 -5.21126 -3.07488e-20)
(6.72176 -5.39033 -3.88871e-19)
(7.11359 -5.57117 7.45664e-19)
(7.51534 -5.73563 0)
(7.93178 -5.88132 -4.56814e-19)
(8.33609 -6.01526 -4.6814e-19)
(8.75871 -6.12447 1.03578e-18)
(9.18545 -6.22241 -6.83093e-21)
(9.60683 -6.30418 6.13529e-19)
(10.0436 -6.35971 -1.25139e-18)
(10.4708 -6.40618 1.98409e-18)
(10.896 -6.42945 -1.41722e-18)
(11.3243 -6.42789 -1.48488e-18)
(11.7508 -6.41075 0)
(12.1646 -6.37676 8.51062e-19)
(12.5994 -6.31292 0)
(13.0265 -6.23683 -2.9668e-21)
(13.446 -6.13847 9.83146e-19)
(13.8537 -6.01353 -1.85107e-18)
(14.2312 -5.87402 -8.70287e-21)
(14.6025 -5.71478 -2.01312e-18)
(14.9609 -5.54776 0)
(15.3274 -5.35496 -5.93767e-19)
(15.6945 -5.13734 2.25527e-18)
(16.0442 -4.89793 -5.74467e-19)
(16.3841 -4.64158 6.04815e-19)
(16.6874 -4.38262 0)
(16.9809 -4.09838 6.16695e-19)
(17.254 -3.79862 -1.86002e-18)
(17.5187 -3.47762 -2.5908e-20)
(17.7639 -3.15124 0)
(17.9888 -2.81118 6.38786e-19)
(18.201 -2.45639 -1.92444e-20)
(18.3959 -2.09245 0)
(18.5656 -1.72031 3.59167e-19)
(18.7189 -1.34752 -3.26027e-19)
(18.8442 -0.962362 3.41835e-19)
(18.9506 -0.564167 3.38607e-19)
(19.0438 -0.158702 -1.70064e-19)
(19.1089 0.245925 -6.42816e-20)
(20.6633 0.857322 1.52217e-19)
(20.7157 1.38754 -5.16042e-20)
(20.7404 1.92028 0)
(20.737 2.4535 0)
(20.7059 2.98549 8.1816e-19)
(20.6474 3.51503 1.17669e-18)
(20.5614 4.0403 -1.21051e-18)
(20.4482 4.55983 -3.98495e-19)
(20.3079 5.0727 3.98514e-19)
(20.1413 5.57757 7.78791e-19)
(19.9485 6.07376 -7.79395e-19)
(19.7298 6.55946 -7.56696e-19)
(19.4868 7.0336 3.76301e-18)
(19.2209 7.49472 7.31055e-19)
(18.932 7.94163 -6.44978e-18)
(18.621 8.37288 0)
(18.2886 8.78756 0)
(17.9363 9.18474 6.69168e-19)
(17.5646 9.56388 1.97566e-18)
(17.1745 9.92364 -5.07518e-18)
(16.7675 10.2634 -7.44962e-20)
(16.3443 10.5827 1.16173e-18)
(15.9061 10.8804 1.19447e-18)
(15.454 11.1561 -4.45018e-18)
(14.9894 11.4098 0)
(14.513 11.6414 2.08599e-18)
(14.0255 11.8497 -1.93029e-18)
(13.5291 12.0335 0)
(13.025 12.1925 0)
(12.515 12.3264 -8.81681e-19)
(12.0002 12.4353 -1.60789e-18)
(11.4819 12.5188 2.28811e-18)
(10.9617 12.5772 0)
(10.4405 12.6105 0)
(9.91982 12.6186 1.14467e-18)
(9.40086 12.6018 -1.08512e-18)
(8.88492 12.5601 0)
(8.3733 12.4942 1.69306e-18)
(7.86701 12.4042 3.49185e-19)
(7.36733 12.2905 -9.61613e-19)
(6.87544 12.1536 3.48728e-20)
(6.39275 11.9941 3.9027e-19)
(5.92005 11.8128 -3.74717e-19)
(5.45852 11.6099 6.42392e-20)
(5.00932 11.3865 0)
(4.57318 11.1432 0)
(4.15113 10.8808 -2.43579e-19)
(3.74408 10.6 -4.74641e-20)
(3.35303 10.302 2.51983e-19)
(2.97867 9.98785 1.02283e-19)
(2.62161 9.65834 1.53889e-19)
(2.28265 9.31438 -1.55917e-19)
(1.96255 8.95724 -1.02561e-19)
(1.66161 8.58815 1.03975e-19)
(1.38051 8.20801 -6.15392e-19)
(1.11965 7.81828 6.68749e-19)
(0.879439 7.42009 -1.19723e-21)
(0.660177 7.01497 0)
(0.462021 6.60398 1.68731e-19)
(0.28531 6.18819 2.28502e-20)
(0.130114 5.76884 2.41245e-20)
(20.4351 0.090466 -8.21908e-20)
(20.4988 0.608866 0)
(20.535 1.12915 0)
(20.5438 1.65056 9.41862e-19)
(20.5252 2.17156 -6.29461e-19)
(20.4796 2.69076 -2.21678e-18)
(20.407 3.20662 0)
(20.3074 3.71809 0)
(20.181 4.22365 -1.20427e-18)
(20.0282 4.72185 0)
(19.8493 5.21163 -1.76213e-18)
(19.6451 5.69068 1.16856e-18)
(19.4172 6.15749 -5.7999e-19)
(19.1663 6.61238 0)
(18.8925 7.0544 2.2901e-18)
(18.5961 7.48218 1.07137e-18)
(18.2783 7.89452 -1.07372e-18)
(17.9399 8.29028 1.01967e-18)
(17.5819 8.6688 -3.01273e-18)
(17.2053 9.02892 2.02718e-18)
(16.8114 9.36954 -1.96719e-18)
(16.4009 9.6902 -1.00271e-18)
(15.9753 9.98972 -9.05914e-19)
(15.5354 10.2674 2.62519e-18)
(15.0826 10.5226 8.40789e-19)
(14.6176 10.7554 7.67492e-19)
(14.1418 10.9655 -6.93138e-19)
(13.6569 11.152 0)
(13.1641 11.3144 0)
(12.6647 11.452 0)
(12.1599 11.565 0)
(11.6511 11.653 0)
(11.1398 11.716 0)
(10.627 11.754 0)
(10.1143 11.767 -4.75767e-19)
(9.60278 11.755 4.21383e-19)
(9.09387 11.7182 3.34202e-19)
(8.58875 11.6569 -1.61905e-18)
(8.08853 11.5715 -2.49215e-19)
(7.59455 11.4622 7.42257e-19)
(7.10803 11.3295 4.02565e-19)
(6.6303 11.1739 -3.14341e-19)
(6.16226 10.9961 1.12969e-19)
(5.70522 10.7964 7.82524e-20)
(5.26028 10.5757 8.38748e-21)
(4.82825 10.3347 -8.48288e-21)
(4.41019 10.074 1.25906e-19)
(4.00705 9.79444 0)
(3.61989 9.49703 8.86663e-20)
(3.24947 9.18274 -1.99095e-19)
(2.89645 8.85245 1.10725e-19)
(2.56173 8.50707 0)
(2.24614 8.14773 -3.21532e-19)
(1.94993 7.7756 0)
(1.67401 7.39163 0)
(1.41859 6.99725 -9.85005e-19)
(1.18433 6.59366 4.73719e-19)
(0.971396 6.18229 1.30339e-19)
(0.780365 5.76416 -1.363e-19)
(0.611529 5.34055 0)
(0.46512 4.91268 -3.82885e-20)
(20.2253 0.468942 6.2655e-20)
(20.2773 0.971134 0)
(20.3025 1.47386 -2.49639e-19)
(20.3004 1.97668 -1.6452e-20)
(20.2718 2.47827 0)
(20.2172 2.97835 1.99933e-18)
(20.1364 3.47611 9.75326e-19)
(20.0291 3.97 0)
(19.8955 4.45795 3.2121e-20)
(19.7367 4.93805 9.42074e-19)
(19.5533 5.40897 1.43e-18)
(19.3465 5.86909 -4.70057e-19)
(19.1163 6.31672 0)
(18.8631 6.75167 0)
(18.5877 7.17328 1.72719e-18)
(18.2911 7.58052 -8.51261e-19)
(17.974 7.97233 -7.97089e-19)
(17.6374 8.34776 0)
(17.2822 8.70604 2.40501e-18)
(16.9094 9.04621 -2.30652e-18)
(16.5203 9.36737 -1.47164e-18)
(16.1156 9.66884 -1.42278e-18)
(15.6967 9.94971 0)
(15.2646 10.2093 -2.02944e-18)
(14.8203 10.4469 -6.61776e-19)
(14.3653 10.662 6.03058e-19)
(13.9006 10.8541 5.92898e-19)
(13.4275 11.0232 0)
(12.9471 11.1687 0)
(12.4608 11.2905 0)
(11.9698 11.3882 0)
(11.4752 11.4619 0)
(10.9785 11.5115 0)
(10.481 11.537 0)
(9.98384 11.5383 -1.01771e-18)
(9.48832 11.5156 3.25372e-19)
(8.99567 11.4689 -2.56712e-19)
(8.50703 11.3986 1.21958e-18)
(8.02353 11.3051 0)
(7.54638 11.1886 3.35114e-19)
(7.07678 11.0497 2.68515e-19)
(6.61594 10.8889 1.132e-19)
(6.16486 10.7067 -6.20395e-20)
(5.72471 10.5036 -6.89422e-20)
(5.29651 10.2803 -8.8864e-21)
(4.88114 10.0375 1.18066e-20)
(4.47947 9.77578 1.28363e-19)
(4.09245 9.49611 0)
(3.721 9.19939 0)
(3.36594 8.88647 8.69803e-20)
(3.028 8.55827 1.03554e-19)
(2.70785 8.21574 2.22367e-19)
(2.40623 7.85983 2.53047e-19)
(2.12357 7.49167 0)
(1.86057 7.11215 3.11307e-19)
(1.61744 6.72273 3.42305e-19)
(1.3947 6.32449 0)
(1.1927 5.9189 -1.94827e-21)
(1.01197 5.5069 0)
(0.85274 5.08978 0)
(0.71527 4.66864 2.9346e-20)
(20.0717 0.415128 -1.03702e-19)
(20.1218 0.902171 2.02709e-19)
(20.1459 1.3915 -3.99355e-19)
(20.1437 1.88138 -2.1462e-19)
(20.1151 2.3704 0)
(20.0598 2.85763 -8.30545e-19)
(19.9783 3.34236 -8.23622e-19)
(19.8721 3.82344 0)
(19.7413 4.29914 3.4102e-20)
(19.5863 4.76767 -7.94427e-19)
(19.4073 5.22746 1.49905e-18)
(19.2048 5.67759 1.47475e-18)
(18.9792 6.11691 0)
(18.7312 6.54397 -7.17447e-19)
(18.4617 6.95774 -1.42456e-18)
(18.1714 7.35705 -7.02357e-19)
(17.8612 7.74103 2.05454e-18)
(17.5319 8.10882 -1.31923e-18)
(17.1844 8.45966 1.28262e-18)
(16.8199 8.79272 1.86013e-18)
(16.4393 9.10719 2.41349e-18)
(16.0439 9.40231 1.19211e-18)
(15.6345 9.67725 5.48439e-19)
(15.2123 9.93133 1.65571e-18)
(14.7782 10.164 5.06369e-19)
(14.3335 10.3748 5.06398e-19)
(13.8793 10.5633 4.57568e-19)
(13.4169 10.7292 -1.33184e-18)
(12.9475 10.872 8.24208e-19)
(12.4723 10.9916 7.67125e-19)
(11.9924 11.0877 -1.4872e-18)
(11.5092 11.1603 7.19993e-19)
(11.0239 11.2094 -6.2394e-19)
(10.5377 11.2349 2.92385e-19)
(10.0521 11.2368 2.81683e-19)
(9.56808 11.2152 2.26747e-19)
(9.08691 11.1702 -2.28259e-19)
(8.60963 11.1021 -2.14056e-19)
(8.13738 11.0113 -4.82868e-19)
(7.67137 10.8982 -2.76722e-19)
(7.21275 10.7631 -4.23411e-19)
(6.76263 10.6067 -3.7991e-19)
(6.32217 10.4295 1.03563e-19)
(5.89241 10.2319 6.90711e-21)
(5.47435 10.0146 9.17958e-21)
(5.06891 9.77818 4.14571e-20)
(4.67678 9.52337 -3.28827e-19)
(4.29896 9.25099 6.81482e-20)
(3.93627 8.96202 0)
(3.58965 8.65723 0)
(3.25966 8.33745 1.58813e-19)
(2.94712 8.00379 5.04203e-22)
(2.65265 7.65705 -2.05278e-19)
(2.37668 7.29829 0)
(2.11981 6.92832 -2.52652e-19)
(1.88223 6.54861 0)
(1.66447 6.16031 0)
(1.46675 5.7647 -2.40448e-19)
(1.28988 5.36291 -8.53171e-20)
(1.13381 4.95612 8.85834e-20)
(0.999129 4.54549 -4.69169e-20)
(19.9168 0.481058 1.87891e-21)
(19.9617 0.955061 -1.75278e-19)
(19.9812 1.43123 5.13442e-19)
(19.9754 1.90806 3.40399e-19)
(19.9441 2.38436 -5.01181e-19)
(19.8877 2.85856 3.35324e-19)
(19.8064 3.32848 -2.70637e-21)
(19.7005 3.79311 -6.48369e-19)
(19.5705 4.25215 9.86266e-19)
(19.4171 4.70438 -1.28438e-18)
(19.2406 5.14859 1.2079e-18)
(19.0414 5.58344 -1.28404e-18)
(18.8199 6.00788 -6.16497e-19)
(18.577 6.4208 0)
(18.3132 6.8209 6.3342e-19)
(18.0295 7.207 5.40098e-19)
(17.7263 7.5784 0)
(17.4047 7.93412 1.06275e-18)
(17.0654 8.27348 0)
(16.7096 8.59575 -1.04966e-18)
(16.3385 8.90006 9.2542e-19)
(15.9529 9.18564 -4.07423e-20)
(15.554 9.45162 -4.5099e-20)
(15.1428 9.69728 1.25206e-21)
(14.7201 9.92219 -1.7366e-18)
(14.2871 10.1259 -7.87905e-19)
(13.8449 10.308 1.53876e-18)
(13.3947 10.4683 1.41991e-18)
(12.9379 10.6062 -7.07427e-19)
(12.4754 10.7217 0)
(12.0085 10.8142 0)
(11.5382 10.8841 0)
(11.0659 10.9312 5.34444e-19)
(10.5929 10.9555 -1.86393e-18)
(10.1205 10.957 8.6229e-19)
(9.64966 10.9356 -4.10226e-19)
(9.18159 10.8915 -6.49512e-19)
(8.71731 10.8249 6.07566e-19)
(8.25781 10.7363 2.09237e-20)
(7.80438 10.626 -1.8489e-19)
(7.35811 10.4946 2.03959e-19)
(6.92007 10.3426 1.26583e-19)
(6.49147 10.1704 0)
(6.07332 9.97853 -2.31215e-20)
(5.66658 9.76762 0)
(5.27221 9.538 1.0261e-19)
(4.89067 9.29062 -4.83991e-20)
(4.52296 9.02621 0)
(4.16975 8.74576 1.02788e-19)
(3.83231 8.44996 1.94297e-20)
(3.51091 8.13956 -2.64793e-19)
(3.20638 7.81568 1.53748e-19)
(2.91949 7.47911 9.99274e-20)
(2.65043 7.13082 -1.83776e-19)
(2.40006 6.77159 7.9966e-21)
(2.16795 6.40271 -1.10593e-19)
(1.95512 6.02542 -5.93858e-20)
(1.76145 5.64104 -1.31563e-19)
(1.5881 5.25067 3.48101e-19)
(1.43467 4.85544 -1.47723e-19)
(1.30228 4.45646 1.9525e-20)
(19.7549 0.525807 3.68862e-20)
(19.7953 0.984867 0)
(19.8112 1.44571 -5.7433e-19)
(19.8025 1.9072 0)
(19.7693 2.36799 2.85548e-19)
(19.7119 2.82671 8.34668e-19)
(19.6304 3.28204 5.46518e-19)
(19.5251 3.73282 1.10753e-18)
(19.3964 4.17787 9.45385e-21)
(19.2451 4.61625 -7.20302e-21)
(19.0716 5.04641 -6.01909e-20)
(18.8761 5.46739 -5.25534e-19)
(18.6591 5.87814 5.06664e-19)
(18.4214 6.2777 -1.48521e-18)
(18.1638 6.66489 1.0069e-18)
(17.887 7.03846 -4.83357e-20)
(17.5914 7.39764 -9.11617e-19)
(17.2778 7.74155 -9.33268e-19)
(16.947 8.06971 0)
(16.6003 8.38151 8.34049e-19)
(16.2389 8.67598 -3.78395e-20)
(15.8637 8.95238 -1.63802e-18)
(15.4758 9.20979 -5.34167e-21)
(15.0761 9.4473 -6.77965e-19)
(14.6652 9.66474 2.06112e-18)
(14.2444 9.86165 -3.5096e-20)
(13.8147 10.0377 -6.57048e-19)
(13.3772 10.1927 -6.95918e-20)
(12.9335 10.3262 0)
(12.4844 10.4379 0)
(12.0311 10.5273 0)
(11.5743 10.5949 0)
(11.1157 10.6405 0)
(10.6562 10.6644 5.29372e-20)
(10.1977 10.666 -3.33145e-19)
(9.74061 10.6454 3.92834e-20)
(9.28626 10.6027 5.24471e-20)
(8.83556 10.5381 2.09292e-19)
(8.38926 10.4522 3.94535e-19)
(7.9488 10.3455 -4.84288e-19)
(7.51532 10.2182 2.80661e-19)
(7.08966 10.0711 -8.15443e-20)
(6.67326 9.90462 0)
(6.26708 9.71926 2.01693e-20)
(5.87202 9.5156 0)
(5.48926 9.29356 -5.49186e-20)
(5.1185 9.05441 9.18588e-20)
(4.76136 8.79876 -6.06603e-20)
(4.41786 8.52783 -7.49506e-20)
(4.08995 8.24196 1.08774e-19)
(3.7774 7.94182 1.85523e-20)
(3.48108 7.62874 1.51929e-20)
(3.202 7.30322 -2.94133e-19)
(2.94001 6.96639 3.33281e-19)
(2.69633 6.61861 1.8169e-19)
(2.46976 6.26151 9.48191e-20)
(2.26205 5.89609 3.1445e-19)
(2.07211 5.52387 0)
(1.90222 5.1458 -2.39351e-19)
(1.75122 4.76309 6.34635e-20)
(1.62099 4.37662 0)
(19.5775 0.572839 0)
(19.613 1.01637 0)
(19.6248 1.46163 2.4916e-19)
(19.6131 1.90722 -4.76891e-19)
(19.5778 2.35215 -2.45815e-19)
(19.5194 2.79516 -1.19345e-18)
(19.4379 3.23457 4.60082e-19)
(19.3333 3.66932 -9.50958e-19)
(19.206 4.09906 1.55878e-20)
(19.0572 4.52256 1.34608e-18)
(18.8871 4.93786 -1.79548e-18)
(18.6957 5.3441 0)
(18.4837 5.74017 0)
(18.2516 6.12588 1.69686e-18)
(18.0006 6.49974 8.19166e-19)
(17.7314 6.85981 -1.66215e-18)
(17.4437 7.20601 2.3783e-18)
(17.1386 7.5374 7.55406e-19)
(16.8168 7.85365 -1.4806e-18)
(16.4795 8.15453 -7.42333e-19)
(16.1283 8.43856 6.8382e-19)
(15.764 8.7054 -7.05374e-20)
(15.3878 8.95395 0)
(15.0004 9.18266 1.2776e-18)
(14.6019 9.39215 -1.79977e-18)
(14.1939 9.58188 5.7953e-19)
(13.7773 9.75139 1.04045e-18)
(13.3532 9.90104 -2.52223e-18)
(12.9234 10.0297 4.93253e-19)
(12.4885 10.1377 0)
(12.0498 10.2236 0)
(11.6071 10.2891 0)
(11.163 10.333 3.37826e-19)
(10.7178 10.3568 9.53638e-19)
(10.2743 10.3588 -5.59808e-19)
(9.83192 10.3393 2.42317e-19)
(9.39225 10.2984 2.31072e-19)
(8.95627 10.2357 -4.08716e-19)
(8.5239 10.1528 0)
(8.0971 10.0498 -2.19114e-19)
(7.67726 9.92685 1.14111e-19)
(7.26441 9.7849 1.37016e-20)
(6.86062 9.62446 9.93619e-21)
(6.46705 9.44599 1.75298e-20)
(6.08405 9.25037 -1.0717e-20)
(5.71402 9.03625 1.87854e-19)
(5.35442 8.80606 -7.71063e-20)
(5.0087 8.55964 2.45747e-19)
(4.67496 8.29914 0)
(4.35758 8.02414 0)
(4.05439 7.73495 -4.22891e-19)
(3.76644 7.43357 1.14343e-19)
(3.49612 7.12003 2.6097e-19)
(3.2413 6.79558 1.5277e-19)
(3.00545 6.4599 -4.81209e-19)
(2.7843 6.11525 -2.68038e-19)
(2.58231 5.76225 -9.83073e-20)
(2.3957 5.40314 -2.00424e-21)
(2.23 5.03827 1.05107e-19)
(2.08099 4.6689 0)
(1.95341 4.29571 0)
(19.379 0.616824 -2.51811e-20)
(19.4088 1.04376 0)
(19.4163 1.47255 0)
(19.401 1.90162 2.1148e-19)
(19.3634 2.32975 0)
(19.3041 2.75611 8.13692e-19)
(19.2234 3.17882 4.00466e-19)
(19.1196 3.59644 -7.86536e-19)
(18.9934 4.01073 0)
(18.8473 4.41958 -7.97413e-19)
(18.682 4.8184 4.38749e-20)
(18.4954 5.20915 0)
(18.289 5.58936 0)
(18.0627 5.96033 -7.41661e-19)
(17.8186 6.32101 6.84277e-19)
(17.5583 6.66639 -7.08368e-19)
(17.2794 6.99892 -6.90142e-19)
(16.9832 7.31746 0)
(16.671 7.62067 6.51177e-19)
(16.3435 7.91013 -1.18621e-18)
(16.0034 8.18283 -1.14502e-18)
(15.6506 8.43971 -1.17498e-18)
(15.2864 8.67966 -8.86877e-21)
(14.9131 8.89838 -9.66368e-19)
(14.5273 9.09943 1.02606e-18)
(14.1322 9.28192 9.22853e-19)
(13.73 9.44392 -9.35702e-19)
(13.3193 9.5882 5.89148e-20)
(12.9045 9.71131 4.46666e-22)
(12.4837 9.81641 -7.78739e-19)
(12.0613 9.89748 0)
(11.6325 9.96162 -6.16299e-19)
(11.2046 10.0031 1.18609e-18)
(10.7735 10.0281 -4.53658e-20)
(10.3471 10.0309 5.03749e-19)
(9.92071 10.0125 -4.07028e-19)
(9.49682 9.97381 3.42426e-19)
(9.07764 9.91285 2.40059e-19)
(8.65993 9.83298 -5.31486e-19)
(8.24734 9.73408 2.19513e-19)
(7.8428 9.6156 1.3368e-19)
(7.44259 9.47892 1.32272e-19)
(7.05149 9.32455 -2.45783e-20)
(6.67153 9.15325 0)