/*--------------------------------*- C++ -*----------------------------------*\
| =========                 |                                                 |
| \\      /  F ield         | OpenFOAM: The Open Source CFD Toolbox           |
|  \\    /   O peration     | Version:  2.3.1                                 |
|   \\  /    A nd           | Web:      www.OpenFOAM.org                      |
|    \\/     M anipulation  |                                                 |
\*---------------------------------------------------------------------------*/
FoamFile
{
    version     2.0;
    format      ascii;
    class       volScalarField;
    location    "2200";
    object      sigmaEq;
}
// * * * * * * * * * * * * * * * * * * * * * * * * * * * * * * * * * * * * * //

dimensions      [1 -1 -2 0 0 0 0];

internalField   nonuniform List<scalar> 
11800
(
152953
115923
468500
400264
111645
286155
145371
154718
163588
174113
151135
568424
76840.4
421326
364795
1.59859e+06
116603
114222
203479
121992
321018
514943
709122
634550
1.3074e+06
830394
838476
417010
918117
999350
281063
113842
826482
123750
127913
272438
128903
879889
126085
131314
869148
951587
438372
1.03621e+06
296207
1.49654e+06
675377
784503
145073
202969
594794
422539
126437
201323
1.705e+06
1.42887e+06
61788.1
394338
306195
297619
1.42022e+06
136799
314192
259500
1.28213e+06
195422
611171
436730
62143.6
767160
130302
108965
105089
1.38303e+06
1.40604e+06
266145
1.33451e+06
184478
153875
159030
1.73475e+06
110940
112276
115012
112475
962489
300315
882572
806201
432706
124308
983536
136530
59502.2
158527
131051
16962.4
130825
126850
500544
75021.5
550333
933715
330619
134241
279149
155427
138968
1.3801e+06
885680
966508
808983
304340
439677
184702
1.24699e+06
183262
130692
1.17156e+06
180632
174934
146875
158423
124516
133724
125291
126982
126079
94895.8
29206.8
1.6101e+06
1.0581e+06
324304
964052
459331
881587
804608
285792
825332
399772
754822
689280
424914
167666
202732
271655
977375
1.00439e+06
572872
316021
178067
171077
126624
218547
198156
160381
384790
525443
1.06263e+06
131175
1.58534e+06
195272
1.35834e+06
390458
425371
462846
233709
182155
1.71644e+06
1.04885e+06
365927
499856
138424
304738
304459
1.49399e+06
1.51048e+06
783771
716122
855713
384851
268103
210495
175828
364243
181140
285497
135515
147338
144300
204804
190064
180896
179696
738561
942413
1.42506e+06
116649
185332
1.67386e+06
122564
234540
263106
130634
134408
683475
573839
524997
435019
1.60603e+06
488612
718557
2.19131e+06
1.79242e+06
1.85864e+06
292114
119191
680697
621012
568447
218399
306328
117585
114480
202280
121377
1.06165e+06
219472
122819
380964
180457
151827
125269
527408
538379
2.18461e+06
1.05858e+06
187407
196484
925516
756506
268601
384347
858528
789817
721500
133342
937872
324593
441732
414566
134428
118845
341704
296381
136863
1.85344e+06
233819
267594
198068
226124
564959
618029
672949
306000
220307
129295
1.39855e+06
140800
83467.3
126378
335975
126498
436832
1.64483e+06
316200
313290
469502
341802
392544
287264
982146
822334
262608
324941
212866
252750
456006
597349
233530
974915
1.04625e+06
1.26219e+06
148109
313553
311743
1.44285e+06
1.4566e+06
846836
833451
866676
858211
123556
85278.7
239733
1.89591e+06
113799
119608
246597
207728
217383
742915
757619
1.29705e+06
1.86161e+06
576073
159006
709964
585240
412813
336806
147493
150934
218189
380714
202455
351101
113754
147263
144791
132838
1.04183e+06
144690
118424
1.53562e+06
252385
577523
625170
609295
768250
739962
98815.3
97943
529707
689232
480238
1.24445e+06
107680
672730
525772
341723
260131
256697
198143
263362
229126
300783
331501
359589
133656
126685
616471
654636
155572
184360
383295
319330
360027
167010
157844
195675
198323
735733
347080
261109
315338
860166
1.0034e+06
303256
169053
161636
207552
194369
355902
414082
335830
394612
307847
361988
274590
259073
544413
269964
591375
1.01689e+06
502444
370615
1.70393e+06
123559
1.06861e+06
516694
378025
1.6144e+06
128063
1.09671e+06
272643
936335
863660
836739
161580
72335.7
115446
1.96772e+06
1.69975e+06
734202
261992
348172
154322
190685
218719
126622
184489
1.29613e+06
52518.5
447218
340391
1.43628e+06
98410.9
152422
131472
136243
130432
133747
1.43965e+06
473101
194792
532514
488035
447846
102735
1.04712e+06
337528
466855
144890
704366
156577
1.36497e+06
122341
167905
386349
354798
326068
713327
189390
393502
356917
187330
536714
586244
639551
305440
224672
58379
144159
157939
1.78536e+06
582205
459090
336817
277282
154588
135809
100444
102470
169259
90810.3
103763
115935
140286
280663
130199
173720
479763
561804
267165
1.28308e+06
169232
303852
132992
148865
1.23591e+06
1.59017e+06
480391
525344
202782
180565
111008
1.08385e+06
1.53778e+06
1.36491e+06
1.98688e+06
617393
431847
571512
107754
155730
145139
160036
563101
131430
129481
108918
149537
1.08095e+06
237052
1.06326e+06
668292
142628
180956
917166
1.11467e+06
560046
613072
666487
303720
220909
509988
128754
129155
126382
142814
116056
163623
88817.1
155984
87175.2
152414
78915.7
149297
136919
143910
101459
1.23944e+06
200269
200244
447026
719089
103238
134446
115989
112108
100638
234547
331175
121114
119796
468202
107219
159182
1.34429e+06
72323.8
143897
407880
374461
393887
428037
439975
466177
215895
167652
1.53529e+06
1.92524e+06
382439
80656.7
274056
285320
292239
211493
624958
575279
526015
147569
75905.6
597667
565857
253274
278953
147261
477848
522023
190848
838436
846665
856791
851392
1.48554e+06
1.45355e+06
448142
1.80603e+06
627497
123403
1.26917e+06
1.06518e+06
1.16552e+06
588865
241187
262420
159306
1.2662e+06
407757
517179
1.90944e+06
175073
207226
418174
393741
1.04538e+06
531465
1.56986e+06
123273
119554
218144
303632
677168
619411
566488
1.46943e+06
132093
309863
668767
1.04827e+06
120806
1.72e+06
1.60995e+06
1.65117e+06
191706
259955
102253
1.68826e+06
467318
196682
325836
1.5628e+06
129000
199206
213038
126766
395781
234412
1.96357e+06
1.68356e+06
171352
477351
609655
231783
270069
207313
186331
534062
172576
459300
342694
884419
784059
145104
1.034e+06
128324
317137
386933
1.40634e+06
260469
355025
200742
171585
153631
178026
335802
781524
862107
122511
120663
119418
159708
283142
1.04893e+06
103675
351483
629045
488097
183223
834054
927463
596336
1.01549e+06
1.10758e+06
452512
300856
138359
157031
288945
309223
267050
292819
163844
268868
316688
190783
126243
1.96837e+06
829980
310067
413275
390693
191469
332011
479019
1.04767e+06
959526
875679
272581
320672
176397
179508
1.21994e+06
921910
1.03648e+06
134879
171226
230029
523445
1.19073e+06
374496
78053.5
136904
1.8133e+06
1.7058e+06
200821
1.56332e+06
103915
139476
111373
578778
112583
192947
217723
1.05083e+06
1.15038e+06
1.25417e+06
1.3636e+06
599682
513102
427820
340667
164465
121517
333537
1.67275e+06
130635
128833
133058
130184
131940
137514
144330
1.29764e+06
658520
655378
383294
717194
784613
275133
928913
223321
190395
134787
1.79122e+06
126105
145248
138619
143100
125279
1.63148e+06
224471
224579
895302
278850
591472
216442
1.66288e+06
707921
347209
264792
1.11425e+06
386232
159124
136816
121350
121186
197142
220576
208522
148842
413553
145076
123541
673077
754003
112273
480486
686151
584444
788144
1.50091e+06
1.37865e+06
1.25984e+06
1.14533e+06
479620
582762
1.50743e+06
1.38431e+06
684270
1.26566e+06
787347
1.1496e+06
1.36078e+06
139924
122683
134168
199634
432613
970043
130252
357585
482715
388046
527100
165664
207967
349027
504806
1.09898e+06
1.00648e+06
918404
435224
326214
825878
174010
216046
146952
280565
259152
234658
467135
367686
377490
282275
123352
591736
166084
285895
354681
887579
472206
551637
461091
169454
215579
159176
141503
137663
154588
490987
418344
127962
179614
190300
382200
1.16603e+06
376053
521673
419102
142032
185177
173652
159350
214700
161711
514704
470980
428853
174643
1.31252e+06
574767
195204
800673
534886
1.12547e+06
1.57201e+06
193335
215752
180667
133202
135447
609548
519322
1.63217e+06
117098
160217
291726
422999
190030
130788
614893
607710
60138.4
124145
302331
245008
89007.8
1.41413e+06
1.56894e+06
248380
114625
231542
316596
672932
562134
615499
1.79549e+06
125499
483528
543598
145991
499355
609239
715836
821428
1.57214e+06
1.44403e+06
1.31971e+06
1.20036e+06
498759
607374
1.57737e+06
1.44872e+06
712685
1.32484e+06
819828
1.20384e+06
1.50982e+06
1.305e+06
985284
398062
454594
1.30228e+06
980653
280976
113872
109217
977930
1.70896e+06
131856
343899
1.43103e+06
973888
1.57283e+06
1.60108e+06
969403
974378
447498
357938
465282
222323
156482
252464
139807
163381
193060
168692
340693
1.65488e+06
465188
168601
105732
302658
325378
1.49679e+06
308622
278733
347017
368989
961460
441019
322440
1.2685e+06
345922
446210
168588
146285
317754
272150
295440
742481
466028
450967
1.10389e+06
1.05645e+06
445970
468681
838527
901429
336443
350057
125334
157609
164848
454948
353531
65672.6
144984
164298
542187
519011
275183
528467
410420
167954
107519
108729
445811
1.05296e+06
112159
1.56866e+06
224694
607926
556097
179047
221901
366650
134076
119948
1.31134e+06
322984
836652
768011
702242
261537
373382
144488
1.21417e+06
1.55412e+06
152537
132104
851812
306981
414235
716256
783757
864629
266658
377976
57440.7
638140
320030
1.54502e+06
280292
894481
718750
805020
130589
129439
128551
141665
137023
123920
1.29227e+06
389296
152338
179058
195050
219877
265937
295735
608565
591110
558993
540749
495896
511842
938637
146579
126433
125604
158291
186205
134293
146002
1.10873e+06
223132
407101
334929
868213
448430
162607
170488
370984
289404
507651
416797
1.04009e+06
904631
829302
757084
422301
1.20278e+06
578842
1.22859e+06
214755
181627
231767
229371
162293
153846
159618
1.23257e+06
1.64115e+06
280000
105900
209125
467401
360629
108325
136201
218871
205220
203859
192960
247324
233762
181046
396500
440526
429362
477500
361347
402526
464972
122586
968149
762146
409243
1.00895e+06
949195
552578
1.63794e+06
302243
286977
326424
352525
162441
140598
153214
312567
131120
1.34093e+06
186032
131253
644242
54836.4
110046
1.36284e+06
157560
336876
1.07655e+06
487765
986728
900701
1.22933e+06
818746
133354
493021
395176
180070
1.12984e+06
505016
189492
918782
834390
1.0049e+06
127450
129558
134512
1.97914e+06
235163
353485
429743
203047
127876
124186
345302
374619
155836
1.36637e+06
343887
1.3316e+06
205198
677895
125778
515955
618989
836982
332155
442502
531239
223924
1.89952e+06
145443
106439
126121
1.63414e+06
1.08525e+06
264190
382611
876544
807755
738198
1.68219e+06
493446
401489
1.71183e+06
1.92737e+06
1.31494e+06
86507.8
454267
1.09798e+06
814690
438103
329682
800988
714323
334493
1.11892e+06
270444
233294
413509
361637
281469
1.33587e+06
2.0117e+06
114152
127349
150445
1.93839e+06
139327
158091
572009
435263
1.72481e+06
1.80618e+06
128204
507711
184617
173698
419810
183609
113173
454230
117794
134371
2.01828e+06
855593
470069
354957
319514
233767
646671
594310
542338
187577
1.82571e+06
360856
323399
351790
1.53217e+06
613116
889281
128041
200335
150539
684584
398076
529831
115810
230776
311497
669523
236592
162648
141849
273772
1.70222e+06
239333
318999
662562
1.10321e+06
1.55804e+06
1.02562e+06
707362
535752
633875
73310.5
197424
264912
562382
515887
472094
1.55489e+06
127630
158866
170529
170121
170148
169265
236497
127392
126381
550948
1.38875e+06
378906
845351
774826
708376
265225
1.57267e+06
483907
548902
654647
563954
951731
1.53449e+06
469014
133075
619909
110650
695567
416209
761405
833062
300750
980826
243770
2.1119e+06
717360
127878
1.42431e+06
2.11566e+06
1.82176e+06
424788
126584
801182
146112
134196
110683
236185
134374
134454
120032
120600
1.2891e+06
1.35287e+06
125849
913047
153045
144041
125662
193134
889973
897421
211797
906034
910688
1.22245e+06
404283
156043
187034
251338
503127
548789
193354
51407.4
140991
629130
283191
680703
766344
840891
919060
468842
334234
257760
146453
129610
1.58179e+06
863516
122053
182760
755543
591627
317664
345386
170259
146165
271067
239259
108414
180300
132400
1.3214e+06
490059
1.20195e+06
122952
122205
2.11816e+06
125993
1.6385e+06
1.60914e+06
123883
735610
363566
1.30155e+06
136541
683696
812864
1.77499e+06
195187
130659
116258
401726
190673
252346
501904
457744
418427
131068
119660
147041
139407
871457
961320
658268
1.13226e+06
1.03503e+06
1.21079e+06
1.76713e+06
219144
563593
1.68326e+06
516157
1.60563e+06
727196
795719
869347
382947
265075
331142
395384
1.4938e+06
145089
161566
229584
217059
201204
158458
299930
275237
257903
650813
638860
1.9717e+06
211367
111998
157297
1.57691e+06
454012
238728
229558
1.54167e+06
754043
521059
99646.1
170332
115756
741189
947773
249366
1.10076e+06
156068
152121
2.0445e+06
1.34668e+06
1.64946e+06
308474
402581
717476
239643
554380
1.68392e+06
1.8153e+06
154422
177267
292738
242946
809030
902507
613432
691117
1.86251e+06
1.7473e+06
223288
156577
99774.9
1.23051e+06
112216
1.6207e+06
337845
242048
867677
273180
124269
1.52503e+06
179753
221518
102625
119617
1.14333e+06
374550
129594
608665
285763
164903
129250
121154
541601
121128
1.54051e+06
1.41445e+06
250724
662345
378812
126595
139399
1.20973e+06
151282
804277
207596
438037
887764
1.01779e+06
1.46752e+06
161901
261012
1.62515e+06
204558
137170
122641
146871
122782
1.68076e+06
1.28503e+06
288605
390019
692306
675996
909939
315718
427974
314691
451122
968213
887247
809628
1.29963e+06
593710
427174
1.29733e+06
430712
1.41076e+06
517418
552437
1.54012e+06
2.1182e+06
1.79612e+06
338069
359143
941898
436138
321293
122403
294944
1.49794e+06
133888
151574
1.87979e+06
1.40046e+06
1.64235e+06
714872
886775
896283
772298
114960
106518
161643
109246
561985
613460
670535
307704
220963
492223
1.66324e+06
132508
178082
149513
137683
808499
731345
166713
1.47379e+06
1.6815e+06
937531
762241
1.34458e+06
1.54869e+06
115222
744980
476498
1.01145e+06
140229
213504
228677
1.29403e+06
1.28917e+06
611042
295274
109563
128166
190459
397589
1.36821e+06
183848
1.03851e+06
130133
295885
209466
268945
465714
241748
379206
36764.6
10635.3
378069
1.97936e+06
169589
144501
150433
122170
116433
158840
166086
124167
129695
421464
122226
132343
158861
780410
965080
690596
1.3965e+06
1.75675e+06
131232
174649
310455
144440
1.22152e+06
189045
1.83308e+06
195221
249054
481761
351304
195490
198172
459911
121620
140193
168439
114442
160186
110664
1.59352e+06
101386
135739
231564
116752
90535.6
1.57039e+06
171200
1.35292e+06
1.42317e+06
520066
347857
265469
379372
858927
796951
728321
123248
963647
516001
122262
1.67542e+06
127790
132079
299252
914068
694555
773758
1.0967e+06
161779
129017
333103
488802
1.0784e+06
567317
1.17497e+06
411946
987503
901570
329031
1.17045e+06
404782
1.07023e+06
479275
981096
895531
556864
1.22946e+06
158146
484023
373809
131365
162617
1.35326e+06
801306
1.0897e+06
1.01226e+06
883639
1.09826e+06
805142
310080
340669
502925
1.22368e+06
133605
1.89195e+06
159388
131651
1.43335e+06
165988
255492
514945
519055
1.52187e+06
107387
945093
867885
792568
291761
422207
1.85982e+06
305320
238013
550837
153148
575566
265001
296203
114551
173891
183141
156479
432366
116932
537530
290055
222219
715845
955488
962566
715342
356656
1.74141e+06
127558
128100
1.56424e+06
1.42595e+06
860005
2.10365e+06
893096
767618
827647
1.87271e+06
884107
702249
1.66024e+06
360681
372820
528992
1.45468e+06
105711
1.26068e+06
150719
221389
325866
544101
594950
649224
315694
230594
390516
71306.8
75740.6
132326
136530
185338
152215
127067
176505
905376
1.69863e+06
199950
157465
1.56707e+06
1.09238e+06
428081
576735
130751
137751
1.35432e+06
904439
202679
705919
660419
901718
117896
130626
142137
123163
1.04094e+06
1.71032e+06
1.68535e+06
1.1368e+06
1.83247e+06
229528
113888
287786
866740
791643
946058
427470
293867
1.88292e+06
404178
504285
659718
220739
193697
794020
286674
147081
593390
226328
286829
1.76928e+06
295669
262927
919219
844930
772056
389131
1.19858e+06
1.12463e+06
1.47009e+06
459407
477976
587347
1.242e+06
573431
414156
1.10305e+06
213928
2.11204e+06
147728
1.61422e+06
424126
486776
117158
515105
978975
129572
150280
144311
1.86734e+06
525058
477910
569589
279915
206358
270237
504732
1.2254e+06
509960
999190
1.1922e+06
1.09438e+06
343816
1.10038e+06
830747
881520
1.04357e+06
1.09971e+06
831254
889967
1.05282e+06
610499
528728
41574.5
257161
161414
352586
515425
431766
596516
1.22391e+06
1.1249e+06
1.02985e+06
940020
348157
982114
474083
146533
103367
109856
183931
99962
413427
967294
993599
358952
1.68493e+06
150817
132438
1.32238e+06
1.64536e+06
94695.2
1.0285e+06
404581
543312
757247
452994
274256
134097
403793
605535
65974.7
129105
1.70927e+06
227297
176838
407415
372824
442911
292919
128253
132357
300922
1.04478e+06
1.63703e+06
1.8958e+06
281753
312369
1.32264e+06
1.1924e+06
1.56337e+06
113336
889457
1.51884e+06
1.9053e+06
1.96841e+06
1.90554e+06
476710
836532
358422
1.77391e+06
1.31416e+06
533396
1.15601e+06
136230
127355
1.37569e+06
1.37765e+06
127728
377253
1.74325e+06
1.44762e+06
1.37055e+06
1.41808e+06
1.97614e+06
1.33558e+06
1.69293e+06
1.48094e+06
138658
235096
1.07671e+06
545290
891523
189926
128527
162624
150495
145020
181555
162278
361543
1.69351e+06
1.02829e+06
354192
485438
1.10421e+06
153603
514209
366082
2.02596e+06
273313
261932
500599
277523
461590
202447
164814
1.64808e+06
13508.8
132210
131778
27194.1
386712
441314
159154
174214
186777
135278
481119
453265
123108
1.73798e+06
1.49108e+06
507900
1.09758e+06
368255
122245
1.28171e+06
283370
1.73065e+06
459593
561403
660339
759926
1.4672e+06
1.34928e+06
1.23302e+06
1.12323e+06
458878
558617
1.47137e+06
1.35216e+06
656810
1.23644e+06
757000
1.12485e+06
255090
200210
485329
514020
450663
217781
183909
160398
133694
126753
136825
122118
125038
208264
798253
858074
740505
415914
807535
890121
1.41626e+06
586943
471904
1.54828e+06
518209
178384
109255
153665
133404
244916
222799
227206
134255
338071
263803
324206
657132
133398
181365
824137
139652
109793
132591
112946
1.18931e+06
153009
187636
547885
437180
231271
551353
195408
116836
106739
1.84521e+06
1.87744e+06
1.08953e+06
889154
865276
1.10607e+06
1.82389e+06
934959
125231
602587
329395
255937
365631
180026
1.76653e+06
190768
1.0017e+06
921009
841343
440957
302594
529208
304815
235990
1.78593e+06
203502
125262
586436
584696
259113
169828
201581
333691
699959
1.3221e+06
533958
423571
845551
1.06721e+06
285077
409533
904030
828407
756719
424893
458873
763326
607939
857942
456841
946776
1.0364e+06
302515
1.13023e+06
2.07984e+06
1.47664e+06
112909
673620
737828
806062
255009
180083
1.25535e+06
215383
282264
359374
389083
166620
211422
177439
142449
1.15396e+06
880035
925018
1.10868e+06
273754
1.48229e+06
1.83777e+06
676757
125918
662005
723876
791239
759541
897324
247777
1.42569e+06
625473
560606
510828
610092
224870
306571
182992
172485
383606
456472
418041
478020
522853
570987
346015
342471
487550
490327
1.00373e+06
998018
837431
918112
832494
912865
500578
547023
202860
135138
149620
170610
1.04699e+06
634376
129969
1.00859e+06
834865
797589
1.03771e+06
176706
366897
1.32242e+06
550190
1.21249e+06
1.10731e+06
101272
221032
924961
530776
379888
1.22051e+06
439315
69715.5
917214
838073
1.00191e+06
445356
304830
1.28072e+06
473709
384430
1.68052e+06
475329
668326
165616
133800
282852
263221
239891
1.42497e+06
346776
246446
398408
364573
430819
217378
171013
952736
1.07651e+06
177169
602380
134190
830904
1.65771e+06
1.04993e+06
486539
368069
884956
445210
399369
329356
219914
144996
341822
170703
405397
168985
291986
129425
139116
1.74543e+06
339177
1.44337e+06
805982
872860
470096
355245
853655
1.58832e+06
110486
134308
139419
129865
316035
30523.7
10109.7
315081
653440
126113
678526
299512
223548
146087
444654
618189
1.31835e+06
121109
101393
148510
167584
359164
229572
875702
778627
199857
134166
114727
1.76189e+06
654237
121390
260985
130813
2.02564e+06
1.61208e+06
261058
190570
682487
333621
467874
930314
775614
850848
1.86466e+06
1.47901e+06
133934
1.40266e+06
1.91464e+06
1.4735e+06
1.62922e+06
718659
154443
981108
230972
150590
180147
348750
370795
276518
272575
628565
208192
148387
117634
924386
1.09116e+06
1.19455e+06
1.30254e+06
1.40392e+06
612668
525149
435057
345365
219602
115268
443455
20669.9
218909
218237
11243.2
469159
235374
186049
89276.3
291143
332168
130220
313300
951062
687428
475202
339144
387366
1.72311e+06
1.32902e+06
173515
567257
128585
135954
468146
552535
591953
1.18742e+06
331201
364171
133290
1.55683e+06
138614
268779
315527
293547
1.09365e+06
1.19655e+06
615490
696423
694352
466247
602663
1.15663e+06
1.10051e+06
1.09193e+06
369416
507889
104056
118100
108328
233447
116826
516166
1.03388e+06
919143
1.1269e+06
820161
1.1375e+06
818947
560618
393255
992917
726429
996593
728856
249216
1.12443e+06
919955
805162
1.04908e+06
929241
1.14629e+06
832154
1.14871e+06
831167
1.07013e+06
2.02556e+06
421007
588627
1.27131e+06
476250
124056
137321
203422
20090.9
202789
17790.5
126625
358976
1.10697e+06
1.01106e+06
1.20884e+06
531217
369864
1.77551e+06
68886.8
122779
237535
794529
248156
685262
334420
1.81727e+06
1.83351e+06
1.11435e+06
133567
253259
1.21502e+06
627510
503809
361439
627562
572418
683269
242900
334026
1.88072e+06
441399
1.66685e+06
126580
126606
126238
126453
91472.3
1.64348e+06
137411
1.19313e+06
90024.4
869007
1.13845e+06
135004
132497
175094
499059
184631
413125
378149
280373
304205
331093
149187
297491
400725
494503
335658
1.14007e+06
1.0471e+06
956168
1.22937e+06
1.6485e+06
1.82153e+06
116131
115981
119374
126343
235072
140679
251387
1.82025e+06
1.86379e+06
1.82662e+06
1.43479e+06
56521.4
1.00588e+06
1.68217e+06
1.1027e+06
865462
886324
1.08886e+06
554026
508744
987728
632527
1.19459e+06
98647.2
216247
267421
517413
212973
208528
239772
166316
192332
141350
164303
357089
362149
394170
389789
424738
428048
502555
499579
130698
130570
459130
303644
106769
179061
728594
1.19839e+06
131383
698065
1.51252e+06
457618
1.43157e+06
639902
188920
1.36908e+06
691224
581214
919975
1.60814e+06
1.96631e+06
775659
313890
1.6616e+06
234052
175947
152667
379401
89610.2
703916
1.21241e+06
305120
469681
193383
129744
203998
1.78428e+06
307515
355343
343413
258958
743396
233157
187598
751886
165015
1.59119e+06
136255
939277
340070
368503
1.46978e+06
1.21929e+06
731411
1.33577e+06
1.45832e+06
627310
1.58346e+06
526292
420972
1.216e+06
1.33129e+06
1.5818e+06
1.45382e+06
422401
630810
734742
528084
1.65173e+06
167581
1.29679e+06
145224
112206
130814
7438.7
56603.9
699138
78651.3
1.24795e+06
249153
192131
464771
503679
425475
380978
237398
1.05338e+06
236092
252136
968673
96952.9
369859
341038
338171
1.06422e+06
972270
1.1618e+06
504006
455168
189670
318273
606478
1.2444e+06
72951.7
306381
187605
125474
411684
1.33014e+06
730673
633820
1.3933e+06
170491
751266
1.61822e+06
810817
1.49361e+06
141630
1.6729e+06
204749
1.12468e+06
391011
482677
129632
13071.8
131342
130885
22386.5
214856
1.17147e+06
164324
1.39031e+06
645076
228508
1.0524e+06
1.01027e+06
1.15413e+06
1.10807e+06
1.26077e+06
1.21086e+06
577878
558718
397741
385532
440048
300668
1.00684e+06
926090
845574
270637
319529
293634
153883
932537
810517
92603.8
167981
129099
147661
154609
1.64929e+06
1.35905e+06
346550
1.13582e+06
1.03814e+06
1.23784e+06
119558
622847
1.11058e+06
1.14355e+06
133021
125161
1.34261e+06
437856
154387
236130
276501
256306
156312
448236
411643
379514
1.4958e+06
2.02173e+06
1.46952e+06
1.02302e+06
492698
357487
160269
174309
253187
185523
131020
120316
190981
539517
428227
125035
1.23383e+06
1.41798e+06
558763
506407
155033
152315
137573
142124
397917
1.33903e+06
989863
758082
782393
932858
125462
131815
198508
123215
122577
249584
2.09333e+06
1.65824e+06
129938
163400
669491
578296
405146
1.26187e+06
1.37064e+06
1.05376e+06
1.15455e+06
720159
361345
307354
334817
165194
198474
1.52411e+06
391371
961381
80764.1
1.42154e+06
133387
531551
614308
2.08743e+06
123937
546060
144262
511423
149813
325375
1.00901e+06
448734
1.13396e+06
730808
1.24464e+06
1.36038e+06
633897
1.48054e+06
534966
437895
537829
438385
211144
633920
717495
934740
125806
201614
1.19172e+06
523548
1.90401e+06
1.55956e+06
1.74745e+06
319799
1.3492e+06
646636
483690
235737
182231
1.83631e+06
967577
120034
2.01065e+06
1.67141e+06
59100.9
563620
462817
74970.8
801686
620723
107428
157243
1.32802e+06
1.93074e+06
129566
649827
667057
1.36882e+06
1.3256e+06
474727
486704
476191
489246
130330
131977
131465
124482
96296.7
2.01213e+06
1.53619e+06
1.4071e+06
1.77345e+06
658251
344314
1.40751e+06
771522
845953
924388
76840.5
1.48103e+06
252966
1.1012e+06
1.59755e+06
468372
322852
2.01398e+06
514351
540157
380694
402259
1.04025e+06
1.00623e+06
188381
187373
106068
126460
337704
1.22593e+06
1.12419e+06
1.02653e+06
506760
2.00595e+06
131814
234173
113691
1.01337e+06
1.11095e+06
641284
1.213e+06
549180
1.33035e+06
466106
1.24762e+06
1.0419e+06
1.14171e+06
1.35595e+06
375861
661688
571316
470010
124797
166776
174991
218349
400120
335684
366665
1.62404e+06
726548
886656
1.51889e+06
183363
266501
125787
421915
582435
204356
279359
1.55317e+06
165970
122739
128176
130402
123514
85387.8
195899
145556
157618
1.30778e+06
1.5531e+06
143120
123441
152947
265409
568095
1.69607e+06
1.57653e+06
718724
133656
168594
1.32955e+06
132255
134568
2.05729e+06
778818
1.53537e+06
416278
1.03421e+06
634297
634105
183384
753748
1.07968e+06
511367
369608
154311
347379
127075
91362.1
114642
1.67243e+06
934295
950720
1.60833e+06
255648
274770
148891
513072
135649
126765
140035
315747
261385
26555.4
260609
18212.3
127702
1.02377e+06
300144
430513
917568
840666
766927
162042
1.87146e+06
632136
348258
1.58614e+06
919561
960357
167874
16452.8
167328
17341.4
1.41658e+06
369208
572397
684719
629215
136804
1.55775e+06
346171
252244
791657
607244
122565
35483.6
1.12969e+06
230838
1.13772e+06
279409
367286
685227
751517
629112
144540
565838
234132
295747
151291
162691
540471
562659
188371
332579
125974
127156
891885
440783
325961
138283
492010
12720.5
47563.7
490545
582312
471092
694432
825080
107004
1.88153e+06
1.96716e+06
240650
129363
139865
204447
227318
23453.2
226646
20245.9
962746
325759
449653
1.83304e+06
1.8592e+06
1.55016e+06
1.43519e+06
811834
718886
687252
611119
1.55643e+06
220567
432877
162750
112190
125021
307058
426998
609047
1.76153e+06
1.78278e+06
223663
115744
572934
625700
215681
956037
386690
320226
1.44708e+06
148210
140484
182094
912946
915298
973406
617030
312107
433278
91728.5
90632.9
1.09471e+06
119275
958180
123441
461405
748774
656324
1.12422e+06
1.31463e+06
131953
162840
353910
1.55658e+06
7734.45
95992.4
28467
96272.8
252082
235578
90231.1
1.73974e+06
31073.9
1.65163e+06
430119
41573.2
13421.4
428836
271438
139733
16054.4
139377
345218
1.50995e+06
345915
1.71699e+06
1.9511e+06
57295.2
538150
643185
591058
775719
367520
269472
843130
552336
96499.5
208453
320420
233410
566275
753873
215552
216340
1.8785e+06
647492
750416
703148
810798
1.19482e+06
121884
120342
999786
1.22505e+06
424038
224631
257599
139948
277063
390291
135295
211289
299564
132060
92038.2
1.09034e+06
1.27941e+06
240686
523609
409818
420335
1.32115e+06
587280
258026
205992
513206
440914
113957
302370
1.2281e+06
1.54866e+06
399277
281606
699975
837449
767452
86931.8
124424
292856
213514
1.16021e+06
420862
101543
48872.2
70803.3
390935
278081
677030
809632
742378
130576
1.69049e+06
1.92409e+06
143136
135455
127996
124097
1.67805e+06
323237
245212
702560
2.07709e+06
1.67895e+06
455517
170136
427706
392366
244355
226817
261415
149921
137448
136384
347448
1.64752e+06
110094
863724
935584
1.51679e+06
1.08944e+06
1.06304e+06
402051
396082
536712
545317
265575
282878
247903
122275
124449
632551
209359
1.52141e+06
1.03793e+06
259895
122712
664009
1.95712e+06
120520
990463
823072
778772
1.023e+06
725108
307486
421338
957681
174720
699493
300496
334083
177582
380959
214512
276928
762260
374129
168675
147371
190321
955056
784448
182351
173379
166867
188461
128376
508949
390576
119519
371288
132997
215449
343430
1.78746e+06
1.57429e+06
1.07844e+06
300709
220282
672371
618367
565478
275032
278781
131437
970552
139630
516974
679422
207509
198921
1.60186e+06
96245.7
305430
284105
144418
1.67801e+06
92858.6
130338
450821
532971
170597
160778
180273
132510
130872
1.07348e+06
110048
132092
16390.6
131714
1.07034e+06
1.00361e+06
1.89632e+06
1.16766e+06
1.45206e+06
134149
1.50426e+06
1.01002e+06
14828.4
107614
246308
192275
417083
454294
493180
652592
358350
1.5082e+06
861700
940829
157983
111295
107514
124643
139063
140937
208547
888706
107889
1.89964e+06
471401
185779
970344
622843
319526
442509
210431
181634
256884
392993
250683
523091
481583
189589
133249
650266
948063
91876.8
97512.3
174799
104681
111984
1.45532e+06
365028
273308
796006
1.39667e+06
383368
267361
654223
561502
610712
513047
299865
220147
132018
8722.24
69017.6
627701
517790
733994
1.55466e+06
1.30414e+06
1.42699e+06
517649
625007
1.56206e+06
1.43266e+06
732251
1.30962e+06
181855
347672
289134
294743
121956
199495
175133
516393
246622
196118
231501
406881
1.14254e+06
555824
132789
205076
121998
134890
220520
338548
123068
122637
121676
833746
304861
402349
274936
356679
742468
631005
754014
604579
1.0477e+06
312863
182384
264743
651962
491426
236418
319131
453616
132593
267301
160853
157388
526708
527893
192163
669494
205910
218612
1.20444e+06
1.00788e+06
120899
141547
1.6152e+06
102922
170596
107834
202666
249187
807801
738323
670673
439446
443704
804266
187499
137065
128494
1.08127e+06
205088
191421
192146
183284
177844
174872
102037
160476
1.27232e+06
1.27316e+06
387350
304948
132460
865661
739482
309521
428645
612101
123822
91155.8
136481
1.62842e+06
615271
739697
63490.7
524867
202856
83292
197282
213996
188574
511956
129309
312447
242791
135658
2.00638e+06
330290
961570
271635
1.53828e+06
665554
778778
408166
296742
927806
109633
138131
168110
360012
437891
287636
200244
119483
85807.4
727996
313287
233987
111182
118331
123048
128619
315469
264309
291826
68524.9
150729
1.44842e+06
136303
1.98177e+06
447731
167961
719215
149342
110074
529416
195475
193559
890271
115365
611649
1.25601e+06
1.14778e+06
1.36464e+06
102766
186076
402697
1.20611e+06
1.14119e+06
320044
134094
342726
347056
498717
581650
1.08101e+06
498017
569468
1.18393e+06
1.06778e+06
1.15124e+06
903256
989806
891945
977442
1.44491e+06
287405
231174
1.65728e+06
111153
157148
596380
1.37868e+06
442270
243689
192745
116182
106516
136258
154325
114149
1.10092e+06
279453