/*--------------------------------*- C++ -*----------------------------------*\
| =========                 |                                                 |
| \\      /  F ield         | OpenFOAM: The Open Source CFD Toolbox           |
|  \\    /   O peration     | Version:  2.3.1                                 |
|   \\  /    A nd           | Web:      www.OpenFOAM.org                      |
|    \\/     M anipulation  |                                                 |
\*---------------------------------------------------------------------------*/
FoamFile
{
    version     2.0;
    format      ascii;
    class       volSymmTensorField;
    location    "140";
    object      sigma;
}
// * * * * * * * * * * * * * * * * * * * * * * * * * * * * * * * * * * * * * //

dimensions      [1 -1 -2 0 0 0 0];

internalField   nonuniform List<symmTensor> 
11800
(
(13559.9 41473.9 5.21065e-15 -1769.24 2.87286e-15 2925.49)
(-11454.9 45113.8 8.01558e-15 -5412.73 2.66627e-15 -4185.21)
(15355.5 27788.3 -1.91472e-17 526.043 -6.43642e-15 3940.53)
(-28721.6 30760 0 5972.81 0 -5644.43)
(-10902 43124.5 1.50047e-15 -9654 -4.4007e-15 -5100.36)
(-20502.1 36076.4 5.90251e-15 3987.88 3.20581e-15 -4097.51)
(-2697.19 43410.6 1.07484e-14 -926.173 -2.90928e-15 -899.029)
(-2010.59 35689.4 -1.60198e-15 1966.88 6.73309e-15 -10.8468)
(5653.29 45712.9 3.37332e-15 313.028 -2.4585e-15 1480.36)
(2686.44 30030.9 -5.98253e-15 2568.58 -5.19737e-15 1303.88)
(16633.1 41049.8 -4.33941e-15 -2425.31 3.86438e-15 3525.23)
(-34536.8 26983.9 -5.49406e-15 -1114.74 -2.58899e-15 -8845.88)
(4104.72 -6059.48 2.24141e-17 -11153.1 1.73482e-17 -1748.84)
(15159 27692.7 5.1178e-15 1121.83 -1.47407e-15 4039.59)
(-25035.9 33160.3 -3.99973e-15 6940.35 3.23375e-15 -4489.87)
(170258 19504.2 0 1797.91 0 42690.5)
(-1788.99 42712.7 3.63478e-15 -1197.22 3.38041e-16 -740.938)
(-1527.61 34990.7 -2.04851e-15 -645.396 1.23393e-14 -539.166)
(728.751 50634.7 -3.3082e-15 -2566.39 2.49625e-15 -455.955)
(1504.98 28385.8 -7.97543e-15 2606.83 -2.6432e-15 1020.23)
(-25753.5 33127.9 2.37971e-15 4678.84 2.57893e-15 -5229.05)
(-29162.9 30445.6 3.87543e-15 -936.034 -2.3239e-15 -7468.15)
(-113675 60644.1 -3.68313e-15 2304.87 2.64599e-15 -27633.3)
(-104371 53884.2 5.33888e-17 795.525 7.26128e-16 -25699.2)
(121268 33250.5 3.90457e-17 -841.2 4.84722e-15 29880.2)
(-114687 55212.8 -3.47613e-15 -62.3901 -1.7158e-16 -28471.6)
(-35085 24646.6 0 -647.316 0 -8865.92)
(44770.3 28558.1 -6.11212e-15 -5487.63 -3.8159e-15 9746.82)
(-45953.6 27265.4 -1.69956e-15 1042.03 -6.93184e-15 -11143.5)
(-63333.1 30971.5 1.86609e-15 -2016.28 -3.24268e-15 -16214.5)
(39151.3 34107.5 -7.67364e-15 -356.977 -1.41324e-14 9625.66)
(2865.67 62934.8 -2.44941e-15 329.753 -2.36498e-15 792.85)
(95565.6 49348.9 -4.34099e-16 517.621 -2.56441e-15 23840.2)
(-7841.77 48378.3 1.01903e-15 1665.59 -7.83459e-15 -1532.44)
(2894.7 47408.2 -2.64245e-15 6145.83 -1.18596e-14 2243.14)
(-39647.4 30521.6 -6.89901e-15 9565.09 -5.154e-15 -7464.03)
(1406.95 46001 9.41884e-15 4000.09 -1.1694e-14 1341.6)
(102502 47506.8 -1.56861e-15 -452.411 -9.17309e-15 25320.6)
(-3806.81 44899.8 0 -6311.11 0 -2510.46)
(2303.71 31780.6 -3.42025e-15 -53.9011 6.56589e-15 558.223)
(-37916.4 25651.6 -7.00347e-15 833.929 -3.38898e-15 -9200.91)
(-48805.1 28480.9 5.20093e-15 1769.09 -3.09834e-15 -11670.6)
(45266.9 32183.3 -2.3555e-15 -5975.53 -8.09437e-15 9748.98)
(-67364.1 33004.7 -1.43729e-15 -3928.87 -6.23966e-15 -17689.2)
(40196.2 36612 2.0145e-14 3254.25 -6.52706e-15 10780.9)
(153390 26149.7 0 -1586.23 0 37665.5)
(92580.9 59734.9 -2.37043e-15 -1912.09 1.3876e-15 22496.8)
(115736 51263.6 -3.98163e-15 -1278.04 -3.09677e-15 28399.2)
(-5307.65 44505.5 -7.9473e-15 -4191.95 -5.12886e-15 -2357.05)
(10066.6 31160.4 0 709.414 0 2673.75)
(-45332.5 21534.6 -3.54972e-16 2298.1 4.22244e-15 -10677.7)
(-38104.4 25923.5 1.34983e-14 7095.17 1.59756e-15 -7694.01)
(-223.52 49443.3 7.53071e-15 -2777.16 4.92317e-15 -744.529)
(-1279.53 71760.1 -3.60685e-16 782.384 3.37704e-15 -123.353)
(-173452 10733 -7.25291e-16 -1265.86 -7.39336e-16 -43351.1)
(290081 26678.5 6.65117e-16 -14124.2 1.75332e-15 68470.4)
(-10030.5 27768.1 6.64894e-15 1651.97 2.532e-15 -2078.88)
(-19363.7 31478.6 4.7423e-16 497.66 -4.54829e-15 -4681.05)
(22161.8 33392.8 -4.21052e-15 622.258 6.36064e-15 5653.19)
(-19494.1 27098 3.71064e-15 -3412.57 -6.74727e-16 -5683.62)
(255246 39729.2 -6.39156e-15 -1417.95 -2.2608e-15 62980)
(-2390.74 49928.4 3.17924e-15 -138.096 -5.42989e-15 -627.457)
(-16641.1 30629.6 -1.98159e-15 -2438.34 3.57508e-15 -4734)
(16925.3 34636.3 5.71181e-15 -2088.56 -3.37655e-15 3681.29)
(125396 30965.7 8.01249e-16 2849.07 -3.5425e-15 31820.3)
(-23480.4 34222.5 -9.23413e-15 3261.73 -1.15564e-14 -5016.67)
(-49452.3 20521.8 6.46124e-15 -1118.08 2.22224e-15 -12547.5)
(-42395.7 22907.5 1.72937e-16 4372.6 -1.16274e-14 -9434.32)
(-9561.45 29997.2 0 -670.599 0 -2538.78)
(-107132 48822.3 3.70429e-17 -62.4331 9.85462e-15 -26597.1)
(-8858.91 49267.7 -1.8461e-15 1084.07 3.96809e-15 -1929.09)
(-7060 43599 -7.12893e-15 -2848.91 8.29712e-15 -2458.6)
(-7189.85 41553.7 5.00276e-15 -6491.16 -3.17207e-15 -3394.54)
(-273250 115130 -1.00915e-15 66584.6 1.21139e-15 -51277.8)
(245696 42644.9 -5.97111e-18 -2482.23 -2.91671e-15 60346.2)
(-37935.6 33910.2 -6.76255e-15 10770.3 -5.06757e-15 -6740.25)
(110402 25878.8 -4.24414e-15 1545.98 3.79911e-15 27776.6)
(-24524.6 29985.5 6.15632e-15 2269.93 -2.06686e-14 -5521.85)
(-18887.4 41174.6 1.13771e-15 7926.76 -1.13203e-15 -2719.55)
(-22471.3 42955.2 1.15093e-14 5320.24 1.20485e-14 -4255.53)
(-184322 10815.3 2.26481e-15 -2265.22 7.76064e-15 -46296.1)
(4615.64 32272.6 0 1737.04 0 1576.23)
(7529.96 41397 -1.20737e-14 -1627.41 -4.95636e-15 1464.54)
(4482.68 43781.6 4.18002e-15 4091.68 -4.04114e-17 2127.47)
(-2540.01 33586.9 2.97352e-15 -784.572 8.69473e-15 -824.896)
(-58221.5 36930.3 -1.65994e-15 -1083.17 1.15946e-14 -14714.7)
(34492 38244.4 9.6299e-15 -59.8288 -3.11067e-15 8543.32)
(-43454 28327.3 0 1153.32 0 -10495.7)
(-37881.3 26992.1 -4.05998e-15 543.978 -4.18231e-15 -9264.16)
(39884.3 33625.7 4.40183e-15 765.47 2.73e-16 10086)
(-1712.62 46581.9 -1.55621e-14 -1036.95 -1.04387e-14 -682.224)
(115172 47729.8 0 -639.991 0 28417.7)
(-10979.6 43459.9 -3.30632e-15 1804.84 -5.72192e-15 -2276.45)
(18100.2 28320.9 -1.97223e-15 1678.85 -2.92616e-15 4907.57)
(10566 30391.3 1.48137e-14 -1636.44 2.80158e-16 2215.6)
(9557.82 -7275.68 -1.43186e-16 -20344.5 -1.05823e-16 -2676.4)
(-502.497 1926.71 3.64507e-18 1153.97 -2.14773e-17 161.645)
(-9460.04 -7073.31 -8.88483e-17 19852.2 5.89861e-17 2578.49)
(-1622.14 47677.2 -4.85102e-15 -3132.66 -7.98176e-17 -1179.76)
(-28511.1 27062 -1.18257e-15 -1066.97 5.14952e-15 -7338.91)
(10752.3 35640.4 2.6971e-15 -863.967 -7.87043e-15 2453.49)
(32585.2 30718.5 -5.83136e-15 -1446.16 -8.48252e-15 7726.22)
(-102537 45275.2 7.288e-16 3185.99 1.4507e-15 -24650.9)
(-45306.8 54727.3 -4.12003e-16 1405.93 1.45765e-15 -10892.7)
(4619.33 47362.8 -7.60281e-16 202.903 -3.91436e-15 1196.49)
(14333.3 48076 -2.31766e-15 1109.88 -4.35986e-15 3831.77)
(-4832.42 34484.7 -4.54906e-15 2487.37 1.04675e-14 -581.856)
(-4767.79 41951.9 -1.53689e-14 -492.939 -7.73781e-15 -1305.29)
(212930 32841.5 1.506e-15 -282.716 3.99072e-15 52762.2)
(28619.3 30580.5 1.79191e-15 -1049.61 3.50891e-16 6840.61)
(44654.3 35028.8 3.48419e-15 -410.268 5.43194e-15 10977.8)
(27196.1 26559.3 1.14584e-14 1390.07 7.00147e-15 7092.81)
(-35777.1 37846.2 4.52931e-15 -4737.66 7.36778e-15 -10052.5)
(-41888.2 32527.9 -1.19134e-14 -2457.15 4.41405e-15 -11003)
(2820.32 27462 5.54543e-15 359.344 -3.00063e-15 788.939)
(195074 42633.2 2.58175e-15 113.282 1.66093e-15 48429.9)
(30809.9 27006.5 -3.86967e-15 -3928.51 -1.52993e-14 6669.82)
(-4785.5 45856.5 -1.29796e-14 2576.11 1.26834e-14 -548.195)
(181975 45610.3 -3.40198e-15 -1035.33 4.35687e-15 44894.7)
(-4937.75 30848.5 -4.50011e-15 1755.4 -1.24885e-15 -789.605)
(-22855.6 44967.2 -4.47972e-15 -1289.53 -2.02445e-15 -5990.9)
(6064.95 43791.4 9.13884e-15 -4213.57 -1.3658e-14 459.365)
(5959.95 34767.8 -6.43886e-15 160.691 4.58188e-15 1518.66)
(525.4 38610.8 -1.8757e-15 -5445.29 -2.86788e-15 -1220.72)
(-10275.6 42251.3 -1.18025e-14 3091.26 -9.57739e-15 -1782.58)
(-1320.49 48732.7 -1.13074e-14 -2542.09 -8.92215e-15 -958.384)
(-6843.01 47274.6 -6.82728e-15 -8767.26 7.81349e-15 -3873.22)
(1763.47 44880.5 -4.47236e-15 -134.531 -4.43947e-15 404.173)
(2886.39 41982.2 2.30651e-16 17502.1 1.02535e-14 5058.79)
(-15811.6 20810.2 -1.22048e-16 -3523.68 5.09883e-15 -4797.47)
(-361790 -44565.2 3.33816e-15 20025.6 -1.93369e-15 -84798.8)
(-163130 44632.7 1.94177e-15 -311.6 -2.81846e-16 -40553.2)
(41052.3 33705.9 5.08295e-15 5096.96 -5.14947e-15 11450.6)
(-54053.5 33060.4 -5.20615e-15 4419.43 3.42167e-15 -12315.2)
(42582.8 28580.5 -2.3256e-15 6549.1 7.18683e-15 12190.6)
(-36733.6 24703.3 1.95823e-15 4945.74 1.95874e-15 -7887.22)
(-33738.7 22704.1 -9.78048e-15 4396.11 7.75849e-15 -7280.48)
(33640.9 38048.5 5.00232e-15 3404.7 1.4397e-14 9191.76)
(-48401.4 33849.8 6.89618e-15 3625.91 -1.04095e-14 -11109.7)
(36419.6 32414.4 6.20001e-15 5492.3 -5.11365e-15 10399.2)
(-34525.8 25617.6 5.20311e-15 2516.26 -9.80532e-15 -7942.21)
(-31653 23848.9 -5.47479e-15 3056.23 -4.99824e-15 -7095.43)
(-43715.5 47395.6 6.28478e-16 -932.259 5.86213e-15 -11078)
(10754.6 43321.8 -2.45915e-15 -4740.95 -1.71189e-14 1492.1)
(11914.1 34303.5 -3.93712e-15 -1629.92 -1.18736e-14 2551.71)
(-9717.14 27414.9 -1.21019e-15 897.009 7.58957e-15 -2188.45)
(48611.8 21500.5 -8.01448e-15 -51.9176 -2.70949e-15 12048.7)
(-62771.8 16901.2 7.85434e-15 -1981.79 2.54518e-15 -16066.7)
(32435.6 29534.7 5.39078e-15 -3275.17 -5.14569e-15 7235.3)
(-44665.7 50548.9 2.11172e-16 1011.57 1.30808e-15 -10831.5)
(-21713.8 42580.6 -6.43909e-15 4714.84 -5.54028e-15 -4217.8)
(-22363 42794.4 5.54718e-15 2772.17 -5.22873e-15 -4860.88)
(-77.4393 45982.6 4.23054e-15 2923.12 8.0731e-15 706.072)
(-30589.2 36697.8 -9.50501e-15 5079.03 1.02035e-14 -6329.58)
(14158.8 35738.9 -4.91008e-15 -3950.48 -5.39872e-15 2532.9)
(6700.52 48300.7 -4.49449e-15 -985.065 3.63325e-15 1418.12)
(-37739.2 33886.5 7.68196e-15 3970.21 -5.36098e-15 -8378.77)
(-40877.2 31544.9 2.86698e-15 -51.5098 6.39293e-15 -10155.2)
(74206.1 33552.2 2.63018e-15 17.7423 -9.3604e-17 18416.4)
(1266.64 48220.2 2.20178e-15 1996.83 -1.12368e-14 809.732)
(235551 36818 -3.99867e-15 -4486.42 -2.28255e-15 57331.9)
(-25409.9 39365.6 -8.18867e-15 2733.29 5.86444e-15 -5626.52)
(104448 25936.5 0 -3701.66 0 24997.2)
(-21258.5 30869.5 2.93313e-15 3265.43 1.20329e-14 -4464.44)
(-23448.7 33697.5 -3.00376e-15 2569.86 3.77293e-15 -5180.47)
(-31945 41375.8 -2.70649e-16 2144.04 1.51077e-14 -7394.21)
(15309.2 37084.2 -6.00964e-15 -332.069 1.54107e-15 3716.13)
(9501.07 45770.5 -6.39072e-15 -1955.07 1.65131e-15 1872.31)
(-309099 20444 3.36891e-15 -3804.38 -2.02511e-15 -77637.7)
(-88806.9 38190 -2.28653e-15 531.629 4.9554e-15 -21902.9)
(35758.9 37317.2 -6.42372e-15 2662.41 -3.90203e-15 9533.1)
(34586.9 29634.7 1.83111e-14 -887.063 -1.0167e-14 8361.61)
(12150.2 42767.2 3.4798e-15 -3482.56 -9.46152e-15 2150.62)
(-39017.1 27032.5 0 2170.11 0 -9142.48)
(-44914.6 25137.5 9.84513e-15 5431.05 -5.15964e-15 -9796.68)
(140257 24715.9 4.28743e-15 -2642.27 2.99369e-15 34144.9)
(150622 20142.7 3.45469e-15 2476.51 3.31741e-15 37986.9)
(28299.4 30046.6 -9.33685e-17 1314.42 6.11293e-15 7347.79)
(25752.2 25621.5 6.30949e-16 3141.81 1.35962e-14 7169.2)
(43849.7 33543.4 3.5485e-15 879.9 -5.08314e-15 11098.3)
(-33967.5 32221 -5.82758e-15 965.135 5.42308e-15 -8188.56)
(-28420.2 39246.8 -5.70857e-15 -1351.18 6.49783e-15 -7386.89)
(14415.8 36783.4 0 726.748 0 3757.17)
(5084.7 47786.5 -2.60194e-16 1098.04 9.35321e-15 1534.06)
(20287.9 30800.3 -7.37459e-15 -1208.99 6.21056e-15 4733.87)
(-8454.47 29444.4 -5.85705e-15 -1660.38 1.44986e-14 -2509.7)
(-28580.7 49093 -1.69117e-15 -805.904 8.22643e-15 -7291.42)
(9106.14 44834.9 -2.03892e-14 -840.763 -5.67252e-15 2050.81)
(10301.1 35165.2 -1.42178e-14 1124.82 6.18216e-15 2835)
(-14100 43352.9 -2.7817e-15 1101.25 -3.66264e-17 -3225.25)
(-19566 40772.2 -3.04277e-15 -797.107 -2.00498e-15 -5052.49)
(-15087.9 33888.5 1.83834e-15 -1966.56 -3.28815e-15 -4231.56)
(-28435.7 40527.8 0 -1441.49 0 -7413.14)
(-16173 56812.8 6.14567e-17 -930.365 -6.0099e-15 -4243.69)
(-42801.1 18216.2 6.91826e-15 -4173 -3.06846e-15 -11655.2)
(39873.4 19351.3 -9.78966e-15 710.798 -8.75445e-16 10069.8)
(271572 83810.1 1.20376e-15 -80216.6 6.70776e-16 47479.1)
(-8103.65 45931.9 1.87625e-15 142.451 -4.42029e-15 -1975.33)
(33510.4 26122.6 6.76212e-15 -812.957 -1.60489e-14 8112.91)
(-359520 -12593.4 3.08283e-15 42058.1 -2.56154e-15 -78768.8)
(14097.6 40524.4 3.0596e-16 3075.26 8.23342e-15 4260.94)
(30863.4 28352.9 5.49527e-15 4620.76 -6.50766e-15 8804.35)
(31847.4 28685.4 7.68543e-15 -1651.97 -3.32871e-15 7492.1)
(-505.638 47712.8 5.77391e-15 30.5552 -8.95162e-16 -117.878)
(-996.123 47679.5 6.09819e-15 -408.688 5.39207e-16 -348.562)
(28057.5 24096.8 1.94972e-15 -4257.82 7.33936e-15 5905.18)
(23415.9 28034.9 2.74625e-15 -4427.6 -6.92447e-16 4711.39)
(-30974 28497.3 0 -2859.62 0 -8394.81)
(-27688.7 29473.2 -6.3856e-15 -2576.64 -4.13492e-15 -7509.44)
(351796 -44286.8 -1.27738e-15 -20704.1 -1.09116e-15 82150.7)
(-54021.4 52138 -6.68107e-16 213.457 1.06985e-14 -13350.8)
(-105825 50309.3 6.36876e-15 -2053.05 -4.11834e-15 -26766.7)
(-374495 -148072 -3.55037e-15 91933.2 1.48006e-15 -70109.3)
(231250 8938.35 0 3788.21 0 58317.8)
(-329527 -139210 -1.16442e-15 45175.2 3.76841e-16 -70553.4)
(26000.8 62459.9 -6.20839e-15 200.815 2.45489e-15 6501.14)
(-9735.84 42925 -5.98304e-16 -4982.08 8.57906e-15 -3651.81)
(-42227.7 40648.1 3.91239e-15 500.932 -4.64283e-15 -10353.3)
(-30788.2 32551.5 5.51596e-15 1889.65 -6.6689e-16 -7170.31)
(-26727.3 29994.2 -5.8342e-15 1120.25 1.90707e-16 -6353.63)
(25646.7 42642.4 4.2917e-15 1571.02 -1.25645e-14 6753.28)
(29054.3 35748.9 -1.08057e-14 923.194 1.09079e-14 7438.03)
(5237.09 41121.4 -1.68283e-15 -3608.93 8.28135e-15 403.981)
(5278.23 32450.2 4.03996e-15 -2696.95 5.35224e-15 640.468)
(-16621.4 48603.7 -7.31971e-15 -599.977 2.08622e-15 -4272.97)
(-3159.27 28483.9 3.66805e-15 1485.25 -4.85341e-15 -415.359)
(-211440 -85608.8 -9.18652e-16 -5455.95 1.89475e-16 -53816.3)
(4984.28 46504.1 -3.79665e-15 164.861 -1.48231e-14 1277.61)
(-4909.88 34414.5 -9.05041e-15 -2027.89 -4.3008e-15 -1721.4)
(-17530.4 29838.2 0 -36.7047 0 -4358.76)
(5534.5 43821.3 1.05472e-14 129.181 -4.59484e-15 1405.27)
(-4644.59 36032.9 0 397.8 0 -1053.72)
(-7990.07 42416.5 -4.41111e-15 1640.58 -7.27952e-15 -1575.44)
(24339.1 26356.8 6.63286e-15 1385.99 -7.04197e-15 6382.92)
(25310.7 26354.3 9.86236e-15 -1427.76 4.84219e-15 5925.85)
(364972 -144521 -1.29983e-15 -89850 -4.47389e-16 68263.3)
(206612 -83781.5 1.55248e-15 5422.49 4.25856e-16 52610.1)
(-27774.5 36054.9 1.34125e-15 -292.65 1.98682e-15 -6964.04)
(-31288.3 39018.9 -4.04471e-15 -1030.2 -8.67791e-15 -8018.88)
(-46217.3 20354.3 -4.94894e-15 -2440.48 -1.21914e-15 -12073)
(49610.9 26430.2 1.05152e-14 -2414.59 -2.86796e-15 11710.4)
(29871.8 41615.5 3.62253e-16 920.787 1.91951e-14 7640.27)
(34762.7 35762.6 6.22336e-15 -599.314 7.02841e-15 8476.63)
(-55648.3 35890.7 2.66003e-18 -2113.12 5.73993e-15 -14331.8)
(-42115.5 29635.3 -5.0129e-15 1201.63 1.68369e-15 -10151.6)
(-35319.4 27782.6 -9.1384e-17 692.259 7.54874e-15 -8591.7)
(1283.82 48614.7 -9.55017e-15 -1378.77 2.8839e-15 -23.5583)
(-85418.4 35617.4 4.16296e-15 -1260.45 4.58356e-15 -21506.8)
(29597.6 36701 -6.39502e-15 686.409 3.25889e-15 7514.07)
(27760.5 30523.6 0 -1666.43 0 6474.48)
(20287.4 30910.6 2.48493e-15 385.202 6.33202e-15 5129.29)
(8117.09 39981.3 -8.0482e-15 4474.86 -2.21281e-14 3124.32)
(-2072.65 47192 -7.12359e-15 -4432.14 -2.74714e-15 -1613.97)
(42885.7 55020.8 -1.69183e-14 2486.06 3.53385e-15 11257.7)
(-19299.1 25938.8 -8.99594e-16 -794.472 -7.06368e-15 -4985.63)
(1567.05 66041.8 1.85893e-16 -513.853 3.19459e-15 261.32)
(321392 -136176 -1.19004e-15 -44193.8 -3.05589e-16 68778.4)
(7432 29900.8 8.01171e-16 -2823.87 -1.33349e-14 1143.37)
(10141.1 30606.1 6.00932e-15 -2033.03 2.10612e-15 2011.79)
(-14780.4 36362.5 0 3754.61 0 -2735.73)
(-17406.3 36567.4 2.08691e-15 1453.86 -6.06157e-15 -3958.12)
(15491 28441.9 0 3019.17 0 4592.74)
(18014.2 32891 4.46427e-15 431.059 4.49275e-15 4576.64)
(28376.5 38515.8 -1.12709e-14 -498.476 -9.8618e-16 6917.09)
(-31993.8 33648.6 1.14169e-14 -2145.29 1.2028e-14 -8470.61)
(-28942.6 39730.9 6.24205e-16 -1785.67 -7.2612e-15 -7624.31)
(-5055.4 47613.5 6.82021e-15 4345.86 3.78376e-15 -176.053)
(262243 40797.3 -2.02243e-15 -2755.04 -4.89989e-15 64384.2)
(-2879.32 37793.6 -7.28454e-15 -2051.33 2.35104e-15 -1223.39)
(-3978.21 41559 -9.78199e-15 834.539 -6.44749e-15 -780.009)
(2328.27 47767.2 5.31243e-15 -960.747 -1.28849e-14 339.311)
(20032.9 31130.3 5.87054e-15 -2420.06 6.45789e-15 4370.1)
(-23195.7 20473.3 -9.58416e-15 -2379.98 5.11575e-16 -6345.85)
(20438.9 36199.5 0 -324.109 0 4990.89)
(330604 28541.6 5.60944e-17 -74981.6 2.34162e-17 63425.1)
(42852.5 22729.3 5.49408e-15 -386.867 1.26864e-14 10536.6)
(37478.1 25238.1 2.46825e-15 -2005.37 1.38044e-15 8801.49)
(-36556.7 29942.2 8.15785e-16 1184.25 1.75558e-15 -8776.63)
(-29168.1 35089.6 -6.2414e-15 -1207.23 2.06088e-15 -7536.75)
(-31958.9 31812.4 -1.28273e-14 3985.11 -2.31977e-15 -6940.87)
(-24952.3 36481.7 6.42721e-16 539.671 -7.03032e-16 -6057.27)
(74340.3 35685.8 -8.17839e-16 395.164 2.42423e-15 18543.4)
(57454.8 42587.7 5.10231e-16 758.158 -4.97174e-15 14443.8)
(16729.1 34497.7 1.13776e-15 1786.32 6.96268e-16 4594.05)
(23696.3 34572.7 2.12178e-15 1915.1 3.77197e-15 6354.7)
(13200.6 39693.1 5.85827e-15 -2833.02 4.34975e-15 2572.41)
(22522.4 37725.2 5.26568e-15 -5832.4 -8.54359e-16 4141.13)
(-38857.6 41067.8 -1.35626e-15 -1390.26 3.76054e-15 -9986.32)
(-45624.2 41491.2 -3.93364e-15 -2085.86 7.03265e-16 -11837.8)
(-21411.5 55067.6 5.1968e-15 -340.765 3.99209e-15 -5397.18)
(125543 42722.1 6.1351e-15 609.537 4.79376e-15 31300.9)
(138767 45496.3 -1.42584e-15 2382.34 7.79611e-16 35022.1)
(182576 43027.1 1.12972e-15 -2735.78 7.74395e-16 44622.1)
(10243.1 42236.9 -1.15043e-14 6173.73 1.45592e-14 4073.36)
(-40744.7 24428.3 -7.20107e-15 4212.3 -3.78281e-15 -9064.43)
(-34935.1 26024.9 -9.1662e-15 7562.83 6.31142e-15 -6791.62)
(137193 20120.5 0 5764.31 0 35470.7)
(131748 25561.7 0 -326.139 0 32608.5)
(39824.1 24551.6 1.28182e-15 -1751.42 7.24656e-15 9446.61)
(45534 23820.1 5.05393e-15 1305.18 -1.37089e-14 11621.8)
(-54672.7 20311.8 0 -2494.3 0 -14184.3)
(-50537.4 21676.9 0 462.342 0 -12424.6)
(4282.24 44481.2 -1.59624e-15 4368.49 4.76836e-15 2146.42)
(-18028.1 38541.7 1.73358e-14 -3478.55 -7.61231e-15 -5336.23)
(-39613 27593.8 -4.51422e-15 -2964.78 -1.71161e-15 -10564.4)
(312475 7016.43 0 7975.52 0 79510.3)
(-8656.89 45153.9 -1.13365e-14 -9170.22 -3.29653e-16 -4423.27)
(-6269.39 48088 -1.62971e-15 -6728.63 -9.4875e-15 -3225.07)
(14158.6 33561.5 -5.80152e-15 1139.03 -4.11066e-15 3795.66)
(-12495.5 35668.9 -1.22833e-14 1774.72 5.34511e-15 -2660.03)
(6757.78 29638.6 3.87736e-15 -3772.93 -4.12225e-15 740.602)
(-46333.4 23412.4 2.51654e-15 930.965 -5.45827e-15 -11265.3)
(35405.7 22664.7 -9.21545e-16 893.45 -6.70369e-15 9006.55)
(-130056 32313.2 1.28976e-15 -636.192 -7.98865e-15 -32427.4)
(-372926 -3985.96 1.35124e-15 109200 -1.26547e-15 -65435.9)
(87740.7 66541.9 -1.92361e-15 -2164.93 2.69403e-15 21233.1)
(231.348 30057.8 -6.59385e-16 -857.693 3.75349e-15 -155.409)
(-34909.6 29747 -3.46806e-15 -4731.11 -9.39985e-15 -9835.67)
(35134.3 29821.5 -4.09443e-15 -3886.56 6.01008e-15 7753.19)
(-25508.3 24530.4 4.82558e-15 -2175.06 6.2899e-15 -6868.8)
(22223.3 28660.9 6.60558e-15 219.055 1.04694e-16 5568.39)
(280.862 51793.9 1.78032e-15 -3368.59 8.89583e-17 -766.128)
(13479.2 49635.2 -7.52009e-15 -1906.05 9.94002e-15 2871.52)
(-14191.8 39326 6.64583e-15 -1198.36 -7.466e-15 -3818.6)
(-21052.7 41375.3 2.39776e-16 -1896.05 9.39948e-15 -5694.06)
(-11045.5 34155.2 9.07491e-16 -2222.45 -6.93662e-15 -3292.05)
(-17622.9 36417.9 6.03197e-15 -3265.14 -2.26122e-15 -5182.75)
(242.452 46136.2 -4.93035e-15 -402.059 1.64783e-15 -39.6016)
(582.924 36389.8 -9.67737e-17 1241.33 -6.51486e-15 452.635)
(101.357 44757.9 7.71029e-15 108.642 6.45903e-15 52.105)
(-1509.72 47774 4.04225e-15 -1329.2 -9.20156e-15 -704.392)
(152989 42430.2 4.55002e-15 -1676.12 6.70336e-16 37543.7)
(-757.907 36681.4 -9.03261e-15 -750.166 -4.17119e-15 -374.184)
(-8817.96 46154.7 4.40607e-15 -9805.71 -1.5365e-14 -4620.91)
(308231 29083.4 -2.54668e-15 -19460.8 -2.27546e-15 71649.7)
(20953.9 35748.3 4.60501e-15 -3562.52 -6.12168e-15 4315.16)
(-36747.4 41827.7 4.42353e-15 26.288 1.29147e-15 -9111.26)
(-35921.5 23809.7 -5.26852e-15 1293.76 -2.37239e-15 -8591.85)
(-38040.7 24558.7 0 2536.01 0 -8809.44)
(31566 22733.6 -4.94358e-15 4484 -2.39341e-15 8944.73)
(27329 26203.9 1.12947e-16 4352.32 6.13794e-15 7860.77)
(-7866.06 41304.4 -5.24126e-15 3988.18 4.44459e-15 -962.18)
(-5899.58 41376.6 3.83641e-15 2465.75 -2.20752e-14 -852.003)
(-61094.5 50432.7 -3.54587e-15 -1185.14 -1.30072e-16 -15452.9)
(-79983.5 47569.4 0 -333.633 0 -19928.3)
(75834.5 58297.2 2.13494e-15 9.32702 6.48344e-15 18818.4)
(-217455 50070.7 8.55791e-16 3008.57 -3.61371e-15 -53208.6)
(-200.183 30713.9 0 -3129.24 0 -826.097)
(48451.9 41941.8 -4.72959e-16 3594.23 2.75216e-15 12913.7)
(32873.6 45722.6 -2.02109e-16 3927.22 1.30993e-17 9131.04)
(-25307.8 34243.7 9.5997e-15 6046.38 -1.28999e-15 -4779.14)
(-20693.7 33631.4 -9.28592e-16 8043.31 7.01714e-15 -3138.81)
(-17923.9 37834.5 1.46587e-15 2092.86 -5.83353e-15 -3928.01)
(-10546.2 36372.8 -8.26611e-17 3096.81 3.43103e-16 -1848.33)
(-38183.1 31115.7 3.46699e-15 4828.09 5.31025e-15 -8276.04)
(-28179.4 34227.5 -6.11566e-15 10298.7 1.30176e-15 -4436.56)
(-14107.5 28194.2 0 1857.17 0 -3039.54)
(-19382.8 35216.2 -3.69641e-15 1457.6 3.35121e-15 -4447.62)
(-25539.3 42282.3 -3.34864e-16 2602.87 -3.96238e-16 -5691)
(7782.13 38000.7 -1.48719e-14 1888.11 -7.70232e-15 2399.38)
(-1916.39 47773.1 -3.31795e-15 -2623.2 6.91085e-15 -1126.36)
(29088.1 22442.2 -2.10099e-15 1504.49 5.8039e-15 7590.63)
(29022.8 25132 2.85426e-15 -2229.32 -5.4828e-15 6648.01)
(13624 45223.3 5.22609e-16 -5541.37 -3.84021e-15 2005.45)
(12008.5 35275 0 -146.622 0 2943.18)
(-39758.4 49446.5 5.88412e-15 -1828.63 -6.93692e-15 -10318.6)
(16194.5 43775.9 -1.10912e-14 1635.68 -5.6689e-17 4424.03)
(17316.8 45469.3 -4.84227e-15 2096.2 -2.72671e-16 4816.75)
(-6937.88 39101.4 -6.07557e-15 -5424.82 9.0765e-15 -3067.44)
(-3266.24 38529.5 3.56743e-15 -3564.73 2.27178e-16 -1694.9)
(-13090.3 36246.5 5.80644e-15 3494.56 2.13636e-15 -2380.91)
(-15283.2 36073.2 0 3026.67 0 -3041.1)
(-71217.3 41578.6 2.52437e-15 318.233 -4.2652e-15 -17591.5)
(21522.9 34872.3 -2.7308e-15 2523.13 -1.15064e-14 5966.32)
(23953 41501.2 -1.27421e-15 627.202 -1.89123e-16 6098.85)
(-25101.7 87065.8 -1.69224e-15 2451.44 -1.53675e-15 -5619.98)
(51797.9 26206.7 -6.04151e-15 -1780.35 -3.73733e-15 12410.4)
(-57813.6 22765.8 5.64569e-15 2594.87 3.4714e-15 -13700.9)
(-33367.3 85288.6 0 -2551.28 0 -8912.13)
(-19019 43516.5 2.11188e-15 3048.39 6.71326e-15 -3962.62)
(-18018.5 44323.9 -1.60457e-14 4868.46 -4.20614e-15 -3262.79)
(-22862.9 32286.2 6.93061e-15 760.639 7.40454e-17 -5484.03)
(-20065.1 32445.1 0 2528.79 0 -4351.1)
(11641.5 36357.2 5.16767e-15 1591.61 -8.43887e-15 3283.41)
(14056.6 38143.5 1.79101e-15 -1217.1 7.8691e-16 3185.73)
(7357.09 34372.2 -3.44162e-15 2284.19 3.39773e-15 2392.2)
(10481.6 34510.4 3.36234e-15 713.378 1.02732e-14 2777.71)
(4490.76 28553.1 2.53134e-15 4528.12 4.50739e-15 2237.77)
(6988.07 28635.8 -5.72709e-15 1873.21 3.38079e-15 2198.66)
(33259.5 27888.5 2.22706e-15 2913.62 8.59478e-15 8975.3)
(32469.2 26316.6 6.53358e-15 7997.63 1.43263e-14 10040.6)
(-78159.6 54901.5 -2.25176e-15 -691.396 3.32008e-15 -19564.5)
(22726.8 38744.8 -6.58652e-15 -1472.11 -1.66301e-16 5273.73)
(-40156.1 41170.3 0 -327.985 0 -10044.9)
(65854.9 38044.1 5.6731e-15 -2333.26 -3.71314e-15 15761)
(-39366.2 30231.5 6.68959e-15 71.9058 -1.14882e-14 -9749.72)
(-39101.7 31181.7 8.09049e-15 -963.717 -5.61305e-15 -9941.03)
(-285694 -134849 -1.12552e-15 53302.5 2.53936e-16 -57661)
(11673.6 46988.7 9.05147e-15 1450.64 -2.48371e-15 3256.4)
(77192 37540.1 -1.841e-15 -970.524 -5.90493e-17 18912.1)
(-39992.9 32628.8 -1.93185e-15 -724.846 -5.68743e-15 -10102.9)
(-38210.6 35824.9 1.17349e-14 -1954.13 6.00424e-15 -9965.68)
(228901 21206 3.76794e-15 362.564 1.70345e-15 56884.9)
(-9868.01 42940.9 -1.31275e-15 2048.27 5.459e-15 -1940.24)
(93676.9 31975.9 5.0375e-15 687.878 -3.28543e-15 23413.8)
(-34063.8 35410.8 4.0987e-15 1852.86 -7.44403e-15 -7992.19)
(-119851 48402.2 4.3754e-15 1955.94 -5.39622e-16 -29252)
(-113984 43814.3 -2.68471e-15 -1967.28 -2.6252e-16 -28769.8)
(95022.3 45177.3 -5.22539e-15 -2147.02 3.6578e-15 23044.2)
(-9838.49 36013.2 -1.8166e-14 1692.83 -8.58879e-15 -2021.1)
(-699.289 -7317.25 4.5205e-17 -11398.6 1.60123e-17 -3001.74)
(-6324.54 45000.1 0 3075.32 0 -806.198)
(-375543 -114489 1.82163e-15 61389.5 -5.13484e-16 -77947.8)
(278777 -131947 2.1245e-15 -52413.4 6.98123e-16 56165.4)
(-63011.4 43369.7 4.65436e-15 -2149.67 -4.8626e-15 -16167.8)
(29532.9 39847.4 1.35592e-15 -1890.06 5.41947e-15 6858.76)
(24598.5 31665.7 -4.42918e-15 -3032.61 1.03143e-14 5350.92)
(19258.8 43007.1 8.82321e-15 -2462.1 2.75151e-15 4167.61)
(-24211.4 25788 5.19318e-15 1567.71 -8.18109e-15 -5618.37)
(6619.07 33300.6 -4.38983e-15 316.942 4.1429e-15 1720.97)
(-3533.16 34405 1.29314e-15 1473.44 2.05449e-15 -511.059)
(-17472.2 57864.4 1.57237e-15 853.97 5.00466e-15 -4123.32)
(-266331 40162.3 -8.23257e-16 7270.85 2.68541e-15 -64278.1)
(2521.84 -4337.73 1.17472e-17 -7541.57 7.27124e-18 -1245.5)
(-23560.3 28367.9 -1.5236e-17 -105.008 4.00409e-16 -5871.83)
(24433.5 30393.5 3.16925e-15 1229.73 1.03415e-14 6367.58)
(319031 -59338.7 1.58623e-16 -11321.4 2.97366e-16 76348.9)
(-1029.86 33299.4 -8.51631e-16 1404.41 -6.81175e-15 92.9335)
(-3120.88 34318.7 6.75626e-16 1929.96 6.66682e-15 -295.493)
(-1576.22 29774.9 -1.21663e-16 2139.3 -1.05118e-14 139.711)
(-13102.5 47986.7 -2.70658e-15 -789.253 3.92884e-15 -3446.83)
(4786.07 35566.6 2.82537e-15 243.108 7.55499e-15 1247.84)
(4446.46 44086.2 -6.56194e-15 -1841.88 -2.24452e-15 646.25)
(-326565 -60165.7 8.57444e-16 11273.6 -2.52948e-16 -78230.1)
(46219.5 51025.3 -4.61386e-15 -1450.29 2.6969e-15 11108.2)
(-26412.6 43228.7 -1.76569e-14 4505.9 -5.17543e-15 -5435.5)
(13689.2 37261.4 1.27748e-14 5438.99 -2.15224e-14 4746.09)
(9973.53 31255.5 7.46239e-17 5162.59 -7.46662e-15 3755.58)
(10765.1 27497.7 -1.93538e-14 2166.02 3.16997e-15 3208.47)
(8450.92 37510.4 -8.78363e-15 4696.14 -3.39314e-15 3262.05)
(-96419.5 33479.8 7.03235e-15 -1283.42 -7.4031e-15 -24242.1)
(34462.8 33521.3 9.38633e-15 177.328 1.04385e-15 8594.92)
(33474.5 29058.5 -4.2305e-15 469.3 -6.29166e-15 8422.15)
(-14327.4 43487.3 -1.51225e-14 -703.193 -2.65218e-15 -3729.39)
(114084 62395.6 1.94732e-15 -1956.38 3.38583e-15 27821)
(17197.5 38819.2 -6.12688e-15 -4009.92 4.30093e-15 3272.1)
(-245673 39509.5 -3.42171e-15 -503.488 -1.47822e-15 -61081.4)
(4783.39 43130.4 -7.90346e-15 2148.13 -6.91496e-15 1719.85)
(-21504.3 43778.8 -1.55836e-14 4450.27 7.70934e-15 -4231.46)
(8578.57 37246.9 1.53853e-14 4171.57 -2.4827e-15 3163.57)
(5138.29 31416.8 1.31304e-14 3154.48 3.2127e-15 2057.61)
(6738.86 27510.6 -8.98073e-15 1395.01 2.60092e-15 2018.18)
(122747 57258 2.27428e-15 580.992 6.00096e-15 30600.2)
(11192.9 37759 -5.18624e-15 540.088 -1.15939e-14 2911.19)
(-32728.7 41282 5.16083e-15 264.191 1.47889e-16 -8055.1)
(-43512.7 56868.6 3.87164e-15 978.615 4.64326e-15 -10553.6)
(-23843.4 40161.6 0 -312.077 0 -5993.47)
(-26778.7 31103 -5.55021e-15 847.652 1.72172e-15 -6434.03)
(-28628.1 33801.7 -9.05882e-15 1419.75 -6.9385e-16 -6750.93)
(-39179.8 42069 -9.70105e-15 886.087 4.88353e-15 -9501.46)
(25927.6 35817.9 1.43452e-16 -346.445 1.90771e-15 6347.21)
(21705.1 43647.4 2.31765e-15 -1705.15 -3.03291e-15 4962.39)
(22872.8 23188.5 -7.03539e-15 359.976 2.5895e-15 5764.53)
(13759.9 35345.6 0 -2389.35 0 2821.26)
(21338.2 33217.6 -8.07e-15 -3053.17 4.96332e-15 4536.89)
(366281 18752.6 -9.772e-16 -81392.3 -5.34496e-16 70686.6)
(25761.6 26821.1 8.89664e-15 -3523.74 -9.27239e-15 5517.67)
(-25979.9 31022.2 0 -1774.16 0 -6886.34)
(-19928.2 28974.1 -4.27751e-15 -403.42 -2.10148e-16 -5044.68)
(17402.4 35508.2 2.13108e-15 -1018.36 -2.72533e-15 4065.22)
(-4878.77 30930.5 3.52429e-15 19.9586 2.97862e-15 -1205.57)
(-6949.78 48802 1.01749e-14 1729.02 -8.40716e-15 -1295.38)
(-4049.05 29309.2 9.66003e-15 831.9 -1.59364e-15 -798.241)
(-3951.47 35274.4 -5.43067e-15 388.321 -5.29638e-15 -884.09)
(-6017.34 43875.6 -2.96574e-16 -4259.04 -2.60773e-15 -2549.78)
(2861.99 29927.1 -1.92513e-15 118.898 6.72774e-15 739.62)
(-2681.12 35555.1 -7.11064e-15 -6348.42 5.47661e-15 -2240.41)
(-1.91336 46985.4 6.90652e-15 -7297.76 -3.26292e-15 -1811.2)
(6397.72 50593 -8.70741e-16 1628.52 -4.70749e-15 1991.47)
(-45455.4 70591.6 -2.57607e-16 789.016 -2.92457e-15 -11082.6)
(8718.79 46063.3 1.68915e-14 -2147.14 -3.46747e-15 1630.56)
(-5935.45 69668.3 1.45413e-15 -2192.03 2.45742e-15 -2016.59)
(-63613.4 56520.7 -3.31035e-15 -1812.99 -2.1736e-15 -16233.6)
(25436.5 37813.7 8.06746e-15 4505.59 7.69317e-15 7429.25)
(-26150.4 33039.3 -6.5525e-15 617.797 2.21532e-15 -6335.15)
(-247791 101309 -7.29041e-16 70329.2 5.23854e-16 -44031.8)
(-27381.1 42066.7 4.69889e-15 -2836.38 5.34354e-15 -7497.57)
(-30381.9 49295 0 -1138.51 0 -7820.85)
(9976.76 42964.9 9.03639e-15 -5673.52 -1.30465e-14 1067.72)
(9710.84 33115.8 4.82038e-16 311.634 1.62636e-15 2486.78)
(285234 -62456.7 -2.393e-16 8796.8 5.0703e-17 72955)
(-233532 27207.7 -2.51924e-15 -2.70941 1.18678e-15 -57944.7)
(9478.98 29895.2 3.35841e-15 8367.41 2.95013e-15 4428.05)
(13844 36123.8 -4.06865e-15 7450.65 8.68239e-15 5283.63)
(-25956.4 44277.7 -2.16018e-14 7327.71 -7.97239e-15 -4622.16)
(2288.53 33326.6 4.13527e-15 -1849.78 8.52158e-15 108.863)
(-6146.41 43441.1 6.18272e-15 -6422.32 9.81971e-15 -3118.56)
(-164280 -107311 -1.99194e-16 12311.1 8.46877e-17 -37706.5)
(-187591 28595 8.84955e-16 2342.74 1.09623e-15 -45963.9)
(198006 33516.8 4.9212e-15 -2695.7 -2.63298e-15 48460.4)
(-354209 6655.23 -1.45823e-15 -3463.41 -6.90664e-16 -88745.8)
(29314.9 25939.3 -2.70471e-15 820.331 -4.44992e-15 7477.15)