/*--------------------------------*- C++ -*----------------------------------*\
| =========                 |                                                 |
| \\      /  F ield         | OpenFOAM: The Open Source CFD Toolbox           |
|  \\    /   O peration     | Version:  2.3.1                                 |
|   \\  /    A nd           | Web:      www.OpenFOAM.org                      |
|    \\/     M anipulation  |                                                 |
\*---------------------------------------------------------------------------*/
FoamFile
{
    version     2.0;
    format      ascii;
    class       volScalarField;
    location    "140";
    object      sigmaEq;
}
// * * * * * * * * * * * * * * * * * * * * * * * * * * * * * * * * * * * * * //

dimensions      [1 -1 -2 0 0 0 0];

internalField   nonuniform List<scalar> 
11800
(
73111.6
78429.6
49975
61434
74880.9
66118.3
75210.5
61911.7
79326.2
52032
73078.6
55702.8
16967.7
49651.4
63925.4
155895
73986.1
60613
87749.5
49185.8
63365.1
58616.1
148015
132989
124176
140836
52847.3
66625.8
63361
77255.8
68964.7
109031
121108
84211.6
82193.2
68326.5
79719.4
124021
77840.6
55086.4
56457.5
67023.6
71934.6
81292.2
71865.3
146719
133877
137783
77129
54643.9
56658.7
60077.8
85670.3
124305
156583
276355
49193.7
57368.4
61042
49296.6
241309
86502.9
54670.9
62322.8
123221
63842.3
56372.2
57501.7
52587.4
128366
85789.9
75644.9
72058.1
359291
235378
72634.2
108127
57160.2
75052.7
78316
165584
55976.2
72154.2
75863.5
58200
82239
73201.8
63349.7
58151.1
68151.3
80687.2
133139
76119.7
51315.5
53736.7
28927.5
3636.14
28308.1
82598.4
53079.5
62594.9
61326.9
123121
103654
82132.9
84143.7
60067.7
72769.2
200498
59278.2
72995.6
51647.7
71580.3
66821.1
47620.1
190728
56026.5
79683.2
182859
53750.6
80324.1
76370.9
60448.3
67087
74113.4
84419.7
81993.3
77753.8
73987.1
37896.6
350294
165992
67178.7
77456.9
59812.3
56548.5
51882.1
71524.9
74798
63094.3
55343.3
51592.1
90765
76241.2
60617.4
48416.6
57554.6
62406.3
60226.9
96702
77340.3
77409.7
79689.9
70962.3
63909.1
83935.9
69440.6
65890.6
88626.8
83526.2
225095
72633.3
106931
57709.4
62784.9
77870.2
65752.8
79917.9
278153
104191
71364.7
60419.4
75333.6
59587.7
62414.8
135459
138436
57534.1
49048.7
69908.6
64022.7
72296.1
64916.5
82855.2
56706.7
51400.8
88677.7
78160.4
61491.5
76305.1
72647.3
59940.6
74368.4
99377.5
47482.4
48766.8
340898
79901.4
54759.2
357517
70968.4
54845.7
58034.9
82642.5
82585.7
50607.4
54426
55693.2
56009.7
341915
102688
128093
483743
206273
410572
110664
74554.4
80228.2
63503.3
57638.3
77051
66966.4
71636.3
56631.9
85430.1
49501
238314
80665.9
59685.5
54037.5
76058.3
62572.6
73956.7
50211.2
51536.8
471814
232955
67203.3
72940.7
53201.6
65322
76709.4
69633.3
78902.5
64406.9
58002.8
84234.6
97950.9
68745.7
59056.9
56485.2
69394
81780.9
102160
47967.7
114402
400932
52558.6
54088.1
65054.3
65532.1
50648
59151.6
71589.3
64333.8
73134.6
82870.1
248864
65476.1
72107.1
82785
57489.6
40298.1
65423.3
360506
55376.1
56213.1
61945.7
65869.1
63676.7
67215.6
90970.9
89816.6
61314.7
63112.9
70187.2
69930.2
78837.3
82040.5
97264.3
134875
146371
182651
73357.9
58230.1
58600.2
124363
127038
56539.3
57519.8
59050.7
59325.2
77074.6
68150.6
58366
276048
78338.9
83356.1
59338.8
63062.1
52144.8
58742.1
50179.6
129531
422841
140749
52070.4
58629.4
62224.4
47562.4
53473.7
89768.7
87045.9
69146.5
73786.1
59743.5
64506.5
79912.3
63033.3
77523
82750.3
157462
63535.2
80084.4
297261
65603.4
79677.1
53061.4
55894.7
46722.3
50195.1
72280.8
72036.8
102802
109343
121954
216546
53265
83416.7
83582.3
65412.1
63424.9
67902.5
64125.4
66050.1
68156.3
50846.9
63770.4
77399.8
66061.7
82755.6
46270.7
51700.4
80094.1
62070.3
92323.2
76994.3
80000.3
67809.8
66757.7
64448.2
64535.2
96660.6
62894.1
74923
152785
66121.6
66971.4
150388
77861.9
79357.8
59805.9
59669.3
63658.5
67455.1
59745.7
60435.2
49507.6
49846.1
55740.3
51290.7
118059
70507.7
79866.5
89918.2
63295.5
64106.3
379694
81933.7
95804
66750.2
70274.6
209418
75114.2
100586
69246.7
137977
126581
117267
63204.4
15992.8
78370.6
434473
371142
93221.7
74515
60085.5
76945.3
50259.5
57962.4
59751
101559
255422
11575.9
53501.1
56717.6
313719
57714.8
59603.3
51672.1
83869.7
61741.7
76556.2
320574
98194.8
79709.3
65111.4
54429.9
48316
65135.5
103713
65793.5
58508.9
76334.7
150254
69779.2
231536
74759.3
79205
64706.1
54482.6
47917.8
148303
66114.1
77433.1
106308
72740.4
59306.5
64434.3
81279.8
66393
78432.7
45027.6
62862.9
61462.5
395617
53223.3
58098.6
53203.7
63671.3
53754.8
84871.2
50947.1
61219.1
76054.1
51895.2
61706.9
81646.7
87750.2
129151
80354.1
120730
112782
68374.6
62077
329680
76279.6
89411.5
75649.3
57987.9
272948
215831
51983.8
63041.4
82063.6
57834.5
75309.1
243723
178007
189740
317043
51818.1
54067.4
54979.7
72404.6
55282.1
64521.2
75088.6
56647.3
81708.5
79768.9
60278.9
53101.5
238259
68487.7
103429
243072
62588.7
67903.4
329905
175336
51394.3
60986.7
68833.1
63897
79894.7
62110
83610
78994.6
78822.4
85792.2
78852.4
66918.9
66296.4
53689.9
54709.9
46999
46167.9
58323.3
53720.7
75869.6
51521.6
279149
117122
67191
81972.9
150355
57526.9
79591.5
66784.4
54348.2
47573.3
67597.1
49900.8
87996
85510.2
102751
61028.4
73829.8
313903
52655.8
103502
61749.7
55967.4
60236.4
65632.1
76315.7
80447.5
63660.2
78817.3
244770
431874
59442.6
68230.8
55565
120612
62453
69102.9
72633.6
61767
53509.2
77317.6
54930.6
57171.3
70844.2
60828.8
55780.7
51847.2
52860.1
63053.6
79995
58215.2
48561.4
50006.8
58071.8
139455
136408
58701.3
284744
56731.1
76579.5
249020
49734.6
62229.7
55102.6
50128.6
61794
82026.5
127737
56603.7
53468.9
289564
76549.8
59463.9
90452.6
74240.2
96455.9
65579.3
148003
80357.5
76016.1
80438.6
65938
76177.4
67940.4
60202.3
285123
76532.5
70293.3
80413.2
224083
76511.9
319772
306222
233920
67653.3
73637.1
52092.4
239988
55253.3
66783.9
56551
136662
75475.2
51339
62906.6
81204.6
125697
58410
424298
193460
64678.5
91327.7
100058
64942.5
64991.5
80046.6
80780.8
186694
108164
58931.9
67842.6
82371.5
109003
74128.7
156874
85052
48388.8
47112.4
337934
58580.4
86432.7
68945.1
85335.4
65597.4
63889.8
80822.9
115269
127614
52835
71758.8
58671.5
83187.8
76319.9
162782
65165.4
66608.8
55501.3
56431.4
66398.4
46555.3
53307.7
57520.1
64586.3
80835.4
65353.6
67752.8
75182.6
55581.1
60473.1
70907.3
52353.5
60079.3
80880.2
52632.9
70182.4
60534.4
75128
284899
94792.5
78767.7
64685.2
77742.6
68229.8
63762.9
58607.4
74493.5
56380.4
52044.3
59088.1
59934.1
106715
62479.9
155489
244205
125718
78113.1
100390
64560.5
60250.9
109087
65953.7
17295.3
82969
391727
384120
55537.3
351624
71971.1
66426
73319.1
92370.7
61718.7
76817.1
122123
55356.3
66361.7
86222.1
118582
61763.4
68019.9
65716.3
69313.5
80449
76468.8
52993.7
148642
81117.7
84578.1
64236.2
78820
50386.9
55366.8
70499.1
127143
107735
49165.1
56661.3
54248.5
72207.8
65482.2
102849
65209.6
60577.7
83376.6
377202
76638.2
68421.4
55782.7
46773.6
71538.6
349924
64201
63293.9
278912
70281.9
91076.2
84773.3
378247
93770
64089.4
78633.9
212648
54487.7
57265.4
72499
61959.1
77569.8
52897.3
74768.9
58311.7
57538.6
154012
114421
77831.2
62257.1
56942.6
80795.3
61002.4
63686
67224.5
61755.4
82070.7
57500.3
43937.2
44399.2
60791.8
65267
95457.6
66893.5
61594.9
53789.1
62194.1
47509.6
136315
84581.3
80377.4
83224.9
68174.3
80797.4
213886
85509
59698.6
60547.8
66046.1
67033.1
83980.4
84025.5
59222.4
54744.6
73954.9
57022.1
52895.1
60063.9
65738
79888.8
59487.2
51255.7
85510.2
70213.9
59303.3
48651.5
52247.7
53832.4
60061.4
59733.6
82879.1
155364
74244.7
46069.4
70710.7
87301.4
62189
54170
86004
59335.6
53181.2
53379.5
59375.6
74116.5
79906.9
53703.3
62471.2
73898.9
75688.5
56059.3
55536.4
106951
67285.9
60427.3
130090
80692.3
70782.6
58451.6
49245.6
55973.9
75844.9
70776.6
57045.6
47143.8
66338
373842
64579.4
108546
205004
134904
130256
348834
60815.3
67723.3
50970.8
80429
57790.9
56107.2
62411.5
337761
68621.3
78273.7
60746.8
58288.7
60148.1
85038.7
60903.5
59009.6
58573.2
71911.6
50726.6
56172.6
94473.2
234568
341394
53747.7
79308
80365.8
67218.8
71383
50694.3
60622.6
409351
81840.8
61612.3
55041.6
77996.8
64855.1
76299.5
70911.9
69543.5
88647.9
60166
44963.1
44504.3
67058.7
74526.2
98759.4
68977.8
67728.4
55261.9
68265.4
49106.5
247138
251270
197348
56238.7
60933.3
239523
221577
61625.5
79693.3
76244.5
216683
253907
57430.9
59015.5
319645
209548
350933
355240
53981.3
59222.3
47678.3
58253.2
51399.6
119342
73131.1
58962.2
72160.2
61243.7
78028.7
55977
56730.4
243268
49875.4
61061.8
65804.4
61076
61569.8
188350
65162.7
65750.7
53473.3
51149.9
101556
55390.7
66845.4
247012
58700.6
49129.3
58186.8
75865.3
71641.1
55150.5
62465.5
122647
65091
60678.2
72904.1
76492.2
65190.4
61600.6
87159
89988.5
76388.7
69842.2
77253
67425.5
67937.2
49946.2
54269.6
38236.5
78316.5
79063.5
92407.3
96690.7
53666.3
56713.8
55738.5
50598.9
58344.9
60291.7
142186
201949
67223.2
342989
84261.1
67423
60997.3
66722.9
66625
78062.9
75241
81183.7
168848
55353.9
84294.5
66695.8
60771.5
77851.7
71403.6
71439.3
276006
146934
53342.9
78699.5
95550.9
73322.7
60580.1
51591.8
61306.2
73922.5
79147.2
66713.1
46814.9
151841
53712.8
136602
134230
110280
57820.8
58553.6
82048.3
75627.5
59948.3
81718.2
51904
72611.5
147722
58982.1
52039.5
59604.7
75794.7
81534.7
66232.3
69751.3
79105.7
80047.9
64199.5
62916.8
57788.4
59482.7
285507
78126.8
73279.3
80753.1
58039.6
91813.6
79015.4
60510.8
302977
62346.2
112236
75282.7
88187
64839.6
52986.9
54758
67239.3
65247
63527.5
62738.3
88856.3
66838.1
53863.5
47128.9
70475.2
105686
61725.7
224193
51504.6
51517.5
57555.3
72015.8
62916.7
83430.5
69313.8
159640
364928
58519.4
64664.8
53959.2
50863.5
54201
57499.8
72615
72455.2
59109.2
61562.1
74403.3
57364.2
56921.9
70948.8
59673.8
61135.5
66956
69981.8
51442.1
53548
124479
81242.1
60538.1
59931.7
59477.1
141999
141413
103595
357066
55425.4
57275.5
61615.6
76982.1
59551.8
79407.8
78852.4
94741.3
76631.1
166322
93920.7
81337.6
64218.7
47968.1
75609.5
299475
67567.8
65948.9
77275.9
61127.9
59404.3
54556.5
278138
203744
51115.3
58305.9
63297.6
102737
118759
55808.4
109637
45907.1
47244.9
57168.7
85798.1
86669
52548.8
430983
90768.3
63372.9
54188.5
73467.6
73467.4
59832.1
62202.5
69753.2
85097.3
306240
64921.1
110404
64199.3
164817
77167.9
63264.1
59161.2
86874.5
67553.9
61236
55625.2
51407
227562
49725.2
48502.2
57602.4
242221
231203
74887.6
68672.3
80889.8
66980.5
59473
250662
55370.7
60875.4
396479
423906
225730
102802
128951
117353
79128.1
62878.9
68907.8
52942.5
47917.5
50542.9
106099
68711.7
89535.6
54523.8
54040.9
61885.2
277983
310170
66286.7
84559.5
89580
381919
67336.9
65067.9
54455.3
53796.8
375793
388647
84869.8
110321
67878.6
55131.6
104488
65354.5
63682.6
105692
72737.2
82121.1
299419
80721.7
68093.3
73412.1
66190.9
74019.8
70421.4
62223
53502.2
83991.3
393636
107540
95114
54934
355519
112754
104951
53914.3
85396.1
68029
161573
56038.8
49040.3
75601.3
59656.9
55082.4
87382.7
52033.4
80846.1
80740
128101
370088
62528.5
57962.5
85534.7
258520
343565
127623
120808
63023.1
55997.4
46156.8
76758
63443.2
72150.1
61059.5
51506.8
336132
69300.7
60884.5
65401.1
59485.9
56959.3
79078.8
55933.4
80380.7
77005.5
111729
212195
64671.9
74331.2
61900.1
53565.8
73621.7
254433
62821.8
61387.5
50862.9
47758.3
119777
229565
125131
77102
214109
76987.7
52329
63137.9
58173.4
75662.4
73579.9
107726
71999.8
470979
154254
79164.5
196513
474497
413261
113319
83141.1
131528
53145.7
51070.6
79921.2
87739.7
75556.5
59441.5
74942
57910.4
161836
169501
74508.4
243524
68628.2
56590.2
78349.1
83210.4
51952.2
58607.1
60689.7
53691.7
58653.7
176436
90527.7
74514.8
58435.7
45539
64313.7
73023.4
83472.7
11310.6
66748.5
184016
59398.5
54230.1
41411.3
48657.4
59146.3
55994.2
59176.8
81985.8
59362.4
67174.7
351383
166071
83961.1
74877
102206
105795
61790.5
69969.8
91655.8
57400.6
83266.1
87732.6
72507.2
55407.2
75063.5
275646
66014.7
77225.2
63695.7
78465.2
470559
84571
344502
309623
60506.9
111149
71618.8
293430
64045
73871.5
196961
393029
67363.9
51290.4
71513.8
113374
73636.5
64432.8
68798
58075.4
48780.8
58503.3
83623
50197.3
48983.5
54999
49304.4
56762.2
57203.9
47310.4
73071.5
222047
51728.1
98551.1
208326
177183
310460
49236.4
57871.5
72700.2
64041.3
72690.1
79257.5
99441.2
326297
80689.3
61252.8
67086.5
58535.4
47326.7
82175.4
69267.1
58689.3
48652.9
138505
59148.2
314902
41915.1
61439.6
86124.8
343200
141426
58997.2
54191
360024
53446.1
53882.1
67552.9
52217.5
71456.3
49671.4
46916.7
72332.7
109420
58876.9
59273.5
397091
296923
359072
68241.5
58209
75739.6
98525.2
63268
233413
400452
65291.2
68164.6
76669
75053.4
59893.4
57412.2
59855.2
59830
216167
332814
61805.7
78414.4
72055.4
169539
85190.5
210758
131727
62259.2
121979
51806.2
70931.8
291184
82349.4
58271.3
77066.4
82757.6
256977
51824.7
73817.9
107626
56323.6
65650.3
61004.6
81489.5
54521.1
99308.1
208351
316338
63578
58721.4
55644.5
70843.8
72407.2
257192
72724.4
148818
74629.5
80434.6
62276.4
62530.9
185177
56512.4
92836
315314
57830.2
80583.9
58605.6
74989.5
84032.6
394973
188605
66290.3
54634.3
79540.1
56354.1
101457
72968.8
60150.8
69316.2
67395.1
69538.8
56216.9
48402.7
114608
60544.5
66710.4
286941
58212.3
309197
103335
58738.6
257593
489592
339713
60893.8
155675
103376
60017.7
72465.5
72198.5
102393
332433
73170.1
73266.9
264733
189026
349828
49425.6
43456.6
56060.4
57313.6
73361.2
58060.8
85545.6
51518.1
57913.3
62221.5
79804.6
62740.3
71484.6
99065.6
346884
73659.9
89275.6
78060.8
58953
53677
52702.1
95898.6
282606
373249
55893.7
62906.9
281210
311769
93746
185353
149133
128633
63671.9
61290.8
61661.9
143789
146083
161268
54621.3
77508.5
82486.5
66515
77595.4
206604
58316.9
114404
58157.9
54843.3
80335.8
62481
81279.9
69223.2
84686.3
7912.94
2305.69
82725.2
438801
61840.8
51331.9
81988.7
76435.7
83522.8
53228.2
63222
74384.6
84303.2
56036.8
71657.2
73873.3
83486.2
62733.5
50759.2
59973.1
377167
373424
71258.2
87097.9
71843.9
65351.7
128749
99780
345799
63045.4
57270.8
80467.4
51741.8
72439.4
67980.9
83607.5
84485.6
90628.8
64550.1
67385
53107.2
56745.4
161823
71449.7
52748.6
54012.5
80681.9
68460.6
348752
47833.4
282512
220508
134492
139884
78381.3
71990.9
80495.7
69294.4
61017.8
78482.9
126455
152749
81504.8
364375
84630.3
83608.9
65391.9
182960
64531.8
61911.3
138755
56735
68309.1
64428.5
64221.4
67899.8
67786.8
92617.9
67351.5
53016.3
47386
65567.9
103742
66312.8
76707.5
61134.2
60453
55780.1
58210
317720
75312.6
55338.8
54331.7
66166.4
69247.4
236731
57904
51819.8
54698
63347.8
57394.9
62160.3
58891.7
60646.1
68839.9
78270
79272.4
417911
82458.7
76781.8
352764
61874
55134.3
101322
137790
206339
75930.5
78140.6
63211.8
57925.6
72622.2
65930.4
211990
60551.2
66024.4
77496.1
76291.4
80800.9
69517.1
113067
73001.8
57854.7
71251.1
47092.8
62301.2
80917.3
79437.7
68405.7
68719
57422.5
48491.2
54081.9
61762
58440.6
152659
82276.6
81391.5
163130
199097
119762
457862
61973.3
68703.8
134191
427342
59612.1
61157.2
353229
129458
115895
62505.9
274794
76839.7
344645
56649.4
81308.7
52968.3
55859.2
60166.9
76556.4
65130.5
74840.2
156573
61316.8
60873.4
75048.9
59772.1
82864
53311.6
92082.9
102611
109152
352400
55742.9
83902.5
341022
80730.9
69868.8
65596.9
71531.2
70911.1
262376
202829
108126
113540
103492
198186
60432.9
59985.7
81505.3
78411
134305
296337
362009
228835
427541
75382.1
76451.5
51253.5
55011.7
47896.3
67797.5
63776
68206.4
219957
60981.8
58893
50220.9
64228.1
96278.9
154718
86800.5
56995
92131.6
75953.7
61412.7
305364
56596.5
70344.9
78823.8
67585.8
57736.4
69534.6
181553
151747
165288
97099.6
104640
51629.8
113133
58115.6
66789.8
104970
55690
458363
62799.4
370591
93151.3
107888
54219.9
109870
122475
73438
64624.8
64458
410882
61643.3
50365.1
69386.4
53986.5
65202.5
112280
48846.3
302301
68450.5
61186.3
86070.4
68758.3
70509.3
55236.4
55754.9
56878.3
47493.4
50170.5
51208.2
64920.2
53447.5
57021.7
97438.2
9139.01
79119.5
69821.7
66574
67216.1
70885.9
69246.2
96835.9
72409
55882.7
49401.1
71751.3
96973.2
60741.4
77384
55990.9
68805
84671.3
50451.3
48821.8
53993.8
65026.7
59074.1
142800
61677.4
56325.9
149799
199946
70464
78450.2
72475.2
64983.6
59506.5
154164
54105.1
51573.1
57042.2
166860
57489.3
79368.5
154469
61026.8
74008.9
60303.1
52096.3
69382.2
92730.5
85477.3
84847.1
95534.4
174290
346547
409490
61026.4
63445.6
114831
106226
159735
83172.5
190531
148546
400063
431923
319372
63471.8
73788.8
56444.3
202975
79637.5
70943
147307
68391.5
81239.1
165720
169961
75116.3
119825
351035
222580
186542
192752
428644
263181
153792
204862
74742.6
70609.9
109547
206050
132041
65260.3
60951.2
70632.2
67808.4
83389.8
80809.3
61183.1
55859.8
144572
100583
66078.9
56368.7
122551
78763
92438.9
108442
453084
60469.1
56952.9
129685
51935.2
93808.5
64935.3
81156.3
369149
2894.76
29364.2
28669
5957.79
57155.1
144087
50654.9
58390.8
72271.4
74341.3
181581
99393.6
75111.9
285046
278922
54775.1
103198
63140.2
107442
117741
66774.1
296907
61041.3
72831
66818.2
66402.5
86314.2
63513.2
46790.9
45201.6
65686
72061.8
99672.9
71342.6
63959.3
55980.4
65870.7
49429.7
57587.7
67645.9
82747
53853.2
46479.8
56017
48026.1
49907.1
71498.3
72836.8
52748.8
72778.5
60771.4
86098.9
115171
121112
60461.7
56780.7
57159.7
60232
125421
55734.1
61330.2
310270
142915
48855.2
40614.3
61794.6
80029.1
70671.6
50228.8
59983.4
80889.5
134359
104826
53079.8
58263.8
79711.1
70399.7
201435
76929.7
79281.9
81385.4
71917.8
102298
84489.8
119019
58098.8
48704.5
103459
54440.4
101940
66181.2
62120.3
403763
303153
55609.3
63549.2
51190.7
49572.9
220867
102866
82528.8
81202.3
58187.6
67170.6
61378.5
64398
383976
64272.1
83726.6
67030.8
60373.7
69200.5
73130.2
76289.6
56617.5
65416.1
392701
69015.2
82087.6
131439
128425
56499.7
71894.3
61027
79070.5
155160
213471
58174.4
59663.1
275061
140995
65835.1
58978.8
75532.3
58294.8
54105.2
55441.1
57695.9
107692
59666.8
47014.9
67436.6
54525.9
68243.8
67374
86618.8
345084
293267
80538.4
47441.9
53902.3
63012.5
77703.1
65856.8
189546
49292.3
52045.6
91329.6
87166.5
58835.3
63446.4
81460.2
76680.9
61299.7
58773
59246.1
51809
114204
331680
394727
165508
68195.1
46943.7
51206.7
60915.2
104890
173458
72684.5
212986
116556
60806.3
51447.9
68693.4
69399.8
61381.2
65221.5
69509.3
49658
76625.6
62377.9
50680.9
61991
77214.6
60193.4
58067.5
55636.7
57078.4
65545.9
63137.7
44055.8
50383
42364.4
49111.4
60276.9
68764
82766.4
74016.9
78535
60641.3
232977
52125.8
78291.2
53875.8
65391.3
48275.7
48680.9
76129.1
70848.2
88726.8
70491.8
67150.8
57671.5
63922.9
59036.1
114811
62636.1
69543
114110
117292
59463.4
57159.6
49339.6
72584.1
65582.5
69881.8
238264
55103.1
59895.9
202662
60267
60081.8
46817.6
81065.8
73132.3
60839.1
51945.2
147830
56051.3
102578
62493.8
54210.2
71209.2
57868.3
71419.1
164486
211801
76855.8
88844.2
62054.4
198569
308673
238152
60055.3
69169.9
82137.1
52560.2
49909.8
54465.9
56451
68674.1
85962.7
59788.1
48134.9
52368.2
90281.6
78370.4
62406.1
375660
62506.6
117179
60254
63045.1
54000.9
66489.5
79065
330718
45920.3
56565.2
69412.7
74596
70555.6
6567.54
2192.78
68921.6
119782
63979.8
82632.9
68383.2
120931
62290.2
64936.6
65631.3
101248
72953.2
77331.2
71069.8
59425.2
87811.2
58339.6
61584.6
65486.6
68963.6
59226.3
73919.8
338231
134147
71176.6
82671.8
68414.8
451040
188339
92051.2
57980.9
53713
60979.4
54665.5
61228.9
41638.5
48997.8
213060
154523
76248
215331
409260
206062
190784
173709
81422.7
303764
56555.2
68623.9
59724.6
84989.4
53369.1
74178.1
67174.1
96815.6
81633.8
47624.3
75267.9
167190
52355.4
64644.1
86104.1
120994
63958.7
67056.3
66592.1
67176.9
46190.7
73622.2
122082
4439.81
48789.1
47653.6
2461.53
83439.9
65492.9
63841.2
72928.4
54426.8
59183.6
84723.6
114136
329563
54979.7
58141.7
62070.7
55025.3
230496
238189
41395.7
111510
87942.8
83856.3
60844.3
56339
122492
251835
54333.7
57807.8
81837.3
210810
83352.1
55062.7
74483.8
64107
47044.4
59490
58567.3
156186
152615
58345.1
56502.6
136194
127430
106781
66673.8
56308.3
54784.4
84260.7
53645
52500.2
62055.6
111459
51532.7
62624.5
49596.9
58891.3
54247
60282.9
55171.6
107232
48778.7
60446
51457
63156.6
74960.2
112100
55206.9
57975.6
55479.7
64242.2
51208.4
64285.8
54883
65456.2
121125
442605
58505.9
60485
97486.6
99824.4
54819.4
79319.3
45240.7
4310.63
44183.6
3884.71
73163.4
67680.7
54875.5
47637.8
73284.5
66157.7
56412
278981
57028
78155.7
130587
270941
67102.7
85165.8
64638
356850
353214
319300
58473.4
133304
130877
53356.7
58702
106926
62783.4
53751.9
72213.1
71700
64053.1
442702
127674
354229
64483.1
78500.4
85317.9
57771.1
68200
340876
63929.9
176933
70310.9
127557
313514
52119.2
86939.5
77659.5
97186.7
88053.6
69090.2
59950.4
49102.8
61420.9
73403.3
74337
52532.8
56871.8
68154.2
71603
86545.9
68909.9
62386.5
263103
356947
400582
50817
58055.5
71392.8
75443.8
57144.5
48910
56742.4
352559
401341
195823
350914
12499.8
334189
244855
52693.7
48639.9
65655.4
53878
100581
168634
124718
54403.4
266889
62114
87407.5
68652.6
92272.5
64434.5
63653.9
68287.8
79226.6
83449.3
69333.5
72455.1
51466.6
56108.5
63735.8
60713.8
75425.8
79138
91479.8
99340
76807.4
79112.9
52535.5
66993.8
77250.9
51854.8
252979
272859
78624.2
94829.2
153037
66790.3
117065
65270.2
78853.9
277205
56188.5
64946
61563.3
143463
395207
192900
46252.7
365864
77416
63348.8
70466.4
154774
63719.9
194497
224169
54885
87829.3
79238.7
84804.7
59136.4
384088
55033.5
53783.2
62101.6
78132.1
101357
54811.5
65761.9
155944
57014.5
195715
70674
124384
54563.7
55994.8
153746
56040
60186.4
63638.2
88171.6
58740.7
120168
61944.2
53548.1
46674.1
50004.1
109456
72027.3
51877.5
60320.5
59464.3
59729.7
364842
90773.9
296652
54890.5
81917.1
60572.6
1594.1
12205.5
123022
44990
279241
60571.2
78487.9
64706.6
72192.2
56641.8
148488
62893.2
102861
62931.6
50647.2
163480
74958.5
52978.9
48952.7
64109.2
52917.1
46065.4
69876.8
60253.1
139822
61209.2
81115.6
59149.7
272858
62924.6
65215.5
58686.7
66153.9
133852
371115
120872
142836
353322
99236.3
150792
337830
159063
224746
106060
201746
68193.3
173867
48944.7
53300
75764.6
2799.91
29172.3
28476
4901.83
63951
309629
53567.2
137360
147279
54268.3
53033.9
50227.6
58256.4
54656.4
77924
73220.6
59733.2
57129.2
61851.3
60555.3
67474.1
71699
79913
65995
59028
49578.1
73925.7
60127.1
71497.4
66350.9
65723.6
76680.3
67355
62869.9
71853.2
60560.9
334462
177063
63041
57927.2
48075.5
76980.4
84937.4
210497
203455
144896
90080.8
87842.7
307542
165769
84517.8
51773.9
70125.8
58534
74381.5
74797.9
62674.2
50812.7
115651
440315
229006
88506.1
63363.5
65629.4
67940
73884.5
54681.4
63132.1
82982
86764.6
53379.4
55449.4
56816.9
72354.2
335414
311812
55388
113548
56150.1
83170.6
80211.3
64647.1
129571
301162
55615.3
55198.2
54455.9
47501.7
81323.1
50785.4
85657.4
74037.1
60117.9
57550
464733
357748
58184.2
66641.2
67609.4
63841.1
60427.2
69232.1
97178.8
47247.7
50889.8
184467
73101.8
56788.6
64114.3
79727.8
62451.6
291825
64198.3
157285
60618.8
318898
53152.2
60094.7
48538.5
453443
71152.8
53666.7
73256.6
48953.3
66350.4
65288.1
105119
56206.9
49401.4
58126.9
55092.3
74781.4
61554.2
106443
65563.7
63111.1
66396.3
59841.5
54976.4
63118.9
57801.1
55135.1
63000.3
76142.6
149375
132419
352602
345182
383932
125496
218392
192150
84564.8
58811.7
61368.4
224221
209659
67741.1
334495
164645
13084.2
54617.1
60616.4
36777.8
265606
105786
78312
43585.7
367078
317034
80399.1
57858.7
61189.9
106522
100758
64989.1
67766.1
62139.8
70338.9
69443.4
72156.8
74061
73469.7
49667.7
445858
206175
298347
350420
109537
63273.2
114202
47702.2
53413.6
63992.1
67136.2
280208
58731.4
175476
355558
112526
64602.5
351942
59095.8
62843
66538.6
72297.2
93919.4
91998.8
92320.6
77002.4
61307.6
75097.3
71579
83351.4
65237.2
54977.1
70280.5
435192
82553.3
59263.1
65058
52901.4
57711.4
55997.6
75206.8
56763.5
103565
61431.6
66723.6
46253
50005.1
94600.7
58090.5
68137.2
64246.3
64307.3
76079.1
86078.8
76854.4
60333.1
67915.8
49613.9
58901.9
192497
52962.1
47359.7
281640
83497.5
62675
77437.9
78531.9
79806
67436.3
70292.4
369483
84594.1
72819.4
82287.6
82795
77404.9
70608.5
117673
76189.7
81048.5
174529
243460
55484.1
52285.8
56355.7
81729.8
120952
341842
308867
229033
84410.4
51093.6
178129
83446.4
81169.6
406961
108492
228304
47050.6
132612
55276.9
86148.8
76809.1
236381
95728.5
63558.1
65954.8
69779.8
83365.4
59778
38586.9
49115.6
350311
59941.9
51359.3
145955
57854
64217.5
73712.4
91934.9
66355.1
73288
88357.6
54480.1
58096.9
5701.45
56749.3
3961.2
86762.9
172965
63960.1
63533.6
66572.4
52936.7
46268.3
65462.6
266205
182606
57937.7
133471
57335.8
62104.7
37321.6
3527.68
36444.3
3786.97
177244
151439
49287.8
68386.6
61904.7
67323.3
376314
56890.8
67329.3
47212.2
52530.4
77512.8
7767.72
209054
59297.8
256770
65549.3
62311.7
82244.9
59470.6
66895.8
56294.8
86129.9
76600.5
62663.2
72148.2
76567.7
92673.6
95069.4
63939.3
61417.5
66547.9
68244.3
89972.1
67577.4
69852.5
77707.3
109801
2745.94
10235.6
107259
52959.5
57198.2
54836.7
50069.2
64218.3
347647
401948
57589.1
78202.5
64166.7
71421.1
50502.3
5034.39
49332.2
4407.03
92666.7
62176.1
59275
375803
374474
178363
318689
56933.5
51746.5
58063.8
57825.5
337707
68840.4
77639.7
54852
56119.4
74391.2
60876
55513.4
51644.9
182076
198933
55715.3
40986.3
62767.3
70137.5
81414.4
91393.1
55391.7
64653.2
334441
68259.7
84282.8
87571.5
58788.9
57788.5
64541.7
52696.5
59223.7
55215.4
66348.1
54053.5
145495
62484.8
94205.9
35705.5
54108.4
57815.3
55408.4
110749
125060
82318.2
103668
61894.2
127507
1648.01
21313.2
6261.23
20940
58093.1
68346.2
71960.6
370273
6795.53
367326
95917.2
8943.95
2902.44
93698.6
55231.4
30938.1
3439.66
30230.4
61708.4
121632
55043.1
379810
304008
12576.3
48520.5
67672.4
60746.6
85937.2
57784.1
61971.2
122372
181933
48377.2
56612.9
55906.8
65156.2
59766.6
58224.1
61144.5
61670.7
316371
65380.1
65102.8
60252.2
61731.8
236419
83084.4
55269.1
196469
271936
167951
57108.1
55964
65522.7
79056.7
63410.9
83203.8
63279.5
51685
79132.9
56993.9
208756
264078
47217
50683.1
59260.2
69072.1
112159
65598.7
60508.7
81566.3
88863.5
150494
67791.7
58995.4
277880
253094
62943.3
65264.5
48450.3
68625.7
56098.3
71001.6
72521.5
55331.4
49387.4
236717
114173
52918.3
38863.6
15590.9
67314.2
70777.2
49332.8
68449.4
57917.3
74234.2
355774
364142
83632.8
62528.5
50914
45991.2
286810
69713.7
84176.4
99030.8
369247
351905
49174.2
82407.7
72744.1
61908.1
60124
50706.1
71984.9
61073.1
79478.1
74162.2
49949
359024
80743.4
59299.8
59997.5
131876
95138.2
92811.3
74084.1
70449.7
62240.1
65430.6
94266.1
49619.2
59474.5
61076.4
79341.6
48516.9
52761.2
286119
133080
51575.8
74140
202645
422793
69595.2
51441.9
66421.5
47079.4
49887.4
104683
80220.6
68597.1
108144
75400.1
96132.8
68055.3
59438.9
67471.4
166551
61081.6
65319.9
84826.1
61052.8
59817.1
61732.9
72688
44648.9
52029.3
76197.4
72005.7
82568.6
78372.1
74655.2
56192.7
58801.5
82591.6
59094.7
83994.6
52198.8
55886.9
364476
326124
283714
65257.5
81625.2
74650
64311.3
54666.4
66372.6
80977.8
40237.6
225625
59885.4
56154.3
57054
57581.3
129300
363044
57448.8
57274.4
53932.6
65564
321675
55103.6
88596.8
59862
57177.3
60138.1
53495.5
71300.6
58139.6
77000.3
240412
79151.4
29174
3510.78
28503.6
234893
165842
256052
333962
320612
87179.8
366812
170309
3175.99
23238.4
67841
82959.9
59999.7
64828.4
79535.9
114217
63742
120581
59415
63060.4
68605.8
58012.3
50519.1
70587.7
80938.4
62472.1
52540.4
186421
23770.6
232435
115562
41015.7
96215.4
54089.1
62478
58593.6
60046.9
51181.2
50468.2
103585
56876.5
116169
122346
51843.7
83188.6
54744.8
203093
70058.2
67776.9
78818.1
61928.7
78864.5
327404
63733.6
78609.6
103306
248781
113954
49236.4
63516.7
60890.9
70615.7
51844.9
64866.1
72939.1
74460.2
1866.49
14907.3
71114.4
63069.6
64906.7
86737.6
52105.8
63787
64985.2
66090.6
99243.3
70137
65151.4
59114.2
98528.9
55103.1
50000
93649.4
79513
72577.7
64599
92725
64598.8
80596.6
47310.3
72749.3
98788.6
64122.9
56729.6
56423.5
67070
74912.1
55616.3
49426.1
82344.7
72374.3
50002.4
116419
69029.5
65721.6
69584.5
66947
83520.8
77979.6
50672
56792.1
129925
60640.8
57354.5
100402
49715.8
52591.7
67595.2
60327.8
56488.7
74011.9
91585.3
76275
64470.7
47532.6
47548.7
69194.4
73962
53396.4
44513.8
162592
144381
73238
87947.3
325138
82453.8
81243.9
59077
59944.9
75416.1
73677.7
60915.8
50923.9
56329.3
49394.7
103435
72435.2
65028.7
71821.4
219024
70920.5
59056.3
74926.9
60446.3
53486.6
54676.3
61224.3
62040.1
254068
202740
57098.5
64007.7
82621.7
114336
111202
67656.1
61926.2
56695.8
85068.8
57742.6
70738.9
347285
58103
50658.7
60294.7
54873.2
56872
18304.1
47622.8
55838.6
76323.2
59535.6
75892
55752.3
63270.2
81239.8
345667
59158.6
97266.4
57582.5
270023
54687.5
53978.9
59499.2
69293.8
102696
65557.8
73738.7
63438.2
57009.3
57283.5
99269.7
53859.5
36127.2
40951
102750
68424.3
82205.6
60623.3
69948.5
57797.2
69861.6
76767.8
53255.5
62374.6
48392.4
47406.8
255263
58392.1
449922
49986.4
122086
244365
80142.2
75816.8
191606
54943
54411.4
191012
80982.3
63618.3
61430.3
51030.4
78296.1
76826.7
109338
49751.6
140093
133544
45735.8
67061.6
61020.6
61961.1
62995.5
66422.2
67661.2
63457.7
63376.8
92089.6
69976.3
91878
46354.2
51863.7
47539.7
53056.8
178751
147316
63100.5
341990
79972.7
81164.2
104304
330936
78182.3
58475.3
60890.6
74859.6
69121.8
86800
88543.2
60379.8
216790
69133
63376.3
78668.9
78533.3
108527
78165.7
103285
103294
145423
60941.3
74669.9
75616.3
63947.2
82288.9
66556.4
53958.7
49115.7
399648
99569.8
72126
60355.5
59014.6
67425.9
58932.4
54027.1
159116
54048.6
78933.3
82897.3
84758.5
43358.2
357396
56771.7
53875.2
100653
64272.2
80499
308774
160155
143086
62176.3
84722.9
282916
93089.5
98526.6
59341.6
121192
111608
46664.9
52361.1
224195
166682
208033
178798
242722
118674
53734.6
56153.9
45026.8
48529.6
225031
60692.2
76516.8
74586.9
76168.1
73350.8
65845.9
48459.6
49220
64667.8
89471.1
8372.49
1158.2
87408.6
83213.5
50511.2
167475
55966.9
61089.8
57163.1
61250.6
61251.6
61786.8
63156.5
74519.9
75473.6
59185
77451.6
54109.2
58303.2
62680.6
52203.5
253683
207399
54799.9
51527.4
56208.4
317686
57751.4
65494.9
64945.6
90409.7
65119.8
123348
69564.5
61838.2
49574.7
53354.9
75296.5
113134
64472.3
59327.2
63044.3
66087
75109.2
127574
57014.7
199282
194686
293327
72664.9
101570
130473
76084.5
68499.6
47330.9
56508.5
207409
62679.4
60782.8
114999
125072
287901
48959.9
60425
73260
68805
73696.7
59662.1
94089.5
114054
94257.6
78620.6
82980.3
77173.4
206002
60935.5
58877.9
132430
128028
63789.2
63444.5
61274
58371.9
80121.2
81215.3
135469
152000