/*--------------------------------*- C++ -*----------------------------------*\
| =========                 |                                                 |
| \\      /  F ield         | OpenFOAM: The Open Source CFD Toolbox           |
|  \\    /   O peration     | Version:  2.3.1                                 |
|   \\  /    A nd           | Web:      www.OpenFOAM.org                      |
|    \\/     M anipulation  |                                                 |
\*---------------------------------------------------------------------------*/
FoamFile
{
    version     2.0;
    format      ascii;
    class       volVectorField;
    location    "1240";
    object      D;
}
// * * * * * * * * * * * * * * * * * * * * * * * * * * * * * * * * * * * * * //

dimensions      [0 1 0 0 0 0 0];

internalField   nonuniform List<vector> 
11800
(
(5.07133e-06 0.000148582 0)
(-6.49208e-06 0.000165232 0)
(3.63212e-06 5.13175e-05 0)
(-4.17424e-06 6.92671e-05 0)
(-5.93432e-06 0.000164957 0)
(-2.71562e-06 6.93996e-05 0)
(-1.01269e-06 0.000112175 0)
(-9.69045e-07 8.70063e-05 0)
(4.38706e-07 1.39248e-05 0)
(7.67153e-07 5.31801e-05 0)
(5.6351e-06 0.000148237 0)
(-5.21503e-06 5.9281e-05 0)
(-5.51263e-09 -4.38645e-09 0)
(3.22562e-06 5.10158e-05 0)
(-3.70567e-06 6.95516e-05 0)
(3.72532e-06 8.60869e-06 0)
(-5.81755e-07 0.000111856 0)
(-5.66622e-07 8.67023e-05 0)
(2.41419e-07 1.40763e-05 0)
(4.6285e-07 5.29235e-05 0)
(-3.19043e-06 6.91504e-05 0)
(-4.78065e-06 5.95107e-05 0)
(-8.36445e-07 3.09129e-06 0)
(-8.92189e-07 3.21729e-06 0)
(3.31245e-06 9.81417e-06 0)
(-1.32897e-06 5.08855e-06 0)
(-5.17916e-06 3.58357e-05 0)
(7.26016e-06 0.000100795 0)
(-4.64925e-06 2.73576e-05 0)
(-4.05804e-06 1.98068e-05 0)
(7.67175e-06 0.000126762 0)
(2.95654e-08 2.41518e-06 0)
(1.7059e-06 6.51598e-06 0)
(-3.96203e-06 0.000169489 0)
(3.14576e-06 0.000168737 0)
(-8.81352e-06 0.000135194 0)
(2.92785e-06 0.00016931 0)
(1.67792e-06 6.69638e-06 0)
(-9.90394e-07 0.000118335 0)
(7.66628e-07 5.82603e-05 0)
(-5.09123e-06 3.62277e-05 0)
(-4.57479e-06 2.771e-05 0)
(7.0923e-06 0.000100233 0)
(-3.99763e-06 2.01185e-05 0)
(7.50079e-06 0.000126172 0)
(3.55198e-06 8.67669e-06 0)
(9.47152e-07 3.65089e-06 0)
(1.057e-06 3.59335e-06 0)
(-1.53621e-06 0.000118434 0)
(1.21068e-06 5.834e-05 0)
(-8.41876e-06 8.81291e-05 0)
(-8.95778e-06 0.000113302 0)
(-8.58643e-07 0.000147024 0)
(4.35905e-08 2.29354e-06 0)
(-4.5792e-06 1.02234e-05 0)
(6.36463e-07 5.46975e-07 0)
(-1.09942e-05 0.000171777 0)
(-2.83784e-06 4.94533e-05 0)
(3.14591e-06 7.13919e-05 0)
(-2.07208e-06 4.75581e-05 0)
(1.2623e-06 1.72702e-06 0)
(-1.44962e-06 0.000147132 0)
(-2.47162e-06 4.93447e-05 0)
(2.7389e-06 7.15207e-05 0)
(3.10262e-06 9.66712e-06 0)
(-1.04942e-05 0.000152174 0)
(-8.73335e-06 8.77539e-05 0)
(-9.324e-06 0.000112892 0)
(-1.04439e-05 0.000171504 0)
(-1.39378e-06 5.25119e-06 0)
(-3.53627e-06 0.000169957 0)
(-6.2135e-06 0.000169052 0)
(-6.39304e-06 0.000168462 0)
(-6.0962e-08 7.12239e-08 0)
(1.34799e-06 1.80006e-06 0)
(-8.30405e-06 0.000135565 0)
(4.041e-06 1.34825e-05 0)
(-1.0664e-05 0.000152732 0)
(-8.49914e-06 0.000153999 0)
(-7.94309e-06 0.000154504 0)
(-4.36625e-06 1.00864e-05 0)
(6.04354e-07 6.04358e-05 0)
(5.78449e-06 0.000167749 0)
(5.15917e-06 0.000167851 0)
(-7.93362e-07 6.20676e-05 0)
(-3.88986e-06 2.22508e-05 0)
(6.9336e-06 0.000122259 0)
(-4.40714e-06 3.01197e-05 0)
(-4.87409e-06 3.88971e-05 0)
(6.53992e-06 9.65183e-05 0)
(-2.28845e-07 0.000143906 0)
(1.81568e-06 6.19871e-06 0)
(-5.29434e-06 0.000154973 0)
(1.08328e-05 0.00017307 0)
(1.70535e-06 7.61242e-05 0)
(-1.46918e-09 -1.11671e-09 0)
(3.78451e-11 -2.36195e-10 0)
(1.46248e-09 -1.11153e-09 0)
(-1.52035e-07 0.000148797 0)
(-4.94997e-06 6.05571e-05 0)
(9.31764e-06 0.000172461 0)
(5.69302e-06 6.63679e-05 0)
(-2.21068e-06 9.0022e-06 0)
(-5.07615e-07 6.98016e-06 0)
(-3.42603e-07 0.000164231 0)
(5.83919e-07 1.45536e-05 0)
(-1.23475e-06 8.57666e-05 0)
(-1.27688e-06 0.000110807 0)
(1.94784e-06 3.41276e-06 0)
(4.3975e-06 3.01049e-05 0)
(3.88441e-06 2.22373e-05 0)
(4.86168e-06 3.88802e-05 0)
(-7.10173e-06 0.000122275 0)
(-6.70213e-06 9.65389e-05 0)
(1.00031e-06 5.21257e-05 0)
(1.54103e-06 3.11686e-06 0)
(1.03292e-05 0.000152785 0)
(-4.27848e-06 0.000156754 0)
(1.57027e-06 3.00451e-06 0)
(-7.51682e-07 5.3824e-05 0)
(-4.63434e-07 1.35642e-05 0)
(9.14693e-07 0.00011298 0)
(8.70567e-07 8.77302e-05 0)
(-1.34554e-06 0.000108455 0)
(-5.32858e-06 0.000155546 0)
(-5.02194e-07 0.000148342 0)
(-3.43667e-06 0.000164295 0)
(-8.28803e-07 0.000163856 0)
(-1.17985e-05 0.000177377 0)
(-1.22195e-05 0.000176954 0)
(-3.77182e-07 1.72325e-07 0)
(-1.67739e-06 4.0271e-06 0)
(7.11581e-06 0.000118708 0)
(-4.16553e-06 2.42805e-05 0)
(6.68969e-06 9.31741e-05 0)
(-4.68505e-06 3.24025e-05 0)
(-5.15424e-06 4.14099e-05 0)
(6.56276e-06 0.000118814 0)
(-3.8403e-06 2.42101e-05 0)
(6.17026e-06 9.32724e-05 0)
(-4.32043e-06 3.23252e-05 0)
(-4.75409e-06 4.13263e-05 0)
(-1.03745e-06 1.25814e-05 0)
(2.28335e-06 0.000115093 0)
(2.13708e-06 8.9773e-05 0)
(-1.89583e-06 5.55315e-05 0)
(8.99731e-06 6.07964e-05 0)
(-9.01053e-06 5.95064e-05 0)
(5.59838e-06 6.68362e-05 0)
(-7.0702e-07 7.39985e-06 0)
(-5.88797e-06 0.000143256 0)
(-5.83747e-06 0.000143999 0)
(2.81688e-06 0.000167468 0)
(-6.58021e-06 0.000135377 0)
(2.59762e-06 9.64729e-05 0)
(2.81137e-06 0.000122197 0)
(-7.33894e-06 0.000107995 0)
(-6.84067e-06 8.314e-05 0)
(3.59819e-06 1.60051e-05 0)
(-5.7561e-07 0.000144435 0)
(2.11833e-06 3.47197e-06 0)
(-6.01689e-06 0.000135508 0)
(4.22944e-06 1.36734e-05 0)
(-2.77002e-06 4.04446e-05 0)
(-2.51227e-06 3.15186e-05 0)
(-2.22698e-06 2.34864e-05 0)
(3.62556e-06 9.43535e-05 0)
(3.85292e-06 0.000119968 0)
(-1.8898e-06 2.39786e-06 0)
(-3.33253e-06 1.54104e-05 0)
(6.77733e-06 0.000109163 0)
(6.31117e-06 8.42391e-05 0)
(1.48539e-06 0.000110688 0)
(-1.00358e-05 0.000134578 0)
(-1.01366e-05 0.000135368 0)
(3.81705e-06 9.82954e-06 0)
(3.81978e-06 1.00957e-05 0)
(4.07143e-06 2.92552e-05 0)
(4.51064e-06 3.79428e-05 0)
(3.58609e-06 2.14832e-05 0)
(-6.30404e-06 9.78061e-05 0)
(-6.67246e-06 0.000123628 0)
(2.64339e-06 9.58845e-05 0)
(2.82741e-06 0.000121593 0)
(2.91596e-06 5.92793e-05 0)
(-1.44291e-06 5.54098e-05 0)
(-7.92576e-07 1.2645e-05 0)
(1.7196e-06 0.000114942 0)
(1.60834e-06 8.96319e-05 0)
(-2.3202e-06 0.000141338 0)
(-8.25256e-07 2.59663e-05 0)
(-9.2418e-07 3.42982e-05 0)
(-8.64155e-06 0.000151025 0)
(-2.63255e-07 6.09319e-06 0)
(-8.42539e-06 7.2512e-05 0)
(7.29605e-06 4.86224e-05 0)
(9.15943e-08 9.16821e-08 0)
(-5.18866e-06 0.000169755 0)
(1.0257e-05 0.000153388 0)
(-3.28506e-07 2.01697e-07 0)
(6.74195e-06 0.000160628 0)
(8.43329e-06 0.0001377 0)
(9.04801e-06 0.00013781 0)
(-3.05575e-07 0.000165049 0)
(-7.29557e-07 0.000165568 0)
(4.87174e-06 4.74817e-05 0)
(4.29903e-06 4.76866e-05 0)
(-5.75512e-06 7.3713e-05 0)
(-5.07504e-06 7.34621e-05 0)
(3.6983e-07 1.69077e-07 0)
(-1.01704e-06 8.84898e-06 0)
(-1.1518e-06 4.98189e-06 0)
(-2.74999e-08 1.04319e-08 0)
(3.47171e-06 5.87983e-06 0)
(-8.55854e-08 2.73814e-08 0)
(4.4359e-07 4.89488e-06 0)
(-5.87987e-06 0.000164195 0)
(-2.97936e-06 2.173e-05 0)
(-3.37368e-06 2.95424e-05 0)
(-3.7368e-06 3.8263e-05 0)
(5.33633e-06 0.000123146 0)
(5.05187e-06 9.73628e-05 0)
(3.11761e-07 0.000114734 0)
(2.88876e-07 8.94353e-05 0)
(-1.74113e-07 1.2734e-05 0)
(-3.22309e-07 5.52495e-05 0)
(-1.25776e-07 2.09473e-08 0)
(4.48114e-07 1.58493e-05 0)
(-9.22245e-07 8.32935e-05 0)
(-2.72676e-06 5.34172e-05 0)
(6.32039e-07 1.56214e-05 0)
(-1.28317e-06 8.37221e-05 0)
(-4.03167e-06 0.000155525 0)
(4.98922e-06 5.96998e-05 0)
(4.647e-06 5.92548e-05 0)
(2.72282e-08 1.03398e-08 0)
(1.24926e-07 2.08208e-08 0)
(-7.77849e-06 0.000144957 0)
(-7.48463e-06 0.00014556 0)
(-7.49511e-06 5.07943e-05 0)
(8.29117e-06 6.99989e-05 0)
(6.55487e-06 0.000123575 0)
(6.18895e-06 9.77605e-05 0)
(-3.61985e-06 2.15153e-05 0)
(-4.11385e-06 2.92896e-05 0)
(-4.55921e-06 3.7981e-05 0)
(-2.787e-07 0.00014776 0)
(-3.08322e-06 1.47569e-05 0)
(6.40383e-06 0.000110494 0)
(5.97149e-06 8.54787e-05 0)
(3.97686e-06 6.03061e-05 0)
(3.29061e-06 0.000139509 0)
(5.19114e-06 0.000173274 0)
(5.7022e-07 4.82496e-06 0)
(-2.01287e-06 4.80323e-05 0)
(-1.03179e-08 1.81193e-06 0)
(8.48855e-08 2.71808e-08 0)
(1.87603e-06 5.06047e-05 0)
(1.6106e-06 5.00913e-05 0)
(-2.08319e-06 7.01277e-05 0)
(-1.78948e-06 7.06309e-05 0)
(3.67998e-06 3.825e-05 0)
(3.32399e-06 2.95308e-05 0)
(2.93096e-06 2.17235e-05 0)
(-5.13719e-06 9.73633e-05 0)
(-5.43922e-06 0.000123162 0)
(-2.90009e-06 0.000169805 0)
(1.06494e-06 1.34056e-06 0)
(-3.51439e-08 9.88377e-05 0)
(-2.84691e-08 2.08246e-05 0)
(3.76367e-06 0.000163946 0)
(3.11961e-06 5.88625e-05 0)
(-1.20933e-05 0.000162035 0)
(3.58653e-06 6.07291e-05 0)
(1.53265e-07 1.1615e-07 0)
(9.88016e-06 0.000132948 0)
(9.93771e-06 0.000132218 0)
(-6.13694e-06 8.55855e-05 0)
(-6.57958e-06 0.000110603 0)
(-5.48657e-06 8.53761e-05 0)
(-5.88354e-06 0.00011038 0)
(3.07913e-06 1.47025e-05 0)
(2.75839e-06 1.47984e-05 0)
(2.94095e-06 7.88023e-05 0)
(3.50479e-06 7.8713e-05 0)
(3.17354e-06 0.00010332 0)
(3.78342e-06 0.000103222 0)
(-1.73176e-06 1.83669e-05 0)
(-2.05931e-06 1.84251e-05 0)
(-3.76826e-07 8.39531e-06 0)
(1.85191e-06 5.39557e-06 0)
(1.73404e-06 5.21218e-06 0)
(1.77839e-06 3.962e-06 0)
(2.80782e-06 0.000140096 0)
(-9.87534e-06 0.00013319 0)
(-9.92823e-06 0.000132432 0)
(3.93368e-06 1.09558e-05 0)
(3.8584e-06 1.06495e-05 0)
(7.88951e-06 6.08107e-05 0)
(7.99373e-06 6.14734e-05 0)
(-7.90308e-06 5.94619e-05 0)
(-7.94693e-06 5.88094e-05 0)
(3.48423e-06 0.000167358 0)
(-9.69391e-06 0.000169504 0)
(-9.31671e-06 0.000143136 0)
(2.3729e-06 2.74674e-06 0)
(-5.70861e-06 0.000167412 0)
(-5.10156e-06 0.000166848 0)
(2.38567e-06 7.96784e-05 0)
(-1.53729e-06 7.18207e-05 0)
(1.32182e-06 4.90862e-05 0)
(-6.7776e-06 6.10334e-05 0)
(6.5809e-06 5.91854e-05 0)
(-3.36865e-06 1.07723e-05 0)
(-1.02495e-07 6.66123e-08 0)
(5.35663e-07 2.27145e-06 0)
(5.76085e-07 5.22863e-05 0)
(-5.73352e-06 5.2644e-05 0)
(6.06148e-06 6.78159e-05 0)
(-3.32247e-06 4.80506e-05 0)
(3.83509e-06 7.30424e-05 0)
(1.90414e-06 0.000125458 0)
(2.64108e-06 0.000125194 0)
(-1.21009e-06 2.80858e-05 0)
(-1.66168e-06 2.82509e-05 0)
(-1.34616e-06 3.66552e-05 0)
(-1.84736e-06 3.68376e-05 0)
(3.07059e-07 1.44562e-05 0)
(-6.90311e-07 8.59537e-05 0)
(-6.9602e-07 0.000111019 0)
(-1.1073e-06 0.000161265 0)
(1.62564e-06 3.93748e-06 0)
(-3.37172e-07 7.00275e-05 0)
(-4.62156e-06 0.000165241 0)
(6.86087e-07 5.6695e-07 0)
(4.07503e-06 9.92985e-05 0)
(-2.34647e-06 2.05999e-05 0)
(-7.03502e-06 7.07472e-05 0)
(-6.60999e-06 7.04043e-05 0)
(6.15229e-06 5.0099e-05 0)
(5.79644e-06 5.03955e-05 0)
(-6.90362e-06 0.000172201 0)
(-6.97917e-06 0.000171473 0)
(-1.22027e-06 8.44652e-06 0)
(-1.44507e-06 8.41488e-06 0)
(5.86595e-07 2.37903e-06 0)
(-1.40922e-06 2.46691e-06 0)
(2.92994e-07 7.33875e-05 0)
(2.08271e-06 1.49665e-05 0)
(1.74844e-06 1.50605e-05 0)
(-4.13688e-06 8.50128e-05 0)
(-3.47417e-06 8.48172e-05 0)
(-4.43672e-06 0.000109996 0)
(-3.72627e-06 0.000109787 0)
(-8.9414e-06 0.000138614 0)
(-8.27675e-06 0.000138668 0)
(-2.02895e-06 4.3122e-05 0)
(-1.88823e-06 3.39478e-05 0)
(-1.68563e-06 2.56535e-05 0)
(2.77976e-06 0.000129525 0)
(-5.2177e-07 0.000146352 0)
(5.91768e-06 5.91307e-05 0)
(5.59984e-06 5.96308e-05 0)
(2.56627e-06 0.00011241 0)
(2.46372e-06 8.72326e-05 0)
(-1.25182e-06 1.38197e-05 0)
(1.14494e-06 1.54396e-05 0)
(9.38576e-07 1.57345e-05 0)
(-2.05723e-06 0.000108434 0)
(-2.44071e-06 0.000108979 0)
(-2.27283e-06 8.4075e-05 0)
(-1.85892e-06 8.35152e-05 0)
(-2.47413e-06 1.41767e-05 0)
(4.88124e-06 8.65782e-05 0)
(5.22872e-06 0.000111675 0)
(-7.1344e-08 6.84241e-07 0)
(8.78218e-06 6.72356e-05 0)
(-8.1823e-06 5.33272e-05 0)
(-4.09954e-08 6.37241e-07 0)
(-2.66272e-06 0.000123552 0)
(-3.11671e-06 0.000124217 0)
(-2.4528e-06 9.7785e-05 0)
(-2.86626e-06 9.84164e-05 0)
(1.58825e-06 2.10916e-05 0)
(1.36458e-06 2.14541e-05 0)
(1.8597e-06 2.88544e-05 0)
(1.59192e-06 2.92641e-05 0)
(2.06222e-06 3.75058e-05 0)
(1.76325e-06 3.79594e-05 0)
(9.7818e-06 0.000138874 0)
(9.96456e-06 0.000139566 0)
(-1.00087e-06 5.02217e-06 0)
(3.66056e-06 9.97807e-05 0)
(-2.0977e-06 2.03216e-05 0)
(3.38249e-06 1.61405e-05 0)
(-6.40611e-06 8.28717e-05 0)
(-6.88877e-06 0.000107692 0)
(-9.98017e-08 3.04951e-08 0)
(1.23589e-06 0.000144621 0)
(3.34383e-06 1.54122e-05 0)
(-6.49271e-06 8.42367e-05 0)
(-6.97772e-06 0.000109136 0)
(2.60296e-06 4.58871e-06 0)
(-4.88516e-06 0.000156532 0)
(3.2261e-06 1.23521e-05 0)
(-7.6915e-06 0.000128979 0)
(-1.76092e-06 6.71265e-06 0)
(-1.87727e-06 6.95483e-06 0)
(1.8228e-06 6.88269e-06 0)
(-8.68669e-07 6.99218e-05 0)
(-7.0409e-09 -5.17826e-09 0)
(-5.18522e-06 0.000171271 0)
(-8.94366e-08 3.58993e-08 0)
(9.89456e-08 3.02602e-08 0)
(-2.53698e-06 1.49406e-05 0)
(5.21921e-06 0.000110076 0)
(4.86445e-06 8.50867e-05 0)
(4.00234e-06 0.000144845 0)
(-1.16441e-05 0.000155215 0)
(1.47491e-06 6.55579e-05 0)
(-1.00152e-06 6.38873e-05 0)
(-2.908e-07 7.02008e-06 0)
(-8.10096e-07 8.7245e-07 0)
(-5.08173e-09 -4.57391e-09 0)
(-2.98261e-06 4.84879e-05 0)
(3.43523e-06 7.2544e-05 0)
(2.763e-07 9.75582e-08 0)
(-4.22044e-07 6.29704e-05 0)
(-3.99962e-07 6.23774e-05 0)
(-3.98686e-08 5.30987e-05 0)
(-8.74548e-08 1.3993e-05 0)
(9.62878e-08 8.68668e-05 0)
(8.22065e-08 0.000112073 0)
(-2.78985e-07 9.84697e-08 0)
(1.09658e-06 7.58299e-06 0)
(-4.04216e-06 0.00012692 0)
(2.35996e-06 2.72136e-05 0)
(2.62888e-06 3.56848e-05 0)
(2.86947e-06 4.50078e-05 0)
(8.38184e-06 0.000164499 0)
(-3.29136e-06 1.33923e-05 0)
(7.19373e-06 0.000113436 0)
(6.72828e-06 8.8229e-05 0)
(-4.81054e-06 0.000151939 0)
(7.51782e-07 1.98879e-06 0)
(6.39772e-06 0.000149166 0)
(-1.50485e-06 2.42994e-06 0)
(4.47149e-06 0.000165143 0)
(-3.48928e-06 0.000126933 0)
(2.02878e-06 2.72025e-05 0)
(2.25999e-06 3.56731e-05 0)
(2.46832e-06 4.49927e-05 0)
(6.56449e-07 1.88627e-06 0)
(2.94523e-06 0.000102249 0)
(-1.6365e-06 1.8944e-05 0)
(-5.69349e-07 7.55284e-06 0)
(-8.48449e-06 0.000149686 0)
(-3.251e-06 4.05904e-05 0)
(-2.94954e-06 3.1652e-05 0)
(-2.61585e-06 2.36061e-05 0)
(4.23748e-06 9.42029e-05 0)
(4.50344e-06 0.000119807 0)
(1.15694e-05 0.00017419 0)
(6.7174e-06 0.000153179 0)
(7.45188e-06 0.00015292 0)
(1.0363e-07 7.46707e-08 0)
(4.26004e-06 4.82227e-05 0)
(-4.99623e-06 7.2832e-05 0)
(-2.21104e-06 4.88951e-05 0)
(2.49184e-06 7.20933e-05 0)
(-7.58711e-07 7.75084e-05 0)
(-5.81398e-07 0.000124341 0)
(3.3351e-07 3.7412e-05 0)
(3.01357e-07 2.87683e-05 0)
(1.44712e-09 2.04041e-05 0)
(-1.52524e-07 7.53752e-05 0)
(-8.72366e-08 9.96019e-05 0)
(5.27315e-06 0.000173958 0)
(3.11757e-07 7.77525e-06 0)
(-1.46307e-07 1.83834e-06 0)
(9.86093e-07 0.000105593 0)
(5.11501e-08 1.90019e-06 0)
(-8.51156e-07 5.83568e-06 0)
(2.04204e-06 2.03544e-05 0)
(-3.75459e-06 9.97171e-05 0)
(-8.16688e-08 9.38957e-08 0)
(-7.86123e-06 0.000149617 0)
(-7.03296e-07 1.37305e-05 0)
(1.35869e-06 0.000112658 0)
(1.35331e-06 8.73979e-05 0)
(1.9441e-07 4.67911e-08 0)
(-2.50926e-06 4.66479e-06 0)
(2.61517e-06 3.65469e-05 0)
(2.35275e-06 2.799e-05 0)
(-3.97571e-06 0.000125636 0)
(7.48278e-07 5.03629e-05 0)
(-5.331e-06 0.000169099 0)
(-9.81013e-08 1.37795e-08 0)
(-3.26324e-06 7.24582e-06 0)
(2.11906e-06 4.02676e-06 0)
(-2.16355e-06 2.42627e-06 0)
(5.95475e-06 6.01852e-05 0)
(4.49632e-06 7.28461e-05 0)
(-3.9604e-06 4.82072e-05 0)
(2.71726e-07 2.02001e-05 0)
(-6.78408e-07 7.56536e-05 0)
(-5.7153e-07 9.99639e-05 0)
(5.59158e-06 0.000147501 0)
(5.27509e-06 6.57666e-05 0)
(2.69099e-06 0.000170385 0)
(2.59105e-06 0.000171012 0)
(7.38147e-07 7.2516e-05 0)
(1.03249e-06 4.99952e-05 0)
(9.74326e-08 1.36976e-08 0)
(-7.59866e-06 0.000133994 0)
(2.91199e-06 1.02844e-05 0)
(9.86736e-09 1.51111e-07 0)
(1.42023e-06 9.64266e-05 0)
(1.86601e-06 9.67526e-05 0)
(2.80805e-09 1.34127e-08 0)
(-1.56606e-06 3.90032e-06 0)
(3.66915e-06 3.71421e-05 0)
(3.30565e-06 2.85294e-05 0)
(2.90599e-06 2.0808e-05 0)
(-5.20135e-06 9.88438e-05 0)
(-5.49986e-06 0.000124779 0)
(4.7993e-06 6.26735e-05 0)
(6.58463e-07 0.000144773 0)
(-3.11791e-06 0.000162917 0)
(-2.95396e-06 0.000163763 0)
(-3.32001e-07 0.000126313 0)
(-2.89881e-07 0.000126993 0)
(1.97522e-07 2.71439e-05 0)
(1.77993e-07 2.75363e-05 0)
(2.1921e-07 3.56099e-05 0)
(1.97233e-07 3.6046e-05 0)
(1.31664e-07 4.49251e-05 0)
(1.62605e-07 4.53877e-05 0)
(3.47397e-07 7.27518e-05 0)
(6.63691e-07 7.38889e-05 0)
(1.16593e-06 0.000111377 0)
(-3.3844e-07 7.73234e-05 0)
(-1.95783e-07 4.70993e-08 0)
(-2.18973e-07 1.75433e-06 0)
(2.59052e-06 0.000101719 0)
(-1.45619e-06 1.92315e-05 0)
(7.4601e-07 2.42349e-06 0)
(1.01824e-05 0.000165295 0)
(-8.13798e-07 0.000127535 0)
(4.81482e-07 2.68453e-05 0)
(5.36159e-07 3.52778e-05 0)
(5.21123e-07 4.45426e-05 0)
(-7.84463e-06 0.000139316 0)
(2.71639e-06 5.11565e-05 0)
(3.94809e-06 0.000175289 0)
(4.46959e-06 0.000174905 0)
(-8.45806e-07 6.01424e-06 0)
(-5.31265e-07 9.8332e-05 0)
(2.5485e-07 2.11152e-05 0)
(1.27082e-07 1.35674e-07 0)
(9.99124e-06 0.000169883 0)
(-1.54373e-07 3.07454e-06 0)
(-1.97594e-06 3.0376e-05 0)
(-2.18471e-06 3.91869e-05 0)
(-2.60851e-06 3.95876e-05 0)
(-2.36149e-06 3.07401e-05 0)
(-1.72503e-06 2.24617e-05 0)
(-2.08222e-06 2.27938e-05 0)
(3.29612e-06 9.55019e-05 0)
(3.50085e-06 0.000121191 0)
(1.56403e-06 2.19921e-06 0)
(-1.02543e-07 6.36921e-08 0)
(-8.69644e-06 0.000115771 0)
(-9.05166e-06 0.000169542 0)
(2.93767e-06 7.3832e-05 0)
(-2.79174e-07 3.14505e-06 0)
(-4.73197e-06 9.53327e-05 0)
(-5.01894e-06 0.000121006 0)
(2.77245e-06 2.29275e-05 0)
(3.13025e-06 3.08883e-05 0)
(3.45413e-06 3.97485e-05 0)
(4.30379e-06 0.000145317 0)
(9.82386e-06 0.000170477 0)
(-5.41754e-06 6.07126e-05 0)
(2.27539e-06 2.05939e-05 0)
(-4.15993e-06 9.92946e-05 0)
(2.80898e-06 7.4391e-05 0)
(-1.11723e-06 5.35025e-05 0)
(2.89802e-06 3.68501e-05 0)
(2.60913e-06 2.8264e-05 0)
(-4.37884e-06 0.000125193 0)
(-8.03843e-06 6.13892e-05 0)
(7.78956e-06 5.89264e-05 0)
(7.7868e-06 5.95658e-05 0)
(-7.93557e-06 6.07107e-05 0)
(-3.89227e-06 1.06449e-05 0)
(-4.0038e-06 1.09697e-05 0)
(-3.74703e-06 5.95613e-05 0)
(-2.03757e-06 2.48425e-06 0)
(-6.04299e-06 6.00044e-05 0)
(-9.02338e-07 0.000140107 0)
(-8.38105e-07 1.03417e-06 0)
(6.11462e-06 3.54974e-05 0)
(5.48726e-06 2.70567e-05 0)
(-8.46776e-06 8.8877e-05 0)
(1.37148e-06 3.68738e-05 0)
(1.2352e-06 2.8283e-05 0)
(-2.11932e-06 0.000125137 0)
(2.96387e-06 9.20665e-06 0)
(4.65292e-06 7.22717e-05 0)
(-4.12249e-06 4.8711e-05 0)
(-2.40305e-06 2.76142e-06 0)
(2.35266e-06 0.000111813 0)
(2.25721e-06 8.6696e-05 0)
(-1.16217e-06 1.40872e-05 0)
(6.88871e-06 0.000105727 0)
(-3.57622e-06 1.71472e-05 0)
(6.39127e-06 8.10454e-05 0)
(-4.11847e-06 1.05054e-05 0)
(4.83088e-06 0.00016324 0)
(5.54596e-06 0.000163005 0)
(5.34613e-06 0.000124782 0)
(5.08023e-06 9.88539e-05 0)
(-2.93283e-06 2.08671e-05 0)
(-3.32297e-06 2.85278e-05 0)
(-3.69033e-06 3.71402e-05 0)
(-8.838e-07 8.97277e-07 0)
(-4.30882e-06 0.000151786 0)
(4.64789e-06 9.77852e-05 0)
(-2.72541e-06 2.14796e-05 0)
(-5.37619e-07 6.92239e-07 0)
(3.95025e-06 0.000165038 0)
(1.06301e-06 9.00511e-07 0)
(8.8283e-07 6.84053e-07 0)
(2.20859e-06 3.23244e-06 0)
(4.78572e-06 0.0001332 0)
(-8.19664e-06 0.000136791 0)
(1.08305e-05 0.000165502 0)
(2.23512e-06 3.39567e-06 0)
(4.80065e-06 6.57474e-05 0)
(6.50521e-06 0.000141064 0)
(-1.05462e-05 0.000133539 0)
(4.09887e-06 1.05267e-05 0)
(-2.44922e-06 0.000141933 0)
(9.86808e-07 3.69855e-05 0)
(8.89228e-07 2.83836e-05 0)
(-1.54837e-06 0.00012497 0)
(-3.9979e-07 1.96202e-06 0)
(2.77937e-06 7.77877e-05 0)
(8.81104e-08 3.54091e-08 0)
(-3.45064e-06 7.17649e-06 0)
(-6.05126e-07 6.42738e-05 0)
(-1.5339e-06 1.28931e-05 0)
(-1.78286e-06 1.29763e-05 0)
(3.15494e-06 8.91397e-05 0)
(3.6678e-06 8.89781e-05 0)
(3.91973e-06 0.000114242 0)
(3.37153e-06 0.000114416 0)
(1.02085e-07 4.03994e-07 0)
(-3.37679e-08 4.87359e-06 0)
(-5.77292e-06 8.03125e-05 0)
(-6.22662e-06 0.000104938 0)
(3.18696e-06 1.75436e-05 0)
(-1.91706e-06 1.05521e-05 0)
(-1.10332e-06 0.000107827 0)
(-1.75794e-06 4.58591e-06 0)
(3.29831e-06 0.000163496 0)
(-2.76344e-06 5.49781e-05 0)
(-3.19751e-06 5.48432e-05 0)
(1.01432e-07 1.07451e-07 0)
(-1.83926e-06 5.68094e-05 0)
(-9.70567e-07 1.18808e-05 0)
(2.05755e-06 9.12671e-05 0)
(2.19491e-06 0.000116686 0)
(-2.5356e-06 0.000107843 0)
(-2.24477e-06 8.29718e-05 0)
(1.15321e-06 1.60282e-05 0)
(1.57461e-06 6.12522e-06 0)
(1.46277e-06 5.90655e-06 0)
(6.98856e-07 5.48222e-05 0)
(-9.63806e-07 0.000114201 0)
(-9.08691e-07 8.8925e-05 0)
(3.94062e-07 1.298e-05 0)
(-9.10121e-07 2.21139e-05 0)
(-1.6552e-06 4.71213e-06 0)
(6.17549e-06 0.000167275 0)
(-6.1117e-06 0.000101116 0)
(4.74134e-06 4.85229e-05 0)
(-5.53087e-06 7.24977e-05 0)
(6.58516e-06 0.000141688 0)
(-6.25577e-06 4.46981e-05 0)
(-5.73653e-06 3.53973e-05 0)
(7.47114e-06 7.70422e-05 0)
(-5.14413e-06 2.69659e-05 0)
(-4.48972e-06 1.94755e-05 0)
(8.1135e-06 0.000101424 0)
(8.55666e-06 0.000127458 0)
(-2.26387e-06 0.000122082 0)
(-2.13823e-06 9.63444e-05 0)
(1.36537e-06 3.0184e-05 0)
(1.20751e-06 2.22992e-05 0)
(1.50864e-06 3.89757e-05 0)
(1.30413e-06 3.06076e-05 0)
(-2.15185e-06 0.000121413 0)
(1.43939e-06 3.94429e-05 0)
(1.155e-06 2.26746e-05 0)
(-2.03135e-06 9.57132e-05 0)
(-1.21378e-06 0.000154129 0)
(-2.58991e-06 3.46486e-06 0)
(-2.74081e-06 1.58785e-05 0)
(5.47185e-06 0.000108175 0)
(5.09003e-06 8.33163e-05 0)
(-1.71791e-06 2.12561e-05 0)
(2.9362e-06 9.81511e-05 0)
(8.12397e-06 0.000120991 0)
(7.65406e-06 9.53247e-05 0)
(-4.62209e-06 2.29858e-05 0)
(-5.22186e-06 3.09445e-05 0)
(-5.76335e-06 3.98036e-05 0)
(8.55672e-06 0.000131808 0)
(9.34265e-06 0.000131644 0)
(2.19567e-07 4.16886e-06 0)
(-9.076e-07 6.32496e-05 0)
(-2.48287e-06 7.0009e-06 0)
(1.28752e-07 2.52788e-07 0)
(-2.43528e-06 8.85702e-06 0)
(-4.00382e-07 0.000140381 0)
(9.53199e-08 3.99242e-06 0)
(-1.93709e-06 6.76563e-05 0)
(7.79439e-06 8.89284e-05 0)
(-3.75633e-06 1.30806e-05 0)
(8.32719e-06 0.000114181 0)
(-8.62873e-09 -5.97547e-09 0)
(4.88553e-07 0.000105691 0)
(1.6312e-07 6.94527e-08 0)
(1.11184e-07 8.45455e-08 0)
(1.36306e-06 7.65726e-05 0)
(-1.8715e-07 1.56341e-07 0)
(6.31206e-06 0.000168506 0)
(4.43539e-07 9.67257e-05 0)
(-2.82226e-07 2.20481e-05 0)
(1.46555e-06 9.01404e-06 0)
(8.448e-07 9.64323e-05 0)
(-5.31144e-07 2.22059e-05 0)
(-9.50582e-08 2.04227e-06 0)
(-6.15834e-06 3.54818e-05 0)
(-5.52378e-06 2.70437e-05 0)
(-4.82186e-06 1.9549e-05 0)
(-4.0463e-06 1.31112e-05 0)
(8.39306e-06 8.88951e-05 0)
(8.70424e-06 0.000101315 0)
(8.96693e-06 0.000114144 0)
(9.18296e-06 0.000127344 0)
(-4.11356e-06 0.000137187 0)
(-3.66013e-06 0.000162606 0)
(-1.175e-05 0.000134732 0)
(4.47762e-06 1.00873e-05 0)
(2.63758e-06 0.000172232 0)
(3.07392e-06 0.0001715 0)
(8.02807e-07 9.4349e-05 0)
(8.70031e-07 0.000119977 0)
(-6.83583e-07 4.04908e-05 0)
(-6.19278e-07 3.15585e-05 0)
(-5.48102e-07 2.35191e-05 0)
(-3.57481e-06 1.0534e-05 0)
(1.29416e-06 7.59761e-06 0)
(-4.67875e-06 4.2369e-05 0)
(5.99548e-06 9.18902e-05 0)
(-4.26058e-06 3.32752e-05 0)
(-3.79777e-06 2.50579e-05 0)
(6.38607e-06 0.000117344 0)
(-2.71301e-06 1.16548e-05 0)
(6.46197e-06 0.000130647 0)
(1.07932e-06 6.06473e-05 0)
(-7.18316e-07 0.000145628 0)
(7.37002e-07 3.73466e-07 0)
(-5.331e-07 0.000128196 0)
(3.12772e-07 2.64541e-05 0)
(3.4828e-07 3.48423e-05 0)
(3.16374e-07 4.40662e-05 0)
(1.99594e-06 0.000150778 0)
(-3.05766e-07 1.98869e-07 0)
(1.02697e-05 0.000148406 0)
(-1.5978e-06 6.41839e-05 0)
(-5.19896e-08 1.1653e-07 0)
(3.67153e-06 9.0496e-05 0)
(-1.73127e-06 1.22539e-05 0)
(3.91744e-06 0.000115862 0)
(8.8722e-08 7.14528e-08 0)
(-2.31282e-06 1.4734e-05 0)
(4.46156e-06 8.54739e-05 0)
(4.78508e-06 0.000110492 0)
(8.21057e-07 1.11352e-06 0)
(-3.21798e-06 5.61605e-05 0)
(6.43822e-07 5.99471e-05 0)
(-7.17232e-06 0.000158429 0)
(6.27857e-07 9.48503e-05 0)
(6.68882e-07 0.000120497 0)
(-5.81306e-07 4.01105e-05 0)
(-4.63954e-07 2.32134e-05 0)
(-5.26051e-07 3.12128e-05 0)
(1.0442e-06 6.10843e-05 0)
(-1.64332e-07 6.41466e-07 0)
(-1.47382e-07 2.14781e-06 0)
(2.76756e-07 0.000140157 0)
(7.08154e-06 6.55567e-05 0)
(-6.73425e-06 5.48449e-05 0)
(-5.0456e-06 0.000176979 0)
(-1.14176e-05 0.000116553 0)
(-1.07142e-05 9.11602e-05 0)
(-1.10953e-05 0.000103654 0)
(-1.02725e-05 7.91365e-05 0)
(5.84119e-06 1.83338e-05 0)
(6.72799e-06 2.56377e-05 0)
(7.52829e-06 3.39067e-05 0)
(8.25195e-06 4.30455e-05 0)
(1.13273e-05 0.000116552 0)
(1.10067e-05 0.000103654 0)
(-5.88496e-06 1.83366e-05 0)
(-6.7807e-06 2.56416e-05 0)
(1.06278e-05 9.11599e-05 0)
(-7.58995e-06 3.39094e-05 0)
(1.019e-05 7.91355e-05 0)
(-8.32061e-06 4.30488e-05 0)
(-3.44263e-06 1.02448e-05 0)
(-1.79929e-06 0.000145323 0)
(-1.29384e-06 0.000145187 0)
(-1.60017e-06 0.000164242 0)
(2.56873e-06 0.000100495 0)
(-1.47076e-06 1.9911e-05 0)
(-5.46032e-07 8.2963e-07 0)
(-2.0605e-06 0.000173438 0)
(-2.30602e-06 3.86821e-05 0)
(-2.81959e-06 3.85398e-05 0)
(-2.08344e-06 2.99188e-05 0)
(-2.54686e-06 2.97909e-05 0)
(3.25444e-06 0.000122718 0)
(3.91578e-06 0.000122774 0)
(8.64984e-06 0.000120683 0)
(8.14726e-06 9.50359e-05 0)
(-4.93745e-06 2.31706e-05 0)
(-5.57412e-06 3.11507e-05 0)
(-6.14896e-06 4.00292e-05 0)
(-5.32249e-06 8.05888e-05 0)
(-5.73885e-06 0.000105237 0)
(2.91994e-06 1.73797e-05 0)
(-1.69884e-06 7.23795e-05 0)
(1.40153e-06 4.86038e-05 0)
(1.67867e-06 0.000126119 0)
(-1.0609e-06 2.76406e-05 0)
(-1.18181e-06 3.61613e-05 0)
(-1.27274e-06 4.54354e-05 0)
(3.28267e-06 4.80383e-05 0)
(2.77703e-06 4.81583e-05 0)
(-3.87768e-06 7.30251e-05 0)
(-3.28849e-06 7.28793e-05 0)
(-3.87294e-06 0.000172159 0)
(2.78886e-07 7.97385e-07 0)
(6.343e-06 0.000148565 0)
(2.31065e-06 5.32168e-05 0)
(6.23557e-06 0.000103549 0)
(-3.35046e-06 1.82823e-05 0)
(5.77102e-06 7.90243e-05 0)
(-5.45913e-06 6.35125e-05 0)
(1.35823e-06 1.39149e-05 0)
(-3.02787e-06 0.000112177 0)
(-2.8315e-06 8.70462e-05 0)
(3.48843e-07 5.53155e-05 0)
(-4.98176e-07 8.95034e-05 0)
(-5.26037e-07 0.000114816 0)
(1.96133e-07 1.27012e-05 0)
(3.65284e-06 5.02231e-05 0)
(-4.19326e-06 7.05269e-05 0)
(-2.00889e-06 0.000154126 0)
(-9.16716e-06 0.000152678 0)
(1.61965e-06 6.73589e-05 0)
(4.11491e-06 6.75641e-05 0)
(-3.52301e-06 1.35279e-05 0)
(7.66737e-06 0.000113162 0)
(7.16942e-06 8.79733e-05 0)
(-4.03681e-07 1.74717e-06 0)
(-1.27102e-06 0.000129068 0)
(6.94189e-07 2.59343e-05 0)
(7.75457e-07 3.42627e-05 0)
(8.42231e-07 4.34386e-05 0)
(-1.94291e-06 6.38782e-05 0)
(-8.50003e-06 0.000152729 0)
(-2.55329e-06 2.59646e-05 0)
(-2.85676e-06 3.42929e-05 0)
(-3.12047e-06 4.34887e-05 0)
(4.28033e-06 0.000129023 0)
(8.61588e-09 1.18306e-08 0)
(5.34591e-06 6.30164e-05 0)
(6.48775e-08 5.19031e-06 0)
(-2.76824e-07 4.98507e-07 0)
(-5.71557e-07 2.25306e-06 0)
(-2.67916e-06 9.43523e-06 0)
(-2.83786e-07 1.05221e-07 0)
(1.06078e-06 2.92345e-05 0)
(9.39863e-07 2.14449e-05 0)
(1.1747e-06 3.79275e-05 0)
(-1.80478e-06 0.000123593 0)
(-1.71556e-06 9.77939e-05 0)
(-5.2802e-06 5.25337e-05 0)
(5.62049e-06 6.79591e-05 0)
(-5.61052e-07 3.38085e-07 0)
(6.74665e-06 0.000163294 0)
(4.8553e-06 0.000146368 0)
(-1.04595e-05 0.000137928 0)
(3.87426e-06 6.70555e-05 0)
(1.37341e-06 7.26781e-05 0)
(-2.66142e-06 0.000173361 0)
(-7.3957e-06 7.60492e-05 0)
(-7.03695e-06 7.57225e-05 0)
(1.02562e-05 0.000173311 0)
(-8.61346e-07 0.000154882 0)
(-2.38711e-06 4.84125e-05 0)
(2.77108e-06 7.26638e-05 0)
(8.22308e-08 5.36949e-06 0)
(1.38074e-06 1.92227e-06 0)
(2.80575e-07 1.04063e-07 0)
(2.44221e-06 7.72931e-05 0)
(9.03409e-06 0.000176816 0)
(-5.00669e-06 0.000123614 0)
(-4.72716e-06 9.77909e-05 0)
(2.67575e-06 2.14685e-05 0)
(3.36878e-06 3.79342e-05 0)
(3.04071e-06 2.92443e-05 0)
(-1.03322e-07 7.41687e-08 0)
(-4.10146e-07 0.000161102 0)
(4.66994e-06 6.77579e-05 0)
(-4.33661e-06 5.27948e-05 0)
(-7.48434e-06 0.000157259 0)
(-1.1168e-05 0.000117137 0)
(-1.08549e-05 0.000104219 0)
(-1.04863e-05 9.17062e-05 0)
(-1.0057e-05 7.96607e-05 0)
(5.66491e-06 1.80259e-05 0)
(6.53533e-06 2.52852e-05 0)
(7.32084e-06 3.35137e-05 0)
(8.03116e-06 4.26159e-05 0)
(1.10767e-05 0.000117133 0)
(1.07663e-05 0.000104218 0)
(-5.70798e-06 1.80298e-05 0)
(-6.587e-06 2.52899e-05 0)
(1.03984e-05 9.17045e-05 0)
(-7.38136e-06 3.35174e-05 0)
(9.97348e-06 7.96574e-05 0)
(-8.09872e-06 4.26204e-05 0)
(-1.76648e-06 2.42439e-06 0)
(6.9578e-07 6.76514e-07 0)
(-9.32308e-07 1.74835e-06 0)
(4.15628e-06 6.65167e-05 0)
(-4.62538e-06 6.844e-05 0)
(8.85027e-07 1.10126e-06 0)
(-1.39547e-07 2.33425e-08 0)
(-1.00592e-05 0.000138254 0)
(5.69931e-06 0.000175058 0)
(6.40096e-06 0.000175383 0)
(1.38644e-07 2.32116e-08 0)
(1.98373e-06 2.71373e-06 0)
(8.94864e-06 0.000159594 0)
(-3.47777e-06 7.54634e-05 0)
(-2.46608e-07 2.23262e-07 0)
(-5.55383e-07 8.87444e-07 0)
(-8.73662e-08 2.24244e-08 0)
(1.62437e-07 1.30545e-07 0)
(9.39389e-06 6.04982e-05 0)
(-9.43877e-06 5.98178e-05 0)
(2.8831e-06 4.59681e-05 0)
(-3.56507e-06 7.41195e-05 0)
(2.99228e-06 4.7117e-05 0)
(-1.71139e-07 2.89669e-06 0)
(-2.19193e-06 0.000117115 0)
(1.70289e-06 5.71748e-05 0)
(-1.23835e-06 0.000115872 0)
(-1.19036e-06 9.04395e-05 0)
(5.11775e-07 1.22608e-05 0)
(9.22574e-07 5.61654e-05 0)
(-3.87525e-06 7.50889e-05 0)
(2.11342e-06 2.87271e-06 0)
(3.23215e-06 4.63057e-05 0)
(1.16685e-06 6.74593e-05 0)
(8.99296e-06 0.000164728 0)
(-2.81318e-06 6.80007e-05 0)
(-3.22946e-06 6.84504e-05 0)
(-2.76287e-06 6.02287e-06 0)
(-3.13106e-06 7.05663e-05 0)
(-2.68264e-06 7.00901e-05 0)
(2.75444e-06 5.01433e-05 0)
(2.4151e-06 5.06247e-05 0)
(-3.0513e-06 1.44296e-05 0)
(5.98189e-06 8.61181e-05 0)
(6.41049e-06 0.00011118 0)
(-8.7053e-07 9.96117e-07 0)
(-3.88304e-06 7.45027e-05 0)
(3.25376e-06 4.68086e-05 0)
(-2.47523e-06 9.52338e-05 0)
(-2.62422e-06 0.000120905 0)
(1.4283e-06 2.2965e-05 0)
(1.77765e-06 3.98024e-05 0)
(1.61166e-06 3.09342e-05 0)
(-1.36528e-06 6.49994e-06 0)
(-8.0303e-06 0.000100297 0)
(-7.61179e-06 9.99878e-05 0)
(4.40446e-06 2.00925e-05 0)
(4.18759e-06 2.02637e-05 0)
(5.25866e-06 8.00841e-05 0)
(5.78555e-06 7.96997e-05 0)
(-3.00015e-06 1.76656e-05 0)
(-3.31944e-06 1.78942e-05 0)
(5.67482e-06 0.000104694 0)
(6.24617e-06 0.000104278 0)
(-2.33056e-06 0.000153571 0)
(4.5363e-06 0.00014047 0)
(4.60225e-06 0.000139828 0)
(-3.48991e-06 4.71216e-05 0)
(3.98023e-06 7.41016e-05 0)
(-1.20461e-05 0.000170803 0)
(-3.49258e-06 0.000136804 0)
(-3.35556e-06 0.000136175 0)
(1.21712e-06 9.38514e-06 0)
(1.25202e-06 9.15024e-06 0)
(1.03261e-05 0.000138292 0)
(-4.68316e-06 6.00577e-05 0)
(-4.02484e-06 6.00785e-05 0)
(1.02144e-05 0.000155794 0)
(-1.04063e-05 0.000164089 0)
(-1.0393e-05 0.000164858 0)