/*--------------------------------*- C++ -*----------------------------------*\
| =========                 |                                                 |
| \\      /  F ield         | OpenFOAM: The Open Source CFD Toolbox           |
|  \\    /   O peration     | Version:  2.3.1                                 |
|   \\  /    A nd           | Web:      www.OpenFOAM.org                      |
|    \\/     M anipulation  |                                                 |
\*---------------------------------------------------------------------------*/
FoamFile
{
    version     2.0;
    format      ascii;
    class       volSymmTensorField;
    location    "1240";
    object      sigma;
}
// * * * * * * * * * * * * * * * * * * * * * * * * * * * * * * * * * * * * * //

dimensions      [1 -1 -2 0 0 0 0];

internalField   nonuniform List<symmTensor> 
11800
(
(75521.2 55604.1 3.69653e-14 -2124.89 1.9633e-14 18211.1)
(-40757.1 54422.3 5.67442e-14 -3180.09 1.8058e-14 -10901.7)
(321284 61324.1 -8.49846e-16 643.892 -4.20112e-14 79876.8)
(-283838 40260.5 0 2656.5 0 -69766.7)
(-41671.8 52215.1 1.05884e-14 -7572.32 -2.99984e-14 -12218.5)
(-179217 65756 4.15591e-14 3137.25 2.18546e-14 -43689)
(-32895 64841.2 7.77624e-14 -828.691 -2.02682e-14 -8367.52)
(-45482.4 63878.6 -1.16209e-14 1499.54 4.69061e-14 -10913)
(103202 47966.7 1.63919e-14 395.284 -1.12722e-14 25704.6)
(66236.8 66626.4 -4.05832e-14 1950.5 -3.42749e-14 16918.6)
(87634.1 49339.3 -3.08396e-14 -409.226 2.64674e-14 21642.3)
(-411853 32188.5 -3.75154e-14 -3322.9 -1.70795e-14 -103013)
(13730 -19961.7 7.44416e-17 -36977.9 5.78083e-17 -5768.27)
(298469 40018.2 3.41488e-14 2335.78 -9.39449e-15 74635.7)
(-242179 61314.4 -2.81913e-14 6859.97 2.19844e-14 -58387.5)
(1.22425e+06 4380.3 0 -2519 0 303135)
(-21771.3 55229.5 2.63138e-14 1229.62 2.32893e-15 -5096.81)
(-32981.4 49997 -1.48995e-14 3342.27 8.58774e-14 -7354.06)
(69209.6 82942.8 -1.60814e-14 -10799.5 1.15027e-14 14492.7)
(49976.2 46637.2 -5.40246e-14 -3884.67 -1.75078e-14 11436.2)
(-224902 44594.9 1.67219e-14 1726.63 1.75603e-14 -55374.4)
(-359454 57767.9 2.68183e-14 1620.43 -1.56301e-14 -88785.8)
(-538837 82054.3 -1.45207e-14 6740.58 9.4579e-15 -132024)
(-494816 55546.3 1.51507e-16 -9.19518 2.55985e-15 -122776)
(989282 56291 1.61494e-15 -4413.86 2.08119e-14 244366)
(-632755 79887.7 -1.41939e-14 3794.09 -4.35506e-16 -156058)
(-605819 41941.8 0 4877.44 0 -149106)
(295748 34579.1 -4.39068e-14 -5476.66 -2.65765e-14 72022.1)
(-671253 43737.6 -8.07325e-15 6024.82 -3.80333e-14 -165057)
(-740557 45116.7 1.05202e-14 5615.36 -1.65365e-14 -182354)
(200667 38257.7 -5.42832e-14 -1107.07 -9.75518e-14 49514.9)
(39236.5 57003.5 -9.51357e-15 1571.57 -8.01025e-15 10125.3)
(631165 75623.2 -2.25473e-15 7127.4 -1.01783e-14 158373)
(-17859 62211.2 7.10573e-15 -99.011 -5.33093e-14 -4455.75)
(11005.7 63781 -1.87657e-14 4427.4 -8.0813e-14 3829.27)
(-198746 31325.9 -4.92943e-14 4565.3 -3.58727e-14 -48180.2)
(11156 63600.4 6.66726e-14 2944.05 -7.95349e-14 3498.52)
(676919 52228.9 -8.27173e-15 3425.77 -3.65429e-14 168807)
(-23571.1 59707.2 0 -4094.34 0 -6864.37)
(47502 54875.2 -2.33977e-14 2787.03 4.36738e-14 12477.7)
(-636755 35400.3 -4.22857e-14 -2867.98 -1.9733e-14 -158703)
(-705253 36300.8 3.04138e-14 -2871.9 -1.75118e-14 -175700)
(309984 43192 -1.68783e-14 -3647.39 -5.65207e-14 76008.4)
(-778284 38040.8 -6.03786e-15 -5102.44 -3.14157e-14 -194374)
(210453 44829.8 1.44352e-13 2246.58 -4.51616e-14 52775)
(1.1415e+06 37714 0 -4626.42 0 282082)
(505055 86866.5 -9.19716e-15 -2527.35 4.88022e-15 124687)
(604432 44151.2 -1.61388e-14 -6424.73 -1.13533e-14 148378)
(-52279.8 60817.9 -5.72469e-14 -2027.24 -3.53724e-14 -13474.7)
(118615 56566.4 0 1605.96 0 29829.3)
(-422848 33569.8 -2.72006e-15 2432.38 2.95613e-14 -104314)
(-299333 33865.3 9.61063e-14 5196.62 1.12967e-14 -72981.1)
(-6290.01 63111.7 5.37558e-14 -1026.4 3.35796e-14 -1815.35)
(20555.8 97466.7 -1.29679e-15 4808.27 1.13457e-14 6293.33)
(-1.31226e+06 6648.95 -2.06575e-15 -6884.3 -3.04075e-15 -327306)
(1.09709e+06 -33409.5 2.61903e-15 -50631.3 4.86612e-15 259648)
(-36777.9 24359.8 4.63432e-14 1673.14 1.72426e-14 -8710.21)
(-270436 64444.7 3.48249e-15 -2454.88 -2.93918e-14 -67709.7)
(213236 47130.6 -2.95862e-14 4611.8 4.33849e-14 54052.6)
(-194773 65070.9 2.45061e-14 -4978.99 -4.42524e-15 -49562.5)
(1.11631e+06 27415.8 -2.32022e-14 -8398.21 -8.05855e-15 274896)
(-26429.2 65347.8 2.27471e-14 351.313 -3.71389e-14 -6470.46)
(-214163 55727.2 -1.34012e-14 -2334.91 2.31489e-14 -53717.5)
(166900 56116.8 4.03346e-14 501.062 -2.30673e-14 41535.6)
(979731 20286.7 2.59475e-15 941.86 -1.5031e-14 243325)
(-138377 33401.2 -6.5151e-14 2627.46 -7.89156e-14 -33682.2)
(-437693 20462.6 4.61143e-14 1456.45 1.54264e-14 -108239)
(-313301 22676.7 1.24458e-15 4072.63 -8.0734e-14 -76725.8)
(-37575.7 26199.6 0 -2130.03 0 -9851.81)
(-590179 52250.9 -1.00639e-15 5334.18 3.74771e-14 -145112)
(-15509 65153.8 -1.30461e-14 588.377 2.70113e-14 -3702.11)
(-29086.2 53538.3 -5.02662e-14 -3101.26 5.63936e-14 -7986.37)
(-26080.7 51795 3.52559e-14 -4296.92 -2.1632e-14 -7537.3)
(-938461 225023 -3.36607e-15 129013 3.15852e-15 -200840)
(1.10392e+06 54004.4 -7.94837e-16 -4670.99 -9.38324e-15 272745)
(-187315 41368.2 -4.84233e-14 7168.52 -3.52824e-14 -44698)
(1.01223e+06 18682.5 -1.90204e-14 2754.27 1.69299e-14 251838)
(-135288 25107.8 4.28361e-14 1083.42 -1.4086e-13 -33298.9)
(-100723 41493.5 8.0501e-15 4121.21 -7.70502e-15 -23968.8)
(-97713.5 48861.1 8.21577e-14 3806.45 8.26218e-14 -23300.3)
(-1.32768e+06 -19715.9 7.32569e-15 4209.52 3.29985e-14 -328381)
(51738.7 45306.6 0 5155.53 0 14116.6)
(31189.6 53372.7 -8.54476e-14 95.7114 -3.37636e-14 7762.52)
(21227.2 56783.8 2.96226e-14 2858.75 -2.37819e-16 5976.21)
(-42375 49686.2 2.05763e-14 -4356.31 5.83713e-14 -11595)
(-717556 55229 -1.15543e-14 -4658.52 6.00601e-14 -179196)
(213033 43275.4 6.90188e-14 1991.22 -2.15292e-14 53351.8)
(-649244 50585.9 0 -2921.32 0 -161815)
(-587006 49170.7 -2.45858e-14 -2746.29 -2.51695e-14 -146330)
(309047 40188 3.17075e-14 2943.46 1.92693e-15 77411.2)
(-7490.08 61203.3 -1.11363e-13 -1902.79 -7.16277e-14 -2330.56)
(748518 70778.3 0 -2373.95 0 185134)
(-59635.7 55600.3 -2.36245e-14 1755.45 -3.92772e-14 -14361.3)
(43782.8 22389.2 -1.36495e-14 3256.58 -1.98404e-14 11671.4)
(84040.7 50636 1.05511e-13 -510.99 1.88436e-15 20725.4)
(31776.7 -23976.5 -4.73967e-16 -67425.2 -3.51085e-16 -8845.11)
(-1681.69 6555.91 1.22949e-17 3932.09 -7.30328e-17 558.37)
(-31938.7 -23717.4 -2.9859e-16 66914.8 1.98707e-16 8678.26)
(-7413.56 62682.2 -3.46242e-14 -1542.59 -5.08115e-16 -2222.2)
(-357802 41031.7 -8.55573e-15 -1697.38 3.4497e-14 -89199)
(29974 36822.7 1.90393e-14 -423.941 -5.34167e-14 7331.96)
(385659 45259.7 -4.15403e-14 -4271.75 -5.77684e-14 94629.9)
(-708117 76985.4 2.98697e-15 1114.38 6.067e-15 -175422)
(-238688 62632.5 -1.82938e-15 3974.24 5.84157e-15 -58237.1)
(1428.77 66066.5 -5.34737e-15 -263.759 -2.66672e-14 289.063)
(175561 74469.1 -1.16631e-14 1836.69 -2.03481e-14 44015.9)
(-78526.6 52419.5 -3.28862e-14 1007.27 7.27444e-14 -19234.1)
(-55588.2 56299.8 -1.11034e-13 -673.507 -5.36893e-14 -13959.7)
(1.08296e+06 24230.9 6.68094e-15 2449.69 1.4289e-14 269311)
(644862 46304.3 1.05425e-14 1608.46 2.13416e-15 160403)
(713963 48418.4 2.02407e-14 2338.6 2.84919e-14 177729)
(584090 43992 7.31938e-14 2606.11 4.34872e-14 145571)
(-217448 43842.6 3.23719e-14 -4361.02 5.06443e-14 -55035.3)
(-315332 41117.5 -8.57444e-14 -3352.98 3.08645e-14 -79072.2)
(110124 48343.7 3.71965e-14 612.132 -1.95532e-14 27475.8)
(976412 35885 1.02013e-14 -200.519 6.07224e-15 242218)
(132620 28557.5 -2.66574e-14 -3424.16 -1.04918e-13 32056.1)
(-39745 59519.8 -9.22968e-14 1708.34 8.65559e-14 -9437.67)
(914042 57999.4 -1.18877e-14 28.0433 1.48511e-14 226799)
(-70633.7 68723.4 -3.04804e-14 1006.76 -8.22355e-15 -17275.9)
(-122139 44464.2 -2.1797e-14 625.541 -9.2465e-15 -30150)
(33887.7 65015.4 6.61725e-14 -3500.2 -9.49499e-14 7539.76)
(47119.6 64535.6 -4.63213e-14 -766.187 3.19222e-14 11501.2)
(-32718.9 54863.1 -1.34362e-14 -1232.02 -1.98624e-14 -8423.91)
(-62102.9 53178.1 -8.40436e-14 1061.81 -6.5749e-14 -15145.5)
(-2392.44 62586.8 -8.07688e-14 -2534.04 -6.09628e-14 -1222.36)
(-21288 62531.1 -4.84329e-14 -5144.03 5.3358e-14 -6558.32)
(-3127.72 62123.5 -3.16679e-14 -1112.27 -3.02633e-14 -1052.03)
(5989.91 48994.3 1.51427e-15 28143.8 6.77864e-14 8469.26)
(-26384.8 13744.9 -2.6828e-16 -6037.26 3.23313e-14 -8044.56)
(-1.20694e+06 -189004 1.0879e-14 52645.5 -5.59605e-15 -286405)
(-831422 56672.8 7.65662e-15 -6158.48 -1.16186e-15 -207821)
(234073 38875.1 3.65425e-14 4361.02 -3.57074e-14 59160.2)
(-711051 54632.9 -2.93543e-14 2669.39 1.85106e-14 -175764)
(330147 35122.9 -1.65868e-14 5528.37 5.01113e-14 83287.9)
(-640896 49568.8 1.11849e-14 3218.55 1.12275e-14 -158221)
(-579341 47432.1 -6.34792e-14 3143.7 4.86764e-14 -142966)
(194544 50023.4 3.57128e-14 -335.916 9.98835e-14 48187)
(-609766 32456.1 3.99806e-14 5633.36 -5.54608e-14 -149898)
(276860 49241 4.4581e-14 302.662 -3.55593e-14 68769.8)
(-550641 29741.6 3.27848e-14 4652.55 -5.69628e-14 -135471)
(-498033 29857.7 -3.40393e-14 4833.66 -3.06723e-14 -122373)
(-301722 69183.2 2.66222e-15 7569.21 2.65469e-14 -72985.2)
(83195.2 57132.3 -1.78131e-14 -5253.23 -1.19208e-13 19339)
(117290 52624.7 -2.85954e-14 -4387.44 -8.2962e-14 28013.3)
(-174817 51210.7 -8.67628e-15 6026.26 5.04314e-14 -41880.3)
(698773 32833.1 -5.51881e-14 718.35 -1.8585e-14 173558)
(-731468 -317.602 5.32299e-14 -6909.99 1.6547e-14 -183207)
(405176 37404.9 3.73483e-14 -3200.55 -3.48184e-14 99738.3)
(-236630 45784.5 8.84569e-16 4051.53 5.28304e-15 -57707.5)
(-102878 55747.5 -4.62363e-14 3405.73 -3.82999e-14 -24681.1)
(-107504 50002 3.95727e-14 168.149 -3.59008e-14 -26632.2)
(10152.9 62680.4 3.00831e-14 2359.36 5.51146e-14 3104.54)
(-151153 43045.2 -6.76748e-14 2329.42 7.03491e-14 -36926.3)
(120869 48035.8 -3.55809e-14 -4093.89 -3.77033e-14 28974.2)
(80732.5 57839.2 -3.25291e-14 669.213 2.51442e-14 20197.4)
(-268010 44814.3 5.51295e-14 5658.61 -3.71987e-14 -65094.8)
(-370509 47552.5 2.0231e-14 1583.7 4.41962e-14 -91537.8)
(799076 26611 1.30754e-14 1195.03 -2.05498e-16 198563)
(-3012.83 64374.1 1.57909e-14 731.104 -7.70374e-14 -566.144)
(1.22989e+06 56907.6 -1.56586e-14 -8737.1 -8.57513e-15 302992)
(-124739 50336.1 -5.84555e-14 1845.72 4.03787e-14 -30492.4)
(1.01513e+06 38046.2 0 -11894.7 0 248924)
(-278481 50573.4 1.78043e-14 -1074.17 7.40741e-14 -69363.3)
(-307804 51961.3 -1.82411e-14 -2018.21 2.17585e-14 -76873.3)
(-339980 55677.9 -2.82993e-15 -2146.56 7.95352e-14 -84888.5)
(146806 53396.9 -4.35104e-14 233.376 1.07367e-14 36483.4)
(99532.5 57857.5 -4.62527e-14 -802.34 1.14556e-14 24497)
(-1.36472e+06 -1464.97 1.25024e-14 -6161.36 -7.17352e-15 -340143)
(-794655 54767.7 -1.23175e-14 -4166.08 2.3547e-14 -198204)
(260226 42588.7 -4.62092e-14 3645.8 -2.71082e-14 65471.9)
(355017 38118.1 1.30638e-13 2041.42 -7.03717e-14 88593.4)
(43266.7 59341.2 2.5406e-14 -5601.41 -6.58582e-14 9345.52)
(-221145 31158.3 0 1829.91 0 -54416.5)
(-226696 22422 6.94358e-14 1670.98 -3.53701e-14 -55833.2)
(1.13131e+06 39865.5 1.99358e-14 -8616.23 1.33567e-14 278564)
(1.16108e+06 2382.16 1.64754e-14 8204.96 1.4682e-14 290123)
(572641 28745.7 8.19612e-16 191.452 3.41704e-14 142131)
(518851 27847.7 6.55211e-15 1370.9 8.21765e-14 129078)
(633568 28364.7 1.78892e-14 -533.751 -2.58167e-14 157069)
(-265621 49763.9 -4.19742e-14 2685.2 3.78625e-14 -65239.8)
(-180453 51164.1 -4.06362e-14 755.514 4.46892e-14 -44586.7)
(114238 63243.4 0 1319.21 0 28672.2)
(75725.5 66837.4 -1.72119e-15 939.431 6.47684e-14 19022.1)
(249702 51912 -5.06228e-14 -618.316 4.14709e-14 61802.6)
(-107729 49898 -4.04485e-14 750.78 9.62821e-14 -26543.5)
(-184089 75426.5 -8.36203e-15 1550.73 3.73102e-14 -45291.4)
(51927.3 56914.5 -1.48035e-13 -887.988 -3.93892e-14 12663.9)
(72624.5 51454 -1.02843e-13 141.188 4.31418e-14 18054.6)
(-50400.6 61511 -1.99412e-14 1573.74 -2.78142e-16 -12114.9)
(-136673 50452.9 -1.72204e-14 2620.65 -1.08088e-14 -33261.1)
(-123391 48075.3 1.12684e-14 1574.41 -1.93281e-14 -30225.2)
(-127093 40645.8 0 -1003.14 0 -31783.3)
(-66906.8 79301.1 2.54134e-16 -3256.96 -2.35624e-14 -17409.1)
(-532474 11510.7 4.89378e-14 -5685.71 -2.14371e-14 -133528)
(674048 37019 -6.44638e-14 -2756.9 -6.39019e-15 166561)
(975424 123491 4.14217e-15 -181110 2.11494e-15 197085)
(-23511.2 58177.9 1.32157e-14 -1650.2 -3.00379e-14 -6243.07)
(139107 25245.1 4.82098e-14 628.399 -1.10315e-13 34671.2)
(-1.23404e+06 -140922 1.04059e-14 106165 -6.95436e-15 -279848)
(64164.2 47931.4 2.06566e-15 3492.29 5.60977e-14 16787)
(168836 33062 3.89576e-14 2989.95 -4.47985e-14 42633.5)
(185543 35085.5 5.43876e-14 -3252.76 -2.29901e-14 45229.8)
(-2593.22 64883.6 4.09314e-14 11.1666 -6.08925e-15 -640.661)
(-3174.12 66297.1 4.31797e-14 -540.521 3.66273e-15 -921.677)
(488383 30379.4 1.39553e-14 -4717.61 4.71014e-14 120007)
(403893 60647.6 1.7973e-14 609.915 -4.35581e-15 100365)
(-365378 51210.9 0 1974.01 0 -90167.9)
(-313538 35499 -4.51307e-14 -6082.09 -2.82981e-14 -79304.2)
(1.19716e+06 -190348 -4.34896e-15 -54037.6 -3.03026e-15 283631)
(-345155 84085 -3.75587e-15 8996.17 4.50307e-14 -83407.8)
(-561909 42474.6 2.65955e-14 -2379.47 -1.58354e-14 -140011)
(-1.25472e+06 -504082 -1.17789e-14 269494 4.64724e-15 -244455)
(1.40543e+06 4436.22 0 19400.9 0 353530)
(-1.0994e+06 -467692 -3.83657e-15 128338 1.19509e-15 -240939)
(176953 87359.5 -2.53995e-14 150.511 9.07605e-15 43943)
(-40382.3 54870.9 -4.17779e-15 -3227.21 5.85425e-14 -10820.4)
(-503278 63941.1 2.17476e-14 -3868.34 -2.40968e-14 -125833)
(-451826 60465.3 3.22125e-14 -2581.52 -4.00558e-15 -112748)
(-408655 58127.5 -3.64409e-14 -2418.06 1.388e-15 -101996)
(146207 49290 3.10196e-14 2625.31 -8.67041e-14 36928.2)
(213583 44969.7 -7.80856e-14 2696.11 7.60522e-14 53663.4)
(21720.6 54676.5 -1.22364e-14 -5463.92 5.75655e-14 4033.61)
(29846 49439.7 2.90803e-14 -6095.04 3.73397e-14 5893.09)
(-79578.7 80396.4 -3.50847e-14 10912.5 9.54715e-15 -17037.5)
(-45013.4 48260.7 2.50563e-14 8213.6 -3.21399e-14 -9130.78)
(-690339 -278062 -2.97877e-15 -16759 6.22462e-16 -175445)
(110553 80056.4 -1.97332e-14 8558.27 -7.06746e-14 29554)
(-53990.6 49582.6 -6.50484e-14 -5039.19 -2.98136e-14 -14646.5)
(-252958 68034.8 0 371.316 0 -62671.9)
(110915 53530.6 5.26063e-14 1226.53 -2.16265e-14 27824.5)
(-53203.4 61416.8 0 182.557 0 -13155.5)
(-42568.3 55797.5 -3.14285e-14 418.874 -4.99135e-14 -10458.1)
(370942 50839.3 4.48657e-14 2793.93 -4.69269e-14 92731.6)
(381603 37884.3 6.8392e-14 -686.108 3.27259e-14 94513.3)
(1.24581e+06 -500635 -4.38407e-15 -268605 -1.45923e-15 242464)
(685721 -276471 5.13545e-15 16412.2 1.41141e-15 174214)
(-126788 43009.9 9.58271e-15 595.278 1.36697e-14 -31310.9)
(-136187 44972.9 -2.91015e-14 -1927.65 -5.96749e-14 -34269)
(-672936 11369.6 -3.27693e-14 -3963.41 -7.57092e-15 -167952)
(537681 37951.4 7.3491e-14 -3293.7 -1.9299e-14 132592)
(179937 52758.6 2.34335e-15 -816.137 1.32318e-13 44443.6)
(263844 52447.5 4.49102e-14 -2060.83 4.8985e-14 64953.6)
(-643246 29814.1 -1.10822e-15 -2108.04 2.93691e-14 -160125)
(-583672 29352.7 -2.93996e-14 -31.5559 9.73169e-15 -144829)
(-527714 29869.9 -1.78902e-15 -222.288 4.54777e-14 -130992)
(-7158.89 65325.1 -6.81353e-14 -1151.69 1.97619e-14 -2062.02)
(-713948 29778.8 1.96032e-14 -1769.56 2.11303e-14 -177584)
(220800 50398.4 -4.60231e-14 -1008.35 2.26331e-14 54534.7)
(303381 49861 0 -2648.69 0 74617.9)
(288692 43578.4 1.76851e-14 -1828.07 4.25116e-14 71176.7)
(57189.9 53700 -5.75597e-14 2822.54 -1.52596e-13 14890.3)
(3539.8 60536.9 -5.04665e-14 -6484.1 -1.86227e-14 -730.541)
(264726 44776.2 -6.94294e-14 9140.28 1.26724e-14 67951.8)
(-208355 43582.9 -5.66095e-15 -773.182 -4.554e-14 -51888.8)
(32282.6 67217.1 7.97912e-16 -7826.42 1.04028e-14 6068.07)
(1.09136e+06 -465029 -3.97292e-15 -128600 -1.00491e-15 238881)
(142348 56277.4 4.75026e-15 -2490.37 -8.63505e-14 34701.5)
(172568 55788.4 4.00855e-14 -562.402 1.3662e-14 42678.1)
(-116977 56447 0 1845.55 0 -28566.5)
(-138637 61004.5 1.47887e-14 -2528.19 -4.13288e-14 -35025.8)
(401746 57255.6 0 5054.39 0 100935)
(444278 60667.5 2.68327e-14 4142.31 2.56066e-14 111262)
(490652 64605.7 -6.0836e-14 3956.15 -5.8163e-15 122722)
(-217125 42543.5 8.24213e-14 -3645.74 8.38728e-14 -54777.8)
(-150839 47227.4 4.30674e-15 -2891.7 -5.00547e-14 -38143.6)
(-10261.9 64394.7 4.8526e-14 2076.74 2.5909e-14 -2030.9)
(1.09552e+06 23437.8 -8.15612e-15 -16918.2 -1.54212e-14 267622)
(-8008.53 64082.3 -5.26293e-14 -3783.42 1.64313e-14 -2925.82)
(8892.87 46528.8 -5.26054e-14 6394.35 -3.29297e-14 3793.07)
(21534.7 62101.9 3.77169e-14 207.487 -8.77881e-14 5394.67)
(226371 55430.4 4.07601e-14 -1122.59 4.32265e-14 55888.8)
(-98855.7 12925.6 -6.68362e-14 -2751.35 3.29634e-15 -25210.8)
(296479 62049.1 0 -1884.71 0 73094.9)
(1.17382e+06 -32831.2 1.9175e-16 -176688 7.75142e-17 247408)
(235506 21472.4 3.85411e-14 2892.45 8.78397e-14 59151.6)
(224453 28570.5 1.74764e-14 -3994.09 9.5385e-15 54700.3)
(-326323 50726.4 5.7977e-15 3482.63 1.22254e-14 -80103.2)
(-233216 50259.6 -4.48136e-14 1700.12 1.43715e-14 -57443.8)
(-278750 38609.6 -9.20634e-14 1029.88 -1.6167e-14 -68908)
(-200286 42165.2 4.62243e-15 -976.025 -4.87486e-15 -49937.2)
(738394 27642.6 -3.46028e-15 -1621.76 1.12393e-14 182808)
(608953 68605 1.52224e-15 297.235 -2.32218e-14 151167)
(162677 59208.3 8.15817e-15 -1006.79 4.83581e-15 40113.7)
(219904 52321.8 1.52897e-14 926.558 2.61219e-14 54792.5)
(119484 59884.6 4.23765e-14 -3446.63 3.02708e-14 28791.3)
(162965 52603.8 3.80226e-14 -3889.22 -6.03367e-15 39469.9)
(-337261 47008.5 -7.32997e-15 2440.15 1.85754e-14 -83075.8)
(-440785 61865.8 -2.04196e-14 -82.0403 3.66779e-15 -109388)
(-108333 90023.3 2.30824e-14 -577.036 1.66085e-14 -27022.7)
(754666 47908.8 2.59295e-14 2983.09 1.87785e-14 187988)
(819480 49133.1 -5.66218e-15 13052.9 2.84438e-15 206568)
(980889 48106.4 4.58385e-15 -2580.36 2.91482e-15 242738)
(62598.9 58832.8 -8.22928e-14 3239.1 1.00164e-13 16335.7)
(-232666 22863.7 -5.1035e-14 -582.705 -2.62764e-14 -57873.8)
(-222857 30283.1 -6.47365e-14 5818.98 4.3384e-14 -53851.4)
(1.10711e+06 5010.31 0 9609.02 0 277079)
(1.10728e+06 44099.7 0 638.645 0 274896)
(602186 36914.8 9.94059e-15 -1957.87 4.84345e-14 148929)
(600459 16740.6 3.27792e-14 3308.6 -9.13033e-14 149807)
(-631430 16286.6 0 -6214.77 0 -158213)
(-613998 35511.7 0 4329.95 0 -151271)
(19177.3 60464.9 -1.13375e-14 3526.67 3.25641e-14 5633.33)
(-51560.2 36125.9 1.21443e-13 -4338.09 -5.15355e-14 -13869.5)
(-178992 30003.7 -3.20079e-14 -3212.17 -1.18324e-14 -45208.4)
(1.51702e+06 4836.04 0 31601.7 0 384244)
(-27467 56302.9 -8.00402e-14 -5688.04 -2.02224e-15 -8226.44)
(-30424.9 59080.2 -1.15285e-14 -5911.25 -6.43134e-14 -9015.74)
(144087 61883.8 -4.15844e-14 -2593.4 -2.85609e-14 35107.3)
(-117090 63071.2 -8.69207e-14 -2285.84 3.64909e-14 -29619.4)
(138179 45077.7 2.55624e-14 -5435.91 -2.64951e-14 32936.2)
(-538119 35687.2 1.78706e-14 -4002.91 -3.66788e-14 -134511)
(535387 37611.2 -7.29996e-15 -4586.19 -4.48969e-14 131702)
(-994510 54978.9 7.93371e-15 -5986.11 -3.50733e-14 -248243)
(-1.27854e+06 -104403 4.49792e-15 253173 -3.34904e-15 -254414)
(426482 80436.4 -7.06391e-15 -9061.08 8.89743e-15 103571)
(40200.6 66579.3 -4.36842e-15 -2471.24 2.45816e-14 9361.42)
(-508539 56152.8 -2.20312e-14 -4727.61 -6.13069e-14 -127352)
(421337 29374 -2.82946e-14 2736.73 4.07782e-14 105221)
(-300865 39515.8 3.14869e-14 -5982.51 4.0413e-14 -76135.2)
(227882 54459 4.66232e-14 2543.39 7.97058e-16 57173.3)
(39950.5 67171.6 1.28684e-14 590.462 6.04111e-16 10059)
(75732.1 56654.6 -5.44339e-14 -1435.85 6.85629e-14 18434.4)
(-155148 51219.5 3.88381e-14 -10004.4 -4.14726e-14 -40977.7)
(-248556 81390.7 7.14844e-16 3483.97 5.22244e-14 -60807.4)
(-140010 49447.9 5.91228e-15 -9583.19 -4.15624e-14 -37117.2)
(-224741 76981.3 3.75882e-14 2484.13 -1.37669e-14 -55146.5)
(53362.4 47815.6 -2.42531e-14 -1940.66 7.59344e-15 12758.8)
(-24729.6 64928.9 -6.16811e-16 1850.12 -4.53141e-14 -5676.85)
(-16301.9 66951.6 5.58189e-14 1195.44 4.48834e-14 -3748.22)
(-11727.5 65206.8 2.86859e-14 -280.637 -6.26466e-14 -2979.45)
(813067 38751 1.79577e-14 1333.91 2.76566e-15 202070)
(-8790.79 66788.2 -6.37685e-14 -3769.12 -2.84175e-14 -3116.37)
(-32425.8 57730.5 3.115e-14 -7474.81 -1.04602e-13 -9900.15)
(1.1743e+06 -19212.4 -9.01686e-15 -62467.6 -6.74934e-15 275867)
(166652 45185.5 3.33338e-14 -4322.62 -4.28251e-14 40277.2)
(-412060 72494.2 2.3341e-14 7063.12 6.35219e-15 -100488)
(-442056 43516 -3.67231e-14 1685.69 -1.6108e-14 -109265)
(-440420 27362.8 0 -3498.95 0 -110145)
(555330 21159.7 -3.32958e-14 5050.78 -1.58505e-14 139042)
(529839 50095.9 1.86656e-15 6633.43 3.98176e-14 133110)
(-20820.1 49878.4 -3.68632e-14 2483.09 3.01319e-14 -4549.77)
(-15830.5 50109.4 2.67589e-14 1957.64 -1.49926e-13 -3442.13)
(-387061 78819.5 -1.57287e-14 3409.9 -4.04654e-16 -95191.6)
(-519814 61400.1 0 5779.64 0 -127542)
(373609 49039.6 8.68496e-15 3773.54 2.19047e-14 93636.2)
(-981172 70705.8 3.77607e-15 -2785.11 -1.23005e-14 -244140)
(27118.9 49315.7 0 5306.44 0 8045.38)
(502856 41587.1 -1.89766e-15 834.045 1.28578e-14 124976)
(379267 75965.1 -9.96331e-16 5632.16 5.02379e-17 95501.2)
(-226117 58444.7 6.89551e-14 5550.71 -8.87534e-15 -54727)
(-176356 45339.4 -6.70231e-15 3188.62 4.87054e-14 -42966.3)
(-160814 57128.7 1.05942e-14 2866.01 -4.04544e-14 -39190.1)
(-124328 47279.2 -5.98957e-16 459.66 2.37707e-15 -30734.2)
(-191101 34142.8 2.47913e-14 2642.06 3.66821e-14 -46760.6)
(-159099 38268 -4.33641e-14 6799.34 8.75634e-15 -37788.6)
(-189630 68047.4 0 1741.39 0 -46618.9)
(-216904 72380.9 -2.25805e-14 674.174 1.96968e-14 -53650.9)
(-240219 77396.2 -1.86434e-15 1370.83 -2.13272e-15 -59263.2)
(61678 50378.7 -1.06707e-13 1589.38 -5.34561e-14 15697.9)
(-13121.6 62318.9 -2.36774e-14 -2467.45 4.72666e-14 -3867.97)
(441650 32282 -1.36965e-14 3566.08 3.87597e-14 110467)
(461433 40891.6 1.89118e-14 -3969.31 -3.66122e-14 113506)
(78565 56013.6 3.84818e-15 -2496.78 -2.67016e-14 18874.1)
(111348 49244.9 0 1134.43 0 27909.1)
(-270007 77403.1 2.8989e-14 -2990.38 -3.20851e-14 -67736.3)
(227734 53952.4 -5.5322e-14 3507.02 -6.5174e-16 57375.5)
(248609 70475.7 -2.42091e-14 4278.98 -1.48184e-15 62746.6)
(-85712.1 56071 -4.39149e-14 -3307.73 6.31126e-14 -22087.6)
(-71820.1 57404.3 2.56417e-14 -2736.42 1.51485e-15 -18499)
(-107668 59549.3 4.17415e-14 1615.79 1.48804e-14 -26313.7)
(-119850 53893.9 0 613.449 0 -29585.1)
(-558558 41861.5 1.28624e-14 212.425 -1.98267e-14 -138537)
(233457 53795.6 -2.00829e-14 907.389 -8.00401e-14 58150.6)
(170079 55049.6 -9.20908e-15 -189.303 -1.31742e-15 42153.1)
(-71011.5 139915 -6.12455e-15 11391.2 -4.51341e-15 -14793)
(611082 29496 -4.25862e-14 -5375.4 -2.5569e-14 150288)
(-726244 16525.8 3.73145e-14 2127.07 2.23739e-14 -179668)
(-102662 131296 0 -5496.89 0 -26836.4)
(-90677 57046.8 1.53364e-14 2541.88 4.64128e-14 -21868.1)
(-77738.2 59486.2 -1.15359e-13 4227.62 -2.93229e-14 -18239.5)
(-128961 51457.5 4.99155e-14 1149.62 5.63386e-16 -31712.6)
(-111334 54897.5 0 2845.83 0 -26918.1)
(250301 50222.8 2.67287e-14 -1336.73 -4.30807e-14 61773.1)
(287621 63537.3 9.70528e-15 -2314.24 4.12806e-15 70790.3)
(229298 51556.4 -1.96546e-14 -2921.74 1.887e-14 56168.4)
(268045 63318.2 2.07849e-14 -2577.14 5.80193e-14 65867.9)
(206558 48872.1 1.62319e-14 -1502.06 2.7397e-14 50878.5)
(241496 59600 -3.54206e-14 -1786.18 2.03027e-14 59476.9)
(198486 32064.3 1.56301e-14 1601.44 5.92032e-14 49645.7)
(191626 23852.8 4.59848e-14 5309.88 9.86981e-14 48863.8)
(-414219 67331 -9.48676e-15 -406.674 1.26109e-14 -102877)
(171849 57210.5 -4.77751e-14 -2806.06 -1.15261e-15 41942.9)
(-435570 51841.8 0 3062.73 0 -107314)
(750386 63610.4 2.73235e-14 -7218.36 -1.72569e-14 184395)
(-358357 33683.8 4.82068e-14 1338.55 -7.95946e-14 -88583.6)
(-265174 35752.9 5.80656e-14 -40.5096 -3.91055e-14 -65805.1)
(-947903 -448002 -3.65859e-15 154815 8.21542e-16 -196781)
(28235 59414 6.47339e-14 838.196 -1.70467e-14 7213.65)
(800224 43058.1 -9.1015e-15 -2363.49 -4.43296e-16 197965)
(-365609 44439.8 -1.3601e-14 829.814 -3.93223e-14 -90509)
(-266910 44177.9 8.42044e-14 96.2712 4.15442e-14 -66201.9)
(1.25651e+06 -49.744 1.51553e-14 -2253.07 6.75531e-15 311206)
(-53913.9 54059 -9.28609e-15 307.564 3.73471e-14 -13300.8)
(833780 21350.4 2.2866e-14 2726.59 -1.42795e-14 207554)
(-189825 45353.7 2.90611e-14 1618.75 -5.13603e-14 -46697.8)
(-713936 66802.1 1.86678e-14 7437.65 -2.41942e-15 -175297)
(-671625 48261.1 -1.14079e-14 -4843.65 -8.93657e-16 -167846)
(640807 49576.8 -2.16682e-14 269.791 1.42751e-14 159064)
(-76553.7 57825.2 -1.2827e-13 3799.83 -5.85437e-14 -18051.7)
(-2090.04 -24113.6 1.48758e-16 -37753.4 5.2797e-17 -9885.96)
(-12175.4 58231.8 0 2974.92 0 -2282.82)
(-1.25681e+06 -399330 5.99878e-15 164559 -1.66147e-15 -271009)
(940764 -445483 7.07184e-15 -155720 2.24286e-15 194785)
(-551896 67760.7 2.36555e-14 -5538.85 -2.31087e-14 -138311)
(180469 46549 9.70224e-15 489.686 3.76205e-14 44899.6)
(243003 41319.5 -3.15183e-14 251.943 7.16937e-14 60356.4)
(77482 56805.3 6.25374e-14 -1875.23 1.86764e-14 18759.6)
(-141057 20432.3 3.62604e-14 857.978 -5.58654e-14 -34786.3)
(116240 65455.6 -3.05508e-14 -561.593 2.80096e-14 28702.2)
(-61173.4 47848.9 9.02331e-15 1051.45 1.38699e-14 -14917.5)
(-66042.2 80839.2 6.84873e-15 2519.42 2.00759e-14 -15761.3)
(-1.01515e+06 17197.5 -3.22478e-15 28011 7.92676e-15 -244930)
(8444.08 -14348.2 3.90076e-17 -25023.9 2.4193e-17 -4113.8)
(-305917 64153.7 -1.32106e-16 3662.36 2.58429e-15 -74995.4)
(235857 42619 2.27314e-14 -753.648 7.08939e-14 58333.8)
(1.06684e+06 -205655 6.15759e-16 -29699.2 8.34712e-16 257335)
(-27554.5 47205.5 -5.89036e-15 -3558.89 -4.58946e-14 -7719.85)
(-31565.6 67354.3 4.67568e-15 -683.896 4.48201e-14 -8001.75)
(-18688.8 59892.5 -8.01612e-16 1385.58 -6.89789e-14 -4293.27)
(-53093.4 61455.7 -1.32341e-14 1084.34 1.81488e-14 -12904.5)
(20272.4 59068.6 2.0289e-14 -531.343 5.25591e-14 4898.16)
(13957.6 62971.4 -4.74716e-14 -1096.41 -1.55401e-14 3191.13)
(-1.07465e+06 -205281 2.70249e-15 28882.8 -8.31819e-16 -259476)
(346251 69781.7 -1.98417e-14 645.756 1.08263e-14 86072.1)
(-119242 55814.9 -1.26948e-13 2061.09 -3.60931e-14 -29074.9)
(382002 59161.3 6.92652e-14 5569.59 -1.17139e-13 96164.4)
(345011 55762.2 -7.06539e-16 4892.38 -4.44519e-14 86818.2)
(312328 52449 -1.25824e-13 2388.86 1.91532e-14 78087.5)
(57191.9 39654.1 -6.20253e-14 4420.5 -2.32548e-14 15287.3)
(-799035 31769.1 3.51674e-14 -2799.21 -3.43978e-14 -198951)
(235047 44156.7 6.73545e-14 -1134.07 7.26168e-15 58038.5)
(326055 43655.3 -3.05497e-14 -1011.4 -4.38707e-14 80649.9)
(-68519.4 56713.3 -1.07473e-13 -568.911 -1.81695e-14 -17142.2)
(534682 77285.6 7.63303e-15 -6952.24 1.12649e-14 130940)
(95108.2 46398.9 -4.34963e-14 -1947.55 2.953e-14 23115.1)
(-1.08251e+06 27997 -1.23557e-14 -1568.19 -4.65623e-15 -268982)
(28904 58112.7 -5.60753e-14 2069.13 -4.73014e-14 7685.07)
(-86805.1 59162.5 -1.11575e-13 2972.81 5.28359e-14 -20800.5)
(273551 51142.9 8.75209e-14 3224.04 -1.27528e-14 68673.6)
(246564 48714.9 8.10176e-14 2228.88 1.97163e-14 61730.6)
(223388 45841.4 -5.83621e-14 541.03 1.61608e-14 55561.2)
(558854 46835.9 9.14875e-15 356.293 1.97361e-14 138751)
(105693 56453.5 -3.76889e-14 1699.48 -8.10445e-14 26646.2)
(-291191 54722.6 2.6958e-14 -4360.83 6.20252e-16 -73332.4)
(-238522 87310 1.67812e-14 2417.1 1.88594e-14 -58582.5)
(-126441 43747.2 0 618.845 0 -31219.1)
(-384126 61641.9 -3.54722e-14 -3849.03 1.08097e-14 -96264.5)
(-424321 64249.7 -5.38355e-14 -4188.23 -3.61737e-15 -106322)
(-469801 69482.2 -5.41277e-14 -4967.29 2.61788e-14 -117800)
(211741 46448.5 1.05786e-15 3056.82 1.3329e-14 53295.7)
(147105 52010.6 1.67824e-14 1402.54 -2.10572e-14 36847.7)
(49134.8 15396.1 -4.88162e-14 2107.67 1.76349e-14 12714.3)
(79027.8 47558.2 0 -1979.92 0 19117.1)
(103406 40722.4 -5.7092e-14 -770.469 3.4142e-14 25466)
(1.28272e+06 -48070.8 -3.3456e-15 -182935 -1.64015e-15 272879)
(416965 36158.7 5.76295e-14 -1391.59 -5.91751e-14 103112)
(-317609 55252.2 0 -327.243 0 -78886.3)
(-228976 53030 -2.84507e-14 4267.3 -1.26661e-15 -55754.8)
(178402 56350.9 1.50418e-14 -2010.49 -1.86325e-14 43766.4)
(-57929.8 60198.9 2.50615e-14 -1302.53 2.05985e-14 -14696.7)
(-11019.9 65702.5 7.32543e-14 -474.591 -5.78868e-14 -2852.03)
(15366.5 49090.6 6.01786e-14 5040.59 -9.56156e-15 5063.41)
(17403.3 51536.1 -3.17241e-14 5392.79 -2.96765e-14 5656.17)
(-6803.91 79955.1 -1.60177e-15 -3322.2 -1.32352e-14 -2512.49)
(-4559.91 44602.1 -1.37787e-14 -435.695 4.64531e-14 -1239.51)
(-2149.35 50023.9 -5.13222e-14 -3430.09 3.83185e-14 -1384.37)
(6225.08 59057.6 4.88748e-14 -10484.1 -2.22636e-14 -1056.76)
(83551.2 48987 -4.02755e-15 1960.86 -1.92652e-14 21217.3)
(-174192 88389.3 -9.64879e-16 1653.75 -9.56067e-15 -42810.2)
(47911.8 56728 1.22819e-13 -542.311 -2.42358e-14 11753.3)
(3074.76 86308.3 5.55941e-15 -9922.87 8.08769e-15 -1699.15)
(-352444 82889.4 -1.37544e-14 -2472.22 -8.34093e-15 -88061.9)
(413636 46039.9 4.41238e-14 4024.46 3.96229e-14 103630)
(-174154 55228.2 -4.73195e-14 158.486 1.55013e-14 -43171.7)
(-855795 175912 -2.4482e-15 160944 1.49947e-15 -172407)
(-115982 43722.8 3.35861e-14 -2513.69 3.65807e-14 -29401.1)
(-192817 82046.7 0 704.559 0 -47667)
(52495.4 55007.6 6.55102e-14 -2991.43 -9.07085e-14 12283)
(78971 48282.3 3.47478e-15 80.3019 1.13239e-14 19614.2)
(941691 -207879 -7.62409e-16 29540.2 1.36539e-16 240982)
(-1.23886e+06 16351.9 -1.01851e-14 6588.64 4.69334e-15 -305752)
(343188 46796.7 2.12636e-14 6514.89 1.79434e-14 86768.5)
(380470 49518.1 -2.1963e-14 6460.52 4.77072e-14 96005.3)
(-120714 59099.2 -1.55293e-13 4357.5 -5.55598e-14 -28870.5)
(76874.5 68267.4 2.78555e-14 4520.82 5.51283e-14 20195.8)
(-20258.2 55523.4 4.36773e-14 -4938.46 6.66619e-14 -6251.79)
(-535984 -348539 -6.51137e-16 41033.2 2.74768e-16 -122807)
(-1.18634e+06 49728.6 3.36293e-15 2026.55 4.32276e-15 -293852)
(1.06539e+06 32819.5 1.83164e-14 482.463 -9.11308e-15 264466)
(-1.5768e+06 -22210.4 -4.82192e-15 -5038.39 -2.10128e-15 -392485)
(435643 40033.7 -1.91223e-14 -2511.25 -2.991e-14 107469)
(302080 38665 -3.1801e-14 -1684.74 1.16753e-13 74534.2)
(-398144 59790.5 0 8213.52 0 -96749.7)
(49447.7 44486.4 -5.84014e-14 -5217.36 2.78689e-14 10974.4)
(-36145.8 65309 -4.67354e-14 2535.83 2.47976e-14 -8339.31)