/*--------------------------------*- C++ -*----------------------------------*\
| =========                 |                                                 |
| \\      /  F ield         | OpenFOAM: The Open Source CFD Toolbox           |
|  \\    /   O peration     | Version:  2.3.1                                 |
|   \\  /    A nd           | Web:      www.OpenFOAM.org                      |
|    \\/     M anipulation  |                                                 |
\*---------------------------------------------------------------------------*/
FoamFile
{
    version     2.0;
    format      ascii;
    class       volSymmTensorField;
    location    "1220";
    object      sigma;
}
// * * * * * * * * * * * * * * * * * * * * * * * * * * * * * * * * * * * * * //

dimensions      [1 -1 -2 0 0 0 0];

internalField   nonuniform List<symmTensor> 
11800
(
(74577.5 55234 3.65159e-14 -2076.32 1.93952e-14 17989)
(-40318.3 54168.3 5.60543e-14 -3205.18 1.78397e-14 -10799.1)
(316657 60227.5 -8.3687e-16 780.702 -4.15203e-14 78762.6)
(-280437 39056.3 0 1795.16 0 -69136.8)
(-41166 51961.8 1.04597e-14 -7481.91 -2.96354e-14 -12070.5)
(-176890 64374.7 4.10675e-14 3027.92 2.15938e-14 -43138.8)
(-32336.7 64119.6 7.68198e-14 -611.54 -2.00235e-14 -8175.14)
(-44890.1 62900.9 -1.14813e-14 1392.35 4.63417e-14 -10792.7)
(101894 46654.7 1.62184e-14 372.692 -1.11496e-14 25374.4)
(64796.7 65550.1 -4.01096e-14 1016.86 -3.38759e-14 16329.7)
(86561.7 49026.7 -3.04648e-14 -338.191 2.6147e-14 21393.8)
(-406264 31335.9 -3.7077e-14 -3616.4 -1.68795e-14 -101700)
(13583.2 -19767.8 7.3728e-17 -36668.3 5.7284e-17 -5727.88)
(294163 39096.7 3.3753e-14 2288.53 -9.28522e-15 73555.6)
(-239285 59907.9 -2.78575e-14 6030.12 2.17201e-14 -57875.4)
(1.20992e+06 3285.35 0 -3433.2 0 299354)
(-21413.4 54669.4 2.59948e-14 1310.69 2.30064e-15 -4987.89)
(-32446 49216.5 -1.47204e-14 3541.18 8.48445e-14 -7171.87)
(68761.5 81093.6 -1.59111e-14 -9470.84 1.13793e-14 14711.2)
(48749.5 45946.1 -5.33947e-14 -4708.64 -1.73061e-14 10927.4)
(-222148 43478 1.65242e-14 1298.86 1.7351e-14 -54797.2)
(-354495 56531.5 2.65032e-14 1434.16 -1.54444e-14 -87601.5)
(-532601 80193.3 -1.43763e-14 7411.79 9.36008e-15 -130310)
(-488985 54155.6 1.50458e-16 812.972 2.53307e-15 -121125)
(977326 54981.2 1.59344e-15 -5082.38 2.05905e-14 241233)
(-625227 78266.4 -1.40511e-14 5020.66 -4.279e-16 -153886)
(-597488 40657.1 0 5205.96 0 -146957)
(291948 34151.3 -4.33763e-14 -5071.34 -2.62546e-14 71179.9)
(-662374 42275.7 -7.98911e-15 6497 -3.76038e-14 -162736)
(-730742 43961 1.04039e-14 6790.77 -1.63552e-14 -179627)
(198144 37936.1 -5.36237e-14 -1040.93 -9.63697e-14 48905.3)
(38666.5 55346.4 -9.41963e-15 1604.64 -7.92451e-15 9992.09)
(623908 74098 -2.23039e-15 6840.77 -1.00712e-14 156502)
(-17719.8 61938.1 7.01953e-15 -101.323 -5.26647e-14 -4421.78)
(10823.1 63475.1 -1.85372e-14 4354.94 -7.98358e-14 3765.98)
(-196399 31095.3 -4.86954e-14 4361.09 -3.54381e-14 -47648.5)
(10955.3 63285.8 6.58621e-14 2860.36 -7.85732e-14 3427.93)
(669135 50991.8 -8.1814e-15 3425.95 -3.61571e-14 166876)
(-23112.4 59042 0 -3768.28 0 -6669.63)
(46862.4 53713.4 -2.31238e-14 2560.84 4.31576e-14 12262.9)
(-628190 34472.7 -4.18104e-14 -2797.47 -1.9509e-14 -156561)
(-696106 35288 3.00746e-14 -2766.3 -1.7314e-14 -173404)
(305971 42636.6 -1.66731e-14 -3215.34 -5.58377e-14 75119.9)
(-767826 36809.2 -5.97765e-15 -3206.66 -3.10668e-14 -191309)
(207779 44492.8 1.42599e-13 2261.4 -4.46154e-14 52115.4)
(1.12851e+06 36276.3 0 -4354.52 0 278927)
(499497 85568.9 -9.10591e-15 -2372.58 4.83072e-15 123347)
(597836 43141.2 -1.59758e-14 -6312.35 -1.1235e-14 146769)
(-51424.5 60180.8 -5.65526e-14 -1838.69 -3.49435e-14 -13215.7)
(116950 55523.3 0 1277.66 0 29334.6)
(-416848 33034.2 -2.68564e-15 2393.96 2.92062e-14 -102834)
(-295218 33451.1 9.49441e-14 5036.6 1.11616e-14 -71999.9)
(-6182.64 62714.7 5.31019e-14 -1024.11 3.31731e-14 -1788.14)
(20137.6 95467.3 -1.28469e-15 4645.04 1.12254e-14 6149.08)
(-1.29729e+06 5688.48 -2.04782e-15 -6973.42 -3.00458e-15 -323614)
(1.08611e+06 -33675.1 2.59219e-15 -50027.9 4.81561e-15 257073)
(-36355.6 24358.1 4.57812e-14 1688.44 1.70342e-14 -8601.62)
(-266802 63034 3.44084e-15 -2626.18 -2.90473e-14 -66850.6)
(210289 45992.9 -2.92364e-14 4393.67 4.28656e-14 53267.1)
(-192176 63863.8 2.42231e-14 -4762.18 -4.37382e-15 -48864.3)
(1.1048e+06 26075.4 -2.29792e-14 -7839.26 -7.97076e-15 272179)
(-26095.7 64929.9 2.24702e-14 228.789 -3.6689e-14 -6418.1)
(-211177 54579.7 -1.32451e-14 -2293.73 2.28782e-14 -52966.5)
(164658 54941.9 3.98566e-14 367.101 -2.27914e-14 40946)
(967992 19344.5 2.57121e-15 386.369 -1.48706e-14 240274)
(-136622 33206.9 -6.43602e-14 2647.93 -7.79599e-14 -33241.8)
(-431425 20060.7 4.55624e-14 1691.9 1.52413e-14 -106626)
(-308944 22327.5 1.22681e-15 4085.39 -7.9757e-14 -75641.7)
(-37131.7 26184.6 0 -2091.34 0 -9732.04)
(-583273 50850 -9.90806e-16 5998.96 3.70805e-14 -143233)
(-15407 64876.1 -1.28875e-14 585.277 2.66848e-14 -3677.58)
(-28733.4 53308.9 -4.96553e-14 -3044.16 5.5712e-14 -7884.65)
(-25752.2 51558 3.48275e-14 -4225.04 -2.13705e-14 -7437.96)
(-930659 222028 -3.33597e-15 125900 3.12071e-15 -199677)
(1.09241e+06 52359 -7.83146e-16 -4022.5 -9.28554e-15 270052)
(-185145 41040.6 -4.78348e-14 6923.3 -3.4855e-14 -44220.5)
(1.00038e+06 17721.9 -1.88237e-14 2941.1 1.6749e-14 248944)
(-133561 24981.1 4.23159e-14 1179.61 -1.39155e-13 -32846.6)
(-99498.3 41312.1 7.95222e-15 4116.11 -7.61174e-15 -23666.3)
(-96611.7 48624.8 8.11581e-14 3755.11 8.16213e-14 -23039.6)
(-1.3126e+06 -20458.8 7.2577e-15 4283.17 3.2647e-14 -324620)
(50894.5 44351.9 0 4915.75 0 13847.6)
(30844.1 53141.6 -8.44086e-14 109.636 -3.33552e-14 7680.25)
(20935.1 56533.1 2.92623e-14 2807.65 -2.34935e-16 5891.07)
(-41872.2 48778.3 2.03344e-14 -4491.13 5.76811e-14 -11503.7)
(-708103 52662.9 -1.1421e-14 -3304.27 5.93754e-14 -176515)
(210190 42857.3 6.81817e-14 1964.05 -2.12687e-14 52639.7)
(-640830 48905.7 0 -3024.96 0 -159754)
(-579165 47505.8 -2.43099e-14 -2674.41 -2.48786e-14 -144366)
(304621 39476.3 3.13254e-14 2850.46 1.90329e-15 76289.9)
(-7386.3 60798.6 -1.10008e-13 -1835.7 -7.07597e-14 -2288.17)
(739804 69316.5 0 -2838.46 0 182856)
(-58913.8 55309.3 -2.3337e-14 1757.02 -3.88015e-14 -14181.8)
(43392 22444.9 -1.34841e-14 3221.83 -1.96008e-14 11565.8)
(83146.3 49764 1.04254e-13 65.3352 1.85793e-15 20646.5)
(31446.8 -23738.3 -4.69414e-16 -66850.3 -3.47972e-16 -8784.32)
(-1665.68 6494.13 1.21787e-17 3895.42 -7.23443e-17 553.242)
(-31596.4 -23474.4 -2.95687e-16 66357.9 1.97017e-16 8625.05)
(-7332.16 62267.2 -3.4203e-14 -1595.02 -5.021e-16 -2215.01)
(-352800 39830 -8.45329e-15 -1806.77 3.40876e-14 -87985.2)
(29667 36762.2 1.8808e-14 -456.566 -5.27714e-14 7247.7)
(380248 44425.9 -4.10459e-14 -4101.57 -5.70815e-14 93329.6)
(-700438 75095.6 2.9568e-15 624.682 6.0021e-15 -173638)
(-236432 61407 -1.81079e-15 3852.59 5.78002e-15 -57707.6)
(1467.38 65672.6 -5.28244e-15 -300.43 -2.63445e-14 289.543)
(173237 72759.9 -1.15385e-14 1373.23 -2.01263e-14 43324.2)
(-77499.4 51556.9 -3.24914e-14 797.461 7.18692e-14 -19031.3)
(-54705.8 55692.7 -1.0969e-13 -463.926 -5.30386e-14 -13688.7)
(1.07175e+06 23297.5 6.61204e-15 3462.78 1.41409e-14 266781)
(636267 44579.1 1.04252e-14 1799.55 2.10918e-15 158317)
(704827 46971 2.00159e-14 2479.06 2.81729e-14 175497)
(576044 42590.3 7.23588e-14 2418.06 4.29833e-14 143528)
(-214419 43312.5 3.19804e-14 -4011.65 5.00301e-14 -54197)
(-310915 40547.1 -8.471e-14 -3232.41 3.04915e-14 -77946.4)
(108108 47523.6 3.67646e-14 -131.383 -1.93233e-14 26791.2)
(966169 35090.2 1.00989e-14 661.302 6.0079e-15 239890)
(131115 28412.8 -2.63344e-14 -3393.17 -1.03647e-13 31690.5)
(-39250.3 59169.9 -9.11739e-14 1649.77 8.55077e-14 -9329.46)
(904346 56621 -1.17744e-14 506.165 1.46989e-14 224512)
(-69941.6 67618.5 -3.01251e-14 538.086 -8.12817e-15 -17220.4)
(-120402 43421.1 -2.15658e-14 2075.94 -9.14264e-15 -29359.1)
(33561.8 64350.5 6.53704e-14 -3181.77 -9.38019e-14 7537.91)
(46350 63625.8 -4.57658e-14 -852.24 3.15382e-14 11288.9)
(-31977.5 54153.7 -1.3274e-14 -778.133 -1.96218e-14 -8127.35)
(-61349.3 52894.9 -8.30211e-14 1050.91 -6.49528e-14 -14961.2)
(-2388.78 62197.2 -7.9786e-14 -2580.87 -6.02249e-14 -1233.07)
(-21029.5 62182.4 -4.78438e-14 -5110.06 5.27123e-14 -6485.75)
(-3068.1 61761.2 -3.12829e-14 -1125.1 -2.98972e-14 -1040.42)
(5950.7 48897.6 1.4961e-15 27996.7 6.69717e-14 8423.04)
(-26223.3 13844.6 -2.66138e-16 -5996.92 3.19456e-14 -7994.48)
(-1.1967e+06 -188030 1.07808e-14 49982.2 -5.52909e-15 -284524)
(-822372 55680.2 7.5805e-15 -5645.13 -1.15049e-15 -205448)
(230908 38525.8 3.60999e-14 4169.92 -3.5275e-14 58327.6)
(-702584 52769.3 -2.9032e-14 1666.09 1.82988e-14 -173912)
(325241 34567.8 -1.63897e-14 4884 4.95072e-14 81910.7)
(-632787 48327.5 1.10614e-14 2025.43 1.11018e-14 -156505)
(-571690 46223.6 -6.27513e-14 2423.72 4.81096e-14 -141247)
(191905 49559.7 3.5278e-14 -441.526 9.8674e-14 47506)
(-602696 30987.8 3.95385e-14 4393.18 -5.48317e-14 -148451)
(272723 48541.4 4.40461e-14 -209.916 -3.513e-14 67616.1)
(-543645 28717.9 3.24122e-14 3806.24 -5.63129e-14 -133945)
(-491497 28801 -3.3654e-14 4233.88 -3.03201e-14 -120900)
(-297601 68158.1 2.63536e-15 9281.46 2.6263e-14 -71537.9)
(82171.1 56740.1 -1.7596e-14 -4877.53 -1.17766e-13 19178.1)
(115603 51993 -2.82501e-14 -4272.43 -8.19645e-14 27623.5)
(-172502 50657.5 -8.57322e-15 5478.59 4.98421e-14 -41441.9)
(688882 31566.2 -5.45414e-14 620.262 -1.8363e-14 171079)
(-721267 -969.512 5.26101e-14 -6556.02 1.63525e-14 -180588)
(399711 36434 3.69096e-14 -2407 -3.44064e-14 98579.3)
(-234113 44650.5 8.7542e-16 4397.03 5.22695e-15 -56997.2)
(-101703 55402 -4.56736e-14 3284.56 -3.7836e-14 -24419.6)
(-106247 49724.3 3.90912e-14 109.289 -3.54656e-14 -26334.8)
(9960.16 62365.1 2.9717e-14 2310.91 5.4448e-14 3044.7)
(-149348 42780.6 -6.6852e-14 2256.86 6.94964e-14 -36496.2)
(119114 47522.6 -3.5151e-14 -4103.83 -3.72488e-14 28536.3)
(79561.6 57413.2 -3.2134e-14 736.717 2.484e-14 19923.7)
(-264478 44281.6 5.44619e-14 5366.28 -3.67478e-14 -64290.8)
(-365329 46559 1.99915e-14 1582.2 4.36651e-14 -90252.9)
(789230 25215.4 1.29364e-14 1073.87 -2.0363e-16 196091)
(-2957.43 63928.1 1.55987e-14 711.911 -7.61041e-14 -557.158)
(1.2166e+06 55166.6 -1.55034e-14 -8713.78 -8.48454e-15 299701)
(-123217 49982.4 -5.77448e-14 1867.48 3.98894e-14 -30109.3)
(1.00341e+06 36839.7 0 -10708 0 246309)
(-275026 49383 1.76034e-14 -1270.99 7.32191e-14 -68554.9)
(-303941 50833.7 -1.80359e-14 -2077.52 2.15115e-14 -75929.5)
(-336217 54146.8 -2.79653e-15 -2871.61 7.86424e-14 -84134.7)
(144588 52721.6 -4.29864e-14 184.052 1.06075e-14 35921)
(98126.7 57396.9 -4.56909e-14 -640.528 1.13175e-14 24188.3)
(-1.35113e+06 -2561.84 1.2382e-14 -6517.34 -7.09812e-15 -336860)
(-785520 52958.4 -1.21847e-14 -4060.4 2.32873e-14 -195911)
(256543 42073.4 -4.56491e-14 3621.12 -2.67796e-14 64552)
(349956 37446.3 1.29079e-13 2348.24 -6.95319e-14 87413.8)
(42848.9 58720.1 2.5098e-14 -5354.06 -6.50614e-14 9303.23)
(-218338 30796.4 0 1782.21 0 -53731.9)
(-223932 22274.9 6.85929e-14 1610.15 -3.49413e-14 -55162.5)
(1.11783e+06 38724.3 1.97274e-14 -9178.59 1.32155e-14 275080)
(1.14759e+06 1397.93 1.63025e-14 7914.65 1.45246e-14 286705)
(564813 27033.9 8.05761e-16 48.8594 3.37799e-14 140154)
(511523 26669.2 6.46875e-15 824.631 8.123e-14 127124)
(625517 27082.6 1.76982e-14 -557.606 -2.55296e-14 155065)
(-261975 49128.4 -4.14671e-14 2570.8 3.74052e-14 -64363.4)
(-177964 50547.2 -4.01429e-14 982.397 4.41478e-14 -43912.7)
(112521 62479.3 0 1124.22 0 28197.6)
(74594.3 66244.9 -1.7012e-15 998.583 6.39839e-14 18756.1)
(246193 51132.8 -5.00305e-14 -702.316 4.09832e-14 60911.2)
(-106392 49205.8 -3.99741e-14 469.014 9.51529e-14 -26281.6)
(-181757 74088 -8.27267e-15 2173.91 3.69086e-14 -44558.3)
(51270.1 56443.5 -1.46238e-13 -799.883 -3.89115e-14 12522.7)
(71504.2 50799 -1.01606e-13 -128.305 4.26214e-14 17709.8)
(-49857.7 61074.6 -1.96985e-14 1605.95 -2.74684e-16 -11972.3)
(-135407 48718.8 -1.70303e-14 2075.17 -1.06868e-14 -33082.4)
(-121831 46779.8 1.1141e-14 1426.14 -1.91066e-14 -29875)
(-125569 40466.9 0 -928.339 0 -31386.5)
(-65914 78254.6 2.51228e-16 -2496.45 -2.3319e-14 -16974)
(-524510 10924.5 4.83562e-14 -5011.34 -2.11817e-14 -131385)
(664614 35729 -6.37215e-14 -3091.02 -6.31474e-15 164137)
(965998 120751 4.10325e-15 -180094 2.10097e-15 194999)
(-23273.9 57935.3 1.30551e-14 -1617.4 -2.96748e-14 -6176.03)
(137539 25151 4.76237e-14 634.41 -1.08979e-13 34283.7)
(-1.22344e+06 -140284 1.031e-14 102809 -6.87544e-15 -278051)
(63355.9 47684.9 2.04054e-15 3384.26 5.54189e-14 16559.6)
(166613 32785.3 3.84852e-14 2849.68 -4.42555e-14 42047)
(183146 34790.8 5.37277e-14 -3230.27 -2.27117e-14 44640.9)
(-2554.11 64505.9 4.04337e-14 -1.85826 -6.01555e-15 -634.186)
(-3138.78 65895.1 4.26547e-14 -549.598 3.61846e-15 -915.161)
(482081 29238.5 1.37908e-14 -3733.37 4.65496e-14 118688)
(398968 58920.4 1.77662e-14 1942.45 -4.30675e-15 99474)
(-359933 50342 0 2229.21 0 -88753.7)
(-308793 34827.3 -4.45957e-14 -5622.75 -2.79601e-14 -78012.8)
(1.18691e+06 -189588 -4.30864e-15 -51059.1 -2.99402e-15 281828)
(-341082 82907.8 -3.71447e-15 9380.19 4.4557e-14 -82301.8)
(-555364 41294.5 2.63251e-14 -1459.53 -1.56725e-14 -138159)
(-1.24401e+06 -500072 -1.16707e-14 264713 4.59031e-15 -242983)
(1.39005e+06 3476.07 0 19355.5 0 349701)
(-1.09013e+06 -463890 -3.80125e-15 124647 1.17919e-15 -239555)
(174842 85544.7 -2.51436e-14 -189.165 8.97827e-15 43334.8)
(-39914.2 54594.9 -4.12703e-15 -3222.73 5.78342e-14 -10703.2)
(-496995 61785.9 2.15091e-14 -3786.84 -2.38243e-14 -124254)
(-445973 58942.9 3.18539e-14 -2809.55 -3.9586e-15 -111352)
(-403218 56627.5 -3.60277e-14 -2562.76 1.37067e-15 -100682)
(144280 48876.7 3.06437e-14 2570.57 -8.56539e-14 36436.7)
(210541 44412.5 -7.71457e-14 2589.9 7.51349e-14 52882)
(21515.7 54093.8 -1.2088e-14 -5275.87 5.68682e-14 4029.42)
(29411.7 48710.7 2.87307e-14 -6056.16 3.68902e-14 5794.99)
(-78266.3 78731.7 -3.47147e-14 12058.6 9.44912e-15 -16427.5)
(-44652 47407.2 2.47636e-14 7581.09 -3.17617e-14 -9198.05)
(-684419 -275839 -2.95157e-15 -17820 6.13494e-16 -174240)
(109118 78724.4 -1.95203e-14 8347.52 -6.99078e-14 29145.5)
(-53245.6 48866.2 -6.42693e-14 -4968.32 -2.94559e-14 -14444.1)
(-249563 66642 0 -112.561 0 -61949.5)
(109072 52554.1 5.20443e-14 218.342 -2.13869e-14 27117.2)
(-52642.5 60578.5 0 -174.955 0 -13105.1)
(-42090.8 55480.2 -3.10461e-14 349.154 -4.93092e-14 -10357)
(365395 49738.4 4.43442e-14 2336.23 -4.63728e-14 91241.5)
(376140 37101.2 6.75881e-14 -666.411 3.23386e-14 93162.7)
(1.23591e+06 -497243 -4.34345e-15 -261923 -1.43816e-15 241666)
(680041 -274459 5.08862e-15 17973.1 1.38956e-15 173192)
(-125302 42763.2 9.46618e-15 546.218 1.35041e-14 -30954.5)
(-134611 44747.7 -2.87474e-14 -1938.28 -5.89521e-14 -33880.7)
(-663475 10525.4 -3.23912e-14 -3744.62 -7.48311e-15 -165551)
(530319 36916.8 7.26238e-14 -3000.42 -1.90717e-14 130839)
(177551 52261.4 2.31334e-15 -824.144 1.30715e-13 43849.5)
(260127 51663.6 4.43671e-14 -2026.86 4.83927e-14 64040)
(-634774 27878.5 -1.0927e-15 -834.56 2.90368e-14 -157707)
(-576152 27989.1 -2.90722e-14 -272.657 9.61953e-15 -143023)
(-520669 28539.2 -1.76439e-15 -308.391 4.49522e-14 -129265)
(-7031.05 64870.2 -6.73065e-14 -1174.96 1.95224e-14 -2036.08)
(-705612 28583.4 1.9397e-14 -1797.98 2.09e-14 -175523)
(217703 49843.3 -4.54664e-14 -1029.17 2.23595e-14 53761.3)
(299021 49057.7 0 -2431.91 0 73589.7)
(284421 42764.8 1.74748e-14 -1947.86 4.20096e-14 70087.3)
(56391.1 53340.3 -5.68589e-14 2793.37 -1.50747e-13 14684.9)
(3457.56 60313.5 -4.98527e-14 -6444.93 -1.83978e-14 -741.228)
(261412 43238.6 -6.87302e-14 8260.06 1.25273e-14 66911)
(-205693 42701.8 -5.59675e-15 -1042.72 -4.50099e-14 -51295.3)
(31282.3 65376.5 7.88949e-16 -8740.97 1.02914e-14 5592.95)
(1.08283e+06 -461716 -3.93631e-15 -123191 -9.87024e-16 238105)
(140410 54926.3 4.69672e-15 -2674.48 -8.53375e-14 34174.9)
(170168 54378.4 3.96213e-14 -1120.61 1.35031e-14 41944.2)
(-115575 55236.6 0 1625.47 0 -28273.3)
(-136891 59767.9 1.4613e-14 -2574.55 -4.08346e-14 -34604.3)
(395958 55861.1 0 4542.41 0 99372.2)
(438162 58954.5 2.65321e-14 3900.2 2.53151e-14 109685)
(484337 63044.2 -6.01734e-14 3911.93 -5.74967e-15 121145)
(-214200 42032.4 8.14288e-14 -3579.89 8.28617e-14 -54035.6)
(-148837 46751.9 4.25419e-15 -2643.55 -4.94483e-14 -37585.5)
(-10203.6 64102.8 4.79355e-14 2064.85 2.55956e-14 -2019.39)
(1.08455e+06 22505.9 -8.07405e-15 -16095.4 -1.52629e-14 265106)
(-7967.83 63280.2 -5.19943e-14 -3779.08 1.62328e-14 -2914.64)
(8630.77 45350.4 -5.20322e-14 5756.42 -3.25674e-14 3569.75)
(21247 61788.8 3.72582e-14 208.591 -8.67262e-14 5323.57)
(223337 54526.2 4.02808e-14 -1011.86 4.27167e-14 55163.4)
(-97726.1 12940.1 -6.60256e-14 -2720.33 3.25678e-15 -24922.8)
(292038 60848.1 0 -2063.84 0 71948.4)
(1.16407e+06 -33626.8 1.89951e-16 -171854 7.63372e-17 246190)
(232479 21303.4 3.80726e-14 2818.16 8.6775e-14 58381.9)
(221501 28309.7 1.72642e-14 -3986.91 9.42284e-15 53969.7)
(-321684 49929.4 5.72878e-15 3661.44 1.20786e-14 -78907.9)
(-229884 49677.9 -4.42709e-14 1786.63 1.41975e-14 -56595.7)
(-275043 37892.5 -9.09605e-14 727.674 -1.5975e-14 -68063.2)
(-197516 41660.4 4.56637e-15 -1080.17 -4.81579e-15 -49275.8)
(729641 26588.2 -3.42508e-15 -1280.73 1.11175e-14 180721)
(601113 66867.1 1.50916e-15 -734.452 -2.29669e-14 148966)
(160290 58351.2 8.06062e-15 -1161.64 4.77794e-15 39482.9)
(216709 51566 1.51062e-14 731.039 2.58093e-14 53951.2)
(117768 59100.8 4.18639e-14 -3423.75 2.99045e-14 28371.1)
(160858 51892.4 3.75632e-14 -3586.84 -5.96141e-15 39022)
(-333173 45507.4 -7.25036e-15 2842.99 1.83699e-14 -81961.7)
(-435074 60133.6 -2.01997e-14 1007.35 3.62908e-15 -107701)
(-107017 88897.9 2.28432e-14 -193.924 1.64336e-14 -26601.1)
(746357 46585.3 2.56665e-14 3269.83 1.85795e-14 185998)
(810737 47644.7 -5.60602e-15 13754.3 2.81549e-15 204573)
(970839 46916.9 4.5378e-15 -995.004 2.88311e-15 240638)
(61745.8 58436.3 -8.12923e-14 3193.45 9.89507e-14 16112.7)
(-229751 22635.1 -5.0416e-14 -687.673 -2.59583e-14 -57176.6)
(-219993 29934.9 -6.39508e-14 5691.86 4.28575e-14 -53172.5)
(1.09374e+06 3953.56 0 8518.71 0 273493)
(1.09385e+06 42719.2 0 -311.34 0 271329)
(593590 35523.2 9.81881e-15 -1869.86 4.78592e-14 146818)
(591959 15560.1 3.24055e-14 3131.76 -9.02187e-14 147654)
(-622540 15373.4 0 -5579.59 0 -155849)
(-605395 34291.6 0 4529.92 0 -149087)
(18904.4 60170.9 -1.11996e-14 3445.58 3.21702e-14 5545.48)
(-51051.1 36041.3 1.19969e-13 -4319.47 -5.09126e-14 -13738.6)
(-176848 29845.3 -3.1619e-14 -3158.92 -1.1689e-14 -44663.4)
(1.5002e+06 2937.13 0 30719.4 0 379853)
(-27130.6 56019.8 -7.90676e-14 -5603.19 -1.99772e-15 -8121.91)
(-30012.6 58773.2 -1.13885e-14 -5824.33 -6.35356e-14 -8891.88)
(141973 60967.7 -4.10871e-14 -2695.11 -2.82189e-14 34557.6)
(-115521 61707.4 -8.5889e-14 -2455.91 3.60524e-14 -29272.3)
(136467 43819 2.5267e-14 -5377.42 -2.61846e-14 32525.9)
(-530838 34777.5 1.76582e-14 -4374.33 -3.62446e-14 -132797)
(527510 36676 -7.20996e-15 -5205.26 -4.43677e-14 129594)
(-982871 53777.7 7.84511e-15 -5616.88 -3.47006e-14 -245264)
(-1.26722e+06 -103821 4.45641e-15 249279 -3.3142e-15 -252571)
(421742 78539.2 -6.99624e-15 -8943.34 8.8026e-15 102424)
(39337.7 65362.4 -4.31811e-15 -2843.92 2.42934e-14 9054.84)
(-500893 55021.2 -2.17819e-14 -3635.94 -6.05877e-14 -125184)
(415882 28670 -2.79626e-14 3775.06 4.0296e-14 104126)
(-296847 38668.7 3.11248e-14 -5815 3.99429e-14 -75096.6)
(224687 53348.3 4.60703e-14 2613.52 7.86697e-16 56397.8)
(39384.1 66567.8 1.2712e-14 770.054 5.96621e-16 9963.07)
(74770.5 56188.6 -5.37724e-14 -1358.33 6.77321e-14 18215.1)
(-153054 49410.2 3.84054e-14 -9631.65 -4.09989e-14 -40365.6)
(-245466 79131.3 7.09032e-16 3195.57 5.16265e-14 -60112.1)
(-137953 47863.3 5.84393e-15 -9167.43 -4.10815e-14 -36503.7)
(-221834 74906.8 3.71623e-14 2199.26 -1.3606e-14 -54495.8)
(52886.1 46460.5 -2.39954e-14 -1428.84 7.51197e-15 12767.6)
(-24349.6 63933.5 -6.09592e-16 1903.9 -4.47692e-14 -5569.24)
(-16007.5 66237 5.51425e-14 1280.56 4.43398e-14 -3654.06)
(-11562.7 64783.7 2.83371e-14 -244.71 -6.18885e-14 -2929.66)
(804629 37761.2 1.77783e-14 2338.79 2.7327e-15 200225)
(-8457.25 65493.1 -6.30127e-14 -3248.81 -2.80762e-14 -2904.51)
(-32016.1 57425.2 3.07712e-14 -7388.88 -1.03336e-13 -9777.19)
(1.1629e+06 -19640.6 -8.93012e-15 -61031.8 -6.67776e-15 273397)
(164381 44731 3.2932e-14 -4146.77 -4.23089e-14 39757.3)
(-406700 70747.7 2.30883e-14 7319.06 6.28123e-15 -99094.4)
(-435651 42685.5 -3.62898e-14 1868.83 -1.59169e-14 -107630)
(-434499 26848.2 0 -4090.29 0 -108823)
(547256 20297.3 -3.29092e-14 4527.32 -1.56651e-14 136909)
(521832 48874.4 1.83991e-15 5748.02 3.93517e-14 130903)
(-20629.9 49720.3 -3.64154e-14 2502.79 2.9768e-14 -4497.71)
(-15674.5 49929 2.64343e-14 1973.9 -1.48114e-13 -3399.39)
(-382268 77679.2 -1.55659e-14 4470.72 -3.98125e-16 -93739.1)
(-513632 60347 0 6457.14 0 -125840)
(369661 47797.6 8.59641e-15 4297.74 2.16745e-14 92786.7)
(-971687 69126 3.73853e-15 -3636.99 -1.21725e-14 -241998)
(27020.7 48419.6 0 6030.33 0 8200.63)
(495938 40399.7 -1.87898e-15 -1114.71 1.27171e-14 122776)
(373468 74309.2 -9.85736e-16 2933.8 4.94163e-17 93393)
(-223292 57530.3 6.81289e-14 4851.88 -8.76561e-15 -54199.4)
(-174433 44547.4 -6.62155e-15 2151.53 4.81193e-14 -42746.6)
(-158644 56430.2 1.04653e-14 2529.32 -3.99647e-14 -38735.3)
(-122638 46623.5 -5.9167e-16 123.041 2.34827e-15 -30398.5)
(-188836 33895.3 2.44902e-14 2497.75 3.62377e-14 -46234.4)
(-157245 37952.5 -4.28375e-14 6498.9 8.6497e-15 -37403.1)
(-187213 66769.7 0 1245.5 0 -46142.4)
(-214491 70835.2 -2.23258e-14 -236.726 1.94697e-14 -53278.2)
(-238187 75333.2 -1.84378e-15 -362.47 -2.10881e-15 -59189.1)
(60857 49997.8 -1.0541e-13 1635.56 -5.28078e-14 15505.7)
(-12928.5 61900.3 -2.33894e-14 -2426.16 4.66942e-14 -3809.81)
(435149 31538.6 -1.35397e-14 3014.52 3.83034e-14 108717)
(454707 40018.3 1.86938e-14 -4079.06 -3.61811e-14 111810)
(77663.7 55525.3 3.80158e-15 -2139.11 -2.63786e-14 18739.2)
(109694 48479.6 0 1104.88 0 27491.3)
(-266422 75724 2.86814e-14 -1125.75 -3.17417e-14 -66383.9)
(224212 52710.9 -5.47313e-14 2235.07 -6.50951e-16 56186)
(244612 68991.8 -2.39506e-14 2308.03 -1.47031e-15 61265.9)
(-84264.1 55342.6 -4.33826e-14 -2857.14 6.23494e-14 -21616.6)
(-70616.1 56690.8 2.53315e-14 -2484.52 1.49635e-15 -18137.7)
(-106518 58600.7 4.12415e-14 1139.58 1.47027e-14 -26146.6)
(-118635 52983.5 0 -180.256 0 -29480.5)
(-552611 40091.3 1.27255e-14 -548.018 -1.96065e-14 -137250)
(229816 52732.7 -1.98383e-14 582.029 -7.90748e-14 57166.3)
(167658 54415.2 -9.09745e-15 -311.266 -1.30146e-15 41522)
(-69318.7 137635 -6.06669e-15 14087.9 -4.4559e-15 -13703.9)
(602689 28416.2 -4.20819e-14 -5107.9 -2.52623e-14 148272)
(-716455 15322.6 3.68845e-14 1722.34 2.21122e-14 -177340)
(-100598 129275 0 -2551.71 0 -25593.5)
(-89514.6 56612.1 1.51501e-14 2669.57 4.58509e-14 -21548)
(-76825.7 58967.8 -1.13958e-13 4183.82 -2.89677e-14 -18023.9)
(-127347 50809.4 4.93137e-14 1148.3 5.56613e-16 -31312.5)
(-110011 54207.2 0 2684.1 0 -26629.9)
(246750 49131.7 2.64411e-14 -1825.59 -4.26043e-14 60770.7)
(283945 62314.4 9.59927e-15 -2040.88 4.08201e-15 69946.2)
(225645 50364.3 -1.94371e-14 -4083.45 1.86553e-14 54974)
(264282 62295.4 2.05496e-14 -3034.65 5.73678e-14 64820.9)
(203220 47903.6 1.60461e-14 -2425.62 2.70842e-14 49821.3)
(238002 58698 -3.5019e-14 -2087.23 2.00705e-14 58535.2)
(195847 31815.7 1.54397e-14 1447.63 5.84859e-14 48952.8)
(189034 23692.4 4.54253e-14 5091.93 9.75022e-14 48166.6)
(-409154 66043.1 -9.39002e-15 1039.15 1.24817e-14 -101262)
(169473 56600.1 -4.71978e-14 -2753.08 -1.13834e-15 41366.7)
(-429908 50454.8 0 3531.61 0 -105793)
(741065 61838.1 2.70357e-14 -7224.31 -1.70681e-14 182081)
(-353359 32893.6 4.76268e-14 1340.02 -7.8637e-14 -87343)
(-261633 35363.6 5.73625e-14 -124.011 -3.86321e-14 -64947.3)
(-940101 -444360 -3.62516e-15 150820 8.08134e-16 -195837)
(27955.6 59038.8 6.39463e-14 776.947 -1.684e-14 7129.12)
(790811 41196.8 -9.00491e-15 -1727.88 -4.37465e-16 195788)
(-360318 43418.7 -1.34404e-14 1165.26 -3.88485e-14 -89113.1)
(-263227 43604.7 8.3187e-14 170.345 4.10418e-14 -65269.7)
(1.24303e+06 -910.13 1.50034e-14 -1795.18 6.68317e-15 307977)
(-53280.3 53779.5 -9.17316e-15 286.641 3.68949e-14 -13148.8)
(824020 20414.1 2.26282e-14 2859.33 -1.41273e-14 205166)
(-187341 44946.8 2.87079e-14 1777.02 -5.07381e-14 -46042.3)
(-705961 65506.5 1.84774e-14 7747.8 -2.39484e-15 -173241)
(-664030 46853.9 -1.12919e-14 -4040.09 -8.82904e-16 -165762)
(633518 48210.6 -2.14497e-14 730.898 1.41263e-14 157370)
(-75738.9 56591.7 -1.2675e-13 3385.7 -5.78469e-14 -17952.3)
(-2085.83 -23884.4 1.47338e-16 -37438.3 5.23943e-17 -9806.74)
(-12092.8 57995 0 2977.44 0 -2261.69)
(-1.24605e+06 -396276 5.94342e-15 160845 -1.63958e-15 -269261)
(933590 -442245 7.00758e-15 -150255 2.20652e-15 194361)
(-544815 65853.1 2.34018e-14 -4396.86 -2.28562e-14 -136271)
(178144 45991.6 9.58429e-15 644.466 3.71648e-14 44361)
(239745 40503.5 -3.11432e-14 747.34 7.08322e-14 59670.9)
(76643.8 56357 6.17777e-14 -1766.16 1.845e-14 18578.7)
(-139283 20349.1 3.58203e-14 901.042 -5.5189e-14 -34335.4)
(114561 64139.1 -3.01912e-14 -617.099 2.76766e-14 28271.9)
(-60212.2 47113.7 8.91705e-15 1184.19 1.37057e-14 -14646.1)
(-65432.3 79513.9 6.77778e-15 2761.92 1.98645e-14 -15549.8)
(-1.00584e+06 15731.9 -3.19301e-15 25953.5 7.84014e-15 -243131)
(8354.39 -14208.4 3.86336e-17 -24809.1 2.39772e-17 -4082.74)
(-301744 62658.5 -1.30455e-16 3718.06 2.55401e-15 -73946.3)
(232470 41432.3 2.24593e-14 -1008.65 7.0044e-14 57430.3)
(1.05736e+06 -204412 6.09649e-16 -28164.8 8.24954e-16 255363)
(-27306 46466.6 -5.82117e-15 -3946.35 -4.53523e-14 -7754.34)
(-31510.2 66118 4.62058e-15 -1524.23 4.42895e-14 -8196.52)
(-18787.9 58825.3 -7.91689e-16 746.514 -6.81709e-14 -4476.42)
(-52153.2 59807.2 -1.30937e-14 2169.47 1.79517e-14 -12402)
(19982.3 58134.9 2.00454e-14 -470.098 5.19265e-14 4841.36)
(13851.2 62306.7 -4.68962e-14 -981.6 -1.53517e-14 3193.21)
(-1.06501e+06 -203756 2.67818e-15 27470.4 -8.21564e-16 -257435)
(342272 68634.9 -1.96387e-14 925.341 1.07144e-14 85154.2)
(-117847 55337.4 -1.25406e-13 1985.53 -3.56561e-14 -28747.5)
(375825 57388 6.85145e-14 3430.58 -1.15799e-13 94100.9)
(339653 54462.9 -6.94184e-16 3734.23 -4.39429e-14 85201.3)
(307607 51388.8 -1.24378e-13 1765.47 1.89284e-14 76761.7)
(56434 39546.9 -6.12713e-14 4389.25 -2.29733e-14 15091.5)
(-789455 30563.3 3.47921e-14 -2534.71 -3.40245e-14 -196509)
(231839 43686.6 6.65385e-14 -1157.26 7.17345e-15 57236.9)
(321291 42920.5 -3.01811e-14 -1179.28 -4.33428e-14 79426.3)
(-67677 56366.1 -1.06166e-13 -559.605 -1.79495e-14 -16930.9)
(528544 75412.3 7.55651e-15 -7566.4 1.1146e-14 129265)
(93933.2 46144.9 -4.29677e-14 -1895.94 2.91726e-14 22836.3)
(-1.07183e+06 26936.3 -1.22362e-14 -1824.17 -4.60861e-15 -266395)
(28514.1 57829.3 -5.53931e-14 2021.46 -4.67291e-14 7576.48)
(-85843 58623.4 -1.1022e-13 2858.29 5.21953e-14 -20590.2)
(268889 49456.9 8.65554e-14 954.011 -1.25929e-14 66953.5)
(242697 47337.9 8.01027e-14 1122.7 1.94954e-14 60496.6)
(219832 44855.9 -5.76913e-14 -472.597 1.59698e-14 54427.6)
(552771 45459 9.0557e-15 364.695 1.95284e-14 137244)
(104148 55806.5 -3.72321e-14 1633.62 -8.00653e-14 26246.6)
(-287612 53297.5 2.66669e-14 -4150.49 6.13255e-16 -72392.1)
(-236067 85906.4 1.66084e-14 2423.49 1.86608e-14 -57971.6)
(-124861 43543.9 0 647.397 0 -30820)
(-378848 60232.2 -3.50669e-14 -3400.58 1.06851e-14 -94843.7)
(-418606 62923.6 -5.32331e-14 -3785.11 -3.57601e-15 -104804)
(-463966 67775.9 -5.35323e-14 -4909.81 2.58837e-14 -116338)
(208713 45893.4 1.0447e-15 3012.39 1.31684e-14 52533.5)
(145173 51619.2 1.65788e-14 1563.27 -2.08025e-14 36408.4)
(48736.3 15491.2 -4.82246e-14 2067.36 1.74218e-14 12605.4)
(78066.2 47253.7 0 -1914.21 0 18894.9)
(102220 40487.4 -5.63983e-14 -697.829 3.37287e-14 25189.7)
(1.27174e+06 -48503.2 -3.31434e-15 -178242 -1.61701e-15 271318)
(411764 34785.3 5.69684e-14 -322.043 -5.84861e-14 102087)
(-312748 54227.6 0 77.5485 0 -77579.9)
(-226027 51909 -2.81213e-14 3920.23 -1.2527e-15 -55109.3)
(175733 55110.6 1.48637e-14 -2492.77 -1.84089e-14 42984.4)
(-57000 59236.8 2.47631e-14 -1080.2 2.03519e-14 -14410.9)
(-10955.6 65126.4 7.23645e-14 -364.151 -5.7186e-14 -2808.66)
(14993.3 48068.8 5.9495e-14 4828.87 -9.45142e-15 4918.29)
(16890 50398.2 -3.13697e-14 4969.59 -2.93421e-14 5423.8)
(-6363.69 78429.2 -1.5846e-15 -2639.01 -1.30888e-14 -2233.75)
(-4387.85 43805.5 -1.36144e-14 -337.766 4.58979e-14 -1172.52)
(-2078.9 49399.1 -5.07028e-14 -3197.28 3.78565e-14 -1309.13)
(6142.82 58860.7 4.82805e-14 -10415 -2.19945e-14 -1060.02)
(82233.8 47859.6 -3.9849e-15 1616.26 -1.90614e-14 20804.9)
(-172710 86625.7 -9.55362e-16 1098.77 -9.46031e-15 -42580.3)
(47337.3 56139.5 1.21332e-13 -452.175 -2.39434e-14 11633.2)
(2654.4 84516.5 5.50428e-15 -9752.24 8.00213e-15 -1761.12)
(-348042 81606.5 -1.36152e-14 -1244.04 -8.25141e-15 -86664.9)
(407752 44818.9 4.36401e-14 2882.71 3.91873e-14 101887)
(-171823 54628.3 -4.6748e-14 189.591 1.53142e-14 -42585.8)
(-847843 173769 -2.425e-15 159600 1.4858e-15 -170767)
(-114595 43536.1 3.31775e-14 -2444.8 3.61376e-14 -29040)
(-190207 80381.4 0 2245.67 0 -46637.1)
(52010.7 54405.9 6.4716e-14 -2506.86 -8.96114e-14 12282.9)
(77706.7 47550.8 3.4329e-15 -142.713 1.11877e-14 19245.2)
(933824 -206796 -7.55367e-16 30914 1.3472e-16 239371)
(-1.22546e+06 15347.4 -1.00831e-14 6714.46 4.64451e-15 -302395)
(337459 45471.1 2.10211e-14 4620.89 1.77393e-14 84876.9)
(373950 47661.1 -2.17263e-14 3674.52 4.71576e-14 93696.3)
(-119348 58523 -1.53407e-13 4172.38 -5.48873e-14 -28577.5)
(75680.2 66796 2.75321e-14 3882.31 5.44824e-14 19741.1)
(-20003.6 55269.3 4.31465e-14 -4854.24 6.5856e-14 -6167.73)
(-531690 -345639 -6.45226e-16 38919 2.71414e-16 -122267)
(-1.17342e+06 48137.9 3.32975e-15 1926.06 4.27704e-15 -290672)
(1.05435e+06 31586.5 1.81372e-14 1816.69 -9.02416e-15 262056)
(-1.56096e+06 -22738.8 -4.77671e-15 -5532.18 -2.08086e-15 -388677)
(429166 38973.6 -1.88957e-14 -2917.71 -2.95562e-14 105761)
(297704 37664.1 -3.14301e-14 -1706.7 1.15357e-13 73442.9)
(-392884 58447.6 0 7932.46 0 -95514.4)
(49025.8 43284.8 -5.77661e-14 -5211.75 2.75593e-14 10871.2)
(-35442.5 64133 -4.61792e-14 2607.81 2.45009e-14 -8146.95)
(-21449.5 63396.9 -3.98926e-14 606.526 -8.94181e-15 -5171.56)