/*--------------------------------*- C++ -*----------------------------------*\
| =========                 |                                                 |
| \\      /  F ield         | OpenFOAM: The Open Source CFD Toolbox           |
|  \\    /   O peration     | Version:  2.3.1                                 |
|   \\  /    A nd           | Web:      www.OpenFOAM.org                      |
|    \\/     M anipulation  |                                                 |
\*---------------------------------------------------------------------------*/
FoamFile
{
    version     2.0;
    format      ascii;
    class       volScalarField;
    location    "0.61";
    object      nut;
}
// * * * * * * * * * * * * * * * * * * * * * * * * * * * * * * * * * * * * * //

dimensions      [0 2 -1 0 0 0 0];

internalField   nonuniform List<scalar> 
1000
(
0.00055441
0.000560941
0.000561076
0.000561068
0.000561065
0.000561063
0.000561062
0.000561061
0.000561047
0.000560522
0.000561116
0.000562189
0.000562258
0.000562257
0.000562255
0.000562254
0.000562252
0.000562249
0.000562173
0.000560717
0.000561494
0.000562534
0.000562616
0.000562618
0.000562618
0.000562615
0.000562612
0.000562607
0.00056252
0.000560947
0.000561772
0.000562904
0.000563
0.000563007
0.000563009
0.000563007
0.000563002
0.000562994
0.0005629
0.000561253
0.000562154
0.000563442
0.000563557
0.000563575
0.00056358
0.000563578
0.000563574
0.000563557
0.000563454
0.000561659
0.000560952
0.000561956
0.000562049
0.000562064
0.000562069
0.000562072
0.000562072
0.000562071
0.000562006
0.000560719
0.000562089
0.0010822
0.00112445
0.00112628
0.00112645
0.00112651
0.00112655
0.00112557
0.00108696
0.000561805
0.000562375
0.00112999
0.00117815
0.00118003
0.0011801
0.00118011
0.00118009
0.00117887
0.00113432
0.000562087
0.00056265
0.00113256
0.00118097
0.00118284
0.0011829
0.0011829
0.00118288
0.00118163
0.0011366
0.000562366
0.000563015
0.0011332
0.00118195
0.00118387
0.00118394
0.00118394
0.0011839
0.00118261
0.00113713
0.000562739
0.000561324
0.000562192
0.000562281
0.000562295
0.000562301
0.000562305
0.000562306
0.000562305
0.000562234
0.000560886
0.000562278
0.00112486
0.00117245
0.00117441
0.00117453
0.00117459
0.00117461
0.00117345
0.00112956
0.00056202
0.00056253
0.00117721
0.00123232
0.00123451
0.00123458
0.00123459
0.00123457
0.00123313
0.00118216
0.000562277
0.000562776
0.00117966
0.00123514
0.00123734
0.0012374
0.0012374
0.00123737
0.00123591
0.00118446
0.000562519
0.000563097
0.00117977
0.00123545
0.00123767
0.00123774
0.00123773
0.0012377
0.00123621
0.00118448
0.000562842
0.000561469
0.000562324
0.000562406
0.000562417
0.000562422
0.000562425
0.000562427
0.000562426
0.000562354
0.000561003
0.000562389
0.00112871
0.00117638
0.00117826
0.00117836
0.00117839
0.0011784
0.00117721
0.0011329
0.000562127
0.000562611
0.00117942
0.00123465
0.00123684
0.00123691
0.00123691
0.00123689
0.00123544
0.00118421
0.00056236
0.000562829
0.00118163
0.00123722
0.00123942
0.00123948
0.00123948
0.00123946
0.00123799
0.00118637
0.000562573
0.000563109
0.00118168
0.00123736
0.00123957
0.00123964
0.00123964
0.00123961
0.00123813
0.00118637
0.000562851
0.000561547
0.000562395
0.000562473
0.000562481
0.000562486
0.000562488
0.00056249
0.000562488
0.000562416
0.000561062
0.000562454
0.00113098
0.0011787
0.00118056
0.00118064
0.00118066
0.00118065
0.00117944
0.0011349
0.000562183
0.000562657
0.00117984
0.00123496
0.00123714
0.0012372
0.0012372
0.00123718
0.00123573
0.0011845
0.000562401
0.000562858
0.00118184
0.00123728
0.00123947
0.00123954
0.00123954
0.00123951
0.00123805
0.00118651
0.000562599
0.000563116
0.00118193
0.00123737
0.00123956
0.00123963
0.00123963
0.0012396
0.00123813
0.00118655
0.000562854
0.000561561
0.000562428
0.000562505
0.000562512
0.000562516
0.000562518
0.000562519
0.000562517
0.000562444
0.000561067
0.000562471
0.00113237
0.00118013
0.00118195
0.00118201
0.00118201
0.00118199
0.00118076
0.00113608
0.000562193
0.000562676
0.00118008
0.00123512
0.00123728
0.00123735
0.00123735
0.00123732
0.00123587
0.00118464
0.000562416
0.000562881
0.00118197
0.00123729
0.00123947
0.00123954
0.00123954
0.00123951
0.00123805
0.00118655
0.000562619
0.000563141
0.00118209
0.00123735
0.00123953
0.00123959
0.00123959
0.00123957
0.0012381
0.00118662
0.000562876
0.000561517
0.000562431
0.00056251
0.000562517
0.00056252
0.000562522
0.000562522
0.000562519
0.000562443
0.000561016
0.000562444
0.00113257
0.0011803
0.00118212
0.00118218
0.00118218
0.00118216
0.00118092
0.00113623
0.000562161
0.000562672
0.00118012
0.00123509
0.00123726
0.00123732
0.00123732
0.0012373
0.00123584
0.00118463
0.000562407
0.000562906
0.00118198
0.00123723
0.00123941
0.00123948
0.00123948
0.00123945
0.00123798
0.00118652
0.000562638
0.000563197
0.00118207
0.00123726
0.00123943
0.0012395
0.0012395
0.00123947
0.001238
0.00118658
0.000562926
0.000561413
0.000562371
0.000562452
0.000562459
0.000562462
0.000562463
0.000562463
0.000562459
0.000562381
0.000560908
0.000562365
0.00113114
0.00117863
0.00118044
0.00118049
0.0011805
0.00118048
0.00117925
0.00113475
0.000562077
0.00056263
0.00117818
0.0012328
0.00123495
0.00123501
0.00123501
0.00123499
0.00123354
0.00118263
0.00056236
0.000562909
0.00117974
0.00123457
0.00123672
0.00123678
0.00123678
0.00123676
0.00123531
0.00118421
0.000562635
0.00056326
0.00117927
0.0012339
0.00123603
0.00123609
0.00123609
0.00123606
0.00123463
0.00118368
0.000562982
0.000561241
0.000562171
0.000562247
0.000562254
0.000562256
0.000562257
0.000562256
0.000562252
0.000562178
0.000560732
0.000562175
0.00108571
0.00112716
0.00112868
0.00112871
0.0011287
0.00112869
0.00112764
0.00108859
0.00056187
0.000562479
0.00112495
0.00117192
0.00117368
0.00117369
0.00117369
0.00117368
0.0011725
0.00112848
0.000562189
0.000562808
0.00112292
0.00116953
0.00117122
0.00117121
0.00117121
0.00117122
0.00117009
0.0011264
0.000562513
0.000563241
0.00111599
0.00116137
0.0011629
0.00116285
0.00116284
0.0011629
0.0011619
0.00111931
0.00056294
0.000560542
0.000560572
0.000560575
0.000560577
0.000560578
0.000560578
0.000560578
0.000560577
0.000560561
0.000560002
0.000560779
0.00056176
0.000561845
0.000561852
0.000561855
0.000561855
0.000561854
0.000561848
0.000561768
0.000560253
0.000561068
0.000562127
0.000562227
0.000562239
0.000562242
0.000562244
0.00056224
0.000562231
0.000562137
0.000560543
0.000561449
0.000562517
0.000562627
0.000562644
0.00056265
0.000562651
0.000562644
0.000562628
0.000562521
0.000560922
0.000562032
0.000563118
0.000563244
0.000563268
0.000563277
0.000563276
0.000563267
0.000563239
0.000563117
0.000561511
0.000563397
0.000564448
0.000564594
0.000564625
0.000564634
0.000564634
0.000564622
0.000564588
0.000564435
0.000562895
0.000565535
0.000569462
0.000569776
0.000569713
0.000569668
0.000569666
0.000569707
0.000569759
0.000569548
0.000565132
0.000587411
0.000636908
0.000639104
0.000637051
0.000636312
0.00063628
0.000636915
0.000638919
0.000638122
0.00058815
0.000751685
0.00101797
0.00103341
0.00102713
0.00102466
0.00102448
0.00102652
0.00103258
0.0010226
0.00075845
0.00122341
0.00181995
0.00187249
0.00187319
0.00187239
0.00187208
0.00187219
0.00187117
0.00182768
0.00123558
0.000563753
0.00109876
0.00114107
0.00114226
0.00114213
0.00114212
0.00114225
0.00114153
0.00110175
0.000563455
0.000564469
0.00107657
0.00111555
0.00111657
0.00111644
0.00111644
0.00111658
0.00111599
0.0010793
0.000564196
0.000567745
0.00105189
0.00108726
0.00108925
0.00108958
0.0010896
0.00108928
0.00108775
0.00105404
0.000567607
0.000620686
0.000769842
0.000789194
0.000795915
0.000796359
0.000796391
0.00079605
0.000789769
0.000767955
0.000623163
0.00143286
0.00259331
0.00265971
0.00265666
0.0026538
0.00265344
0.00265556
0.00265887
0.00260523
0.00145144
0.000563512
0.00117726
0.00123157
0.00123367
0.00123372
0.00123372
0.0012337
0.00123228
0.00118161
0.000563243
0.000563944
0.00117437
0.00122802
0.00123004
0.00123006
0.00123006
0.00123007
0.00122874
0.00117868
0.000563691
0.00056478
0.00117323
0.00122657
0.00122917
0.0012294
0.00122941
0.00122922
0.00122733
0.00117746
0.000564574
0.000599678
0.000828649
0.000839415
0.000841902
0.000842678
0.000842719
0.000842039
0.000839694
0.000827859
0.000601301
0.00146305
0.00261436
0.00266394
0.00266273
0.00266132
0.00266115
0.00266227
0.0026643
0.00262658
0.00148206
0.000563314
0.00118212
0.0012375
0.0012397
0.00123977
0.00123976
0.00123973
0.00123825
0.00118664
0.000563048
0.00056364
0.00118182
0.00123712
0.0012393
0.00123936
0.00123936
0.00123934
0.00123787
0.00118634
0.000563384
0.000564105
0.00117549
0.00122915
0.00123139
0.00123147
0.00123147
0.00123142
0.00122989
0.0011798
0.000563883
0.000596785
0.000796105
0.00080409
0.000805434
0.000805865
0.000805888
0.000805499
0.000804204
0.000795215
0.000598314
0.00149136
0.00267981
0.00272832
0.00272927
0.00272872
0.00272866
0.00272914
0.00272939
0.00269303
0.00151157
0.000563201
0.00118224
0.00123776
0.00123996
0.00124003
0.00124003
0.00123999
0.00123851
0.0011868
0.000562937
0.000563489
0.00118209
0.00123758
0.00123977
0.00123983
0.00123983
0.0012398
0.00123833
0.00118665
0.000563231
0.000563882
0.00117548
0.00122912
0.00123121
0.00123125
0.00123125
0.00123124
0.00122983
0.00117979
0.000563652
0.000596363
0.000779967
0.000786157
0.00078676
0.000786947
0.000786955
0.000786779
0.000786163
0.000778923
0.000597887
0.00150483
0.00270876
0.00275751
0.00275962
0.00275956
0.00275955
0.00275968
0.00275895
0.0027225
0.00152567
0.000563177
0.00118204
0.00123784
0.00124006
0.00124013
0.00124013
0.0012401
0.0012386
0.00118668
0.000562916
0.000563488
0.00118165
0.00123767
0.0012399
0.00123996
0.00123996
0.00123993
0.00123844
0.00118628
0.000563231
0.000563936
0.00117402
0.00122768
0.00122968
0.00122969
0.00122969
0.00122971
0.00122839
0.00117833
0.000563701
0.000610346
0.000713153
0.000714305
0.000712197
0.000711317
0.000711304
0.000712094
0.000714054
0.000711889
0.000612559
0.00150878
0.00270943
0.00275779
0.00276005
0.0027601
0.00276011
0.00276019
0.00275939
0.00272336
0.00153006
0.000563222
0.00118178
0.00123805
0.00124032
0.0012404
0.00124039
0.00124036
0.00123883
0.00118649
0.000562968
0.000563606
0.00118078
0.00123791
0.00124021
0.00124028
0.00124028
0.00124025
0.0012387
0.00118547
0.000563346
0.000564319
0.0011714
0.00122522
0.00122708
0.00122701
0.001227
0.0012271
0.00122589
0.00117564
0.000564095
0.000636219
0.000676076
0.000677978
0.000675596
0.000674658
0.00067464
0.000675475
0.000677749
0.000675338
0.000639511
0.00151042
0.00269143
0.0027382
0.0027403
0.00274037
0.00274037
0.00274053
0.00273998
0.00270541
0.00153236
0.000563325
0.0011804
0.00123709
0.00123941
0.00123949
0.00123949
0.00123945
0.00123788
0.00118515
0.000563072
0.000563756
0.00117912
0.001238
0.00124046
0.00124055
0.00124054
0.0012405
0.00123879
0.00118388
0.000563493
0.000565309
0.00117995
0.00123644
0.00123831
0.0012382
0.00123819
0.00123828
0.00123714
0.00118447
0.000565096
0.000663211
0.000733639
0.000735991
0.000726687
0.000723296
0.000723205
0.000726293
0.000735415
0.00073415
0.000666838
0.0015031
0.00262116
0.00266399
0.00266613
0.00266636
0.00266639
0.00266646
0.00266597
0.00263441
0.00152517
0.000563433
0.00113682
0.00118742
0.0011895
0.00118958
0.00118958
0.00118954
0.00118812
0.00114085
0.000563167
0.000563802
0.00114034
0.00119533
0.00119786
0.00119804
0.00119804
0.00119789
0.00119606
0.00114452
0.000563516
0.00056688
0.00117064
0.0012283
0.00123177
0.0012323
0.0012323
0.00123182
0.00122911
0.00117487
0.00056668
0.000617021
0.000853096
0.000876897
0.000875184
0.000874034
0.000874008
0.000875092
0.000876927
0.000853165
0.000618618
0.00142342
0.00233047
0.00236474
0.0023697
0.00237139
0.00237146
0.00237022
0.00236663
0.00234003
0.00144096
0.000562417
0.000564219
0.000564419
0.000564459
0.000564473
0.000564476
0.000564458
0.00056443
0.00056425
0.000561906
0.000562384
0.000564902
0.000565156
0.000565187
0.000565197
0.000565196
0.000565189
0.000565166
0.000564925
0.000561864
0.000567821
0.000571977
0.000572506
0.000572643
0.000572683
0.000572679
0.000572653
0.000572507
0.000572044
0.000567382
0.00058497
0.000611892
0.000615773
0.000616484
0.0006167
0.000616711
0.000616511
0.000615904
0.000612554
0.000585163
0.00105635
0.0013189
0.00133237
0.00133571
0.00133684
0.00133688
0.00133595
0.00133309
0.00132196
0.00106223
)
;

boundaryField
{
    walls
    {
        type            nutkWallFunction;
        Cmu             0.09;
        kappa           0.41;
        E               9.8;
        value           nonuniform List<scalar> 
500
(
6.75209e-05
6.75209e-05
6.75209e-05
6.83025e-05
6.83025e-05
6.83175e-05
6.83175e-05
6.83165e-05
6.83165e-05
6.83161e-05
6.83161e-05
6.83159e-05
6.83159e-05
6.83157e-05
6.83157e-05
6.83157e-05
6.83157e-05
6.8314e-05
6.8314e-05
6.82509e-05
6.82509e-05
6.82509e-05
6.83218e-05
6.83218e-05
6.84386e-05
6.84457e-05
6.84455e-05
6.84453e-05
6.84452e-05
6.8445e-05
6.84446e-05
6.84366e-05
6.82721e-05
6.82721e-05
6.83632e-05
6.83632e-05
6.84756e-05
6.84842e-05
6.84843e-05
6.84842e-05
6.84839e-05
6.84835e-05
6.8483e-05
6.84739e-05
6.82972e-05
6.82972e-05
6.83933e-05
6.83933e-05
6.85155e-05
6.85255e-05
6.85262e-05
6.85264e-05
6.85262e-05
6.85256e-05
6.85248e-05
6.85148e-05
6.83307e-05
6.83307e-05
6.84359e-05
6.84359e-05
6.85747e-05
6.85868e-05
6.85887e-05
6.85893e-05
6.8589e-05
6.85887e-05
6.85868e-05
6.85759e-05
6.83761e-05
6.83761e-05
6.83023e-05
6.83023e-05
6.84137e-05
6.8424e-05
6.84256e-05
6.84263e-05
6.84265e-05
6.84266e-05
6.84265e-05
6.84195e-05
6.82726e-05
6.82726e-05
6.84285e-05
6.83941e-05
6.84598e-05
6.84249e-05
6.84899e-05
6.84555e-05
6.85303e-05
6.8497e-05
6.8344e-05
6.8344e-05
6.84395e-05
6.84492e-05
6.84508e-05
6.84516e-05
6.8452e-05
6.84521e-05
6.84521e-05
6.84445e-05
6.8291e-05
6.8291e-05
6.8449e-05
6.84178e-05
6.84767e-05
6.84459e-05
6.85037e-05
6.84726e-05
6.85391e-05
6.85084e-05
6.83603e-05
6.83603e-05
6.8454e-05
6.84629e-05
6.84642e-05
6.84649e-05
6.84652e-05
6.84654e-05
6.84653e-05
6.84577e-05
6.83039e-05
6.83039e-05
6.84613e-05
6.84296e-05
6.84856e-05
6.84551e-05
6.85096e-05
6.84786e-05
6.85405e-05
6.85093e-05
6.8369e-05
6.8369e-05
6.8462e-05
6.84703e-05
6.84713e-05
6.84718e-05
6.84721e-05
6.84723e-05
6.84721e-05
6.84645e-05
6.83104e-05
6.83104e-05
6.84685e-05
6.84357e-05
6.84907e-05
6.84597e-05
6.85129e-05
6.84815e-05
6.85413e-05
6.85096e-05
6.83706e-05
6.83706e-05
6.84655e-05
6.84737e-05
6.84746e-05
6.8475e-05
6.84753e-05
6.84754e-05
6.84752e-05
6.84674e-05
6.83109e-05
6.83109e-05
6.84704e-05
6.84369e-05
6.84928e-05
6.84614e-05
6.85155e-05
6.84838e-05
6.85442e-05
6.85122e-05
6.83658e-05
6.83658e-05
6.84656e-05
6.8474e-05
6.84748e-05
6.84751e-05
6.84753e-05
6.84754e-05
6.8475e-05
6.8467e-05
6.83053e-05
6.83053e-05
6.84675e-05
6.84334e-05
6.84926e-05
6.84605e-05
6.85185e-05
6.84861e-05
6.85508e-05
6.85179e-05
6.83544e-05
6.83544e-05
6.84587e-05
6.84674e-05
6.84681e-05
6.84684e-05
6.84686e-05
6.84686e-05
6.84681e-05
6.84599e-05
6.82935e-05
6.82935e-05
6.8459e-05
6.84242e-05
6.84881e-05
6.84555e-05
6.8519e-05
6.84859e-05
6.8558e-05
6.85243e-05
6.83356e-05
6.83356e-05
6.84369e-05
6.8445e-05
6.84457e-05
6.8446e-05
6.8446e-05
6.8446e-05
6.84456e-05
6.84377e-05
6.8274e-05
6.8274e-05
6.84384e-05
6.84017e-05
6.84719e-05
6.84369e-05
6.85083e-05
6.84727e-05
6.85562e-05
6.85198e-05
6.82532e-05
6.82532e-05
6.82532e-05
6.82564e-05
6.82564e-05
6.82567e-05
6.82567e-05
6.82569e-05
6.82569e-05
6.8257e-05
6.8257e-05
6.82571e-05
6.82571e-05
6.8257e-05
6.8257e-05
6.82569e-05
6.82569e-05
6.82552e-05
6.82552e-05
6.81881e-05
6.81881e-05
6.81881e-05
6.82793e-05
6.82793e-05
6.83892e-05
6.83986e-05
6.83994e-05
6.83996e-05
6.83997e-05
6.83995e-05
6.8399e-05
6.83904e-05
6.82158e-05
6.82158e-05
6.83112e-05
6.83112e-05
6.84298e-05
6.84407e-05
6.84419e-05
6.84423e-05
6.84424e-05
6.8442e-05
6.8441e-05
6.84309e-05
6.82477e-05
6.82477e-05
6.83531e-05
6.83531e-05
6.84725e-05
6.84845e-05
6.84863e-05
6.84869e-05
6.8487e-05
6.84863e-05
6.84846e-05
6.8473e-05
6.82894e-05
6.82894e-05
6.8417e-05
6.8417e-05
6.8538e-05
6.85516e-05
6.85541e-05
6.8555e-05
6.8555e-05
6.8554e-05
6.8551e-05
6.85378e-05
6.8354e-05
6.8354e-05
6.8571e-05
6.8571e-05
6.8683e-05
6.86983e-05
6.87015e-05
6.87024e-05
6.87024e-05
6.87012e-05
6.86976e-05
6.86811e-05
6.85101e-05
6.85101e-05
6.87909e-05
6.87909e-05
6.91489e-05
6.91772e-05
6.91728e-05
6.91691e-05
6.91689e-05
6.91725e-05
6.91755e-05
6.91561e-05
6.87398e-05
6.87398e-05
7.09247e-05
7.09247e-05
7.5393e-05
7.55626e-05
7.53843e-05
7.532e-05
7.53176e-05
7.53726e-05
7.55467e-05
7.55033e-05
7.09833e-05
7.09833e-05
8.77436e-05
8.77436e-05
0.000113233
0.000114503
0.000113906
0.000113675
0.000113658
0.000113849
0.000114424
0.000113682
8.84393e-05
8.84393e-05
0.000138395
0.000138395
0.000194945
0.000199612
0.000199685
0.000199623
0.000199594
0.000199589
0.000199476
0.000195672
0.000139643
0.000139643
6.86102e-05
6.85742e-05
6.86888e-05
6.86556e-05
6.90232e-05
6.90038e-05
7.44355e-05
7.46904e-05
0.00015989
0.000161818
6.85834e-05
6.85507e-05
6.86301e-05
6.85995e-05
6.87177e-05
6.8692e-05
7.23322e-05
7.25029e-05
0.000162975
0.000164948
6.85615e-05
6.85292e-05
6.85958e-05
6.85648e-05
6.86444e-05
6.86169e-05
7.20323e-05
7.21927e-05
0.000165668
0.000167758
6.85487e-05
6.85168e-05
6.85789e-05
6.85477e-05
6.86209e-05
6.85925e-05
7.19858e-05
7.21451e-05
0.000166929
0.000169079
6.85458e-05
6.85142e-05
6.85786e-05
6.85475e-05
6.86267e-05
6.85977e-05
7.33245e-05
7.35507e-05
0.000167289
0.000169481
6.85506e-05
6.85199e-05
6.85916e-05
6.85601e-05
6.86663e-05
6.86382e-05
7.59234e-05
7.62618e-05
0.000167399
0.000169658
6.85613e-05
6.85308e-05
6.86088e-05
6.85768e-05
6.87685e-05
6.87417e-05
7.8917e-05
7.93078e-05
0.000166748
0.000169047
6.85721e-05
6.85399e-05
6.86162e-05
6.85816e-05
6.89419e-05
6.89166e-05
7.4434e-05
7.46018e-05
0.00015954
0.000161429
6.84541e-05
6.84541e-05
6.86517e-05
6.86733e-05
6.86774e-05
6.86788e-05
6.86791e-05
6.86772e-05
6.86745e-05
6.86553e-05
6.83923e-05
6.83923e-05
6.84626e-05
6.84626e-05
6.87343e-05
6.87613e-05
6.87646e-05
6.87657e-05
6.87655e-05
6.87648e-05
6.87624e-05
6.87367e-05
6.83997e-05
6.83997e-05
6.9046e-05
6.9046e-05
6.94998e-05
6.95569e-05
6.95713e-05
6.95754e-05
6.9575e-05
6.95724e-05
6.95568e-05
6.95073e-05
6.89924e-05
6.89924e-05
7.08936e-05
7.08936e-05
7.37094e-05
7.41116e-05
7.4186e-05
7.42086e-05
7.42098e-05
7.41888e-05
7.41259e-05
7.37814e-05
7.09093e-05
7.09093e-05
0.000122509
0.000122509
0.000149619
0.000150965
0.000151292
0.000151403
0.000151407
0.000151317
0.000151039
0.000149944
0.000123164
0.000123164
)
;
    }
    lid
    {
        type            nutkWallFunction;
        Cmu             0.09;
        kappa           0.41;
        E               9.8;
        value           nonuniform List<scalar> 
100
(
0.000138395
0.000194945
0.000199612
0.000199685
0.000199623
0.000199594
0.000199589
0.000199476
0.000195672
0.000139643
0.00015989
0.000270493
0.000276311
0.000275974
0.000275724
0.00027569
0.000275868
0.000276217
0.000271651
0.000161818
0.000162975
0.000272619
0.000277021
0.000276904
0.000276778
0.000276762
0.00027686
0.000277048
0.000273808
0.000164948
0.000165668
0.000278459
0.000282777
0.000282853
0.000282803
0.000282797
0.00028284
0.000282872
0.000279741
0.000167758
0.000166929
0.000281026
0.00028537
0.000285548
0.000285541
0.000285541
0.000285553
0.0002855
0.000282356
0.000169079
0.000167289
0.000281147
0.000285463
0.000285659
0.000285663
0.000285663
0.000285671
0.00028561
0.000282496
0.000169481
0.000167399
0.00027966
0.000283851
0.000284032
0.000284038
0.000284038
0.000284052
0.000284013
0.000281018
0.000169658
0.000166748
0.000273849
0.000277729
0.000277913
0.000277933
0.000277935
0.000277944
0.000277913
0.000275155
0.000169047
0.00015954
0.000248473
0.000251686
0.000252137
0.000252289
0.000252296
0.000252186
0.00025187
0.000249448
0.000161429
0.000122509
0.000149619
0.000150965
0.000151292
0.000151403
0.000151407
0.000151317
0.000151039
0.000149944
0.000123164
)
;
    }
}


// ************************************************************************* //
