/*--------------------------------*- C++ -*----------------------------------*\
| =========                 |                                                 |
| \\      /  F ield         | OpenFOAM: The Open Source CFD Toolbox           |
|  \\    /   O peration     | Version:  2.3.1                                 |
|   \\  /    A nd           | Web:      www.OpenFOAM.org                      |
|    \\/     M anipulation  |                                                 |
\*---------------------------------------------------------------------------*/
FoamFile
{
    version     2.0;
    format      ascii;
    class       volScalarField;
    location    "0.61";
    object      p;
}
// * * * * * * * * * * * * * * * * * * * * * * * * * * * * * * * * * * * * * //

dimensions      [0 2 -2 0 0 0 0];

internalField   nonuniform List<scalar> 
1000
(
-0.00481589
-0.00425886
-0.00416006
-0.0041683
-0.00413759
-0.00411002
-0.00407474
-0.00403346
-0.00398856
-0.00395135
-0.00502572
-0.00485005
-0.0048173
-0.00482928
-0.00481835
-0.00479603
-0.00475736
-0.00470453
-0.00464428
-0.00459731
-0.00621246
-0.00620882
-0.00623702
-0.00627702
-0.00629098
-0.00627614
-0.00622649
-0.00614696
-0.00605007
-0.00596956
-0.00835017
-0.00843217
-0.00853164
-0.00862058
-0.00866566
-0.00865664
-0.00858742
-0.00846137
-0.00830541
-0.00816413
-0.0116217
-0.011867
-0.0120923
-0.0122697
-0.0123598
-0.0123566
-0.0122498
-0.0120468
-0.0117856
-0.011513
-0.00352771
-0.00342011
-0.00338852
-0.00339702
-0.00338056
-0.00335882
-0.00332798
-0.00329009
-0.00324775
-0.0032073
-0.00403471
-0.00398685
-0.00398145
-0.00399476
-0.00399071
-0.00397277
-0.00393795
-0.00388933
-0.00383234
-0.00378145
-0.00518644
-0.00520842
-0.00524574
-0.00528454
-0.00529985
-0.005287
-0.00524195
-0.00516762
-0.00507626
-0.00498987
-0.00705676
-0.00715651
-0.00725661
-0.00734184
-0.00738444
-0.00737713
-0.00731216
-0.00719442
-0.0070448
-0.00689109
-0.00976326
-0.0100166
-0.010228
-0.010393
-0.0104772
-0.0104743
-0.0103768
-0.0101878
-0.00994098
-0.00965736
-0.00193565
-0.00192265
-0.00190998
-0.00191736
-0.00191121
-0.0018964
-0.00187219
-0.00184131
-0.0018059
-0.00177045
-0.00237175
-0.0023721
-0.00237804
-0.00239083
-0.00239122
-0.00237826
-0.00235039
-0.00231044
-0.00226297
-0.00221797
-0.00329276
-0.00332591
-0.00336267
-0.00339572
-0.00340936
-0.00339943
-0.00336266
-0.00330205
-0.00322598
-0.0031513
-0.00472673
-0.0048176
-0.0049027
-0.00497211
-0.00500679
-0.00500037
-0.00494807
-0.00485203
-0.00472791
-0.00459483
-0.00670108
-0.00691662
-0.00708437
-0.00721419
-0.00727961
-0.00727783
-0.00720084
-0.00705018
-0.00684987
-0.00660276
8.75856e-05
8.86545e-05
9.33657e-05
9.18372e-05
9.63249e-05
0.000106998
0.000124169
0.000145922
0.000170827
0.000195847
-0.000197927
-0.000201547
-0.000207167
-0.000213857
-0.000213289
-0.000203905
-0.000183542
-0.000155982
-0.000122989
-9.27129e-05
-0.000794292
-0.000815806
-0.000840107
-0.000860572
-0.000868421
-0.000860571
-0.000834763
-0.00079317
-0.000741327
-0.000692083
-0.00170935
-0.00176557
-0.0018206
-0.00186433
-0.00188566
-0.00188022
-0.00184419
-0.00178046
-0.00169666
-0.00160983
-0.00293213
-0.00306078
-0.00316565
-0.00324514
-0.00328568
-0.00328296
-0.00323374
-0.00313773
-0.00300652
-0.00284971
0.00243522
0.00243632
0.00244159
0.0024461
0.00245267
0.00246117
0.0024714
0.00248294
0.00249538
0.00250772
0.00232334
0.00232353
0.0023248
0.00232667
0.00233128
0.00233906
0.00235034
0.00236438
0.00238063
0.00239509
0.00208808
0.00208145
0.00207446
0.00206988
0.00207027
0.00207678
0.00209052
0.00211042
0.00213482
0.0021569
0.00172009
0.00169839
0.00167734
0.00166194
0.00165563
0.0016605
0.0016783
0.00170759
0.00174604
0.00178461
0.00121694
0.00116461
0.00112143
0.00109048
0.0010751
0.00107795
0.00110102
0.00114284
0.00120293
0.0012733
0.00490642
0.00491507
0.00492734
0.0049397
0.00495076
0.00495806
0.0049617
0.00496224
0.00496121
0.00495934
0.00498222
0.00499102
0.00500374
0.00501654
0.00502705
0.00503388
0.00503669
0.00503606
0.00503368
0.00503106
0.00512739
0.00513825
0.00515197
0.0051655
0.00517565
0.00518135
0.00518255
0.00517941
0.00517423
0.00516783
0.00532204
0.00533606
0.00535071
0.00536482
0.00537427
0.00537851
0.00537767
0.00537116
0.00536285
0.00535187
0.00554127
0.00555628
0.00556998
0.00558344
0.00559155
0.00559433
0.00559129
0.00558247
0.00557374
0.00556287
0.00729499
0.00731332
0.00733556
0.00735737
0.00737314
0.00738015
0.00737744
0.00736679
0.00735183
0.00733515
0.00756253
0.00758294
0.0076097
0.00763511
0.00765242
0.0076588
0.00765323
0.00763729
0.00761565
0.00759457
0.00809799
0.00813029
0.00816788
0.00820152
0.00822239
0.00822767
0.00821602
0.00818867
0.00815188
0.00811431
0.00887014
0.00892734
0.00898218
0.00902841
0.00905471
0.00905846
0.00903808
0.00899345
0.00893493
0.00886802
0.00982827
0.00992467
0.0100018
0.010063
0.0100957
0.010098
0.0100676
0.0100045
0.00992122
0.0098165
0.00938455
0.00941303
0.00944612
0.00947753
0.00949854
0.00950533
0.00949675
0.0094751
0.00944671
0.00941602
0.00984022
0.0098752
0.00991757
0.0099562
0.00998069
0.00998687
0.00997324
0.00994215
0.00990073
0.00985954
0.0107661
0.0108274
0.0108917
0.0109469
0.0109792
0.0109841
0.0109598
0.0109072
0.0108377
0.0107633
0.0121359
0.012253
0.0123549
0.0124364
0.0124807
0.0124843
0.0124432
0.0123585
0.0122445
0.0121074
0.0138809
0.0140986
0.014254
0.01437
0.0144297
0.0144315
0.0143717
0.0142484
0.0140779
0.0138436
0.0109615
0.0109963
0.0110389
0.0110785
0.011104
0.0111107
0.0110971
0.0110664
0.011026
0.0109861
0.0115865
0.0116317
0.0116883
0.0117386
0.0117696
0.0117756
0.011755
0.0117103
0.0116518
0.0115966
0.0128815
0.0129693
0.0130603
0.0131356
0.0131785
0.0131834
0.013147
0.0130718
0.012971
0.0128648
0.0148549
0.0150395
0.0151913
0.0153083
0.0153703
0.0153732
0.0153129
0.0151888
0.0150193
0.0148094
0.0174627
0.0178521
0.0180972
0.018272
0.0183593
0.0183607
0.0182713
0.0180848
0.0178219
0.0174135
0.011806
0.0118391
0.0118873
0.0119312
0.0119594
0.0119657
0.0119489
0.0119121
0.0118643
0.0118239
0.012551
0.0125981
0.0126647
0.012722
0.0127568
0.0127625
0.0127369
0.0126835
0.0126127
0.0125533
0.0141453
0.0142531
0.0143662
0.0144558
0.0145056
0.0145098
0.014465
0.0143732
0.0142483
0.0141206
0.0167403
0.0170078
0.0172103
0.0173567
0.0174312
0.0174333
0.017358
0.0172026
0.0169825
0.0166908
0.0206333
0.0213079
0.021664
0.0219001
0.0220098
0.0220094
0.0218972
0.02165
0.0212826
0.0205947
0.0262144
0.0281369
0.0287313
0.0290868
0.0292222
0.0292239
0.029091
0.0287288
0.028173
0.02626
0.0402255
0.0430399
0.0441542
0.0450321
0.0453756
0.0453833
0.0450856
0.0442494
0.0432205
0.040456
0.0335787
0.0448661
0.0457138
0.0462867
0.0462188
0.0462285
0.0463011
0.0457928
0.0452117
0.0339418
0.0943184
0.117311
0.123739
0.125945
0.126676
0.126687
0.126022
0.123898
0.117986
0.0951677
-0.00732595
-0.0219516
-0.0226412
-0.023663
-0.0237857
-0.0237744
-0.0236398
-0.0226077
-0.0221817
-0.00751472
0.0199771
0.0207014
0.0209453
0.0211329
0.0212103
0.0212101
0.0211383
0.0209425
0.0206973
0.0199773
0.03068
0.0321946
0.0331317
0.0338683
0.0341746
0.0341957
0.0339211
0.0332262
0.0323478
0.0308564
0.0148182
0.0155332
0.0152578
0.0150919
0.0147955
0.014792
0.0151101
0.0153153
0.0156891
0.0149624
0.0338143
0.0346819
0.0367351
0.0388531
0.0399289
0.039966
0.0389766
0.0369163
0.0349622
0.0340439
0.0013102
-0.00834564
-0.0106021
-0.0118855
-0.0120731
-0.0120677
-0.0118851
-0.0106492
-0.0086795
0.00114187
0.0154783
0.0157779
0.0158861
0.0159732
0.0160138
0.0160143
0.0159765
0.0158823
0.0157681
0.015472
0.0233248
0.0241331
0.0246967
0.0251566
0.0253792
0.0253931
0.0252014
0.0247701
0.0242372
0.0234576
0.0131994
0.0136082
0.0134856
0.0134264
0.0133251
0.0133282
0.0134427
0.0135229
0.0136945
0.0132991
0.033203
0.0338389
0.0343962
0.0351588
0.0355567
0.0355804
0.035233
0.034525
0.0340279
0.0334357
0.0103975
0.00624085
0.00570928
0.0052341
0.00519568
0.00519761
0.00523711
0.00570385
0.00618959
0.0103828
0.010733
0.0108292
0.0108624
0.0108956
0.0109128
0.010914
0.0108987
0.0108631
0.0108281
0.0107379
0.0151487
0.0155267
0.0158215
0.0160682
0.0161966
0.0162049
0.0160968
0.0158682
0.0155938
0.015239
0.00959952
0.00962379
0.00954224
0.00952863
0.0094994
0.00950243
0.00953837
0.00956456
0.00966639
0.00965394
0.0211557
0.022176
0.0226726
0.02317
0.0234207
0.0234371
0.0232248
0.0227713
0.0223192
0.0213228
0.0102632
0.00923094
0.00924701
0.00917257
0.00919326
0.00919719
0.00918451
0.00926687
0.00925146
0.0102978
0.00571525
0.00570744
0.00569377
0.0056906
0.0056895
0.0056907
0.00569509
0.00570092
0.00572193
0.00574252
0.00672308
0.00676059
0.00680592
0.00685434
0.00688321
0.00688658
0.0068628
0.00682169
0.00679131
0.006766
0.00569704
0.00559068
0.0055391
0.00552416
0.00551688
0.00551549
0.00552862
0.00555081
0.00560282
0.00570782
0.00871489
0.00864411
0.0086757
0.00880997
0.00889829
0.00890987
0.00884447
0.00872824
0.00871097
0.00879367
0.00656724
0.0063614
0.00643604
0.00648369
0.00652412
0.00652962
0.0064977
0.00646034
0.00638427
0.006591
0.000645931
0.000564868
0.000517184
0.000481637
0.000463265
0.000464526
0.000484811
0.000528385
0.000593583
0.00069174
-0.00208344
-0.00242886
-0.00264614
-0.00280704
-0.00288962
-0.00289522
-0.00281818
-0.00265614
-0.00244637
-0.00210851
0.00195101
0.0017263
0.00171157
0.00170937
0.00171594
0.0017173
0.00171312
0.00170323
0.00171143
0.0019255
-0.00467674
-0.0066365
-0.00717753
-0.00746348
-0.0075395
-0.00753433
-0.00745947
-0.00716378
-0.00668022
-0.00473071
0.00195009
0.00229525
0.00238186
0.00254596
0.0026206
0.00262209
0.00256017
0.00239043
0.00232374
0.00198427
-0.00401669
-0.00416808
-0.00422464
-0.0042787
-0.0043063
-0.00430693
-0.00427369
-0.00420499
-0.00412795
-0.00396409
-0.0116271
-0.0125061
-0.0130357
-0.0134066
-0.0135892
-0.0135971
-0.0134249
-0.0130772
-0.0125827
-0.0117353
-0.00120302
-0.00142598
-0.00129015
-0.00132333
-0.00132816
-0.00132211
-0.00132901
-0.00129303
-0.00146433
-0.001309
-0.0220953
-0.0281684
-0.0297181
-0.0306702
-0.0309524
-0.0309642
-0.0306811
-0.0297955
-0.0283426
-0.0222318
-0.00184905
-0.000911164
-0.000700694
-0.000262518
-0.000125396
-0.000117915
-0.000272019
-0.000683116
-0.000940548
-0.0019422
-0.0076565
-0.00782956
-0.00785817
-0.00790411
-0.00793032
-0.0079287
-0.00789155
-0.00782802
-0.00777765
-0.00759876
-0.0220335
-0.0235297
-0.0243409
-0.0249387
-0.0252201
-0.0252256
-0.0249661
-0.0243953
-0.0236376
-0.0222214
-0.00292393
-0.00253236
-0.00213545
-0.00220937
-0.00221825
-0.0022209
-0.00219824
-0.00215222
-0.0025294
-0.00293383
-0.0479626
-0.0587466
-0.0612431
-0.0637253
-0.0643139
-0.0643169
-0.0638048
-0.0613625
-0.0590879
-0.0484723
-0.00238612
0.00101804
0.00180556
0.00341362
0.00366551
0.00365473
0.00342092
0.00176891
0.00101912
-0.00241451
-0.00976272
-0.00989106
-0.00984003
-0.00984325
-0.00984828
-0.00984395
-0.00982146
-0.00979229
-0.00981918
-0.00970314
-0.031881
-0.0334836
-0.0344617
-0.0352014
-0.0355672
-0.0355759
-0.0352306
-0.0345302
-0.0335909
-0.0320624
-0.00237026
-0.00169289
-0.000945484
-0.000782702
-0.000685267
-0.000678369
-0.000782292
-0.000907155
-0.00165817
-0.00238341
-0.0763141
-0.0874672
-0.0903704
-0.0928975
-0.0938526
-0.0938886
-0.0929913
-0.0906069
-0.0877654
-0.0764336
0.00387732
0.0111622
0.0128043
0.0140843
0.0144167
0.0144192
0.0140674
0.0127914
0.0111612
0.00349251
-0.0105525
-0.0104673
-0.010319
-0.0102705
-0.0102508
-0.0102426
-0.0102398
-0.0102626
-0.0103879
-0.0104956
-0.0386591
-0.0403269
-0.0413423
-0.0421146
-0.0424981
-0.0425047
-0.0421451
-0.0414037
-0.0404381
-0.0388756
-0.001003
0.000241185
0.00113598
0.00142489
0.00160902
0.00161463
0.00143986
0.0011563
0.000326723
-0.000953456
-0.0968792
-0.10704
-0.109699
-0.112063
-0.113032
-0.113069
-0.112183
-0.109898
-0.10739
-0.097287
0.00909904
0.021491
0.0232031
0.0244337
0.0246804
0.0246743
0.0244191
0.0231523
0.0215754
0.00918723
)
;

boundaryField
{
    walls
    {
        type            zeroGradient;
    }
    lid
    {
        type            zeroGradient;
    }
}


// ************************************************************************* //
