/*--------------------------------*- C++ -*----------------------------------*\
| =========                 |                                                 |
| \\      /  F ield         | OpenFOAM: The Open Source CFD Toolbox           |
|  \\    /   O peration     | Version:  2.3.1                                 |
|   \\  /    A nd           | Web:      www.OpenFOAM.org                      |
|    \\/     M anipulation  |                                                 |
\*---------------------------------------------------------------------------*/
FoamFile
{
    version     2.0;
    format      ascii;
    class       surfaceScalarField;
    location    "0.61";
    object      phi;
}
// * * * * * * * * * * * * * * * * * * * * * * * * * * * * * * * * * * * * * //

dimensions      [0 3 -1 0 0 0 0];

internalField   nonuniform List<scalar> 
2700
(
5.14505e-06
3.1019e-05
-2.17368e-05
3.89842e-06
2.69634e-05
-2.56837e-05
1.83866e-06
2.72515e-05
-2.51564e-05
1.02328e-06
2.67857e-05
-2.59318e-05
4.6324e-07
2.67461e-05
-2.61506e-05
5.14875e-08
2.66843e-05
-2.62382e-05
-2.09296e-07
2.65486e-05
-2.62567e-05
-2.97963e-07
2.63606e-05
-2.62461e-05
-1.91843e-07
2.61483e-05
-2.62354e-05
2.60048e-05
-2.61902e-05
1.3833e-06
5.77997e-05
-2.81545e-05
1.41182e-06
5.59846e-05
-2.90324e-05
1.30186e-06
5.64853e-05
-2.91025e-05
8.62768e-07
5.66481e-05
-2.93967e-05
3.70187e-07
5.67932e-05
-2.953e-05
-7.52934e-08
5.67415e-05
-2.95866e-05
-3.86336e-07
5.64632e-05
-2.9583e-05
-4.56563e-07
5.59981e-05
-2.95532e-05
-2.52192e-07
5.5447e-05
-2.94981e-05
5.48685e-05
-2.91213e-05
1.41207e-06
9.08826e-05
-3.45261e-05
1.59976e-06
9.13482e-05
-3.55786e-05
1.4855e-06
9.23669e-05
-3.57903e-05
9.67678e-07
9.31358e-05
-3.59888e-05
3.00497e-07
9.35487e-05
-3.61068e-05
-3.51031e-07
9.35187e-05
-3.61455e-05
-8.32823e-07
9.30303e-05
-3.61103e-05
-9.66356e-07
9.21328e-05
-3.60354e-05
-6.34701e-07
9.09981e-05
-3.59271e-05
8.96448e-05
-3.5454e-05
1.95338e-06
0.000135126
-4.63268e-05
2.51068e-06
0.000137822
-4.71657e-05
2.21727e-06
0.000139972
-4.7449e-05
1.35704e-06
0.000141545
-4.76837e-05
2.6332e-07
0.000142333
-4.78295e-05
-8.25766e-07
0.000142326
-4.78588e-05
-1.69927e-06
0.000141527
-4.77715e-05
-2.03446e-06
0.000139921
-4.76109e-05
-1.53457e-06
0.000137737
-4.73989e-05
0.000134729
-4.67409e-05
4.01111e-06
-6.61653e-05
0.000196997
4.61106e-06
-6.73836e-05
0.000204305
3.77601e-06
-6.78963e-05
0.000208394
2.14665e-06
-6.82927e-05
0.00021115
2.54668e-07
-6.85227e-05
0.000212424
-1.64098e-06
-6.85493e-05
0.000212439
-3.2891e-06
-6.83721e-05
0.000211209
-4.18479e-06
-6.80327e-05
0.000208517
-3.72969e-06
-6.75814e-05
0.000204547
-6.64359e-05
0.000197229
9.11039e-07
2.36443e-05
-4.62784e-05
8.74141e-07
2.37689e-05
-4.93937e-05
9.80873e-07
2.42096e-05
-4.9446e-05
7.01911e-07
2.41981e-05
-4.98198e-05
3.48082e-07
2.42276e-05
-4.99945e-05
2.17554e-08
2.41916e-05
-5.00731e-05
-2.10265e-07
2.40749e-05
-5.00719e-05
-3.16639e-07
2.3901e-05
-5.00174e-05
-2.67584e-07
2.36763e-05
-4.99441e-05
2.31856e-05
-4.96378e-05
6.76459e-07
4.89267e-05
-5.41053e-05
8.7622e-07
4.94902e-05
-5.49389e-05
9.725e-07
5.0085e-05
-5.50549e-05
6.98162e-07
5.04047e-05
-5.5305e-05
3.0606e-07
5.05761e-05
-5.54624e-05
-8.27546e-08
5.05426e-05
-5.55243e-05
-3.67096e-07
5.02938e-05
-5.5496e-05
-4.6761e-07
4.98693e-05
-5.54059e-05
-3.39387e-07
4.93427e-05
-5.52856e-05
4.85506e-05
-5.48296e-05
1.09898e-06
7.84072e-05
-6.51272e-05
1.36026e-06
7.95637e-05
-6.59323e-05
1.27655e-06
8.05933e-05
-6.62301e-05
8.47484e-07
8.13542e-05
-6.65199e-05
2.63946e-07
8.17462e-05
-6.67043e-05
-3.21264e-07
8.17259e-05
-6.67538e-05
-7.70601e-07
8.1287e-05
-6.66704e-05
-9.42851e-07
8.04725e-05
-6.64899e-05
-7.21057e-07
7.94234e-05
-6.62639e-05
7.80318e-05
-6.56906e-05
1.88583e-06
0.000113738
-8.36479e-05
2.30877e-06
0.000116527
-8.46639e-05
1.99896e-06
0.000118534
-8.51892e-05
1.22006e-06
0.000119979
-8.56382e-05
2.38157e-07
0.000120696
-8.59064e-05
-7.48018e-07
0.000120692
-8.59506e-05
-1.55682e-06
0.000119973
-8.57671e-05
-1.93599e-06
0.000118524
-8.54091e-05
-1.61389e-06
0.000116528
-8.496e-05
0.00011363
-8.40514e-05
3.84765e-06
-0.000112952
0.000156442
4.25466e-06
-0.00011471
0.000163201
3.41944e-06
-0.000115716
0.000166929
1.93489e-06
-0.000116518
0.000169427
2.33e-07
-0.000116966
0.000170572
-1.47437e-06
-0.00011701
0.000170586
-2.98335e-06
-0.000116652
0.000169484
-3.88496e-06
-0.00011594
0.000167044
-3.62997e-06
-0.000115021
0.000163446
-0.000113326
0.000156718
1.13121e-06
1.89416e-05
-6.63447e-05
8.86334e-07
1.86643e-05
-6.78015e-05
7.47171e-07
1.87786e-05
-6.80695e-05
5.13884e-07
1.8812e-05
-6.83785e-05
2.55851e-07
1.88432e-05
-6.85593e-05
1.30618e-08
1.88214e-05
-6.86304e-05
-1.6761e-07
1.87333e-05
-6.86048e-05
-2.60281e-07
1.85988e-05
-6.85072e-05
-2.39338e-07
1.84226e-05
-6.83765e-05
1.80061e-05
-6.78805e-05
7.42334e-07
3.78643e-05
-7.37638e-05
7.92701e-07
3.8243e-05
-7.45578e-05
7.58939e-07
3.86026e-05
-7.48309e-05
5.37786e-07
3.88607e-05
-7.51143e-05
2.37406e-07
3.89978e-05
-7.52978e-05
-6.12517e-08
3.89754e-05
-7.53596e-05
-2.87008e-07
3.87841e-05
-7.53034e-05
-3.77359e-07
3.8456e-05
-7.51593e-05
-2.98099e-07
3.80458e-05
-7.49815e-05
3.73795e-05
-7.4503e-05
8.81797e-07
5.93041e-05
-8.74601e-05
1.08871e-06
6.02919e-05
-8.81975e-05
9.95954e-07
6.10608e-05
-8.86016e-05
6.61427e-07
6.16441e-05
-8.89713e-05
2.10817e-07
6.19453e-05
-8.92026e-05
-2.42264e-07
6.19301e-05
-8.92565e-05
-5.97979e-07
6.15964e-05
-8.91314e-05
-7.47102e-07
6.09739e-05
-8.88699e-05
-5.96405e-07
6.01682e-05
-8.85567e-05
5.9038e-05
-8.79683e-05
1.48388e-06
8.34267e-05
-0.000109321
1.8041e-06
8.56091e-05
-0.00011037
1.55299e-06
8.71091e-05
-0.000111055
9.50337e-07
8.81827e-05
-0.00011164
1.9241e-07
8.8715e-05
-0.000111985
-5.70107e-07
8.87106e-05
-0.000112036
-1.19875e-06
8.81739e-05
-0.000111789
-1.51204e-06
8.7098e-05
-0.0001113
-1.28946e-06
8.55992e-05
-0.0001107
8.33575e-05
-0.000109724
2.97257e-06
-0.000141388
0.000108739
3.26148e-06
-0.000143316
0.000113756
2.61019e-06
-0.000144584
0.00011646
1.48096e-06
-0.000145591
0.000118213
1.87706e-07
-0.000146147
0.000119017
-1.11127e-06
-0.0001462
0.000119024
-2.26612e-06
-0.000145751
0.000118242
-2.97491e-06
-0.000144846
0.000116531
-2.81806e-06
-0.000143673
0.00011391
-0.000141792
0.000108887
5.22439e-07
1.18331e-05
-7.87017e-05
4.91615e-07
1.18819e-05
-7.96517e-05
4.48757e-07
1.1938e-05
-7.99607e-05
3.29608e-07
1.19776e-05
-8.02303e-05
1.79949e-07
1.20003e-05
-8.04027e-05
3.3175e-08
1.19872e-05
-8.04626e-05
-7.96185e-08
1.19319e-05
-8.04164e-05
-1.44263e-07
1.18492e-05
-8.02861e-05
-1.41589e-07
1.17441e-05
-8.01215e-05
1.15071e-05
-7.9531e-05
4.15462e-07
2.39985e-05
-8.63445e-05
4.99913e-07
2.42798e-05
-8.70378e-05
4.80239e-07
2.44853e-05
-8.73536e-05
3.51835e-07
2.46478e-05
-8.76485e-05
1.71283e-07
2.47321e-05
-8.78407e-05
-1.13886e-08
2.47165e-05
-8.78968e-05
-1.53508e-07
2.45966e-05
-8.78177e-05
-2.1245e-07
2.43921e-05
-8.76377e-05
-1.57759e-07
2.41389e-05
-8.74295e-05
2.37472e-05
-8.6904e-05
5.08511e-07
3.71903e-05
-0.000101165
6.76999e-07
3.77798e-05
-0.000101871
6.30318e-07
3.82415e-05
-0.000102314
4.29387e-07
3.85973e-05
-0.00010272
1.54057e-07
3.87801e-05
-0.000102975
-1.25059e-07
3.87674e-05
-0.000103027
-3.45743e-07
3.85589e-05
-0.000102874
-4.35284e-07
3.81738e-05
-0.000102566
-3.33695e-07
3.7681e-05
-0.000102211
3.70263e-05
-0.000101594
8.71584e-07
5.11023e-05
-0.000124137
1.11084e-06
5.23186e-05
-0.000125182
9.72411e-07
5.32074e-05
-0.000125916
6.05912e-07
5.38484e-05
-0.000126556
1.39703e-07
5.41664e-05
-0.000126935
-3.33274e-07
5.41602e-05
-0.000126986
-7.18521e-07
5.38299e-05
-0.000126708
-9.06089e-07
5.31815e-05
-0.000126161
-7.46449e-07
5.22845e-05
-0.000125507
5.10347e-05
-0.000124512
1.72239e-06
-0.000155902
6.38118e-05
1.97663e-06
-0.000157731
6.6401e-05
1.60504e-06
-0.000159016
6.79271e-05
9.23369e-07
-0.000160063
6.89203e-05
1.33089e-07
-0.00016065
6.93765e-05
-6.5934e-07
-0.000160706
6.93753e-05
-1.36567e-06
-0.000160225
6.89233e-05
-1.78403e-06
-0.000159282
6.79407e-05
-1.62357e-06
-0.000158085
6.64497e-05
-0.000156289
6.38501e-05
2.02117e-07
4.49128e-06
-8.34062e-05
2.03743e-07
4.51022e-06
-8.41742e-05
1.90834e-07
4.51461e-06
-8.44717e-05
1.59611e-07
4.51949e-06
-8.47264e-05
1.19377e-07
4.52008e-06
-8.489e-05
7.66413e-08
4.51126e-06
-8.49377e-05
3.51385e-08
4.49103e-06
-8.4873e-05
2.29874e-09
4.46262e-06
-8.47235e-05
-2.0265e-08
4.42682e-06
-8.4535e-05
4.34855e-06
-8.39073e-05
1.60576e-07
9.15237e-06
-9.11748e-05
1.97788e-07
9.24002e-06
-9.1813e-05
1.95319e-07
9.29489e-06
-9.21382e-05
1.6224e-07
9.3382e-06
-9.24397e-05
1.13992e-07
9.35701e-06
-9.26343e-05
6.05639e-08
9.34448e-06
-9.26809e-05
1.25082e-08
9.29947e-06
-9.25829e-05
-1.67787e-08
9.2263e-06
-9.23775e-05
-2.37674e-08
9.1377e-06
-9.21407e-05
9.00294e-06
-9.15883e-05
1.79352e-07
1.41986e-05
-0.000106398
2.43822e-07
1.43984e-05
-0.000107101
2.35006e-07
1.45558e-05
-0.000107571
1.78877e-07
1.46732e-05
-0.000108003
1.00798e-07
1.4729e-05
-0.000108272
1.66191e-08
1.47168e-05
-0.000108318
-5.41126e-08
1.46351e-05
-0.000108143
-9.24877e-08
1.44922e-05
-0.000107798
-7.67245e-08
1.43074e-05
-0.000107404
1.40785e-05
-0.000106752
3.03604e-07
1.94285e-05
-0.000129679
3.92398e-07
1.9866e-05
-0.000130749
3.48251e-07
2.02029e-05
-0.000131528
2.3251e-07
2.04375e-05
-0.000132213
8.77152e-08
2.05479e-05
-0.000132616
-6.20869e-08
2.05375e-05
-0.000132664
-1.95228e-07
2.04086e-05
-0.000132355
-2.67625e-07
2.01551e-05
-0.00013176
-2.30968e-07
1.98032e-05
-0.000131052
1.93481e-05
-0.000130018
6.19638e-07
-0.000160931
2.38256e-05
7.19169e-07
-0.000162732
2.47493e-05
5.80055e-07
-0.000164047
2.53548e-05
3.42674e-07
-0.000165134
2.57328e-05
7.70193e-08
-0.000165747
2.58987e-05
-1.93197e-07
-0.0001658
2.58903e-05
-4.42395e-07
-0.000165292
2.57122e-05
-6.12373e-07
-0.000164302
2.53264e-05
-5.65307e-07
-0.000163068
2.47206e-05
-0.000161297
2.37852e-05
-3.44865e-08
-3.00552e-06
-8.03875e-05
-5.74102e-08
-3.10173e-06
-8.10715e-05
-4.37983e-08
-3.15899e-06
-8.13478e-05
2.34842e-09
-3.20595e-06
-8.15881e-05
7.21144e-08
-3.23743e-06
-8.17437e-05
1.39733e-07
-3.24438e-06
-8.17822e-05
1.8017e-07
-3.22934e-06
-8.17052e-05
1.76512e-07
-3.19784e-06
-8.15422e-05
1.18776e-07
-3.15905e-06
-8.13379e-05
-3.08307e-06
-8.07181e-05
-6.22194e-08
-6.06731e-06
-8.80684e-05
-1.033e-07
-6.21035e-06
-8.86815e-05
-8.63259e-08
-6.32039e-06
-8.90115e-05
-2.1572e-08
-6.41321e-06
-8.93149e-05
6.76251e-08
-6.47101e-06
-8.95074e-05
1.55557e-07
-6.48355e-06
-8.95469e-05
2.10324e-07
-6.45068e-06
-8.94333e-05
2.06843e-07
-6.38204e-06
-8.92057e-05
1.30546e-07
-6.2973e-06
-8.89411e-05
-6.17417e-06
-8.83748e-05
-1.40859e-07
-9.02582e-06
-0.000103307
-2.05643e-07
-9.21455e-06
-0.000104041
-1.79639e-07
-9.37183e-06
-0.000104553
-7.97588e-08
-9.5082e-06
-0.000105016
5.49468e-08
-9.58871e-06
-0.000105296
1.86637e-07
-9.60345e-06
-0.000105337
2.7516e-07
-9.55147e-06
-0.000105137
2.83819e-07
-9.44374e-06
-0.00010475
1.89417e-07
-9.31147e-06
-0.000104299
-9.13771e-06
-0.000103599
-2.6702e-07
-1.15964e-05
-0.000126833
-3.59907e-07
-1.18444e-05
-0.000128016
-3.11773e-07
-1.20337e-05
-0.000128904
-1.61049e-07
-1.21984e-05
-0.000129661
3.97061e-08
-1.22949e-05
-0.000130098
2.36765e-07
-1.23101e-05
-0.000130142
3.78668e-07
-1.22426e-05
-0.000129792
4.10777e-07
-1.21056e-05
-0.000129115
2.98365e-07
-1.19411e-05
-0.000128294
-1.17035e-05
-0.000127139
-4.31442e-07
-0.000158688
-1.33682e-05
-5.47298e-07
-0.000160756
-1.3664e-05
-4.74911e-07
-0.000162278
-1.38323e-05
-2.58148e-07
-0.000163502
-1.40023e-05
2.4201e-08
-0.000164176
-1.4103e-05
3.03733e-07
-0.000164225
-1.41177e-05
5.1277e-07
-0.000163651
-1.40455e-05
5.74134e-07
-0.000162522
-1.39008e-05
4.47299e-07
-0.000161082
-1.37564e-05
-0.000159043
-1.34729e-05
-2.38569e-07
-1.04603e-05
-6.97181e-05
-3.15947e-07
-1.07195e-05
-7.03058e-05
-2.77079e-07
-1.08611e-05
-7.05571e-05
-1.4805e-07
-1.09756e-05
-7.07738e-05
3.43767e-08
-1.10451e-05
-7.09137e-05
2.14575e-07
-1.10523e-05
-7.09429e-05
3.38173e-07
-1.09985e-05
-7.08628e-05
3.64418e-07
-1.08977e-05
-7.07008e-05
2.70355e-07
-1.07716e-05
-7.04997e-05
-1.05197e-05
-6.99433e-05
-2.87278e-07
-2.13387e-05
-7.69266e-05
-4.20454e-07
-2.17691e-05
-7.75233e-05
-3.81256e-07
-2.20816e-05
-7.78549e-05
-2.10042e-07
-2.23385e-05
-7.81488e-05
2.87595e-08
-2.2486e-05
-7.83308e-05
2.65702e-07
-2.24999e-05
-7.8362e-05
4.30473e-07
-2.23797e-05
-7.82416e-05
4.5885e-07
-2.21487e-05
-7.80049e-05
3.10897e-07
-2.18605e-05
-7.77224e-05
-2.14396e-05
-7.71515e-05
-5.05567e-07
-3.25454e-05
-9.16007e-05
-7.06207e-07
-3.32142e-05
-9.24011e-05
-6.28606e-07
-3.37525e-05
-9.29654e-05
-3.54075e-07
-3.41856e-05
-9.34491e-05
1.4781e-08
-3.44242e-05
-9.37317e-05
3.81089e-07
-3.44426e-05
-9.3765e-05
6.50234e-07
-3.42402e-05
-9.35486e-05
7.21535e-07
-3.38421e-05
-9.31269e-05
5.16233e-07
-3.33354e-05
-9.2614e-05
-3.26763e-05
-9.18364e-05
-9.50352e-07
-4.32736e-05
-0.000115125
-1.22429e-06
-4.4374e-05
-0.000116548
-1.05123e-06
-4.51915e-05
-0.000117602
-5.90362e-07
-4.58211e-05
-0.000118449
-3.91003e-09
-4.61532e-05
-0.000118916
5.79436e-07
-4.61739e-05
-0.000118954
1.03614e-06
-4.58839e-05
-0.000118563
1.20817e-06
-4.52965e-05
-0.000117789
9.46391e-07
-4.452e-05
-0.0001168
-4.34304e-05
-0.0001154
-1.71324e-06
-0.000148749
-5.14078e-05
-2.02794e-06
-0.000151548
-5.31691e-05
-1.67285e-06
-0.000153501
-5.42191e-05
-9.24647e-07
-0.000154962
-5.50052e-05
-2.54406e-08
-0.000155723
-5.53987e-05
8.69766e-07
-0.000155766
-5.542e-05
1.61388e-06
-0.000155099
-5.50727e-05
1.97274e-06
-0.000153733
-5.43329e-05
1.69057e-06
-0.000151875
-5.33387e-05
-0.000149108
-5.15967e-05
-4.17977e-07
-1.75478e-05
-5.17873e-05
-5.49078e-07
-1.80262e-05
-5.2185e-05
-4.90382e-07
-1.82782e-05
-5.2375e-05
-2.83146e-07
-1.84761e-05
-5.25437e-05
5.70939e-09
-1.85898e-05
-5.26519e-05
2.93118e-07
-1.85984e-05
-5.26719e-05
4.96705e-07
-1.85014e-05
-5.26038e-05
5.51471e-07
-1.83194e-05
-5.24717e-05
4.18692e-07
-1.80835e-05
-5.23134e-05
-1.76082e-05
-5.19319e-05
-5.36746e-07
-3.61677e-05
-5.7795e-05
-7.43451e-07
-3.69698e-05
-5.83994e-05
-6.71251e-07
-3.75409e-05
-5.86908e-05
-3.8963e-07
-3.79965e-05
-5.89376e-05
-1.82042e-09
-3.82487e-05
-5.90876e-05
3.84077e-07
-3.8265e-05
-5.91095e-05
6.62992e-07
-3.80455e-05
-5.90029e-05
7.35282e-07
-3.76216e-05
-5.87964e-05
5.31638e-07
-3.70793e-05
-5.85391e-05
-3.62839e-05
-5.79475e-05
-9.6276e-07
-5.62519e-05
-7.05525e-05
-1.268e-06
-5.76055e-05
-7.14568e-05
-1.10633e-06
-5.86514e-05
-7.20129e-05
-6.34179e-07
-5.94567e-05
-7.24571e-05
-1.81742e-08
-5.98837e-05
-7.27078e-05
5.9542e-07
-5.99066e-05
-7.27323e-05
1.06625e-06
-5.95262e-05
-7.25302e-05
1.23194e-06
-5.8769e-05
-7.21335e-05
9.4523e-07
-5.77683e-05
-7.16189e-05
-5.64255e-05
-7.07279e-05
-1.87499e-06
-7.70344e-05
-9.24119e-05
-2.27324e-06
-7.95116e-05
-9.41796e-05
-1.89075e-06
-8.12363e-05
-9.53307e-05
-1.05737e-06
-8.2487e-05
-9.61815e-05
-4.18836e-08
-8.31156e-05
-9.66281e-05
9.70135e-07
-8.31425e-05
-9.66567e-05
1.80165e-06
-8.25738e-05
-9.62706e-05
2.19384e-06
-8.13875e-05
-9.54823e-05
1.83878e-06
-7.97349e-05
-9.43935e-05
-7.72781e-05
-9.26465e-05
-3.61936e-06
-0.000127187
-9.48221e-05
-3.9729e-06
-0.000131203
-9.93395e-05
-3.12616e-06
-0.000133606
-0.000101802
-1.68969e-06
-0.000135228
-0.000103485
-7.11826e-08
-0.000136013
-0.000104267
1.54128e-06
-0.000136049
-0.000104296
2.97081e-06
-0.000135343
-0.000103582
3.82747e-06
-0.000133814
-0.000101978
3.55159e-06
-0.000131528
-9.96351e-05
-0.00012755
-9.51577e-05
-5.26887e-07
-2.35834e-05
-2.77135e-05
-7.21692e-07
-2.42031e-05
-2.78254e-05
-6.55972e-07
-2.4565e-05
-2.79151e-05
-3.88663e-07
-2.48478e-05
-2.80041e-05
-1.40932e-08
-2.50059e-05
-2.80625e-05
3.60032e-07
-2.50156e-05
-2.80727e-05
6.2591e-07
-2.48765e-05
-2.80343e-05
6.95014e-07
-2.46128e-05
-2.79632e-05
5.09457e-07
-2.42692e-05
-2.78881e-05
-2.36525e-05
-2.77836e-05
-7.08193e-07
-4.9309e-05
-3.13845e-05
-1.00752e-06
-5.04303e-05
-3.18963e-05
-9.12787e-07
-5.12899e-05
-3.20847e-05
-5.36819e-07
-5.19577e-05
-3.22289e-05
-2.26936e-08
-5.23168e-05
-3.23162e-05
4.89994e-07
-5.23359e-05
-3.23277e-05
8.66238e-07
-5.20152e-05
-3.2263e-05
9.66755e-07
-5.13873e-05
-3.21403e-05
6.84466e-07
-5.05648e-05
-3.19704e-05
-4.94518e-05
-3.14616e-05
-1.37541e-06
-7.87879e-05
-3.96876e-05
-1.79741e-06
-8.09287e-05
-4.05211e-05
-1.54856e-06
-8.26091e-05
-4.09258e-05
-8.85365e-07
-8.38473e-05
-4.12133e-05
-4.19737e-08
-8.44805e-05
-4.137e-05
7.9913e-07
-8.45076e-05
-4.13832e-05
1.4626e-06
-8.39338e-05
-4.1253e-05
1.72257e-06
-8.27599e-05
-4.09924e-05
1.33678e-06
-8.1147e-05
-4.06143e-05
-7.90255e-05
-3.97857e-05
-2.90852e-06
-0.000112709
-5.54924e-05
-3.40598e-06
-0.000117265
-5.72476e-05
-2.75092e-06
-0.000120309
-5.8182e-05
-1.51247e-06
-0.000122374
-5.8787e-05
-7.15902e-08
-0.000123356
-5.9084e-05
1.36543e-06
-0.00012339
-5.91001e-05
2.59977e-06
-0.000122487
-5.88371e-05
3.26856e-06
-0.000120518
-5.82726e-05
2.8404e-06
-0.000117604
-5.73898e-05
-0.000113088
-5.56477e-05
-6.25187e-06
-8.52373e-05
-0.000148197
-6.40619e-06
-8.97421e-05
-0.000158349
-4.79067e-06
-9.19254e-05
-0.000163367
-2.50188e-06
-9.31879e-05
-0.000166472
-1.07809e-07
-9.37417e-05
-0.000167785
2.27344e-06
-9.37615e-05
-0.000167821
4.54103e-06
-9.3256e-05
-0.000166603
6.15004e-06
-9.20652e-05
-0.00016363
6.12713e-06
-8.99989e-05
-0.000158877
-8.55364e-05
-0.000148811
-5.08446e-07
-2.72284e-05
-7.7955e-07
-2.75782e-05
-7.33399e-07
-2.79862e-05
-4.41798e-07
-2.83215e-05
-2.35328e-08
-2.85069e-05
3.94214e-07
-2.85171e-05
6.87272e-07
-2.83514e-05
7.39657e-07
-2.80364e-05
4.83381e-07
-2.76469e-05
-2.73035e-05
-7.29788e-07
-5.7894e-05
-1.12855e-06
-5.90857e-05
-1.04442e-06
-6.01651e-05
-6.18031e-07
-6.09871e-05
-3.27163e-08
-6.14191e-05
5.51948e-07
-6.14396e-05
9.79571e-07
-6.10495e-05
1.07268e-06
-6.02725e-05
6.96883e-07
-5.92382e-05
-5.80599e-05
-1.60003e-06
-9.59579e-05
-2.12996e-06
-9.90509e-05
-1.83117e-06
-0.000101362
-1.04089e-06
-0.000102962
-5.36862e-08
-0.000103747
9.30905e-07
-0.000103777
1.72118e-06
-0.000103058
2.03325e-06
-0.000101539
1.54748e-06
-9.93254e-05
-9.62624e-05
-3.8231e-06
-0.000147543
-4.31123e-06
-0.000155718
-3.38237e-06
-0.000160375
-1.82041e-06
-0.000163211
-8.55803e-08
-0.000164463
1.64188e-06
-0.0001645
3.19243e-06
-0.00016334
4.12676e-06
-0.000160637
3.72919e-06
-0.000156206
-0.000148112
-9.45972e-06
-0.000223159
-8.81195e-06
-0.000245925
-6.18778e-06
-0.000254735
-3.09486e-06
-0.000259305
-1.27083e-07
-0.000260981
2.81979e-06
-0.000261016
5.86208e-06
-0.000259446
8.43413e-06
-0.000255078
9.26914e-06
-0.000246859
-0.000224279
-2.47189e-05
-0.000342867
0.000144759
-1.81539e-05
-0.000410443
0.000158297
-1.09417e-05
-0.000425259
0.000163676
-4.96387e-06
-0.000431341
0.000166399
-1.70625e-07
-0.000432846
0.000167414
4.56528e-06
-0.000432846
0.000167439
1.03988e-05
-0.00043143
0.000166494
1.73436e-05
-0.000425582
0.000163908
2.42959e-05
-0.000412379
0.000158879
-0.000345247
0.000145458
-5.57251e-05
-0.000530098
0.000243032
-3.79767e-05
-0.000699085
0.000271227
-1.95708e-05
-0.000723046
0.000279639
-8.08392e-06
-0.000725986
0.000283415
-2.30836e-07
-0.000724933
0.000284474
7.50725e-06
-0.000724841
0.00028448
1.86092e-05
-0.000725747
0.000283474
3.63775e-05
-0.000722979
0.000279844
5.48046e-05
-0.000702696
0.000272177
-0.000534637
0.000244168
-0.00016035
-0.000779661
0.000410099
-7.17665e-05
-0.00131086
0.000523025
-1.7779e-05
-0.00132027
0.000543168
-4.03435e-06
-0.00129041
0.000550565
-1.40643e-08
-0.00128057
0.000551478
3.86128e-06
-0.00128028
0.00055144
1.6615e-05
-0.00128919
0.000550547
6.8583e-05
-0.00131847
0.000543518
0.000158329
-0.0013185
0.000525686
-0.000789909
0.000413517
-0.00025507
-0.00137607
0.000850773
-0.000109723
-0.00231166
0.000855006
-3.53601e-05
-0.00230696
0.000911777
-1.03036e-05
-0.00224583
0.000929826
-1.53073e-07
-0.0022251
0.000933851
9.75739e-06
-0.00222453
0.00093383
3.35498e-05
-0.00224346
0.000929999
0.000105253
-0.00230351
0.000912645
0.000251192
-0.00232177
0.000856983
-0.00139316
0.000854001
0.000304854
-0.00168126
0.00015311
-0.0021603
5.29012e-05
-0.00220717
1.6442e-05
-0.00220977
2.48953e-07
-0.00220928
-1.55428e-05
-0.00220914
-5.01387e-05
-0.00220931
-0.000146815
-0.00220713
-0.000300544
-0.00216843
-0.00169385
-1.32829e-05
-0.00016968
0.000179734
-1.13591e-05
-0.000191317
0.000189653
-7.76078e-06
-0.000197492
0.00019448
-3.78935e-06
-0.000201214
0.000197449
-1.46195e-07
-0.000202489
0.000198748
3.46616e-06
-0.000202518
0.000198789
7.38242e-06
-0.000201333
0.000197596
1.08881e-05
-0.000197733
0.000194771
1.30518e-05
-0.000192077
0.000190205
-0.000170555
0.000180365
-3.10437e-05
-0.000164353
0.000269041
-2.49251e-05
-0.000219007
0.000292974
-1.54906e-05
-0.000230322
0.000303287
-7.05439e-06
-0.000235137
0.000309093
-2.41374e-07
-0.000235977
0.000311329
6.51204e-06
-0.000235974
0.000311387
1.47535e-05
-0.000235229
0.000309298
2.39713e-05
-0.000230579
0.000303742
3.04873e-05
-0.000220339
0.000293995
-0.000166097
0.000270264
-2.96346e-05
-7.00892e-06
0.000282137
-1.57701e-05
-4.76229e-05
0.000337799
-5.52929e-06
-4.31212e-05
0.00034563
-1.82763e-06
-3.70602e-05
0.000348698
-4.40787e-08
-3.54841e-05
0.000349118
1.67808e-06
-3.54764e-05
0.0003491
5.18415e-06
-3.69339e-05
0.000348731
1.50314e-05
-4.28835e-05
0.000345765
2.92541e-05
-4.80845e-05
0.000339175
-7.22298e-06
0.000283691
-0.000177185
0.000340901
0.000679769
-0.000110853
-4.16464e-05
0.000782224
-4.88558e-05
-2.23724e-05
0.000828549
-1.81477e-05
1.35522e-05
0.000848051
-5.08364e-07
2.63136e-05
0.000853955
1.68426e-05
2.6553e-05
0.000854028
4.65119e-05
1.44429e-05
0.000848426
0.000107706
-2.1382e-05
0.00082958
0.000174646
-4.37916e-05
0.0007852
0.000336907
0.000684226
0.000193804
-0.00153452
0.000102764
-0.00211128
3.69076e-05
-0.00216403
1.15476e-05
-0.00217121
2.29523e-07
-0.00217199
-1.08046e-05
-0.00217191
-3.49852e-05
-0.00217103
-9.91527e-05
-0.00216471
-0.000191581
-0.00212008
-0.00154864
-6.5319e-06
-0.000100534
0.00019214
-6.24811e-06
-0.000107488
0.000197709
-4.64934e-06
-0.000109696
0.000200963
-2.41385e-06
-0.000111332
0.000203239
-9.92625e-08
-0.000112008
0.000204354
2.20058e-06
-0.000112033
0.000204403
4.42111e-06
-0.000111422
0.000203401
5.99966e-06
-0.000109857
0.000201249
6.41302e-06
-0.000107821
0.000198152
-0.000100928
0.000192633
-1.53184e-05
-7.78564e-05
0.000261782
-1.38114e-05
-8.98356e-05
0.000273959
-9.53898e-06
-9.1566e-05
0.00028101
-4.6535e-06
-9.2635e-05
0.000285627
-1.78935e-07
-9.27747e-05
0.000287728
4.26468e-06
-9.27859e-05
0.000287805
9.06592e-06
-9.26963e-05
0.000285882
1.32662e-05
-9.16882e-05
0.000281492
1.50107e-05
-9.02442e-05
0.000274767
-7.83915e-05
0.000262731
-6.16213e-06
-1.60556e-05
0.000226455
-2.70788e-06
3.42325e-06
0.000241
-1.1129e-06
9.48439e-06
0.000242892
-5.11996e-07
1.13433e-05
0.000244027
-2.82336e-08
1.1488e-05
0.000244276
4.45868e-07
1.14644e-05
0.000244279
1.02103e-06
1.13027e-05
0.000244073
2.53309e-06
9.50802e-06
0.000242964
6.04866e-06
3.83537e-06
0.000241406
-1.55972e-05
0.000226832
-5.56603e-05
0.00027682
0.000442265
-4.03307e-05
0.000302763
0.000467204
-2.2372e-05
0.00033266
0.000487065
-9.67154e-06
0.000347529
0.00049883
-3.90583e-07
0.000352663
0.000503165
8.7617e-06
0.000352721
0.000503291
2.10956e-05
0.000347751
0.000499298
3.88865e-05
0.000332929
0.000487985
5.45413e-05
0.000304073
0.000468985
0.000278468
0.00044451
7.57881e-05
-0.00133373
3.82861e-05
-0.00177127
1.42417e-05
-0.00180757
4.39311e-06
-0.00181407
1.26099e-07
-0.0018153
-4.01622e-06
-0.0018153
-1.34022e-05
-0.00181415
-3.69483e-05
-0.00180846
-7.50117e-05
-0.00177814
-0.00134525
-2.79362e-06
-5.34796e-05
0.000197094
-2.96389e-06
-5.58618e-05
0.000200669
-2.36432e-06
-5.6761e-05
0.000203001
-1.28129e-06
-5.75411e-05
0.000204786
-4.66832e-08
-5.79123e-05
0.000205726
1.182e-06
-5.79336e-05
0.00020578
2.2622e-06
-5.76108e-05
0.000204955
2.86097e-06
-5.68781e-05
0.000203284
2.74396e-06
-5.60491e-05
0.000201065
-5.37051e-05
0.000197525
-6.77289e-06
-3.704e-05
0.000252161
-6.68533e-06
-4.19228e-05
0.000259977
-4.91499e-06
-4.27251e-05
0.000265244
-2.50905e-06
-4.32313e-05
0.000268952
-9.72813e-08
-4.3336e-05
0.000270779
2.30182e-06
-4.33519e-05
0.000270862
4.67351e-06
-4.32835e-05
0.00026922
6.42631e-06
-4.28259e-05
0.000265718
6.62692e-06
-4.2148e-05
0.000260682
-3.73239e-05
0.000252962
-6.9174e-07
-3.27431e-05
0.000222772
-2.31806e-07
-2.84853e-05
0.000227033
-2.481e-07
-2.73495e-05
0.000227454
-2.41837e-07
-2.73465e-05
0.00022805
-1.5749e-08
-2.76478e-05
0.000228273
2.09819e-07
-2.76769e-05
0.00022829
2.264e-07
-2.74268e-05
0.00022811
1.90684e-07
-2.74526e-05
0.000227526
6.6128e-07
-2.8516e-05
0.000227202
-3.28487e-05
0.000222926
-2.54612e-05
0.00010073
0.000334102
-1.81706e-05
0.000100548
0.00033068
-1.09738e-05
0.000110448
0.000341873
-5.03476e-06
0.000115687
0.000349662
-2.41715e-07
0.000117626
0.000352902
4.49482e-06
0.000117652
0.000353029
1.02853e-05
0.000115784
0.00035009
1.73995e-05
0.000110563
0.000342656
2.49306e-05
0.000100957
0.00033178
0.000101168
0.00033532
2.23199e-05
-0.00125546
1.15463e-05
-0.00166007
4.59484e-06
-0.00169029
1.3913e-06
-0.0016953
7.10187e-08
-0.00169647
-1.20613e-06
-0.0016965
-4.25999e-06
-0.00169543
-1.11053e-05
-0.00169117
-2.20998e-05
-0.00166628
-0.00126621
-5.66047e-07
-1.41977e-05
0.000198501
-6.78545e-07
-1.44201e-05
0.000201543
-6.09103e-07
-1.44547e-05
0.000203556
-3.43823e-07
-1.46076e-05
0.000205134
9.38182e-09
-1.47077e-05
0.000205987
3.60322e-07
-1.47241e-05
0.000206045
6.21746e-07
-1.46516e-05
0.000205311
6.82576e-07
-1.45266e-05
0.000203846
5.66609e-07
-1.45138e-05
0.000201936
-1.43155e-05
0.000198925
-1.35762e-06
-1.25264e-05
0.000251799
-1.5287e-06
-1.31718e-05
0.000258874
-1.26308e-06
-1.32113e-05
0.000263708
-6.9023e-07
-1.33996e-05
0.000267137
-1.02448e-08
-1.35009e-05
0.000268858
6.65147e-07
-1.35166e-05
0.000268948
1.22813e-06
-1.34569e-05
0.000267417
1.48588e-06
-1.33109e-05
0.000264195
1.32273e-06
-1.32938e-05
0.000259592
-1.26939e-05
0.000252606
7.6462e-07
-1.71214e-05
0.00022657
6.32027e-07
-1.63111e-05
0.000230225
1.786e-07
-1.64068e-05
0.000231023
-1.68374e-08
-1.69086e-05
0.000231675
4.82766e-09
-1.72775e-05
0.00023195
2.52712e-08
-1.73082e-05
0.000231971
-1.63127e-07
-1.6994e-05
0.000231744
-6.19042e-07
-1.6531e-05
0.000231131
-7.78221e-07
-1.64518e-05
0.000230406
-1.73376e-05
0.000226741
-4.72025e-06
8.02881e-06
0.00031359
-4.1356e-06
3.75424e-06
0.000309977
-3.25742e-06
4.6817e-06
0.000319831
-1.75384e-06
4.89206e-06
0.000326301
-1.07699e-07
4.93786e-06
0.000328971
1.51553e-06
4.94126e-06
0.000329086
2.99898e-06
4.87131e-06
0.000326696
3.89749e-06
4.60477e-06
0.000320521
4.48887e-06
3.66119e-06
0.00031103
7.84697e-06
0.000314594
2.76344e-06
-0.00125021
7.53782e-07
-0.00165431
-1.31355e-07
-0.0016847
-2.64469e-07
-0.00169028
3.18411e-08
-0.00169183
3.43371e-07
-0.00169186
2.18951e-07
-0.00169046
-6.64245e-07
-0.00168565
-2.70045e-06
-0.00166058
-0.00126105
1.24972e-06
2.54366e-05
0.000195542
1.27331e-06
2.74396e-05
0.000198746
9.30419e-07
2.84776e-05
0.000200686
4.97675e-07
2.90285e-05
0.000202182
6.77761e-08
2.92389e-05
0.000202986
-3.62258e-07
2.92323e-05
0.000203044
-8.04731e-07
2.90124e-05
0.000202355
-1.16967e-06
2.84574e-05
0.00020097
-1.20335e-06
2.74617e-05
0.000199143
2.54535e-05
0.000195973
3.54675e-06
9.95681e-06
0.000263657
3.1759e-06
1.37617e-05
0.000272789
2.09175e-06
1.46679e-05
0.000278481
1.01854e-06
1.48006e-05
0.000282312
8.09822e-08
1.47263e-05
0.000284184
-8.5319e-07
1.47006e-05
0.000284281
-1.92254e-06
1.47391e-05
0.000282611
-2.99986e-06
1.45891e-05
0.000279027
-3.47343e-06
1.37429e-05
0.000273632
9.88089e-06
0.000264621
2.56165e-06
5.82849e-06
0.000228062
1.6168e-06
1.10371e-05
0.000233829
7.1324e-07
1.17449e-05
0.000234735
2.47747e-07
1.12854e-05
0.000235598
2.64942e-08
1.08507e-05
0.000235965
-2.01498e-07
1.08182e-05
0.000235985
-6.4916e-07
1.1202e-05
0.000235697
-1.55369e-06
1.16093e-05
0.00023487
-2.55349e-06
1.10348e-05
0.000234038
5.78538e-06
0.000228266
1.64842e-05
-7.32302e-05
0.000376263
9.01208e-06
-7.43642e-05
0.000402878
3.64059e-06
-8.00779e-05
0.000417151
1.16815e-06
-8.44416e-05
0.000424549
1.66823e-08
-8.6171e-05
0.000427224
-1.10214e-06
-8.6194e-05
0.000427348
-3.50072e-06
-8.46314e-05
0.000424922
-8.72161e-06
-8.04349e-05
0.000417916
-1.64743e-05
-7.48934e-05
0.000404791
-7.42152e-05
0.000378188
-1.2089e-05
-0.00131131
-8.4878e-06
-0.00173209
-4.61709e-06
-0.00176853
-1.94017e-06
-0.00177723
-2.36612e-09
-0.00177979
1.8999e-06
-0.00177985
4.51852e-06
-0.0017775
8.3092e-06
-0.00176973
1.20749e-05
-0.0017391
-0.00132313
3.20465e-06
7.32561e-05
0.000182721
3.19408e-06
7.89772e-05
0.000185962
2.40606e-06
8.15637e-05
0.000187628
1.29765e-06
8.30421e-05
0.000188949
1.26848e-07
8.36487e-05
0.000189667
-1.04597e-06
8.36502e-05
0.000189719
-2.1686e-06
8.3056e-05
0.000189103
-2.98365e-06
8.16272e-05
0.000187885
-3.10802e-06
7.91683e-05
0.000186318
7.34562e-05
0.000183106
1.0175e-05
4.45535e-05
0.000282004
8.84486e-06
5.89716e-05
0.000293917
5.89391e-06
6.20191e-05
0.000300709
2.89055e-06
6.29238e-05
0.000305219
1.7952e-07
6.29732e-05
0.000307332
-2.52211e-06
6.2944e-05
0.000307426
-5.47905e-06
6.28751e-05
0.000305553
-8.38913e-06
6.19562e-05
0.000301311
-9.95892e-06
5.925e-05
0.000294879
4.48138e-05
0.000283206
5.36676e-06
4.87796e-05
0.000218579
3.13403e-06
6.94753e-05
0.000225387
1.59657e-06
7.31649e-05
0.000225101
6.36076e-07
7.35587e-05
0.000225811
4.72875e-08
7.33158e-05
0.000226139
-5.09119e-07
7.33044e-05
0.000226194
-1.4931e-06
7.34823e-05
0.000225891
-3.05245e-06
7.31514e-05
0.000225188
-5.30889e-06
6.99256e-05
0.000225554
4.90697e-05
0.00021877
5.8517e-05
-0.000190307
0.000556746
3.12234e-05
-0.000154515
0.000654533
1.28975e-05
-0.000166909
0.000675719
4.60714e-06
-0.000178682
0.000685386
1.6842e-07
-0.000183194
0.000688476
-4.24118e-06
-0.000183333
0.000688553
-1.21478e-05
-0.000179166
0.000685851
-2.99239e-05
-0.000167804
0.000676853
-5.80239e-05
-0.000154932
0.000658088
-0.000191813
0.000561162
-4.01494e-05
-0.00146106
-2.58854e-05
-0.0019007
-1.22988e-05
-0.0019487
-4.66176e-06
-0.00196327
-7.43055e-08
-0.00196732
4.47777e-06
-0.00196739
1.1811e-05
-0.00196373
2.50716e-05
-0.00195047
3.9926e-05
-0.00190874
-0.00147484
5.20661e-06
0.000135619
0.000150344