/*--------------------------------*- C++ -*----------------------------------*\
| =========                 |                                                 |
| \\      /  F ield         | OpenFOAM: The Open Source CFD Toolbox           |
|  \\    /   O peration     | Version:  2.3.1                                 |
|   \\  /    A nd           | Web:      www.OpenFOAM.org                      |
|    \\/     M anipulation  |                                                 |
\*---------------------------------------------------------------------------*/
FoamFile
{
    version     2.0;
    format      ascii;
    class       surfaceScalarField;
    location    "0.4";
    object      phi;
}
// * * * * * * * * * * * * * * * * * * * * * * * * * * * * * * * * * * * * * //

dimensions      [0 3 -1 0 0 0 0];

internalField   nonuniform List<scalar> 
1460
(
-2.54519e-07
-2.18929e-06
-5.34598e-07
-9.94835e-07
-8.4955e-07
-6.86632e-07
-1.00083e-06
-5.82199e-07
-1.0709e-06
-2.55462e-07
-1.02773e-06
1.25637e-07
-9.63495e-07
4.44117e-07
-8.54901e-07
7.51714e-07
-7.30681e-07
1.05134e-06
-6.2444e-07
1.30954e-06
-5.44591e-07
1.50029e-06
1.6127e-06
-4.68521e-07
-3.11524e-07
-2.54422e-06
-3.38573e-07
-9.67787e-07
-6.37653e-07
-3.87552e-07
-8.35475e-07
-3.84377e-07
-9.15331e-07
-1.75605e-07
-9.14375e-07
1.24681e-07
-8.67085e-07
3.96828e-07
-7.71028e-07
6.55657e-07
-6.26663e-07
9.06973e-07
-4.52366e-07
1.13524e-06
-2.74126e-07
1.32205e-06
1.44863e-06
-1.10051e-07
-5.2715e-07
-2.89858e-06
-4.04416e-07
-1.09052e-06
-5.84392e-07
-2.07576e-07
-7.34147e-07
-2.34622e-07
-7.9407e-07
-1.15682e-07
-7.91668e-07
1.22279e-07
-7.50592e-07
3.55751e-07
-6.74358e-07
5.79424e-07
-5.58828e-07
7.91443e-07
-4.03337e-07
9.7975e-07
-2.15182e-07
1.13389e-06
1.2424e-06
-8.95008e-09
-6.46114e-07
-3.08018e-06
-6.0364e-07
-1.13299e-06
-6.26538e-07
-1.84677e-07
-6.78749e-07
-1.82412e-07
-7.0549e-07
-8.89402e-08
-6.94539e-07
1.11328e-07
-6.52464e-07
3.13676e-07
-5.82741e-07
5.097e-07
-4.84591e-07
6.93293e-07
-3.57292e-07
8.52452e-07
-2.01454e-07
9.78055e-07
-2.01108e-08
1.06105e-06
-3.57332e-07
1.6466e-06
-1.81237e-07
1.60081e-06
5.9281e-08
1.45087e-06
3.02647e-07
1.13232e-06
4.45516e-07
6.30028e-07
3.4623e-07
-5.44209e-09
2.04169e-07
-5.42895e-07
1.80951e-08
-1.01695e-06
-1.86723e-07
-1.38747e-06
-3.91123e-07
-1.61438e-06
-5.44028e-07
-1.82314e-06
-2.15235e-06
-4.94249e-07
3.91683e-08
1.49738e-06
1.89568e-07
1.45041e-06
3.52585e-07
1.28786e-06
5.00142e-07
9.84766e-07
5.82338e-07
5.47832e-07
5.49271e-07
2.76243e-08
4.63371e-07
-4.56995e-07
3.26195e-07
-8.79778e-07
1.3873e-07
-1.2e-06
-9.79061e-08
-1.37775e-06
-4.52431e-07
-1.46862e-06
-1.94016e-06
-6.64623e-07
1.99139e-07
1.28929e-06
3.95415e-07
1.25414e-06
5.70366e-07
1.1129e-06
7.04788e-07
8.50344e-07
7.75091e-07
4.77529e-07
7.61815e-07
4.09008e-08
6.84575e-07
-3.79755e-07
5.39025e-07
-7.34228e-07
3.22003e-07
-9.82983e-07
2.08131e-08
-1.07656e-06
-4.41562e-07
-1.00624e-06
-1.50185e-06
-8.79865e-07
1.78788e-07
1.09039e-06
3.78695e-07
1.05423e-06
5.61162e-07
9.30437e-07
7.01123e-07
7.10382e-07
7.75273e-07
4.03379e-07
7.69613e-07
4.65611e-08
6.93951e-07
-3.04093e-07
5.48331e-07
-5.88607e-07
3.36963e-07
-7.71616e-07
6.85024e-08
-8.08096e-07
-2.77107e-07
-6.60631e-07
-8.26269e-07
-9.5269e-07
-2.53447e-07
-2.18751e-06
-5.33857e-07
-9.93474e-07
-8.48815e-07
-6.86019e-07
-1.0001e-06
-5.81886e-07
-1.07012e-06
-2.55477e-07
-1.02688e-06
1.25408e-07
-9.62549e-07
4.43647e-07
-8.53898e-07
7.51091e-07
-7.29634e-07
1.0506e-06
-6.2335e-07
1.30876e-06
-5.4346e-07
1.49953e-06
1.61192e-06
-4.67374e-07
-3.09724e-07
-2.54241e-06
-3.37208e-07
-9.65989e-07
-6.36607e-07
-3.86621e-07
-8.34549e-07
-3.83944e-07
-9.14454e-07
-1.75572e-07
-9.13551e-07
1.24504e-07
-8.66328e-07
3.96424e-07
-7.70324e-07
6.55088e-07
-6.26011e-07
9.06283e-07
-4.51729e-07
1.13448e-06
-2.73476e-07
1.32127e-06
1.44783e-06
-1.09389e-07
-5.25241e-07
-2.89704e-06
-4.02651e-07
-1.08858e-06
-5.83069e-07
-2.06202e-07
-7.33083e-07
-2.33929e-07
-7.93149e-07
-1.15506e-07
-7.90821e-07
1.22176e-07
-7.49854e-07
3.55457e-07
-6.73709e-07
5.78942e-07
-5.5828e-07
7.90854e-07
-4.02867e-07
9.79071e-07
-2.1476e-07
1.13317e-06
1.24164e-06
-8.57222e-09
-6.44625e-07
-3.07868e-06
-6.0198e-07
-1.13122e-06
-6.25236e-07
-1.82946e-07
-6.77692e-07
-1.81474e-07
-7.04572e-07
-8.86257e-08
-6.93725e-07
1.11329e-07
-6.51738e-07
3.13471e-07
-5.82107e-07
5.09311e-07
-4.84042e-07
6.92788e-07
-3.56818e-07
8.51847e-07
-2.01059e-07
9.77406e-07
-1.97825e-08
1.06037e-06
-3.56228e-07
1.6457e-06
-1.80294e-07
1.59977e-06
5.98821e-08
1.44962e-06
3.02979e-07
1.13085e-06
4.45503e-07
6.28654e-07
3.46e-07
-6.19155e-09
2.04127e-07
-5.43354e-07
1.81901e-08
-1.01681e-06
-1.86408e-07
-1.38698e-06
-3.90682e-07
-1.61364e-06
-5.43478e-07
-1.8224e-06
-2.15096e-06
3.97939e-08
1.49651e-06
1.90143e-07
1.44942e-06
3.53015e-07
1.28675e-06
5.00316e-07
9.83549e-07
5.82228e-07
5.46742e-07
5.49102e-07
2.69347e-08
4.63195e-07
-4.57447e-07
3.26063e-07
-8.79673e-07
1.38643e-07
-1.19956e-06
-9.79654e-08
-1.37703e-06
-4.52442e-07
-1.46792e-06
-1.93893e-06
1.99454e-07
1.28849e-06
3.95647e-07
1.25323e-06
5.70478e-07
1.11192e-06
7.04716e-07
8.49312e-07
7.74842e-07
4.76616e-07
7.61506e-07
4.0271e-08
6.8416e-07
-3.80101e-07
5.38663e-07
-7.34177e-07
3.21724e-07
-9.82616e-07
2.0653e-08
-1.07596e-06
-4.41644e-07
-1.00562e-06
-1.50096e-06
1.79043e-07
1.08966e-06
3.78834e-07
1.05344e-06
5.61156e-07
9.296e-07
7.00942e-07
7.09525e-07
7.74935e-07
4.02624e-07
7.69187e-07
4.60188e-08
6.93477e-07
-3.04392e-07
5.47916e-07
-5.88615e-07
3.36672e-07
-7.71373e-07
6.8406e-08
-8.07698e-07
-2.76991e-07
-6.60227e-07
-9.52138e-07
-6.19765e-07
-2.46042e-06
-7.39751e-07
-1.01301e-06
-6.60655e-07
-2.63773e-07
-6.29921e-07
-2.13146e-07
-6.30514e-07
-8.83471e-08
-6.13428e-07
9.42423e-08
-5.73185e-07
2.73432e-07
-5.0924e-07
4.45755e-07
-4.20794e-07
6.04847e-07
-3.09412e-07
7.4107e-07
-1.77729e-07
8.46372e-07
9.11699e-07
-2.8376e-08
-5.56364e-07
-1.90406e-06
-6.74143e-07
-8.95228e-07
-5.95285e-07
-3.42631e-07
-5.67713e-07
-2.40718e-07
-5.63997e-07
-9.20621e-08
-5.45747e-07
7.59917e-08
-5.08148e-07
2.35834e-07
-4.4975e-07
3.87357e-07
-3.70044e-07
5.25141e-07
-2.70525e-07
6.41551e-07
-1.5431e-07
7.30158e-07
7.828e-07
-2.5411e-08
-4.33224e-07
-1.47083e-06
-5.53542e-07
-7.74911e-07
-5.13281e-07
-3.82892e-07
-5.0671e-07
-2.47289e-07
-5.05204e-07
-9.35683e-08
-4.88232e-07
5.90198e-08
-4.53936e-07
2.01538e-07
-4.00799e-07
3.3422e-07
-3.28857e-07
4.53199e-07
-2.39733e-07
5.52427e-07
-1.36247e-07
6.26671e-07
6.6904e-07
-2.24863e-08
-3.21474e-07
-1.14936e-06
-4.37542e-07
-6.58842e-07
-4.40473e-07
-3.79961e-07
-4.51434e-07
-2.36328e-07
-4.53579e-07
-9.14233e-08
-4.39586e-07
4.50269e-08
-4.0863e-07
1.70582e-07
-3.60452e-07
2.86042e-07
-2.9525e-07
3.87996e-07
-2.15008e-07
4.72185e-07
-1.22319e-07
5.33982e-07
5.67908e-07
-2.11875e-08
-2.45162e-07
-9.04195e-07
-3.52435e-07
-5.5157e-07
-3.81787e-07
-3.50609e-07
-4.03333e-07
-2.14783e-07
-4.09335e-07
-8.54204e-08
-3.98411e-07
3.41029e-08
-3.70931e-07
1.43102e-07
-3.27116e-07
2.42228e-07
-2.67806e-07
3.28686e-07
-1.95073e-07
3.99453e-07
-1.11416e-07
4.50325e-07
4.77182e-07
-2.06889e-08
-1.94356e-07
-7.09839e-07
-2.92213e-07
-4.53713e-07
-3.35364e-07
-3.07458e-07
-3.62691e-07
-1.87456e-07
-3.71916e-07
-7.61961e-08
-3.63714e-07
2.59008e-08
-3.39299e-07
1.18687e-07
-2.99495e-07
2.02423e-07
-2.45357e-07
2.74548e-07
-1.78929e-07
3.33024e-07
-1.02799e-07
3.74194e-07
3.95042e-07
-2.06591e-08
-1.59945e-07
-5.49894e-07
-2.49241e-07
-3.64416e-07
-2.98685e-07
-2.58014e-07
-3.29098e-07
-1.57043e-07
-3.40588e-07
-6.47061e-08
-3.34733e-07
2.00452e-08
-3.13177e-07
9.71315e-08
-2.76665e-07
1.65911e-07
-2.27003e-07
2.24886e-07
-1.65819e-07
2.71841e-07
-9.58813e-08
3.04256e-07
3.19965e-07
-2.08036e-08
-1.35926e-07
-4.13968e-07
-2.18063e-07
-2.8228e-07
-2.6998e-07
-2.06096e-07
-3.01799e-07
-1.25224e-07
-3.14841e-07
-5.16644e-08
-3.1096e-07
1.61642e-08
-2.91639e-07
7.78114e-08
-2.58112e-07
1.32384e-07
-2.11976e-07
1.7875e-07
-1.55248e-07
2.15112e-07
-9.04329e-08
2.39441e-07
2.50548e-07
-2.10161e-08
-1.19396e-07
-2.94572e-07
-1.95889e-07
-2.05786e-07
-2.48462e-07
-1.53524e-07
-2.80907e-07
-9.27794e-08
-2.95049e-07
-3.75224e-08
-2.92645e-07
1.37609e-08
-2.75163e-07
6.03287e-08
-2.44061e-07
1.01282e-07
-2.00868e-07
1.35558e-07
-1.47475e-07
1.61719e-07
-8.66083e-08
1.78575e-07
1.85497e-07
-2.15574e-08
-1.09682e-07
-1.8489e-07
-1.83265e-07
-1.32203e-07
-2.36601e-07
-1.00188e-07
-2.70031e-07
-5.93491e-08
-2.8547e-07
-2.20834e-08
-2.84412e-07
1.27024e-08
-2.68314e-07
4.4231e-08
-2.38482e-07
7.14497e-08
-1.96565e-07
9.36414e-08
-1.44664e-07
1.09818e-07
-8.55419e-08
1.19452e-07
1.22461e-07
-2.25057e-08
-1.05773e-07
-7.91167e-08
-1.80104e-07
-5.78732e-08
-2.36134e-07
-4.41574e-08
-2.71401e-07
-2.40823e-08
-2.8778e-07
-5.70453e-09
-2.86674e-07
1.15964e-08
-2.69187e-07
2.67441e-08
-2.36952e-07
3.92147e-08
-1.92049e-07
4.87384e-08
-1.37121e-07
5.48902e-08
-7.52555e-08
5.7587e-08
5.7375e-08
-1.01699e-08
-7.91167e-08
-1.3699e-07
-1.81147e-07
-2.0523e-07
-2.10934e-07
-1.99338e-07
-1.72594e-07
-1.33379e-07
-8.46406e-08
-2.97504e-08
2.78366e-08
8.52116e-08
1.33625e-07
9.28391e-07
3.00744e-07
8.8711e-07
4.55501e-07
7.75681e-07
5.76752e-07
5.89131e-07
6.43196e-07
3.36935e-07
6.43258e-07
4.64997e-08
5.80371e-07
-2.41206e-07
4.61133e-07
-4.6937e-07
2.96296e-07
-6.06779e-07
1.21113e-07
-6.32912e-07
6.78087e-08
-6.07327e-07
-8.84881e-07
1.10479e-07
7.92501e-07
2.46972e-07
7.50617e-07
3.71112e-07
6.51541e-07
4.67877e-07
4.92366e-07
5.22296e-07
2.82516e-07
5.24974e-07
4.3821e-08
4.77052e-07
-1.93284e-07
3.87734e-07
-3.80052e-07
2.71145e-07
-4.9019e-07
1.54597e-07
-5.16364e-07
9.08116e-08
-5.43541e-07
-7.9407e-07
9.57716e-08
6.74243e-07
2.123e-07
6.34088e-07
3.15919e-07
5.47922e-07
3.95661e-07
4.12625e-07
4.40854e-07
2.37323e-07
4.44666e-07
4.00086e-08
4.06709e-07
-1.55326e-07
3.38173e-07
-3.11516e-07
2.54743e-07
-4.0676e-07
1.78924e-07
-4.40545e-07
1.15803e-07
-4.8042e-07
-6.78267e-07
8.35033e-08
5.69552e-07
1.84158e-07
5.33434e-07
2.73686e-07
4.58394e-07
3.4265e-07
3.43661e-07
3.8159e-07
1.98383e-07
3.85624e-07
3.59742e-08
3.55045e-07
-1.24747e-07
2.99644e-07
-2.56115e-07
2.34661e-07
-3.41777e-07
1.77238e-07
-3.83122e-07
1.13787e-07
-4.16969e-07
-5.6448e-07
7.25664e-08
4.76297e-07
1.61237e-07
4.44764e-07
2.40064e-07
3.79566e-07
2.99553e-07
2.84172e-07
3.34045e-07
1.63891e-07
3.3926e-07
3.07598e-08
3.15195e-07
-1.00683e-07
2.69188e-07
-2.10107e-07
2.13238e-07
-2.85828e-07
1.59853e-07
-3.29737e-07
9.83937e-08
-3.5551e-07
-4.66086e-07
6.32333e-08
3.92405e-07
1.42935e-07
3.65062e-07
2.12536e-07
3.09965e-07
2.65427e-07
2.31281e-07
2.96698e-07
1.3262e-07
3.02629e-07
2.48293e-08
2.83606e-07
-8.16599e-08
2.44725e-07
-1.71227e-07
1.94979e-07
-2.36082e-07
1.42666e-07
-2.77424e-07
8.4509e-08
-2.97353e-07
-3.81577e-07
5.50574e-08
3.16544e-07
1.27774e-07
2.92346e-07
1.89971e-07
2.47768e-07
2.38374e-07
1.82878e-07
2.66565e-07
1.04429e-07
2.7347e-07
1.79243e-08
2.58072e-07
-6.62621e-08
2.24981e-07
-1.38135e-07
1.80195e-07
-1.91295e-07
1.30031e-07
-2.2726e-07
7.52456e-08
-2.42567e-07
-3.06332e-07
4.87689e-08
2.46759e-07
1.15231e-07
2.25884e-07
1.72544e-07
1.90454e-07
2.16457e-07
1.38966e-07
2.43406e-07
7.74792e-08
2.50165e-07
1.1165e-08
2.3755e-07
-5.36466e-08
2.08877e-07
-1.09462e-07
1.68212e-07
-1.5063e-07
1.20797e-07
-1.79845e-07
6.9053e-08
-1.90823e-07
-2.37279e-07
4.36755e-08
1.81526e-07
1.05435e-07
1.64124e-07
1.59354e-07
1.36536e-07
2.00252e-07
9.80681e-08
2.25081e-07
5.26501e-08
2.32706e-07
3.53979e-09
2.21841e-07
-4.27815e-08
1.96274e-07
-8.38947e-08
1.59033e-07
-1.1339e-07
1.14136e-07
-1.34949e-07
6.48311e-08
-1.41518e-07
-1.72447e-07
4.05416e-08
1.18479e-07
9.95634e-08
1.05102e-07
1.51195e-07
8.49048e-08
1.90574e-07
5.86882e-08
2.14502e-07
2.87222e-08
2.22027e-07
-3.98522e-09
2.13053e-07
-3.38069e-08
1.89505e-07
-6.03471e-08
1.54528e-07
-7.84119e-08
1.11106e-07
-9.15267e-08
6.28871e-08
-9.32996e-08
-1.0956e-07
5.38248e-08
5.4484e-08
1.13377e-07
4.55502e-08
1.64211e-07
3.40699e-08
2.02264e-07
2.06358e-08
2.2498e-07
6.00566e-09
2.30686e-07
-9.69111e-09
2.20573e-07
-2.36939e-08
1.95592e-07
-3.53659e-08
1.59027e-07
-4.18466e-08
1.13412e-07
-4.59122e-08
6.31355e-08
-4.30227e-08
-4.64248e-08
1.39696e-07
1.85246e-07
2.19316e-07
2.39952e-07
2.45957e-07
2.36266e-07
2.12572e-07
1.77206e-07
1.3536e-07
8.94474e-08
4.64248e-08
-6.1906e-07
-2.45962e-06
-7.38818e-07
-1.01147e-06
-6.59731e-07
-2.62033e-07
-6.29014e-07
-2.12191e-07
-6.29674e-07
-8.79652e-08
-6.12668e-07
9.43226e-08
-5.725e-07
2.73303e-07
-5.0862e-07
4.45431e-07
-4.20252e-07
6.0442e-07
-3.08934e-07
7.4053e-07
-1.77323e-07
8.45795e-07
9.11083e-07
-2.80391e-08
-5.56104e-07
-1.90352e-06
-6.73698e-07
-8.93873e-07
-5.94639e-07
-3.41092e-07
-5.66947e-07
-2.39883e-07
-5.63247e-07
-9.16647e-08
-5.45039e-07
7.61142e-08
-5.0749e-07
2.35754e-07
-4.49159e-07
3.871e-07
-3.69514e-07
5.24775e-07
-2.70064e-07
6.41079e-07
-1.53912e-07
7.29643e-07
7.82254e-07
-2.50822e-08
-4.33182e-07
-1.47034e-06
-5.53291e-07
-7.73764e-07
-5.12739e-07
-3.81644e-07
-5.06057e-07
-2.46565e-07
-5.04536e-07
-9.31858e-08
-4.87581e-07
5.91592e-08
-4.53321e-07
2.01494e-07
-4.00235e-07
3.34014e-07
-3.28352e-07
4.52892e-07
-2.39284e-07
5.52011e-07
-1.35863e-07
6.26222e-07
6.68565e-07
-2.21746e-08
-3.21456e-07
-1.14888e-06
-4.37331e-07
-6.57889e-07
-4.39995e-07
-3.78979e-07
-4.5085e-07
-2.35711e-07
-4.52967e-07
-9.10687e-08
-4.38981e-07
4.5173e-08
-4.08049e-07
1.70563e-07
-3.59914e-07
2.85879e-07
-2.94759e-07
3.87737e-07
-2.14583e-07
4.71835e-07
-1.21951e-07
5.33591e-07
5.675e-07
-2.08857e-08
-2.45124e-07
-9.03755e-07
-3.52228e-07
-5.50784e-07
-3.81367e-07
-3.4984e-07
-4.02814e-07
-2.14264e-07
-4.08769e-07
-8.5114e-08
-3.97852e-07
3.42563e-08
-3.70386e-07
1.43097e-07
-3.26607e-07
2.421e-07
-2.67337e-07
3.28467e-07
-1.94664e-07
3.99162e-07
-1.11063e-07
4.49989e-07
4.76833e-07
-2.03957e-08
-1.94299e-07
-7.09457e-07
-2.92003e-07
-4.5308e-07
-3.34987e-07
-3.06856e-07
-3.6222e-07
-1.87031e-07
-3.71401e-07
-7.59335e-08
-3.63191e-07
2.60465e-08
-3.38785e-07
1.18691e-07
-2.99014e-07
2.02329e-07
-2.44906e-07
2.74359e-07
-1.78535e-07
3.32791e-07
-1.0246e-07
3.73914e-07
3.94744e-07
-2.03706e-08
-1.5988e-07
-5.49577e-07
-2.49039e-07
-3.63921e-07
-2.98344e-07
-2.5755e-07
-3.28672e-07
-1.56704e-07
-3.40118e-07
-6.44868e-08
-3.34236e-07
2.01645e-08
-3.12688e-07
9.71422e-08
-2.76199e-07
1.65839e-07
-2.26574e-07
2.24735e-07
-1.65441e-07
2.71658e-07
-9.55497e-08
3.04022e-07
3.19717e-07
-2.05226e-08
-1.35856e-07
-4.1372e-07
-2.17868e-07
-2.81909e-07
-2.69666e-07
-2.05753e-07
-3.01404e-07
-1.24965e-07
-3.14398e-07
-5.14933e-08
-3.10492e-07
1.62586e-08
-2.91176e-07
7.78265e-08
-2.57666e-07
1.32329e-07
-2.1157e-07
1.78639e-07
-1.54877e-07
2.14965e-07
-9.01139e-08
2.39259e-07
2.50353e-07
-2.075e-08
-1.19324e-07
-2.94396e-07
-1.95698e-07
-2.05535e-07
-2.48168e-07
-1.53283e-07
-2.80537e-07
-9.25964e-08
-2.94632e-07
-3.73984e-08
-2.92201e-07
1.38277e-08
-2.74717e-07
6.03432e-08
-2.43628e-07
1.01239e-07
-2.0047e-07
1.35482e-07
-1.47114e-07
1.61609e-07
-8.63e-08
1.78446e-07
1.85352e-07
-2.12995e-08
-1.09607e-07
-1.84789e-07
-1.83089e-07
-1.32054e-07
-2.36322e-07
-1.00049e-07
-2.6968e-07
-5.92387e-08
-2.85071e-07
-2.2007e-08
-2.83986e-07
1.27428e-08
-2.67885e-07
4.4242e-08
-2.38071e-07
7.14251e-08
-1.96184e-07
9.35945e-08
-1.44325e-07
1.09749e-07
-8.52525e-08
1.19374e-07
1.22359e-07
-2.22593e-08
-1.05704e-07
-7.90851e-08
-1.79938e-07
-5.78193e-08
-2.35882e-07
-4.41061e-08
-2.71081e-07
-2.4039e-08
-2.87416e-07
-5.67194e-09
-2.86289e-07
1.16156e-08
-2.68796e-07
2.67491e-08
-2.36577e-07
3.92062e-08
-1.91702e-07
4.87188e-08
-1.36813e-07
5.48608e-08
-7.49916e-08
5.75519e-08
5.73165e-08
-9.94906e-09
-7.90851e-08
-1.36904e-07
-1.8101e-07
-2.05049e-07
-2.10721e-07
-1.99106e-07
-1.72357e-07
-1.3315e-07
-8.44316e-08
-2.95709e-08
2.7981e-08
8.52975e-08
1.3389e-07
9.27734e-07
3.00892e-07
8.86438e-07
4.55528e-07
7.74963e-07
5.76635e-07
5.88418e-07
6.42948e-07
3.36312e-07
6.42926e-07
4.60407e-08
5.80013e-07
-2.41479e-07
4.6082e-07
-4.69422e-07
2.96092e-07
-6.06645e-07
1.2105e-07
-6.32655e-07
6.78301e-08
-6.07007e-07
-8.84308e-07
1.10747e-07
7.91905e-07
2.47137e-07
7.50048e-07
3.71184e-07
6.50917e-07
4.6784e-07
4.91762e-07
5.22155e-07
2.81996e-07
5.24761e-07
4.34352e-08
4.76818e-07
-1.93536e-07
3.87521e-07
-3.80125e-07
2.70997e-07
-4.90121e-07
1.54522e-07
-5.1618e-07
9.07478e-08
-5.43234e-07
-7.9356e-07
9.59849e-08
6.73745e-07
2.12459e-07
6.33574e-07
3.16015e-07
5.4736e-07
3.95653e-07
4.12125e-07
4.40764e-07
2.36885e-07
4.44508e-07
3.96911e-08
4.0654e-07
-1.55568e-07
3.38005e-07
-3.11591e-07
2.54607e-07
-4.06722e-07
1.78829e-07
-4.40402e-07
1.15733e-07
-4.80137e-07
-6.77827e-07
8.37141e-08
5.69145e-07
1.84363e-07
5.32925e-07
2.73771e-07
4.57952e-07
3.42656e-07
3.4324e-07
3.81527e-07
1.98014e-07
3.85518e-07
3.57003e-08
3.54899e-07
-1.24948e-07
2.99491e-07
-2.56183e-07
2.34528e-07
-3.4176e-07
1.77128e-07
-3.83001e-07
1.13712e-07
-4.16722e-07
-5.64115e-07
7.27895e-08
4.7596e-07
1.61382e-07
4.44333e-07
2.40148e-07
3.79186e-07
2.99582e-07
2.83806e-07
3.34001e-07
1.63595e-07
3.39171e-07
3.05298e-08
3.15074e-07
-1.00851e-07
2.6906e-07
-2.10169e-07
2.1311e-07
-2.8581e-07
1.59742e-07
-3.29633e-07
9.8325e-08
-3.55305e-07
-4.6579e-07
6.34619e-08
3.92128e-07
1.43075e-07
3.6472e-07
2.12631e-07
3.0963e-07
2.65444e-07
2.30993e-07
2.96668e-07
1.32371e-07
3.02554e-07
2.46433e-08
2.83503e-07
-8.17991e-08
2.44611e-07
-1.71278e-07
1.94868e-07
-2.36067e-07
1.42567e-07
-2.77332e-07
8.44486e-08
-2.97187e-07
-3.81342e-07
5.53513e-08
3.16254e-07
1.27929e-07
2.92142e-07
1.90064e-07
2.47495e-07
2.38406e-07
1.82651e-07
2.66543e-07
1.04234e-07
2.73411e-07
1.77752e-08
2.57979e-07
-6.63669e-08
2.24887e-07
-1.38186e-07
1.80096e-07
-1.91275e-07
1.29944e-07
-2.27181e-07
7.5193e-08
-2.42435e-07
-3.06149e-07
4.89633e-08
2.46541e-07
1.15416e-07
2.2569e-07
1.72617e-07
1.90294e-07
2.16489e-07
1.38779e-07
2.43391e-07
7.7332e-08
2.50113e-07
1.10538e-08
2.37466e-07
-5.37204e-08
2.08783e-07
-1.09503e-07
1.68123e-07
-1.50615e-07
1.20723e-07
-1.7978e-07
6.90095e-08
-1.90722e-07
-2.37139e-07
4.38735e-08
1.81368e-07
1.05567e-07
1.63996e-07
1.5944e-07
1.36421e-07
2.00276e-07
9.79427e-08
2.25069e-07
5.25396e-08
2.32659e-07
3.46356e-09
2.21769e-07
-4.283e-08
1.96182e-07
-8.39161e-08
1.58949e-07
-1.13382e-07
1.14065e-07
-1.34896e-07
6.47906e-08
-1.41448e-07
-1.72349e-07
4.06885e-08
1.1842e-07
9.96888e-08
1.04996e-07
1.51277e-07
8.48327e-08
1.90606e-07
5.86146e-08
2.14491e-07
2.8654e-08
2.21983e-07
-4.02817e-09
2.12989e-07
-3.38365e-08
1.89432e-07
-6.03587e-08
1.54448e-07
-7.83984e-08
1.11037e-07
-9.14851e-08
6.28481e-08
-9.32584e-08
-1.095e-07
5.3995e-08
5.44757e-08
1.13485e-07
4.55063e-08
1.64277e-07
3.404e-08
2.02283e-07
2.06087e-08
2.24957e-07
5.98049e-09
2.30635e-07
-9.70633e-09
2.205e-07
-2.37016e-08
1.95507e-07
-3.53654e-08
1.58948e-07
-4.18395e-08
1.13357e-07
-4.58936e-08
6.30993e-08
-4.30011e-08
-4.64011e-08
1.39773e-07
1.8528e-07
2.1932e-07
2.39928e-07
2.45909e-07
2.36202e-07
2.12501e-07
1.77135e-07
1.35296e-07
8.94022e-08
4.64011e-08
)
;

boundaryField
{
    rotor
    {
        type            calculated;
        value           nonuniform 0();
    }
    stator
    {
        type            calculated;
        value           nonuniform List<scalar> 
96
(
2.40741e-35
5.99573e-35
1.20371e-35
5.7176e-35
-1.20371e-35
-1.20371e-35
6.01853e-36
0
0
0
0
0
-5.22024e-54
0
-3.31019e-35
-3.12326e-36
0
0
1.80556e-35
3.61112e-35
-3.00927e-35
0
-6.01853e-35
0
3.63392e-35
2.40741e-35
0
7.09457e-35
0
4.21297e-35
-5.79054e-36
0
6.99654e-35
4.5709e-36
0
1.17333e-34
1.88588e-58
-1.77364e-35
0
0
0
0
6.62038e-35
4.81482e-35
0
4.81482e-35
0
-4.86726e-35
0
9.0278e-36
0
9.0278e-36
0
9.0278e-36
-6.01853e-36
0
0
0
0
0
0
-9.0278e-36
0
-9.0278e-36
0
-9.0278e-36
6.01853e-36
0
0
0
0
0
0
9.0278e-36
0
9.0278e-36
0
0
-6.01853e-36
0
0
0
0
-1.20371e-35
0
-6.01853e-36
0
0
6.01853e-36
0
0
1.20371e-35
1.80556e-35
0
0
0
)
;
    }
    AMI1
    {
        type            cyclicAMI;
        value           nonuniform 0();
    }
    AMI2
    {
        type            cyclicAMI;
        value           nonuniform List<scalar> 
48
(
1.94817e-06
1.27491e-06
1.00158e-06
7.33478e-07
3.25533e-07
-1.68811e-07
-5.0835e-07
-8.60308e-07
-1.17556e-06
-1.41578e-06
-1.58014e-06
-1.68877e-06
-1.75779e-06
-1.77691e-06
-1.69139e-06
-1.37569e-06
-7.72897e-07
1.04728e-07
6.84956e-07
1.20303e-06
1.59229e-06
1.81878e-06
1.97605e-06
2.10257e-06
1.94671e-06
1.27388e-06
1.00098e-06
7.33167e-07
3.25499e-07
-1.68643e-07
-5.07979e-07
-8.59742e-07
-1.17486e-06
-1.41505e-06
-1.57941e-06
-1.68801e-06
-1.75684e-06
-1.77571e-06
-1.6898e-06
-1.37395e-06
-7.71178e-07
1.05694e-07
6.85227e-07
1.20274e-06
1.59157e-06
1.81792e-06
1.97519e-06
2.1016e-06
)
;
    }
    front
    {
        type            empty;
        value           nonuniform 0();
    }
    back
    {
        type            empty;
        value           nonuniform 0();
    }
    procBoundary1to0
    {
        type            processor;
        value           nonuniform List<scalar> 8(4.95634e-07 6.66455e-07 8.81513e-07 8.27718e-07 -4.94112e-07 -6.64476e-07 -8.79611e-07 -8.25813e-07);
    }
}


// ************************************************************************* //
