/*--------------------------------*- C++ -*----------------------------------*\
| =========                 |                                                 |
| \\      /  F ield         | OpenFOAM: The Open Source CFD Toolbox           |
|  \\    /   O peration     | Version:  2.3.1                                 |
|   \\  /    A nd           | Web:      www.OpenFOAM.org                      |
|    \\/     M anipulation  |                                                 |
\*---------------------------------------------------------------------------*/
FoamFile
{
    version     2.0;
    format      ascii;
    class       volScalarField;
    location    "4460";
    object      sigmaEq;
}
// * * * * * * * * * * * * * * * * * * * * * * * * * * * * * * * * * * * * * //

dimensions      [1 -1 -2 0 0 0 0];

internalField   nonuniform List<scalar> 
11800
(
194374
135292
657241
557231
131351
388827
180226
197787
213445
227766
193625
797935
101017
592430
503191
2.17542e+06
139025
140677
255768
156891
442925
720176
941758
844063
1.78368e+06
1.11263e+06
1.171e+06
581259
1.27386e+06
1.37755e+06
384982
127209
1.11719e+06
141148
148226
369394
150669
1.19129e+06
151186
165251
1.21361e+06
1.32044e+06
610599
1.42902e+06
406257
2.03703e+06
903406
1.05378e+06
181921
273708
837845
589951
146437
238875
2.32177e+06
1.89638e+06
72778.8
545202
425658
406449
1.89586e+06
161971
432589
355772
1.7491e+06
263189
861889
611071
72437.5
1.02936e+06
149686
125036
121036
1.80422e+06
1.87764e+06
358147
1.83018e+06
249853
198310
201878
2.3597e+06
138374
131099
133217
136496
1.32823e+06
413884
1.22581e+06
1.1253e+06
606724
145604
1.3303e+06
167875
69117.4
209584
172285
22346.3
172356
148150
702080
82591.5
774459
1.26269e+06
434321
157459
370533
203683
175056
1.85381e+06
1.23733e+06
1.34054e+06
1.13587e+06
419757
615169
251445
1.67365e+06
244686
156318
1.57138e+06
234297
225159
181736
204265
155217
165114
145070
147911
147728
103713
30094.8
2.11924e+06
1.41742e+06
449597
1.33202e+06
647034
1.22719e+06
1.12507e+06
392668
1.14012e+06
560284
1.05046e+06
963236
569577
217633
275434
374599
1.38186e+06
1.41445e+06
807211
418325
229212
221213
147637
292271
268676
206486
534374
737235
1.46285e+06
154175
2.13016e+06
257602
1.86366e+06
538371
584756
631778
320438
240140
2.29069e+06
1.43466e+06
511023
705060
170463
418940
416667
2.03838e+06
2.06045e+06
1.09484e+06
1.00567e+06
1.18634e+06
536116
366208
283115
226876
507694
242292
373018
167461
192147
177567
268572
251088
238670
216119
1.046e+06
1.328e+06
1.87245e+06
133138
248544
2.20606e+06
151310
322383
361062
151995
157322
960794
803184
739246
611948
2.11834e+06
652233
963408
2.88155e+06
2.4243e+06
2.44398e+06
378944
141538
934994
858567
789605
294618
425604
141202
142205
251811
152324
1.39485e+06
282648
154492
527180
236239
193650
150834
743091
758780
2.87937e+06
1.39379e+06
248333
259640
1.30209e+06
1.06695e+06
366398
535711
1.18442e+06
1.09605e+06
1.00663e+06
156914
1.28182e+06
450755
621734
582349
170087
134884
458137
408245
156370
2.44251e+06
318897
367835
262138
302592
791850
861178
930857
423753
296569
149490
1.86352e+06
175597
87126.6
146764
465702
170842
610875
2.16896e+06
437202
433470
657452
475375
547885
398056
1.3495e+06
1.12832e+06
361465
452493
286593
344934
620678
815902
292615
1.31677e+06
1.41229e+06
1.69778e+06
188044
431970
429322
1.97185e+06
1.99016e+06
1.19684e+06
1.17778e+06
1.21976e+06
1.20725e+06
144669
98613.8
325646
2.54194e+06
130978
137621
337865
275925
297849
1.04397e+06
1.07065e+06
1.76521e+06
2.44521e+06
765485
203628
997111
824936
574583
469563
178866
189528
289798
515366
270226
477757
137909
185352
177485
155697
1.40117e+06
178523
137540
2.0372e+06
347892
789580
881142
858056
1.08478e+06
1.04413e+06
110660
109449
709335
929277
640675
1.6584e+06
131385
924598
718381
471985
356052
351143
269260
357343
308307
409520
448427
482814
171405
148221
871052
924018
197684
248937
510529
434238
488098
221106
206792
259304
264617
1.00199e+06
486183
357311
388409
1.215e+06
1.40911e+06
372929
216848
203909
279274
259056
490106
568731
464872
545347
429244
503598
379107
360151
725200
370297
810555
1.3989e+06
706009
516427
2.23956e+06
144533
1.46875e+06
725513
526152
2.17595e+06
155625
1.50213e+06
371375
1.26078e+06
1.16387e+06
1.13332e+06
207800
95091.3
131524
2.58754e+06
2.2389e+06
1.00074e+06
358511
487474
194001
260115
295416
159867
222010
1.71651e+06
69044.8
620507
476146
1.89181e+06
114948
190586
162203
159683
161573
161745
1.89231e+06
637010
253769
741362
683427
628849
127761
1.42986e+06
469151
657986
180379
938230
203043
1.82038e+06
144849
212979
536489
495374
456313
952274
254202
532620
466637
248414
744909
810558
878027
424649
303496
70385.6
185714
206965
2.35189e+06
817149
644327
464367
382014
200205
161130
118280
117654
205258
106607
123802
130804
177055
352980
158156
201878
636427
777729
365607
1.676e+06
220751
397733
164035
196459
1.62706e+06
2.13774e+06
675134
733366
263847
234808
127400
1.42388e+06
2.07988e+06
1.83673e+06
2.65217e+06
871634
608630
796784
131307
199991
182898
204451
792296
153030
151088
133698
195618
1.42309e+06
318666
1.45238e+06
849780
184544
236954
1.16799e+06
1.49337e+06
787271
856233
923073
418562
293059
716882
150663
152277
148531
170837
135180
201889
103322
195733
102954
193535
90496.4
188245
172623
179332
122348
1.62828e+06
248511
271577
605021
958917
131427
161354
140323
137683
122162
316271
460798
135325
134637
626509
128926
192468
1.76941e+06
85950.8
174119
560764
516401
540360
585446
600514
632727
296775
220985
2.05376e+06
2.5303e+06
532045
90670.3
377667
360196
405349
286943
864025
799066
734780
183391
89712.9
837775
780804
347438
386595
192377
669364
726450
248996
1.18082e+06
1.19735e+06
1.21122e+06
1.19925e+06
2.02315e+06
1.97966e+06
625204
2.41224e+06
880259
146323
1.68163e+06
1.49323e+06
1.62407e+06
830197
335649
362831
197626
1.72556e+06
572225
721575
2.55373e+06
226689
282057
560653
548212
1.43418e+06
747526
2.13701e+06
144401
142132
291968
419991
931304
856361
787484
1.94667e+06
161171
428426
919562
1.38475e+06
141407
2.2843e+06
2.13634e+06
2.21767e+06
257717
349266
132827
2.26755e+06
656042
262619
449331
2.13384e+06
156285
265225
281246
150659
519018
321381
2.58798e+06
2.27674e+06
218330
644275
824041
316607
375058
277972
243941
685726
202973
644829
475567
1.21846e+06
1.06239e+06
182619
1.38786e+06
148863
439000
540874
1.84704e+06
352352
477322
266152
217183
202047
236830
451997
1.057e+06
1.16426e+06
151740
145359
147520
195336
375920
1.40703e+06
122132
487357
882424
687809
244490
1.17061e+06
1.29556e+06
841351
1.40916e+06
1.52613e+06
632773
413676
172192
207348
392471
418012
365156
404025
206261
373369
434966
253835
150127
2.63773e+06
1.135e+06
426999
578781
528947
256566
460167
674006
1.44809e+06
1.33544e+06
1.22481e+06
375558
444060
213080
231761
1.64709e+06
1.2067e+06
1.40404e+06
162034
216344
310417
737674
1.62675e+06
521216
102600
163216
2.3899e+06
2.24573e+06
270231
2.05622e+06
119233
173626
126970
786722
137562
240187
266349
1.46862e+06
1.59756e+06
1.72887e+06
1.86373e+06
845991
718727
596982
469821
207444
143448
461822
2.28173e+06
151983
148029
165620
156479
165140
171746
177264
1.76604e+06
891060
914931
538658
997368
1.08274e+06
379467
1.26405e+06
302453
249190
159489
2.36363e+06
150523
182506
175953
184003
150590
2.15015e+06
304449
300640
1.15409e+06
381941
803828
285880
2.18864e+06
966091
483793
359580
1.48254e+06
535689
203537
169929
152064
145183
255947
281412
269810
196322
529716
165264
146833
948175
1.05866e+06
126076
670761
966307
818727
1.11217e+06
2.07421e+06
1.92023e+06
1.76707e+06
1.61326e+06
670822
818381
2.07615e+06
1.9221e+06
966106
1.76892e+06
1.11234e+06
1.61555e+06
1.85116e+06
167445
143813
156978
269918
585746
1.28036e+06
149412
488470
669515
528362
727949
212216
275051
486114
711987
1.51933e+06
1.40095e+06
1.28448e+06
609620
451342
1.1384e+06
229829
292199
181565
376299
349965
318542
654643
510942
525209
389800
140821
781563
214172
400951
492332
1.2188e+06
663237
775709
624955
227971
296834
204407
179682
169337
196208
690123
582143
153920
236511
260207
536331
1.5939e+06
522418
734394
549676
171722
247745
232986
215138
293056
209462
707213
652131
595602
231169
1.70499e+06
806891
235277
1.04897e+06
707918
1.52646e+06
2.06674e+06
255580
285242
240662
160566
172874
856398
729173
2.15433e+06
142870
201982
398769
591735
255558
150397
864788
855901
63698.4
148699
414005
336957
95610.9
1.8893e+06
2.06697e+06
343057
129854
307900
436361
932599
790323
860020
2.35839e+06
145400
677350
763095
180803
696647
851142
1.00599e+06
1.15774e+06
2.17196e+06
2.01178e+06
1.85168e+06
1.69142e+06
696222
850600
2.17278e+06
2.01189e+06
1.00458e+06
1.85195e+06
1.15723e+06
1.69195e+06
2.01454e+06
1.73328e+06
1.30676e+06
556420
634734
1.73381e+06
1.28805e+06
382746
128652
123277
1.28722e+06
2.2912e+06
172855
476953
1.8837e+06
1.2874e+06
2.06712e+06
2.1103e+06
1.37027e+06
1.37302e+06
628541
498272
651244
270976
202338
345291
173100
211254
258555
217079
475686
2.21936e+06
650208
218650
131419
416467
446710
2.01883e+06
421919
381553
484644
514462
1.31246e+06
623232
449415
1.68101e+06
480277
625148
224656
183974
431805
373765
402964
998298
650112
631360
1.52881e+06
1.46215e+06
623958
659256
1.15111e+06
1.23639e+06
463801
486891
148567
205596
215260
634217
493835
84940.9
180918
207954
736603
700514
380413
741246
573113
226200
138416
138390
579692
1.39877e+06
136715
2.06607e+06
299191
841285
773409
237980
298007
500508
162306
137834
1.76808e+06
447989
1.1523e+06
1.06448e+06
978104
357364
521127
182652
1.59781e+06
2.1155e+06
192625
158361
1.16343e+06
426256
582515
1.00638e+06
1.095e+06
1.19787e+06
360637
524878
67375.2
846974
442599
2.10904e+06
351700
1.21373e+06
1.00965e+06
1.13307e+06
151343
156041
159926
168724
171179
149495
1.7494e+06
544569
203043
236029
261693
294310
368046
408049
836136
808987
772779
745446
686248
710192
1.21159e+06
183378
150975
145989
201251
227573
161714
184310
1.44294e+06
298206
541446
462797
1.19096e+06
627671
220119
229571
516327
399786
713072
583032
1.43066e+06
1.25596e+06
1.15922e+06
1.06379e+06
591101
1.64789e+06
816950
1.63648e+06
289972
241255
312526
303142
211158
190984
209348
1.66521e+06
2.15733e+06
387745
125677
288028
649934
504949
141145
167151
279683
265194
277281
256751
340638
320210
240208
550440
610792
594643
659735
505381
561535
616534
141486
1.35874e+06
1.07881e+06
569859
1.35934e+06
1.2768e+06
746418
2.15769e+06
409315
389046
440729
471705
217718
177949
191318
409853
158219
1.81113e+06
233782
152630
906771
64733.6
126371
1.7946e+06
205784
467070
1.48766e+06
686086
1.37256e+06
1.25914e+06
1.61808e+06
1.07494e+06
176307
689376
551285
228106
1.53694e+06
704735
228590
1.28878e+06
1.17529e+06
1.4013e+06
146891
149690
178059
2.6079e+06
312394
490855
600030
271138
152922
152123
470714
508652
197786
1.79547e+06
478155
1.82527e+06
278450
897205
150659
725680
867795
1.14757e+06
461529
621956
744872
299857
2.56566e+06
182875
128832
156531
2.18829e+06
1.43396e+06
362049
533670
1.20795e+06
1.11948e+06
1.02868e+06
2.25255e+06
691778
560106
2.24692e+06
2.53883e+06
1.75245e+06
87183.5
602330
1.49402e+06
1.12405e+06
613017
455894
1.13219e+06
1.00999e+06
464830
1.53089e+06
369668
301521
576047
507974
385727
1.76837e+06
2.68886e+06
136239
149051
176229
2.56597e+06
176453
206610
797960
614011
2.27087e+06
2.37877e+06
146704
676132
233609
222532
559691
240842
145139
604254
139684
157726
2.70418e+06
1.18191e+06
657123
490158
441356
315411
897705
828998
761081
229661
2.40714e+06
472720
428232
490074
2.01557e+06
823255
1.21113e+06
166323
259690
196261
903254
557483
742706
136111
317646
433401
915770
323503
204478
174571
345763
2.24498e+06
326959
442036
907922
1.45009e+06
2.04932e+06
1.38799e+06
949520
752432
890427
91144
260078
363066
776391
716965
660253
2.04927e+06
161324
210230
225423
224965
225790
218687
325604
148668
150729
737100
1.85889e+06
529146
1.17046e+06
1.08061e+06
992978
363035
2.09967e+06
675333
770088
922119
795097
1.2885e+06
2.05509e+06
616974
161009
791900
126937
971998
583877
1.05999e+06
1.15114e+06
413598
1.33571e+06
329508
2.7759e+06
952315
152409
1.91716e+06
2.78395e+06
2.39682e+06
566979
145772
1.07609e+06
182758
172169
124638
300224
163025
168177
144267
152361
1.73978e+06
1.82631e+06
151716
1.19502e+06
192697
183344
149024
251038
1.25828e+06
1.26384e+06
286602
1.28074e+06
1.28329e+06
1.64142e+06
539753
202069
254266
347049
695327
754371
255053
67589.1
174358
818119
391939
958902
1.07937e+06
1.17884e+06
1.28065e+06
658775
464240
340375
190207
163939
2.07934e+06
1.14869e+06
138264
238638
1.02754e+06
798409
434973
471075
213795
191709
353767
313334
123868
241401
164402
1.74557e+06
684714
1.66277e+06
156308
143401
2.78455e+06
144041
2.16134e+06
2.13447e+06
153022
996469
503228
1.7098e+06
166863
944929
1.07257e+06
2.33493e+06
261976
164398
138139
529278
250760
343062
694905
636937
585981
171037
135344
196157
186675
1.22909e+06
1.35403e+06
924112
1.57931e+06
1.45182e+06
1.67637e+06
2.38364e+06
299340
760390
2.27019e+06
665803
2.1292e+06
1.02103e+06
1.11106e+06
1.20387e+06
533237
361509
446946
523117
1.96811e+06
177558
209429
310134
293839
274276
198546
409123
377962
353654
865747
900447
2.63192e+06
291394
134551
185809
2.0774e+06
595137
323325
312248
2.02703e+06
1.06331e+06
733940
115774
217566
138530
1.04847e+06
1.33671e+06
336608
1.5035e+06
205035
198849
2.70835e+06
1.77414e+06
2.17119e+06
424688
564569
986427
307132
779099
2.26337e+06
2.38726e+06
201712
232042
390911
318664
1.13388e+06
1.26674e+06
867478
977203
2.51644e+06
2.31552e+06
297521
196895
115009
1.65533e+06
134304
2.18417e+06
432271
330617
1.17386e+06
375590
153361
2.02463e+06
230179
301279
113892
136303
1.50587e+06
522933
155992
821122
391008
215389
159533
139036
762553
140780
2.07084e+06
1.85873e+06
341867
929493
526730
154854
172587
1.59747e+06
193413
1.0772e+06
276758
595065
1.25354e+06
1.4305e+06
1.97859e+06
213099
337117
2.15431e+06
270504
169298
159208
185695
140877
2.20457e+06
1.72447e+06
398450
549266
948930
952544
1.24234e+06
438242
602589
433800
630452
1.34489e+06
1.24104e+06
1.13856e+06
1.77777e+06
839180
598767
1.70778e+06
602413
1.85788e+06
696481
776369
2.05393e+06
2.77907e+06
2.38286e+06
470455
451217
1.28578e+06
614610
445322
147116
385019
1.972e+06
165462
193895
2.52125e+06
1.88443e+06
2.16636e+06
1.00987e+06
1.25258e+06
1.26272e+06
1.0904e+06
135842
128125
192109
130778
779281
847448
920083
430139
301467
661062
2.19696e+06
165849
221057
186003
172901
1.14156e+06
1.03169e+06
205839
1.95592e+06
2.21055e+06
1.31766e+06
1.07661e+06
1.77977e+06
2.05029e+06
129210
982290
623648
1.36762e+06
181879
292291
312742
1.75655e+06
1.74967e+06
805287
407170
123387
148851
256131
538218
1.83521e+06
244456
1.41161e+06
168147
410574
277469
370058
633674
325741
498288
48444.3
13993.4
497864
2.60235e+06
227412
186522
186924
145652
133773
199546
205831
148711
149320
585422
147404
160993
199525
1.09897e+06
1.35485e+06
975613
1.8202e+06
2.31799e+06
159577
222390
426532
184844
1.66291e+06
231711
2.43209e+06
261883
341310
659154
489614
258452
267980
622016
140807
165987
211528
134071
203865
131800
2.16407e+06
117465
172732
315695
132091
99985.1
2.06442e+06
231251
1.78725e+06
1.90391e+06
689773
443734
361753
526856
1.18395e+06
1.10454e+06
1.01504e+06
143507
1.30426e+06
674430
139594
2.20734e+06
148345
155781
412729
1.2136e+06
978509
1.08512e+06
1.4849e+06
213632
161131
462515
685608
1.49703e+06
797181
1.61654e+06
573408
1.38114e+06
1.26721e+06
456635
1.60279e+06
567649
1.47853e+06
674285
1.36453e+06
1.25191e+06
786987
1.60531e+06
202628
672626
525407
165921
210599
1.80253e+06
1.13362e+06
1.53541e+06
1.42847e+06
1.24636e+06
1.54266e+06
1.13892e+06
432963
474507
701654
1.69349e+06
161114
2.48822e+06
198835
161207
1.87639e+06
223456
354371
694133
686806
2.0481e+06
121349
1.30464e+06
1.20525e+06
1.10637e+06
402023
591689
2.51461e+06
424959
324738
752464
194030
787909
364082
380278
135435
221081
229852
200183
601997
132519
738876
395911
300545
1.01054e+06
1.34672e+06
1.35215e+06
1.01014e+06
492629
2.37664e+06
146907
148089
2.12245e+06
1.91586e+06
1.1648e+06
2.77207e+06
1.25521e+06
1.0829e+06
1.11141e+06
2.46287e+06
1.24075e+06
993504
2.18827e+06
469505
496219
741201
1.92916e+06
118681
1.63979e+06
196349
286863
450878
756769
824212
893650
438946
312602
497771
81964.5
87987
161708
173035
237247
196918
156434
211585
1.23207e+06
2.24179e+06
269755
198239
2.06449e+06
1.50876e+06
595981
809426
162089
169811
1.79841e+06
1.18836e+06
252279
949833
890878
1.18735e+06
143340
161950
166104
143414
1.41003e+06
2.27578e+06
2.2206e+06
1.50902e+06
2.40365e+06
306225
132882
397697
1.2115e+06
1.1122e+06
1.3128e+06
597557
405143
2.54557e+06
560932
708641
926814
300250
254311
1.06015e+06
374368
193487
805513
307911
400064
2.35494e+06
408187
360846
1.26679e+06
1.1703e+06
1.07593e+06
541058
1.60912e+06
1.5162e+06
1.99054e+06
620552
641131
824670
1.69888e+06
811379
581355
1.51041e+06
291819
2.78318e+06
183729
2.12367e+06
568521
649687
154139
692045
1.32893e+06
158882
186659
183113
2.45604e+06
728774
668825
787954
390113
281199
354252
709816
1.6049e+06
716838
1.39607e+06
1.64477e+06
1.52031e+06
477402
1.54596e+06
1.17612e+06
1.24481e+06
1.47385e+06
1.54926e+06
1.17739e+06
1.25542e+06
1.48248e+06
855476
712245
54662.3
341025
208848
489479
723259
600893
838785
1.68412e+06
1.56163e+06
1.44044e+06
1.32132e+06
484961
1.34388e+06
667671
181431
125522
130886
225803
120141
575635
1.36882e+06
1.39778e+06
495718
2.30185e+06
186791
168398
1.79096e+06
2.22011e+06
105916
1.42076e+06
561303
761164
1.06365e+06
584566
379501
165955
563008
795382
72251.1
151285
2.32896e+06
308752
230678
564862
520246
611633
391331
148357
154843
397991
1.39629e+06
2.15862e+06
2.49917e+06
387177
430520
1.81024e+06
1.63185e+06
2.12222e+06
126287
1.17738e+06
2.06789e+06
2.51467e+06
2.59329e+06
2.53891e+06
667533
1.15851e+06
499443
2.39763e+06
1.81815e+06
745087
1.56274e+06
172275
151955
1.86056e+06
1.86229e+06
153478
500603
2.30596e+06
1.93983e+06
1.84575e+06
1.91033e+06
2.60407e+06
1.76892e+06
2.30633e+06
1.98965e+06
172831
315016
1.46892e+06
691175
1.2013e+06
252645
166408
210459
194136
175486
234662
209349
500888
2.31345e+06
1.4062e+06
495540
685766
1.50339e+06
194663
696830
484823
2.66257e+06
375003
364136
666203
382915
618624
274614
212925
2.16746e+06
17802
173771
173581
35759.1
543696
576328
206610
226603
240931
166855
610271
605429
146008
2.32033e+06
1.97851e+06
717949
1.50105e+06
515574
139495
1.75126e+06
387165
2.30395e+06
641359
784331
928728
1.07095e+06
2.0262e+06
1.87814e+06
1.72902e+06
1.58206e+06
640395
783106
2.02476e+06
1.87596e+06
926437
1.72719e+06
1.0689e+06
1.57995e+06
354719
270864
657279
716653
633560
299150
243701
207094
165556
154401
177454
148265
156864
265985
1.07826e+06
1.1575e+06
1.0455e+06
585269
1.13863e+06
1.25477e+06
1.93297e+06
821578
662611
2.04786e+06
683540
234639
146012
200956
163424
323671
298356
302526
157250
434317
343093
448618
922193
156478
238714
1.08314e+06
171262
123225
154546
133143
1.62999e+06
189511
220998
771276
615256
295787
768955
242016
146058
132939
2.42828e+06
2.50771e+06
1.53278e+06
1.25595e+06
1.22525e+06
1.55943e+06
2.46235e+06
1.27581e+06
143443
823483
460188
351086
506909
241638
2.32546e+06
255293
1.38192e+06
1.27819e+06
1.17377e+06
617924
418103
723188
424112
322478
2.34929e+06
270807
143655
770476
769831
352786
219352
268857
455195
930475
1.76636e+06
744830
595397
1.08665e+06
1.44041e+06
394034
576037
1.24738e+06
1.15051e+06
1.05591e+06
595674
641106
1.03241e+06
856911
1.2038e+06
638399
1.32203e+06
1.43743e+06
415834
1.55629e+06
2.77425e+06
1.9537e+06
126621
949071
1.03518e+06
1.1246e+06
343066
231220
1.68567e+06
293260
385462
475688
523796
223684
285034
228252
180193
1.62045e+06
1.24644e+06
1.30718e+06
1.56587e+06
359166
1.95433e+06
2.42277e+06
895274
156881
931598
1.01533e+06
1.10336e+06
1.03157e+06
1.19427e+06
335359
1.91305e+06
837424
781940
717295
846978
305164
425720
244652
226441
531870
625637
577149
663437
723123
783793
480046
476481
686686
689639
1.39518e+06
1.38844e+06
1.17796e+06
1.28521e+06
1.17174e+06
1.27878e+06
694941
755192
267652
165805
189809
227729
1.37784e+06
892361
152183
1.41935e+06
1.17798e+06
1.1298e+06
1.46214e+06
229549
507211
1.82405e+06
771700
1.68505e+06
1.54829e+06
122614
302028
1.25501e+06
747024
527190
1.66695e+06
580464
77694.5
1.28129e+06
1.17675e+06
1.38877e+06
622559
420230
1.70151e+06
663027
536214
2.26861e+06
665396
942508
224540
160700
381500
356814
327024
1.93477e+06
481831
319427
549656
506306
592688
298381
225941
1.27659e+06
1.43097e+06
228801
822081
172617
1.09707e+06
2.20133e+06
1.37879e+06
683719
510840
1.21723e+06
623943
555177
458529
299802
185421
459469
226332
562888
225473
380028
158404
179738
2.30092e+06
468273
1.97668e+06
1.14028e+06
1.22522e+06
662378
493695
1.17423e+06
2.09664e+06
134054
162785
165515
157343
415293
40221.9
13300.5
414935
875910
160416
930746
415053
282762
192636
621758
869366
1.81189e+06
143319
111761
190686
223695
482226
311688
1.2301e+06
1.09788e+06
262351
170232
133912
2.33619e+06
875712
145626
338924
166166
2.6626e+06
2.18047e+06
337687
255328
962280
462588
658207
1.2951e+06
1.09221e+06
1.19232e+06
2.52296e+06
2.00966e+06
161833
1.87742e+06
2.52267e+06
1.9788e+06
2.20357e+06
946546
191939
1.26772e+06
314602
193700
239904
470355
515364
376400
376245
851138
277352
186977
139534
1.23586e+06
1.52581e+06
1.65937e+06
1.79535e+06
1.91835e+06
863261
735291
606308
476090
300467
134574
588542
27240.1
287679
287416
14781.8
639044
320158
251913
96501.5
403149
456245
149677
405188
1.21449e+06
968786
667900
471577
538534
2.3192e+06
1.77019e+06
237354
760359
149593
161840
656937
773812
792368
1.56823e+06
462724
503995
156033
2.09566e+06
167524
368681
428763
399940
1.5337e+06
1.66764e+06
866944
914990
914236
656912
841895
1.56705e+06
1.49213e+06
1.49262e+06
517285
718058
128265
139425
132360
319935
149540
687389
1.46009e+06
1.29583e+06
1.5877e+06
1.15993e+06
1.59776e+06
1.15869e+06
787265
517343
1.40011e+06
1.02537e+06
1.40075e+06
1.02889e+06
334340
1.53504e+06
1.29682e+06
1.13675e+06
1.48054e+06
1.31033e+06
1.61578e+06
1.17527e+06
1.61445e+06
1.17466e+06
1.45276e+06
2.66852e+06
589907
828335
1.74646e+06
637902
157599
165714
267343
26476
267088
23397
151812
497874
1.54747e+06
1.42075e+06
1.67643e+06
745016
515639
2.37173e+06
77727.8
144539
294293
1.01567e+06
340980
939772
463400
2.40681e+06
2.42803e+06
1.44777e+06
173346
313160
1.65044e+06
883150
707692
473345
875090
803211
947684
330001
463964
2.4656e+06
579524
2.19721e+06
154922
150623
143234
153076
101690
2.17148e+06
175930
1.60314e+06
98872.6
1.17324e+06
1.48053e+06
177979
152541
225975
670949
236299
569088
523932
383949
415544
448920
189061
415933
561150
695354
466302
1.57296e+06
1.45414e+06
1.3351e+06
1.6265e+06
2.17251e+06
2.39631e+06
140683
137288
137839
151584
320279
187814
347804
2.40984e+06
2.45691e+06
2.47644e+06
1.87892e+06
74301.3
1.29025e+06
2.25416e+06
1.55342e+06
1.22679e+06
1.25111e+06
1.53258e+06
745794
656174
1.33943e+06
887980
1.57168e+06
113256
283457
365613
702297
289790
286056
325236
218115
250615
183723
213395
493729
495528
537195
536279
580298
579099
679564
668830
157381
154351
643925
412983
119482
240856
929415
1.57344e+06
157848
952063
2.05658e+06
638566
1.95887e+06
901869
246803
1.81055e+06
972623
817722
1.29627e+06
2.1932e+06
2.59828e+06
1.01848e+06
440021
2.1853e+06
315224
229540
195830
482094
104498
918428
1.61122e+06
421387
634434
255886
149043
274522
2.35236e+06
426373
498916
481879
354048
1.01087e+06
317877
250824
997950
220782
2.14926e+06
166899
1.27234e+06
474316
515556
1.99648e+06
1.70637e+06
1.03409e+06
1.85911e+06
2.01387e+06
885805
2.16959e+06
738271
589396
1.70788e+06
1.86041e+06
2.17381e+06
2.01567e+06
591375
888558
1.03755e+06
740500
2.1725e+06
215180
1.70556e+06
185568
124312
161996
9797.11
74580.1
936718
100286
1.63984e+06
341925
253294
643694
695015
592677
488271
323153
1.43911e+06
321754
346400
1.29527e+06
106197
509918
473082
469400
1.48684e+06
1.36548e+06
1.61023e+06
707521
592695
251987
432755
855035
1.63868e+06
77767.2
421784
248759
158989
540916
1.72705e+06
982112
840855
1.82406e+06
203101
1.00373e+06
2.1353e+06
1.08263e+06
2.00246e+06
177174
2.25983e+06
267727
1.50785e+06
543346
670574
154172
17226.8
172624
172397
29437.9
288364
1.53128e+06
219431
1.89357e+06
854525
311799
1.47425e+06
1.41558e+06
1.60841e+06
1.54469e+06
1.74442e+06
1.67574e+06
814593
787673
554427
537029
616538
415167
1.38963e+06
1.28562e+06
1.18045e+06
371129
432707
400412
196679
1.30937e+06
1.14482e+06
99980.9
221632
164337
186266
197605
2.1791e+06
1.83201e+06
481795
1.58489e+06
1.45659e+06
1.71388e+06
134487
800465
1.47755e+06
1.54492e+06
152626
142786
1.76229e+06
557027
188730
327278
380664
353592
202812
610894
565022
522903
2.0518e+06
2.66363e+06
1.96807e+06
1.40665e+06
690535
497690
209105
227913
344312
246947
152637
134817
259570
752685
601721
152811
1.60842e+06
1.86716e+06
784922
678061
196600
188081
166348
178357
521954
1.76116e+06
1.3898e+06
1.07316e+06
1.10471e+06
1.31741e+06
146276
166711
247866
148339
152524
342590
2.75188e+06
2.18554e+06
168696
209241
943408
813730
564561
1.7522e+06
1.88705e+06
1.48137e+06
1.61562e+06
944643
495177
425221
460334
211515
267326
2.01955e+06
545026
1.29016e+06
92878.3
1.86785e+06
170467
744960
865689
2.75041e+06
149455
768574
179602
719415
192210
453081
1.37632e+06
633949
1.59068e+06
1.03414e+06
1.7367e+06
1.88444e+06
893442
2.03355e+06
751226
610236
751817
610766
290207
892803
1.00839e+06
1.31997e+06
157346
255908
1.6102e+06
695709
2.5279e+06
2.0506e+06
2.29853e+06
413128
1.80554e+06
843044
658705
322868
246083
2.47601e+06
1.27808e+06
149675
2.68149e+06
2.27133e+06
77687.4
792773
647647
98865.9
1.03061e+06
836996
119768
212163
1.72522e+06
2.57685e+06
153923
918153
942031
1.87825e+06
1.81936e+06
665691
682200
665895
681435
160675
161427
160659
151107
122666
2.64537e+06
2.0686e+06
1.86059e+06
2.34801e+06
889992
477824
1.92891e+06
1.086e+06
1.18557e+06
1.28791e+06
82231.3
1.96669e+06
344678
1.47705e+06
2.10223e+06
625423
440899
2.68045e+06
725003
761139
531993
560944
1.42891e+06
1.38058e+06
235962
231420
128472
151878
464733
1.69084e+06
1.56191e+06
1.43546e+06
709060
2.64315e+06
158157
322193
142767
1.41844e+06
1.5471e+06
906742
1.67737e+06
774583
1.82447e+06
654736
1.73273e+06
1.46498e+06
1.59776e+06
1.86698e+06
524765
931683
803227
655505
148671
210507
225349
294031
552367
468484
508371
2.19311e+06
1.02626e+06
1.25203e+06
2.01837e+06
235529
364253
152090
570913
799249
274578
383976
2.03677e+06
218016
145744
147749
150748
146511
92834.8
234713
182438
197050
1.76126e+06
2.07852e+06
180416
156840
201049
347795
760434
2.24149e+06
2.08935e+06
925348
154819
227876
1.79058e+06
158082
158658
2.72065e+06
1.05781e+06
2.05949e+06
584292
1.39766e+06
890061
866761
238147
971563
1.48293e+06
717878
515844
201792
461956
154274
121203
139111
2.20622e+06
1.31708e+06
1.34355e+06
2.19203e+06
342138
366936
189130
694436
168462
151184
161345
440336
343527
34992.3
343247
23958.3
149823
1.36765e+06
414767
602403
1.27477e+06
1.17594e+06
1.07862e+06
214705
2.51243e+06
823414
481207
2.16836e+06
1.3006e+06
1.35123e+06
220637
21682.7
220398
22805.5
1.91314e+06
466887
804080
950930
877419
175755
2.04061e+06
484561
346548
1.11527e+06
857102
145031
46661.6
1.50247e+06
313003
1.49831e+06
385297
513253
942376
1.05572e+06
886765
189961
771085
316676
409505
194162
208507
731784
763085
253219
464018
159361
160570
1.22601e+06
615870
451180
168671
646527
16743.7
62673.2
645987
818593
661375
980084
1.16336e+06
131954
2.49835e+06
2.59967e+06
329183
153575
171452
271876
298770
30904.7
298533
26631.5
1.32135e+06
452986
629448
2.42238e+06
2.45893e+06
2.09706e+06
1.89319e+06
1.14293e+06
1.01303e+06
969668
860113
2.05083e+06
297612
589695
210563
135707
151015
426415
598937
858100
2.39048e+06
2.41191e+06
303257
157678
794802
863539
288843
1.3113e+06
539525
441056
1.90113e+06
187193
170360
230639
1.28745e+06
1.29609e+06
1.36854e+06
868089
433819
607271
99615.7
102131
1.47638e+06
152407
1.31311e+06
169458
648456
1.0545e+06
924140
1.5325e+06
1.79266e+06
155809
207977
487687
2.12993e+06
10198.2
126170
37426.3
126815
343047
314869
99702.7
2.29277e+06
40865.1
2.17108e+06
565226
54781.2
17663.3
564754
373623
183677
21153.6
183606
475425
2.06673e+06
478905
2.25916e+06
2.60668e+06
75336.5
755455
892485
823802
1.06433e+06
512202
372321
1.14077e+06
714017
124610
280356
448082
319752
799970
1.05621e+06
293952
295202
2.50466e+06
911791
1.05853e+06
985529
1.13773e+06
1.58634e+06
140907
158344
1.32753e+06
1.61237e+06
537998
309209
356275
181434
364263
541240
160589
284054
412921
158435
110983
1.45128e+06
1.69476e+06
330215
734656
572642
584548
1.80696e+06
826451
357160
274109
695068
570281
140922
418748
1.61301e+06
2.06936e+06
557956
387675
984264
1.1631e+06
1.07295e+06
93958.7
152832
404167
285808
1.53565e+06
557081
120594
59088.3
93089.5
543702
380031
952543
1.12547e+06
1.03841e+06
156385
2.23135e+06
2.54976e+06
172323
175744
167184
163062
2.23654e+06
448634
330088
955061
2.76236e+06
2.2177e+06
636153
218852
585435
540524
328950
307464
349982
193675
167921
168991
478634
2.17036e+06
123616
1.21783e+06
1.31909e+06
2.07084e+06
1.49457e+06
1.45865e+06
559387
551592
754476
766365
345787
392485
336934
152089
148152
888371
286337
2.02106e+06
1.4033e+06
356785
147387
859824
2.58e+06
145552
1.39477e+06
1.16044e+06
1.10363e+06
1.44059e+06
981184
423222
591638
1.30493e+06
226112
952235
413128
462756
235354
474761
293054
381765
1.04733e+06
520328
218344
189038
253370
1.34953e+06
1.10802e+06
237758
226935
212415
244812
153343
710931
547239
135190
517958
156457
295507
479593
2.36076e+06
2.07846e+06
1.41092e+06
415491
292619
929241
861750
792884
372993
371695
179411
1.27748e+06
172983
730945
950219
274558
234040
2.10395e+06
118468
422450
394001
187062
2.22286e+06
115796
149091
633010
746006
222256
210970
233454
167838
157966
1.41051e+06
123297
173648
21594.6
173525
1.4094e+06
1.34546e+06
2.54788e+06
1.51388e+06
1.91157e+06
155316
1.97289e+06
1.35341e+06
19534
141785
336851
253185
575079
624625
673508
879756
496059
2.066e+06
1.21952e+06
1.32217e+06
208522
137145
133822
155063
167640
177395
279073
1.18027e+06
141843
2.56181e+06
626327
254746
1.33049e+06
876131
444075
619948
283562
246197
350937
526658
340771
701598
635459
252268
157709
914376
1.25711e+06
107558
117226