/*--------------------------------*- C++ -*----------------------------------*\
| =========                 |                                                 |
| \\      /  F ield         | OpenFOAM: The Open Source CFD Toolbox           |
|  \\    /   O peration     | Version:  2.3.1                                 |
|   \\  /    A nd           | Web:      www.OpenFOAM.org                      |
|    \\/     M anipulation  |                                                 |
\*---------------------------------------------------------------------------*/
FoamFile
{
    version     2.0;
    format      ascii;
    class       volScalarField;
    location    "0.66";
    object      nut;
}
// * * * * * * * * * * * * * * * * * * * * * * * * * * * * * * * * * * * * * //

dimensions      [0 2 -1 0 0 0 0];

internalField   nonuniform List<scalar> 
1000
(
0.000548959
0.000555414
0.000555564
0.000555557
0.000555553
0.000555552
0.00055555
0.00055555
0.000555534
0.000555012
0.000555611
0.000556859
0.000556945
0.000556946
0.000556945
0.000556944
0.000556942
0.000556937
0.000556846
0.000555242
0.000556046
0.000557272
0.000557374
0.000557378
0.000557379
0.000557377
0.000557373
0.000557366
0.00055726
0.000555511
0.000556375
0.000557712
0.000557831
0.000557842
0.000557844
0.000557843
0.000557837
0.000557826
0.00055771
0.000555866
0.000556786
0.000558311
0.00055845
0.000558471
0.000558478
0.000558476
0.000558471
0.000558452
0.000558324
0.0005563
0.00055545
0.000556577
0.000556683
0.000556699
0.000556704
0.000556707
0.000556707
0.000556706
0.000556628
0.00055524
0.000556726
0.00107258
0.00111642
0.0011184
0.00111857
0.00111864
0.00111867
0.00111754
0.00107722
0.000556448
0.000557058
0.00112283
0.00117335
0.00117545
0.00117553
0.00117553
0.00117551
0.00117409
0.00112711
0.000556775
0.000557376
0.00112573
0.00117662
0.00117872
0.00117879
0.00117879
0.00117876
0.0011773
0.00112973
0.000557097
0.000557777
0.00112657
0.00117796
0.00118012
0.00118021
0.00118021
0.00118016
0.00117863
0.00113046
0.000557506
0.000555861
0.000556851
0.000556953
0.000556968
0.000556975
0.000556978
0.00055698
0.000556978
0.000556893
0.000555432
0.000556949
0.00111692
0.0011667
0.00116885
0.00116898
0.00116904
0.00116906
0.00116771
0.00112155
0.000556694
0.000557241
0.00117223
0.00123045
0.00123292
0.001233
0.001233
0.00123297
0.00123128
0.00117714
0.000556992
0.000557523
0.00117501
0.00123372
0.0012362
0.00123628
0.00123628
0.00123624
0.00123451
0.00117978
0.000557272
0.000557884
0.00117516
0.00123418
0.0012367
0.00123678
0.00123678
0.00123673
0.00123497
0.00117984
0.000557635
0.000556024
0.000557001
0.000557097
0.000557109
0.000557115
0.000557118
0.000557119
0.000557117
0.000557032
0.000555566
0.000557076
0.00112119
0.00117114
0.00117323
0.00117333
0.00117336
0.00117337
0.00117198
0.00112532
0.000556818
0.000557333
0.00117469
0.00123308
0.00123554
0.00123562
0.00123563
0.0012356
0.00123389
0.00117944
0.000557087
0.000557582
0.00117719
0.00123604
0.00123853
0.00123861
0.0012386
0.00123857
0.00123684
0.00118189
0.000557332
0.000557902
0.00117726
0.00123626
0.00123876
0.00123884
0.00123884
0.0012388
0.00123705
0.0011819
0.00055765
0.000556111
0.000557082
0.000557174
0.000557184
0.000557188
0.000557191
0.000557192
0.000557189
0.000557104
0.000555635
0.000557149
0.00112377
0.00117383
0.00117589
0.00117598
0.001176
0.00117599
0.00117458
0.00112764
0.000556883
0.000557386
0.00117517
0.00123346
0.00123591
0.00123598
0.00123599
0.00123596
0.00123425
0.0011798
0.000557135
0.000557616
0.00117743
0.00123611
0.00123858
0.00123866
0.00123866
0.00123863
0.0012369
0.00118206
0.000557362
0.000557911
0.00117755
0.00123625
0.00123872
0.0012388
0.0012388
0.00123876
0.00123703
0.00118213
0.000557655
0.000556126
0.000557121
0.000557213
0.000557222
0.000557226
0.000557228
0.000557229
0.000557225
0.000557138
0.000555641
0.000557167
0.00112537
0.0011755
0.00117753
0.0011776
0.0011776
0.00117757
0.00117614
0.00112903
0.000556895
0.000557406
0.00117545
0.00123365
0.00123609
0.00123617
0.00123617
0.00123613
0.00123442
0.00117997
0.000557151
0.00055764
0.00117758
0.00123612
0.00123858
0.00123866
0.00123866
0.00123863
0.0012369
0.00118212
0.000557384
0.000557939
0.00117773
0.00123623
0.00123869
0.00123876
0.00123876
0.00123873
0.001237
0.00118223
0.000557679
0.000556074
0.000557129
0.000557225
0.000557233
0.000557236
0.000557238
0.000557238
0.000557234
0.000557142
0.000555582
0.000557134
0.00112561
0.00117571
0.00117774
0.0011778
0.00117781
0.00117778
0.00117634
0.00112921
0.000556856
0.000557398
0.00117548
0.00123361
0.00123605
0.00123613
0.00123613
0.0012361
0.00123438
0.00117996
0.000557139
0.000557665
0.00117757
0.00123604
0.0012385
0.00123858
0.00123858
0.00123854
0.00123682
0.00118208
0.000557404
0.000558
0.0011777
0.00123611
0.00123856
0.00123864
0.00123864
0.00123861
0.00123687
0.00118217
0.000557734
0.000555953
0.000557065
0.000557163
0.000557172
0.000557175
0.000557176
0.000557175
0.00055717
0.000557075
0.000555458
0.000557041
0.0011239
0.0011737
0.00117572
0.00117578
0.00117578
0.00117576
0.00117433
0.00112745
0.000556758
0.000557347
0.00117313
0.0012308
0.00123321
0.00123328
0.00123329
0.00123326
0.00123156
0.00117753
0.000557083
0.000557666
0.00117482
0.00123274
0.00123516
0.00123523
0.00123523
0.0012352
0.0012335
0.00117924
0.000557398
0.000558068
0.00117422
0.00123191
0.0012343
0.00123437
0.00123437
0.00123434
0.00123265
0.00117858
0.000557796
0.000555754
0.000556833
0.000556925
0.000556933
0.000556936
0.000556936
0.000556936
0.00055693
0.00055684
0.000555254
0.000556818
0.00107564
0.00111867
0.00112035
0.00112037
0.00112037
0.00112035
0.00111915
0.00107845
0.000556517
0.000557168
0.00111601
0.00116501
0.00116694
0.00116696
0.00116695
0.00116695
0.00116558
0.00111947
0.000556882
0.000557545
0.00111343
0.00116195
0.0011638
0.00116379
0.00116379
0.00116381
0.00116252
0.00111683
0.000557254
0.000558042
0.00110522
0.00115224
0.00115389
0.00115382
0.00115382
0.00115389
0.00115276
0.00110845
0.000557745
0.000555034
0.00055507
0.000555075
0.000555076
0.000555077
0.000555078
0.000555077
0.000555076
0.000555058
0.000554503
0.000555307
0.000556394
0.000556493
0.000556501
0.000556504
0.000556504
0.000556502
0.000556496
0.000556402
0.000554791
0.00055564
0.000556818
0.000556935
0.000556949
0.000556953
0.000556954
0.00055695
0.000556938
0.000556828
0.000555125
0.000556082
0.000557272
0.000557401
0.000557422
0.000557429
0.00055743
0.000557422
0.000557402
0.000557277
0.000555564
0.00055676
0.000557983
0.000558132
0.000558162
0.000558173
0.000558173
0.000558161
0.000558128
0.000557982
0.00055625
0.000558303
0.000559627
0.000559813
0.000559853
0.000559863
0.000559863
0.00055985
0.000559807
0.000559619
0.000557815
0.000561293
0.00056833
0.000568945
0.000568776
0.000568679
0.000568673
0.00056876
0.000568918
0.000568504
0.000560957
0.000593035
0.000674289
0.000679266
0.000675717
0.00067442
0.000674359
0.000675478
0.000678957
0.00067621
0.000594382
0.000797645
0.00114914
0.00117427
0.00116637
0.0011631
0.00116286
0.00116558
0.00117328
0.00115498
0.000805921
0.00130315
0.00202979
0.00209887
0.00209996
0.00209869
0.00209832
0.00209881
0.00209757
0.00203894
0.00131682
0.000558682
0.00108557
0.00112898
0.0011302
0.00113004
0.00113003
0.00113019
0.00112943
0.00108844
0.000558388
0.000559528
0.00106107
0.00110066
0.00110173
0.00110158
0.00110157
0.00110174
0.00110109
0.00106367
0.000559262
0.000563923
0.0010328
0.00106846
0.00107144
0.00107194
0.00107196
0.00107149
0.00106898
0.0010346
0.000563852
0.00063298
0.000713757
0.000730189
0.000747818
0.000751808
0.000751862
0.000748228
0.000730841
0.000712575
0.000636144
0.0015329
0.0028603
0.00294322
0.00294198
0.00293931
0.00293894
0.00294084
0.00294255
0.0028731
0.00155283
0.000558401
0.00117191
0.00122918
0.00123154
0.0012316
0.0012316
0.00123157
0.00122991
0.0011762
0.000558137
0.000558913
0.001168
0.00122432
0.00122654
0.00122656
0.00122656
0.00122658
0.00122505
0.00117223
0.000558667
0.000559967
0.00116339
0.00121849
0.0012215
0.00122181
0.00122182
0.00122157
0.00121926
0.0011674
0.000559777
0.000604613
0.000758236
0.000766695
0.000769891
0.000770804
0.000770844
0.000770037
0.000766967
0.000757484
0.000606621
0.00156517
0.00288347
0.00294498
0.0029438
0.00294213
0.00294196
0.00294333
0.00294553
0.00289656
0.00158546
0.000558169
0.00117781
0.00123642
0.00123891
0.00123899
0.00123899
0.00123895
0.00123719
0.00118229
0.000557909
0.000558578
0.00117723
0.00123569
0.00123814
0.00123821
0.00123821
0.00123818
0.00123646
0.00118172
0.000558328
0.000559174
0.00116382
0.00121904
0.00122151
0.00122159
0.00122159
0.00122155
0.00121975
0.00116786
0.000558969
0.000600921
0.000722338
0.000727933
0.00072931
0.000729776
0.000729799
0.000729375
0.000728028
0.000721548
0.000602815
0.00159966
0.00296246
0.0030223
0.00302376
0.00302315
0.00302309
0.00302365
0.00302361
0.00297661
0.00162131
0.000558039
0.00117796
0.00123673
0.00123922
0.0012393
0.0012393
0.00123926
0.0012375
0.00118248
0.000557781
0.000558409
0.00117763
0.00123633
0.0012388
0.00123887
0.00123887
0.00123884
0.00123711
0.00118215
0.000558157
0.000558888
0.0011644
0.00121965
0.00122191
0.00122193
0.00122192
0.00122194
0.00122035
0.00116845
0.000558672
0.000600463
0.000703936
0.000707844
0.000708335
0.000708483
0.000708491
0.000708339
0.000707799
0.000702983
0.000602362
0.00161645
0.00299699
0.00305692
0.00305977
0.00305974
0.00305974
0.00305986
0.00305862
0.00301168
0.00163882
0.000558012
0.00117773
0.00123685
0.00123937
0.00123946
0.00123946
0.00123941
0.00123764
0.00118233
0.000557757
0.000558412
0.001177
0.00123644
0.00123895
0.00123903
0.00123903
0.00123899
0.00123723
0.00118159
0.000558161
0.000558953
0.00116203
0.001217
0.00121905
0.00121901
0.00121901
0.00121908
0.00121768
0.00116605
0.000558733
0.000620782
0.000643499
0.000644395
0.000642644
0.000641928
0.000641919
0.000642566
0.000644216
0.000642709
0.000623634
0.00162152
0.00299567
0.00305488
0.00305784
0.00305792
0.00305792
0.00305803
0.00305676
0.00301055
0.00164438
0.000558069
0.00117749
0.00123719
0.00123977
0.00123987
0.00123986
0.00123981
0.001238
0.00118217
0.000557821
0.000558546
0.00117582
0.0012367
0.00123932
0.0012394
0.0012394
0.00123936
0.00123751
0.00118048
0.000558294
0.000559462
0.00115775
0.00121234
0.00121404
0.00121384
0.00121383
0.00121404
0.00121295
0.00116165
0.000559258
0.00065407
0.000628104
0.000632015
0.000630779
0.000630304
0.000630299
0.000630718
0.000631939
0.000627998
0.000658176
0.00162423
0.00296942
0.00302628
0.00302903
0.00302913
0.00302914
0.00302931
0.00302836
0.00298422
0.00164771
0.000558203
0.00117601
0.00123618
0.00123882
0.00123893
0.00123893
0.00123886
0.001237
0.00118073
0.000557957
0.000558707
0.00117403
0.00123714
0.00123998
0.00124009
0.00124008
0.00124002
0.00123796
0.00117878
0.000558451
0.000560706
0.00117229
0.0012304
0.00123189
0.00123152
0.00123151
0.00123184
0.00123105
0.00117666
0.000560523
0.000680763
0.000703451
0.000709007
0.00070272
0.000699879
0.0006998
0.000702408
0.000708696
0.000703698
0.00068475
0.00161246
0.00286808
0.00291962
0.00292391
0.00292481
0.00292486
0.00292438
0.00292192
0.00288163
0.00163547
0.000558357
0.00113034
0.00118368
0.00118601
0.00118611
0.00118611
0.00118605
0.00118439
0.00113432
0.000558097
0.000558711
0.0011348
0.00119376
0.00119674
0.00119698
0.00119698
0.00119678
0.00119453
0.001139
0.000558433
0.000562455
0.00116826
0.00122836
0.0012322
0.00123278
0.00123278
0.00123225
0.00122918
0.00117241
0.000562273
0.000621128
0.000795157
0.000816442
0.000814307
0.000812919
0.000812883
0.000814173
0.000816398
0.000795196
0.000623057
0.00150609
0.00250423
0.00254372
0.00254974
0.00255181
0.0025519
0.00255032
0.00254575
0.00251379
0.00152353
0.0005573
0.000559369
0.000559607
0.000559655
0.000559674
0.000559676
0.000559655
0.000559618
0.000559403
0.000556801
0.000557044
0.000560042
0.000560354
0.000560394
0.000560407
0.000560406
0.000560397
0.000560367
0.000560072
0.000556536
0.000563447
0.00056826
0.000568882
0.000569047
0.000569097
0.000569094
0.000569057
0.000568888
0.000568336
0.000563025
0.000583782
0.000617068
0.000621942
0.000622817
0.000623082
0.000623091
0.000622849
0.000622093
0.000617825
0.000584086
0.00108958
0.00137963
0.00139514
0.00139911
0.00140045
0.00140049
0.00139938
0.00139593
0.00138282
0.00109546
)
;

boundaryField
{
    walls
    {
        type            nutkWallFunction;
        Cmu             0.09;
        kappa           0.41;
        E               9.8;
        value           nonuniform List<scalar> 
500
(
6.68561e-05
6.68561e-05
6.68561e-05
6.76332e-05
6.76332e-05
6.76501e-05
6.76501e-05
6.76492e-05
6.76492e-05
6.76488e-05
6.76488e-05
6.76486e-05
6.76486e-05
6.76484e-05
6.76484e-05
6.76484e-05
6.76484e-05
6.76465e-05
6.76465e-05
6.75838e-05
6.75838e-05
6.75838e-05
6.76552e-05
6.76552e-05
6.77922e-05
6.78013e-05
6.78013e-05
6.78011e-05
6.7801e-05
6.78007e-05
6.78003e-05
6.77905e-05
6.76089e-05
6.76089e-05
6.77032e-05
6.77032e-05
6.78368e-05
6.78477e-05
6.7848e-05
6.7848e-05
6.78478e-05
6.78473e-05
6.78466e-05
6.78353e-05
6.76384e-05
6.76384e-05
6.7739e-05
6.7739e-05
6.78846e-05
6.78972e-05
6.78983e-05
6.78985e-05
6.78983e-05
6.78977e-05
6.78966e-05
6.78842e-05
6.76775e-05
6.76775e-05
6.7786e-05
6.7786e-05
6.79517e-05
6.79667e-05
6.79689e-05
6.79696e-05
6.79694e-05
6.79689e-05
6.79668e-05
6.79532e-05
6.77272e-05
6.77272e-05
6.76358e-05
6.76358e-05
6.77619e-05
6.77737e-05
6.77755e-05
6.77761e-05
6.77764e-05
6.77765e-05
6.77763e-05
6.77679e-05
6.7609e-05
6.7609e-05
6.77785e-05
6.77448e-05
6.78151e-05
6.77809e-05
6.78501e-05
6.78163e-05
6.78954e-05
6.78626e-05
6.76822e-05
6.76822e-05
6.7792e-05
6.78033e-05
6.7805e-05
6.78058e-05
6.78062e-05
6.78064e-05
6.78062e-05
6.7797e-05
6.76302e-05
6.76302e-05
6.78029e-05
6.77722e-05
6.7835e-05
6.78049e-05
6.78662e-05
6.78357e-05
6.79065e-05
6.78763e-05
6.77004e-05
6.77004e-05
6.78086e-05
6.78192e-05
6.78205e-05
6.78212e-05
6.78216e-05
6.78218e-05
6.78216e-05
6.78123e-05
6.7645e-05
6.7645e-05
6.7817e-05
6.77858e-05
6.78452e-05
6.78154e-05
6.78728e-05
6.78425e-05
6.79083e-05
6.78778e-05
6.77102e-05
6.77102e-05
6.78177e-05
6.78277e-05
6.78287e-05
6.78293e-05
6.78296e-05
6.78297e-05
6.78295e-05
6.78202e-05
6.76526e-05
6.76526e-05
6.78251e-05
6.77929e-05
6.78511e-05
6.78207e-05
6.78766e-05
6.78459e-05
6.79092e-05
6.78782e-05
6.77119e-05
6.77119e-05
6.78219e-05
6.78318e-05
6.78328e-05
6.78333e-05
6.78335e-05
6.78336e-05
6.78333e-05
6.78238e-05
6.76532e-05
6.76532e-05
6.78272e-05
6.77942e-05
6.78534e-05
6.78226e-05
6.78794e-05
6.78483e-05
6.79124e-05
6.78809e-05
6.77062e-05
6.77062e-05
6.78225e-05
6.78328e-05
6.78337e-05
6.78341e-05
6.78343e-05
6.78343e-05
6.78338e-05
6.7824e-05
6.76468e-05
6.76468e-05
6.78236e-05
6.779e-05
6.78527e-05
6.78213e-05
6.78824e-05
6.78507e-05
6.79194e-05
6.78872e-05
6.76929e-05
6.76929e-05
6.78151e-05
6.78257e-05
6.78266e-05
6.78269e-05
6.78271e-05
6.7827e-05
6.78265e-05
6.78163e-05
6.7633e-05
6.7633e-05
6.78135e-05
6.77793e-05
6.78473e-05
6.78152e-05
6.78826e-05
6.78501e-05
6.79272e-05
6.78942e-05
6.76711e-05
6.76711e-05
6.77896e-05
6.77995e-05
6.78004e-05
6.78007e-05
6.78008e-05
6.78007e-05
6.78001e-05
6.77904e-05
6.76106e-05
6.76106e-05
6.77892e-05
6.77529e-05
6.78278e-05
6.77933e-05
6.78696e-05
6.78345e-05
6.79246e-05
6.78887e-05
6.75863e-05
6.75863e-05
6.75863e-05
6.75902e-05
6.75902e-05
6.75907e-05
6.75907e-05
6.75909e-05
6.75909e-05
6.7591e-05
6.7591e-05
6.75911e-05
6.75911e-05
6.7591e-05
6.7591e-05
6.75908e-05
6.75908e-05
6.75889e-05
6.75889e-05
6.75222e-05
6.75222e-05
6.75222e-05
6.76165e-05
6.76165e-05
6.7739e-05
6.77499e-05
6.77508e-05
6.77511e-05
6.77512e-05
6.7751e-05
6.77503e-05
6.774e-05
6.75541e-05
6.75541e-05
6.76533e-05
6.76533e-05
6.77858e-05
6.77986e-05
6.78001e-05
6.78006e-05
6.78007e-05
6.78003e-05
6.7799e-05
6.7787e-05
6.75909e-05
6.75909e-05
6.77019e-05
6.77019e-05
6.78357e-05
6.78498e-05
6.7852e-05
6.78528e-05
6.78529e-05
6.7852e-05
6.78499e-05
6.78362e-05
6.76393e-05
6.76393e-05
6.77764e-05
6.77764e-05
6.79131e-05
6.79294e-05
6.79325e-05
6.79336e-05
6.79336e-05
6.79324e-05
6.79288e-05
6.7913e-05
6.77146e-05
6.77146e-05
6.79489e-05
6.79489e-05
6.80885e-05
6.8108e-05
6.81121e-05
6.81132e-05
6.81132e-05
6.81118e-05
6.81073e-05
6.80872e-05
6.78895e-05
6.78895e-05
6.82489e-05
6.82489e-05
6.88821e-05
6.89355e-05
6.89223e-05
6.89142e-05
6.89137e-05
6.89211e-05
6.89329e-05
6.88971e-05
6.82042e-05
6.82042e-05
7.13619e-05
7.13619e-05
7.88077e-05
7.92063e-05
7.8891e-05
7.87764e-05
7.87713e-05
7.88699e-05
7.91785e-05
7.89848e-05
7.14804e-05
7.14804e-05
9.24806e-05
9.24806e-05
0.000126346
0.000128483
0.00012772
0.000127412
0.00012739
0.000127645
0.000128385
0.000126912
9.33296e-05
9.33296e-05
0.000146736
0.000146736
0.000215741
0.000221891
0.000221982
0.000221879
0.000221844
0.000221872
0.000221754
0.000216604
0.00014813
0.00014813
6.79923e-05
6.79569e-05
6.80845e-05
6.80522e-05
6.85331e-05
6.85201e-05
7.56251e-05
7.59511e-05
0.000170268
0.00017232
6.79614e-05
6.79294e-05
6.80171e-05
6.79871e-05
6.8128e-05
6.81041e-05
7.27723e-05
7.29838e-05
0.000173587
0.000175677
6.7936e-05
6.79044e-05
6.79792e-05
6.79488e-05
6.80414e-05
6.80157e-05
7.23894e-05
7.25889e-05
0.000176875
0.000179097
6.79215e-05
6.78903e-05
6.79602e-05
6.79297e-05
6.80115e-05
6.79846e-05
7.23378e-05
7.25372e-05
0.000178454
0.000180744
6.79185e-05
6.78875e-05
6.79603e-05
6.79299e-05
6.80185e-05
6.79911e-05
7.43134e-05
7.46066e-05
0.000178923
0.000181261
6.79245e-05
6.78944e-05
6.79752e-05
6.79445e-05
6.80709e-05
6.8045e-05
7.7722e-05
7.81485e-05
0.000179143
0.000181548
6.79384e-05
6.79085e-05
6.79937e-05
6.79625e-05
6.82016e-05
6.81779e-05
8.08465e-05
8.12865e-05
0.000178158
0.000180553
6.79538e-05
6.79222e-05
6.79969e-05
6.79631e-05
6.83981e-05
6.83749e-05
7.47864e-05
7.49914e-05
0.000168474
0.000170353
6.78304e-05
6.78304e-05
6.8059e-05
6.80848e-05
6.80899e-05
6.80919e-05
6.80922e-05
6.80899e-05
6.80861e-05
6.80628e-05
6.77699e-05
6.77699e-05
6.7815e-05
6.7815e-05
6.81401e-05
6.81733e-05
6.81776e-05
6.81789e-05
6.81788e-05
6.81778e-05
6.81747e-05
6.81432e-05
6.77534e-05
6.77534e-05
6.85122e-05
6.85122e-05
6.90408e-05
6.91085e-05
6.91262e-05
6.91314e-05
6.9131e-05
6.91274e-05
6.91089e-05
6.90493e-05
6.84605e-05
6.84605e-05
7.07147e-05
7.07147e-05
7.42237e-05
7.47316e-05
7.48237e-05
7.48516e-05
7.48528e-05
7.48271e-05
7.47482e-05
7.43065e-05
7.07431e-05
7.07431e-05
0.000126278
0.000126278
0.000156272
0.000157819
0.000158208
0.00015834
0.000158344
0.000158236
0.0001579
0.000156609
0.000126931
0.000126931
)
;
    }
    lid
    {
        type            nutkWallFunction;
        Cmu             0.09;
        kappa           0.41;
        E               9.8;
        value           nonuniform List<scalar> 
100
(
0.000146736
0.000215741
0.000221891
0.000221982
0.000221879
0.000221844
0.000221872
0.000221754
0.000216604
0.00014813
0.000170268
0.000297214
0.000304538
0.000304322
0.000304045
0.000304008
0.00030421
0.000304459
0.000298451
0.00017232
0.000173587
0.00029944
0.000304899
0.00030478
0.000304628
0.000304611
0.000304733
0.000304942
0.000300707
0.000175677
0.000176875
0.000306544
0.000311858
0.000311975
0.000311918
0.000311911
0.000311963
0.000311975
0.00030791
0.000179097
0.000178454
0.000309663
0.00031499
0.00031523
0.000315226
0.000315225
0.000315238
0.000315144
0.00031108
0.000180744
0.000178923
0.000309644
0.000314918
0.000315172
0.000315178
0.000315179
0.000315188
0.000315089
0.00031108
0.000181261
0.000179143
0.000307503
0.000312592
0.000312828
0.000312835
0.000312836
0.000312852
0.000312782
0.000308941
0.000181548
0.000178158
0.000299188
0.000303852
0.000304165
0.000304215
0.000304219
0.000304204
0.000304065
0.000300531
0.000180553
0.000168474
0.000266858
0.000270562
0.000271111
0.000271298
0.000271307
0.000271166
0.00027076
0.000267835
0.000170353
0.000126278
0.000156272
0.000157819
0.000158208
0.00015834
0.000158344
0.000158236
0.0001579
0.000156609
0.000126931
)
;
    }
}


// ************************************************************************* //
