/*--------------------------------*- C++ -*----------------------------------*\
| =========                 |                                                 |
| \\      /  F ield         | OpenFOAM: The Open Source CFD Toolbox           |
|  \\    /   O peration     | Version:  2.3.1                                 |
|   \\  /    A nd           | Web:      www.OpenFOAM.org                      |
|    \\/     M anipulation  |                                                 |
\*---------------------------------------------------------------------------*/
FoamFile
{
    version     2.0;
    format      ascii;
    class       volScalarField;
    location    "0.69";
    object      epsilon;
}
// * * * * * * * * * * * * * * * * * * * * * * * * * * * * * * * * * * * * * //

dimensions      [0 2 -3 0 0 0 0];

internalField   nonuniform List<scalar> 
9648
(
2427.19
2419.95
2417.43
2410.01
2397.68
2380.3
2358.33
2331.29
2299.1
2261.83
2219.66
2172.75
2121.9
2068.08
2012.06
1954.79
1897.36
1840.78
1785.75
1732.81
1682.51
1635.17
1590.95
1550.03
1512.45
1478.1
1446.89
1418.72
1393.48
1371
1351.14
1333.77
1318.74
1305.9
1295.17
1286.4
1279.47
1274.3
1270.85
1269.04
1268.76
1269.99
1272.72
1276.85
1282.44
1289.53
1298.09
1308.09
1319.63
1332.84
1347.72
1364.26
1382.67
1402.94
1425.01
1448.67
1473.67
1499.6
1525.69
1551.36
1576.22
607.734
599.975
590.714
580.696
572.084
566.824
564.175
563.437
564.654
567.838
572.782
578.838
585.59
592.656
599.689
606.311
612.336
617.722
622.457
626.475
629.878
632.731
635.089
637.074
638.815
640.377
641.817
643.213
644.65
646.178
647.821
649.639
651.672
653.918
656.413
659.183
662.221
665.526
669.114
673.014
677.216
681.707
686.497
691.596
696.985
702.696
708.721
715.03
721.603
728.433
735.476
742.699
750.048
757.55
765.062
772.559
779.887
787.151
794.213
801
807.473
240.301
244.017
249.254
256.374
265.263
275.751
287.941
301.535
316.512
332.503
349.323
366.541
383.823
400.838
417.296
432.959
447.657
461.299
473.829
485.233
495.538
504.783
513.047
520.417
526.994
532.863
538.112
542.833
547.099
550.986
554.557
557.873
560.983
563.93
566.756
569.486
572.154
574.774
577.367
579.95
582.537
585.145
587.771
590.425
593.109
595.814
598.538
601.259
603.971
606.653
609.298
611.902
614.425
616.917
619.264
621.565
623.723
625.873
627.857
629.718
631.449
133.333
143.981
156.028
169.575
184.584
200.994
218.73
237.593
257.362
277.698
298.301
318.81
338.917
358.329
376.811
394.162
410.258
425.027
438.437
450.5
461.248
470.736
479.05
486.282
492.54
497.93
502.552
506.503
509.865
512.726
515.159
517.232
519.011
520.543
521.874
523.045
524.089
525.03
525.894
526.7
527.467
528.212
528.949
529.684
530.422
531.164
531.909
532.652
533.394
534.125
534.827
535.524
536.19
536.837
537.414
537.982
538.535
539.064
539.55
539.999
540.449
96.6271
110.091
125.248
142.036
160.352
180.065
200.967
222.789
245.214
267.862
290.381
312.408
333.65
353.846
372.798
390.331
406.36
420.846
433.785
445.225
455.214
463.818
471.14
477.28
482.369
486.527
489.863
492.486
494.477
495.932
496.933
497.552
497.863
497.919
497.762
497.44
496.992
496.439
495.812
495.129
494.406
493.67
492.934
492.213
491.507
490.823
490.164
489.527
488.906
488.305
487.706
487.112
486.53
485.95
485.368
484.784
484.223
483.661
483.082
482.496
481.91
82.5402
97.7385
114.943
134.003
154.693
176.79
199.973
223.88
248.114
272.231
295.857
318.607
340.226
360.466
379.205
396.253
411.562
425.152
437.029
447.299
456.029
463.276
469.185
473.841
477.414
480.044
481.842
482.94
483.401
483.33
482.825
481.944
480.785
479.401
477.819
476.101
474.297
472.411
470.482
468.526
466.554
464.597
462.674
460.801
458.972
457.194
455.47
453.811
452.203
450.633
449.1
447.591
446.108
444.65
443.205
441.805
440.438
439.08
437.717
436.357
434.986
77.8543
94.5091
113.416
134.344
156.934
180.898
205.808
231.224
256.713
281.713
305.897
328.801
350.263
370.031
388.132
404.269
418.454
430.791
441.253
450.049
457.269
462.908
467.218
470.2
472.111
473.108
473.284
472.828
471.737
470.144
468.174
465.84
463.289
460.564
457.654
454.65
451.634
448.557
445.49
442.439
439.391
436.404
433.492
430.677
427.924
425.255
422.676
420.181
417.773
415.43
413.14
410.892
408.699
406.513
404.36
402.261
400.213
398.212
396.205
394.171
392.155
77.6343
95.6369
116.069
138.61
162.747
188.142
214.336
240.83
267.147
292.584
316.918
339.499
360.382
379.233
396.43
411.374
424.164
435.059
443.843
450.955
456.527
460.37
463.03
464.203
464.362
463.672
462.182
460.201
457.556
454.46
451.099
447.36
443.502
439.521
435.357
431.16
427.017
422.789
418.667
414.609
410.559
406.606
402.811
399.146
395.553
392.107
388.745
385.521
382.392
379.362
376.401
373.5
370.655
367.798
364.993
362.284
359.6
357.027
354.41
351.748
349.175
79.5285
98.5893
120.356
144.075
169.531
195.918
222.911
250.273
276.926
302.608
326.718
348.844
368.75
386.38
402.453
416.109
427.427
436.732
444.058
449.509
453.199
455.2
455.959
455.508
453.985
451.467
448.425
444.977
440.682
436.138
431.322
426.344
421.458
416.231
410.708
405.506
400.141
394.733
389.647
384.451
379.293
374.125
369.615
365.122
360.627
356.588
352.308
348.45
344.42
340.681
336.833
333.324
329.893
326.298
322.808
319.633
316.198
313.32
310.028
306.613
303.578
1600.37
1623.7
1645.92
1667
1687.14
1706.77
1725.98
1745.09
1763.94
1781.8
1798.35
1814.13
1829.39
1844.51
1859.69
1875.6
1892.8
1911.81
1933.01
1956.92
1983.3
2011.63
2041.48
2072.42
2104.11
2136.47
2169.67
2203.37
2237.52
2272.16
2307.46
2343.3
2379.69
2416.78
2454.59
2493.01
2532.15
2572.15
2613.07
2654.76
2697.25
2740.78
2785.33
2830.75
2877.34
2924.99
2973.57
3023.13
3073.87
3125.84
3178.97
3233.13
3288.87
3345.8
3404.29
3464.12
3526.02
3589.99
3656.03
3724.03
3794.11
813.61
819.818
825.848
831.623
837.167
842.598
848.063
853.414
858.846
864.03
869.17
874.204
879.246
884.316
889.408
894.569
899.817
905.199
910.708
916.321
921.997
927.677
933.336
938.951
944.508
949.988
955.321
960.477
965.452
970.268
974.943
979.451
983.812
988.047
992.151
996.126
999.994
1003.75
1007.39
1010.92
1014.35
1017.71
1020.97
1024.12
1027.2
1030.18
1033.06
1035.83
1038.51
1041.1
1043.58
1045.96
1048.25
1050.58
1052.73
1054.97
1057.17
1059.58
1061.88
1064.23
1066.7
633.148
634.77
636.436
638.07
639.676
641.184
642.762
644.241
645.7
647.015
648.279
649.489
650.716
651.914
653.083
654.215
655.304
656.347
657.334
658.254
659.091
659.847
660.507
661.07
661.531
661.885
662.128
662.258
662.265
662.157
661.922
661.566
661.093
660.497
659.794
658.981
658.06
657.028
655.888
654.636
653.279
651.821
650.268
648.607
646.848
644.98
642.991
640.873
638.635
636.277
633.774
631.172
628.434
625.589
622.555
619.441
616.241
612.968
609.61
606.201
602.8
540.873
541.295
541.684
542.058
542.399
542.708
542.974
543.228
543.411
543.491
543.507
543.479
543.385
543.207
542.974
542.673
542.305
541.864
541.342
540.731
540.033
539.246
538.376
537.415
536.361
535.205
533.951
532.599
531.146
529.594
527.943
526.184
524.321
522.359
520.308
518.165
515.932
513.608
511.188
508.674
506.075
503.401
500.655
497.846
494.974
492.035
489.009
485.897
482.692
479.412
476.028
472.551
468.993
465.337
461.558
457.662
453.697
449.649
445.545
441.422
437.305
481.326
480.714
480.075
479.405
478.703
477.937
477.114
476.285
475.45
474.562
473.637
472.666
471.633
470.54
469.385
468.163
466.904
465.573
464.168
462.685
461.13
459.509
457.826
456.087
454.281
452.406
450.456
448.434
446.344
444.187
441.958
439.645
437.251
434.779
432.242
429.641
426.972
424.228
421.405
418.505
415.542
412.521
409.46
406.372
403.264
400.135
396.952
393.74
390.463
387.143
383.758
380.299
376.787
373.206
369.533
365.761
361.91
357.975
354.019
350.05
346.084
433.624
432.25
430.865
429.432
427.972
426.475
424.933
423.373
421.767
420.134
418.46
416.759
415.019
413.225
411.385
409.508
407.601
405.631
403.591
401.486
399.322
397.112
394.87
392.603
390.296
387.94
385.536
383.084
380.602
378.09
375.544
372.938
370.275
367.551
364.79
361.991
359.138
356.232
353.256
350.21
347.109
343.961
340.791
337.625
334.481
331.37
328.235
325.113
321.964
318.829
315.66
312.432
309.185
305.876
302.521
299.044
295.505
291.892
288.293
284.657
281.046
390.154
388.159
386.153
384.128
382.061
379.945
377.795
375.641
373.446
371.199
368.936
366.665
364.359
362.026
359.646
357.249
354.851
352.401
349.884
347.294
344.647
341.981
339.302
336.637
333.964
331.252
328.511
325.734
322.968
320.219
317.508
314.761
311.998
309.187
306.381
303.555
300.672
297.757
294.782
291.742
288.641
285.477
282.297
279.135
276.015
273.001
269.971
267.024
264.072
261.226
258.388
255.473
252.573
249.62
246.664
243.534
240.393
237.145
233.99
230.771
227.604
346.599
344.076
341.539
339.037
336.503
333.977
331.372
328.835
326.263
323.575
320.889
318.244
315.553
312.837
310.044
307.28
304.592
301.861
299.062
296.119
293.1
290.103
287.091
284.124
281.22
278.28
275.311
272.252
269.222
266.278
263.511
260.731
258.027
255.295
252.643
250.009
247.245
244.419
241.586
238.742
235.795
232.724
229.632
226.542
223.476
220.631
217.709
214.971
212.224
209.754
207.354
204.808
202.317
199.768
197.281
194.51
191.806
188.934
186.299
183.549
180.901
300.297
297.26
294.049
291.188
288.157
285.552
282.595
280.066
277.497
274.689
271.872
269.316
266.504
263.71
260.635
257.544
254.812
252.173
249.531
246.626
243.305
240.204
237.022
233.815
230.801
227.841
224.978
221.782
218.377
215.171
212.372
209.583
207.019
204.514
202.353
200.266
197.855
195.163
192.563
190.161
187.693
184.844
181.922
179.055
176.096
173.519
170.618
168.093
165.449
163.483
161.63
159.455
157.47
155.404
153.498
151.043
148.812
146.251
144.188
141.946
139.926
3867.33
3943.22
4021.15
4101.16
4183.7
4269.66
4358.51
4450.19
4544.43
4641.38
4741.4
4843.24
4947.29
5057.98
5196.54
5323.89
5450.29
5579.23
5710.67
5844.57
5981.28
6120.85
6262.88
6407.59
6554.75
6703.64
6853.96
7005.46
7157.94
7310.51
7463.09
7615.05
7765.5
7913.86
8059.58
8201.23
8337.66
8467.19
8580.89
8664.45
8721.07
8752.25
8757.8
8735.96
8685.11
8602.78
8484.92
8326.85
8124.26
7872.49
7565.31
7195.86
6758.96
6247.74
5609.84
4694.57
4290.04
4089.35
4010.68
3971.17
3886.32
1069.42
1072.24
1075.27
1078.37
1081.57
1085.01
1088.99
1093.39
1098.27
1103.44
1109.12
1112.6
1114.1
1117.18
1120.92
1126.09
1131.43
1136.7
1142.11
1147.76
1153.69
1159.92
1166.43
1173.22
1180.26
1187.55
1195.11
1202.96
1211.16
1219.75
1228.77
1238.3
1248.46
1259.35
1271.1
1283.94
1298.06
1313.8
1332.98
1362.94
1399.17
1438.12
1480.3
1525.83
1575.4
1629.34
1687.73
1750.83
1818.91
1891.52
1967.76
2045.99
2124.78
2202.72
2272.26
2338.08
2399.26
2487.03
2592.39
2698.08
2644.65
599.38
595.966
592.521
589.06
585.548
582.067
578.702
575.497
572.365
569.208
565.593
560.072
554.278
549.299
544.831
540.977
537.221
533.367
529.452
525.53
521.641
517.783
513.949
510.139
506.349
502.575
498.826
495.106
491.434
487.808
484.248
480.775
477.403
474.174
471.118
468.282
465.714
463.486
461.757
460.998
461.416
466.203
474.742
486.601
502.246
522.338
547.6
579.057
617.708
664.625
720.818
787.079
864.639
953.786
1054.24
1162.51
1270.44
1388.9
1534.57
1722.92
1907.66
433.196
429.101
425.009
420.904
416.757
412.616
408.531
404.551
400.557
396.475
391.602
385.72
380.043
374.908
370.16
365.764
361.478
357.211
352.941
348.695
344.475
340.262
336.065
331.888
327.725
323.587
319.475
315.39
311.332
307.305
303.31
299.353
295.446
291.598
287.821
284.134
280.557
277.106
273.81
270.73
267.946
265.772
264.919
265.754
268.181
272.544
279.311
289.139
302.875
321.547
346.569
379.265
421.29
473.733
537.179
609.583
687.002
771.119
870.474
998.873
1158.36
342.141
338.264
334.409
330.535
326.598
322.667
318.758
314.938
311.097
307.151
302.439
297.239
292.331
287.829
283.579
279.566
275.655
271.836
268.071
264.371
260.711
257.041
253.392
249.77
246.165
242.589
239.042
235.525
232.027
228.552
225.1
221.677
218.288
214.944
211.652
208.423
205.269
202.201
199.226
196.364
193.64
191.117
188.93
187.436
186.728
186.841
187.997
190.5
194.786
201.396
211.129
224.993
244.187
269.96
303.294
344.275
391.535
444.677
506.083
581.433
676.856
277.437
273.951
270.497
267.045
263.456
259.877
256.294
252.835
249.355
245.817
241.592
237.181
233.048
229.266
225.625
222.152
218.739
215.476
212.301
209.226
206.199
203.135
200.107
197.125
194.154
191.224
188.313
185.434
182.56
179.702
176.853
174.032
171.238
168.487
165.781
163.132
160.547
158.035
155.599
153.248
150.996
148.866
146.896
145.174
143.942
143.099
142.766
143.065
144.203
146.456
150.197
155.95
164.387
176.277
192.484
213.559
239.624
270.761
307.625
351.917
406.754
224.356
221.306
218.3
215.344
212.135
208.959
205.725
202.696
199.656
196.649
192.975
189.312
185.875
182.807
179.761
176.859
173.944
171.251
168.649
166.165
163.736
161.208
158.764
156.409
154.045
151.735
149.417
147.141
144.839
142.549
140.249
137.988
135.75
133.567
131.421
129.337
127.307
125.347
123.453
121.639
119.909
118.284
116.772
115.408
114.256
113.456
112.922
112.721
112.952
113.751
115.303
117.863
121.748
127.389
135.256
145.837
159.544
176.7
197.778
223.573
255.377
178.003
175.388
172.858
170.478
167.668
164.931
162.042
159.504
156.952
154.554
151.409
148.414
145.572
143.184
140.669
138.339
135.875
133.74
131.667
129.699
127.796
125.702
123.773
122.042
120.237
118.478
116.659
114.925
113.097
111.291
109.437
107.674
105.926
104.268
102.624
101.055
99.5127
98.0479
96.6402
95.3272
94.0866
92.9546
91.9321
91.0146
90.2331
89.6885
89.3403
89.1792
89.27
89.6839
90.5189
91.8967
93.9861
96.9831
101.135
106.726
114.051
123.444
135.272
150.04
168.41
137.344
135.097
133.063
131.341
128.929
126.659
124.065
122.103
120.076
118.319
115.65
113.229
110.836
109.104
107.005
105.254
103.145
101.575
99.9643
98.3635
96.901
95.0917
93.6238
92.6093
91.2651
89.8974
88.4198
87.1834
85.6687
84.2258
82.6502
81.3592
80.0108
78.8428
77.5959
76.4692
75.2556
74.1782
73.1678
72.2887
71.4866
70.785
70.2039
69.7099
69.2533
68.9033
68.7356
68.6773
68.8384
69.1415
69.8246
70.8053
72.29
74.2386
76.8631
80.1982
84.5317
89.956
96.8609
105.515
116.268
3741.92
3583.81
3414.19
3236.01
3058.05
2885.53
2721.87
2571.56
2438.43
2324.62
2230.62
2155.44
2097.48
2054.52
2023.84
2002.82
1989.3
1981.68
1978.53
1978.64
1981.29
1985.96
1992.15
1999.8
2008.88
2019.13
2030.54
2043.1
2056.86
2071.72
2087.63
2104.54
2122.33
2140.77
2159.74
2178.94
2198.06
2216.8
2234.94
2252.13
2267.92
2282.06
2294.38
2304.67
2313.03
2319.7
2324.85
2328.71
2331.92
2335.26
2339.13
2343.78
2349.79
2357.33
2366.11
2375.81
2386.08
2396.84
2406.98
2415.48
2421.74
2452.8
2250.32
2052.42
1863.63
1697.53
1543.83
1401.41
1271.24
1153.59
1049.42
958.908
881.595
816.554
762.344
718.771
685.049
659.174
639.273
623.849
611.824
602.445
595.111
589.569
585.191
582.254
580.264
579.307
579.321
580.284
582.193
585.065
588.886
593.656
599.348
605.911
613.258
621.286
629.891
638.909
648.135
657.298
666.062
673.983
680.581
685.418
688.062
688.144
685.502
680.256
672.82
663.838
654.174
644.831
636.688
630.169
625.648
622.811
621.214
619.667
617.141
613.056
1990.68
1974.81
1871.31
1697.87
1519.88
1347.2
1178.97
1026.47
889.898
768.846
664.331
575.872
502.34
442.488
395.419
359.308
331.383
309.309
291.848
278.157
267.41
258.958
252.187
246.878
242.503
239.048
236.277
234.143
232.583
231.565
231.061
231.07
231.574
232.54
233.946
235.756
237.933
240.431
243.195
246.148
249.194
252.225
255.111
257.684
259.772
261.166
261.659
261.062
259.263
256.212
252.007
246.97
241.576
236.445
232.115
229.201
227.992
228.537
230.509
233.47
237.002
1323.73
1469.75
1565.16
1579.87
1509.81
1384.44
1216.41
1047.32
890.97
746.784
621.328
516.239
429.58
360.153
305.699
263.35
230.416
204.408
183.997
168.135
155.892
146.493
139.269
133.689
129.296
125.806
123.007
120.764
118.985
117.603
116.578
115.887
115.501
115.386
115.504
115.82
116.299
116.904
117.592
118.316
119.024
119.663
120.172
120.494
120.569
120.339
119.759
118.792
117.431
115.673
113.554
111.185
108.746
106.501
104.772
104.047
104.765
107.132
111.165
116.827
124.211
793.503
928.856
1071.77
1198.3
1278.82
1296.09
1245.42
1139.72
1003.49
849.521
703.355
577.799
469.914
381.857
312.014
256.729
213.4
179.512
153.046
132.602
117.004
105.277
96.5315
89.9871
85.0185
81.1833
78.1894
75.8368
73.9886
72.5387
71.4267
70.6174
70.0729
69.7496
69.6065
69.6065
69.7132
69.8903
70.1016
70.3071
70.4643
70.5328
70.4737
70.2502
69.8298
69.1883
68.3179
67.2225
65.9111
64.4148
62.7856
61.1114
59.5391
58.2631
57.5741
57.74
59.2707
62.5423
67.8416
75.391
85.0575
475.196
560.368
663.207
779.636
897.395
998.656
1063.24
1075.89
1034.65
947.52
831.492
705.589
578.835
468.179
377.725
303.053
243.886
197.085
159.831
131.079
109.396
93.4174
81.8029
73.3341
67.0718
62.359
58.7756
56.0347
53.9347
52.3139
51.0806
50.1816
49.5659
49.1786
48.9722
48.9059
48.9407
49.0418
49.1742
49.301
49.3842
49.3912
49.2882
49.0473
48.6399
48.0514
47.2779
46.3311
45.2202
43.9748
42.6404
41.2963
40.0647
39.1203
38.723
39.22
41.0599
44.7103
50.5698
58.8608
69.5808
294.93
344.487
406.391
482.118
570.716
667.452
762.301
841.082
889.438
896.928
861.5
790.554
696.134
592.183
490.377
394.328
314.965
250.207
196.208
154.005
122.023
98.7492
82.2004
70.3823
61.8196
55.4924
50.7773
47.2545
44.6229
42.6272
41.1255
40.0344
39.284
38.8004
38.5244
38.4069
38.4045
38.4807
38.6
38.7266
38.8236
38.8649
38.8173
38.6579
38.3558
37.9039
37.2962
36.548
35.6612
34.6674
33.6031
32.5408
31.5886
30.8981
30.7088
31.3742
33.3346
37.1469
43.3194
52.1576
63.7287
191.35
220.082
256.177
301.26
356.657
422.594
497.325
575.839
650.178
709.59
743.601
745.91
716.706
660.458
585.952
501.384
416.639
336.905
261.717
201.251
153.474
118.793
94.5796
77.4816
65.1725
56.1377
49.4816
44.6156
41.0762
38.43
36.4593
35.0253
34.0324
33.3741
32.9728
32.7643
32.6969
32.7292
32.8234
32.9427
33.0492
33.1238
33.132
33.055
32.8555
32.5343
32.0792
31.5114
30.8241
30.0509
29.2215
28.4054
27.6987
27.2413
27.2566
28.079
30.1445
34.1245
40.6015
49.9912
62.4011
129.793
146.614
167.675
194.243
227.377
268.119
316.85
373.067
434.289
496.479
551.777
594.127
617.176
618.17
595.512
551.418
491.815
420.87
347.631
273.327
204.524
154.588
119.873
95.1476
76.9452
63.5532
53.7082
46.6452
41.618
37.8989
35.1664
33.166
31.7741
30.8286
30.2204
29.8581
29.6767
29.6244
29.6611
29.7418
29.8319
29.917
29.9608
29.9452
29.829
29.6154
29.2923
28.8773
28.3624
27.7764
27.1521
26.5545
26.0794
25.8523
26.0816
27.0981
29.3439
33.5245
40.2926
50.1904
63.3024
1.53728
215.534
192.924
2.26894
2.20199
0.203967
0.000719695
91.6723
0.000796715
0.0147057
93.3326
7.00989
0.000720646
245.972
0.166971
135.686
0.000757574
93.071
117.73
0.000715519
2.27443
234.663
202.965
0.000767133
0.000781393
0.210377
0.000716727
7.96304
0.000753317
0.000820405
6.21158
0.000740711
0.0087886
64.4154
3.9953
111.542
71.2763
15.7363
0.000723243
44.8841
65.5404
29.1503
0.000743355
103.146
173.566
0.718925
0.000866796
0.00862717
1.27249
7.22668
373.387
360.211
0.000697677
0.00102926
0.0635818
0.0340647
0.000817511
9.24317
58.3976
287.3
141.164
0.000906552
1.53489
0.0250923
203.78
2.4048
38.4109
64.5259
0.00113291
0.000747675
9.78846
40.404
56.4467
0.0400405
0.0517888
79.8848
232.923
55.0622
0.000699607
5.48719
0.00234753
47.7374
0.0125932
109.497
0.000749932
8.58846
0.000791375
36.9331
0.0110424
0.00136943
0.231593
0.000697942
0.000934698
311.317
145.437
0.000868017
1.58913
1.77743
0.00185074
209.115
1.04337
31.7322
5.81856
0.000696417
0.000725933
0.000693461
1.40637
0.2101
0.000748121
175.852
224.773
0.00475818
236.919
26.7619
115.787
54.0777
28.1439
0.000978018
0.11099
0.00110545
0.00167556
190.654
0.00310901
290.329
419.771
28.6718
0.000746041
7.13324
6.99321
0.000743964
0.0300007
0.0269753
92.9405
0.00187788
63.419
0.000748854
0.000723765
399.586
354.883
0.000748907
0.73088
151.264
0.230898
0.909471
26.5478
118.728
0.293492
27.4584
0.00526826
278.804
11.0729
0.0369284
48.4417
107.082
191.069
0.000766357
0.000757619
0.515266
0.000695215
41.029
0.113584
0.00145085
0.000740348
0.000747507
0.000758569
40.2043
71.4201
34.7197
0.00076729
287.237
308.875
405.943
164.774
0.00693764
159.239
43.8982
28.1122
0.000750315
0.00169944
194.76
67.3594
29.9318
73.2699
0.000745429
0.000842694
240.622
0.0296967
2.49586
0.000757792
0.000864815
0.173158
0.000798036
336.737
3.98725
0.000691305
0.683142
92.082
143.782
0.00119893
52.1853
0.000746676
0.000750279
106.034
32.6845
304.938
0.00121589
0.000801078
0.00285778
41.8926
76.0224
9.73073
125.015
14.2851
234.08
0.826781
85.8699
82.9084
27.4629
10.7275
39.3353
0.00144566
0.0294398
0.00074774
0.00072449
28.245
0.010053
0.0117861
0.00199285
0.00629635
46.5494
197.096
0.0111505
173.34
7.50699
2.92825
0.000732514
0.536818
38.1972
7.25197
0.00106391
12.7747
36.1419
0.875008
2.4289
273.731
7.47566
5.10281
122.87
0.000955834
0.000723853
0.00102782
0.00429332
28.5794
0.000784968
0.00251324
0.00072366
1.73271
74.6937
76.4592
48.7914
12.001
11.418
328.276
0.00114062
47.6952
98.1104
0.000743936
81.7097
0.000749604
327.15
1.73142
51.3702
0.00155026
0.000748501
20.1631
7.75499
0.000759625
0.00075068
0.00075547
0.000751661
1.18968
36.0677
44.3105
0.0108499
0.000760435
0.000724435
0.000695439
103.931
1.14027
0.00119203
19.1696
0.116646
0.0954105
0.000691568
0.783535
0.000760155
0.107326
48.1541
275.788
3.07322
0.0009767
0.00184804
55.7505
0.355794
131.866
325.522
0.000838559
0.000739937
0.00073404
156.549
0.000773863
135.566
0.000749837
24.7947
12.1737
0.0243418
139.702
238.285
0.00127375
49.5762
50.8658
90.4526
90.245
9.75559
352.686
38.5513
70.6003
140.77
95.02
56.6506
0.340133
341.224
282.847
62.0746
33.5405
0.000999935
271.723
124.848
231.291
0.0188353
0.000867903
0.000745788
0.000811987
0.702986
1.56867
6.1477
0.125268
0.000726312
172.358
0.000746394
26.786
23.521
193.741
41.0119
18.6372
0.00193045
0.00110766
0.457199
85.8701
0.00436903
8.1181
260.81
35.7383
83.1673
194.872
61.5702
0.000821988
285.643
144.472
97.725
0.000750562
196.098
154.003
0.000781688
30.4653
0.000751696
401.034
170.359
27.96
81.0057
113.078
150.583
0.000764842
149.613
0.000965738
68.3748
80.3501
28.1388
281.897
3.65658
0.494197
2.58065
0.00110141
439.957
1.48821
0.00290954
0.00181125
258.07
0.000954102
91.7022
0.000737472
0.000750119
0.00184005
31.4348
0.193622
21.7201
0.00199374
83.174
0.309363
222.229
279.398
38.2263
342.574
0.000793882
281.667
41.9798
0.00074243
77.7802
25.5968
0.000695833
0.000727433
115.272
0.00206356
26.2797
0.455223
76.0467
0.0177386
3.43944
39.7026
118.428
32.7321
81.8955
69.7706
0.00099938
0.0334097
28.6235
21.8266
333.867
344.127
142.809
0.0849521
124.943
123.874
3.35625
93.0809
46.185
25.9149
0.000820977
83.4438
387.836
0.00107695
90.2635
19.0768
46.8435
0.0153706
0.0896789
268.947
0.00193366
329.941
0.00124853
1.84863
0.000738127
7.72668
169.62
0.557243
0.00132298
0.000902228
75.7556
26.7034
0.377137
5.52046
295.848
543.188
0.00138618
11.662
27.1196
72.087
26.1123
449
28.6662
152.338
51.4189
3.47397
7.18671
304.902
54.5331
357.231
172.897
0.233519
174.026
60.1527
0.000792061
93.7284
29.2251
12.9834
0.00981089
96.1627
45.5618
4.11957
53.4858
0.00159465
0.000747174
0.163293
28.4069
106.93
72.4486
0.000750198
0.000731336
0.000744011
28.0995
0.0280697
0.000745756
0.247113
92.8619
275.056
0.00441627
0.00454863
0.000721201
0.000738842
0.00194351
29.3933
101.9
21.4731
1.89227
301.112
389.995
0.00151198
61.6113
27.7581
28.3262
75.3198
442.562
0.000822139
0.00446271
0.000751033
397.424
0.777462
0.000726931
10.5116
0.353929
304.861
0.000759331
328.176
8.66603
0.0659281
203.494
0.00074828
0.000736783
0.00102742
408.628
52.5685
131.212
323.939
10.6648
28.4702
0.000708442
0.00184937
0.458109
0.0157407
0.0163823
179.236
40.6702
0.000747899
25.86
44.6956
186.596
411.136
0.00295366
414.429
0.00182715
0.0218631
148.446
0.000739532
146.231
0.000759556
0.000791953
0.0212513
34.3972
2.93975
324.82
62.2378
0.000886474
28.3242
498.872
0.216475
2.19561
7.38276
0.000775041
0.000759828
0.00231142
135.072
5.61561
0.000783186
273.306
279.47
218.142
0.11633
59.2167
0.00109031
29.7997
0.545918
0.131689
121.328
29.5438
151.74
175.096
0.000761231
0.000711295
0.00493573
72.9864
104.707
5.92214
0.00661145
0.000771933
0.000750152
0.00343945
0.120947
0.00211918
71.8256
21.104
0.00499518
26.2658
174.363
0.000760716
37.9783
0.000742725
3.31707
0.000762491
0.0132676
37.6327
0.0116715
0.000744596
4.06309
367.766
265.936
0.000731086
0.000747059
1.54828
0.131209
0.000747735
99.1616
0.000906133
31.7082
380.925
29.5843
89.1011
297.301
131.309
338.806
0.000747757
0.00250792
0.0110416
290.351
61.5908
202.932
5.49256
4.34095
98.5192
166.832
129.058
4.93645
46.9395
0.00075053
1.52128
40.13
32.9133
307.768
27.1314
1.10929
40.3795
0.204325
0.00970571
40.4506
0.000751162
173.584
0.000887478
2.77443
295.385
187.081
3.00994
0.00251508
7.08115
0.000769099
0.000736284
0.199595
0.0135506
51.186
0.00873825
28.5286
0.000750508
0.0191066
0.000725495
95.5259
0.00180467
85.286
302.921
0.0143457
169.097
377.916
0.000757167
99.7201
223.781
0.000785705
289.769
0.267029
0.000823834
0.000789712
284.56
0.000731647
0.00112001
0.122718
0.215941
437.306
272.76
0.000751493
0.000754988
9.16174
27.5602
0.00712596
2.30475
22.0559
0.000747673
0.000954748
0.000910633
169.702
273.341
3.39837
298.059
0.0172406
26.5974
0.000771759
0.00720243
0.0160886
0.0437097
0.000749719
298.879
0.000741937
0.0161149
0.000772205
1.34958
0.0148413
0.0416739
2.5322
5.02706
34.9318
2.19223
9.16946
27.774
188.801
0.000816681
164.925
329.492
12.543
75.1192
0.000761973
266.086
80.7654
0.000745691
415.769
65.4211
0.00646081
0.0257928
161.755
160.1
0.225571
318.699
414.139
4.42971
436.633
267.247
126.842
50.0501
21.2458
28.4894
267.23
294.288
0.0143202
312.456
42.2643
402.27
0.000813745
1.56742
2.78598
226.499
167.07
0.0118675
443.775
196.282
7.02654
0.0547336
2.80515
27.9747
0.00154989
28.1179
446.159
0.0294215
222.713
14.2318
93.6564
191.225
0.000746134
0.00168203
7.33369
5.2316
0.0133588
0.000748298
0.844513
1.85545
0.00121007
0.000758694
268.327
6.99319
53.1617
10.5233
0.00315522
0.00107656
0.421118
86.6291
0.000824311
21.589
29.9856
1.85604
166.994
0.00100595
0.404324
0.000740638
1.75252
86.476
0.00167308
0.185759
40.5492
168.098
0.504501
94.0699
5.15195
0.918064
0.000988489
33.0291
336.253
0.000744099
0.000755247
149.038
0.0158421
0.000758244
73.2697
2.09841
165.146
29.4823
38.6158
0.314236
17.1027
201.442
165.721
245.197
0.000763371
275.843
0.000969048
37.4607
0.000796079
0.00148736
44.6353
0.00209811
253.044
0.0122231
0.0324341
45.7709
7.81705
0.556935
0.000897837
187.54
0.00088736
0.00071918
348.284
163.062
40.4298
28.5661
0.000814254
0.000683249
19.0361
149.878
0.00073277
221.573
37.5889
0.000752981
169.452
0.000701953
3.43216
6.3838
10.6906
1.51939
77.2278
20.9343
0.000700118
272.206
331.225
0.000744592
0.0133727
28.7707
0.000708566
240.184
159.546
401.819
0.000745603
0.000727882
201.557
0.0960985
0.000837217
31.0754
81.3339
256.612
0.000720813
0.000794201
0.015815
0.0116559
0.000746842
0.00203329
125.313
50.4744
0.000746721
13.3027
0.000747038
10.2744
0.0010916
0.000867518
26.9228
0.000746955
0.345074
0.000730551
50.0353
2.10601
20.2674
186.24
358.848
148.043
5.13994
14.6359
0.000758248
5.66699
280.279
529.006
0.157073
0.000826966
129.997
0.000746089
0.114101
0.000720565
447.129
15.3509
3.21371
199.281
52.3088
5.08899
79.8211
7.86853
224.949
112.193
0.000773998
0.000755979
0.00308617
0.000735245
0.0141202
100.864
0.000932537
253.996
0.00186726
0.303737
3.02161
152.782
0.00136049
41.6451
0.0135907
56.7484
30.1052
442.639
0.000794948
0.000955375
1.45278
83.8584
65.3135
64.9587
1.93784
7.99065
20.1701
0.0629048
10.4056
1.76764
29.9839
0.000756319
389.898
1.44236
55.1451
0.000788548
52.2701
16.5536
0.00191785
89.6773
17.2062
0.084914
0.000714867
0.000746061
203.548
47.2505
14.7209
0.000738201
0.00958091
49.9731
188.551
3.43792
0.00587554
0.000734511
149.706
131.426
35.6032
35.3619
0.000743744
101.752
440.628
0.000746913
0.000749286
18.5479
0.00128642
0.00387779
0.222631
47.6791
0.00105209
36.1153
347.707
0.000731282
0.000821825
0.000727377
0.00077038
65.9447
513.799
339.246
0.0206494
33.8479
46.75
0.133328
44.3815
0.000822889
31.1281
0.534228
30.3915
5.1681
82.8951
101.694
0.140278
0.000759126
160.416
85.0335
282.206
5.71279
29.952
0.525649
20.0358
0.00354027
0.00133629
152.054
144.502
0.0333569
1.18955
0.000754069
0.0999366
19.4994
0.0281663
13.8244
4.36689
387.331
36.9759
1.74674
275.719
139.182
55.9958
15.4325
200.453
186.537
3.13465
37.7178
0.00378208
46.5698
44.8669
0.000743459
0.000710745
0.346114
0.000748502
0.000775352
57.031
297.794
0.000744706
83.1102
0.000745001
0.000736839
0.000741174
0.000752743
0.00181762
29.5235
45.7521
251.732
0.000718543
0.00107134
6.63342
0.000855673
0.0284068
0.000762782
0.00086408
166.815
0.000983808
0.00467784
184.2
0.00426505
0.000749438
186.889
0.000745396
0.000760647
1.45134
0.000871357
6.56492
0.00123925
0.0240863
0.000743845
0.000753692
306.568
425.858
44.6461
0.0238949
109.339
15.9114
0.00130236
27.5025
306.725
236.062
474.273
0.00069953
26.9564
55.7774
0.262726
28.408
100.258
0.352427
31.5908
1.015
28.3201
0.280162
7.38056
0.000757618
224.485
0.000755336
28.5503
31.7876
0.000747863
0.9217
0.00246151
0.0300825
0.000726483
3.90034
0.000894315
0.000741983
40.2349
0.033869
0.165648
231.521
153.242
0.000819123
0.000968711
29.9861
263.546
0.000689525
0.000754067
0.19886
24.2658
146.079
0.0021004
15.6607
0.000745489
0.000818563
0.000718262
0.0280248
24.2642
0.00409868
274.198
29.7549
261.729
174.552
0.000843595
302.877
65.83
0.000732729
0.000754063
0.000750339
0.00115979
0.000740259
124.058
0.000745391
0.000750574
354.282
1.20521
0.0026831
0.0357244
58.5856
7.39119
0.00768957
0.000824318
187.181
0.000762691
6.75635
0.000755113
0.000845997
164.959
167.488
0.00334408
0.000834392
3.82313
0.000744257
372.85
0.000753171
153.531
0.0268685
8.64684
0.12303
3.23754
1.94072
30.0348
0.000760942
0.00086046
0.00490802
61.1854
0.289899
306.162
0.00074708
0.00124274
0.00164302
259.59
61.168
274.515
0.00226531
0.00351276
0.825792
0.0007513
19.7524
37.2393
0.00879566
269.695
180.186
42.4533
0.0015487
1.44393
171.57
228.198
27.7872
0.0105982
120.742
0.522781
135.987
0.144915
2.28151
43.5137
0.000761952
28.3222
0.00122418
0.00510305
0.0065425
0.0479401
0.00090765
10.8384
0.000746067
46.2264
0.13265
0.000865859
1.59031
0.000756578
0.767093
0.228317
40.0576
3.85809
92.7788
0.80573
0.000748384
0.000732615
4.7221