/*--------------------------------*- C++ -*----------------------------------*\
| =========                 |                                                 |
| \\      /  F ield         | OpenFOAM: The Open Source CFD Toolbox           |
|  \\    /   O peration     | Version:  2.3.1                                 |
|   \\  /    A nd           | Web:      www.OpenFOAM.org                      |
|    \\/     M anipulation  |                                                 |
\*---------------------------------------------------------------------------*/
FoamFile
{
    version     2.0;
    format      ascii;
    class       volScalarField;
    location    "0.69";
    object      nut;
}
// * * * * * * * * * * * * * * * * * * * * * * * * * * * * * * * * * * * * * //

dimensions      [0 2 -1 0 0 0 0];

internalField   nonuniform List<scalar> 
9648
(
0.00027305
0.000272702
0.000272593
0.000272339
0.000271909
0.000271239
0.000270384
0.000269348
0.000268113
0.000266658
0.000264975
0.000263104
0.000261043
0.000258802
0.000256434
0.000253985
0.000251483
0.000248951
0.000246432
0.000243972
0.000241585
0.000239295
0.000237127
0.00023508
0.000233159
0.000231379
0.000229744
0.00022825
0.00022689
0.000225668
0.000224577
0.000223611
0.000222766
0.000222043
0.000221429
0.000220926
0.000220533
0.000220243
0.000220043
0.000219933
0.000219921
0.000219996
0.000220155
0.000220405
0.000220733
0.000221131
0.000221612
0.000222189
0.000222853
0.000223588
0.000224409
0.000225337
0.000226345
0.000227437
0.000228623
0.000229896
0.000231221
0.000232539
0.000233856
0.000235172
0.00023647
0.000465029
0.000468887
0.000472912
0.000477275
0.00048158
0.000485473
0.000490842
0.000498819
0.000509439
0.000522833
0.000539098
0.000558551
0.000581154
0.000606779
0.000635261
0.000666511
0.000700292
0.000736262
0.000774109
0.000813656
0.000854554
0.000896548
0.000939444
0.000982968
0.00102684
0.00107093
0.00111514
0.0011593
0.00120324
0.00124687
0.00129017
0.00133301
0.0013753
0.00141709
0.00145827
0.00149876
0.00153863
0.00157788
0.00161644
0.00165414
0.00169104
0.00172723
0.0017626
0.00179707
0.00183074
0.00186337
0.00189495
0.00192565
0.00195554
0.0019845
0.0020125
0.00203955
0.00206588
0.002091
0.00211559
0.00213943
0.00216316
0.00218578
0.00220794
0.00222988
0.00225178
0.000810041
0.000852034
0.000889635
0.000924751
0.000960386
0.000998214
0.00103795
0.00108095
0.00112693
0.00117691
0.00123039
0.00128804
0.0013498
0.00141557
0.00148513
0.00155814
0.00163429
0.001713
0.00179383
0.00187632
0.00195999
0.00204451
0.00212941
0.00221436
0.00229905
0.00238326
0.00246685
0.00254955
0.00263129
0.00271195
0.00279141
0.00286966
0.00294672
0.00302244
0.00309683
0.00316995
0.00324172
0.00331225
0.00338146
0.00344936
0.00351597
0.00358119
0.00364522
0.003708
0.00376946
0.00382961
0.00388839
0.00394603
0.00400231
0.0040574
0.00411128
0.00416404
0.00421624
0.00426645
0.0043169
0.00436532
0.00441355
0.00445892
0.00450447
0.00454925
0.0045934
0.00130468
0.00138941
0.00146746
0.00154064
0.00161171
0.00168276
0.00175491
0.00182943
0.00190698
0.00198876
0.00207475
0.00216554
0.00226089
0.00236084
0.00246488
0.00257257
0.00268338
0.00279667
0.00291187
0.0030284
0.00314579
0.00326347
0.00338105
0.00349818
0.00361458
0.00372999
0.00384425
0.00395719
0.00406871
0.00417865
0.00428711
0.004394
0.00449928
0.00460306
0.00470523
0.00480589
0.00490499
0.00500264
0.00509881
0.00519355
0.00528686
0.00537879
0.00546929
0.00555852
0.00564637
0.00573287
0.00581805
0.00590197
0.00598446
0.00606556
0.00614573
0.00622393
0.00630091
0.00637612
0.00645116
0.00652417
0.00659527
0.00666451
0.00673228
0.00679853
0.00686235
0.0018787
0.00200082
0.00211429
0.00222024
0.00232135
0.00242077
0.00252088
0.00262331
0.00272962
0.00284084
0.0029573
0.00307917
0.0032064
0.00333874
0.00347551
0.00361595
0.00375931
0.00390498
0.00405224
0.00420053
0.00434922
0.0044978
0.00464578
0.00479281
0.00493868
0.00508321
0.00522615
0.0053674
0.00550685
0.00564443
0.00578013
0.00591396
0.00604602
0.00617624
0.00630463
0.0064313
0.00655627
0.00667947
0.00680099
0.00692082
0.00703906
0.00715563
0.00727069
0.00738417
0.00749607
0.00760637
0.00771499
0.00782199
0.00792755
0.00803105
0.00813311
0.00823333
0.0083312
0.00842694
0.00852097
0.00861344
0.00870316
0.0087907
0.00887609
0.00895878
0.00903869
0.00246023
0.00261267
0.00275755
0.00289446
0.0030256
0.00315423
0.00328351
0.00341581
0.00355261
0.00369495
0.00384315
0.00399704
0.00415663
0.00432133
0.00449064
0.00466357
0.00483893
0.00501631
0.0051947
0.00537361
0.00555249
0.0057306
0.00590762
0.00608302
0.00625672
0.00642861
0.00659854
0.00676641
0.00693197
0.00709521
0.00725622
0.0074149
0.00757147
0.00772594
0.00787821
0.00802839
0.00817662
0.00832279
0.00846693
0.00860901
0.00874895
0.00888691
0.00902293
0.00915703
0.00928912
0.0094193
0.00954774
0.00967342
0.00979722
0.00991889
0.0100382
0.0101552
0.0102697
0.0103812
0.0104906
0.0105969
0.0107005
0.0108018
0.0109001
0.0109947
0.0110868
0.00301699
0.00319661
0.00337381
0.00354435
0.00370907
0.00387086
0.00403317
0.0041987
0.00436909
0.00454497
0.00472687
0.0049142
0.00510679
0.00530412
0.00550629
0.00571168
0.00591894
0.00612772
0.00633667
0.00654538
0.00675363
0.0069603
0.00716532
0.00736761
0.00756742
0.00776494
0.00795992
0.00815263
0.00834232
0.00852907
0.00871313
0.00889402
0.00907233
0.00924827
0.00942141
0.0095919
0.00976024
0.00992594
0.0100893
0.01025
0.0104079
0.0105631
0.0107157
0.010866
0.0110134
0.0111583
0.011301
0.0114407
0.011578
0.0117124
0.0118441
0.0119728
0.0120982
0.0122205
0.0123393
0.0124553
0.0125684
0.0126779
0.0127837
0.0128858
0.0129844
0.00354383
0.00374927
0.00396074
0.00416801
0.00437058
0.0045687
0.00476718
0.00496916
0.00517519
0.00538698
0.00560432
0.00582663
0.00605278
0.00628225
0.00651653
0.00675431
0.0069936
0.0072341
0.00747355
0.00771091
0.0079476
0.00818195
0.00841462
0.00864293
0.00886667
0.00908764
0.00930538
0.00952084
0.00973258
0.00994054
0.0101455
0.0103456
0.0105419
0.0107359
0.0109266
0.0111136
0.0112981
0.0114795
0.0116583
0.0118345
0.0120069
0.0121753
0.0123396
0.0125012
0.012659
0.0128135
0.0129648
0.0131123
0.0132571
0.0133986
0.0135365
0.0136708
0.0138025
0.0139302
0.0140535
0.0141731
0.0142892
0.0144028
0.014512
0.0146159
0.0147156
0.00404926
0.0042769
0.00452368
0.00476587
0.0050102
0.00524467
0.00547899
0.0057205
0.00595975
0.00620932
0.0064609
0.00672244
0.0069822
0.00724353
0.00750456
0.00777346
0.00804407
0.00831641
0.00859103
0.00885417
0.00911648
0.00937886
0.00963923
0.00989821
0.0101423
0.0103841
0.0106218
0.0108569
0.0110897
0.0113169
0.0115437
0.0117625
0.0119686
0.0121762
0.0123837
0.0125828
0.0127775
0.0129714
0.0131609
0.0133514
0.0135387
0.013722
0.0138927
0.0140616
0.0142286
0.0143867
0.0145433
0.0146906
0.0148397
0.0149802
0.015121
0.0152501
0.0153805
0.0155128
0.0156386
0.015752
0.0158671
0.0159751
0.0160861
0.0161908
0.0162843
0.000237674
0.000238776
0.000239852
0.000240899
0.000241901
0.000242829
0.000243724
0.000244625
0.000245515
0.000246346
0.000247095
0.000247828
0.000248532
0.000249205
0.000249881
0.000250603
0.000251381
0.000252216
0.000253135
0.000254176
0.000255313
0.000256522
0.000257795
0.000259096
0.000260403
0.00026173
0.000263085
0.000264448
0.000265808
0.000267177
0.000268556
0.000269938
0.000271324
0.000272728
0.000274135
0.000275553
0.000276991
0.000278449
0.000279914
0.000281385
0.000282881
0.000284396
0.000285928
0.000287486
0.000289061
0.000290634
0.000292221
0.000293845
0.000295492
0.000297137
0.000298798
0.000300499
0.000302211
0.000303931
0.000305687
0.000307485
0.000309315
0.00031113
0.000312991
0.000314932
0.000316958
0.00227376
0.0022935
0.00231284
0.00233211
0.00235098
0.00236869
0.00238437
0.00239911
0.00241139
0.00242361
0.00243424
0.00244417
0.002453
0.00246074
0.00246731
0.00247244
0.00247623
0.00247851
0.00247935
0.00247882
0.00247709
0.00247435
0.00247057
0.00246588
0.00246032
0.00245394
0.00244679
0.0024387
0.0024298
0.00242001
0.00240929
0.00239775
0.00238539
0.00237216
0.0023581
0.00234329
0.00232765
0.00231128
0.00229417
0.00227634
0.00225782
0.00223859
0.00221881
0.00219843
0.00217741
0.00215572
0.0021333
0.00211025
0.00208642
0.0020619
0.00203668
0.00201071
0.00198412
0.00195627
0.00192823
0.001899
0.00186938
0.00183856
0.00180798
0.00177722
0.00174633
0.00463525
0.00467604
0.00471407
0.00475094
0.00478642
0.00482171
0.00485341
0.00488368
0.00491057
0.00493647
0.00496014
0.00498223
0.0050019
0.00502009
0.0050364
0.00505078
0.00506331
0.00507398
0.00508285
0.00508998
0.00509561
0.00509966
0.00510227
0.00510346
0.00510324
0.00510162
0.00509868
0.00509436
0.00508868
0.00508146
0.00507287
0.00506276
0.00505112
0.00503811
0.00502355
0.00500757
0.00499009
0.00497119
0.00495085
0.00492916
0.00490619
0.00488205
0.00485678
0.00483055
0.0048032
0.00477473
0.00474497
0.00471393
0.00468145
0.00464751
0.00461225
0.00457493
0.004536
0.00449499
0.00445283
0.00440827
0.00436174
0.00431357
0.0042646
0.00421474
0.00416377
0.00692459
0.00698432
0.00704196
0.00709668
0.00714942
0.00720019
0.00724852
0.00729339
0.00733585
0.00737626
0.00741416
0.0074493
0.00748201
0.00751271
0.00754076
0.00756665
0.00759026
0.00761161
0.00763072
0.00764773
0.0076627
0.00767583
0.00768705
0.00769653
0.00770416
0.00770998
0.00771394
0.0077161
0.00771653
0.00771514
0.00771181
0.00770651
0.00769922
0.00768989
0.00767854
0.00766519
0.00764974
0.00763211
0.00761238
0.00759065
0.00756711
0.00754179
0.00751508
0.00748706
0.00745781
0.00742723
0.00739514
0.00736141
0.00732599
0.00728861
0.00724935
0.00720774
0.00716351
0.00711663
0.00706737
0.00701517
0.00695978
0.00690214
0.00684294
0.00678174
0.0067191
0.00911568
0.00919054
0.00926253
0.00933139
0.00939678
0.00945957
0.00951968
0.00957609
0.00962926
0.0096801
0.00972785
0.00977274
0.00981515
0.00985472
0.00989169
0.0099264
0.00995774
0.00998654
0.0100126
0.0100359
0.0100567
0.0100753
0.0100917
0.010106
0.0101181
0.010128
0.0101357
0.0101415
0.0101453
0.0101472
0.0101472
0.010145
0.0101405
0.0101336
0.0101245
0.0101129
0.0100986
0.0100817
0.010062
0.0100396
0.0100146
0.00998732
0.00995816
0.0099275
0.00989552
0.00986232
0.00982762
0.00979083
0.00975253
0.00971259
0.00967038
0.00962556
0.00957782
0.00952671
0.00947248
0.00941386
0.00935177
0.00928672
0.00921925
0.00914897
0.0090772
0.0111753
0.0112608
0.0113424
0.0114215
0.0114965
0.0115679
0.0116361
0.0116999
0.0117605
0.0118176
0.011872
0.0119232
0.0119713
0.0120164
0.0120584
0.0120975
0.0121332
0.0121659
0.0121952
0.012221
0.0122436
0.0122635
0.0122808
0.0122956
0.0123079
0.0123174
0.0123244
0.012329
0.0123316
0.0123326
0.0123322
0.0123295
0.0123247
0.0123175
0.0123082
0.0122962
0.0122811
0.0122629
0.0122414
0.0122165
0.0121884
0.012157
0.012123
0.0120871
0.0120496
0.0120114
0.0119714
0.0119298
0.0118867
0.0118426
0.0117964
0.011747
0.0116948
0.0116393
0.01158
0.0115153
0.0114466
0.0113734
0.0112978
0.0112193
0.0111384
0.0130794
0.0131706
0.0132578
0.013341
0.0134205
0.0134963
0.0135679
0.0136352
0.0136989
0.0137588
0.0138152
0.0138685
0.0139188
0.0139651
0.0140079
0.014048
0.014085
0.0141186
0.0141482
0.0141731
0.014194
0.0142116
0.0142259
0.0142375
0.0142463
0.0142516
0.0142536
0.0142521
0.0142482
0.014243
0.0142372
0.0142296
0.0142207
0.0142099
0.0141979
0.0141836
0.0141655
0.0141439
0.014119
0.0140907
0.0140585
0.014022
0.0139814
0.0139383
0.0138932
0.013848
0.0137999
0.0137508
0.0137
0.0136501
0.0135985
0.0135432
0.0134857
0.0134249
0.0133608
0.0132897
0.013214
0.0131327
0.0130495
0.0129625
0.0128729
0.0148115
0.0149029
0.0149897
0.0150717
0.0151495
0.0152225
0.0152918
0.0153572
0.0154194
0.0154775
0.0155314
0.0155824
0.0156307
0.0156753
0.015715
0.0157509
0.0157854
0.0158176
0.015846
0.0158688
0.0158855
0.0158987
0.0159083
0.0159139
0.0159165
0.0159154
0.0159107
0.0159001
0.0158847
0.015867
0.0158505
0.0158317
0.0158134
0.0157936
0.0157758
0.0157578
0.0157347
0.0157065
0.0156755
0.0156428
0.0156068
0.0155662
0.0155194
0.0154686
0.0154157
0.015363
0.0153053
0.0152469
0.0151855
0.0151274
0.0150694
0.0150059
0.0149413
0.0148747
0.0148063
0.0147289
0.0146467
0.0145568
0.0144663
0.0143714
0.0142745
0.0163797
0.0164668
0.0165514
0.0166228
0.0166931
0.0167508
0.0168114
0.01686
0.0169115
0.0169662
0.017014
0.0170489
0.0170903
0.0171315
0.0171666
0.0171932
0.0172147
0.0172372
0.0172631
0.0172847
0.0172955
0.0173051
0.0173134
0.0173127
0.0173065
0.0172965
0.0172863
0.0172721
0.0172456
0.0172121
0.0171809
0.0171441
0.017109
0.01707
0.0170389
0.0170141
0.0169847
0.0169451
0.0169025
0.0168601
0.0168174
0.0167783
0.0167268
0.0166691
0.0166129
0.0165549
0.0164919
0.016424
0.0163523
0.0162828
0.0162167
0.0161421
0.0160646
0.0159927
0.0159173
0.0158368
0.0157475
0.0156522
0.0155526
0.0154515
0.0153466
0.000318983
0.00032099
0.000323076
0.000325239
0.000327451
0.000329666
0.000331916
0.00033423
0.000336587
0.000338967
0.000341367
0.000343807
0.000346263
0.00034881
0.000351954
0.000354819
0.00035762
0.000360409
0.0003632
0.000366016
0.000368844
0.000371687
0.000374552
0.00037742
0.000380276
0.000383129
0.000385977
0.000388811
0.00039161
0.000394379
0.000397105
0.000399779
0.000402388
0.000404934
0.000407392
0.000409757
0.000412021
0.000414154
0.000415993
0.000417324
0.000418235
0.000418736
0.000418824
0.000418494
0.000417689
0.000416346
0.000414418
0.000411842
0.000408493
0.000404214
0.000398869
0.000392288
0.000384176
0.000374219
0.000361024
0.000340228
0.000330169
0.000324891
0.000322759
0.00032171
0.000319468
0.00171488
0.00168339
0.00165136
0.00161912
0.00158666
0.00155429
0.00152143
0.00148887
0.00145618
0.00142389
0.00139227
0.00136029
0.00132885
0.00129764
0.00126284
0.00122821
0.00119402
0.00116049
0.00112769
0.00109567
0.00106441
0.00103371
0.00100356
0.000973928
0.000944806
0.000916229
0.00088817
0.000860683
0.000833743
0.000807359
0.000781567
0.00075639
0.000731821
0.000707906
0.000684702
0.000662228
0.000640584
0.000619847
0.000599499
0.000577082
0.000554061
0.000532127
0.000511263
0.000491653
0.000473397
0.000456698
0.000441828
0.000429048
0.000418625
0.000410889
0.000406202
0.000404995
0.000407686
0.00041472
0.00042536
0.000448564
0.000484355
0.000541449
0.000628926
0.000754068
0.000872069
0.00411223
0.00405994
0.0040067
0.00395195
0.00389589
0.00383881
0.00378064
0.00372184
0.00366237
0.00360281
0.00354138
0.00347995
0.00342113
0.00336219
0.00330046
0.00323628
0.00317071
0.00310493
0.0030393
0.00297411
0.00290922
0.00284429
0.00277931
0.00271429
0.00264912
0.00258388
0.0025185
0.00245303
0.0023873
0.00232141
0.00225525
0.00218879
0.0021221
0.00205509
0.0019878
0.00192024
0.00185246
0.00178441
0.00171582
0.00164545
0.00157296
0.00148825
0.00139642
0.00130185
0.00120569
0.00110918
0.00101398
0.000921595
0.000834017
0.000753217
0.000681135
0.000619579
0.000569721
0.000532812
0.000508823
0.000501712
0.000514157
0.000551416
0.000623267
0.00074375
0.000907772
0.00665537
0.00659124
0.00652548
0.00645744
0.00638664
0.0063142
0.00624019
0.00616536
0.00609007
0.00601409
0.0059343
0.00585597
0.00578028
0.00570428
0.00562508
0.00554243
0.00545716
0.00537102
0.00528465
0.00519839
0.005112
0.00502472
0.00493677
0.0048482
0.0047588
0.00466859
0.00457746
0.00448541
0.00439218
0.0042977
0.00420192
0.00410484
0.0040064
0.00390664
0.00380559
0.00370323
0.00359951
0.00349443
0.00338776
0.00327895
0.00316715
0.00304895
0.00291583
0.00276592
0.00260446
0.00243172
0.00224853
0.00205622
0.00185727
0.00165586
0.00145663
0.00126681
0.00109273
0.000941028
0.000815496
0.00072095
0.000660117
0.000633085
0.000642215
0.000695365
0.000800833
0.00900347
0.00892913
0.00885287
0.00877427
0.00869133
0.00860603
0.00851887
0.00843152
0.00834345
0.00825459
0.0081609
0.00806901
0.00797923
0.00788929
0.00779605
0.00769887
0.00759825
0.00749676
0.00739481
0.00729288
0.00719034
0.00708604
0.00698066
0.00687438
0.00676663
0.00665763
0.00654697
0.00643468
0.00632031
0.00620386
0.00608521
0.00596458
0.00584201
0.00571765
0.0055915
0.00546366
0.00533416
0.00520294
0.00506983
0.00493455
0.00479657
0.00465454
0.00450514
0.00433898
0.00415502
0.0039552
0.003738
0.00350201
0.00324612
0.00297124
0.00267897
0.00237427
0.00206616
0.00176715
0.00149142
0.00125314
0.00106374
0.000925196
0.000835038
0.00079287
0.000802469
0.0110545
0.01097
0.0108839
0.0107953
0.0107011
0.0106038
0.0105037
0.0104041
0.0103041
0.0102037
0.0100977
0.00999321
0.00989033
0.00978804
0.00968189
0.00957179
0.00945782
0.0093437
0.00922906
0.00911443
0.00899862
0.00887977
0.00875994
0.00863936
0.0085167
0.00839229
0.00826549
0.00813641
0.00800423
0.00786929
0.00773148
0.0075915
0.00744949
0.00730583
0.00716038
0.00701346
0.00686501
0.00671514
0.00656371
0.00641062
0.0062554
0.00609753
0.00593553
0.00576561
0.00557717
0.00537367
0.00515234
0.00491163
0.00464839
0.0043598
0.00404384
0.00369924
0.00332806
0.00293839
0.00254304
0.00216318
0.00182108
0.00153167
0.00130081
0.0011295
0.00101744
0.0127784
0.0126839
0.0125883
0.0124907
0.0123855
0.0122762
0.0121631
0.0120514
0.0119401
0.0118293
0.0117112
0.0115948
0.0114798
0.0113666
0.0112488
0.0111274
0.0110015
0.0108767
0.0107514
0.0106263
0.0104992
0.0103673
0.0102353
0.0101033
0.00996797
0.00983028
0.00968901
0.00954516
0.00939677
0.00924516
0.00909024
0.00893394
0.00877592
0.00861715
0.0084569
0.0082959
0.00813382
0.00797132
0.00780811
0.00764442
0.00747959
0.00731342
0.00714515
0.00697279
0.00679176
0.00659253
0.00637793
0.00614594
0.00589386
0.00561875
0.00531675
0.00498394
0.00461777
0.004217
0.00378666
0.00333874
0.00289304
0.00247254
0.00209525
0.00177302
0.00151303
0.0141699
0.0140647
0.0139598
0.0138543
0.013739
0.0136184
0.0134927
0.0133687
0.0132467
0.0131262
0.0129971
0.0128696
0.0127442
0.0126218
0.012494
0.0123626
0.0122269
0.0120928
0.0119587
0.0118254
0.011688
0.011544
0.011402
0.0112611
0.0111141
0.0109635
0.0108082
0.0106503
0.0104858
0.0103181
0.0101473
0.00997757
0.00980653
0.00963654
0.00946513
0.00929429
0.00912286
0.00895338
0.00878467
0.00861769
0.00845048
0.00828356
0.00811576
0.00794591
0.00777105
0.00758341
0.0073802
0.00716165
0.00692643
0.00667248
0.00639717
0.00609645
0.00576536
0.00539979
0.00499738
0.00455996
0.00409644
0.00362132
0.00315363
0.00271174
0.00231274
0.0152371
0.0151187
0.0150064
0.01489
0.014769
0.0146359
0.0145019
0.0143624
0.0142318
0.0141003
0.0139644
0.0138258
0.0136942
0.0135627
0.0134295
0.0132871
0.0131475
0.0130024
0.0128621
0.012724
0.012575
0.0124224
0.0122719
0.0121208
0.0119625
0.011796
0.0116285
0.0114545
0.0112739
0.0110897
0.0109062
0.0107265
0.0105453
0.0103671
0.0101878
0.0100107
0.0098346
0.00966643
0.00950021
0.00933934
0.0091758
0.00901522
0.00885347
0.00868993
0.00852352
0.00835004
0.00815962
0.00795414
0.00773649
0.0075101
0.00726595
0.00700562
0.00671741
0.00640322
0.00605284
0.00566935
0.00524567
0.00479291
0.00431438
0.00382493
0.00334467
0.000315462
0.000310893
0.000305897
0.000300514
0.000294943
0.00028928
0.000283688
0.000278371
0.000273493
0.000269174
0.000265482
0.000262475
0.00026011
0.00025831
0.000257009
0.000256127
0.000255562
0.00025523
0.000255082
0.000255087
0.000255199
0.000255399
0.000255678
0.000256001
0.000256391
0.000256819
0.000257307
0.000257843
0.000258421
0.000259045
0.000259707
0.000260405
0.000261133
0.000261887
0.000262651
0.000263422
0.000264193
0.000264948
0.000265664
0.000266333
0.000266956
0.000267511
0.00026799
0.000268401
0.00026873
0.000268975
0.000269162
0.000269319
0.000269454
0.000269573
0.00026971
0.000269902
0.000270128
0.000270404
0.000270734
0.000271118
0.000271514
0.00027188
0.00027223
0.000272558
0.000272846
0.000936933
0.000992077
0.00103536
0.00106147
0.00107269
0.00107289
0.00105956
0.0010335
0.000997134
0.000952598
0.000902158
0.000849243
0.00079657
0.000746193
0.000698742
0.000655956
0.000619482
0.000589321
0.000565061
0.000546071
0.000531525
0.000520568
0.000512479
0.000506511
0.000502445
0.00049972
0.000498233
0.000497754
0.000498148
0.000499283
0.000501043
0.000503308
0.000505945
0.000508811
0.00051177
0.000514683
0.000517393
0.000519762
0.000521628
0.000522834
0.000523227
0.00052265
0.000520958
0.000518015
0.000513728
0.000508064
0.000501072
0.000492925
0.000483917
0.000474507
0.000465279
0.000456891
0.000449965
0.000444983
0.000442271
0.000441838
0.000443458
0.000446658
0.000450893
0.000455557
0.000460316
0.00107903
0.00125085
0.00141951
0.00156849
0.00166843
0.00174682
0.00180056
0.00182442
0.00182242
0.00179755
0.00175072
0.00168642
0.00160867
0.00152111
0.00142591
0.00132835
0.00123556
0.00115097
0.00107682
0.00101515
0.000966213
0.000928993
0.000901749
0.000882543
0.00086959
0.000861684
0.00085777
0.000857077
0.000858962
0.000862868
0.000868359
0.000874933
0.00088208
0.000889301
0.000896081
0.000901971
0.000906503
0.000909246
0.000909769
0.000907703
0.000902742
0.000894695
0.000883449
0.000869032
0.000851507
0.000831118
0.000808179
0.000783143
0.000756564
0.000729283
0.00070247
0.000677633
0.000656692
0.000641566
0.000634122
0.000635562
0.000646328
0.000666087
0.000693833
0.000728083
0.000767175
0.000955421
0.00115303
0.00138208
0.00162002
0.00183669
0.0020326
0.00221296
0.00234212
0.00243145
0.00249035
0.00251518
0.00250886
0.00247588
0.00241786
0.00233657
0.00223561
0.00211918
0.00199936
0.0018823
0.00177443
0.00168078
0.00160464
0.00154649
0.00150483
0.001477
0.00146088
0.00145442
0.00145596
0.00146398
0.00147715
0.00149438
0.00151459
0.00153655
0.001559
0.00158077
0.00160072
0.00161769
0.00163058
0.00163832
0.00163989
0.00163442
0.00162124
0.00159987
0.00157013
0.00153199
0.00148595
0.00143267
0.00137315
0.00130841
0.00124002
0.00117
0.00110118
0.00103744
0.000983999
0.000947204
0.000933001
0.000944266
0.000981695
0.00104308
0.00112357
0.00121442
0.000868231
0.000993935
0.00118044
0.00141825
0.00168411
0.0019578
0.00222489
0.00246188
0.002665
0.00284184
0.00297088
0.0030524
0.00310147
0.00311685
0.00310102
0.00305878
0.00299144
0.00290124
0.00280034
0.00269626
0.00259533
0.00250507
0.00243093
0.00237525
0.00233744
0.00231648
0.0023108
0.00231878
0.00233829
0.00236726
0.00240409
0.00244699
0.00249393
0.00254275
0.00259144
0.00263798
0.00268036
0.00271665
0.00274483
0.002763
0.00276938
0.00276261
0.00274139
0.00270488
0.00265232
0.0025839
0.00249992
0.00240131
0.00228919
0.0021653
0.00203202
0.00189319
0.00175414
0.00162339
0.00151384
0.0014431
0.00141785
0.00144434
0.00151858
0.00162547
0.00175047
0.000966441
0.000978968
0.00105871
0.00120762
0.00142057
0.00168509
0.00198218
0.00228501
0.0025729
0.0028352
0.00305843
0.00323963
0.00338931
0.00349053
0.00354929
0.00358269
0.00359066
0.00357688
0.00354767
0.00350689
0.00346121
0.00341534
0.00337474
0.00334473
0.00332733
0.00332421
0.00333643
0.00336418
0.00340611
0.00346017
0.00352481
0.00359795
0.00367708
0.00375935
0.00384203
0.0039223
0.00399745
0.00406465
0.00412103
0.00416382
0.00419038
0.00419867
0.00418656
0.00415247
0.00409463
0.00401279
0.00390636
0.00377575
0.0036213
0.00344443
0.00324689
0.00303236
0.00280636
0.00257834
0.00236525
0.00219026
0.00207193
0.00202968
0.00206725
0.00216806
0.00230691
0.00131987
0.00119611
0.00114387
0.00116524
0.00126118
0.00143019
0.00166543
0.0019511
0.00226486
0.00258249
0.00288084
0.00314527
0.00337137
0.00355353
0.00369624
0.00381534
0.00389667
0.00395203
0.00399789
0.00403619
0.00407694
0.00411836
0.00416028
0.00420329
0.00425034
0.00430337
0.00436568
0.00443927
0.00452437
0.00461965
0.00472436
0.00483673
0.00495446
0.00507467
0.00519448
0.00531083
0.00542047
0.00551999
0.00560577
0.00567441
0.00572267
0.00574793
0.0057476
0.00571962
0.00566118
0.00557138
0.00544875
0.00529308
0.00510407
0.00488227
0.00462854
0.0043457
0.00403786
0.00371323
0.00338948
0.00309005
0.00284567
0.00269273
0.00265246
0.00271526
0.00284848
0.00196997
0.00169398
0.00149142
0.00136655
0.00132108
0.00135533
0.00146807
0.00165455
0.00190469
0.00220105
0.00251991
0.00283701
0.00313406
0.00339669
0.00362051
0.00380896
0.00396367
0.004092
0.00421214
0.00430792
0.00441822
0.00453653
0.0046626
0.00479564
0.00493632
0.00508182
0.00522983
0.00538045
0.00553642
0.00569626
0.00585982
0.00602528
0.00619091
0.00635507
0.00651536
0.00666931
0.0068139
0.00694535
0.00705939
0.00715217
0.00722091
0.00726183
0.00727257
0.00725093
0.00719345
0.00709782
0.00696277
0.00678609
0.00656812
0.00630806
0.00600653
0.00566452
0.00528404
0.00487298
0.00444712
0.00402827
0.00365721
0.00337968
0.00324278
0.00324987
0.00336549
0.00288795
0.00247685
0.00212618
0.00184551
0.00164462
0.00152697
0.00149372
0.00154258
0.00166989
0.0018685
0.0021251
0.00242271
0.00274202
0.00306181
0.0033642
0.00364288
0.00388388
0.00408811
0.00425884
0.00440478
0.0045784
0.00474433
0.00491985
0.00511268
0.00532896
0.00556324
0.00581006
0.006062
0.00631247
0.00656072
0.00680549
0.00704267
0.00726861
0.00748661
0.00769298
0.00788835
0.00807041
0.00823547
0.00837801
0.0084934
0.008583
0.00863738
0.0086588
0.00864278
0.0085882
0.00848784
0.008345
0.00814862
0.00790716
0.00761356
0.00727335
0.00688189
0.00643993
0.00595821
0.00544569
0.00492287
0.00443868
0.00405137
0.00382181
0.00377088
0.00386268
0.0049464
0.0183401
0.0185175
0.00204109
0.00515932
0.00707376
0.00125037
0.0061804
0.00128967
0.00334789
0.0106389
0.0152498
0.00125012
0.0140419
0.00663729
0.0191682
0.00126348
0.00665121
0.010042
0.00125415
0.00204181
0.0139241
0.0184779
0.00127767
0.00127947
0.00479372
0.00125384
0.00304322
0.00125996
0.00131395
0.00761585
0.00127935
0.00273117
0.00874572
0.0142579
0.00931007
0.00808598
0.0144856
0.00124678
0.0134457
0.00478156
0.0124547
0.00124676
0.0188862
0.00552747
0.00994925
0.00135296
0.0024084
0.00129804
0.0154638
0.0107671
0.0149468
0.00124517
0.00143657
0.00201969
0.00020934
0.00131154
0.00449153
0.00892335
0.0172793
0.00399334
0.00135664
0.00125509
0.00365441
0.0185221
0.00711467
0.00915317
0.0045272
0.00148652
0.00124254
0.0134695
0.0145973
0.00459551
0.000484418
0.00272182
0.0180469
0.0182302
0.0175384
0.00124248
0.0147282
0.00193849
0.012689
0.000825635
0.0188207
0.00124255
0.0123222
0.00128549
0.0117036
0.00182703
0.00158877
0.00555752
0.00124186
0.00137891
0.0166951
0.0183074
0.00134055
0.0110042
0.00473326
0.00178062
0.0184137
0.00361455
0.0173586
0.00851483
0.00124122
0.00124189
0.00124406
0.00592348
0.00668325
0.00126417
0.0187445
0.0181609
0.00166368
0.00833169
0.00752894
0.00539624
0.0121207
0.0101713
0.00140676
0.00593448
0.00142384
0.00102981
0.00586533
0.00152505
0.016634
0.0126863
0.00332333
0.00124621
0.0134674
0.0139433
0.00124634
0.00350368
0.00373934
0.00282548
0.00153682
0.0129219
0.00124566
0.00124191
0.0131323
0.0154368
0.00125309
0.00338524
0.0185263
0.0042935
0.00912352
0.00820708
0.0171515
0.000474942
0.00887943
0.00250117
0.0166289
0.0122009
0.000209179
0.0146286
0.0187643
0.0184715
0.00128385
0.00126832
0.00823578
0.00125405
0.00830927
0.000739166
0.00162263
0.00124378
0.00124739
0.00124292
0.0180827
0.00420358
0.00622451
0.00129303
0.0149253
0.00683997
0.00221349
0.0131252
0.00254569
0.00810392
0.00566267
0.0114933
0.00125939
0.00171177
0.00389206
0.0125351
0.0127863
0.0164671
0.0012477
0.00132574
0.00938191
0.00394338
0.0117597
0.00124466
0.00135341
0.00573937
0.00129861
0.0161586
0.0105431
0.00125178
0.00864249
0.00322888
0.0184301
0.00151717
0.00637639
0.00124751
0.00125353
0.0202345
0.0155733
0.0160583
0.00152554
0.00129469
0.00186024
0.0155376
0.00573036
0.0110496
0.0180342
0.015008
0.0180654
0.00382585
0.0193628
0.0177368
0.012591
0.0159496
0.0120355
0.00148349
0.00419217
0.00125142
0.00127127
0.0105657
0.00296236
0.00311157
0.00147083
0.00247144
0.0147919
0.0104273
0.00288798
0.018477
0.0141833
0.0043669
0.00124493
0.00428062
0.0181538
0.0134356
0.00145279
0.00959076
0.0035264
0.00329706
0.00257067
0.0171075
0.00724281
0.00411037
0.0191057
0.00138962
0.00124248
0.00142542
0.00231803
0.00963692
0.00129575
0.00150731
0.00124569
0.00778537
0.0190706
0.0182815
0.0138098
0.012062
0.0165996
0.0157575
0.00149088
0.00811925
0.0183571
0.00124607
0.00447597
0.00124266
0.00442336
0.00771394
0.00420688
0.00165468
0.00124629
0.0162551
0.00304463
0.00124291
0.00125545
0.00125865
0.00126157
0.00989759
0.00628851
0.0180021
0.00183782
0.00124286
0.0012439
0.00124163
0.0192359
0.00408297
0.00150808
0.012386
0.00595976
0.00164424
0.00124306
0.0081166
0.00124266
0.00217789
0.00391137
0.00747372
0.00270071
0.00141154
0.00173148
0.0171882
0.00494149
0.00256081
0.0156543
0.00131667
0.00124336
0.00124545
0.0191211
0.001275
0.0153297
0.00124531
0.012439
0.010687
0.00272394
0.00582745
0.00582125
0.00154651
0.0134214
0.0127209
0.00264202
0.0211635
0.010613
0.0155726
0.0139499
0.0189382
0.00831671
0.0188296
0.00453181
0.00663484
0.0156498
0.0168967
0.0130441
0.0120419
0.0014078
0.016633
0.00568812
0.0180087
0.00362816
0.00133379
0.00124654
0.00129915
0.00387115
0.010329
0.0077338
0.00612969
0.00124899
0.0186949
0.00124612
0.00701144
0.0139748
0.0186311
0.0154602
0.0162905
0.00165394
0.00147294
0.00162387
0.00835081
0.00220011
0.00585783
0.00975157
0.0105956
0.0185787
0.0184869
0.0157864
0.00131314
0.0167585
0.0182922
0.00273121
0.00125433
0.0184689
0.0185826
0.00127867
0.0114175
0.00125531
0.0105547
0.017426
0.0112246
0.019217
0.00528605
0.0187962
0.00127567
0.0189039
0.0013912
0.0171489
0.0179521
0.0116438
0.0168659
0.0129712
0.00833765
0.0107668
0.00147026
0.0037407
0.00124338
0.00205662
0.00128505
0.00728216
0.00138457
0.0186332
0.00124362
0.00125584
0.00176634
0.00913989
0.00512136
0.0137043
0.00147141
0.0191901
0.00779617
0.0182855
0.00610911
0.0160796
0.0105301
0.00129932
0.0169022
0.0182147
0.00124997
0.0178971
0.0145372
0.00124426
0.00124178
0.00886725
0.00184011
0.013335
0.00161029
0.00667206
0.00365326
0.00951351
0.015471
0.0192033
0.0156676
0.0182401
0.0170623
0.0014075
0.00131168
0.00893665
0.0116548
0.015275
0.01131
0.0186022
0.00454947
0.0184
0.0183752
0.00657424
0.00287739
0.0153635
0.0145465
0.0013259
0.0184
0.0141572
0.00144851
0.0191285
0.0170305
0.0154071
0.00342801
0.00461962
0.0135116
0.00165498
0.0154341
0.00153871
0.00324476
0.00125175
0.0116236
0.00279852
0.00862091
0.00156768
0.00136843
0.00875785
0.00866418
0.00160979
0.00290487
0.0109652
0.00275553
0.00131649
0.0165178
0.0089999
0.0129543
0.00772607
0.00350121
0.0119887
0.0178339
0.0184924
0.00645502
0.0121931
0.0162082
0.00593409
0.0146751
0.0188734
0.000404185
0.00625534
0.0120331
0.00129738
0.00314846
0.00775242
0.0122499
0.00278349
0.021087
0.00410203