/*--------------------------------*- C++ -*----------------------------------*\
| =========                 |                                                 |
| \\      /  F ield         | OpenFOAM: The Open Source CFD Toolbox           |
|  \\    /   O peration     | Version:  2.3.1                                 |
|   \\  /    A nd           | Web:      www.OpenFOAM.org                      |
|    \\/     M anipulation  |                                                 |
\*---------------------------------------------------------------------------*/
FoamFile
{
    version     2.0;
    format      ascii;
    class       surfaceScalarField;
    location    "0.69";
    object      phi;
}
// * * * * * * * * * * * * * * * * * * * * * * * * * * * * * * * * * * * * * //

dimensions      [0 3 -1 0 0 0 0];

internalField   nonuniform List<scalar> 
15416
(
-0.000705116
-5.86223e-06
0.000708038
-0.000701184
-3.92519e-06
-0.000698907
-2.27271e-06
-0.000697846
-1.05652e-06
-0.000698055
2.13653e-07
-0.000699839
1.78864e-06
-0.000703911
4.07593e-06
-0.000710446
6.54083e-06
-0.000719694
9.25266e-06
-0.00073198
1.22903e-05
-0.000747714
1.57396e-05
-0.000767116
1.94067e-05
-0.00079032
2.32097e-05
-0.00081741
2.70947e-05
-0.000848477
3.10734e-05
-0.000883445
3.49744e-05
-0.000922129
3.86894e-05
-0.00096432
4.21983e-05
-0.00100988
4.5566e-05
-0.00105848
4.86079e-05
-0.00110986
5.13862e-05
-0.00116376
5.39118e-05
-0.00121983
5.60801e-05
-0.00127771
5.78847e-05
-0.00133715
5.94464e-05
-0.00139791
6.07684e-05
-0.00145969
6.17922e-05
-0.00152218
6.2498e-05
-0.00158515
6.2985e-05
-0.00164844
6.32948e-05
-0.00171174
6.33156e-05
-0.00177486
6.31308e-05
-0.00183771
6.28538e-05
-0.00190003
6.23388e-05
-0.00196165
6.163e-05
-0.00202251
6.08705e-05
-0.00208251
6.00016e-05
-0.00214145
5.89522e-05
-0.00219912
5.76776e-05
-0.0022555
5.63875e-05
-0.00231057
5.50834e-05
-0.00236416
5.36024e-05
-0.00241616
5.20052e-05
-0.00246661
5.04539e-05
-0.00251523
4.86247e-05
-0.00256199
4.67707e-05
-0.00260701
4.50264e-05
-0.00265029
4.3288e-05
-0.00269164
4.13557e-05
-0.002731
3.93586e-05
-0.00276833
3.73359e-05
-0.00280381
3.54827e-05
-0.00283694
3.3132e-05
-0.00286818
3.12407e-05
-0.00289732
2.91408e-05
-0.00292472
2.74039e-05
-0.00294943
2.47165e-05
-0.00297188
2.24537e-05
-0.00299243
2.05487e-05
-0.00301124
1.88058e-05
1.70961e-05
-0.00302833
-0.000403408
-4.79537e-06
0.000402336
-0.000405952
-1.38982e-06
-0.0004106
2.36871e-06
-0.000418541
6.87654e-06
-0.000430721
1.23866e-05
-0.000446524
1.75845e-05
-0.000466129
2.36735e-05
-0.000489435
2.98384e-05
-0.00051707
3.68802e-05
-0.0005486
4.38132e-05
-0.000584226
5.13583e-05
-0.000623814
5.89893e-05
-0.00066727
6.66603e-05
-0.000714475
7.42947e-05
-0.000765137
8.17303e-05
-0.000819122
8.89557e-05
-0.000876172
9.5736e-05
-0.000936077
0.0001021
-0.000998483
0.000107969
-0.00106319
0.000113311
-0.00112998
0.000118171
-0.00119841
0.000122341
-0.00126829
0.000125962
-0.00133941
0.000129003
-0.00141146
0.00013149
-0.00148419
0.000133496
-0.00155727
0.000134871
-0.00163065
0.000135875
-0.00170402
0.000136354
-0.00177706
0.000136334
-0.00184978
0.000136038
-0.00192203
0.000135371
-0.00199339
0.00013422
-0.00206386
0.000132804
-0.00213342
0.000131194
-0.0022017
0.000129145
-0.00226871
0.000127016
-0.00233433
0.000124569
-0.00239855
0.000121891
-0.00246115
0.000118989
-0.00252183
0.00011577
-0.00258089
0.000112658
-0.00263812
0.000109234
-0.00269326
0.000105592
-0.00274648
0.000101845
-0.00279759
9.78836e-05
-0.00284667
9.4105e-05
-0.00289328
8.99008e-05
-0.00293781
8.58803e-05
-0.00298019
8.17404e-05
-0.00302043
7.75709e-05
-0.00305882
7.38823e-05
-0.00309375
6.80617e-05
-0.00312799
6.5479e-05
-0.00315841
5.95572e-05
-0.00318727
5.62735e-05
-0.00321178
4.92261e-05
-0.00323612
4.67947e-05
-0.00325818
4.26036e-05
-0.00327806
3.86877e-05
3.26249e-05
-0.00329358
-0.000259228
4.01606e-06
0.000250419
-0.000270973
1.03578e-05
-0.000286599
1.79963e-05
-0.000306223
2.65024e-05
-0.000329466
3.56307e-05
-0.000357126
4.52453e-05
-0.000388759
5.53075e-05
-0.00042467
6.57504e-05
-0.000464787
7.69979e-05
-0.000509227
8.82539e-05
-0.000557729
9.98614e-05
-0.000609926
0.000111188
-0.000665954
0.000122689
-0.000725439
0.00013378
-0.000788184
0.000144477
-0.00085391
0.000154684
-0.000922398
0.000164227
-0.000993374
0.000173079
-0.00106652
0.000181117
-0.00114167
0.000188467
-0.00121837
0.000194874
-0.00129654
0.000200514
-0.00137588
0.000205301
-0.00145612
0.000209247
-0.00153697
0.000212345
-0.00161819
0.000214721
-0.00169962
0.000216303
-0.00178098
0.000217242
-0.001862
0.000217373
-0.00194277
0.00021711
-0.00202283
0.000216101
-0.00210197
0.000214513
-0.00218038
0.000212637
-0.00225759
0.000210016
-0.0023335
0.00020711
-0.00240808
0.000203728
-0.00248115
0.000200092
-0.00255257
0.000195989
-0.00262229
0.000191613
-0.0026902
0.000186909
-0.00275637
0.000181933
-0.00282021
0.000176503
-0.00288211
0.000171142
-0.00294183
0.00016531
-0.00299935
0.000159366
-0.00305469
0.000153229
-0.00310761
0.000147024
-0.00315821
0.000140512
-0.00320625
0.000133922
-0.00325249
0.000127982
-0.00329502
0.000120102
-0.00333495
0.000113812
-0.00337324
0.000106359
-0.00340923
0.000101468
-0.00344306
9.3391e-05
-0.0034726
8.58133e-05
-0.00350199
7.86145e-05
-0.00352704
7.18506e-05
-0.00354986
6.54256e-05
-0.00356841
5.72355e-05
5.10677e-05
-0.00358685
-0.000188402
2.0402e-05
0.000172015
-0.000208833
3.07878e-05
-0.000233261
4.24225e-05
-0.000261715
5.49543e-05
-0.000294355
6.82684e-05
-0.000331338
8.22259e-05
-0.000372587
9.65533e-05
-0.000418476
0.000111637
-0.00046859
0.000127108
-0.000523047
0.000142709
-0.000581426
0.000158239
-0.000643928
0.000173687
-0.00071013
0.000188891
-0.00077962
0.000203269
-0.000852339
0.000217195
-0.000927938
0.000230281
-0.00100613
0.000242419
-0.00108662
0.000253564
-0.00116918
0.000263677
-0.0012534
0.000272687
-0.00133926
0.000280737
-0.00142626
0.000287515
-0.00151431
0.000293348
-0.00160307
0.000298011
-0.00169237
0.000301643
-0.00178178
0.00030413
-0.0018712
0.000305723
-0.00196043
0.000306474
-0.00204934
0.000306281
-0.00213745
0.000305218
-0.00222484
0.000303496
-0.00231139
0.000301062
-0.00239656
0.000297805
-0.00248056
0.000294015
-0.00256318
0.00028973
-0.00264426
0.000284806
-0.00272347
0.000279302
-0.00280098
0.000273504
-0.00287658
0.000267208
-0.00295029
0.000260618
-0.00302168
0.000253327
-0.00309115
0.000245969
-0.00315803
0.000238022
-0.00322268
0.000229964
-0.00328483
0.000221511
-0.00334446
0.000212859
-0.00340152
0.00020409
-0.00345632
0.00019531
-0.00350774
0.000185349
-0.00355662
0.000176861
-0.00360408
0.000167564
-0.00364743
0.000157163
-0.00368856
0.000147482
-0.00372554
0.000138453
-0.00376216
0.000130015
-0.00379463
0.000118287
-0.00382484
0.000108819
-0.00385279
9.98083e-05
-0.00387655
8.91771e-05
-0.00389804
7.87344e-05
6.83659e-05
-0.00391534
-0.000154995
4.35361e-05
0.000131861
-0.000182115
5.79072e-05
-0.000213647
7.39536e-05
-0.000249698
9.10048e-05
-0.000290288
0.000108856
-0.000335621
0.000127558
-0.000385884
0.000146814
-0.00044056
0.00016631
-0.000499908
0.000186455
-0.000563566
0.000206364
-0.000631589
0.000226259
-0.000703676
0.000245773
-0.000779304
0.000264517
-0.000858514
0.000282478
-0.000941103
0.000299783
-0.00102606
0.000315237
-0.00111369
0.000330053
-0.00120356
0.000343435
-0.0012953
0.000355412
-0.00138875
0.000366135
-0.00148355
0.000375541
-0.0015796
0.000383567
-0.00167649
0.000390238
-0.00177396
0.000395476
-0.00187162
0.000399303
-0.00196955
0.000402056
-0.00206723
0.000403411
-0.00216452
0.000403767
-0.00226125
0.000403003
-0.00235728
0.000401253
-0.00245231
0.000398528
-0.0025461
0.000394854
-0.00263866
0.000390364
-0.00272981
0.000385166
-0.00281922
0.000379132
-0.00290682
0.00037241
-0.00299281
0.000365287
-0.00307663
0.000357327
-0.00315833
0.000348908
-0.00323769
0.00033998
-0.003315
0.000330633
-0.00338973
0.000320707
-0.00346207
0.000310356
-0.00353174
0.00029964
-0.00359874
0.00028851
-0.00366368
0.000277805
-0.00372384
0.000264254
-0.00378194
0.000253403
-0.00383835
0.000241765
-0.00389079
0.000229299
-0.00394091
0.000217693
-0.00398883
0.00020508
-0.00403275
0.000191408
-0.00407441
0.000180112
-0.00411006
0.000165663
-0.00414525
0.000153477
-0.00417819
0.000141769
-0.00420695
0.000128561
-0.00423153
0.000113763
-0.00425585
0.000103053
8.85026e-05
-0.00427598
-0.000140326
7.29284e-05
0.000110933
-0.00017426
9.18413e-05
-0.000212817
0.000112509
-0.000256578
0.000134765
-0.000305448
0.000157724
-0.000359255
0.000181363
-0.000418027
0.000205585
-0.00048194
0.000230221
-0.000550492
0.000255004
-0.000623929
0.0002798
-0.00070175
0.000304078
-0.000783501
0.000327523
-0.000869212
0.000350226
-0.000958087
0.000371351
-0.00104993
0.000391628
-0.00114479
0.000410088
-0.00124214
0.000427403
-0.00134182
0.000443112
-0.00144314
0.000456738
-0.00154599
0.00046898
-0.00165029
0.000479839
-0.00175545
0.000488729
-0.00186151
0.000496295
-0.00196805
0.000502019
-0.00207482
0.000506077
-0.00218141
0.000508644
-0.00228776
0.000509764
-0.00239352
0.000509527
-0.00249858
0.000508059
-0.00260275
0.000505421
-0.00270578
0.00050156
-0.00280736
0.00049643
-0.00290752
0.000490526
-0.00300606
0.000483705
-0.00310265
0.000475725
-0.00319739
0.000467147
-0.00328994
0.000457838
-0.00338031
0.000447704
-0.00346849
0.000437085
-0.00355437
0.000425858
-0.00363745
0.000413719
-0.00371803
0.000401283
-0.00379574
0.000388069
-0.00387019
0.00037409
-0.00394208
0.000360402
-0.0040113
0.000347024
-0.00407846
0.000331413
-0.00414156
0.000316509
-0.00420068
0.000300883
-0.00425752
0.000286139
-0.00431036
0.000270532
-0.0043591
0.000253823
-0.00440737
0.000239686
-0.00444983
0.000222569
-0.00449186
0.000207693
-0.00452975
0.000191372
-0.00456148
0.000173501
-0.00459091
0.000157996
-0.00462013
0.000142983
-0.00464328
0.000126203
0.000109443
-0.00466422
-0.00013902
0.000108485
0.000103461
-0.000179893
0.000132714
-0.000226115
0.00015873
-0.00027804
0.000186689
-0.000335233
0.000214915
-0.000398111
0.000244239
-0.000466318
0.00027379
-0.000539601
0.000303501
-0.000618226
0.000333626
-0.000701291
0.000362862
-0.000789218
0.000392003
-0.000881399
0.000419702
-0.00097712
0.000445944
-0.00107613
0.000470362
-0.00117874
0.000494237
-0.00128404
0.000515386
-0.00139147
0.00053483
-0.0015012
0.000552841
-0.00161254
0.00056808
-0.00172552
0.000581959
-0.00183968
0.000593998
-0.00195472
0.000603761
-0.0020706
0.000612176
-0.00218678
0.000618205
-0.00230294
0.000622237
-0.00241893
0.000624627
-0.00253418
0.000625012
-0.002649
0.00062435
-0.00276296
0.000622016
-0.00287558
0.000618041
-0.00298708
0.000613058
-0.003097
0.000606348
-0.0032049
0.000598429
-0.00331114
0.000589944
-0.00341549
0.000580079
-0.0035174
0.000569058
-0.00361719
0.000557623
-0.00371445
0.000544968
-0.00380914
0.000531778
-0.00390123
0.000517946
-0.00399073
0.000503219
-0.00407662
0.000487176
-0.00416021
0.000471662
-0.00424062
0.000454502
-0.00431826
0.00043804
-0.00439188
0.000420643
-0.00446158
0.000401114
-0.00452885
0.000383783
-0.00459381
0.000365843
-0.004653
0.00034533
-0.00470993
0.000327459
-0.00476456
0.000308461
-0.00481341
0.000288531
-0.00486014
0.000269305
-0.00490283
0.000250383
-0.00494128
0.00022982
-0.00497922
0.000211446
-0.00501104
0.000189824
-0.00503889
0.000170831
-0.00506275
0.000150064
0.00013107
-0.00508438
-0.000148557
0.000150386
0.000106655
-0.000196733
0.000180889
-0.000250862
0.000212857
-0.000311755
0.00024758
-0.000378334
0.000281492
-0.000450645
0.000316548
-0.000528815
0.000351957
-0.000611883
0.000386567
-0.000700942
0.000422682
-0.000794578
0.000456495
-0.000893747
0.000491169
-0.000996512
0.000522464
-0.00110391
0.000553339
-0.00121359
0.000580038
-0.00132667
0.000607313
-0.00144327
0.000631985
-0.00156177
0.000653333
-0.00168233
0.000673402
-0.00180498
0.000690725
-0.00192794
0.000704919
-0.00205292
0.000718969
-0.00217809
0.000728931
-0.0023047
0.00073879
-0.00243143
0.000744935
-0.00255757
0.000748371
-0.00268374
0.000750803
-0.00280842
0.00074969
-0.00293264
0.000748563
-0.00305606
0.000745436
-0.00317738
0.000739357
-0.003298
0.000733675
-0.00341678
0.00072513
-0.00353286
0.000714505
-0.00364731
0.000704402
-0.00375993
0.000692702
-0.00386917
0.000678293
-0.00397634
0.000664796
-0.00408082
0.000649446
-0.00418186
0.000632823
-0.00428059
0.000616676
-0.00437684
0.000599464
-0.00447018
0.000580519
-0.00455785
0.00055933
-0.00464476
0.000541413
-0.00472662
0.0005199
-0.00480406
0.000498082
-0.00488116
0.000478209
-0.00495192
0.000454552
-0.00501911
0.000433027
-0.00508343
0.000409652
-0.00514261
0.000386644
-0.00519911
0.000364959
-0.00525162
0.000341039
-0.00530238
0.000320069
-0.00534753
0.000295529
-0.0053899
0.000272196
-0.00542628
0.000247827
-0.00545797
0.000221507
-0.00548795
0.000200815
-0.0055144
0.000176516
0.000153084
-0.00553641
-0.000166758
0.000119292
0.000197855
-0.000223494
0.000237629
-0.000284822
0.000274188
-0.00035617
0.000318929
-0.000432034
0.000357355
-0.000514777
0.00039929
-0.000603725
0.000440901
-0.000696004
0.000478843
-0.000797957
0.000524631
-0.00090102
0.000559553
-0.00101383
0.000603977
-0.00112663
0.000635264
-0.00124904
0.00067574
-0.00136742
0.000698413
-0.00149328
0.00073317
-0.00162265
0.000761354
-0.0017509
0.000781586
-0.00188494
0.000807442
-0.00201895
0.000824727
-0.00215219
0.00083816
-0.00229194
0.000858713
-0.00242576
0.00086275
-0.00256489
0.00087792
-0.00270323
0.000883282
-0.00283956
0.000884697
-0.00297838
0.000889618
-0.00311154
0.000882854
-0.00324632
0.000883337
-0.00338091
0.00088002
-0.00351018
0.000868629
-0.00364131
0.000864807
-0.00376918
0.000853002
-0.00389345
0.000838772
-0.00401656
0.000827516
-0.00413962
0.00081576
-0.00425439
0.000793066
-0.00437075
0.000781153
-0.00448258
0.000761274
-0.00458958
0.000739815
-0.00469706
0.00072415
-0.0047965
0.000698905
-0.00489666
0.000680682
-0.00499077
0.000653435
-0.00508152
0.00063217
-0.00517131
0.000609686
-0.00525358
0.000580343
-0.0053346
0.000559236
-0.00540854
0.000528487
-0.00548044
0.00050493
-0.00554615
0.000475361
-0.00561181
0.000452295
-0.00567039
0.000423543
-0.00572581
0.000396461
-0.00577735
0.000371611
-0.00582656
0.000344733
-0.00586782
0.000313456
-0.00590754
0.000287553
-0.00594075
0.000254716
-0.00597135
0.00023141
-0.00599847
0.000203638
-0.00601991
0.000174519
-0.00304184
1.35052e-05
-0.00305353
1.16949e-05
-0.00306354
1.00039e-05
-0.00307166
8.12561e-06
-0.00307753
5.87131e-06
-0.00308079
3.25455e-06
-0.00308229
1.50304e-06
-0.0030817
-5.89133e-07
-0.00307913
-2.57978e-06
-0.00307412
-5.00867e-06
-0.00306722
-6.89711e-06
-0.00305829
-8.93513e-06
-0.00304729
-1.09947e-05
-0.00303423
-1.30606e-05
-0.00301941
-1.48192e-05
-0.00300275
-1.66622e-05
-0.00298406
-1.86861e-05
-0.00296333
-2.07323e-05
-0.0029409
-2.24344e-05
-0.00291659
-2.43133e-05
-0.00289048
-2.61055e-05
-0.00286275
-2.77282e-05
-0.00283328
-2.94721e-05
-0.00280197
-3.13046e-05
-0.00276903
-3.29423e-05
-0.0027347
-3.43239e-05
-0.00269871
-3.59941e-05
-0.00266105
-3.76593e-05
-0.00262185
-3.91987e-05
-0.00258127
-4.0579e-05
-0.0025392
-4.20693e-05
-0.00249568
-4.35153e-05
-0.00245092
-4.47619e-05
-0.00240485
-4.60759e-05
-0.00235744
-4.74043e-05
-0.00230888
-4.8564e-05
-0.00225922
-4.96567e-05
-0.00220844
-5.07826e-05
-0.00215646
-5.1982e-05
-0.00210344
-5.30169e-05
-0.00204953
-5.39111e-05
-0.00199468
-5.48447e-05
-0.00193892
-5.57648e-05
-0.0018824
-5.65165e-05
-0.00182499
-5.74145e-05
-0.00176676
-5.82258e-05
-0.00170791
-5.88579e-05
-0.0016485
-5.94052e-05
-0.00158843
-6.00738e-05
-0.00152779
-6.06421e-05
-0.0014667
-6.10912e-05
-0.00140528
-6.14261e-05
-0.00134334
-6.19451e-05
-0.00128117
-6.21678e-05
-0.00121877
-6.2405e-05
-0.00115634
-6.24302e-05
-0.00109362
-6.27214e-05
-0.00103085
-6.27756e-05
-0.000968203
-6.26501e-05
-0.000905757
-6.24488e-05
-6.2209e-05
-0.000843551
-0.00330896
2.88846e-05
-0.00331977
2.25032e-05
-0.00332856
1.88013e-05
-0.00333513
1.47007e-05
-0.00334158
1.23193e-05
-0.00334384
5.51559e-06
-0.00334453
2.20162e-06
-0.00334144
-3.68269e-06
-0.00333769
-6.32354e-06
-0.00333035
-1.234e-05
-0.00332119
-1.60616e-05
-0.00330971
-2.04067e-05
-0.00329619
-2.45094e-05
-0.0032808
-2.84484e-05
-0.00326295
-3.26717e-05
-0.00324305
-3.65591e-05
-0.00322101
-4.07146e-05
-0.00319703
-4.47118e-05
-0.00317082
-4.86436e-05
-0.00314267
-5.24576e-05
-0.00311275
-5.6019e-05
-0.00308063
-5.98467e-05
-0.00304659
-6.35092e-05
-0.0030108
-6.70928e-05
-0.00297317
-7.05672e-05
-0.00293369
-7.38009e-05
-0.00289241
-7.72712e-05
-0.00284963
-8.04336e-05
-0.00280518
-8.36472e-05
-0.0027589
-8.68582e-05
-0.00271119
-8.97801e-05
-0.00266208
-9.26153e-05
-0.0026113
-9.55374e-05
-0.0025591
-9.82818e-05
-0.00250566
-0.000100838
-0.00245073
-0.000103489
-0.00239452
-0.000105868
-0.00233705
-0.000108249
-0.00227848
-0.00011055
-0.00221874
-0.000112756
-0.0021577
-0.000114944
-0.00209576
-0.000116786
-0.00203285
-0.000118668
-0.00196888
-0.00012049
-0.00190407
-0.000122215
-0.00183839
-0.000123904
-0.00177196
-0.000125294
-0.00170459
-0.000126765
-0.00163666
-0.00012801
-0.00156812
-0.000129175
-0.00149902
-0.000130197
-0.00142955
-0.000130887
-0.00135912
-0.000132383
-0.00128893
-0.000132356
-0.0012178
-0.000133527
-0.0011467
-0.000133531
-0.00107479
-0.000134631
-0.0010035
-0.000134064
-0.000932167
-0.000133988
-0.000860846
-0.00013377
-0.000133961
-0.000789095
-0.00360095
4.29874e-05
-0.00361515
3.67029e-05
-0.00362489
2.85411e-05
-0.00363235
2.21667e-05
-0.00363553
1.54956e-05
-0.00363885
8.83457e-06
-0.00363773
1.08282e-06
-0.00363458
-6.83378e-06
-0.00362911
-1.17946e-05
-0.00362196
-1.94944e-05
-0.00361233
-2.56892e-05
-0.00359896
-3.37751e-05
-0.00358387
-3.96022e-05
-0.00356616
-4.61628e-05
-0.00354613
-5.26976e-05
-0.0035237
-5.8995e-05
-0.00349909
-6.5321e-05
-0.00347228
-7.15263e-05
-0.00344321
-7.77205e-05
-0.00341217
-8.34988e-05
-0.00337862
-8.95634e-05
-0.00334317
-9.53014e-05
-0.00330568
-0.000101002
-0.00326619
-0.000106587
-0.00322464
-0.000112115
-0.00318108
-0.000117363
-0.0031357
-0.000122652
-0.00308842
-0.000127717
-0.00303918
-0.000132889
-0.0029885
-0.000137535
-0.00293595
-0.000142338
-0.0028816
-0.00014697
-0.00282595
-0.000151187
-0.0027686
-0.00015563
-0.0027097
-0.000159738
-0.00264939
-0.000163799
-0.00258763
-0.000167634
-0.00252444
-0.000171434
-0.00245998
-0.000175017
-0.00239428
-0.000178459
-0.0023275
-0.000181719
-0.00225933
-0.000184959
-0.00219021
-0.000187784
-0.00212002
-0.000190684
-0.00204887
-0.000193361
-0.00197685
-0.00019593
-0.00190389
-0.00019825
-0.00183014
-0.000200522
-0.00175555
-0.000202593
-0.00168062
-0.000204112
-0.0016044
-0.000206419
-0.00152759
-0.000207695
-0.00145065
-0.000209322
-0.00137335
-0.00020966
-0.00129576
-0.000211108
-0.00121727
-0.000212025
-0.00113938
-0.000212525
-0.00106079
-0.000212653
-0.000982234
-0.00021254
-0.000903269
-0.000212735
-0.00021227
-0.00082496
-0.00393237
6.00228e-05
-0.0039453
4.96278e-05
-0.00395594
3.91849e-05
-0.00396232
2.85468e-05
-0.00396651
1.969e-05
-0.00396825
1.05731e-05
-0.00396563
-1.53644e-06
-0.00396308
-9.3796e-06
-0.0039565
-1.83738e-05
-0.00394787
-2.81221e-05
-0.00393498
-3.85799e-05
-0.00392089
-4.78593e-05
-0.00390429
-5.62058e-05
-0.00388426
-6.61902e-05
-0.00386204
-7.49201e-05
-0.00383727
-8.37635e-05
-0.00381
-9.25926e-05
-0.00378019
-0.00010133
-0.00374816
-0.000109752
-0.00371344
-0.00011821
-0.00367679
-0.000126217
-0.00363761
-0.000134477
-0.00359635
-0.000142265
-0.00355286
-0.000150072
-0.00350735
-0.000157625
-0.00345946
-0.000165251
-0.00340955
-0.000172564
-0.0033577
-0.000179569
-0.00330404
-0.000186544
-0.00324814
-0.000193438
-0.00319055
-0.000199927
-0.00313131
-0.000206207
-0.00307004
-0.000212455
-0.00300725
-0.000218418
-0.00294287
-0.000224123
-0.00287692
-0.000229745
-0.00280923
-0.000235323
-0.00274017
-0.0002405
-0.00266968
-0.000245507
-0.00259793
-0.000250205
-0.0025247
-0.000254949
-0.00245049
-0.000259162
-0.0023749
-0.000263379
-0.0022983
-0.00026728
-0.00222059
-0.000271073
-0.00214184
-0.00027468
-0.00206213
-0.000277956
-0.00198171
-0.000280943
-0.00190012
-0.000284189
-0.0018178
-0.000286425
-0.00173544
-0.000288782
-0.00165176
-0.000291369
-0.00156773
-0.000293354
-0.00148264
-0.000294755
-0.00139803
-0.000295715
-0.00131262
-0.000297439
-0.00122711
-0.000298028
-0.00114166
-0.000298108
-0.0010557
-0.000298501
-0.00096993
-0.000298501
-0.000298318
-0.000883881
-0.00429189
7.59351e-05
-0.00430362
6.13558e-05
-0.0043151
5.06689e-05
-0.0043224
3.58411e-05
-0.00432548
2.2779e-05
-0.00432626
1.13529e-05
-0.00432718
-6.17774e-07
-0.00432154
-1.5019e-05
-0.00431381
-2.61045e-05
-0.00430216
-3.97732e-05
-0.00428843
-5.2312e-05
-0.00427251
-6.37769e-05
-0.00425256
-7.61494e-05
-0.00423115
-8.76025e-05
-0.00420788
-9.81907e-05
-0.00417959
-0.000112051
-0.00414938
-0.000122804
-0.0041165
-0.000134214
-0.00408092
-0.000145325
-0.00404299
-0.000156137
-0.00400242
-0.000166795
-0.00395973
-0.00017716
-0.00391445
-0.000187542
-0.00386675
-0.00019778
-0.00381647
-0.000207901
-0.00376422
-0.000217503
-0.00370968
-0.000227106
-0.00365282
-0.000236428
-0.00359388
-0.000245485
-0.003533
-0.000254312
-0.00346999
-0.000262941
-0.00340495
-0.00027124
-0.00333818
-0.000279229
-0.00326965
-0.000286953
-0.00319923
-0.000294541
-0.003127
-0.00030197
-0.00305338
-0.000308941
-0.00297793
-0.000315953
-0.00290093
-0.000322504
-0.00282235
-0.000328788
-0.00274261
-0.000334689
-0.00266144
-0.000340328
-0.00257915
-0.000345677
-0.00249559
-0.000350834
-0.0024109
-0.000355761
-0.00232549
-0.000360098
-0.00223786
-0.000365577
-0.00214978
-0.000369026
-0.00206148
-0.000372487
-0.00197178
-0.000376127
-0.0018816
-0.00037896
-0.00179108
-0.000381895
-0.00169945
-0.000384977
-0.00160753
-0.000386681
-0.00151396
-0.000389275
-0.00142102
-0.000390382
-0.00132804
-0.000391004
-0.00123459
-0.00039156
-0.00114073
-0.000392361
-0.00104766
-0.000391568
-0.000391668
-0.000954314
-0.00468097
9.26901e-05
-0.00469553
7.59156e-05
-0.00470392
5.90572e-05
-0.0047121
4.40207e-05
-0.00471807
2.87571e-05
-0.00471791
1.11896e-05
-0.00471366
-4.86403e-06
-0.00470915
-1.95319e-05
-0.00469866
-3.65919e-05
-0.00468798
-5.04472e-05
-0.00467327
-6.70277e-05
-0.00465454
-8.25006e-05
-0.00463371
-9.69854e-05
-0.00460893
-0.000112375
-0.00458014
-0.000126979
-0.00454945
-0.000142744
-0.00451616
-0.000156089
-0.00448039
-0.000169989
-0.00444128
-0.000184435
-0.0043994
-0.000198011
-0.00435505
-0.000211147
-0.00430778
-0.000224428
-0.00425801
-0.000237317
-0.00420573
-0.000250054
-0.004151
-0.000262638
-0.00409355
-0.000274946
-0.00403391
-0.000286751
-0.00397178
-0.000298557
-0.00390735
-0.000309917
-0.00384085
-0.000320806
-0.003772
-0.000331788
-0.00370101
-0.000342232
-0.00362811
-0.000352133
-0.00355336
-0.000361696
-0.00347649
-0.000371419
-0.00339794
-0.00038052
-0.00331735
-0.000389533
-0.00323502
-0.000398276
-0.00315114
-0.00040639
-0.00306573
-0.000414193
-0.00297859
-0.000421837
-0.0028902
-0.000428711
-0.00280045
-0.000435429
-0.00270916
-0.000442123
-0.00261696
-0.000447964
-0.00252362
-0.000453441
-0.00242978
-0.000459413
-0.00233426
-0.000464548
-0.00223747
-0.000469277
-0.00214018
-0.000473414
-0.00204168
-0.000477466
-0.00194213
-0.000481438
-0.00184296
-0.00048415
-0.00174219
-0.000487452
-0.00164176
-0.000489702
-0.0015407
-0.000491445
-0.00143834
-0.000493364
-0.00133635
-0.000493549
-0.00123503
-0.000493678
-0.00113309
-0.000493514
-0.000493344
-0.00103141
-0.00510186
0.000110175
-0.00511713
9.11895e-05
-0.0051283
7.02309e-05
-0.00513533
5.10507e-05
-0.0051363
2.97214e-05
-0.00513714
1.20342e-05
-0.00513382
-8.17868e-06
-0.00512639
-2.6961e-05
-0.00511688
-4.61032e-05
-0.00510157
-6.57541e-05
-0.00508423
-8.43718e-05
-0.00506467
-0.000102055
-0.00503923
-0.000122423
-0.00501178
-0.000139832
-0.00498234
-0.000156412
-0.00494893
-0.000176153
-0.00491149
-0.000193531
-0.00487121
-0.000210265
-0.00482776
-0.000227889
-0.00478242
-0.000243348
-0.00473339
-0.000260174
-0.00468185
-0.000275976
-0.00462741
-0.000291755
-0.00457006
-0.000307404
-0.00450993
-0.000322773
-0.00444714
-0.000337727
-0.00438166
-0.00035223
-0.00431392
-0.000366305
-0.0042438
-0.000380029
-0.00417111
-0.0003935
-0.00409597
-0.000406933
-0.00401868
-0.000419514
-0.00393902
-0.000431791
-0.00385755
-0.00044317
-0.00377407
-0.000454899
-0.00368846
-0.000466133
-0.00360084
-0.00047715
-0.00351116
-0.000487954
-0.00341967
-0.000497881
-0.0033264
-0.000507459
-0.00323162
-0.000516622
-0.00313487
-0.000525464
-0.00303732
-0.000532975
-0.00293848
-0.000540963
-0.00283864
-0.000547809
-0.0027368
-0.000555277
-0.0026336
-0.000562611
-0.00252976
-0.000568391
-0.00242568
-0.000573357
-0.00231938
-0.000579717
-0.00221263
-0.00058421
-0.00210572
-0.000588355
-0.00199694
-0.000592926
-0.00188806
-0.000596329
-0.00177806
-0.0005997
-0.0016676
-0.000601906
-0.00155764
-0.000603332
-0.00144701
-0.000604178
-0.00133597
-0.000604717
-0.00122507
-0.000604411
-0.000604002
-0.00111441
-0.00555448
0.000128249
-0.0055682
0.00010491
-0.00557812
8.01489e-05
-0.00558568
5.86133e-05
-0.00558945
3.34978e-05
-0.00558739
9.97346e-06
-0.00558332
-1.22483e-05
-0.00557285
-3.74251e-05
-0.00556037
-5.85906e-05
-0.00554449
-8.16276e-05
-0.00552651
-0.00010235
-0.00550259
-0.000125974
-0.00547632
-0.000148695
-0.00544634
-0.00016981
-0.00541102
-0.000191731
-0.00537507
-0.000212104
-0.00533522
-0.000233384
-0.00528937
-0.000256109
-0.00524308
-0.000274184
-0.00519184
-0.000294587
-0.00513739
-0.000314621
-0.00508096
-0.000332406
-0.00502175
-0.000350968
-0.00495885
-0.000370307
-0.00489303
-0.000388588
-0.00482425
-0.000406507
-0.00475274
-0.000423744
-0.00467859
-0.00044045
-0.00460191
-0.00045671
-0.00452273
-0.000472685
-0.00444067
-0.000488993
-0.0043566
-0.000503587
-0.00426988
-0.000518509
-0.00418178
-0.00053127
-0.00409099
-0.000545685
-0.003998
-0.000559131
-0.00390289
-0.000572256
-0.00380524
-0.000585603
-0.00370535
-0.000597773
-0.00360399
-0.000608824
-0.00350102
-0.000619589
-0.00339625
-0.00063024
-0.0032893
-0.000639927
-0.00318251
-0.000647748
-0.00307352
-0.0006568
-0.00296234
-0.00066646
-0.00285188
-0.00067307
-0.00273863
-0.000681645
-0.00262514
-0.000686851
-0.00251072
-0.000694135
-0.00239425
-0.000700684
-0.00227799
-0.000704607
-0.00216043
-0.000710492
-0.00204298
-0.000713782
-0.0019231
-0.000719578
-0.00180384
-0.000721162
-0.00168296
-0.000724214
-0.0015628
-0.000724337
-0.00144241
-0.000725104
-0.00132256
-0.000724264
-0.000724555
-0.00120201
-0.00603852
0.000146863
-0.00605192
0.000118308
-0.00606225
9.04795e-05
-0.00606581
6.2178e-05
-0.00606819
3.587e-05
-0.00606676
8.55096e-06
-0.00606089
-1.81153e-05
-0.00605023
-4.8089e-05
-0.00603435
-7.44672e-05
-0.00601785
-9.81328e-05
-0.00599532
-0.000124876
-0.0059692
-0.000152093
-0.00594071
-0.000177186
-0.00590535
-0.000205168
-0.00587076
-0.000226319
-0.00582894
-0.000253922
-0.00578278
-0.000279546
-0.00573529
-0.000303599
-0.00568117
-0.000328298
-0.00562608
-0.000349671
-0.00556841
-0.00037229
-0.00550495
-0.000395872
-0.00544151
-0.000414403
-0.00537235
-0.000439463
-0.00529963
-0.000461308
-0.00522535
-0.000480794
-0.00514624
-0.00050285
-0.00506617
-0.000520524
-0.00498062
-0.000542252
-0.00489645
-0.000556853
-0.00480492
-0.000580526
-0.00471498
-0.000593525
-0.00461894
-0.000614553
-0.00452516
-0.000625049
-0.004427
-0.000643852
-0.00432576
-0.00066037
-0.00422383
-0.000674185
-0.00411691
-0.000692519
-0.00400791
-0.000706772
-0.00389945
-0.00071729
-0.00378559
-0.000733444
-0.00367034
-0.000745493
-0.00355639
-0.000753881
-0.00343759
-0.00076654
-0.00332285
-0.000771542
-0.00320031
-0.000789006
-0.00308152
-0.000791854
-0.00295676
-0.00080641
-0.00283617
-0.000807441
-0.00271226
-0.000818044
-0.00258547
-0.000827476
-0.00246181
-0.000828257
-0.00233284
-0.000839464
-0.00220719
-0.000839429
-0.00207458
-0.000852187
-0.001947
-0.000848748
-0.00181301
-0.000858199
-0.00168675
-0.0008506
-0.00155339
-0.000858458
-0.00142585
-0.000851804
-0.00129174
-0.000858673
-0.000781149
-6.24048e-05
-0.000719105
-6.20469e-05
-0.000657438
-6.16707e-05
-0.000596183
-6.12577e-05
-0.000535399
-6.07868e-05
-0.000475136
-6.02662e-05
-0.000415647
-5.94922e-05
-0.000356978
-5.86719e-05
-0.000299336
-5.76453e-05
-0.000242853
-5.64861e-05
-0.000187412
-5.54437e-05
-0.000131187
-5.62283e-05
-7.32084e-05
-5.79809e-05
-1.40592e-05
-5.91515e-05
4.40632e-05
-5.81246e-05
9.95789e-05
-5.55179e-05
0.00015278
-5.32025e-05
0.000204193
-5.14156e-05
0.000254019
-4.98277e-05
0.000302274
-4.82565e-05
0.000348977
-4.67034e-05
0.000394069
-4.50936e-05
0.000437484
-4.34159e-05
0.000479089
-4.16062e-05
0.000518825
-3.97363e-05
0.000556627
-3.78028e-05
0.000592376
-3.575e-05
0.00062594
-3.35645e-05
0.000657203
-3.12632e-05
0.000686072
-2.88697e-05
0.000712349
-2.62771e-05
0.000735873
-2.35251e-05
0.000756522
-2.06491e-05
0.000774048
-1.75265e-05
0.000788232
-1.41853e-05
0.000798881
-1.0649e-05
0.000805732
-6.8522e-06
0.000808547
-2.81635e-06
0.000807939
6.06648e-07
0.000803814
4.12414e-06
0.000796206
7.60644e-06
0.00078449
1.17142e-05
0.000768142
1.63464e-05
0.000746728
2.14113e-05
0.000719614
2.71125e-05
0.000686168
3.34429e-05
0.000645769
4.03966e-05
0.000597675
4.80913e-05
0.000541029
5.66428e-05
0.000475068
6.59585e-05
0.000399072
7.59935e-05
0.000312483
8.6586e-05
0.000214678
9.78026e-05
0.000104621
0.000110055
-2.32422e-05
0.00012786
-0.000162591
0.000139346
-0.000290821
0.000128228
-0.000396596
0.000105774
-0.000476554
7.99576e-05
-0.000536534
5.99809e-05
5.05841e-05
-0.000587117
-0.000717967
-0.000133533
-0.000646534
-0.00013348
-0.00057532
-0.000132885
-0.000504366
-0.000132213
-0.000434032
-0.000131121
-0.000363817
-0.000130482
-0.000294141
-0.000129169
-0.000224857
-0.000127957
-0.000156295
-0.000126208
-8.82854e-05
-0.000124496
-1.99208e-05
-0.000123809
4.8876e-05
-0.000125026
0.00011664
-0.000125746
0.000183116
-0.000125629
0.000248845
-0.000123855
0.000313949
-0.000120622
0.000377984
-0.000117238
0.000440706
-0.000114138
0.000502026
-0.000111147
0.000561961
-0.000108191
0.000620516
-0.000105258
0.000677551
-0.000102129
0.00073304
-9.89041e-05
0.000786976
-9.55413e-05
0.000839255
-9.20148e-05
0.000889817
-8.83636e-05
0.00093853
-8.44614e-05
0.000985412
-8.04448e-05
0.00103031
-7.61641e-05
0.00107306
-7.16154e-05
0.00111368
-6.68881e-05
0.00115204