/*--------------------------------*- C++ -*----------------------------------*\
| =========                 |                                                 |
| \\      /  F ield         | OpenFOAM: The Open Source CFD Toolbox           |
|  \\    /   O peration     | Version:  2.3.1                                 |
|   \\  /    A nd           | Web:      www.OpenFOAM.org                      |
|    \\/     M anipulation  |                                                 |
\*---------------------------------------------------------------------------*/
FoamFile
{
    version     2.0;
    format      ascii;
    class       volVectorField;
    location    "0.69";
    object      U;
}
// * * * * * * * * * * * * * * * * * * * * * * * * * * * * * * * * * * * * * //

dimensions      [0 1 -1 0 0 0 0];

internalField   nonuniform List<vector> 
9648
(
(0.153854 -4.79908 -3.18275e-22)
(0.279829 -4.76277 -5.8794e-24)
(0.40407 -4.73622 0)
(0.526373 -4.71185 0)
(0.648858 -4.69279 8.26322e-21)
(0.772994 -4.67997 1.28152e-20)
(0.90123 -4.67717 -2.51597e-20)
(1.03547 -4.68567 -1.19365e-20)
(1.17669 -4.70686 1.19062e-20)
(1.32565 -4.74283 3.70107e-20)
(1.48449 -4.79524 -3.68553e-20)
(1.65503 -4.86518 -5.38741e-20)
(1.83925 -4.9533 2.8705e-19)
(2.03918 -5.05963 7.47851e-20)
(2.25651 -5.18341 -7.02417e-19)
(2.49248 -5.32342 0)
(2.74827 -5.47799 0)
(3.02473 -5.6451 1.29008e-19)
(3.32254 -5.82215 4.16261e-19)
(3.64179 -6.00638 -1.19898e-18)
(3.9825 -6.19518 -2.13209e-20)
(4.34455 -6.38546 3.30743e-19)
(4.72717 -6.57435 3.91875e-19)
(5.12968 -6.75905 -1.7832e-18)
(5.55114 -6.93688 0)
(5.99052 -7.1052 1.06939e-18)
(6.4465 -7.26153 -1.12167e-18)
(6.9177 -7.40379 0)
(7.40269 -7.52979 0)
(7.89982 -7.63787 -6.8182e-19)
(8.40761 -7.72635 -1.50917e-18)
(8.92422 -7.79376 2.37039e-18)
(9.44805 -7.83898 0)
(9.97734 -7.8608 0)
(10.5102 -7.85853 1.81698e-18)
(11.0451 -7.83133 -1.95603e-18)
(11.58 -7.77877 0)
(12.1134 -7.70058 4.20047e-18)
(12.6436 -7.59636 1.13327e-18)
(13.1687 -7.46601 -3.35487e-18)
(13.6868 -7.30955 6.35806e-20)
(14.1965 -7.12749 2.38736e-18)
(14.6962 -6.91969 -3.17207e-18)
(15.1839 -6.68671 6.38094e-19)
(15.6587 -6.42932 0)
(16.1191 -6.14765 0)
(16.5633 -5.84242 4.81392e-18)
(16.9904 -5.51441 7.04605e-19)
(17.3995 -5.16449 -2.17748e-18)
(17.79 -4.79262 -7.32999e-19)
(18.1596 -4.39979 -7.62408e-19)
(18.5068 -3.98822 7.5769e-19)
(18.8312 -3.55961 3.91419e-19)
(19.132 -3.1147 -3.89309e-19)
(19.4082 -2.65523 1.98718e-18)
(19.6591 -2.18226 -1.95658e-18)
(19.884 -1.69727 -2.18121e-20)
(20.0824 -1.20146 0)
(20.2538 -0.696296 -3.97422e-19)
(20.3979 -0.183443 -5.13993e-20)
(20.5146 0.335897 -4.87239e-20)
(-0.0694359 -2.4845 3.10389e-22)
(0.00378666 -2.4958 0)
(0.0778611 -2.51581 0)
(0.152925 -2.55035 2.97481e-21)
(0.233306 -2.60522 -4.2013e-21)
(0.322856 -2.68208 -3.05826e-20)
(0.423003 -2.77839 0)
(0.535729 -2.89342 0)
(0.662631 -3.02809 -4.02585e-20)
(0.804431 -3.1822 0)
(0.962518 -3.35491 -9.99236e-20)
(1.13773 -3.54482 7.94685e-20)
(1.33099 -3.75072 -4.31349e-20)
(1.54325 -3.97096 0)
(1.77525 -4.20364 2.73373e-19)
(2.02731 -4.44669 1.62532e-19)
(2.29975 -4.69789 -1.59922e-19)
(2.5927 -4.95499 2.08962e-19)
(2.90633 -5.21548 -6.37001e-19)
(3.2404 -5.47691 5.0875e-19)
(3.59458 -5.73691 -5.64205e-19)
(3.96861 -5.99295 -3.04416e-19)
(4.36166 -6.24269 -3.12253e-19)
(4.77297 -6.48379 1.07521e-18)
(5.20161 -6.71406 3.7241e-19)
(5.64666 -6.93132 4.43376e-19)
(6.10696 -7.13357 -3.92786e-19)
(6.58123 -7.31905 0)
(7.06824 -7.48597 0)
(7.56646 -7.63298 0)
(8.07455 -7.75862 0)
(8.59086 -7.86169 0)
(9.11388 -7.9412 0)
(9.6421 -7.99616 0)
(10.1737 -8.02598 -8.16147e-19)
(10.7072 -8.02989 7.41045e-19)
(11.2409 -8.00762 8.17627e-19)
(11.7732 -7.95888 -4.15439e-18)
(12.3025 -7.88334 -8.81861e-19)
(12.827 -7.78095 2.71259e-18)
(13.3451 -7.65184 1.90384e-18)
(13.8552 -7.49645 -1.9651e-18)
(14.3557 -7.31465 9.38573e-19)
(14.845 -7.10715 9.90406e-19)
(15.3217 -6.8746 -1.05292e-18)
(15.7843 -6.61722 1.04361e-18)
(16.2315 -6.33589 -2.23761e-18)
(16.6618 -6.03142 0)
(17.0739 -5.70469 -5.71601e-19)
(17.4672 -5.35584 1.14869e-18)
(17.8409 -4.98578 -5.77245e-19)
(18.1937 -4.59627 0)
(18.5244 -4.1887 1.18663e-18)
(18.8323 -3.76387 0)
(19.1162 -3.32326 0)
(19.3755 -2.86805 2.81297e-18)
(19.6095 -2.39955 -1.26779e-18)
(19.8175 -1.9194 -3.08428e-19)
(19.9991 -1.42847 3.25556e-19)
(20.1538 -0.928488 0)
(20.2812 -0.420726 8.18626e-20)
(0.0517619 -1.42495 -4.62262e-22)
(0.110976 -1.47846 0)
(0.175941 -1.55011 3.7773e-22)
(0.24664 -1.64169 -3.26753e-22)
(0.325669 -1.75189 0)
(0.415838 -1.8806 2.49682e-20)
(0.518478 -2.0288 1.79197e-20)
(0.635209 -2.19551 0)
(0.767803 -2.38037 2.30312e-21)
(0.917841 -2.58202 4.17812e-20)
(1.08629 -2.79949 8.51299e-20)
(1.27379 -3.03097 -2.96067e-20)
(1.48089 -3.27473 0)
(1.70794 -3.52873 0)
(1.95521 -3.79093 2.07137e-19)
(2.22263 -4.05921 -1.3274e-19)
(2.51015 -4.33137 -1.42553e-19)
(2.8176 -4.60522 0)
(3.1447 -4.87851 5.52353e-19)
(3.49112 -5.14905 -5.74063e-19)
(3.85636 -5.41476 -4.30036e-19)
(4.23987 -5.67353 -4.74323e-19)
(4.64087 -5.92332 0)
(5.05848 -6.16215 -8.52278e-19)
(5.49174 -6.3881 -2.99941e-19)
(5.93966 -6.59933 3.57042e-19)
(6.40115 -6.79412 3.9455e-19)
(6.87502 -6.97095 0)
(7.35998 -7.12838 0)
(7.85466 -7.26516 0)
(8.35766 -7.38011 0)
(8.86747 -7.47222 0)
(9.38267 -7.5406 0)
(9.90171 -7.58451 0)
(10.423 -7.60342 -1.79227e-18)
(10.945 -7.59678 5.95492e-19)
(11.4661 -7.56434 -6.57167e-19)
(11.9849 -7.50589 3.30744e-18)
(12.4997 -7.42125 0)
(13.0089 -7.3105 1.40756e-18)
(13.511 -7.17384 1.45597e-18)
(14.0043 -7.01158 7.21321e-19)
(14.4876 -6.82386 -8.26598e-19)
(14.9591 -6.61125 -1.59224e-18)
(15.4177 -6.37428 2.48123e-18)
(15.8619 -6.1135 -8.39438e-19)
(16.2904 -5.82968 -1.71234e-18)
(16.7021 -5.52365 0)
(17.0956 -5.19643 0)
(17.4699 -4.84905 -4.67567e-19)
(17.8241 -4.48254 -4.57084e-19)
(18.1573 -4.09783 -9.35045e-19)
(18.4688 -3.69601 -9.78852e-19)
(18.7574 -3.27854 0)
(19.0226 -2.8462 -9.68132e-19)
(19.2635 -2.40074 -1.00901e-18)
(19.4797 -1.94289 0)
(19.6704 -1.47487 1.64041e-20)
(19.835 -0.996982 0)
(19.9733 -0.510985 0)
(20.0853 -0.0179163 -6.25026e-20)
(0.0298521 -0.91406 9.20331e-22)
(0.0929413 -1.00515 -1.47161e-21)
(0.166565 -1.1137 1.49029e-21)
(0.25002 -1.23952 -1.20285e-21)
(0.343863 -1.38242 0)
(0.449376 -1.54239 -1.0275e-20)
(0.568368 -1.7195 -1.54462e-20)
(0.7023 -1.91318 0)
(0.852634 -2.1226 3.14057e-21)
(1.02022 -2.34666 -3.5694e-20)
(1.20589 -2.58401 8.07389e-20)
(1.40994 -2.83303 9.88411e-20)
(1.6327 -3.0918 0)
(1.87433 -3.35831 -7.95906e-20)
(2.13502 -3.6306 -1.69286e-19)
(2.4145 -3.90667 -9.04186e-20)
(2.71263 -4.18444 3.50714e-19)
(3.02916 -4.46185 -2.53976e-19)
(3.36368 -4.73686 2.85504e-19)
(3.71588 -5.00747 4.87524e-19)
(4.08533 -5.27185 7.06701e-19)
(4.47131 -5.52817 3.9933e-19)
(4.87318 -5.7746 1.92058e-19)
(5.28999 -6.00942 6.99647e-19)
(5.72089 -6.23086 2.29804e-19)
(6.16491 -6.43727 2.61812e-19)
(6.62103 -6.62712 3.09361e-19)
(7.08824 -6.799 -9.2602e-19)
(7.56532 -6.95171 6.6518e-19)
(8.05094 -7.08407 7.52196e-19)
(8.5439 -7.19503 -1.53807e-18)
(9.04273 -7.28369 7.85521e-19)
(9.54607 -7.3492 -8.41881e-19)
(10.0526 -7.3909 4.19663e-19)
(10.5608 -7.40834 4.60211e-19)
(11.0692 -7.40103 5.10947e-19)
(11.5763 -7.36868 -5.04517e-19)
(12.0808 -7.31117 -5.50022e-19)
(12.581 -7.22838 -1.64853e-18)
(13.0757 -7.12038 -1.18975e-18)
(13.5631 -6.98742 -2.41218e-18)
(14.0419 -6.82972 -3.12531e-18)
(14.5106 -6.64756 1.28145e-18)
(14.9678 -6.44135 2.91438e-20)
(15.4123 -6.21165 -7.17961e-19)
(15.8427 -5.959 -7.04181e-19)
(16.2578 -5.68408 4.25787e-18)
(16.6566 -5.38767 -7.1371e-19)
(17.0378 -5.07059 0)
(17.4005 -4.73378 0)
(17.7437 -4.37825 -7.16855e-19)
(18.0665 -4.00519 3.21374e-20)
(18.3683 -3.61561 7.69398e-19)
(18.648 -3.21065 0)
(18.9049 -2.7916 8.19598e-19)
(19.1383 -2.35979 0)
(19.3477 -1.91638 0)
(19.5324 -1.46234 6.24625e-19)
(19.692 -0.999237 1.98636e-19)
(19.8263 -0.528527 -2.02431e-19)
(19.9348 -0.0516858 1.03597e-19)
(0.123052 -0.65891 4.68804e-23)
(0.187203 -0.770209 1.28343e-21)
(0.264369 -0.897523 -2.84274e-21)
(0.354436 -1.04148 -3.19441e-22)
(0.457422 -1.20215 -9.6396e-22)
(0.574517 -1.37913 4.00031e-21)
(0.706734 -1.572 2.29444e-21)
(0.85503 -1.77982 -1.0924e-20)
(1.02057 -2.00169 3.61559e-20)
(1.20352 -2.23636 -5.2696e-20)
(1.40447 -2.48237 5.98234e-20)
(1.62315 -2.73808 -7.59122e-20)
(1.85977 -3.00148 -4.41873e-20)
(2.11412 -3.27065 0)
(2.38646 -3.54362 8.32044e-20)
(2.67619 -3.81869 7.97268e-20)
(2.98312 -4.09387 0)
(3.30697 -4.3672 1.98711e-19)
(3.64718 -4.63685 0)
(4.00356 -4.90087 -2.65002e-19)
(4.37571 -5.15773 2.8975e-19)
(4.76282 -5.40584 1.02623e-20)
(5.16436 -5.64351 -1.71784e-20)
(5.57926 -5.86929 2.9246e-20)
(6.00674 -6.08144 -8.18696e-19)
(6.44594 -6.27847 -4.70639e-19)
(6.89584 -6.45897 9.6924e-19)
(7.35565 -6.62163 1.05241e-18)
(7.82414 -6.76547 -5.70108e-19)
(8.30011 -6.88937 0)
(8.78243 -6.99237 0)
(9.26964 -7.0737 0)
(9.76057 -7.13245 7.22929e-19)
(10.254 -7.16808 -2.98653e-18)
(10.7485 -7.18024 1.56337e-18)
(11.2425 -7.16845 -7.95195e-19)
(11.735 -7.1324 -1.71605e-18)
(12.2243 -7.07209 1.74102e-18)
(12.7093 -6.98737 4.02166e-20)
(13.1884 -6.87836 -9.8357e-19)
(13.6603 -6.74536 1.01632e-18)
(14.1234 -6.58855 1.05107e-18)
(14.5764 -6.40823 0)
(15.0181 -6.20471 -1.06756e-18)
(15.4472 -5.97858 0)
(15.8624 -5.73037 -1.70608e-18)
(16.2626 -5.46075 5.27346e-19)
(16.6467 -5.17043 0)
(17.0137 -4.86013 -6.19016e-19)
(17.3626 -4.53088 -1.4829e-20)
(17.6925 -4.1835 1.31913e-18)
(18.0026 -3.81917 -6.26833e-19)
(18.2922 -3.43897 -3.48688e-19)
(18.5604 -3.04402 6.38502e-19)
(18.8066 -2.63567 -4.87017e-21)
(19.0298 -2.21492 3.33046e-19)
(19.2295 -1.78308 1.6088e-19)
(19.4052 -1.34108 3.39611e-19)
(19.5566 -0.890158 -8.53232e-19)
(19.6835 -0.431818 3.42719e-19)
(19.7854 0.0323803 -4.38581e-20)
(0.210259 -0.52255 -4.32628e-22)
(0.287192 -0.647772 0)
(0.377858 -0.788382 3.96188e-21)
(0.482585 -0.945049 0)
(0.600754 -1.11762 -3.88382e-22)
(0.733848 -1.30536 3.81516e-21)
(0.882483 -1.50773 6.03808e-21)
(1.04736 -1.72344 2.15444e-20)
(1.22959 -1.95148 3.72266e-21)
(1.42868 -2.19065 5.68841e-21)
(1.64529 -2.43932 9.9181e-22)
(1.87846 -2.69603 -2.85154e-20)
(2.12853 -2.9587 4.30148e-20)
(2.39457 -3.2254 -1.31354e-19)
(2.67758 -3.4942 1.13183e-19)
(2.97648 -3.76396 -8.50789e-21)
(3.29082 -4.03245 -1.41533e-19)
(3.6207 -4.29798 -1.71569e-19)
(3.9651 -4.5589 0)
(4.32409 -4.81319 2.05183e-19)
(4.69757 -5.05967 8.35685e-21)
(5.08424 -5.29706 -5.34739e-19)
(5.48412 -5.52367 -2.32855e-20)
(5.89571 -5.7385 -2.90307e-19)
(6.31831 -5.93964 1.02682e-18)
(6.75124 -6.12573 3.54851e-20)
(7.19338 -6.29555 -3.82484e-19)
(7.64439 -6.44768 -4.12193e-20)
(8.10294 -6.58161 0)
(8.5678 -6.69615 0)
(9.03822 -6.79036 0)
(9.51248 -6.86377 0)
(9.98953 -6.91528 0)
(10.4686 -6.94435 5.75164e-20)
(10.9481 -6.95095 -6.70141e-19)
(11.4264 -6.93456 -3.9206e-20)
(11.9029 -6.89463 2.92869e-20)
(12.3759 -6.83151 6.921e-19)
(12.8442 -6.74492 1.58304e-18)
(13.3067 -6.63498 -2.38817e-18)
(13.7618 -6.50223 1.66286e-18)
(14.2082 -6.34671 -8.39381e-19)
(14.6445 -6.16878 0)
(15.0695 -5.9685 9.33008e-19)
(15.4822 -5.74656 0)
(15.8812 -5.50351 9.82623e-19)
(16.2656 -5.23981 -1.0057e-18)
(16.6341 -4.95649 4.7239e-19)
(16.9859 -4.65387 5.04772e-19)
(17.3202 -4.33299 -5.26856e-19)
(17.6361 -3.9947 3.78332e-20)
(17.9328 -3.64025 -1.07466e-20)
(18.2096 -3.27037 1.07221e-18)
(18.466 -2.8865 -1.10374e-18)
(18.701 -2.48985 -5.44633e-19)
(18.9137 -2.08174 -2.66684e-19)
(19.1035 -1.66295 -8.48566e-19)
(19.27 -1.23432 0)
(19.4131 -0.796999 5.73368e-19)
(19.5326 -0.352811 -1.47224e-19)
(19.6281 0.0969788 0)
(0.316834 -0.456097 0)
(0.408327 -0.591023 0)
(0.514382 -0.741328 -1.95959e-21)
(0.636344 -0.90737 2.39484e-21)
(0.771514 -1.08849 -1.08282e-21)
(0.922428 -1.28339 -6.39926e-21)
(1.08883 -1.49148 3.9333e-21)
(1.27075 -1.71109 -1.45222e-20)
(1.47058 -1.94139 -1.20509e-21)
(1.68559 -2.18118 4.18941e-20)
(1.91817 -2.4288 -8.02681e-20)
(2.16523 -2.68312 0)
(2.42844 -2.94174 0)
(2.70485 -3.20297 1.49114e-19)
(2.99804 -3.46435 9.6612e-20)
(3.30517 -3.72614 -2.14031e-19)
(3.62568 -3.9855 3.48247e-19)
(3.9608 -4.24089 1.46648e-19)
(4.30809 -4.49129 -2.93609e-19)
(4.66834 -4.73395 -1.78726e-19)
(5.0425 -4.9681 2.06169e-19)
(5.42734 -5.19337 -5.19815e-21)
(5.82494 -5.40723 0)
(6.23213 -5.61012 5.34301e-19)
(6.64868 -5.79927 -8.81259e-19)
(7.07456 -5.97337 2.93576e-19)
(7.50749 -6.13174 6.50019e-19)
(7.94883 -6.27224 -1.81079e-18)
(8.39657 -6.39543 3.68956e-19)
(8.84908 -6.49997 0)
(9.30689 -6.58449 0)
(9.76717 -6.64966 0)
(10.2291 -6.69351 5.07702e-19)
(10.6929 -6.71526 1.57237e-18)
(11.1566 -6.7158 -1.0637e-18)
(11.6179 -6.69474 5.87483e-19)
(12.0775 -6.65024 6.44219e-19)
(12.5331 -6.58403 -1.27813e-18)
(12.9835 -6.49526 0)
(13.4284 -6.38381 -1.31325e-18)
(13.8658 -6.25113 6.82301e-19)
(14.2945 -6.09667 3.54569e-20)
(14.7127 -5.92129 -3.18396e-20)
(15.1201 -5.72402 7.52232e-19)
(15.5154 -5.50617 3.18239e-20)
(15.897 -5.26855 -2.40343e-18)
(16.2647 -5.01078 8.14563e-19)
(16.6165 -4.73467 -1.69245e-18)
(16.9522 -4.43965 0)
(17.2707 -4.12756 0)
(17.5718 -3.79836 1.78842e-18)
(17.854 -3.45425 -4.27267e-19)
(18.117 -3.09515 -9.2707e-19)
(18.3607 -2.72234 -4.45621e-19)
(18.5839 -2.33794 1.42343e-18)
(18.7855 -1.94297 7.18073e-19)
(18.9646 -1.53768 2.48244e-19)
(19.1209 -1.12328 -4.68377e-21)
(19.255 -0.699883 -2.48468e-19)
(19.3667 -0.269964 0)
(19.4553 0.164647 0)
(0.439449 -0.434261 4.4148e-22)
(0.548942 -0.575975 0)
(0.671803 -0.732961 0)
(0.813955 -0.905885 -1.37664e-21)
(0.966762 -1.09301 0)
(1.13669 -1.29219 8.03642e-22)
(1.3213 -1.50298 3.96085e-21)
(1.51938 -1.72328 -8.3485e-21)
(1.73814 -1.95286 0)
(1.96774 -2.19049 -2.51129e-20)
(2.21731 -2.43445 3.88834e-21)
(2.47664 -2.6843 0)
(2.75378 -2.93686 0)
(3.0375 -3.19099 -6.25061e-20)
(3.34116 -3.44174 6.86597e-20)
(3.65622 -3.69423 -8.71085e-20)
(3.98092 -3.94306 -1.00818e-19)
(4.32123 -4.18664 0)
(4.66996 -4.42615 1.31197e-19)
(5.02988 -4.65588 -2.77471e-19)
(5.40542 -4.87628 -3.11858e-19)
(5.78605 -5.08913 -3.66917e-19)
(6.18163 -5.28868 -3.33664e-20)
(6.58347 -5.47976 -4.68012e-19)
(6.99292 -5.65651 4.49089e-19)
(7.41185 -5.81783 5.01587e-19)
(7.83344 -5.96487 -5.71874e-19)
(8.26474 -6.09238 3.17118e-20)
(8.70131 -6.20449 4.26097e-20)
(9.13953 -6.29909 -6.61432e-19)
(9.58449 -6.37293 0)
(10.0298 -6.4303 -8.0656e-19)
(10.4753 -6.46617 1.60024e-18)
(10.9233 -6.47943 -4.50932e-20)
(11.3709 -6.47418 9.40313e-19)
(11.8129 -6.44969 -9.35817e-19)
(12.2556 -6.39931 1.03224e-18)
(12.6927 -6.3301 1.07721e-18)
(13.1236 -6.23909 -2.13001e-18)
(13.5501 -6.12535 1.16591e-18)
(13.9683 -5.99319 1.14682e-18)
(14.3789 -5.83939 1.81221e-18)
(14.7773 -5.66699 -6.45303e-19)
(15.166 -5.47161 0)
(15.5431 -5.25799 3.46498e-20)
(15.9057 -5.02683 7.01499e-19)
(16.2561 -4.77463 -6.82016e-19)
(16.5895 -4.50713 7.34646e-19)
(16.9082 -4.21968 0)
(17.2094 -3.91746 0)
(17.4947 -3.59729 -4.03044e-20)
(17.7614 -3.26462 7.89808e-19)
(18.0093 -2.91566 0)
(18.2395 -2.55374 3.92448e-19)
(18.4505 -2.18279 3.95903e-19)
(18.6402 -1.80209 -8.0663e-19)
(18.8082 -1.41094 -3.95709e-19)
(18.9529 -1.0119 -2.10281e-19)
(19.0766 -0.60201 0)
(19.1804 -0.187482 0)
(19.2615 0.230444 2.51884e-20)
(0.578498 -0.440907 -1.22167e-21)
(0.712392 -0.586319 2.59455e-21)
(0.851583 -0.745637 -2.05043e-23)
(1.02044 -0.923279 -2.9033e-21)
(1.18734 -1.11303 4.33758e-21)
(1.37612 -1.31608 -2.2026e-21)
(1.57989 -1.52518 0)
(1.79041 -1.74202 1.3951e-21)
(2.03339 -1.96912 -1.10913e-20)
(2.2717 -2.20094 0)
(2.54416 -2.4398 5.21565e-20)
(2.80845 -2.68457 -3.33969e-20)
(3.10301 -2.93099 3.41742e-20)
(3.38651 -3.17819 4.44459e-20)
(3.70332 -3.41251 -5.92966e-20)
(4.02587 -3.65666 -7.32109e-20)
(4.35043 -3.8948 2.42845e-19)
(4.70023 -4.12307 -2.53713e-19)
(5.0437 -4.35427 0)
(5.39841 -4.57252 -9.1532e-21)
(5.78201 -4.77789 7.65358e-19)
(6.15021 -4.98095 -2.96177e-20)
(6.55135 -5.16087 -3.65887e-19)
(6.94161 -5.34323 7.00806e-19)
(7.34199 -5.50996 0)
(7.75719 -5.65857 -4.32842e-19)
(8.16097 -5.79593 -4.4374e-19)
(8.584 -5.90887 9.85556e-19)
(9.01042 -6.01086 -6.59186e-21)
(9.43002 -6.09709 5.86321e-19)
(9.8648 -6.15755 -1.1995e-18)
(10.2911 -6.20974 1.90839e-18)
(10.7178 -6.23925 -1.36916e-18)
(11.1509 -6.24384 -1.43726e-18)
(11.5849 -6.2321 0)
(12.0026 -6.20487 8.19635e-19)
(12.434 -6.14589 0)
(12.8489 -6.07686 -3.06086e-21)
(13.2578 -5.98549 9.73068e-19)
(13.6685 -5.86627 -1.81077e-18)
(14.0649 -5.73384 -6.73639e-21)
(14.4585 -5.58093 -2.00478e-18)
(14.8312 -5.41433 0)
(15.2001 -5.22206 -5.74341e-19)
(15.5599 -5.01414 2.20497e-18)
(15.8989 -4.79063 -5.60763e-19)
(16.2357 -4.54347 5.94331e-19)
(16.5468 -4.28568 0)
(16.8501 -4.00481 6.11967e-19)
(17.1314 -3.71149 -1.847e-18)
(17.4019 -3.39674 -2.57945e-20)
(17.6515 -3.07569 0)
(17.8812 -2.73964 6.35244e-19)
(18.0984 -2.38904 -1.9113e-20)
(18.2983 -2.02932 0)
(18.4732 -1.66153 3.5834e-19)
(18.6317 -1.29221 -3.25474e-19)
(18.7622 -0.910572 3.41287e-19)
(18.8738 -0.515297 3.3861e-19)
(18.9724 -0.112655 -1.70109e-19)
(19.0428 0.289251 -6.43636e-20)
(20.603 0.860821 1.51596e-19)
(20.6628 1.38961 -5.14006e-20)
(20.6945 1.92163 0)
(20.6981 2.45449 0)
(20.6738 2.98645 8.16834e-19)
(20.622 3.51638 1.17524e-18)
(20.5427 4.04244 -1.21022e-18)
(20.4361 4.56323 -3.98828e-19)
(20.3022 5.07731 3.9878e-19)
(20.1419 5.58359 7.80441e-19)
(19.9552 6.08146 -7.80922e-19)
(19.7423 6.56906 -7.59268e-19)
(19.5047 7.04533 3.7764e-18)
(19.2438 7.50907 7.34486e-19)
(18.9598 7.95883 -6.48137e-18)
(18.6535 8.39311 0)
(18.3256 8.81101 0)
(17.9774 9.21156 6.74212e-19)
(17.6097 9.59422 1.99148e-18)
(17.2233 9.95764 -5.1191e-18)
(16.8197 10.3011 -7.5136e-20)
(16.3997 10.6244 1.17323e-18)
(15.9644 10.926 1.20728e-18)
(15.5149 11.2057 -4.5047e-18)
(15.0527 11.4631 0)
(14.5788 11.6986 2.11606e-18)
(14.0934 11.9113 -1.96069e-18)
(13.5984 12.0996 0)
(13.0955 12.2631 0)
(12.5864 12.4016 -8.98579e-19)
(12.0723 12.515 -1.64297e-18)
(11.5544 12.6031 2.34185e-18)
(11.0343 12.666 0)
(10.5129 12.7038 0)
(9.99194 12.7163 1.18195e-18)
(9.47237 12.7039 -1.1239e-18)
(8.95559 12.6665 0)
(8.44289 12.6049 1.77188e-18)
(7.9353 12.5191 3.69355e-19)
(7.43409 12.4095 -1.02176e-18)
(6.94046 12.2765 3.57437e-20)
(6.45583 12.1209 4.30707e-19)
(5.98098 11.9433 -4.26578e-19)
(5.51711 11.744 7.46882e-20)
(5.06538 11.5241 0)
(4.62654 11.2842 0)
(4.20161 11.025 -1.71274e-19)
(3.79153 10.7473 -3.69778e-20)
(3.39729 10.4521 2.2079e-19)
(3.0196 10.1406 9.18793e-20)
(2.65906 9.81361 1.43788e-19)
(2.31651 9.47194 -1.45667e-19)
(1.9927 9.1169 -9.76283e-20)
(1.68794 8.74968 9.8963e-20)
(1.40293 8.37122 -5.91165e-19)
(1.13808 7.98295 6.45112e-19)
(0.893818 7.586 -1.35315e-21)
(0.670437 7.18189 0)
(0.468111 6.77165 1.64342e-19)
(0.28719 6.3564 2.23222e-20)
(0.127752 5.93735 2.36293e-20)
(20.3806 0.0930998 -8.19428e-20)
(20.4516 0.610906 0)
(20.4946 1.13042 0)
(20.5104 1.65127 9.4087e-19)
(20.4986 2.17207 -6.29106e-19)
(20.4596 2.69155 -2.21713e-18)
(20.3935 3.20789 0)
(20.3004 3.72026 0)
(20.1805 4.22689 -1.20716e-18)
(20.0339 4.72638 0)
(19.8611 5.21795 -1.76877e-18)
(19.6626 5.69932 1.17351e-18)
(19.4398 6.1687 -5.82568e-19)
(19.1939 6.62589 0)
(18.925 7.0704 2.30429e-18)
(18.6335 7.5009 1.07916e-18)
(18.3202 7.91621 -1.08135e-18)
(17.9861 8.31514 1.02858e-18)
(17.6322 8.69705 -3.03958e-18)
(17.2593 9.06074 2.04708e-18)
(16.8689 9.40508 -1.98811e-18)
(16.4616 9.72963 -1.01371e-18)
(16.0389 10.0332 -9.16718e-19)
(15.6018 10.315 2.65995e-18)
(15.1514 10.5744 8.52496e-19)
(14.6888 10.8111 7.80023e-19)
(14.2148 11.0254 -7.04611e-19)
(13.7315 11.2163 0)
(13.24 11.3832 0)
(12.7416 11.5253 0)
(12.2376 11.6429 0)
(11.7293 11.7354 0)
(11.2182 11.8029 0)
(10.7054 11.8455 0)
(10.1924 11.863 -4.92017e-19)
(9.68042 11.8555 4.36554e-19)
(9.17076 11.8231 3.49658e-19)
(8.66464 11.7662 -1.69739e-18)
(8.1632 11.6851 -2.64938e-19)
(7.66777 11.5801 7.90579e-19)
(7.17957 11.4515 4.35241e-19)
(6.69996 11.3 -3.47165e-19)
(6.22981 11.1261 1.28732e-19)
(5.77047 10.9303 9.4417e-20)
(5.32304 10.7133 -7.62847e-21)
(4.88833 10.4759 7.71421e-21)
(4.4674 10.2186 9.3027e-20)
(4.06123 9.94233 0)
(3.67086 9.64804 8.07849e-20)
(3.29708 9.33671 -1.83283e-19)
(2.94055 9.0092 1.0279e-19)
(2.60218 8.6664 0)
(2.28282 8.30946 -3.0636e-19)
(1.98271 7.93953 0)
(1.70278 7.55757 0)
(1.44326 7.16499 -9.51996e-19)
(1.2048 6.76299 4.59221e-19)
(0.987607 6.353 1.26978e-19)
(0.792245 5.936 -1.3281e-19)
(0.619023 5.51329 0)
(0.468173 5.08608 -3.74662e-20)
(20.1708 0.480085 6.25497e-20)
(20.2299 0.981756 0)
(20.2622 1.48389 -2.49572e-19)
(20.2668 1.98633 -1.64815e-20)
(20.2446 2.48769 0)
(20.1964 2.9874 2.0027e-18)
(20.122 3.48473 9.77724e-19)
(20.021 3.97905 0)
(19.8939 4.46821 3.23595e-20)
(19.7408 4.94992 9.46459e-19)
(19.5628 5.42263 1.43786e-18)
(19.3611 5.88491 -4.72686e-19)
(19.1361 6.33511 0)
(18.888 6.77245 0)
(18.6175 7.19648 1.74081e-18)
(18.3254 7.6063 -8.58972e-19)
(18.0126 8.00089 -8.04768e-19)
(17.6801 8.37928 0)
(17.3287 8.74071 2.43117e-18)
(16.9595 9.08419 -2.33267e-18)
(16.5736 9.40881 -1.48975e-18)
(16.172 9.71388 -1.44153e-18)
(15.7559 9.99847 0)
(15.3263 10.2619 -2.05962e-18)
(14.8843 10.5035 -6.72068e-19)
(14.4312 10.7227 6.13916e-19)
(13.9682 10.9189 6.04232e-19)
(13.4966 11.0921 0)
(13.0175 11.2418 0)
(12.5322 11.3678 0)
(12.0419 11.4698 0)
(11.5478 11.5478 0)
(11.0514 11.6016 0)
(10.5538 11.6314 0)
(10.0565 11.6369 -1.05484e-18)
(9.56048 11.6184 3.37701e-19)
(9.06712 11.5759 -2.6915e-19)
(8.57754 11.5098 1.28194e-18)
(8.09289 11.4203 0)
(7.61438 11.3079 3.59816e-19)
(7.14319 11.1729 2.93255e-19)
(6.68057 11.0159 1.25409e-19)
(6.22751 10.8374 -7.49024e-20)
(5.78518 10.638 -9.36131e-20)
(5.35462 10.4182 2.81112e-20)
(4.93671 10.1788 -7.32677e-22)
(4.53232 9.92037 1.04048e-19)
(4.14243 9.64383 0)
(3.76794 9.35009 0)
(3.40969 9.03999 8.10454e-20)
(3.06843 8.71444 9.78835e-20)
(2.74481 8.37439 2.10839e-19)
(2.43962 8.02078 2.41364e-19)
(2.15325 7.65474 0)
(1.88644 7.27715 3.00371e-19)
(1.63941 6.88949 3.31296e-19)
(1.41269 6.49281 0)
(1.20664 6.08858 -1.80777e-21)
(1.02181 5.67771 0)
(0.858416 5.26151 0)
(0.716728 4.84106 2.87667e-20)
(20.0175 0.430251 -1.03658e-19)
(20.0744 0.915741 2.02758e-19)
(20.1052 1.40413 -3.99797e-19)
(20.1097 1.89345 -2.15077e-19)
(20.0879 2.38218 0)
(20.0394 2.8692 -8.33016e-19)
(19.964 3.35403 -8.27007e-19)
(19.8634 3.83467 0)
(19.7382 4.31103 3.44118e-20)
(19.5889 4.78094 -7.99289e-19)
(19.4154 5.2423 1.50896e-18)
(19.2182 5.69415 1.48544e-18)
(18.9978 6.13535 0)
(18.7548 6.56469 -7.23888e-19)
(18.4899 6.98093 -1.43784e-18)
(18.2041 7.38289 -7.09e-19)
(17.898 7.76968 2.07671e-18)
(17.5726 8.14044 -1.33415e-18)
(17.2289 8.49441 1.29807e-18)
(16.8678 8.83074 1.88441e-18)
(16.4905 9.14862 2.44653e-18)
(16.098 9.44727 1.20947e-18)
(15.6914 9.72585 5.56615e-19)
(15.2716 9.98367 1.68261e-18)
(14.8398 10.2202 5.14932e-19)
(14.3971 10.435 5.15493e-19)
(13.9446 10.6275 4.67016e-19)
(13.4837 10.7974 -1.35985e-18)
(13.0155 10.9444 8.43063e-19)
(12.5413 11.0681 7.86697e-19)
(12.0622 11.1683 -1.52648e-18)
(11.5794 11.2451 7.39714e-19)
(11.0943 11.2983 -6.43512e-19)
(10.6082 11.328 3.02018e-19)
(10.1223 11.3341 2.91752e-19)
(9.6379 11.3166 2.36867e-19)
(9.15605 11.2757 -2.38406e-19)
(8.67789 11.2117 -2.24676e-19)
(8.20453 11.1249 -5.12975e-19)
(7.7372 11.0157 -2.97443e-19)
(7.27706 10.8845 -4.63944e-19)
(6.82522 10.7319 -4.30328e-19)
(6.38284 10.5583 1.23632e-19)
(5.95098 10.3644 7.32417e-21)
(5.53063 10.1506 -1.05339e-21)
(5.12273 9.91746 3.17256e-20)
(4.72797 9.66588 -2.70403e-19)
(4.34736 9.39661 5.84187e-20)
(3.98173 9.11059 0)
(3.63201 8.8086 0)
(3.2988 8.49147 1.50074e-19)
(2.9829 8.16028 8.24965e-22)
(2.68494 7.81585 -1.9653e-19)
(2.40538 7.45921 0)
(2.1448 7.09119 -2.43989e-19)
(1.90341 6.71324 0)
(1.68177 6.32653 0)
(1.48011 5.93231 -2.34553e-19)
(1.29924 5.53171 -8.35274e-20)
(1.13912 5.12589 8.67798e-20)
(1.00033 4.71603 -4.6036e-20)
(19.8621 0.501308 1.88221e-21)
(19.9135 0.973744 -1.75476e-19)
(19.9395 1.44872 5.14287e-19)
(19.94 1.92468 3.41231e-19)
(19.915 2.40046 -5.0266e-19)
(19.8645 2.8747 3.36749e-19)
(19.7895 3.34539 -2.4377e-21)
(19.6896 3.81051 -6.51907e-19)
(19.565 4.26995 9.92975e-19)
(19.417 4.72289 -1.29344e-18)
(19.2458 5.1682 1.21716e-18)
(19.0517 5.60443 -1.29418e-18)
(18.8352 6.03047 -6.21753e-19)
(18.597 6.44528 0)
(18.3378 6.84752 6.40183e-19)
(18.0583 7.23596 5.46251e-19)
(17.7593 7.60988 0)
(17.4415 7.9683 1.07587e-18)
(17.1059 8.31054 0)
(16.7535 8.63583 -1.06421e-18)
(16.3855 8.9433 9.39551e-19)
(16.0029 9.23217 -4.08243e-20)
(15.6067 9.50156 -4.57893e-20)
(15.1979 9.75073 1.76927e-21)
(14.7775 9.97928 -1.76817e-18)
(14.3464 10.1867 -8.03967e-19)
(13.906 10.3726 1.57096e-18)
(13.4573 10.5367 1.45231e-18)
(13.0017 10.6786 -7.24246e-19)
(12.5403 10.798 0)
(12.0742 10.8945 0)
(11.6044 10.9684 0)
(11.1324 11.0194 5.51653e-19)
(10.6595 11.0478 -1.93112e-18)
(10.1869 11.0533 8.96074e-19)
(9.71573 11.0358 -4.2714e-19)
(9.24708 10.9957 -6.82943e-19)
(8.782 10.933 6.41016e-19)
(8.3215 10.8482 2.16286e-20)
(7.86686 10.7418 -2.0158e-19)
(7.41918 10.6142 2.21421e-19)
(6.97953 10.4658 1.43541e-19)
(6.54914 10.2972 0)
(6.12901 10.1089 -3.91666e-20)
(5.72012 9.90139 0)
(5.32343 9.67506 7.89328e-20)
(4.93939 9.43086 -4.10111e-20)
(4.56903 9.1695 0)
(4.21302 8.89197 9.51746e-20)
(3.87264 8.59895 1.96452e-20)
(3.54816 8.29116 -2.49306e-19)
(3.24042 7.96974 1.46572e-19)
(2.95019 7.63546 9.63911e-20)
(2.67768 7.28929 -1.76744e-19)
(2.42374 6.932 8.13788e-21)
(2.18795 6.5649 -1.07188e-19)
(1.97137 6.18923 -5.77799e-20)
(1.77391 5.80628 -1.28427e-19)
(1.59671 5.41714 3.40473e-19)
(1.43938 5.02293 -1.44798e-19)
(1.30302 4.62477 1.91686e-20)
(19.6992 0.551174 3.69211e-20)
(19.7459 1.00862 0)
(19.7679 1.46816 -5.75668e-19)
(19.7653 1.92864 0)
(19.7382 2.38871 2.86487e-19)
(19.6867 2.84699 8.38148e-19)
(19.611 3.30205 5.49717e-19)
(19.5113 3.75339 1.11475e-18)
(19.388 4.19904 9.74681e-21)
(19.2419 4.63816 -6.81894e-21)
(19.0734 5.06931 -6.028e-20)
(18.8829 5.4915 -5.30045e-19)
(18.6707 5.9037 5.11761e-19)
(18.4376 6.30495 -1.50028e-18)
(18.1844 6.69404 1.01793e-18)
(17.9117 7.06972 -4.88911e-20)
(17.6201 7.4312 -9.22856e-19)
(17.3102 7.7776 -9.45425e-19)
(16.983 8.10841 0)
(16.6397 8.42301 8.46218e-19)
(16.2813 8.72043 -3.79727e-20)
(15.9091 8.9999 -1.66455e-18)
(15.5239 9.26049 -5.8545e-21)
(15.1266 9.50131 -6.904e-19)
(14.7179 9.72218 2.10128e-18)
(14.2991 9.92261 -3.48477e-20)
(13.8711 10.1023 -6.70766e-19)
(13.4352 10.261 -7.08903e-20)
(12.9928 10.3982 0)
(12.5448 10.5136 0)
(12.0923 10.6068 0)
(11.6362 10.6783 0)
(11.1779 10.7277 0)
(10.7186 10.7554 5.42213e-20)
(10.26 10.7608 -3.47419e-19)
(9.80264 10.7441 3.93132e-20)
(9.34781 10.7052 5.33887e-20)
(8.89641 10.6444 2.22584e-19)
(8.44921 10.5623 4.23101e-19)
(8.00766 10.4593 -5.26241e-19)
(7.57288 10.3356 3.09059e-19)
(7.14574 10.1921 -9.51847e-20)
(6.72768 10.0291 0)
(6.31966 9.84722 3.41705e-20)
(5.9226 9.64691 0)
(5.53765 9.42812 -4.12016e-20)
(5.16455 9.19209 7.8307e-20)
(4.8049 8.93946 -5.42735e-20)
(4.45875 8.6714 -6.84145e-20)
(4.12804 8.38828 1.0251e-19)
(3.81257 8.09075 1.92153e-20)
(3.51319 7.78011 1.53936e-20)
(3.23094 7.45689 -2.82105e-19)
(2.96566 7.12217 3.21501e-19)
(2.71855 6.77634 1.76042e-19)
(2.48845 6.42102 9.20501e-20)
(2.27713 6.05724 3.06224e-19)
(2.08353 5.68649 0)
(1.90994 5.3097 -2.3424e-19)
(1.7552 4.92808 6.22121e-20)
(1.62117 4.54247 0)
(19.5204 0.603508 0)
(19.5618 1.04532 0)
(19.5796 1.48917 2.49835e-19)
(19.5736 1.93363 -4.78604e-19)
(19.5441 2.37774 -2.47012e-19)
(19.4914 2.8202 -1.19937e-18)
(19.4154 3.2593 4.62984e-19)
(19.3161 3.69405 -9.57383e-19)
(19.194 4.12408 1.55239e-20)
(19.0502 4.54813 1.35693e-18)
(18.885 4.96421 -1.81134e-18)
(18.6984 5.37144 0)
(18.491 5.76876 0)
(18.2633 6.15591 1.71508e-18)
(18.0166 6.53142 8.28842e-19)
(17.7514 6.89337 -1.68212e-18)
(17.4677 7.24163 2.40822e-18)
(17.1662 7.57526 7.65921e-19)
(16.8479 7.89394 -1.50127e-18)
(16.5138 8.19739 -7.53409e-19)
(16.1657 8.48413 6.94972e-19)
(15.8043 8.75381 -7.11879e-20)
(15.4307 9.00531 0)
(15.0458 9.23712 1.30117e-18)
(14.6495 9.44981 -1.83532e-18)
(14.2434 9.64286 5.91145e-19)
(13.8286 9.81578 1.06357e-18)
(13.4061 9.96892 -2.58192e-18)
(12.9778 10.1011 5.05155e-19)
(12.544 10.2127 0)
(12.1062 10.3022 0)
(11.6642 10.3713 0)
(11.2206 10.419 3.4996e-19)
(10.7756 10.4465 9.90113e-19)
(10.3322 10.4522 -5.83536e-19)
(9.88964 10.4363 2.54409e-19)
(9.44958 10.3991 2.43722e-19)
(9.01301 10.3401 -4.33388e-19)
(8.57987 10.2608 0)
(8.15208 10.1614 -2.42196e-19)
(7.73106 10.042 1.26057e-19)
(7.31685 9.90353 1.42074e-20)
(6.91153 9.74653 9.78924e-21)
(6.51627 9.57144 2.92717e-20)
(6.13141 9.3791 -1.06003e-20)
(5.75935 9.16816 1.53718e-19)
(5.39756 8.94106 -6.56584e-20)
(5.04949 8.69761 2.23297e-19)
(4.71326 8.43995 0)
(4.39324 8.16768 0)
(4.08729 7.88108 -4.01347e-19)
(3.79646 7.58213 1.09145e-19)
(3.52313 7.27088 2.50391e-19)
(3.2652 6.94854 1.47943e-19)
(3.02607 6.61481 -4.66155e-19)
(2.80153 6.27194 -2.60861e-19)
(2.59606 5.9206 -9.59931e-20)
(2.40594 5.56299 -2.08917e-21)
(2.2367 5.19945 1.02827e-19)
(2.08412 4.83121 0)
(1.9529 4.45894 0)
(19.3201 0.652905 -2.52206e-20)
(19.3556 1.07798 0)
(19.3686 1.50524 0)
(19.3588 1.93298 2.1225e-19)
(19.3267 2.36013 0)
(19.2728 2.78568 8.17775e-19)
(19.1973 3.20794 4.0329e-19)
(19.0987 3.6253 -7.9209e-19)
(18.9774 4.03962 0)
(18.8361 4.44881 -8.04165e-19)
(18.6755 4.8482 4.42226e-20)
(18.4935 5.23967 0)
(18.2916 5.62092 0)
(18.0696 5.99311 -7.4976e-19)
(17.8296 6.35519 6.92236e-19)
(17.5732 6.70221 -7.1701e-19)
(17.2981 7.03655 -6.99023e-19)
(17.0055 7.35709 0)
(16.6968 7.66251 6.60484e-19)
(16.3725 7.95428 -1.20424e-18)
(16.0354 8.22948 -1.16338e-18)
(15.6855 8.48895 -1.19457e-18)
(15.3239 8.73163 -9.54337e-21)
(14.953 8.95323 -9.85918e-19)
(14.5695 9.15727 1.04559e-18)
(14.1764 9.34287 9.42314e-19)
(13.776 9.50811 -9.56311e-19)
(13.3669 9.65568 5.98963e-20)
(12.9536 9.78216 9.97088e-22)
(12.5341 9.89064 -7.99026e-19)
(12.1127 9.97519 0)
(11.6847 10.0428 -6.36881e-19)
(11.2574 10.0879 1.22674e-18)
(10.8267 10.1165 -4.63223e-20)
(10.4004 10.1228 5.2487e-19)
(9.97398 10.1079 -4.27203e-19)
(9.54982 10.0728 3.6298e-19)
(9.13016 10.0154 2.60129e-19)
(8.71181 9.93903 -5.72118e-19)
(8.29835 9.84358 2.40435e-19)
(7.89273 9.72855 1.53661e-19)
(7.49128 9.59526 1.62552e-19)
(7.09877 9.44423 -3.49076e-20)