/*--------------------------------*- C++ -*----------------------------------*\
| =========                 |                                                 |
| \\      /  F ield         | OpenFOAM: The Open Source CFD Toolbox           |
|  \\    /   O peration     | Version:  2.3.1                                 |
|   \\  /    A nd           | Web:      www.OpenFOAM.org                      |
|    \\/     M anipulation  |                                                 |
\*---------------------------------------------------------------------------*/
FoamFile
{
    version     2.0;
    format      ascii;
    class       volScalarField;
    location    "0.66";
    object      epsilon;
}
// * * * * * * * * * * * * * * * * * * * * * * * * * * * * * * * * * * * * * //

dimensions      [0 2 -3 0 0 0 0];

internalField   nonuniform List<scalar> 
9648
(
2389.13
2402.14
2399.05
2393.14
2383.2
2368.28
2348.38
2323.43
2293.33
2258.2
2218.27
2173.68
2125.29
2074.07
2020.8
1966.39
1911.91
1858.32
1806.26
1756.23
1708.75
1664.1
1622.42
1583.87
1548.5
1516.18
1486.85
1460.39
1436.74
1415.7
1397.17
1381.03
1367.13
1355.33
1345.57
1337.69
1331.6
1327.2
1324.49
1323.36
1323.71
1325.54
1328.82
1333.45
1339.51
1347.02
1355.94
1366.25
1378.04
1391.45
1406.48
1423.09
1441.53
1461.78
1483.82
1507.48
1532.6
1558.79
1585.31
1611.54
1637.03
584.822
578.195
569.521
560.291
552.098
547.412
546.208
547.366
550.451
555.563
562.413
570.301
578.784
587.473
596.026
604.073
611.44
618.096
624.038
629.206
633.703
637.597
640.943
643.861
646.486
648.881
651.104
653.235
655.361
657.535
659.784
662.169
664.735
667.479
670.441
673.649
677.098
680.786
684.733
688.969
693.486
698.27
703.334
708.689
714.317
720.252
726.488
732.996
739.758
746.779
754.004
761.41
768.946
776.647
784.371
792.098
799.67
807.198
814.534
821.598
828.342
230.164
232.481
236.503
242.7
251.138
261.498
273.929
288.023
303.66
320.441
338.131
356.259
374.466
392.402
409.767
426.317
441.88
456.362
469.706
481.896
492.96
502.934
511.894
519.929
527.136
533.603
539.416
544.668
549.433
553.788
557.799
561.527
565.023
568.333
571.498
574.547
577.513
580.413
583.269
586.099
588.919
591.747
594.584
597.439
600.317
603.211
606.12
609.024
611.92
614.785
617.613
620.402
623.11
625.795
628.334
630.832
633.188
635.543
637.727
639.785
641.709
130.216
138.95
149.298
161.384
175.194
190.662
207.737
226.202
245.802
266.171
286.975
307.816
328.36
348.287
367.342
385.308
402.045
417.471
431.543
444.266
455.665
465.788
474.716
482.537
489.359
495.284
500.411
504.838
508.646
511.925
514.749
517.187
519.306
521.155
522.781
524.226
525.526
526.704
527.789
528.802
529.761
530.688
531.597
532.495
533.388
534.28
535.17
536.055
536.935
537.802
538.638
539.47
540.268
541.048
541.757
542.457
543.143
543.807
544.426
545.009
545.595
96.9463
108.705
122.106
137.168
153.865
172.132
191.813
212.664
234.371
256.544
278.81
300.78
322.132
342.574
361.885
379.861
396.398
411.437
424.957
436.995
447.586
456.784
464.688
471.389
477.016
481.684
485.503
488.58
490.995
492.844
494.213
495.173
495.799
496.147
496.259
496.185
495.965
495.623
495.189
494.685
494.127
493.544
492.951
492.363
491.784
491.219
490.675
490.149
489.635
489.14
488.645
488.153
487.673
487.195
486.716
486.237
485.784
485.334
484.87
484.403
483.942
84.6774
98.437
113.957
131.195
150.042
170.379
191.971
214.514
237.641
260.922
283.971
306.387
327.885
348.187
367.137
384.519
400.255
414.339
426.757
437.598
446.913
454.745
461.23
466.445
470.556
473.697
475.978
477.528
478.411
478.732
478.589
478.042
477.19
476.089
474.765
473.281
471.692
470
468.248
466.453
464.625
462.801
460.999
459.239
457.514
455.833
454.201
452.63
451.109
449.624
448.174
446.749
445.351
443.979
442.624
441.317
440.05
438.799
437.549
436.31
435.066
81.0003
96.4687
113.806
132.897
153.521
175.518
198.575
222.338
246.427
270.316
293.677
316.04
337.211
356.907
375.114
391.51
406.07
418.866
429.85
439.209
447.013
453.244
458.138
461.689
464.15
465.67
466.34
466.346
465.686
464.49
462.886
460.889
458.647
456.203
453.548
450.774
447.967
445.075
442.176
439.273
436.358
433.49
430.685
427.968
425.305
422.72
420.218
417.799
415.466
413.199
410.987
408.817
406.706
404.606
402.545
400.543
398.599
396.714
394.831
392.93
391.056
81.3406
98.3793
117.374
138.108
160.22
183.516
207.668
232.293
256.981
281.092
304.402
326.279
346.736
365.413
382.629
397.775
410.902
422.231
431.525
439.196
445.361
449.811
453.069
454.825
455.55
455.403
454.425
452.924
450.727
448.042
445.059
441.665
438.124
434.432
430.531
426.57
422.642
418.605
414.651
410.742
406.822
402.984
399.292
395.723
392.219
388.856
385.573
382.423
379.37
376.419
373.543
370.728
367.977
365.222
362.526
359.931
357.37
354.932
352.463
349.956
347.545
83.5269
101.829
122.305
144.29
167.728
191.937
216.758
242.095
266.938
291.114
314.024
335.299
354.659
372.011
388.02
401.823
413.44
423.152
430.95
436.931
441.233
443.863
445.248
445.372
444.413
442.467
439.955
437.008
433.205
429.1
424.681
420.048
415.482
410.573
405.333
400.37
395.259
390.085
385.193
380.173
375.169
370.133
365.726
361.339
356.957
353.014
348.845
345.079
341.159
337.515
333.78
330.369
327.057
323.605
320.264
317.228
313.945
311.227
308.134
304.914
302.064
1661.85
1685.85
1708.72
1730.41
1751.13
1771.29
1791.01
1810.59
1830.05
1848.51
1865.63
1881.98
1897.81
1913.5
1929.29
1945.86
1963.78
1983.58
2005.59
2030.26
2057.28
2086.11
2116.37
2147.66
2179.65
2212.28
2245.74
2279.66
2314.02
2348.83
2384.3
2420.27
2456.77
2493.96
2531.83
2570.3
2609.47
2649.47
2690.37
2732.03
2774.45
2817.9
2862.35
2907.63
2954.07
3001.54
3049.91
3099.23
3149.7
3201.38
3254.17
3307.97
3363.33
3419.84
3477.86
3537.19
3598.56
3661.95
3727.37
3794.7
3864.09
834.734
841.197
847.483
853.508
859.296
864.973
870.69
876.286
881.993
887.443
892.849
898.146
903.451
908.787
914.146
919.575
925.089
930.732
936.491
942.339
948.234
954.117
959.966
965.761
971.49
977.132
982.617
987.915
993.021
997.959
1002.75
1007.35
1011.8
1016.12
1020.29
1024.32
1028.24
1032.03
1035.7
1039.24
1042.68
1046.03
1049.27
1052.39
1055.43
1058.36
1061.17
1063.86
1066.45
1068.94
1071.31
1073.57
1075.71
1077.9
1079.89
1081.97
1083.99
1086.21
1088.31
1090.46
1092.72
643.599
645.402
647.257
649.079
650.871
652.562
654.336
656.015
657.685
659.207
660.678
662.095
663.53
664.936
666.315
667.655
668.949
670.197
671.384
672.499
673.527
674.469
675.313
676.053
676.687
677.209
677.614
677.899
678.055
678.088
677.987
677.758
677.403
676.919
676.32
675.602
674.767
673.815
672.745
671.555
670.25
668.836
667.319
665.684
663.942
662.083
660.093
657.965
655.706
653.319
650.776
648.126
645.33
642.42
639.312
636.116
632.828
629.458
625.995
622.473
618.957
546.155
546.719
547.254
547.779
548.272
548.737
549.174
549.589
549.95
550.211
550.412
550.572
550.672
550.689
550.653
550.551
550.384
550.143
549.821
549.409
548.91
548.32
547.645
546.877
546.013
545.044
543.972
542.797
541.515
540.129
538.638
537.033
535.317
533.496
531.577
529.56
527.445
525.231
522.911
520.491
517.975
515.377
512.699
509.949
507.126
504.229
501.237
498.148
494.958
491.684
488.296
484.806
481.227
477.542
473.725
469.785
465.769
461.661
457.491
453.295
449.1
483.489
483.014
482.521
482.002
481.459
480.859
480.205
479.554
478.899
478.197
477.463
476.688
475.854
474.965
474.015
473.001
471.952
470.832
469.638
468.367
467.022
465.61
464.135
462.601
460.999
459.323
457.568
455.735
453.83
451.851
449.794
447.648
445.413
443.094
440.702
438.237
435.698
433.075
430.363
427.567
424.697
421.761
418.777
415.757
412.708
409.632
406.493
403.316
400.065
396.763
393.388
389.929
386.408
382.811
379.114
375.312
371.424
367.445
363.439
359.413
355.385
433.841
432.613
431.383
430.114
428.826
427.509
426.154
424.781
423.374
421.944
420.478
418.991
417.466
415.892
414.273
412.619
410.937
409.192
407.377
405.494
403.552
401.561
399.534
397.481
395.384
393.232
391.028
388.769
386.473
384.141
381.768
379.329
376.826
374.253
371.636
368.972
366.245
363.457
360.589
357.642
354.63
351.561
348.462
345.358
342.268
339.203
336.107
333.016
329.89
326.772
323.611
320.382
317.127
313.8
310.422
306.915
303.341
299.687
296.042
292.353
288.684
389.207
387.375
385.543
383.704
381.833
379.922
377.985
376.046
374.073
372.053
370.021
367.983
365.912
363.815
361.671
359.511
357.35
355.136
352.852
350.491
348.069
345.622
343.158
340.704
338.236
335.722
333.172
330.578
327.986
325.404
322.851
320.255
317.636
314.961
312.281
309.574
306.8
303.984
301.099
298.14
295.111
292.007
288.879
285.759
282.673
279.688
276.679
273.748
270.806
267.964
265.123
262.198
259.28
256.301
253.313
250.146
246.963
243.669
240.465
237.191
233.966
345.14
342.799
340.455
338.157
335.839
333.54
331.17
328.871
326.542
324.102
321.665
319.27
316.829
314.361
311.81
309.283
306.83
304.334
301.768
299.051
296.249
293.461
290.651
287.877
285.157
282.395
279.595
276.695
273.812
271.005
268.364
265.703
263.111
260.484
257.929
255.384
252.698
249.941
247.168
244.376
241.471
238.432
235.363
232.288
229.228
226.385
223.459
220.714
217.956
215.474
213.056
210.486
207.965
205.378
202.846
200.026
197.271
194.345
191.657
188.849
186.14
298.99
296.149
293.156
290.495
287.68
285.29
282.57
280.264
277.931
275.373
272.8
270.481
267.918
265.379
262.544
259.671
257.14
254.704
252.27
249.573
246.447
243.532
240.53
237.485
234.615
231.791
229.059
225.987
222.691
219.583
216.869
214.149
211.652
209.208
207.108
205.073
202.704
200.042
197.465
195.081
192.624
189.775
186.843
183.96
180.975
178.372
175.436
172.88
170.202
168.213
166.333
164.118
162.095
159.978
158.018
155.504
153.217
150.594
148.478
146.178
144.097
3936.6
4011.72
4088.85
4168.01
4249.66
4334.7
4422.58
4513.26
4606.45
4702.36
4801.4
4902.53
5005.94
5115.84
5252.4
5378.51
5503.36
5630.76
5760.64
5892.93
6027.97
6165.81
6306.03
6448.85
6594.04
6740.91
6889.16
7038.52
7188.82
7339.16
7489.47
7639.13
7787.28
7933.31
8076.71
8216.07
8350.23
8477.79
8590.36
8673.04
8729.04
8759.86
8765.3
8743.53
8692.95
8611.01
8493.62
8336.06
8133.93
7882.5
7575.4
7205.65
6767.87
6254.98
5613.15
4692.32
4286.48
4085.65
4007.01
3966.82
3879.57
1095.23
1097.82
1100.63
1103.5
1106.46
1109.67
1113.41
1117.57
1122.2
1127.14
1132.6
1136.01
1137.39
1140.31
1143.86
1148.81
1153.95
1159.03
1164.24
1169.7
1175.43
1181.47
1187.77
1194.35
1201.18
1208.23
1215.56
1223.17
1231.11
1239.43
1248.18
1257.41
1267.24
1277.8
1289.19
1301.65
1315.34
1330.65
1349
1378.35
1413.88
1452.27
1493.84
1538.75
1587.66
1640.92
1698.6
1760.98
1828.31
1900.13
1975.53
2052.89
2130.73
2207.66
2275.99
2340.09
2399.62
2486.2
2591.57
2697.72
2640.59
615.414
611.874
608.299
604.705
601.056
597.434
593.924
590.572
587.291
583.981
580.253
574.638
568.692
563.569
558.953
554.949
551.05
547.055
542.999
538.935
534.904
530.905
526.93
522.979
519.047
515.131
511.238
507.374
503.556
499.782
496.072
492.449
488.924
485.542
482.33
479.339
476.616
474.232
472.333
471.418
471.683
476.26
484.602
496.255
511.684
531.552
556.588
587.826
626.278
673.033
729.112
795.31
872.839
961.944
1062.2
1169.95
1277.01
1394.58
1539.78
1728.61
1911.45
444.907
440.722
436.537
432.334
428.086
423.84
419.645
415.551
411.439
407.233
402.267
396.27
390.445
385.167
380.276
375.737
371.311
366.904
362.493
358.106
353.744
349.39
345.051
340.731
336.426
332.145
327.889
323.658
319.455
315.282
311.14
307.036
302.983
298.99
295.069
291.239
287.522
283.935
280.506
277.299
274.395
272.111
271.158
271.914
274.273
278.584
285.313
295.122
308.865
327.577
352.686
385.532
427.787
480.544
544.341
617.027
694.559
778.677
878.09
1006.83
1166.23
351.375
347.425
343.495
339.541
335.521
331.503
327.502
323.586
319.646
315.596
310.793
305.481
300.44
295.807
291.425
287.28
283.238
279.287
275.391
271.558
267.765
263.962
260.179
256.422
252.681
248.969
245.283
241.626
237.988
234.373
230.779
227.214
223.685
220.2
216.769
213.404
210.115
206.915
203.813
200.828
197.986
195.353
193.067
191.492
190.72
190.785
191.915
194.416
198.727
205.398
215.234
229.254
248.669
274.739
308.442
349.834
397.497
451.03
512.854
588.734
684.701
285.014
281.463
277.94
274.415
270.752
267.095
263.432
259.888
256.322
252.693
248.381
243.867
239.62
235.723
231.967
228.377
224.849
221.47
218.178
214.986
211.842
208.659
205.512
202.409
199.315
196.261
193.224
190.217
187.214
184.225
181.245
178.292
175.365
172.483
169.646
166.868
164.156
161.519
158.959
156.49
154.123
151.882
149.809
147.994
146.684
145.776
145.396
145.667
146.801
149.079
152.877
158.729
167.316
179.411
195.886
217.284
243.714
275.254
312.568
357.39
412.845
230.656
227.542
224.468
221.443
218.162
214.913
211.604
208.501
205.384
202.298
198.545
194.792
191.259
188.096
184.955
181.957
178.947
176.158
173.459
170.879
168.352
165.726
163.181
160.725
158.257
155.841
153.414
151.028
148.612
146.208
143.79
141.412
139.056
136.756
134.492
132.29
130.143
128.068
126.059
124.134
122.294
120.562
118.949
117.488
116.249
115.37
114.769
114.513
114.708
115.49
117.052
119.651
123.61
129.367
137.396
148.185
162.145
179.6
201.028
227.239
259.541
183.179
180.5
177.902
175.454
172.573
169.766
166.805
164.202
161.586
159.122
155.908
152.837
149.916
147.456
144.869
142.468
139.931
137.724
135.577
133.535
131.557
129.386
127.379
125.572
123.686
121.844
119.937
118.115
116.195
114.294
112.343
110.483
108.637
106.881
105.137
103.469
101.824
100.258
98.7503
97.3381
95.9986
94.769
93.6504
92.6383
91.766
91.1383
90.7087
90.4751
90.5049
90.8718
91.6776
93.0469
95.1526
98.194
102.423
108.125
115.598
125.178
137.238
152.289
171.006
141.451
139.141
137.041
135.255
132.775
130.436
127.771
125.759
123.685
121.88
119.151
116.665
114.208
112.427
110.281
108.486
106.325
104.71
103.049
101.391
99.8767
98.0088
96.4871
95.4256
94.025
92.5978
91.0549
89.757
88.1728
86.659
85.0074
83.6447
82.2224
80.9812
79.6561
78.4492
77.1529
75.9947
74.9038
73.9443
73.0578
72.2728
71.6067
71.0244
70.4788
70.044
69.7927
69.656
69.7439
69.984
70.6165
71.5593
73.0179
74.9591
77.5976
80.9674
85.3631
90.8803
97.9174
106.739
117.708
3733.95
3574.42
3403.21
3223.85
3045.26
2872.72
2709.67
2560.62
2429.16
2317.21
2225.04
2151.48
2094.8
2052.75
2022.6
2001.8
1988.22
1980.33
1976.73
1976.24
1978.21
1982.11
1987.51
1994.33
2002.54
2012
2022.49
2034.13
2046.91
2060.73
2075.55
2091.3
2107.88
2125.05
2142.69
2160.54
2178.26
2195.6
2212.38
2228.29
2242.92
2256.09
2267.67
2277.52
2285.77
2292.68
2298.4
2303.14
2307.41
2311.89
2316.84
2322.35
2328.85
2336.46
2344.81
2353.61
2362.54
2371.55
2379.67
2385.9
2389.57
2448.43
2245.61
2046.61
1857.6
1690.87
1536.84
1394.41
1264.73
1147.94
1044.96
955.846
880.034
816.512
763.736
721.393
688.617
663.511
644.212
629.224
617.481
608.242
600.935
595.201
590.851
587.572
585.533
584.326
584.116
584.804
586.395
588.895
592.281
596.543
601.639
607.513
614.087
621.232
628.814
636.661
644.566
652.257
659.409
665.625
670.487
673.637
674.749
673.576
670.066
664.422
657.069
648.584
639.664
631.069
623.411
616.869
611.655
607.448
603.982
600.551
596.697
591.628
1992.55
1974.94
1868.85
1694.13
1515.42
1342.16
1173.46
1021.39
885.385
765.158
661.7
574.339
501.923
443.118
396.922
361.532
334.316
312.811
295.799
282.446
271.938
263.606
256.948
251.581
247.273
243.724
240.924
238.71
237.058
235.927
235.291
235.144
235.468
236.227
237.393
238.923
240.775
242.899
245.237
247.702
250.197
252.609
254.811
256.639
257.939
258.527
258.235
256.929
254.557
251.139
246.829
241.969
236.988
232.388
228.535
225.838
224.408
224.238
225.105
226.713
228.589
1331.06
1475.91
1569.38
1581.1
1508.73
1381.7
1211.8
1043.02
886.905
743.031
618.456
514.177
428.316
359.67
305.883
264.132
231.731
206.175
186.127
170.552
158.52
149.261
142.132
136.592
132.228
128.725
125.908
123.632
121.81
120.375
119.288
118.526
118.061
117.857
117.876
118.081
118.434
118.898
119.429
119.977
120.489
120.912
121.186
121.254
121.061
120.558
119.709
118.492
116.918
115.01
112.836
110.54
108.337
106.502
105.322
105.129
106.16
108.49
112.06
116.789
122.733
801.817
937.375
1079.9
1204.93
1283.23
1298
1244.99
1137.69
1000.64
845.721
700.365
575.294
467.822
380.45
311.16
256.369
213.503
180.011
153.897
133.748
118.374
106.803
98.1569
91.6658
86.7257
82.8946
79.8921
77.5214
75.6486
74.1685
73.0216
72.1732
71.586
71.2164
71.0234
70.969
71.0169
71.13
71.2719
71.4019
71.4773
71.4573
71.3034
70.9794
70.4548
69.7087
68.7372
67.5506
66.1668
64.6305
63.0144
61.4363
60.0807
59.1775
59.0115
59.8513
62.0007
65.6823
70.9845
78.0374
86.6886
481.981
567.864
671.276
787.821
905.024
1004.94
1067.55
1078.02
1034.9
946.299
829.524
703.315
576.088
466.184
376.115
301.731
243.015
196.597
159.741
131.329
109.92
94.1459
82.6702
74.2882
68.074
63.3821
59.8015
57.0527
54.9374
53.2972
52.0407
51.1163
50.4735
50.0579
49.8219
49.7248
49.7273
49.7946
49.8913
49.9806
50.024
49.9886
49.8402
49.551
49.0934
48.4537
47.6302
46.6373
45.4895
44.2249
42.904
41.6284
40.5532
39.8921
39.9363
41.0271
43.5898
47.922
54.2113
62.494
72.6579
299.687
349.93
412.572
488.98
578.042
674.817
769.11
846.708
893.434
899.147
862.158
790.042
694.812
590.534
488.599
392.235
313.405
248.893
195.307
153.493
121.86
98.8881
82.555
70.8784
62.4001
56.1187
51.424
47.904
45.2645
43.2549
41.7355
40.6244
39.853
39.3482
39.051
38.9121
38.8886
38.9436
39.0414
39.1464
39.2215
39.2395
39.167
38.9805
38.6498
38.1676
37.5293
36.751
35.8385
34.8286
33.7688
32.748
31.9011
31.4175
31.5802
32.7861
35.4731
40.0814
46.932
56.1031
67.4925
194.369
223.613
260.311
306.062
362.135
428.655
503.734
582.213
656.039
714.462
747.155
748.055
717.584
660.372
585.182
500.106
415.087
334.943
260.209
200.074
152.64
118.398
94.506
77.6251
65.4565
56.5077
49.8982
45.052
41.5133
38.8583
36.8732
35.4215
34.4099
33.7327
33.3129
33.0867
33.0026
33.0189
33.0979
33.2028
33.2955
33.3557
33.3487
33.2544
33.0362
32.6943
32.2176
31.627
30.9189
30.13
29.2988
28.5073
27.8745
27.5713
27.8684
29.1671
31.9385
36.7323
44.015
53.9602
66.4651
131.507
148.662
170.138
197.205
230.911
272.26
321.572
378.253
439.717
501.83
556.659
598.217
620.243
620.166
596.511
551.528
491.203
419.663
346.168
271.753
202.894
153.693
119.41
94.9711
76.9701
63.7172
53.9562
46.9417
41.932
38.2111
35.4684
33.452
32.0423
31.0781
30.4519
30.0727
29.8762
29.8099
29.8341
29.9034
29.9839
30.0587
30.0926
30.0645
29.9352
29.7054
29.3654
28.9315
28.3986
27.7968
27.1674
26.5839
26.1625
26.056
26.5203
27.9488
30.8376
35.8084
43.4346
54.0327
67.434
1.47106
207.262
185.615
2.29092
2.11063
0.203548
0.000719548
89.7955
0.000796822
0.0146819
93.1215
6.93957
0.000720514
241.78
0.166669
137.833
0.000757588
91.3122
117.184
0.000715259
2.30335
231.351
195.427
0.00076699
0.000781492
0.211606
0.000716481
7.61072
0.000753335
0.000820451
6.22593
0.00074065
0.00877609
65.6515
3.94301
111.085
71.1998
15.7668
0.000723189
44.5393
65.6127
27.9332
0.000743374
105.034
172.464
0.71549
0.000866645
0.00861142
1.29593
7.14081
359.492
353.198
0.000697563
0.00102877
0.0622305
0.0335807
0.000817573
8.88263
58.3767
280.487
139.355
0.000906652
1.54644
0.0249892
199.201
2.42078
38.5251
62.5423
0.00113171
0.000747678
9.76213
41.3648
56.1507
0.0402621
0.050894
80.2582
225.254
56.2605
0.000699508
5.40932
0.00234645
47.53
0.0125485
112.724
0.000749934
8.60025
0.000791471
37.0074
0.0110064
0.00136901
0.231869
0.00069789
0.000934766
303.986
143.542
0.000868118
1.57631
1.80068
0.00184878
207.89
1.05078
31.6256
5.99371
0.00069644
0.000725908
0.000693437
1.43959
0.209699
0.000748032
174.917
223.309
0.00475348
233.463
26.8689
113.07
54.6394
28.2346
0.000977284
0.110858
0.00110536
0.00167149
188.455
0.00311824
287.841
409.145
27.8146
0.00074606
7.17331
6.99558
0.000743982
0.0299245
0.0268555
91.9152
0.00187985
64.1297
0.000748879
0.000723732
393.036
346.353
0.000748958
0.745064
150.068
0.232188
0.902126
26.5319
119.964
0.294007
27.4648
0.00526453
269.052
11.1081
0.0362685
49.7313
110.249
188.82
0.000766192
0.000757723
0.514044
0.000695642
41.1739
0.113021
0.00144976
0.000740289
0.000747534
0.000758568
40.9382
69.272
34.4684
0.000766851
278.805
297.518
409.635
165.192
0.00691227
160.943
45.9165
28.1452
0.000750405
0.00169911
193.857
67.5294
28.6259
73.0534
0.000745481
0.000842771
237.646
0.0295984
2.47033
0.000757802
0.00086483
0.172949
0.000797793
326.443
4.06652
0.000691823
0.681179
90.2972
137.979
0.00119782
52.3891
0.000746723
0.000750321
108.549
33.8661
294.015
0.00121468
0.000801191
0.00285424
43.0677
76.0322
9.91313
120.256
14.3419
232.899
0.809794
88.483
84.1706
26.0772
10.6232
39.4696
0.00144642
0.0293901
0.000747783
0.000724536
28.319
0.0100305
0.0117577
0.0019966
0.00627278
47.6993
196.801
0.0111253
166.746
7.51624
2.97524
0.000732516
0.51967
39.2874
7.3046
0.00106292
13.205
34.8883
0.839119
2.459
271.839
7.66833
4.88426
125.114
0.000955465
0.000723771
0.00102792
0.00428488
28.6683
0.000784827
0.00251894
0.000723621
1.76119
76.6683
76.7672
48.8604
12.0775
11.3648
323.175
0.00113937
47.7982
98.9439
0.000743955
85.818
0.000749606
325.868
1.76204
55.0231
0.00155005
0.000748526
20.2151
7.42491
0.000759624
0.000750742
0.00075552
0.000751645
1.17844
35.9172
45.7824
0.0107962
0.000760434
0.000724412
0.000695425
106.947
1.11803
0.0011921
19.6983
0.116438
0.0943095
0.000691604
0.782142
0.000760155
0.109379
47.5363
267.797
3.1259
0.000976011
0.0018486
57.0464
0.354803
131.313
321.167
0.000838576
0.000739948
0.000734044
159.354
0.000773955
136.885
0.000749854
24.7295
12.3147
0.024143
141.69
237.632
0.00127377
49.6969
50.8386
90.2604
91.4088
9.74382
343.587
38.4933
72.3258
140.286
97.1922
56.3503
0.339742
334.401
279.777
62.2118
33.5232
0.000998718
262.627
127.768
232.339
0.018816
0.000868009
0.00074581
0.000812092
0.692099
1.55455
6.2016
0.125127
0.000726252
171.226
0.000746413
27.0015
24.3851
193.954
41.3344
19.0567
0.00193299
0.00110758
0.458739
87.5363
0.0043633
8.06772
256.101
35.8162
85.5954
187.89
61.5132
0.000822069
283.031
142.466
97.9811
0.000750601
191.822
152.713
0.000781776
30.4217
0.000751741
385.951
169.927
27.9241
83.5066
116.159
150.544
0.000764711
149.944
0.000965841
68.6056
82.6818
28.1611
279.453
3.62533
0.49156
2.55288
0.00110131
441.04
1.49218
0.002907
0.00180971
251.604
0.000954207
94.3966
0.000737401
0.000750153
0.00183762
32.2189
0.193379
22.5248
0.0019979
85.6774
0.308595
214.738
279.087
39.582
330.832
0.000793546
279.779
42.7882
0.000742499
79.9985
26.5509
0.000695761
0.000727413
114.681
0.00205978
25.8383
0.454695
78.7434
0.0177156
3.53403
40.9241
118.304
33.9249
81.0508
70.9573
0.00099824
0.0336078
28.7717
20.658
330.063
332.399
137.085
0.0846926
124.967
123.84
3.44858
92.0494
47.1496
26.8766
0.000820393
85.8593
378.677
0.00107691
90.7955
19.0652
47.7735
0.0153607
0.0893224
263.097
0.00193604
325.992
0.00124828
1.76098
0.000738118
7.76841
169.491
0.555563
0.00132259
0.000901519
77.2766
26.6842
0.38222
5.38114
288.519
546.191
0.00138398
11.6297
27.1116
73.014
26.1073
450.384
28.6729
153.313
52.6089
3.43866
7.14708
302.013
54.5927
351.916
173.464
0.236083
174.001
60.9056
0.000791752
92.1449
29.4581
13.0948
0.00977099
97.5623
44.9196
4.20762
53.5525
0.00159334
0.000747188
0.164969
28.3139
103.532
72.3084
0.000750208
0.00073128
0.000744075
28.1368
0.0276699
0.000745783
0.247509
95.2127
268.205
0.00440653
0.00454111
0.000721116
0.000738841
0.00194576
30.1653
102.324
20.3445
1.87535
292.753
375.218
0.00151046
60.1343
27.8099
28.3208
77.6861
432.223
0.000821901
0.00445821
0.0007511
398.85
0.786186
0.00072692
10.4377
0.353628
300.922
0.000759329
318.452
8.78836
0.0653161
202.56
0.000748358
0.000736886
0.00102704
399.097
53.7856
131.792
311.817
10.9999
28.5793
0.000708357
0.00184813
0.461413
0.0158823
0.0163665
181.116
40.7271
0.000747936
25.405
44.9359
184.008
401.446
0.0029528
405.251
0.00182736
0.0218407
150.365
0.000739632
149.069
0.000759561
0.000792066
0.0209716
34.4221
2.90916
328.71
62.1826
0.000886173
28.3994
499.159
0.219365
2.23289
7.39756
0.00077514
0.000759909
0.00230928
138.425
5.40072
0.000782791
267.144
273.473
216.174
0.117444
59.3522
0.00108917
30.5722
0.527904
0.131526
120.904
29.7255
152.696
175.567
0.000761148
0.000711211
0.00494811
72.9144
103.312
5.88168
0.0066018
0.000771367
0.000750238
0.00344036
0.120136
0.0021183
71.856
21.0985
0.00498529
26.2428
172.601
0.000760726
37.9848
0.000742721
3.3526
0.00076249
0.0132486
36.3135
0.0116621
0.000744601
4.03249
357.25
255.999
0.000731017
0.000746474
1.56172
0.129936
0.000747753
95.5898
0.000906225
31.9282
371.7
29.8569
87.7855
300.77
130.759
334.945
0.000747831
0.00250441
0.0110268
290.108
60.4991
198.072
5.48745
4.25012
99.4475
168.286
124.385
4.93882
44.7202
0.000750547
1.55149
41.658
33.2771
306.582
25.8214
1.1004
41.4316
0.205469
0.00968218
41.6872
0.000751235
172.129
0.000887108
2.72173
292.849
186.161
3.06855
0.00251384
7.26988
0.000769207
0.000736295
0.199193
0.0135347
53.5924
0.00872819
28.5968
0.000750517
0.0190926
0.000725477
97.6605
0.00180275
85.947
306.604
0.0142785
170.617
363.945
0.000757244
99.9831
221.414
0.000785432
287.507
0.270091
0.000823207
0.000789099
273.892
0.000731648
0.00111988
0.122574
0.21719
423.125
269.714
0.000751494
0.000754878
9.17982
28.2886
0.00711434
2.32511
22.1179
0.000747694
0.000954864
0.000910356
170.728
271.745
3.48258
287.623
0.0172109
26.5807
0.00077138
0.00719868
0.0160636
0.0432036
0.000749757
289.607
0.000741946
0.016102
0.000772109
1.35721
0.0147696
0.0420187
2.5337
5.17779
34.8638
2.1796
9.29492
27.8332
188.615
0.000816695
164.858
323
12.9603
77.4517
0.000761923
265.664
79.4923
0.000745738
401.208
65.4035
0.00652976
0.025864
164.799
164.287
0.227542
313.776
399.422
4.36949
422.873
259.805
130.638
50.241
20.1312
27.7134
262.884
286.362
0.0142553
300.911
40.8815
401.446
0.000813672
1.60438
2.81253
227.395
164.935
0.0118578
445.038
198.454
6.76271
0.0539747
2.76533
28.0445
0.00154975
28.1728
432.797
0.0293492
223.854
14.5242
95.5452
190.46
0.000746161
0.00168049
7.35467
5.38308
0.0132271
0.000748317
0.824403
1.76826
0.00120983
0.000758694
268.048
7.09541
53.5484
10.8728
0.00315393
0.00107651
0.425673
86.663
0.000824414
22.3977
30.1669
1.83984
166.675
0.00100595
0.389931
0.000740655
1.75476
89.0804
0.00166543
0.185257
40.6305
161.779
0.502942
96.8407
5.20426
0.919166
0.0009883
34.1659
325.707
0.000744124
0.000754736
149.537
0.0158274
0.000758243
74.6006
2.1031
167.06
29.4827
38.2027
0.315139
17.0685
200.683
159.931
239.987
0.000763421
270.134
0.000968485
38.3546
0.00079554
0.00149351
44.7123
0.00209425
252.39
0.0122031
0.0324091
45.7455
7.78686
0.54961
0.000897972
185.175
0.000887489
0.000719119
339.691
162.135
41.1031
28.5203
0.00081438
0.000683576
19.0384
150.029
0.000732704
213.034
37.4757
0.000753025
172.581
0.000701796
3.26995
6.3661
10.5986
1.55038
76.8282
21.0582
0.000699974
268.202
319.148
0.000744647
0.0132407
28.8029
0.00070841
240.686
159.916
402.088
0.000745653
0.000727874
198.048
0.0955443
0.000837108
31.9568
81.2404
248.856
0.000720762
0.000794003
0.0158036
0.0116262
0.000746877
0.00202962
128.575
50.5226
0.000746751
13.7449
0.000747053
9.87451
0.0010906
0.00086763
27.6686
0.000746401
0.335482
0.00073055
49.944
2.05658
20.8142
188.682
358.835
149.58
5.20397
14.6252
0.000758248
5.636
277.327
531.879
0.156849
0.000827051
130.724
0.000746113
0.113772
0.000720514
434.514
14.7142
3.06244
195.199
53.0404
4.86451
82.2942
7.78563
226.581
115.565
0.000774088
0.000755685
0.00308947
0.00073506
0.0140793
97.0789
0.000931957
246.66
0.00186799
0.305041
3.06368
153.173
0.00135855
42.9045
0.0134836
54.0954
30.9736
428.972
0.00079441
0.000954681
1.46164
86.3866
63.3047
66.6892
1.97876
7.95025
20.0456
0.0627953
9.84695
1.7441
30.1656
0.000755878
389.183
1.43141
56.4771
0.000788625
53.4719
16.0855
0.00191769
89.4454
17.2055
0.0846077
0.000714705
0.000746104
202.706
48.4195
14.8512
0.000738265
0.0095628
50.1347
190.831
3.40358
0.00586359
0.000733997
146.314
131.419
35.6659
36.5299
0.000743806
102.913
429.966
0.000746916
0.000749292
18.727
0.00128962
0.00387603
0.224257
47.8082
0.00105104
36.1573
342.56
0.000730984
0.000821506
0.000727335
0.000770492
68.0457
514.15
330.308
0.0206319
34.8587
46.7987
0.133204
45.9103
0.000822275
31.3284
0.531427
30.3479
5.32607
82.7678
103.441
0.13855
0.000759127
161.851
85.145
273.353
5.71215
30.0145
0.53296
20.0277
0.00353794
0.00133616
154.223
144.581
0.0336131
1.21021
0.000754108
0.0998247
19.7503
0.0277629
13.9088
4.36954
388.512
37.145
1.73004
267.286
142.725
56.1231
15.6976
199.971
186
3.17532
38.2866
0.00380049
47.6649
45.6684
0.000743466
0.000710601
0.337639
0.000748541
0.000775051
57.1098
297.414
0.000744725
83.0604
0.000745047
0.00073685
0.000741248
0.000752507
0.00181634
29.4753
44.1508
250.224
0.00071838
0.00107343
6.71623
0.000855789
0.0283446
0.000762782
0.000863404
167.243
0.000983886
0.00466672
183.093
0.0042625
0.000749452
187.103
0.000745418
0.000760695
1.44122
0.000871455
6.52818
0.00123765
0.0239448
0.00074385
0.000753648
302.464
415.653
44.4608
0.0237222
112.005
16.4981
0.00130057
27.502
306.372
236.966
474.743
0.000699634
26.2773
57.3449
0.262208
28.5112
101.17
0.351101
31.5506
1.01592
28.4398
0.282029
7.34424
0.000757616
218.638
0.000755057
28.644
32.8108
0.000747872
0.916203
0.00246088
0.0303345
0.000726409
3.84705
0.000894431
0.000741919
40.1764
0.0336721
0.1654
232.796
154.922
0.000818695
0.000968018
30.8896
260.111
0.000689706
0.000754107
0.191848
24.1961
149.772
0.00209811
15.9599
0.00074552
0.000818671
0.00071819
0.0279604
23.4098
0.0040865
267.237
29.7753
258.677
172.96
0.000843714
291.873
67.949
0.000732721
0.000754063
0.000750339
0.00115976
0.000740278
125.144
0.000745397
0.000750657
341.741
1.22001
0.00268223
0.0359679
61.1269
7.54154
0.00768865
0.000824376
186.815
0.000762691
6.73822
0.000755017
0.000846109
164.18
161.543
0.00334025
0.00083375
3.80502
0.000744265
359.063
0.000753093
149.602
0.0271431
8.45262
0.124465
3.09046
1.93911
29.9311
0.000760942
0.000860581
0.00490528
59.5399
0.284175
302.407
0.000747115
0.0012412
0.00164208
256.664
63.049
275.243
0.00226245
0.00350172
0.834733
0.000751311
19.3636
37.9707
0.00878328
264.434
183.188
42.8612
0.00154817
1.44476
170.01
224.654
27.8517
0.0105818
123.512
0.519801
133.135
0.144678
2.27421
42.3008
0.000761952
28.388
0.00122429
0.00510055
0.00659055
0.0478913
0.000907773
10.7812
0.000746081
45.8926
0.132368
0.000865142
1.56834
0.000756578
0.764234
0.228482
40.1066
3.80509
93.0097
0.816992
0.000748394
0.000732667
4.72181
0.158868
44.2574