/*--------------------------------*- C++ -*----------------------------------*\
| =========                 |                                                 |
| \\      /  F ield         | OpenFOAM: The Open Source CFD Toolbox           |
|  \\    /   O peration     | Version:  2.3.1                                 |
|   \\  /    A nd           | Web:      www.OpenFOAM.org                      |
|    \\/     M anipulation  |                                                 |
\*---------------------------------------------------------------------------*/
FoamFile
{
    version     2.0;
    format      ascii;
    class       volScalarField;
    location    "0.66";
    object      p;
}
// * * * * * * * * * * * * * * * * * * * * * * * * * * * * * * * * * * * * * //

dimensions      [0 2 -2 0 0 0 0];

internalField   nonuniform List<scalar> 
9648
(
-0.153706
-0.439365
-0.776489
-1.16143
-1.6214
-2.16944
-2.81758
-3.57516
-4.44869
-5.45612
-6.60867
-7.9191
-9.39982
-11.0614
-12.9129
-14.9642
-17.2231
-19.6982
-22.3926
-25.3105
-28.4566
-31.8275
-35.4227
-39.2373
-43.2668
-47.5016
-51.931
-56.5461
-61.3294
-66.2719
-71.3531
-76.5578
-81.8706
-87.2667
-92.7351
-98.2479
-103.792
-109.347
-114.89
-120.398
-125.85
-131.238
-136.523
-141.696
-146.746
-151.64
-156.368
-160.911
-165.274
-169.428
-173.333
-176.995
-180.416
-183.565
-186.446
-189.043
-191.343
-193.353
-195.048
-196.443
-197.525
0.383226
0.111866
-0.210412
-0.588659
-1.04306
-1.57496
-2.1969
-2.92371
-3.76816
-4.73864
-5.84602
-7.10196
-8.51738
-10.1025
-11.867
-13.8196
-15.968
-18.3189
-20.8768
-23.6458
-26.6286
-29.8245
-33.2318
-36.8465
-40.6631
-44.6736
-48.8685
-53.2374
-57.7672
-62.4454
-67.2556
-72.1822
-77.2094
-82.3178
-87.491
-92.7088
-97.9547
-103.209
-108.451
-113.661
-118.821
-123.911
-128.909
-133.8
-138.566
-143.185
-147.642
-151.921
-156.007
-159.895
-163.576
-167.031
-170.249
-173.219
-175.926
-178.366
-180.522
-182.403
-183.987
-185.277
-186.258
0.196799
-0.0516803
-0.348723
-0.700714
-1.11324
-1.60775
-2.19186
-2.87736
-3.6746
-4.59671
-5.65402
-6.85827
-8.21995
-9.74879
-11.4543
-13.3448
-15.4277
-17.7091
-20.1935
-22.8849
-25.7853
-28.8947
-32.2116
-35.7315
-39.449
-43.3562
-47.4442
-51.7026
-56.1191
-60.6809
-65.3726
-70.1785
-75.0829
-80.0683
-85.117
-90.2107
-95.3322
-100.463
-105.582
-110.673
-115.715
-120.689
-125.577
-130.36
-135.022
-139.545
-143.911
-148.106
-152.114
-155.922
-159.52
-162.897
-166.048
-168.947
-171.601
-173.987
-176.115
-177.952
-179.508
-180.779
-181.771
0.424443
0.175254
-0.118882
-0.465477
-0.87344
-1.35378
-1.91735
-2.57569
-3.34015
-4.22293
-5.23574
-6.38985
-7.69568
-9.16289
-10.8014
-12.6189
-14.6226
-16.8184
-19.2102
-21.8019
-24.5957
-27.5911
-30.787
-34.1784
-37.7597
-41.5233
-45.4603
-49.5612
-53.8137
-58.205
-62.7211
-67.3459
-72.0643
-76.8605
-81.7166
-86.6151
-91.5396
-96.4713
-101.392
-106.285
-111.13
-115.909
-120.603
-125.195
-129.669
-134.006
-138.193
-142.213
-146.055
-149.704
-153.149
-156.381
-159.392
-162.166
-164.695
-166.971
-168.987
-170.731
-172.202
-173.395
-174.308
0.48484
0.267936
0.00573585
-0.309974
-0.687289
-1.13568
-1.66498
-2.2858
-3.01013
-3.84876
-4.81413
-5.91611
-7.16533
-8.57046
-10.1423
-11.8873
-13.8126
-15.9238
-18.2235
-20.7164
-23.4047
-26.2871
-29.3636
-32.6277
-36.0743
-39.6958
-43.4828
-47.4276
-51.5174
-55.7402
-60.0828
-64.5281
-69.0629
-73.6727
-78.3391
-83.045
-87.7765
-92.5134
-97.2401
-101.94
-106.594
-111.184
-115.691
-120.1
-124.394
-128.556
-132.573
-136.428
-140.11
-143.607
-146.909
-150.005
-152.889
-155.549
-157.974
-160.153
-162.077
-163.743
-165.15
-166.291
-167.161
0.579336
0.37899
0.137336
-0.155144
-0.505575
-0.924391
-1.42087
-2.00545
-2.69076
-3.48634
-4.40576
-5.45705
-6.65164
-7.9954
-9.5022
-11.176
-13.0236
-15.051
-17.2581
-19.651
-22.2334
-25.001
-27.9577
-31.0927
-34.4022
-37.8784
-41.5105
-45.2953
-49.2176
-53.2657
-57.4297
-61.6887
-66.0317
-70.4481
-74.9169
-79.4211
-83.9508
-88.4831
-93.0052
-97.5037
-101.958
-106.349
-110.658
-114.873
-118.977
-122.952
-126.788
-130.466
-133.978
-137.312
-140.459
-143.409
-146.156
-148.692
-151.004
-153.076
-154.901
-156.477
-157.807
-158.884
-159.702
0.679247
0.496302
0.274352
0.00337081
-0.321987
-0.713313
-1.17912
-1.72879
-2.37695
-3.13066
-4.00637
-5.00904
-6.15146
-7.43403
-8.87763
-10.4809
-12.2505
-14.1952
-16.3088
-18.5993
-21.0753
-23.7252
-26.5622
-29.5675
-32.7368
-36.0657
-39.5367
-43.1581
-46.9088
-50.7759
-54.759
-58.8271
-62.9689
-67.1861
-71.4538
-75.747
-80.0684
-84.3886
-88.6967
-92.988
-97.2361
-101.425
-105.526
-109.539
-113.446
-117.228
-120.877
-124.37
-127.704
-130.866
-133.854
-136.649
-139.251
-141.66
-143.855
-145.818
-147.536
-149.013
-150.262
-151.276
-152.039
0.779365
0.614751
0.414603
0.163963
-0.135858
-0.501138
-0.938842
-1.45173
-2.06592
-2.7761
-3.61274
-4.56698
-5.66619
-6.8802
-8.26377
-9.79901
-11.4867
-13.3559
-15.3753
-17.5529
-19.9319
-22.4518
-25.1776
-28.0546
-31.0744
-34.2638
-37.5564
-41.0134
-44.5957
-48.2663
-52.0802
-55.9552
-59.871
-63.8891
-67.97
-72.0229
-76.1358
-80.2412
-84.3157
-88.4063
-92.4384
-96.4337
-100.305
-104.105
-107.828
-111.398
-114.869
-118.157
-121.316
-124.285
-127.122
-129.739
-132.18
-134.467
-136.559
-138.395
-140.009
-141.361
-142.529
-143.496
-144.194
0.886248
0.730679
0.567885
0.322086
0.0585919
-0.291784
-0.707534
-1.15684
-1.76831
-2.40166
-3.23518
-4.11059
-5.22121
-6.30095
-7.66595
-9.15147
-10.7157
-12.5543
-14.4582
-16.4907
-18.8541
-21.1601
-23.8393
-26.5615
-29.4105
-32.5378
-35.569
-38.8961
-42.347
-45.7441
-49.4577
-53.1087
-56.7608
-60.632
-64.5717
-68.2104
-72.2232
-76.109
-79.8948
-83.8449
-87.583
-91.4561
-95.0158
-98.6779
-102.268
-105.513
-108.911
-111.885
-114.935
-117.598
-120.348
-122.687
-124.994
-127.238
-129.206
-130.852
-132.46
-133.591
-134.753
-135.673
-136.236
-198.271
-198.694
-198.801
-198.58
-198.054
-197.21
-196.054
-194.584
-192.791
-190.702
-188.293
-185.58
-182.597
-179.348
-175.825
-172.042
-168.005
-163.742
-159.245
-154.527
-149.621
-144.515
-139.232
-133.783
-128.198
-122.482
-116.619
-110.648
-104.574
-98.4295
-92.2153
-85.9516
-79.66
-73.3408
-67.0221
-60.7059
-54.4157
-48.1634
-41.9571
-35.8138
-29.7449
-23.774
-17.8981
-12.1378
-6.50697
-1.00811
4.34298
9.53804
14.5619
19.408
24.0713
28.541
32.8061
36.8655
40.7085
44.3302
47.7255
50.889
53.8203
56.5148
58.9723
-186.93
-187.269
-187.34
-187.108
-186.577
-185.756
-184.636
-183.222
-181.502
-179.486
-177.174
-174.574
-171.727
-168.633
-165.282
-161.678
-157.834
-153.763
-149.472
-144.972
-140.283
-135.409
-130.363
-125.158
-119.807
-114.322
-108.734
-103.046
-97.264
-91.4062
-85.485
-79.5158
-73.5135
-67.4901
-61.4618
-55.438
-49.4347
-43.4657
-37.5425
-31.6777
-25.8846
-20.179
-14.5683
-9.06583
-3.68404
1.57014
6.68539
11.6511
16.4556
21.0915
25.5522
29.8286
33.9114
37.7976
41.478
44.9479
48.2006
51.2336
54.0439
56.6284
58.9861
-182.467
-182.894
-182.981
-182.76
-182.252
-181.467
-180.367
-178.971
-177.254
-175.243
-172.966
-170.423
-167.603
-164.514
-161.176
-157.602
-153.799
-149.779
-145.549
-141.124
-136.515
-131.73
-126.782
-121.681
-116.439
-111.066
-105.582
-99.9994
-94.33
-88.5877
-82.786
-76.9399
-71.0628
-65.1685
-59.27
-53.3791
-47.5087
-41.6718
-35.8812
-30.1494
-24.4895
-18.9147
-13.4347
-8.06166
-2.80585
2.32418
7.31768
12.1643
16.8538
21.3791
25.7315
29.9041
33.8889
37.6816
41.274
44.6611
47.8376
50.7996
53.5446
56.0691
58.3735
-174.936
-175.291
-175.348
-175.115
-174.584
-173.742
-172.61
-171.257
-169.647
-167.77
-165.61
-163.188
-160.501
-157.559
-154.373
-150.95
-147.301
-143.437
-139.368
-135.109
-130.67
-126.062
-121.295
-116.38
-111.327
-106.15
-100.862
-95.4781
-90.0098
-84.4699
-78.8713
-73.2288
-67.5563
-61.8676
-56.1737
-50.4866
-44.8182
-39.1805
-33.5869
-28.0494
-22.5808
-17.1936
-11.8982
-6.70557
-1.62541
3.33446
8.1627
12.85
17.3852
21.7633
25.9744
30.0118
33.8697
37.5419
41.0232
44.3056
47.3866
50.2597
52.9237
55.3747
57.6138
-167.758
-168.083
-168.131
-167.903
-167.395
-166.608
-165.569
-164.207
-162.596
-160.74
-158.628
-156.265
-153.654
-150.806
-147.723
-144.415
-140.888
-137.152
-133.22
-129.106
-124.82
-120.373
-115.774
-111.03
-106.154
-101.159
-96.0567
-90.863
-85.5884
-80.2453
-74.8438
-69.4013
-63.93
-58.4457
-52.956
-47.4731
-42.0071
-36.5695
-31.1746
-25.8336
-20.5584
-15.3624
-10.255
-5.24701
-0.347745
4.43813
9.09517
13.6184
17.9935
22.2183
26.2825
30.1787
33.9029
37.448
40.8117
43.9837
46.9638
49.7414
52.3193
54.6911
56.8598
-160.257
-160.549
-160.573
-160.331
-159.821
-159.05
-158.018
-156.719
-155.164
-153.364
-151.321
-149.035
-146.511
-143.762
-140.791
-137.602
-134.202
-130.598
-126.805
-122.841
-118.713
-114.435
-110.011
-105.445
-100.753
-95.9436
-91.0317
-86.0353
-80.9613
-75.8216
-70.6221
-65.3856
-60.1207
-54.8492
-49.5711
-44.2998
-39.0434
-33.8124
-28.6234
-23.4852
-18.4097
-13.4117
-8.49815
-3.6816
1.0295
5.6371
10.1182
14.4737
18.6817
22.7487
26.6602
30.4091
33.9954
37.4066
40.6501
43.7065
46.5825
49.2601
51.75
54.0372
56.1331
-152.55
-152.803
-152.804
-152.545
-152.036
-151.281
-150.269
-149.001
-147.493
-145.753
-143.782
-141.576
-139.141
-136.495
-133.641
-130.576
-127.305
-123.831
-120.18
-116.369
-112.406
-108.303
-104.061
-99.6783
-95.174
-90.5536
-85.8368
-81.0436
-76.1762
-71.2444
-66.2495
-61.2218
-56.1673
-51.1168
-46.0567
-41.0058
-35.9674
-30.9486
-25.971
-21.0434
-16.1734
-11.3782
-6.66403
-2.04517
2.47169
6.89731
11.1987
15.3844
19.4203
23.3238
27.0771
30.6739
34.1165
37.3885
40.5093
43.4469
46.2191
48.7927
51.1906
53.3881
55.4093
-144.659
-144.864
-144.842
-144.558
-144.055
-143.314
-142.329
-141.071
-139.595
-137.933
-136.04
-133.91
-131.562
-129.023
-126.3
-123.36
-120.221
-116.873
-113.369
-109.718
-105.918
-101.998
-97.9562
-93.753
-89.4404
-85.0128
-80.4981
-75.913
-71.2469
-66.5281
-61.7315
-56.9186
-52.0715
-47.2559
-42.4177
-37.6075
-32.8076
-27.9922
-23.227
-18.5294
-13.8596
-9.2672
-4.76574
-0.342337
3.96582
8.21485
12.3285
16.3507
20.1999
23.9373
27.5233
30.9552
34.259
37.3825
40.3899
43.2028
45.8778
48.3327
50.6389
52.7351
54.6853
-136.66
-136.787
-136.755
-136.441
-135.947
-135.188
-134.248
-132.927
-131.53
-130.055
-128.168
-126.115
-123.82
-121.372
-118.88
-115.993
-112.981
-109.825
-106.446
-102.97
-99.2504
-95.4952
-91.7523
-87.6313
-83.5228
-79.3659
-74.9904
-70.6492
-66.0768
-61.6886
-56.9656
-52.4916
-47.7387
-43.2591
-38.6039
-34.0641
-29.5639
-24.8335
-20.2878
-15.8685
-11.3165
-6.97698
-2.7263
1.58201
5.53524
9.74966
13.5382
17.5152
21.0397
24.6858
28.1212
31.2912
34.5737
37.4334
40.4643
43.0251
45.7102
47.8973
50.2383
52.1334
54.1209
61.194
63.1785
64.9264
66.4383
67.7137
68.7569
69.5718
70.1633
70.536
70.696
70.6653
70.4865
70.1536
69.6258
68.9285
68.0683
67.0091
65.76
64.3431
62.7743
61.0654
59.227
57.2715
55.2097
53.054
50.8171
48.5124
46.1542
43.7547
41.3297
38.8923
36.4576
34.0409
31.6559
29.3193
27.0441
24.8454
22.7375
20.7433
18.8776
17.1656
15.6121
14.2306
13.0408
12.0572
11.2893
10.7461
10.4293
10.3328
10.438
10.7105
11.0959
11.5151
11.8661
11.9933
11.2553
9.74036
8.23066
7.00764
6.0862
5.26495
61.1174
63.0228
64.7023
66.1564
67.3852
68.3907
69.1765
69.7465
70.1051
70.2546
70.2089
70.0262
69.7081
69.2039
68.5257
67.6798
66.6463
65.4324
64.0556
62.5307
60.869
59.0813
57.1793
55.1754
53.0815
50.9096
48.672
46.3817
44.0512
41.6946
39.3249
36.9563
34.6031
32.2791
29.9992
27.7777
25.629
23.5647
21.5912
19.7355
18.0062
16.4382
15.0403
13.8256
12.8062
11.9923
11.3921
11.0078
10.8336
10.8531
11.0348
11.3286
11.6581
11.9208
11.9254
11.2348
9.90061
8.56532
7.5259
6.71909
5.88442
60.4565
62.32
63.9634
65.3883
66.594
67.5835
68.3597
68.9271
69.2878
69.4393
69.4036
69.2452
68.9506
68.4684
67.8156
67.0002
66.0092
64.8478
63.5291
62.0661
60.4698
58.7507
56.9204
54.9905
52.972
50.8768
48.7168
46.5043
44.2516
41.9719
39.6784
37.3844
35.1036
32.8496
30.6361
28.4771
26.3856
24.3738
22.4538
20.6472
18.9718
17.4398
16.0645
14.8565
13.8271
12.9858
12.3393
11.8885
11.6276
11.5412
11.5991
11.7547
11.9322
12.0271
11.859
11.1714
10.003
8.78573
7.77538
6.93112
6.09302
59.6387
61.452
63.0523
64.4424
65.6205
66.5905
67.3533
67.9144
68.2723
68.4227
68.4025
68.2735
68.0034
67.5498
66.9268
66.1442
65.1958
64.0879
62.8289
61.4308
59.9035
58.2566
56.5026
54.652
52.7147
50.7037
48.6296
46.5046
44.3402
42.1497
39.945
37.7396
35.5461
33.3779
31.2477
29.1691
27.1545
25.2164
23.3677
21.6246
20.0019
18.5116
17.1645
15.9689
14.935
14.0705
13.3795
12.8608
12.5071
12.3029
12.2193
12.2121
12.2127
12.1266
11.8167
11.1387
10.1219
9.02054
8.03098
7.16307
6.33794
58.8204
60.5796
62.1326
63.4851
64.6313
65.5789
66.3242
66.8755
67.2266
67.3768
67.3738
67.2743
67.0267
66.6028
66.0104
65.2625
64.3557
63.3004
62.1
60.7664
59.3089
57.7344
56.0581
54.2886
52.4343
50.5101
48.5241
46.4896
44.4158
42.3169
40.2034
38.089
35.9845
33.9039
31.8582
29.8613
27.9244
26.06
24.2792
22.5962
21.0231
19.5722
18.2529
17.0724
16.0366
15.1512
14.4184
13.8349
13.3916
13.0726
12.8506
12.6852
12.5187
12.2762
11.8659
11.2063
10.3135
9.32644
8.37771
7.50381
6.67545
58.0248
59.7284
61.2306
62.545
63.6566
64.5811
65.3068
65.8483
66.1918
66.3464
66.3601
66.2878
66.0606
65.6665
65.1044
64.3931
63.5269
62.5244
61.3813
60.1123
58.7252
57.2223
55.6245
53.9374
52.1661
50.3304
48.4333
46.4908
44.5079
42.5022
40.4803
38.4577
36.4423
34.4495
32.4879
30.5726
28.7127
26.9207
25.2051
23.5797
22.0538
20.6399
19.3453
18.1759
17.1357
16.2266
15.4505
14.8023
14.2721
13.845
13.4954
13.1887
12.8784
12.5097
12.0226
11.3714
10.5629
9.66985
8.77357
7.91289
7.08358
57.2285
58.875
60.3235
61.5993
62.6747
63.5775
64.2839
64.8153
65.1521
65.3154
65.345
65.2976
65.0906
64.7256
64.1935
63.52
62.6947
61.7455
60.6581
59.4546
58.1399
56.7089
55.1907
53.5863
51.8978
50.1529
48.3459
46.4971
44.6057
42.6946
40.7655
38.8357
36.9092
35.0043
33.1259
31.2921
29.5088
27.7885
26.1356
24.5656
23.0842
21.7051
20.4331
19.2726
18.2257
17.2923
16.4741
15.7639
15.1515
14.6254
14.162
13.7333
13.3027
12.8318
12.2814
11.6255
10.8651
10.0381
9.192
8.35552
7.53638
56.4202
58.015
59.4017
60.6442
61.6757
62.562
63.2454
63.7705
64.0988
64.2792
64.3185
64.2975
64.1074
63.7737
63.2688
62.6356
61.8471
60.9599
59.9195
58.7844
57.5472
56.1821
54.7534
53.2315
51.6179
49.9712
48.2523
46.5028
44.6983
42.8874
41.0487
39.216
37.3753
35.5607
33.7603
32.0095
30.3012
28.6547
27.06
25.545
24.1015
22.7567
21.5045
20.3547
19.2997
18.3411
17.4868
16.7205
16.032
15.4203
14.8572
14.3271
13.7961
13.2426
12.6369
11.9675
11.229
10.4445
9.63441
8.82319
8.02047
55.6396
57.2931
58.5177
59.8341
60.7108
61.6593
62.2128
62.8263
63.0655
63.3617
63.3099
63.394
63.1412
62.9277
62.3731
61.8533
60.9994
60.2776
59.234
58.1752
57.0503
55.6449
54.3767
52.969
51.3425
49.869
48.1678
46.5857
44.7957
43.1448
41.3336
39.6504
37.8478
36.1725
34.3947
32.7658
31.089
29.5538
27.9782
26.5533
25.1055
23.8221
22.5678
21.439
20.3786
19.3784
18.5043
17.6862
16.921
16.2535
15.593
14.9919
14.3661
13.7545
13.09
12.4116
11.6706
10.9222
10.1281
9.32906
8.54694
4.46588
3.74013
3.05293
2.35685
1.66437
1.01328
0.414278
-0.122877
-0.576234
-0.939661
-1.21013
-1.39293
-1.48948
-1.49684
-1.44408
-1.35391
-1.24006
-1.12257
-1.01503
-0.925316
-0.856384
-0.803403
-0.762813
-0.731463
-0.711058
-0.674873
-0.64032
-0.596679
-0.542202
-0.476237
-0.394647
-0.296341
-0.182177
-0.0519414
0.0905385
0.243871
0.404179
0.567806
0.730584
0.887011
1.03217
1.16091
1.27216
1.36112
1.42462
1.46275
1.47459
1.46135
1.42388
1.36518
1.28919
1.19908
1.09761
0.990019
0.877054
0.760981
0.641324
0.516157
0.37354
0.198124
0.00388939
5.05504
4.36997
3.74259
3.09093
2.42836
1.80886
1.23917
0.722861
0.287867
-0.0567345
-0.306862
-0.459349
-0.516113
-0.491417
-0.420249
-0.32148
-0.207008
-0.0932172
0.00802414
0.0898682
0.151067
0.195114
0.225833
0.249536
0.253913
0.282776
0.300547
0.330295
0.368506
0.418509
0.4833
0.564309
0.66153
0.774104
0.900028
1.03685
1.18073
1.32781
1.47438
1.61651
1.74972
1.86904
1.97032
2.05053
2.10688
2.1382
2.14404
2.1246
2.08105
2.01577
1.93184
1.83268
1.72115
1.60282
1.47839
1.35164
1.22091
1.08626
0.9412
0.779052
0.596521
5.29749
4.61702
3.97229
3.27014
2.55966
1.92244
1.33045
0.776356
0.304351
-0.0788936
-0.373062
-0.57585
-0.691672
-0.736969
-0.710469
-0.636731
-0.521
-0.391959
-0.27806
-0.187083
-0.119549
-0.0718788
-0.0384193
-0.0161479
0.0168186
0.0305542
0.0630671
0.0985016
0.143752
0.200498
0.271407
0.357713
0.459228
0.574789
0.702467
0.839776
0.983435
1.12971
1.27456
1.41357
1.5423
1.65663
1.7529
1.82787
1.87904
1.90532
1.90638
1.88322
1.83744
1.77176
1.6893
1.59396
1.48924
1.3785
1.2639
1.1471
1.02704
0.900366
0.760177
0.59681
0.405569
5.56332
4.86913
4.19472
3.47732
2.76737
2.13172
1.52076
0.942078
0.468742
0.09251
-0.200934
-0.397459
-0.496602
-0.513728
-0.453091
-0.332493
-0.196316
-0.087843
0.0168932
0.108979
0.180504
0.231893
0.265996
0.288308
0.309392
0.319736
0.336672
0.357772
0.386808
0.426612
0.48
0.548549
0.632567
0.730952
0.842202
0.963638
1.09231
1.22469
1.35721
1.48576
1.60606
1.71418
1.80655
1.88025
1.93287
1.9633
1.97103
1.95686
1.92198
1.86887
1.79957
1.71733
1.62448
1.52368
1.41575
1.3027
1.18597
1.06571
0.938105
0.792725
0.627568
5.89493
5.17015
4.46579
3.74109
3.02762
2.36473
1.72729
1.1448
0.670605
0.278038
-0.0421982
-0.252431
-0.361547
-0.397017
-0.361744
-0.277244
-0.174395
-0.0530816
0.0540833
0.144448
0.211674
0.259775
0.293213
0.317899
0.33835
0.354822
0.372991
0.395744
0.425184
0.463739
0.51413
0.57816
0.655975
0.746825
0.849206
0.960988
1.0792
1.20104
1.32308
1.44177
1.55286
1.65306
1.73867
1.80738
1.85648
1.88511
1.89225
1.8789
1.84554
1.79468
1.72825
1.64964
1.56192
1.46765
1.3684
1.26762
1.16564
1.05705
0.93794
0.809765
0.661983
6.28837
5.53
4.7953
4.06127
3.34072
2.65551
2.00314
1.40809
0.903982
0.480648
0.148433
-0.067059
-0.196796
-0.255209
-0.225931
-0.138509
-0.0292414
0.0856588
0.189293
0.269235
0.324474
0.364568
0.391153
0.411398
0.425397
0.437304
0.448486
0.464296
0.48645
0.516111
0.557159
0.610946
0.678075
0.757182
0.847534
0.946436
1.05188
1.16088
1.27075
1.37807
1.47874
1.57011
1.6484
1.7122
1.7583
1.78673
1.79572
1.78728
1.76095
1.71984
1.66517
1.60053
1.52854
1.45207
1.37347
1.28984
1.20103
1.10679
1.00238
0.883854
0.744664
6.7369
5.95994
5.20161
4.45552
3.72683
3.03086
2.37184
1.76865
1.23861
0.78938
0.433482
0.18556
0.0235807
-0.0440367
-0.0169881
0.0572626
0.156785
0.262763
0.356693
0.424008
0.463359
0.488825
0.503704
0.516417
0.521816
0.526403
0.528432
0.537018
0.550713
0.570121
0.600591
0.643498
0.699314
0.766405
0.843968
0.930248
1.0222
1.11846
1.21593
1.31221
1.40233
1.4851
1.55594
1.61494
1.65777
1.68594
1.69654
1.69269
1.67291
1.64107
1.59727
1.54543
1.48695
1.42347
1.35717
1.28921
1.21728
1.14024
1.05326
0.95153
0.828192
7.22787
6.44892
5.6823
4.93493
4.20234
3.50892
2.85338
2.25776
1.72143
1.25994
0.885346
0.609259
0.405355
0.308897
0.300133
0.341269
0.432996
0.508503
0.569605
0.622835
0.632518
0.637486
0.632146
0.637172
0.628365
0.625262
0.614739
0.615949
0.622791
0.6273
0.646192
0.677525
0.724119
0.779506
0.846318
0.919975
1.00011
1.0841
1.17045
1.25686
1.33736
1.41284
1.47629
1.53174
1.57043
1.59864
1.60931
1.60971
1.59415
1.56989
1.53311
1.49104
1.44414
1.3922
1.3388
1.28443
1.22746
1.1675
1.09776
1.01497
0.909164
7.75278
6.99283
6.22239
5.47979
4.74975
4.07728
3.43847
2.88825
2.36106
1.91841
1.55892
1.29842
1.01678
0.888365
0.844888
0.817867
0.872069
0.799639
0.802579
0.880462
0.828537
0.81161
0.764472
0.791066
0.743317
0.747825
0.700403
0.701013
0.710995
0.69121
0.684625
0.713517
0.757862
0.798643
0.856568
0.920143
0.986549
1.06251
1.13869
1.22407
1.28909
1.36861
1.41451
1.47806
1.5013
1.539
1.53542
1.55351
1.52882
1.51955
1.4774
1.43757
1.40283
1.36162
1.32175
1.27982
1.235
1.19484
1.13805
1.0818
0.987159
4.86705
-4.51168
-5.82452
14.8143
5.74094
19.3707
17.9509
10.8189
11.5041
29.1148
1.61888
23.7061
18.0618
2.7752
21.6682
-102.484
20.5307
12.1588
1.42118
17.3879
15.0424
3.17116
0.954757
20.1041
11.4098
17.1674
17.4522
9.46593
20.2799
6.8196
10.4198
16.5995
28.4488
1.62788
22.9883
0.8077
0.741029
57.3498
18.6095
17.4277
7.81876
-2.87734
18.0005
-88.467
0.195318
31.6022
11.5897
2.98664
16.1357
25.3491
-3.86046
-46.2707
17.009
9.49805
13.9407
16.1287
6.92683
7.58168
0.947794
-31.7374
3.70274
15.4744
17.0336
-8.23835
-26.0793
14.8477
0.837934
8.75211
18.8488
18.0582
15.3298
59.5429
6.63952
13.4252
13.3469
6.36236
-12.8399
44.3981
17.0583
28.0998
-0.810448
16.4057
16.6533
-36.7861
17.9492
50.2824
11.9752
1.71545
15.3124
1.54831
-13.9601
17.0433
5.09556
-32.1992
-37.3778
5.59821
44.1866
9.93937
25.478
-101.882
14.4787
16.0948
25.1195
16.9204
18.0546
16.8959
15.199
39.6604
19.7281
-78.3469
-109.494
15.9045
0.373452
1.35237
5.88632
2.1301
1.08993
19.5038
-7.74525
11.2936
12.92
-0.0428682
11.268
-118.248
-27.1047
10.6169
15.2805
-47.3034
-35.0551
17.8054
21.2885
-8.07231
3.19295
10.9566
2.60889
10.7484
17.9576
-53.6661
-31.2934
11.637
9.54858
-53.2453
14.9181
49.0324
1.44548
12.4777
16.5736
1.46003
31.7592
-0.766369
16.1778
16.1576
59.1124
-33.7087
-59.6248
8.85131
8.25149
-28.0048
16.4911
0.766137
16.5892
26.3913
17.3264
12.4873
14.8891
13.0594
6.93426
9.76541
17.0633
0.218487
-2.07645
1.60502
5.81061
17.4094
1.31265
1.34956
1.20571
8.83141
22.3918
1.66026
1.91302
-1.31978
-31.2903
9.70328
6.42603
0.684052
-10.5733
52.1149
9.80978
11.8923
25.4836
20.207
-17.2991
-39.402
16.4912
-31.8229
4.1176
0.366526
21.3056
0.826837
9.83071
14.9588
13.3972
-59.0395
-1.87531
20.8343
8.45199
16.0557
-45.7682
0.935129
41.2718
-5.86976
16.2905
-117.732
11.1111
-77.8568
-65.6341
1.7316
33.3077
1.79188
11.3606
40.1303
11.9676
16.6322
1.09181
-7.7831
-9.3436
11.7123
16.9925
59.7314
1.39347
21.4462
-5.34725
-37.8069
13.5894
19.2442
3.11267
-57.4144
-46.8377
19.2801
13.2995
8.7439
10.9395
15.8984
-123.957
16.7478
8.31738
-98.85
23.9087
17.1841
8.80139
23.7569
1.34657
8.4205
11.3248
18.6099
25.3974
15.1776
6.65765
2.0022
15.6158
9.45621
-65.123
18.5337
0.734567
12.7899
17.4986
0.98625
17.5221
1.10551
24.0924
1.13943
22.7792
11.3727
52.8674
9.94965
14.2641
10.7389
15.9495
20.683
50.2955
9.80677
-72.1656
15.2841
14.856
18.5792
16.953
-61.9342
7.94096
7.8817
-26.2851
40.4903
14.4191
16.8855
35.1386
17.3679
9.49618
5.11385
-0.983655
16.3066
10.941
5.44144
48.5208
-3.83706
2.77294
-79.3466
21.7945
18.6037
19.3549
-100.839
9.73834
11.9213
11.4595
-12.6008
16.4194
14.2286
0.652526
1.27122
7.00053
1.96103
16.3601
3.60486
15.2184
14.952
-27.2023
1.92376
15.4274
0.949332
-90.7708
6.51363
-27.327
-44.9441
-101.714
2.17189
1.55205
16.799
0.6231
0.746597
-124.398
35.0621
15.0019
14.7564
11.9678
11.6357
49.7491
11.2372
-9.42541
18.7312
-71.1189
14.9336
1.35572
-45.6531
-114.114
10.6892
-62.0409
8.64214
2.69
14.4511
1.74787
2.37304
10.3647
0.341155
1.0592
-6.77349
0.972839
15.9753
6.74987
-114.306
-34.2276
3.9685
16.5617
-26.4598
-49.972
12.6285
1.62634
15.697
-6.06458
7.40251
1.529
-74.0395
0.763623
-80.1539
20.2304
-89.5728
11.2168
4.87903
20.8706
1.2632
-117.793
-27.7695
47.4158
50.191
3.22039
0.771094
17.1376
30.2576
16.6858
-0.527125
12.0215
-10.3233
17.2212
18.7792
21.9667
21.5217
-7.73222
-46.9546
12.0356
-83.201
0.241401
-11.4727
1.91337
-62.1911
-2.1523
18.7398
-124.558
9.62865
9.38045
23.2095
-53.1388
16.9818
18.1514
1.46725
17.7286
9.98213
14.3402
1.19783
35.9173
-26.2746
-51.8799
9.66047
-61.3163
9.20724
-54.6219
16.7796
15.65
0.976266
4.00965
-93.8677
-1.91119
1.61318
-10.9117
-62.3871
-59.986
18.3913
3.71826
-41.7159
-50.3049
17.0109
2.46777
-32.4621
22.8185
12.9881
36.4395
-40.1402
-0.348417
-9.72498
0.537411
9.067
-90.5314
2.27492
10.463
19.834
47.0656
1.36285
44.052
2.02806
17.3873
1.77091
1.47666
13.7168
12.3848
0.101526
1.41287
16.7443
2.34724
1.45567
2.72898
1.43385
2.03468
1.41477
8.34046
4.75798
15.7434
15.6266
-111.356
10.1429
-68.37
-107.273
16.1356
0.38513
2.36835
19.0817
3.72949
1.36635
16.2825
17.0297
15.065
5.49564
-37.7171
10.6065
26.56
13.6092
13.9499
15.5078
5.55558
0.783038
13.4688
19.1889
9.56362
1.43826
13.8942
13.5496
-12.8009
12.6744
-0.468281
-3.43889
-4.31409
17.1031
19.9663
9.39953
22.5616
3.54049
2.81104
48.7321
-22.3617
-5.70311
21.9384
8.31462
1.25051
1.47976
-80.4572
-27.7977
20.934
3.14045
10.3421
0.753921
-21.2126
18.6357
12.0479
-27.4551
-82.9777
12.6845
-18.1069
-54.3276
4.58594
-105.794
9.30599
9.46733
9.09552
-32.6753
13.8629
-81.1972
-2.58473
13.0085
1.00816
17.201
-0.354066
14.9199
12.7917
31.7412
3.00722
0.984865
14.826
7.2677
0.815667
-46.9967
-31.0511
8.04501
-34.6155
4.73649
28.6548
1.54811
9.42642
-95.8771
9.92116
8.51485
14.4131
1.45357
52.1517
1.79195
8.24734
8.52944
1.37658
1.24684
13.6045
15.6071
15.918
9.51925
10.2211
29.2605
-76.4808
8.39167
17.7922
-32.3981
0.595295
-87.4992
13.6602
0.848075
17.6751
-55.4222
4.26057
-21.144
1.02855
0.87496
2.88427
-106.375
20.5259
17.2617
6.54463
15.9874
-27.1557
-22.4951
-6.46734
10.032
9.07262
4.97616
16.2099
-0.294271
0.822305
16.1655
23.2624
1.42018
-58.709
20.9046
1.66694
20.4953
-8.3828
17.2153
36.3645
6.74938
29.5146
18.4702
-30.2407
-21.8705
-4.78922
19.0313
10.6114
-32.5938
16.0231
12.5052
4.64209
5.57257
0.809128
-31.3254
40.525
3.61025
2.1731
0.993117
-90.0628
9.55151
23.3799
15.6738
1.0111
5.14431
-23.3042
14.4249
12.3935
6.15846
1.20282
-7.13146
15.1932
2.14405
10.9503
-21.1755
1.35125
39.0611
1.04125
0.143781
8.31298
57.2857
17.1058
16.6603
1.27823
10.2135
7.23134
8.84868
10.332
-116.309
1.81717
-35.0635
30.5469
17.6284
8.47618
19.3073
-6.29012
-10.97
1.30655
3.91804
1.42909
12.8746
-2.64892
18.5303
-88.8621
16.711
6.74949
2.19474
-3.5286
3.00859
-7.34072
10.6149
3.44714
0.678183
19.2144
-121.276
15.3652
17.0463
10.8145
-4.44499
18.8669
3.82032
-21.4582
15.664
-14.3815
-97.9551
17.4571
8.90447
14.525
-63.426
-6.55491
15.7541
42.7957
12.572
9.05819
11.5971
-111.366
-126.504
16.6079
-1.44436
-12.0141
1.43979
17.7561
6.88932
-11.5155
13.805
15.3268
0.00688541
18.5043
19.5723
8.53551
14.85
-3.08385
13.368
-5.61283
23.2402
1.7533
-4.47528
42.7128
1.16661
6.74127
21.8949
4.38301
-45.7024
24.5782
-84.0102
20.8656
1.30154
-19.8046
10.1357
-10.1377
0.823639
12.905
13.1713
-93.8433
-40.2389
13.4855
-65.5763
-9.38658
53.6548
-16.5923
-20.5475
21.3494
0.826587
5.97523
11.9201
-55.9832
-23.2841
-4.77015
-4.43794
-6.64798
1.05873
22.6076
19.1668
13.329
-121.959
-44.8028
27.4916
2.29599
-112.431
11.2074
14.4305
10.5484
1.17152
4.75208
1.23329
-15.4131
21.4396
-121.56
-17.3717
-86.0994
-98.8139
18.813
25.3669
-43.8056
26.2641
14.5507
12.2472
11.0816
10.3575
26.0551
17.8972
2.21506
-51.7948
-30.4805
24.6638
2.1917
3.49179
13.7887
1.48296
12.8874
-53.7516
1.28847
49.2118
2.2279
22.2629
11.5999
18.5674
15.6625
-77.0392
13.2027
44.756
1.00143
0.899837
32.2452
61.106
12.7277
13.2156
25.0575
-50.8699
-15.9844
17.2519
10.0588
-91.8776
27.4451
17.3761
-63.405
15.6991
3.73424
1.42062
6.34107
-16.4098
53.7874
0.878888
-8.77456
-0.510367
17.7854
0.267536
9.54687
14.8056
17.2479
12.2491
1.01132
17.3035
0.785279
30.2529
0.0732192
11.4579
10.4125
16.6135
8.41784
-50.2564
9.75279
18.0894
-30.0023
-71.1776
34.0582
1.5567
7.4926
16.6567
34.342
-85.005
9.51248
-3.06122
11.2208
16.3009
-88.5366
17.1508
9.75235
50.0158
29.8625
-19.668
4.4336
15.7982
17.09
-67.1518
-4.65054
10.1399
14.8822
1.28883
17.464
-128.125
7.57512
0.907574
10.5458
18.7231
-0.182383
14.7119
22.99
24.9595
4.68331
-0.883075
17.7146
20.6644
17.4418
20.3683
10.7886
18.1704
-70.6958
2.53102
18.08
-25.8182
14.0844
7.12076
19.6355
11.6226
-62.3866
10.816
5.05657
18.8458
-20.9342
16.6637
-24.8959
-104.446
1.68713
1.23454
-47.8747
16.1399
18.3856
-21.539
-105.098
1.30514
-14.3284
15.8746
-82.9805
13.3716
16.5494
18.2075
-18.8845
6.93304
9.53516
-29.098
17.5301
8.56895
-85.196
10.621
-119.632
47.0903
11.6496
18.2041
6.36101
16.7498
-9.24874
-6.38746
20.1026
-18.7663
5.73476
12.8351
-38.3236
4.84922
17.5507
-49.5416
14.8733
1.89634
-67.6745
-14.4312
17.1675
19.3119
14.7427
62.1494
8.66242
-2.44351
-24.0024
15.5909
-11.8538
15.4776
5.35673
15.4629
0.844963
9.89427
0.78371
-14.0628
58.9149
7.33826
59.2828
7.35617
12.8468
4.08244
20.0613
-9.50844
17.7775
11.1167
1.55049
59.8049
16.801
9.14906
-8.59186
0.707327
-109.199
15.8172
-5.72254
10.5772
-22.1166
-62.213
1.07227
-73.7185
9.54685
2.94948
-26.2053
18.3249
15.736
14.2152
12.3647
21.3988
16.1613
12.8662
17.6251
1.2838
-68.8239
17.5818
20.2428
17.6359
7.9516
-73.2778
1.37678
-24.9192
15.6904
-43.651
0.937262
25.0764
-67.6236
16.9906
0.800374
40.1847
1.4574
22.8819
4.21118
1.7888
15.9252
10.4738
-107.698
13.7076
-1.42906
-39.3481
1.42805
15.9256
10.9944
30.9231
2.73914
1.23532
-79.5467
15.8677
16.4408
16.9865
-20.1741
-36.0753
14.0028
12.8163
15.0951
1.19914
1.65712
49.3233
0.472053
-65.9255
2.19674
-59.2486
0.510397
0.72504
32.3795
50.9551
13.0387
60.085
45.4383
18.331
17.5579
6.25843
14.4932
18.5391
2.32488
1.94431
19.6713
1.75487
10.2691
19.1615
9.03391
18.4925
28.7946
1.53047
-5.5783
-121.236
17.8186
12.1283
-50.8424
7.67037
22.4822
14.0241
10.9779
2.31993
17.3454
-2.29052
1.55373
30.3835
12.7996
0.757877
16.7539
17.4276
15.5741
5.73989
15.498
16.9924
-3.64318
18.4988
20.6108
-77.0279
-29.3118
-18.7218
14.7478
1.51728
-50.9129
17.0651
1.52253
1.20238
-126.388
0.771252
16.6741
8.68662
31.4796
-1.16888
1.23398
9.2434
46.4029
1.62482
16.0715
1.10618
16.5851
53.9285
14.1912
-21.3387
16.7641
1.00282
-69.7734
15.6775
42.3463
4.09646
13.0459
18.7274
29.4875
10.9541
19.7116
2.01975
16.0888
10.6272
-123.536
4.49202
18.6308
19.9725
-65.2762
-82.8448
16.7054
18.138
12.5478
11.4587
-59.748
24.6516
-59.031
17.8206
11.2981
17.2766
-12.1626
5.64501
17.4795
0.699259
1.45118
-89.8434
-62.6832
8.20673
-2.85554
-74.9336
18.2452
18.3925
18.4372
7.4654
18.9243
2.43684
18.2059
9.54467
-1.94176
-25.3309
2.36609
12.7217
1.40337
36.4044
16.6725
19.6179
-104.499
15.5652
15.5047
20.0892
12.4527
-74.0493
-7.1395
1.59776
17.1851
17.012
17.6864
-4.35032
20.2419
-18.0617
8.35512
8.71012
13.5532
9.45903
15.5609
11.0741
10.6375
9.74867
-1.75879
-10.57
2.7336
-87.2964
11.8711
16.7681
0.895754
-91.7612
41.2718
1.86357
23.7423
15.991
13.2363
11.8416
16.5799
60.798
-8.35561
1.00717
-95.0909
16.788
27.906
-37.3176
3.55366
-52.1435
1.29512
30.9974
1.46639
16.6463
-23.174
-13.3842
-38.3127
-8.62414
17.7953
1.43846
7.72711
22.4755
13.2828
19.5028
8.82124
56.7561
20.4777
16.5861
43.9395
10.7779
15.5962
18.435
20.3635
-10.7232
1.32467
10.0219
11.6965
-16.7351
13.8979