/*--------------------------------*- C++ -*----------------------------------*\
| =========                 |                                                 |
| \\      /  F ield         | OpenFOAM: The Open Source CFD Toolbox           |
|  \\    /   O peration     | Version:  2.3.1                                 |
|   \\  /    A nd           | Web:      www.OpenFOAM.org                      |
|    \\/     M anipulation  |                                                 |
\*---------------------------------------------------------------------------*/
FoamFile
{
    version     2.0;
    format      ascii;
    class       volVectorField;
    location    "4860";
    object      D;
}
// * * * * * * * * * * * * * * * * * * * * * * * * * * * * * * * * * * * * * //

dimensions      [0 1 0 0 0 0 0];

internalField   nonuniform List<vector> 
11800
(
(1.06035e-05 0.000300085 0)
(-1.33681e-05 0.000334498 0)
(7.42557e-06 0.000100258 0)
(-8.46513e-06 0.000136702 0)
(-1.2212e-05 0.00033393 0)
(-5.48166e-06 0.000136971 0)
(-2.016e-06 0.000224865 0)
(-1.91634e-06 0.000173024 0)
(8.83935e-07 2.61891e-05 0)
(1.626e-06 0.000104019 0)
(1.17719e-05 0.000299372 0)
(-1.05428e-05 0.000116384 0)
(-1.01285e-08 -8.06448e-09 0)
(6.60068e-06 9.96482e-05 0)
(-7.50752e-06 0.000137282 0)
(7.15734e-06 1.60273e-05 0)
(-1.12397e-06 0.000224205 0)
(-1.08747e-06 0.000172399 0)
(5.01467e-07 2.64808e-05 0)
(1.00842e-06 0.0001035 0)
(-6.45258e-06 0.000136463 0)
(-9.65993e-06 0.00011685 0)
(-1.56367e-06 5.63328e-06 0)
(-1.66927e-06 5.8674e-06 0)
(6.39149e-06 1.83189e-05 0)
(-2.50558e-06 9.36338e-06 0)
(-1.0297e-05 6.91924e-05 0)
(1.50799e-05 0.0002014 0)
(-9.15618e-06 5.23889e-05 0)
(-7.9089e-06 3.75929e-05 0)
(1.59809e-05 0.000254989 0)
(6.73391e-08 4.38105e-06 0)
(3.27357e-06 1.20527e-05 0)
(-8.12389e-06 0.000343291 0)
(6.61127e-06 0.000341739 0)
(-1.81823e-05 0.000272409 0)
(6.1596e-06 0.000342923 0)
(3.2223e-06 1.23932e-05 0)
(-1.97115e-06 0.00023758 0)
(1.63127e-06 0.000114309 0)
(-1.01252e-05 6.9973e-05 0)
(-9.0127e-06 5.30834e-05 0)
(1.47319e-05 0.000200241 0)
(-7.79435e-06 3.82001e-05 0)
(1.56264e-05 0.000253769 0)
(6.82811e-06 1.61551e-05 0)
(1.8046e-06 6.67598e-06 0)
(2.01137e-06 6.56927e-06 0)
(-3.10144e-06 0.000237784 0)
(2.53488e-06 0.000114471 0)
(-1.72589e-05 0.000175336 0)
(-1.84529e-05 0.000227194 0)
(-1.68802e-06 0.000296867 0)
(9.33285e-08 4.15662e-06 0)
(-8.77146e-06 1.9105e-05 0)
(1.18494e-06 9.77018e-07 0)
(-2.26917e-05 0.000348015 0)
(-5.67308e-06 9.64956e-05 0)
(6.51846e-06 0.000141038 0)
(-4.11945e-06 9.26741e-05 0)
(2.36987e-06 3.12227e-06 0)
(-2.91349e-06 0.00029709 0)
(-4.93183e-06 9.62761e-05 0)
(5.68527e-06 0.0001413 0)
(5.98669e-06 1.80371e-05 0)
(-2.16652e-05 0.00030751 0)
(-1.79046e-05 0.000174565 0)
(-1.92089e-05 0.000226347 0)
(-2.15526e-05 0.000347451 0)
(-2.62969e-06 9.66882e-06 0)
(-7.24089e-06 0.000344258 0)
(-1.27904e-05 0.000342388 0)
(-1.31625e-05 0.000341168 0)
(-1.11565e-07 1.238e-07 0)
(2.5307e-06 3.25694e-06 0)
(-1.71265e-05 0.000273177 0)
(7.85729e-06 2.53512e-05 0)
(-2.20168e-05 0.000308664 0)
(-1.75306e-05 0.000311281 0)
(-1.63777e-05 0.000312326 0)
(-8.3613e-06 1.8842e-05 0)
(1.30314e-06 0.000118724 0)
(1.20814e-05 0.000339698 0)
(1.07852e-05 0.000339909 0)
(-1.54463e-06 0.000122039 0)
(-7.60606e-06 4.23608e-05 0)
(1.4447e-05 0.000245688 0)
(-8.70394e-06 5.78411e-05 0)
(-9.71405e-06 7.52976e-05 0)
(1.35809e-05 0.000192591 0)
(-3.82005e-07 0.000290422 0)
(3.47865e-06 1.14549e-05 0)
(-1.08853e-05 0.000313296 0)
(2.25378e-05 0.000350687 0)
(3.57548e-06 0.000150711 0)
(-2.69836e-09 -2.05271e-09 0)
(6.97874e-11 -4.36358e-10 0)
(2.70085e-09 -2.05496e-09 0)
(-2.23127e-07 0.000300531 0)
(-1.001e-05 0.000118975 0)
(1.94008e-05 0.00034943 0)
(1.17047e-05 0.000130796 0)
(-4.21789e-06 1.67649e-05 0)
(-9.4832e-07 1.29253e-05 0)
(-6.20513e-07 0.000332428 0)
(1.16782e-06 2.74012e-05 0)
(-2.46248e-06 0.000170478 0)
(-2.56238e-06 0.000222041 0)
(3.68491e-06 6.23903e-06 0)
(8.78815e-06 5.7816e-05 0)
(7.67997e-06 4.23384e-05 0)
(9.80831e-06 7.52693e-05 0)
(-1.46273e-05 0.000245717 0)
(-1.3752e-05 0.000192633 0)
(2.09694e-06 0.000101887 0)
(2.91616e-06 5.68647e-06 0)
(2.14986e-05 0.000308771 0)
(-8.77911e-06 0.000316977 0)
(2.96913e-06 5.47834e-06 0)
(-1.45517e-06 0.000105321 0)
(-8.66478e-07 2.54945e-05 0)
(1.97327e-06 0.000226526 0)
(1.87227e-06 0.000174511 0)
(-2.70245e-06 0.000217188 0)
(-1.09564e-05 0.000314481 0)
(-9.49278e-07 0.000299589 0)
(-7.03489e-06 0.00033256 0)
(-1.62826e-06 0.000331653 0)
(-2.43513e-05 0.000359574 0)
(-2.52215e-05 0.000358702 0)
(-6.93054e-07 3.11179e-07 0)
(-3.15579e-06 7.3785e-06 0)
(1.48198e-05 0.000238353 0)
(-8.1691e-06 4.63369e-05 0)
(1.38788e-05 0.000185708 0)
(-9.27801e-06 6.23654e-05 0)
(-1.0297e-05 8.03261e-05 0)
(1.36749e-05 0.000238571 0)
(-7.52769e-06 4.61978e-05 0)
(1.28079e-05 0.000185909 0)
(-8.55161e-06 6.2211e-05 0)
(-9.49262e-06 8.01578e-05 0)
(-1.97716e-06 2.36053e-05 0)
(4.8078e-06 0.000230885 0)
(4.4836e-06 0.000178709 0)
(-3.78059e-06 0.000108778 0)
(1.83971e-05 0.000119473 0)
(-1.82643e-05 0.000116852 0)
(1.15141e-05 0.000131751 0)
(-1.32993e-06 1.37192e-05 0)
(-1.21184e-05 0.000289078 0)
(-1.20135e-05 0.000290615 0)
(5.9293e-06 0.000339117 0)
(-1.35538e-05 0.00027279 0)
(5.44265e-06 0.000192494 0)
(5.90742e-06 0.000245558 0)
(-1.50937e-05 0.000216244 0)
(-1.39901e-05 0.000165091 0)
(7.03841e-06 3.02143e-05 0)
(-1.10102e-06 0.000291515 0)
(4.0057e-06 6.35053e-06 0)
(-1.2386e-05 0.000273061 0)
(8.22471e-06 2.57196e-05 0)
(-5.50218e-06 7.83884e-05 0)
(-4.94722e-06 6.06075e-05 0)
(-4.34378e-06 4.47751e-05 0)
(7.56068e-06 0.000188132 0)
(8.06305e-06 0.000240952 0)
(-3.52966e-06 4.35614e-06 0)
(-6.44597e-06 2.90607e-05 0)
(1.41021e-05 0.00021865 0)
(1.30627e-05 0.000167347 0)
(3.15435e-06 0.000221796 0)
(-2.07141e-05 0.000271137 0)
(-2.09231e-05 0.000272769 0)
(7.35844e-06 1.83517e-05 0)
(7.36901e-06 1.88595e-05 0)
(8.13188e-06 5.61355e-05 0)
(9.09619e-06 7.33959e-05 0)
(7.08516e-06 4.08632e-05 0)
(-1.2934e-05 0.000195241 0)
(-1.37403e-05 0.000248511 0)
(5.53629e-06 0.000191282 0)
(5.93992e-06 0.00024431 0)
(6.00769e-06 0.000116378 0)
(-2.86011e-06 0.000108531 0)
(-1.50331e-06 2.37274e-05 0)
(3.63999e-06 0.000230575 0)
(3.39348e-06 0.000178419 0)
(-4.71942e-06 0.000285113 0)
(-1.58398e-06 4.96424e-05 0)
(-1.78904e-06 6.61245e-05 0)
(-1.78262e-05 0.000305137 0)
(-4.81892e-07 1.12506e-05 0)
(-1.71822e-05 0.000143334 0)
(1.48132e-05 9.48326e-05 0)
(1.69782e-07 1.61489e-07 0)
(-1.06666e-05 0.000343839 0)
(2.13488e-05 0.000310018 0)
(-6.04787e-07 3.60248e-07 0)
(1.40655e-05 0.000324982 0)
(1.75673e-05 0.000277596 0)
(1.88406e-05 0.000277825 0)
(-5.43888e-07 0.000334117 0)
(-1.42264e-06 0.00033519 0)
(9.90682e-06 9.25266e-05 0)
(8.75187e-06 9.29379e-05 0)
(-1.17203e-05 0.000145783 0)
(-1.03253e-05 0.000145269 0)
(6.83448e-07 3.06935e-07 0)
(-1.92734e-06 1.64704e-05 0)
(-2.16883e-06 9.16274e-06 0)
(-5.05768e-08 1.90184e-08 0)
(6.60982e-06 1.08664e-05 0)
(-1.57328e-07 4.99667e-08 0)
(8.59879e-07 8.99883e-06 0)
(-1.20993e-05 0.000332355 0)
(-5.81289e-06 4.13401e-05 0)
(-6.64812e-06 5.66969e-05 0)
(-7.43076e-06 7.40284e-05 0)
(1.11399e-05 0.000247516 0)
(1.05114e-05 0.000194328 0)
(7.25226e-07 0.000230146 0)
(6.74515e-07 0.000178015 0)
(-3.06175e-07 2.38977e-05 0)
(-5.83949e-07 0.000108207 0)
(-2.30774e-07 3.83583e-08 0)
(9.07575e-07 2.99032e-05 0)
(-1.81783e-06 0.000165402 0)
(-5.46145e-06 0.000104499 0)
(1.26491e-06 2.94627e-05 0)
(-2.56063e-06 0.000166282 0)
(-8.26756e-06 0.000314438 0)
(1.02308e-05 0.000117235 0)
(9.53158e-06 0.000116331 0)
(5.03808e-08 1.89513e-08 0)
(2.305e-07 3.83106e-08 0)
(-1.60379e-05 0.000292596 0)
(-1.54285e-05 0.000293841 0)
(-1.51057e-05 9.92114e-05 0)
(1.70407e-05 0.000138204 0)
(1.36643e-05 0.000248404 0)
(1.28601e-05 0.000195148 0)
(-7.06865e-06 4.0923e-05 0)
(-8.11464e-06 5.61995e-05 0)
(-9.07605e-06 7.34675e-05 0)
(-4.85826e-07 0.000298387 0)
(-5.95553e-06 2.77983e-05 0)
(1.33326e-05 0.000221396 0)
(1.23693e-05 0.000169891 0)
(8.17291e-06 0.000118465 0)
(6.91273e-06 0.000281333 0)
(1.08515e-05 0.00035111 0)
(1.09986e-06 8.86811e-06 0)
(-4.00087e-06 9.36298e-05 0)
(-9.53295e-09 3.27024e-06 0)
(1.56948e-07 4.98652e-08 0)
(3.8667e-06 9.88165e-05 0)
(3.32815e-06 9.77806e-05 0)
(-4.1884e-06 0.000138457 0)
(-3.58768e-06 0.000139483 0)
(7.43496e-06 7.40066e-05 0)
(6.65166e-06 5.66772e-05 0)
(5.8014e-06 4.13302e-05 0)
(-1.05242e-05 0.000194329 0)
(-1.11863e-05 0.000247548 0)
(-5.92181e-06 0.000343943 0)
(1.99527e-06 2.41458e-06 0)
(7.97277e-09 0.000197364 0)
(-1.47529e-08 3.95687e-05 0)
(7.89215e-06 0.000331837 0)
(6.42087e-06 0.000115532 0)
(-2.49745e-05 0.000327892 0)
(7.37951e-06 0.000119323 0)
(2.84113e-07 2.07008e-07 0)
(2.05608e-05 0.000267774 0)
(2.06793e-05 0.000266264 0)
(-1.25519e-05 0.000170108 0)
(-1.35289e-05 0.000221622 0)
(-1.12127e-05 0.000169677 0)
(-1.20888e-05 0.000221162 0)
(6.01341e-06 2.76963e-05 0)
(5.39208e-06 2.78798e-05 0)
(6.11716e-06 0.000156196 0)
(7.27507e-06 0.000156014 0)
(6.64171e-06 0.000206602 0)
(7.90198e-06 0.000206402 0)
(-3.34779e-06 3.4784e-05 0)
(-3.98832e-06 3.48977e-05 0)
(-6.98464e-07 1.56072e-05 0)
(3.53667e-06 9.94383e-06 0)
(3.3108e-06 9.5989e-06 0)
(3.37643e-06 7.26027e-06 0)
(5.91205e-06 0.000282548 0)
(-2.03808e-05 0.000268268 0)
(-2.04897e-05 0.0002667 0)
(7.60434e-06 2.05034e-05 0)
(7.45389e-06 1.99172e-05 0)
(1.61432e-05 0.000119498 0)
(1.63615e-05 0.000120845 0)
(-1.6012e-05 0.000116758 0)
(-1.60956e-05 0.000115434 0)
(7.31285e-06 0.000338889 0)
(-2.00001e-05 0.000343322 0)
(-1.92256e-05 0.00028883 0)
(4.45953e-06 5.01021e-06 0)
(-1.17443e-05 0.000339 0)
(-1.04863e-05 0.000337834 0)
(4.97841e-06 0.000157991 0)
(-3.07251e-06 0.000141912 0)
(2.7415e-06 9.57538e-05 0)
(-1.37339e-05 0.000119946 0)
(1.34659e-05 0.000116195 0)
(-6.46032e-06 2.01458e-05 0)
(-1.88376e-07 1.19072e-07 0)
(1.01808e-06 4.11725e-06 0)
(1.23732e-06 0.000102212 0)
(-1.1554e-05 0.000102942 0)
(1.24663e-05 0.000133748 0)
(-6.64742e-06 9.36681e-05 0)
(7.93481e-06 0.000144409 0)
(4.02882e-06 0.000252291 0)
(5.55625e-06 0.000251746 0)
(-2.34913e-06 5.38173e-05 0)
(-3.24506e-06 5.41433e-05 0)
(-2.63625e-06 7.08174e-05 0)
(-3.64002e-06 7.11814e-05 0)
(6.29804e-07 2.72131e-05 0)
(-1.34192e-06 0.000170862 0)
(-1.36032e-06 0.000222477 0)
(-2.20573e-06 0.000326299 0)
(3.08821e-06 7.21362e-06 0)
(-6.14606e-07 0.000138252 0)
(-9.49112e-06 0.000334515 0)
(1.27682e-06 1.01375e-06 0)
(8.49812e-06 0.000198314 0)
(-4.563e-06 3.91326e-05 0)
(-1.43246e-05 0.000139726 0)
(-1.3453e-05 0.000139025 0)
(1.25174e-05 9.78056e-05 0)
(1.18003e-05 9.84026e-05 0)
(-1.42193e-05 0.000348891 0)
(-1.43761e-05 0.000347388 0)
(-2.31563e-06 1.57055e-05 0)
(-2.7463e-06 1.5646e-05 0)
(1.11461e-06 4.31585e-06 0)
(-2.63467e-06 4.47994e-06 0)
(6.77049e-07 0.000145113 0)
(4.08162e-06 2.82017e-05 0)
(3.43287e-06 2.83818e-05 0)
(-8.43427e-06 0.00016893 0)
(-7.07014e-06 0.000168529 0)
(-9.09604e-06 0.000220369 0)
(-7.62669e-06 0.000219939 0)
(-1.8447e-05 0.000279479 0)
(-1.70698e-05 0.000279591 0)
(-4.02117e-06 8.3754e-05 0)
(-3.7127e-06 6.54285e-05 0)
(-3.28405e-06 4.90276e-05 0)
(5.84609e-06 0.000260695 0)
(-9.89613e-07 0.000295477 0)
(1.21162e-05 0.000116082 0)
(1.14731e-05 0.000117096 0)
(5.39157e-06 0.000225349 0)
(5.15235e-06 0.000173489 0)
(-2.39566e-06 2.59872e-05 0)
(2.26198e-06 2.91124e-05 0)
(1.86196e-06 2.96819e-05 0)
(-4.17398e-06 0.000217145 0)
(-4.96756e-06 0.000218271 0)
(-4.59711e-06 0.000167006 0)
(-3.74501e-06 0.000165857 0)
(-4.7688e-06 2.66776e-05 0)
(1.01294e-05 0.000172147 0)
(1.09032e-05 0.000223831 0)
(-1.27966e-07 1.21467e-06 0)
(1.80226e-05 0.000132571 0)
(-1.65233e-05 0.000104331 0)
(-7.16378e-08 1.12981e-06 0)
(-5.43565e-06 0.000248353 0)
(-6.37607e-06 0.000249727 0)
(-4.98327e-06 0.000195196 0)
(-5.83705e-06 0.000196497 0)
(3.15964e-06 4.00918e-05 0)
(2.72255e-06 4.07995e-05 0)
(3.74085e-06 5.53366e-05 0)
(3.21156e-06 5.61456e-05 0)
(4.18916e-06 7.25162e-05 0)
(3.59237e-06 7.34214e-05 0)
(2.03612e-05 0.000280024 0)
(2.07403e-05 0.000281455 0)
(-1.88267e-06 9.23787e-06 0)
(7.64269e-06 0.000199308 0)
(-4.07351e-06 3.85894e-05 0)
(6.62082e-06 3.04752e-05 0)
(-1.30955e-05 0.00016454 0)
(-1.41623e-05 0.000215618 0)
(-1.8341e-07 5.56612e-08 0)
(2.65497e-06 0.000291901 0)
(6.53625e-06 2.90672e-05 0)
(-1.3279e-05 0.00016734 0)
(-1.43491e-05 0.000218597 0)
(4.94102e-06 8.43673e-06 0)
(-1.0037e-05 0.000316519 0)
(6.26606e-06 2.31743e-05 0)
(-1.58541e-05 0.000259563 0)
(-3.33867e-06 1.24223e-05 0)
(-3.56241e-06 1.28803e-05 0)
(3.50061e-06 1.27457e-05 0)
(-1.70242e-06 0.000138036 0)
(-1.29353e-08 -9.52029e-09 0)
(-1.06587e-05 0.000346971 0)
(-1.64464e-07 6.52897e-08 0)
(1.82884e-07 5.55207e-08 0)
(-4.89666e-06 2.8151e-05 0)
(1.0881e-05 0.000220533 0)
(1.00896e-05 0.000169085 0)
(8.38867e-06 0.000292363 0)
(-2.40465e-05 0.000313794 0)
(3.08679e-06 0.000129141 0)
(-1.97079e-06 0.00012574 0)
(-5.34044e-07 1.30007e-05 0)
(-1.50149e-06 1.56028e-06 0)
(-9.33845e-09 -8.40958e-09 0)
(-5.96224e-06 9.45493e-05 0)
(7.1142e-06 0.000143391 0)
(5.0994e-07 1.78499e-07 0)
(-7.87643e-07 0.000123874 0)
(-7.42566e-07 0.000122668 0)
(-1.10456e-08 0.000103854 0)
(-1.36935e-07 2.63202e-05 0)
(2.7755e-07 0.000172737 0)
(2.50274e-07 0.000224653 0)
(-5.12018e-07 1.79209e-07 0)
(2.12061e-06 1.40682e-05 0)
(-8.2926e-06 0.000255309 0)
(4.7215e-06 5.21017e-05 0)
(5.31215e-06 6.88871e-05 0)
(5.85071e-06 8.75453e-05 0)
(1.74636e-05 0.000332981 0)
(-6.3443e-06 2.51701e-05 0)
(1.49731e-05 0.000227469 0)
(1.39394e-05 0.000175542 0)
(-9.88267e-06 0.000307025 0)
(1.4209e-06 3.59812e-06 0)
(1.33525e-05 0.000301292 0)
(-2.81303e-06 4.4123e-06 0)
(9.35969e-06 0.000334312 0)
(-7.14704e-06 0.000255337 0)
(4.0658e-06 5.20789e-05 0)
(4.57463e-06 6.8863e-05 0)
(5.04177e-06 8.75141e-05 0)
(1.2413e-06 3.40919e-06 0)
(6.1684e-06 0.000204395 0)
(-3.16387e-06 3.59055e-05 0)
(-1.06678e-06 1.40089e-05 0)
(-1.75008e-05 0.000302369 0)
(-6.46886e-06 7.8681e-05 0)
(-5.81821e-06 6.08728e-05 0)
(-5.11056e-06 4.50105e-05 0)
(8.82313e-06 0.000187822 0)
(9.41069e-06 0.00024062 0)
(2.40615e-05 0.000353001 0)
(1.40151e-05 0.000309587 0)
(1.5537e-05 0.000309052 0)
(1.91953e-07 1.33582e-07 0)
(8.6767e-06 9.40177e-05 0)
(-1.01611e-05 0.000143981 0)
(-4.40349e-06 9.53693e-05 0)
(5.18068e-06 0.000142469 0)
(-1.4806e-06 0.000153545 0)
(-1.12353e-06 0.000249985 0)
(7.268e-07 7.23269e-05 0)
(6.4882e-07 5.51645e-05 0)
(4.35356e-08 3.87485e-05 0)
(-2.36136e-07 0.000149178 0)
(-9.9447e-08 0.000198939 0)
(1.10216e-05 0.000352522 0)
(6.19967e-07 1.44309e-05 0)
(-2.64595e-07 3.31856e-06 0)
(2.12094e-06 0.000211287 0)
(1.06126e-07 3.43248e-06 0)
(-1.60125e-06 1.07662e-05 0)
(4.04487e-06 3.86544e-05 0)
(-7.6725e-06 0.000199177 0)
(-1.4965e-07 1.63601e-07 0)
(-1.62087e-05 0.000302227 0)
(-1.33171e-06 2.58149e-05 0)
(2.89216e-06 0.000225859 0)
(2.86613e-06 0.000173828 0)
(3.58608e-07 8.60235e-08 0)
(-4.73276e-06 8.57536e-06 0)
(5.29037e-06 7.06048e-05 0)
(4.71286e-06 5.36319e-05 0)
(-8.15512e-06 0.000252658 0)
(1.58347e-06 9.83281e-05 0)
(-1.09616e-05 0.000342485 0)
(-1.80022e-07 2.52348e-08 0)
(-6.20445e-06 1.34374e-05 0)
(4.01875e-06 7.38331e-06 0)
(-4.03804e-06 4.41121e-06 0)
(1.21996e-05 0.000118223 0)
(9.28852e-06 0.000144009 0)
(-7.93724e-06 9.39848e-05 0)
(5.73362e-07 3.83508e-05 0)
(-1.31496e-06 0.000149748 0)
(-1.09961e-06 0.000199685 0)
(1.16816e-05 0.000297851 0)
(1.08478e-05 0.000129571 0)
(5.66863e-06 0.000345144 0)
(5.46142e-06 0.000346437 0)
(1.58842e-06 0.000143332 0)
(2.15809e-06 9.75864e-05 0)
(1.79796e-07 2.52015e-08 0)
(-1.56648e-05 0.000269929 0)
(5.63077e-06 1.92138e-05 0)
(1.95848e-08 2.61462e-07 0)
(3.01199e-06 0.000192399 0)
(3.9325e-06 0.00019307 0)
(5.26125e-09 2.27023e-08 0)
(-2.94454e-06 7.14141e-06 0)
(7.40426e-06 7.17953e-05 0)
(6.60607e-06 5.46996e-05 0)
(5.74335e-06 3.95425e-05 0)
(-1.06595e-05 0.000197378 0)
(-1.13126e-05 0.000250888 0)
(9.86087e-06 0.000123276 0)
(1.45757e-06 0.000292215 0)
(-6.37395e-06 0.000329713 0)
(-6.03409e-06 0.000331461 0)
(-6.05095e-07 0.000254057 0)
(-5.1711e-07 0.000255461 0)
(4.40092e-07 5.19602e-05 0)
(4.02111e-07 5.27333e-05 0)
(4.95241e-07 6.87343e-05 0)
(4.51962e-07 6.96028e-05 0)
(3.3016e-07 8.73752e-05 0)
(3.93116e-07 8.83053e-05 0)
(7.88053e-07 0.000143814 0)
(1.43709e-06 0.000146138 0)
(2.49319e-06 0.000223217 0)
(-6.17902e-07 0.000153166 0)
(-3.59129e-07 8.61516e-08 0)
(-4.01064e-07 3.16435e-06 0)
(5.4345e-06 0.000203303 0)
(-2.8119e-06 3.6465e-05 0)
(1.41446e-06 4.39858e-06 0)
(2.11942e-05 0.000334625 0)
(-1.60238e-06 0.000256582 0)
(1.00145e-06 5.13723e-05 0)
(1.12792e-06 6.80731e-05 0)
(1.11467e-06 8.66066e-05 0)
(-1.61747e-05 0.000280932 0)
(5.57011e-06 9.99315e-05 0)
(8.27468e-06 0.000355273 0)
(9.35583e-06 0.000354479 0)
(-1.59161e-06 1.11025e-05 0)
(-1.01657e-06 0.000196323 0)
(5.41951e-07 4.01362e-05 0)
(2.35927e-07 2.3865e-07 0)
(2.07966e-05 0.000344106 0)
(-2.7783e-07 5.6014e-06 0)
(-3.87577e-06 5.83436e-05 0)
(-4.32278e-06 7.58721e-05 0)
(-5.1746e-06 7.66739e-05 0)
(-4.64384e-06 5.9065e-05 0)
(-3.35126e-06 4.27683e-05 0)
(-4.05549e-06 4.34188e-05 0)
(6.88296e-06 0.000190495 0)
(7.33496e-06 0.00024348 0)
(2.94152e-06 3.99167e-06 0)
(-1.88497e-07 1.14101e-07 0)
(-1.79173e-05 0.00023229 0)
(-1.86698e-05 0.000343401 0)
(6.09845e-06 0.000146023 0)
(-5.13207e-07 5.73227e-06 0)
(-9.68409e-06 0.000190148 0)
(-1.03145e-05 0.000243097 0)
(5.50106e-06 4.36848e-05 0)
(6.27818e-06 5.93625e-05 0)
(6.99321e-06 7.70008e-05 0)
(9.01326e-06 0.000293338 0)
(2.04498e-05 0.000345333 0)
(-1.09628e-05 0.000119291 0)
(4.50441e-06 3.91223e-05 0)
(-8.50925e-06 0.000198306 0)
(5.83599e-06 0.000147166 0)
(-2.19665e-06 0.000104671 0)
(5.85847e-06 7.12103e-05 0)
(5.22304e-06 5.41734e-05 0)
(-8.99034e-06 0.000251743 0)
(-1.63039e-05 0.000120672 0)
(1.59215e-05 0.000115673 0)
(1.59221e-05 0.000116971 0)
(-1.60887e-05 0.000119293 0)
(-7.46372e-06 1.99052e-05 0)
(-7.68318e-06 2.0527e-05 0)
(-7.55631e-06 0.000116951 0)
(-3.80608e-06 4.51684e-06 0)
(-1.22319e-05 0.000117854 0)
(-1.78038e-06 0.000282568 0)
(-1.55533e-06 1.85278e-06 0)
(1.22746e-05 6.85273e-05 0)
(1.09054e-05 5.18058e-05 0)
(-1.73634e-05 0.000176874 0)
(2.80354e-06 7.12539e-05 0)
(2.49965e-06 5.42073e-05 0)
(-4.30972e-06 0.000251629 0)
(5.71315e-06 1.7159e-05 0)
(9.60679e-06 0.000142836 0)
(-8.26749e-06 9.50006e-05 0)
(-4.49166e-06 5.03243e-06 0)
(4.94924e-06 0.000224115 0)
(4.72639e-06 0.000172387 0)
(-2.22251e-06 2.65023e-05 0)
(1.43256e-05 0.000211566 0)
(-6.93866e-06 3.24226e-05 0)
(1.3214e-05 0.000160797 0)
(-7.89503e-06 1.96401e-05 0)
(1.01044e-05 0.000330378 0)
(1.15868e-05 0.000329894 0)
(1.11613e-05 0.000250896 0)
(1.05734e-05 0.000197399 0)
(-5.71493e-06 3.96555e-05 0)
(-6.54034e-06 5.46929e-05 0)
(-7.33052e-06 7.17881e-05 0)
(-1.63795e-06 1.60602e-06 0)
(-8.84264e-06 0.00030671 0)
(9.67823e-06 0.000195197 0)
(-5.31235e-06 4.08504e-05 0)
(-9.95325e-07 1.23247e-06 0)
(8.27905e-06 0.000334094 0)
(1.97962e-06 1.61815e-06 0)
(1.6416e-06 1.22675e-06 0)
(4.1687e-06 5.90678e-06 0)
(1.00059e-05 0.000268293 0)
(-1.69038e-05 0.000275713 0)
(2.25363e-05 0.000335054 0)
(4.22244e-06 6.20993e-06 0)
(9.87897e-06 0.000129531 0)
(1.3575e-05 0.000284549 0)
(-2.17702e-05 0.00026899 0)
(7.91255e-06 1.96844e-05 0)
(-4.98683e-06 0.000286343 0)
(2.03387e-06 7.14764e-05 0)
(1.81393e-06 5.44053e-05 0)
(-3.1267e-06 0.000251283 0)
(-7.4017e-07 3.54603e-06 0)
(5.78295e-06 0.000154118 0)
(1.63011e-07 6.47535e-08 0)
(-6.5591e-06 1.33075e-05 0)
(-1.16172e-06 0.000126526 0)
(-2.93916e-06 2.42052e-05 0)
(-3.42159e-06 2.43657e-05 0)
(6.58007e-06 0.000177408 0)
(7.63678e-06 0.000177076 0)
(8.19611e-06 0.00022913 0)
(7.0608e-06 0.000229488 0)
(1.92899e-07 7.11287e-07 0)
(-4.65343e-08 8.95831e-06 0)
(-1.17842e-05 0.000159293 0)
(-1.27881e-05 0.000209939 0)
(6.25748e-06 3.31925e-05 0)
(-3.66581e-06 1.97193e-05 0)
(-2.20114e-06 0.000215893 0)
(-3.31371e-06 8.42328e-06 0)
(6.92719e-06 0.000330909 0)
(-5.54095e-06 0.000107658 0)
(-6.42185e-06 0.000107386 0)
(1.88142e-07 1.88876e-07 0)
(-3.66797e-06 0.000111368 0)
(-1.84595e-06 2.22607e-05 0)
(4.3211e-06 0.000181781 0)
(4.62512e-06 0.000234175 0)
(-5.16249e-06 0.000215928 0)
(-4.53827e-06 0.000164743 0)
(2.2812e-06 3.02503e-05 0)
(3.0193e-06 1.13152e-05 0)
(2.80419e-06 1.09027e-05 0)
(1.4896e-06 0.000107342 0)
(-1.91529e-06 0.000229046 0)
(-1.79296e-06 0.000176966 0)
(7.94587e-07 2.43709e-05 0)
(-1.74752e-06 4.20874e-05 0)
(-3.12062e-06 8.65911e-06 0)
(1.28919e-05 0.000338717 0)
(-1.25438e-05 0.000202061 0)
(9.65129e-06 9.46235e-05 0)
(-1.12549e-05 0.000143299 0)
(1.37408e-05 0.000285839 0)
(-1.25433e-05 8.69287e-05 0)
(-1.14053e-05 6.83217e-05 0)
(1.54097e-05 0.000152598 0)
(-1.013e-05 5.16192e-05 0)
(-8.749e-06 3.69498e-05 0)
(1.68441e-05 0.000202696 0)
(1.78142e-05 0.000256425 0)
(-4.60938e-06 0.000245319 0)
(-4.33352e-06 0.000192229 0)
(2.76543e-06 5.79648e-05 0)
(2.4179e-06 4.24515e-05 0)
(3.08587e-06 7.54517e-05 0)
(2.64536e-06 5.88032e-05 0)
(-4.37736e-06 0.000243937 0)
(2.94865e-06 7.63859e-05 0)
(2.31633e-06 4.31859e-05 0)
(-4.11268e-06 0.00019093 0)
(-2.42544e-06 0.000311552 0)
(-4.85874e-06 6.33771e-06 0)
(-5.30026e-06 2.99633e-05 0)
(1.14005e-05 0.000216611 0)
(1.05474e-05 0.000165452 0)
(-3.3327e-06 4.0412e-05 0)
(6.14383e-06 0.00019595 0)
(1.69099e-05 0.000243068 0)
(1.58753e-05 0.000190135 0)
(-9.0528e-06 4.38016e-05 0)
(-1.033e-05 5.94767e-05 0)
(-1.15047e-05 7.71124e-05 0)
(1.78183e-05 0.000265415 0)
(1.94462e-05 0.000265076 0)
(4.32019e-07 7.64004e-06 0)
(-1.77854e-06 0.000124442 0)
(-4.71649e-06 1.297e-05 0)
(2.40669e-07 4.42974e-07 0)
(-4.64672e-06 1.64895e-05 0)
(-7.3948e-07 0.000283136 0)
(1.96131e-07 7.31032e-06 0)
(-3.88678e-06 0.000133416 0)
(1.61374e-05 0.000176979 0)
(-7.23889e-06 2.45732e-05 0)
(1.73192e-05 0.000229005 0)
(-1.58518e-08 -1.09866e-08 0)
(1.0917e-06 0.00021149 0)
(3.01716e-07 1.26653e-07 0)
(2.05985e-07 1.50802e-07 0)
(2.87372e-06 0.000151629 0)
(-3.44255e-07 2.76186e-07 0)
(1.31748e-05 0.000341261 0)
(9.95632e-07 0.000193015 0)
(-5.12615e-07 4.19589e-05 0)
(2.83858e-06 1.67858e-05 0)
(1.82404e-06 0.00019241 0)
(-1.00225e-06 4.22673e-05 0)
(-1.67957e-07 3.69354e-06 0)
(-1.22481e-05 6.84917e-05 0)
(-1.0881e-05 5.17742e-05 0)
(-9.39906e-06 3.70947e-05 0)
(-7.79914e-06 2.46335e-05 0)
(1.73698e-05 0.000176912 0)
(1.80638e-05 0.000202473 0)
(1.86424e-05 0.000228929 0)
(1.91112e-05 0.000256191 0)
(-8.44053e-06 0.000276532 0)
(-7.49806e-06 0.00032907 0)
(-2.42637e-05 0.000271454 0)
(8.62777e-06 1.88485e-05 0)
(5.5578e-06 0.000348958 0)
(6.46239e-06 0.000347447 0)
(1.73613e-06 0.000188121 0)
(1.88306e-06 0.000240971 0)
(-1.3121e-06 7.84804e-05 0)
(-1.1799e-06 6.06857e-05 0)
(-1.03614e-06 4.48385e-05 0)
(-6.85279e-06 1.96914e-05 0)
(2.49851e-06 1.40965e-05 0)
(-9.34931e-06 8.2247e-05 0)
(1.24432e-05 0.000183066 0)
(-8.44092e-06 6.40964e-05 0)
(-7.45182e-06 4.78612e-05 0)
(1.33074e-05 0.000235535 0)
(-5.20876e-06 2.18323e-05 0)
(1.34774e-05 0.000263016 0)
(2.27112e-06 0.000119154 0)
(-1.39701e-06 0.000293981 0)
(1.35869e-06 6.76156e-07 0)
(-1.0201e-06 0.000257947 0)
(6.66726e-07 5.06021e-05 0)
(7.51761e-07 6.72065e-05 0)
(7.01456e-07 8.56495e-05 0)
(4.22928e-06 0.000304625 0)
(-5.6299e-07 3.5449e-07 0)
(2.13764e-05 0.000299722 0)
(-3.18836e-06 0.000126344 0)
(-9.47827e-08 2.01375e-07 0)
(7.6477e-06 0.000180196 0)
(-3.31787e-06 2.29779e-05 0)
(8.19276e-06 0.000232474 0)
(1.64331e-07 1.27135e-07 0)
(-4.45974e-06 2.77514e-05 0)
(9.26164e-06 0.00016988 0)
(9.98321e-06 0.000221391 0)
(1.53835e-06 1.99909e-06 0)
(-6.46825e-06 0.000110054 0)
(1.38318e-06 0.000117732 0)
(-1.47773e-05 0.000320439 0)
(1.37534e-06 0.000189152 0)
(1.46644e-06 0.000242045 0)
(-1.10653e-06 7.77192e-05 0)
(-8.70275e-07 4.42393e-05 0)
(-9.9417e-07 6.00004e-05 0)
(2.20018e-06 0.000120042 0)
(-3.01367e-07 1.13771e-06 0)
(-2.66043e-07 3.88788e-06 0)
(6.64432e-07 0.000282672 0)
(1.45357e-05 0.000129146 0)
(-1.36007e-05 0.000107396 0)
(-1.03669e-05 0.000358761 0)
(-2.35465e-05 0.000233907 0)
(-2.20023e-05 0.000181572 0)
(-2.28439e-05 0.000207296 0)
(-2.1018e-05 0.000156891 0)
(1.14432e-05 3.47417e-05 0)
(1.33286e-05 4.90206e-05 0)
(1.50684e-05 6.53696e-05 0)
(1.66651e-05 8.36238e-05 0)
(2.35303e-05 0.000233903 0)
(2.28273e-05 0.000207296 0)
(-1.14527e-05 3.47422e-05 0)
(-1.33387e-05 4.90218e-05 0)
(2.19843e-05 0.000181572 0)
(-1.50801e-05 6.53705e-05 0)
(2.10025e-05 0.000156891 0)
(-1.66781e-05 8.36248e-05 0)
(-6.59486e-06 1.91383e-05 0)
(-3.63834e-06 0.000293352 0)
(-2.59021e-06 0.000293071 0)
(-3.22726e-06 0.00033245 0)
(5.38776e-06 0.000200779 0)
(-2.84266e-06 3.77883e-05 0)
(-1.01172e-06 1.48007e-06 0)
(-4.18006e-06 0.000351449 0)
(-4.56461e-06 7.48633e-05 0)
(-5.59388e-06 7.45796e-05 0)
(-4.08785e-06 5.74389e-05 0)
(-5.00794e-06 5.71865e-05 0)
(6.82614e-06 0.000246634 0)
(8.19653e-06 0.000246749 0)
(1.79979e-05 0.000242432 0)
(1.68912e-05 0.000189542 0)
(-9.67473e-06 4.41647e-05 0)
(-1.1032e-05 5.98865e-05 0)
(-1.22802e-05 7.7565e-05 0)
(-1.08598e-05 0.000159858 0)
(-1.17806e-05 0.000210555 0)
(5.7349e-06 3.28736e-05 0)
(-3.40397e-06 0.000143054 0)
(2.9014e-06 9.47815e-05 0)
(3.56209e-06 0.000253657 0)
(-2.05258e-06 5.29392e-05 0)
(-2.30646e-06 6.9833e-05 0)
(-2.50198e-06 8.84015e-05 0)
(6.70101e-06 9.36445e-05 0)
(5.67978e-06 9.38855e-05 0)
(-7.86974e-06 0.000144374 0)
(-6.6618e-06 0.000144076 0)
(-7.93779e-06 0.000348806 0)
(5.25681e-07 1.4208e-06 0)
(1.3239e-05 0.00030005 0)
(4.75653e-06 0.000104095 0)
(1.29703e-05 0.000207075 0)
(-6.50974e-06 3.46241e-05 0)
(1.19306e-05 0.000156654 0)
(-1.10631e-05 0.000124982 0)
(2.66765e-06 2.61715e-05 0)
(-6.18555e-06 0.000224868 0)
(-5.75136e-06 0.000173106 0)
(7.79285e-07 0.00010834 0)
(-9.47326e-07 0.000178155 0)
(-1.00925e-06 0.000230316 0)
(4.10549e-07 2.38349e-05 0)
(7.46128e-06 9.80489e-05 0)
(-8.5082e-06 0.000139272 0)
(-4.0739e-06 0.000311547 0)
(-1.89156e-05 0.000308553 0)
(3.38614e-06 0.00013281 0)
(8.48615e-06 0.000133232 0)
(-6.7939e-06 2.5432e-05 0)
(1.59524e-05 0.000226902 0)
(1.48465e-05 0.000175017 0)
(-7.47355e-07 3.15141e-06 0)
(-2.54846e-06 0.00025975 0)
(1.41942e-06 4.958e-05 0)
(1.60318e-06 6.60542e-05 0)
(1.75923e-06 8.43897e-05 0)
(-3.89215e-06 0.000125722 0)
(-1.75325e-05 0.000308657 0)
(-5.00047e-06 4.96408e-05 0)
(-5.64755e-06 6.6116e-05 0)
(-6.21998e-06 8.44915e-05 0)
(8.95543e-06 0.000259659 0)
(1.59063e-08 2.049e-08 0)
(1.09774e-05 0.000123974 0)
(1.41529e-07 9.55232e-06 0)
(-5.10773e-07 8.81757e-07 0)
(-1.06292e-06 4.08214e-06 0)
(-5.12015e-06 1.75909e-05 0)
(-5.20999e-07 1.91265e-07 0)
(2.15708e-06 5.60864e-05 0)
(1.88834e-06 4.07807e-05 0)
(2.41299e-06 7.33567e-05 0)
(-3.6583e-06 0.000248438 0)
(-3.46155e-06 0.000195214 0)
(-1.06344e-05 0.000102718 0)
(1.15656e-05 0.000134039 0)
(-1.03333e-06 6.04709e-07 0)
(1.4075e-05 0.000330492 0)
(1.01558e-05 0.000295511 0)
(-2.15918e-05 0.000278061 0)
(7.99232e-06 0.000132195 0)
(2.8902e-06 0.000143663 0)
(-5.42591e-06 0.00035129 0)
(-1.50962e-05 0.000150565 0)
(-1.43587e-05 0.000149896 0)
(2.13438e-05 0.000351185 0)
(-1.69496e-06 0.000313108 0)
(-4.7583e-06 9.43964e-05 0)
(5.75401e-06 0.000143635 0)
(1.74949e-07 9.88884e-06 0)
(2.59429e-06 3.48118e-06 0)
(5.18012e-07 1.90179e-07 0)
(5.08968e-06 0.000153105 0)
(1.88126e-05 0.000358424 0)
(-1.02907e-05 0.000248481 0)
(-9.67842e-06 0.000195209 0)
(5.29773e-06 4.08312e-05 0)
(6.80901e-06 7.33751e-05 0)
(6.08693e-06 5.61103e-05 0)
(-1.89812e-07 1.31853e-07 0)
(-7.60525e-07 0.000325962 0)
(9.62148e-06 0.000133627 0)
(-8.72303e-06 0.000103243 0)
(-1.54245e-05 0.000318021 0)
(-2.30316e-05 0.000235111 0)
(-2.23492e-05 0.000208459 0)
(-2.15355e-05 0.000182695 0)
(-2.05793e-05 0.000157965 0)
(1.10937e-05 3.41427e-05 0)
(1.29425e-05 4.83266e-05 0)
(1.46486e-05 6.45876e-05 0)
(1.62149e-05 8.2761e-05 0)
(2.30132e-05 0.000235103 0)
(2.23327e-05 0.000208459 0)
(-1.11025e-05 3.41454e-05 0)
(-1.29512e-05 4.83297e-05 0)
(2.1515e-05 0.000182691 0)
(-1.46587e-05 6.45906e-05 0)
(2.05619e-05 0.00015796 0)
(-1.62262e-05 8.27644e-05 0)
(-3.30086e-06 4.40397e-06 0)
(1.29762e-06 1.20919e-06 0)
(-1.73677e-06 3.15565e-06 0)
(8.56648e-06 0.000131097 0)
(-9.38472e-06 0.000135016 0)
(1.65678e-06 1.9777e-06 0)
(-2.55995e-07 4.27515e-08 0)
(-2.07626e-05 0.000278735 0)
(1.19046e-05 0.000354795 0)
(1.33585e-05 0.000355467 0)
(2.55764e-07 4.27136e-08 0)
(3.73567e-06 4.94444e-06 0)
(1.86377e-05 0.000322848 0)
(-7.05617e-06 0.000149361 0)
(-4.54174e-07 3.94152e-07 0)
(-1.02935e-06 1.58459e-06 0)
(-1.60497e-07 4.09985e-08 0)
(3.01256e-07 2.32082e-07 0)
(1.92005e-05 0.000118869 0)
(-1.91385e-05 0.000117485 0)
(5.88345e-06 8.94763e-05 0)
(-7.23192e-06 0.000146611 0)
(6.10966e-06 9.17888e-05 0)
(-3.09663e-07 5.2716e-06 0)
(-4.45855e-06 0.000235062 0)
(3.53385e-06 0.000112108 0)
(-2.48404e-06 0.000232496 0)
(-2.37422e-06 0.00018008 0)
(1.01999e-06 2.29896e-05 0)
(1.94585e-06 0.000110062 0)
(-7.87066e-06 0.000148595 0)
(3.98153e-06 5.23969e-06 0)
(6.58962e-06 9.01563e-05 0)
(2.46055e-06 0.000133015 0)
(1.87302e-05 0.000333455 0)
(-5.67875e-06 0.000134119 0)
(-6.53079e-06 0.000135036 0)
(-5.23452e-06 1.11265e-05 0)
(-6.33403e-06 0.000139352 0)
(-5.4154e-06 0.00013838 0)
(5.64272e-06 9.78865e-05 0)
(4.95797e-06 9.88575e-05 0)
(-5.8904e-06 2.71669e-05 0)
(1.23934e-05 0.000171204 0)
(1.33478e-05 0.00022281 0)
(-1.61491e-06 1.78427e-06 0)
(-7.88498e-06 0.000147396 0)
(6.63597e-06 9.11684e-05 0)
(-5.02824e-06 0.000189943 0)
(-5.35592e-06 0.000242886 0)
(2.85577e-06 4.37549e-05 0)
(3.62902e-06 7.71054e-05 0)
(3.25845e-06 5.94505e-05 0)
(-2.58334e-06 1.20195e-05 0)
(-1.65043e-05 0.000200374 0)
(-1.56393e-05 0.000199737 0)
(8.67049e-06 3.81539e-05 0)
(8.24842e-06 3.84865e-05 0)
(1.08825e-05 0.000158825 0)
(1.19634e-05 0.000158038 0)
(-5.82037e-06 3.34255e-05 0)
(-6.4455e-06 3.38703e-05 0)
(1.18137e-05 0.000209435 0)
(1.29938e-05 0.000208578 0)
(-4.74083e-06 0.000310399 0)
(9.49485e-06 0.000283322 0)
(9.63136e-06 0.000281993 0)
(-6.98154e-06 9.17972e-05 0)
(8.23586e-06 0.000146575 0)
(-2.48694e-05 0.000346003 0)
(-7.15302e-06 0.000275739 0)
(-6.86903e-06 0.00027444 0)
(2.36468e-06 1.74917e-05 0)
(2.42994e-06 1.70445e-05 0)
(2.14882e-05 0.000278821 0)
(-9.46422e-06 0.00011796 0)
(-8.12398e-06 0.000118001 0)
(2.12602e-05 0.000314992 0)
(-2.14795e-05 0.000332136 0)
(-2.14517e-05 0.000333725 0)