/*--------------------------------*- C++ -*----------------------------------*\
| =========                 |                                                 |
| \\      /  F ield         | OpenFOAM: The Open Source CFD Toolbox           |
|  \\    /   O peration     | Version:  2.3.1                                 |
|   \\  /    A nd           | Web:      www.OpenFOAM.org                      |
|    \\/     M anipulation  |                                                 |
\*---------------------------------------------------------------------------*/
FoamFile
{
    version     2.0;
    format      ascii;
    class       volSymmTensorField;
    location    "4860";
    object      sigma;
}
// * * * * * * * * * * * * * * * * * * * * * * * * * * * * * * * * * * * * * //

dimensions      [1 -1 -2 0 0 0 0];

internalField   nonuniform List<symmTensor> 
11800
(
(159275 77557.9 7.66168e-14 -2857.53 4.05755e-14 38810.4)
(-78592.9 67808.9 1.17616e-13 -79.4516 3.72883e-14 -19520.2)
(724242 100270 -1.96285e-15 1582.51 -8.48625e-14 180092)
(-628266 50371.4 0 -1977.52 0 -156376)
(-81514 65471.8 2.19438e-14 -4719 -6.19847e-14 -21396.2)
(-392893 103315 8.49821e-14 2128.63 4.45675e-14 -96956.5)
(-72993.2 98998.3 1.60945e-13 -621.931 -4.1844e-14 -18265.4)
(-102982 103283 -2.3956e-14 830.15 9.63561e-14 -25345.9)
(221989 50644 3.17796e-14 472.796 -2.16909e-14 55197.3)
(152490 108678 -8.23586e-14 617.145 -6.93574e-14 37989.1)
(183829 63496.7 -6.39138e-14 2089.68 5.46987e-14 46130.1)
(-911279 36079.8 -7.62549e-14 -6700.91 -3.45888e-14 -227769)
(25224.4 -36641.8 1.36779e-16 -67996.3 1.063e-16 -10612.6)
(670768 50846.7 6.91119e-14 4068.67 -1.89046e-14 167441)
(-535654 96853.9 -5.772e-14 6488.08 4.48609e-14 -131297)
(2.46409e+06 -9842.27 0 -8323.39 0 609325)
(-47648.4 76939.3 5.4465e-14 4622.1 4.80138e-15 -10675.7)
(-73616.6 71010.5 -3.07191e-14 9028.18 1.76371e-13 -16025.7)
(153847 121424 -3.1178e-14 -19940.3 2.21509e-14 33225)
(116240 64517.2 -1.09605e-13 -12935.4 -3.54467e-14 25631.9)
(-493296 57273.5 3.41724e-14 -2088.07 3.58076e-14 -122915)
(-797259 91045.8 5.4652e-14 4107.7 -3.17719e-14 -196797)
(-1.03409e+06 115135 -2.73933e-14 12814.9 1.75997e-14 -253400)
(-948876 65236.4 2.74745e-16 320.119 4.75481e-15 -235356)
(2.01221e+06 86490.4 3.46814e-15 -8874.45 3.97063e-14 497068)
(-1.23568e+06 115068 -2.69096e-14 8828.79 -7.62532e-16 -304407)
(-1.3175e+06 60802.3 0 11642.8 0 -324010)
(651000 45057.2 -9.07465e-14 -5530.64 -5.47937e-14 160154)
(-1.43328e+06 61992.8 -1.55629e-14 12695.1 -7.4931e-14 -352475)
(-1.54893e+06 62354.2 2.07711e-14 14970.2 -3.22678e-14 -380608)
(426215 47241.8 -1.12491e-13 -2175.49 -2.0156e-13 105213)
(85351.6 60431.6 -1.79295e-14 2856.74 -1.4798e-14 21886.3)
(1.26275e+06 111147 -4.40626e-15 14592.2 -1.92193e-14 316933)
(-30786.7 81044.1 1.47108e-14 -2226.32 -1.1013e-13 -8191.21)
(21763.1 86042.1 -3.891e-14 1964.75 -1.66972e-13 5887.36)
(-415643 35085.9 -1.0214e-13 -1818.62 -7.41904e-14 -103581)
(24078.7 87361.1 1.3819e-13 1503.86 -1.64301e-13 6347.56)
(1.35355e+06 62796.6 -1.61871e-14 7249.03 -6.90388e-14 337641)
(-49372.9 85016.7 0 -1294.07 0 -12571.5)
(110990 80302 -4.75586e-14 6533.1 8.85784e-14 29159.8)
(-1.38425e+06 44561.4 -8.43242e-14 -7035.87 -3.91792e-14 -345205)
(-1.50587e+06 43878 6.03853e-14 -7497.87 -3.46406e-14 -375497)
(684394 60858.4 -3.50099e-14 -497.116 -1.16476e-13 169689)
(-1.62732e+06 44030.5 -1.14523e-14 -5670.92 -6.12014e-14 -405179)
(448119 59695.9 2.98986e-13 941.633 -9.32416e-14 111421)
(2.30479e+06 54951.3 0 -8090.68 0 569857)
(992845 126329 -1.73113e-14 -3690.25 9.05527e-15 245429)
(1.18214e+06 43641.7 -3.05747e-14 -12947.9 -2.12146e-14 290099)
(-115815 88189 -1.18526e-13 826.506 -7.30059e-14 -28531.1)
(266586 85118.1 0 2587.01 0 66787.4)
(-946696 51013.1 -5.74605e-15 2586.93 6.07667e-14 -234253)
(-662578 47340.2 1.98696e-13 3024.04 2.32752e-14 -163649)
(-13554.6 85292.4 1.11456e-13 1334.46 6.93761e-14 -3032.06)
(49462.1 138284 -2.40156e-15 9050.89 2.09272e-14 14518.3)
(-2.64907e+06 5079.48 -3.66877e-15 -13688.2 -5.77808e-15 -660684)
(2.06244e+06 -95465 4.95122e-15 -94381.3 8.70304e-15 488314)
(-70473.1 20268.5 9.59374e-14 1918.09 3.56218e-14 -17009.9)
(-593981 101810 7.15246e-15 -6609.09 -5.92802e-14 -149018)
(477185 63314.3 -6.04632e-14 9980.09 8.85464e-14 120876)
(-419790 107490 4.951e-14 -7866.35 -8.93833e-15 -106110)
(2.1366e+06 20511.7 -4.33065e-14 -16436.6 -1.50081e-14 526054)
(-57814.1 89836.6 4.71752e-14 994.47 -7.67494e-14 -14098.1)
(-467846 82806.3 -2.71762e-14 -2875.3 4.67003e-14 -116796)
(374954 82989.9 8.25438e-14 3794.96 -4.70752e-14 93975.2)
(1.98613e+06 10955.4 4.72253e-15 -1125.75 -2.86309e-14 492521)
(-290008 33771.4 -1.34958e-13 2018.43 -1.63059e-13 -71456)
(-976150 21135.8 9.48647e-14 5171.94 3.16201e-14 -240919)
(-690524 24386.3 2.77819e-15 3947.12 -1.66617e-13 -170354)
(-73119.2 21753.9 0 -3752.6 0 -19073.5)
(-1.15194e+06 62188.4 -2.15987e-15 12027.8 7.03545e-14 -282836)
(-24114.1 86560.6 -2.70378e-14 -3.20574 5.58037e-14 -5984)
(-57455.1 67289.5 -1.04159e-13 -3286.22 1.16492e-13 -15071.2)
(-50338.5 65925.3 7.30512e-14 -1189.15 -4.46989e-14 -12785.1)
(-1.73264e+06 371596 -6.19303e-15 212139 5.57408e-15 -377268)
(2.11923e+06 74170.7 -1.69716e-15 -7365.16 -1.71934e-14 523997)
(-390461 54435.7 -1.00352e-13 2903.38 -7.29743e-14 -96161)
(2.08347e+06 12196.1 -3.64679e-14 4189.9 3.24539e-14 517990)
(-281567 19864.3 8.87214e-14 -413.756 -2.91029e-13 -69965.1)
(-208635 43889 1.66866e-14 -602.98 -1.59184e-14 -51916.1)
(-196721 58739.2 1.70373e-13 2117.02 1.7079e-13 -48285.3)
(-2.66847e+06 -52229.9 1.33633e-14 11940.6 6.28871e-14 -659138)
(117946 57967.5 0 9720.16 0 31676.5)
(62191.2 69972 -1.77111e-13 2130.82 -6.97618e-14 15959.6)
(43204 74707.6 6.14059e-14 924.343 -4.83207e-16 10949.1)
(-92436.8 67001.7 4.19352e-14 -9528.23 1.18641e-13 -25299.6)
(-1.51003e+06 76263.3 -2.33495e-14 -8182.65 1.17455e-13 -376700)
(463131 53991 1.42901e-13 4854.56 -4.4432e-14 116117)
(-1.39376e+06 74700.1 0 -8057.06 0 -347819)
(-1.27874e+06 73259.3 -4.90404e-14 -7182.78 -5.02141e-14 -319065)
(688613 51261.8 6.54445e-14 6031.5 4.00185e-15 172355)
(-14375.3 84998.4 -2.3092e-13 -3166.79 -1.48052e-13 -4352.54)
(1.49372e+06 102369 0 -4753.66 0 369442)
(-123433 74096 -4.89926e-14 1893.63 -8.12025e-14 -30156.3)
(76324.2 15213.3 -2.82394e-14 5122.1 -4.09736e-14 20208.5)
(188682 76248.1 2.16479e-13 1681.45 3.87695e-15 47233.1)
(58356.8 -44005.9 -8.7054e-16 -123958 -6.45359e-16 -16277)
(-3093.6 12112.5 2.26773e-17 7275.81 -1.3493e-16 1037.69)
(-58955.8 -43766.1 -5.51371e-16 123741 3.67372e-16 16074.5)
(-14418.6 86347.2 -7.17925e-14 445.841 -1.04333e-15 -3466.92)
(-794312 56283.2 -1.75901e-14 -2989.22 7.00765e-14 -197827)
(54649.4 38797.9 3.94541e-14 -26.5988 -1.10323e-13 13553)
(866542 63665.3 -8.51921e-14 -7878.34 -1.17782e-13 213052)
(-1.41681e+06 116819 5.666e-15 -741.944 1.15357e-14 -351725)
(-463409 77030.6 -3.503e-15 7315.11 1.10448e-14 -113166)
(-2306.02 92158.9 -1.10774e-14 -914.721 -5.50985e-14 -799.132)
(370612 105465 -2.27264e-14 2657.7 -3.92563e-14 92615.9)
(-177792 77231.4 -6.77687e-14 -973.421 1.49356e-13 -44355.5)
(-124461 80393.7 -2.2973e-13 -796.232 -1.10754e-13 -31078.9)
(2.10825e+06 20095.7 1.28056e-14 5376.52 2.66052e-14 524434)
(1.40708e+06 63106 2.09517e-14 5107.53 4.2629e-15 350392)
(1.5247e+06 64282.8 4.01374e-14 5898.79 5.58093e-14 379772)
(1.29125e+06 62443.5 1.47129e-13 4581.5 8.71522e-14 321521)
(-468477 55806.9 6.69504e-14 -3986.84 1.0453e-13 -117228)
(-696144 55085.8 -1.77034e-13 -4829.93 6.36331e-14 -173926)
(252856 69319.2 7.53522e-14 -1.74251 -3.94857e-14 62738.2)
(1.89809e+06 35472.9 1.92582e-14 -155.862 1.1343e-14 470916)
(268288 31874.3 -5.51741e-14 -2985.79 -2.16888e-13 65826.9)
(-85304.9 79979.3 -1.91367e-13 777.328 1.78866e-13 -20973)
(1.77779e+06 79585.6 -2.20326e-14 1233.92 2.74422e-14 441411)
(-153820 112714 -6.18381e-14 -233.513 -1.66374e-14 -38223.7)
(-237274 44012.2 -4.22741e-14 3912.19 -1.7785e-14 -57901.7)
(74881.2 98995.4 1.36941e-13 -2578.08 -1.95982e-13 17939.9)
(107132 106235 -9.53692e-14 -2137.85 6.55773e-14 26051.3)
(-76721.6 81099.1 -2.77682e-14 4472.3 -4.09552e-14 -17926.5)
(-130212 70057.6 -1.74253e-13 -1471.72 -1.3593e-13 -32673.4)
(-3013.59 84827.1 -1.67483e-13 -2480.32 -1.25975e-13 -1363.15)
(-39814.5 84046.6 -1.00406e-13 -296.525 1.1027e-13 -9952.36)
(-9124.71 86379.2 -6.56378e-14 -2352.08 -6.25323e-14 -2847.63)
(9876.11 57756.5 3.11797e-15 41551.2 1.39666e-13 12760.2)
(-39590.5 4955.15 -4.51006e-16 -9149.22 6.63554e-14 -12093.3)
(-2.2229e+06 -359385 1.99645e-14 91400 -1.00643e-14 -528869)
(-1.61207e+06 76921.6 1.44467e-14 -12358.9 -2.2035e-15 -403053)
(505599 49459.8 7.56022e-14 3690.02 -7.37154e-14 126365)
(-1.50643e+06 79504.8 -5.80116e-14 692.757 3.64109e-14 -373603)
(735033 45502.6 -3.40185e-14 4217.57 1.0307e-13 183423)
(-1.38765e+06 76874.3 2.21397e-14 798.16 2.22453e-14 -344107)
(-1.27113e+06 74843.7 -1.27917e-13 1325.76 9.77003e-14 -315064)
(420888 70375.1 7.40658e-14 -5383.6 2.06306e-13 103095)
(-1.28795e+06 29761.2 7.92735e-14 8621.05 -1.08868e-13 -317428)
(615945 74291.4 9.18282e-14 -6629.3 -7.30998e-14 151183)
(-1.18713e+06 31256.5 6.5739e-14 7606.86 -1.1308e-13 -292664)
(-1.08798e+06 33299.8 -6.81533e-14 7432.99 -6.13504e-14 -268106)
(-603828 95799.1 5.07516e-15 18736.6 5.10044e-14 -145173)
(186288 80878.4 -3.69826e-14 -6072.31 -2.46161e-13 44715.3)
(266730 78943.1 -5.90709e-14 -8288.52 -1.70579e-13 64124.5)
(-388924 77172 -1.77552e-14 12307.9 1.0218e-13 -93446.2)
(1.57263e+06 49081 -1.12465e-13 2100.57 -3.79446e-14 390722)
(-1.6205e+06 -22511.5 1.08102e-13 -12739.2 3.34009e-14 -405239)
(912535 46058.3 7.61084e-14 -2695.24 -7.08786e-14 225750)
(-459595 44713.4 1.6853e-15 8264.68 9.99902e-15 -111984)
(-211592 76893 -9.58875e-14 2068.36 -7.92057e-14 -51987.1)
(-221790 63158.3 8.20594e-14 -3095.98 -7.42143e-14 -55798.8)
(23676.9 85575.7 6.23801e-14 1373.2 1.13896e-13 6215.43)
(-315255 55280 -1.40281e-13 -1209.08 1.45428e-13 -78521.3)
(272578 67268.3 -7.35127e-14 -4675.28 -7.76466e-14 66472.2)
(185038 76044.6 -6.73958e-14 2916.81 5.19297e-14 46635.4)
(-588854 62966.9 1.14053e-13 8138.32 -7.67514e-14 -144087)
(-825346 70138.7 4.14021e-14 3506.57 9.06106e-14 -203915)
(1.66418e+06 19743.8 2.54214e-14 1926.07 -3.32461e-16 413395)
(-7746.42 90184.4 3.2747e-14 -813.983 -1.59222e-13 -2124.01)
(2.39986e+06 85741.8 -2.95251e-14 -14532.2 -1.6081e-14 591848)
(-259487 69017.8 -1.2117e-13 940.127 8.34667e-14 -64150.8)
(2.09758e+06 54840.6 0 -21273.4 0 515175)
(-602400 70168.3 3.54987e-14 -6226.46 1.48243e-13 -151013)
(-656930 70008.5 -3.63979e-14 -6993.28 4.31507e-14 -164733)
(-710970 70927.3 -5.91279e-15 -7245.38 1.55856e-13 -178204)
(332956 78030.3 -8.97681e-14 1117.5 2.20703e-14 82890.5)
(226326 79313.8 -9.58202e-14 702.147 2.36479e-14 56330.2)
(-2.60663e+06 -22478.7 2.33929e-14 -9811.9 -1.33341e-14 -649192)
(-1.63195e+06 75570.1 -2.41829e-14 -9620.06 4.55332e-14 -407307)
(576906 53189.4 -9.56333e-14 5244.21 -5.59524e-14 144443)
(802360 50286.8 2.68404e-13 6365.86 -1.44218e-13 200661)
(89371.1 86576.2 5.25818e-14 -8574.45 -1.35904e-13 20047.3)
(-468946 38857.5 0 1680.42 0 -115938)
(-474654 20681.7 1.43827e-13 -3321.86 -7.30982e-14 -118596)
(2.2993e+06 60719.6 3.84259e-14 -16174.7 2.56188e-14 566489)
(2.35296e+06 -15941 3.18617e-14 14498.2 2.813e-14 587414)
(1.24385e+06 24168.1 1.98509e-15 -1286.89 6.74936e-14 308306)
(1.14278e+06 26728.2 1.38774e-14 -943.777 1.64043e-13 283313)
(1.34659e+06 21507.2 3.48255e-14 -2442.22 -5.03484e-14 333510)
(-587965 76327.5 -8.67283e-14 4911.97 7.80118e-14 -144667)
(-389695 71411.7 -8.41702e-14 3819.44 9.22881e-14 -95743.7)
(256396 102160 0 2106.08 0 64139.7)
(175224 98131.9 -3.49324e-15 771.831 1.33784e-13 43668.1)
(558917 75848.8 -1.02917e-13 -122.034 8.41318e-14 138648)
(-235575 71576.3 -8.23102e-14 3123.41 1.95068e-13 -57676)
(-365033 107415 -1.62316e-14 4601.61 7.16926e-14 -89430.3)
(113802 78314.4 -3.0663e-13 -857.615 -8.13413e-14 28023.7)
(162343 74974.2 -2.11959e-13 -1193.45 8.86583e-14 39984.5)
(-98800.3 90172.6 -4.13499e-14 2287.91 -5.78386e-16 -23946.7)
(-278046 58185.6 -3.40482e-14 6125.57 -2.12483e-14 -67468.9)
(-256009 59787.7 2.25205e-14 5427.97 -3.84338e-14 -62174.3)
(-258098 42968.7 0 -395.437 0 -64137.6)
(-122582 110926 4.63248e-16 -5571.54 -4.44148e-14 -31797.6)
(-1.19746e+06 2015.16 1.00356e-13 -7306.22 -4.3942e-14 -298927)
(1.50204e+06 58851.8 -1.30223e-13 -6771.58 -1.31319e-14 371007)
(1.82297e+06 184699 7.68285e-15 -311013 3.8792e-15 375148)
(-43400.1 74889.6 2.73826e-14 -3831.21 -6.20473e-14 -11719.1)
(279975 25436.8 9.99268e-14 2531.72 -2.28081e-13 70095.8)
(-2.28127e+06 -286320 1.919e-14 184882 -1.23732e-14 -520158)
(130387 59404 4.27589e-15 3879.91 1.15907e-13 33314.2)
(358207 41984.3 8.06634e-14 818.33 -9.25826e-14 89081.5)
(395893 46175.4 1.12632e-13 -5707.93 -4.75117e-14 96812.9)
(-5008.5 88872.8 8.48471e-14 -104.931 -1.25793e-14 -1268.75)
(-5671.17 92029.7 8.94989e-14 -649.385 7.56581e-15 -1568.26)
(1.08727e+06 34050.3 2.85607e-14 -5367.03 9.48791e-14 268443)
(901406 97989.8 3.62615e-14 8141.79 -8.74012e-15 225677)
(-820233 81064.2 0 8143.61 0 -201496)
(-701001 42313 -9.23976e-14 -10792.6 -5.77811e-14 -176610)
(2.21805e+06 -363137 -8.05604e-15 -93682.4 -5.42735e-15 527098)
(-684184 124640 -7.36846e-15 18930.5 8.56876e-14 -165063)
(-1.09271e+06 39947.6 5.05531e-14 -2457.17 -2.97714e-14 -271734)
(-2.3116e+06 -930989 -2.16636e-14 484375 8.46602e-15 -453372)
(2.78479e+06 1981.55 0 38037.8 0 700402)
(-2.0243e+06 -862143 -7.04918e-15 228373 2.17954e-15 -445606)
(357504 123661 -4.81598e-14 -76.9592 1.69613e-14 88684.8)
(-80006.8 71928 -8.65401e-15 -812.448 1.20975e-13 -20052.9)
(-1.05595e+06 90823.9 4.28859e-14 -8913.25 -4.71352e-14 -264214)
(-967278 91186.5 6.39507e-14 -8012.43 -7.98705e-15 -241989)
(-887861 89073.6 -7.3013e-14 -7226.58 2.84038e-15 -222089)
(315601 62772.5 6.4188e-14 4157.07 -1.79049e-13 79338.4)
(474718 60073.1 -1.61056e-13 5324.77 1.56539e-13 119108)
(46803.2 77909.7 -2.53294e-14 -8175.75 1.18844e-13 9584.26)
(66895.1 73504.7 5.99351e-14 -11220.2 7.67591e-14 13814.1)
(-150988 117731 -6.79073e-14 24931.2 1.83643e-14 -31277.3)
(-96932.1 68372.4 5.09082e-14 16742.6 -6.50935e-14 -19896.6)
(-1.26718e+06 -509971 -5.4595e-15 -31492.6 1.14055e-15 -322227)
(239365 118925 -3.86167e-14 18158.1 -1.36714e-13 63896.8)
(-119034 70134.9 -1.33811e-13 -9421.35 -6.11525e-14 -31872.3)
(-559102 112634 0 113.398 0 -138696)
(238950 64229.3 1.02339e-13 1408.44 -4.17488e-14 59637.9)
(-117836 96362.7 0 -643.597 0 -29397.3)
(-87795.5 76017.7 -6.51639e-14 -1008.48 -1.03184e-13 -22034.1)
(835924 80163.1 9.10284e-14 4723.05 -9.51955e-14 208582)
(858735 49503 1.39406e-13 45.6824 6.65672e-14 213081)
(2.3098e+06 -930309 -8.10854e-15 -484752 -2.68072e-15 452830)
(1.26587e+06 -509945 9.47087e-15 31362.7 2.5971e-15 321870)
(-259377 54988.8 1.98641e-14 2055.34 2.82597e-14 -63846.7)
(-276769 55810.2 -6.0349e-14 -3012.54 -1.23366e-13 -69419.5)
(-1.48704e+06 -853.109 -6.62366e-14 -5591.86 -1.51665e-14 -370352)
(1.20698e+06 54149.2 1.50151e-13 -4060.51 -3.92086e-14 298468)
(389871 72108 4.99453e-15 -3289.21 2.73255e-13 95918.7)
(587483 77980.1 9.28412e-14 -3994.39 1.00909e-13 144775)
(-1.34681e+06 21849.9 -2.45001e-15 -887.529 5.73421e-14 -334390)
(-1.24647e+06 26239.4 -5.84026e-14 -953.232 1.93102e-14 -309510)
(-1.1449e+06 28853.9 -3.93273e-15 -1036.31 9.07569e-14 -284330)
(-17606.4 91453.5 -1.41264e-13 -890.515 4.08458e-14 -4589.45)
(-1.45769e+06 24090.4 3.78484e-14 -2287.13 4.06938e-14 -362249)
(490513 72824 -9.51545e-14 -3342.3 4.66647e-14 120877)
(689007 77225.7 0 -3726.7 0 170032)
(649662 57230.1 3.62237e-14 -4840.71 8.63718e-14 159993)
(125054 76313.3 -1.19386e-13 598.153 -3.15495e-13 31176.8)
(10952.8 78091.7 -1.04613e-13 -9227.35 -3.84587e-14 428.124)
(528084 39992 -1.31711e-13 16415.3 2.35585e-14 135101)
(-450876 59698.5 -1.13336e-14 -1306.82 -9.17699e-14 -112196)
(71443.8 79654.1 1.53667e-15 -16860.4 1.90981e-14 13543.2)
(2.02193e+06 -862158 -7.33657e-15 -229267 -1.8453e-15 444797)
(321707 84617.5 9.3927e-15 -2708.44 -1.74257e-13 79150)
(387580 82239.3 8.11489e-14 310.354 2.75925e-14 96243.5)
(-253854 81121.4 0 -691.048 0 -63157.7)
(-301581 91596.7 3.03244e-14 -7824.62 -8.43551e-14 -76769.8)
(891858 88817.9 0 8157.15 0 223312)
(971593 91054.4 5.34716e-14 8901.13 5.07036e-14 243280)
(1.05069e+06 94734.7 -1.19534e-13 9285.36 -1.15625e-14 263002)
(-474500 57036.4 1.70004e-13 -6098.22 1.72649e-13 -119246)
(-318896 61696.9 8.93968e-15 -4401.74 -1.03364e-13 -80216.8)
(-16891.1 86979.2 1.00625e-13 -613.296 5.35539e-14 -4343.18)
(2.08587e+06 11399.1 -1.54564e-14 -32949.8 -2.81675e-14 509372)
(-12979.3 103181 -1.0867e-13 -6376.65 3.38486e-14 -4802.59)
(27854.5 49684.7 -1.03337e-13 12679.8 -6.42762e-14 10057.4)
(46965.7 82471.9 7.81865e-14 1430.5 -1.81383e-13 12008.1)
(505172 83745.4 8.31037e-14 521.868 8.77719e-14 125473)
(-196610 3484.5 -1.38377e-13 -3218.17 6.77704e-15 -49581.4)
(668173 93480 0 -4109.96 0 164767)
(2.1898e+06 -95887.4 3.55275e-16 -303908 1.42734e-16 467929)
(501707 21773.1 7.98931e-14 7460.24 1.81618e-13 126335)
(482413 35119.2 3.62066e-14 -6995.37 1.97247e-14 117961)
(-726676 80055.1 1.18858e-14 6673.14 2.50978e-14 -178647)
(-516655 74648.1 -9.27092e-14 5702.33 2.9691e-14 -126778)
(-619091 48468 -1.89437e-13 -3095.26 -3.31233e-14 -154377)
(-443690 53464 9.56931e-15 -3216.17 -1.00582e-14 -110886)
(1.53007e+06 19501.3 -6.57311e-15 -4062.32 2.16613e-14 378633)
(1.26734e+06 100817 2.69832e-15 -475.576 -4.48009e-14 314334)
(366988 92337.5 1.6767e-14 -4500.58 9.91428e-15 89940.4)
(493474 75993.5 3.14817e-14 -322.843 5.35252e-14 122361)
(270544 91148.3 8.76239e-14 -4465.42 6.2411e-14 66019.5)
(362353 76299.7 7.85694e-14 -1432.27 -1.24315e-14 89551.8)
(-691836 52522.9 -1.4402e-14 7171.12 3.60977e-14 -169879)
(-910573 84545.5 -3.99286e-14 2640.53 7.17685e-15 -225277)
(-207136 134469 4.42509e-14 -778.237 3.15603e-14 -51587.8)
(1.49573e+06 59210.8 4.93913e-14 5934.16 3.5407e-14 372592)
(1.62167e+06 58782.6 -1.06923e-14 26379.5 5.30667e-15 408915)
(1.92185e+06 60317.4 8.68484e-15 -2096.17 5.46626e-15 476329)
(134873 85426 -1.70562e-13 -551.864 2.07039e-13 33327.9)
(-495075 22803 -1.05672e-13 -7015.74 -5.4318e-14 -124579)
(-479147 38186.5 -1.34092e-13 4046.56 8.96625e-14 -117882)
(2.25244e+06 -10453.9 0 14251.4 0 562412)
(2.25896e+06 68318.7 0 1735.26 0 560925)
(1.35757e+06 52938.5 2.06987e-14 -1869.19 9.83833e-14 336376)
(1.34573e+06 6994.88 6.59243e-14 5431.24 -1.85345e-13 335251)
(-1.39723e+06 10116.9 0 -10333 0 -349245)
(-1.3627e+06 53468.6 0 9268.72 0 -335814)
(38898.3 82457.7 -2.35039e-14 2375.52 6.72958e-14 10240.9)
(-94348.6 33738 2.51515e-13 -5296.52 -1.0642e-13 -24724)
(-366656 35377.5 -6.6321e-14 -3605.18 -2.44631e-14 -91869.3)
(2.93448e+06 3612.32 0 59276.4 0 742811)
(-51687.5 71841 -1.65867e-13 -1004.75 -4.13453e-15 -13074)
(-61570.2 74642.5 -2.38904e-14 -4736.46 -1.3282e-13 -16452)
(326420 99871.5 -8.54825e-14 -7477.25 -5.8565e-14 79136.2)
(-257106 97718.6 -1.78048e-13 -7790.63 7.45347e-14 -65726.3)
(312336 58588.4 5.16352e-14 -8360.42 -5.33889e-14 75422.5)
(-1.19374e+06 50075.3 3.66476e-14 -10949.3 -7.45562e-14 -298908)
(1.20417e+06 55096.2 -1.52376e-14 -12382.5 -9.11573e-14 295708)
(-2.00929e+06 83614.1 1.57509e-14 -12461.8 -6.71163e-14 -501638)
(-2.362e+06 -216531 8.27365e-15 435573 -5.93e-15 -477985)
(828827 107125 -1.31916e-14 -17307.7 1.6364e-14 201354)
(95474.2 108167 -8.82741e-15 -5132.88 4.9686e-14 22415.5)
(-1.12635e+06 88571.7 -4.41907e-14 -4899.64 -1.23871e-13 -280685)
(948146 27517.1 -5.76026e-14 12290.4 8.30738e-14 238304)
(-655194 53144.4 6.34798e-14 -11303.8 8.13992e-14 -165372)
(512657 87276.5 9.54987e-14 6321.98 1.67599e-15 128769)
(96123.2 93623 2.66728e-14 5840.15 1.24764e-15 25299.2)
(163798 71444.3 -1.12801e-13 -862.071 1.41607e-13 40427.7)
(-324270 61240.1 7.70926e-14 -20623.5 -8.18333e-14 -85575)
(-525220 126179 1.24789e-15 8994.21 1.03059e-13 -128086)
(-298074 62590.2 1.19025e-14 -19071.6 -8.28586e-14 -78690.3)
(-482501 122196 7.52735e-14 8223.81 -2.75005e-14 -117678)
(119910 49778 -4.70985e-14 -3506.63 1.46209e-14 28882.1)
(-56745.1 104664 -1.25325e-15 2775.03 -9.30485e-14 -13391.1)
(-37065.2 102203 1.15512e-13 2765.5 9.26165e-14 -8510.46)
(-24747.6 90153.7 5.94669e-14 951.028 -1.2943e-13 -5904.42)
(1.59224e+06 40980.9 3.38881e-14 4462.18 5.25689e-15 396174)
(-16443.4 104795 -1.30509e-13 -7580.98 -5.79903e-14 -5960.94)
(-62963.9 74294.5 6.45648e-14 -4370.76 -2.1611e-13 -16707.1)
(2.2096e+06 -67648.4 -1.6786e-14 -113851 -1.22174e-14 519997)
(373345 60836.4 6.8785e-14 -5446.63 -8.82192e-14 91283.1)
(-859809 107851 4.57316e-14 15634.6 1.23371e-14 -209457)
(-992679 69325 -7.50223e-14 2020.16 -3.28182e-14 -245803)
(-985422 29948.7 0 -12111.1 0 -247508)
(1.23976e+06 16649.9 -6.7501e-14 5878.05 -3.20917e-14 309068)
(1.18781e+06 78461.9 4.14329e-15 10094.1 8.03643e-14 297224)
(-37471.2 61404.9 -7.63696e-14 776.469 6.22275e-14 -9104.7)
(-28528.1 61887.7 5.53995e-14 1613.5 -3.09671e-13 -6678.06)
(-766464 115228 -3.01401e-14 8838.99 -7.35833e-16 -187982)
(-1.03253e+06 80717.3 0 13039.1 0 -252955)
(727711 48308.2 1.64827e-14 8076.39 4.0444e-14 182564)
(-1.87849e+06 102599 7.21202e-15 -8946.56 -2.27341e-14 -468312)
(67439.6 71931 0 17207.1 0 21002.6)
(1.04533e+06 41667.3 -3.573e-15 -3111.47 2.48066e-14 258595)
(793210 111985 -1.93532e-15 6799.08 9.38539e-17 198499)
(-502768 92225.9 1.4191e-13 4640.11 -1.82466e-14 -123596)
(-390306 61604.9 -1.38703e-14 -3887.61 9.99598e-14 -97807.3)
(-358586 87615 2.19703e-14 3896.32 -8.34534e-14 -88005.6)
(-281221 65956.8 -1.24182e-15 -3267.72 4.90284e-15 -70587.3)
(-398309 40776.3 5.13653e-14 -48.5475 7.58378e-14 -98840.6)
(-336192 46533.1 -8.985e-14 2636.74 1.80747e-14 -82761.9)
(-411262 112454 0 1038.39 0 -101785)
(-461322 113398 -4.51017e-14 -1093.98 3.91659e-14 -114735)
(-501264 116722 -3.67766e-15 -1284.52 -4.19141e-15 -124692)
(137458 71856.4 -2.2116e-13 1298.82 -1.10533e-13 34428.4)
(-27336 85735.7 -4.909e-14 -2361.77 9.76759e-14 -7368.63)
(993601 42727.8 -2.75892e-14 6007.03 7.86449e-14 248023)
(1.04036e+06 58903 3.82167e-14 -6763.51 -7.42937e-14 256457)
(171668 75467.6 7.95663e-15 1655.74 -5.511e-14 43005)
(252182 69089.8 0 2976.61 0 63310.1)
(-540948 111423 5.62955e-14 -3174.39 -6.18241e-14 -135008)
(481250 65496.2 -1.0763e-13 4989.81 -1.36844e-15 120646)
(525522 99221 -4.71153e-14 5759.4 -2.91845e-15 131822)
(-193499 83332.9 -9.0877e-14 -460.05 1.30194e-13 -48125.1)
(-165233 87337.5 5.30173e-14 -1757.62 3.10912e-15 -41433.7)
(-236636 91739 8.58673e-14 -1284.89 3.05329e-14 -59032.9)
(-262684 78257.7 0 -3191.42 0 -65969)
(-1.13542e+06 43449.9 2.50819e-14 -196.838 -3.82255e-14 -281769)
(530297 80597.9 -4.16154e-14 -1177.67 -1.64395e-13 131285)
(376584 77764.3 -1.90611e-14 -1276.13 -2.72405e-15 93121.4)
(-121300 215908 -1.14362e-14 23601.2 -8.15009e-15 -24241.1)
(1.37363e+06 34838.7 -8.7203e-14 -9876.45 -5.2223e-14 338374)
(-1.60195e+06 8801.21 7.53956e-14 2312.85 4.51063e-14 -396903)
(-180624 199403 0 -7645.37 0 -46713.4)
(-188826 80515.4 3.17705e-14 2081.71 9.58698e-14 -46335.1)
(-159308 85152.2 -2.38968e-13 3699.43 -6.06012e-14 -38609.7)
(-275812 80079.9 1.03029e-13 1739.58 1.15159e-15 -68002.9)
(-237488 88217 0 3205.89 0 -58130.1)
(539797 63350 5.22361e-14 -4748.62 -8.40665e-14 132756)
(619659 90372.7 1.90854e-14 -3749.36 8.08569e-15 152820)
(504215 67788.3 -3.89039e-14 -9755.6 3.72307e-14 122685)
(587829 93613.4 4.15739e-14 -6812.58 1.14731e-13 144162)
(463028 68193.7 3.2635e-14 -8910.11 5.47165e-14 112676)
(539667 92091.9 -7.08694e-14 -6310.09 4.04819e-14 132337)
(424002 39821.3 3.24235e-14 -305.623 1.22387e-13 105128)
(409104 22386.2 9.53351e-14 1949.53 2.04048e-13 101991)
(-804280 88421.3 -1.80475e-14 813.552 2.36714e-14 -199356)
(383374 85727.6 -9.87079e-14 -4770.81 -2.40149e-15 93939.1)
(-906743 62994.9 0 7731 0 -223063)
(1.56854e+06 95022 5.28964e-14 -13257.3 -3.32626e-14 385896)
(-797739 38591.2 9.94402e-14 3024.55 -1.63284e-13 -197185)
(-580382 44888.9 1.20127e-13 1008.32 -8.07051e-14 -143754)
(-1.74417e+06 -824558 -6.70941e-15 276896 1.50099e-15 -364062)
(51827.6 80183.6 1.34224e-13 90.4774 -3.52321e-14 12881.9)
(1.66343e+06 50974.2 -1.76837e-14 -3844.02 -9.0064e-16 411777)
(-814879 61229.4 -2.78082e-14 3073.81 -8.06458e-14 -201425)
(-585433 58953.5 1.7402e-13 2821.04 8.56041e-14 -144558)
(2.46527e+06 -20312.4 2.86709e-14 -5487.66 1.27622e-14 610322)
(-111650 71147.3 -1.92503e-14 -1876.2 7.71925e-14 -28168.2)
(1.71116e+06 11201.1 4.3929e-14 4983.18 -2.72817e-14 425811)
(-403309 62316 6.02269e-14 1556.66 -1.06134e-13 -99682.9)
(-1.40783e+06 93079.3 3.55929e-14 14416.4 -4.63983e-15 -345734)
(-1.32317e+06 57874.9 -2.17409e-14 -7806.41 -1.64917e-15 -330243)
(1.28371e+06 59467.6 -4.11452e-14 2094.46 2.68806e-14 319034)
(-164877 84470.5 -2.62502e-13 6517.57 -1.19437e-13 -39292.3)
(-3817.9 -44272.2 2.73074e-16 -69414.2 9.70729e-17 -18170.4)
(-19716.1 75916 0 3071.45 0 -4129.88)
(-2.315e+06 -740167 1.10214e-14 290519 -3.0394e-15 -502316)
(1.74142e+06 -824540 1.30553e-14 -279499 4.10789e-15 362731)
(-1.12921e+06 97555.2 4.61112e-14 -9294.07 -4.4681e-14 -282487)
(394398 59490.3 2.01204e-14 3870.62 7.76106e-14 98818.4)
(549114 54854.7 -6.46359e-14 5179.63 1.47132e-13 137532)
(157182 79031.3 1.29585e-13 -1219.18 3.85752e-14 38697.6)
(-294336 14244.4 7.50972e-14 -39.4565 -1.15448e-13 -73040.5)
(267006 104803 -6.23263e-14 -1753.08 5.7019e-14 65814.6)
(-135026 62223.2 1.84128e-14 813.452 2.82211e-14 -33300.8)
(-120379 112991 1.31052e-14 4877.51 3.79638e-14 -28658.3)
(-1.90281e+06 -679.272 -6.06134e-15 51277.4 1.43263e-14 -459403)
(15515.7 -26347.2 7.16709e-17 -46011.2 4.44868e-17 -7566.57)
(-669683 104389 -2.77675e-16 8347.43 5.20986e-15 -164091)
(527964 56533.9 4.67895e-14 -3503.76 1.44847e-13 130129)
(1.97098e+06 -381849 1.16158e-15 -51800.6 1.49889e-15 476188)
(-59817.7 61792.9 -1.20105e-14 -10471.7 -9.33391e-14 -17440.2)
(-66982.8 107234 9.52843e-15 -4830.99 9.1123e-14 -17818.5)
(-37937.9 93287.2 -1.63018e-15 95.0237 -1.39484e-13 -9389.59)
(-97439.2 77430 -2.56752e-14 3978.05 3.49621e-14 -23189.6)
(44774.2 91896.4 4.17863e-14 -1688.26 1.07948e-13 10690.5)
(29421.1 93651.1 -9.82517e-14 -140.296 -3.20643e-14 7265.17)
(-1.9745e+06 -379438 4.93313e-15 49973.9 -1.52611e-15 -477513)
(701690 95708.4 -3.78651e-14 2689.21 2.04658e-14 174771)
(-246568 77735 -2.63037e-13 -1034.64 -7.46059e-14 -61435.3)
(833206 81757.4 1.36189e-13 5322.08 -2.30549e-13 208056)
(766165 80897.3 -1.72361e-15 4736.81 -8.85373e-14 191276)
(702006 78530.2 -2.53565e-13 2621.9 3.8223e-14 174832)
(120871 43619 -1.28544e-13 3944.62 -4.80765e-14 30969.3)
(-1.62697e+06 31314.7 6.84091e-14 -4117.33 -6.63193e-14 -404706)
(517707 62135 1.39368e-13 -2972.4 1.50368e-14 127716)
(736282 64771.9 -6.30877e-14 -2985.52 -9.01804e-14 181946)
(-140084 77145.7 -2.22784e-13 -315.52 -3.75479e-14 -34835.9)
(1.03363e+06 104550 1.44084e-14 -13622.2 2.07532e-14 253085)
(200306 59271.5 -9.01433e-14 560.272 6.10407e-14 49838.9)
(-2.06696e+06 21981.9 -2.3041e-14 -2686.34 -8.50469e-15 -513520)
(60681.7 79065.7 -1.16254e-13 1816.24 -9.77687e-14 15507)
(-175998 85007 -2.31148e-13 1252.72 1.09111e-13 -43358)
(598575 63855.6 1.73182e-13 796.786 -2.48952e-14 148716)
(550424 64570.8 1.62055e-13 536.503 3.94305e-14 136705)
(503773 63251.9 -1.17605e-13 -1445.42 3.23824e-14 124638)
(1.07699e+06 44756.9 1.73359e-14 84.8335 3.62926e-14 267244)
(240310 85426.2 -7.80033e-14 3435.49 -1.67088e-13 60478.1)
(-598004 68961.1 5.27527e-14 -9233.63 1.17588e-15 -150668)
(-465181 127396 3.20723e-14 4228.97 3.57228e-14 -114371)
(-262653 50808.1 0 2013.91 0 -64670)
(-835443 95275.3 -7.12969e-14 -9637.63 2.17005e-14 -209682)
(-911473 97663.1 -1.07114e-13 -10677.4 -7.06475e-15 -228804)
(-989149 101025 -1.068e-13 -12040.4 5.14244e-14 -248416)
(474193 63123 2.21462e-15 7754.2 2.74324e-14 119581)
(323640 68130.1 3.47477e-14 5651.44 -4.3489e-14 81703.9)
(82122 5779.06 -1.01016e-13 4206.55 3.6432e-14 21419.9)
(166273 65982.4 0 -1765.37 0 40817.6)
(213281 52846 -1.18301e-13 2138.21 7.059e-14 53449.9)
(2.38769e+06 -119063 -6.20163e-15 -311585 -2.98573e-15 515124)
(927875 43303.6 1.16057e-13 1701.1 -1.19089e-13 230647)
(-712979 86785.5 0 1500.72 0 -176532)
(-498014 78062.8 -5.75428e-14 9747.85 -2.52408e-15 -121149)
(401202 82313.5 3.07659e-14 -4064.92 -3.80403e-14 98537.7)
(-127732 98397.4 5.14212e-14 -2850.08 4.21753e-14 -32400)
(-15340.7 94178.9 1.51767e-13 -3361.06 -1.19541e-13 -4640.29)
(42806.4 66967.2 1.20529e-13 10385.5 -1.90621e-14 13198)
(46694.1 66002.8 -6.29886e-14 11398.1 -5.86221e-14 14413.8)
(-4105.49 120526 -3.15303e-15 -3034.2 -2.58111e-14 -1771.5)
(-11212.5 62211.7 -2.82708e-14 -1053.51 9.50432e-14 -3043.46)
(800.977 72580.6 -1.05989e-13 273.428 7.89586e-14 266.582)
(14439.1 74922.6 1.01304e-13 -14681 -4.60021e-14 -60.0213)
(176893 50968.4 -7.76968e-15 2561.15 -3.65265e-14 44526.3)
(-323063 120570 -1.82297e-15 2094.24 -1.75637e-14 -79638.8)
(105295 75462.8 2.54048e-13 1627.15 -4.99686e-14 26529.5)
(16374.8 116776 1.04605e-14 -19197.1 1.48749e-14 -700.261)
(-687095 119198 -2.61436e-14 -3067.08 -1.56787e-14 -171243)
(881783 53292.5 8.68522e-14 3858.03 7.74113e-14 219746)
(-379593 88468.6 -9.77473e-14 -457.622 3.19658e-14 -94298.2)
(-1.58012e+06 280795 -4.51002e-15 277518 2.69382e-15 -323203)
(-233875 48395.1 6.96442e-14 -1938.02 7.55987e-14 -58509.9)
(-383012 120987 0 3907.12 0 -94063.7)
(114237 76099.1 1.35578e-13 693.092 -1.87213e-13 28516.5)
(178003 69523 7.16765e-15 -455.347 2.32628e-14 44053.2)
(1.73699e+06 -384101 -1.39709e-15 55846.6 2.43871e-16 444840)
(-2.4142e+06 8413.12 -1.92761e-14 14403 8.85749e-15 -595438)
(762792 62049 4.26745e-14 4188.45 3.58366e-14 190303)
(829921 61284 -4.31569e-14 4493.03 9.40087e-14 207035)
(-250762 84181.7 -3.21712e-13 737.047 -1.14832e-13 -62036.3)
(177188 107721 5.64707e-14 11803.9 1.11241e-13 46892.7)
(-38363.9 72040.2 9.05152e-14 -2759.39 1.37685e-13 -10203.5)
(-984031 -639204 -1.19522e-15 73990.7 5.03131e-16 -225800)
(-2.35542e+06 78129.7 6.30948e-15 1814.65 8.15542e-15 -583978)
(2.0869e+06 37376.7 3.42692e-14 3840.26 -1.68688e-14 518756)
(-3.01382e+06 -52809.6 -8.87463e-15 -7925.85 -3.81839e-15 -749757)
(980515 56507.9 -3.91357e-14 -7186.33 -6.07876e-14 241502)