/*--------------------------------*- C++ -*----------------------------------*\
| =========                 |                                                 |
| \\      /  F ield         | OpenFOAM: The Open Source CFD Toolbox           |
|  \\    /   O peration     | Version:  2.3.1                                 |
|   \\  /    A nd           | Web:      www.OpenFOAM.org                      |
|    \\/     M anipulation  |                                                 |
\*---------------------------------------------------------------------------*/
FoamFile
{
    version     2.0;
    format      ascii;
    class       volScalarField;
    location    "0.43";
    object      k;
}
// * * * * * * * * * * * * * * * * * * * * * * * * * * * * * * * * * * * * * //

dimensions      [0 2 -2 0 0 0 0];

internalField   nonuniform List<scalar> 
9648
(
2.70661
2.71772
2.71698
2.71433
2.70871
2.6992
2.68581
2.66871
2.64775
2.62284
2.59401
2.56145
2.52553
2.48677
2.44579
2.40328
2.35995
2.3165
2.27354
2.23159
2.19108
2.15235
2.11568
2.08121
2.04903
2.0192
1.99172
1.96658
1.94374
1.92314
1.90468
1.8883
1.8739
1.86142
1.85075
1.84184
1.83459
1.82896
1.82486
1.82224
1.82107
1.82129
1.82286
1.82577
1.82998
1.83549
1.84231
1.85048
1.86
1.87091
1.88327
1.89711
1.91248
1.9294
1.94789
1.96783
1.98898
2.01086
2.03301
2.055
2.07644
1.73215
1.73747
1.74015
1.74169
1.74415
1.7504
1.76264
1.7824
1.80961
1.84428
1.88627
1.93504
1.98978
2.04949
2.11317
2.17981
2.24847
2.31831
2.38863
2.45883
2.52842
2.59706
2.66448
2.73051
2.79499
2.85794
2.91938
2.97939
3.038
3.09534
3.15154
3.20667
3.26086
3.3142
3.36678
3.41868
3.47
3.52088
3.5713
3.62127
3.67088
3.72025
3.76934
3.81815
3.86676
3.91505
3.96303
4.0108
4.05844
4.10578
4.15281
4.19934
4.24548
4.29085
4.33572
4.37982
4.42336
4.46563
4.50687
4.54713
4.58646
1.41183
1.46154
1.51573
1.57474
1.64079
1.71538
1.79822
1.88912
1.98734
2.09231
2.20282
2.31796
2.4366
2.55756
2.6797
2.8019
2.92325
3.04287
3.16
3.27405
3.38456
3.49129
3.59406
3.69276
3.78742
3.87807
3.96497
4.04823
4.12819
4.20504
4.27893
4.35017
4.41893
4.48538
4.54973
4.61224
4.67302
4.73225
4.79003
4.84646
4.90167
4.95573
5.00878
5.06088
5.11202
5.16221
5.21143
5.25977
5.30708
5.35336
5.3986
5.44283
5.48628
5.52825
5.56966
5.60951
5.64854
5.68565
5.72207
5.75738
5.79163
1.32152
1.41633
1.51989
1.6316
1.75174
1.88055
2.01775
2.16241
2.31325
2.46896
2.62796
2.78889
2.95031
3.11101
3.26973
3.42539
3.57712
3.72411
3.86572
4.00146
4.13112
4.25453
4.37171
4.48273
4.58772
4.68699
4.78083
4.86976
4.95403
5.03402
5.11014
5.18256
5.25173
5.31789
5.38135
5.44247
5.50145
5.5585
5.61375
5.66741
5.71963
5.77056
5.8203
5.86901
5.9167
5.96343
6.00924
6.05416
6.09812
6.14112
6.18329
6.22429
6.26434
6.30324
6.34152
6.3786
6.41453
6.4493
6.48297
6.51558
6.54691
1.34704
1.48076
1.62667
1.78295
1.94872
2.12354
2.30639
2.49568
2.68972
2.88656
3.08432
3.2812
3.47575
3.66665
3.85272
4.03274
4.20593
4.37164
4.52928
4.67874
4.81989
4.95274
5.07746
5.19414
5.30321
5.40512
5.50055
5.58985
5.67362
5.75221
5.82593
5.89548
5.96106
6.02326
6.08234
6.13875
6.19279
6.24454
6.29429
6.34223
6.38855
6.43347
6.47717
6.51976
6.56132
6.6019
6.64155
6.68029
6.71821
6.75509
6.79109
6.8261
6.85997
6.89273
6.92457
6.95555
6.98539
7.01416
7.04178
7.06811
7.09318
1.42666
1.59466
1.77809
1.97413
2.18063
2.39626
2.61927
2.84759
3.07889
3.31069
3.54083
3.76708
3.98812
4.20248
4.40943
4.60752
4.79583
4.97411
5.14176
5.29911
5.44635
5.58331
5.71045
5.82769
5.93587
6.03597
6.1284
6.21433
6.2934
6.36642
6.43416
6.4967
6.55544
6.61041
6.66201
6.71074
6.75697
6.80067
6.84219
6.88185
6.91972
6.95617
6.99141
7.02564
7.05883
7.09112
7.12267
7.15323
7.18307
7.21204
7.24005
7.26708
7.2931
7.31794
7.34182
7.36473
7.38673
7.40775
7.42749
7.44573
7.46284
1.53816
1.73747
1.95542
2.18778
2.43102
2.68317
2.94172
3.20415
3.46785
3.72925
3.98653
4.23654
4.47839
4.71053
4.93338
5.1443
5.34261
5.52859
5.70129
5.86201
6.01111
6.14785
6.2734
6.38695
6.4904
6.58482
6.67119
6.74998
6.82123
6.8854
6.94367
6.99684
7.04563
7.09099
7.13245
7.17078
7.20685
7.23987
7.27089
7.30011
7.32735
7.35319
7.37791
7.4018
7.4245
7.44639
7.46765
7.48812
7.50806
7.52712
7.54534
7.56253
7.57876
7.59373
7.60749
7.62054
7.63285
7.64423
7.65413
7.66237
7.66946
1.66905
1.89696
2.14675
2.41229
2.68865
2.9728
3.26243
3.55469
3.84623
4.1327
4.41262
4.68132
4.93899
5.18326
5.41753
5.637
5.84108
6.03122
6.20493
6.36472
6.51216
6.6446
6.76581
6.87213
6.96694
7.05272
7.12888
7.19834
7.25807
7.31023
7.35746
7.39802
7.43501
7.46828
7.49698
7.52232
7.54543
7.56467
7.58259
7.59925
7.61357
7.62632
7.63811
7.64934
7.65914
7.66849
7.67691
7.68482
7.69228
7.69919
7.70518
7.71022
7.71458
7.71721
7.71866
7.71967
7.71955
7.71951
7.7174
7.71304
7.70814
1.81054
2.06182
2.3405
2.63321
2.94027
3.25105
3.566
3.88563
4.19855
4.50716
4.80455
5.09024
5.35851
5.61015
5.85007
6.07481
6.28158
6.47265
6.6483
6.80405
6.94487
7.07062
7.18351
7.28335
7.36693
7.43954
7.50407
7.56098
7.60617
7.64402
7.67791
7.70627
7.72967
7.74787
7.76053
7.77125
7.77654
7.77889
7.7815
7.78208
7.7806
7.77632
7.77381
7.76985
7.76399
7.75962
7.75121
7.74404
7.73459
7.72545
7.71434
7.70354
7.69337
7.68086
7.66728
7.65411
7.63757
7.62546
7.60836
7.58762
7.56859
2.09703
2.11661
2.13531
2.15311
2.17003
2.18623
2.20193
2.2175
2.23314
2.24785
2.26133
2.27421
2.28661
2.29872
2.31085
2.32361
2.33738
2.35245
2.36918
2.38801
2.40867
2.43073
2.45391
2.47779
2.50207
2.52676
2.552
2.57751
2.6032
2.62914
2.65543
2.68197
2.70876
2.73597
2.76351
2.79138
2.81968
2.84848
2.87773
2.90736
2.93748
2.96818
2.99943
3.03119
3.06359
3.09645
3.12979
3.16375
3.19838
3.23354
3.26928
3.30569
3.34287
3.3806
3.41921
3.45862
3.49913
3.54046
3.58293
3.62668
3.6718
4.6249
4.66125
4.69668
4.73132
4.76495
4.79711
4.82733
4.85627
4.88291
4.90878
4.9329
4.95598
4.97795
4.99888
5.01869
5.03723
5.05462
5.07081
5.08584
5.09968
5.1124
5.12403
5.13444
5.14368
5.1518
5.15874
5.1644
5.16852
5.17119
5.17239
5.17211
5.17041
5.16733
5.16286
5.15702
5.14991
5.14147
5.13182
5.12091
5.10877
5.09546
5.08102
5.06554
5.04895
5.03126
5.01238
4.99223
4.97087
4.94821
4.92429
4.89908
4.87251
4.84473
4.81528
4.7849
4.75297
4.72013
4.68589
4.6513
4.61621
4.58079
5.82423
5.85571
5.8856
5.91455
5.94246
5.96977
5.99521
6.01937
6.0413
6.06194
6.08089
6.09858
6.11484
6.13005
6.14397
6.15654
6.16778
6.17765
6.18616
6.19329
6.19911
6.20359
6.20674
6.20857
6.20906
6.20819
6.20599
6.20243
6.19746
6.19102
6.18316
6.1738
6.16298
6.15073
6.13706
6.12201
6.10556
6.08773
6.06853
6.04801
6.02623
6.00328
5.97922
5.95407
5.92781
5.90037
5.87162
5.8415
5.80997
5.77702
5.74264
5.70656
5.66891
5.62953
5.58863
5.54592
5.50161
5.45596
5.40942
5.36208
5.31405
6.57723
6.60626
6.63404
6.66025
6.68521
6.70896
6.73126
6.75202
6.77107
6.78848
6.80423
6.8184
6.83102
6.84214
6.85166
6.85973
6.86631
6.87138
6.8749
6.87689
6.87739
6.87647
6.87415
6.87047
6.86535
6.85876
6.8507
6.8412
6.83028
6.81791
6.80403
6.78858
6.77158
6.75304
6.73304
6.71156
6.68859
6.66409
6.63807
6.6106
6.5818
6.55177
6.5207
6.48867
6.45572
6.42179
6.38668
6.35034
6.3127
6.27376
6.2334
6.19148
6.14797
6.10278
6.05585
6.007
5.95642
5.9044
5.85142
5.79751
5.74308
7.11697
7.1396
7.1608
7.18042
7.19836
7.21472
7.22946
7.24253
7.25423
7.26458
7.27338
7.28068
7.28647
7.29068
7.29334
7.29456
7.29419
7.29224
7.28864
7.2834
7.27663
7.26846
7.25898
7.24823
7.23613
7.22263
7.20774
7.19151
7.17404
7.15533
7.1353
7.11379
7.09077
7.06626
7.0404
7.01312
6.98434
6.95404
6.9221
6.8886
6.85371
6.81756
6.78045
6.7426
6.70416
6.66513
6.62517
6.58427
6.54234
6.49951
6.45542
6.40986
6.36294
6.31438
6.26409
6.21163
6.15744
6.10163
6.0449
5.98719
5.92907
7.47862
7.49311
7.50603
7.51749
7.52721
7.5352
7.54157
7.5462
7.54915
7.55054
7.55055
7.54916
7.54628
7.54183
7.53582
7.52842
7.51958
7.50909
7.49682
7.48271
7.46701
7.44994
7.43168
7.41236
7.39182
7.36992
7.34671
7.32228
7.29693
7.27075
7.24374
7.21546
7.18592
7.15501
7.12305
7.08983
7.05516
7.01905
6.98125
6.94178
6.90081
6.85841
6.81506
6.7712
6.72712
6.68313
6.63843
6.59341
6.5477
6.50184
6.45504
6.40681
6.35763
6.30695
6.25481
6.20011
6.14373
6.08548
6.02678
5.96691
5.90673
7.67535
7.67998
7.68306
7.68458
7.68436
7.68237
7.67859
7.67319
7.66608
7.65711
7.64675
7.63525
7.62232
7.60784
7.59171
7.57446
7.55617
7.53621
7.51428
7.49013
7.46418
7.43697
7.40865
7.37965
7.34968
7.31829
7.28559
7.25152
7.21689
7.18207
7.14747
7.11195
7.07583
7.03856
7.0009
6.96233
6.92209
6.88057
6.83748
6.79275
6.74631
6.69801
6.64857
6.59867
6.5488
6.50009
6.45056
6.40175
6.35251
6.30468
6.25652
6.20658
6.15633
6.10468
6.05228
5.99631
5.93922
5.87965
5.82085
5.76038
5.70001
7.70185
7.69468
7.68585
7.6759
7.66423
7.65114
7.63593
7.62012
7.60275
7.58265
7.56118
7.53921
7.51568
7.49074
7.46348
7.43546
7.40778
7.37874
7.34767
7.31329
7.27629
7.23855
7.19957
7.16013
7.12069
7.07978
7.03743
6.9925
6.94677
6.90161
6.85896
6.81575
6.77352
6.73049
6.68872
6.64694
6.60223
6.55558
6.5082
6.4602
6.40999
6.35701
6.30247
6.24709
6.19153
6.13897
6.08443
6.03229
5.97946
5.93112
5.88372
5.83313
5.78312
5.73185
5.68113
5.62478
5.56857
5.50856
5.45186
5.39267
5.33456
7.54623
7.52479
7.49982
7.47618
7.44959
7.42538
7.39671
7.37101
7.34517
7.31611
7.28501
7.25455
7.22129
7.18783
7.14918
7.1083
7.07146
7.03579
7.00015
6.95966
6.91071
6.8642
6.81595
6.76539
6.71674
6.66792
6.61991
6.56594
6.50626
6.44801
6.3963
6.34426
6.29586
6.24774
6.20595
6.16621
6.12039
6.06832
6.0172
5.96921
5.91994
5.86489
5.80651
5.74791
5.68793
5.63345
5.57313
5.51806
5.46049
5.41444
5.37077
5.32014
5.27238
5.22391
5.17752
5.12142
5.06775
5.00759
4.95524
4.89957
4.84696
3.71828
3.76577
3.81454
3.86461
3.91601
3.96887
4.02312
4.07892
4.13599
4.1943
4.25395
4.31466
4.37618
4.44092
4.52005
4.59422
4.66644
4.73937
4.81307
4.88765
4.96316
5.03963
5.11694
5.19505
5.27374
5.35278
5.43206
5.51139
5.59056
5.66924
5.74735
5.82456
5.90047
5.97488
6.04743
6.11756
6.18482
6.24881
6.30579
6.34765
6.37641
6.39287
6.39704
6.38826
6.36555
6.32752
6.27232
6.19767
6.1009
5.97888
5.82787
5.64346
5.42069
5.15237
4.84519
4.26915
3.9991
3.85659
3.79832
3.77319
3.72799
4.54472
4.50832
4.47115
4.43333
4.39489
4.35654
4.31805
4.28019
4.24248
4.20531
4.16941
4.12908
4.08464
4.04266
3.99598
3.95053
3.90528
3.85994
3.81499
3.7707
3.7271
3.6839
3.64102
3.59838
3.55591
3.51362
3.47152
3.42969
3.38816
3.34699
3.30628
3.26616
3.22674
3.18824
3.1509
3.11501
3.08097
3.04938
3.02065
2.99691
2.97531
2.95594
2.93909
2.92531
2.91551
2.91058
2.9115
2.91957
2.93621
2.9627
3.00025
3.05
3.11303
3.19262
3.27552
3.40436
3.56857
3.82658
4.19348
4.67748
5.06237
5.26555
5.21654
5.16676
5.11592
5.06401
5.01158
4.95894
4.90658
4.85413
4.80152
4.74641
4.68322
4.6201
4.56043
4.501
4.44222
4.38283
4.32276
4.26235
4.20204
4.14188
4.08162
4.02122
3.96065
3.8998
3.83868
3.77727
3.71556
3.65349
3.59108
3.52828
3.46512
3.40164
3.33786
3.27386
3.20974
3.1456
3.08155
3.01775
2.95443
2.89154
2.82875
2.76648
2.70561
2.64645
2.58952
2.53564
2.48599
2.44213
2.40614
2.38067
2.36915
2.37609
2.40714
2.46461
2.56035
2.69628
2.90215
3.22048
3.70106
4.32357
5.68827
5.6334
5.57789
5.52139
5.46353
5.40511
5.34652
5.28841
5.2302
5.17132
5.10653
5.03547
4.96657
4.90135
4.83734
4.77418
4.71072
4.64707
4.5833
4.51976
4.45635
4.39263
4.32872
4.26465
4.20031
4.13574
4.07089
4.00574
3.94017
3.87415
3.80765
3.74068
3.67327
3.60546
3.53732
3.46892
3.40032
3.33158
3.2627
3.19371
3.12457
3.05521
2.98509
2.91395
2.84253
2.77091
2.69934
2.62821
2.55817
2.49024
2.42577
2.36684
2.31624
2.27767
2.25457
2.2528
2.27989
2.35272
2.49946
2.76138
3.17458
5.87055
5.81241
5.75386
5.69443
5.63316
5.57129
5.50916
5.4479
5.38644
5.32405
5.25418
5.18033
5.10949
5.04237
4.97648
4.91148
4.84639
4.78192
4.71782
4.65435
4.59109
4.52725
4.46329
4.3993
4.33502
4.27061
4.20592
4.14095
4.07547
4.00948
3.94295
3.87599
3.80863
3.74101
3.67317
3.60525
3.53731
3.46942
3.40157
3.33378
3.26605
3.1984
3.13071
3.06249
2.99341
2.92364
2.85324
2.78227
2.71088
2.63938
2.56815
2.49777
2.42915
2.36348
2.30216
2.24781
2.20601
2.18703
2.20707
2.29024
2.46755
5.84581
5.78605
5.72619
5.66571
5.60243
5.53853
5.47401
5.41109
5.34809
5.28452
5.21268
5.13893
5.0685
5.00223
4.93661
4.8719
4.80697
4.7437
4.68132
4.62009
4.55919
4.49717
4.43535
4.37387
4.31202
4.25021
4.18799
4.12555
4.06236
3.99863
3.93425
3.86959
3.80465
3.73971
3.67477
3.61001
3.5455
3.48135
3.41751
3.35408
3.29104
3.22848
3.16638
3.10461
3.04275
2.98025
2.91712
2.85341
2.78918
2.7245
2.65947
2.59413
2.52849
2.46252
2.39605
2.32951
2.26502
2.2076
2.16581
2.15263
2.18661
5.63762
5.57768
5.51804
5.45863
5.39441
5.32979
5.26374
5.20081
5.13799
5.07584
5.00395
4.93229
4.86387
4.80084
4.73729
4.67495
4.6116
4.55144
4.49241
4.43509
4.37814
4.31898
4.26096
4.20417
4.14663
4.08933
4.03116
3.97302
3.91356
3.85361
3.79277
3.73214
3.67142
3.61123
3.55118
3.49177
3.43278
3.37458
3.317
3.26032
3.2044
3.14947
3.09546
3.04233
2.98985
2.9377
2.88502
2.83181
2.77821
2.72437
2.67034
2.61611
2.56153
2.50617
2.4494
2.39057
2.32966
2.2682
2.20974
2.16046
2.13001
5.27144
5.21236
5.15457
5.09886
5.03504
4.97135
4.90455
4.84356
4.78291
4.72494
4.65429
4.58599
4.52047
4.46282
4.40245
4.34438
4.28352
4.22813
4.17374
4.1212
4.06912
4.01294
3.95979
3.91008
3.85824
3.80647
3.75287
3.7002
3.6449
3.58938
3.5325
3.47724
3.42194
3.36824
3.31452
3.26208
3.20987
3.15915
3.1094
3.06139
3.01444
2.96916
2.92534
2.88265
2.84097
2.80033
2.75963
2.71833
2.67691
2.6356
2.59472
2.55423
2.51401
2.47354
2.43211
2.38878
2.34274
2.29375
2.2426
2.19148
2.14456
4.78407
4.72556
4.67171
4.62262
4.56082
4.49953
4.43239
4.37604
4.32007
4.26878
4.20046
4.13598
4.07322
4.02292
3.96595
3.914
3.85586
3.807
3.75807
3.70959
3.66235
3.60811
3.56077
3.52211
3.47628
3.42866
3.37867
3.33243
3.28006
3.22846
3.17436
3.12619
3.07671
3.03112
2.98403
2.93947
2.89328
2.85067
2.80963
2.77183
2.73525
2.70081
2.66841
2.63724
2.60611
2.57557
2.5454
2.51443
2.48501
2.45587
2.42957
2.40428
2.38085
2.3575
2.33415
2.30944
2.2827
2.25285
2.21987
2.18338
2.14472
3.63661
3.53393
3.42232
3.30238
3.17988
3.05835
2.94061
2.83019
2.73038
2.64341
2.5703
2.51109
2.46492
2.43028
2.40534
2.38821
2.3771
2.37065
2.36777
2.36755
2.36937
2.37276
2.37744
2.38321
2.39005
2.39782
2.4065
2.41607
2.42652
2.43782
2.44991
2.46273
2.47621
2.49019
2.50454
2.51907
2.53358
2.54785
2.56163
2.57473
2.58688
2.59787
2.60755
2.61583
2.62271
2.6283
2.63277
2.63636
2.6394
2.64233
2.64549
2.64918
2.65361
2.65899
2.66521
2.67214
2.67946
2.68693
2.69406
2.70029
2.70502
5.06665
5.00037
4.88707
4.71774
4.5274
4.31874
4.09045
3.84803
3.60035
3.35563
3.12044
2.90157
2.70322
2.52704
2.37357
2.24426
2.13863
2.05373
1.98616
1.93306
1.8918
1.86007
1.83598
1.81769
1.80466
1.7956
1.79022
1.78809
1.78891
1.79246
1.79855
1.80694
1.8174
1.82964
1.84332
1.85805
1.87338
1.88891
1.90408
1.9183
1.93088
1.9411
1.94811
1.95098
1.94896
1.94144
1.92803
1.90883
1.88449
1.85633
1.82615
1.79616
1.76872
1.74583
1.72872
1.71807
1.71347
1.71404
1.71816
1.72412
1.72939
4.83882
5.21276
5.42888
5.46314
5.3387
5.14833
4.89559
4.60055
4.28292
3.95454
3.62737
3.31362
3.02103
2.75525
2.51986
2.3166
2.14428
1.99878
1.87734
1.77896
1.70107
1.64063
1.59439
1.55958
1.53341
1.51437
1.50097
1.49231
1.48764
1.48639
1.48808
1.4923
1.49859
1.50641
1.51528
1.5247
1.53415
1.54311
1.551
1.55721
1.56112
1.56214
1.5597
1.55327
1.54237
1.52662
1.50574
1.47974
1.44894
1.41414
1.37683
1.33931
1.30454
1.27571
1.25564
1.24671
1.24987
1.26507
1.29108
1.32594
1.36703
3.69874
4.28424
4.8534
5.30935
5.55015
5.60883
5.50252
5.26214
4.95072
4.59177
4.21021
3.83279
3.4719
3.13896
2.84011
2.57583
2.3437
2.14244
1.97085
1.82816
1.71234
1.62102
1.55075
1.49783
1.45842
1.42972
1.40955
1.39628
1.38863
1.38557
1.38637
1.3904
1.39698
1.40536
1.41483
1.42469
1.43426
1.44284
1.44968
1.45405
1.45518
1.4524
1.44506
1.43264
1.41469
1.39103
1.36166
1.32684
1.28704
1.2431
1.19635
1.14895
1.10393
1.06524
1.03751
1.0254
1.03178
1.0575
1.10156
1.16202
1.2363
2.75951
3.17733
3.70912
4.30242
4.85624
5.28978
5.54812
5.60315
5.48494
5.22555
4.86715
4.47464
4.06914
3.67518
3.311
2.97978
2.68348
2.42073
2.19329
2.00123
1.84266
1.71583
1.61734
1.5425
1.4864
1.44503
1.41546
1.39546
1.38316
1.37701
1.37601
1.37938
1.38624
1.39565
1.40672
1.41859
1.43043
1.44139
1.4506
1.45717
1.46017
1.4588
1.4523
1.44
1.42132
1.39603
1.36407
1.32572
1.28135
1.23178
1.17819
1.12258
1.06786
1.0181
0.979141
0.957929
0.959923
0.988605
1.04463
1.12573
1.2278
2.28942
2.48479
2.79254
3.21854
3.73669
4.29337
4.81326
5.21394
5.44308
5.48527
5.35202
5.085
4.72039
4.30878
3.90192
3.50949
3.14791
2.82068
2.5263
2.27115
2.05829
1.88697
1.7534
1.65133
1.57403
1.51606
1.47368
1.44404
1.42467
1.41334
1.4087
1.40982
1.41567
1.42509
1.43701
1.45042
1.46434
1.4778
1.48981
1.49934
1.50534
1.50695
1.50323
1.49346
1.47685
1.45311
1.42206
1.38394
1.33895
1.28782
1.23156
1.17203
1.11194
1.05515
1.00771
0.977387
0.971614
0.997269
1.05821
1.15337
1.27798
2.13189
2.18367
2.30586
2.51873
2.8345
3.25042
3.74019
4.2514
4.71653
5.06921
5.26195
5.28151
5.14393
4.87995
4.53436
4.13489
3.73171
3.34689
2.9776
2.6459
2.36253
2.13208
1.95206
1.81341
1.70746
1.62664
1.56628
1.52284
1.49317
1.47392
1.46326
1.46003
1.46306
1.4709
1.4823
1.49606
1.51105
1.52615
1.54026
1.55221
1.56086
1.56531
1.56451
1.5577
1.54384
1.52266
1.49381
1.45759
1.41398
1.36374
1.3077
1.2477
1.18625
1.1269
1.07579
1.04018
1.02858
1.05067
1.11382
1.21947
1.36324
2.10867
2.09377
2.11339
2.18424
2.32399
2.5475
2.86141
3.25646
3.7051
4.15932
4.56015
4.85485
5.01266
5.02038
4.89123
4.6478
4.32615
3.95498
3.53743
3.13211
2.76463
2.45856
2.21921
2.0336
1.88983
1.77799
1.69226
1.62898
1.58472
1.55408
1.53457
1.52446
1.52254
1.527
1.53629
1.54899
1.56379
1.57942
1.59459
1.60803
1.61853
1.62519
1.62688
1.62287
1.61182
1.59348
1.56738
1.53381
1.49263
1.44459
1.39047
1.33204
1.27158
1.21276
1.16115
1.12367
1.10947
1.12971
1.19507
1.3098
1.47046
2.10663
2.07351
2.05295
2.05498
2.09247
2.18013
2.33213
2.55832
2.85899
3.22293
3.61694
4.00543
4.34517
4.6002
4.73933
4.75256
4.64124
4.41119
4.09678
3.69565
3.25708
2.87433
2.57102
2.3302
2.13568
1.98057
1.85886
1.76829
1.70366
1.65666
1.62462
1.60431
1.59464
1.59352
1.59882
1.60886
1.6221
1.63701
1.65213
1.66582
1.67733
1.6853
1.68893
1.68725
1.67896
1.66341
1.64058
1.60986
1.57183
1.52663
1.47565
1.42016
1.3625
1.30642
1.25656
1.21977
1.20554
1.22648
1.29438
1.41712
1.59109
0.320434
6.84956
6.55045
0.218676
0.391445
0.12785
0.0031601
2.39924
0.0033854
0.0234216
3.32
1.07383
0.0031617
6.05387
0.112101
5.44971
0.00326247
2.49848
3.62153
0.00315706
0.217992
5.87567
6.57683
0.00329523
0.00333884
0.105869
0.00315904
0.529749
0.00324884
0.00345842
0.750735
0.00324691
0.0163163
2.47726
0.788541
3.39369
2.52818
1.55193
0.00316332
2.62161
1.93469
2.19216
0.00321067
4.72611
3.1263
0.283321
0.003609
0.0154092
0.123282
1.09619
6.66886
8.01276
0.00311042
0.00405224
0.0376873
0.00837605
0.00344949
0.710481
2.40182
7.73033
2.51245
0.00370667
0.144593
0.0323799
6.79002
0.447915
1.97027
1.72915
0.00430896
0.0032133
1.21974
2.5082
1.76439
0.0139972
0.0397901
4.02982
7.15516
3.20643
0.00311111
0.934608
0.00714288
2.61515
0.0106421
4.7577
0.0032181
1.05843
0.00336843
2.19507
0.0148326
0.00492676
0.121089
0.00310751
0.00378613
7.89506
5.69966
0.00359636
0.440881
0.318214
0.00603349
6.72856
0.209694
2.54772
0.735108
0.00310452
0.00316388
0.00310143
0.30542
0.125495
0.00323821
6.25949
6.91931
0.00928148
4.52842
1.49479
2.56897
2.70608
1.77525
0.00389752
0.0863112
0.00417882
0.0043127
3.38446
0.00728854
7.52187
7.92685
0.988018
0.00321569
1.01331
1.02378
0.00321137
0.0341934
0.0339759
1.75547
0.00567034
3.02497
0.00322121
0.00315907
7.89201
8.07757
0.00323263
0.172443
5.8128
0.10525
0.30338
1.55048
4.78021
0.0379514
1.63952
0.0121367
7.22324
1.19829
0.00883024
2.75499
4.69477
6.51625
0.00330261
0.00326863
0.218198
0.00312921
1.94056
0.0303398
0.00510183
0.00319642
0.00322084
0.00323682
2.7788
1.78477
1.60693
0.00331614
6.84312
4.7738
3.1797
4.88383
0.0139676
3.63932
1.64964
1.8876
0.00324362
0.0057071
2.92594
3.06918
2.25515
3.85067
0.00321763
0.00352251
4.84799
0.0365579
0.567996
0.00323864
0.00360578
0.105285
0.00338619
8.02909
0.671935
0.00312255
0.256861
1.84264
5.63813
0.00447857
1.91906
0.00321998
0.00323597
4.8994
2.37828
7.43754
0.00452268
0.00339972
0.00762864
2.74476
2.20087
1.07083
5.28346
1.5821
7.03028
0.192712
4.28519
4.14812
2.14106
1.35033
2.29843
0.00487889
0.0371916
0.0032276
0.00320342
1.81298
0.0183806
0.0204293
0.00570478
0.0131083
2.7126
4.61519
0.0189201
6.22208
1.06886
0.406457
0.00318315
0.171992
2.73005
1.02045
0.00412877
1.20258
1.15045
0.18521
0.236979
7.39545
0.784679
0.504864
5.17002
0.00383252
0.00316051
0.00404638
0.0104727
1.74095
0.003358
0.00650243
0.00316315
0.383089
4.03271
3.97115
2.74211
1.23759
1.42263
7.84956
0.00433023
2.06923
4.50768
0.00321104
1.93443
0.00321754
4.04872
0.381482
1.51799
0.00535763
0.00322132
1.86053
0.521649
0.00323903
0.00323991
0.0032543
0.00324505
0.361283
1.6456
2.94395
0.0147499
0.00324067
0.00316301
0.00310258
4.69908
0.244558
0.00448442
1.66957
0.0884329
0.0413188
0.00309697
0.264535
0.00323977
0.0526142
1.50952
4.6667
0.280297
0.00391216
0.00598112
3.19652
0.144209
1.99093
7.77437
0.00350545
0.00319809
0.00318725
5.82685
0.0033161
4.77852
0.00322248
1.9767
1.15829
0.027162
2.87409
3.95003
0.00469363
2.72401
2.69259
1.69404
4.67859
1.13526
8.08329
2.4475
3.9253
3.60751
4.50498
1.75572
0.159468
7.98814
7.50545
3.00602
2.11887
0.00393818
7.10655
2.68489
6.92415
0.0276762
0.00359558
0.0032157
0.00343076
0.178015
0.423263
0.746724
0.0931949
0.00317248
6.20287
0.00321629
1.44388
1.92018
6.46831
2.66949
1.79725
0.00597809
0.0042619
0.0885812
2.76203
0.010422
0.754533
5.16277
2.04507
4.08993
6.43458
3.31136
0.00346193
7.49141
5.68322
1.79042
0.00323751
6.65105
5.8813
0.00333858
1.96402
0.00324143
6.89907
5.60652
1.86201
4.1402
2.46259
5.78613
0.00328796
5.75969
0.00387476
3.63635
3.94545
1.90111
7.46315
0.718756
0.214604
0.548505
0.00424437
4.29867
0.142779
0.00815255
0.00504866
4.43917
0.00384226
4.30754
0.00319014
0.00323779
0.00598994
1.81341
0.106986
1.82059
0.00570167
4.21065
0.165182
7.00429
4.36036
2.62552
6.26125
0.00337862
7.45603
2.85109
0.00321396
3.87346
2.03343
0.00310601
0.00316718
3.36889
0.00647242
2.03044
0.0882646
2.31823
0.0269697
0.597628
2.65366
4.96286
2.38378
4.09167
3.73602
0.00393713
0.0217194
1.67718
1.83638
7.75744
6.51312
5.6237
0.066627
5.23002
5.20877
0.495709
1.77172
2.88754
2.04937
0.00347133
4.07519
8.07226
0.00416998
4.41428
1.85285
2.91823
0.0244228
0.0690914
6.22522
0.00598296
7.75588
0.00462716
0.267773
0.00320345
0.976163
2.34321
0.232275
0.00480847
0.00369338
2.67392
1.59778
0.0847749
0.416955
5.875
4.09087
0.0044731
1.43526
1.64075
3.22229
1.49269
4.20075
1.94783
5.38089
3.18613
0.48864
0.98974
7.61732
1.96107
7.89044
6.15668
0.0294182
3.33179
2.84064
0.00337213
1.83975
1.58645
1.30074
0.0173597
4.80297
1.50289
0.684195
1.96254
0.00544374
0.00321608
0.0419619
2.37834
4.76311
2.5842
0.00322207
0.0031871
0.00321835
1.70538
0.0278362
0.00321737
0.125956
4.49664
4.94292
0.0106252
0.0108489
0.00315507
0.00320509
0.00600206
1.75362
1.79157
1.79953
0.457172
7.85166
5.92827
0.00525147
3.49242
1.82864
1.93201
3.98416
7.62885
0.00345628
0.0105735
0.00324202
3.86658
0.243505
0.00316834
1.35573
0.163847
7.68027
0.00323871
7.99575
1.12064
0.0491625
6.65182
0.00323541
0.00319757
0.00404561
7.99119
3.19691
5.37385
5.01767
1.04982
1.75281
0.00312759
0.00605339
0.088386
0.0135244
0.0253051
2.01201
2.13882
0.00322735
1.31865
1.82374
6.47101
7.98168
0.00829187
7.94178
0.00593534
0.0305912
3.51308
0.00320435
5.6208
0.00324167
0.00337191
0.0223016
2.11701
0.626483
2.58492
1.93321
0.0036569
1.75672
4.63239
0.0531963
0.213465
0.809081
0.00332004
0.00327174
0.00692848
5.37693
0.555404
0.00335278
7.60115
5.96207
6.87516
0.0318579
2.02541
0.00419899
2.35429
0.174408
0.0924042
2.65969
1.65874
1.94949
6.19807
0.00327598
0.00313323
0.0105755
4.12426
4.78157
0.969158
0.0140047
0.00333269
0.00324255
0.00888497
0.0248447
0.00664242
2.17351
1.7506
0.0115545
1.5518
6.23848
0.00327254
2.37997
0.00321744
0.547078
0.00324488
0.0223012
2.57411
0.0202217
0.00320652
0.762645
8.11239
7.41189
0.00318721
0.00326417
0.386425
0.0255113
0.00321769
4.58233
0.00370609
1.66438
8.08795
2.33283
1.73742
2.47761
3.6757
7.7757
0.00323286
0.0074338
0.0148033
4.23173
1.48273
6.77184
0.70927
0.36853
4.30093
3.55858
5.38967
0.744411
2.95198
0.00322376
0.35703
1.64236
2.47577
3.96586
2.10798
0.239821
2.47845
0.102788
0.00923102
1.71363
0.00324341
5.77941
0.00366131
0.388311
7.55386
2.75708
0.557005
0.00743478
0.760454
0.00330255
0.00319248
0.109069
0.0227607
1.75958
0.0155482
1.73462
0.00322218
0.028278
0.00316527
4.51947
0.00504908
4.1114
2.54197
0.0223231
1.96795
7.72791
0.00326265
1.76647
4.37617
0.00335304
7.51245
0.0612039
0.00347663
0.00339523
7.51434
0.00317847
0.00429366
0.0881404
0.101155
7.30017
7.42591
0.00322133
0.00326676
1.1385
2.25932
0.0147417
0.230108
1.98908
0.00321934
0.0038444
0.00372393
6.10297
7.39045
0.492568
7.33422
0.0264304
1.58531
0.0033197
0.0149142
0.0252057
0.0365144
0.00323284
6.95335
0.00320157
0.02525
0.00331846
0.248737
0.0228648
0.0145484
0.460735
0.673647
2.27651
0.418882
1.05049
1.81532
5.03593
0.00344149
4.83134
7.93924
1.12224
3.97752
0.00327674
4.33529
4.10394
0.00321852
7.61113
2.30977
0.00808
0.0102064
5.88424
5.65645
0.0600087
7.80774
7.5275
0.793707
7.51047
7.56264
4.87832
1.92038
1.81402
1.00413
7.49012
7.79073
0.0222822
7.61592
2.76603
4.3762
0.00343111
0.337052
0.395214
6.8643
6.12544
0.0203863
4.27611
6.45775
0.479377
0.0338068
0.391118
1.80666
0.0053732
1.8433
7.11046
0.0339277
6.81507
1.38829
4.46551
6.47263
0.00322454
0.00564946
1.04622
0.694124
0.0182462
0.00321978
0.194811
0.268253
0.00451871
0.00323654
4.2146
0.976069
3.1796
1.00445
0.00868812
0.00417699
0.0936919
3.37407
0.00346773
1.83344
1.65935
0.480136
2.3485
0.00398048
0.120046
0.0032035
0.348503
4.28778
0.00429774
0.11921
2.09824
6.02517
0.226446
3.93042
0.600745
0.172339
0.00392678
2.37458
8.01449
0.00321333
0.00328066
5.74797
0.0247313
0.00323573
3.84878
0.221001
1.97319
1.9994
1.51784
0.146997
1.7018
3.50511
6.11132
4.35053
0.00327936
5.57314
0.00388991
2.57691
0.0033952
0.0045142
2.10394
0.00655137
3.88366
0.020761
0.0401393
1.88476
0.739188
0.0629187
0.00368325
6.48743
0.00365287
0.00315157
8.06356
6.02266
2.76876
1.91747
0.00343896
0.00308336
1.84386
5.75403
0.00319655
6.90005
1.72071
0.00324601
5.98992
0.00311863
0.368945
0.901812
1.34741
0.356809
1.63932
1.94244
0.00311513
7.49443
7.61519
0.00321845
0.0168331
1.91856
0.00313131
7.04353
5.43484
4.41024
0.00322065
0.0031702
3.45697
0.0413781
0.00349946
1.83249
1.766
4.13577
0.00315264
0.00337403
0.0245283
0.0195021
0.00321926
0.00640519
5.16442
2.87658
0.00322474
1.34012
0.0032159
0.737047
0.0042028
0.00359507
2.2176
0.00326719
0.129038
0.00317604
3.08023
0.182494
1.73981
6.28703
4.38701
3.60661
0.806287
1.22379
0.00323554
0.92992
7.48056
4.08345
0.107917
0.00347441
5.3443
0.00321642
0.0304629
0.00315442
7.35966
0.808378
0.382231
6.69841
2.2389
0.503304
4.12059
0.73481
6.82966
4.46765
0.00331572
0.0032705
0.00824291
0.00323096
0.0230805
4.6876
0.00377134
7.41724
0.00602482
0.0775567
0.575966
4.66887
0.00486379
2.74138
0.0169636
3.34219
2.37554
7.1211
0.00339341
0.00383543
0.257795
3.6058
1.68582
3.61344
0.418513
1.04774
1.72298
0.0508513
1.13122
0.256512
1.6747
0.00328089
4.3517
0.418079
3.06856
0.00336346
2.97936
1.01824
0.00455529
1.6865
1.76814
0.0665873
0.00314784
0.00322073
4.82866
2.74863
1.35176
0.0032073
0.0177838
1.98636
6.33529
0.453692
0.0127424
0.00322439
5.81574
5.40391
2.07282
2.59417
0.00321615
3.47808
7.65501
0.00321143
0.00321837
1.25875
0.00409029
0.00993516
0.0285918
1.97798
0.00409739
2.20577
7.87437
0.00320255
0.00345595
0.00316686
0.00330754
3.6951
4.65032
8.0396
0.0292448
2.38862
2.19211
0.0874562
2.88579
0.00347503
1.67911
0.222567
2.06835
0.681335
1.69903
3.0571
0.0262118
0.00323942
5.93632
4.45889
4.63344
0.902081
1.75495
0.175102
1.68755
0.0093056
0.00485116
3.35959
5.64582
0.0216567
0.116967
0.00324837
0.0790587
1.87281
0.0278712
1.05202
0.707388
3.81845
2.12667
0.436406
6.92546
5.42217
2.9484
1.61082
4.14669
3.53958
0.557758
2.60747
0.00605159
2.73996
2.8846
0.00320457
0.00313571
0.129451
0.00322954
0.00332532
3.01246
4.36688
0.0032215
3.23255
0.0032174
0.00319317
0.00321628
0.00325867
0.00594373
1.92283
2.9243
7.2041
0.00315797
0.00390097
0.945653
0.00356106
0.033119
0.0032458
0.00361061
4.32826
0.00391976
0.0110488
2.8337
0.0105207
0.00322075
3.87676
0.00321598
0.00327028
0.24817
0.00360625
0.942354
0.00456253
0.0306734
0.00320468
0.00325208
7.70715
7.86185
2.85419
0.0268471
2.8909
1.53641
0.0047186
1.75668
4.17808
6.98102
4.59005
0.00313044
2.05913
2.53774
0.148021
1.73035
4.47985
0.174481
2.04003
0.214832
1.70797
0.0366763
1.00998
0.00323509
7.06455
0.00328781
1.78649
2.43125
0.00321596
0.315339
0.00735281
0.0195821
0.00317387
0.766613
0.00367282
0.00321893
2.51744
0.00906418
0.11165
6.91997
1.95715
0.00345228
0.00387044
2.35602
7.37379
0.00310008
0.00324963
0.0734423
1.39204
5.52414
0.00657931
1.61778
0.00322024
0.00345068
0.00314778
0.035328
1.03071
0.0101422
6.56224
1.79001
7.3501
6.23591
0.00352586
7.52936
3.6866
0.00317892
0.00322638
0.0032182
0.00439866
0.00320401
3.74277
0.00320853
0.00324316
6.80589
0.322932
0.00780383
0.0220456
1.93534
0.906022
0.00813584
0.00346491
6.40001
0.00324551
0.779965
0.00325873
0.00353199
6.05635
6.15227
0.00877462
0.00350558
0.329617
0.00320716
6.87538
0.00325223
5.89741
0.0255735
0.751656
0.0333168
0.384123
0.363517
1.54357
0.00324311
0.00357474
0.0116632
3.48222
0.125483
7.67042
0.00322183
0.00457334
0.00557636
7.32137
2.77767
3.09614
0.00693127
0.00898224
0.213077
0.0032245
1.29086
2.42854
0.0171591
5.91122
6.1706
1.96816
0.00535098
0.387253
2.87168
7.07114
1.79222
0.0188398
3.03841
0.060626
5.51675
0.0929141
0.520204
2.81617
0.00324369
1.75377
0.0045542
0.011951
0.00799839
0.0506636
0.00371139
1.26825
0.00322735
3.09437
0.0962569
0.00361188
0.238073
0.00323207
0.286726
0.119336
2.30272
0.475597
4.64618
0.243031
0.0032179
0.00319059
0.736674
0.0939562
2.82393
7.37704
0.00322514
3.80396
2.64291
0.023415
2.05403
0.566388
2.34505
2.14116
0.0335675
0.00591122
7.35084
1.58552
5.85136