/*--------------------------------*- C++ -*----------------------------------*\
| =========                 |                                                 |
| \\      /  F ield         | OpenFOAM: The Open Source CFD Toolbox           |
|  \\    /   O peration     | Version:  2.3.1                                 |
|   \\  /    A nd           | Web:      www.OpenFOAM.org                      |
|    \\/     M anipulation  |                                                 |
\*---------------------------------------------------------------------------*/
FoamFile
{
    version     2.0;
    format      ascii;
    class       volScalarField;
    location    "0.3";
    object      p;
}
// * * * * * * * * * * * * * * * * * * * * * * * * * * * * * * * * * * * * * //

dimensions      [0 2 -2 0 0 0 0];

internalField   nonuniform List<scalar> 
768
(
-0.0248248
-0.0202317
-0.0143578
-0.00880199
-0.00401898
-6.00977e-05
0.0026171
0.00384567
0.00390164
0.0034819
0.00256376
0.00151293
-0.0219431
-0.0178732
-0.0126574
-0.00796074
-0.00395328
-0.000725656
0.00151381
0.00267385
0.00291091
0.00260058
0.00188719
0.000947784
-0.0199639
-0.0160285
-0.011268
-0.00735624
-0.00407825
-0.00140198
0.000510254
0.00159457
0.00193532
0.0017383
0.00115438
0.000294798
-0.0186887
-0.0147239
-0.0103432
-0.00708371
-0.00434005
-0.00204577
-0.000358759
0.00066064
0.00105483
0.000951571
0.000469895
-0.000304921
0.00014215
-0.00147172
-0.00331946
-0.00547424
-0.00800168
-0.0109585
-0.0144115
-0.018347
-0.0228121
-0.026953
-0.0298998
-0.0276226
-0.000271231
-0.00174823
-0.00347306
-0.00547582
-0.00779868
-0.0104942
-0.0136152
-0.017102
-0.0207115
-0.0236653
-0.0249823
-0.0239729
-0.00082983
-0.00219905
-0.00380213
-0.00565123
-0.00776896
-0.01018
-0.0128914
-0.0158026
-0.0186336
-0.0207869
-0.0216019
-0.021167
-0.00134336
-0.00262217
-0.00412557
-0.00585129
-0.00780221
-0.00997469
-0.0123424
-0.0147715
-0.0170181
-0.0186813
-0.0191705
-0.0192916
-0.0248189
-0.0202289
-0.0143591
-0.00880818
-0.00402976
-7.47105e-05
0.00259991
0.0038275
0.00388295
0.00346228
0.00254119
0.00148836
-0.0219395
-0.0178723
-0.0126603
-0.00796812
-0.00396455
-0.00074018
0.00149702
0.00265565
0.00289159
0.00257985
0.00186428
0.000922965
-0.0199629
-0.0160295
-0.0112721
-0.00736472
-0.00409009
-0.00141655
0.00049362
0.00157639
0.00191576
0.0017172
0.00113131
0.000269877
-0.0186911
-0.0147263
-0.0103481
-0.0070933
-0.00435247
-0.00206048
-0.00037537
0.000642414
0.0010351
0.000930248
0.000446741
-0.000329909
0.000115991
-0.00149944
-0.00334886
-0.00550537
-0.00803451
-0.010993
-0.0144475
-0.0183843
-0.0228507
-0.026993
-0.0299404
-0.0276673
-0.000297708
-0.00177632
-0.00350281
-0.00550728
-0.00783181
-0.0105289
-0.0136513
-0.0171394
-0.0207501
-0.0237051
-0.025023
-0.0240186
-0.000856449
-0.0022273
-0.00383202
-0.00568281
-0.00780223
-0.0102149
-0.0129278
-0.0158403
-0.0186725
-0.0208272
-0.0216441
-0.0212133
-0.00137006
-0.00265053
-0.00415558
-0.00588297
-0.00783556
-0.0100097
-0.0123788
-0.0148093
-0.0170573
-0.0187219
-0.0192134
-0.0193375
-0.0165828
-0.0135897
-0.00987975
-0.00709554
-0.00464994
-0.00261751
-0.00110017
-0.000141978
0.000278378
0.0002439
-0.000154562
-0.000848772
-0.0142654
-0.0122435
-0.00944008
-0.00710577
-0.0049192
-0.00309978
-0.00172185
-0.000822082
-0.000392468
-0.000378414
-0.00071178
-0.00133689
-0.0126723
-0.0111705
-0.00905795
-0.00703371
-0.00512266
-0.00349236
-0.00223562
-0.00139212
-0.000964135
-0.000916773
-0.0011992
-0.00176616
-0.011416
-0.0103173
-0.00868804
-0.00694779
-0.00527018
-0.00380597
-0.00265567
-0.00186527
-0.00144549
-0.00137573
-0.00161878
-0.00213744
-0.0105281
-0.00967069
-0.00835974
-0.00685693
-0.0053748
-0.00405319
-0.00299562
-0.00225389
-0.00184578
-0.00176129
-0.00197398
-0.00245311
-0.00986234
-0.00917327
-0.0080823
-0.00677
-0.00544809
-0.0042462
-0.00326783
-0.00256918
-0.00217385
-0.00207987
-0.00226911
-0.00271623
-0.00936472
-0.0087913
-0.00785595
-0.00669351
-0.00549926
-0.00439534
-0.00348281
-0.0028208
-0.00243772
-0.00233757
-0.00250883
-0.00293031
-0.00899536
-0.00850239
-0.00767809
-0.00663
-0.00553507
-0.00450882
-0.00364902
-0.00301695
-0.00264443
-0.00254015
-0.00269766
-0.00309897
-0.00872846
-0.00829056
-0.00754437
-0.00658085
-0.00556018
-0.00459278
-0.00377342
-0.00316435
-0.00280006
-0.00269291
-0.00283981
-0.00322555
-0.00854606
-0.00814422
-0.00745054
-0.00654616
-0.00557772
-0.00465214
-0.00386138
-0.0032684
-0.00290961
-0.00280115
-0.00293887
-0.00331304
-0.00843546
-0.00805462
-0.00739294
-0.00652551
-0.00558967
-0.00469005
-0.00391672
-0.00333307
-0.00297704
-0.00286559
-0.00299742
-0.00336396
-0.00838742
-0.00801385
-0.00736676
-0.00651651
-0.00559551
-0.0047074
-0.00394131
-0.00336099
-0.00300558
-0.00289201
-0.00302104
-0.00338404
-0.00180263
-0.00299186
-0.00439853
-0.00601094
-0.00781682
-0.00979225
-0.0119012
-0.0139863
-0.015849
-0.0172133
-0.017646
-0.0177844
-0.00221738
-0.0033267
-0.00464371
-0.00615027
-0.00782429
-0.00962701
-0.011542
-0.013368
-0.0149713
-0.0161463
-0.0166039
-0.0166724
-0.00258339
-0.00362341
-0.00486224
-0.00627627
-0.0078363
-0.00949512
-0.0112477
-0.0128746
-0.0142851
-0.0153164
-0.0157694
-0.0158518
-0.00290041
-0.00388007
-0.00505054
-0.00638454
-0.00784861
-0.00939695
-0.0109978
-0.0124801
-0.0137467
-0.0146746
-0.0151326
-0.0152533
-0.00317026
-0.00409822
-0.00520978
-0.00647516
-0.00785818
-0.0093132
-0.0107934
-0.0121657
-0.0133265
-0.0141831
-0.0146453
-0.0148009
-0.00339537
-0.00427991
-0.00534183
-0.00654956
-0.007865
-0.00924187
-0.0106269
-0.0119178
-0.0129997
-0.0138071
-0.0142711
-0.0144535
-0.00357851
-0.00442742
-0.00544851
-0.0066089
-0.00786905
-0.0091816
-0.0104907
-0.0117265
-0.0127474
-0.0135168
-0.0139814
-0.0141816
-0.00372255
-0.00454311
-0.00553163
-0.00665433
-0.00787053
-0.00913126
-0.0103771
-0.011586
-0.0125559
-0.0132957
-0.0137595
-0.0139709
-0.00383026
-0.00462917
-0.00559292
-0.00668696
-0.00786984
-0.00909073
-0.0102766
-0.0114953
-0.0124148
-0.0131325
-0.0135947
-0.013813
-0.00390419
-0.00468764
-0.0056339
-0.00670776
-0.00786731
-0.00906207
-0.0102199
-0.0114154
-0.0123141
-0.0130182
-0.0134794
-0.0137021
-0.00394647
-0.00472039
-0.00565595
-0.0067175
-0.00786291
-0.00904419
-0.0101983
-0.0113478
-0.0122486
-0.0129468
-0.0134079
-0.0136339
-0.00396277
-0.00473252
-0.00566338
-0.0067193
-0.00785785
-0.00903548
-0.0101878
-0.0113106
-0.0122133
-0.012912
-0.0133742
-0.0136043
-0.0165882
-0.0135963
-0.00988471
-0.00710693
-0.00466298
-0.00263241
-0.00111684
-0.000160266
0.000258521
0.000222416
-0.000177811
-0.000873819
-0.0142709
-0.0122469
-0.00944307
-0.00712047
-0.00493289
-0.00311487
-0.00173859
-0.000840441
-0.000412432
-0.000400028
-0.000735122
-0.00136199
-0.0126789
-0.0111767
-0.00906438
-0.00704645
-0.00513642
-0.00350757
-0.00225245
-0.00141055
-0.000984186
-0.000938479
-0.00122261
-0.0017913
-0.0114235
-0.0103247
-0.00869632
-0.0069599
-0.00528393
-0.00382128
-0.00267257
-0.00188377
-0.00146561
-0.0013975
-0.00164225
-0.00216262
-0.0105363
-0.00967903
-0.00836911
-0.00686893
-0.00538857
-0.00406857
-0.00301258
-0.00227245
-0.00186596
-0.00178312
-0.0019975
-0.00247833
-0.00987112
-0.00918233
-0.00809241
-0.0067821
-0.00546193
-0.00426163
-0.00328485
-0.00258779
-0.00219408
-0.00210176
-0.00229268
-0.00274147
-0.00937399
-0.00880092
-0.00786659
-0.00670578
-0.00551317
-0.00441084
-0.00349987
-0.00283946
-0.00245799
-0.0023595
-0.00253243
-0.00295557
-0.00900503
-0.00851244
-0.00768909
-0.00664244
-0.00554906
-0.00452437
-0.00366612
-0.00303564
-0.00266475
-0.00256212
-0.00272128
-0.00312424
-0.00873844
-0.00830092
-0.00755563
-0.00659343
-0.00557424
-0.00460837
-0.00379055
-0.00318308
-0.00282041
-0.00271491
-0.00286345
-0.00325084
-0.00855626
-0.00815481
-0.00746199
-0.00655884
-0.00559184
-0.00466776
-0.00387854
-0.00328715
-0.00292998
-0.00282313
-0.00296252
-0.00333834
-0.0084458
-0.00806534
-0.0074045
-0.00653826
-0.00560383
-0.0047057
-0.0039339
-0.00335185
-0.00299743
-0.00288761
-0.00302109
-0.00338928
-0.00839782
-0.00802463
-0.00737837
-0.0065293
-0.00560969
-0.00472307
-0.00395852
-0.00337978
-0.00302599
-0.00291405
-0.00304473
-0.00340938
-0.0018294
-0.0030203
-0.00442862
-0.00604268
-0.0078502
-0.00982722
-0.0119376
-0.0140241
-0.0158882
-0.017254
-0.0176887
-0.0178291
-0.0022442
-0.00335519
-0.00467385
-0.00618204
-0.00785768
-0.00966194
-0.0115783
-0.0134058
-0.0150104
-0.0161869
-0.0166461
-0.016716
-0.00261024
-0.00365194
-0.00489241
-0.00630805
-0.00786967
-0.0095301
-0.0112839
-0.0129122
-0.014324
-0.0153567
-0.0158111
-0.0158946
-0.00292729
-0.00390861
-0.00508071
-0.0064163
-0.00788194
-0.00943181
-0.0110339
-0.0125176
-0.0137854
-0.0147146
-0.0151738
-0.0152953
-0.00319715
-0.00412677
-0.00523994
-0.0065069
-0.00789147
-0.00934796
-0.0108295
-0.012203
-0.0133651
-0.0142229
-0.0146861
-0.0148423
-0.00342227
-0.00430846
-0.00537198
-0.00658128
-0.00789823
-0.00927655
-0.0106628
-0.011955
-0.0130381
-0.0138466
-0.0143115
-0.0144945
-0.00360543
-0.00445597
-0.00547865
-0.00664059
-0.00790225
-0.00921622
-0.0105266
-0.0117635
-0.0127856
-0.013556
-0.0140214
-0.0142221
-0.00374947
-0.00457165
-0.00556177
-0.006686
-0.00790369
-0.00916583
-0.0104129
-0.011623
-0.012594
-0.0133348
-0.0137993
-0.0140111
-0.00385719
-0.00465772
-0.00562305
-0.00671863
-0.00790297
-0.00912526
-0.0103125
-0.0115322
-0.0124528
-0.0131714
-0.0136343
-0.013853
-0.00393113
-0.00471619
-0.00566402
-0.00673941
-0.00790043
-0.00909657
-0.0102559
-0.011452
-0.0123519
-0.013057
-0.0135189
-0.013742
-0.00397342
-0.00474895
-0.00568608
-0.00674915
-0.00789602
-0.00907866
-0.010234
-0.0113846
-0.0122864
-0.0129854
-0.0134472
-0.0136736
-0.00398973
-0.00476108
-0.00569351
-0.00675095
-0.00789096
-0.00906992
-0.0102235
-0.0113474
-0.0122511
-0.0129507
-0.0134135
-0.013644
)
;

boundaryField
{
    rotor
    {
        type            zeroGradient;
    }
    stator
    {
        type            zeroGradient;
    }
    AMI1
    {
        type            cyclicAMI;
        value           nonuniform 0();
    }
    AMI2
    {
        type            cyclicAMI;
        value           nonuniform List<scalar> 
48
(
-0.0269124
-0.0220004
-0.0156448
-0.00951456
-0.0040815
0.000412966
0.00336087
0.00454129
0.00438559
0.00382945
0.00291456
0.00179984
0.000326149
-0.00137247
-0.00325302
-0.00541232
-0.00795343
-0.0109779
-0.0146268
-0.0189825
-0.0239922
-0.0286421
-0.0316382
-0.0298729
-0.0269051
-0.0219961
-0.0156448
-0.00951978
-0.0040917
0.000398365
0.00334316
0.00452239
0.00436648
0.00380948
0.0028921
0.00177562
0.000300603
-0.00139947
-0.00328172
-0.00544285
-0.00798583
-0.0110122
-0.0146627
-0.01902
-0.0240311
-0.028682
-0.0316789
-0.0299172
)
;
    }
    front
    {
        type            empty;
    }
    back
    {
        type            empty;
    }
    procBoundary1to0
    {
        type            processor;
        value           nonuniform List<scalar> 8(-0.0276308 -0.0239804 -0.0211742 -0.0192992 -0.0248674 -0.0219894 -0.0200139 -0.0187416);
    }
}


// ************************************************************************* //
