/*--------------------------------*- C++ -*----------------------------------*\
| =========                 |                                                 |
| \\      /  F ield         | OpenFOAM: The Open Source CFD Toolbox           |
|  \\    /   O peration     | Version:  2.3.1                                 |
|   \\  /    A nd           | Web:      www.OpenFOAM.org                      |
|    \\/     M anipulation  |                                                 |
\*---------------------------------------------------------------------------*/
FoamFile
{
    version     2.0;
    format      ascii;
    class       volSymmTensorField;
    location    "3940";
    object      sigma;
}
// * * * * * * * * * * * * * * * * * * * * * * * * * * * * * * * * * * * * * //

dimensions      [1 -1 -2 0 0 0 0];

internalField   nonuniform List<symmTensor> 
11800
(
(148903 74823.8 7.17076e-14 -2771.66 3.79826e-14 36258.2)
(-73908.6 66136.4 1.1008e-13 -462.65 3.49074e-14 -18453)
(674354 95326.1 -1.82509e-15 1430.07 -7.95564e-14 167676)
(-585591 49022.9 0 -1410.89 0 -145647)
(-76583.3 63815.9 2.05379e-14 -5074.33 -5.80245e-14 -20260.9)
(-366430 98558.9 7.96062e-14 2246.08 4.17552e-14 -90361.4)
(-68037.5 94743.1 1.50646e-13 -661.566 -3.91726e-14 -17045.6)
(-95859.3 98342.8 -2.24288e-14 904.586 9.02334e-14 -23560.2)
(207279 50137.8 2.98745e-14 467.89 -2.04003e-14 51546.3)
(141845 103347 -7.71868e-14 803.777 -6.50132e-14 35394.1)
(171917 61728 -5.9819e-14 1774.7 5.12034e-14 43096.4)
(-849444 35473.3 -7.14588e-14 -6269.13 -3.24206e-14 -212320)
(23804.6 -34578.1 1.29064e-16 -64148.6 1.00293e-16 -10010.2)
(624675 49375.9 6.47834e-14 3830.15 -1.77269e-14 155945)
(-499296 92354.1 -5.40642e-14 6520.82 4.20282e-14 -122268)
(2.31061e+06 -8225.91 0 -7563.32 0 571432)
(-44450.2 74222.6 5.09797e-14 4196.24 4.49527e-15 -9987.83)
(-68584.1 68343.2 -2.87605e-14 8314.18 1.65167e-13 -14954.2)
(143344 116479 -2.9309e-14 -18826.3 2.08319e-14 30895.4)
(108065 62182.1 -1.02724e-13 -11811.2 -3.32254e-14 23882.5)
(-460047 55599.3 3.2012e-14 -1622.13 3.35482e-14 -114550)
(-743053 86797.7 5.12061e-14 3814.7 -2.97731e-14 -183420)
(-972857 110929 -2.57997e-14 12021.2 1.65909e-14 -238403)
(-892747 63922.3 2.5944e-16 223.525 4.48285e-15 -221453)
(1.88559e+06 82607.3 3.23877e-15 -8323 3.73659e-14 465788)
(-1.16109e+06 110561 -2.53353e-14 8186.38 -7.21962e-16 -286058)
(-1.22941e+06 58316.5 0 10813.8 0 -302357)
(606991 43723.8 -8.49475e-14 -5534.46 -5.13001e-14 149234)
(-1.33895e+06 59564.1 -1.46357e-14 11860.1 -7.03614e-14 -329277)
(-1.44888e+06 60049 1.95021e-14 13820 -3.03194e-14 -356068)
(398282 46110.6 -1.05284e-13 -2045.22 -1.88682e-13 98314.3)
(79656.1 59855.1 -1.68875e-14 2702.06 -1.39566e-14 20434.7)
(1.18456e+06 106613 -4.13991e-15 13654 -1.80993e-14 297301)
(-29186 78699.2 1.37692e-14 -1962.77 -1.03095e-13 -7728.65)
(20434.9 83271.4 -3.6416e-14 2269.51 -1.56305e-13 5633.43)
(-388778 34607.3 -9.55977e-14 -1021.35 -6.94463e-14 -96717.2)
(22481.4 84404.8 1.29335e-13 1682.39 -1.53806e-13 5995.53)
(1.2698e+06 61332.7 -1.52073e-14 6788.7 -6.5013e-14 316749)
(-46188.7 81863 0 -1653.16 0 -11870.5)
(103099 77034 -4.45675e-14 6053.3 8.3018e-14 27082.9)
(-1.29172e+06 43272.7 -7.91198e-14 -6543.73 -3.67711e-14 -322125)
(-1.40677e+06 42766.5 5.66749e-14 -6969.28 -3.25192e-14 -350778)
(638016 58632.5 -3.2765e-14 -897.474 -1.09053e-13 158082)
(-1.52224e+06 43121.2 -1.07819e-14 -5623.15 -5.75123e-14 -379095)
(418683 57833.6 2.79841e-13 1096.8 -8.72888e-14 104156)
(2.16075e+06 52667.8 0 -7677.75 0 534220)
(932466 121309 -1.63068e-14 -3567.23 8.5379e-15 230479)
(1.11063e+06 43559.9 -2.87876e-14 -12138.5 -1.99928e-14 272558)
(-107958 84778.4 -1.10939e-13 469.161 -6.83465e-14 -26670.1)
(248243 81468.7 0 2452.13 0 62202.5)
(-881839 48802 -5.37141e-15 2560.18 5.6903e-14 -218167)
(-617607 45646.7 1.85995e-13 3283.41 2.17922e-14 -152426)
(-12657.6 82529.3 1.04312e-13 1041.51 6.49441e-14 -2882.18)
(45899.7 133074 -2.26474e-15 8541.46 1.97395e-14 13507.9)
(-2.48355e+06 5134.2 -3.47034e-15 -12831.4 -5.43845e-15 -619402)
(1.94296e+06 -87930.9 4.66259e-15 -88961.7 8.22677e-15 460014)
(-66306.3 20765.5 8.97973e-14 1884.52 3.33463e-14 -15984.4)
(-553921 97046.1 6.69811e-15 -6083.05 -5.55791e-14 -138948)
(444494 61212.8 -5.66406e-14 9334.73 8.29545e-14 112604)
(-391917 102131 4.64145e-14 -7472.25 -8.37957e-15 -99096.5)
(2.01029e+06 21232.6 -4.08172e-14 -15449.5 -1.41471e-14 494961)
(-53928.2 86787.7 4.41508e-14 920.525 -7.18453e-14 -13152.3)
(-436436 79316.8 -2.54708e-14 -2767.48 4.3784e-14 -108975)
(349189 79565.1 7.73182e-14 3441.67 -4.41026e-14 87494.9)
(1.86155e+06 11966.1 4.45906e-15 -900.953 -2.69463e-14 461666)
(-271238 33713.7 -1.26315e-13 2088.11 -1.52641e-13 -66781.4)
(-909484 21000.2 8.88292e-14 4707.12 2.96151e-14 -224494)
(-643828 24151.9 2.58832e-15 3945.77 -1.55984e-13 -158768)
(-68723.3 22294.1 0 -3554.44 0 -17933.6)
(-1.08244e+06 60811.1 -2.01741e-15 11193.3 6.62812e-14 -265799)
(-23049.6 83897.1 -2.53055e-14 70.1697 5.2239e-14 -5701.67)
(-53944.5 65574.8 -9.74866e-14 -3264.61 1.09051e-13 -14194.7)
(-47338.2 64164.4 6.83719e-14 -1576.72 -4.1843e-14 -12136.8)
(-1.63431e+06 353271 -5.84283e-15 201739 5.2739e-15 -355450)
(1.99356e+06 71545.2 -1.58561e-15 -7046.01 -1.62251e-14 492894)
(-365297 52804.4 -9.3923e-14 3438.45 -6.83077e-14 -89784.5)
(1.95081e+06 12847.6 -3.43079e-14 3989.42 3.0531e-14 485026)
(-263461 20501.7 8.30404e-14 -237.078 -2.72437e-13 -65429)
(-195276 43579.4 1.56174e-14 -21.7956 -1.49015e-14 -48457.3)
(-184462 57502.2 1.59451e-13 2324.72 1.59874e-13 -45191.9)
(-2.50245e+06 -48357.9 1.2616e-14 10997.2 5.91847e-14 -618180)
(109755 56278.1 0 9143.2 0 29501.1)
(58352.8 67902.8 -1.65763e-13 1877.28 -6.53049e-14 14944.3)
(40484.7 72474 5.74709e-14 1162.4 -4.52822e-16 10333.5)
(-86235 64739.8 3.92909e-14 -8890 1.11178e-13 -23602.4)
(-1.41194e+06 73507.1 -2.18892e-14 -7804.85 1.10346e-13 -352269)
(432162 52643.9 1.33754e-13 4501.21 -4.15964e-14 108345)
(-1.30158e+06 71562.7 0 -7409.94 0 -324788)
(-1.19309e+06 70140.6 -4.60128e-14 -6617.99 -4.71127e-14 -297672)
(641631 49848.1 6.12677e-14 5649.63 3.74496e-15 160603)
(-13524.3 82035.6 -2.16118e-13 -3012.46 -1.3859e-13 -4103.1)
(1.40148e+06 98336.3 0 -4459.81 0 346628)
(-115532 71791.3 -4.58519e-14 1875.7 -7.60118e-14 -28200.5)
(72297 16091.5 -2.64331e-14 4891.51 -3.83571e-14 19152)
(175708 73000.7 2.02741e-13 1394.74 3.6303e-15 43942.8)
(55071.5 -41528.8 -8.21463e-16 -116949 -6.08895e-16 -15353.1)
(-2919.76 11424.2 2.1395e-17 6861.24 -1.27265e-16 977.96)
(-55619.2 -41288.2 -5.20094e-16 116691 3.46456e-16 15153.2)
(-13552.5 83402.1 -6.71908e-14 201.355 -9.77059e-16 -3312.7)
(-740276 54286.4 -1.64716e-14 -2820.61 6.56709e-14 -184377)
(51596.1 38542 3.69266e-14 -76.5719 -1.03278e-13 12783)
(807003 61276.5 -7.97879e-14 -7425.35 -1.10351e-13 198391)
(-1.32906e+06 111749 5.33434e-15 -554.008 1.08583e-14 -329905)
(-435563 75084.8 -3.29577e-15 6862.88 1.04001e-14 -106369)
(-1844.77 88913.8 -1.0368e-14 -833.75 -5.15784e-14 -664.594)
(346467 101447 -2.13568e-14 2566.7 -3.69142e-14 86602.3)
(-165497 74095.1 -6.345e-14 -734.06 1.3987e-13 -41245.2)
(-115942 77382.9 -2.15035e-13 -795.598 -1.03689e-13 -28965)
(1.98132e+06 20464 1.20473e-14 5046.47 2.5079e-14 492857)
(1.31272e+06 60865.2 1.9663e-14 4671.13 3.99927e-15 326870)
(1.42432e+06 62129.4 3.76742e-14 5444.02 5.24259e-14 354753)
(1.20368e+06 60013.2 1.37976e-13 4316.56 8.1745e-14 299730)
(-437409 54309.1 6.26693e-14 -4052.07 9.78581e-14 -109535)
(-648996 53300.8 -1.65732e-13 -4644.55 5.95759e-14 -162181)
(235223 66608 7.06284e-14 120.742 -3.70177e-14 58393.6)
(1.78399e+06 35362.6 1.81371e-14 -180.62 1.069e-14 442599)
(251485 31450.9 -5.16435e-14 -3040.43 -2.03025e-13 61644.1)
(-79662.4 77430.7 -1.79102e-13 893.694 1.67437e-13 -19544.1)
(1.67086e+06 76768.1 -2.07766e-14 1067.91 2.58817e-14 414839)
(-143505 107139 -5.7956e-14 -88.9101 -1.55955e-14 -35628.6)
(-223032 43882.4 -3.97391e-14 3453.11 -1.67275e-14 -54482)
(69792.9 94757.7 1.28179e-13 -2712.96 -1.83473e-13 16643.9)
(99711.1 101005 -8.92969e-14 -1966.75 6.14102e-14 24252.4)
(-71291.8 77822.9 -2.59938e-14 3738.77 -3.83437e-14 -16761.3)
(-121777 67953 -1.63085e-13 -1158.54 -1.27241e-13 -30502.9)
(-2938.11 82057.2 -1.56747e-13 -2484.78 -1.17926e-13 -1345.53)
(-37523.5 81368.3 -9.39709e-14 -897.019 1.03224e-13 -9532.9)
(-8382.6 83361 -6.14321e-14 -2199.86 -5.85371e-14 -2625.72)
(9393.62 56669.8 2.91942e-15 39890.6 1.30767e-13 12228.4)
(-37957.5 6039.77 -4.28393e-16 -8765.71 6.21429e-14 -11593)
(-2.09707e+06 -338364 1.88393e-14 86633.7 -9.51001e-15 -498829)
(-1.51543e+06 74293.9 1.3606e-14 -11594 -2.07449e-15 -378887)
(471978 48124.4 7.07664e-14 3774.02 -6.90096e-14 118044)
(-1.40794e+06 76240 -5.44637e-14 886.519 3.41937e-14 -349119)
(684914 44166.7 -3.18603e-14 4388.77 9.65126e-14 171030)
(-1.29521e+06 73347.5 2.07835e-14 1084.76 2.08809e-14 -321099)
(-1.18549e+06 71326 -1.19939e-13 1544.11 9.16296e-14 -293760)
(392861 67829.3 6.93174e-14 -4760.6 1.9313e-13 96295.6)
(-1.20397e+06 29898.2 7.44087e-14 8212.15 -1.02253e-13 -296692)
(573969 71134.4 8.59787e-14 -5772.85 -6.84518e-14 140981)
(-1.10834e+06 30916.3 6.16593e-14 7217.62 -1.06131e-13 -273212)
(-1.01495e+06 32742.4 -6.39299e-14 7100.67 -5.75515e-14 -250067)
(-566473 92343.9 4.77636e-15 17283.4 4.79751e-14 -136265)
(173511 77907.3 -3.46093e-14 -5992.18 -2.30442e-13 41564.7)
(248225 75626.2 -5.52979e-14 -7810.48 -1.5973e-13 59651.8)
(-362414 73846.3 -1.66312e-14 11541 9.57725e-14 -87058.7)
(1.46442e+06 46961.7 -1.05374e-13 1936.77 -3.55473e-14 363833)
(-1.51044e+06 -19872.8 1.01309e-13 -12038.4 3.1314e-14 -377757)
(849702 44884.6 7.13098e-14 -2772.57 -6.64135e-14 210140)
(-431984 44684.6 1.58618e-15 7719.2 9.41479e-15 -105269)
(-198127 74259.5 -8.97404e-14 2237.37 -7.41412e-14 -48604.1)
(-207635 61514 7.67992e-14 -2689.25 -6.94707e-14 -52185.8)
(22004.8 82726.4 5.83815e-14 1495.08 1.06618e-13 5830.81)
(-294931 53747.5 -1.31291e-13 -768.056 1.36132e-13 -73368.8)
(253801 64836.7 -6.88165e-14 -4591.75 -7.27011e-14 61833.9)
(172124 73767.5 -6.30791e-14 2638.19 4.86134e-14 43362.1)
(-549119 60683.9 1.06758e-13 7833.08 -7.18543e-14 -134304)
(-769026 67269.8 3.87811e-14 3267.35 8.48637e-14 -190000)
(1.55708e+06 20415.9 2.38929e-14 1827.76 -3.1669e-16 386797)
(-7162.36 86973 3.06477e-14 -623.492 -1.49047e-13 -1931.83)
(2.25503e+06 82036.1 -2.78083e-14 -13786 -1.5151e-14 556097)
(-242801 66687.1 -1.13406e-13 1049.41 7.8132e-14 -59983.4)
(1.96355e+06 52606.6 0 -20123.6 0 482203)
(-562274 67610.9 3.33083e-14 -5586.25 1.39059e-13 -140898)
(-613705 67629.2 -3.415e-14 -6393.64 4.05015e-14 -153859)
(-665008 68857.7 -5.53089e-15 -6600.84 1.46403e-13 -166640)
(309921 74929.6 -8.40411e-14 1014.54 2.06671e-14 77149.5)
(210628 76633.5 -8.96834e-14 513.674 2.21384e-14 52388.4)
(-2.4528e+06 -20012.4 2.20444e-14 -9291.23 -1.25708e-14 -610896)
(-1.52823e+06 72809.4 -2.27138e-14 -8906.75 4.28099e-14 -381394)
(537704 51845.8 -8.95143e-14 5047.56 -5.23812e-14 134668)
(746983 48710.1 2.51348e-13 5835.91 -1.35075e-13 186790)
(83653.4 83177.3 4.92173e-14 -8216.34 -1.27232e-13 18717.5)
(-438262 37895.7 0 1698.64 0 -108320)
(-443948 20883.4 1.34617e-13 -2704.21 -6.84271e-14 -110823)
(2.15471e+06 57992.6 3.61369e-14 -15231.8 2.41e-14 530848)
(2.2054e+06 -13808.5 2.99568e-14 13719.4 2.64643e-14 550608)
(1.16078e+06 24591.3 1.8409e-15 -1120.39 6.33667e-14 287734)
(1.06554e+06 26731.2 1.29705e-14 -683.878 1.53905e-13 264212)
(1.2583e+06 22181.5 3.27288e-14 -2225.29 -4.73099e-14 311658)
(-548049 72987.1 -8.11875e-14 4638.49 7.30408e-14 -134831)
(-363795 68890.9 -7.87804e-14 3421.13 8.63949e-14 -89416.2)
(238804 97294 0 2020.26 0 59753.4)
(162905 94236 -3.27384e-15 789.408 1.25239e-13 40615.8)
(520632 72775.6 -9.6443e-14 -181.115 7.88494e-14 129135)
(-219733 68776.7 -7.71276e-14 2844.85 1.82836e-13 -53814.4)
(-342640 103302 -1.52574e-14 4230.56 6.7434e-14 -83966.2)
(106135 75639 -2.86995e-13 -866.234 -7.61473e-14 26119.4)
(151241 72003.4 -1.9845e-13 -1014.54 8.30228e-14 37274.1)
(-92804.6 86608.1 -3.86993e-14 2196.71 -5.41217e-16 -22481.7)
(-260503 57037.8 -3.19649e-14 5743.65 -1.99552e-14 -63211.1)
(-239594 58166.2 2.11275e-14 4989.5 -3.60678e-14 -58210.1)
(-241880 42668.3 0 -476.988 0 -60133.6)
(-115712 106879 4.37434e-16 -5302.84 -4.18317e-14 -30026.3)
(-1.11515e+06 3113.19 9.39906e-14 -7110.23 -4.11554e-14 -278455)
(1.39952e+06 56033.8 -1.22082e-13 -6275.76 -1.22971e-14 345691)
(1.71808e+06 176904 7.24441e-15 -294794 3.66044e-15 353146)
(-40938.9 72807.3 2.56287e-14 -3562.23 -5.80842e-14 -11041.6)
(262528 25400.1 9.35239e-14 2294.82 -2.135e-13 65708)
(-2.1516e+06 -268436 1.81022e-14 175092 -1.17003e-14 -490412)
(122190 57967.8 4.00225e-15 3834.3 1.08502e-13 31269.2)
(334762 40866.9 7.54999e-14 1094.92 -8.66665e-14 83333)
(369848 44788.9 1.05421e-13 -5399.74 -4.44757e-14 90426.9)
(-4712.52 85887.3 7.941e-14 -92.5402 -1.17757e-14 -1192.23)
(-5364.71 88828.2 8.37642e-14 -638.447 7.08257e-15 -1489.51)
(1.0131e+06 33480.4 2.67524e-14 -5290.93 8.89629e-14 250058)
(839767 93248.5 3.39973e-14 7191.81 -8.19721e-15 210148)
(-763927 77281.6 0 7406.02 0 -187708)
(-653053 41377.1 -8.65457e-14 -10201.9 -5.41305e-14 -164567)
(2.09161e+06 -341824 -7.59698e-15 -88814.4 -5.12949e-15 496935)
(-642213 119468 -6.9213e-15 17730.5 8.06515e-14 -154947)
(-1.02704e+06 40094.9 4.75872e-14 -2466.03 -2.80447e-14 -255441)
(-2.18075e+06 -878160 -2.04396e-14 457677 7.99253e-15 -427530)
(2.61399e+06 2139.96 0 35709.5 0 657445)
(-1.90978e+06 -813329 -6.65138e-15 215949 2.05753e-15 -420275)
(335134 118995 -4.5342e-14 -65.8861 1.59841e-14 83137.1)
(-75101.8 69801.1 -8.09982e-15 -1112.15 1.13246e-13 -18910.2)
(-987534 87314.9 4.02689e-14 -8317.58 -4.42817e-14 -247091)
(-903475 87214.4 6.00215e-14 -7336.31 -7.49401e-15 -225991)
(-828534 85092.8 -6.84853e-14 -6613.62 2.66059e-15 -207217)
(294625 61079.7 6.00815e-14 3969.53 -1.67616e-13 74087.3)
(442393 58152.3 -1.50784e-13 4998.04 1.46574e-13 111007)
(43689.8 75012.7 -2.37084e-14 -7847.49 1.11258e-13 8893.2)
(62312.8 70467.8 5.61151e-14 -10579.8 7.18784e-14 12836)
(-142166 112972 -6.38438e-14 23173.2 1.72722e-14 -29524.6)
(-90487.4 65763 4.77077e-14 15698.1 -6.1013e-14 -18556.7)
(-1.19574e+06 -481264 -5.1523e-15 -29622.6 1.07654e-15 -304037)
(223420 113940 -3.62789e-14 17001.1 -1.28534e-13 59653.5)
(-110974 67518 -1.25298e-13 -8865.46 -5.72722e-14 -29734.7)
(-521202 106992 0 162.127 0 -129280)
(223128 62736.8 9.61819e-14 1440.15 -3.92568e-14 55719.9)
(-109817 91966.6 0 -522.296 0 -27377.4)
(-82193.6 73499.7 -6.09872e-14 -829.686 -9.65885e-14 -20599.8)
(778379 76436.8 8.53132e-14 4503.52 -8.92188e-14 194249)
(799673 47966.5 1.30614e-13 -32.1126 6.23769e-14 198407)
(2.178e+06 -877100 -7.64731e-15 -457988 -2.52944e-15 426770)
(1.19399e+06 -481028 8.93391e-15 29417.8 2.4505e-15 303551)
(-242956 53489.4 1.85912e-14 1876.14 2.64533e-14 -59816.8)
(-259358 54452.1 -5.64804e-14 -2876.68 -1.1548e-13 -65065.8)
(-1.38627e+06 533.736 -6.20933e-14 -5390.37 -1.42259e-14 -345299)
(1.12408e+06 52049.4 1.40661e-13 -3968.45 -3.67434e-14 277923)
(363874 69689.3 4.66624e-15 -2982.69 2.55805e-13 89544.3)
(547414 74774.2 8.69071e-14 -3760.59 9.44803e-14 134892)
(-1.25973e+06 22664.3 -2.28393e-15 -1101.9 5.38775e-14 -312839)
(-1.16443e+06 26441.6 -5.4812e-14 -841.319 1.8124e-14 -289126)
(-1.0685e+06 28816.8 -3.66737e-15 -930.018 8.51495e-14 -265347)
(-16315 88202.3 -1.3221e-13 -922.619 3.82354e-14 -4276.99)
(-1.36559e+06 24614.8 3.55897e-14 -2171.18 3.82704e-14 -339369)
(457120 70018.6 -8.90717e-14 -3045.83 4.36893e-14 112665)
(641269 73775.3 0 -3578.45 0 158224)
(604985 55422.6 3.39287e-14 -4481.43 8.09409e-14 148997)
(116651 73494.4 -1.11731e-13 870.888 -2.95327e-13 29159.5)
(10034.3 75908.3 -9.79094e-14 -8889.58 -3.60028e-14 284.02)
(495493 40417.3 -1.24e-13 15524.1 2.22095e-14 126794)
(-420836 57594.4 -1.06314e-14 -1200.71 -8.60455e-14 -104716)
(66630.2 77976.7 1.44531e-15 -15740.8 1.80202e-14 12626.7)
(1.90665e+06 -812983 -6.92002e-15 -216875 -1.74143e-15 419267)
(299492 80967.3 8.81812e-15 -2636.91 -1.63372e-13 73655.7)
(360944 78819.6 7.60651e-14 257.695 2.58672e-14 89621.5)
(-236896 77963.7 0 -378.539 0 -58872.7)
(-281395 87703.1 2.8401e-14 -7167.3 -7.90274e-14 -71598.1)
(831177 84784.8 0 7744.19 0 208153)
(906314 87157.2 5.01736e-14 8302.53 4.75956e-14 226935)
(981349 90827.2 -1.12268e-13 8623.22 -1.08508e-14 245632)
(-442627 55189.6 1.59161e-13 -5790.22 1.61657e-13 -111261)
(-298094 59887.6 8.36609e-15 -4230.24 -9.67639e-14 -75012.8)
(-16069.9 84170.4 9.41749e-14 -281.231 5.01312e-14 -4057.06)
(1.96324e+06 12751.7 -1.45526e-14 -31014.4 -2.65871e-14 479426)
(-12359.1 98296 -1.01732e-13 -6048.31 3.16922e-14 -4567.25)
(25490.3 49118 -9.70564e-14 11912.2 -6.03937e-14 9280.33)
(43816.5 79933.5 7.31761e-14 1277.34 -1.69795e-13 11188.7)
(470647 80131.2 7.78615e-14 332.066 8.22561e-14 116860)
(-184506 4642.02 -1.2952e-13 -3161.14 6.34607e-15 -46564.1)
(622176 89454.9 0 -3839.59 0 153422)
(2.064e+06 -88246.1 3.35028e-16 -288042 1.34649e-16 440650)
(468744 21722.9 7.47733e-14 6900.6 1.70007e-13 118017)
(450473 34295.2 3.38876e-14 -6619.35 1.84636e-14 110129)
(-677108 76361.9 1.11321e-14 6265.7 2.3504e-14 -166450)
(-481568 71599.8 -8.67794e-14 5201.93 2.77943e-14 -118196)
(-576944 47176.1 -1.77381e-13 -2593.2 -3.10239e-14 -143795)
(-413556 52033 8.95685e-15 -2939.42 -9.41641e-15 -103341)
(1.43204e+06 20340.9 -6.18776e-15 -3790.86 2.03704e-14 354377)
(1.18583e+06 96640.5 2.5527e-15 -406.848 -4.21279e-14 294127)
(341689 88145.4 1.57012e-14 -4068.64 9.28547e-15 83770.5)
(459604 72968.6 2.94771e-14 -167.551 5.01321e-14 113996)
(251842 87244.1 8.2022e-14 -4330.48 5.84316e-14 61412.7)
(337656 73332.9 7.35495e-14 -1739.14 -1.16394e-14 83347.7)
(-647933 51663.7 -1.35265e-14 6573.89 3.39274e-14 -159134)
(-852422 81561.7 -3.75133e-14 2278.73 6.74219e-15 -210938)
(-194910 128818 4.16303e-14 -740.626 2.97082e-14 -48544.8)
(1.40397e+06 57673.5 4.64865e-14 5519.87 3.33471e-14 349722)
(1.52233e+06 57450.4 -1.00695e-14 24664.5 5.0015e-15 383840)
(1.80533e+06 58663 8.17712e-15 -2204.01 5.1502e-15 447391)
(125923 82115 -1.59634e-13 -84.64 1.93807e-13 31223.2)
(-462579 22800.1 -9.89072e-14 -6217.13 -5.08462e-14 -116318)
(-447411 37197.8 -1.25505e-13 4263.95 8.39328e-14 -109954)
(2.11064e+06 -8674.68 0 13633.3 0 527076)
(2.11639e+06 65192.3 0 1583.24 0 525512)
(1.26406e+06 50859.5 1.93667e-14 -1849.9 9.21984e-14 313179)
(1.25347e+06 8108.22 6.18208e-14 5192.28 -1.737e-13 312299)
(-1.30242e+06 10777.9 0 -9853.35 0 -325603)
(-1.27001e+06 51141.7 0 8633.23 0 -312973)
(36458.5 79720.5 -2.19976e-14 2516.76 6.29957e-14 9670.55)
(-89053 34021.5 2.35411e-13 -5177.3 -9.96245e-14 -23380.5)
(-343417 34696.7 -6.20728e-14 -3556.65 -2.28993e-14 -86091.1)
(2.7591e+06 3615.53 0 55894.8 0 698458)
(-48691.9 69903.9 -1.55241e-13 -1587.6 -3.87302e-15 -12475.4)
(-57718.4 72701.5 -2.23599e-14 -4884.67 -1.24338e-13 -15533.1)
(303842 95085.1 -8.00477e-14 -6871.07 -5.48499e-14 73684.6)
(-239778 93325.5 -1.66766e-13 -7107.12 6.98241e-14 -61257.3)
(290748 56775.4 4.84074e-14 -7955.79 -5.00587e-14 70166.4)
(-1.11257e+06 48182.9 3.43229e-14 -10093.8 -6.98661e-14 -278555)
(1.12139e+06 52841.2 -1.42549e-14 -11378.4 -8.54293e-14 275415)
(-1.88368e+06 79928.1 1.47832e-14 -11671.4 -6.31474e-14 -470274)
(-2.22791e+06 -202789 7.80613e-15 412807 -5.6092e-15 -450363)
(779039 103655 -1.24328e-14 -16318.6 1.54382e-14 189246)
(88658.3 102900 -8.27535e-15 -4776.88 4.65775e-14 20812.7)
(-1.0499e+06 84417.4 -4.14472e-14 -4899.08 -1.16124e-13 -261717)
(882886 27638.1 -5.39743e-14 11082.9 7.78365e-14 221812)
(-611312 51344.9 5.9519e-14 -10624.2 7.6324e-14 -154315)
(477400 83139.9 8.94476e-14 5856.41 1.56716e-15 119906)
(89164.9 90326 2.49637e-14 5183.75 1.16797e-15 23409.8)
(152891 69591.8 -1.05574e-13 -932.143 1.32563e-13 37704.2)
(-303350 59826.1 7.23567e-14 -19321.5 -7.68347e-14 -80061.4)
(-490961 120459 1.18189e-15 8341.66 9.67631e-14 -119748)
(-278527 60807.7 1.1161e-14 -17894.5 -7.77445e-14 -73548.3)
(-450579 116444 7.06079e-14 7557.72 -2.57999e-14 -109923)
(111651 49350.1 -4.42702e-14 -3320.17 1.37504e-14 26879)
(-52782 99679.3 -1.17447e-15 2647.45 -8.71382e-14 -12439.4)
(-34500.6 97809.5 1.08121e-13 2564.29 8.67066e-14 -7924.06)
(-23136 87050 5.5656e-14 795.589 -1.21162e-13 -5543.1)
(1.49577e+06 40557 3.1916e-14 4063.8 4.94837e-15 372139)
(-15512.3 99980 -1.22246e-13 -7120.2 -5.43286e-14 -5615.57)
(-59186.7 72229.2 6.04278e-14 -4757.09 -2.02304e-13 -15865.8)
(2.08143e+06 -61795.6 -1.58242e-14 -107512 -1.15392e-14 489769)
(347747 58851.6 6.4396e-14 -5310.4 -8.25988e-14 84965.5)
(-804410 103299 4.29596e-14 14546.2 1.15959e-14 -195981)
(-924512 66042.3 -7.02807e-14 1975.64 -3.07492e-14 -228900)
(-917922 29532 0 -11017.5 0 -230489)
(1.15503e+06 17088.3 -6.32663e-14 5750.78 -3.00806e-14 288013)
(1.10637e+06 74825.7 3.86152e-15 9646.9 7.53434e-14 276907)
(-35410.4 59966.8 -7.14784e-14 985.157 5.82538e-14 -8541.59)
(-26958 60418.6 5.18536e-14 1652.56 -2.89893e-13 -6278.8)
(-719508 110589 -2.8356e-14 8180.69 -6.94743e-16 -176495)
(-969072 78198.4 0 12130.9 0 -237437)
(683882 48223.2 1.55175e-14 7504.44 3.8146e-14 171547)
(-1.76734e+06 98512.8 6.78643e-15 -8188.07 -2.1441e-14 -440545)
(62431.9 69051 0 15728.6 0 19393.2)
(978193 41473.8 -3.36556e-15 -2619.35 2.33266e-14 242060)
(741995 107345 -1.81907e-15 6645.41 8.84477e-17 185753)
(-468494 87975.3 1.32878e-13 4763.07 -1.70863e-14 -115061)
(-363790 59521.9 -1.29828e-14 -3006.7 9.36137e-14 -91009.7)
(-334094 83809.5 2.05619e-14 3783.36 -7.81296e-14 -81956.8)
(-261793 63615.5 -1.16223e-15 -2799.07 4.59012e-15 -65650.8)
(-372645 39940.5 4.80752e-14 288.947 7.099e-14 -92389.1)
(-314253 45496.6 -8.40947e-14 3162.55 1.6921e-14 -77187.9)
(-383824 106828 0 1144.13 0 -94950.7)
(-431054 108156 -4.23136e-14 -867.556 3.67549e-14 -107169)
(-468880 111672 -3.45318e-15 -917.438 -3.93643e-15 -116566)
(128069 69179.4 -2.0699e-13 1331.77 -1.03466e-13 32107)
(-25579.1 82819.7 -4.59438e-14 -2376.61 9.14347e-14 -6936.39)
(925282 41344.4 -2.58693e-14 5739.79 7.37063e-14 231005)
(968709 56578 3.58266e-14 -6389.17 -6.96279e-14 238771)
(160130 73029.7 7.44799e-15 1125 -5.15928e-14 40010.7)
(234756 66567.9 0 2759.42 0 58932.4)
(-507415 107028 5.29149e-14 -3204.63 -5.81401e-14 -126695)
(449902 63891 -1.01154e-13 4819.91 -1.2797e-15 112826)
(491283 95487.9 -4.42795e-14 5617.92 -2.74044e-15 123291)
(-180167 79927.8 -8.50628e-14 -832.027 1.21889e-13 -44909.5)
(-153677 83599.3 4.9628e-14 -1892.49 2.91175e-15 -38599.9)
(-220642 87682.7 8.04043e-14 -923.176 2.85949e-14 -54974.9)
(-244971 75169.9 0 -2701.06 0 -61452.5)
(-1.06394e+06 43084.7 2.3569e-14 -92.3943 -3.59466e-14 -264008)
(493577 77229.3 -3.89496e-14 -889.8 -1.53951e-13 122246)
(351022 74928.1 -1.78413e-14 -1128.73 -2.54989e-15 86815.6)
(-115121 206389 -1.07783e-14 22053.6 -7.69917e-15 -23091.9)
(1.27917e+06 34075.2 -8.16792e-14 -9331.43 -4.89226e-14 315072)
(-1.49354e+06 9624.95 7.0681e-14 2267.26 4.22914e-14 -370015)
(-171018 190851 0 -7407.74 0 -44271.2)
(-176677 77583.8 2.97359e-14 2129.44 8.97465e-14 -43308.8)
(-149210 81950.7 -2.23665e-13 3761.79 -5.67286e-14 -36088.7)
(-257618 76489.1 9.64535e-14 1671.84 1.07876e-15 -63505.4)
(-221857 84047.1 0 3165.08 0 -54261.9)
(503961 61571.7 4.90783e-14 -4344.69 -7.89905e-14 123965)
(578551 86883.8 1.79241e-14 -3562.99 7.59553e-15 142666)
(470202 65630.5 -3.65208e-14 -8891.69 3.49569e-14 114460)
(548232 89703.7 3.90003e-14 -6285.9 1.07708e-13 134468)
(431285 65671.5 3.06044e-14 -7994.99 5.13335e-14 105027)
(502747 87932.1 -6.6481e-14 -5751.9 3.79831e-14 123315)
(396082 38847.3 3.03443e-14 -60.2561 1.14565e-13 98260.9)
(382182 22555.7 8.92251e-14 2375.99 1.91005e-13 95416.7)
(-756026 85652.8 -1.69877e-14 633.437 2.2301e-14 -187428)
(357178 82150.7 -9.24022e-14 -4530.47 -2.24687e-15 87498.9)
(-848450 61433.9 0 7107.26 0 -208754)
(1.46725e+06 90958.2 4.97304e-14 -12523.5 -3.12799e-14 360947)
(-743333 37911.2 9.30972e-14 2812.87 -1.52922e-13 -183738)
(-541345 43723.6 1.12444e-13 882.066 -7.55546e-14 -134100)
(-1.64558e+06 -777952 -6.33164e-15 261751 1.4169e-15 -343356)
(48905.2 77595.2 1.25621e-13 184.453 -3.29806e-14 12180.2)
(1.55653e+06 49807.8 -1.66212e-14 -3700.3 -8.44046e-16 385289)
(-759261 59078.1 -2.60493e-14 2781.07 -7.55293e-14 -187698)
(-545995 57090.3 1.629e-13 2480.69 8.0149e-14 -134857)
(2.31563e+06 -17957.4 2.69977e-14 -5063.98 1.2018e-14 573297)
(-104500 69015.9 -1.80166e-14 -1605.55 7.22592e-14 -26326.9)
(1.60252e+06 12277.7 4.13215e-14 4675.06 -2.5671e-14 398777)
(-376878 60197.8 5.63684e-14 1552.42 -9.93524e-14 -93125.8)
(-1.32193e+06 89674.6 3.34975e-14 13532.9 -4.36476e-15 -324640)
(-1.24251e+06 56523.8 -2.04616e-14 -7448.23 -1.55555e-15 -310140)
(1.20416e+06 58089.3 -3.87338e-14 1896.68 2.5319e-14 299246)
(-153923 81064.9 -2.45884e-13 6204.61 -1.11897e-13 -36652)
(-3601.52 -41777 2.57688e-16 -65487.3 9.15752e-17 -17142.4)
(-18782.6 73714.6 0 3057.64 0 -3901.68)
(-2.18399e+06 -698011 1.03995e-14 274845 -2.86871e-15 -473698)
(1.64222e+06 -777597 1.23142e-14 -264237 3.87708e-15 341905)
(-1.05775e+06 93703.4 4.33312e-14 -8785.25 -4.20092e-14 -264630)
(367900 57865.4 1.88305e-14 3452.07 7.26594e-14 92139.9)
(511207 53124.4 -6.05358e-14 4578.51 1.37792e-13 127977)
(147307 76265.1 1.21284e-13 -1307.62 3.61115e-14 36225.4)
(-275360 15000.2 7.02889e-14 68.011 -1.08071e-13 -68305.6)
(248334 99830.3 -5.83924e-14 -1591.04 5.3427e-14 61221.9)
(-125903 60332.1 1.72503e-14 809.75 2.64441e-14 -31038.1)
(-113646 108840 1.23307e-14 4570.06 3.57477e-14 -27064)
(-1.79288e+06 1398.65 -5.71014e-15 48464.8 1.35324e-14 -432825)
(14642.2 -24862.5 6.76284e-17 -43408.9 4.19721e-17 -7137.61)
(-624641 99293.8 -2.59653e-16 7782.24 4.88475e-15 -153055)
(491796 54739.4 4.3811e-14 -3154.61 1.35691e-13 121242)
(1.85904e+06 -360076 1.09403e-15 -49048.8 1.41634e-15 449096)
(-55826 59873 -1.12528e-14 -9615.88 -8.74643e-14 -16237.5)
(-62584.6 102189 8.92768e-15 -4311.03 8.53896e-14 -16598.2)
(-35533 89024.2 -1.52771e-15 259.524 -1.30753e-13 -8752.08)
(-91973.2 75274.1 -2.4135e-14 3589.18 3.28794e-14 -21929.9)
(41745.2 87766.8 3.91249e-14 -1551.19 1.0109e-13 9972.94)
(27499.3 89823.8 -9.19648e-14 -264.372 -3.00184e-14 6757.55)
(-1.86311e+06 -357919 4.65692e-15 47342.9 -1.44016e-15 -450529)
(657687 92345 -3.56338e-14 2412.02 1.92716e-14 163784)
(-230798 75001.4 -2.46189e-13 -648.008 -6.98376e-14 -57426.6)
(777395 78797 1.27903e-13 5354.11 -2.16503e-13 194216)
(714040 77643 -1.59779e-15 4733.98 -8.3078e-14 178342)
(653767 75172 -2.37751e-13 2583.7 3.58615e-14 162854)
(112988 43112.5 -1.20309e-13 4000.55 -4.50033e-14 29027.3)
(-1.52449e+06 31208 6.42938e-14 -3934.87 -6.23656e-14 -379232)
(482705 59884 1.30452e-13 -2738.64 1.40741e-14 119089)
(685502 62102.7 -5.90593e-14 -2711.43 -8.44466e-14 169414)
(-131225 74600.9 -2.08508e-13 -346.971 -3.51487e-14 -32645.8)
(971894 101027 1.35697e-14 -12827.4 1.95772e-14 237964)
(187278 57661.3 -8.43681e-14 246.125 5.71393e-14 46528.6)
(-1.94502e+06 22588.1 -2.17182e-14 -2552.38 -8.02763e-15 -483233)
(56748 76456.4 -1.08803e-13 1846.09 -9.15204e-14 14538.4)
(-164951 81787.8 -2.16344e-13 1471.71 1.02144e-13 -40562.5)
(558389 62109.4 1.62576e-13 1158.36 -2.33916e-14 138835)
(512817 62458.1 1.52022e-13 771.82 3.6989e-14 127432)
(469079 60965.3 -1.10271e-13 -1154.2 3.03739e-14 116102)
(1.01286e+06 44871.1 1.63225e-14 65.0742 3.42404e-14 251327)
(223640 81804.3 -7.30121e-14 3221.14 -1.56434e-13 56288.9)
(-560048 67035.7 4.95593e-14 -8679.34 1.10717e-15 -141113)
(-437104 122283 3.01793e-14 3999.47 3.36338e-14 -107462)
(-245790 49919.5 0 1836.94 0 -60529.8)
(-779567 90977.4 -6.68617e-14 -8907.36 2.03519e-14 -195636)
(-851175 93376.9 -1.00518e-13 -9876.98 -6.6378e-15 -213644)
(-924843 96929 -1.00279e-13 -11159.4 4.82976e-14 -232241)
(441703 61006.4 2.07141e-15 7174.96 2.56862e-14 111376)
(301778 66110.2 3.25235e-14 5121.9 -4.07117e-14 76148.2)
(78039.1 6961.54 -9.4553e-14 3947.52 3.41048e-14 20342.6)
(155467 63687.6 0 -1795.34 0 38129)
(199670 51331.2 -1.10723e-13 1774.75 6.60774e-14 49982.6)
(2.25091e+06 -110423 -5.84799e-15 -295517 -2.81883e-15 485173)
(864584 42298.5 1.08824e-13 1307.22 -1.11669e-13 214845)
(-664052 82789.8 0 1285.66 0 -164446)
(-464687 74841.4 -5.39411e-14 9115.47 -2.36827e-15 -113037)
(373632 79013.4 2.88192e-14 -3752.89 -3.56373e-14 91774.5)
(-119098 93592.7 4.81577e-14 -2659.08 3.95037e-14 -30210.3)
(-14807.6 90628.8 1.42046e-13 -3010.17 -1.11908e-13 -4420.96)
(39403.4 64604.5 1.13058e-13 9707.42 -1.78855e-14 12185.4)
(43067.6 64042.6 -5.91181e-14 10629.9 -5.50375e-14 13323.4)
(-4460.81 115321 -2.96094e-15 -3026.6 -2.42535e-14 -1857.78)
(-10395.4 59950.9 -2.64767e-14 -977.192 8.90268e-14 -2821.76)
(437.816 69744.2 -9.92205e-14 -176.722 7.39269e-14 64.7829)
(13421.3 72948.2 9.48125e-14 -14162.2 -4.30631e-14 -183.841)
(165355 50574.1 -7.30648e-15 2461.06 -3.43882e-14 41638.5)
(-304625 116450 -1.71673e-15 2050.53 -1.65717e-14 -75074.9)
(98181.2 73102.4 2.37801e-13 1351.63 -4.67826e-14 24696.1)
(14764.4 112875 9.85378e-15 -18080 1.40338e-14 -822.676)
(-645696 114573 -2.46098e-14 -2994.95 -1.47697e-14 -160953)
(823832 52237.5 8.15625e-14 3817.93 7.27316e-14 205357)
(-354152 84309.5 -9.15041e-14 -382.784 2.99273e-14 -87967.3)
(-1.49049e+06 267606 -4.25481e-15 262949 2.54551e-15 -304577)
(-219281 47802 6.518e-14 -2014.62 7.07679e-14 -54907.9)
(-359484 115978 0 3443.91 0 -88340.7)
(106573 73461.6 1.26903e-13 204.368 -1.75264e-13 26493.7)
(165756 66825.4 6.71047e-15 -376.687 2.17845e-14 41034)
(1.63846e+06 -362287 -1.31849e-15 52542.7 2.30374e-16 419572)
(-2.2687e+06 9248.61 -1.81506e-14 13413.1 8.34159e-15 -559582)
(710881 60030.4 4.00238e-14 4455.29 3.36209e-14 177489)
(774358 59683.8 -4.05326e-14 4750.39 8.82746e-14 193313)
(-234652 81058.1 -3.01108e-13 1190.29 -1.07494e-13 -57926.6)
(164764 102695 5.2928e-14 10944 1.04292e-13 43596.6)
(-36124 69982.5 8.47163e-14 -3030.64 1.28892e-13 -9715.07)
(-928519 -603212 -1.12784e-15 69987.9 4.74826e-16 -213019)
(-2.21064e+06 74460 5.94472e-15 1839.88 7.6806e-15 -548049)
(1.96043e+06 36673.2 3.22942e-14 3429.65 -1.59077e-14 487274)
(-2.83587e+06 -49172.2 -8.37293e-15 -7525.99 -3.60539e-15 -705503)
(913084 54368.4 -3.6658e-14 -6579 -5.69642e-14 224922)