/*--------------------------------*- C++ -*----------------------------------*\
| =========                 |                                                 |
| \\      /  F ield         | OpenFOAM: The Open Source CFD Toolbox           |
|  \\    /   O peration     | Version:  2.3.1                                 |
|   \\  /    A nd           | Web:      www.OpenFOAM.org                      |
|    \\/     M anipulation  |                                                 |
\*---------------------------------------------------------------------------*/
FoamFile
{
    version     2.0;
    format      ascii;
    class       volVectorField;
    location    "2260";
    object      D;
}
// * * * * * * * * * * * * * * * * * * * * * * * * * * * * * * * * * * * * * //

dimensions      [0 1 0 0 0 0 0];

internalField   nonuniform List<vector> 
11800
(
(7.6174e-06 0.000218311 0)
(-9.65659e-06 0.000243136 0)
(5.37809e-06 7.38433e-05 0)
(-6.14913e-06 0.000100305 0)
(-8.82347e-06 0.000242726 0)
(-3.9887e-06 0.0001005 0)
(-1.47445e-06 0.000164041 0)
(-1.40503e-06 0.000126597 0)
(6.43627e-07 1.95697e-05 0)
(1.16244e-06 7.65796e-05 0)
(8.45944e-06 0.000217796 0)
(-7.66716e-06 8.55637e-05 0)
(-7.6372e-09 -6.07911e-09 0)
(4.77902e-06 7.33997e-05 0)
(-5.45548e-06 0.000100725 0)
(5.30501e-06 1.20233e-05 0)
(-8.313e-07 0.000163565 0)
(-8.0634e-07 0.000126145 0)
(3.61105e-07 1.97858e-05 0)
(7.13946e-07 7.62021e-05 0)
(-4.69185e-06 0.000100132 0)
(-7.02637e-06 8.59019e-05 0)
(-1.17118e-06 4.26134e-06 0)
(-1.24988e-06 4.4371e-06 0)
(4.72967e-06 1.37287e-05 0)
(-1.87055e-06 7.05618e-06 0)
(-7.53473e-06 5.11888e-05 0)
(1.08591e-05 0.000147099 0)
(-6.72367e-06 3.88788e-05 0)
(-5.8305e-06 2.79933e-05 0)
(1.14959e-05 0.000185779 0)
(4.695e-08 3.32005e-06 0)
(2.42747e-06 9.06444e-06 0)
(-5.87743e-06 0.000249481 0)
(4.74069e-06 0.000248361 0)
(-1.31253e-05 0.000198347 0)
(4.4152e-06 0.000249215 0)
(2.38877e-06 9.3185e-06 0)
(-1.44177e-06 0.000173218 0)
(1.16458e-06 8.40574e-05 0)
(-7.40821e-06 5.17596e-05 0)
(-6.61744e-06 3.93886e-05 0)
(1.06083e-05 0.000146262 0)
(-5.74517e-06 2.8441e-05 0)
(1.12405e-05 0.000184899 0)
(5.05992e-06 1.21189e-05 0)
(1.34183e-06 5.0433e-06 0)
(1.49628e-06 4.96312e-06 0)
(-2.25658e-06 0.000173365 0)
(1.82014e-06 8.41749e-05 0)
(-1.24874e-05 0.000128267 0)
(-1.33278e-05 0.000165721 0)
(-1.24034e-06 0.000215989 0)
(6.64821e-08 3.1511e-06 0)
(-6.50882e-06 1.43114e-05 0)
(8.88936e-07 7.44916e-07 0)
(-1.63777e-05 0.000252889 0)
(-4.1428e-06 7.11053e-05 0)
(4.69812e-06 0.000103447 0)
(-3.01441e-06 6.83235e-05 0)
(1.77211e-06 2.36925e-06 0)
(-2.12333e-06 0.00021615 0)
(-3.60397e-06 7.09457e-05 0)
(4.09496e-06 0.000103638 0)
(4.4301e-06 1.35196e-05 0)
(-1.56354e-05 0.000223667 0)
(-1.29544e-05 0.00012771 0)
(-1.38734e-05 0.00016511 0)
(-1.55565e-05 0.000252483 0)
(-1.96265e-06 7.28455e-06 0)
(-5.24124e-06 0.000250178 0)
(-9.24036e-06 0.000248829 0)
(-9.50853e-06 0.000247949 0)
(-8.42543e-08 9.54229e-08 0)
(1.89239e-06 2.47066e-06 0)
(-1.23644e-05 0.000198901 0)
(5.79755e-06 1.89454e-05 0)
(-1.58889e-05 0.000224499 0)
(-1.26557e-05 0.000226388 0)
(-1.18249e-05 0.000227141 0)
(-6.2051e-06 1.41164e-05 0)
(9.25969e-07 8.72638e-05 0)
(8.68253e-06 0.000246888 0)
(7.74843e-06 0.00024704 0)
(-1.13914e-06 8.96702e-05 0)
(-5.60034e-06 3.15069e-05 0)
(1.03915e-05 0.000179067 0)
(-6.38484e-06 4.2879e-05 0)
(-7.10177e-06 5.56511e-05 0)
(9.78046e-06 0.000140736 0)
(-2.99331e-07 0.00021134 0)
(2.58112e-06 8.61804e-06 0)
(-7.86745e-06 0.000227841 0)
(1.62198e-05 0.000254817 0)
(2.56607e-06 0.000110454 0)
(-2.03497e-09 -1.54746e-09 0)
(5.25505e-11 -3.28313e-10 0)
(2.03252e-09 -1.54567e-09 0)
(-1.84751e-07 0.000218632 0)
(-7.27887e-06 8.74446e-05 0)
(1.39582e-05 0.00025391 0)
(8.45993e-06 9.6022e-05 0)
(-3.13456e-06 1.25752e-05 0)
(-7.10466e-07 9.71657e-06 0)
(-4.70502e-07 0.000241643 0)
(8.52664e-07 2.04671e-05 0)
(-1.79981e-06 0.000124756 0)
(-1.86851e-06 0.000162003 0)
(2.7474e-06 4.71366e-06 0)
(6.41838e-06 4.28595e-05 0)
(5.6314e-06 3.14892e-05 0)
(7.13844e-06 5.5629e-05 0)
(-1.05652e-05 0.00017909 0)
(-9.94677e-06 0.000140767 0)
(1.50504e-06 7.50293e-05 0)
(2.174e-06 4.29962e-06 0)
(1.54697e-05 0.000224577 0)
(-6.3498e-06 0.000230496 0)
(2.21416e-06 4.14318e-06 0)
(-1.07547e-06 7.75263e-05 0)
(-6.48953e-07 1.90554e-05 0)
(1.40189e-06 0.00016524 0)
(1.33159e-06 0.000127672 0)
(-1.97003e-06 0.0001585 0)
(-7.91867e-06 0.000228695 0)
(-7.07952e-07 0.000217953 0)
(-5.09267e-06 0.000241738 0)
(-1.19673e-06 0.000241084 0)
(-1.75756e-05 0.000261232 0)
(-1.82034e-05 0.000260603 0)
(-5.22589e-07 2.36236e-07 0)
(-2.35788e-06 5.5697e-06 0)
(1.06615e-05 0.000173775 0)
(-6.00827e-06 3.44324e-05 0)
(9.99842e-06 0.000135764 0)
(-6.79905e-06 4.61935e-05 0)
(-7.5213e-06 5.93218e-05 0)
(9.83599e-06 0.000173933 0)
(-5.53751e-06 3.43304e-05 0)
(9.22519e-06 0.000135909 0)
(-6.26792e-06 4.60807e-05 0)
(-6.93508e-06 5.91992e-05 0)
(-1.46998e-06 1.76554e-05 0)
(3.44519e-06 0.000168387 0)
(3.21705e-06 0.000130707 0)
(-2.76331e-06 8.00392e-05 0)
(1.33236e-05 8.78032e-05 0)
(-1.32697e-05 8.59004e-05 0)
(8.32113e-06 9.67139e-05 0)
(-9.93736e-07 1.03085e-05 0)
(-8.75541e-06 0.00021037 0)
(-8.67988e-06 0.000211479 0)
(4.24931e-06 0.000246469 0)
(-9.78968e-06 0.000198622 0)
(3.90702e-06 0.000140667 0)
(4.23628e-06 0.000178974 0)
(-1.09079e-05 0.000157817 0)
(-1.01312e-05 0.000120859 0)
(5.18164e-06 2.25452e-05 0)
(-8.17418e-07 0.000212128 0)
(2.98708e-06 4.79693e-06 0)
(-8.94816e-06 0.000198817 0)
(6.06837e-06 1.9218e-05 0)
(-4.02754e-06 5.79089e-05 0)
(-3.63301e-06 4.49074e-05 0)
(-3.2013e-06 3.3285e-05 0)
(5.43667e-06 0.000137516 0)
(5.79057e-06 0.000175651 0)
(-2.64463e-06 3.29923e-06 0)
(-4.76558e-06 2.16933e-05 0)
(1.01485e-05 0.000159555 0)
(9.41852e-06 0.00012249 0)
(2.25351e-06 0.000161826 0)
(-1.49503e-05 0.000197429 0)
(-1.51009e-05 0.000198606 0)
(5.44708e-06 1.37521e-05 0)
(5.45342e-06 1.41295e-05 0)
(5.94033e-06 4.16274e-05 0)
(6.6212e-06 5.42608e-05 0)
(5.19662e-06 3.04033e-05 0)
(-9.35541e-06 0.000142651 0)
(-9.92533e-06 0.000181105 0)
(3.97482e-06 0.000139792 0)
(4.2599e-06 0.000178074 0)
(4.33894e-06 8.55598e-05 0)
(-2.09519e-06 7.98599e-05 0)
(-1.11972e-06 1.7746e-05 0)
(2.60343e-06 0.000168163 0)
(2.42994e-06 0.000130497 0)
(-3.42439e-06 0.00020751 0)
(-1.17448e-06 3.68638e-05 0)
(-1.32225e-06 4.89469e-05 0)
(-1.28686e-05 0.000221955 0)
(-3.63891e-07 8.46703e-06 0)
(-1.24557e-05 0.000105109 0)
(1.07559e-05 6.98914e-05 0)
(1.27587e-07 1.23811e-07 0)
(-7.70975e-06 0.000249876 0)
(1.53618e-05 0.000225477 0)
(-4.55687e-07 2.74673e-07 0)
(1.01124e-05 0.000236271 0)
(1.26371e-05 0.000202087 0)
(1.35549e-05 0.000202252 0)
(-4.15251e-07 0.000242861 0)
(-1.04853e-06 0.000243636 0)
(7.18919e-06 6.82144e-05 0)
(6.34849e-06 6.85143e-05 0)
(-8.50061e-06 0.000106884 0)
(-7.4915e-06 0.000106512 0)
(5.14199e-07 2.32532e-07 0)
(-1.43604e-06 1.2357e-05 0)
(-1.61993e-06 6.90626e-06 0)
(-3.81227e-08 1.43837e-08 0)
(4.91614e-06 8.17506e-06 0)
(-1.1861e-07 3.77755e-08 0)
(6.352e-07 6.78386e-06 0)
(-8.74222e-06 0.00024159 0)
(-4.28357e-06 3.0756e-05 0)
(-4.88081e-06 4.20408e-05 0)
(-5.43701e-06 5.47247e-05 0)
(8.00732e-06 0.000180387 0)
(7.56457e-06 0.000141992 0)
(5.02055e-07 0.000167853 0)
(4.66365e-07 0.000130205 0)
(-2.34905e-07 1.78724e-05 0)
(-4.42735e-07 7.96239e-05 0)
(-1.74109e-07 2.89616e-08 0)
(6.59586e-07 2.2318e-05 0)
(-1.33443e-06 0.000121085 0)
(-3.98543e-06 7.69283e-05 0)
(9.23326e-07 2.19922e-05 0)
(-1.87112e-06 0.000121721 0)
(-5.98115e-06 0.000228665 0)
(7.40169e-06 8.61812e-05 0)
(6.89515e-06 8.55248e-05 0)
(3.78858e-08 1.43037e-08 0)
(1.73525e-07 2.88731e-08 0)
(-1.15797e-05 0.000212908 0)
(-1.11407e-05 0.000213806 0)
(-1.0998e-05 7.30791e-05 0)
(1.23182e-05 0.000101391 0)
(9.82688e-06 0.000181028 0)
(9.25928e-06 0.000142584 0)
(-5.20725e-06 3.04482e-05 0)
(-5.9553e-06 4.16754e-05 0)
(-6.63816e-06 5.43143e-05 0)
(-3.74023e-07 0.000217086 0)
(-4.40528e-06 2.07596e-05 0)
(9.59272e-06 0.000161537 0)
(8.91606e-06 0.00012433 0)
(5.90811e-06 8.70744e-05 0)
(4.95762e-06 0.000204783 0)
(7.7962e-06 0.000255122 0)
(8.14004e-07 6.68596e-06 0)
(-2.92788e-06 6.90193e-05 0)
(-9.96117e-09 2.48317e-06 0)
(1.18058e-07 3.76217e-08 0)
(2.79224e-06 7.2795e-05 0)
(2.40111e-06 7.20411e-05 0)
(-3.05212e-06 0.000101577 0)
(-2.61711e-06 0.000102321 0)
(5.40826e-06 5.47076e-05 0)
(4.85561e-06 4.20255e-05 0)
(4.25214e-06 3.07479e-05 0)
(-7.61651e-06 0.000141992 0)
(-8.0842e-06 0.000180411 0)
(-4.29077e-06 0.000249951 0)
(1.49318e-06 1.83493e-06 0)
(-1.52972e-08 0.000144185 0)
(-2.21647e-08 2.9452e-05 0)
(5.66371e-06 0.000241217 0)
(4.63903e-06 8.49456e-05 0)
(-1.80216e-05 0.00023837 0)
(5.33226e-06 8.76978e-05 0)
(2.13499e-07 1.57968e-07 0)
(1.47957e-05 0.000195002 0)
(1.48813e-05 0.000193912 0)
(-9.0894e-06 0.000124488 0)
(-9.77788e-06 0.0001617 0)
(-8.122e-06 0.000124176 0)
(-8.73942e-06 0.000161368 0)
(4.42971e-06 2.06832e-05 0)
(3.97061e-06 2.08194e-05 0)
(4.40279e-06 0.000114424 0)
(5.24005e-06 0.000114292 0)
(4.76973e-06 0.000150856 0)
(5.67894e-06 0.000150711 0)
(-2.47558e-06 2.59233e-05 0)
(-2.9472e-06 2.6007e-05 0)
(-5.24871e-07 1.17148e-05 0)
(2.62738e-06 7.48905e-06 0)
(2.4598e-06 7.23131e-06 0)
(2.51395e-06 5.48015e-06 0)
(4.23649e-06 0.000205659 0)
(-1.47103e-05 0.00019536 0)
(-1.47889e-05 0.000194229 0)
(5.6232e-06 1.53503e-05 0)
(5.51333e-06 1.49152e-05 0)
(1.16883e-05 8.78226e-05 0)
(1.18451e-05 8.87999e-05 0)
(-1.16353e-05 8.58331e-05 0)
(-1.16974e-05 8.48717e-05 0)
(5.24627e-06 0.000246304 0)
(-1.44371e-05 0.000249503 0)
(-1.38771e-05 0.000210191 0)
(3.33338e-06 3.78859e-06 0)
(-8.48641e-06 0.000246385 0)
(-7.57975e-06 0.000245544 0)
(3.57897e-06 0.000115723 0)
(-2.24388e-06 0.000104081 0)
(1.97523e-06 7.05657e-05 0)
(-9.9793e-06 8.81486e-05 0)
(9.74975e-06 8.54247e-05 0)
(-4.79168e-06 1.50867e-05 0)
(-1.42028e-07 9.07567e-08 0)
(7.57715e-07 3.12106e-06 0)
(8.80415e-07 7.52654e-05 0)
(-8.41246e-06 7.57944e-05 0)
(9.00934e-06 9.81619e-05 0)
(-4.85282e-06 6.90468e-05 0)
(5.72199e-06 0.00010589 0)
(2.88199e-06 0.000183833 0)
(3.98274e-06 0.00018344 0)
(-1.73437e-06 3.99292e-05 0)
(-2.39047e-06 4.01684e-05 0)
(-1.93995e-06 5.2379e-05 0)
(-2.67247e-06 5.2645e-05 0)
(4.55603e-07 2.03279e-05 0)
(-9.90213e-07 0.000125033 0)
(-1.00175e-06 0.000162318 0)
(-1.61282e-06 0.000237221 0)
(2.29885e-06 5.44544e-06 0)
(-4.64865e-07 0.000101429 0)
(-6.86267e-06 0.000243148 0)
(9.58014e-07 7.72605e-07 0)
(6.11072e-06 0.000144871 0)
(-3.36669e-06 2.913e-05 0)
(-1.03901e-05 0.000102496 0)
(-9.75948e-06 0.000101988 0)
(9.08189e-06 7.20568e-05 0)
(8.55976e-06 7.24916e-05 0)
(-1.02705e-05 0.000253521 0)
(-1.03834e-05 0.000252437 0)
(-1.72445e-06 1.17877e-05 0)
(-2.04401e-06 1.17432e-05 0)
(8.29637e-07 3.27053e-06 0)
(-1.97329e-06 3.39348e-06 0)
(4.69751e-07 0.0001064 0)
(3.00276e-06 2.10583e-05 0)
(2.52374e-06 2.11919e-05 0)
(-6.11473e-06 0.000123637 0)
(-5.1292e-06 0.000123346 0)
(-6.5811e-06 0.000160796 0)
(-5.52138e-06 0.000160485 0)
(-1.33162e-05 0.000203447 0)
(-1.23236e-05 0.000203528 0)
(-2.9459e-06 6.18236e-05 0)
(-2.72798e-06 4.84374e-05 0)
(-2.42134e-06 3.64119e-05 0)
(4.19098e-06 0.000189896 0)
(-7.37082e-07 0.000214986 0)
(8.7706e-06 8.53431e-05 0)
(8.30304e-06 8.60801e-05 0)
(3.86658e-06 0.000164391 0)
(3.70114e-06 0.000126933 0)
(-1.77831e-06 1.94201e-05 0)
(1.65908e-06 2.17329e-05 0)
(1.36358e-06 2.21541e-05 0)
(-3.03143e-06 0.000158469 0)
(-3.60365e-06 0.000159281 0)
(-3.34257e-06 0.000122245 0)
(-2.72699e-06 0.000121414 0)
(-3.53031e-06 1.99306e-05 0)
(7.29665e-06 0.000125962 0)
(7.8403e-06 0.000163295 0)
(-9.74111e-08 9.28394e-07 0)
(1.30351e-05 9.73072e-05 0)
(-1.20213e-05 7.68025e-05 0)
(-5.51038e-08 8.63965e-07 0)
(-3.93891e-06 0.000180992 0)
(-4.61677e-06 0.000181983 0)
(-3.61742e-06 0.000142619 0)
(-4.23353e-06 0.000143559 0)
(2.31152e-06 2.98369e-05 0)
(1.98961e-06 3.03582e-05 0)
(2.72553e-06 4.10434e-05 0)
(2.33739e-06 4.16368e-05 0)
(3.04117e-06 5.362e-05 0)
(2.60512e-06 5.42815e-05 0)
(1.46508e-05 0.000203838 0)
(1.49239e-05 0.00020487 0)
(-1.40675e-06 6.96258e-06 0)
(5.4933e-06 0.000145589 0)
(-3.00712e-06 2.87297e-05 0)
(4.87301e-06 2.27384e-05 0)
(-9.48489e-06 0.00012046 0)
(-1.02363e-05 0.000157365 0)
(-1.38288e-07 4.20772e-08 0)
(1.88899e-06 0.000212406 0)
(4.81322e-06 2.16972e-05 0)
(-9.61608e-06 0.000122486 0)
(-1.03703e-05 0.000159516 0)
(3.67914e-06 6.35989e-06 0)
(-7.25616e-06 0.000230165 0)
(4.62532e-06 1.73333e-05 0)
(-1.14482e-05 0.000189081 0)
(-2.48713e-06 9.3407e-06 0)
(-2.65291e-06 9.6822e-06 0)
(2.59507e-06 9.58132e-06 0)
(-1.25241e-06 0.000101272 0)
(-9.75398e-09 -7.17647e-09 0)
(-7.70426e-06 0.000252136 0)
(-1.23974e-07 4.94255e-08 0)
(1.37584e-07 4.18873e-08 0)
(-3.62309e-06 2.1021e-05 0)
(7.82497e-06 0.000160914 0)
(7.26928e-06 0.000123748 0)
(6.02106e-06 0.00021274 0)
(-1.73521e-05 0.000228201 0)
(2.21678e-06 9.4823e-05 0)
(-1.44764e-06 9.23558e-05 0)
(-4.02763e-07 9.77283e-06 0)
(-1.12835e-06 1.18905e-06 0)
(-7.04099e-09 -6.33915e-09 0)
(-4.35402e-06 6.96885e-05 0)
(5.12847e-06 0.000105152 0)
(3.83852e-07 1.34815e-07 0)
(-5.90316e-07 9.10023e-05 0)
(-5.57651e-07 9.01272e-05 0)
(-2.66098e-08 7.64596e-05 0)
(-1.10237e-07 1.96669e-05 0)
(1.79712e-07 0.000126389 0)
(1.59561e-07 0.000163888 0)
(-3.86258e-07 1.3563e-07 0)
(1.56792e-06 1.0568e-05 0)
(-5.99835e-06 0.000186011 0)
(3.4469e-06 3.86689e-05 0)
(3.86389e-06 5.09668e-05 0)
(4.24161e-06 6.45865e-05 0)
(1.25615e-05 0.000242042 0)
(-4.69656e-06 1.88133e-05 0)
(1.07741e-05 0.00016592 0)
(1.00472e-05 0.000128415 0)
(-7.14488e-06 0.000223317 0)
(1.05977e-06 2.72955e-06 0)
(9.5985e-06 0.000219181 0)
(-2.107e-06 3.34239e-06 0)
(6.72118e-06 0.000243002 0)
(-5.1727e-06 0.000186031 0)
(2.96635e-06 3.86523e-05 0)
(3.32533e-06 5.09494e-05 0)
(3.65278e-06 6.45639e-05 0)
(9.2565e-07 2.58726e-06 0)
(4.42866e-06 0.000149262 0)
(-2.33952e-06 2.67509e-05 0)
(-7.9831e-07 1.05244e-05 0)
(-1.26341e-05 0.000219958 0)
(-4.73208e-06 5.81223e-05 0)
(-4.26991e-06 4.51015e-05 0)
(-3.7641e-06 3.3458e-05 0)
(6.34799e-06 0.000137292 0)
(6.76193e-06 0.000175411 0)
(1.73186e-05 0.000256487 0)
(1.0076e-05 0.000225165 0)
(1.11729e-05 0.00022478 0)
(1.44288e-07 1.01784e-07 0)
(6.29285e-06 6.93006e-05 0)
(-7.37339e-06 0.000105579 0)
(-3.22015e-06 7.02856e-05 0)
(3.72938e-06 0.000104485 0)
(-1.09096e-06 0.000112505 0)
(-8.30901e-07 0.000182169 0)
(5.14518e-07 5.34822e-05 0)
(4.61275e-07 4.09177e-05 0)
(2.08111e-08 2.88475e-05 0)
(-1.9101e-07 0.000109344 0)
(-9.28536e-08 0.000145322 0)
(7.91873e-06 0.000256141 0)
(4.53617e-07 1.08387e-05 0)
(-2.00759e-07 2.51967e-06 0)
(1.5084e-06 0.000154239 0)
(7.64513e-08 2.60549e-06 0)
(-1.19641e-06 8.10509e-06 0)
(2.96389e-06 2.87774e-05 0)
(-5.55777e-06 0.000145494 0)
(-1.12961e-07 1.2598e-07 0)
(-1.1703e-05 0.000219856 0)
(-9.9255e-07 1.92926e-05 0)
(2.06445e-06 0.000164759 0)
(2.04958e-06 0.000127178 0)
(2.69995e-07 6.48515e-08 0)
(-3.53271e-06 6.46475e-06 0)
(3.84647e-06 5.22227e-05 0)
(3.43903e-06 3.97922e-05 0)
(-5.89921e-06 0.000184098 0)
(1.13268e-06 7.24396e-05 0)
(-7.92235e-06 0.000248899 0)
(-1.35811e-07 1.90523e-08 0)
(-4.61703e-06 1.00957e-05 0)
(2.99347e-06 5.57173e-06 0)
(-3.02639e-06 3.33991e-06 0)
(8.82896e-06 8.68979e-05 0)
(6.70193e-06 0.0001056 0)
(-5.79079e-06 6.92771e-05 0)
(4.10553e-07 2.85544e-05 0)
(-9.71385e-07 0.000109756 0)
(-8.1457e-07 0.000145861 0)
(8.3944e-06 0.000216699 0)
(7.83996e-06 9.51333e-05 0)
(4.06139e-06 0.000250817 0)
(3.91208e-06 0.00025175 0)
(1.12948e-06 0.00010511 0)
(1.55055e-06 7.18999e-05 0)
(1.35346e-07 1.89942e-08 0)
(-1.13109e-05 0.000196558 0)
(4.16338e-06 1.43944e-05 0)
(1.43425e-08 2.019e-07 0)
(2.15282e-06 0.000140598 0)
(2.8171e-06 0.000141083 0)
(3.93767e-09 1.76867e-08 0)
(-2.20056e-06 5.39214e-06 0)
(5.38829e-06 5.30919e-05 0)
(4.82473e-06 4.05748e-05 0)
(4.21195e-06 2.9431e-05 0)
(-7.71339e-06 0.000144195 0)
(-8.17508e-06 0.000182821 0)
(7.12891e-06 9.05665e-05 0)
(1.02624e-06 0.000212633 0)
(-4.61643e-06 0.000239684 0)
(-4.37152e-06 0.000240945 0)
(-4.57685e-07 0.000185108 0)
(-3.94457e-07 0.00018612 0)
(3.09163e-07 3.85661e-05 0)
(2.8114e-07 3.91337e-05 0)
(3.4625e-07 5.08561e-05 0)
(3.14468e-07 5.14912e-05 0)
(2.23018e-07 6.44635e-05 0)
(2.68695e-07 6.51413e-05 0)
(5.50205e-07 0.000105459 0)
(1.01964e-06 0.000107142 0)
(1.77679e-06 0.000162852 0)
(-4.67066e-07 0.000112231 0)
(-2.70975e-07 6.5074e-08 0)
(-3.02793e-07 2.40335e-06 0)
(3.89943e-06 0.000148474 0)
(-2.0802e-06 2.71636e-05 0)
(1.05369e-06 3.33261e-06 0)
(1.52503e-05 0.000243228 0)
(-1.17673e-06 0.000186929 0)
(7.20802e-07 3.81344e-05 0)
(8.0852e-07 5.03725e-05 0)
(7.94304e-07 6.39033e-05 0)
(-1.16784e-05 0.000204495 0)
(4.02983e-06 7.3606e-05 0)
(5.93931e-06 0.000258126 0)
(6.71838e-06 0.000257553 0)
(-1.18909e-06 8.35627e-06 0)
(-7.54617e-07 0.000143433 0)
(3.86987e-07 2.98701e-05 0)
(1.77188e-07 1.83068e-07 0)
(1.49642e-05 0.000250068 0)
(-2.11201e-07 4.23762e-06 0)
(-2.85038e-06 4.32486e-05 0)
(-3.1688e-06 5.60719e-05 0)
(-3.7896e-06 5.66573e-05 0)
(-3.41199e-06 4.37772e-05 0)
(-2.47355e-06 3.18083e-05 0)
(-2.99047e-06 3.22869e-05 0)
(4.94693e-06 0.000139223 0)
(5.26544e-06 0.000177475 0)
(2.19808e-06 3.02427e-06 0)
(-1.4211e-07 8.68923e-08 0)
(-1.29402e-05 0.000169399 0)
(-1.34782e-05 0.00024956 0)
(4.39241e-06 0.000107059 0)
(-3.86899e-07 4.33592e-06 0)
(-7.01113e-06 0.000138972 0)
(-7.45615e-06 0.000177199 0)
(4.02835e-06 3.24815e-05 0)
(4.57914e-06 4.39941e-05 0)
(5.08304e-06 5.68945e-05 0)
(6.47123e-06 0.000213443 0)
(1.47142e-05 0.000250954 0)
(-7.96981e-06 8.76743e-05 0)
(3.30135e-06 2.9122e-05 0)
(-6.16166e-06 0.000144865 0)
(4.20216e-06 0.000107886 0)
(-1.61405e-06 7.70534e-05 0)
(4.26061e-06 5.2665e-05 0)
(3.81223e-06 4.01893e-05 0)
(-6.5012e-06 0.000183438 0)
(-1.18427e-05 8.86748e-05 0)
(1.15324e-05 8.50448e-05 0)
(1.15311e-05 8.59873e-05 0)
(-1.16881e-05 8.76741e-05 0)
(-5.53614e-06 1.49072e-05 0)
(-5.69735e-06 1.53687e-05 0)
(-5.50028e-06 8.59757e-05 0)
(-2.85162e-06 3.41983e-06 0)
(-8.8915e-06 8.66307e-05 0)
(-1.30644e-06 0.000205675 0)
(-1.16825e-06 1.41097e-06 0)
(8.94988e-06 5.07001e-05 0)
(7.98106e-06 3.84479e-05 0)
(-1.25619e-05 0.000129378 0)
(2.0306e-06 5.26979e-05 0)
(1.81718e-06 4.02152e-05 0)
(-3.12741e-06 0.000183355 0)
(4.2293e-06 1.2867e-05 0)
(6.93294e-06 0.00010475 0)
(-6.03028e-06 7.00166e-05 0)
(-3.36444e-06 3.80674e-06 0)
(3.5477e-06 0.0001635 0)
(3.39364e-06 0.000126136 0)
(-1.65023e-06 1.98015e-05 0)
(1.03114e-05 0.00015444 0)
(-5.12388e-06 2.41781e-05 0)
(9.5314e-06 0.000117752 0)
(-5.85675e-06 1.47099e-05 0)
(7.2579e-06 0.000240165 0)
(8.32613e-06 0.000239815 0)
(8.02248e-06 0.000182826 0)
(7.60841e-06 0.00014421 0)
(-4.21336e-06 2.95148e-05 0)
(-4.80384e-06 4.05708e-05 0)
(-5.36579e-06 5.30875e-05 0)
(-1.23095e-06 1.2235e-06 0)
(-6.39541e-06 0.000223089 0)
(6.96306e-06 0.00014262 0)
(-3.91612e-06 3.03954e-05 0)
(-7.48307e-07 9.40902e-07 0)
(5.94249e-06 0.000242845 0)
(1.48494e-06 1.23084e-06 0)
(1.23211e-06 9.33851e-07 0)
(3.11082e-06 4.46341e-06 0)
(7.18822e-06 0.000195377 0)
(-1.22039e-05 0.00020073 0)
(1.62179e-05 0.000243537 0)
(3.14987e-06 4.69103e-06 0)
(7.13796e-06 9.51045e-05 0)
(9.75895e-06 0.000207102 0)
(-1.57118e-05 0.00019588 0)
(5.85423e-06 1.47418e-05 0)
(-3.6171e-06 0.000208398 0)
(1.46873e-06 5.28606e-05 0)
(1.31483e-06 4.03606e-05 0)
(-2.27477e-06 0.000183106 0)
(-5.5647e-07 2.69113e-06 0)
(4.16176e-06 0.00011292 0)
(1.22589e-07 4.89152e-08 0)
(-4.88142e-06 9.99848e-06 0)
(-8.61307e-07 9.29263e-05 0)
(-2.18071e-06 1.80998e-05 0)
(-2.53713e-06 1.82186e-05 0)
(4.73133e-06 0.000129766 0)
(5.4945e-06 0.000129526 0)
(5.88788e-06 0.00016712 0)
(5.06947e-06 0.000167378 0)
(1.43886e-07 5.45434e-07 0)
(-3.96452e-08 6.75372e-06 0)
(-8.53958e-06 0.000116664 0)
(-9.24648e-06 0.000153266 0)
(4.60024e-06 2.47464e-05 0)
(-2.72197e-06 1.47716e-05 0)
(-1.60857e-06 0.000157565 0)
(-2.47404e-06 6.35219e-06 0)
(4.96843e-06 0.000240547 0)
(-4.04182e-06 7.92249e-05 0)
(-4.68154e-06 7.90267e-05 0)
(1.41348e-07 1.44926e-07 0)
(-2.68094e-06 8.19207e-05 0)
(-1.37349e-06 1.66585e-05 0)
(3.09933e-06 0.000132927 0)
(3.31338e-06 0.00017076 0)
(-3.74459e-06 0.00015759 0)
(-3.30035e-06 0.000120608 0)
(1.67239e-06 2.25742e-05 0)
(2.23958e-06 8.51406e-06 0)
(2.0802e-06 8.20619e-06 0)
(1.0628e-06 7.89951e-05 0)
(-1.40171e-06 0.000167059 0)
(-1.31567e-06 0.000129447 0)
(5.78407e-07 1.8223e-05 0)
(-1.29556e-06 3.13072e-05 0)
(-2.32972e-06 6.52886e-06 0)
(9.26659e-06 0.00024618 0)
(-9.07198e-06 0.000147576 0)
(7.00119e-06 6.97415e-05 0)
(-8.16538e-06 0.000105085 0)
(9.87842e-06 0.000208033 0)
(-9.14972e-06 6.41355e-05 0)
(-8.3457e-06 5.05514e-05 0)
(1.11249e-05 0.000111818 0)
(-7.43899e-06 3.83131e-05 0)
(-6.45017e-06 2.75184e-05 0)
(1.21317e-05 0.000148035 0)
(1.28173e-05 0.000186815 0)
(-3.34335e-06 0.000178802 0)
(-3.14859e-06 0.000140476 0)
(2.00977e-06 4.29707e-05 0)
(1.76462e-06 3.15747e-05 0)
(2.23457e-06 5.57645e-05 0)
(1.92145e-06 4.35852e-05 0)
(-3.1761e-06 0.000177805 0)
(2.13404e-06 5.64466e-05 0)
(1.68952e-06 3.21154e-05 0)
(-2.98926e-06 0.000139537 0)
(-1.77142e-06 0.000226582 0)
(-3.63424e-06 4.78719e-06 0)
(-3.91887e-06 2.23614e-05 0)
(8.20045e-06 0.000158083 0)
(7.60177e-06 0.00012112 0)
(-2.46116e-06 3.0073e-05 0)
(4.41249e-06 0.000143164 0)
(1.21676e-05 0.000177177 0)
(1.14378e-05 0.000138962 0)
(-6.66144e-06 3.25667e-05 0)
(-7.57301e-06 4.4077e-05 0)
(-8.40592e-06 5.69756e-05 0)
(1.28192e-05 0.000193301 0)
(1.39926e-05 0.000193056 0)
(3.17354e-07 5.7666e-06 0)
(-1.30846e-06 9.14144e-05 0)
(-3.51097e-06 9.74837e-06 0)
(1.80271e-07 3.40322e-07 0)
(-3.45317e-06 1.23701e-05 0)
(-5.56443e-07 0.000206084 0)
(1.4172e-07 5.5196e-06 0)
(-2.83444e-06 9.79232e-05 0)
(1.16342e-05 0.000129455 0)
(-5.35928e-06 1.83704e-05 0)
(1.24656e-05 0.000167029 0)
(-1.19534e-08 -8.28156e-09 0)
(7.6615e-07 0.000154386 0)
(2.26919e-07 9.57807e-08 0)
(1.54825e-07 1.1504e-07 0)
(2.05834e-06 0.000111118 0)
(-2.5947e-07 2.11503e-07 0)
(9.47048e-06 0.000248015 0)
(6.97637e-07 0.000141043 0)
(-3.88276e-07 3.12125e-05 0)
(2.09753e-06 1.25912e-05 0)
(1.29549e-06 0.000140607 0)
(-7.47989e-07 3.14396e-05 0)
(-1.28617e-07 2.80233e-06 0)
(-8.96129e-06 5.06752e-05 0)
(-7.98957e-06 3.84264e-05 0)
(-6.92864e-06 2.76248e-05 0)
(-5.77366e-06 1.84146e-05 0)
(1.25246e-05 0.000129406 0)
(1.30119e-05 0.000147874 0)
(1.34199e-05 0.000166974 0)
(1.37523e-05 0.000186646 0)
(-6.10496e-06 0.000201321 0)
(-5.42645e-06 0.00023922 0)
(-1.75092e-05 0.000197658 0)
(6.38786e-06 1.41199e-05 0)
(3.98155e-06 0.000253569 0)
(4.63339e-06 0.000252479 0)
(1.23236e-06 0.000137508 0)
(1.33626e-06 0.000175665 0)
(-9.72875e-07 5.79762e-05 0)
(-8.77318e-07 4.49649e-05 0)
(-7.72738e-07 3.33318e-05 0)
(-5.0836e-06 1.4749e-05 0)
(1.8485e-06 1.05889e-05 0)
(-6.82845e-06 6.07236e-05 0)
(8.96301e-06 0.000133854 0)
(-6.18467e-06 4.74612e-05 0)
(-5.47963e-06 3.55536e-05 0)
(9.5715e-06 0.000171742 0)
(-3.86175e-06 1.63393e-05 0)
(9.69071e-06 0.00019157 0)
(1.62784e-06 8.75758e-05 0)
(-1.03067e-06 0.000213907 0)
(1.02319e-06 5.1279e-07 0)
(-7.57229e-07 0.000187914 0)
(4.7568e-07 3.75688e-05 0)
(5.33982e-07 4.97385e-05 0)
(4.93608e-07 6.32057e-05 0)
(3.02379e-06 0.000221586 0)
(-4.24174e-07 2.70497e-07 0)
(1.53814e-05 0.000218049 0)
(-2.32987e-06 9.27938e-05 0)
(-7.16872e-08 1.55583e-07 0)
(5.50154e-06 0.000131781 0)
(-2.46155e-06 1.71899e-05 0)
(5.8851e-06 0.000169533 0)
(1.23528e-07 9.70812e-08 0)
(-3.301e-06 2.07256e-05 0)
(6.67077e-06 0.000124322 0)
(7.17745e-06 0.000161534 0)
(1.15123e-06 1.52114e-06 0)
(-4.71395e-06 8.09658e-05 0)
(9.84111e-07 8.65433e-05 0)
(-1.06724e-05 0.000232994 0)
(9.71882e-07 0.000138254 0)
(1.03595e-06 0.00017644 0)
(-8.23055e-07 5.74206e-05 0)
(-6.5098e-07 3.2891e-05 0)
(-7.41517e-07 4.44629e-05 0)
(1.57624e-06 8.82203e-05 0)
(-2.27413e-07 8.69885e-07 0)
(-2.02004e-07 2.94875e-06 0)
(4.5518e-07 0.000205749 0)
(1.05123e-05 9.48248e-05 0)
(-9.89459e-06 7.90326e-05 0)
(-7.4946e-06 0.000260643 0)
(-1.69997e-05 0.000170565 0)
(-1.59095e-05 0.000132773 0)
(-1.65025e-05 0.000151356 0)
(-1.52181e-05 0.000114924 0)
(8.41968e-06 2.58859e-05 0)
(9.76609e-06 3.64002e-05 0)
(1.09988e-05 4.83881e-05 0)
(1.21242e-05 6.17224e-05 0)
(1.69436e-05 0.000170563 0)
(1.6447e-05 0.000151356 0)
(-8.44766e-06 2.58877e-05 0)
(-9.79919e-06 3.64028e-05 0)
(1.58546e-05 0.000132773 0)
(-1.10375e-05 4.839e-05 0)
(1.51664e-05 0.000114923 0)
(-1.21673e-05 6.17246e-05 0)
(-4.89354e-06 1.43382e-05 0)
(-2.64567e-06 0.000213453 0)
(-1.89047e-06 0.000213251 0)
(-2.349e-06 0.000241659 0)
(3.86616e-06 0.000146652 0)
(-2.10221e-06 2.81394e-05 0)
(-7.60392e-07 1.12902e-06 0)
(-3.03598e-06 0.000255367 0)
(-3.34558e-06 5.53352e-05 0)
(-4.09651e-06 5.51278e-05 0)
(-3.00602e-06 4.25855e-05 0)
(-3.67963e-06 4.24003e-05 0)
(4.89826e-06 0.00017975 0)
(5.88593e-06 0.000179834 0)
(1.29522e-05 0.000176718 0)
(1.21716e-05 0.000138533 0)
(-7.11791e-06 3.28336e-05 0)
(-8.08625e-06 4.43769e-05 0)
(-8.97099e-06 5.73057e-05 0)
(-7.871e-06 0.000117073 0)
(-8.51948e-06 0.00015371 0)
(4.21559e-06 2.45111e-05 0)
(-2.48363e-06 0.000104908 0)
(2.09185e-06 6.98578e-05 0)
(2.54548e-06 0.000184819 0)
(-1.51735e-06 3.92848e-05 0)
(-1.69946e-06 5.16593e-05 0)
(-1.83852e-06 6.52113e-05 0)
(4.85599e-06 6.90293e-05 0)
(4.11305e-06 6.9205e-05 0)
(-5.71503e-06 0.000105864 0)
(-4.84106e-06 0.000105648 0)
(-5.7437e-06 0.00025346 0)
(3.92485e-07 1.08434e-06 0)
(9.51676e-06 0.000218286 0)
(3.43638e-06 7.66344e-05 0)
(9.33517e-06 0.000151198 0)
(-4.8046e-06 2.5804e-05 0)
(8.60597e-06 0.000114754 0)
(-8.0384e-06 9.18048e-05 0)
(1.96092e-06 1.95563e-05 0)
(-4.48115e-06 0.000164043 0)
(-4.17535e-06 0.000126656 0)
(5.46953e-07 7.97211e-05 0)
(-7.04894e-07 0.000130306 0)
(-7.48424e-07 0.000167975 0)
(2.94817e-07 1.78258e-05 0)
(5.40571e-06 7.22357e-05 0)
(-6.17922e-06 0.000102168 0)
(-2.95926e-06 0.000226579 0)
(-1.36537e-05 0.000224419 0)
(2.43268e-06 9.74838e-05 0)
(6.12679e-06 9.77884e-05 0)
(-5.02853e-06 1.9007e-05 0)
(1.14804e-05 0.000165511 0)
(1.07027e-05 0.000128036 0)
(-5.61878e-07 2.39353e-06 0)
(-1.85894e-06 0.000189214 0)
(1.02798e-06 3.68177e-05 0)
(1.15642e-06 4.88954e-05 0)
(1.26429e-06 6.22871e-05 0)
(-2.84006e-06 9.23426e-05 0)
(-1.2657e-05 0.000224495 0)
(-3.67966e-06 3.68621e-05 0)
(-4.14128e-06 4.89401e-05 0)
(-4.54707e-06 6.23609e-05 0)
(6.43196e-06 0.000189149 0)
(1.19718e-08 1.58157e-08 0)
(7.93781e-06 9.10729e-05 0)
(1.00157e-07 7.19807e-06 0)
(-3.84514e-07 6.74913e-07 0)
(-7.97733e-07 3.09497e-06 0)
(-3.8027e-06 1.31891e-05 0)
(-3.92983e-07 1.44823e-07 0)
(1.56537e-06 4.15937e-05 0)
(1.37641e-06 3.03446e-05 0)
(1.74463e-06 5.42344e-05 0)
(-2.65783e-06 0.000181053 0)
(-2.51913e-06 0.000142632 0)
(-7.74452e-06 7.56317e-05 0)
(8.35673e-06 9.83733e-05 0)
(-7.78457e-07 4.60806e-07 0)
(1.01194e-05 0.000240246 0)
(7.29477e-06 0.000215011 0)
(-1.55829e-05 0.000202424 0)
(5.76961e-06 9.70368e-05 0)
(2.07151e-06 0.00010535 0)
(-3.93371e-06 0.000255252 0)
(-1.09398e-05 0.000110346 0)
(-1.04068e-05 0.000109862 0)
(1.5359e-05 0.000255177 0)
(-1.245e-06 0.000227705 0)
(-3.47848e-06 6.95774e-05 0)
(4.14397e-06 0.000105329 0)
(1.24906e-07 7.44967e-06 0)
(1.93934e-06 2.63983e-06 0)
(3.89875e-07 1.43702e-07 0)
(3.6607e-06 0.000112186 0)
(1.35345e-05 0.0002604 0)
(-7.43857e-06 0.000181084 0)
(-7.00593e-06 0.000142628 0)
(3.88258e-06 3.03807e-05 0)
(4.9522e-06 5.42465e-05 0)
(4.44279e-06 4.16099e-05 0)
(-1.43136e-07 1.00718e-07 0)
(-5.71398e-07 0.000236978 0)
(6.9489e-06 9.80752e-05 0)
(-6.35551e-06 7.60145e-05 0)
(-1.11386e-05 0.000231249 0)
(-1.6628e-05 0.000171435 0)
(-1.6145e-05 0.000152196 0)
(-1.55716e-05 0.000133585 0)
(-1.48999e-05 0.000115701 0)
(8.16366e-06 2.5444e-05 0)
(9.48436e-06 3.58905e-05 0)
(1.06936e-05 4.7816e-05 0)
(1.17979e-05 6.10934e-05 0)
(1.65703e-05 0.000171429 0)
(1.60896e-05 0.000152196 0)
(-8.19095e-06 2.54474e-05 0)
(-9.51628e-06 3.58944e-05 0)
(1.55147e-05 0.000133582 0)
(-1.07309e-05 4.78195e-05 0)
(1.48468e-05 0.000115697 0)
(-1.18395e-05 6.10974e-05 0)
(-2.47275e-06 3.33557e-06 0)
(9.72818e-07 9.21699e-07 0)
(-1.3026e-06 2.39611e-06 0)
(6.18609e-06 9.62407e-05 0)
(-6.81588e-06 9.90822e-05 0)
(1.24027e-06 1.50469e-06 0)
(-1.9315e-07 3.22769e-08 0)
(-1.49852e-05 0.00020291 0)
(8.55515e-06 0.000257781 0)
(9.60302e-06 0.000258266 0)
(1.92557e-07 3.21908e-08 0)
(2.79014e-06 3.7405e-06 0)
(1.34078e-05 0.000234731 0)
(-5.12473e-06 0.000109476 0)
(-3.42156e-07 3.0192e-07 0)
(-7.73557e-07 1.20833e-06 0)
(-1.2103e-07 3.09728e-08 0)
(2.2634e-07 1.77278e-07 0)
(1.39075e-05 8.73643e-05 0)
(-1.39032e-05 8.63601e-05 0)
(4.26404e-06 6.59935e-05 0)
(-5.25274e-06 0.000107485 0)
(4.42708e-06 6.76779e-05 0)
(-2.34902e-07 3.98983e-06 0)
(-3.2351e-06 0.0001714 0)
(2.5456e-06 8.24587e-05 0)
(-1.81166e-06 0.000169549 0)
(-1.73522e-06 0.000131697 0)
(7.45686e-07 1.7199e-05 0)
(1.39354e-06 8.09724e-05 0)
(-5.71414e-06 0.000108921 0)
(2.97331e-06 3.9622e-06 0)
(4.77746e-06 6.64887e-05 0)
(1.76227e-06 9.76321e-05 0)
(1.34743e-05 0.000242384 0)
(-4.13207e-06 9.84323e-05 0)
(-4.7489e-06 9.90973e-05 0)
(-3.90054e-06 8.37197e-06 0)
(-4.60524e-06 0.000102226 0)
(-3.9404e-06 0.000101521 0)
(4.08379e-06 7.21179e-05 0)
(3.58547e-06 7.28247e-05 0)
(-4.35808e-06 2.02922e-05 0)
(8.93277e-06 0.00012528 0)
(9.60328e-06 0.000162558 0)
(-1.21318e-06 1.3589e-06 0)
(-5.72494e-06 0.000108052 0)
(4.81046e-06 6.7226e-05 0)
(-3.65023e-06 0.000138824 0)
(-3.88144e-06 0.000177047 0)
(2.08532e-06 3.2534e-05 0)
(2.62977e-06 5.69718e-05 0)
(2.36962e-06 4.40594e-05 0)
(-1.92593e-06 9.04049e-06 0)
(-1.19304e-05 0.000146358 0)
(-1.13064e-05 0.000145898 0)
(6.368e-06 2.84057e-05 0)
(6.05669e-06 2.86511e-05 0)
(7.84703e-06 0.000116325 0)
(8.62889e-06 0.000115756 0)
(-4.29824e-06 2.49194e-05 0)
(-4.7583e-06 2.52476e-05 0)
(8.50017e-06 0.000152902 0)
(9.35171e-06 0.000152283 0)
(-3.43984e-06 0.000225751 0)
(6.81838e-06 0.000206218 0)
(6.9168e-06 0.000205259 0)
(-5.09698e-06 6.76843e-05 0)
(5.93888e-06 0.000107458 0)
(-1.79478e-05 0.000251438 0)
(-5.17723e-06 0.000200749 0)
(-4.97256e-06 0.000199811 0)
(1.74532e-06 1.31164e-05 0)
(1.79419e-06 1.27838e-05 0)
(1.54633e-05 0.00020297 0)
(-6.88368e-06 8.67081e-05 0)
(-5.9115e-06 8.67383e-05 0)
(1.5298e-05 0.000229064 0)
(-1.55025e-05 0.000241432 0)
(-1.54825e-05 0.000242578 0)
(-4.84411e-07 2.47625e-06 0)