/*--------------------------------*- C++ -*----------------------------------*\
| =========                 |                                                 |
| \\      /  F ield         | OpenFOAM: The Open Source CFD Toolbox           |
|  \\    /   O peration     | Version:  2.3.1                                 |
|   \\  /    A nd           | Web:      www.OpenFOAM.org                      |
|    \\/     M anipulation  |                                                 |
\*---------------------------------------------------------------------------*/
FoamFile
{
    version     2.0;
    format      ascii;
    class       volScalarField;
    location    "0.35";
    object      nut;
}
// * * * * * * * * * * * * * * * * * * * * * * * * * * * * * * * * * * * * * //

dimensions      [0 2 -1 0 0 0 0];

internalField   nonuniform List<scalar> 
96780
(
1.09777e-05
0.000198559
0.000351212
0.000437521
0.000468511
0.000440172
0.000373134
0.000311259
0.000256971
0.000212903
0.00017332
0.000126627
1.59502e-05
0.000230267
0.000393559
0.000486878
0.000520973
0.000496942
0.000427324
0.000351322
0.000284486
0.000231409
0.000187003
0.000138991
2.00387e-05
0.000247907
0.000427708
0.000530853
0.000571181
0.000553174
0.000484896
0.000398038
0.000317452
0.000253464
0.000202654
0.0001523
2.42118e-05
0.000259445
0.000455703
0.000569935
0.000618797
0.000608208
0.000544066
0.000450381
0.000356376
0.000279778
0.000220624
0.00016662
2.86098e-05
0.000268139
0.000479812
0.000605301
0.000663779
0.000661608
0.00060359
0.000507107
0.000401149
0.000310801
0.000241572
0.000182563
3.29942e-05
0.000275098
0.000501047
0.000637752
0.000706261
0.000713163
0.00066253
0.000566803
0.000451788
0.000347297
0.000266332
0.000200651
3.71779e-05
0.000280631
0.000520298
0.000667923
0.000746507
0.000762815
0.000720476
0.000628164
0.000507382
0.00038966
0.000295291
0.000221273
4.11644e-05
0.00028534
0.000537634
0.000696119
0.000784758
0.000810606
0.000777049
0.000690169
0.000566889
0.000437585
0.000329013
0.000244979
4.47788e-05
0.000289443
0.000553712
0.000722536
0.000821153
0.00085654
0.00083201
0.000751955
0.000629164
0.000491019
0.00036819
0.000272015
4.80883e-05
0.000292901
0.000568398
0.000747483
0.000855827
0.000900672
0.000885275
0.000812984
0.000693227
0.000549102
0.000413001
0.000303641
5.11976e-05
0.000296113
0.000581964
0.000770913
0.000888805
0.000943041
0.000936857
0.000872867
0.000758101
0.000611149
0.000463366
0.000339888
5.40273e-05
0.000298905
0.000594278
0.000792877
0.000920135
0.000983651
0.0009867
0.000931463
0.0008231
0.000676156
0.000519157
0.000381101
5.65781e-05
0.000301033
0.0006053
0.000813376
0.000949891
0.00102256
0.00103484
0.00098866
0.000887697
0.000743252
0.000579909
0.000428314
5.90647e-05
0.000303112
0.00061521
0.000832584
0.000978295
0.0010599
0.00108137
0.00104433
0.000951549
0.000811564
0.000644986
0.000481075
6.15012e-05
0.000305184
0.000624379
0.000850591
0.00100511
0.00109567
0.00112626
0.00109849
0.00101443
0.000880595
0.000713386
0.00053907
6.38568e-05
0.000307187
0.000632712
0.000867477
0.00103061
0.00112993
0.00116959
0.00115118
0.00107624
0.000949635
0.000784292
0.000601909
6.61885e-05
0.000308993
0.000640552
0.00088341
0.00105487
0.00116287
0.00121153
0.00120245
0.00113691
0.00101841
0.000856684
0.000668396
6.867e-05
0.000310987
0.000647771
0.000898707
0.00107826
0.00119471
0.00125226
0.00125249
0.00119648
0.00108668
0.000930311
0.000738155
7.12058e-05
0.000313301
0.000654834
0.000913668
0.00110112
0.00122579
0.00129204
0.00130147
0.00125495
0.00115419
0.00100379
0.000808826
7.3698e-05
0.000315486
0.000661594
0.00092816
0.0011235
0.00125628
0.00133108
0.00134956
0.00131251
0.00122088
0.00107739
0.000882144
7.63454e-05
0.000317937
0.00066858
0.000942583
0.0011456
0.00128643
0.00136963
0.001397
0.00136917
0.00128663
0.00115013
0.000953574
7.90805e-05
0.000320527
0.000675519
0.000956999
0.00116756
0.00131626
0.00140773
0.00144373
0.00142487
0.00135098
0.00122111
0.00102618
8.18554e-05
0.000323206
0.000682003
0.000970987
0.0011891
0.0013456
0.00144515
0.0014896
0.00147938
0.00141387
0.00129051
0.00109877
8.46165e-05
0.000325944
0.000688754
0.000984727
0.00121026
0.00137433
0.00148182
0.00153453
0.00153269
0.00147522
0.00135856
0.00117071
8.7451e-05
0.000328527
0.000695208
0.000998339
0.00123105
0.00140258
0.00151776
0.00157848
0.00158482
0.00153526
0.00142545
0.00124192
9.04525e-05
0.000331587
0.000701913
0.00101201
0.00125178
0.00143048
0.00155317
0.00162163
0.00163592
0.00159409
0.00149108
0.00131227
9.35482e-05
0.000334687
0.000709016
0.00102588
0.00127264
0.00145845
0.00158828
0.00166419
0.00168606
0.00165161
0.0015549
0.00137926
9.67719e-05
0.000338151
0.000716402
0.00104033
0.00129386
0.00148655
0.00162321
0.00170622
0.00173524
0.00170777
0.00161719
0.00144639
0.000100058
0.000341906
0.000724265
0.00105542
0.00131596
0.00151518
0.00165841
0.00174813
0.00178394
0.00176318
0.00167866
0.00151264
0.000103411
0.000345979
0.000733025
0.00107147
0.00133894
0.00154473
0.00169435
0.00179042
0.00183266
0.00181817
0.00173934
0.00157708
0.000106789
0.000350174
0.000742049
0.00108845
0.00136306
0.00157551
0.00173134
0.00183348
0.00188166
0.00187285
0.00179907
0.00163954
0.000110203
0.000354862
0.000751713
0.00110651
0.00138849
0.00160745
0.00176936
0.00187722
0.00193085
0.00192721
0.00185809
0.00170415
0.000113566
0.000359706
0.000761857
0.00112506
0.00141477
0.00164039
0.00180822
0.00192153
0.00198023
0.00198133
0.00191672
0.00176819
0.000116824
0.000364454
0.000772005
0.00114416
0.00144169
0.00167408
0.00184777
0.00196631
0.00202984
0.00203533
0.00197502
0.00183158
0.000119923
0.000369372
0.000782162
0.00116353
0.00146908
0.00170833
0.00188786
0.00201148
0.00207948
0.00208906
0.00203256
0.00189311
0.000122849
0.000373936
0.000792365
0.00118301
0.00149685
0.00174297
0.00192842
0.00205699
0.00212927
0.00214259
0.00208943
0.0019529
0.000125652
0.000378582
0.000802225
0.00120244
0.00152462
0.00177784
0.0019692
0.0021027
0.00217909
0.00219581
0.0021454
0.00201076
0.000128202
0.000382871
0.00081145
0.00122123
0.00155207
0.00181245
0.00200988
0.00214835
0.00222873
0.00224862
0.00220057
0.00206695
0.000130576
0.000386823
0.000820336
0.0012393
0.0015787
0.00184629
0.00204974
0.00219321
0.00227758
0.00230068
0.0022553
0.00212538
0.000132728
0.00039048
0.000827996
0.00125611
0.00160397
0.00187888
0.00208833
0.00223676
0.00232525
0.00235187
0.00231023
0.00218739
0.000134589
0.000393677
0.000834809
0.00127158
0.00162767
0.00190965
0.00212532
0.00227876
0.00237154
0.00240191
0.0023643
0.0022472
0.000136217
0.000396476
0.000840905
0.00128573
0.00164987
0.0019387
0.00216035
0.00231899
0.00241626
0.00245068
0.0024172
0.00230521
0.000137626
0.000398945
0.000846413
0.00129865
0.00167038
0.00196599
0.00219356
0.00235738
0.00245925
0.00249793
0.00246874
0.00236172
0.000138909
0.000400999
0.000851174
0.00131066
0.00168982
0.00199183
0.00222513
0.00239406
0.00250068
0.00254382
0.00251927
0.00241784
0.000140051
0.000403015
0.000855445
0.00132179
0.00170807
0.00201653
0.00225535
0.00242936
0.0025406
0.00258824
0.00256839
0.00247271
0.000140977
0.000404667
0.000859081
0.00133199
0.00172554
0.00204025
0.00228464
0.00246357
0.00257947
0.00263159
0.0026164
0.00252603
0.00014163
0.000405788
0.000861788
0.00134125
0.0017421
0.00206311
0.00231308
0.00249702
0.00261742
0.00267385
0.00266272
0.00257601
0.000142056
0.000406536
0.000863909
0.00134952
0.00175772
0.00208509
0.00234065
0.00252974
0.00265463
0.00271514
0.00270771
0.00262329
0.000142361
0.00040694
0.000865506
0.00135662
0.00177178
0.00210575
0.00236697
0.00256103
0.00269055
0.00275519
0.00275163
0.00267152
0.000142516
0.000406896
0.00086573
0.00136213
0.001784
0.00212429
0.00239132
0.00259052
0.00272478
0.00279392
0.00279509
0.00272132
0.000142556
0.000406632
0.000865031
0.00136567
0.001794
0.00214041
0.00241309
0.00261755
0.00275673
0.00283068
0.00283703
0.00277008
0.000142406
0.000406141
0.000863487
0.00136701
0.00180155
0.00215376
0.00243198
0.00264179
0.00278613
0.00286541
0.00287764
0.00281812
0.000142221
0.000405416
0.000861194
0.00136657
0.0018065
0.00216436
0.00244784
0.002663
0.00281274
0.00289767
0.00291626
0.00286473
0.000141631
0.000404019
0.000858355
0.0013652
0.00180941
0.00217233
0.00246095
0.00268141
0.00283666
0.00292751
0.00295306
0.0029108
0.000141126
0.000402699
0.000855498
0.00136298
0.00181121
0.00217877
0.00247223
0.00269771
0.00285843
0.00295547
0.00298837
0.00295542
0.000140565
0.000401306
0.000852388
0.00136048
0.00181262
0.00218441
0.00248241
0.00271278
0.00287885
0.00298199
0.0030218
0.0029966
0.000139919
0.000399782
0.000849137
0.00135769
0.00181353
0.00218965
0.00249221
0.00272742
0.00289879
0.00300776
0.00305402
0.00303533
0.000139354
0.000398168
0.000845862
0.00135451
0.00181416
0.00219477
0.00250202
0.002742
0.00291848
0.00303297
0.00308512
0.00307239
0.000138545
0.000396698
0.000842654
0.00135124
0.00181464
0.00219954
0.00251143
0.00275617
0.00293756
0.00305728
0.00311472
0.00310657
0.000137879
0.000395314
0.000839273
0.00134759
0.00181437
0.00220345
0.00251987
0.00276924
0.00295539
0.00308011
0.00314315
0.00314249
0.000137097
0.000393528
0.000835873
0.00134343
0.00181356
0.00220671
0.00252743
0.00278134
0.00297217
0.00310176
0.00317006
0.00317491
0.000136377
0.000392052
0.000832209
0.00133871
0.00181193
0.00220916
0.0025341
0.00279246
0.00298791
0.00312253
0.00319647
0.00320832
0.00013541
0.000390154
0.000828056
0.00133306
0.00180934
0.00221053
0.00253963
0.00280262
0.00300279
0.00314245
0.00322176
0.00323905
0.000134406
0.000387886
0.000823489
0.00132673
0.00180598
0.00221091
0.00254408
0.00281173
0.00301675
0.00316143
0.00324631
0.00327047
0.000133239
0.00038553
0.000818553
0.00131986
0.00180145
0.00221014
0.00254737
0.00281945
0.0030295
0.0031794
0.00327001
0.00330032
0.000131965
0.000382951
0.000813257
0.00131198
0.00179552
0.00220774
0.00254902
0.00282531
0.00304031
0.00319551
0.00329181
0.00332874
0.000130706
0.000379943
0.000807476
0.0013032
0.00178818
0.00220362
0.00254865
0.00282918
0.00304907
0.00320963
0.00331191
0.00335549
0.000129185
0.000376861
0.000801073
0.00129344
0.00177953
0.00219778
0.00254621
0.00283088
0.00305548
0.00322132
0.00332963
0.00338049
0.000127698
0.00037327
0.000794157
0.00128328
0.00176975
0.00219053
0.00254225
0.00283076
0.00305994
0.0032311
0.00334554
0.00340333
0.00012619
0.000369831
0.000787254
0.00127268
0.00175951
0.00218239
0.00253702
0.00282919
0.00306268
0.00323886
0.00335938
0.00342468
0.000124781
0.00036632
0.000780143
0.00126227
0.00174902
0.00217379
0.00253134
0.00282702
0.00306434
0.00324549
0.0033721
0.00344465
0.000123396
0.000362794
0.000773388
0.00125194
0.0017387
0.00216542
0.00252572
0.00282479
0.00306581
0.0032517
0.00338411
0.00346357
0.000121996
0.000359423
0.000766691
0.00124189
0.00172864
0.00215736
0.00252045
0.00282269
0.00306769
0.00325837
0.00339636
0.00348172
0.000120543
0.000356039
0.000760162
0.00123173
0.00171857
0.00214931
0.00251517
0.00282065
0.00306949
0.00326465
0.00340769
0.00349885
0.000119073
0.000352644
0.000753295
0.00122139
0.00170811
0.00214098
0.00250969
0.00281843
0.00307116
0.00327084
0.00341911
0.00351632
0.000117725
0.000349178
0.000746414
0.00121079
0.00169729
0.00213215
0.00250373
0.00281584
0.0030724
0.00327651
0.00342967
0.0035321
0.000116287
0.000345464
0.000739285
0.0011998
0.00168556
0.00212232
0.00249666
0.00281222
0.00307264
0.00328092
0.00343891
0.00354716
0.000114724
0.000341688
0.000731789
0.00118807
0.00167285
0.00211139
0.00248839
0.0028072
0.00307139
0.00328396
0.0034468
0.00356024
0.000113091
0.000337825
0.000724173
0.00117604
0.00165944
0.00209929
0.00247879
0.00280065
0.00306833
0.00328515
0.00345275
0.00357199
0.000111549
0.000333733
0.000716058
0.00116353
0.00164513
0.00208608
0.0024679
0.00279263
0.00306397
0.00328497
0.00345745
0.00358179
0.000109944
0.000329786
0.00070789
0.00115095
0.00163025
0.00207202
0.00245599
0.00278342
0.00305811
0.00328317
0.00346048
0.00359115
0.000108429
0.000325489
0.000699683
0.00113823
0.001615
0.00205743
0.00244327
0.00277325
0.00305121
0.00328048
0.00346273
0.0035986
0.000106768
0.000321393
0.000691832
0.00112564
0.0015997
0.00204239
0.00242991
0.0027622
0.00304323
0.00327643
0.00346352
0.0036055
0.000105269
0.000317493
0.000683701
0.00111319
0.00158447
0.00202735
0.00241637
0.00275084
0.00303499
0.0032721
0.00346398
0.0036114
0.0001037
0.000313332
0.000675732
0.00110088
0.00156932
0.00201235
0.00240274
0.00273939
0.0030266
0.00326748
0.00346391
0.00361722
0.00010225
0.000309335
0.000667932
0.00108897
0.0015543
0.00199766
0.00238939
0.00272835
0.00301862
0.00326335
0.00346431
0.00362275
0.000100628
0.000305385
0.000660354
0.00107692
0.00153938
0.00198291
0.00237618
0.00271741
0.00301072
0.00325917
0.00346454
0.00362817
9.91909e-05
0.00030143
0.000652592
0.00106509
0.00152442
0.00196801
0.00236272
0.0027065
0.00300287
0.00325498
0.00346469
0.00363265
9.77975e-05
0.000297525
0.000644958
0.00105338
0.00150923
0.0019528
0.00234897
0.00269512
0.0029944
0.00324999
0.00346379
0.00363691
9.61816e-05
0.000293574
0.000637428
0.0010414
0.00149374
0.00193724
0.0023348
0.00268321
0.00298553
0.00324472
0.00346253
0.0036399
9.47094e-05
0.000289616
0.00062975
0.00102961
0.00147822
0.00192133
0.00232036
0.00267102
0.00297616
0.00323859
0.00346041
0.00364299
9.33752e-05
0.000285792
0.000622237
0.00101782
0.0014626
0.00190522
0.00230577
0.00265878
0.00296694
0.00323303
0.003459
0.00364632
9.17975e-05
0.00028185
0.000614527
0.00100591
0.0014469
0.00188892
0.00229083
0.00264627
0.00295732
0.00322693
0.00345696
0.00364887
9.03512e-05
0.000277838
0.000606621
0.000993954
0.00143078
0.00187188
0.00227539
0.00263309
0.00294708
0.00322019
0.00345426
0.0036505
8.89132e-05
0.000273648
0.000598815
0.000981804
0.00141433
0.00185447
0.00225913
0.00261909
0.00293593
0.00321243
0.00345055
0.00365175
8.73014e-05
0.000269552
0.000590877
0.000969417
0.00139761
0.00183645
0.00224208
0.00260428
0.00292409
0.00320411
0.0034464
0.00365223
8.58271e-05
0.000265366
0.000582742
0.000956785
0.0013804
0.00181742
0.00222391
0.00258832
0.00291093
0.00319426
0.0034404
0.00365071
8.4447e-05
0.000261339
0.000574771
0.000944229
0.00136297
0.00179789
0.00220484
0.00257098
0.00289616
0.00318275
0.00343268
0.00364691
8.30366e-05
0.000257224
0.000566715
0.000931642
0.00134538
0.00177776
0.0021849
0.00255228
0.00287947
0.00316878
0.00342206
0.00364051
8.15673e-05
0.000253045
0.000558757
0.000919326
0.001328
0.00175746
0.00216416
0.0025328
0.00286202
0.00315401
0.00341068
0.00363295
8.01494e-05
0.000249213
0.000551175
0.000907301
0.00131084
0.00173747
0.00214352
0.00251295
0.00284396
0.00313837
0.00339799
0.00362431
7.89387e-05
0.000245352
0.000544052
0.000895771
0.00129456
0.00171818
0.00212359
0.00249373
0.00282636
0.0031232
0.00338601
0.00361622
7.78699e-05
0.000242059
0.000537254
0.000884739
0.00127921
0.00169973
0.00210437
0.00247514
0.00280921
0.0031082
0.00337387
0.00360767
7.69803e-05
0.000238724
0.000530676
0.000874271
0.00126447
0.00168221
0.00208604
0.00245744
0.00279296
0.00309409
0.00336257
0.00359963
7.6143e-05
0.000235731
0.000524544
0.000864352
0.00125067
0.00166558
0.0020687
0.00244055
0.00277741
0.00308043
0.00335128
0.00359155
7.55341e-05
0.000232859
0.000518534
0.000854833
0.00123742
0.00164966
0.00205218
0.00242474
0.0027632
0.00306851
0.00334232
0.00358587
7.49477e-05
0.000230134
0.000513035
0.000845961
0.00122492
0.00163448
0.00203634
0.00240956
0.00274948
0.00305677
0.00333314
0.00357967
7.45695e-05
0.000227702
0.000507814
0.000837617
0.00121298
0.00161983
0.00202096
0.00239467
0.00273577
0.00304481
0.0033234
0.00357266
7.43126e-05
0.000225374
0.000503002
0.000829599
0.00120173
0.00160603
0.00200626
0.00238036
0.00272256
0.00303318
0.00331348
0.00356487
7.41927e-05
0.000223386
0.000498575
0.000822373
0.0011913
0.00159307
0.0019925
0.00236707
0.00271065
0.00302317
0.00330585
0.00355982
7.41803e-05
0.000221522
0.000494535
0.000815847
0.00118167
0.00158087
0.00197972
0.00235491
0.00269971
0.00301393
0.00329872
0.00355551
7.43715e-05
0.000220054
0.000491037
0.000809761
0.00117275
0.0015696
0.00196789
0.00234372
0.00268999
0.00300619
0.00329353
0.0035529
7.47067e-05
0.000218947
0.000488272
0.000804763
0.00116512
0.00155944
0.00195682
0.00233301
0.00268032
0.00299794
0.00328702
0.00354916
7.5162e-05
0.000218101
0.000485999
0.000800366
0.00115847
0.00155084
0.00194751
0.00232397
0.00267213
0.00299085
0.00328121
0.00354475
7.58003e-05
0.000217578
0.000484384
0.000797235
0.00115313
0.0015436
0.00193991
0.00231704
0.00266612
0.00298605
0.00327783
0.00354312
7.66438e-05
0.000217525
0.000483519
0.000794969
0.00114908
0.00153803
0.00193425
0.00231224
0.0026626
0.00298404
0.00327729
0.00354315
7.76149e-05
0.000217883
0.000483403
0.000794022
0.00114674
0.00153424
0.00193049
0.00230934
0.002661
0.00298372
0.00327841
0.00354663
7.86741e-05
0.000218615
0.000484214
0.000794433
0.00114623
0.00153269
0.00192912
0.00230917
0.0026623
0.00298647
0.00328246
0.00355172
7.98648e-05
0.000219686
0.000485712
0.000796016
0.00114728
0.00153339
0.00193092
0.00231252
0.00266732
0.00299293
0.00329019
0.00356074
8.11862e-05
0.000221206
0.000488087
0.000798856
0.00115038
0.00153648
0.00193573
0.0023197
0.00267662
0.00300406
0.00330289
0.00357471
8.25397e-05
0.000223084
0.000491165
0.000802896
0.00115497
0.00154183
0.00194352
0.00233054
0.00269036
0.00302025
0.00332107
0.00359477
8.38737e-05
0.000225244
0.000494999
0.000808181
0.00116125
0.00154906
0.00195356
0.0023444
0.00270793
0.00304113
0.00334487
0.00362108
8.52345e-05
0.000227641
0.000499284
0.00081432
0.00116888
0.00155801
0.0019656
0.00236059
0.00272798
0.00306451
0.00337093
0.00364901
8.65331e-05
0.000230421
0.0005041
0.000821127
0.00117749
0.00156817
0.0019793
0.0023788
0.00275042
0.00309054
0.00339988
0.0036806
8.77607e-05
0.000233326
0.00050926
0.000828635
0.00118715
0.00157962
0.00199427
0.00239887
0.00277529
0.00311937
0.00343188
0.00371484
8.89346e-05
0.00023675
0.000514842
0.000836595
0.00119718
0.00159165
0.00200984
0.00241995
0.00280162
0.00315012
0.00346616
0.00375206
8.99225e-05
0.000240501
0.00052061
0.000844516
0.00120719
0.00160364
0.00202526
0.00244102
0.00282839
0.00318186
0.00350226
0.00379179
9.0759e-05
0.000244627
0.000526543
0.000852155
0.00121645
0.0016148
0.00203943
0.00246074
0.0028538
0.00321223
0.00353683
0.00383052
9.11819e-05
0.000248636
0.000532577
0.000859913
0.00122536
0.00162428
0.00205077
0.00247756
0.00287634
0.00324023
0.00356953
0.00386617
9.10195e-05
0.000252563
0.000537531
0.000866099
0.00123273
0.0016322
0.00205936
0.00248971
0.00289336
0.00326256
0.00359703
0.00389916
8.97596e-05
0.000255627
0.000540376
0.000869598
0.00123689
0.00163654
0.00206402
0.00249702
0.00290448
0.00327786
0.00361743
0.00392603
8.69271e-05
0.00025719
0.000540019
0.000868542
0.0012352
0.00163453
0.00206184
0.00249662
0.00290722
0.00328445
0.00362883
0.00394239
8.09762e-05
0.000256464
0.000534589
0.000860036
0.00122433
0.00162242
0.00204891
0.0024843
0.00289674
0.00327745
0.00362664
0.00394639
6.92683e-05
0.000252437
0.000521288
0.000840925
0.00120014
0.00159528
0.00202046
0.00245477
0.00286798
0.00325225
0.00360684
0.00393235
4.99304e-05
0.000242918
0.000495518
0.000805697
0.00115537
0.00154488
0.00196882
0.00240069
0.00281268
0.00320225
0.0035653
0.00389984
5.77415e-05
0.000125723
0.000154324
0.000155125
0.000119849
9.4503e-05
7.54278e-05
5.81211e-05
4.17345e-05
3.08241e-05
2.7805e-05
2.62417e-05
7.45694e-05
0.0001314
0.000159132
0.000155646
0.000120555
9.37917e-05
7.42492e-05
5.67501e-05
4.08484e-05
3.06829e-05
2.76895e-05
2.61914e-05
9.13915e-05
0.000136838
0.000163415
0.000156711
0.000121381
9.33896e-05
7.33343e-05
5.56545e-05
4.01516e-05
3.05642e-05
2.7595e-05
2.61319e-05
0.000106646
0.000142159
0.000167392
0.000158126
0.000122334
9.32369e-05
7.26409e-05
5.47822e-05
3.96044e-05
3.04672e-05
2.75183e-05
2.60889e-05
0.000120235
0.000147388
0.00017119
0.000159829
0.000123438
9.32934e-05
7.21361e-05
5.40933e-05
3.91745e-05
3.039e-05
2.74565e-05
2.60476e-05
0.000132305
0.000152554
0.000174874
0.000161754
0.000124694
9.35416e-05
7.17967e-05
5.35598e-05
3.88416e-05
3.03312e-05
2.74076e-05
2.60167e-05
0.00014295
0.000157654
0.000178483
0.000163862
0.000126094
9.39526e-05
7.16048e-05
5.31579e-05
3.85866e-05
3.02892e-05
2.73695e-05
2.59875e-05
0.000152269
0.000162683
0.000182047
0.000166126
0.000127631
9.45143e-05
7.15431e-05
5.28667e-05
3.83973e-05
3.02624e-05
2.73409e-05
2.59659e-05
0.00016041
0.000167625
0.000185585
0.000168518
0.000129297
9.52104e-05
7.15956e-05
5.2674e-05
3.82643e-05
3.02494e-05
2.73208e-05
2.59502e-05
0.000167529
0.000172463
0.000189115
0.000171035
0.000131091
9.60336e-05
7.17535e-05
5.25641e-05
3.81776e-05
3.02489e-05
2.73072e-05
2.59287e-05
0.000173778
0.000177184
0.000192642
0.000173658
0.000133005
9.69763e-05
7.2008e-05
5.25293e-05
3.81323e-05
3.02603e-05
2.73001e-05
2.59131e-05
0.000179295
0.000181778
0.000196176
0.000176386
0.000135034
9.80266e-05
7.23498e-05
5.25603e-05
3.81243e-05
3.02824e-05
2.72988e-05
2.59004e-05
0.000184194
0.000186238
0.000199721
0.000179211
0.000137179
9.91889e-05
7.2778e-05
5.26542e-05
3.81479e-05
3.03144e-05
2.73024e-05
2.58923e-05
0.000188565
0.000190564
0.000203274
0.000182127
0.000139433
0.000100454
7.32814e-05
5.28041e-05
3.82018e-05
3.03556e-05
2.73111e-05
2.58857e-05
0.000192487
0.000194747
0.000206839
0.000185133
0.000141798
0.000101818
7.38634e-05
5.30061e-05
3.82817e-05
3.0406e-05
2.73241e-05
2.58804e-05
0.000196025
0.000198792
0.000210417
0.000188222
0.000144262
0.000103284
7.45169e-05
5.32554e-05
3.83876e-05
3.04648e-05
2.73411e-05
2.58754e-05
0.00019923
0.000202697
0.000214
0.000191383
0.000146837
0.00010485
7.52427e-05
5.35531e-05
3.85169e-05
3.05316e-05
2.73621e-05
2.58736e-05
0.000202137
0.000206465
0.000217592
0.000194631
0.000149513
0.000106515
7.60396e-05
5.38939e-05
3.86685e-05
3.06066e-05
2.73867e-05
2.58739e-05
0.000204778
0.000210098
0.000221186
0.000197944
0.000152288
0.000108276
7.69069e-05
5.42799e-05
3.88425e-05
3.06897e-05
2.7415e-05
2.5876e-05
0.000207184
0.000213599
0.000224783
0.000201332
0.000155166
0.000110134
7.78445e-05
5.47084e-05
3.90362e-05
3.078e-05
2.74471e-05
2.58795e-05
0.000209381
0.00021697
0.000228378
0.000204785
0.00015814
0.000112095
7.88526e-05
5.51771e-05
3.92512e-05
3.08781e-05
2.74826e-05
2.58842e-05
0.000211382
0.000220216
0.000231968
0.0002083
0.000161215
0.000114154
7.9929e-05
5.5689e-05
3.94869e-05
3.0984e-05
2.75213e-05
2.58905e-05
0.000213207
0.00022334
0.000235551
0.000211879
0.000164384
0.000116314
8.10775e-05
5.62424e-05
3.97413e-05
3.10972e-05
2.75634e-05
2.58952e-05
0.000214871
0.000226349
0.000239125
0.000215514
0.000167651
0.000118573
8.2302e-05
5.68377e-05
4.00163e-05
3.12179e-05
2.76088e-05
2.59077e-05
0.000216384
0.000229244
0.000242683
0.000219206
0.00017101
0.00012094
8.35988e-05
5.74757e-05
4.03115e-05
3.13468e-05
2.76577e-05
2.59189e-05
0.000217763
0.000232029
0.000246227
0.000222948
0.000174466
0.000123409
8.49725e-05
5.81569e-05
4.06268e-05
3.14834e-05
2.77103e-05
2.59314e-05
0.000219012
0.000234713
0.000249753
0.000226737
0.000178017
0.00012598
8.64247e-05
5.88845e-05
4.09637e-05
3.16283e-05
2.77663e-05
2.59457e-05
0.000220138
0.000237294
0.000253258
0.000230568
0.000181655
0.000128664
8.79582e-05
5.96552e-05
4.13202e-05
3.17816e-05
2.78259e-05
2.59628e-05
0.000221152
0.000239779
0.000256742
0.000234444
0.000185379
0.000131453
8.95748e-05
6.04749e-05
4.17004e-05
3.19433e-05
2.7889e-05
2.59792e-05
0.000222057
0.000242173
0.000260199
0.000238362
0.000189193
0.000134354
9.12774e-05
6.13429e-05
4.21016e-05
3.21135e-05
2.79562e-05
2.59995e-05
0.000222872
0.000244476
0.000263631
0.000242313
0.000193095
0.000137366
9.30684e-05
6.2259e-05
4.25267e-05
3.22929e-05
2.80269e-05
2.60188e-05
0.000223586
0.000246696
0.000267035
0.000246292
0.000197085
0.00014049
9.49491e-05
6.32282e-05
4.2976e-05
3.24822e-05
2.81018e-05
2.60447e-05
0.000224212
0.000248835
0.00027041
0.000250294
0.000201123
0.000143712
9.69297e-05
6.42637e-05
4.34604e-05
3.2689e-05
2.81841e-05
2.60703e-05
0.00022475
0.000250895
0.000273753
0.000254299
0.000205217
0.000147043
9.90193e-05
6.53676e-05
4.39829e-05
3.29115e-05
2.82734e-05
2.61e-05
0.000225208
0.000252887
0.000277048
0.0002583
0.000209374
0.00015049
0.000101221
6.65384e-05
4.45399e-05
3.31538e-05
2.83703e-05
2.6135e-05
0.000225598
0.000254809
0.000280287
0.000262296
0.000213578
0.000154051
0.000103531
6.77875e-05
4.51357e-05
3.34128e-05
2.84749e-05
2.61717e-05
0.000225931
0.000256668
0.000283476
0.000266283
0.000217838
0.000157715
0.000105964
6.91102e-05
4.5775e-05
3.36921e-05
2.85879e-05
2.62138e-05
0.000226204
0.000258459
0.000286616
0.00027026
0.000222149
0.00016149
0.00010851
7.05192e-05
4.64575e-05
3.39914e-05
2.87094e-05
2.62573e-05
0.000226416
0.00026019
0.000289707
0.000274226
0.000226501
0.000165365
0.000111172
7.20093e-05
4.71826e-05
3.43117e-05
2.88405e-05
2.63069e-05
0.000226573
0.00026186
0.000292752
0.00027818
0.000230893
0.000169345
0.000113964
7.35894e-05
4.79589e-05
3.46542e-05
2.8981e-05
2.63589e-05
0.000226674
0.000263471
0.000295746
0.000282118
0.000235319
0.000173421
0.000116875
7.52638e-05
4.87861e-05
3.50218e-05
2.91322e-05
2.64158e-05
0.000226719
0.000265024
0.000298692
0.000286042
0.000239783
0.000177597
0.000119913
7.7037e-05
4.96677e-05
3.54144e-05
2.9294e-05
2.64733e-05
0.000226719
0.000266526
0.000301596
0.000289949
0.000244276
0.000181863
0.000123073
7.8913e-05
5.06069e-05
3.58334e-05
2.94672e-05
2.65405e-05
0.00022667
0.000267975
0.00030445
0.000293838
0.000248794
0.000186224
0.00012637
8.08913e-05
5.16072e-05
3.62824e-05
2.96531e-05
2.66126e-05
0.000226575
0.000269371
0.000307263
0.000297708
0.000253341
0.000190669
0.000129782
8.29874e-05
5.26732e-05
3.67598e-05
2.98527e-05
2.66911e-05
0.000226429
0.000270716
0.000310027
0.000301558
0.000257908
0.000195203
0.000133333
8.51946e-05
5.38087e-05
3.72719e-05
3.00657e-05
2.6774e-05
0.000226237
0.000272016
0.000312752
0.000305388
0.000262494
0.000199815
0.000137008
8.75236e-05
5.50191e-05
3.7819e-05
3.02944e-05
2.68652e-05
0.000226007
0.000273268
0.000315434
0.000309196
0.000267095
0.000204502
0.000140815
8.99788e-05
5.6309e-05
3.84036e-05
3.05394e-05
2.69593e-05
0.000225736
0.000274479
0.000318074
0.000312982
0.000271714
0.00020927
0.000144746
9.25581e-05
5.76833e-05
3.90288e-05
3.08026e-05
2.70636e-05
0.000225419
0.00027564
0.000320671
0.000316747
0.000276344
0.000214113
0.000148808
9.5278e-05
5.91483e-05
3.97002e-05
3.10848e-05
2.71725e-05
0.000225066
0.000276767
0.000323232
0.000320489
0.000280979
0.000219016
0.000152994
9.81299e-05
6.07049e-05
4.04164e-05
3.13872e-05
2.72897e-05
0.000224668
0.000277846
0.000325752
0.000324207
0.000285627
0.000223988
0.000157309
0.000101117
6.23676e-05
4.11837e-05
3.17116e-05
2.74219e-05
0.000224234
0.000278892
0.000328231
0.000327902
0.00029028
0.00022902
0.000161745
0.000104251
6.41345e-05
4.20087e-05
3.20602e-05
2.75592e-05
0.000223761
0.000279893
0.000330672
0.000331573
0.000294938
0.00023411
0.000166302
0.000107534
6.60169e-05
4.28915e-05
3.24363e-05
2.77141e-05
0.000223243
0.000280858
0.00033308
0.000335219
0.000299603
0.000239261
0.000170985
0.000110969
6.80216e-05
4.38396e-05
3.28407e-05
2.78821e-05
0.000222693
0.00028179
0.000335448
0.000338841
0.000304265
0.000244463
0.000175793
0.000114554
7.01549e-05
4.48612e-05
3.32764e-05
2.80576e-05
0.000222107
0.000282684
0.000337783
0.000342439
0.000308928
0.000249714
0.00018071
0.000118289
7.24193e-05
4.59574e-05
3.37469e-05
2.82443e-05
0.000221482
0.000283545
0.000340081
0.000346013
0.000313591
0.000255011
0.000185749
0.000122185
7.48276e-05
4.71371e-05
3.42546e-05
2.84471e-05
0.00022082
0.000284374
0.000342341
0.000349562
0.000318252
0.000260353
0.000190906
0.000126243
7.73861e-05
4.84065e-05
3.48016e-05
2.86725e-05
0.000220124
0.000285164
0.00034457
0.000353086
0.00032291
0.000265736
0.000196164
0.000130458
8.00949e-05
4.97704e-05
3.5395e-05
2.89127e-05
0.000219386
0.000285924
0.000346763
0.000356586
0.000327562
0.000271158
0.000201538
0.000134829
8.29679e-05
5.12401e-05
3.60379e-05
2.91782e-05
0.000218614
0.000286653
0.000348924
0.00036006
0.000332213
0.000276617
0.000207016
0.000139361
8.60046e-05
5.28242e-05
3.67355e-05
2.94627e-05
0.000217809
0.000287354
0.000351055
0.000363511
0.000336856
0.000282111
0.000212597
0.000144061
8.92188e-05
5.45321e-05
3.7493e-05
2.97723e-05
0.000216967
0.000288022
0.00035315
0.000366936
0.000341494
0.000287639
0.000218277
0.000148921
9.26089e-05
5.63685e-05
3.83141e-05
3.01175e-05
0.000216079
0.000288656
0.000355214
0.000370338
0.000346123
0.000293198
0.000224055
0.000153951
9.6181e-05
5.8348e-05
3.92076e-05
3.04884e-05
0.00021515
0.00028926
0.000357248
0.000373714
0.000350746
0.000298787
0.000229929
0.000159133
9.99482e-05
6.04809e-05
4.01823e-05
3.08883e-05
0.00021419
0.000289843
0.000359251
0.000377066
0.000355362
0.000304398
0.000235894
0.000164485
0.000103914
6.27687e-05
4.12419e-05
3.13352e-05
0.000213192
0.000290391
0.000361217
0.000380392
0.000359968
0.000310037
0.00024195
0.00016999
0.000108069
6.52354e-05
4.24008e-05
3.18264e-05
0.000212147
0.000290905
0.000363154
0.000383695
0.000364566
0.000315701
0.000248085
0.000175663
0.000112432
6.78827e-05
4.36616e-05
3.2364e-05
0.000211058
0.000291391
0.000365066
0.000386972
0.000369154
0.000321384
0.000254314
0.000181497
0.000117
7.07231e-05
4.5041e-05
3.2951e-05
0.000209932
0.000291853
0.000366941
0.000390225
0.000373734
0.000327091
0.000260618
0.000187483
0.000121777
7.37655e-05
4.65497e-05
3.36036e-05
0.000208764
0.000292281
0.000368783
0.00039345
0.000378303
0.000332816
0.000267003
0.000193635
0.000126765
7.70207e-05
4.81971e-05
3.43199e-05
0.000207554
0.000292681
0.000370595
0.000396654
0.00038286
0.000338561
0.000273466
0.000199936
0.000131967
8.05062e-05
4.99993e-05
3.51198e-05
0.000206296
0.000293047
0.000372381
0.000399829
0.000387406
0.000344323
0.000279997
0.000206392
0.000137385
8.42215e-05
5.19637e-05
3.60053e-05
0.000204993
0.000293389
0.000374127
0.000402982
0.000391942
0.000350104
0.000286602
0.000213002
0.000143022
8.81796e-05
5.41138e-05
3.69736e-05
0.000203646
0.000293698
0.000375849
0.00040611
0.000396465
0.000355899
0.000293273
0.000219756
0.000148874
9.23888e-05
5.64653e-05
3.80554e-05
0.00020225
0.000293978
0.000377535