/*--------------------------------*- C++ -*----------------------------------*\
| =========                 |                                                 |
| \\      /  F ield         | OpenFOAM: The Open Source CFD Toolbox           |
|  \\    /   O peration     | Version:  2.3.1                                 |
|   \\  /    A nd           | Web:      www.OpenFOAM.org                      |
|    \\/     M anipulation  |                                                 |
\*---------------------------------------------------------------------------*/
FoamFile
{
    version     2.0;
    format      ascii;
    class       volScalarField;
    location    "0.5";
    object      epsilon;
}
// * * * * * * * * * * * * * * * * * * * * * * * * * * * * * * * * * * * * * //

dimensions      [0 2 -3 0 0 0 0];

internalField   nonuniform List<scalar> 
15166
(
1077.71
1003.57
1000.27
1064.01
1106.61
1135.62
1106.5
1023.41
922.618
805.906
688.755
589.612
1078.28
882.488
931.173
1001.46
1045.92
1069.28
1037.39
960.105
864.443
756.788
649.279
551.067
1090.34
787.873
864.767
940.37
987.184
1006.86
974.593
902.619
812.628
712.876
612.98
518.054
1106.22
716.772
805.52
883.608
931.685
948.706
917.307
850.335
766.064
673.241
579.469
486.934
1123.51
663.283
753.878
832.201
880.333
895.188
865.142
802.795
723.98
637.298
548.85
460.059
1142.26
622.163
708.605
785.732
833.083
846.133
817.602
759.492
685.776
604.53
520.755
435.236
1162.59
590.001
668.631
743.574
789.582
801.122
774.154
719.946
650.917
574.508
494.759
411.52
1184.13
564.624
633.212
705.227
749.505
759.771
734.344
683.71
618.975
546.908
470.843
390.7
1206.67
544.531
601.768
670.295
712.565
721.733
697.773
650.4
589.6
521.466
448.806
371.672
1229.9
528.612
573.773
638.401
678.49
686.686
664.103
619.712
562.497
497.951
428.528
354.788
1253.57
516.037
548.78
609.208
647.014
654.338
633.026
591.356
537.426
476.175
409.816
339.256
1277.58
506.161
526.399
582.422
617.896
624.424
604.279
565.089
514.168
455.978
392.663
325.961
1301.75
498.497
506.306
557.783
590.911
596.701
577.624
540.696
492.544
437.213
376.88
314.028
1325.96
492.651
488.225
535.069
565.863
570.963
552.854
518
472.39
419.721
362.086
301.403
1350.05
488.311
471.917
514.088
542.576
547.019
529.792
496.828
453.577
403.414
348.406
290.874
1374.01
485.225
457.176
494.671
520.891
524.709
508.283
477.057
435.974
388.159
335.669
280.981
1397.66
483.186
443.825
476.669
500.668
503.882
488.18
458.544
419.478
373.875
323.754
271.526
1421.05
482.024
431.713
459.954
481.778
484.406
469.358
441.194
404.002
360.475
312.584
262.652
1444.06
481.593
420.706
444.406
464.109
466.165
451.712
424.893
389.451
347.879
302.114
254.489
1466.57
481.779
410.689
429.926
447.558
449.056
435.136
409.563
375.748
336.027
292.272
246.782
1488.54
482.476
401.558
416.422
432.035
432.982
419.546
395.124
362.832
324.844
282.97
239.276
1510.02
483.608
393.223
403.811
417.456
417.864
404.863
381.506
350.633
314.278
274.153
232.099
1531.01
485.087
385.605
392.021
403.751
403.623
391.014
368.642
339.1
304.278
265.753
224.968
1551.26
486.873
378.635
380.987
390.851
390.194
377.935
356.475
328.184
294.801
257.763
218.294
1570.95
488.917
372.253
370.65
378.697
377.515
365.572
344.962
317.835
285.798
250.146
211.866
1589.93
491.147
366.4
360.957
367.233
365.534
353.872
334.047
308.016
277.244
242.893
205.868
1608.22
493.542
361.029
351.858
356.41
354.197
342.784
323.693
298.687
269.1
235.986
200.146
1625.88
496.064
356.094
343.31
346.185
343.46
332.267
313.859
289.814
261.347
229.405
194.809
1642.81
498.7
351.561
335.273
336.513
333.283
322.285
304.507
281.367
253.957
223.148
189.818
1659.09
501.443
347.389
327.709
327.359
323.626
312.798
295.612
273.319
246.91
217.166
184.882
1674.69
504.218
343.548
320.585
318.687
314.455
303.776
287.138
265.643
240.179
211.465
180.29
1689.42
507.059
340.007
313.871
310.466
305.741
295.186
279.063
258.317
233.749
206.004
175.782
1703.3
509.938
336.748
307.539
302.668
297.451
287.006
271.357
251.32
227.601
200.79
171.61
1716.73
512.816
333.741
301.563
295.265
289.562
279.207
264.002
244.632
221.72
195.798
167.512
1729.22
515.695
330.973
295.919
288.233
282.049
271.766
256.976
238.237
216.091
191.022
163.691
1740.9
518.583
328.419
290.588
281.549
274.887
264.66
250.258
232.116
210.697
186.439
159.894
1752.06
521.457
326.068
285.545
275.192
268.057
257.874
243.833
226.251
205.523
182.038
156.297
1762.31
524.312
323.902
280.774
269.143
261.538
251.385
237.68
220.629
200.561
177.824
152.972
1771.91
527.148
321.908
276.258
263.383
255.314
245.178
231.786
215.239
195.802
173.779
149.696
1780.84
529.953
320.07
271.982
257.896
249.367
239.238
226.14
210.068
191.233
169.912
146.694
1788.8
532.753
318.377
267.932
252.668
243.684
233.55
220.723
205.104
186.84
166.17
143.495
1796.14
535.657
316.829
264.096
247.684
238.249
228.101
215.528
200.335
182.616
162.543
140.273
1802.56
538.567
315.408
260.459
242.932
233.05
222.877
210.539
195.751
178.549
159.055
137.428
1808.38
541.541
314.14
257.016
238.398
228.073
217.868
205.75
191.345
174.635
155.688
134.572
1813.49
544.43
313.039
253.761
234.07
223.307
213.062
201.147
187.105
170.864
152.449
131.973
1817.79
547.141
312.08
250.692
229.938
218.74
208.447
196.723
183.024
167.23
149.316
129.273
1821.33
549.905
311.24
247.808
225.996
214.366
204.018
192.468
179.096
163.726
146.305
126.897
1824.33
552.492
310.512
245.08
222.234
210.176
199.762
188.373
175.309
160.347
143.395
124.449
1826.57
554.995
309.852
242.511
218.648
206.159
195.67
184.431
171.658
157.084
140.59
122.223
1828.08
557.423
309.31
240.088
215.227
202.309
191.737
180.633
168.136
153.933
137.872
119.915
1828.87
559.691
308.846
237.801
211.963
198.614
187.954
176.973
164.736
150.888
135.253
117.846
1829.05
562.006
308.46
235.651
208.853
195.073
184.316
173.447
161.456
147.947
132.724
115.832
1828.57
564.133
308.142
233.616
205.885
191.677
180.817
170.049
158.29
145.105
130.269
113.69
1827.36
566.213
307.888
231.707
203.056
188.418
177.449
166.771
155.233
142.357
127.896
111.766
1825.64
568.216
307.696
229.909
200.358
185.293
174.209
163.611
152.28
139.7
125.603
109.928
1823.35
570.14
307.561
228.218
197.784
182.297
171.091
160.563
149.426
137.131
123.395
108.232
1820.3
571.873
307.476
226.627
195.332
179.422
168.089
157.623
146.671
134.647
121.258
106.488
1816.71
573.663
307.446
225.142
192.995
176.664
165.202
154.788
144.008
132.245
119.195
104.883
1812.61
575.253
307.464
223.75
190.771
174.022
162.421
152.052
141.436
129.922
117.18
103.039
1807.72
576.784
307.504
222.437
188.648
171.487
159.746
149.412
138.949
127.674
115.228
101.421
1802.38
578.171
307.615
221.22
186.63
169.057
157.17
146.864
136.545
125.496
113.344
99.9501
1796.53
579.577
307.767
220.085
184.712
166.728
154.691
144.406
134.221
123.389
111.527
98.5673
1790.08
580.803
307.956
219.029
182.885
164.496
152.306
142.034
131.975
121.351
109.767
97.1326
1782.99
581.971
308.158
218.058
181.153
162.359
150.011
139.745
129.802
119.378
108.065
95.787
1775.4
582.989
308.426
217.152
179.508
160.313
147.803
137.537
127.704
117.469
106.413
94.3884
1767.16
583.972
308.704
216.32
177.952
158.354
145.681
135.407
125.675
115.622
104.811
93.0907
1758.79
584.915
309.021
215.565
176.476
156.481
143.64
133.353
123.714
113.834
103.254
91.7504
1749.2
585.691
309.363
214.871
175.08
154.691
141.677
131.372
121.819
112.102
101.747
90.538
1739.62
586.41
309.746
214.246
173.766
152.982
139.792
129.463
119.989
110.426
100.285
89.3281
1729.69
587.017
310.162
213.687
172.524
151.349
137.983
127.621
118.219
108.804
98.8725
88.2088
1718.86
587.62
310.594
213.199
171.359
149.791
136.244
125.848
116.51
107.235
97.5012
87.0483
1707.64
587.923
311.066
212.767
170.265
148.309
134.576
124.138
114.859
105.716
96.1722
85.9877
1695.88
588.38
311.532
212.38
169.24
146.898
132.978
122.492
113.264
104.248
94.8901
84.956
1683.69
588.6
312.103
212.086
168.295
145.562
131.449
120.909
111.727
102.828
93.6467
83.9179
1670.99
588.728
312.627
211.831
167.406
144.29
129.982
119.386
110.241
101.454
92.4409
82.9359
1658.27
588.93
313.205
211.642
166.59
143.085
128.581
117.921
108.809
100.126
91.2707
81.9071
1644.64
588.898
313.791
211.506
165.843
141.949
127.244
116.516
107.43
98.8422
90.1349
80.9552
1630.24
588.662
314.391
211.431
165.158
140.88
125.967
115.165
106.1
97.6031
89.0345
79.9933
1615.84
588.542
315.041
211.411
164.54
139.872
124.752
113.871
104.821
96.4062
87.9696
79.1052
1601.23
588.256
315.705
211.453
163.982
138.928
123.596
112.63
103.59
95.2522
86.9359
78.1753
1585.71
587.861
316.414
211.548
163.491
138.048
122.499
111.444
102.405
94.1375
85.9366
77.3345
1569.94
587.392
317.106
211.707
163.067
137.233
121.459
110.31
101.267
93.0613
84.9716
76.5555
1553.75
586.798
317.813
211.912
162.701
136.474
120.478
109.229
100.177
92.0266
84.0429
75.7706
1537.11
586.122
318.565
212.171
162.4
135.78
119.555
108.202
99.1332
91.0328
83.1441
74.9543
1520.06
585.375
319.337
212.487
162.166
135.146
118.687
107.224
98.1337
90.076
82.2775
74.2196
1503
584.551
320.134
212.881
161.987
134.571
117.876
106.295
97.1791
89.1593
81.4415
73.4595
1485.15
583.576
320.946
213.32
161.875
134.062
117.121
105.419
96.2677
88.278
80.6357
72.7977
1466.94
582.502
321.772
213.805
161.836
133.613
116.424
104.592
95.4004
87.4367
79.8637
72.097
1448.35
581.323
322.618
214.355
161.852
133.227
115.784
103.817
94.5783
86.6329
79.1212
71.4256
1429.37
580.06
323.522
214.981
161.941
132.906
115.199
103.091
93.8009
85.8665
78.4025
70.7037
1410.02
578.676
324.394
215.642
162.089
132.64
114.67
102.414
93.0645
85.1348
77.7204
70.1997
1390.3
577.173
325.282
216.383
162.313
132.444
114.198
101.788
92.3751
84.4465
77.0806
69.6429
1370.62
575.679
326.23
217.183
162.603
132.312
113.785
101.215
91.7295
83.7931
76.4709
69.1468
1349.86
573.904
327.177
218.04
162.963
132.252
113.432
100.692
91.1289
83.1791
75.8945
68.6406
1329.48
572.154
328.136
218.959
163.401
132.25
113.14
100.224
90.5723
82.6035
75.3515
68.1809
1308.43
570.209
329.093
219.934
163.9
132.322
112.908
99.8078
90.0632
82.0698
74.8412
67.6907
1287.05
568.242
330.106
220.994
164.483
132.464
112.74
99.4469
89.6006
81.5736
74.3613
67.2786
1265.32
566.036
331.115
222.115
165.142
132.683
112.636
99.1387
89.1853
81.1177
73.9157
66.8526
1243.66
563.898
332.136
223.3
165.887
132.969
112.596
98.8886
88.817
80.7033
73.505
66.4894
1221.36
561.468
333.19
224.571
166.713
133.342
112.625
98.6989
88.5013
80.3322
73.1289
66.0938
1198.74
558.975
334.242
225.904
167.618
133.786
112.724
98.5676
88.2341
80.0026
72.785
65.7846
1175.84
556.349
335.291
227.325
168.62
134.317
112.895
98.4957
88.0191
79.7163
72.4831
65.5258
1152.64
553.556
336.383
228.812
169.708
134.934
113.144
98.4924
87.8615
79.4805
72.2232
65.2529
1129.21
550.685
337.459
230.366
170.896
135.644
113.47
98.5547
87.7611
79.292
72.0016
65.0116
1105.82
547.732
338.572
232.01
172.176
136.45
113.876
98.6876
87.7178
79.1509
71.8209
64.8564
1081.89
544.577
339.665
233.744
173.563
137.349
114.37
98.8915
87.7352
79.0644
71.6883
64.703
1058.01
541.341
340.787
235.546
175.048
138.346
114.956
99.1737
87.817
79.0275
71.5955
64.6263
1033.62
537.876
341.885
237.421
176.646
139.455
115.634
99.5379
87.9682
79.0508
71.5565
64.5826
1008.65
534.234
343.004
239.418
178.356
140.679
116.415
99.9853
88.1901
79.1346
71.5662
64.5522
984.027
530.604
344.156
241.473
180.191
142.018
117.303
100.521
88.4876
79.2793
71.6258
64.5792
958.967
526.761
345.288
243.657
182.161
143.488
118.301
101.158
88.8675
79.493
71.7426
64.6211
933.663
522.722
346.432
245.924
184.254
145.087
119.419
101.895
89.3325
79.7809
71.9249
64.7646
908.474
518.605
347.554
248.297
186.494
146.839
120.664
102.743
89.8926
80.1499
72.183
64.9599
882.87
514.261
348.68
250.759
188.883
148.734
122.05
103.704
90.5482
80.596
72.4931
65.112
857.068
509.712
349.838
253.361
191.433
150.791
123.575
104.792
91.3057
81.124
72.8697
65.3884
831.144
505.044
350.921
256.047
194.132
153.011
125.255
106.009
92.1726
81.7468
73.3317
65.7213
805.064
500.174
352.035
258.856
197.009
155.425
127.101
107.372
93.1625
82.4717
73.8728
66.1494
779.127
495.191
353.116
261.765
200.07
158.028
129.137
108.895
94.2907
83.3108
74.5158
66.6565
753.123
489.966
354.207
264.826
203.331
160.845
131.364
110.589
95.5631
84.277
75.2711
67.2969
726.583
484.475
355.231
267.99
206.797
163.89
133.815
112.477
96.9941
85.3772
76.1434
68.0069
700.112
478.869
356.245
271.309
210.472
167.179
136.491
114.566
98.5994
86.6135
77.111
68.7139
673.843
473.086
357.246
274.749
214.395
170.735
139.42
116.876
100.394
88.009
78.2155
69.6239
647.598
467.078
358.221
278.342
218.57
174.58
142.633
119.442
102.405
89.5917
79.4897
70.6688
620.929
460.836
359.161
282.113
223.011
178.739
146.16
122.282
104.651
91.369
80.9103
71.8504
594.558
454.431
360.094
286.043
227.763
183.25
150.024
125.434
107.163
93.366
82.5225
73.1632
568.299
447.805
361.012
290.173
232.837
188.147
154.272
128.928
109.971
95.6087
84.3303
74.6704
541.723
440.967
361.928
294.543
238.306
193.487
158.963
132.825
113.123
98.1416
86.3881
76.3875
515.454
433.951
362.888
299.173
244.204
199.33
164.144
137.173
116.665
101.006
88.7174
78.2965
489.172
426.773
363.929
304.155
250.617
205.753
169.904
142.036
120.647
104.234
91.3455
80.4391
463.046
419.47
365.154
309.584
257.647
212.87
176.32
147.488
125.133
107.871
94.3011
82.8837
436.873
412.172
366.726
315.654
265.476
220.802
183.522
153.629
130.199
111.988
97.6622
85.6532
410.789
405.178
369.048
322.696
274.353
229.755
191.648
160.573
135.925
116.642
101.448
88.7917
384.555
399.289
372.849
331.25
284.608
239.933
200.828
168.412
142.405
121.894
105.701
92.2196
358.162
397.464
380.241
342.621
296.933
251.765
211.382
177.409
149.814
127.883
110.501
96.044
328.04
400.055
389.134
355.343
309.512
263.688
222.053
186.804
157.585
134.284
115.661
100.324
204.082
0.0012744
6.61786
4.94898
4.91212
12.0026
11.4399
81.0996
45.1615
26.4339
7.60938
0.00269744
0.0225729
574.736
12.1844
0.000851396
481.458
0.218386
0.207466
0.000828387
2.43324
5.66617
0.255378
0.0183576
209.849
6.57514
4.01587
16.2405
16.9312
48.3741
14.6184
364.47
0.00108589
7.42559
0.0211524
2.32594
87.312
12.6941
29.7369
0.00290821
0.239151
0.000794189
0.119467
23.9632
23.6683
5.45035
0.0575877
0.0148366
23.9211
2.3996
2.2728
77.6344
18.4154
0.000749082
215.551
0.00118114
0.00428376
0.000793152
12.7289
11.3107
3.5066
378.965
0.000746608
0.00894757
0.714022
0.00121407
75.9483
17.9969
321.655
18.7701
185.487
0.0485442
28.3987
43.4681
0.0188442
0.000739227
41.2166
0.000696188
0.079087
11.2059
0.211314
0.000699392
75.3497
20.5112
0.00845163
70.1911
75.0865
0.000739954
5.19623
25.7359
19.5223
26.1264
0.000741583
0.000984348
53.6123
0.000751863
15.2003
0.00909621
0.000728965
76.8309
144.555
1.15134
0.00078522
0.00114027
0.000707795
68.0703
66.1521
101.276
19.2743
0.0283638
0.527105
0.000709766
8.28729
0.000913662
0.000734492
8.35012
0.0108553
1.92842
69.2572
0.649464
120.107
0.0204752
176.402
0.995414
0.320182
53.338
0.00104704
1333.1
0.0233494
0.000742466
123.043
0.000758846
87.3221
0.00114264
4.19356
0.00146184
28.4056
13.2099
8.70759
0.00176232
0.00877389
2.76325
14.1749
0.128683
31.2678
198.499
17.2477
0.00121803
61.6795
21.7512
0.585481
8.01241
0.000693016
0.26601
0.616613
0.000716845
12.5463
0.000727035
89.0526
0.00234152
0.0178413
0.000857525
0.326206
0.00608356
2.60498
0.191019
314.809
30.156
18.452
0.000686871
205.689
47.3631
217.154
0.00947229
0.000680101
18.5031
0.00070594
20.4642
0.723521
34.7379
330.642
3.28979
0.0834706
26.3599
0.000796762
13.4497
0.000724074
0.000721553
30.1124
0.000736009
9.2161
0.000697707
199.401
0.00130534
16.1361
14.1845
10.8613
4.55651
0.000709812
409.91
63.8332
19.7508
54.8022
9.17193
20.1024
0.142263
0.181146
1.48676
39.2781
1.55952
139.738
52.6022
48.1482
34.2884
0.000722342
15.4565
0.00601993
11.2044
426.928
20.9694
20.2815
64.0579
24.5864
0.000718586
0.000731013
55.5863
70.2669
0.000758438
1485.41
0.0228422
167.473
0.297641
0.000704641
89.0427
10.2829
12.1994
11.7482
70.5094
34.7479
20.4972
0.507676
0.393864
32.6456
95.4696
196.152
132.798
82.9037
0.000837442
44.9008
16.2077
17.2021
43.1346
5.5435
4010.24
21.7493
1.83424
4.02908
19.1563
14.5007
24.6066
1.55317
12.6805
0.00758007
0.175
577.574
13.1494
58.4029
48.4785
8.02192
164.449
10.747
0.043253
174.617
87.6187
85.533
186.195
30.0787
105.965
29.1212
27.2091
178.811
29.6738
26.8116
21.0094
25.2639
11.0088
12.5193
82.2571
86.0508
1.9507
26.8109
170.934
99.5035
98.8973
16.1901
191.453
0.677889
85.16
0.0705471
54.5239
6.57839
1.01909
336.842
214.36
0.56916
54.0417
32.933
0.00073701
0.690755
0.522542
0.708844
40.7762
0.000720436
97.9501
20.0139
0.0941356
93.365
43.0655
0.000721189
442.74
0.0292797
14.5204
10.7412
9248.27
50.2896
42.6503
18.4747
0.000714317
0.000717287
39.9752
13.4947
0.000683291
11.0572
0.00070365
0.000717375
0.000740057
0.000705937
0.231967
0.000725324
0.00175279
123.097
49.8668
0.000755471
19.117
0.00381984
75.8045
147.327
90.5776
1101.63
15.073
0.000659377
0.000744365
0.0952333
0.710608
96.1964
0.000682234
0.178224
24.516
51.5251
5.43986
27.6967
25.1725
71.2772
1008.99
2.59279
4.97163
0.000883413
0.000735548
1.61032
4.12657
0.243009
28.1262
50.7697
5051.78
175.045
2.94458
22.8831
65.9984
0.000734759
8.93519
49.8416
0.00151419
0.000714541
51.8791
3771.29
81.0694
0.000685447
0.0499575
3.97397
0.0156116
0.000730477
53.1709
6.86731
17.5985
16.0691
0.000919412
921.017
0.000714643
1.66849
18.8638
0.00204591
0.00469399
92.769
0.0031956
45.4706
313.836
85.4403
26.1235
41.2515
98.9821
0.000714964
0.000689674
0.000729242
74.8561
0.0843568
315.267
5355.21
4.53358
59.7344
0.000724192
0.0434992
14.4785
0.000689966
0.000725726
97.516
0.000679862
1.72349
55.1213
27.6805
0.000667651
0.00255827
0.259384
0.239534
10.9758
0.407638
0.000700725
809.915
54.1694
0.813647
0.00544794
33.3622
88.9549
0.00234469
15.3589
0.00225217
65.2108
0.00084404
12.722
1.03223
0.000705393
77.0761
11.1058
172.089
0.00351782
10.0364
2.70041
0.00146971
89.4754
51.1012
2.51838
210.767
0.0152328
0.0467371
0.00488275
117.015
31.6534
0.202598
2.45287
4.17133
171.025
0.830802
83.353
1148.55
0.000673691
211.053
56.387
10.4204
0.000697366
19.7026
94.4784
0.151473
84.5108
23.3658
2.42134
0.326847
30.0449
120.683
0.000863277
0.0103595
55.2983
0.0328118
0.00190345
240.855
1087.35
0.0331517
22.7766
52.1721
0.631947
46.2218
26.9821
52.122
19.3114
24.469
0.000738988
0.189251
44.9564
18.5926
116.657
21.7096
98.1407
175.883
991.235
75.0629
2.57864
0.000727144
216.725
91.0623
46.2593
10.3926
1.11735
0.149649
11.1616
0.000731112
17.07
0.000732151
35.6877
10.6883
92.1672
29.3691
78.0579
111.048
119.962
29.7012
221.01
0.000734518
0.340665
58.1079
1424.37
7.72915
23.92
0.000875363
0.0194398
6.20076
118.194
18.2102
0.000699182
0.0653828
0.00070843
0.0541458
19.8446
0.0280708
66.1445
2.82839
72.0821
0.446144
0.442322
298.246
658.836
0.000740135
0.000740699
5.49777
186.027
17.5796
13.2304
3.27178
30.9
19.4984
0.000664864
0.7521
12.2348
0.00134329
77.4928
12.839
26.9351
17.4181
0.00564464
0.000664694
0.0148132
0.00071366
26.9413
20.3168
122.755
22.9312
0.000731613
139.398
0.123254
118.658
1.79535
194.096
0.0306181
0.508138
0.000685116
38.9043
566.83
19.5395
4.6011
0.000657659
104.452
44.9298
50.5641
0.000700557
0.620731
56.7674
26.8974
0.00187211
1071.12
0.000918093
59.1327
28.9785
0.00087983
2.05193
0.141205
1.09086
0.00070051
0.000741847
75.5101
36.4466
19.7845
54.0698
0.00135234
1.92137
0.220839
44.7529
8.30486
0.00100862
1.57322
403.336
0.000688999
0.00289094
26.2939
130.868
88.4941
0.000720254
696.143
23.8524
115.775
0.0201948
2.51916
144.832
0.000735714
101.368
2.47765
18.1082
7.84888
45.325
7.97849
94.3652
96.8913
15.9417
4967.33
0.000746672
0.000719185
142.833
47.3014
0.00130357
0.000723312
9.37606
0.000745337
51.9792
52.5756
1.13892
0.000701387
39.9162
0.404713
21.4495
66.613
25.5948
0.26704
2.35772
118.997
0.000738987
2.36783
61.5394
21.5151
18.1866
0.00232539
10.7096
2.74473
2789.49
0.000711224
2.56623
35.7504
18.3447
0.000771077
0.166373
28.7975
55.7292
77.3503
0.0607313
205.029
31.8889
0.303981
31.5695
0.000712602
0.00246723
9.09708
0.000684433
26.5395
0.000726289
115.093
0.00454605
57.176
0.000732331
0.924488
51.9262
127.024
7.58852
31.0897
0.388086
241.815
0.00778828
0.15558
18.4026
0.000697685
0.000745103
27.953
0.383213
94.8466
25.9056
0.000758635
90.8106
105.902
81.2719
7.20569
170.478
95.821
0.000740884
2399.23
4212.45
49.7597
0.000759723
0.00435899
273.541
54.2201
0.000704668
90.8905
0.000698265
0.111499
303.609
0.000851926
16.9049
0.00072004
0.0642335
121.431
0.000762143
0.00101787
0.000734967
0.000938567
0.0137168
1018.35
51.473
0.309754
11.3894
0.000726474
49.2974
0.000729748
8.9917
1.82531
0.0157959
4.44
0.00628694
73.9566
0.000725037
10698.9
4.25253
30.2334
208.301
4.79187
0.000697114
26.0419
180.208
1.9901
49.7078
58.366
184.821
23.1178
0.0364564
28.6095
0.174941
0.00103708
0.29245
4116.73
155.085
1.03303
0.0292153
20.6412
0.000924332
9.40886
52.2755
174.557
64.4428
60.5242
0.0301326
0.00176369
32.5423
24.3997
0.0490968
42.76
0.000720326
120.914
218.995
0.000766953
176.413
48.8616
1.15434
0.152756
140.098
0.0155345
0.316809
13.4111
3.0046
2.84601
0.000752868
27.1365
0.111476
150.17
28.1054
79.8936
6.18356
0.00223543
39.2255
0.000730491
0.00072403
10.5807
0.149552
1.72224
211.997
0.000669086
72.7616
0.148709
0.0586072
0.000791264
166.403
8.1233
0.348383
40.6893
0.0585586
309.41
3.96193
0.000716372
236.616
270.721
0.0015933
0.00318281
77.6548
26.5961
0.418685
233.403
0.0277724
2.02099
0.24608
0.391657
32.0621
94.3403
0.000736748
96.2024
22.0608
0.00735521
1.29294
1498.08
15.9811
0.000731446
0.000683575
35.4578
23.5295
66.9785
0.000683098
34.3292
2.89321
32.2537
0.000926305
167.474
46.6534
0.00156369
16.4323
0.000740961
86.874
32.1845
28.3424
40.2221
0.000716166
0.000718333
9.82899
110.405
5.68089
37.999
0.000665333
0.0436202
0.000734266
0.0019428
39.7962
0.0887128
0.348109
0.917332
21.7519
152.295
24.7975
65.6896
0.000728964
29.4237
37.899
20.6599
0.000738997
44.137
0.000735329
0.000726962
0.158974
20.7582
0.0161942
336.77
35.1093
328.388
0.000762578
0.00132087
0.0372673
110.275
4.60578
145.808
0.000725841
0.000715972
0.00196182
0.00296933
139.772
44.8607
83.1156
0.308856
0.0360337
3.8645
3.79034
57.2949
15.2978
61.2818
18.9404
0.000690187
182.593
0.00155586
1.83355
62.1402
26.2517
1.31024
0.619603
0.000943323
106.327
7.47933
20.0293
28.5104
0.000722606
67.2855
43.0434
171.596
0.00440702
59.1367
47.622
56.6699
191.119
22.0779
55.8488
0.277526
814.127
4.28466
0.188836
121.149
0.00072954
94.0552
173.505
0.000703881
35.8351
0.00130995
102.238
102.351
1.7734
18.8104
106.395
97.4816
13.3801
0.943469
50.2274
9.34896
0.00560357
0.000696506
24.6845
0.0862141
19.5043
58.1457
4.48925
53.9316
105.073
0.000717039
15.9813
461.702
243.561
10.398
99.7519
18.2209
208.582
97.3437
1.65232
0.0159494
0.22175
68.1236
84.034
0.222207
53.8703
59.9005
53.0056
11.0925
2.07413
10.6435
32.9942
0.000738547
238.751
88.8088
1.51877
0.000738418
26.8071
15.5616
17.1626
0.00072023
149.681
0.000728796
12.0521
0.180636
0.000733694
39.4132
81.5262
0.000701061
50.5268
27.913
24.8526
12.7043
40.4065
15.436
40.7519
52.8685
1.71748
0.000708691
0.00128167
33.6909
5.62503
0.126214
0.000738546
84.1891
0.00185359
0.97707
0.250797
10.8765
8.66917
0.0645103
0.52345
394.632
173.195
24.3357
1421.46
56.9492
0.000706103
51.5607
18.0427
182.31
0.000709436
5.48309
0.000737103
0.000866615
17.4578
4.00077
0.0327369
0.000802661
56.9986
3020.65
0.00246935
0.00072892
1.63793
9.51162
0.015873
0.087191
3169.33
0.553659
0.000795795
0.000727664
66.8478
20.7728
0.306563
0.0668052
64.2423
193.169
29.5409
103.473
35.2965
0.000730546
16.6224
0.000723077
130.356
15.4916
2936.03
6.15448
0.146546
0.000951913
97.3629
0.000739878
0.000712133
0.00176184
13.7144
18.5057
61.6895
0.000719014
16.6918
0.000727255
529.713
61.7519
0.000744625
126.181
6.2757
0.000729066
0.000766874
0.0263545
139.719
5.64909
0.0173909
0.000727497
0.000709721
134.682
91.5309
20.8813
34.5886
0.474694
34.4932
0.000718456
0.00406394
6.88932
209.963
48.1357
0.00325744
0.000731397
33.2601
0.000727518
87.9404
140.605
7.23364
0.0382081
91.8396
16.6101
3.1546
0.000727966
7.44213
95.0721
85.2042
0.00217336
0.0221235
31.8248
3012.28
0.0536068
4.56451
0.000703037
0.000689904
0.000740628
0.0102672
31.9858
69.9649
0.0416421
99.6762
22.576
419.995
8.16136
0.0109773
0.00276809
0.00617691
2.59041
48.0763
20.1533
0.000753059
96.3263
0.000716165
0.00631951
65.6639
49.7209
0.0266904
5.32479
9.82945
0.00104964
0.740422
2.52795
0.000722278
0.000931241
146.966
0.000888902
0.000753606
110.967
25.2427
3163.54
8.8301
1375.54
0.000851891
0.000700283
3520.51
17.3001
1.17944
3.72186
0.0572919
18.5503
1.02498
986.632
47.0439
66.6516
143.513
104.545
1.05627
27.1937
99.3801
0.00693354
80.7338
0.000980903
37.033
6.32227
0.73602
7.88693
6.989
3.50025
2.03928
39.2243
61.0181
45.0633
28.707
50.2171
36.1624
6.28131
0.00109218
0.000724307
0.237
252.4
0.000725512
80.0916
0.000705562
0.00379312
189.953
112.721
45.0499
74.9528
979.75
77.5668
19.0902
40.2787
0.000724389
16.7219
74.4981
0.000760093
198.612
0.00253943
719.432
250.265
294.798
14.1515
84.1487
4.53406
0.501111
16.0451
94.4019
20.5336
12.2258
5.38856
77.2852
0.135774
124.336
335.54
0.0036801
34.5772
0.000739834
0.000988048
17.5247
133.354
168.945
14.629
0.61273
0.218606
0.320301
0.000848459
22.8511
0.000847942
154.811
0.000803044
0.120896
258.61
5.55393
2.89866
192.115
157.852
0.00194698
0.000740096
0.1943
13.6203
0.166096
112.996
0.0371959
25.7623
5.13116
27.1021
56.1329
0.000867465
0.000719445
130.495
0.722764
5.57539
56.3038
29.2701
38.8195
0.00389008
164.651
56.1522
90.4927
0.000828364
1.28805
24.7618
79.1429
1.00394
14.0353
0.000737698
11.8611
0.000710645
221.85
0.00436217
34.729
0.172585
10.1457
0.000761946
1961.43
0.000739093
142.758
0.0160707
0.000727374
0.00678387
14.5695
0.000729276
0.000733365
10.3295
0.0268866
20.4679
0.0634397
0.000772372
22.4128
6.44895
39.6923
0.000782263
111.689
4.55495
351.89
37.5111
29.9432
57.4792
93.0147
4.63566
299.272
249.184
98.3264
0.000753326
2.42125
25.6174
18.2156
0.00128567
0.0163321
20.6325
482.278
0.000735472
1.66519
105.14
0.000675627
57.8779
66.8411
182.227
73.3764
52.5638
12.3108
0.341822
202.375
9.27867
73.8029
51.7822
52.4072
0.489099
0.000727258
34.1885
0.00182388
0.000750513
0.00071167
177.893
0.00072755
0.000913178
18.3866
9466.45
2.8553
2.58863
52.7476
11.1669
0.000728511
42.3178
223.835
0.0161884
4.73957
55.8017
49.0295
0.282539
0.0208539
0.000717028
0.00072621
0.0173093
0.0416944
25.2439
21.2206
88.1958
14.1339
13.9377
0.000995505
197.963
28.2682
0.00074783
23.1038
827.018
0.000734645
6.95885
119.793
43.7477
91.7399
0.717517
143.977
0.000856751
0.925258
0.000773861
0.00198772
0.000746828
63.3836
18.1496
0.0967153
0.000739345
0.000686728
188.248
28.6444
2.73472
19.9816
6.2431
36.3334
18.427
24.4772
26.5612
0.000732269
0.482365
0.879179
0.353974
19.0568
77.2051
49.5807
84.0739
27.8181
88.1011
161.594
95.38
46.5639
32.166
0.131531
56.7887
29.6184
0.020265
79.5653
53.9159
10.9304
0.000699443
0.000742731
0.000873469
0.00118269
49.9003
0.000674427
109.753
50.5034
229.906
28.9532
0.00072644
12.4744
15.888
58.0823
15.369
29.4779
13.7355
0.000754701
0.000742226
0.00345318
0.176022
0.000710773
84.5289
13.961
1.74276
47.6626
15.0697
39.0283
118.305
0.000728216
19.0922
30.9793
0.000944616
0.0907746
52.8278
168.854
20.2818
4.75163
0.000753931
33.6851
39.6356
0.000959508
0.0116214
0.000722848
39.7522
0.00116595
0.517959
112.714
0.763666
0.0999144
21.809
2877.59
0.000758172
30.2137
0.00067546
10.2401
23.0474
22.2868
17.0791
60.8659
31.721
58.2622
189.01
45.355
0.000732409
0.000718148
0.0475294
0.206902
53.1989
4.54798
0.000730221
164.417
2.89844
0.00301846
52.3415
0.0545846
0.00287153
0.032291
74.2102
0.00203755
0.000734266
21.3524
83.4567
25.1444
1.62631
53.9653
8.24939
0.00073746
16.8036
0.146146
0.0685558
0.000791106
34.6982
20.0476
5.51028
139.128
94.6241
16.4152
2.90044
0.000725724
25.8577
0.000726202
223.164
0.0040756
33.4119
0.157992
53.6971
0.00810753
0.00356639
4.54873
3.74168
386.582
0.000853152
1.89436
46.3895
91.2232
6.40689
114.717
1.32767
0.000812304
0.000744797
58.1952
24.6044
313.187
2.24718
0.164462
54.9284
21.0957
59.521
0.0668354
0.00072599
0.000734803
1.27414
767.909
18.6078
105.987
0.000842784
0.00453238
1.10956
48.9147
22.8249
45.0745
57.9192
60.8561
0.000741921
0.000735545
179.045
135.889
61.5949
427.12
48.0773
0.0161028
132.997
0.000724668
226.236
0.0177359
0.0210132
0.000727211
0.0347092
0.173068
53.6973
48.4309
0.000754517
116.31
0.000719037
82.8547
148.529
0.000718105
0.470243
0.0007544
16.4691
0.324122
5.6187
0.000691772
13.1868
90.9348
13.1428
45.1319
1.2402
60.6292
1.58093
62.6746
33.3867
84.0353
30.8134
0.000955107
0.000736191
27.2194
0.48086
61.6528
0.000731901
123.356
0.000724325
0.00131045
0.250572
0.000720461
273.647
97.6739
0.000762186
21.8781
2.57121
0.175182
33.2002
0.00188094
0.000708277
42.9993
9.15726
0.0205742
46.5986
2371.91
108.398
1.62934
183.016
0.225355
0.000735777
0.000900532
0.0276575
1.55171
57.7086
140.77
312.56
52.4251
55.0414
10.6068
1.98002
37.3456
154.181
56.1188
0.0352209
0.0854662
13.068
83.8807
0.00079321
1.00358
17.5321
192.491
0.000726907
49.0891
0.000680745
0.00644375
129.557
0.00079048
65.1865
1155.59
0.000738013
175.252
0.000870191
8.89682
0.00652867
0.00103377
47.5312
16.2042
64.6378
8.46968
79.5682
350.449
105.553
5.96052
36.6811
20.3432
0.000705297
162.902
0.0565437
88.6123
4.03137
10.5363
0.0346587
0.0010887
167.196
116.649
12.6436
48.3879
18.0943
0.010311
0.000694832
0.000744478
1.6577
75.3311
17.2545
0.000703925
1167.98
20.4522
0.00960922
0.141797
20.1889
0.000664324
0.392133
0.000762217
0.000723747
21.4314
30.0446
0.054657
0.0062417
0.000708808
29.0798
1.77429
20.7291
0.00231508
0.0321797
0.00738246
61.1702
103.266
1.23312
0.000729312
160.247
0.000780827
0.0337245
0.0041623
0.00141261
34.8221
64.854
0.000725235
49.9847
0.000748745
0.00069627
0.000880829
53.4444
15.4253
53.2221
42.4431
20.0781
61.8984
0.0442259
0.00072878
0.00706982
0.00161848
2.86897
0.000713545
61.6074
11.7281
0.0330898
101.135
0.353804
22.3097
1.87892
0.00184177
125.487
56.7802
20.1904
0.00724485
0.146516
214.866
0.000732765
8.92501
57.7633
0.00072466
0.708878
0.00279798
19.5265
0.000691662
81.5041
37.2725
1.71723
0.430813
94.1647
365.902
4.71906
125.553