/*--------------------------------*- C++ -*----------------------------------*\
| =========                 |                                                 |
| \\      /  F ield         | OpenFOAM: The Open Source CFD Toolbox           |
|  \\    /   O peration     | Version:  2.3.1                                 |
|   \\  /    A nd           | Web:      www.OpenFOAM.org                      |
|    \\/     M anipulation  |                                                 |
\*---------------------------------------------------------------------------*/
FoamFile
{
    version     2.0;
    format      ascii;
    class       volScalarField;
    location    "0.5";
    object      k;
}
// * * * * * * * * * * * * * * * * * * * * * * * * * * * * * * * * * * * * * //

dimensions      [0 2 -2 0 0 0 0];

internalField   nonuniform List<scalar> 
15166
(
1.07916
1.32439
1.70741
2.10979
2.42108
2.73164
2.95356
3.08649
3.13282
3.11041
3.02685
2.91535
1.07952
1.29576
1.71125
2.10201
2.41269
2.70209
2.90352
3.01967
3.05557
3.02825
2.94593
2.82563
1.08757
1.26419
1.69586
2.07997
2.38996
2.66272
2.84855
2.95208
2.98078
2.95008
2.86787
2.7443
1.0981
1.23887
1.67425
2.05154
2.35869
2.61734
2.7908
2.88477
2.90837
2.87528
2.79234
2.66393
1.1095
1.2198
1.65113
2.02091
2.32318
2.5692
2.73225
2.81872
2.83854
2.80379
2.72036
2.59125
1.12181
1.20529
1.62764
1.98943
2.28552
2.52003
2.67408
2.75444
2.77136
2.73539
2.65151
2.52117
1.13508
1.19427
1.6044
1.95774
2.2467
2.47074
2.61687
2.69218
2.70678
2.66987
2.58525
2.45193
1.14908
1.18607
1.58192
1.92628
2.20751
2.42192
2.56102
2.63205
2.64476
2.60716
2.52226
2.38962
1.16361
1.18021
1.56056
1.89549
2.16856
2.37401
2.50676
2.57408
2.58524
2.54717
2.46232
2.33047
1.17849
1.17622
1.54045
1.86557
2.13024
2.32731
2.45425
2.51829
2.52813
2.48981
2.40552
2.27626
1.19357
1.17378
1.5216
1.83661
2.09276
2.28197
2.40355
2.46465
2.47336
2.43504
2.35181
2.22607
1.20876
1.17256
1.50397
1.80869
2.05628
2.23807
2.35467
2.41309
2.42085
2.38278
2.3014
2.18151
1.22395
1.17233
1.48753
1.78179
2.02089
2.19565
2.30759
2.36354
2.3705
2.33292
2.25383
2.13986
1.23907
1.17293
1.47219
1.75592
1.98663
2.1547
2.26226
2.31592
2.3222
2.28522
2.20792
2.09439
1.25405
1.17412
1.45788
1.73107
1.95352
2.11522
2.21863
2.27016
2.27587
2.23963
2.1645
2.05574
1.26884
1.17582
1.4445
1.70721
1.92154
2.07715
2.17664
2.22618
2.2314
2.19598
2.12311
2.01823
1.28337
1.17787
1.43195
1.6843
1.89069
2.04047
2.13623
2.18388
2.1887
2.15416
2.08349
1.98177
1.29764
1.18022
1.42021
1.66233
1.86096
2.00513
2.09733
2.1432
2.14767
2.11405
2.04548
1.94658
1.31158
1.18276
1.40915
1.64122
1.83228
1.97106
2.05986
2.10404
2.10822
2.07554
2.00912
1.91364
1.32518
1.18543
1.39875
1.62095
1.80464
1.93823
2.02376
2.06633
2.07026
2.03855
1.97425
1.88203
1.33841
1.18819
1.38891
1.60148
1.77798
1.90657
1.98897
2.03
2.03371
2.00294
1.94059
1.85047
1.35127
1.19097
1.37959
1.58278
1.75229
1.87603
1.95542
1.99497
1.99849
1.96863
1.90804
1.81976
1.36372
1.19375
1.37075
1.56478
1.72751
1.84657
1.92306
1.96119
1.96452
1.93552
1.87647
1.78943
1.37575
1.19651
1.36232
1.54747
1.7036
1.81815
1.89183
1.92859
1.93175
1.90355
1.84589
1.76018
1.38736
1.19922
1.35427
1.53082
1.68054
1.79071
1.86168
1.89712
1.90009
1.87263
1.81628
1.73202
1.39852
1.20185
1.34656
1.51479
1.65829
1.76421
1.83256
1.86671
1.86951
1.84273
1.78762
1.70499
1.40926
1.20439
1.33916
1.49932
1.63681
1.73861
1.80442
1.83732
1.83992
1.81379
1.75995
1.67931
1.41956
1.20686
1.33205
1.4844
1.61605
1.71387
1.77722
1.8089
1.8113
1.7858
1.73327
1.65511
1.42939
1.20923
1.32519
1.47001
1.596
1.68996
1.75091
1.7814
1.7836
1.7587
1.70751
1.63159
1.4388
1.21149
1.31857
1.4561
1.57662
1.66682
1.72545
1.75477
1.75677
1.73247
1.68256
1.60846
1.44774
1.21366
1.31214
1.44266
1.55787
1.64444
1.7008
1.72899
1.73078
1.70705
1.65841
1.58621
1.45624
1.21572
1.30591
1.42964
1.53974
1.62277
1.67694
1.70401
1.70558
1.68241
1.63498
1.56446
1.46427
1.21768
1.29985
1.41706
1.52219
1.6018
1.65382
1.6798
1.68116
1.65851
1.61228
1.54357
1.4719
1.21954
1.29397
1.40486
1.50519
1.58148
1.63142
1.65633
1.65746
1.63533
1.59025
1.52317
1.47903
1.2213
1.28823
1.39305
1.48873
1.56179
1.6097
1.63356
1.63448
1.61284
1.56888
1.50351
1.48576
1.22298
1.28266
1.38157
1.47278
1.5427
1.58863
1.61147
1.61216
1.591
1.54814
1.48433
1.49204
1.22455
1.27721
1.37045
1.45731
1.52419
1.56819
1.59002
1.59049
1.56978
1.52802
1.46607
1.49789
1.22603
1.27189
1.35963
1.4423
1.50624
1.54835
1.56919
1.56943
1.54917
1.50851
1.44846
1.50332
1.22745
1.2667
1.34912
1.42774
1.48881
1.52909
1.54896
1.54897
1.52916
1.48955
1.43102
1.50833
1.22878
1.26163
1.33891
1.41361
1.4719
1.51039
1.52931
1.52909
1.50971
1.47119
1.41467
1.51288
1.23004
1.25667
1.32897
1.39989
1.45547
1.49223
1.51021
1.50975
1.49078
1.45315
1.39696
1.51698
1.23121
1.25181
1.31931
1.38656
1.43952
1.47457
1.49163
1.49094
1.47233
1.43547
1.37963
1.52065
1.23228
1.24705
1.30991
1.37361
1.42402
1.45742
1.47357
1.47264
1.45437
1.41826
1.36369
1.5239
1.23324
1.2424
1.30076
1.36103
1.40895
1.44073
1.456
1.45483
1.43686
1.40149
1.34793
1.52673
1.23406
1.23785
1.29187
1.34879
1.3943
1.42451
1.43891
1.43748
1.41981
1.38516
1.33296
1.52914
1.23475
1.23341
1.28322
1.33688
1.38005
1.40873
1.42227
1.42059
1.40318
1.36923
1.31788
1.53115
1.23534
1.22907
1.27478
1.32528
1.3662
1.39337
1.40607
1.40413
1.38697
1.35375
1.3039
1.53277
1.23579
1.22481
1.26657
1.31398
1.35272
1.37842
1.39029
1.38808
1.37117
1.33864
1.28988
1.534
1.23612
1.22064
1.25857
1.30299
1.3396
1.36386
1.37491
1.37243
1.35574
1.32393
1.2766
1.53485
1.23637
1.21654
1.25076
1.2923
1.32681
1.34968
1.35992
1.35716
1.34069
1.30955
1.26313
1.53532
1.23652
1.21251
1.24315
1.28189
1.31437
1.33586
1.3453
1.34227
1.32599
1.29551
1.25031
1.53541
1.23661
1.20855
1.23572
1.27176
1.30225
1.32239
1.33105
1.32773
1.31165
1.28183
1.23786
1.53514
1.2366
1.20466
1.22846
1.26188
1.29044
1.30927
1.31716
1.31355
1.29765
1.26844
1.22518
1.53451
1.23654
1.20084
1.22138
1.25226
1.27894
1.29648
1.30361
1.29972
1.28398
1.25539
1.21338
1.53352
1.2364
1.19708
1.21446
1.24287
1.26772
1.28402
1.29039
1.28621
1.27063
1.24268
1.20201
1.5322
1.23618
1.19339
1.2077
1.23373
1.2568
1.27187
1.2775
1.27303
1.25761
1.2303
1.19103
1.53052
1.23588
1.18977
1.2011
1.22481
1.24614
1.26002
1.26492
1.26016
1.24489
1.21821
1.17996
1.52851
1.23554
1.18621
1.19465
1.21611
1.23576
1.24847
1.25266
1.24761
1.23248
1.2064
1.1692
1.52616
1.2351
1.18272
1.18835
1.20763
1.22564
1.2372
1.24069
1.23536
1.22037
1.1948
1.15792
1.52348
1.23463
1.1793
1.1822
1.19935
1.21576
1.22621
1.22901
1.2234
1.20852
1.18346
1.14745
1.52047
1.23409
1.17595
1.1762
1.19127
1.20613
1.2155
1.21762
1.21172
1.19695
1.1724
1.13759
1.51714
1.23349
1.17266
1.17033
1.18339
1.19674
1.20504
1.20649
1.20031
1.18565
1.16164
1.12802
1.51349
1.23283
1.16944
1.1646
1.1757
1.18757
1.19483
1.19564
1.18917
1.17461
1.15111
1.11837
1.50952
1.23213
1.16629
1.15901
1.1682
1.17863
1.18488
1.18505
1.1783
1.16383
1.14083
1.10895
1.50524
1.23138
1.16321
1.15355
1.16088
1.16992
1.17518
1.17472
1.16769
1.15331
1.13075
1.09948
1.50064
1.2306
1.16021
1.14824
1.15374
1.16142
1.16571
1.16464
1.15734
1.14303
1.1209
1.09036
1.49575
1.22975
1.15727
1.14305
1.14678
1.15312
1.15648
1.1548
1.14723
1.13298
1.11124
1.08124
1.49054
1.22887
1.15442
1.138
1.14
1.14504
1.14747
1.14521
1.13736
1.12316
1.10179
1.07254
1.48502
1.22797
1.15164
1.13308
1.13339
1.13715
1.13869
1.13584
1.12772
1.11357
1.09256
1.06398
1.47921
1.227
1.14894
1.1283
1.12694
1.12947
1.13012
1.12671
1.11832
1.1042
1.08355
1.05573
1.4731
1.22601
1.14632
1.12365
1.12066
1.12197
1.12176
1.11779
1.10914
1.09505
1.07472
1.04742
1.4667
1.22495
1.14377
1.11913
1.11455
1.11467
1.11361
1.1091
1.10018
1.08611
1.06608
1.03943
1.46
1.22388
1.14131
1.11474
1.10861
1.10755
1.10567
1.10062
1.09143
1.07738
1.05766
1.03163
1.453
1.2228
1.13894
1.1105
1.10283
1.10063
1.09793
1.09235
1.0829
1.06885
1.04942
1.02393
1.44571
1.22167
1.13664
1.10638
1.09721
1.09388
1.09039
1.08429
1.07457
1.06053
1.04136
1.01644
1.43815
1.22048
1.13443
1.1024
1.09175
1.08732
1.08305
1.07644
1.06646
1.0524
1.03348
1.00889
1.43031
1.21924
1.1323
1.09856
1.08646
1.08094
1.0759
1.06879
1.05854
1.04447
1.02576
1.00153
1.42216
1.21799
1.13025
1.09485
1.08133
1.07474
1.06894
1.06133
1.05083
1.03673
1.0182
0.994262
1.41373
1.21672
1.12832
1.09129
1.07636
1.06872
1.06217
1.05407
1.04331
1.02917
1.01082
0.987227
1.40502
1.2154
1.12647
1.08787
1.07156
1.06287
1.0556
1.04701
1.03599
1.02181
1.0036
0.980215
1.39603
1.21406
1.12471
1.08459
1.06692
1.05721
1.0492
1.04014
1.02886
1.01462
0.996545
0.973533
1.38677
1.21267
1.12303
1.08146
1.06245
1.05171
1.04299
1.03345
1.02191
1.0076
0.98965
0.967047
1.37722
1.21124
1.12145
1.07847
1.05814
1.0464
1.03697
1.02696
1.01515
1.00077
0.982943
0.960634
1.3674
1.20977
1.11997
1.07563
1.05401
1.04127
1.03113
1.02066
1.00859
0.994135
0.976405
0.95427
1.35729
1.20829
1.1186
1.07294
1.05004
1.03632
1.02548
1.01455
1.00221
0.987667
0.970023
0.948182
1.34692
1.20675
1.11732
1.07041
1.04625
1.03155
1.02001
1.00862
0.996014
0.981382
0.963808
0.942098
1.33629
1.20514
1.11612
1.06804
1.04263
1.02695
1.01473
1.00288
0.99
0.975264
0.957743
0.936356
1.32537
1.2035
1.11504
1.06582
1.03919
1.02255
1.00964
0.997321
0.984175
0.96934
0.951875
0.930646
1.31417
1.20183
1.11406
1.06376
1.03593
1.01833
1.00473
0.991958
0.978536
0.963595
0.946174
0.925133
1.3027
1.20013
1.11318
1.06188
1.03286
1.0143
1.00001
0.986779
0.97308
0.95802
0.940606
0.919458
1.29095
1.19837
1.11241
1.06016
1.02998
1.01046
0.995487
0.981786
0.967803
0.952617
0.935226
0.914585
1.27893
1.19658
1.11173
1.05862
1.02729
1.00682
0.991158
0.97699
0.962732
0.947433
0.930093
0.909709
1.26665
1.19469
1.11117
1.05725
1.0248
1.00338
0.987027
0.972394
0.957845
0.942415
0.925099
0.904948
1.25408
1.19279
1.11071
1.05607
1.02251
1.00015
0.983102
0.967991
0.953154
0.937585
0.920284
0.900234
1.24125
1.19081
1.11037
1.05506
1.02042
0.997129
0.979377
0.963794
0.948654
0.932941
0.915632
0.895655
1.22816
1.18874
1.11012
1.05424
1.01855
0.994318
0.975867
0.959798
0.944358
0.928497
0.911166
0.891146
1.21478
1.18662
1.10999
1.05363
1.0169
0.991733
0.972569
0.956012
0.940258
0.92423
0.906843
0.886876
1.20111
1.18448
1.10998
1.05322
1.01549
0.989374
0.969494
0.952432
0.936364
0.920164
0.902725
0.882729
1.18719
1.1822
1.11008
1.05301
1.0143
0.987249
0.966638
0.949075
0.932675
0.916295
0.898778
0.878784
1.17299
1.17987
1.11029
1.05301
1.01336
0.985364
0.964022
0.945937
0.929208
0.912636
0.895049
0.874968
1.15851
1.17746
1.11062
1.05323
1.01267
0.98373
0.961639
0.94303
0.925948
0.90917
0.891486
0.871472
1.14373
1.17502
1.11107
1.05368
1.01224
0.982357
0.959511
0.940356
0.922917
0.905927
0.888145
0.868152
1.12869
1.1725
1.11164
1.05436
1.01208
0.981258
0.957647
0.937942
0.920134
0.90293
0.88505
0.864966
1.11337
1.16986
1.11231
1.05526
1.0122
0.980443
0.956056
0.935779
0.917593
0.900158
0.882176
0.862074
1.09778
1.16709
1.11312
1.05641
1.01259
0.979922
0.954741
0.933881
0.915296
0.897616
0.879521
0.859486
1.08191
1.16426
1.11402
1.05781
1.01329
0.979703
0.953719
0.932258
0.913261
0.895339
0.877136
0.857024
1.06576
1.16129
1.11505
1.05945
1.0143
0.979798
0.953003
0.930924
0.911491
0.893291
0.874932
0.854828
1.04934
1.15824
1.11619
1.06136
1.01563
0.980231
0.95261
0.929897
0.910013
0.891529
0.873011
0.852799
1.03263
1.15519
1.11746
1.06356
1.01731
0.981019
0.952559
0.929189
0.908836
0.890051
0.871356
0.851024
1.01563
1.15191
1.11888
1.06604
1.01934
0.982174
0.952869
0.928814
0.90797
0.888852
0.869934
0.849426
0.998342
1.14858
1.12043
1.06883
1.02176
0.983727
0.953558
0.928802
0.907443
0.887975
0.868839
0.848165
0.980758
1.14516
1.12209
1.07192
1.02457
0.98569
0.954647
0.92917
0.907274
0.887445
0.868088
0.84732
0.962904
1.14147
1.12389
1.07533
1.02779
0.9881
0.956163
0.929942
0.907496
0.887304
0.867752
0.846768
0.944755
1.13772
1.12581
1.07908
1.03144
0.990961
0.958127
0.931127
0.908092
0.887487
0.867632
0.846105
0.926312
1.13386
1.12783
1.08317
1.03556
0.994312
0.960556
0.932744
0.909082
0.888016
0.867827
0.845952
0.907596
1.12975
1.13
1.0876
1.04015
0.998172
0.96349
0.934836
0.910511
0.888977
0.868477
0.846322
0.88857
1.12556
1.13228
1.09242
1.04525
1.00261
0.966972
0.937445
0.912418
0.890367
0.869479
0.846996
0.869256
1.12108
1.13472
1.09762
1.05089
1.00763
0.971057
0.940618
0.914859
0.892272
0.87102
0.848322
0.849647
1.11645
1.13723
1.10322
1.05711
1.0133
0.975779
0.9444
0.917868
0.894719
0.873099
0.850228
0.829769
1.11172
1.13988
1.10923
1.06393
1.01964
0.981193
0.948846
0.921487
0.897745
0.875737
0.852475
0.809594
1.10673
1.14267
1.11568
1.0714
1.02672
0.987338
0.953978
0.925737
0.901294
0.878719
0.854656
0.789107
1.10151
1.1456
1.1226
1.07955
1.0346
0.994284
0.959869
0.930683
0.905489
0.882341
0.857853
0.768337
1.09602
1.14866
1.13001
1.08844
1.04333
1.00212
0.966613
0.936436
0.910458
0.886781
0.861999
0.747286
1.0905
1.15186
1.13795
1.09814
1.05299
1.01092
0.974285
0.943029
0.91617
0.891784
0.866429
0.725921
1.08458
1.15524
1.14648
1.1087
1.0637
1.02078
0.982977
0.950574
0.922743
0.897612
0.871579
0.704254
1.07841
1.15882
1.15565
1.12023
1.07554
1.03184
0.992809
0.959165
0.930244
0.904217
0.877492
0.682306
1.0722
1.16261
1.16551
1.13286
1.08867
1.04423
1.00395
0.968967
0.938852
0.911871
0.884434
0.66002
1.06557
1.16672
1.17623
1.14672
1.10326
1.05813
1.01654
0.980112
0.948684
0.92061
0.892118
0.637417
1.05878
1.17121
1.18791
1.16202
1.11952
1.07375
1.03077
0.992732
0.959815
0.93052
0.901084
0.614437
1.05173
1.17622
1.20087
1.17901
1.13772
1.09133
1.04683
1.00699
0.972357
0.941607
0.911011
0.591086
1.0447
1.18216
1.21542
1.19812
1.1582
1.11117
1.06497
1.02311
0.986537
0.954215
0.922452
0.567247
1.03782
1.18959
1.23227
1.21987
1.18137
1.13358
1.08547
1.04128
1.00245
0.968252
0.935047
0.542853
1.03237
1.19971
1.25235
1.24488
1.20765
1.15881
1.10847
1.06163
1.02018
0.983744
0.948628
0.51778
1.03186
1.21575
1.27806
1.27446
1.23787
1.18759
1.13472
1.08476
1.0402
1.00098
0.963628
0.48827
1.03316
1.23063
1.30435
1.30267
1.26679
1.21534
1.16114
1.10813
1.06116
1.0191
0.980058
1.04067
0.00468008
0.347421
0.321808
0.320745
0.288906
0.279328
0.646841
0.830979
0.777949
0.567806
0.00777934
0.0326164
3.01868
0.277059
0.00354997
2.83104
0.110622
0.107657
0.00348338
0.140585
0.17612
0.144822
0.0269071
1.05613
0.346509
0.160016
0.375045
0.604673
0.812996
0.53809
1.16682
0.00420061
0.558293
0.0311398
0.165941
0.3873
0.470859
0.393047
0.00818304
0.0704782
0.0033773
0.0716749
0.531586
0.268445
0.173094
0.060849
0.0248535
0.271383
0.140032
0.164096
0.634584
0.262995
0.00321463
1.98792
0.00444691
0.0106637
0.00337425
0.471557
0.266425
0.155739
1.19157
0.0032091
0.016883
0.183602
0.0045328
0.888892
0.252359
1.53223
0.689214
1.88405
0.0535761
0.383403
0.729124
0.0273712
0.00323011
0.7976
0.00309478
0.0702109
0.24106
0.103481
0.00310386
0.40574
0.2953
0.016366
1.1191
0.88454
0.00319468
0.391006
0.237787
0.353797
0.653813
0.00319826
0.00392207
0.456858
0.00326192
0.362485
0.0128418
0.00317208
0.899061
1.10876
0.203699
0.00335325
0.00434061
0.00312134
0.514832
0.512237
0.689482
0.533176
0.00885697
0.094477
0.00312705
0.202571
0.00372681
0.00318215
0.219921
0.0195243
0.219995
1.09335
0.176132
1.02451
0.029343
1.69988
0.199702
0.12567
1.29238
0.00405448
1.96535
0.0323857
0.00320012
0.231677
0.00323636
0.233188
0.00434539
0.162787
0.00514925
0.233311
0.595976
0.208027
0.00585723
0.0170212
0.145385
0.26957
0.025446
0.174605
1.89737
0.298918
0.00454293
0.983122
0.37416
0.0640553
0.214044
0.00309225
0.114726
0.15655
0.00314728
0.248541
0.00320198
1.28001
0.00708534
0.0270426
0.00356927
0.128086
0.0132885
0.149779
0.0844476
0.984659
0.2917
0.335184
0.00307307
1.88829
0.758519
1.9927
0.0179161
0.00305943
0.574594
0.00311686
0.305932
0.138029
0.719708
1.00917
0.438064
0.0629273
0.371207
0.00339038
0.262745
0.003178
0.00315336
0.175349
0.00318555
0.487634
0.0031067
0.9368
0.00475751
0.284101
0.296505
0.271768
0.165145
0.00312702
3.17562
1.01998
0.318213
0.413982
0.217261
0.324904
0.105016
0.0915486
0.228939
0.703497
0.216983
0.288255
0.900093
0.500562
0.396571
0.00315442
0.283574
0.0129683
0.427442
3.25243
0.210307
0.294664
1.02112
0.338898
0.00315697
0.0031882
1.30877
1.11842
0.00327022
4.20627
0.0324084
0.312489
0.121389
0.00311782
0.947485
0.414205
0.253644
0.246314
1.07901
0.657
0.322199
0.154778
0.161401
1.25521
1.687
0.375295
0.281821
0.227988
0.00350597
1.39598
0.289872
0.650714
0.726841
0.378969
3.95182
0.236704
0.240422
0.21043
0.310504
0.578081
0.341713
0.216425
0.258166
0.015756
0.0899683
0.683933
0.261856
0.922079
0.506961
0.36139
1.49129
0.288092
0.0502885
1.63949
0.209098
0.208348
1.69589
0.242285
0.260471
0.301819
0.203601
0.866179
0.238755
0.372656
0.331603
0.614221
0.273143
0.474507
0.207982
1.12082
0.128592
0.201677
1.66877
0.226325
0.224878
0.28301
0.919838
0.119715
0.206075
0.067775
0.480361
0.183643
0.106135
1.3667
2.05761
0.154301
0.954129
0.32352
0.00318779
0.201469
0.166125
0.211171
0.288917
0.00315766
1.18635
0.32004
0.0673988
0.225815
0.762344
0.00315195
0.638774
0.0388442
0.579591
0.422676
4.92993
0.503343
0.758456
0.539105
0.00313881
0.00316294
0.285044
0.447196
0.00307752
0.517309
0.00311577
0.00316227
0.00322464
0.00311707
0.140399
0.0031637
0.00580781
1.03853
0.512297
0.003229
0.334971
0.00987179
0.195849
0.295646
1.28836
4.14651
0.481128
0.00301106
0.00323875
0.0819592
0.134225
0.208969
0.00306429
0.0988752
0.315837
0.87858
0.37779
0.177647
0.273296
1.0261
4.08666
0.157121
0.32554
0.00364909
0.00318514
0.159083
0.258135
0.116376
0.173462
0.505844
2.744
1.69552
0.143827
0.343369
1.01423
0.00319835
0.419844
0.753631
0.00527051
0.0031629
0.520379
3.82734
0.734976
0.00308019
0.048929
0.154767
0.0256734
0.00319882
0.833399
0.382698
0.277376
0.282028
0.00374824
3.81439
0.00314286
0.235833
0.544831
0.00649072
0.0111338
0.962727
0.00879744
1.4094
0.767079
1.15121
0.653592
0.172242
0.681598
0.00313953
0.00309425
0.00317226
1.03846
0.0754688
1.2625
2.76263
0.164714
0.592061
0.0031791
0.0109159
0.274331
0.00308086
0.00317183
0.703332
0.0030684
0.227934
0.916461
0.371903
0.00302996
0.00749533
0.11059
0.116056
0.237029
0.144977
0.00310504
3.34355
0.836844
0.109498
0.0123937
0.327384
0.199604
0.00711831
0.279662
0.00690473
0.846272
0.0035282
0.250306
0.133136
0.00311625
1.30281
0.238422
0.322182
0.00930166
0.471305
0.144122
0.00516824
0.217477
0.490092
0.352357
1.10892
0.0240654
0.0509015
0.0115466
1.31219
0.676442
0.0630438
0.137583
0.163218
0.334921
0.182169
0.51103
1.1034
0.00304567
2.0495
0.91499
0.226638
0.00309809
0.267643
0.963239
0.0255061
0.436737
0.348867
0.256778
0.12672
0.177135
0.259429
0.00358645
0.0189263
0.875671
0.0391556
0.00438455
0.923017
4.08781
0.0395632
0.199888
0.788962
0.090466
0.491433
0.259214
0.84376
0.3212
0.290977
0.00323005
0.085186
0.447593
0.382342
1.33293
0.214164
1.42376
0.93761
3.75214
0.888749
0.310548
0.00316689
1.26411
0.204165
0.801717
0.416485
0.163777
0.08442
0.426552
0.00321462
0.297435
0.00317781
0.340865
0.421639
0.213241
0.175068
1.27233
0.241274
1.04351
0.642776
1.97782
0.00321793
0.123863
0.933272
2.44934
0.196092
0.71757
0.0036172
0.0282477
0.350285
1.85839
0.592239
0.00310244
0.0582278
0.00312257
0.0586929
0.351307
0.0375853
0.84684
0.142975
0.589648
0.155845
0.125204
1.23016
0.70906
0.00319514
0.00319639
0.257769
1.2178
0.275636
0.598522
0.441274
0.667508
0.26663
0.00302347
0.187565
0.253726
0.00485935
1.04938
0.265184
0.176372
0.27433
0.0127535
0.00302472
0.0237208
0.00313934
0.647207
0.817811
0.709542
0.6382
0.00319305
1.47829
0.0898885
0.742946
0.135474
1.73239
0.00866383
0.154669
0.00307426
0.497142
0.716726
0.315648
0.409621
0.00300705
1.3018
0.806002
0.510928
0.0031165
0.0709062
0.813934
0.617968
0.00610459
2.17327
0.0037391
0.805234
0.614638
0.00363019
0.131745
0.0877345
0.202522
0.00310546
0.00319887
1.15779
0.43172
0.322115
0.5266
0.00488083
0.128052
0.0982828
0.768975
0.208422
0.00395859
0.20907
1.20891
0.00307799
0.00821263
0.286306
0.635123
1.11624
0.00315809
0.729497
0.221373
1.30868
0.029876
0.151752
0.816496
0.00319987
0.199384
0.137926
0.376254
0.383368
0.726063
0.276558
1.21711
1.17704
0.282365
2.70768
0.00323658
0.00315036
1.49714
0.783657
0.00475881
0.00315675
0.473422
0.00320625
0.823782
0.540438
0.248062
0.00311692
0.808225
0.052986
0.291407
1.21616
0.235409
0.148537
0.145234
1.34689
0.0031921
0.285566
0.981637
0.234539
0.55732
0.00673608
0.533459
0.263321
2.03174
0.00313014
0.148922
0.683752
0.305787
0.003321
0.0952996
0.342181
0.439227
1.26979
0.0592655
1.87651
0.406347
0.0928413
0.404963
0.00313422
0.00737532
0.36305
0.00306755
0.175299
0.00316529
0.244708
0.0107786
0.839639
0.00321715
0.110646
0.493965
1.61082
0.356929
0.669938
0.163597
2.44864
0.0156036
0.093496
0.571859
0.00309935
0.00320601
0.380333
0.156048
0.248861
0.390766
0.00328417
0.216262
0.218749
0.201009
0.492379
1.14831
0.200076
0.00319667
1.88295
2.42484
0.506891
0.00323832
0.0108349
2.09395
0.260425
0.00311983
1.29448
0.00310059
0.0804707
2.74583
0.00354817
0.291539
0.00314941
0.0566225
0.751426
0.00324368
0.00401705
0.00318308
0.00379995
0.0216803
3.81132
0.805144
0.09391
0.24214
0.00316397
0.76556
0.0031734
0.248061
0.232755
0.0247997
0.159763
0.0139111
1.1511
0.00318442
4.32703
0.218268
0.629208
0.351573
0.163028
0.00309676
0.193399
1.09779
0.129338
0.752506
0.886104
1.69384
0.34981
0.0419626
0.627895
0.0840788
0.00406576
0.106702
2.47092
1.14894
0.120015
0.00845194
0.297497
0.00375591
0.443731
0.872062
1.08658
0.842974
0.896348
0.037201
0.00583187
0.325978
0.224509
0.0483656
0.269497
0.00316116
0.261375
1.96584
0.00330253
1.69707
0.783297
0.114534
0.10194
1.45077
0.0236552
0.101416
0.457688
0.310695
0.29414
0.00322322
0.674007
0.0763075
0.27138
0.383125
0.199044
0.223012
0.0068574
0.68899
0.00317337
0.00316055
0.228471
0.104965
0.160167
1.91874
0.00303328
1.14086
0.0646116
0.0578797
0.00338877
1.72246
0.363861
0.0899682
0.784621
0.0598028
1.16009
0.154624
0.00314252
1.19383
2.08947
0.0054639
0.00876347
0.203565
1.03765
0.0993762
1.32473
0.0352607
0.233514
0.104149
0.156982
0.681009
0.203264
0.00318776
1.17584
0.328873
0.0151646
0.197116
4.25605
0.27646
0.00317662
0.00307078
0.764169
0.184076
1.01368
0.00306548
0.715162
0.295967
0.408492
0.00376691
0.314003
0.77736
0.00538491
0.258581
0.00321639
1.12342
0.211097
0.345387
0.262359
0.00314612
0.00314548
0.345557
1.40595
0.385979
0.732507
0.00302811
0.0454091
0.00320829
0.00626192
1.15989
0.0742184
0.097122
0.124893
0.325373
0.305709
0.356474
1.21032
0.00317283
0.304335
0.732075
0.245564
0.00319248
0.943204
0.00320555
0.00316624
0.0885916
0.211992
0.0251621
1.36397
0.203235
2.80235
0.00328522
0.00476024
0.0397783
0.903267
0.306062
0.962736
0.00316826
0.00314853
0.00629167
0.00835917
1.10578
0.805854
0.640753
0.123544
0.0448956
0.315552
0.164208
0.578068
0.275873
0.879572
0.312611
0.00308098
0.332983
0.00536888
0.194636
0.889099
0.18441
0.231724
0.133301
0.00380967
1.34387
0.516365
0.489076
0.314531
0.00315936
0.588635
0.762564
0.334203
0.00825227
0.913122
0.479536
0.838584
0.32877
0.336681
0.59011
0.120065
0.861583
0.258606
0.0979702
0.236258
0.00317894
1.21455
0.862552
0.00311821
0.684682
0.004774
0.538044
0.204622
0.237272
0.26669
0.730717
0.953181
0.262307
0.13137
0.174755
0.219548
0.0125466
0.00310405
1.0279
0.0615866
0.938046
0.549803
0.224615
0.834632
0.544975
0.00314509
0.27825
1.53428
1.06108
0.226807
0.239313
0.57072
1.89729
0.190821
0.23468
0.0249318
0.0837593
0.546903
1.19629
0.111641
0.842172
0.821286
0.785959
0.239828
0.231324
0.425509
0.692704
0.00319155
1.94174
0.669909
0.20501
0.00319069
0.592505
0.474473
0.294874
0.00317436
0.591406
0.00317258
0.243211
0.0912328
0.00319457
0.823338
0.347649
0.00310567
0.531875
0.373559
0.608896
0.258806
0.519381
0.279642
0.705967
0.169205
0.157383
0.00312932
0.00470827
0.343422
0.173404
0.0242972
0.0032296
0.354896
0.00604334
0.119784
0.118559
0.445751
0.207247
0.057498
0.0943239
0.549422
1.6371
0.329529
4.1189
0.870188
0.00311844
0.541077
0.589074
1.67755
0.00312663
0.173384
0.00318786
0.00359159
0.277281
0.289794
0.039132
0.00340824
0.806094
3.72625
0.00739241
0.00317653
0.12932
0.263029
0.0240211
0.0740513
3.85308
0.140587
0.00339059
0.00317761
0.969217
0.262619
0.135716
0.0592922
0.651854
1.13165
0.392036
0.247355
0.679531
0.00317322
0.502308
0.00315978
0.231097
0.274218
5.38274
0.178325
0.0898087
0.0038291
1.18569
0.0031945
0.00313404
0.00585739
0.272526
0.287286
0.977141
0.00314931
0.507703
0.00317252
0.692937
0.977273
0.00320493
0.725385
0.225061
0.00317313
0.00330208
0.0319705
1.10734
0.383692
0.0264357
0.0031745
0.0031327
0.848846
0.685864
0.327465
0.753971
0.117759
0.438704
0.00314897
0.0103098
0.382904
0.810794
0.759511
0.00887602
0.00317631
0.397861
0.0031977
0.203649
0.805839
0.353954
0.0431423
0.200869
0.506436
0.157238
0.00316976
0.513359
1.3329
0.648218
0.00644091
0.0306075
0.690389
3.69257
0.0548494
0.373719
0.00311028
0.0030866
0.00321469
0.0187782
0.40177
1.07558
0.0106683
0.220962
0.633978
1.23462
0.20622
0.0197132
0.00796654
0.00757961
0.158535
0.171372
0.236787
0.00322348
1.34467
0.00314333
0.0136508
0.844392
0.853038
0.0364532
0.372734
0.468154
0.00409995
0.130325
0.255677
0.0031548
0.00378134
1.12398
0.00365649
0.0032248
0.707206
0.235371
2.09315
0.209264
2.4132
0.00356021
0.00311456
3.24584
0.296049
0.225243
0.498446
0.060404
0.232636
0.196503
1.0213
0.814692
0.588455
0.582169
0.233364
0.111226
0.32159
0.728508
0.0146493
0.351351
0.00392243
0.439653
0.366687
0.10707
0.384338
0.188557
0.413355
0.207943
0.262179
1.11067
0.459674
0.21561
0.317315
0.710844
0.3262
0.00421339
0.00315953
0.111001
2.22852
0.00316167
1.78898
0.00312464
0.00989781
0.340471
0.221509
0.820599
0.680622
0.902953
1.14005
0.522644
0.38628
0.00316724
0.290829
1.05827
0.00323919
1.24788
0.00714267
1.70953
0.940769
1.13402
0.274172
0.206241
0.283962
0.0918511
0.28453
1.23623
0.360732
0.780253
0.169825
0.203107
0.08538
0.231787
0.954763
0.00955262
0.666485
0.00319427
0.00393389
0.3002
1.51845
0.338434
0.273869
0.164441
0.110686
0.121763
0.00346914
0.341077
0.00346716
0.706358
0.00341824
0.0580704
0.943396
0.171791
0.306309
0.33416
0.318442
0.00623963
0.00321491
0.0992471
0.266843
0.11483
0.517122
0.0424987
0.365998
0.240398
0.374544
0.791935
0.00359434
0.00314781
1.68921
0.226578
0.172014
0.81106
0.688275
0.817725
0.0098793
1.68543
0.335795
0.21318
0.00347803
0.196952
0.403709
0.205464
0.207746
0.266033
0.00323058
0.47297
0.00313413
0.628395
0.0106742
0.439932
0.118068
0.409638
0.00324326
6.54579
0.00319251
1.51067
0.0256337
0.00317523
0.0145936
0.274991
0.0031708
0.00318046
0.396912
0.0328117
0.327489
0.0569878
0.00332664
0.218978
0.186481
0.445023
0.00334123
0.224019
0.189936
1.35632
0.707295
0.394661
0.415605
0.215744
0.306645
0.778722
0.83223
0.211252
0.00322413
0.145044
0.362391
0.306282
0.00471776
0.00855926
0.234321
1.57404
0.00318406
0.206296
1.23552
0.00305008
0.849733
0.93591
0.357314
0.594757
0.796947
0.259125
0.130054
2.59095
0.411588
0.885375
0.821877
0.222433
0.107511
0.0031663
0.420476
0.00587453
0.00321786
0.00313426
0.300481
0.00316628
0.00373375
0.537775
4.05843
0.40696
0.212647
0.833919
0.239591
0.00318233
0.165934
1.14395
0.0252629
0.164363
1.0191
0.313002
0.125609
0.0312135
0.00314371
0.00316818
0.0272992
0.0449193
0.302825
0.299993
1.23641
0.26741
0.268775
0.00395548
0.503373
0.21362
0.0032118
0.342802
3.37891
0.00320849
0.362736
1.01679
0.739475
0.656229
0.189882
1.10332
0.00356307
0.210233
0.00331898
0.00633664
0.00320971
0.835225
0.568578
0.0741399
0.00319328
0.00307303
1.11331
0.386831
0.28923
0.235305
0.354573
0.435309
0.306091
0.349962
0.350036
0.0031772
0.151184
0.123619
0.136327
0.385292
1.05929
0.767824
0.59083
0.363228
1.11617
0.826555
0.963148
0.416022
0.881493
0.0647128
0.825355
0.393177
0.02812
1.01267
0.855898
0.44721
0.0031141
0.00320084
0.00361082
0.00444257
0.472233
0.0030452
0.494346
0.165091
0.996385
0.766856
0.00317142
0.474276
0.283348
0.186883
0.276006
0.390344
0.55275
0.00326542
0.00319927
0.00911236
0.100531
0.00313251
0.637531
0.267331
0.253041
0.760428
0.514627
0.441393
0.532102
0.00316788
0.319241
0.669136
0.00381456
0.0789447
0.409223
0.315015
0.53762
0.193284
0.00325607
0.375569
0.358445
0.0038528
0.0204923
0.0031579
0.178788
0.00440685
0.143968
1.28759
0.111602
0.0735169
1.00146
1.81236
0.00326947
0.628952
0.00305228
0.224975
0.346934
0.247797
0.484199
0.691014
0.676938
0.802331
1.22356
0.746829
0.00317862
0.00314518
0.0531822
0.101388
0.606592
0.172312
0.00319369
1.58825
0.253981
0.0082534
0.788499
0.0587052
0.00816879
0.0403922
0.997805
0.00646968
0.003195
0.258378
0.205953
0.640877
0.118234
0.226223
0.202942
0.00321397
0.291332
0.0902792
0.0600344
0.0033758
0.202591
0.534391
0.173662
1.44935
1.33537
0.316583
0.413424
0.00316339
0.359716
0.00319509
2.73037
0.0103366
0.430726
0.0942399
0.840429
0.0163771
0.00933727
0.248378
0.307778
1.30283
0.00356462
0.212143
0.482238
0.609091
0.185543
0.999388
0.120687
0.00343511
0.00320506
0.479158
0.635629
1.06306
0.289464
0.0848861
0.530371
0.328529
0.819058
0.0460128
0.00316921
0.00318277
0.122288
0.707444
0.689941
0.993112
0.00353337
0.0109609
0.167985
0.452391
0.26848
0.759183
0.349921
0.879224
0.00319888
0.00320956
1.13668
0.275256
0.885367
2.87802
0.359995
0.0246362
1.41155
0.00318406
1.02331
0.0277221
0.0308305
0.00317113
0.041802
0.0845711
0.837377
0.794293
0.00322673
0.758403
0.00316012
0.601089
1.56612
0.00314505
0.157377
0.00322657
0.259036
0.127543
0.174707
0.00308786
0.262054
0.211772
0.257334
1.02369
0.170227
1.2248
0.217517
0.833578
0.23736
1.11764
0.638019
0.00384252
0.00320865
0.375456
0.195131
0.823715
0.00317726
2.11184
0.00315893
0.00478212
0.0388785
0.00316026
1.14241
0.974606
0.00324379
0.665483
0.256686
0.10253
0.709365
0.00608352
0.0031292
0.422963
0.385983
0.00977249
0.77646
6.66918
1.35835
0.155341
1.19736
0.10435
0.00318524
0.00368816
0.0351792
0.13707
0.84433
1.09011
1.31567
0.79568
0.531627
0.50921
0.257834
0.652045
1.94385
0.5911
0.0430508
0.078324
0.278795
1.50669
0.0033824
0.194297
0.655492
0.333472
0.00317286
0.423945
0.00305911
0.0138656
0.843743
0.00338756
0.298122
1.84992
0.00318984
0.352641
0.00351435
0.337265
0.0141162
0.00406725
0.767086
0.255191
0.91557
0.399765
1.1207
1.64651
0.489659
0.175871
0.752197
0.388505
0.0031157
0.577475
0.0585344
1.24009
0.284833