/*--------------------------------*- C++ -*----------------------------------*\
| =========                 |                                                 |
| \\      /  F ield         | OpenFOAM: The Open Source CFD Toolbox           |
|  \\    /   O peration     | Version:  2.3.1                                 |
|   \\  /    A nd           | Web:      www.OpenFOAM.org                      |
|    \\/     M anipulation  |                                                 |
\*---------------------------------------------------------------------------*/
FoamFile
{
    version     2.0;
    format      ascii;
    class       volScalarField;
    location    "0.5";
    object      nut;
}
// * * * * * * * * * * * * * * * * * * * * * * * * * * * * * * * * * * * * * //

dimensions      [0 2 -1 0 0 0 0];

internalField   nonuniform List<scalar> 
15166
(
9.72546e-05
0.000157298
0.000262301
0.000376507
0.000476722
0.000591368
0.000709548
0.000837769
0.000957397
0.00108042
0.00119718
0.00129735
9.72685e-05
0.000171232
0.000283034
0.000397082
0.000500898
0.000614541
0.000731392
0.000854758
0.000972053
0.00109057
0.00120297
0.00130397
9.76316e-05
0.000182563
0.00029931
0.000414055
0.000520746
0.000633762
0.000749321
0.000868947
0.000984032
0.00109874
0.00120757
0.00130837
9.81044e-05
0.000192713
0.000313188
0.000428688
0.000537422
0.000649876
0.00076416
0.000880796
0.000993752
0.00110518
0.00121101
0.00131165
9.86099e-05
0.000201892
0.000325465
0.000441681
0.000551775
0.000663628
0.000776599
0.00089072
0.00100163
0.00111017
0.0012135
0.00131355
9.91566e-05
0.000210148
0.000336476
0.000453343
0.000564316
0.000675486
0.000787133
0.000899058
0.00100797
0.00111395
0.00121505
0.00131438
9.97394e-05
0.000217566
0.000346481
0.000463907
0.000575352
0.000685799
0.000796121
0.00090605
0.00101303
0.00111668
0.00121578
0.00131483
0.000100357
0.000224234
0.000355682
0.000473534
0.000585159
0.000694828
0.000803836
0.000911922
0.00101705
0.00111857
0.00121604
0.0013154
0.000100988
0.000230216
0.000364231
0.000482416
0.000593965
0.000702796
0.000810499
0.000916867
0.0010202
0.00111978
0.00121583
0.00131514
0.000101631
0.00023555
0.000372216
0.000490648
0.000601943
0.000709892
0.00081629
0.000921013
0.00102263
0.00112044
0.00121529
0.00131437
0.00010228
0.000240291
0.000379704
0.000498324
0.00060921
0.000716241
0.000821347
0.000924494
0.00102447
0.00112069
0.00121467
0.0013146
0.000102928
0.00024447
0.00038673
0.000505515
0.000615873
0.000721956
0.000825783
0.000927414
0.00102582
0.00112064
0.00121396
0.00131399
0.000103572
0.00024813
0.000393331
0.000512261
0.000622025
0.000727133
0.000829688
0.000929854
0.00102678
0.00112033
0.00121306
0.00131233
0.000104209
0.000251331
0.00039953
0.000518611
0.000627721
0.000731829
0.000833138
0.000931884
0.0010274
0.00111979
0.00121171
0.00130981
0.000104839
0.000254082
0.000405342
0.00052461
0.000633018
0.000736124
0.000836196
0.000933578
0.00102775
0.00111904
0.00121025
0.0013076
0.000105454
0.000256438
0.000410765
0.000530274
0.000637963
0.00074005
0.000838904
0.000934959
0.00102787
0.00111813
0.00120859
0.00130469
0.000106059
0.00025842
0.000415805
0.00053563
0.000642592
0.000743659
0.000841315
0.000936096
0.00102779
0.00111705
0.00120673
0.00130178
0.000106645
0.000260074
0.000420485
0.000540705
0.000646949
0.000746998
0.000843474
0.000936996
0.00102753
0.00111583
0.00120467
0.0012984
0.000107214
0.000261432
0.000424795
0.000545501
0.000651037
0.000750073
0.000845386
0.000937713
0.00102712
0.0011145
0.00120249
0.00129507
0.000107768
0.000262512
0.000428755
0.000550034
0.000654901
0.000752926
0.000847104
0.000938255
0.00102659
0.00111304
0.00120021
0.00129176
0.000108308
0.000263354
0.000432359
0.000554311
0.000658536
0.000755574
0.00084863
0.000938641
0.00102592
0.00111149
0.00119776
0.00128798
0.000108829
0.000263968
0.000435616
0.00055835
0.000661979
0.000758031
0.000849989
0.00093889
0.00102516
0.00110983
0.00119515
0.00128409
0.000109323
0.000264394
0.000438545
0.000562137
0.000665226
0.000760323
0.000851204
0.000939026
0.0010243
0.00110807
0.00119247
0.00128101
0.000109809
0.000264642
0.000441143
0.000565689
0.000668295
0.000762464
0.000852292
0.000939061
0.00102336
0.00110622
0.00118969
0.00127737
0.00011027
0.000264729
0.000443422
0.000569021
0.000671198
0.000764465
0.000853256
0.00093899
0.00102233
0.0011043
0.0011869
0.00127435
0.000110714
0.000264687
0.000445391
0.000572125
0.000673941
0.00076633
0.000854108
0.000938836
0.00102123
0.00110231
0.00118407
0.00127086
0.000111141
0.000264516
0.000447061
0.000574993
0.00067653
0.000768076
0.000854864
0.0009386
0.00102006
0.00110028
0.0011813
0.00126811
0.000111547
0.000264252
0.000448458
0.00057764
0.000678961
0.000769703
0.000855533
0.00093829
0.00101884
0.00109822
0.00117862
0.00126557
0.000111932
0.000263888
0.000449572
0.000580078
0.000681249
0.000771224
0.000856106
0.000937921
0.00101757
0.00109614
0.00117592
0.0012622
0.000112297
0.000263427
0.000450436
0.000582289
0.000683396
0.00077264
0.000856606
0.000937483
0.00101625
0.00109404
0.00117325
0.00125941
0.000112639
0.000262916
0.000451038
0.000584287
0.000685395
0.00077396
0.000857032
0.000936998
0.0010149
0.00109194
0.00117054
0.001256
0.000112971
0.000262331
0.00045142
0.000586066
0.00068726
0.000775184
0.000857394
0.000936456
0.00101352
0.00108982
0.00116786
0.00125313
0.00011329
0.000261693
0.000451568
0.000587649
0.000688991
0.000776322
0.000857683
0.000935875
0.00101212
0.00108769
0.00116514
0.00124955
0.000113578
0.000261021
0.000451522
0.000589021
0.000690582
0.00077737
0.000857919
0.000935253
0.00101069
0.00108555
0.00116243
0.0012465
0.000113853
0.000260311
0.000451272
0.000590203
0.000692043
0.000778328
0.000858095
0.000934594
0.00100923
0.0010834
0.00115969
0.00124289
0.000114121
0.000259574
0.000450854
0.000591172
0.000693367
0.000779208
0.000858223
0.000933897
0.00100776
0.00108125
0.00115698
0.00124014
0.000114355
0.000258806
0.000450255
0.00059196
0.000694561
0.000780003
0.000858288
0.000933161
0.00100626
0.0010791
0.00115435
0.00123765
0.000114583
0.000258023
0.0004495
0.000592552
0.00069562
0.00078072
0.00085831
0.000932401
0.00100476
0.00107695
0.00115172
0.00123436
0.00011479
0.000257226
0.000448602
0.000592966
0.000696554
0.000781349
0.000858283
0.000931616
0.00100325
0.00107481
0.00114909
0.00123119
0.000114976
0.000256421
0.000447574
0.000593206
0.000697363
0.000781913
0.000858209
0.000930799
0.00100172
0.00107267
0.00114645
0.00122783
0.000115156
0.000255597
0.000446422
0.000593268
0.000698041
0.000782389
0.000858089
0.000929965
0.00100018
0.00107052
0.00114369
0.00122399
0.000115309
0.000254693
0.000445135
0.000593166
0.000698589
0.000782792
0.000857925
0.000929101
0.000998639
0.00106836
0.00114093
0.00122121
0.000115455
0.000253758
0.000443752
0.000592906
0.000699017
0.000783117
0.000857717
0.000928223
0.000997087
0.00106619
0.00113817
0.00121786
0.000115575
0.000252758
0.000442225
0.000592481
0.000699316
0.000783361
0.000857466
0.000927317
0.000995519
0.001064
0.00113544
0.00121513
0.000115678
0.000251754
0.000440535
0.000591905
0.000699495
0.000783526
0.000857171
0.000926391
0.000993944
0.00106182
0.00113272
0.00121169
0.00011577
0.000250787
0.000438721
0.000591156
0.000699545
0.00078362
0.000856841
0.000925445
0.000992361
0.00105963
0.00113003
0.00120918
0.000115849
0.000249764
0.000436815
0.000590202
0.000699447
0.000783634
0.000856461
0.000924479
0.000990765
0.00105745
0.00112735
0.00120582
0.000115903
0.000248774
0.000434815
0.000589109
0.000699217
0.00078356
0.000856037
0.000923493
0.000989164
0.00105527
0.0011247
0.00120324
0.000115947
0.000247787
0.000432776
0.000587848
0.000698848
0.000783406
0.000855572
0.000922478
0.000987554
0.00105309
0.00112207
0.00120004
0.000115979
0.000246804
0.000430627
0.00058644
0.000698351
0.000783154
0.000855058
0.000921448
0.00098593
0.00105091
0.00111947
0.00119747
0.000115999
0.000245864
0.000428421
0.000584892
0.000697727
0.00078283
0.000854497
0.000920394
0.000984307
0.00104874
0.00111681
0.0011939
0.000116003
0.000244886
0.000426162
0.00058319
0.000696963
0.000782404
0.000853884
0.000919313
0.000982673
0.00104658
0.00111418
0.00119057
0.000115992
0.000243961
0.000423861
0.000581383
0.000696072
0.000781895
0.000853222
0.000918216
0.000981035
0.00104442
0.00111158
0.00118829
0.000115973
0.000243042
0.000421521
0.000579431
0.000695044
0.0007813
0.000852516
0.000917096
0.000979393
0.00104227
0.00110903
0.00118558
0.000115934
0.000242131
0.00041915
0.000577365
0.000693891
0.000780608
0.000851756
0.000915951
0.000977746
0.00104013
0.00110652
0.00118292
0.000115878
0.000241227
0.000416751
0.000575191
0.000692615
0.000779818
0.000850939
0.000914782
0.000976095
0.00103799
0.001104
0.00117959
0.000115819
0.000240378
0.000414337
0.000572913
0.000691204
0.000778941
0.000850074
0.000913588
0.000974435
0.00103588
0.00110149
0.00117672
0.000115742
0.000239495
0.000411905
0.000570517
0.000689674
0.000777972
0.000849143
0.000912368
0.000972779
0.00103377
0.00109893
0.00117304
0.000115648
0.000238666
0.000409461
0.00056803
0.000688012
0.000776892
0.000848167
0.000911129
0.000971118
0.00103166
0.00109643
0.00117112
0.000115553
0.00023785
0.000407044
0.000565484
0.00068625
0.00077573
0.00084712
0.000909851
0.000969441
0.00102955
0.00109393
0.00116836
0.000115438
0.00023707
0.000404586
0.000562832
0.000684358
0.000774463
0.000846016
0.000908549
0.000967762
0.00102745
0.00109144
0.00116528
0.000115308
0.000236267
0.000402128
0.000560103
0.000682341
0.000773092
0.000844845
0.000907209
0.000966069
0.00102536
0.00108894
0.00116184
0.000115168
0.000235515
0.000399677
0.000557306
0.000680232
0.000771627
0.000843608
0.000905842
0.000964369
0.00102326
0.00108645
0.00115891
0.00011502
0.000234776
0.000397265
0.000554425
0.000678001
0.000770058
0.00084231
0.000904442
0.000962664
0.00102118
0.00108392
0.00115548
0.000114857
0.00023408
0.00039483
0.000551511
0.000675668
0.000768395
0.000840942
0.000903005
0.000960943
0.00101909
0.00108139
0.00115266
0.000114689
0.000233391
0.000392438
0.00054854
0.000673221
0.000766635
0.000839502
0.000901538
0.000959214
0.00101699
0.00107886
0.00114941
0.000114484
0.000232694
0.000390055
0.000545499
0.000670689
0.00076477
0.000837997
0.000900027
0.000957461
0.00101489
0.00107634
0.00114677
0.000114311
0.000232052
0.000387704
0.000542433
0.000668059
0.00076281
0.000836423
0.000898475
0.000955698
0.00101278
0.0010738
0.0011435
0.000114091
0.00023143
0.000385363
0.000539329
0.000665323
0.000760746
0.000834768
0.00089688
0.000953908
0.00101067
0.00107127
0.00114056
0.00011385
0.000230825
0.000383048
0.000536182
0.000662517
0.000758596
0.000833039
0.000895243
0.000952106
0.00100854
0.00106872
0.00113719
0.000113623
0.000230215
0.000380769
0.000532988
0.000659608
0.000756346
0.00083124
0.000893555
0.000950276
0.00100641
0.00106617
0.00113429
0.000113378
0.0002297
0.000378501
0.000529782
0.000656625
0.000753987
0.000829364
0.000891819
0.000948422
0.00100426
0.00106359
0.00113083
0.000113124
0.000229121
0.000376308
0.000526592
0.000653575
0.000751545
0.0008274
0.000890035
0.000946545
0.0010021
0.00106099
0.00112745
0.000112852
0.00022863
0.000374065
0.000523318
0.000650409
0.000748992
0.00082535
0.000888193
0.00094463
0.000999926
0.0010584
0.00112442
0.000112572
0.000228156
0.00037193
0.000520071
0.000647216
0.000746359
0.000823237
0.0008863
0.000942695
0.000997741
0.0010558
0.00112116
0.000112253
0.000227637
0.0003698
0.000516797
0.000643932
0.000743642
0.000821035
0.000884359
0.000940729
0.000995538
0.00105321
0.00111843
0.000111952
0.000227186
0.000367726
0.000513531
0.000640577
0.00074082
0.000818749
0.000882346
0.000938719
0.000993318
0.0010506
0.00111514
0.000111657
0.00022681
0.0003657
0.000510252
0.000637175
0.000737907
0.00081638
0.000880284
0.000936682
0.000991077
0.00104798
0.00111222
0.000111321
0.000226386
0.000363695
0.000506984
0.000633709
0.000734917
0.00081393
0.000878158
0.000934597
0.000988814
0.00104534
0.00110885
0.000110957
0.000226005
0.000361743
0.000503711
0.000630203
0.000731838
0.000811395
0.000875969
0.000932479
0.000986522
0.00104271
0.00110615
0.000110614
0.000225657
0.000359803
0.000500457
0.000626634
0.000728669
0.000808773
0.000873707
0.000930317
0.000984202
0.00104006
0.00110299
0.000110247
0.000225319
0.00035795
0.000497196
0.000623007
0.000725405
0.000806074
0.000871379
0.000928103
0.000981858
0.00103737
0.00109942
0.000109868
0.000225015
0.000356147
0.000493971
0.000619358
0.000722087
0.000803278
0.000868982
0.000925842
0.000979492
0.00103466
0.00109612
0.000109478
0.000224731
0.000354371
0.000490774
0.000615662
0.000718681
0.000800395
0.000866507
0.000923534
0.000977091
0.00103198
0.00109342
0.000109076
0.000224466
0.000352648
0.000487599
0.00061192
0.0007152
0.000797436
0.000863961
0.000921173
0.000974663
0.00102926
0.0010902
0.000108635
0.000224208
0.000350964
0.000484405
0.000608178
0.000711651
0.000794379
0.000861356
0.000918756
0.000972191
0.00102654
0.00108739
0.000108211
0.000223984
0.00034933
0.000481263
0.000604396
0.000708009
0.000791245
0.000858655
0.000916288
0.000969693
0.00102379
0.00108394
0.000107772
0.000223787
0.000347754
0.000478178
0.000600561
0.000704309
0.000788008
0.00085588
0.000913769
0.000967165
0.00102106
0.00108117
0.000107318
0.000223619
0.000346233
0.000475113
0.000596743
0.00070053
0.000784683
0.000853024
0.00091118
0.000964604
0.00101834
0.00107844
0.000106853
0.000223474
0.000344724
0.000472061
0.000592884
0.000696682
0.00078128
0.000850083
0.000908516
0.000961983
0.00101561
0.00107613
0.000106373
0.000223353
0.000343319
0.000469086
0.000589039
0.000692803
0.000777792
0.000847069
0.000905801
0.000959338
0.00101284
0.0010724
0.000105883
0.000223264
0.000341967
0.000466122
0.000585161
0.000688835
0.000774228
0.000843973
0.000903021
0.00095666
0.00101007
0.00106948
0.00010535
0.000223138
0.000340631
0.000463207
0.000581287
0.000684821
0.000770576
0.000840783
0.000900169
0.000953935
0.00100722
0.0010659
0.00010486
0.000223118
0.000339362
0.000460352
0.000577411
0.000680728
0.000766836
0.000837506
0.000897248
0.000951152
0.00100433
0.00106261
0.000104298
0.000223056
0.000338159
0.000457548
0.000573521
0.000676628
0.000763002
0.000834137
0.000894259
0.000948313
0.00100136
0.00105892
0.000103753
0.00022304
0.000337024
0.000454811
0.00056968
0.00067245
0.000759097
0.000830687
0.000891187
0.00094541
0.000998383
0.00105587
0.000103191
0.000223015
0.000335916
0.000452103
0.000565825
0.000668241
0.000755105
0.000827138
0.000888025
0.000942438
0.000995312
0.00105218
0.000102615
0.000223078
0.000334882
0.000449469
0.000561995
0.000663971
0.000751025
0.000823508
0.000884788
0.000939414
0.00099224
0.00104901
0.000101996
0.00022306
0.000333918
0.000446905
0.000558167
0.000659697
0.000746872
0.000819779
0.000881469
0.000936314
0.000989078
0.00104533
0.000101388
0.000223146
0.000332986
0.00044438
0.000554374
0.000655344
0.000742647
0.000815934
0.00087805
0.000933142
0.000985933
0.00104248
0.000100766
0.000223226
0.000332135
0.000441941
0.000550623
0.000651003
0.000738329
0.000812007
0.000874538
0.000929884
0.00098272
0.00103902
0.000100125
0.000223352
0.000331361
0.000439554
0.000546888
0.000646619
0.000733954
0.000807997
0.000870944
0.000926577
0.000979429
0.0010352
9.94709e-05
0.000223514
0.000330624
0.000437258
0.00054321
0.000642227
0.000729496
0.000803881
0.000867252
0.000923187
0.000976115
0.00103191
9.8797e-05
0.00022367
0.000329971
0.000435057
0.000539559
0.000637804
0.000724984
0.000799673
0.000863457
0.000919709
0.00097277
0.00102882
9.80813e-05
0.000223812
0.000329361
0.000432915
0.000535972
0.000633363
0.00072041
0.00079536
0.000859563
0.000916153
0.000969359
0.0010251
9.7373e-05
0.000224018
0.000328837
0.000430839
0.000532422
0.000628934
0.000715763
0.000790962
0.000855575
0.000912507
0.000965891
0.00102165
9.66209e-05
0.000224209
0.000328356
0.000428875
0.000528956
0.000624524
0.000711049
0.000786456
0.000851469
0.000908763
0.000962289
0.00101763
9.58775e-05
0.00022447
0.000327976
0.000427022
0.000525547
0.000620107
0.000706295
0.00078185
0.000847251
0.000904913
0.000958589
0.00101349
9.5146e-05
0.00022481
0.000327648
0.000425215
0.000522228
0.000615699
0.000701483
0.000777166
0.000842934
0.00090096
0.000954831
0.00100975
9.43429e-05
0.000225068
0.00032738
0.000423567
0.000518979
0.000611329
0.000696627
0.0007724
0.000838499
0.000896896
0.000950922
0.00100554
9.354e-05
0.0002254
0.000327212
0.000421967
0.000515804
0.000606981
0.00069175
0.000767516
0.000833947
0.00089272
0.000946987
0.00100191
9.27206e-05
0.000225788
0.0003271
0.000420501
0.000512752
0.000602691
0.000686837
0.000762568
0.000829296
0.000888436
0.000942954
0.0009977
9.18536e-05
0.000226118
0.000327089
0.000419139
0.000509782
0.000598417
0.000681914
0.000757534
0.000824532
0.000884066
0.000938856
0.000993404
9.09879e-05
0.000226532
0.00032715
0.000417917
0.000506919
0.000594217
0.000676943
0.000752426
0.000819639
0.000879535
0.000934581
0.000989533
9.01036e-05
0.000227005
0.000327235
0.000416767
0.000504165
0.00059008
0.000671981
0.000747208
0.000814611
0.000874852
0.000930169
0.000984993
8.91972e-05
0.000227445
0.000327484
0.000415778
0.000501573
0.000586045
0.000667022
0.000741944
0.000809488
0.000870068
0.000925693
0.00098086
8.82664e-05
0.000227962
0.000327767
0.000414918
0.000499107
0.000582078
0.000662099
0.000736622
0.000804246
0.000865119
0.000921035
0.000976066
8.72829e-05
0.000228426
0.000328174
0.000414223
0.000496791
0.000578242
0.000657178
0.00073124
0.00079888
0.000860073
0.000916327
0.000971676
8.62687e-05
0.000228956
0.000328613
0.000413624
0.000494628
0.000574524
0.000652331
0.000725845
0.000793437
0.000854883
0.000911467
0.00096676
8.52849e-05
0.000229596
0.000329194
0.000413205
0.000492638
0.000570934
0.000647512
0.000720396
0.000787908
0.000849584
0.000906478
0.000961729
8.42576e-05
0.000230203
0.000329863
0.000412915
0.000490852
0.000567501
0.000642794
0.000714927
0.000782246
0.000844092
0.000901211
0.00095671
8.3168e-05
0.000230823
0.000330629
0.000412817
0.000489229
0.000564239
0.000638171
0.00070948
0.000776497
0.000838458
0.000895825
0.000951283
8.20428e-05
0.000231468
0.000331495
0.000412885
0.000487819
0.000561169
0.000633666
0.000704028
0.000770686
0.000832711
0.000890358
0.0009463
8.0942e-05
0.000232243
0.000332468
0.000413111
0.000486662
0.000558309
0.000629284
0.000698639
0.000764802
0.00082679
0.000884624
0.000940328
7.97676e-05
0.00023297
0.00033356
0.000413562
0.00048572
0.000555691
0.0006251
0.000693291
0.000758876
0.000820759
0.000878713
0.000934465
7.85461e-05
0.000233735
0.000334774
0.000414225
0.000485072
0.000553345
0.000621122
0.000688063
0.000752925
0.00081459
0.000872577
0.000928068
7.73434e-05
0.000234632
0.000336116
0.000415077
0.000484685
0.000551292
0.000617358
0.00068294
0.000746982
0.000808321
0.000866275
0.000921617
7.60618e-05
0.000235488
0.000337603
0.000416201
0.000484621
0.000549575
0.000613897
0.00067799
0.000741061
0.000801935
0.000859776
0.000914839
7.47529e-05
0.000236404
0.000339231
0.000417557
0.000484907
0.000548221
0.000610726
0.000673236
0.000735175
0.000795444
0.000853113
0.000908461
7.33794e-05
0.000237331
0.000340993
0.000419231
0.000485567
0.000547261
0.00060793
0.000668706
0.000729326
0.000788841
0.000846184
0.000901199
7.19762e-05
0.00023831
0.000342968
0.000421196
0.000486653
0.000546768
0.000605501
0.000664428
0.000723573
0.000782162
0.000839089
0.0008941
7.04964e-05
0.000239243
0.000345105
0.000423507
0.000488155
0.0005467
0.00060345
0.000660405
0.000717923
0.00077538
0.000831717
0.000886211
6.89681e-05
0.000240229
0.000347423
0.000426128
0.000490063
0.000547057
0.000601785
0.000656624
0.000712306
0.000768451
0.000824005
0.000878235
6.73681e-05
0.000241092
0.000349843
0.000429071
0.000492306
0.000547771
0.000600487
0.0006532
0.000706899
0.00076149
0.000816066
0.000870145
6.54088e-05
0.000240136
0.000350267
0.00043091
0.000493439
0.000547721
0.00059866
0.000649565
0.000701308
0.000754717
0.000808146
0.000861666
0.000477599
0.00154682
0.00164149
0.0018833
0.00188492
0.00062586
0.00061383
0.000464321
0.00137611
0.00206055
0.00381323
0.00201919
0.00424157
0.00142695
0.000567
0.00133217
0.00149822
0.00504314
0.00502784
0.00131829
0.000731034
0.000492686
0.00739146
0.00354945
0.000478373
0.00164349
0.000573839
0.000779489
0.00194354
0.00122972
0.00178259
0.000336195
0.00146245
0.00377778
0.00412586
0.00106549
0.000154619
0.00157189
0.000467559
0.00207227
0.00186931
0.00129258
0.00387017
0.00106132
0.000274023
0.000494746
0.00578655
0.00374701
0.000277094
0.000735461
0.00106629
0.000466838
0.00033803
0.00124158
0.00165002
0.0015068
0.0023891
0.00129193
0.00157225
0.000564813
0.000622515
0.000337195
0.00124141
0.00286706
0.00424898
0.00152312
0.000936317
0.000318481
0.0006569
0.00227763
0.00172231
0.00532166
0.000465859
0.00110071
0.00357808
0.00127028
0.00138913
0.00123815
0.00560978
0.000466709
0.00456075
0.00123972
0.000196633
0.000382631
0.00285225
0.00160583
0.000937811
0.00124135
0.00264802
0.000197734
0.000577059
0.00147255
0.00124139
0.00140645
0.00035038
0.00127365
0.000777982
0.00163168
0.00124229
0.000946858
0.000765389
0.00324352
0.00128879
0.00148709
0.00123885
0.000350442
0.000356978
0.000422455
0.00132741
0.000248914
0.00152404
0.00123993
0.000445638
0.00136814
0.00124078
0.000521294
0.00316047
0.00225873
0.00155345
0.00429897
0.000786515
0.00378461
0.00147426
0.00360582
0.00443923
0.00281829
0.00141302
0.000260772
0.00404273
0.00124136
3.92604e-05
0.00124223
5.60443e-05
0.00148728
0.00056872
0.00163242
0.000172468
0.00241992
0.000447286
0.00175203
0.00297186
0.000688436
0.000461388
0.000452855
8.77521e-05
0.00163226
0.000466246
0.00152495
0.00141032
0.000579259
0.000630724
0.000514618
0.00124179
0.00445313
0.00357716
0.00124362
0.000443123
0.00126919
0.00165585
0.00192959
0.00368905
0.00133707
0.00452643
0.00261239
0.000775065
0.00336001
0.000277183
0.000253947
0.000547982
0.0012374
0.00156015
0.00109329
0.00164574
0.00304982
0.00123866
0.00160591
0.00123854
0.00041162
0.00236989
0.001342
0.000277212
0.00524987
0.0042696
0.000470468
0.00129841
0.000461954
0.00125536
0.00124028
9.1897e-05
0.00124087
0.00232211
0.001245
0.000396103
0.00156055
0.000450182
0.000557815
0.000612009
0.000538693
0.00123982
0.00221416
0.00146682
0.000461417
0.000281454
0.000463175
0.000472612
0.00697687
0.00416407
0.0031728
0.00113401
0.00271708
5.35156e-05
0.00138616
0.000468359
0.000412797
0.00123977
0.000468235
0.0025143
0.0014676
0.00223
0.00018983
0.000385298
0.00146496
0.000420422
0.00124826
0.00125143
0.00277331
0.00160214
0.00126904
0.00107198
0.00413828
5.24769e-05
0.00445564
0.00124159
0.000907379
0.00150162
0.000474627
0.000464785
0.0014861
0.00111801
0.000455824
0.0042469
0.00595264
0.00434361
0.00268291
6.46242e-05
5.38267e-05
5.64279e-05
0.001321
0.00390614
0.00046659
0.00221534
0.00110229
0.00233166
0.000350483
0.00023185
0.00283618
0.000989126
0.000452964
0.0020741
0.000427085
0.00271418
0.000473044
0.00294756
0.00416277
7.2889e-05
0.000469311
0.00131022
0.000477136
0.00146527
0.00121712
0.000695055
0.00526215
0.0013854
4.49102e-05
4.5676e-05
0.00139017
0.000175645
5.76235e-05
0.00028153
0.000137116
0.000377627
0.000172892
0.000466162
0.000471048
0.00134398
0.000609935
0.00161863
4.73284e-05
0.0013139
0.00076292
0.000136535
0.00146625
4.63307e-05
4.60207e-05
0.000445242
0.000397743
0.00190275
4.48805e-05
0.00586006
0.000380883
0.000461393
0.000994816
0.000499069
0.00177756
0.00376482
0.0015161
0.000286031
0.00124093
0.00528853
0.00475326
0.00566186
0.000184239
0.0012456
0.0012932
0.000460596
0.00434304
4.91545e-05
0.00121455
0.0012398
8.29448e-05
0.00463796
0.00208212
0.00149694
0.000236518
0.00045341
0.00121389
0.00141583
0.00124132
0.00125525
0.000182926
0.00133376
0.00124749
0.0021782
0.0012417
0.00125457
0.00126456
0.00123871
0.00764797
0.00124194
0.00173196
0.000788564
0.00047367
0.00124211
0.000528245
0.0022961
4.55399e-05
5.33955e-05
0.00164928
0.00140466
0.00138218
0.00123751
0.00126827
0.00634818
0.00228182
4.08551e-05
0.00123871
0.00493687
0.000366201
0.0013483
0.00236132
0.000102548
0.000267043
0.00132945
0.00148967
0.000856927
0.00191846
0.00135659
0.00124134
0.00141442
0.00145328
0.00501593
9.62806e-05
0.000453599
0.000134142
0.00147808
0.00063227
0.000463713
0.00140275
0.00125299
0.00177547
0.00102558
0.00165107
0.00126004
0.000469775
0.00034958
0.000599698
0.00124573
0.00431295
0.000542467
0.00379981
0.00126072
0.00117564
0.00191941
0.000393463
0.000445488
0.00137527
0.00142176
0.00124395
0.00300006
0.00141624
0.00185328
0.00237675
0.000899178
0.00217973
0.00393167
0.000168741
0.001396
0.00147172
6.47267e-05
0.000422418
0.00124076
0.00124942
0.00124196
0.00129657
0.00607655
0.000455015
0.000128266
0.000538593
0.000528142
0.00125603
0.000246535
0.000467808
0.00123811
0.00124764
0.000456549
0.00124637
0.00271301
0.00137136
0.000449705
0.00123756
0.00197642
0.00424358
0.00506071
0.00046069
0.00464049
0.00123831
0.00124228
0.00116353
0.00132623
0.00253752
0.000289137
4.03098e-05
0.00194496
0.000458301
0.00190517
0.000988423
0.00132735
0.000443229
0.00154546
0.00123901
0.0019819
0.000460664
5.42864e-05
0.00221355
0.00199189
0.000692268
0.00163567
4.75737e-05
0.000423025
0.00443696
0.000525101
0.00342176
0.00498932
0.00245747
0.00132433
0.00130102
0.0017656
0.000694537
0.000574781
5.90292e-05
0.00359495
0.000281977
9.54027e-05
0.00123922
0.00179122
0.00133628
0.000443635
0.00123871
0.000327214
0.000883849
0.000386541
0.000203129
0.000468794
0.00245077
0.00442173
9.39899e-05
5.0192e-05
0.00134098
0.00311196
0.001248
0.00420533
0.000908976
0.000318351
0.00138311
0.00424931
0.00015788
0.00107378
0.00116555
0.000470244
0.000224121
0.0012293
0.000480815
0.000311418
0.00127064
0.00345097
0.000401067
0.00070763
0.00137072
0.000190144
0.00185895
0.000449846
0.00127828
0.000947056
0.00336596
0.00124133
0.000663595
4.1197e-05
0.00125051
0.00150216
0.00216053
0.00428607
0.0014671
0.00127209
0.000466439
0.00124136
0.000293014
0.00149698
4.44023e-05
9.3922e-05
0.00186649
4.71797e-05
0.000816937
0.00125196
0.00159295
0.0012688
0.00405323
0.00134904
0.000379068
0.000447742
0.00193736
0.00134524
0.00369416
0.0017809
0.00262977
0.00173349
0.00123896
0.00466703
0.00123871
0.00572597
0.000559724
0.00452921
0.00097578
0.000650462
0.00043411
0.00489952
0.00318962
0.000456656
6.86802e-05
0.0012414
0.00124143
0.00108772
0.000717489
0.000388962
0.00243685
0.00535644
0.00129777
0.000328142
0.00123743
0.00420989
0.00047356
0.00158208
0.00127893
0.00049295
0.00010394
0.000388855
0.00259337
0.00123877
0.00341863
0.00124288
0.0013993
0.00296274
0.000369114
0.00159856
0.00125422
0.00141093
0.00589997
0.000418658
0.000920032
0.0013916
0.00022064
0.00423707
0.00124154
0.000571749
8.15635e-05
0.000458919
0.00328205
0.00123744
0.0014602
0.00130131
0.000464643
0.00124776
0.000728967
0.00105032
0.0012778
0.00179153
0.000396853
0.00137053
0.000986869
0.00117329
0.00134804
0.000761289
0.00490607
0.00338389
0.00123903
0.00124142
0.0015977
0.000460246
0.000471996
0.000461583
0.00158542
0.000768071
0.0039366
0.00118918
0.000470758
0.00139829
0.00250055
0.000326108
0.00123753
0.00209975
0.000280575
0.000277412
0.00126718
0.00124626
6.88004e-05
0.00018491
0.00133135
0.00397785
0.000822727
0.000414272
0.00125256
3.52957e-05
0.000691023
0.000703602
0.00168526
0.00104677
0.000862768
0.00141282
0.00128688
0.000450122
0.000132835
0.00126266
0.001242
0.00141233
0.00116848
0.00156353
0.00123993
0.00215139
0.00124132
0.001175
0.000499977
0.00486263
0.00124663
0.00147285
0.000624334
0.000356307
0.00199832
0.000194866
0.00743595
0.000805171
0.00137205
0.00124096
0.0030996
0.00140926
0.000230108
0.0015371
0.00175615
0.00239151
0.0022736
0.000133185
0.00123984
0.000777795
0.00117695
0.000458742
0.00128731
0.00491295
0.00036593
0.000311558
0.00187605
0.00520516
0.00154572
0.000466012
0.00255199
0.000467525
0.00124066
0.00198424
0.00130399
0.00123736
0.000104209
0.00124154
4.68266e-05
0.00230003
0.00110972
0.00127197
0.00119184
0.000422911
0.00183843
0.00151095
0.00129925
0.00620673
0.00223156
0.00281353
0.00505677
0.00159934
0.00123915
0.00124153
0.00046574
0.005719
5.87673e-05
0.000530496
0.00127956
4.63517e-05
4.06657e-05
4.47439e-05
0.00302807
0.000696126
3.75985e-05
0.00124133
0.000133
0.000125624
0.000464723
0.0012423
0.00242384
0.00144263
0.000112576
0.00124314
0.00165926
0.00123911
0.00522693
0.00223498
0.00132999
0.000452505
0.00123978
0.00449219
0.000418491
0.00124246
0.00142681
0.00124071
0.00138463
0.00308405
0.0012838
0.00113347
0.00256242
0.000463315
0.00124019
0.00106998
0.00124199
0.000615909
0.00267119
0.00350421
0.000517382
0.00277028
0.00161246
0.00125876
0.0001575
0.00100827
0.00117854
5.34049e-05
0.000499187
0.00123809
0.000129264
0.000601879
0.000756521
0.00102527
0.00121074
0.00139712
0.000476388
0.00434704
0.00124024
0.00363683
0.00143454
0.00350376
0.000133478
0.000766069
0.00125488
0.000220062
0.000385897
0.00137355
0.00188341
0.0013093
0.000608733
0.000992422
0.00119472
0.00413348
0.00173554
0.000293882
0.000185919
0.00428807
0.000152867
0.00124855
5.08504e-05
0.0015882
0.00127988
0.00146929
0.00113013
0.00102278
0.00612255
0.00135208
0.00324189
0.00292187
0.00140577
0.00289151
0.002736
0.00124195
0.00150667
0.00470106
4.41383e-05
0.000470038
4.463e-05
0.000723871
0.00189322
0.00108918
0.00124071
0.00124168
0.000444005
0.00663039
0.00134059
0.00156295
0.00123761
0.00160992
0.00252655
0.00514452
0.00130618
0.00160464
0.00146684
0.00209104
0.0013617
0.00549662
0.000391467
0.000543112
0.00124068
0.000542108
0.00145142
0.00168636
0.00217162
4.80265e-05
0.00364359
0.00212285
0.000676694
0.00402913
0.00242832
0.00396716
0.00566288
0.00130184
3.94154e-05
0.00124135
0.00129347
0.000441244
0.0028139
0.00270461
0.00108823
0.000430425
0.00124163
0.00124152
0.00148221
0.000129606
0.00138072
0.0012381
0.00134087
0.00272489
0.000465619
0.00137866
5.29861e-05
0.00116574
0.00166897
0.000366214
0.00125657
0.00130749
0.000124612
0.000378808
0.000154017
0.00124388
0.00123963
0.00109338
0.00161136
0.00236022
0.00127085
0.00124036
0.00425442
0.00126164
0.00181648
0.00304252
0.0055883
0.00243872
0.00153036
0.000438035
5.52298e-05
0.000461199
0.00200699
0.00124289
0.000283302
0.0012727
0.00026269
0.00124124
0.00181406
0.00125767
0.00124113
0.00444325
0.000194847
0.00351864