/*--------------------------------*- C++ -*----------------------------------*\
| =========                 |                                                 |
| \\      /  F ield         | OpenFOAM: The Open Source CFD Toolbox           |
|  \\    /   O peration     | Version:  2.3.1                                 |
|   \\  /    A nd           | Web:      www.OpenFOAM.org                      |
|    \\/     M anipulation  |                                                 |
\*---------------------------------------------------------------------------*/
FoamFile
{
    version     2.0;
    format      ascii;
    class       volScalarField;
    location    "0.5";
    object      p;
}
// * * * * * * * * * * * * * * * * * * * * * * * * * * * * * * * * * * * * * //

dimensions      [0 2 -2 0 0 0 0];

internalField   nonuniform List<scalar> 
15166
(
-17.3008
-22.3283
-25.0979
-27.3083
-29.1871
-30.7852
-32.2176
-33.475
-34.562
-35.3686
-36.1107
-36.6837
-22.0177
-24.5297
-25.8907
-27.5576
-29.1314
-30.5569
-31.8612
-33.0401
-34.0718
-34.9012
-35.6424
-36.2357
-27.2038
-28.0919
-28.3672
-29.3025
-30.3003
-31.3155
-32.3145
-33.2464
-34.0957
-34.8214
-35.4665
-36.0038
-30.1795
-30.5916
-30.5864
-31.1469
-31.7383
-32.4068
-33.1111
-33.7987
-34.4492
-35.028
-35.5473
-35.9758
-32.0477
-32.3023
-32.2766
-32.6764
-33.0532
-33.5075
-34.0016
-34.4989
-34.9817
-35.4234
-35.8264
-36.1753
-33.6954
-33.815
-33.7574
-34.0317
-34.2676
-34.5765
-34.9178
-35.2679
-35.6138
-35.9362
-36.2326
-36.4949
-35.2856
-35.2857
-35.1787
-35.3317
-35.4488
-35.6364
-35.8509
-36.0777
-36.3059
-36.5209
-36.7162
-36.8786
-36.7585
-36.671
-36.5263
-36.5785
-36.5983
-36.682
-36.7884
-36.9092
-37.0353
-37.1557
-37.2638
-37.3504
-38.096
-37.9425
-37.7744
-37.7496
-37.6948
-37.6944
-37.7117
-37.7435
-37.7826
-37.8213
-37.8539
-37.8713
-39.3185
-39.1118
-38.928
-38.8429
-38.7308
-38.6629
-38.6077
-38.566
-38.5321
-38.5005
-38.4652
-38.418
-40.448
-40.198
-40.002
-39.8674
-39.7095
-39.5863
-39.4716
-39.3685
-39.2728
-39.1815
-39.0896
-38.9788
-41.5018
-41.2146
-41.0083
-40.8318
-40.6358
-40.4662
-40.3017
-40.1468
-39.9987
-39.8563
-39.7189
-39.5755
-42.4869
-42.1686
-41.9537
-41.7414
-41.5136
-41.3043
-41.0976
-40.8985
-40.7052
-40.5172
-40.3356
-40.161
-43.4109
-43.0657
-42.8436
-42.6007
-42.3458
-42.1027
-41.8597
-41.6219
-41.388
-41.1565
-40.9188
-40.662
-44.2803
-43.9118
-43.6832
-43.4137
-43.1356
-42.8635
-42.5894
-42.3188
-42.0515
-41.79
-41.5369
-41.2738
-45.1001
-44.7112
-44.4769
-44.1843
-43.8862
-43.589
-43.2886
-42.9901
-42.6938
-42.4018
-42.1191
-41.8427
-45.8747
-45.4681
-45.2286
-44.9156
-44.6001
-44.281
-43.9574
-43.6342
-43.3123
-42.9929
-42.6791
-42.3772
-46.6088
-46.1859
-45.9412
-45.6101
-45.2791
-44.9407
-44.5969
-44.2522
-43.9082
-43.5663
-43.2278
-42.899
-47.3044
-46.8672
-46.6178
-46.2706
-45.926
-45.5706
-45.2089
-44.8451
-44.4816
-44.1207
-43.7639
-43.4146
-47.9648
-47.5147
-47.2609
-46.899
-46.5421
-46.1714
-45.7937
-45.413
-45.0319
-44.6531
-44.2799
-43.9202
-48.5922
-48.1302
-47.8722
-47.4974
-47.1294
-46.7448
-46.3526
-45.9563
-45.5588
-45.1625
-44.7701
-44.3929
-49.188
-48.7158
-48.454
-48.0671
-47.6889
-47.2919
-46.8867
-46.4762
-46.0635
-45.6506
-45.2373
-44.8319
-49.7575
-49.274
-49.0078
-48.6099
-48.2227
-47.8143
-47.3974
-46.9743
-46.5489
-46.1238
-45.7002
-45.2844
-50.2982
-49.8045
-49.5349
-49.1272
-48.7315
-48.313
-47.8856
-47.4515
-47.0147
-46.5779
-46.1415
-45.7068
-50.8065
-50.308
-50.0362
-49.6195
-49.2164
-48.7888
-48.352
-47.908
-47.4607
-47.0133
-46.567
-46.1208
-51.2965
-50.789
-50.5134
-50.0884
-49.6785
-49.2427
-48.7974
-48.3443
-47.8876
-47.4304
-46.9739
-46.5154
-51.7618
-51.2462
-50.9679
-50.5351
-50.1188
-49.6754
-49.2223
-48.761
-48.2959
-47.8307
-47.3684
-46.9039
-52.2044
-51.6807
-51.3998
-50.9599
-50.5378
-50.0874
-49.6272
-49.1583
-48.6852
-48.2109
-47.7384
-47.2693
-52.6203
-52.0926
-51.8103
-51.3636
-50.9362
-50.4794
-50.0126
-49.5366
-49.056
-48.5736
-48.0903
-47.6025
-53.0167
-52.4833
-52.1998
-51.7469
-51.3147
-50.8521
-50.3793
-49.8969
-49.4099
-48.9213
-48.4336
-47.9398
-53.3929
-52.8565
-52.5698
-52.1108
-51.6742
-51.2062
-50.7278
-50.2397
-49.7467
-49.252
-48.7582
-48.258
-53.7529
-53.2112
-52.9212
-52.456
-52.0151
-51.5419
-51.0585
-50.5651
-50.0667
-49.5663
-49.0681
-48.5665
-54.0832
-53.5435
-53.2521
-52.7819
-52.3371
-51.8595
-51.3716
-50.8734
-50.3698
-49.8635
-49.3578
-48.8481
-54.4028
-53.8585
-53.5638
-53.0891
-52.6412
-52.1595
-51.6674
-51.165
-50.6571
-50.1467
-49.6376
-49.1279
-54.7032
-54.1545
-53.858
-53.3786
-52.9275
-52.4421
-51.9464
-51.4401
-50.9286
-50.4147
-49.9016
-49.3865
-54.9806
-54.4314
-54.1341
-53.6505
-53.1966
-52.7075
-52.2083
-51.6985
-51.1836
-50.6669
-50.1532
-49.6394
-55.2423
-54.6907
-54.393
-53.9048
-53.4482
-52.9559
-52.4533
-51.94
-51.4211
-50.8994
-50.379
-49.8644
-55.4919
-54.9341
-54.6352
-54.1422
-53.6831
-53.1874
-52.6816
-52.1646
-51.6416
-51.1149
-50.5847
-50.0483
-55.7148
-55.1579
-54.8603
-54.3624
-53.9013
-53.4027
-52.8939
-52.3737
-51.8475
-51.3177
-50.7833
-50.224
-55.9294
-55.3662
-55.0689
-54.5658
-54.1029
-53.6018
-53.0907
-52.5684
-52.0405
-51.5115
-50.9902
-50.4646
-56.1211
-55.5567
-55.2605
-54.7522
-54.2884
-53.7851
-53.272
-52.7475
-52.2168
-51.682
-51.1465
-50.6108
-56.2977
-55.7333
-55.4342
-54.9216
-54.4577
-53.9524
-53.4373
-52.9106
-52.3778
-51.8413
-51.3049
-50.7625
-56.4628
-55.8948
-55.5921
-55.0755
-54.6114
-54.104
-53.5872
-53.0587
-52.5241
-51.9861
-51.4482
-50.9008
-56.6026
-56.0383
-55.7357
-55.2126
-54.75
-54.2406
-53.7223
-53.1921
-52.6557
-52.1161
-51.5782
-51.0372
-56.7343
-56.1669
-55.862
-55.3356
-54.8744
-54.3623
-53.8423
-53.3105
-52.7725
-52.2306
-51.6889
-51.1427
-56.8436
-56.2774
-55.9707
-55.4438
-54.9849
-54.4685
-53.9472
-53.4141
-52.8747
-52.3321
-51.7921
-51.2582
-56.9393
-56.3737
-56.0634
-55.5394
-55.079
-54.558
-54.0369
-53.5027
-52.962
-52.4171
-51.8711
-51.3263
-57.0176
-56.4563
-56.1382
-55.6214
-55.152
-54.6345
-54.1124
-53.5767
-53.0349
-52.4896
-51.9448
-51.4087
-57.0838
-56.5231
-56.1999
-55.6868
-55.2131
-54.6961
-54.1729
-53.6363
-53.0935
-52.547
-51.999
-51.4534
-57.1336
-56.5751
-56.2469
-55.7356
-55.2603
-54.7432
-54.2188
-53.6814
-53.1379
-52.5908
-52.0438
-51.5061
-57.164
-56.6091
-56.2796
-55.769
-55.2924
-54.7753
-54.2502
-53.7122
-53.1678
-52.6189
-52.0664
-51.5132
-57.1835
-56.6291
-56.2981
-55.7881
-55.3104
-54.7933
-54.2677
-53.7294
-53.1846
-52.6353
-52.0824
-51.5208
-57.1866
-56.6336
-56.3017
-55.7919
-55.3136
-54.7969
-54.2714
-53.7335
-53.1894
-52.6424
-52.0971
-51.55
-57.1708
-56.6231
-56.2903
-55.7812
-55.3025
-54.7861
-54.2608
-53.7234
-53.1797
-52.6324
-52.0852
-51.5332
-57.1438
-56.5986
-56.2642
-55.7558
-55.277
-54.761
-54.2359
-53.6987
-53.155
-52.6071
-52.0597
-51.5148
-57.101
-56.5591
-56.2235
-55.7159
-55.237
-54.7216
-54.1968
-53.6599
-53.1164
-52.5683
-52.0184
-51.4666
-57.0482
-56.5043
-56.1682
-55.6615
-55.1827
-54.668
-54.1438
-53.6078
-53.0651
-52.5183
-51.9711
-51.4294
-56.9709
-56.4348
-56.0983
-55.5926
-55.1142
-54.6004
-54.0771
-53.5421
-53.0006
-52.4547
-51.9059
-51.3483
-56.8881
-56.3503
-56.0136
-55.5092
-55.0314
-54.5186
-53.9963
-53.4627
-52.9231
-52.3808
-51.8438
-51.3223
-56.7843
-56.2505
-55.9141
-55.411
-54.9339
-54.4223
-53.9012
-53.3687
-52.8299
-52.2867
-51.7419
-51.2047
-56.6665
-56.1364
-55.8003
-55.2987
-54.8223
-54.3116
-53.7913
-53.2595
-52.7211
-52.1779
-51.6313
-51.0868
-56.5387
-56.0104
-55.6732
-55.1726
-54.6969
-54.1872
-53.6679
-53.137
-52.5993
-52.0571
-51.5115
-50.9588
-56.3954
-55.868
-55.5313
-55.032
-54.5572
-54.049
-53.531
-53.0018
-52.4658
-51.926
-51.3866
-50.8517
-56.233
-55.7101
-55.3746
-54.8773
-54.4037
-53.897
-53.3807
-52.8532
-52.319
-51.7804
-51.2389
-50.6931
-56.0587
-55.5381
-55.2033
-54.708
-54.2359
-53.7311
-53.2167
-52.6913
-52.1593
-51.6235
-51.0879
-50.5552
-55.868
-55.3519
-55.0182
-54.5248
-54.0543
-53.5514
-53.039
-52.5157
-51.9858
-51.452
-50.9165
-50.3779
-55.6644
-55.1527
-54.8192
-54.3277
-53.8588
-53.3578
-52.8474
-52.3263
-51.7986
-51.2676
-50.7376
-50.2158
-55.4527
-54.9392
-54.6058
-54.1164
-53.6491
-53.1501
-52.6418
-52.1229
-51.5974
-51.0674
-50.5352
-50.0042
-55.2136
-54.7081
-54.3771
-53.8906
-53.4252
-52.9286
-52.4225
-51.906
-51.3829
-50.8559
-50.3293
-49.818
-54.9657
-54.4641
-54.1346
-53.6505
-53.1873
-52.693
-52.1894
-51.6751
-51.1547
-50.6299
-50.1026
-49.583
-54.7057
-54.2078
-53.8785
-53.397
-52.9356
-52.4436
-51.9426
-51.4308
-50.9129
-50.391
-49.8683
-49.3658
-54.4316
-53.9357
-53.6082
-53.1295
-52.6703
-52.1805
-51.6818
-51.1727
-50.6572
-50.1371
-49.6123
-49.0928
-54.1437
-53.6511
-53.3238
-52.8475
-52.3907
-51.9037
-51.4077
-50.9013
-50.3883
-49.8711
-49.35
-48.8352
-53.8339
-53.3485
-53.0247
-52.5521
-52.0978
-51.6137
-51.1207
-50.6174
-50.1078
-49.5949
-49.0807
-48.5784
-53.5124
-53.0324
-52.711
-52.2419
-51.7905
-51.3098
-50.8199
-50.32
-49.8138
-49.3037
-48.79
-48.2802
-53.185
-52.7071
-52.3855
-51.9189
-51.4698
-50.9922
-50.5056
-50.0091
-49.5064
-49.0005
-48.4943
-48.0034
-52.838
-52.3648
-52.0452
-51.582
-51.136
-50.6611
-50.1779
-49.6848
-49.1853
-48.6819
-48.1743
-47.6695
-52.4768
-52.0067
-51.6898
-51.2305
-50.7877
-50.3164
-49.8363
-49.3468
-48.8513
-48.3525
-47.8528
-47.3689
-52.1003
-51.6358
-51.3208
-50.865
-50.4254
-49.9575
-49.4813
-48.9955
-48.504
-48.0092
-47.5108
-47.0146
-51.7053
-51.2485
-50.9367
-50.4854
-50.0491
-49.585
-49.1124
-48.6305
-48.1435
-47.6534
-47.1644
-46.6932
-51.3016
-50.8489
-50.5393
-50.092
-49.6591
-49.1988
-48.73
-48.2518
-47.7683
-47.2809
-46.7896
-46.3108
-50.8847
-50.4362
-50.1288
-49.6854
-49.2559
-48.7993
-48.334
-47.8596
-47.3796
-46.8953
-46.4049
-45.9156
-50.4524
-50.0086
-49.7035
-49.2645
-48.8388
-48.3863
-47.9251
-47.4554
-46.9804
-46.5025
-46.0224
-45.5461
-50.0046
-49.5665
-49.264
-48.8299
-48.408
-47.9599
-47.5035
-47.0388
-46.5696
-46.0983
-45.6287
-45.1754
-49.5418
-49.1097
-48.8106
-48.3809
-47.9635
-47.5197
-47.0679
-46.6082
-46.1433
-45.6755
-45.2043
-44.7384
-49.0636
-48.6396
-48.3434
-47.9187
-47.505
-47.0657
-46.6184
-46.1635
-45.7038
-45.2412
-44.778
-44.3348
-48.58
-48.1576
-47.8632
-47.4427
-47.0331
-46.5981
-46.1557
-45.7057
-45.2511
-44.7932
-44.3304
-43.8651
-48.0769
-47.6603
-47.3682
-46.953
-46.5472
-46.1174
-45.6799
-45.2355
-44.7868
-44.3363
-43.8868
-43.4535
-47.5577
-47.1475
-46.8589
-46.4483
-46.0477
-45.6226
-45.1909
-44.7523
-44.3093
-43.865
-43.4207
-42.9999
-47.0255
-46.6218
-46.3361
-45.9308
-45.5341
-45.1146
-44.6882
-44.2551
-43.8176
-43.3774
-42.9351
-42.517
-46.48
-46.0819
-45.7994
-45.3984
-45.0069
-44.5927
-44.172
-43.7445
-43.3124
-42.8769
-42.4331
-41.9895
-45.9224
-45.5296
-45.2494
-44.854
-44.4665
-44.058
-43.6437
-43.2229
-42.7992
-42.3747
-41.9528
-41.5664
-45.3513
-44.965
-44.6869
-44.2957
-43.9131
-43.5101
-43.1022
-42.689
-42.2718
-41.8531
-41.4288
-41.0143
-44.7691
-44.3856
-44.1101
-43.7242
-43.346
-42.9491
-42.5479
-42.1406
-41.7304
-41.3164
-40.899
-40.503
-44.1649
-43.7914
-43.5195
-43.1386
-42.7655
-42.3752
-41.9796
-41.58
-41.1751
-40.7678
-40.3552
-39.9457
-43.5567
-43.1855
-42.9155
-42.5396
-42.1724
-41.7874
-41.3993
-41.0053
-40.608
-40.2089
-39.8102
-39.4346
-42.9319
-42.5661
-42.2986
-41.9283
-41.566
-41.1873
-40.8048
-40.4175
-40.0265
-39.6332
-39.2343
-38.8357
-42.2833
-41.9279
-41.6666
-41.303
-40.9465
-40.5736
-40.1972
-39.8162
-39.4332
-39.0481
-38.6628
-38.2989
-41.6318
-41.2813
-41.0221
-40.6645
-40.3131
-39.9473
-39.5761
-39.2035
-38.8273
-38.4513
-38.0708
-37.692
-40.9623
-40.6192
-40.3642
-40.0132
-39.6685
-39.3079
-38.9454
-38.5786
-38.2117
-37.8438
-37.4784
-37.1359
-40.2818
-39.9433
-39.6934
-39.3488
-39.0113
-38.659
-38.3025
-37.9444
-37.5837
-37.222
-36.8553
-36.4988
-39.5796
-39.2526
-39.0083
-38.6744
-38.3443
-37.9991
-37.6507
-37.2991
-36.9467
-36.593
-36.2355
-35.8854
-38.8685
-38.5486
-38.3131
-37.9874
-37.6657
-37.3287
-36.9879
-36.6449
-36.3006
-35.958
-35.6173
-35.2908
-38.1463
-37.8342
-37.6033
-37.2878
-36.9737
-36.6448
-36.3125
-35.9772
-35.6416
-35.3065
-34.9728
-34.6591
-37.4069
-37.1035
-36.88
-36.5723
-36.2671
-35.9465
-35.6221
-35.2953
-34.9674
-34.6393
-34.3079
-33.9841
-36.6548
-36.3587
-36.1407
-35.8426
-35.5456
-35.2337
-34.9179
-34.5999
-34.2818
-33.9644
-33.6493
-33.3609
-35.8881
-35.6014
-35.3886
-35.0993
-34.8104
-34.5078
-34.2011
-33.8925
-33.5833
-33.2744
-32.9625
-32.6547
-35.1145
-34.8328
-34.6251
-34.3437
-34.0638
-33.77
-33.4731
-33.1744
-32.8748
-32.5762
-32.2772
-31.9921
-34.327
-34.052
-33.8496
-33.5775
-33.3058
-33.0217
-32.7346
-32.4464
-32.1576
-31.8708
-31.5869
-31.3235
-33.5238
-33.2583
-33.0622
-32.7988
-32.5363
-32.2625
-31.9858
-31.7078
-31.4299
-31.1528
-30.8741
-30.6018
-32.7114
-32.4533
-32.2632
-32.0092
-31.7561
-31.4926
-31.2268
-30.9602
-30.6936
-30.4282
-30.1658
-29.9253
-31.8861
-31.6367
-31.4529
-31.2084
-30.9647
-30.7117
-30.4575
-30.2027
-29.9485
-29.695
-29.4397
-29.1993
-31.0554
-30.8119
-30.6332
-30.3976
-30.1631
-29.9209
-29.6779
-29.4356
-29.1951
-28.9568
-28.7218
-28.5212
-30.2121
-29.9758
-29.8019
-29.576
-29.3513
-29.1196
-28.888
-28.6575
-28.4292
-28.2041
-27.9801
-27.7655
-29.3547
-29.1278
-28.9616
-28.745
-28.5297
-28.3088
-28.0878
-27.8688
-27.6513
-27.4336
-27.2125
-26.9905
-28.4939
-28.2714
-28.1101
-27.9037
-27.6986
-27.4881
-27.2795
-27.0727
-26.8685
-26.6664
-26.4669
-26.2937
-27.6158
-27.4031
-27.25
-27.054
-26.8593
-26.6607
-26.4638
-26.2711
-26.0815
-25.8938
-25.7041
-25.5174
-26.7323
-26.5274
-26.3801
-26.1952
-26.0119
-25.8256
-25.6425
-25.4637
-25.2895
-25.1191
-24.9506
-24.8023
-25.8395
-25.6442
-25.5039
-25.3292
-25.1571
-24.9835
-24.8134
-24.6502
-24.4929
-24.3393
-24.1864
-24.0492
-24.9448
-24.7537
-24.6191
-24.4552
-24.2956
-24.1352
-23.9795
-23.8311
-23.6902
-23.5555
-23.4243
-23.3256
-24.0398
-23.8558
-23.7278
-23.575
-23.4273
-23.2808
-23.1405
-23.0066
-22.8813
-22.7621
-22.6438
-22.5253
-23.1251
-22.9503
-22.83
-22.6887
-22.5544
-22.4226
-22.2969
-22.1793
-22.0688
-21.9641
-21.8592
-21.753
-22.21
-22.042
-21.9274
-21.798
-21.6775
-21.5615
-21.4528
-21.3525
-21.2614
-21.1787
-21.1061
-21.0687
-21.2921
-21.1292
-21.0213
-20.9034
-20.7977
-20.6984
-20.6077
-20.5265
-20.4544
-20.39
-20.3274
-20.2715
-20.3667
-20.2118
-20.1114
-20.0066
-19.9157
-19.8345
-19.7634
-19.702
-19.6505
-19.6068
-19.5686
-19.5588
-19.4412
-19.2934
-19.1999
-19.1077
-19.0333
-18.9715
-18.9213
-18.8823
-18.8532
-18.8315
-18.8111
-18.7968
-18.5163
-18.3739
-18.2885
-18.2105
-18.1534
-18.1128
-18.0859
-18.0715
-18.0677
-18.0723
-18.0818
-18.105
-17.588
-17.4534
-17.3768
-17.3144
-17.2769
-17.2594
-17.2587
-17.2719
-17.2964
-17.3301
-17.3707
-17.4256
-16.6632
-16.5345
-16.4677
-16.4229
-16.4073
-16.4161
-16.4442
-16.4871
-16.5412
-16.6038
-16.6732
-16.7616
-15.7372
-15.6168
-15.5618
-15.5377
-15.5486
-15.5873
-15.6476
-15.7232
-15.8082
-15.898
-15.9864
-16.0781
-14.8155
-14.7015
-14.6615
-14.6635
-14.7067
-14.7816
-14.879
-14.9911
-15.111
-15.2336
-15.3557
-15.4928
-13.8932
-13.7885
-13.77
-13.8082
-13.8939
-14.0128
-14.1528
-14.3043
-14.4604
-14.6158
-14.7643
-14.9121
-12.9669
-12.876
-12.8945
-12.9867
-13.1288
-13.3003
-13.4877
-13.6809
-13.8731
-14.0596
-14.2346
-14.4042
-12.0292
-11.971
-12.0585
-12.2338
-12.4493
-12.6805
-12.9146
-13.1441
-13.3689
-13.5831
-13.7753
-13.9336
-11.058
-11.1441
-11.3813
-11.6847
-11.9814
-12.2599
-12.5296
-12.7859
-13.0289
-13.2715
-13.472
-13.6553
-1.51138
9.70881
-10.3086
-19.2167
-19.857
-7.19978
-4.75728
32.7501
-44.7911
-39.9604
-35.0476
-14.8551
16.5883
-41.2462
1.38596
-6.75741
-41.2715
-30.5995
-30.0396
-6.48888
27.9831
26.3248
17.785
-16.1202
-0.857447
-10.8526
24.3649
0.64609
-42.5142
-37.8064
-42.477
30.9147
9.58131
-34.6561
16.7938
18.0436
33.6643
-30.8183
33.2345
-14.7596
2.32284
-1.99095
24.6824
-0.419916
33.4337
26.1243
19.0533
19.9918
33.365
27.9717
18.7595
32.5678
30.9378
1.49095
-36.9591
9.41833
12.9041
-2.36882
-31.5741
0.921457
24.1694
30.3292
1.53641
-3.96685
17.5256
9.71189
-13.6882
30.4922
16.3353
-39.4152
-37.0559
13.9389
33.1335
-13.2576
-15.493
2.61665
-44.3287
-1.67801
10.0153
28.8019
2.66433
-1.93256
33.9141
32.558
1.96514
-44.3986
-13.714
0.91963
-39.5742
33.5432
27.9872
-41.3223
-0.226463
7.82812
34.3249
-4.18773
0.516256
-1.9076
-0.642114
-13.3453
-15.8566
14.5776
5.57208
8.91229
-1.70941
33.9715
1.83125
33.2505
-13.6622
0.350687
17.979
-2.0698
30.5198
-7.73165
1.68694
15.6666
-19.9036
-6.20097
-45.7006
-33.3362
-10.6053
-21.5298
-42.0204
15.4072
-18.1224
-40.3273
-1.92279
11.6048
19.3706
1.03082
31.5958
1.40018
21.4163
8.84744
23.5183
10.7801
34.0286
-39.3999
31.5453
10.3897
-19.15
28.7194
27.1229
0.538285
30.8963
-37.1304
31.6715
-10.6841
-47.9229
3.35604
0.321697
16.6471
-1.66779
4.76341
22.179
3.2273
31.8297
-1.35031
-41.7129
-14.5819
-22.0912
-6.3261
-30.1842
-15.0633
24.1413
26.3775
31.5949
34.3123
10.9012
1.48689
-38.1101
-18.0672
-36.9184
-19.2511
-1.10239
-41.2494
1.95436
32.391
25.2139
-36.9822
31.0683
-32.2836
-7.56599
33.4018
6.30582
31.4888
3.4941
-1.7059
31.7776
1.62163
-40.3788
-1.7452
31.9152
-5.90096
32.0478
8.0605
26.9527
30.4003
2.38187
-61.423
-47.5675
32.4142
34.3552
31.1709
32.8673
14.1224
-7.97467
-36.2496
-13.8284
-15.9305
4.3074
-46.9819
33.4129
34.2283
1.93912
31.1853
-11.1909
-13.1309
-63.5323
30.5448
32.4364
-47.829
33.5687
-3.23907
-3.26711
-39.9206
-44.8071
-2.07338
-56.4297
20.0278
33.7386
-17.1119
-2.30158
-13.0117
-13.3753
27.4041
31.2412
-47.3668
-1.80717
32.8944
-33.3321
19.455
-40.7468
-45.9351
33.0712
2.45068
19.8826
6.01829
-42.4817
31.3423
-40.1268
-13.3937
-40.3666
-71.5385
28.2598
-31.6905
0.0948671
32.6677
-42.1992
33.4001
-15.235
27.0937
17.3274
-8.60964
-14.3252
27.5835
-46.5803
32.7188
-3.68252
6.48115
0.177249
18.6138
-45.2878
33.0932
32.8855
-44.4153
21.8577
34.4529
34.254
32.6633
32.6387
23.365
33.6996
33.1972
-25.4641
27.4655
-33.0663
33.2281
-50.0976
29.5072
32.6456
-42.3229
34.9562
34.9492
30.4559
32.0089
28.0431
30.7006
23.9777
34.2471
29.081
-0.741235
-10.8253
-37.5661
22.3456
-46.5051
34.4993
1.5504
14.3869
16.6656
-27.9375
34.7072
3.447
-50.924
32.5038
24.3756
34.9043
-31.4238
2.01239
27.8129
22.0461
-41.8219
-15.3307
69.7061
34.2391
-30.7875
-26.2041
-2.31636
2.57505
34.7398
-4.08388
0.64073
-41.827
-2.27035
2.63717
4.24893
-1.70761
14.9906
2.15802
6.52436
-0.323062
33.0155
0.121634
29.3958
12.9123
31.6243
33.6238
-42.1356
-60.7301
-12.6695
-0.170257
-4.0627
13.8575
26.0112
34.7971
-1.17885
-25.3461
33.5389
-46.1395
-40.0124
30.1012
33.7029
-49.002
-61.3695
21.2619
-21.6338
-3.18218
0.32472
-1.55284
0.70744
-29.7905
30.2467
33.9942
-33.1979
-41.7285
28.7306
33.1789
-48.2767
3.5721
-35.8024
-11.0463
-11.0819
-1.39283
33.1492
-67.0639
28.038
-0.865039
21.7733
28.6233
19.7466
3.50484
-37.2301
-35.6889
30.7651
30.291
-3.02425
-55.7613
-2.80585
-33.8539
-26.8314
13.1528
-14.3693
-12.9862
14.1073
-43.433
30.9289
-48.796
-41.2347
31.315
33.312
-2.21855
-0.821539
1.55671
-49.2656
12.7163
28.7867
-62.5219
30.4043
30.639
3.41169
0.202633
30.6395
1.69716
-3.00136
32.532
0.584068
-21.6435
-47.3121
33.9103
0.580514
-14.0846
-11.2363
-31.4656
29.4254
-32.5515
1.96334
-41.4945
-37.3239
28.6095
-6.84195
34.5698
33.2528
12.9852
32.071
8.54987
-14.4563
-6.82793
31.8918
27.0096
2.12672
-37.5278
29.7145
33.4662
10.746
-41.8304
28.3664
9.66312
34.7981
34.2331
-32.4331
28.6087
-10.422
22.8584
-4.52623
-50.1397
-28.1409
2.28272
29.3303
22.8505
33.3541
-25.8524
33.6563
19.1355
0.823726
-38.0166
-46.7778
30.8414
1.99129
31.8789
-13.1583
0.115841
33.5104
33.2829
-23.2125
-20.6291
30.208
34.1743
-6.22576
-19.405
-42.8962
-22.353
0.945008
32.4126
-57.7278
-17.2725
30.5446
-23.7853
-1.02664
33.1339
33.9281
-40.5078
31.0785
33.6242
2.45387
26.2931
34.3917
22.9637
-48.3238
31.0995
-37.6742
31.7017
-49.5387
-13.7748
-36.8351
2.00611
-15.7088
31.4398
-37.6446
-13.9791
21.4094
15.8633
-12.5258
1.31253
31.5561
-0.694146
3.77201
-14.805
33.681
30.2586
-38.9829
34.954
-15.2387
-17.4601
-37.2822
-2.15898
25.9696
-47.401
-36.3909
30.3885
-42.566
-7.71213
-17.8141
-21.4707
-48.2461
-43.3065
-1.82935
-26.3766
1.95684
19.6124
9.06673
13.8135
-17.3891
28.4738
33.6716
-30.3885
26.2232
29.0598
-13.8709
0.00805391
-0.106157
16.6571
-13.4308
30.6454
-39.1194
-31.5301
-25.9508
31.7889
0.500006
16.9993
27.6796
10.862
-49.6761
24.3569
30.0031
30.3206
12.4573
0.450234
-9.3882
-2.6743
-36.0475
-36.1248
33.0711
-43.7471
4.26555
-45.8302
25.0434
33.0046
27.553
-43.9617
0.130383
-32.4616
1.30797
28.5278
-13.3948
32.2828
-36.708
-0.0881088
-46.0914
-40.85
33.4609
1.83877
-0.660922
-26.6566
-17.3406
11.7118
11.9939
8.30446
-12.7967
-6.26463
7.62107
29.7407
-29.2462
-33.8718
-1.86134
0.820979
-44.4465
34.1617
32.6957
33.5988
10.718
29.363
-6.83683
-30.6974
25.676
-1.78598
11.3482
30.2424
1.56028
14.4134
33.874
-50.3703
-50.7111
3.39492
-13.0607
29.1766
-49.737
19.3729
25.1679
32.2126
-2.12205
31.9851
29.4068
23.5547
-22.1532
-9.39011
-0.321468
-48.2334
-50.96
32.2004
-60.8105
4.45218
2.76271
-45.9055
-31.018
10.4447
1.96416
-41.9242
-1.12058
-36.2969
31.7159
-31.2638
2.02358
-45.9068
-0.0556532
32.8857
-37.7956
33.5813
17.0765
25.4817
-48.4529
-1.1437
19.0927
-48.1164
31.7542
-36.8401
-3.98174
-40.3368
-17.9675
1.34502
2.35875
24.174
-15.0308
32.2645
4.06479
-25.4103
34.2336
34.3043
-38.7189
23.5398
-38.4757
33.8134
27.4068
33.0821
-2.17949
13.5334
-1.13195
1.50358
30.1589
2.13801
34.8895
-10.6979
-35.4064
1.4587
28.6794
34.1124
-37.1415
-5.31337
-26.7259
18.8936
-52.8011
-17.355
-28.604
-40.6111
-1.86538
0.845066
33.2054
20.6278
34.34
29.6528
3.8278
34.8363
34.9156
32.8926
-37.0523
-16.6338
32.8878
-0.533021
4.46291
-56.586
33.4982
1.26161
15.1422
-38.4378
6.44656
-2.37123
-41.5414
2.05425
-26.6078
-57.9189
6.35014
32.1526
-1.61949
23.0343
32.7935
1.41702
-8.69821
-1.2843
7.34562
-9.4724
-52.4276
-32.0884
27.6012
29.3695
1.92144
-13.8793
-0.634749
-0.64844
-21.2374
14.8984
30.6167
16.5076
-43.655
-2.86915
-109.938
-0.506621
-10.2912
33.0058
30.1057
-1.66022
31.6938
-17.4866
29.2848
-10.4849
-42.7113
-43.9301
31.3884
-24.7437
-15.0098
17.3424
8.0573
27.3585
-58.0205
-13.3476
29.0359
0.119804
32.5601
-8.11894
-39.5389
-44.947
-16.1661
-13.9746
-43.1442
-23.8662
6.08252
34.3737
29.1905
-12.4079
7.35057
-3.33212
33.8418
-37.4054
-5.30668
-42.257
-28.384
25.9431
24.243
-48.3398
-11.1444
27.6853
-12.2069
-38.9231
-38.7164
0.209634
-43.219
-15.7618
34.1373
32.4847
30.5674
0.113574
-10.7378
-2.82257
1.74871
2.38279
31.0468
23.1994
20.4825
-37.8739
0.665815
-43.7977
15.5701
23.5983
1.95712
-38.574
-4.19189
26.44
-42.6965
23.7775
30.6367
28.5199
-2.12415
26.3507
-38.1647
10.2428
14.1347
31.9725
-39.9686
28.0089
16.0806
-15.3867
-13.9889
26.9793
-26.9055
-28.8899
30.875
0.417541
-50.6025
15.3055
12.6142
-9.0558
-58.3957
26.8691
-0.424943
1.19838
-45.347
29.9378
-48.6151
1.38837
-36.3595
-38.1922
33.7616
6.52064
33.5867
-29.9348
6.56183
29.328
-2.04942
-50.3317
34.0857
34.0222
34.6387
3.1929
1.99488
15.4299
-41.3327
-40.5931
-32.0379
0.323411
-14.3857
3.88946
12.7774
-39.7164
25.0441
27.7166
28.008
16.8943
33.3538
32.6239
-37.5236
0.00678884
34.2918
-32.3061
31.6938
1.15141
-41.6913
-4.3377
1.98097
4.4798
29.8319
-20.8228
-10.8187
26.373
-54.7536
-4.70331
3.80052
16.325
23.1414
-11.7449
27.9148
2.61431
-3.12751
-13.7405
13.9227
-12.9838
-40.905
33.2476
-16.5741
22.2406
-35.6766
28.3167
30.4537
32.3706
-40.4945
31.8767
1.66883
32.8129
-10.5735
-2.26251
-41.384
30.0153
21.1454
25.7235
-8.22028
-44.0124
-35.8615
-0.41458
34.1246
2.73925
33.1902
-31.5332
33.2045
-2.03552
-45.3651
34.2539
-35.5522
33.119
32.9915
-15.115
-29.5383
23.7314
0.626524
15.0992
34.9206
-1.37922
-48.2953
32.2827
-2.3282
-15.4483
10.6854
33.2678
33.6729
-31.4994
31.4344
32.6518
-10.2923
31.5618
27.0205
30.5855
31.2983
1.56161
-1.61604
-40.2622
-6.00696
-38.8834
32.9996
-0.808372
-36.8691
33.225
-2.27768
30.0641
25.2498
31.1486
31.0626
18.4322
-41.1717
-38.174
30.802
-33.1005
-21.2882
26.1205
33.8682
-45.5453
-30.7042
-38.5914
-21.5108
-15.8925
28.5317
-9.88263
-18.2691
-31.1195
-0.441726
-40.5816
33.04
12.6591
1.70929
-3.20551
-3.20664
31.5026
-2.11199
32.6856
-0.164243
31.7907
-7.40106
3.34945
-46.3819
33.7316
1.88272
31.49
33.7562
-25.0788
27.0594
-17.8704
32.2717
-1.6189
30.3539
21.4525
2.92922
10.3907
34.4825
30.9577
-0.140409
2.31276
33.733
2.3283
28.6957
-31.3627
-31.538
31.335
-19.2653
18.8108
-100.842
-44.9357
33.5163
-53.7459
-41.4558
2.31061
31.1345
-43.0735
-44.4747
2.46818
26.4052
-1.20398
-7.25334
30.6222
-10.4832
-17.3586
6.32752
-13.8768
-62.0424
13.9523
-1.15861
25.0342
0.472801
10.4802
24.7295
-64.6496
24.6572
5.48188
-3.15691
-47.6636
26.8693
4.72178
7.88325
27.8753
24.5469
33.6666
34.7278
-15.0231
-1.39815
-13.6568
2.63327
39.3292
26.719
-87.8063
29.5238
-29.8725
1.10467
-50.7341
-0.330224
2.7463
11.6268
30.7688
31.6866
-48.135
2.64208
-16.9666
-1.91356
27.2526
-48.2247
0.949452
32.9992
1.38638
1.10941
5.79058
16.4227
-13.2161
-40.6069
-22.1804
2.9784
-2.63351
31.393
32.4266
32.138
-44.8418
27.6006
31.3207
2.8816
11.4047
-35.248
32.4822
-14.2193
14.1041
1.29037
34.125
-2.04986
31.9498
32.1906
-7.64898
-12.1772
33.2152
-16.453
21.8004
1.67024
-35.9987
-40.7806
33.1619
-2.86255
-17.8752
-35.344
-20.3005
23.3234
-38.7323
1.95669
1.53417
0.316512
-19.6484
33.9728
-47.0196
0.244735
34.8611
-43.5486
29.7672
25.6963
-19.0922
14.1025
1.71598
20.5041
30.4624
31.2486
-1.03901
-40.5277
-2.35408
-16.8487
-17.0901
-44.2263
21.6104
-39.8734
-41.5207
8.90328
14.546
2.25753
-1.66523
6.32624
-12.6562
-7.3519
0.963891
-44.0438
33.3934
-0.583079
31.493
-34.9024
3.53401
1.8955
-62.3628
31.4389
-35.7659
-20.81
23.5533
30.2917
-27.0115
20.2105
-40.0713
33.0509
32.6475
34.796
25.8434
33.7725
31.8042
-18.4934
33.7087
3.71751
33.3287
15.4465
28.4474
-22.9029
29.3646
-32.9964
11.3404
34.4982
23.0346
34.2956
33.3733
34.6001
-28.1186
-3.82817
8.57868
2.09867
-20.35
-39.3714
1.93396
-45.093
2.59588
15.4199
32.8996
30.9634
-43.4655
-22.7239
22.8403
-46.3384
-7.21135
34.5396
-2.81398
32.3634
-49.2544
0.775859
-15.9536
-4.19047
21.4196
32.2063
30.8651
25.3504
31.5584
-1.80273
21.188
30.5594
-46.7156
5.89946
14.3471
29.3263
31.4848
-19.031
32.0482
-16.8396
-7.39608
-12.5814
1.21849
-8.95115
32.4808
-41.5762
33.3066
29.7229
-26.7538
-30.0124
25.8107
1.44973
32.8998
1.24014
1.62789
-0.748864
16.0372
32.1448
28.6415
-38.4427
33.0748
32.6659
6.31791
3.49978
26.5307
26.6301
19.8716
33.102
-22.4577
33.5616
-0.83878
33.7141
7.69014
7.34196
1.93179
-37.5708
-19.1512
28.7868
-26.278
-42.0513
-46.0021
2.01512
-40.1619
34.5442
33.8331
-0.335549
-9.59831
28.0764
32.731
-35.113
31.8978
-1.74662
-37.1834
3.08958
32.3484
-16.321
31.1439
13.6596
-12.3287
-0.662331
43.5755
-0.893742
-45.0976
18.2033
3.31356
16.3239
30.7051
-1.39555
-0.602063
-1.89997
16.0586
32.9164
-25.9226
-3.49841
31.6104
25.0825
34.099
1.85164
34.4752
25.9103
27.8127
-21.8935
33.6731
-16.016
34.827
-11.036
30.8284
32.2959
33.9252
-0.742671
26.0027
32.5851
31.9031
7.62463
0.811005
31.3789
23.9709
1.73469
-4.78632
-50.7257
0.913761
-37.1428
-45.3328
32.9799
33.5742
-27.2282
24.697
-31.7017
-52.1813
-25.8372
-13.3693
-35.9527
34.7807
28.4328
-1.4865
33.8317
-5.61124
-0.816362
2.92494
-0.21749
1.89903
4.17686
-25.6972
-100.28
-31.4019
8.13075
-37.8194
29.118
-3.71381
30.9832
28.4091
-21.3938
27.1204
-43.4179
34.685
24.7252
20.2515
-2.00249
2.23409
16.4977
21.397
33.6456
32.8215
-44.0835
27.9063
30.9255
-9.00742
32.8819
33.3689
-1.13717
32.8033
-42.4153
4.05548
-18.5835
14.8399
-18.3189
33.0216
-32.161
-15.946
7.04742
-33.0326
5.31213
-10.4807
1.19723
-18.6877
-40.3562
-25.6269
-0.642039
-1.44475
25.6431
32.4813
-38.2125
31.2371
-24.4729
33.3052
32.1833
2.02432
33.6205
-1.2677
-33.1775
27.9865
-31.7774
24.2367
-49.5414
-16.0636
33.5937
33.8506
-50.5662
32.4907
-14.2877
34.6229
-38.7952
22.8511
-31.6161
33.9221
12.0564
5.43099
-41.062
-32.2188
1.70975
-0.122498
-6.96312
-5.50423
34.4048
-0.92033
33.0508
30.2894
31.8845
-43.2021
2.92397
-33.832
30.4093
34.1807
32.1973
32.908
-42.3676
-5.05129
1.62498
3.43622
-28.8581
2.9098
33.5275
31.3421
5.20229
-17.619
-35.984
34.0545
33.0436
1.87958
31.2077
-27.0638
8.71787
11.5491
34.2541
33.5295
-9.85334
26.5606
-1.45938
2.72858
34.6401
7.32481
-19.6831
2.46185
32.5993
-9.88172
23.749
-50.1421
16.2262
-28.0632
-40.5661
6.43407
3.43946
-9.8557
0.808934
30.7839
33.4185
32.4243
-1.11685
22.8856
-27.9159
8.40308
-13.1682
-16.8205
-0.314862
2.12641
14.6183
-11.7768
0.710613
28.8859
4.03753
-46.0715
-5.95234
-7.4942
-22.5203
23.2175
13.9086
21.3907
-48.2615
12.3566
-1.91948
32.4548
30.9389
-40.3045
0.021784
34.791
31.3384
-4.36346
32.1846
-28.2125
-26.5699
5.69206
26.4902
-9.29206
30.9013
-48.0461
-40.1183
11.0574
-30.3665
-1.51735
33.5409
-1.83134
-23.4765
14.6269
31.2217
-27.8326
-38.2351
16.6819
-13.893
-0.801614
-32.9515
-10.6318
3.23261
-3.68601
34.1156
33.6555
25.1475
14.0082
29.3981
-6.39466
1.5567
2.42136
-40.4557
-15.2272
-36.2063
26.4184
33.6578
32.813
-21.2166
17.2455
2.79979
-1.24183
29.4114
-26.6829
-38.8981
-14.5221
4.11062
-16.1146
20.4286
34.3541
33.189
-25.6334
34.4218
-40.5988
-0.705287
4.19894
-17.5067
33.8111
-41.0115
32.8589
34.6817
8.05276
-48.8501
-2.7105
31.6806
19.7982
20.0051
-1.62023
21.5044
17.7121
-37.654
-32.9073
-1.00721
32.3837
-3.22192
33.5527
-42.9772
-1.6817
21.1551
-0.385506
29.3471
-26.3674
26.8763
-1.64436
29.502
33.7635
31.6137
-38.4754
19.8947
-36.9305
3.58807
-14.4775
34.3239
-49.8685
-12.4294
-8.48703
-4.3165
33.6315
6.55473
-13.5648
1.34122
-24.4653
1.91268
7.58926
-0.0298678
-3.16348
-16.5778
-13.269
1.19636
-43.683
-17.3045
-26.1685
-38.0236
-8.68094
-2.54007
34.3584
-6.49557
0.909023
-29.5484
-11.0302
-43.9482
21.8635
-12.2788
10.523
-0.948524
-7.58367
-22.7077
20.4099
-36.0635
-12.5901
-11.2223
-26.8767
33.6663
-41.0272
3.47631
-0.306925
-43.1533
-11.8298
12.1333
18.4378
1.48558
-40.5271
5.66864
-30.696
-40.4947
33.0125
-2.41888
34.4473
1.24188
-14.1452
31.3036
1.81786
34.4983
-30.0491
1.68801
32.8315
1.57848
13.6631
15.069
3.99193
-23.8246
29.111
-43.8139
-27.6025
-48.2652
11.8319
32.9907
29.8039
-42.3067
-17.0629
2.0484
-58.2852
23.7719
-43.6513
13.0175
-18.5112
0.253339
-2.66255
31.2891
-14.6355
31.1363
-28.5403
31.3181
-2.60097
1.957
4.33097
22.5608
12.0506
-23.1013
-1.87966
-30.4945
32.093
18.3102
-16.1678
-38.4874
0.221031
27.8974
0.856354
1.87365
30.9267
-41.2351
-25.5345
16.3906