/*--------------------------------*- C++ -*----------------------------------*\
| =========                 |                                                 |
| \\      /  F ield         | OpenFOAM: The Open Source CFD Toolbox           |
|  \\    /   O peration     | Version:  2.3.1                                 |
|   \\  /    A nd           | Web:      www.OpenFOAM.org                      |
|    \\/     M anipulation  |                                                 |
\*---------------------------------------------------------------------------*/
FoamFile
{
    version     2.0;
    format      ascii;
    class       surfaceScalarField;
    location    "0.5";
    object      phi;
}
// * * * * * * * * * * * * * * * * * * * * * * * * * * * * * * * * * * * * * //

dimensions      [0 3 -1 0 0 0 0];

internalField   nonuniform List<scalar> 
23326
(
-1.24121e-05
0.000111474
-9.9062e-05
-2.13163e-05
0.000126927
-0.000118023
-2.6946e-05
0.000141323
-0.000135693
-3.05846e-05
0.00015689
-0.000153251
-3.36998e-05
0.000169519
-0.000166404
-3.59011e-05
0.000181829
-0.000179628
-3.74097e-05
0.000192434
-0.000190926
-3.81787e-05
0.000201103
-0.000200334
-3.85689e-05
0.000207665
-0.000207275
-3.86262e-05
0.00021273
-0.000212673
-3.85351e-05
0.000216517
-0.000216608
0.000219262
-3.837e-05
-0.000219428
-6.91239e-06
0.000118386
-1.36665e-05
0.000133681
-1.96991e-05
0.000147356
-2.41778e-05
0.000161368
-2.78518e-05
0.000173193
-3.05645e-05
0.000184542
-3.24625e-05
0.000194332
-3.37159e-05
0.000202357
-3.45033e-05
0.000208452
-3.4957e-05
0.000213184
-3.51765e-05
0.000216736
0.000219355
-3.52692e-05
-5.58111e-06
0.000123968
-1.08776e-05
0.000138977
-1.58817e-05
0.00015236
-1.99842e-05
0.000165471
-2.35205e-05
0.00017673
-2.62846e-05
0.000187306
-2.8337e-05
0.000196385
-2.97958e-05
0.000203815
-3.08594e-05
0.000209516
-3.15885e-05
0.000213913
-3.20572e-05
0.000217205
0.000219721
-3.24228e-05
-4.70023e-06
0.000128668
-9.26895e-06
0.000143546
-1.35493e-05
0.00015664
-1.71624e-05
0.000169084
-2.03555e-05
0.000179923
-2.2951e-05
0.000189901
-2.50107e-05
0.000198444
-2.65504e-05
0.000205355
-2.77179e-05
0.000210683
-2.8617e-05
0.000214812
-2.92867e-05
0.000217875
0.000220284
-2.98499e-05
-3.84813e-06
0.000132516
-7.88319e-06
0.000147581
-1.16825e-05
0.000160439
-1.49526e-05
0.000172354
-1.78419e-05
0.000182812
-2.02862e-05
0.000192345
-2.22405e-05
0.000200398
-2.3781e-05
0.000206896
-2.50333e-05
0.000211935
-2.59731e-05
0.000215752
-2.67835e-05
0.000218685
0.00022093
-2.7429e-05
-3.20416e-06
0.00013572
-6.76428e-06
0.000151141
-1.01517e-05
0.000163827
-1.31254e-05
0.000175328
-1.58109e-05
0.000185498
-1.80421e-05
0.000194577
-1.99027e-05
0.000202259
-2.14383e-05
0.000208431
-2.26537e-05
0.000213151
-2.36708e-05
0.000216769
-2.452e-05
0.000219534
0.00022166
-2.52505e-05
-2.75734e-06
0.000138477
-5.91718e-06
0.000154301
-8.94692e-06
0.000166856
-1.16667e-05
0.000178048
-1.40836e-05
0.000187914
-1.61811e-05
0.000196674
-1.79384e-05
0.000204016
-1.93839e-05
0.000209877
-2.0613e-05
0.00021438
-2.16532e-05
0.000217809
-2.25605e-05
0.000220441
0.000222471
-2.33714e-05
-2.42374e-06
0.000140901
-5.26053e-06
0.000157138
-7.98432e-06
0.00016958
-1.04254e-05
0.000180489
-1.26574e-05
0.000190146
-1.45998e-05
0.000198617
-1.62563e-05
0.000205673
-1.76318e-05
0.000211252
-1.88402e-05
0.000215588
-1.98851e-05
0.000218854
-2.07875e-05
0.000221344
0.000223268
-2.15843e-05
-2.15844e-06
0.00014306
-4.73055e-06
0.00015971
-7.19921e-06
0.000172049
-9.45087e-06
0.00018274
-1.14819e-05
0.000192178
-1.32545e-05
0.000200389
-1.48057e-05
0.000207224
-1.61521e-05
0.000212599
-1.72957e-05
0.000216732
-1.83067e-05
0.000219865
-1.92085e-05
0.000222246
0.000224136
-2.00763e-05
-1.93471e-06
0.000144994
-4.27472e-06
0.00016205
-6.53168e-06
0.000174306
-8.59148e-06
0.0001848
-1.04818e-05
0.000194068
-1.21296e-05
0.000202037
-1.35605e-05
0.000208655
-1.48082e-05
0.000213846
-1.59359e-05
0.00021786
-1.69262e-05
0.000220856
-1.78243e-05
0.000223144
0.000224949
-1.86377e-05
-1.74888e-06
0.000146743
-3.89832e-06
0.000164199
-5.96616e-06
0.000176374
-7.8659e-06
0.0001867
-9.59574e-06
0.000195798
-1.11245e-05
0.000203566
-1.24702e-05
0.000210001
-1.36536e-05
0.00021503
-1.47151e-05
0.000218921
-1.5674e-05
0.000221815
-1.65863e-05
0.000224056
0.000225736
-1.73733e-05
-1.58504e-06
0.000148328
-3.55877e-06
0.000166173
-5.46303e-06
0.000178278
-7.24645e-06
0.000188483
-8.82475e-06
0.000197376
-1.02534e-05
0.000204995
-1.15136e-05
0.000211261
-1.26349e-05
0.000216151
-1.36464e-05
0.000219933
-1.45734e-05
0.000222742
-1.53932e-05
0.000224876
0.000226529
-1.61858e-05
-1.4471e-06
0.000149775
-3.2657e-06
0.000167992
-5.0368e-06
0.000180049
-6.67517e-06
0.000190122
-8.1698e-06
0.000198871
-9.50211e-06
0.000206327
-1.06623e-05
0.000212421
-1.1728e-05
0.000217217
-1.26697e-05
0.000220874
-1.35496e-05
0.000223621
-1.43545e-05
0.000225681
0.000227206
-1.50316e-05
-1.32814e-06
0.000151103
-3.03237e-06
0.000169696
-4.66421e-06
0.000181681
-6.17437e-06
0.000191632
-7.56671e-06
0.000200263
-8.79077e-06
0.000207551
-9.91204e-06
0.000213542
-1.0896e-05
0.000218201
-1.18227e-05
0.000221801
-1.26925e-05
0.000224491
-1.34965e-05
0.000226485
0.000228034
-1.4325e-05
-1.21785e-06
0.000152321
-2.78772e-06
0.000171266
-4.3335e-06
0.000183227
-5.74623e-06
0.000193045
-7.02682e-06
0.000201543
-8.20072e-06
0.000208725
-9.2316e-06
0.000214573
-1.01957e-05
0.000219165
-1.10291e-05
0.000222634
-1.1827e-05
0.000225289
-1.25913e-05
0.000227249
0.000228701
-1.32582e-05
-1.12187e-06
0.000153443
-2.58997e-06
0.000172734
-4.02064e-06
0.000184657
-5.33854e-06
0.000194363
-6.5426e-06
0.000202748
-7.62272e-06
0.000209805
-8.59899e-06
0.000215549
-9.48198e-06
0.000220048
-1.03319e-05
0.000223484
-1.11257e-05
0.000226083
-1.18471e-05
0.000227971
0.000229364
-1.25102e-05
-1.03621e-06
0.000154479
-2.39269e-06
0.000174091
-3.72963e-06
0.000185994
-4.97417e-06
0.000195607
-6.10258e-06
0.000203876
-7.12025e-06
0.000210823
-8.04061e-06
0.00021647
-8.91297e-06
0.00022092
-9.69344e-06
0.000224265
-1.04073e-05
0.000226797
-1.11036e-05
0.000228667
0.000230023
-1.17626e-05
-9.46913e-07
0.000155426
-2.22746e-06
0.000175371
-3.49215e-06
0.000187259
-4.66175e-06
0.000196777
-5.72516e-06
0.000204939
-6.68953e-06
0.000211787
-7.55839e-06
0.000217339
-8.30733e-06
0.000221669
-9.05911e-06
0.000225017
-9.76648e-06
0.000227504
-1.04393e-05
0.00022934
0.000230666
-1.10821e-05
-8.79464e-07
0.000156306
-2.08215e-06
0.000176574
-3.24929e-06
0.000188426
-4.35217e-06
0.00019788
-5.33046e-06
0.000205918
-6.23806e-06
0.000212695
-7.04141e-06
0.000218142
-7.83019e-06
0.000222458
-8.51744e-06
0.000225704
-9.19333e-06
0.00022818
-9.81243e-06
0.000229959
0.000231283
-1.04297e-05
-8.17935e-07
0.000157124
-1.92733e-06
0.000177683
-3.05053e-06
0.000189549
-4.06907e-06
0.000198898
-5.0199e-06
0.000206868
-5.85377e-06
0.000213528
-6.63779e-06
0.000218926
-7.33647e-06
0.000223156
-8.01713e-06
0.000226385
-8.6071e-06
0.00022877
-9.21781e-06
0.00023057
0.000231831
-9.76599e-06
-7.61797e-07
0.000157886
-1.80448e-06
0.000178726
-2.84394e-06
0.000190589
-3.80914e-06
0.000199863
-4.67798e-06
0.000207737
-5.49191e-06
0.000214342
-6.21025e-06
0.000219644
-6.87723e-06
0.000223823
-7.5002e-06
0.000227008
-8.1174e-06
0.000229387
-8.67612e-06
0.000231128
0.000232388
-9.23317e-06
-6.85604e-07
0.000158571
-1.66847e-06
0.000179709
-2.65425e-06
0.000191575
-3.58581e-06
0.000200795
-4.41115e-06
0.000208563
-5.13539e-06
0.000215067
-5.81745e-06
0.000220326
-6.4501e-06
0.000224456
-7.07384e-06
0.000227631
-7.64385e-06
0.000229957
-8.197e-06
0.000231681
0.000232911
-8.71945e-06
-6.4401e-07
0.000159215
-1.56712e-06
0.000180632
-2.49726e-06
0.000192505
-3.33508e-06
0.000201633
-4.11887e-06
0.000209346
-4.8241e-06
0.000215772
-5.47533e-06
0.000220978
-6.07562e-06
0.000225056
-6.64564e-06
0.000228201
-7.19276e-06
0.000230504
-7.71202e-06
0.000232201
0.000233415
-8.21617e-06
-5.83383e-07
0.000159799
-1.45065e-06
0.000181499
-2.3303e-06
0.000193384
-3.12272e-06
0.000202425
-3.86279e-06
0.000210086
-4.53478e-06
0.000216444
-5.15117e-06
0.000221594
-5.72603e-06
0.000225631
-6.24608e-06
0.000228721
-6.73789e-06
0.000230996
-7.24813e-06
0.000232711
0.000233913
-7.74572e-06
-5.38712e-07
0.000160337
-1.33777e-06
0.000182298
-2.17165e-06
0.000194218
-2.94666e-06
0.0002032
-3.62383e-06
0.000210764
-4.26183e-06
0.000217082
-4.82137e-06
0.000222154
-5.34486e-06
0.000226155
-5.86262e-06
0.000229239
-6.36598e-06
0.000231499
-6.82101e-06
0.000233166
0.00023439
-7.29799e-06
-5.0646e-07
0.000160844
-1.25579e-06
0.000183047
-2.02314e-06
0.000194986
-2.75859e-06
0.000203936
-3.4e-06
0.000211405
-3.97978e-06
0.000217662
-4.51053e-06
0.000222684
-5.03015e-06
0.000226674
-5.50292e-06
0.000229712
-5.95354e-06
0.00023195
-6.4285e-06
0.000233641
0.000234829
-6.86756e-06
-4.49587e-07
0.000161293
-1.15437e-06
0.000183752
-1.87993e-06
0.000195711
-2.55285e-06
0.000204609
-3.18527e-06
0.000212037
-3.73456e-06
0.000218211
-4.23817e-06
0.000223188
-4.70851e-06
0.000227145
-5.15535e-06
0.000230159
-5.61274e-06
0.000232408
-6.00003e-06
0.000234028
0.000235238
-6.40945e-06
-3.998e-07
0.000161693
-1.08472e-06
0.000184437
-1.76918e-06
0.000196396
-2.38489e-06
0.000205224
-2.95736e-06
0.00021261
-3.47982e-06
0.000218733
-3.98158e-06
0.00022369
-4.4012e-06
0.000227564
-4.82657e-06
0.000230584
-5.23761e-06
0.000232819
-5.66534e-06
0.000234456
0.000235592
-6.01945e-06
-3.73438e-07
0.000162067
-9.90517e-07
0.000185054
-1.61826e-06
0.000197023
-2.24491e-06
0.000205851
-2.76659e-06
0.000213132
-3.25722e-06
0.000219224
-3.68336e-06
0.000224116
-4.1376e-06
0.000228019
-4.51346e-06
0.00023096
-4.90987e-06
0.000233215
-5.26895e-06
0.000234815
0.000236011
-5.6876e-06
-3.16885e-07
0.000162383
-8.81744e-07
0.000185619
-1.51768e-06
0.000197659
-2.06569e-06
0.000206399
-2.58168e-06
0.000213648
-3.02239e-06
0.000219665
-3.45192e-06
0.000224545
-3.82582e-06
0.000228392
-4.21424e-06
0.000231348
-4.55917e-06
0.00023356
-4.95394e-06
0.00023521
0.000236344
-5.28661e-06
-2.92927e-07
0.000162676
-8.41195e-07
0.000186167
-1.37529e-06
0.000198193
-1.91754e-06
0.000206941
-2.37843e-06
0.000214109
-2.82047e-06
0.000220107
-3.20262e-06
0.000224928
-3.58546e-06
0.000228775
-3.92292e-06
0.000231686
-4.28081e-06
0.000233918
-4.57976e-06
0.000235509
0.000236694
-4.92972e-06
-2.59628e-07
0.000162936
-7.41597e-07
0.000186649
-1.28779e-06
0.00019874
-1.75036e-06
0.000207404
-2.21218e-06
0.00021457
-2.60374e-06
0.000220498
-2.98679e-06
0.000225311
-3.29486e-06
0.000229083
-3.64562e-06
0.000232037
-3.95738e-06
0.00023423
-4.28682e-06
0.000235838
0.000236957
-4.55048e-06
-2.30778e-07
0.000163167
-6.63134e-07
0.000187082
-1.15447e-06
0.000199231
-1.63872e-06
0.000207888
-2.04965e-06
0.000214981
-2.41822e-06
0.000220867
-2.7283e-06
0.000225621
-3.07223e-06
0.000229427
-3.37436e-06
0.000232339
-3.67195e-06
0.000234527
-3.9677e-06
0.000236134
0.000237254
-4.26434e-06
-1.71234e-07
0.000163338
-6.12151e-07
0.000187523
-1.07413e-06
0.000199693
-1.48182e-06
0.000208296
-1.86791e-06
0.000215367
-2.2138e-06
0.000221213
-2.53058e-06
0.000225937
-2.82673e-06
0.000229723
-3.11358e-06
0.000232626
-3.3666e-06
0.00023478
-3.64368e-06
0.000236411
0.000237553
-3.94297e-06
-1.79541e-07
0.000163518
-5.41064e-07
0.000187884
-9.4876e-07
0.000200101
-1.37973e-06
0.000208727
-1.71491e-06
0.000215703
-2.01261e-06
0.00022151
-2.30922e-06
0.000226234
-2.58989e-06
0.000230004
-2.82928e-06
0.000232865
-3.09397e-06
0.000235045
-3.35984e-06
0.000236677
0.000237796
-3.60223e-06
-1.16126e-07
0.000163634
-4.72129e-07
0.00018824
-8.74617e-07
0.000200503
-1.20468e-06
0.000209057
-1.54368e-06
0.000216042
-1.84653e-06
0.000221813
-2.12188e-06
0.000226509
-2.3544e-06
0.000230237
-2.5768e-06
0.000233087
-2.82081e-06
0.000235289
-3.02924e-06
0.000236885
0.000238039
-3.27279e-06
-9.8849e-08
0.000163733
-4.01239e-07
0.000188543
-7.55104e-07
0.000200857
-1.10968e-06
0.000209411
-1.4009e-06
0.000216333
-1.65666e-06
0.000222069
-1.88698e-06
0.00022674
-2.09964e-06
0.000230449
-2.33402e-06
0.000233322
-2.56054e-06
0.000235515
-2.7565e-06
0.000237081
0.000238218
-2.93575e-06
-6.88777e-08
0.000163801
-3.39004e-07
0.000188813
-6.62472e-07
0.00020118
-9.68761e-07
0.000209718
-1.23798e-06
0.000216602
-1.49921e-06
0.00022233
-1.71308e-06
0.000226954
-1.91117e-06
0.000230647
-2.10036e-06
0.000233511
-2.2886e-06
0.000235704
-2.47683e-06
0.000237269
0.000238406
-2.6641e-06
-3.07835e-08
0.000163832
-2.74368e-07
0.000189056
-5.73697e-07
0.00020148
-8.56591e-07
0.00021
-1.10494e-06
0.00021685
-1.29498e-06
0.00022252
-1.51591e-06
0.000227174
-1.69845e-06
0.00023083
-1.87584e-06
0.000233688
-2.02686e-06
0.000235855
-2.22175e-06
0.000237464
0.000238635
-2.45118e-06
-3.86551e-09
0.000163836
-2.1639e-07
0.000189269
-4.88812e-07
0.000201752
-7.47225e-07
0.000210259
-9.75055e-07
0.000217078
-1.17321e-06
0.000222718
-1.32338e-06
0.000227325
-1.46104e-06
0.000230968
-1.61924e-06
0.000233846
-1.77259e-06
0.000236008
-1.90806e-06
0.0002376
0.000238742
-2.0152e-06
6.43278e-09
0.00016383
-1.592e-07
0.000189434
-4.04243e-07
0.000201997
-6.1511e-07
0.00021047
-8.22104e-07
0.000217285
-9.73505e-07
0.00022287
-1.13326e-06
0.000227484
-1.28228e-06
0.000231117
-1.39923e-06
0.000233963
-1.54653e-06
0.000236155
-1.67635e-06
0.00023773
0.000238918
-1.85211e-06
3.85039e-08
0.000163791
-9.63809e-08
0.000189569
-2.93004e-07
0.000202194
-5.09393e-07
0.000210686
-6.70287e-07
0.000217446
-8.3251e-07
0.000223032
-9.47617e-07
0.000227599
-1.05268e-06
0.000231222
-1.18391e-06
0.000234095
-1.28521e-06
0.000236257
-1.41636e-06
0.000237861
0.000239021
-1.51992e-06
6.24931e-08
0.000163729
-6.40141e-08
0.000189696
-2.38562e-07
0.000202368
-4.05747e-07
0.000210853
-5.4872e-07
0.000217589
-6.6514e-07
0.000223148
-7.64888e-07
0.000227699
-8.83307e-07
0.00023134
-9.70113e-07
0.000234181
-1.05877e-06
0.000236345
-1.15305e-06
0.000237955
0.000239124
-1.25552e-06
9.6171e-08
0.000163632
1.67229e-08
0.000189775
-1.28512e-07
0.000202514
-2.76641e-07
0.000211001
-4.01934e-07
0.000217714
-5.01296e-07
0.000223248
-5.84777e-07
0.000227783
-6.59873e-07
0.000231415
-7.32638e-07
0.000234254
-8.06565e-07
0.000236419
-8.80369e-07
0.000238029
0.000239193
-9.49727e-07
1.1993e-07
0.000163512
6.87797e-08
0.000189826
-5.00083e-08
0.000202632
-1.76975e-07
0.000211128
-2.84775e-07
0.000217822
-3.41344e-07
0.000223304
-4.08247e-07
0.00022785
-4.68245e-07
0.000231475
-5.27053e-07
0.000234313
-5.88593e-07
0.000236481
-6.59416e-07
0.0002381
0.000239286
-7.51628e-07
1.25867e-07
0.000163387
1.18555e-07
0.000189834
2.28319e-08
0.000202728
-6.03148e-08
0.000211212
-1.46305e-07
0.000217908
-2.10306e-07
0.000223368
-2.61685e-07
0.000227901
-2.78762e-07
0.000231492
-3.22129e-07
0.000234356
-3.39453e-07
0.000236498
-3.82697e-07
0.000238143
0.000239289
-3.86481e-07
1.73307e-07
0.000163213
1.65817e-07
0.000189841
1.19739e-07
0.000202774
3.18217e-08
0.000211299
-3.6472e-09
0.000217944
-5.34618e-08
0.000223418
-6.22963e-08
0.00022791
-9.23523e-08
0.000231522
-9.4367e-08
0.000234358
-1.28833e-07
0.000236532
-1.45888e-07
0.00023816
0.000239356
-2.12763e-07
1.83214e-07
0.00016303
2.23007e-07
0.000189801
1.69114e-07
0.000202828
1.2876e-07
0.00021134
1.03991e-07
0.000217968
9.88684e-08
0.000223423
7.88701e-08
0.00022793
9.16419e-08
0.00023151
1.03921e-07
0.000234346
1.13064e-07
0.000236523
9.17023e-08
0.000238181
0.000239341
1.06961e-07
2.07511e-07
0.000162823
2.46251e-07
0.000189763
2.63524e-07
0.000202811
2.44368e-07
0.000211359
2.12707e-07
0.000218
2.2348e-07
0.000223413
2.73382e-07
0.00022788
2.72928e-07
0.00023151
2.99393e-07
0.00023432
3.21157e-07
0.000236502
3.32811e-07
0.00023817
0.000239351
3.22365e-07
2.32415e-07
0.00016259
3.21091e-07
0.000189674
3.34789e-07
0.000202797
3.34456e-07
0.000211359
3.72257e-07
0.000217962
3.72773e-07
0.000223412
4.10693e-07
0.000227842
4.80192e-07
0.00023144
5.21038e-07
0.000234279
5.3002e-07
0.000236493
5.9547e-07
0.000238104
0.000239302
6.44505e-07
2.3959e-07
0.000162351
3.70388e-07
0.000189543
4.04644e-07
0.000202763
4.23281e-07
0.000211341
4.51326e-07
0.000217934
5.20731e-07
0.000223343
5.73029e-07
0.00022779
6.2838e-07
0.000231385
7.09531e-07
0.000234198
7.84575e-07
0.000236418
8.21064e-07
0.000238068
0.000239274
8.4939e-07
2.85013e-07
0.000162066
4.18265e-07
0.00018941
4.98503e-07
0.000202683
5.36902e-07
0.000211302
6.08422e-07
0.000217863
6.6718e-07
0.000223284
7.61629e-07
0.000227695
8.304e-07
0.000231316
8.94779e-07
0.000234133
9.50207e-07
0.000236362
1.01806e-06
0.000238
0.000239266
1.02627e-06
2.89275e-07
0.000161776
4.65762e-07
0.000189234
5.42885e-07
0.000202606
6.24592e-07
0.00021122
7.13022e-07
0.000217774
8.13995e-07
0.000223183
8.95484e-07
0.000227614
1.00647e-06
0.000231205
1.08619e-06
0.000234053
1.18837e-06
0.00023626
1.28648e-06
0.000237902
0.000239167
1.3855e-06
3.15964e-07
0.00016146
5.14475e-07
0.000189035
6.3624e-07
0.000202484
7.37366e-07
0.000211119
8.16215e-07
0.000217695
9.32838e-07
0.000223066
1.05692e-06
0.00022749
1.18269e-06
0.000231079
1.3044e-06
0.000233932
1.41967e-06
0.000236145
1.49605e-06
0.000237826
0.000239082
1.5811e-06
3.40553e-07
0.00016112
5.61434e-07
0.000188814
7.05333e-07
0.00020234
8.24233e-07
0.000211
9.46421e-07
0.000217573
1.07895e-06
0.000222934
1.2179e-06
0.000227351
1.35701e-06
0.00023094
1.493e-06
0.000233796
1.62044e-06
0.000236017
1.74178e-06
0.000237704
0.000238955
1.86898e-06
3.66349e-07
0.000160754
6.09844e-07
0.000188571
7.73329e-07
0.000202176
9.1128e-07
0.000210862
1.07648e-06
0.000217408
1.22374e-06
0.000222786
1.37717e-06
0.000227197
1.53044e-06
0.000230787
1.70571e-06
0.00023362
1.84435e-06
0.000235879
1.96982e-06
0.000237579
0.00023885
2.07459e-06
3.6959e-07
0.000160384
6.56356e-07
0.000188284
8.41459e-07
0.000201991
1.02377e-06
0.00021068
1.17899e-06
0.000217253
1.34212e-06
0.000222623
1.53733e-06
0.000227002
1.73215e-06
0.000230592
1.86529e-06
0.000233487
2.04559e-06
0.000235698
2.19091e-06
0.000237433
0.000238664
2.37635e-06
4.16712e-07
0.000159967
7.03466e-07
0.000187997
9.3425e-07
0.00020176
1.11049e-06
0.000210504
1.28349e-06
0.00021708
1.51595e-06
0.000222391
1.69882e-06
0.000226819
1.87884e-06
0.000230412
2.08059e-06
0.000233286
2.24177e-06
0.000235537
2.43384e-06
0.000237241
0.000238591
2.50778e-06
4.20943e-07
0.000159546
7.52809e-07
0.000187665
1.00404e-06
0.000201509
1.22326e-06
0.000210285
1.43977e-06
0.000216863
1.6083e-06
0.000222222
1.8324e-06
0.000226595
2.05748e-06
0.000230187
2.27481e-06
0.000233068
2.48676e-06
0.000235325
2.67126e-06
0.000237057
0.000238367
2.89488e-06
4.46725e-07
0.0001591
7.77548e-07
0.000187334
1.04817e-06
0.000201239
1.28619e-06
0.000210047
1.51897e-06
0.00021663
1.78306e-06
0.000221958
2.02394e-06
0.000226354
2.26231e-06
0.000229949
2.49715e-06
0.000232833
2.71974e-06
0.000235103
2.92824e-06
0.000236848
0.000238175
3.11977e-06
4.58873e-07
0.000158641
8.5082e-07
0.000186942
1.14294e-06
0.000200946
1.40006e-06
0.00020979
1.65147e-06
0.000216379
1.90315e-06
0.000221707
2.15818e-06
0.000226099
2.41096e-06
0.000229696
2.68341e-06
0.000232561
2.91886e-06
0.000234867
3.14298e-06
0.000236624
0.000237949
3.36932e-06
5.01471e-07
0.000158139
8.98955e-07
0.000186545
1.21328e-06
0.000200632
1.51475e-06
0.000209488
1.78063e-06
0.000216113
2.04928e-06
0.000221438
2.34601e-06
0.000225802
2.61223e-06
0.00022943
2.84226e-06
0.000232331
3.11601e-06
0.000234593
3.34281e-06
0.000236398
0.000237722
3.5696e-06
5.07524e-07
0.000157632
9.47815e-07
0.000186105
1.28134e-06
0.000200299
1.57679e-06
0.000209193
1.88652e-06
0.000215804
2.19714e-06
0.000221127
2.47973e-06
0.00022552
2.78734e-06
0.000229122
3.08689e-06
0.000232031
3.31979e-06
0.00023436
3.60135e-06
0.000236116
0.000237463
3.86076e-06
5.34106e-07
0.000157098
9.72544e-07
0.000185666
1.37832e-06
0.000199893
1.69163e-06
0.000208879
2.01904e-06
0.000215476
2.31734e-06
0.000220829
2.64482e-06
0.000225192
2.93889e-06
0.000228828
3.24949e-06
0.000231721
3.54828e-06
0.000234062
3.82653e-06
0.000235838
0.000237248
4.04152e-06
5.43724e-07
0.000156554
1.04663e-06
0.000185163
1.42388e-06
0.000199516
1.78202e-06
0.000208521
2.12656e-06
0.000215132
2.46863e-06
0.000220487
2.80973e-06
0.000224851
3.14389e-06
0.000228494
3.44458e-06
0.00023142
3.78549e-06
0.000233721
4.0636e-06
0.00023556
0.000236918
4.39338e-06
5.728e-07
0.000155981
1.07594e-06
0.00018466
1.49574e-06
0.000199096
1.90031e-06
0.000208117
2.23466e-06
0.000214797
2.62116e-06
0.000220101
2.94851e-06
0.000224524
3.29311e-06
0.000228149
3.67509e-06
0.000231038
3.97018e-06
0.000233426
4.29955e-06
0.00023523
0.000236681
4.53651e-06
6.08346e-07
0.000155373
1.12825e-06
0.00018414
1.58975e-06
0.000198634
1.97426e-06
0.000207732
2.37339e-06
0.000214398
2.74006e-06
0.000219734
3.12586e-06
0.000224138
3.51832e-06
0.000227757
3.8524e-06
0.000230704
4.21425e-06
0.000233064
4.54654e-06
0.000234898
0.000236317
4.91044e-06
6.16357e-07
0.000154756
1.16649e-06
0.00018359
1.6504e-06
0.00019815
2.07054e-06
0.000207312
2.48692e-06
0.000213982
2.87558e-06
0.000219345
3.28773e-06
0.000223726
3.66543e-06
0.000227379
4.05983e-06
0.000230309
4.44045e-06
0.000232683
4.77027e-06
0.000234568
0.000236005
5.08277e-06
6.39613e-07
0.000154117
1.22678e-06
0.000183003
1.71545e-06
0.000197662
2.19669e-06
0.000206831
2.61436e-06
0.000213564
3.04188e-06
0.000218918
3.44726e-06
0.00022332
3.88982e-06
0.000226936
4.24384e-06
0.000229955
4.64053e-06
0.000232287
5.02559e-06
0.000234183
0.000235613
5.41766e-06
6.61654e-07
0.000153455
1.27375e-06
0.000182391
1.80161e-06
0.000197134
2.2588e-06
0.000206374
2.71265e-06
0.00021311
3.18718e-06
0.000218443
3.60267e-06
0.000222905
4.03824e-06
0.000226501
4.46162e-06
0.000229532
4.87129e-06
0.000231877
5.25439e-06
0.0002338
0.000235289
5.57847e-06
7.00831e-07
0.000152754
1.31362e-06
0.000181778
1.89018e-06
0.000196558
2.38877e-06
0.000205875
2.83984e-06
0.000212659
3.30518e-06
0.000217978
3.78763e-06
0.000222422
4.23846e-06
0.00022605
4.67698e-06
0.000229093
5.10302e-06
0.000231451
5.51843e-06
0.000233385
0.000234866
5.94164e-06
6.81811e-07
0.000152073
1.37912e-06
0.000181081
1.95328e-06
0.000195983
2.4732e-06
0.000205355
2.99131e-06
0.000212141
3.44736e-06
0.000217522
3.94822e-06
0.000221921
4.4137e-06
0.000225584
4.89172e-06
0.000228615
5.30343e-06
0.000231039
5.74843e-06
0.00023294
0.000234479
6.13462e-06
7.52956e-07
0.00015132
1.39286e-06
0.000180441
1.99154e-06
0.000195385
2.55646e-06
0.000204791
3.09376e-06
0.000211604
3.6182e-06
0.000216997
4.10805e-06
0.000221431
4.58754e-06
0.000225105
5.08081e-06
0.000228122
5.55544e-06
0.000230565
5.98302e-06
0.000232512
0.000234077
6.38548e-06
7.4163e-07
0.000150578
1.50958e-06
0.000179673
2.13118e-06
0.000194763
2.71818e-06
0.000204204
3.24963e-06
0.000211072
3.79165e-06
0.000216455
4.29768e-06
0.000220925
4.81978e-06
0.000224583
5.3014e-06
0.00022764
5.79475e-06
0.000230071
6.24607e-06
0.000232061
0.000233578
6.74528e-06
7.64729e-07
0.000149813
1.506e-06
0.000178932
2.16939e-06
0.0001941
2.75094e-06
0.000203622
3.35368e-06
0.00021047
3.88653e-06
0.000215922
4.4611e-06
0.000220351
4.97161e-06
0.000224072
5.49477e-06
0.000227117
5.97252e-06
0.000229593
6.45218e-06
0.000231581
0.000233146
6.88367e-06
8.23691e-07
0.00014899
1.57516e-06
0.000178181
2.26403e-06
0.000193411
2.89152e-06
0.000202995
3.45717e-06
0.000209904
4.06324e-06
0.000215316
4.60179e-06
0.000219812
5.15478e-06
0.000223519
5.7208e-06
0.000226551
6.24395e-06
0.00022907
6.7839e-06
0.000231042
0.000232663
7.26737e-06
8.23057e-07
0.000148167
1.6146e-06
0.000177389
2.32681e-06
0.000192699
3.0065e-06
0.000202315
3.62047e-06
0.00020929
4.21124e-06
0.000214725
4.82421e-06
0.000219199
5.39337e-06
0.00022295
5.92e-06
0.000226025
6.45382e-06
0.000228537
6.96053e-06
0.000230535
0.000232181
7.44288e-06
8.18416e-07
0.000147349
1.6608e-06
0.000176547
2.41927e-06
0.000191941
3.09205e-06
0.000201642
3.75113e-06
0.000208631
4.37044e-06
0.000214105
4.96429e-06
0.000218605
5.54967e-06
0.000222364
6.15131e-06
0.000225423
6.72964e-06
0.000227958
7.26551e-06
0.000229999
0.000231642
7.80398e-06
8.81893e-07
0.000146467
1.72773e-06
0.000175701
2.48947e-06
0.000191179
3.20894e-06
0.000200922
3.86327e-06
0.000207976
4.52138e-06
0.000213447
5.13796e-06
0.000217988
5.79939e-06
0.000221703
6.35273e-06
0.00022487
6.95081e-06
0.00022736
7.5143e-06
0.000229436
0.000231164
7.99277e-06
8.94083e-07
0.000145574
1.76922e-06
0.000174826
2.58572e-06
0.000190362
3.29484e-06
0.000200213
4.00313e-06
0.000207268
4.68011e-06
0.00021277
5.31441e-06
0.000217354
5.9611e-06
0.000221056
6.62487e-06
0.000224206
7.20451e-06
0.000226781
7.77801e-06
0.000228862
0.000230535
8.40649e-06
9.11567e-07
0.000144662
1.85035e-06
0.000173888
2.6505e-06
0.000189562
3.42378e-06
0.00019944
4.14498e-06
0.000206546
4.84116e-06
0.000212074
5.51901e-06
0.000216676
6.15626e-06
0.000220419
6.82958e-06
0.000223533
7.46384e-06
0.000226146
8.06841e-06
0.000228257
0.000230005
8.59869e-06
9.43222e-07
0.00014372
1.86817e-06
0.000172963
2.75782e-06
0.000188673
3.54579e-06
0.000198651
4.31312e-06
0.000205779
4.96781e-06
0.000211419
5.69905e-06
0.000215945
6.37814e-06
0.00021974
7.03797e-06
0.000222873
7.67434e-06
0.00022551
8.28098e-06
0.000227651
0.000229369
8.91611e-06
9.62445e-07
0.000142757
1.91674e-06
0.000172009
2.82199e-06
0.000187767
3.63364e-06
0.00019784
4.39781e-06
0.000205014
5.16822e-06
0.000210648
5.88265e-06
0.00021523
6.60479e-06
0.000219018
7.25443e-06
0.000222224
7.93383e-06
0.000224831
8.55926e-06
0.000227025
0.000228788
9.14042e-06
9.89012e-07
0.000141769
1.98813e-06
0.00017101
2.89844e-06
0.000186857
3.75771e-06
0.00019698
4.5573e-06
0.000204214
5.3374e-06
0.000209868
6.09689e-06
0.000214471
6.8124e-06
0.000218303
7.53472e-06
0.000221501
8.18386e-06
0.000224182
8.90724e-06
0.000226301
0.000228135
9.55945e-06
1.01774e-06
0.000140752
2.04082e-06
0.000169988
2.97652e-06
0.000185921
3.89807e-06
0.000196058
4.69435e-06
0.000203417
5.47104e-06
0.000209091
6.2886e-06
0.000213654
7.02218e-06
0.00021757
7.73509e-06
0.000220789
8.47674e-06
0.00022344
9.13289e-06
0.000225645
0.00022754
9.72671e-06
1.05078e-06
0.000139701
2.09981e-06
0.000168939
3.11628e-06
0.000184905
3.96558e-06
0.000195208
4.82194e-06
0.000202561
5.68315e-06
0.00020823
6.41773e-06
0.000212919
7.26123e-06
0.000216727
8.01824e-06
0.000220033
8.76571e-06
0.000222693
9.4424e-06
0.000224968
0.000226814
1.0168e-05
1.06954e-06
0.000138632
2.1561e-06
0.000167853
3.18238e-06
0.000183878
4.09537e-06
0.000194295
5.01497e-06
0.00020164
5.82018e-06
0.000207425
6.67914e-06
0.000212061
7.45056e-06
0.000215956
8.22347e-06
0.00021926
8.97006e-06
0.000221946
9.67658e-06
0.000224261
0.000226137
1.03524e-05
1.09437e-06
0.000137538
2.20771e-06
0.000166739
3.24171e-06
0.000182845
4.26589e-06
0.00019327
5.13216e-06
0.000200774
6.03962e-06
0.000206517
6.87994e-06
0.000211221
7.65553e-06
0.000215181
8.4892e-06
0.000218427
9.25687e-06
0.000221178
1.00394e-05
0.000223477
0.000225465
1.07103e-05
1.1183e-06
0.000136419
2.26487e-06
0.000165593
3.34633e-06
0.000181763
4.33768e-06
0.00019228
5.30834e-06
0.000199803
6.22349e-06
0.000205603
7.08536e-06
0.00021036
7.92197e-06
0.000214345
8.73592e-06
0.000217613
9.55054e-06
0.000220363
1.03101e-05
0.000222716
0.000224714
1.106e-05
1.14481e-06
0.000135273
2.35794e-06
0.000164379
3.46569e-06
0.000180656
4.49118e-06
0.000191254
5.47187e-06
0.000198824
6.38552e-06
0.00020469
7.29352e-06
0.000209453
8.19309e-06
0.000213447
9.05052e-06
0.000216756
9.85517e-06
0.000219558
1.06595e-05
0.000221911
0.000223938
1.14334e-05
1.17034e-06
0.000134102
2.37859e-06
0.000163171
3.519e-06
0.000179515
4.58875e-06
0.000190186
5.57088e-06
0.000197842
6.57529e-06
0.000203686
7.47888e-06
0.00020855
8.37896e-06
0.000212547
9.25091e-06
0.000215885
1.00619e-05
0.000218747
1.08451e-05
0.000221126
0.000223244
1.15368e-05
1.19293e-06
0.000132906
2.43526e-06
0.000161927
3.65233e-06
0.000178299
4.74876e-06
0.00018909
5.78228e-06
0.00019681
6.74495e-06
0.000202725
7.69565e-06
0.000207601
8.64324e-06
0.000211601
9.55735e-06
0.000214971
1.04259e-05
0.000217878
1.12528e-05
0.000220297
0.000222359
1.21357e-05
1.25378e-06
0.00013165
2.52849e-06
0.000160651
3.74242e-06
0.000177085
4.86988e-06
0.000187965
5.93095e-06
0.000195751
6.9436e-06
0.000201714
7.94316e-06
0.000206603
8.90743e-06
0.000210636
9.77916e-06
0.0002141
1.07103e-05
0.000216946
1.15556e-05
0.00021945
0.000221532
1.238e-05
1.23526e-06
0.00013041
2.5847e-06
0.0001593
3.8326e-06
0.000175838
4.99991e-06
0.000186799
6.15178e-06
0.000194603
7.14598e-06
0.000200723
8.16526e-06
0.000205584
9.15696e-06
0.000209646
1.00916e-05
0.000213164
1.09965e-05
0.00021604
1.18971e-05
0.000218547
0.000220653
1.27733e-05
1.29995e-06
0.000129106
2.64077e-06
0.000157956
3.92683e-06
0.000174552
5.1705e-06
0.000185559
6.23986e-06
0.000193538
7.37361e-06
0.000199591
8.42159e-06
0.000204538
9.38424e-06
0.000208681
1.0365e-05
0.000212182
1.13136e-05
0.00021509
1.22146e-05
0.000217645
0.000219823
1.30436e-05
1.31403e-06
0.000127785
2.69558e-06
0.000156572
4.01769e-06
0.000173231
5.25552e-06
0.000184325
6.47004e-06
0.000192327
7.56136e-06
0.000198504
8.63279e-06
0.000203466
9.66971e-06
0.000207644
1.06969e-05
0.000211154
1.16467e-05
0.000214139
1.25993e-05
0.00021669
0.000218859
1.35622e-05
1.3663e-06
0.000126413
2.78925e-06
0.000155145
4.15455e-06
0.000171866
5.43182e-06
0.000183052
6.6308e-06
0.000191133
7.77571e-06
0.000197361
8.89766e-06
0.000202345
9.95768e-06
0.000206584
1.09842e-05
0.000210127
1.19746e-05
0.000213148
1.2919e-05
0.000215744
0.000218024
1.37523e-05
1.35945e-06
0.000125047
2.84978e-06
0.000153651
4.25037e-06
0.000170467
5.56516e-06
0.000181741
6.84734e-06
0.000189855
8.019e-06
0.000196193
9.09529e-06
0.000201269
1.02304e-05
0.00020545
1.12548e-05
0.000209102
1.227e-05
0.000212132
1.32553e-05
0.000214757
0.000216986
1.42911e-05
1.45222e-06
0.000123588
2.90778e-06
0.000152192
4.34831e-06
0.000169027
5.7481e-06
0.000180345
6.97374e-06
0.000188635
8.22434e-06
0.000194944
9.37363e-06
0.000200124
1.04841e-05
0.000204339
1.15837e-05
0.000208005
1.26683e-05
0.000211046
1.36549e-05
0.000213769
0.000216115
1.45244e-05
1.43816e-06
0.000122143
3.00722e-06
0.000150618
4.49149e-06
0.000167543
5.88517e-06
0.000178955
7.24102e-06
0.000187283
8.43739e-06
0.000193753
9.68161e-06
0.000198881
1.08217e-05
0.000203203
1.19209e-05
0.000206906
1.29862e-05