/*--------------------------------*- C++ -*----------------------------------*\
| =========                 |                                                 |
| \\      /  F ield         | OpenFOAM: The Open Source CFD Toolbox           |
|  \\    /   O peration     | Version:  2.3.1                                 |
|   \\  /    A nd           | Web:      www.OpenFOAM.org                      |
|    \\/     M anipulation  |                                                 |
\*---------------------------------------------------------------------------*/
FoamFile
{
    version     2.0;
    format      ascii;
    class       volSymmTensorField;
    location    "3420";
    object      sigma;
}
// * * * * * * * * * * * * * * * * * * * * * * * * * * * * * * * * * * * * * //

dimensions      [1 -1 -2 0 0 0 0];

internalField   nonuniform List<symmTensor> 
11800
(
(140804 72658.3 6.78739e-14 -2685.67 3.59576e-14 34270)
(-70244.1 64807.6 1.04194e-13 -757.875 3.3048e-14 -17617)
(635364 91384 -1.71732e-15 1397.62 -7.54122e-14 157993)
(-552484 47691.5 0 -1301.62 0 -137406)
(-72708.2 62499.3 1.944e-14 -5302.94 -5.49317e-14 -19356.2)
(-345808 94627.6 7.54083e-14 2301.04 3.95583e-14 -85231)
(-64119.7 91326.5 1.42604e-13 -597.636 -3.70866e-14 -16057.7)
(-90319.2 94366.4 -2.12363e-14 930.599 8.54513e-14 -22179.1)
(195814 49496.8 2.83872e-14 452.127 -1.93918e-14 48697.5)
(133327 99129.5 -7.31479e-14 582.332 -6.16214e-14 33225.6)
(162620 60304.4 -5.66213e-14 1570.56 4.84737e-14 40739)
(-801184 34860.8 -6.77138e-14 -6068.48 -3.07275e-14 -200296)
(22686.7 -32963.4 1.23034e-16 -61166 9.56136e-17 -9547.5)
(588645 48102.6 6.14034e-14 3656.25 -1.68071e-14 146962)
(-471087 88596.7 -5.12097e-14 6250.07 3.98149e-14 -115336)
(2.19064e+06 -7242.7 0 -7375.51 0 541712)
(-41923 72018.1 4.8258e-14 3913.82 4.25613e-15 -9430.85)
(-64626 66142.6 -2.72311e-14 7866.39 1.56415e-13 -14083.2)
(135355 112333 -2.78498e-14 -17484.9 1.98018e-14 29246)
(101475 60341.9 -9.73509e-14 -11274.4 -3.14919e-14 22380.7)
(-434212 54066.2 3.03249e-14 -1428.15 3.17833e-14 -108091)
(-700723 83327.3 4.85153e-14 3514.73 -2.82118e-14 -172991)
(-924715 107247 -2.45558e-14 11717.2 1.58022e-14 -226533)
(-848561 62578 2.47678e-16 510.28 4.27008e-15 -210419)
(1.78655e+06 79407 3.0594e-15 -8163.33 3.55373e-14 441254)
(-1.10251e+06 106790 -2.41066e-14 8182.15 -6.88961e-16 -271525)
(-1.16049e+06 56175.2 0 10310.9 0 -285383)
(572727 42612.6 -8.0419e-14 -5378.05 -4.85713e-14 140771)
(-1.26518e+06 57420.7 -1.39119e-14 11423.7 -6.6791e-14 -311083)
(-1.37047e+06 58115.2 1.8511e-14 13390 -2.87979e-14 -336719)
(376482 45164.9 -9.96565e-14 -1922.05 -1.78625e-13 92935.8)
(75176.1 59007.4 -1.60745e-14 2596.42 -1.32977e-14 19296.9)
(1.12346e+06 102840 -3.93191e-15 12864.8 -1.72239e-14 281945)
(-27938.2 76860.5 1.30339e-14 -1766.86 -9.76014e-14 -7370.43)
(19370.5 81103.4 -3.44683e-14 2468.87 -1.47974e-13 5418.78)
(-367845 34176.8 -9.04883e-14 -510.603 -6.57415e-14 -91396.4)
(21210 82094.9 1.22421e-13 1783.25 -1.4561e-13 5705.08)
(1.20434e+06 59980.1 -1.44418e-14 6432.75 -6.18665e-14 300417)
(-43629.5 79282.1 0 -1786.46 0 -11268.6)
(96993.5 74317.8 -4.22316e-14 5621.03 7.86746e-14 25460.7)
(-1.21941e+06 42166.5 -7.50561e-14 -6130.75 -3.48902e-14 -304082)
(-1.32934e+06 41783.8 5.37776e-14 -6498.19 -3.08623e-14 -331449)
(601899 56810.3 -3.10121e-14 -1026.51 -1.03255e-13 149089)
(-1.43983e+06 42202.1 -1.0259e-14 -4859.24 -5.46295e-14 -358457)
(395704 56339.4 2.64891e-13 1220.35 -8.26398e-14 98485.1)
(2.04836e+06 50620.4 0 -7254.93 0 506440)
(885294 117254 -1.55226e-14 -3395.08 8.13373e-15 218817)
(1.05476e+06 43310.7 -2.73922e-14 -11492.4 -1.90375e-14 258855)
(-101760 82017.6 -1.05015e-13 277.788 -6.47071e-14 -25179.9)
(233947 78506.6 0 2241.56 0 58603.3)
(-831150 47012.4 -5.07878e-15 2536.73 5.38857e-14 -205596)
(-582474 44254 1.76076e-13 3424.37 2.06343e-14 -143674)
(-11945.2 80333.3 9.87337e-14 824.78 6.14828e-14 -2759.2)
(43066.9 128641 -2.15811e-15 8086.05 1.88097e-14 12692.1)
(-2.35438e+06 4989.48 -3.31547e-15 -12237.6 -5.17227e-15 -587207)
(1.84961e+06 -82209.2 4.43693e-15 -84691.2 7.85398e-15 437912)
(-63029.5 21146 8.50023e-14 1867.97 3.15693e-14 -15175.4)
(-522649 93145.7 6.34327e-15 -5762.9 -5.26879e-14 -131110)
(418995 59347.1 -5.36555e-14 8754.93 7.85859e-14 106133)
(-370151 97827 4.39973e-14 -7134.36 -7.94319e-15 -93612.1)
(1.91166e+06 21448.2 -3.88757e-14 -14495.7 -1.34723e-14 470724)
(-50900.7 84370.6 4.17889e-14 815.62 -6.80152e-14 -12427.1)
(-411864 76465.2 -2.41391e-14 -2708.18 4.15061e-14 -102864)
(329121 76697.5 7.32375e-14 3079.46 -4.17803e-14 82425.8)
(1.76412e+06 12558.5 4.25359e-15 -914.91 -2.56297e-14 437488)
(-256558 33607.8 -1.19566e-13 2151.11 -1.44505e-13 -63123.4)
(-857346 20812.4 8.41162e-14 4456.35 2.80489e-14 -211619)
(-607312 23870.6 2.43983e-15 3963.15 -1.47679e-13 -149703)
(-65268.1 22702.9 0 -3389.41 0 -17035.3)
(-1.0279e+06 59454.5 -1.90474e-15 10821.4 6.30956e-14 -252359)
(-22215.9 81818.8 -2.39527e-14 123.338 4.94551e-14 -5481.61)
(-51187.5 64221.9 -9.22759e-14 -3225.25 1.0324e-13 -13500.9)
(-44970.5 62773.5 6.47176e-14 -1836.14 -3.96128e-14 -11613.7)
(-1.55799e+06 338718 -5.57036e-15 192959 5.03718e-15 -338692)
(1.89538e+06 69142.4 -1.49769e-15 -6550.04 -1.54675e-14 468656)
(-345702 51477.3 -8.89023e-14 3737.26 -6.46634e-14 -84848.3)
(1.84739e+06 13168.8 -3.26215e-14 3935.34 2.90289e-14 459350)
(-249288 20939.8 7.86039e-14 -63.9992 -2.57917e-13 -61869.3)
(-184838 43292.8 1.47823e-14 411.669 -1.41073e-14 -45760)
(-174894 56503.5 1.50922e-13 2460.56 1.51349e-13 -42784.1)
(-2.37288e+06 -45553.7 1.20325e-14 10306.7 5.62916e-14 -586202)
(103318 54818.2 0 8637.79 0 27778.6)
(55355.5 66286.5 -1.569e-13 1693.88 -6.18243e-14 14155.1)
(38341.6 70727.9 5.43979e-14 1320.88 -4.29057e-16 9841.08)
(-81414.4 62866.4 3.7226e-14 -8461.59 1.05349e-13 -22300)
(-1.33515e+06 70700.9 -2.07491e-14 -6964.79 1.04787e-13 -333006)
(407971 51503.5 1.26611e-13 4224.79 -3.93818e-14 102274)
(-1.22961e+06 68790.1 0 -6977.57 0 -306823)
(-1.12621e+06 67371.1 -4.36491e-14 -6185.65 -4.46893e-14 -280971)
(604875 48579.9 5.8006e-14 5327.75 3.54431e-15 151404)
(-12848.8 79687.9 -2.04558e-13 -2870.01 -1.312e-13 -3900.15)
(1.32932e+06 94942.9 0 -4410.31 0 328737)
(-109362 69976.2 -4.33992e-14 1864.86 -7.19581e-14 -26672.1)
(69139.3 16779.2 -2.50224e-14 4705.86 -3.63139e-14 18322.5)
(165705 70350.1 1.92013e-13 1409.51 3.43622e-15 41464.5)
(52490.3 -39587.8 -7.83095e-16 -111509 -5.80528e-16 -14643.6)
(-2782.85 10887.5 2.03904e-17 6538.58 -1.21285e-16 931.874)
(-52992.3 -39343.3 -4.95637e-16 111231 3.30236e-16 14450.2)
(-12873.6 81062.4 -6.35972e-14 -1.89152 -9.25332e-16 -3194.66)
(-698045 52487.2 -1.55981e-14 -2740.49 6.22293e-14 -173879)
(49197.7 38340.2 3.49528e-14 -125.77 -9.77754e-14 12175.7)
(760524 59322.7 -7.55677e-14 -7026.76 -1.04547e-13 186958)
(-1.26068e+06 107441 5.07542e-15 -553.223 1.03287e-14 -312938)
(-413959 73389.4 -3.13412e-15 6520.07 9.89641e-15 -101094)
(-1484.87 86358.4 -9.814e-15 -787.954 -4.88294e-14 -563.935)
(327571 98040.5 -2.02875e-14 2317.8 -3.50841e-14 81852.1)
(-155933 71512.5 -6.00777e-14 -625.898 1.32461e-13 -38845.4)
(-109242 74940.9 -2.03559e-13 -703.977 -9.81704e-14 -27279.7)
(1.88234e+06 20580.1 1.14553e-14 5144.74 2.3886e-14 468323)
(1.23904e+06 58754.1 1.8657e-14 4417.02 3.79321e-15 308527)
(1.34596e+06 60222.8 3.57509e-14 5163.98 4.97823e-14 335240)
(1.13531e+06 57862.2 1.30829e-13 4066.9 7.75211e-14 282702)
(-413059 53008.9 5.93263e-14 -3953.18 9.2647e-14 -103469)
(-612130 51819.2 -1.56906e-13 -4463.17 5.64073e-14 -152989)
(221266 64431.1 6.69398e-14 -101.947 -3.50894e-14 54875.3)
(1.69495e+06 35189.7 1.72615e-14 141.551 1.0179e-14 420586)
(238376 31092 -4.88864e-14 -3069.26 -1.92199e-13 58384.4)
(-75263.4 75411.4 -1.69523e-13 958.618 1.58511e-13 -18436.5)
(1.58738e+06 74340.1 -1.97965e-14 1141.81 2.46619e-14 394145)
(-135556 102731 -5.49244e-14 -140.215 -1.47822e-14 -33669)
(-211744 43631.8 -3.77597e-14 3695.47 -1.58997e-14 -51621)
(65881 91378.7 1.21337e-13 -2677.11 -1.73704e-13 15682.2)
(93873.2 96841.6 -8.4555e-14 -1870.95 5.81557e-14 22827.6)
(-66941.6 75145 -2.46082e-14 3384.57 -3.63039e-14 -15769.8)
(-115196 66289.8 -1.54363e-13 -927.698 -1.20455e-13 -28812.7)
(-2878.67 79858.7 -1.48363e-13 -2506.86 -1.1164e-13 -1336.26)
(-35712.3 79252.9 -8.89459e-14 -1331.3 9.77214e-14 -9191.27)
(-7805.54 80987.2 -5.81477e-14 -2090.83 -5.5417e-14 -2455.49)
(9020.04 55823 2.76437e-15 38595.1 1.23817e-13 11814.3)
(-36674.4 6890.76 -4.10688e-16 -8462.21 5.88532e-14 -11199.3)
(-1.99936e+06 -322209 1.79631e-14 82057.5 -9.0727e-15 -475722)
(-1.43988e+06 72122.9 1.29499e-14 -10830.2 -1.97398e-15 -359951)
(445686 47022.5 6.699e-14 3761.72 -6.53343e-14 111517)
(-1.33126e+06 73339.8 -5.16942e-14 705.095 3.24604e-14 -330137)
(645638 43022.6 -3.01752e-14 4265.87 9.13913e-14 161254)
(-1.22313e+06 70435.6 1.97247e-14 871.097 1.98156e-14 -303268)
(-1.11866e+06 68407.6 -1.13711e-13 1446.86 8.68868e-14 -277204)
(370944 65781.8 6.56093e-14 -4336.15 1.8284e-13 90962.8)
(-1.13864e+06 29699.3 7.06114e-14 7478.18 -9.70826e-14 -280664)
(541067 68580.8 8.1411e-14 -5325.76 -6.4821e-14 132928)
(-1.04688e+06 30473.5 5.84737e-14 6632.48 -1.00702e-13 -258107)
(-957961 32101.8 -6.06324e-14 6637.57 -5.45845e-14 -236043)
(-537000 89590.5 4.54328e-15 16899.8 4.56089e-14 -129048)
(163595 75577.1 -3.27559e-14 -5772.88 -2.18167e-13 39158.9)
(233775 72986.9 -5.23515e-14 -7407.07 -1.51258e-13 56166.5)
(-341747 71304.7 -1.57534e-14 10757.5 9.07691e-14 -82125.2)
(1.37993e+06 45037 -9.98378e-14 1765.46 -3.36749e-14 342826)
(-1.42443e+06 -18013.8 9.6005e-14 -11367.2 2.96836e-14 -356251)
(800753 43779 6.75627e-14 -2522.34 -6.29264e-14 198057)
(-410440 44451.8 1.50873e-15 7466.05 8.9581e-15 -99986.1)
(-187635 72179.2 -8.49398e-14 2313.67 -7.01861e-14 -45981.9)
(-196597 60197.5 7.26914e-14 -2411.13 -6.5766e-14 -49378.1)
(20680.8 80496.3 5.52588e-14 1567.38 1.00935e-13 5520.22)
(-279081 52521.5 -1.24272e-13 -469.727 1.28873e-13 -69362.2)
(239117 62890.6 -6.51492e-14 -4542.64 -6.88387e-14 58202.6)
(162040 71933.4 -5.97081e-14 2456.62 4.60235e-14 40815)
(-518129 58819.6 1.01061e-13 7493.82 -6.80294e-14 -126699)
(-725031 64845.8 3.67344e-14 3091.18 8.03747e-14 -179128)
(1.47344e+06 20625.1 2.26998e-14 1715.66 -3.04277e-16 366015)
(-6704.08 84423.6 2.90083e-14 -488.535 -1.411e-13 -1784.63)
(2.1419e+06 78798.6 -2.64685e-14 -13248.6 -1.44237e-14 528160)
(-229771 64831.4 -1.07342e-13 1141.07 7.39657e-14 -56727.7)
(1.85912e+06 50687.8 0 -18808.8 0 456619)
(-531044 65436.7 3.15974e-14 -5178.64 1.31884e-13 -133048)
(-579988 65627.5 -3.23949e-14 -5950.73 3.84322e-14 -145383)
(-629319 66981.1 -5.23352e-15 -6399.11 1.39017e-13 -157735)
(291877 72425.1 -7.95689e-14 914.194 1.95711e-14 72647.3)
(198377 74486.4 -8.4891e-14 437.02 2.09596e-14 49329.7)
(-2.33294e+06 -18408.3 2.09929e-14 -9100.59 -1.19735e-14 -581108)
(-1.44743e+06 70308 -2.15674e-14 -8367.62 4.06812e-14 -361213)
(507041 50685.9 -8.47359e-14 4891.51 -4.95918e-14 127021)
(703723 47368.4 2.38029e-13 5549.86 -1.27935e-13 175985)
(79236.8 80439.7 4.65898e-14 -7847.2 -1.20459e-13 17713.2)
(-414295 37049.8 0 1693.74 0 -102375)
(-419985 20991.7 1.27424e-13 -2267.46 -6.47789e-14 -104769)
(2.0417e+06 55715.9 3.43497e-14 -14749.1 2.29142e-14 502927)
(2.09019e+06 -12410.5 2.84699e-14 13028.3 2.51629e-14 521851)
(1.0958e+06 24458.5 1.72796e-15 -1032.95 6.01412e-14 271634)
(1.00513e+06 26470.1 1.22622e-14 -665.865 1.45985e-13 249227)
(1.18939e+06 22430.7 3.10918e-14 -2056.76 -4.49357e-14 294601)
(-516878 70314.4 -7.68606e-14 4390.27 6.91584e-14 -127159)
(-343512 66792.2 -7.45714e-14 3224.95 8.17921e-14 -84432.1)
(225017 93433.5 0 1875.72 0 56296.7)
(153280 91129.1 -3.10257e-15 828.229 1.18566e-13 38237.3)
(490739 70334.5 -9.13873e-14 -253.985 7.47239e-14 121699)
(-207413 66582.4 -7.30804e-14 2521.25 1.73283e-13 -50837.8)
(-325040 99935.4 -1.44965e-14 4173.91 6.41068e-14 -79613.3)
(100168 73495.6 -2.71662e-13 -836.559 -7.20904e-14 24646.3)
(142525 69614.6 -1.879e-13 -995.748 7.86207e-14 35116.4)
(-88126.2 83799.1 -3.66294e-14 2142.39 -5.12169e-16 -21334.3)
(-246978 55781.6 -3.03382e-14 5200.45 -1.89449e-14 -59990)
(-226754 56693.8 2.00397e-14 4560.82 -3.42192e-14 -55130.5)
(-229195 42389.4 0 -505.719 0 -56993.3)
(-110186 103642 4.16986e-16 -4801.22 -3.9814e-14 -28530.8)
(-1.05067e+06 3809.38 8.90199e-14 -6708.7 -3.89797e-14 -262357)
(1.31945e+06 53590.8 -1.15726e-13 -6029.88 -1.16458e-14 325887)
(1.63622e+06 170342 6.90263e-15 -282487 3.4924e-15 335888)
(-39010.1 71176.1 2.42589e-14 -3348.16 -5.49893e-14 -10509.9)
(248916 25349.6 8.85236e-14 2121.67 -2.02114e-13 62287.5)
(-2.05086e+06 -254688 1.72546e-14 166585 -1.11712e-14 -467526)
(115763 56818.8 3.78852e-15 3757.4 1.02719e-13 29655.4)
(316419 39940.8 7.14677e-14 1242.49 -8.2046e-14 78818.2)
(349499 43655.5 9.979e-14 -5163.78 -4.21047e-14 85436.4)
(-4475.04 83532.3 7.5164e-14 -87.8308 -1.11482e-14 -1132.14)
(-5121 86302.7 7.92858e-14 -632.671 6.70519e-15 -1427.6)
(955392 32782.2 2.53408e-14 -4866.66 8.43407e-14 235845)
(791948 89221.7 3.22294e-14 6991.93 -7.77364e-15 198233)
(-719825 74241.9 0 6924 0 -176885)
(-615442 40544.6 -8.19763e-14 -9597.8 -5.12789e-14 -155085)
(1.99345e+06 -325523 -7.23938e-15 -84039.2 -4.895e-15 473764)
(-609347 115363 -6.57183e-15 16948 7.67177e-14 -146986)
(-975503 39977.3 4.52714e-14 -2113.12 -2.66963e-14 -242566)
(-2.07907e+06 -837192 -1.94857e-14 436059 7.61855e-15 -407664)
(2.48075e+06 2076.08 0 33972.5 0 623954)
(-1.82084e+06 -775440 -6.34126e-15 205337 1.96064e-15 -400838)
(317658 115054 -4.31424e-14 -166.721 1.52192e-14 78776)
(-71260.8 68124.8 -7.66702e-15 -1332.47 1.07209e-13 -18011.9)
(-934092 84130.9 3.82258e-14 -7814.79 -4.20509e-14 -233706)
(-853628 83897 5.69536e-14 -6916.84 -7.10849e-15 -213519)
(-782194 81756.6 -6.49501e-14 -6224.13 2.51986e-15 -195623)
(278240 59685.5 5.68747e-14 3806.48 -1.58686e-13 69981.4)
(417108 56571.6 -1.42762e-13 4714.47 1.38791e-13 104663)
(41295.5 72656.5 -2.24425e-14 -7525.04 1.05332e-13 8379.13)
(58725.5 67999.3 5.31321e-14 -10091.2 6.80665e-14 12067.2)
(-135072 108982 -6.06713e-14 22303.6 1.64208e-14 -27980.1)
(-85552 63652.4 4.52084e-14 14675.7 -5.78258e-14 -17585.8)
(-1.14022e+06 -458996 -4.91286e-15 -28669.2 1.02527e-15 -290025)
(210979 109947 -3.44538e-14 16031.8 -1.22145e-13 56325.9)
(-104680 65389.3 -1.1865e-13 -8432.72 -5.42416e-14 -28065.5)
(-491628 102418 0 4.95517 0 -121982)
(210601 61479.6 9.13745e-14 1038.58 -3.73078e-14 52512)
(-103631 88461.1 0 -579.911 0 -25856.9)
(-77831.6 71515.3 -5.77255e-14 -723.011 -9.14379e-14 -19491)
(733309 73369.5 8.08509e-14 4153.29 -8.45502e-14 182979)
(753516 46656.9 1.23749e-13 -93.3227 5.91041e-14 186939)
(2.07599e+06 -836119 -7.28792e-15 -435521 -2.4087e-15 407033)
(1.13826e+06 -458699 8.51578e-15 28640.7 2.33272e-15 289533)
(-230139 52292.7 1.75971e-14 1722.64 2.50426e-14 -56674.8)
(-245769 53369.7 -5.34592e-14 -2780.51 -1.09322e-13 -61670.1)
(-1.30746e+06 1412.72 -5.88582e-14 -5160.52 -1.34911e-14 -325687)
(1.05946e+06 50212.5 1.3325e-13 -3788.78 -3.48182e-14 261934)
(343566 67720.4 4.40988e-15 -2759.16 2.42177e-13 84561.2)
(516096 72141.9 8.22731e-14 -3570.53 8.94589e-14 127168)
(-1.19152e+06 22781.1 -2.15408e-15 -729.911 5.11684e-14 -295823)
(-1.10034e+06 26316.2 -5.20086e-14 -847.062 1.71968e-14 -273227)
(-1.00881e+06 28502.9 -3.45997e-15 -889.372 8.07684e-14 -250526)
(-15300.6 85619.4 -1.2514e-13 -955.492 3.61967e-14 -4033.47)
(-1.29373e+06 24789.7 3.3826e-14 -2144.07 3.63766e-14 -321532)
(431021 67749.5 -8.43216e-14 -2838 4.13655e-14 106241)
(603979 70976.9 0 -3400.79 0 149016)
(570012 53922.7 3.21363e-14 -4240 7.66992e-14 140380)
(110075 71273 -1.05754e-13 1063.63 -2.79576e-13 27575.8)
(9317.27 74204.9 -9.26742e-14 -8621.8 -3.4085e-14 172.561)
(469905 40380.1 -1.17982e-13 14522.2 2.11498e-14 120196)
(-397426 55843.4 -1.0083e-14 -1258.89 -8.15745e-14 -98921.9)
(62621.4 76221.5 1.37363e-15 -15241.7 1.71756e-14 11755.9)
(1.81747e+06 -775038 -6.59548e-15 -205541 -1.65705e-15 399953)
(282194 77919.1 8.36888e-15 -2697.38 -1.54868e-13 69348.8)
(340182 75927.5 7.20956e-14 -43.8956 2.45204e-14 84395.2)
(-223720 75287.7 0 -225.508 0 -55565.3)
(-265680 84470 2.68992e-14 -6694.69 -7.48657e-14 -67581.6)
(783704 81420.8 0 7273.95 0 196258)
(855278 83790.1 4.75988e-14 7774.74 4.51672e-14 214141)
(927217 87555.5 -1.06594e-13 8108.11 -1.02949e-14 232073)
(-417735 53681.7 1.50693e-13 -5538.64 1.53073e-13 -105023)
(-281804 58377.7 7.91813e-15 -3996.53 -9.16089e-14 -70912.9)
(-15435.7 81977.9 8.91376e-14 -37.4063 4.74584e-14 -3839.19)
(1.86759e+06 13593.1 -1.3847e-14 -29212.5 -2.53511e-14 456139)
(-11885.7 94403 -9.6314e-14 -5807.41 3.00079e-14 -4390.02)
(23647.2 48486.1 -9.21525e-14 11090.5 -5.73616e-14 8619.13)
(41356.4 77937.8 6.92633e-14 1164.42 -1.60746e-13 10550.3)
(443748 77238.7 7.3768e-14 222.768 7.79482e-14 110158)
(-175042 5521.92 -1.22603e-13 -3106.4 6.0095e-15 -44202.2)
(586145 86172.5 0 -3694.99 0 144518)
(1.96647e+06 -82620.3 3.19243e-16 -274528 1.28184e-16 419805)
(442996 21634.5 7.07753e-14 6450.89 1.6094e-13 111517)
(425513 33594.8 3.20767e-14 -6339.81 1.74787e-14 104005)
(-638355 73383.1 1.05435e-14 6040.8 2.22592e-14 -156890)
(-454109 69138.5 -8.21487e-14 4864.86 2.63131e-14 -111467)
(-544089 46032.1 -1.67967e-13 -2320.65 -2.93847e-14 -135575)
(-390011 50812 8.47857e-15 -2771.88 -8.91516e-15 -97457.3)
(1.35559e+06 20792.3 -5.88684e-15 -3429.79 1.93618e-14 335500)
(1.12204e+06 93114.8 2.43909e-15 -712.546 -4.00387e-14 278224)
(321907 84807.8 1.48689e-14 -3802.82 8.7944e-15 78928.2)
(433118 70544.3 2.79116e-14 -122.386 4.74822e-14 107435)
(237232 84077.9 7.76475e-14 -4227.96 5.53235e-14 57812.9)
(318433 70892.8 6.96294e-14 -1851.57 -1.10209e-14 78550.3)
(-613638 50691.9 -1.2843e-14 6283.75 3.22314e-14 -150697)
(-806860 78913.6 -3.56277e-14 2434.87 6.40345e-15 -199594)
(-185277 124371 3.9584e-14 -579.681 2.82613e-14 -46114.9)
(1.33235e+06 56210.9 4.42195e-14 5365.15 3.17364e-14 331915)
(1.44491e+06 56079.8 -9.58355e-15 23713.4 4.76326e-15 364395)
(1.7146e+06 57169.1 7.78083e-15 -1651.42 4.90262e-15 425016)
(118919 79512 -1.51099e-13 246.775 1.83473e-13 29567.5)
(-437223 22722.3 -9.36248e-14 -5664.41 -4.81349e-14 -109889)
(-422638 36338 -1.188e-13 4377.98 7.94576e-14 -103779)
(1.99978e+06 -7571.93 0 12806.8 0 499363)
(2.00491e+06 62507.6 0 1128.24 0 497738)
(1.19099e+06 48910.7 1.83267e-14 -1833.67 8.73666e-14 295055)
(1.18138e+06 8621.57 5.86172e-14 4926.25 -1.64603e-13 294348)
(-1.22831e+06 11059.9 0 -9233.27 0 -307059)
(-1.19758e+06 49078 0 8255.66 0 -295094)
(34531.1 77582.2 -2.08213e-14 2591.57 5.96376e-14 9210.88)
(-84903.7 34214.4 2.22835e-13 -5081.06 -9.43177e-14 -22327)
(-325261 34143.2 -5.87553e-14 -3499.84 -2.1678e-14 -81572.3)
(2.62173e+06 3083.14 0 53006.8 0 663657)
(-46324.8 68365.4 -1.46943e-13 -1987.47 -3.66857e-15 -11987.3)
(-54682.7 71152 -2.11647e-14 -4959.9 -1.17714e-13 -14798.5)
(286193 91273.1 -7.58037e-14 -6458.14 -5.19486e-14 69408)
(-226244 89667.4 -1.57956e-13 -6662.21 6.61436e-14 -57788.7)
(274019 55135.6 4.58868e-14 -7677.02 -4.74569e-14 66084.8)
(-1.04924e+06 46568.6 3.25078e-14 -9590.34 -6.62027e-14 -262716)
(1.0566e+06 50925.7 -1.34874e-14 -10893.5 -8.09556e-14 259462)
(-1.78552e+06 76909 1.40274e-14 -10937.9 -6.00472e-14 -445738)
(-2.12352e+06 -192136 7.44169e-15 394576 -5.35832e-15 -428986)
(740063 100570 -1.18412e-14 -15507.2 1.47133e-14 179777)
(83223 98671.4 -7.84435e-15 -4672.56 4.41494e-14 19490)
(-989913 81072.6 -3.93056e-14 -4476.85 -1.10073e-13 -246728)
(832147 27607 -5.11408e-14 10587.4 7.37468e-14 209099)
(-577059 49835.4 5.64262e-14 -10074.1 7.236e-14 -145680)
(449874 79734.4 8.47228e-14 5530.17 1.48204e-15 112995)
(83758.9 87660.4 2.36291e-14 4767.12 1.10567e-15 21965.1)
(144389 68056.4 -9.99313e-14 -955.049 1.255e-13 35588.8)
(-286928 58324.4 6.86587e-14 -18202.7 -7.29278e-14 -75709.1)
(-464230 115577 1.13046e-15 7712.24 9.18419e-14 -113271)
(-263137 59091.4 1.05817e-14 -16868.4 -7.37482e-14 -69475)
(-425662 111581 6.69651e-14 6904.17 -2.44704e-14 -103902)
(105327 48763.8 -4.20621e-14 -2980.01 1.30706e-14 25394.4)
(-49677.9 95667.5 -1.11294e-15 2587.58 -8.2522e-14 -11684.1)
(-32469.5 94295.5 1.0235e-13 2452.59 8.20908e-14 -7447.81)
(-21870.2 84588.8 5.26799e-14 695.588 -1.14704e-13 -5253.86)
(1.4206e+06 40061.9 3.03763e-14 4149.2 4.70585e-15 353508)
(-14675.1 96040.8 -1.15794e-13 -6570.99 -5.14675e-14 -5271.6)
(-56208.3 70587.7 5.71971e-14 -5010.74 -1.91522e-13 -15189.7)
(1.98147e+06 -57396.4 -1.50737e-14 -102216 -1.10078e-14 466281)
(327785 57257.4 6.09685e-14 -5141.88 -7.82095e-14 80054.4)
(-761007 99481.7 4.07954e-14 13847.5 1.10163e-14 -185386)
(-871201 63389.1 -6.65783e-14 2017.57 -2.91331e-14 -215662)
(-865319 29149.7 0 -10441.4 0 -217294)
(1.08873e+06 17248.8 -5.99598e-14 5489.09 -2.85102e-14 271499)
(1.04254e+06 71815.8 3.64102e-15 9003.71 7.14217e-14 260908)
(-33798.9 58845.9 -6.76587e-14 1150.59 5.51506e-14 -8100.7)
(-25724.8 59266 4.90844e-14 1690.82 -2.74448e-13 -5963.31)
(-682635 106876 -2.69629e-14 8068.05 -6.6174e-16 -167374)
(-919356 76096 0 11712.5 0 -225205)
(649663 47919.5 1.47635e-14 7305.46 3.63478e-14 163007)
(-1.68087e+06 95053.7 6.45485e-15 -7935.2 -2.04295e-14 -419027)
(58670.9 66671.2 0 14899.4 0 18254.3)
(925458 41123 -3.20371e-15 -2977.57 2.21699e-14 228886)
(701552 103496 -1.72831e-15 5534.42 8.41121e-17 175442)
(-441862 84545.4 1.25825e-13 4586.76 -1.61791e-14 -108497)
(-343295 57758.9 -1.229e-14 -2738.16 8.86567e-14 -85857.8)
(-314993 80741.8 1.9462e-14 3560.09 -7.39716e-14 -77272.9)
(-246651 61655.3 -1.10008e-15 -2581.72 4.34586e-15 -61839.8)
(-352636 39237.3 4.5506e-14 481.681 6.7204e-14 -87376.6)
(-297182 44617 -7.96003e-14 3432.15 1.60197e-14 -72885.3)
(-362427 102320 0 1023.31 0 -89671.5)
(-407560 103880 -4.01365e-14 -1046.39 3.48707e-14 -101384)
(-444008 107371 -3.27787e-15 -1324.03 -3.73725e-15 -110496)
(120755 67056.9 -1.95924e-13 1375.65 -9.79475e-14 30303)
(-24192.1 80501.1 -4.34867e-14 -2370.29 8.65605e-14 -6590.67)
(871816 40152.7 -2.45264e-14 5304.09 6.98491e-14 217631)
(912661 54641.5 3.39606e-14 -6177.66 -6.59838e-14 224917)
(151186 71061.2 7.05076e-15 877.367 -4.88458e-14 37730)
(221113 64480.5 0 2576.07 0 55501.9)
(-481035 103355 5.02758e-14 -2486.95 -5.52638e-14 -119972)
(425137 62457.4 -9.6098e-14 4206.8 -1.21313e-15 106529)
(464176 92374.2 -4.20655e-14 4737.96 -2.60337e-15 116347)
(-169655 77148.2 -8.05224e-14 -924.325 1.15402e-13 -42324.1)
(-144584 80577.8 4.69813e-14 -1887 2.75745e-15 -36342.5)
(-208293 84389.8 7.61383e-14 -831.267 2.70816e-14 -51887.9)
(-231315 72616.7 0 -2647.8 0 -58051)
(-1.00841e+06 42372.7 2.23883e-14 -351.378 -3.41642e-14 -250295)
(464761 74384.2 -3.68676e-14 -824.862 -1.45792e-13 115112)
(331020 72601.8 -1.68888e-14 -1075.55 -2.41389e-15 81865.8)
(-109831 198588 -1.02658e-14 21933 -7.34201e-15 -21809.3)
(1.20553e+06 33231.2 -7.73662e-14 -8820.1 -4.63443e-14 296929)
(-1.40893e+06 9957.12 6.70001e-14 2101.02 4.00925e-14 -349062)
(-163025 183878 0 -6108.98 0 -41965.6)
(-167167 75258.6 2.8147e-14 2220.35 8.49644e-14 -40926.5)
(-141326 79390.4 -2.11714e-13 3793.87 -5.37043e-14 -34124.6)
(-243439 73622.7 9.13184e-14 1616.72 1.02185e-15 -60000.9)
(-209701 80729.4 0 3071.93 0 -51268.8)
(475867 60036.9 4.66129e-14 -4204.5 -7.50249e-14 117029)
(546483 84038.3 1.70174e-14 -3329.5 7.21259e-15 134767)
(443417 63773.3 -3.46601e-14 -8693.84 3.31798e-14 107864)
(517268 86610.3 3.69906e-14 -6063.59 1.02223e-13 126840)
(406327 63601.1 2.90185e-14 -7647.82 4.86916e-14 98920.3)
(473879 84669.8 -6.30539e-14 -5442.65 3.60313e-14 116228)
(374238 38038.9 2.87206e-14 57.7731 1.08455e-13 92870.5)
(361100 22633 8.44536e-14 2604.07 1.80818e-13 90242.4)
(-718058 83309.8 -1.61602e-14 1066.8 2.12308e-14 -177900)
(336731 79307.9 -8.74779e-14 -4328.73 -2.12608e-15 82475.8)
(-802770 59988.3 0 6854.62 0 -197483)
(1.38813e+06 87487.5 4.72589e-14 -11967.1 -2.97304e-14 341455)
(-700836 37198.8 8.81441e-14 2659.6 -1.44828e-13 -173232)
(-510875 42746.7 1.06443e-13 753.885 -7.1532e-14 -126571)
(-1.56907e+06 -741780 -6.03719e-15 248990 1.34908e-15 -327539)
(46619.3 75538 1.18902e-13 230.23 -3.12221e-14 11624.3)
(1.47323e+06 48479.8 -1.57917e-14 -3318.76 -7.99592e-16 364716)
(-715736 57179.3 -2.46759e-14 2702.28 -7.15323e-14 -176918)
(-515162 55521.9 1.54217e-13 2256.48 7.58881e-14 -127262)
(2.19886e+06 -16325.4 2.56916e-14 -4594.78 1.1436e-14 544441)
(-98922.8 67334.9 -1.70532e-14 -1410.68 6.84066e-14 -24894.8)
(1.51777e+06 12959.8 3.92856e-14 4521.67 -2.44128e-14 377712)
(-356207 58481.1 5.33551e-14 1617.81 -9.40562e-14 -87980.8)
(-1.2548e+06 86844.2 3.18618e-14 13010.2 -4.1504e-15 -308114)
(-1.17944e+06 55194.4 -1.94631e-14 -6877.45 -1.48175e-15 -294350)
(1.14199e+06 56748.4 -3.68518e-14 1896.82 2.40987e-14 283823)
(-145455 78198.8 -2.32906e-13 5796.05 -1.06008e-13 -34652.1)
(-3440.51 -39827.7 2.45664e-16 -62443.1 8.73337e-17 -16347.1)
(-18054.3 71994.9 0 3049.83 0 -3722.93)
(-2.08217e+06 -665346 9.91458e-15 261847 -2.73321e-15 -451659)
(1.56556e+06 -741353 1.17373e-14 -250752 3.69117e-15 326230)
(-1.00173e+06 90331.1 4.11606e-14 -8024.59 -3.99213e-14 -250541)
(347251 56472.7 1.78233e-14 3198.03 6.87922e-14 86953.5)
(481686 51600 -5.73341e-14 4303.46 1.30497e-13 120584)
(139623 74044.8 1.14801e-13 -1326.77 3.41873e-14 34314.1)
(-260520 15542.5 6.6534e-14 167.075 -1.0231e-13 -64598.7)
(233768 95759.2 -5.53206e-14 -1502.31 5.06211e-14 57629.8)
(-118709 58793.4 1.63426e-14 888.266 2.50563e-14 -29233.7)
(-108402 105468 1.17258e-14 4447.91 3.4016e-14 -25793.2)
(-1.70736e+06 2585.61 -5.43605e-15 45530.8 1.29095e-14 -412333)
(13954.7 -23701 6.44686e-17 -41388.5 4.00151e-17 -6806.89)
(-589453 95086 -2.45579e-16 7369.73 4.63076e-15 -144427)
(463525 53056.5 4.14852e-14 -2996.58 1.28537e-13 114266)
(1.77195e+06 -343307 1.04132e-15 -46435.1 1.35148e-15 428136)
(-52746 58314.5 -1.06612e-14 -9120.7 -8.28763e-14 -15350.4)
(-59289.9 98104.5 8.45849e-15 -4242.07 8.09114e-14 -15763.6)
(-33791.9 85609.2 -1.44739e-15 147.164 -1.23935e-13 -8347.95)
(-87518.2 73281.6 -2.29324e-14 3731.43 3.12521e-14 -20789.2)
(39372.9 84415.7 3.70465e-14 -1416.68 9.57332e-14 9417.72)
(26030.8 86750.5 -8.70553e-14 -307.914 -2.84204e-14 6382.38)
(-1.77634e+06 -341234 4.4417e-15 44873.2 -1.37216e-15 -429612)
(623340 89602.8 -3.38918e-14 2329.15 1.83391e-14 155241)
(-218504 72802 -2.33031e-13 -391.655 -6.61139e-14 -54312.4)
(733348 76142.5 1.21437e-13 4583.73 -2.05522e-13 183096)
(673090 74917.6 -1.49907e-15 4325.7 -7.88133e-14 168081)
(615968 72439.7 -2.25402e-13 2330.48 3.4015e-14 153412)
(106813 42710.7 -1.13877e-13 4031.57 -4.26034e-14 27502.8)
(-1.44437e+06 30889.9 6.10807e-14 -3718.56 -5.92763e-14 -359300)
(455366 58056.1 1.2349e-13 -2578.49 1.33224e-14 112346)
(645785 59904.6 -5.59136e-14 -2596.66 -7.99684e-14 159588)
(-124291 72585.3 -1.97359e-13 -365.404 -3.3275e-14 -30929.9)
(923458 97891.8 1.29147e-14 -12435.5 1.86565e-14 226043)
(177111 56378.8 -7.98581e-14 34.1329 5.40926e-14 43953.2)
(-1.85005e+06 22829.2 -2.06858e-14 -2546.49 -7.65448e-15 -459667)
(53662 74418.1 -1.02985e-13 1850.61 -8.66409e-14 13773.8)
(-156344 79202.1 -2.04783e-13 1587.57 9.67016e-14 -38398.2)
(526579 60402.4 1.54297e-13 533.98 -2.22099e-14 130787)
(483273 60562.5 1.44189e-13 518.584 3.50844e-14 120039)
(441823 59062.9 -1.04544e-13 -1354.29 2.88032e-14 109289)
(962675 44630.6 1.55308e-14 103.763 3.26338e-14 238885)
(210613 78902.4 -6.91144e-14 3035.41 -1.48114e-13 53010.6)
(-530351 65284.3 4.7066e-14 -8147.01 1.05321e-15 -133612)
(-415242 118142 2.87012e-14 3839.2 3.20015e-14 -102077)
(-232602 49193.5 0 1718.71 0 -57286.8)
(-735869 87422.2 -6.33985e-14 -8202.33 1.92988e-14 -184619)
(-804000 89879.2 -9.53675e-14 -9121.72 -6.30374e-15 -201752)
(-874656 93481 -9.51875e-14 -10478.2 4.58544e-14 -219620)
(416302 59282.6 1.95955e-15 6725.95 2.43224e-14 104962)
(284733 64482.5 3.07866e-14 4792.36 -3.85428e-14 71837)
(74837.6 7888.95 -8.95061e-14 3738.3 3.22873e-14 19496.3)
(147039 61873.3 0 -1789.77 0 36039.3)
(189066 50125.3 -1.04805e-13 1534.07 6.25533e-14 47291.7)
(2.14469e+06 -103939 -5.57238e-15 -281938 -2.68596e-15 462186)
(815424 41196.3 1.03175e-13 1419.75 -1.05874e-13 202675)
(-625666 79539.9 0 1263.76 0 -154927)
(-438716 72183.3 -5.11287e-14 8474.66 -2.24686e-15 -106752)
(352037 76202.9 2.7299e-14 -3749.05 -3.37598e-14 86417.2)
(-112292 89742.9 4.56094e-14 -2432.6 3.74171e-14 -28465.4)
(-14384.6 87787 1.34455e-13 -2702.06 -1.05946e-13 -4239.54)
(36728.4 62653.2 1.07223e-13 9136.67 -1.69663e-14 11380.1)
(40166 62374.3 -5.60955e-14 9919.96 -5.22374e-14 12427.3)
(-4535.24 111101 -2.81114e-15 -2816.11 -2.30366e-14 -1824.02)
(-9707.17 58069.2 -2.50755e-14 -882.093 8.43278e-14 -2627.41)
(191.419 67446.1 -9.39353e-14 -432.723 6.99973e-14 -59.8723)
(12630.4 71410.9 8.97434e-14 -13748.6 -4.07679e-14 -277.447)
(156227 50055.7 -6.94458e-15 2285.9 -3.27171e-14 39330.3)
(-290313 112900 -1.63385e-15 1803.07 -1.57951e-14 -71585.2)
(92661.7 71169.2 2.25113e-13 1185.6 -4.42944e-14 23285.4)
(13359.9 109466 9.38013e-15 -17153.1 1.3375e-14 -941.176)
(-613101 110814 -2.34125e-14 -2482.23 -1.40583e-14 -152739)
(778345 51203 7.74318e-14 3422.06 6.90766e-14 193972)
(-334286 81032.3 -8.66286e-14 -314.646 2.83353e-14 -83021.2)
(-1.42056e+06 257231 -4.05556e-15 251733 2.43023e-15 -290009)
(-207860 47303.4 6.16937e-14 -2041.88 6.69952e-14 -52081)
(-340929 111855 0 3730.8 0 -83665.8)
(100685 71297.9 1.20129e-13 48.6062 -1.65933e-13 24994)
(156125 64621.2 6.35342e-15 -411.666 2.063e-14 38635.6)
(1.56205e+06 -345592 -1.25718e-15 50638.7 2.19845e-16 400141)
(-2.15503e+06 9686.32 -1.72721e-14 12739.1 7.93859e-15 -531547)
(669933 58204.4 3.79539e-14 3979.04 3.18909e-14 167211)
(730346 57993.9 -3.84852e-14 3900.93 8.37903e-14 182182)
(-222116 78529.3 -2.85018e-13 1453.56 -1.01763e-13 -54750.9)
(155050 98582 5.01619e-14 10018.1 9.88645e-14 40956.8)
(-34353.1 68364.7 8.01878e-14 -3199.4 1.22025e-13 -9317.55)
(-885513 -575264 -1.07536e-15 66138.4 4.52472e-16 -203303)
(-2.09776e+06 71320.6 5.65994e-15 1822.82 7.3094e-15 -520045)
(1.86188e+06 35870.9 3.07526e-14 3613.31 -1.51581e-14 462866)
(-2.69712e+06 -46464.4 -7.98144e-15 -7452.64 -3.43925e-15 -671058)
(860279 52505.6 -3.47232e-14 -6300.07 -5.39779e-14 211890)