/*--------------------------------*- C++ -*----------------------------------*\
| =========                 |                                                 |
| \\      /  F ield         | OpenFOAM: The Open Source CFD Toolbox           |
|  \\    /   O peration     | Version:  2.3.1                                 |
|   \\  /    A nd           | Web:      www.OpenFOAM.org                      |
|    \\/     M anipulation  |                                                 |
\*---------------------------------------------------------------------------*/
FoamFile
{
    version     2.0;
    format      ascii;
    class       volScalarField;
    location    "0.44";
    object      epsilon;
}
// * * * * * * * * * * * * * * * * * * * * * * * * * * * * * * * * * * * * * //

dimensions      [0 2 -3 0 0 0 0];

internalField   nonuniform List<scalar> 
9648
(
2426.96
2427.29
2428.05
2424.46
2416.31
2403.05
2384.56
2360.92
2332
2297.86
2258.64
2214.41
2165.92
2114.07
2059.61
2003.44
1946.69
1890.37
1835.22
1781.82
1730.79
1682.51
1637.18
1595.03
1556.11
1520.36
1487.74
1458.16
1431.53
1407.68
1386.49
1367.83
1351.58
1337.56
1325.7
1315.85
1307.88
1301.71
1297.31
1294.59
1293.42
1293.8
1295.69
1299.01
1303.79
1310.09
1317.85
1327.05
1337.77
1350.15
1364.19
1379.86
1397.38
1416.73
1437.9
1460.7
1484.94
1510.25
1535.86
1561.18
1585.76
603.898
598.277
591.375
582.924
575.21
570.432
568.902
569.501
571.746
575.886
581.721
588.605
596.131
603.911
611.59
618.773
625.267
631.025
636.038
640.238
643.738
646.616
648.916
650.779
652.329
653.64
654.809
655.914
657.053
658.265
659.571
661.043
662.729
664.639
666.804
669.251
671.97
674.961
678.243
681.843
685.752
689.955
694.464
699.287
704.405
709.85
715.613
721.666
727.99
734.591
741.404
748.41
755.554
762.867
770.208
777.555
784.753
791.905
798.869
805.566
811.952
236.79
240.397
245.156
252.243
261.547
272.571
285.509
299.951
315.796
332.69
350.43
368.56
386.734
404.602
421.856
438.241
453.576
467.764
480.746
492.51
503.087
512.519
520.906
528.338
534.924
540.761
545.937
550.559
554.689
558.406
561.787
564.9
567.813
570.571
573.21
575.751
578.226
580.653
583.055
585.45
587.853
590.283
592.735
595.222
597.745
600.297
602.875
605.459
608.044
610.604
613.131
615.624
618.043
620.439
622.697
624.914
626.994
629.069
630.981
632.77
634.429
129.782
139.769
151.306
164.596
179.601
196.2
214.335
233.776
254.268
275.443
296.965
318.432
339.505
359.861
379.237
397.412
414.241
429.645
443.585
456.076
467.155
476.891
485.384
492.741
499.071
504.482
509.087
512.97
516.225
518.939
521.2
523.099
524.71
526.086
527.26
528.267
529.14
529.907
530.6
531.237
531.841
532.428
533.013
533.601
534.198
534.804
535.421
536.042
536.666
537.286
537.881
538.477
539.046
539.599
540.087
540.567
541.036
541.483
541.888
542.257
542.629
93.3078
106.049
120.603
136.953
155.026
174.711
195.82
218.077
241.14
264.592
288.035
311.056
333.319
354.524
374.441
392.863
409.684
424.852
438.357
450.256
460.603
469.479
477.015
483.301
488.478
492.672
495.982
498.534
500.402
501.699
502.532
502.983
503.138
503.045
502.733
502.244
501.621
500.893
500.093
499.244
498.36
497.469
496.584
495.718
494.874
494.057
493.271
492.512
491.774
491.06
490.353
489.655
488.972
488.295
487.618
486.941
486.291
485.641
484.977
484.308
483.641
79.2292
93.7389
110.321
128.873
149.223
171.195
194.502
218.787
243.631
268.553
293.127
316.912
339.603
360.908
380.666
398.651
414.791
429.09
441.554
452.293
461.398
468.945
475.081
479.899
483.553
486.189
487.94
488.927
489.244
489.012
488.343
487.305
485.99
484.446
482.694
480.792
478.794
476.716
474.608
472.479
470.341
468.222
466.144
464.121
462.147
460.23
458.372
456.584
454.853
453.163
451.514
449.893
448.302
446.738
445.191
443.691
442.228
440.777
439.322
437.874
436.417
74.3599
90.3882
108.709
129.14
151.384
175.211
200.233
226.024
252.132
277.96
303.124
327.105
349.684
370.562
389.724
406.829
421.869
434.932
445.982
455.261
462.872
468.823
473.384
476.504
478.459
479.428
479.507
478.922
477.671
475.917
473.797
471.305
468.584
465.674
462.564
459.342
456.108
452.828
449.57
446.34
443.116
439.959
436.881
433.906
430.997
428.179
425.456
422.823
420.282
417.81
415.396
413.027
410.717
408.418
406.154
403.948
401.796
399.695
397.59
395.461
393.355
73.8496
91.2938
111.212
133.319
157.166
182.466
208.805
235.705
262.669
288.968
314.319
338.015
360.052
380.042
398.325
414.26
427.916
439.545
448.93
456.527
462.506
466.675
469.56
470.848
471.013
470.25
468.645
466.504
463.695
460.448
456.937
453.021
448.952
444.753
440.36
435.919
431.54
427.089
422.77
418.523
414.286
410.149
406.177
402.339
398.577
394.97
391.453
388.079
384.806
381.637
378.543
375.511
372.54
369.562
366.638
363.814
361.019
358.338
355.617
352.855
350.185
75.4477
94.0159
115.35
138.725
163.983
190.345
217.537
245.353
272.681
299.259
324.416
347.693
368.778
387.561
404.721
419.383
431.577
441.627
449.559
455.511
459.611
461.928
462.897
462.538
460.964
458.365
455.187
451.58
447.123
442.421
437.442
432.238
427.094
421.609
415.836
410.378
404.787
399.153
393.855
388.448
383.084
377.713
373.009
368.335
363.655
359.445
354.996
350.977
346.791
342.904
338.91
335.264
331.703
327.975
324.357
321.065
317.512
314.522
311.118
307.594
304.458
1609.68
1632.79
1654.79
1675.65
1695.54
1714.89
1733.8
1752.56
1771.28
1789.02
1805.44
1821.08
1836.2
1851.15
1866.16
1881.89
1898.91
1917.72
1938.68
1962.31
1988.36
2016.34
2045.83
2076.4
2107.71
2139.71
2172.52
2205.86
2239.66
2273.94
2308.89
2344.37
2380.41
2417.16
2454.62
2492.71
2531.53
2571.21
2611.82
2653.2
2695.39
2738.63
2782.9
2828.04
2874.37
2921.76
2970.1
3019.42
3069.95
3121.71
3174.64
3228.62
3284.21
3340.99
3399.35
3459.06
3520.86
3584.74
3650.7
3718.62
3788.63
817.997
824.108
830.047
835.735
841.191
846.538
851.917
857.174
862.549
867.67
872.747
877.715
882.686
887.69
892.717
897.811
902.989
908.295
913.724
919.252
924.84
930.429
935.995
941.517
946.981
952.369
957.614
962.687
967.577
972.31
976.902
981.329
985.609
989.765
993.791
997.69
1001.48
1005.17
1008.74
1012.2
1015.56
1018.86
1022.05
1025.14
1028.16
1031.08
1033.91
1036.62
1039.25
1041.79
1044.23
1046.57
1048.82
1051.12
1053.23
1055.44
1057.61
1060
1062.27
1064.59
1067.04
636.055
637.597
639.189
640.751
642.284
643.72
645.234
646.653
648.064
649.326
650.534
651.688
652.856
653.997
655.113
656.19
657.225
658.214
659.146
660.011
660.793
661.495
662.102
662.613
663.022
663.326
663.519
663.601
663.562
663.408
663.13
662.731
662.216
661.581
660.841
659.991
659.034
657.97
656.798
655.516
654.13
652.645
651.067
649.381
647.599
645.71
643.701
641.565
639.31
636.937
634.42
631.806
629.057
626.203
623.162
620.043
616.838
613.562
610.202
606.79
603.388
542.976
543.324
543.643
543.947
544.218
544.46
544.67
544.851
544.981
545.008
544.968
544.886
544.741
544.513
544.23
543.879
543.464
542.977
542.409
541.754
541.014
540.187
539.277
538.278
537.188
535.998
534.71
533.326
531.842
530.261
528.582
526.797
524.909
522.925
520.852
518.689
516.437
514.096
511.66
509.133
506.52
503.834
501.079
498.261
495.38
492.434
489.403
486.286
483.077
479.795
476.409
472.931
469.373
465.718
461.941
458.049
454.089
450.046
445.948
441.832
437.722
482.978
482.29
481.578
480.836
480.065
479.232
478.34
477.45
476.552
475.604
474.622
473.596
472.509
471.365
470.16
468.89
467.586
466.21
464.763
463.242
461.649
459.992
458.276
456.505
454.67
452.766
450.79
448.743
446.63
444.451
442.202
439.871
437.46
434.973
432.423
429.809
427.13
424.377
421.546
418.64
415.671
412.646
409.583
406.493
403.384
400.256
397.074
393.864
390.59
387.273
383.894
380.439
376.932
373.357
369.691
365.927
362.085
358.16
354.215
350.257
346.302
434.972
433.517
432.055
430.548
429.017
427.451
425.842
424.208
422.538
420.842
419.108
417.352
415.557
413.712
411.823
409.899
407.949
405.937
403.859
401.717
399.52
397.279
395.008
392.714
390.383
388.004
385.579
383.109
380.609
378.081
375.52
372.902
370.228
367.494
364.725
361.918
359.059
356.15
353.17
350.122
347.02
343.873
340.704
337.541
334.4
331.293
328.163
325.046
321.903
318.776
315.614
312.393
309.155
305.853
302.506
299.038
295.509
291.908
288.321
284.698
281.099
391.266
389.186
387.098
384.996
382.855
380.668
378.45
376.226
373.966
371.656
369.334
367.007
364.647
362.264
359.838
357.397
354.958
352.471
349.919
347.297
344.621
341.929
339.226
336.54
333.847
331.119
328.362
325.572
322.794
320.035
317.315
314.559
311.79
308.974
306.162
303.333
300.448
297.531
294.556
291.516
288.417
285.255
282.079
278.921
275.806
272.797
269.774
266.834
263.889
261.052
258.222
255.317
252.425
249.481
246.532
243.411
240.279
237.042
233.899
230.691
227.536
347.515
344.904
342.282
339.7
337.091
334.494
331.822
329.219
326.584
323.835
321.092
318.394
315.653
312.891
310.055
307.252
304.528
301.764
298.935
295.966
292.923
289.906
286.876
283.893
280.976
278.025
275.047
271.98
268.945
265.997
263.224
260.441
257.734
255
252.346
249.712
246.947
244.123
241.291
238.449
235.504
232.436
229.348
226.263
223.202
220.362
217.446
214.714
211.976
209.515
207.124
204.587
202.105
199.565
197.084
194.32
191.622
188.759
186.134
183.394
180.757
301.077
297.947
294.645
291.7
288.589
285.909
282.881
280.292
277.667
274.802
271.931
269.328
266.469
263.633
260.521
257.396
254.636
251.97
249.303
246.378
243.04
239.924
236.729
233.511
230.49
227.524
224.656
221.459
218.055
214.851
212.052
209.263
206.7
204.197
202.039
199.952
197.543
194.855
192.259
189.86
187.393
184.546
181.628
178.766
175.809
173.236
170.338
167.819
165.182
163.226
161.383
159.217
157.242
155.183
153.283
150.833
148.607
146.051
143.996
141.763
139.751
3861.8
3937.63
4015.52
4095.51
4178.05
4264.05
4352.98
4444.79
4539.22
4636.42
4736.69
4838.9
4943.2
5054.14
5191.44
5320.2
5446.91
5576.16
5707.91
5842.12
5979.12
6119.01
6261.36
6406.41
6553.91
6703.17
6853.88
7005.79
7158.7
7311.73
7464.79
7617.26
7768.28
7917.23
8063.6
8205.96
8343.17
8474.26
8591.61
8678.4
8738.04
8772.35
8781.27
8763.08
8716.3
8638.53
8525.83
8373.61
8177.66
7933.43
7634.72
7274.76
6848.37
6346.84
5789.04
4791.3
4343.1
4113.07
4020.34
3980.82
3910.55
1069.74
1072.54
1075.55
1078.63
1081.81
1085.25
1089.23
1093.64
1098.53
1103.75
1109.49
1113.24
1114.8
1117.9
1121.69
1126.86
1132.27
1137.62
1143.1
1148.83
1154.83
1161.15
1167.75
1174.62
1181.76
1189.14
1196.79
1204.74
1213.02
1221.69
1230.79
1240.38
1250.57
1261.5
1273.25
1286.07
1300.11
1315.76
1333.61
1362.99
1398.43
1437.23
1479.12
1524.25
1573.32
1626.68
1684.4
1746.8
1814.16
1886.09
1961.77
2039.62
2117.8
2195.89
2267.31
2334.96
2391.6
2476.57
2577.78
2687.99
2676.98
599.965
596.548
593.101
589.639
586.127
582.649
579.289
576.094
572.982
569.849
566.345
560.946
555.144
550.18
545.726
541.875
538.148
534.332
530.457
526.575
522.729
518.916
515.13
511.37
507.631
503.91
500.214
496.547
492.928
489.353
485.843
482.419
479.091
475.903
472.883
470.078
467.533
465.319
463.537
462.718
463.038
467.289
475.439
486.865
502.002
521.482
546
576.559
614.142
659.823
714.62
779.324
855.094
942.435
1041.68
1150.3
1257.41
1373.18
1512.97
1692.56
1891.57
433.619
429.53
425.442
421.341
417.2
413.066
408.989
405.022
401.049
396.992
392.217
386.389
380.704
375.578
370.836
366.442
362.171
357.925
353.68
349.46
345.268
341.086
336.92
332.774
328.644
324.54
320.462
316.41
312.385
308.391
304.427
300.501
296.623
292.804
289.054
285.392
281.839
278.409
275.127
272.055
269.27
267.05
266.006
266.694
268.936
273.059
279.508
288.913
302.088
320.026
344.106
375.629
416.248
467.169
529.32
601.112
678.039
760.887
857.131
979.857
1137.16
342.37
338.502
334.656
330.79
326.861
322.938
319.04
315.234
311.413
307.493
302.85
297.682
292.772
288.276
284.03
280.021
276.118
272.314
268.567
264.887
261.249
257.603
253.977
250.38
246.799
243.248
239.725
236.232
232.757
229.306
225.876
222.474
219.106
215.782
212.509
209.299
206.163
203.111
200.153
197.304
194.59
192.068
189.859
188.279
187.515
187.545
188.585
190.924
194.979
201.267
210.554
223.816
242.226
267.055
299.412
339.595
386.237
438.666
498.776
571.691
664.313
277.503
274.029
270.585
267.141
263.561
259.992
256.42
252.974
249.512
245.995
241.819
237.428
233.298
229.522
225.886
222.417
219.012
215.761
212.6
209.542
206.536
203.491
200.484
197.522
194.57
191.66
188.768
185.908
183.052
180.211
177.379
174.574
171.796
169.059
166.367
163.733
161.162
158.663
156.239
153.901
151.66
149.537
147.569
145.837
144.567
143.696
143.321
143.556
144.601
146.719
150.268
155.75
163.819
175.233
190.88
211.376
236.889
267.468
303.631
346.859
400.224
224.302
221.264
218.268
215.32
212.12
208.952
205.728
202.712
199.685
196.694
193.054
189.406
185.972
182.912
179.872
176.976
174.069
171.387
168.798
166.33
163.918
161.409
158.982
156.644
154.297
152.003
149.701
147.44
145.151
142.875
140.587
138.338
136.112
133.941
131.806
129.732
127.713
125.764
123.879
122.076
120.355
118.738
117.233
115.87
114.703
113.893
113.344
113.117
113.31
114.051
115.521
117.962
121.683
127.105
134.695
144.955
158.308
175.081
195.714
220.94
251.988
177.871
175.267
172.747
170.374
167.571
164.842
161.96
159.432
156.892
154.505
151.382
148.397
145.559
143.181
140.674
138.351
135.895
133.77
131.71
129.757
127.87
125.791
123.876
122.161
120.371
118.624
116.816
115.094
113.276
111.479
109.634
107.88
106.141
104.492
102.856
101.296
99.7612
98.3049
96.9055
95.6012
94.3684
93.2441
92.2282
91.3151
90.5326
89.9662
89.6172
89.4478
89.5228
89.9116
90.7097
92.0348
94.0515
96.9503
100.976
106.409
113.547
122.72
134.287
148.731
166.687
137.177
134.94
132.916
131.201
128.794
126.527
123.937
121.986
119.968
118.22
115.563
113.147
110.759
109.037
106.949
105.207
103.104
101.545
99.947
98.3587
96.91
95.1114
93.6554
92.6555
91.3219
89.963
88.4917
87.2639
85.7549
84.3181
82.7473
81.4643
80.1216
78.9615
77.7193
76.5983
75.39
74.3205
73.317
72.4467
71.6512
70.9574
70.3825
69.8941
69.4419
69.0905
68.9115
68.841
68.9901
69.2773
69.9409
70.8957
72.3483
74.2538
76.8232
80.0878
84.3338
89.6488
96.4164
104.897
115.425
3768.34
3611.23
3442.66
3263.97
3084.58
2910.26
2744.46
2591.51
2455.46
2338.7
2241.9
2164.19
2104.06
2059.32
2027.21
2005.09
1990.71
1982.43
1978.73
1978.36
1980.6
1984.85
1990.69
1997.98
2006.65
2016.58
2027.61
2039.77
2053.14
2067.6
2083.11
2099.64
2117.07
2135.18
2153.87
2172.84
2191.8
2210.45
2228.59
2245.88
2261.86
2276.3
2288.99
2299.72
2308.54
2315.67
2321.21
2325.37
2328.71
2332
2335.63
2339.85
2345.29
2352.2
2360.39
2369.65
2379.79
2390.83
2401.79
2411.68
2419.87
2489.66
2285.96
2087.48
1893.23
1724.26
1567.76
1423
1290.3
1170.27
1063.69
970.897
891.521
824.758
769.035
724.073
689.111
662.372
641.873
626.013
613.652
603.998
596.418
590.491
586.077
582.714
580.553
579.318
579.072
579.765
581.398
583.989
587.525
592.01
597.418
603.704
610.795
618.586
626.977
635.82
644.922
654.026
662.823
670.882
677.733
682.942
686.068
686.716
684.669
679.977
672.964
664.184
654.424
644.641
635.713
628.122
622.35
618.26
615.635
613.577
611.312
608.116
1990.09
1988.52
1899.18
1729.52
1550.24
1375.68
1205.74
1049.61
910.124
786.181
678.738
587.67
511.766
449.841
400.925
363.329
334.491
311.712
293.713
279.619
268.572
259.87
252.961
247.397
242.947
239.313
236.416
234.148
232.455
231.304
230.667
230.542
230.915
231.751
233.032
234.72
236.783
239.178
241.853
244.736
247.737
250.753
253.662
256.303
258.514
260.088
260.82
260.516
259.049
256.343
252.457
247.664
242.384
237.182
232.557
229.117
227.176
226.867
227.991
230.264
233.405
1303.46
1454.66
1559.84
1589.05
1529.22
1409.83
1246.35
1074.12
915.206
768.455
639.16
530.806
441.159
369.007
312.341
268.286
234.071
207.116
185.972
169.562
156.911
147.206
139.768
134.002
129.493
125.895
123.01
120.693
118.847
117.402
116.319
115.573
115.136
114.974
115.05
115.329
115.776
116.357
117.028
117.745
118.455
119.107
119.643
120.004
120.132
119.972
119.477
118.612
117.368
115.738
113.755
111.516
109.189
107.006
105.25
104.353
104.722
106.587
110.012
114.944
121.507
778.146
911.529
1054.8
1186.36
1275.14
1302.23
1260.84
1161.22
1027.52
875.077
724.897
596.138
485.227
393.703
321.125
263.65
218.525
183.264
155.752
134.515
118.316
106.145
97.0823
90.31
85.1846
81.2371
78.1618
75.7485
73.8536
72.3663
71.2232
70.3882
69.8229
69.4838
69.33
69.3244
69.4313
69.6145
69.8382
70.062
70.2434
70.3416
70.3165
70.1306
69.7501
69.1497
68.3202
67.264
65.9883
64.5226
62.9168
61.2563
59.6849
58.3883
57.6329
57.6758
58.9727
61.8914
66.6746
73.5641
82.4687
466.748
549.66
650.342
765.827
884.673
989.756
1060.79
1081.23
1047.15
965.483
851.837
725.975
598.5
483.775
390.306
313.09
251.469
202.809
164.063
134.074
111.443
94.7637
82.6578
73.852
67.3615
62.4942
58.8052
55.9921
53.8421
52.1861
50.9273
50.0103
49.3831
48.9902
48.7837
48.7226
48.7679
48.8851
49.0388
49.1918
49.3054
49.3461
49.2784
49.0731
48.6996
48.1415
47.3929
46.4634
45.3594
44.1082
42.7521
41.3676
40.0738
39.0405
38.5218
38.8492
40.4401
43.7477
49.1495
56.8692
66.9229
290.528
338.764
399.064
473.147
560.437
656.805
752.905
834.95
888.345
901.814
871.962
805.123
712.969
609.019
505.935
408.353
325.879
258.926
202.992
158.912
125.429
101.003
83.6539
71.2982
62.3781
55.8129
50.9391
47.3106
44.6091
42.5663
41.0328
39.9208
39.1585
38.6703
38.3961
38.2861
38.2968
38.3913
38.5336
38.6875
38.8152
38.8892
38.8746
38.747
38.4732
38.0442
37.4517
36.7087
35.8141
34.7968
33.6893
32.5611
31.5162
30.702
30.3573
30.8113
32.4674
35.8935
41.5903
49.8723
60.8285
189.085
217.107
252.294
296.288
350.486
415.299
489.304
567.926
643.596
705.768
743.729
750.518
725.437
672.201
599.337
515.204
429.75
348.842
272.123
209.024
159.097
122.536
97.0304
79.0743
66.1926
56.7756
49.8637
44.829
41.1804
38.4616
36.4427
34.9774
33.9662
33.2995
32.8977
32.6957
32.6407
32.6906
32.807
32.9522
33.0875
33.1923
33.2301
33.1805
33.0038
32.6991
32.2516
31.6805
30.9756
30.1678
29.2824
28.3861
27.5694
26.9704
26.8037
27.3833
29.1193
32.6233
38.5791
47.3751
59.1746
128.66
145.098
165.661
191.606
223.991
263.897
311.793
367.35
428.335
490.967
547.657
592.303
618.3
622.413
602.629
560.872
502.879
432.815
359.608
284.09
213.295
160.434
123.82
97.831
78.7233
64.7087
54.4398
47.1017
41.8991
38.061
35.2506
33.1998
31.7766
30.8145
30.2004
29.8411
29.6697
29.6332
29.6902
29.7942
29.9107
30.0226
30.0924
30.0995
30.0012
29.798
29.4759
29.0501
28.5097
27.8805
27.1909
26.5023
25.9057
25.5216
25.5479
26.2947
28.1829
31.8469
38.0397
47.2875
59.7705
1.70238
222.751
199.586
2.25213
2.4583
0.205821
0.00071979
89.2019
0.000797288
0.0146644
95.2243
7.00709
0.000720543
247.089
0.168575
135.682
0.000757297
90.5062
120.082
0.000717219
2.23589
235.328
210.007
0.00076513
0.000781891
0.209437
0.000718113
8.04568
0.000753134
0.000816873
6.87754
0.00075107
0.00873441
62.1121
3.9976
113.778
72.8493
15.6875
0.000722599
44.8051
65.4801
30.6355
0.000743709
103.227
168.139
0.72285
0.000871181
0.00880306
1.21426
7.21479
375.905
366.349
0.000701549
0.0010292
0.0635022
0.0407656
0.000814048
9.36355
59.4489
293.66
139.583
0.000908001
1.48119
0.0253738
208.472
2.13029
38.8159
62.6629
0.00112675
0.000747819
9.74165
40.307
56.4049
0.0240967
0.051667
79.7431
239.799
54.8888
0.000702767
5.48089
0.00234907
47.4256
0.0122198
109.282
0.000750058
8.56207
0.000792096
36.7094
0.0109546
0.00136629
0.235148
0.000701527
0.000931539
317.956
147.68
0.000864922
1.59549
1.97321
0.00183821
210.321
0.845944
31.9092
5.79614
0.000700615
0.000725634
0.000698461
1.3964
0.210506
0.000746612
177.272
225.955
0.00469014
232.887
26.3048
113.302
53.3864
28.2641
0.000973533
0.111848
0.00110437
0.00133658
185.303
0.00306509
292.174
427.432
27.9394
0.000746461
7.14885
7.00836
0.000744333
0.0298764
0.0272933
91.7651
0.00186459
62.635
0.000749334
0.000723504
405.434
362.192
0.000749473
0.806206
152.992
0.229125
0.911896
26.568
121.691
0.289782
27.602
0.005268
285.308
10.86
0.0417761
48.3495
106.876
193.547
0.000764152
0.000755718
0.519354
0.000715837
41.4975
0.109914
0.00144229
0.000739936
0.000748044
0.000758619
40.0968
69.8462
34.7606
0.00076912
291.31
305.8
401.389
167.505
0.00688118
154.429
41.4765
28.3336
0.000749808
0.00170329
193.109
68.882
31.6226
74.2539
0.000745877
0.000839345
237.29
0.029979
2.50055
0.000758249
0.00086963
0.17364
0.000795262
344.819
4.00101
0.000715513
0.689282
90.9947
149.723
0.0011912
52.9525
0.000747212
0.000750937
107.923
32.6796
311.602
0.0012083
0.000800646
0.00283053
41.9963
77.86
9.71482
129.758
14.3773
235.099
0.821681
85.7544
83.2121
29.3227
10.6961
39.0803
0.00143591
0.029479
0.000748318
0.000736105
28.396
0.010121
0.0119001
0.00195224
0.0062455
46.4435
193.81
0.0110984
179.493
7.52094
2.99082
0.00073222
0.580841
38.1702
7.26754
0.00105824
13.2885
35.248
0.881048
2.26827
275.08
7.43667
5.17142
122.867
0.000951124
0.000725027
0.00102867
0.00425155
28.7381
0.000782465
0.00247403
0.000723019
1.72914
76.0073
76.7787
49.6606
11.7866
11.4032
332.905
0.0011348
48.4115
100.258
0.000744339
77.4434
0.000749733
338.292
1.72825
48.3217
0.00155337
0.000748996
20.0952
7.8444
0.000759664
0.000751166
0.000756136
0.000750715
1.19458
36.1005
44.3025
0.0107594
0.000760466
0.00072391
0.000699518
103.762
1.27947
0.00119348
19.2704
0.117129
0.095546
0.00069703
0.784727
0.000760175
0.114492
48.1095
272.026
2.97866
0.00097937
0.00185033
55.6159
0.366353
129.726
329.311
0.000838115
0.000740115
0.000733785
156.396
0.000773998
137.491
0.000750256
25.288
11.9769
0.0241837
134.529
245.248
0.00127473
50.5051
50.4297
89.5767
90.4648
9.94969
360.227
38.8574
71.5773
143.698
95.0344
56.6264
0.343839
347.338
285.18
63.4333
33.5063
0.00099712
277.812
119.722
231.411
0.0188606
0.000869209
0.000746228
0.000812758
0.697379
1.5756
6.78092
0.126225
0.000725484
173.952
0.000746813
26.218
23.5503
194.092
43.7286
18.6319
0.0019344
0.001104
0.45712
82.4527
0.00440926
8.12041
258.115
36.1058
82.9868
201.706
61.5768
0.000818675
287.478
146.787
96.8959
0.000751156
200.311
155.895
0.000782448
30.4779
0.000752321
404.972
172.76
28.1432
80.9079
108.145
151.537
0.000762874
150.247
0.000966872
69.1558
80.1691
28.3722
283.62
3.67104
0.496291
2.57822
0.00109726
442.19
1.43862
0.0028987
0.00179524
253.801
0.000955458
91.4867
0.000737339
0.00075039
0.00182801
31.4485
0.197605
21.7385
0.00194276
83.09
0.312304
228.918
281.016
38.2519
343.307
0.000791944
283.098
41.8715
0.000742225
77.6037
25.6096
0.000700134
0.00072715
117.81
0.00205272
28.4991
0.45523
72.1221
0.0177858
3.44595
39.7953
122.686
32.7383
86.4033
70.0381
0.000997145
0.0331159
28.6613
23.5464
337.167
345.676
148.828
0.0863388
125.817
124.77
3.32989
92.0061
46.388
25.9233
0.000822381
83.243
395.2
0.00107681
91.7315
19.0135
47.0645
0.0154735
0.0913255
270.223
0.00193565
333.268
0.00124498
1.88455
0.00073743
7.70611
167.349
0.560098
0.00131938
0.000900439
72.9343
26.7601
0.327426
5.55996
295.073
543.153
0.00137136
11.6551
27.2381
71.0367
26.0236
450.729
28.926
154.228
51.2968
3.45962
7.15698
307.17
54.534
362.008
173.318
0.220047
168.796
59.2522
0.000789919
92.6307
28.5343
12.8095
0.00970292
96.4821
45.5332
4.1308
53.4646
0.0015843
0.000747515
0.110401
28.6422
112.293
74.0784
0.000750517
0.000730305
0.000744015
28.2919
0.0278643
0.000746253
0.250898
95.0685
271.821
0.0044396
0.00456602
0.000722822
0.00073827
0.00194386
29.393
100.948
23.0503
1.8925
308.407
391.528
0.0015033
65.6237
27.9402
28.577
75.2439
449.899
0.000819113
0.00450382
0.000751426
396.539
0.784462
0.000726479
10.4944
0.357732
308.257
0.000759392
335.962
8.67305
0.0697779
204.49
0.000748167
0.000735645
0.00102699
416.002
52.4332
131.75
321.518
11.0485
28.5708
0.000710425
0.00184826
0.457449
0.0139735
0.0164182
176.686
41.1568
0.000748496
25.9978
45.175
189.484
418.633
0.00296857
421.661
0.00182996
0.0219908
143.652
0.000738809
146.074
0.000759895
0.000791497
0.0211293
34.2715
2.94426
320.022
62.151
0.000884843
28.4996
507.052
0.182038
2.15804
7.11121
0.000775018
0.00076003
0.00229877
134.839
5.68549
0.000782614
279.12
279.268
219.994
0.0815805
60.2984
0.00108581
29.7907
0.594457
0.133063
125.411
29.5756
149.249
175.543
0.000759461
0.000712871
0.00500877
72.8607
106.76
5.93629
0.00664156
0.000772959
0.000749808
0.00346345
0.151519
0.00212092
73.4816
21.423
0.00494963
26.2224
176.385
0.00076034
38.4775
0.000742083
3.38081
0.000762503
0.0132736
40.5979
0.0116869
0.000744734
4.07681
375.829
273.682
0.000730047
0.000749159
1.5549
0.155429
0.000748128
104.336
0.000904298
31.7793
388.283
29.4941
88.0557
292.683
133.756
342.269
0.00074784
0.00249184
0.010954
296.881
61.0506
207.794
5.59518
4.41033
101.572
161.818
133.799
4.79721
50.0205
0.000750955
1.53121
38.1108
32.8031
318.48
28.8082
1.24183
40.3195
0.203031
0.00943219
38.5833
0.000751394
177.215
0.000886238
2.77187
297.335
185.286
3.02244
0.00251184
7.04055
0.000768179
0.00073627
0.203933
0.0136294
48.2381
0.00891527
28.7192
0.000750801
0.0192383
0.000724988
95.5393
0.00178411
87.3122
298.287
0.0145706
166.699
384.909
0.000757562
98.8587
219.574
0.000783634
291.46
0.265105
0.000824422
0.000793012
292.304
0.000731459
0.00111542
0.124022
0.214145
443.822
275.052
0.00075159
0.00075259
9.25787
27.5442
0.00715697
2.1444
21.9906
0.00074815
0.000955384
0.000914246
169.981
274.557
3.36728
304.387
0.0173699
26.4153
0.000771449
0.00724219
0.0162091
0.0434714
0.000750358
303.178
0.000742114
0.0161948
0.000769488
1.21021
0.0150817
0.0273214
2.60491
5.00746
35.1169
2.2671
9.14644
27.9399
190.302
0.000816076
163.612
335.311
12.518
75.0549
0.000760487
270.992
82.4751
0.000746138
422.649
66.8946
0.00519428
0.0142286
161.551
159.792
0.209442
323.03
420.67
4.42519
443.718
274.027
126.572
50.7632
23.0882
27.6919
271.293
301.231
0.0145269
319.833
43.8791
413.226
0.000811812
1.55887
2.82651
226.609
169.586
0.0119178
446.244
196.179
7.03518
0.0546547
2.79846
28.1246
0.00155132
28.298
452.545
0.029339
222.783
14.3798
93.7358
192.198
0.000746451
0.00167129
7.35043
5.21092
0.0132192
0.000748724
0.84164
1.88344
0.00120867
0.000758718
268.83
7.00399
53.7622
10.4933
0.00316804
0.00107269
0.393804
88.5366
0.000825161
21.5963
29.3586
1.86399
164.833
0.00100649
0.405304
0.000740879
1.83468
86.3695
0.00131283
0.186543
41.0401
174.674
0.507014
93.9211
5.1175
0.913943
0.000985819
33.0698
344.381
0.000744511
0.000755849
149.641
0.0159274
0.000758281
73.4316
1.95674
162.875
29.7692
38.7103
0.318552
17.0368
208.847
171.195
240.784
0.00076394
274.197
0.000969461
38.1614
0.000796498
0.00139897
45.2494
0.0020878
261.127
0.0121728
0.0326121
45.7879
7.80636
0.553175
0.000898166
190.334
0.000888029
0.000718867
355.554
164.436
40.3132
28.7464
0.00081317
0.000693445
18.9835
150.641
0.000730766
228.894
37.6097
0.000753615
169.214
0.000704777
3.50147
6.36876
10.6677
1.52866
76.7288
21.0792
0.000703371
275.787
338.099
0.000744915
0.0132661
29.0084
0.000709923
240.504
161.429
408.059
0.000746068
0.000727516
196.144
0.0962985
0.000834877
31.076
80.868
251.953
0.000720841
0.00079149
0.015884
0.0116122
0.000747352
0.00202154
125.11
51.2527
0.000747121
13.355
0.000747396
10.403
0.00108541
0.000868335
26.9197
0.000749589
0.375795
0.000730313
50.9031
2.08081
20.3912
186.087
366.089
143.427
5.15328
14.8357
0.000758269
5.68428
282.507
528.972
0.158308
0.000828047
130.497
0.000746546
0.110081
0.00072016
454.105
15.4835
3.26996
203.432
52.3837
5.16672
79.7393
7.87426
224.923
111.99
0.000774517
0.000755389
0.00310326
0.000740755
0.0142458
104.804
0.000928377
260.697
0.00186929
0.299748
3.03409
151.386
0.00135266
41.7499
0.0135011
60.1177
30.0888
448.907
0.000795721
0.000951227
1.34021
83.754
63.7445
64.8059
1.94845
7.94165
20.6462
0.0626368
11.4243
1.77834
30.0361
0.000756301
400.696
1.45254
55.0184
0.000785321
52.1318
16.6841
0.00152035
88.8347
17.1617
0.0864269
0.000715484
0.000746585
200.736
47.1438
14.7294
0.000736188
0.009646
50.7338
188.426
3.38158
0.00591176
0.000736325
153.267
132.505
35.9784
35.3393
0.000743832
99.4011
448.04
0.00074704
0.000749502
18.5188
0.001171
0.00389145
0.209915
47.6898
0.00104803
36.5789
352.271
0.00073225
0.000818705
0.000727352
0.000768376
65.8803
521.765
346.714
0.02074
33.9548
47.4434
0.133427
44.3798
0.00082375
31.2021
0.536237
30.6627
5.14817
82.3263
98.0112
0.160449
0.000759307
160.573
85.1405
278.4
5.73038
29.5655
0.521984
21.7451
0.00353321
0.00133608
146.974
145.313
0.0330143
1.12192
0.000754657
0.100874
19.4972
0.028028
13.7935
4.18981
386.004
36.5941
1.74729
280.563
138.931
57.1358
15.425
195.991
192.637
3.12858
37.6025
0.00284765
46.4552
44.7252
0.000743632
0.000711697
0.378682
0.000749107
0.000773982
58.1651
299.619
0.000744668
84.8092
0.000745415
0.000736886
0.000739304
0.000751838
0.00180871
29.5771
47.7168
252.903
0.00071886
0.00103511
6.64613
0.00085509
0.0283159
0.000762805
0.0008681
163.649
0.000984914
0.00469989
182.591
0.0042636
0.000749793
182.104
0.000745832
0.000761244
1.54733
0.000868056
6.55375
0.00123246
0.0245897
0.000743978
0.000752354
310.297
433.396
45.4637
0.0237065
104.674
15.9106
0.00129474
27.6894
315.374
236.224
481.793
0.000708667
29.2656
55.8357
0.265057
28.5221
102.939
0.353867
31.6211
1.13734
28.3919
0.275661
7.37691
0.00075769
230.094
0.000759715
28.6782
31.7801
0.000748125
0.925531
0.00246913
0.0270094
0.000725646
3.9023
0.000895102
0.000740653
40.4979
0.0479263
0.167371
231.585
151.199
0.000816826
0.000964003
29.974
266.248
0.000698705
0.000754543
0.199719
24.2709
145.814
0.00208547
15.6562
0.00074591
0.000819313
0.000719431
0.02828
24.3921
0.00407661
277.049
29.4821
264.149
176.514
0.000843314
310.036
65.7714
0.000732549
0.000754106
0.000750356
0.00115817
0.000740461
121.056
0.000745557
0.000750468
357.053
1.21215
0.00269127
0.0333298
55.2981
7.38259
0.00751047
0.000824778
187.9
0.000762711
6.52937
0.000753417
0.000846864
166.276
173.175
0.00336842
0.000834219
3.84779
0.000744471
376.034
0.000751555
157.495
0.0282383
8.69709
0.093201
3.28449
2.00077
30.0546
0.00076108
0.000861101
0.00493043
63.1919
0.306792
309.387
0.000747631
0.00123635
0.00164029
261.898
61.1976
270.979
0.00225127
0.00349188
0.818663
0.000751638
19.6949
37.1252
0.00883717
269.478
179.952
41.3547
0.00154725
1.45273
169.96
231.727
27.9514
0.0105455
115.895
0.519065
138.987
0.147058
2.29332
45.0763
0.000761965
28.5124
0.00122345
0.00513044
0.00488584
0.0484217
0.000908143
10.8075
0.000745723
46.3761
0.133146
0.000868943
1.61981
0.000756584
0.773893
0.232269
40.6262
3.85384
93.1265
0.814094
0.000748682
0.000730599
4.57507
0.164088
42.7609
267.406
0.000751966
152.333