/*--------------------------------*- C++ -*----------------------------------*\
| =========                 |                                                 |
| \\      /  F ield         | OpenFOAM: The Open Source CFD Toolbox           |
|  \\    /   O peration     | Version:  2.3.1                                 |
|   \\  /    A nd           | Web:      www.OpenFOAM.org                      |
|    \\/     M anipulation  |                                                 |
\*---------------------------------------------------------------------------*/
FoamFile
{
    version     2.0;
    format      ascii;
    class       surfaceScalarField;
    location    "0.44";
    object      phi;
}
// * * * * * * * * * * * * * * * * * * * * * * * * * * * * * * * * * * * * * //

dimensions      [0 3 -1 0 0 0 0];

internalField   nonuniform List<scalar> 
15416
(
-0.000702797
-5.53818e-06
0.000706787
-0.000698561
-4.23908e-06
-0.000695586
-2.97715e-06
-0.000693755
-1.83178e-06
-0.000693217
-5.39094e-07
-0.000694216
9.981e-07
-0.000697421
3.20619e-06
-0.000703239
5.81944e-06
-0.00071176
8.52424e-06
-0.000723336
1.15802e-05
-0.000738379
1.50477e-05
-0.000757105
1.8728e-05
-0.000779647
2.25423e-05
-0.000806087
2.64407e-05
-0.000836521
3.0443e-05
-0.000870887
3.43845e-05
-0.000909011
3.81522e-05
-0.000950698
4.17101e-05
-0.000995794
4.51219e-05
-0.00104397
4.81924e-05
-0.00109497
5.1004e-05
-0.00114854
5.35834e-05
-0.00120433
5.58052e-05
-0.001262
5.76772e-05
-0.00132129
5.9291e-05
-0.00138195
6.06552e-05
-0.00144368
6.1746e-05
-0.00150617
6.25158e-05
-0.00156921
6.30613e-05
-0.0016326
6.34186e-05
-0.00169604
6.3468e-05
-0.00175932
6.33081e-05
-0.00182233
6.30545e-05
-0.00188485
6.25518e-05
-0.0019467
6.18637e-05
-0.00200782
6.11227e-05
-0.00206809
6.02759e-05
-0.00212733
5.92496e-05
-0.00218532
5.79966e-05
-0.00224203
5.67229e-05
-0.00229745
5.54329e-05
-0.0023514
5.39607e-05
-0.00240376
5.23712e-05
-0.00245457
5.08242e-05
-0.00250356
4.89973e-05
-0.0025507
4.71444e-05
-0.0025961
4.54011e-05
-0.00263976
4.36589e-05
-0.00268145
4.16929e-05
-0.00272122
3.97704e-05
-0.00275894
3.77194e-05
-0.00279479
3.58581e-05
-0.00282829
3.35053e-05
-0.0028599
3.16094e-05
-0.0028894
2.95061e-05
-0.00291715
2.77632e-05
-0.00294222
2.50738e-05
-0.00296502
2.28053e-05
-0.00298591
2.0894e-05
-0.00300504
1.91438e-05
1.74328e-05
-0.00302247
-0.000401006
-5.69168e-06
0.000401153
-0.000402281
-2.96844e-06
-0.000405759
4.96958e-07
-0.000411802
4.20717e-06
-0.000422364
1.00187e-05
-0.000436757
1.53865e-05
-0.000455209
2.16538e-05
-0.000477396
2.8003e-05
-0.000504057
3.51815e-05
-0.000534719
4.22404e-05
-0.000569557
4.98808e-05
-0.000608429
5.75927e-05
-0.00065123
6.53322e-05
-0.000697834
7.30393e-05
-0.00074795
8.05663e-05
-0.000801452
8.78994e-05
-0.00085809
9.47984e-05
-0.000917645
0.00010127
-0.000979752
0.000107216
-0.00104419
0.000112622
-0.00111074
0.000117552
-0.00117899
0.000121816
-0.00124875
0.000125572
-0.00131984
0.000128741
-0.00139192
0.000131349
-0.00146472
0.000133471
-0.00153792
0.000134956
-0.00161145
0.000136066
-0.00168502
0.000136637
-0.00175829
0.000136678
-0.00183127
0.000136437
-0.00190376
0.000135813
-0.0019754
0.000134701
-0.00204616
0.000133322
-0.00211606
0.000131743
-0.00218469
0.00012973
-0.00225208
0.000127645
-0.00231809
0.000125242
-0.00238271
0.000122608
-0.00244573
0.000119743
-0.00250685
0.000116552
-0.00256634
0.00011346
-0.00262402
0.000110048
-0.0026796
0.000106412
-0.00273327
0.000102668
-0.00278484
9.87079e-05
-0.00283437
9.49283e-05
-0.00288143
9.07191e-05
-0.00292643
8.66835e-05
-0.00296923
8.25609e-05
-0.0030099
7.83842e-05
-0.00304873
7.46847e-05
-0.00308408
6.88627e-05
-0.00311874
6.62632e-05
-0.00314957
6.03383e-05
-0.00317884
5.70375e-05
-0.00320376
4.99906e-05
-0.00322849
4.75387e-05
-0.00325093
4.33366e-05
-0.00327119
3.94058e-05
3.33443e-05
-0.0032871
-0.000254192
1.69335e-06
0.000246802
-0.000264279
7.11472e-06
-0.000277973
1.41873e-05
-0.000296278
2.25078e-05
-0.000318028
3.17651e-05
-0.000344301
4.16558e-05
-0.000374687
5.20358e-05
-0.000409463
6.27766e-05
-0.000448555
7.42728e-05
-0.000492075
8.57573e-05
-0.000539756
9.75569e-05
-0.00059123
0.000109056
-0.000646612
0.000120706
-0.000705525
0.000131954
-0.000767774
0.00014283
-0.000833084
0.000153234
-0.000901239
0.000162966
-0.000971951
0.000171967
-0.00104487
0.000180106
-0.00111982
0.000187536
-0.00119636
0.000194071
-0.00127443
0.00019991
-0.00135376
0.00020493
-0.00143408
0.0002091
-0.00151509
0.000212359
-0.0015965
0.000214857
-0.00167813
0.000216576
-0.00175971
0.000217648
-0.00184098
0.000217904
-0.00192203
0.000217741
-0.00200239
0.000216793
-0.00208184
0.000215251
-0.00216059
0.00021342
-0.00223817
0.000210847
-0.00231448
0.000208008
-0.00238948
0.000204706
-0.002463
0.000201156
-0.00253488
0.000197133
-0.00260507
0.000192819
-0.00267347
0.000188158
-0.00274011
0.000183214
-0.00280445
0.000177801
-0.00286685
0.000172451
-0.00292706
0.000166625
-0.00298508
0.000160682
-0.00304091
0.000154544
-0.00309432
0.000148336
-0.00314543
0.000141818
-0.00319397
0.00013522
-0.00324068
0.000129276
-0.00328369
0.000121392
-0.0033241
0.000115088
-0.00336286
0.000107623
-0.00339931
0.00010271
-0.00343359
9.46201e-05
-0.00346357
8.70251e-05
-0.00349339
7.98089e-05
-0.00351887
7.30239e-05
-0.00354211
6.65776e-05
-0.00356107
5.83692e-05
5.21874e-05
-0.00357991
-0.000180692
1.62373e-05
0.000166143
-0.000199386
2.58055e-05
-0.000222186
3.6983e-05
-0.000249129
4.94459e-05
-0.000280316
6.29476e-05
-0.00031591
7.72467e-05
-0.000355866
9.19896e-05
-0.000400562
0.00010747
-0.000449601
0.00012331
-0.000503094
0.000139246
-0.000560626
0.000155079
-0.000622375
0.000170795
-0.000687921
0.000186248
-0.000756843
0.000200897
-0.000829084
0.000215107
-0.000904303
0.000228473
-0.000982214
0.000240859
-0.00106249
0.000252182
-0.00114488
0.000262414
-0.00122894
0.000271576
-0.00131468
0.000279858
-0.00140166
0.00028696
-0.00148979
0.000293151
-0.00157877
0.000298072
-0.00166832
0.000301867
-0.00175797
0.000304485
-0.00184763
0.000306205
-0.00193712
0.000307131
-0.00202632
0.000307118
-0.00211476
0.00030618
-0.00220251
0.000304529
-0.00228944
0.000302137
-0.00237501
0.000298918
-0.00245944
0.000295213
-0.00254253
0.000291042
-0.0026241
0.000286258
-0.00270382
0.000280905
-0.00278186
0.00027523
-0.00285799
0.000269011
-0.00293224
0.000262458
-0.00300418
0.000255177
-0.00307418
0.00024782
-0.00314161
0.00023987
-0.0032068
0.000231814
-0.00326949
0.000223362
-0.00332967
0.00021471
-0.00338727
0.000205938
-0.00344261
0.00019715
-0.00349457
0.000187184
-0.00354398
0.000178683
-0.00359196
0.000169371
-0.00363583
0.000158955
-0.00367745
0.000149252
-0.00371494
0.000140198
-0.00375205
0.000131731
-0.003785
0.000119982
-0.00381568
0.000110486
-0.00384409
0.000101444
-0.0038683
9.07864e-05
-0.00389024
8.03169e-05
6.99242e-05
-0.00390798
-0.000145237
3.79471e-05
0.000123522
-0.000170778
5.13429e-05
-0.000200679
6.68794e-05
-0.000235103
8.3865e-05
-0.000274119
0.000101959
-0.000317951
0.000121076
-0.000366799
0.000140834
-0.000420187
0.000160856
-0.000478371
0.000181491
-0.000540998
0.000201865
-0.000608111
0.000222182
-0.000679406
0.000242082
-0.000754353
0.000261211
-0.000832975
0.000279554
-0.000915084
0.000297246
-0.000999694
0.000313082
-0.0010871
0.000328187
-0.00117682
0.000341785
-0.00126841
0.000353948
-0.00136172
0.000364911
-0.00145645
0.000374706
-0.00155254
0.000383209
-0.00164965
0.000390293
-0.00174744
0.000395821
-0.00184542
0.000399779
-0.00194362
0.000402624
-0.00204155
0.000404164
-0.00213912
0.000404752
-0.0022362
0.000404201
-0.00233266
0.000402609
-0.00242814
0.000399943
-0.0025224
0.000396284
-0.00261542
0.000391875
-0.00270706
0.000386799
-0.00279699
0.000380979
-0.00288514
0.000374493
-0.0029717
0.000367574
-0.00305612
0.000359755
-0.00313842
0.000351386
-0.00321839
0.000342461
-0.00329628
0.000333097
-0.00337161
0.000323145
-0.00344453
0.000312788
-0.00351479
0.000302069
-0.00358238
0.000290942
-0.00364791
0.000280235
-0.00370867
0.00026669
-0.00376735
0.000255827
-0.00382434
0.000244175
-0.00387735
0.000231694
-0.00392804
0.000220064
-0.00397651
0.000207425
-0.00402098
0.000193727
-0.00406317
0.000182394
-0.00409935
0.000167917
-0.00413506
0.000155693
-0.00416851
0.000143945
-0.00419776
0.000130699
-0.00422283
0.000115867
-0.00424763
0.000105116
9.05321e-05
-0.00426823
-0.000128627
6.59431e-05
0.000100626
-0.000161006
8.3718e-05
-0.000197919
0.000103789
-0.000239989
0.000125929
-0.000287178
0.000149145
-0.000339378
0.000173273
-0.000396641
0.000198096
-0.000459154
0.000223366
-0.000526454
0.000248785
-0.000598767
0.000274169
-0.000675611
0.000299015
-0.000756519
0.000322995
-0.000841504
0.000346215
-0.000929771
0.000367867
-0.00102115
0.00038865
-0.00111569
0.000407557
-0.00121287
0.000425231
-0.00131244
0.000441215
-0.00141365
0.000455122
-0.00151636
0.000467798
-0.00162062
0.000479188
-0.00172594
0.000488631
-0.00183234
0.000496659
-0.00193933
0.000502568
-0.00204645
0.000506751
-0.00215327
0.000509506
-0.00225984
0.000510883
-0.00236593
0.000510951
-0.00247145
0.000509728
-0.00257621
0.000507138
-0.00267985
0.000503315
-0.00278197
0.000498289
-0.00288267
0.000492542
-0.00298171
0.00048604
-0.00307885
0.000478362
-0.00317419
0.000470072
-0.00326738
0.000460991
-0.00335845
0.000450916
-0.00344729
0.000440236
-0.00353383
0.000428957
-0.00361756
0.000416778
-0.00369877
0.000404338
-0.00377712
0.000391127
-0.0038522
0.000377165
-0.00392473
0.000363479
-0.00399459
0.000350095
-0.00406238
0.000334481
-0.00412611
0.000319562
-0.00418586
0.000303918
-0.00424331
0.000289145
-0.00429676
0.000273509
-0.0043461
0.000256767
-0.00439496
0.000242585
-0.004438
0.00022543
-0.00448059
0.000210509
-0.00451903
0.000194143
-0.00455131
0.000176228
-0.00458128
0.000160672
-0.00461102
0.000145609
-0.00463468
0.000128784
0.000111977
-0.00465612
-0.000125401
9.99961e-05
9.13424e-05
-0.000164651
0.000122964
-0.000209166
0.000148299
-0.000259336
0.000176096
-0.000314789
0.000204593
-0.000375963
0.000234445
-0.000442559
0.000264688
-0.000514357
0.000295161
-0.000591633
0.000326054
-0.000673513
0.000356037
-0.000760399
0.000385899
-0.000851682
0.000414274
-0.000946634
0.000441212
-0.00104502
0.000466272
-0.00114716
0.000490764
-0.00125218
0.000512476
-0.0013595
0.000532345
-0.00146917
0.000550758
-0.00158036
0.000566485
-0.00169323
0.000580917
-0.00180742
0.000593628
-0.00192272
0.000603951
-0.00203915
0.000612662
-0.00215582
0.000618903
-0.00227227
0.000623127
-0.00238844
0.000625858
-0.00250392
0.000626704
-0.00261917
0.000626374
-0.00273386
0.000624054
-0.00284724
0.000620076
-0.00295944
0.000615189
-0.00306998
0.000608738
-0.00317837
0.000601316
-0.00328516
0.000593245
-0.00339011
0.00058379
-0.00349267
0.000573073
-0.00359322
0.000561744
-0.00369131
0.000548878
-0.00378672
0.00053548
-0.00387952
0.000521574
-0.0039697
0.000506861
-0.00405627
0.00049088
-0.00414054
0.000475433
-0.00422164
0.000458298
-0.00429997
0.000441835
-0.00437427
0.000424422
-0.00444466
0.00040488
-0.00451261
0.000387514
-0.00457824
0.000369538
-0.00463809
0.000348989
-0.00469567
0.000331078
-0.00475094
0.000312033
-0.00480041
0.000292054
-0.00484776
0.000272774
-0.00489105
0.000253798
-0.00493009
0.000233181
-0.00496861
0.000214745
-0.005001
0.000193066
-0.00502941
0.000174015
-0.00505381
0.000153195
0.000134142
-0.00507597
-0.000132918
0.000140216
9.26918e-05
-0.000179364
0.000169406
-0.000231717
0.000200649
-0.000290783
0.000235158
-0.000355543
0.00026935
-0.00042609
0.00030499
-0.000502566
0.000341164
-0.000584091
0.000376678
-0.000671733
0.000413685
-0.00076411
0.000448406
-0.000862178
0.000483952
-0.000963991
0.000516106
-0.00107058
0.000547805
-0.0011796
0.000575317
-0.00129223
0.00060338
-0.00140861
0.000628685
-0.00152703
0.000650607
-0.00164751
0.000671266
-0.00177002
0.000689195
-0.0018929
0.000704161
-0.00201801
0.000718882
-0.00214369
0.00072925
-0.0022709
0.000739382
-0.00239811
0.000745763
-0.00252444
0.000749542
-0.00265072
0.000752549
-0.0027758
0.000752004
-0.00290085
0.000751157
-0.00302519
0.000747924
-0.00314737
0.000741771
-0.00326867
0.000736481
-0.00338792
0.000728739
-0.00350457
0.000718904
-0.00361958
0.000709249
-0.00373283
0.00069763
-0.00384284
0.000683045
-0.00395112
0.000669361
-0.00405656
0.000653647
-0.00415832
0.000636869
-0.00425776
0.000620777
-0.00435471
0.000603747
-0.00444876
0.000585007
-0.0045372
0.000563913
-0.00462486
0.00054602
-0.00470747
0.000524492
-0.00478566
0.000502637
-0.00486348
0.00048272
-0.00493498
0.000459008
-0.00500288
0.000437427
-0.0050679
0.000413996
-0.00512778
0.000390947
-0.00518496
0.000369207
-0.00523814
0.000345222
-0.00528954
0.000324178
-0.00533533
0.000299577
-0.00537833
0.000276181
-0.00541533
0.000251741
-0.00544761
0.000225349
-0.00547817
0.000204582
-0.0055052
0.000180222
0.000156721
-0.00552778
-0.00014899
0.000103418
0.000185785
-0.000203812
0.00022423
-0.0002633
0.000260138
-0.000332714
0.000304573
-0.000406719
0.000343358
-0.000487643
0.000385918
-0.000574826
0.000428349
-0.000665536
0.000467385
-0.000765992
0.000514139
-0.000867763
0.000550174
-0.00097941
0.000595605
-0.00109125
0.000627951
-0.00121277
0.000669374
-0.00133047
0.000693056
-0.00145593
0.000728796
-0.00158511
0.000757719
-0.00171328
0.000778639
-0.00184723
0.000805219
-0.00198106
0.000823456
-0.00211434
0.000837786
-0.00225442
0.000859002
-0.00238888
0.000863196
-0.00252859
0.000878507
-0.00266738
0.00088443
-0.00280378
0.000886563
-0.00294272
0.000892092
-0.00307662
0.00088586
-0.00321274
0.000886326
-0.00334847
0.000882695
-0.00347833
0.000871669
-0.0036098
0.000868806
-0.00373807
0.000858495
-0.00386317
0.000844978
-0.00398718
0.000833784
-0.00411113
0.000821459
-0.00422667
0.000797824
-0.00434442
0.00078532
-0.00445721
0.000765025
-0.00456486
0.000743974
-0.004673
0.000728776
-0.00477322
0.000703945
-0.00487425
0.000686139
-0.00496923
0.000658987
-0.00506085
0.000637628
-0.00515145
0.000615112
-0.0052345
0.000585705
-0.00531634
0.000564565
-0.00539104
0.000533714
-0.00546372
0.0005101
-0.00553015
0.000480424
-0.00559654
0.000457325
-0.00565585
0.000428514
-0.00571199
0.00040136
-0.00576421
0.000376391
-0.00581408
0.000349449
-0.005856
0.000318102
-0.00589638
0.000292123
-0.00593021
0.000259183
-0.00596141
0.000235785
-0.00598915
0.000207956
-0.00601117
0.000178738
-0.00303632
1.38501e-05
-0.00304832
1.20062e-05
-0.00305863
1.0311e-05
-0.00306706
8.42851e-06
-0.00307322
6.16543e-06
-0.00307676
3.54014e-06
-0.00307856
1.79252e-06
-0.00307825
-3.05484e-07
-0.00307596
-2.29371e-06
-0.00307123
-4.73385e-06
-0.0030646
-6.62931e-06
-0.00305593
-8.66932e-06
-0.00304518
-1.07513e-05
-0.00303236
-1.28192e-05
-0.00301778
-1.45804e-05
-0.00300135
-1.64279e-05
-0.00298289
-1.84567e-05
-0.00296238
-2.05082e-05
-0.00294016
-2.22158e-05
-0.00291606
-2.41003e-05
-0.00289016
-2.58985e-05
-0.00286263
-2.75275e-05
-0.00283335
-2.92778e-05
-0.00280223
-3.11164e-05
-0.00276947
-3.27605e-05
-0.00273531
-3.41584e-05
-0.00269949
-3.5809e-05
-0.002662
-3.74898e-05
-0.00262296
-3.90359e-05
-0.00258253
-4.04217e-05
-0.00254061
-4.19176e-05
-0.00249724
-4.33692e-05
-0.00245262
-4.46214e-05
-0.00240667
-4.59411e-05
-0.00235939
-4.72751e-05
-0.00231095
-4.84404e-05
-0.00226141
-4.95387e-05
-0.00221073
-5.06701e-05
-0.00215886
-5.18754e-05
-0.00210594
-5.29159e-05
-0.00205212
-5.38156e-05
-0.00199736
-5.47549e-05
-0.00194168
-5.56808e-05
-0.00188524
-5.64378e-05
-0.0018279
-5.73414e-05
-0.00176974
-5.81582e-05
-0.00171094
-5.87955e-05
-0.00165159
-5.9348e-05
-0.00159157
-6.00222e-05
-0.00153097
-6.05959e-05
-0.00146992
-6.10504e-05
-0.00140853
-6.13905e-05
-0.00134661
-6.19156e-05
-0.00128447
-6.21439e-05
-0.00122208
-6.23872e-05
-0.00115966
-6.24185e-05
-0.00109695
-6.2717e-05
-0.00103417
-6.27783e-05
-0.000971509
-6.26593e-05
-0.000909045
-6.24642e-05
-6.22301e-05
-0.000846815
-0.00330288
2.96315e-05
-0.00331402
2.31465e-05
-0.00332316
1.94564e-05
-0.00333008
1.53478e-05
-0.00333686
1.29443e-05
-0.00333943
6.11076e-06
-0.00334045
2.8131e-06
-0.00333767
-3.08709e-06
-0.00333425
-5.7136e-06
-0.00332723
-1.17577e-05
-0.00331836
-1.54969e-05
-0.0033072
-1.98368e-05
-0.00329394
-2.40103e-05
-0.00327882
-2.79394e-05
-0.00326123
-3.21678e-05
-0.00324159
-3.60657e-05
-0.00321982
-4.02325e-05
-0.00319608
-4.42418e-05
-0.00317011
-4.81856e-05
-0.0031422
-5.20119e-05
-0.00311251
-5.55858e-05
-0.00308061
-5.9426e-05
-0.00304678
-6.31011e-05
-0.0030112
-6.66971e-05
-0.00297378
-7.01851e-05
-0.0029345
-7.34345e-05
-0.0028934
-7.69095e-05
-0.0028508
-8.00842e-05
-0.00280653
-8.33098e-05
-0.00276041
-8.65326e-05
-0.00271286
-8.94663e-05
-0.00266392
-9.23135e-05
-0.00261329
-9.52477e-05
-0.00256123
-9.80043e-05
-0.00250793
-0.000100572
-0.00245313
-0.000103236
-0.00239704
-0.000105627
-0.00233969
-0.000108019
-0.00228124
-0.000110332
-0.0022216
-0.000112551
-0.00216067
-0.000114751
-0.00209882
-0.000116604
-0.002036
-0.000118498
-0.0019721
-0.000120332
-0.00190738
-0.000122068
-0.00184177
-0.000123769
-0.00177539
-0.000125171
-0.00170809
-0.000126653
-0.0016402
-0.000127909
-0.00157171
-0.000129085
-0.00150264
-0.000130118
-0.00143321
-0.000130819
-0.0013628
-0.000132328
-0.00129263
-0.000132311
-0.00122153
-0.000133495
-0.00115043
-0.000133512
-0.00107852
-0.000134628
-0.00100723
-0.000134073
-0.000935878
-0.00013401
-0.000864537
-0.000133805
-0.000134011
-0.000792757
-0.00359438
4.41008e-05
-0.003609
3.77674e-05
-0.00361913
2.95852e-05
-0.00362697
2.31905e-05
-0.00363052
1.64924e-05
-0.00363414
9.7335e-06
-0.00363341
2.07871e-06
-0.00363058
-5.91559e-06
-0.00362549
-1.08017e-05
-0.00361866
-1.8589e-05
-0.00360935
-2.48052e-05
-0.00359628
-3.29064e-05
-0.00358152
-3.87712e-05
-0.00356411
-4.53494e-05
-0.00354437
-5.19006e-05
-0.00352222
-5.8216e-05
-0.00349789
-6.45609e-05
-0.00347135
-7.07854e-05
-0.00344254
-7.69988e-05
-0.00341175
-8.27965e-05
-0.00337845
-8.88805e-05
-0.00334324
-9.4638e-05
-0.00330598
-0.000100358
-0.00326671
-0.000105963
-0.00322539
-0.000111511
-0.00318204
-0.000116778
-0.00313687
-0.000122084
-0.00308978
-0.000127167
-0.00304073
-0.000132358
-0.00299024
-0.000137022
-0.00293787
-0.000141843
-0.00288368
-0.000146495
-0.0028282
-0.000150732
-0.00277101
-0.000155193
-0.00271226
-0.000159321
-0.00265209
-0.000163401
-0.00259047
-0.000167255
-0.00252741
-0.000171074
-0.00246307
-0.000174677
-0.00239748
-0.000178138
-0.00233081
-0.000181417
-0.00226274
-0.000184676
-0.00219372
-0.00018752
-0.00212361
-0.000190439
-0.00205254
-0.000193135
-0.00198059
-0.000195722
-0.0019077
-0.00019806
-0.001834
-0.00020035
-0.00175947
-0.000202439
-0.00168459
-0.000203975
-0.0016084
-0.000206302
-0.00153163
-0.000207594
-0.00145471
-0.00020924
-0.00137743
-0.000209594
-0.00129986
-0.000211063
-0.00122137
-0.000212001
-0.00114348
-0.000212522
-0.00106488
-0.000212671
-0.000986311
-0.000212579
-0.00090732
-0.000212797
-0.000212351
-0.000828979
-0.00392543
6.15503e-05
-0.00393878
5.11196e-05
-0.00394984
4.0646e-05
-0.00395663
2.998e-05
-0.00396122
2.10844e-05
-0.00396342
1.1932e-05
-0.00396114
-1.95352e-07
-0.00395896
-8.09482e-06
-0.0039527
-1.70624e-05
-0.00394444
-2.68539e-05
-0.0039319
-3.73452e-05
-0.00391815
-4.66562e-05
-0.00390188
-5.50372e-05
-0.00388218
-6.50502e-05
-0.00386027
-7.38075e-05
-0.00383581
-8.2678e-05
-0.00380883
-9.15345e-05
-0.00377932
-0.0001003
-0.00374757
-0.000108748
-0.00371313
-0.000117234
-0.00367674
-0.000125268
-0.00363782
-0.000133555
-0.00359681
-0.00014137
-0.00355357
-0.000149205
-0.00350829
-0.000156784
-0.00346063
-0.000164436
-0.00341094
-0.000171775
-0.0033593
-0.000178805
-0.00330585
-0.000185806
-0.00325015
-0.000192725
-0.00319275
-0.000199241
-0.00313369
-0.000205548
-0.0030726
-0.000211823
-0.00300998
-0.000217813
-0.00294576
-0.000223545
-0.00287996
-0.000229194
-0.00281242
-0.0002348
-0.00274349
-0.000240004
-0.00267313
-0.000245038
-0.0026015
-0.000249763
-0.00252839
-0.000254533
-0.00245429
-0.000258774
-0.00237879
-0.000263018
-0.00230229
-0.000266945
-0.00222466
-0.000270764
-0.00214598
-0.000274397
-0.00206635
-0.000277698
-0.00198599
-0.00028071
-0.00190444
-0.000283982
-0.00182218
-0.000286243
-0.00173985
-0.000288624
-0.00165621
-0.000291237
-0.0015722
-0.000293247
-0.00148713
-0.000294673
-0.00140253
-0.000295657
-0.00131712
-0.000297411
-0.00123161
-0.000298028
-0.00114615
-0.000298138
-0.00106016
-0.000298562
-0.000974368
-0.000298593
-0.000298439
-0.00088828
-0.0042846
7.79244e-05
-0.00429679
6.33056e-05
-0.00430872
5.25746e-05
-0.00431644
3.77086e-05
-0.00431996
2.46037e-05
-0.00432118
1.31475e-05
-0.00432247
1.1e-06
-0.00431727
-1.32982e-05
-0.00430991
-2.44185e-05
-0.00429864
-3.81249e-05
-0.00428528
-5.07037e-05
-0.00426973
-6.22095e-05
-0.00425014
-7.46217e-05
-0.00422908
-8.61131e-05
-0.00420615
-9.67387e-05
-0.00417819
-0.000110635
-0.0041483
-0.000121424
-0.00411573
-0.000132871
-0.00408046
-0.000144018
-0.00404282
-0.000154867
-0.00400253
-0.000165561
-0.00396012
-0.000175961
-0.00391512
-0.000186378
-0.00386767
-0.000196651
-0.00381764
-0.000206807
-0.00376564
-0.000216443
-0.00371133
-0.000226079
-0.0036547
-0.000235435
-0.00359598
-0.000244526
-0.00353532
-0.000253387
-0.00347251
-0.00026205
-0.00340767
-0.000270384
-0.00334109
-0.000278409
-0.00327273
-0.000286169
-0.00320248
-0.000293793
-0.00313042
-0.000301256
-0.00305696
-0.000308263
-0.00298165
-0.000315311
-0.00290479
-0.000321898
-0.00282634
-0.000328217
-0.00274672
-0.000334153
-0.00266566
-0.000339828
-0.00258347
-0.000345211
-0.00250001
-0.000350404
-0.00241541
-0.000355366
-0.00233007
-0.000359734
-0.00224252
-0.00036525
-0.0021545
-0.000368731
-0.00206626
-0.000372225
-0.0019766
-0.000375898
-0.00188646
-0.000378763
-0.00179597
-0.000381732
-0.00170437
-0.000384848
-0.00161246
-0.000386583
-0.0015189
-0.000389212
-0.00142596
-0.000390354
-0.00133298
-0.000391011
-0.00123951
-0.000391607
-0.00114562
-0.00039245
-0.00105252
-0.000391693
-0.000391833
-0.000959124
-0.00467337
9.51766e-05
-0.00468841
7.83523e-05
-0.00469728
6.14448e-05
-0.00470592
4.6356e-05
-0.00471236
3.10412e-05
-0.00471264
1.34283e-05
-0.00470885
-2.68582e-06
-0.00470476
-1.73897e-05
-0.00469469
-3.44916e-05
-0.00468442
-4.83948e-05
-0.0046701
-6.50216e-05
-0.00465177
-8.05428e-05
-0.00463131
-9.50758e-05
-0.00460691
-0.000110512
-0.00457849
-0.000125162
-0.00454815
-0.000140973
-0.00451521
-0.000154364
-0.00447977
-0.00016831
-0.00444098
-0.000182802
-0.00439943
-0.000196424
-0.00435538
-0.000209606
-0.00430841
-0.000222932
-0.00425892
-0.000235865
-0.00420692
-0.000248646
-0.00415246
-0.000261274
-0.00409527
-0.000273625
-0.00403588
-0.000285472
-0.00397399
-0.000297321
-0.0039098
-0.000308723
-0.00384353
-0.000319654
-0.0037749
-0.000330679
-0.00370412
-0.000341167
-0.00363141
-0.000351113
-0.00355686
-0.000360723
-0.00348016
-0.000370489
-0.00340178
-0.000379634
-0.00332135
-0.000388692
-0.00323919
-0.00039748
-0.00315545
-0.00040564
-0.00307018
-0.000413486
-0.00298316
-0.000421175
-0.00289489
-0.000428093
-0.00280525
-0.000434857
-0.00271405
-0.000441595
-0.00262194
-0.000447479
-0.00252868
-0.000452995
-0.00243492
-0.000459012
-0.00233946
-0.000464189
-0.00224272
-0.000468962
-0.00214548
-0.000473139
-0.00204702
-0.000477233
-0.0019475
-0.000481249
-0.00184835
-0.000483999
-0.00174759
-0.000487343
-0.00164717
-0.000489632
-0.0015461
-0.00049142
-0.00144373
-0.000493385
-0.00134171
-0.00049362
-0.00124037
-0.000493795
-0.00113838
-0.000493681
-0.000493559
-0.00103666
-0.00509398
0.000113191
-0.00510977
9.41441e-05
-0.00512145
7.31286e-05
-0.00512898
5.38874e-05
-0.00513043
3.25005e-05
-0.00513175
1.47495e-05
-0.00512891
-5.5231e-06
-0.00512194
-2.43617e-05
-0.00511287
-4.35602e-05
-0.005098
-6.32672e-05
-0.00508108
-8.19416e-05
-0.00506194
-9.96832e-05
-0.00503691
-0.000120106
-0.00500985
-0.000137573
-0.00498081
-0.000154209
-0.00494778
-0.000174003
-0.0049107
-0.000191438
-0.00487078
-0.000208227
-0.00482768
-0.000225906
-0.00478268
-0.000241423
-0.00473398
-0.000258304
-0.00468275
-0.000274163
-0.00462862
-0.000289997
-0.00457156
-0.000305699
-0.00451171
-0.000321122
-0.00444921
-0.000336129
-0.004384
-0.000350684
-0.00431651
-0.000364811
-0.00424664
-0.000378586
-0.00417419
-0.000392109
-0.00409927
-0.000405593
-0.00402221
-0.000418229
-0.00394276
-0.00043056
-0.00386149
-0.000441998
-0.0037782
-0.000453781
-0.00369276
-0.000465068
-0.00360532
-0.000476139
-0.0035158
-0.000486998
-0.00342446
-0.000496981
-0.00333133
-0.000506613
-0.00323668
-0.000515828
-0.00314005
-0.000524727
-0.00304261
-0.000532291
-0.00294388
-0.000540333
-0.00284412
-0.000547233
-0.00274237
-0.000554748
-0.00263924
-0.000562139
-0.00253547
-0.000567967
-0.00243144
-0.000572987
-0.00232518
-0.000579398
-0.00221847
-0.000583942
-0.00211158
-0.00058814
-0.00200282
-0.000592761
-0.00189395
-0.000596213
-0.00178395
-0.000599629
-0.00167348
-0.00060189
-0.0015635
-0.000603365
-0.00145285
-0.000604275
-0.00134177
-0.00060487
-0.00123083
-0.000604626
-0.000604273
-0.00112011
-0.00554641
0.000131821
-0.00556067
0.000108412
-0.00557112
8.35842e-05
-0.00557921
6.19763e-05
-0.0055835
3.6794e-05
-0.00558194
1.31979e-05
-0.00557837
-9.09662e-06
-0.00556839
-3.43374e-05
-0.00555637
-5.55761e-05
-0.00554096
-7.86819e-05
-0.00552343
-9.94697e-05
-0.00549996
-0.000123161
-0.00547412
-0.000145947
-0.00544456
-0.00016713
-0.00540965
-0.000189117
-0.0053741
-0.000209555
-0.00533464
-0.000230901
-0.00528917
-0.000253691
-0.00524325
-0.000271831
-0.00519237
-0.000292303
-0.00513827
-0.000312403
-0.00508217
-0.000330258
-0.00502328
-0.000348887
-0.00496069
-0.000368288
-0.00489518
-0.000386635
-0.00482669
-0.00040462
-0.00475546
-0.000421917
-0.00468158
-0.000438686
-0.00460516
-0.000455006
-0.00452622
-0.000471045
-0.00444441
-0.00048741
-0.00436057
-0.000502072
-0.00427407
-0.000517057
-0.00418618
-0.000529891
-0.00409559
-0.000544369
-0.00400278
-0.000557877
-0.00390785
-0.000571068
-0.00381037
-0.000584479
-0.00371063
-0.000596722
-0.00360941
-0.000607835
-0.00350658
-0.000618656
-0.00340193
-0.000629378
-0.00329509
-0.000639132
-0.00318842
-0.000647011
-0.00307951
-0.000656136
-0.00296842
-0.000665845
-0.00285803
-0.000672523
-0.00274485
-0.000681154
-0.00263141
-0.000686428
-0.00251704
-0.000693769
-0.0024006
-0.000700381
-0.00228437
-0.000704371
-0.00216681
-0.000710315
-0.00204936
-0.000713665
-0.00192948
-0.000719509
-0.00181021
-0.000721159
-0.00168931
-0.000724265
-0.00156912
-0.000724465
-0.00144869
-0.000725296
-0.00132879
-0.000724531
-0.000724885
-0.00120817
-0.00603038
0.000151027
-0.00604434
0.000122367
-0.00605523
9.44781e-05
-0.00605934
6.60781e-05
-0.00606225
3.97066e-05
-0.00606134
1.22851e-05
-0.00605598
-1.44478e-05
-0.00604583
-4.44943e-05
-0.00603044
-7.09561e-05
-0.00601441
-9.47132e-05
-0.00599237
-0.000121514
-0.0059667
-0.00014883
-0.00593867
-0.00017398
-0.00590376
-0.000202043
-0.00586959
-0.000223281
-0.00582819
-0.000250951
-0.00578244
-0.000276654
-0.00573534
-0.000300791
-0.00568162
-0.000325551
-0.00562691
-0.000347018
-0.0055696
-0.000369707
-0.00550649
-0.000393372
-0.00544338
-0.000411991
-0.00537455
-0.000437117
-0.00530214
-0.00045904
-0.00522815
-0.000478609
-0.00514935
-0.000500725
-0.00506955
-0.000518485
-0.00498428
-0.000540275
-0.00490036
-0.000554965
-0.00480909
-0.000578684
-0.00471938
-0.000591781
-0.00462357
-0.000612865
-0.00453
-0.00062346
-0.00443204
-0.000642329
-0.004331
-0.000658916
-0.00422926
-0.000672815
-0.00412252
-0.000691219
-0.00401367
-0.000705573
-0.00390534
-0.00071616
-0.00379163
-0.000732368
-0.0036765
-0.000744504
-0.00356267
-0.000752971
-0.00344398
-0.000765697
-0.00332932
-0.000770792
-0.00320687
-0.000788297
-0.00308815
-0.000791241
-0.00296346
-0.000805844
-0.00284293
-0.000806965
-0.00271907
-0.000817625
-0.00259232
-0.000827135
-0.00246869
-0.000828001
-0.00233972
-0.000839279
-0.00221406
-0.000839323
-0.00208145
-0.000852125
-0.00195383
-0.000848771
-0.00181983
-0.000858266
-0.00169354
-0.000850753
-0.00156014
-0.000858696
-0.00143255
-0.000852127
-0.00129836
-0.000859068
-0.000784382
-6.24335e-05
-0.000722302
-6.20803e-05
-0.000660594
-6.17089e-05
-0.000599293
-6.1301e-05
-0.000538455
-6.08383e-05
-0.000478131
-6.03245e-05
-0.000418572
-5.95601e-05
-0.00035982
-5.87523e-05
-0.000302079
-5.7742e-05
-0.000245477
-5.66027e-05
-0.000189958
-5.55197e-05
-0.000133728
-5.62296e-05
-7.57264e-05
-5.80023e-05
-1.65323e-05
-5.91943e-05
4.17196e-05
-5.82522e-05
9.74313e-05
-5.57118e-05
0.00015079
-5.33588e-05
0.00020234
-5.155e-05
0.000252298
-4.99583e-05
0.000300688
-4.83906e-05
0.000347532
-4.68442e-05
0.000392774
-4.52421e-05
0.000436349
-4.35749e-05
0.000478126
-4.17775e-05
0.000518045
-3.99198e-05
0.000556044
-3.79992e-05
0.000592004
-3.59603e-05
0.000625793
-3.37898e-05
0.000657297
-3.15047e-05
0.000686426
-2.91291e-05
0.000712982
-2.65563e-05
0.000736807
-2.38264e-05
0.000757782
-2.09754e-05
0.000775662
-1.78809e-05
0.000790232
-1.45713e-05
0.000801303
-1.10711e-05
0.000808626
-7.32437e-06
0.000811841
-3.21558e-06
0.000811665
1.74392e-07
0.000807935
3.72973e-06
0.000800857
7.0763e-06
0.000789718
1.11382e-05
0.000774015
1.57023e-05
0.000753331
2.06829e-05
0.000727039
2.62916e-05
0.000694519
3.2519e-05
0.000655161
3.9358e-05
0.000608232
4.69284e-05
0.00055288
5.53517e-05
0.000488339
6.45412e-05
0.000413879
7.44607e-05
0.000328926
8.49525e-05
0.000233008
9.59196e-05
0.000125693
0.000107315
3.08913e-07
0.000125385
-0.000139993
0.000140303
-0.000271299
0.000131306
-0.000381566
0.000110268
-0.000465741
8.41756e-05
-0.000528108
6.23681e-05
5.13874e-05
-0.000579495
-0.000721596
-0.000133594
-0.000650123
-0.000133554
-0.000578864
-0.000132968
-0.000507859
-0.000132305
-0.000437475
-0.000131222
-0.000367201
-0.000130599
-0.00029746
-0.000129301
-0.000228103
-0.00012811
-0.000159459
-0.000126386
-9.13551e-05
-0.000124706
-2.29607e-05
-0.000123914
4.59013e-05
-0.000125091
0.000113817
-0.000125918
0.000180427
-0.000125804
0.000246263
-0.000124088
0.000311463
-0.000120911
0.000375615
-0.000117511
0.000438461
-0.000114396
0.000499905
-0.000111402
0.000559965
-0.00010845
0.000618649
-0.000105527
0.000675818
-0.000102411
0.000731447
-9.92034e-05
0.00078553
-9.58594e-05
0.000837964
-9.23528e-05
0.000888689
-8.87229e-05
0.000937573
-8.48437e-05
0.000984636
-8.08515e-05
0.00102973
-7.65973e-05
0.00107268