/*--------------------------------*- C++ -*----------------------------------*\
| =========                 |                                                 |
| \\      /  F ield         | OpenFOAM: The Open Source CFD Toolbox           |
|  \\    /   O peration     | Version:  2.3.1                                 |
|   \\  /    A nd           | Web:      www.OpenFOAM.org                      |
|    \\/     M anipulation  |                                                 |
\*---------------------------------------------------------------------------*/
FoamFile
{
    version     2.0;
    format      ascii;
    class       volVectorField;
    location    "0.44";
    object      U;
}
// * * * * * * * * * * * * * * * * * * * * * * * * * * * * * * * * * * * * * //

dimensions      [0 1 -1 0 0 0 0];

internalField   nonuniform List<vector> 
9648
(
(0.155197 -4.78467 -2.54341e-22)
(0.278362 -4.74802 -2.3304e-23)
(0.400351 -4.7161 0)
(0.521118 -4.68689 0)
(0.642439 -4.663 8.03258e-21)
(0.764729 -4.64542 1.2317e-20)
(0.890412 -4.63719 -2.41757e-20)
(1.02192 -4.64092 -1.14712e-20)
(1.16078 -4.65768 1.14437e-20)
(1.30721 -4.68938 3.56111e-20)
(1.46325 -4.73775 -3.54665e-20)
(1.63076 -4.80387 -5.19515e-20)
(1.81175 -4.88841 2.76948e-19)
(2.00828 -4.99134 7.22859e-20)
(2.22208 -5.11194 -6.79212e-19)
(2.45445 -5.24904 0)
(2.70662 -5.40106 0)
(2.97946 -5.56604 1.25361e-19)
(3.2737 -5.74139 4.04791e-19)
(3.5894 -5.92429 -1.16688e-18)
(3.92662 -6.1121 -2.09105e-20)
(4.28528 -6.30177 3.22275e-19)
(4.66467 -6.49046 3.82584e-19)
(5.06418 -6.67544 -1.74418e-18)
(5.48285 -6.85397 0)
(5.91965 -7.02333 1.04825e-18)
(6.37333 -7.18101 -1.10036e-18)
(6.84252 -7.32493 0)
(7.3258 -7.45295 0)
(7.82152 -7.56335 -6.70449e-19)
(8.32813 -7.65438 -1.48583e-18)
(8.84372 -7.72443 2.33503e-18)
(9.36669 -7.77237 0)
(9.89531 -7.797 0)
(10.4278 -7.79767 1.79369e-18)
(10.9626 -7.77349 -1.93236e-18)
(11.4976 -7.72401 0)
(12.0314 -7.64892 4.1546e-18)
(12.5621 -7.54783 1.12187e-18)
(13.0879 -7.4206 -3.32143e-18)
(13.6069 -7.26724 6.30564e-20)
(14.1178 -7.08823 2.366e-18)
(14.6187 -6.88344 -3.14531e-18)
(15.1079 -6.65341 6.3279e-19)
(15.5842 -6.39889 0)
(16.0462 -6.12003 0)
(16.4922 -5.81752 4.78033e-18)
(16.921 -5.49217 6.9981e-19)
(17.3319 -5.14494 -2.16365e-18)
(17.7243 -4.77583 -7.28491e-19)
(18.0961 -4.38534 -7.58231e-19)
(18.4454 -3.9759 7.5349e-19)
(18.7721 -3.54927 3.89478e-19)
(19.0752 -3.10621 -3.87355e-19)
(19.3535 -2.64845 1.97802e-18)
(19.6067 -2.17708 -1.94785e-18)
(19.8339 -1.69355 -2.17342e-20)
(20.0346 -1.1991 0)
(20.2083 -0.695177 -3.95901e-19)
(20.3547 -0.183464 -5.12191e-20)
(20.4736 0.334828 -4.85613e-20)
(-0.0701589 -2.47367 2.6614e-22)
(0.00103474 -2.47724 0)
(0.0728678 -2.49045 0)
(0.146835 -2.51499 2.96515e-21)
(0.224754 -2.55927 -4.04581e-21)
(0.311548 -2.62664 -2.9427e-20)
(0.40901 -2.71573 0)
(0.518827 -2.82442 0)
(0.642945 -2.9531 -3.85785e-20)
(0.781888 -3.10213 0)
(0.936952 -3.27043 -9.60352e-20)
(1.10898 -3.4565 7.64846e-20)
(1.29893 -3.65905 -4.15419e-20)
(1.5078 -3.8764 0)
(1.73642 -4.1066 2.6426e-19)
(1.98513 -4.3476 1.57396e-19)
(2.2543 -4.59722 -1.54871e-19)
(2.54403 -4.85324 2.02891e-19)
(2.85444 -5.11309 -6.1858e-19)
(3.18529 -5.37422 4.94806e-19)
(3.53629 -5.63417 -5.49313e-19)
(3.90728 -5.89045 -2.9658e-19)
(4.29755 -6.14079 -3.0453e-19)
(4.70634 -6.38296 1.05041e-18)
(5.13272 -6.61475 3.64131e-19)
(5.57573 -6.83387 4.3437e-19)
(6.03421 -7.03819 -3.84476e-19)
(6.50688 -7.22598 0)
(6.99249 -7.39548 0)
(7.48947 -7.54529 0)
(7.9965 -7.67389 0)
(8.51185 -7.77998 0)
(9.03405 -7.86255 0)
(9.56165 -7.92068 0)
(10.0929 -7.95376 -8.05527e-19)
(10.6263 -7.96102 7.31089e-19)
(11.1601 -7.94213 8.07738e-19)
(11.6927 -7.89678 -4.10486e-18)
(12.2225 -7.82464 -8.72193e-19)
(12.7478 -7.72564 2.68328e-18)
(13.2668 -7.59989 1.88441e-18)
(13.7779 -7.44782 -1.94596e-18)
(14.2796 -7.26928 9.2942e-19)
(14.7702 -7.06498 9.81355e-19)
(15.2483 -6.83554 -1.04423e-18)
(15.7126 -6.58118 1.03494e-18)
(16.1614 -6.30276 -2.22042e-18)
(16.5935 -6.00111 0)
(17.0075 -5.67722 -5.67713e-19)
(17.4026 -5.33122 1.14102e-18)
(17.7782 -4.96371 -5.73464e-19)
(18.133 -4.57661 0)
(18.4658 -4.17132 1.17969e-18)
(18.7757 -3.74865 0)
(19.0618 -3.31009 0)
(19.3233 -2.85679 2.7988e-18)
(19.5595 -2.39009 -1.2617e-18)
(19.7697 -1.91161 -3.07025e-19)
(19.9535 -1.42222 3.24137e-19)
(20.1105 -0.923664 0)
(20.2401 -0.417191 8.154e-20)
(0.0432747 -1.40165 -4.17841e-22)
(0.0993866 -1.44639 0)
(0.161896 -1.50746 2.92061e-22)
(0.231246 -1.59047 -2.92182e-22)
(0.307933 -1.69343 0)
(0.395834 -1.81451 2.40642e-20)
(0.496231 -1.95587 1.72076e-20)
(0.610493 -2.11647 0)
(0.740207 -2.29596 2.20676e-21)
(0.88718 -2.49297 4.00689e-20)
(1.05243 -2.70648 8.17674e-20)
(1.23662 -2.93461 -2.84381e-20)
(1.44036 -3.17561 0)
(1.66407 -3.42735 0)
(1.90808 -3.68774 1.99677e-19)
(2.17237 -3.95471 -1.28307e-19)
(2.45687 -4.22606 -1.37975e-19)
(2.76132 -4.49963 0)
(3.08538 -4.77306 5.35653e-19)
(3.42874 -5.044 -5.56713e-19)
(3.79105 -5.31028 -4.17431e-19)
(4.17193 -5.56984 -4.61072e-19)
(4.57065 -5.82079 0)
(4.98632 -6.06131 -8.31125e-19)
(5.41783 -6.28942 -2.92684e-19)
(5.86417 -6.50307 3.49104e-19)
(6.32425 -6.7004 3.86259e-19)
(6.79683 -6.87987 0)
(7.28065 -7.04008 0)
(7.77434 -7.17984 0)
(8.27644 -7.29789 0)
(8.7855 -7.39318 0)
(9.30014 -7.46482 0)
(9.81885 -7.51206 0)
(10.3401 -7.53435 -1.76527e-18)
(10.8623 -7.53113 5.86585e-19)
(11.3839 -7.5021 -6.48272e-19)
(11.9033 -7.44704 3.2636e-18)
(12.4189 -7.3658 0)
(12.9291 -7.25843 1.39062e-18)
(13.4322 -7.12512 1.43924e-18)
(13.9268 -6.96616 7.13186e-19)
(14.4114 -6.78169 -8.18258e-19)
(14.8844 -6.57225 -1.57625e-18)
(15.3445 -6.33837 2.45762e-18)
(15.7904 -6.08057 -8.31557e-19)
(16.2206 -5.79962 -1.69734e-18)
(16.6342 -5.49634 0)
(17.0297 -5.17173 0)
(17.406 -4.82678 -4.64098e-19)
(17.7623 -4.46264 -4.53844e-19)
(18.0976 -4.08018 -9.28554e-19)
(18.4112 -3.68051 -9.72415e-19)
(18.702 -3.26504 0)
(18.9694 -2.83459 -9.62265e-19)
(19.2125 -2.39089 -1.00321e-18)
(19.4309 -1.93469 0)
(19.6238 -1.46818 1.63409e-20)
(19.7906 -0.991695 0)
(19.9311 -0.506986 0)
(20.0453 -0.0150782 -6.22146e-20)
(0.0154186 -0.879565 8.38946e-22)
(0.0733742 -0.962112 -1.34189e-21)
(0.143794 -1.06257 1.34354e-21)
(0.225239 -1.18105 -1.21473e-21)
(0.318129 -1.31698 0)
(0.422577 -1.47018 -9.93206e-21)
(0.540188 -1.64096 -1.48503e-20)
(0.672329 -1.82888 0)
(0.820474 -2.03318 3.03032e-21)
(0.985554 -2.2528 -3.423e-20)
(1.16847 -2.48637 7.73946e-20)
(1.36959 -2.73225 9.47982e-20)
(1.58934 -2.98845 0)
(1.82798 -3.25292 -7.65774e-20)
(2.08579 -3.52364 -1.62957e-19)
(2.36251 -3.79867 -8.71222e-20)
(2.65793 -4.07596 3.38893e-19)
(2.97169 -4.35346 -2.45612e-19)
(3.30336 -4.62895 2.76277e-19)
(3.65275 -4.90019 4.71972e-19)
(4.01964 -5.16525 6.84806e-19)
(4.40349 -5.42244 3.87683e-19)
(4.80368 -5.67019 1.86563e-19)
(5.21903 -5.90697 6.81233e-19)
(5.64853 -6.13088 2.23888e-19)
(6.09118 -6.33991 2.55365e-19)
(6.54598 -6.53234 3.02305e-19)
(7.01205 -6.70679 -9.05085e-19)
(7.48814 -6.86215 6.51001e-19)
(7.97288 -6.99738 7.37303e-19)
(8.46506 -7.11145 -1.50822e-18)
(8.96323 -7.20332 7.70545e-19)
(9.46611 -7.27211 -8.26502e-19)
(9.9725 -7.31711 4.11997e-19)
(10.4808 -7.33782 4.52429e-19)
(10.9896 -7.33376 5.03122e-19)
(11.4973 -7.30464 -4.96791e-19)
(12.0026 -7.25037 -5.42077e-19)
(12.5037 -7.17087 -1.62612e-18)
(12.9993 -7.06618 -1.17447e-18)
(13.4878 -6.93652 -2.38254e-18)
(13.9677 -6.78205 -3.08873e-18)
(14.4377 -6.60306 1.26704e-18)
(14.8963 -6.39994 2.88372e-20)
(15.3423 -6.17323 -7.10742e-19)
(15.7743 -5.92347 -6.97412e-19)
(16.1911 -5.65134 4.21781e-18)
(16.5916 -5.35762 -7.07152e-19)
(16.9747 -5.04312 0)
(17.3393 -4.70876 0)
(17.6845 -4.35556 -7.11203e-19)
(18.0093 -3.98472 3.19217e-20)
(18.313 -3.59725 7.63882e-19)
(18.5948 -3.19428 0)
(18.8538 -2.77709 8.14244e-19)
(19.0893 -2.34703 0)
(19.3007 -1.90525 0)
(19.4875 -1.45272 6.21079e-19)
(19.6492 -0.991 1.97566e-19)
(19.7856 -0.521558 -2.01369e-19)
(19.8962 -0.0458696 1.03078e-19)
(0.106025 -0.617359 4.16044e-23)
(0.165197 -0.722143 1.17293e-21)
(0.238489 -0.842681 -2.57313e-21)
(0.325925 -0.979836 -2.28697e-22)
(0.427192 -1.13379 -1.01258e-21)
(0.542899 -1.30427 3.86359e-21)
(0.673711 -1.49103 2.1919e-21)
(0.820381 -1.69325 -1.04878e-20)
(0.984006 -1.91013 3.46618e-20)
(1.16478 -2.14048 -5.0488e-20)
(1.36332 -2.38282 5.72642e-20)
(1.57943 -2.63549 -7.27567e-20)
(1.81343 -2.89645 -4.23468e-20)
(2.06519 -3.16368 0)
(2.33504 -3.43522 8.01309e-20)
(2.62235 -3.70946 7.69478e-20)
(2.92683 -3.98445 0)
(3.24814 -4.25819 1.9191e-19)
(3.58572 -4.52854 0)
(3.93961 -4.79325 -2.56191e-19)
(4.3097 -5.05077 2.80349e-19)
(4.69527 -5.29978 1.02913e-20)
(5.09562 -5.53897 -1.65553e-20)
(5.50945 -5.76708 2.8544e-20)
(5.93565 -5.98197 -7.97238e-19)
(6.37346 -6.1817 -4.58817e-19)
(6.82207 -6.36469 9.45419e-19)
(7.2808 -6.52971 1.02787e-18)
(7.74844 -6.67611 -5.57546e-19)
(8.22377 -6.80295 0)
(8.70549 -6.90921 0)
(9.19218 -6.99394 0)
(9.68285 -7.05603 7.09239e-19)
(10.1763 -7.09485 -2.93139e-18)
(10.6711 -7.11007 1.53593e-18)
(11.1657 -7.10129 -7.81606e-19)
(11.659 -7.06824 -1.68957e-18)
(12.1492 -7.01106 1.71501e-18)
(12.6351 -6.92962 3.95696e-20)
(13.1151 -6.82394 -9.70696e-19)
(13.588 -6.69425 1.00303e-18)
(14.0522 -6.54068 1.03819e-18)
(14.5065 -6.36348 0)
(14.9495 -6.16297 -1.05547e-18)
(15.38 -5.93975 0)
(15.7968 -5.69434 -1.68856e-18)
(16.1986 -5.42743 5.21931e-19)
(16.5844 -5.13972 0)
(16.9532 -4.83193 -6.13567e-19)
(17.3039 -4.50507 -1.49398e-20)
(17.6357 -4.15998 1.30836e-18)
(17.9478 -3.79783 -6.21884e-19)
(18.2393 -3.4197 -3.46245e-19)
(18.5095 -3.02669 6.33796e-19)
(18.7576 -2.62018 -4.93334e-21)
(18.9829 -2.20116 3.30802e-19)
(19.1845 -1.77092 1.59837e-19)
(19.3622 -1.33041 3.37556e-19)
(19.5157 -0.880868 -8.48271e-19)
(19.6445 -0.42379 3.40821e-19)
(19.7485 0.039262 -4.36266e-20)
(0.187469 -0.476592 -3.95898e-22)
(0.259284 -0.596278 0)
(0.346229 -0.730973 3.61013e-21)
(0.448498 -0.881461 0)
(0.565078 -1.04775 -3.13747e-22)
(0.696978 -1.22933 3.78141e-21)
(0.844487 -1.42582 5.84112e-21)
(1.00809 -1.63611 2.07032e-20)
(1.18882 -1.85929 3.56627e-21)
(1.38614 -2.09422 5.45833e-21)
(1.60078 -2.33931 9.4198e-22)
(1.83183 -2.59305 -2.72952e-20)
(2.07973 -2.85332 4.12558e-20)
(2.34363 -3.11813 -1.26002e-19)
(2.62455 -3.38557 1.08836e-19)
(2.92135 -3.65467 -8.1375e-21)
(3.23354 -3.92322 -1.36608e-19)
(3.56115 -4.18938 -1.65631e-19)
(3.90326 -4.45107 0)
(4.26026 -4.70594 1.97757e-19)
(4.63221 -4.95292 8.39878e-21)
(5.01785 -5.19127 -5.18056e-19)
(5.41699 -5.41972 -2.28603e-20)
(5.82759 -5.63722 -2.82634e-19)
(6.24896 -5.84127 9.98947e-19)
(6.6805 -6.02986 3.46982e-20)
(7.12134 -6.20174 -3.72392e-19)
(7.57142 -6.35601 -4.04896e-20)
(8.02938 -6.49254 0)
(8.49375 -6.61033 0)
(8.96391 -6.70816 0)
(9.438 -6.78508 0)
(9.91499 -6.83975 0)
(10.3943 -6.87164 5.72575e-20)
(10.8742 -6.88085 -6.5816e-19)
(11.3533 -6.8671 -3.93549e-20)
(11.8307 -6.82999 2.80562e-20)
(12.3045 -6.77003 6.82227e-19)
(12.7736 -6.68687 1.56076e-18)
(13.237 -6.58032 -2.35578e-18)
(13.6931 -6.45086 1.64089e-18)
(14.1406 -6.29849 -8.28754e-19)
(14.5779 -6.12355 0)
(15.0043 -5.92614 9.22181e-19)
(15.4183 -5.70699 0)
(15.8188 -5.46664 9.72187e-19)
(16.2048 -5.20555 -9.955e-19)
(16.5749 -4.92476 4.6767e-19)
(16.9285 -4.62456 4.99982e-19)
(17.2645 -4.306 -5.22285e-19)
(17.5822 -3.96994 3.73596e-20)
(17.8807 -3.6176 -1.08439e-20)
(18.1594 -3.24974 1.06379e-18)
(18.4176 -2.86776 -1.09553e-18)
(18.6545 -2.4729 -5.40747e-19)
(18.8691 -2.06647 -2.64818e-19)
(19.0608 -1.64924 -8.42979e-19)
(19.2291 -1.22208 0)
(19.3742 -0.786102 5.69922e-19)
(19.4956 -0.343151 -1.46378e-19)
(19.593 0.105509 0)
(0.289492 -0.407176 0)
(0.375335 -0.536995 0)
(0.477375 -0.681945 -1.79568e-21)
(0.596749 -0.842376 2.17297e-21)
(0.730373 -1.01773 -1.07384e-21)
(0.880278 -1.20689 -6.31067e-21)
(1.04586 -1.40942 3.83622e-21)
(1.22692 -1.62386 -1.39953e-20)
(1.42569 -1.84949 -1.15968e-21)
(1.63943 -2.08518 4.01726e-20)
(1.87053 -2.3293 -7.6887e-20)
(2.11598 -2.58071 0)
(2.37754 -2.83695 0)
(2.65225 -3.0963 1.43122e-19)
(2.94376 -3.35641 9.31059e-20)
(3.24918 -3.61769 -2.06318e-19)
(3.56784 -3.8773 3.36001e-19)
(3.90111 -4.13342 1.4123e-19)
(4.24663 -4.38443 -2.82558e-19)
(4.60539 -4.6274 -1.72213e-19)
(4.97856 -4.86204 1.99608e-19)
(5.3627 -5.08848 -4.13148e-21)
(5.75959 -5.30463 0)
(6.1659 -5.51056 5.19787e-19)
(6.58121 -5.70234 -8.56767e-19)
(7.00581 -5.87833 2.85316e-19)
(7.43775 -6.03832 6.32474e-19)
(7.87839 -6.18088 -1.7665e-18)
(8.32559 -6.3072 3.60182e-19)
(8.77793 -6.41567 0)
(9.23572 -6.50393 0)
(9.69617 -6.57229 0)
(10.1585 -6.61864 4.96948e-19)
(10.6227 -6.64251 1.54061e-18)
(11.0871 -6.64525 -1.04384e-18)
(11.5492 -6.6266 5.77781e-19)
(12.0096 -6.58499 6.34176e-19)
(12.4658 -6.52248 -1.25905e-18)
(12.9169 -6.43751 0)
(13.3625 -6.32944 -1.29533e-18)
(13.8008 -6.19988 6.73104e-19)
(14.2306 -6.04828 3.50918e-20)
(14.65 -5.87565 -3.16556e-20)
(15.0586 -5.68109 7.4308e-19)
(15.4552 -5.46592 3.16675e-20)
(15.8383 -5.23091 -2.37721e-18)
(16.2074 -4.97566 8.05891e-19)
(16.5608 -4.702 -1.67564e-18)
(16.8981 -4.40933 0)
(17.2183 -4.0995 0)
(17.5209 -3.77245 1.77291e-18)
(17.8049 -3.4304 -4.23628e-19)
(18.0696 -3.07324 -9.19633e-19)
(18.3151 -2.70228 -4.42281e-19)
(18.5401 -2.31961 1.41305e-18)
(18.7434 -1.92627 7.13146e-19)
(18.9243 -1.52251 2.46644e-19)
(19.0825 -1.10954 -4.627e-21)
(19.2183 -0.687453 -2.46935e-19)
(19.3319 -0.258739 0)
(19.4222 0.174762 0)
(0.40741 -0.383065 4.07539e-22)
(0.510968 -0.519888 0)
(0.629609 -0.671956 0)
(0.768991 -0.839782 -1.26302e-21)
(0.920278 -1.02166 0)
(1.08935 -1.21559 9.15205e-22)
(1.27342 -1.42123 3.85419e-21)
(1.47109 -1.63668 -8.10445e-21)
(1.68925 -1.86188 0)
(1.91809 -2.09558 -2.40946e-20)
(2.16674 -2.33616 3.7108e-21)
(2.42499 -2.58318 0)
(2.70098 -2.83339 0)
(2.9835 -3.08568 -6.00203e-20)
(3.28598 -3.33517 6.61581e-20)
(3.59971 -3.58728 -8.40396e-20)
(3.923 -3.83648 -9.72671e-20)
(4.26196 -4.08062 0)
(4.60942 -4.32048 1.26182e-19)
(4.96842 -4.55038 -2.67374e-19)
(5.34331 -4.77131 -3.01988e-19)
(5.72327 -4.98591 -3.56149e-19)
(6.1181 -5.18826 -3.24436e-20)
(6.51904 -5.38218 -4.53718e-19)
(6.92736 -5.56105 4.36074e-19)
(7.34535 -5.72351 4.86578e-19)
(7.76644 -5.8718 -5.56323e-19)
(8.19755 -6.00198 3.03544e-20)
(8.63382 -6.11829 4.17301e-20)
(9.07183 -6.21708 -6.46028e-19)
(9.51717 -6.29403 0)
(9.96324 -6.35332 -7.87604e-19)
(10.4096 -6.39047 1.56381e-18)
(10.8581 -6.40557 -4.32088e-20)
(11.306 -6.4026 9.22559e-19)
(11.7482 -6.38105 -9.21252e-19)
(12.1918 -6.33435 1.01745e-18)
(12.6297 -6.26973 1.06199e-18)
(13.0611 -6.18257 -2.09939e-18)
(13.4882 -6.07179 1.14963e-18)
(13.9073 -5.94221 1.13076e-18)
(14.3191 -5.79082 1.78812e-18)
(14.7186 -5.62089 -6.37143e-19)
(15.1086 -5.42811 0)
(15.4869 -5.21709 3.42347e-20)
(15.8509 -4.98848 6.93722e-19)
(16.2027 -4.73872 -6.74789e-19)
(16.5376 -4.47362 7.2722e-19)
(16.8577 -4.18845 0)
(17.1604 -3.88841 0)
(17.4473 -3.57029 -3.9978e-20)
(17.7156 -3.2396 7.8312e-19)
(17.9651 -2.89253 0)
(18.1969 -2.53239 3.89327e-19)
(18.4096 -2.1631 3.92882e-19)
(18.601 -1.78399 -8.00838e-19)
(18.7706 -1.39431 -3.92974e-19)
(18.917 -0.996666 -2.08892e-19)
(19.0424 -0.588049 0)
(19.1478 -0.174679 0)
(19.2306 0.242165 2.504e-20)
(0.541338 -0.38801 -1.12796e-21)
(0.669297 -0.528554 2.4121e-21)
(0.804365 -0.683314 -1.62949e-23)
(0.970282 -0.856258 -2.69633e-21)
(1.13581 -1.04126 3.99584e-21)
(1.32385 -1.23958 -2.02732e-21)
(1.52735 -1.444 0)
(1.73795 -1.65639 1.32466e-21)
(1.98072 -1.87946 -1.07457e-20)
(2.21884 -2.10755 0)
(2.49094 -2.34317 5.00398e-20)
(2.75474 -2.58522 -3.20334e-20)
(3.04865 -2.82932 3.27487e-20)
(3.33148 -3.0747 4.26929e-20)
(3.64771 -3.30775 -5.71407e-20)
(3.96934 -3.55164 -7.0596e-20)
(4.29286 -3.79017 2.33815e-19)
(4.64191 -4.0186 -2.43969e-19)
(4.98492 -4.24974 0)
(5.33916 -4.46808 -9.73594e-21)
(5.7224 -4.67439 7.4149e-19)
(6.08932 -4.88008 -2.9007e-20)
(6.48948 -5.06279 -3.55081e-19)
(6.87923 -5.24743 6.79965e-19)
(7.27904 -5.41552 0)
(7.69353 -5.56457 -4.19689e-19)
(8.09729 -5.70351 -4.32432e-19)
(8.52042 -5.82031 9.61958e-19)
(8.94672 -5.92744 -5.64212e-21)
(9.36646 -6.01721 5.72441e-19)
(9.80195 -6.07836 -1.16796e-18)
(10.23 -6.1303 1.86314e-18)
(10.6576 -6.16072 -1.33806e-18)
(11.0914 -6.16804 -1.4117e-18)
(11.525 -6.16046 0)
(11.9417 -6.13807 8.06553e-19)
(12.3732 -6.08373 0)
(12.789 -6.01946 -3.49555e-21)
(13.1988 -5.93093 9.58166e-19)
(13.6103 -5.81353 -1.78187e-18)
(14.0078 -5.68277 -6.52158e-21)
(14.403 -5.53169 -1.97673e-18)
(14.777 -5.36758 0)
(15.1472 -5.17799 -5.67475e-19)
(15.5082 -4.97259 2.17865e-18)
(15.8484 -4.7516 -5.54282e-19)
(16.1866 -4.50678 5.87835e-19)
(16.4989 -4.25139 0)
(16.8037 -3.97272 6.05955e-19)
(17.0863 -3.68158 -1.82929e-18)
(17.3583 -3.36873 -2.56927e-20)
(17.6094 -3.04958 0)
(17.8406 -2.71535 6.29877e-19)
(18.0593 -2.36647 -1.89766e-20)
(18.2607 -2.00832 0)
(18.4371 -1.6421 3.55735e-19)
(18.5972 -1.27414 -3.23111e-19)
(18.7292 -0.893893 3.38889e-19)
(18.8423 -0.499846 3.3637e-19)
(18.9424 -0.0983022 -1.68996e-19)
(19.0144 0.302512 -6.39669e-20)
(20.5644 0.858779 1.51107e-19)
(20.6264 1.38667 -5.12363e-20)
(20.6603 1.91801 0)
(20.666 2.4503 0)
(20.6439 2.98178 8.14696e-19)
(20.5942 3.51134 1.17227e-18)
(20.5169 4.03718 -1.20745e-18)
(20.4123 4.55785 -3.98017e-19)
(20.2805 5.07185 3.97953e-19)
(20.122 5.5781 7.7908e-19)
(19.9373 6.07601 -7.79531e-19)
(19.7263 6.56373 -7.58153e-19)
(19.4905 7.04017 3.77096e-18)
(19.2312 7.50422 7.33597e-19)
(18.9488 7.95437 -6.47373e-18)
(18.644 8.38909 0)
(18.3176 8.80747 0)
(17.9708 9.20856 6.7375e-19)
(17.6045 9.59181 1.99028e-18)
(17.2194 9.95586 -5.11648e-18)
(16.817 10.3 -7.51572e-20)
(16.3982 10.6239 1.17282e-18)
(15.964 10.9263 1.20707e-18)
(15.5156 11.2067 -4.50492e-18)
(15.0543 11.465 0)
(14.5813 11.7011 2.11681e-18)
(14.0968 11.9146 -1.9617e-18)
(13.6026 12.1038 0)
(13.1004 12.2682 0)
(12.5919 12.4075 -8.99475e-19)
(12.0783 12.5219 -1.64515e-18)
(11.5608 12.6109 2.34542e-18)
(11.0411 12.6747 0)
(10.5201 12.7134 0)
(9.99941 12.7267 1.1849e-18)
(9.48006 12.7152 -1.12715e-18)
(8.96343 12.6787 0)
(8.45084 12.6179 1.77892e-18)
(7.94329 12.5329 3.71241e-19)
(7.44207 12.4241 -1.02738e-18)
(6.94838 12.2919 3.58669e-20)
(6.46364 12.137 4.34644e-19)
(5.98863 11.9602 -4.31762e-19)
(5.52455 11.7616 7.57376e-20)
(5.07258 11.5423 0)
(4.63344 11.303 0)
(4.2082 11.0443 -1.63822e-19)
(3.79775 10.7671 -3.58892e-20)
(3.40312 10.4725 2.17538e-19)
(3.02501 10.1614 9.07946e-20)
(2.66403 9.83479 1.42739e-19)
(2.321 9.49346 -1.44602e-19)
(1.99671 9.13872 -9.71219e-20)
(1.69144 8.77176 9.84482e-20)
(1.40591 8.3935 -5.88716e-19)
(1.14053 8.00537 6.42764e-19)
(0.895722 7.60851 -1.37649e-21)
(0.671794 7.20442 0)
(0.468919 6.79415 1.63932e-19)
(0.287451 6.3788 2.22745e-20)
(0.12747 5.95961 2.35871e-20)
(20.3419 0.0955773 -8.16361e-20)
(20.415 0.612574 0)
(20.4602 1.13121 0)
(20.4781 1.65124 9.37849e-19)
(20.4683 2.1713 -6.27183e-19)
(20.4313 2.69017 -2.21074e-18)
(20.3672 3.20612 0)
(20.2762 3.71807 0)
(20.1583 4.22448 -1.2044e-18)
(20.0138 4.72373 0)
(19.8429 5.2152 -1.76535e-18)
(19.6462 5.69662 1.1714e-18)
(19.4251 6.16617 -5.81553e-19)
(19.1809 6.62344 0)
(18.9137 7.06811 2.30122e-18)
(18.6238 7.49883 1.07795e-18)
(18.312 7.91444 -1.08011e-18)
(17.9795 8.31373 1.02773e-18)
(17.6269 8.69607 -3.03717e-18)
(17.2554 9.06025 2.04587e-18)
(16.8663 9.40514 -1.98724e-18)
(16.4603 9.73028 -1.01337e-18)
(16.0387 10.0345 -9.16501e-19)
(15.6026 10.317 2.65993e-18)
(15.1533 10.577 8.52573e-19)
(14.6916 10.8145 7.80372e-19)
(14.2186 11.0295 -7.04873e-19)
(13.7361 11.2212 0)
(13.2453 11.3889 0)
(12.7476 11.5319 0)
(12.2442 11.6502 0)
(11.7364 11.7437 0)
(11.2258 11.812 0)
(10.7134 11.8555 0)
(10.2007 11.8738 -4.93405e-19)
(9.68897 11.8672 4.37802e-19)
(9.17951 11.8356 3.51028e-19)
(8.67353 11.7795 -1.70445e-18)
(8.17217 11.6992 -2.6641e-19)
(7.67676 11.595 7.95179e-19)
(7.18852 11.4672 4.38434e-19)
(6.70882 11.3164 -3.50421e-19)
(6.23853 11.1432 1.30269e-19)
(5.779 10.9481 9.6027e-20)
(5.33133 10.7317 -9.24229e-21)
(4.89633 10.4949 9.34609e-21)
(4.47508 10.2382 8.96683e-20)
(4.06855 9.96243 0)
(3.67778 9.66863 7.99978e-20)
(3.30358 9.35774 -1.81711e-19)
(2.94659 9.03063 1.02005e-19)
(2.60774 8.6882 0)
(2.28786 8.33157 -3.04923e-19)
(1.98723 7.96191 0)
(1.70676 7.58016 0)
(1.44668 7.18774 -9.49046e-19)
(1.20766 6.78585 4.57956e-19)
(0.989899 6.3759 1.26709e-19)
(0.793963 5.9589 -1.32525e-19)
(0.620167 5.53611 0)
(0.468745 5.10877 -3.74058e-20)
(20.1329 0.481982 6.22745e-20)
(20.1942 0.982992 0)
(20.2287 1.48445 -2.48584e-19)
(20.2354 1.98629 -1.64367e-20)
(20.2153 2.48715 0)
(20.169 2.98635 1.99598e-18)
(20.0966 3.48303 9.74618e-19)
(19.9976 3.97692 0)
(19.8725 4.46577 3.23179e-20)
(19.7214 4.94744 9.44116e-19)
(19.5452 5.42015 1.43464e-18)
(19.3453 5.88256 -4.7165e-19)
(19.1219 6.33303 0)
(18.8756 6.77061 0)
(18.6066 7.19488 1.73801e-18)
(18.3161 7.605 -8.57821e-19)
(18.0048 7.99994 -8.03795e-19)
(17.6737 8.37876 0)
(17.3237 8.74065 2.42899e-18)
(16.9557 9.08465 -2.3308e-18)
(16.5711 9.40984 -1.48884e-18)
(16.1707 9.71551 -1.44089e-18)
(15.7556 10.0007 0)
(15.3271 10.2649 -2.05941e-18)
(14.8861 10.5072 -6.72085e-19)
(14.4338 10.7271 6.14165e-19)
(13.9717 10.9242 6.04605e-19)
(13.5008 11.0981 0)
(13.0224 11.2486 0)
(12.5377 11.3754 0)
(12.048 11.4783 0)
(11.5544 11.557 0)
(11.0584 11.6117 0)
(10.5612 11.6423 0)
(10.0642 11.6486 -1.05785e-18)
(9.56842 11.6309 3.38719e-19)
(9.07524 11.5892 -2.70256e-19)
(8.58579 11.5239 1.28757e-18)
(8.10121 11.4352 0)
(7.62271 11.3235 3.62146e-19)
(7.15149 11.1892 2.9563e-19)
(6.68878 11.0329 1.26579e-19)
(6.23558 10.8551 -7.61986e-20)
(5.79307 10.6563 -9.60434e-20)
(5.36228 10.4371 3.17695e-20)
(4.9441 10.1982 -1.98007e-21)
(4.53941 9.94035 1.01676e-19)
(4.14918 9.6643 0)
(3.77431 9.371 0)
(3.41567 9.06131 8.04899e-20)
(3.07397 8.73613 9.73803e-20)
(2.7499 8.39639 2.09818e-19)
(2.44423 8.04306 2.40335e-19)
(2.15738 7.67725 0)
(1.89007 7.29984 2.99511e-19)
(1.64253 6.91231 3.30446e-19)
(1.41529 6.5157 0)
(1.20872 6.11149 -1.78341e-21)
(1.02336 5.70059 0)
(0.859443 5.2843 0)
(0.717233 4.86372 2.87398e-20)
(19.9809 0.435002 -1.03162e-19)
(20.0399 0.919476 2.01832e-19)
(20.0728 1.40704 -3.98079e-19)
(20.0793 1.89567 -2.14216e-19)
(20.0595 2.38381 0)
(20.0131 2.8703 -8.29942e-19)
(19.9399 3.35448 -8.2421e-19)
(19.841 3.83466 0)
(19.7176 4.31055 3.43486e-20)
(19.57 4.78029 -7.97114e-19)
(19.3984 5.24159 1.50508e-18)
(19.2029 5.69342 1.48189e-18)
(18.9842 6.13465 0)
(18.7428 6.56414 -7.22494e-19)
(18.4795 6.98061 -1.43522e-18)
(18.1952 7.38284 -7.0777e-19)
(17.8905 7.76997 2.07374e-18)
(17.5666 8.14111 -1.33241e-18)
(17.2241 8.49552 1.29662e-18)
(16.8643 8.83233 1.88269e-18)
(16.4882 9.15075 2.44468e-18)
(16.0969 9.44996 1.2088e-18)
(15.6913 9.72915 5.56333e-19)
(15.2725 9.9876 1.68225e-18)
(14.8417 10.2248 5.14868e-19)
(14.3998 10.4403 5.15549e-19)
(13.9481 10.6335 4.67258e-19)
(13.4879 10.8042 -1.36067e-18)
(13.0204 10.9519 8.43794e-19)
(12.5468 11.0764 7.87687e-19)
(12.0682 11.1774 -1.52863e-18)
(11.586 11.255 7.40873e-19)
(11.1013 11.309 -6.44816e-19)
(10.6155 11.3395 3.02684e-19)
(10.13 11.3464 2.92515e-19)
(9.64576 11.3297 2.37711e-19)
(9.1641 11.2895 -2.39261e-19)
(8.68605 11.2262 -2.25631e-19)
(8.21276 11.1402 -5.15707e-19)
(7.74545 11.0317 -2.9941e-19)
(7.28527 10.9012 -4.67822e-19)
(6.83334 10.7492 -4.35214e-19)
(6.39083 10.5763 1.25589e-19)
(5.95878 10.3829 7.39032e-21)
(5.53822 10.1697 -2.07509e-21)
(5.13005 9.93712 3.07875e-20)
(4.73499 9.68603 -2.64811e-19)
(4.35405 9.41722 5.74964e-20)
(3.98805 9.13163 0)
(3.63794 8.83001 0)
(3.3043 8.51322 1.49363e-19)
(2.98797 8.18233 8.80747e-22)
(2.68955 7.83814 -1.95859e-19)
(2.4095 7.48171 0)
(2.14844 7.11384 -2.43379e-19)
(1.90656 6.73601 0)
(1.68442 6.34936 0)
(1.48226 5.95515 -2.34261e-19)
(1.3009 5.55451 -8.3468e-20)
(1.14028 5.14859 8.67242e-20)
(1.00099 4.73857 -4.60152e-20)
(19.8271 0.507138 1.87448e-21)
(19.8805 0.978593 -1.7463e-19)
(19.9085 1.45271 5.11894e-19)
(19.911 1.92791 3.39726e-19)
(19.8879 2.40301 -5.00527e-19)
(19.8394 2.87674 3.35438e-19)
(19.7662 3.34714 -2.3628e-21)
(19.6682 3.81196 -6.49658e-19)
(19.5453 4.27116 9.8994e-19)
(19.399 4.72385 -1.28962e-18)
(19.2295 5.16903 1.21376e-18)
(19.0371 5.60521 -1.29077e-18)
(18.8222 6.03127 -6.20218e-19)
(18.5856 6.44619 0)
(18.3279 6.84861 6.3899e-19)
(18.0499 7.23729 5.45284e-19)
(17.7522 7.61151 0)
(17.4358 7.97029 1.07428e-18)
(17.1014 8.31293 0)
(16.7503 8.63868 -1.06308e-18)
(16.3834 8.94664 9.38757e-19)
(16.0019 9.23605 -4.073e-20)
(15.6067 9.50601 -4.58018e-20)
(15.1989 9.75579 1.86249e-21)
(14.7793 9.98497 -1.76794e-18)
(14.3491 10.1931 -8.04141e-19)
(13.9094 10.3797 1.5715e-18)
(13.4615 10.5445 1.45322e-18)
(13.0065 10.6871 -7.2486e-19)
(12.5457 10.8072 0)
(12.0801 10.9045 0)
(11.6108 10.9791 0)
(11.1392 11.0309 5.52784e-19)
(10.6666 11.06 -1.93587e-18)
(10.1943 11.0662 8.98626e-19)
(9.72338 11.0495 -4.28469e-19)
(9.2549 11.0101 -6.85757e-19)
(8.78994 10.9481 6.43905e-19)
(8.32951 10.864 2.17302e-20)
(7.87488 10.7583 -2.03133e-19)
(7.42716 10.6313 2.23099e-19)
(6.98743 10.4835 1.45178e-19)
(6.55691 10.3155 0)
(6.1366 10.1277 -4.06795e-20)
(5.7275 9.92078 0)
(5.33055 9.69496 7.67389e-20)
(4.94623 9.45121 -4.03745e-20)
(4.57555 9.19028 0)
(4.21918 8.91313 9.45227e-20)
(3.87842 8.62045 1.96866e-20)
(3.55354 8.31297 -2.48019e-19)
(3.24538 7.99181 1.46051e-19)
(2.95471 7.65776 9.6156e-20)
(2.68174 7.31177 -1.76296e-19)
(2.42733 6.95461 8.1661e-21)
(2.19109 6.5876 -1.07009e-19)
(1.97404 6.21197 -5.77162e-20)
(1.77611 5.82901 -1.28327e-19)
(1.59844 5.43981 3.40297e-19)
(1.44064 5.0455 -1.44765e-19)
(1.30382 4.64718 1.91678e-20)
(19.666 0.558673 3.67266e-20)
(19.7146 1.01518 0)
(19.7385 1.47388 -5.72887e-19)
(19.7377 1.93362 0)
(19.7124 2.39305 2.852e-19)
(19.6628 2.85079 8.34601e-19)
(19.5889 3.30544 5.47629e-19)
(19.4909 3.75637 1.11085e-18)
(19.3693 4.20176 9.77463e-21)
(19.2249 4.64067 -6.70119e-21)
(19.058 5.07168 -6.00529e-20)
(18.8691 5.49381 -5.28559e-19)
(18.6584 5.90602 5.10513e-19)
(18.4268 6.30736 -1.49672e-18)
(18.1751 6.6966 1.01577e-18)
(17.9038 7.07249 -4.88366e-20)
(17.6135 7.43424 -9.21212e-19)
(17.3049 7.78097 -9.43963e-19)
(16.9789 8.11215 0)
(16.6367 8.42716 8.452e-19)
(16.2795 8.72504 -3.78872e-20)
(15.9083 9.00501 -1.66328e-18)
(15.5241 9.26614 -5.93801e-21)
(15.1277 9.50753 -6.90096e-19)
(14.7199 9.72899 2.101e-18)
(14.3018 9.93005 -3.47201e-20)
(13.8746 10.1103 -6.70905e-19)
(13.4394 10.2697 -7.09869e-20)
(12.9976 10.4076 0)
(12.5501 10.5237 0)
(12.0982 10.6176 0)
(11.6424 10.6898 0)
(11.1845 10.7399 0)
(10.7255 10.7683 5.43818e-20)
(10.2672 10.7744 -3.48509e-19)
(9.81009 10.7584 3.92759e-20)
(9.35541 10.7202 5.3509e-20)
(8.90412 10.66 2.23675e-19)
(8.45699 10.5785 4.25682e-19)
(8.01544 10.4761 -5.30049e-19)
(7.58063 10.3531 3.11712e-19)
(7.15341 10.2102 -9.64347e-20)
(6.73522 10.0478 0)
(6.32704 9.86636 3.5497e-20)
(5.92976 9.66654 0)
(5.54457 9.4482 -3.99424e-20)
(5.17119 9.21259 7.70962e-20)
(4.81124 8.96035 -5.37564e-20)
(4.46476 8.69265 -6.7879e-20)
(4.13368 8.40983 1.02049e-19)
(3.81783 8.11258 1.9354e-20)
(3.51805 7.80217 1.54381e-20)
(3.23538 7.47913 -2.81411e-19)
(2.96966 7.14456 3.2091e-19)
(2.7221 6.79884 1.75822e-19)
(2.49157 6.44359 9.1965e-20)
(2.27981 6.07983 3.06022e-19)
(2.08578 5.70907 0)
(1.91175 5.3322 -2.34238e-19)
(1.75659 4.95046 6.22236e-20)
(1.62212 4.56469 0)
(19.4891 0.612612 0)
(19.5323 1.0535 0)
(19.5518 1.49653 2.4859e-19)
(19.5476 1.94026 -4.76333e-19)
(19.5199 2.38373 -2.45937e-19)
(19.4688 2.82562 -1.19421e-18)
(19.3946 3.26425 4.61184e-19)
(19.2969 3.69864 -9.5386e-19)
(19.1765 4.1284 1.54406e-20)
(19.0342 4.55223 1.35247e-18)
(18.8705 4.96816 -1.80584e-18)
(18.6855 5.37531 0)
(18.4795 5.77263 0)
(18.2533 6.15984 1.71089e-18)
(18.0079 6.53548 8.2705e-19)
(17.744 6.89762 -1.67871e-18)
(17.4616 7.24611 2.40371e-18)
(17.1613 7.58004 7.64717e-19)
(16.8441 7.89905 -1.49901e-18)
(16.5112 8.20288 -7.5249e-19)
(16.1641 8.49005 6.94306e-19)
(15.8037 8.76017 -7.11248e-20)
(15.431 9.01217 0)
(15.047 9.24451 1.30069e-18)
(14.6515 9.45775 -1.8351e-18)
(14.2462 9.65137 5.91129e-19)
(13.8321 9.8249 1.06387e-18)
(13.4102 9.97865 -2.58344e-18)
(12.9824 10.1115 5.05522e-19)
(12.5492 10.2237 0)
(12.1118 10.3139 0)
(11.6703 10.3836 0)
(11.227 10.4319 3.50768e-19)
(10.7824 10.4601 9.927e-19)
(10.3392 10.4664 -5.85284e-19)
(9.89684 10.4512 2.55388e-19)
(9.45693 10.4146 2.44835e-19)
(9.02046 10.3562 -4.3557e-19)
(8.58737 10.2775 0)
(8.15959 10.1787 -2.44203e-19)
(7.73853 10.0598 1.27146e-19)
(7.32425 9.92187 1.43088e-20)
(6.91881 9.76538 9.75516e-21)
(6.52338 9.59076 3.03269e-20)
(6.13833 9.39886 -1.05727e-20)
(5.76604 9.18834 1.50887e-19)
(5.40399 8.96162 -6.47206e-20)
(5.05563 8.71852 2.21594e-19)
(4.71909 8.46118 0)
(4.39873 8.18918 0)
(4.09242 7.90283 -4.00092e-19)
(3.80121 7.60408 1.089e-19)
(3.52748 7.29298 2.49903e-19)
(3.26914 6.97076 1.47837e-19)
(3.02958 6.63711 -4.65779e-19)
(2.80464 6.29429 -2.60802e-19)
(2.59876 5.94296 -9.60051e-20)
(2.40824 5.58531 -2.11086e-21)
(2.2386 5.22169 1.02874e-19)
(2.08564 4.85333 0)
(1.95402 4.48089 0)
(19.2909 0.663651 -2.50782e-20)
(19.328 1.08782 0)
(19.3427 1.51428 0)
(19.3345 1.9413 2.11204e-19)
(19.3041 2.36781 0)
(19.2518 2.7928 8.1408e-19)
(19.1778 3.2146 4.01718e-19)
(19.0808 3.63157 -7.89047e-19)
(18.961 4.04559 0)
(18.8212 4.45453 -8.01483e-19)
(18.662 4.85377 4.41221e-20)
(18.4815 5.24513 0)
(18.2809 5.62637 0)
(18.0602 5.99859 -7.47885e-19)
(17.8215 6.36076 6.9061e-19)
(17.5664 6.70795 -7.15512e-19)
(17.2925 7.04249 -6.97706e-19)
(17.0011 7.36328 0)
(16.6934 7.66901 6.59515e-19)
(16.3701 7.96111 -1.20267e-18)
(16.0341 8.23668 -1.16212e-18)
(15.6851 8.49656 -1.1936e-18)
(15.3243 8.73968 -9.66161e-21)
(14.9543 8.96176 -9.85699e-19)
(14.5715 9.16629 1.04535e-18)
(14.1792 9.35241 9.42377e-19)
(13.7794 9.5182 -9.56691e-19)
(13.3709 9.66633 5.99978e-20)
(12.9581 9.79339 1.11545e-21)
(12.5391 9.90245 -7.99904e-19)
(12.1181 9.9876 0)
(11.6906 10.0558 -6.38183e-19)
(11.2636 10.1015 1.2294e-18)
(10.8331 10.1306 -4.64877e-20)
(10.4071 10.1376 5.26555e-19)
(9.98085 10.1233 -4.28795e-19)
(9.55684 10.0887 3.64728e-19)
(9.13727 10.0319 2.61826e-19)
(8.71898 9.95601 -5.75649e-19)
(8.30551 9.86108 2.42354e-19)
(7.89985 9.74654 1.55375e-19)
(7.49835 9.61373 1.65174e-19)