/*--------------------------------*- C++ -*----------------------------------*\
| =========                 |                                                 |
| \\      /  F ield         | OpenFOAM: The Open Source CFD Toolbox           |
|  \\    /   O peration     | Version:  2.3.1                                 |
|   \\  /    A nd           | Web:      www.OpenFOAM.org                      |
|    \\/     M anipulation  |                                                 |
\*---------------------------------------------------------------------------*/
FoamFile
{
    version     2.0;
    format      ascii;
    class       volVectorField;
    location    "4180";
    object      D;
}
// * * * * * * * * * * * * * * * * * * * * * * * * * * * * * * * * * * * * * //

dimensions      [0 1 0 0 0 0 0];

internalField   nonuniform List<vector> 
11800
(
(1.01258e-05 0.000287004 0)
(-1.27743e-05 0.000319883 0)
(7.098e-06 9.60327e-05 0)
(-8.09461e-06 0.000130879 0)
(-1.16699e-05 0.00031934 0)
(-5.24281e-06 0.000131137 0)
(-1.92936e-06 0.000215135 0)
(-1.83454e-06 0.000165597 0)
(8.45492e-07 2.51302e-05 0)
(1.55184e-06 9.96297e-05 0)
(1.1242e-05 0.000286322 0)
(-1.00827e-05 0.000111454 0)
(-9.72972e-09 -7.74698e-09 0)
(6.30924e-06 9.54493e-05 0)
(-7.17923e-06 0.000131434 0)
(6.86096e-06 1.53868e-05 0)
(-1.07715e-06 0.000214504 0)
(-1.04249e-06 0.000165 0)
(4.79016e-07 2.54098e-05 0)
(9.61312e-07 9.91331e-05 0)
(-6.17089e-06 0.000130651 0)
(-9.2386e-06 0.000111899 0)
(-1.50087e-06 5.41384e-06 0)
(-1.60216e-06 5.63862e-06 0)
(6.12559e-06 1.75846e-05 0)
(-2.40397e-06 8.99433e-06 0)
(-9.85503e-06 6.63124e-05 0)
(1.44047e-05 0.000192713 0)
(-8.76699e-06 5.02277e-05 0)
(-7.57635e-06 3.60573e-05 0)
(1.52634e-05 0.000243917 0)
(6.40782e-08 4.21136e-06 0)
(3.13818e-06 1.15747e-05 0)
(-7.7645e-06 0.000328284 0)
(6.31202e-06 0.000326801 0)
(-1.73733e-05 0.000260562 0)
(5.88054e-06 0.000327932 0)
(3.08893e-06 1.19013e-05 0)
(-1.88646e-06 0.000227284 0)
(1.55661e-06 0.000109469 0)
(-9.69049e-06 6.70595e-05 0)
(-8.62947e-06 5.08927e-05 0)
(1.40722e-05 0.000191606 0)
(-7.46648e-06 3.6639e-05 0)
(1.49248e-05 0.000242752 0)
(6.54519e-06 1.55095e-05 0)
(1.73055e-06 6.41483e-06 0)
(1.92895e-06 6.31236e-06 0)
(-2.96628e-06 0.000227479 0)
(2.42054e-06 0.000109624 0)
(-1.64955e-05 0.000167806 0)
(-1.7633e-05 0.00021736 0)
(-1.6164e-06 0.000283929 0)
(8.90345e-08 3.99579e-06 0)
(-8.40942e-06 1.83382e-05 0)
(1.13756e-06 9.39909e-07 0)
(-2.16816e-05 0.000332797 0)
(-5.42825e-06 9.24339e-05 0)
(6.22724e-06 0.000135024 0)
(-3.94265e-06 8.87788e-05 0)
(2.27421e-06 3.00183e-06 0)
(-2.78708e-06 0.000284142 0)
(-4.71939e-06 9.2224e-05 0)
(5.43085e-06 0.000135275 0)
(5.73764e-06 1.73145e-05 0)
(-2.07006e-05 0.000294098 0)
(-1.71127e-05 0.00016707 0)
(-1.83554e-05 0.000216551 0)
(-2.05934e-05 0.000332259 0)
(-2.52295e-06 9.28744e-06 0)
(-6.92099e-06 0.000329208 0)
(-1.22225e-05 0.000327422 0)
(-1.25779e-05 0.000326255 0)
(-1.07197e-07 1.19265e-07 0)
(2.42855e-06 3.13118e-06 0)
(-1.63647e-05 0.000261295 0)
(7.52773e-06 2.43265e-05 0)
(-2.10365e-05 0.0002952 0)
(-1.67508e-05 0.000297701 0)
(-1.56493e-05 0.000298699 0)
(-8.0163e-06 1.8086e-05 0)
(1.24281e-06 0.000113691 0)
(1.15377e-05 0.000324851 0)
(1.02994e-05 0.000325053 0)
(-1.47976e-06 0.000116861 0)
(-7.28515e-06 4.06245e-05 0)
(1.37982e-05 0.00023503 0)
(-8.3329e-06 5.54477e-05 0)
(-9.2961e-06 7.21548e-05 0)
(1.29729e-05 0.000184296 0)
(-3.68779e-07 0.000277772 0)
(3.33504e-06 1.10011e-05 0)
(-1.04025e-05 0.000299626 0)
(2.15271e-05 0.000335351 0)
(3.414e-06 0.000144271 0)
(-2.59216e-09 -1.97193e-09 0)
(6.70252e-11 -4.19077e-10 0)
(2.59385e-09 -1.97356e-09 0)
(-2.16988e-07 0.000287429 0)
(-9.57302e-06 0.000113931 0)
(1.85301e-05 0.000334149 0)
(1.11856e-05 0.000125234 0)
(-4.04455e-06 1.60947e-05 0)
(-9.10259e-07 1.2412e-05 0)
(-5.96515e-07 0.000317905 0)
(1.1174e-06 2.6292e-05 0)
(-2.35647e-06 0.000163164 0)
(-2.45138e-06 0.000212437 0)
(3.53488e-06 5.99505e-06 0)
(8.40901e-06 5.54235e-05 0)
(7.35221e-06 4.06029e-05 0)
(9.38116e-06 7.21274e-05 0)
(-1.39774e-05 0.000235059 0)
(-1.31432e-05 0.000184336 0)
(2.00225e-06 9.7591e-05 0)
(2.7974e-06 5.46465e-06 0)
(2.05342e-05 0.000295303 0)
(-8.39048e-06 0.000303143 0)
(2.84832e-06 5.26478e-06 0)
(-1.39442e-06 0.000100875 0)
(-8.31668e-07 2.44645e-05 0)
(1.88186e-06 0.000216722 0)
(1.78577e-06 0.000167018 0)
(-2.58528e-06 0.0002078 0)
(-1.04704e-05 0.000300758 0)
(-9.10671e-07 0.00028653 0)
(-6.72418e-06 0.000318031 0)
(-1.55922e-06 0.000317164 0)
(-2.32674e-05 0.000343842 0)
(-2.40987e-05 0.000343009 0)
(-6.65768e-07 2.99194e-07 0)
(-3.02811e-06 7.08918e-06 0)
(1.41546e-05 0.000228023 0)
(-7.82337e-06 4.44326e-05 0)
(1.3258e-05 0.000177718 0)
(-8.88139e-06 5.97784e-05 0)
(-9.85295e-06 7.69661e-05 0)
(1.30607e-05 0.000228231 0)
(-7.20927e-06 4.42995e-05 0)
(1.22348e-05 0.000177911 0)
(-8.18623e-06 5.96307e-05 0)
(-9.08344e-06 7.68051e-05 0)
(-1.89601e-06 2.26535e-05 0)
(4.58981e-06 0.000220887 0)
(4.28098e-06 0.00017103 0)
(-3.61784e-06 0.000104181 0)
(1.75855e-05 0.000114407 0)
(-1.74653e-05 0.0001119 0)
(1.10033e-05 0.000126146 0)
(-1.27614e-06 1.31737e-05 0)
(-1.15804e-05 0.000276487 0)
(-1.14802e-05 0.000277955 0)
(5.66054e-06 0.000324296 0)
(-1.29516e-05 0.000260925 0)
(5.19698e-06 0.000184203 0)
(5.64007e-06 0.000234906 0)
(-1.4424e-05 0.000206898 0)
(-1.33727e-05 0.000158015 0)
(6.74134e-06 2.89875e-05 0)
(-1.05565e-06 0.000278816 0)
(3.8427e-06 6.10203e-06 0)
(-1.18361e-05 0.000261184 0)
(7.8797e-06 2.46796e-05 0)
(-5.26625e-06 7.51123e-05 0)
(-4.73696e-06 5.8096e-05 0)
(-4.16098e-06 4.29371e-05 0)
(7.22088e-06 0.000180035 0)
(7.6995e-06 0.000230506 0)
(-3.38803e-06 4.1871e-06 0)
(-6.17711e-06 2.78822e-05 0)
(1.34696e-05 0.000209197 0)
(1.24797e-05 0.000160171 0)
(3.01024e-06 0.000212202 0)
(-1.9792e-05 0.000259346 0)
(-1.99917e-05 0.000260905 0)
(7.05262e-06 1.76159e-05 0)
(7.06251e-06 1.81028e-05 0)
(7.78126e-06 5.38147e-05 0)
(8.70022e-06 7.03349e-05 0)
(6.78301e-06 3.91899e-05 0)
(-1.23615e-05 0.000186829 0)
(-1.313e-05 0.000237728 0)
(5.28649e-06 0.000183045 0)
(5.67116e-06 0.000233714 0)
(5.74072e-06 0.000111448 0)
(-2.73773e-06 0.000103945 0)
(-1.44193e-06 2.27706e-05 0)
(3.47417e-06 0.000220591 0)
(3.23934e-06 0.000170753 0)
(-4.51224e-06 0.000272698 0)
(-1.51846e-06 4.75983e-05 0)
(-1.71436e-06 6.33767e-05 0)
(-1.70331e-05 0.00029183 0)
(-4.63008e-07 1.08053e-05 0)
(-1.6426e-05 0.000137219 0)
(1.41641e-05 9.08428e-05 0)
(1.63028e-07 1.55469e-07 0)
(-1.01936e-05 0.000328808 0)
(2.0391e-05 0.000296494 0)
(-5.80921e-07 3.46567e-07 0)
(1.34331e-05 0.000310791 0)
(1.67786e-05 0.000265517 0)
(1.7995e-05 0.000265736 0)
(-5.23309e-07 0.000319518 0)
(-1.36279e-06 0.000320544 0)
(9.47204e-06 8.86374e-05 0)
(8.36737e-06 8.90309e-05 0)
(-1.12052e-05 0.00013956 0)
(-9.87198e-06 0.000139069 0)
(6.56359e-07 2.95033e-07 0)
(-1.84873e-06 1.58124e-05 0)
(-2.081e-06 8.8018e-06 0)
(-4.85835e-08 1.82773e-08 0)
(6.3388e-06 1.04359e-05 0)
(-1.5113e-07 4.80176e-08 0)
(8.23928e-07 8.64453e-06 0)
(-1.15622e-05 0.000317835 0)
(-5.5682e-06 3.9647e-05 0)
(-6.36536e-06 5.43524e-05 0)
(-7.11178e-06 7.09405e-05 0)
(1.06388e-05 0.000236778 0)
(1.004e-05 0.000185956 0)
(6.89524e-07 0.000220181 0)
(6.41217e-07 0.000170367 0)
(-2.94765e-07 2.29339e-05 0)
(-5.61354e-07 0.000103634 0)
(-2.21705e-07 3.6854e-08 0)
(8.67903e-07 2.86899e-05 0)
(-1.74049e-06 0.000158313 0)
(-5.2253e-06 0.000100088 0)
(1.21026e-06 2.82677e-05 0)
(-2.45032e-06 0.000159153 0)
(-7.90179e-06 0.000300717 0)
(9.7782e-06 0.000112267 0)
(9.1098e-06 0.000111403 0)
(4.83812e-08 1.82075e-08 0)
(2.21381e-07 3.67977e-08 0)
(-1.53247e-05 0.000279848 0)
(-1.47426e-05 0.000281038 0)
(-1.44485e-05 9.5031e-05 0)
(1.62852e-05 0.000132315 0)
(1.30504e-05 0.000237626 0)
(1.2284e-05 0.000186739 0)
(-6.77083e-06 3.92474e-05 0)
(-7.76916e-06 5.38762e-05 0)
(-8.686e-06 7.04036e-05 0)
(-4.6794e-07 0.000285381 0)
(-5.70749e-06 2.66724e-05 0)
(1.27343e-05 0.00021182 0)
(1.18169e-05 0.000162603 0)
(7.81058e-06 0.000113443 0)
(6.59996e-06 0.000269088 0)
(1.03627e-05 0.000335755 0)
(1.05412e-06 8.51906e-06 0)
(-3.8292e-06 8.96929e-05 0)
(-9.59748e-09 3.14436e-06 0)
(1.50724e-07 4.79064e-08 0)
(3.69481e-06 9.46539e-05 0)
(3.17984e-06 9.36631e-05 0)
(-4.00661e-06 0.000132557 0)
(-3.4324e-06 0.000133539 0)
(7.11071e-06 7.09194e-05 0)
(6.36431e-06 5.43335e-05 0)
(5.55353e-06 3.96374e-05 0)
(-1.0059e-05 0.000185956 0)
(-1.069e-05 0.000236808 0)
(-5.66088e-06 0.000328907 0)
(1.91492e-06 2.32188e-06 0)
(4.24997e-09 0.000188857 0)
(-1.59309e-08 3.79504e-05 0)
(7.53565e-06 0.00031734 0)
(6.13581e-06 0.000110639 0)
(-2.38622e-05 0.000313571 0)
(7.05199e-06 0.000114264 0)
(2.7281e-07 1.99171e-07 0)
(1.96386e-05 0.000256132 0)
(1.97518e-05 0.000254689 0)
(-1.1998e-05 0.00016281 0)
(-1.29288e-05 0.000212037 0)
(-1.07183e-05 0.000162398 0)
(-1.1553e-05 0.000211597 0)
(5.76002e-06 2.65745e-05 0)
(5.16465e-06 2.67504e-05 0)
(5.8429e-06 0.000149514 0)
(6.94951e-06 0.00014934 0)
(6.34223e-06 0.000197684 0)
(7.54635e-06 0.000197493 0)
(-3.20823e-06 3.33666e-05 0)
(-3.82174e-06 3.34755e-05 0)
(-6.70687e-07 1.49846e-05 0)
(3.39117e-06 9.55117e-06 0)
(3.17463e-06 9.22018e-06 0)
(3.23842e-06 6.97553e-06 0)
(5.644e-06 0.000270248 0)
(-1.94737e-05 0.000256605 0)
(-1.95777e-05 0.000255106 0)
(7.28735e-06 1.96791e-05 0)
(7.1434e-06 1.91171e-05 0)
(1.54305e-05 0.000114431 0)
(1.5639e-05 0.000115718 0)
(-1.53118e-05 0.000111811 0)
(-1.5392e-05 0.000110545 0)
(6.98224e-06 0.000324078 0)
(-1.91101e-05 0.000328314 0)
(-1.837e-05 0.00027625 0)
(4.27931e-06 4.81481e-06 0)
(-1.12231e-05 0.000324184 0)
(-1.00213e-05 0.00032307 0)
(4.75453e-06 0.000151229 0)
(-2.93994e-06 0.00013586 0)
(2.61891e-06 9.17245e-05 0)
(-1.31332e-05 0.000114859 0)
(1.28713e-05 0.000111272 0)
(-6.19333e-06 1.93365e-05 0)
(-1.80958e-07 1.14546e-07 0)
(9.76418e-07 3.95792e-06 0)
(1.18022e-06 9.79013e-05 0)
(-1.10514e-05 9.85991e-05 0)
(1.19133e-05 0.000128055 0)
(-6.3603e-06 8.97295e-05 0)
(7.5808e-06 0.000138247 0)
(3.84535e-06 0.00024134 0)
(5.30453e-06 0.000240819 0)
(-2.25077e-06 5.15957e-05 0)
(-3.10833e-06 5.19078e-05 0)
(-2.52484e-06 6.78679e-05 0)
(-3.48522e-06 6.82162e-05 0)
(6.01939e-07 2.61117e-05 0)
(-1.28565e-06 0.000163531 0)
(-1.30296e-06 0.000212854 0)
(-2.11088e-06 0.000312049 0)
(2.9619e-06 6.93079e-06 0)
(-5.90647e-07 0.000132361 0)
(-9.07063e-06 0.000319899 0)
(1.2258e-06 9.75195e-07 0)
(8.11619e-06 0.000189765 0)
(-4.37159e-06 3.75325e-05 0)
(-1.36952e-05 0.00013377 0)
(-1.28621e-05 0.0001331 0)
(1.19678e-05 9.36866e-05 0)
(1.12818e-05 9.42576e-05 0)
(-1.35876e-05 0.000333634 0)
(-1.37374e-05 0.000332198 0)
(-2.22103e-06 1.50788e-05 0)
(-2.63393e-06 1.50217e-05 0)
(1.06901e-06 4.14866e-06 0)
(-2.52883e-06 4.30617e-06 0)
(6.4389e-07 0.00013892 0)
(3.90901e-06 2.7059e-05 0)
(3.28741e-06 2.72316e-05 0)
(-8.06319e-06 0.000161685 0)
(-6.75962e-06 0.000161301 0)
(-8.69371e-06 0.000210839 0)
(-7.28989e-06 0.000210428 0)
(-1.76262e-05 0.000267316 0)
(-1.63106e-05 0.000267423 0)
(-3.84914e-06 8.02458e-05 0)
(-3.55515e-06 6.27105e-05 0)
(-3.14602e-06 4.70095e-05 0)
(5.58131e-06 0.000249369 0)
(-9.49214e-07 0.000282601 0)
(1.1581e-05 0.000111164 0)
(1.09659e-05 0.000112135 0)
(5.14761e-06 0.000215597 0)
(4.92019e-06 0.000166041 0)
(-2.29688e-06 2.49367e-05 0)
(2.16552e-06 2.79319e-05 0)
(1.78223e-06 2.84777e-05 0)
(-3.9912e-06 0.000207759 0)
(-4.74937e-06 0.000208835 0)
(-4.3964e-06 0.000159845 0)
(-3.58214e-06 0.000158747 0)
(-4.57064e-06 2.55983e-05 0)
(9.67618e-06 0.000164759 0)
(1.04132e-05 0.000214147 0)
(-1.23072e-07 1.1689e-06 0)
(1.72246e-05 0.00012693 0)
(-1.5803e-05 9.99272e-05 0)
(-6.89884e-08 1.08731e-06 0)
(-5.19621e-06 0.000237577 0)
(-6.09462e-06 0.00023889 0)
(-4.76476e-06 0.000186785 0)
(-5.58052e-06 0.000188028 0)
(3.02395e-06 3.84514e-05 0)
(2.60528e-06 3.91292e-05 0)
(3.57841e-06 5.30502e-05 0)
(3.07171e-06 5.38247e-05 0)
(4.0055e-06 6.94934e-05 0)
(3.43443e-06 7.03596e-05 0)
(1.94477e-05 0.000267836 0)
(1.98098e-05 0.000269204 0)
(-1.80652e-06 8.87392e-06 0)
(7.29883e-06 0.000190714 0)
(-3.90288e-06 3.70122e-05 0)
(6.34118e-06 2.92376e-05 0)
(-1.25179e-05 0.000157489 0)
(-1.35342e-05 0.000206299 0)
(-1.76188e-07 5.34891e-08 0)
(2.53243e-06 0.000279184 0)
(6.26057e-06 2.78882e-05 0)
(-1.2693e-05 0.000160165 0)
(-1.37126e-05 0.000209146 0)
(4.73909e-06 8.10453e-06 0)
(-9.59209e-06 0.000302705 0)
(6.00355e-06 2.22399e-05 0)
(-1.51493e-05 0.000248288 0)
(-3.20241e-06 1.19294e-05 0)
(-3.41688e-06 1.23687e-05 0)
(3.35572e-06 1.22395e-05 0)
(-1.63042e-06 0.000132155 0)
(-1.24261e-08 -9.14549e-09 0)
(-1.01861e-05 0.0003318 0)
(-1.57983e-07 6.27535e-08 0)
(1.75634e-07 5.33388e-08 0)
(-4.69288e-06 2.70104e-05 0)
(1.03921e-05 0.000210995 0)
(9.63838e-06 0.000161832 0)
(8.00991e-06 0.000279625 0)
(-2.29756e-05 0.000300102 0)
(2.94761e-06 0.000123651 0)
(-1.88709e-06 0.000120399 0)
(-5.13035e-07 1.24844e-05 0)
(-1.44177e-06 1.50092e-06 0)
(-8.97072e-09 -8.07843e-09 0)
(-5.70494e-06 9.05723e-05 0)
(6.79652e-06 0.000137274 0)
(4.89759e-07 1.71509e-07 0)
(-7.56071e-07 0.000118616 0)
(-7.12979e-07 0.000117463 0)
(-1.35307e-08 9.94717e-05 0)
(-1.32657e-07 2.52559e-05 0)
(2.619e-07 0.000165323 0)
(2.35762e-07 0.000214932 0)
(-4.91888e-07 1.7224e-07 0)
(2.03218e-06 1.35083e-05 0)
(-7.92557e-06 0.000244223 0)
(4.51758e-06 4.99529e-05 0)
(5.08045e-06 6.60205e-05 0)
(5.59328e-06 8.38726e-05 0)
(1.66794e-05 0.000318433 0)
(-6.08065e-06 2.41532e-05 0)
(1.43014e-05 0.000217623 0)
(1.33167e-05 0.000168003 0)
(-9.44469e-06 0.000293634 0)
(1.36311e-06 3.4592e-06 0)
(1.27519e-05 0.000288156 0)
(-2.70004e-06 4.24118e-06 0)
(8.93759e-06 0.000319705 0)
(-6.83119e-06 0.00024425 0)
(3.8899e-06 4.99311e-05 0)
(4.37476e-06 6.59975e-05 0)
(4.81955e-06 8.38428e-05 0)
(1.19079e-06 3.27773e-06 0)
(5.89008e-06 0.000195575 0)
(-3.03197e-06 3.44411e-05 0)
(-1.02382e-06 1.34515e-05 0)
(-1.67223e-05 0.000289186 0)
(-6.19099e-06 7.53923e-05 0)
(-5.57049e-06 5.83499e-05 0)
(-4.89513e-06 4.31625e-05 0)
(8.42716e-06 0.000179739 0)
(8.98695e-06 0.000230189 0)
(2.29828e-05 0.000337561 0)
(1.33849e-05 0.000296082 0)
(1.48389e-05 0.000295571 0)
(1.84323e-07 1.28501e-07 0)
(8.29533e-06 9.00638e-05 0)
(-9.71515e-06 0.000137838 0)
(-4.21417e-06 9.13567e-05 0)
(4.9485e-06 0.000136393 0)
(-1.41826e-06 0.00014698 0)
(-1.07671e-06 0.000239136 0)
(6.92845e-07 6.93124e-05 0)
(6.18821e-07 5.28855e-05 0)
(3.99071e-08 3.71647e-05 0)
(-2.28912e-07 0.000142806 0)
(-9.83924e-08 0.000190362 0)
(1.05252e-05 0.000337104 0)
(5.93352e-07 1.38563e-05 0)
(-2.54376e-07 3.19079e-06 0)
(2.02295e-06 0.000202161 0)
(1.01381e-07 3.30022e-06 0)
(-1.53647e-06 1.03405e-05 0)
(3.87192e-06 3.70744e-05 0)
(-7.33419e-06 0.00019059 0)
(-1.4378e-07 1.57589e-07 0)
(-1.54879e-05 0.00028905 0)
(-1.27744e-06 2.47716e-05 0)
(2.75974e-06 0.000216085 0)
(2.7355e-06 0.000166366 0)
(3.44426e-07 8.26326e-08 0)
(-4.54073e-06 8.23776e-06 0)
(5.05936e-06 6.76643e-05 0)
(4.50906e-06 5.1418e-05 0)
(-7.79422e-06 0.00024169 0)
(1.51136e-06 9.41867e-05 0)
(-1.04754e-05 0.000327514 0)
(-1.72945e-07 2.42449e-08 0)
(-5.95045e-06 1.29028e-05 0)
(3.85469e-06 7.09354e-06 0)
(-3.87615e-06 4.23987e-06 0)
(1.16603e-05 0.000113212 0)
(8.87472e-06 0.000137865 0)
(-7.59383e-06 9.00324e-05 0)
(5.4732e-07 3.67837e-05 0)
(-1.25999e-06 0.000143351 0)
(-1.05401e-06 0.000191074 0)
(1.11558e-05 0.000284869 0)
(1.03666e-05 0.000124062 0)
(5.41151e-06 0.000330054 0)
(5.21356e-06 0.00033129 0)
(1.51501e-06 0.000137218 0)
(2.0609e-06 9.34774e-05 0)
(1.72681e-07 2.4206e-08 0)
(-1.49683e-05 0.000258192 0)
(5.39599e-06 1.84429e-05 0)
(1.87436e-08 2.51949e-07 0)
(2.87454e-06 0.000184112 0)
(3.75406e-06 0.000184754 0)
(5.04906e-09 2.1903e-08 0)
(-2.82549e-06 6.86161e-06 0)
(7.08173e-06 6.88034e-05 0)
(6.32107e-06 5.24401e-05 0)
(5.49834e-06 3.7925e-05 0)
(-1.01881e-05 0.00018887 0)
(-1.08107e-05 0.000239999 0)
(9.4238e-06 0.000118043 0)
(1.38857e-06 0.000279484 0)
(-6.09278e-06 0.000315311 0)
(-5.76812e-06 0.000316981 0)
(-5.81513e-07 0.000243027 0)
(-4.97488e-07 0.000244369 0)
(4.19149e-07 4.98176e-05 0)
(3.82762e-07 5.05578e-05 0)
(4.7141e-07 6.58744e-05 0)
(4.29971e-07 6.67056e-05 0)
(3.13022e-07 8.371e-05 0)
(3.73214e-07 8.45998e-05 0)
(7.50006e-07 0.000137678 0)
(1.37031e-06 0.0001399 0)
(2.37858e-06 0.00021356 0)
(-5.93766e-07 0.000146618 0)
(-3.45019e-07 8.27789e-08 0)
(-3.85335e-07 3.04264e-06 0)
(5.18892e-06 0.000194532 0)
(-2.69483e-06 3.49771e-05 0)
(1.35673e-06 4.22808e-06 0)
(2.02433e-05 0.000320004 0)
(-1.53428e-06 0.00024544 0)
(9.56553e-07 4.92547e-05 0)
(1.07682e-06 6.52416e-05 0)
(1.06342e-06 8.29748e-05 0)
(-1.54554e-05 0.000268704 0)
(5.32369e-06 9.57203e-05 0)
(7.90107e-06 0.000339732 0)
(8.9339e-06 0.000338974 0)
(-1.5272e-06 1.06632e-05 0)
(-9.74659e-07 0.000187862 0)
(5.17165e-07 3.8494e-05 0)
(2.26525e-07 2.29771e-07 0)
(1.98635e-05 0.000329062 0)
(-2.67167e-07 5.38326e-06 0)
(-3.71172e-06 5.59289e-05 0)
(-4.13815e-06 7.27047e-05 0)
(-4.95301e-06 7.34719e-05 0)
(-4.44675e-06 5.66195e-05 0)
(-3.21082e-06 4.10151e-05 0)
(-3.88508e-06 4.1638e-05 0)
(6.57324e-06 0.000182293 0)
(7.00389e-06 0.000232921 0)
(2.82255e-06 3.83694e-06 0)
(-1.81073e-07 1.09752e-07 0)
(-1.71211e-05 0.00022223 0)
(-1.78393e-05 0.000328389 0)
(5.82552e-06 0.00013979 0)
(-4.92994e-07 5.50893e-06 0)
(-9.25647e-06 0.000181961 0)
(-9.85727e-06 0.000232555 0)
(5.26544e-06 4.18926e-05 0)
(6.00635e-06 5.6904e-05 0)
(6.68761e-06 7.37844e-05 0)
(8.60659e-06 0.000280557 0)
(1.95323e-05 0.000330235 0)
(-1.0484e-05 0.000114234 0)
(4.31193e-06 3.75226e-05 0)
(-8.13368e-06 0.000189757 0)
(5.57461e-06 0.000140882 0)
(-2.10343e-06 0.000100253 0)
(5.60283e-06 6.82437e-05 0)
(4.99732e-06 5.19364e-05 0)
(-8.59213e-06 0.000240816 0)
(-1.55902e-05 0.000115553 0)
(1.52193e-05 0.000110773 0)
(1.52197e-05 0.000112014 0)
(-1.53847e-05 0.000114235 0)
(-7.15529e-06 1.91057e-05 0)
(-7.36543e-06 1.97019e-05 0)
(-7.22737e-06 0.000111996 0)
(-3.65334e-06 4.34139e-06 0)
(-1.16975e-05 0.00011286 0)
(-1.70456e-06 0.000270268 0)
(-1.49338e-06 1.78213e-06 0)
(1.17427e-05 6.56755e-05 0)
(1.04375e-05 4.9669e-05 0)
(-1.65952e-05 0.000169276 0)
(2.67988e-06 6.82856e-05 0)
(2.39046e-06 5.1969e-05 0)
(-4.12058e-06 0.000240707 0)
(5.47573e-06 1.64725e-05 0)
(9.17903e-06 0.000136743 0)
(-7.90956e-06 9.10039e-05 0)
(-4.31127e-06 4.83638e-06 0)
(4.72503e-06 0.000214418 0)
(4.51318e-06 0.000164988 0)
(-2.13094e-06 2.54304e-05 0)
(1.36834e-05 0.000202428 0)
(-6.64829e-06 3.11038e-05 0)
(1.26248e-05 0.000153911 0)
(-7.56889e-06 1.88515e-05 0)
(9.64901e-06 0.000315947 0)
(1.10652e-05 0.000315484 0)
(1.06592e-05 0.000240007 0)
(1.00991e-05 0.00018889 0)
(-5.47467e-06 3.80333e-05 0)
(-6.26251e-06 5.24338e-05 0)
(-7.01618e-06 6.87966e-05 0)
(-1.57281e-06 1.54485e-06 0)
(-8.45114e-06 0.000293333 0)
(9.24386e-06 0.000186787 0)
(-5.08895e-06 3.9178e-05 0)
(-9.55791e-07 1.18585e-06 0)
(7.90525e-06 0.000319496 0)
(1.90045e-06 1.55621e-06 0)
(1.57606e-06 1.17992e-06 0)
(3.99941e-06 5.67591e-06 0)
(9.55514e-06 0.000256629 0)
(-1.61519e-05 0.000263718 0)
(2.15255e-05 0.000320414 0)
(4.0508e-06 5.96698e-06 0)
(9.44046e-06 0.000124024 0)
(1.29645e-05 0.00027216 0)
(-2.0801e-05 0.000257294 0)
(7.58322e-06 1.88938e-05 0)
(-4.7677e-06 0.000273874 0)
(1.94346e-06 6.84985e-05 0)
(1.73408e-06 5.21586e-05 0)
(-2.99041e-06 0.000240377 0)
(-7.10769e-07 3.4093e-06 0)
(5.5236e-06 0.000147528 0)
(1.56542e-07 6.22201e-08 0)
(-6.29065e-06 1.27782e-05 0)
(-1.11366e-06 0.000121151 0)
(-2.8178e-06 2.32286e-05 0)
(-3.28007e-06 2.33823e-05 0)
(6.28431e-06 0.000169787 0)
(7.29406e-06 0.00016947 0)
(7.82685e-06 0.00021921 0)
(6.74223e-06 0.000219552 0)
(1.85058e-07 6.8478e-07 0)
(-4.54312e-08 8.60567e-06 0)
(-1.12651e-05 0.000152473 0)
(-1.22216e-05 0.000200873 0)
(5.99233e-06 3.18414e-05 0)
(-3.51479e-06 1.89278e-05 0)
(-2.10634e-06 0.000206562 0)
(-3.17935e-06 8.09199e-06 0)
(6.61384e-06 0.000316454 0)
(-5.30111e-06 0.00010311 0)
(-6.14342e-06 0.000102849 0)
(1.80652e-07 1.81855e-07 0)
(-3.51006e-06 0.000106657 0)
(-1.77036e-06 2.13646e-05 0)
(4.12564e-06 0.000173966 0)
(4.41527e-06 0.00022403 0)
(-4.93566e-06 0.000206596 0)
(-4.34023e-06 0.000157682 0)
(2.18379e-06 2.90224e-05 0)
(2.89454e-06 1.08671e-05 0)
(2.68834e-06 1.04714e-05 0)
(1.42132e-06 0.000102807 0)
(-1.83313e-06 0.000219129 0)
(-1.71661e-06 0.000169364 0)
(7.60004e-07 2.33874e-05 0)
(-1.6752e-06 4.0363e-05 0)
(-2.99407e-06 8.31836e-06 0)
(1.2312e-05 0.000323914 0)
(-1.19883e-05 0.000193345 0)
(9.22732e-06 9.06432e-05 0)
(-1.07607e-05 0.000137186 0)
(1.31229e-05 0.000273392 0)
(-1.20004e-05 8.32825e-05 0)
(-1.09158e-05 6.54791e-05 0)
(1.47242e-05 0.000146074 0)
(-9.69944e-06 4.94907e-05 0)
(-8.38119e-06 3.54411e-05 0)
(1.60902e-05 0.000193952 0)
(1.70148e-05 0.00024529 0)
(-4.40684e-06 0.000234678 0)
(-4.14396e-06 0.00018395 0)
(2.64454e-06 5.55662e-05 0)
(2.31339e-06 4.07116e-05 0)
(2.94967e-06 7.23024e-05 0)
(2.52955e-06 5.63689e-05 0)
(-4.18519e-06 0.000233357 0)
(2.81833e-06 7.31963e-05 0)
(2.21605e-06 4.1415e-05 0)
(-3.93295e-06 0.000182708 0)
(-2.32081e-06 0.000297959 0)
(-4.66279e-06 6.0897e-06 0)
(-5.07923e-06 2.87473e-05 0)
(1.08886e-05 0.000207248 0)
(1.00762e-05 0.00015836 0)
(-3.19325e-06 3.87581e-05 0)
(5.86686e-06 0.000187506 0)
(1.61513e-05 0.000232527 0)
(1.51654e-05 0.000181949 0)
(-8.67018e-06 4.20044e-05 0)
(-9.88893e-06 5.70133e-05 0)
(-1.1009e-05 7.38911e-05 0)
(1.70186e-05 0.000253879 0)
(1.85738e-05 0.000253555 0)
(4.13672e-07 7.34037e-06 0)
(-1.70333e-06 0.000119159 0)
(-4.52359e-06 1.24547e-05 0)
(2.31002e-07 4.26573e-07 0)
(-4.45575e-06 1.58306e-05 0)
(-7.10199e-07 0.000270809 0)
(1.87425e-07 7.02389e-06 0)
(-3.71842e-06 0.000127738 0)
(1.5417e-05 0.000169377 0)
(-6.93814e-06 2.3581e-05 0)
(1.65427e-05 0.000219091 0)
(-1.52278e-08 -1.05541e-08 0)
(1.03962e-06 0.000202355 0)
(2.89745e-07 1.21715e-07 0)
(1.97796e-07 1.45087e-07 0)
(2.74328e-06 0.000145149 0)
(-3.30685e-07 2.65848e-07 0)
(1.25822e-05 0.000326344 0)
(9.47959e-07 0.000184701 0)
(-4.92714e-07 4.02399e-05 0)
(2.72001e-06 1.61148e-05 0)
(1.73949e-06 0.000184123 0)
(-9.61562e-07 4.05352e-05 0)
(-1.61659e-07 3.55101e-06 0)
(-1.17223e-05 6.56416e-05 0)
(-1.04184e-05 4.9639e-05 0)
(-9.00379e-06 3.55798e-05 0)
(-7.47506e-06 2.36387e-05 0)
(1.65947e-05 0.000169312 0)
(1.72556e-05 0.000193738 0)
(1.78069e-05 0.000219018 0)
(1.82539e-05 0.000245066 0)
(-8.0669e-06 0.000264501 0)
(-7.16665e-06 0.000314696 0)
(-2.31832e-05 0.000259649 0)
(8.26938e-06 1.80921e-05 0)
(5.30563e-06 0.000333698 0)
(6.16979e-06 0.000332255 0)
(1.65554e-06 0.000180024 0)
(1.79558e-06 0.000230524 0)
(-1.25783e-06 7.52004e-05 0)
(-1.13148e-06 5.81709e-05 0)
(-9.93987e-07 4.29978e-05 0)
(-6.56971e-06 1.89008e-05 0)
(2.3945e-06 1.35354e-05 0)
(-8.946e-06 7.8804e-05 0)
(1.18865e-05 0.000175193 0)
(-8.07994e-06 6.14353e-05 0)
(-7.13628e-06 4.58925e-05 0)
(1.27097e-05 0.00022533 0)
(-4.99324e-06 2.09536e-05 0)
(1.28716e-05 0.000251587 0)
(2.16821e-06 0.000114102 0)
(-1.3384e-06 0.000281172 0)
(1.30499e-06 6.50029e-07 0)
(-9.78042e-07 0.000246744 0)
(6.36165e-07 4.85172e-05 0)
(7.16923e-07 6.44122e-05 0)
(6.68206e-07 8.20592e-05 0)
(4.03643e-06 0.000291341 0)
(-5.40772e-07 3.41062e-07 0)
(2.04173e-05 0.000286656 0)
(-3.05101e-06 0.000120977 0)
(-9.10883e-08 1.94059e-07 0)
(7.30436e-06 0.000172451 0)
(-3.18086e-06 2.20521e-05 0)
(7.82359e-06 0.000222406 0)
(1.578e-07 1.22332e-07 0)
(-4.27434e-06 2.66276e-05 0)
(8.84716e-06 0.000162592 0)
(9.53435e-06 0.000211815 0)
(1.4764e-06 1.92265e-06 0)
(-6.18758e-06 0.000105401 0)
(1.31934e-06 0.000112743 0)
(-1.41206e-05 0.00030645 0)
(1.3108e-06 0.00018101 0)
(1.39757e-06 0.00023155 0)
(-1.06117e-06 7.44721e-05 0)
(-8.35182e-07 4.2424e-05 0)
(-9.53745e-07 5.75149e-05 0)
(2.10037e-06 0.000114951 0)
(-2.89529e-07 1.09489e-06 0)
(-2.55792e-07 3.73768e-06 0)
(6.30957e-07 0.000270366 0)
(1.3892e-05 0.000123656 0)
(-1.30078e-05 0.000102859 0)
(-9.90738e-06 0.000343065 0)
(-2.24992e-05 0.000223774 0)
(-2.10275e-05 0.000173766 0)
(-2.18294e-05 0.000198347 0)
(-2.00902e-05 0.000150178 0)
(1.09595e-05 3.33251e-05 0)
(1.27586e-05 4.70018e-05 0)
(1.44173e-05 6.26531e-05 0)
(1.59386e-05 8.01203e-05 0)
(2.24766e-05 0.000223771 0)
(2.18066e-05 0.000198347 0)
(-1.09719e-05 3.33258e-05 0)
(-1.27724e-05 4.70032e-05 0)
(2.10037e-05 0.000173765 0)
(-1.44333e-05 6.26542e-05 0)
(2.00688e-05 0.000150177 0)
(-1.59565e-05 8.01215e-05 0)
(-6.32264e-06 1.83704e-05 0)
(-3.47953e-06 0.000280571 0)
(-2.47827e-06 0.000280302 0)
(-3.08676e-06 0.000317925 0)
(5.14433e-06 0.00019212 0)
(-2.72418e-06 3.62448e-05 0)
(-9.71492e-07 1.42394e-06 0)
(-3.99703e-06 0.000336079 0)
(-4.36957e-06 7.17394e-05 0)
(-5.35431e-06 7.1468e-05 0)
(-3.91476e-06 5.50629e-05 0)
(-4.79542e-06 5.48212e-05 0)
(6.51772e-06 0.000235934 0)
(7.82689e-06 0.000236045 0)
(1.71907e-05 0.00023192 0)
(1.61362e-05 0.000181382 0)
(-9.26564e-06 4.23521e-05 0)
(-1.05607e-05 5.74055e-05 0)
(-1.17508e-05 7.43241e-05 0)
(-1.03816e-05 0.000153014 0)
(-1.12589e-05 0.000201462 0)
(5.49182e-06 3.15359e-05 0)
(-3.25673e-06 0.000136952 0)
(2.77188e-06 9.07945e-05 0)
(3.39945e-06 0.000242645 0)
(-1.96694e-06 5.0755e-05 0)
(-2.20934e-06 6.69258e-05 0)
(-2.39583e-06 8.46918e-05 0)
(6.40584e-06 8.97069e-05 0)
(5.42913e-06 8.99374e-05 0)
(-7.52502e-06 0.000138214 0)
(-6.37051e-06 0.000137928 0)
(-7.58678e-06 0.000333553 0)
(5.04367e-07 1.367e-06 0)
(1.26436e-05 0.00028697 0)
(4.54533e-06 9.97023e-05 0)
(1.23888e-05 0.000198136 0)
(-6.23691e-06 3.32132e-05 0)
(1.13988e-05 0.000149952 0)
(-1.05792e-05 0.000119675 0)
(2.55458e-06 2.51133e-05 0)
(-5.91288e-06 0.000215137 0)
(-5.49923e-06 0.000165676 0)
(7.42118e-07 0.000103762 0)
(-9.08541e-07 0.0001705 0)
(-9.6752e-07 0.000220343 0)
(3.92038e-07 2.28736e-05 0)
(7.13242e-06 9.39196e-05 0)
(-8.1356e-06 0.000133337 0)
(-3.89558e-06 0.000297954 0)
(-1.80738e-05 0.000295094 0)
(3.23361e-06 0.000127159 0)
(8.1087e-06 0.000127562 0)
(-6.51143e-06 2.44042e-05 0)
(1.5237e-05 0.000217081 0)
(1.41835e-05 0.000167501 0)
(-7.17669e-07 3.0302e-06 0)
(-2.43815e-06 0.000248466 0)
(1.35679e-06 4.75385e-05 0)
(1.5317e-06 6.33094e-05 0)
(1.68005e-06 8.0854e-05 0)
(-3.72383e-06 0.000120382 0)
(-1.67526e-05 0.000295194 0)
(-4.78914e-06 4.75966e-05 0)
(-5.40656e-06 6.33684e-05 0)
(-5.95233e-06 8.09513e-05 0)
(8.55174e-06 0.000248379 0)
(1.52769e-08 1.97439e-08 0)
(1.04911e-05 0.000118711 0)
(1.3491e-07 9.17574e-06 0)
(-4.90567e-07 8.48691e-07 0)
(-1.02048e-06 3.92426e-06 0)
(-4.90935e-06 1.68868e-05 0)
(-5.00507e-07 1.83838e-07 0)
(2.06241e-06 5.37681e-05 0)
(1.80644e-06 3.91113e-05 0)
(2.30607e-06 7.02978e-05 0)
(-3.49825e-06 0.000237659 0)
(-3.31078e-06 0.000186803 0)
(-1.0172e-05 9.83848e-05 0)
(1.10522e-05 0.000128334 0)
(-9.92537e-07 5.81701e-07 0)
(1.34422e-05 0.000316055 0)
(9.69814e-06 0.000282633 0)
(-2.06305e-05 0.000265961 0)
(7.63673e-06 0.000126571 0)
(2.75923e-06 0.000137534 0)
(-5.18719e-06 0.000335926 0)
(-1.44312e-05 0.000144132 0)
(-1.37264e-05 0.000143492 0)
(2.03864e-05 0.000335827 0)
(-1.62298e-06 0.000299446 0)
(-4.55354e-06 9.04261e-05 0)
(5.49644e-06 0.000137507 0)
(1.66942e-07 9.49868e-06 0)
(2.48948e-06 3.34661e-06 0)
(4.97503e-07 1.82743e-07 0)
(4.86107e-06 0.000146559 0)
(1.79682e-05 0.000342743 0)
(-9.83443e-06 0.0002377 0)
(-9.25088e-06 0.000186798 0)
(5.07132e-06 3.91595e-05 0)
(6.51195e-06 7.03151e-05 0)
(5.82388e-06 5.37907e-05 0)
(-1.82342e-07 1.26877e-07 0)
(-7.30269e-07 0.000311727 0)
(9.19391e-06 0.00012794 0)
(-8.34426e-06 9.88875e-05 0)
(-1.47389e-05 0.00030414 0)
(-2.20071e-05 0.000224925 0)
(-2.13566e-05 0.000199459 0)
(-2.05814e-05 0.000174839 0)
(-1.96707e-05 0.000151204 0)
(1.06249e-05 3.27512e-05 0)
(1.23892e-05 4.63373e-05 0)
(1.40158e-05 6.19047e-05 0)
(1.55083e-05 7.92949e-05 0)
(2.19825e-05 0.000224917 0)
(2.13339e-05 0.000199458 0)
(-1.06366e-05 3.2754e-05 0)
(-1.24016e-05 4.63405e-05 0)
(2.05551e-05 0.000174835 0)
(-1.40303e-05 6.19078e-05 0)
(1.96476e-05 0.000151199 0)
(-1.55244e-05 7.92983e-05 0)
(-3.16834e-06 4.23309e-06 0)
(1.24564e-06 1.16322e-06 0)
(-1.66728e-06 3.03418e-06 0)
(8.18566e-06 0.000125521 0)
(-8.97375e-06 0.000129267 0)
(1.59012e-06 1.90205e-06 0)
(-2.45936e-07 4.10742e-08 0)
(-1.98384e-05 0.000266605 0)
(1.13688e-05 0.000339275 0)
(1.27577e-05 0.000339917 0)
(2.45647e-07 4.10262e-08 0)
(3.58436e-06 4.75187e-06 0)
(1.7801e-05 0.000308751 0)
(-6.74717e-06 0.00014298 0)
(-4.36245e-07 3.7941e-07 0)
(-9.88415e-07 1.52443e-06 0)
(-1.5418e-07 3.9395e-08 0)
(2.89265e-07 2.23324e-07 0)
(1.83537e-05 0.000113829 0)
(-1.83009e-05 0.000112506 0)
(5.62437e-06 8.57198e-05 0)
(-6.91528e-06 0.000140352 0)
(5.84048e-06 8.79318e-05 0)
(-2.97698e-07 5.06659e-06 0)
(-4.26282e-06 0.000224878 0)
(3.37575e-06 0.000107365 0)
(-2.37647e-06 0.000222426 0)
(-2.27199e-06 0.00017234 0)
(9.76103e-07 2.20633e-05 0)
(1.85749e-06 0.000105409 0)
(-7.52565e-06 0.000142248 0)
(3.82018e-06 5.03536e-06 0)
(6.2997e-06 8.63702e-05 0)
(2.34884e-06 0.000127355 0)
(1.78894e-05 0.000318886 0)
(-5.4313e-06 0.00012841 0)
(-6.24571e-06 0.000129287 0)
(-5.02106e-06 1.06859e-05 0)
(-6.05745e-06 0.000133413 0)
(-5.17942e-06 0.000132484 0)
(5.39331e-06 9.37643e-05 0)
(4.73839e-06 9.46931e-05 0)
(-5.64522e-06 2.60672e-05 0)
(1.18398e-05 0.000163857 0)
(1.27487e-05 0.000213171 0)
(-1.55061e-06 1.71625e-06 0)
(-7.53941e-06 0.000141102 0)
(6.34392e-06 8.73384e-05 0)
(-4.80779e-06 0.000181766 0)
(-5.12004e-06 0.000232354 0)
(2.73251e-06 4.196e-05 0)
(3.46916e-06 7.38847e-05 0)
(3.11625e-06 5.69884e-05 0)
(-2.47814e-06 1.1543e-05 0)
(-1.57726e-05 0.000191733 0)
(-1.49461e-05 0.000191124 0)
(8.3021e-06 3.65945e-05 0)
(7.89776e-06 3.69132e-05 0)
(1.03969e-05 0.000152026 0)
(1.14299e-05 0.000151274 0)
(-5.57683e-06 3.20648e-05 0)
(-6.17555e-06 3.2491e-05 0)
(1.12836e-05 0.000200391 0)
(1.24112e-05 0.000199572 0)
(-4.5327e-06 0.000296857 0)
(9.06668e-06 0.000270988 0)
(9.19709e-06 0.000269718 0)
(-6.68003e-06 8.79399e-05 0)
(7.86839e-06 0.000140318 0)
(-2.37621e-05 0.000330875 0)
(-6.83694e-06 0.000263743 0)
(-6.56564e-06 0.000262502 0)
(2.26558e-06 1.67918e-05 0)
(2.32822e-06 1.63629e-05 0)
(2.05244e-05 0.000266687 0)
(-9.05137e-06 0.000112961 0)
(-7.77001e-06 0.000113 0)
(2.03063e-05 0.000301246 0)
(-2.05233e-05 0.000317626 0)
(-2.04968e-05 0.000319144 0)
(-6.18305e-07 3.13553e-06 0)