/*--------------------------------*- C++ -*----------------------------------*\
| =========                 |                                                 |
| \\      /  F ield         | OpenFOAM: The Open Source CFD Toolbox           |
|  \\    /   O peration     | Version:  2.3.1                                 |
|   \\  /    A nd           | Web:      www.OpenFOAM.org                      |
|    \\/     M anipulation  |                                                 |
\*---------------------------------------------------------------------------*/
FoamFile
{
    version     2.0;
    format      ascii;
    class       volScalarField;
    location    "4180";
    object      sigmaEq;
}
// * * * * * * * * * * * * * * * * * * * * * * * * * * * * * * * * * * * * * //

dimensions      [1 -1 -2 0 0 0 0];

internalField   nonuniform List<scalar> 
11800
(
191236
133828
642977
545419
129855
381128
177636
194618
209693
223809
190390
780585
99191.1
579485
492804
2.13185e+06
137377
138756
251991
154294
433744
704685
924157
828205
1.74769e+06
1.09131e+06
1.14587e+06
568858
1.24699e+06
1.34897e+06
377119
126279
1.09523e+06
139857
146716
362058
149048
1.16775e+06
149326
162804
1.18761e+06
1.29259e+06
597598
1.39934e+06
397930
1.99621e+06
886163
1.03341e+06
179144
268411
819503
577314
144971
236234
2.27517e+06
1.86096e+06
71890.8
533836
416664
398240
1.85992e+06
160098
423641
348573
1.71377e+06
258035
842954
597907
71591.5
1.00954e+06
148244
123826
119834
1.77245e+06
1.84199e+06
351192
1.79272e+06
244880
194905
198611
2.31248e+06
136359
129688
131856
134799
1.30063e+06
405285
1.19989e+06
1.1012e+06
593551
144039
1.30411e+06
165500
68320.6
205767
169170
21940.1
169219
146580
686847
82007.3
757540
1.23791e+06
426556
155736
363707
200085
172344
1.81807e+06
1.21077e+06
1.31229e+06
1.11118e+06
411021
601909
246434
1.6414e+06
240032
154394
1.54117e+06
230388
221406
179156
200887
152928
162734
143620
146350
146125
103050
29931.7
2.08066e+06
1.39027e+06
440115
1.30431e+06
632841
1.20112e+06
1.10089e+06
384577
1.11642e+06
548145
1.02815e+06
942555
558680
213854
269952
366848
1.35135e+06
1.38347e+06
789515
410602
225339
217400
146074
286689
263350
202970
523086
721257
1.43258e+06
152480
2.08903e+06
252886
1.82549e+06
527223
572739
619045
313877
235731
2.24729e+06
1.40555e+06
500038
689560
168075
410305
408184
1.99724e+06
2.01888e+06
1.07129e+06
983752
1.16134e+06
524705
358789
277652
223007
496865
237711
366448
165056
188789
175080
263780
246491
234261
213484
1.02278e+06
1.29888e+06
1.83862e+06
131912
243752
2.16579e+06
149113
315733
353654
150415
155626
939856
785900
723051
598556
2.07949e+06
639883
944892
2.82933e+06
2.37656e+06
2.39967e+06
372474
139853
915832
840640
772911
288836
416573
139452
140182
248181
150092
1.36959e+06
278015
152152
516157
232064
190563
148913
726804
742133
2.82683e+06
1.36838e+06
243713
254845
1.27363e+06
1.04352e+06
358995
524265
1.15982e+06
1.0729e+06
985075
155176
1.25579e+06
441220
608152
569651
167392
133688
449317
399772
154980
2.39792e+06
312567
360361
257352
296875
774702
842815
911407
414858
290793
147986
1.82835e+06
173047
87065.5
145249
455928
167463
597724
2.12936e+06
428058
424384
643276
465277
536170
389672
1.32173e+06
1.10519e+06
354028
442868
281027
337972
608251
799424
288269
1.29093e+06
1.38462e+06
1.66485e+06
185026
423019
420439
1.93182e+06
1.94981e+06
1.17043e+06
1.15178e+06
1.1931e+06
1.1809e+06
143092
97547.5
319143
2.49309e+06
129688
136266
331011
270836
291850
1.02124e+06
1.04704e+06
1.72985e+06
2.40107e+06
751142
200372
975419
806841
562356
459545
176520
186591
284416
505252
265126
468234
136159
182575
175070
154004
1.374e+06
176135
136102
1.99922e+06
340672
773590
861821
839268
1.06084e+06
1.02113e+06
109781
108597
695760
911139
628503
1.62719e+06
129693
905535
703818
462178
348837
344003
263878
350236
302314
401350
439664
473603
168549
146637
851843
903683
194493
244064
500999
425547
478457
217021
203113
254561
259646
981876
475662
350026
382951
1.18824e+06
1.37847e+06
367734
213249
200735
273882
254204
479965
557093
455126
533998
420079
492935
371202
352496
711553
362721
794011
1.37004e+06
690643
505412
2.19901e+06
142987
1.43851e+06
709756
514960
2.13353e+06
153543
1.4715e+06
363915
1.23629e+06
1.1412e+06
1.1109e+06
204389
93373.5
130332
2.54063e+06
2.19809e+06
980565
351205
476961
191004
254843
289695
157413
219357
1.68469e+06
67796.2
607426
465888
1.85727e+06
113823
187839
160060
158087
159319
159690
1.85799e+06
624626
249308
725570
668660
615185
125812
1.4009e+06
459210
643570
177688
920507
199509
1.78601e+06
143161
209582
525181
484798
446515
934143
249305
522131
458407
243761
729181
793617
860036
415633
297516
69412.1
182563
203248
2.30904e+06
799418
630325
454719
374143
196837
159282
117115
116702
202786
105534
122368
129698
174239
347559
156075
199882
624587
761362
358189
1.64635e+06
216812
390777
161702
192889
1.59743e+06
2.09639e+06
660381
717589
259235
230844
126177
1.39811e+06
2.03897e+06
1.80109e+06
2.60189e+06
852434
595254
779796
129626
196743
180116
201081
775002
151425
149481
131917
192243
1.39716e+06
312494
1.42295e+06
836301
181416
232774
1.14944e+06
1.46475e+06
770059
837813
903672
409900
287600
701241
149050
150550
146875
168779
133793
199194
102314
192922
101895
190560
89717.1
185413
170037
176679
120881
1.59882e+06
244923
266180
593119
940752
129247
159370
138578
135880
120638
310082
451044
134264
133531
614508
127373
190202
1.73724e+06
84883.9
171801
549231
505683
529333
573599
588404
620226
290647
216916
2.01455e+06
2.48452e+06
520757
89869
369858
354610
396786
281216
846045
782247
719068
180689
88634.6
819649
764531
340332
378471
189043
654870
710974
244593
1.15497e+06
1.17087e+06
1.18447e+06
1.17298e+06
1.98252e+06
1.93989e+06
611840
2.36639e+06
861187
144635
1.65041e+06
1.46095e+06
1.5895e+06
811980
328530
355246
194772
1.69083e+06
559763
706178
2.50504e+06
222777
276421
549976
536533
1.4048e+06
731214
2.09414e+06
142820
140427
286368
411206
912105
838474
770794
1.91051e+06
158973
419471
900613
1.3593e+06
139871
2.24161e+06
2.09653e+06
2.1749e+06
252711
342512
130470
2.22381e+06
641802
257619
440001
2.09066e+06
154241
260355
276209
148906
509728
314829
2.54072e+06
2.23193e+06
214907
631658
807848
310203
367114
272604
239573
674385
200906
630812
465530
1.19324e+06
1.04137e+06
179810
1.36113e+06
147334
429831
529255
1.81373e+06
345499
468022
261258
213754
198392
232413
443302
1.03616e+06
1.14141e+06
149646
143532
145482
192760
368987
1.38001e+06
120746
477105
863309
672692
239838
1.14521e+06
1.26772e+06
822857
1.37939e+06
1.49446e+06
619178
405147
169659
203575
384685
409857
357778
395596
203082
365445
426014
249105
148353
2.58713e+06
1.11193e+06
418148
566299
518546
251659
450484
659289
1.41783e+06
1.30702e+06
1.19842e+06
367774
434729
210402
227919
1.61487e+06
1.18531e+06
1.3763e+06
160026
212920
304382
721522
1.59377e+06
510137
100747
161302
2.3462e+06
2.20496e+06
265022
2.01897e+06
118088
171126
125992
771000
135743
236831
262759
1.43703e+06
1.56375e+06
1.69297e+06
1.82591e+06
827417
703217
584216
460062
204204
141800
452121
2.23571e+06
150393
146603
163231
154533
162734
169273
174899
1.73065e+06
873481
895339
526912
976224
1.06027e+06
371569
1.23871e+06
296470
244869
157664
2.32027e+06
148723
179805
173279
181010
148707
2.1109e+06
298377
294968
1.13465e+06
374185
787705
280635
2.14891e+06
946507
473493
352414
1.45468e+06
524455
200290
167419
149791
143393
251642
276984
265325
192761
520934
163888
145106
927404
1.03568e+06
125038
656389
945157
801042
1.08771e+06
2.03088e+06
1.87931e+06
1.72876e+06
1.57793e+06
656378
800590
2.03316e+06
1.88147e+06
944821
1.7309e+06
1.0878e+06
1.58037e+06
1.81412e+06
165393
142250
155286
264601
574219
1.2569e+06
147985
478626
655401
517813
712779
208680
269964
475753
696344
1.48759e+06
1.37115e+06
1.25683e+06
596457
441901
1.11478e+06
225655
286549
178957
369106
343133
312220
640500
500159
514062
381686
139523
767211
210518
392246
481924
1.1938e+06
648828
758784
612648
223533
290695
201105
176877
166977
193093
675063
569812
151982
232163
254935
524701
1.56149e+06
511371
718360
539815
169524
243010
228556
210928
287154
205809
692698
638449
583005
226891
1.67555e+06
789363
232418
1.0302e+06
694891
1.4962e+06
2.02926e+06
250945
280073
236197
158547
170105
837730
713354
2.11478e+06
140909
198825
390681
579015
250634
148935
845906
837138
63396.2
146871
405583
330030
95198.1
1.85336e+06
2.02922e+06
335913
128705
302129
427326
912985
773057
841520
2.31579e+06
143933
662749
746503
178164
681744
832886
984093
1.13234e+06
2.12664e+06
1.96888e+06
1.81151e+06
1.65434e+06
681312
832245
2.12776e+06
1.96931e+06
982544
1.81212e+06
1.13176e+06
1.65509e+06
1.97643e+06
1.70088e+06
1.28252e+06
544478
621178
1.70116e+06
1.26478e+06
375057
127549
122228
1.26382e+06
2.24714e+06
169722
466915
1.84953e+06
1.26369e+06
2.0297e+06
2.07185e+06
1.34001e+06
1.3429e+06
614878
487683
637210
267364
198862
338326
170614
207714
253592
213541
465485
2.17667e+06
636261
214966
129422
407905
437601
1.97938e+06
413404
373811
474273
503518
1.28595e+06
609472
439814
1.64977e+06
470144
611642
220435
181145
423248
366108
394881
978981
636222
617735
1.49668e+06
1.43152e+06
610536
644861
1.12747e+06
1.21107e+06
454175
476539
146837
201954
211444
620670
483229
83430.1
178202
204664
721927
686817
372454
725153
560822
221778
136027
136096
569622
1.37266e+06
134842
2.02842e+06
293549
823628
756962
233544
292287
490447
160205
136496
1.73353e+06
438550
1.12851e+06
1.04209e+06
957273
350098
509934
179772
1.56887e+06
2.0731e+06
189727
156437
1.13991e+06
417223
569806
984414
1.07142e+06
1.17267e+06
353529
513794
66564.5
831183
433335
2.06642e+06
346412
1.18963e+06
987690
1.10829e+06
149795
154067
157642
166767
168727
147599
1.71488e+06
532841
199193
231782
256626
288663
360310
399554
818980
792604
756641
730013
671895
695221
1.19112e+06
180573
149152
144476
198126
224585
159778
181519
1.41773e+06
292611
531300
453125
1.16654e+06
614145
215787
225155
505354
391433
697573
570472
1.40114e+06
1.22942e+06
1.13433e+06
1.04063e+06
578337
1.61429e+06
798962
1.60563e+06
284305
236772
306454
297607
207513
188196
205572
1.6325e+06
2.11823e+06
379604
124193
282095
636135
494036
138604
164824
275227
260769
271720
251917
333601
313688
235729
538858
597964
582201
646009
494526
549545
605080
140077
1.32926e+06
1.05489e+06
557718
1.33287e+06
1.25207e+06
731759
2.11832e+06
401267
381378
432155
462768
213545
175098
188467
402556
156182
1.77566e+06
230200
151036
886939
63908.3
125150
1.7619e+06
202129
457227
1.45662e+06
671104
1.34341e+06
1.23206e+06
1.58873e+06
1.05553e+06
173027
674561
539496
224490
1.50618e+06
689676
225827
1.26085e+06
1.14954e+06
1.37138e+06
145444
148187
174737
2.56027e+06
306544
480494
587192
265956
151061
150127
461300
498595
194594
1.76295e+06
467990
1.78797e+06
272943
880641
148810
709867
848993
1.12416e+06
451744
608409
728759
294152
2.51534e+06
180161
127229
154340
2.14638e+06
1.4076e+06
354632
522241
1.18297e+06
1.09596e+06
1.00677e+06
2.20944e+06
676805
548134
2.20648e+06
2.49258e+06
1.71945e+06
87225.5
591146
1.46408e+06
1.10067e+06
599810
446362
1.10721e+06
987676
455004
1.49979e+06
362161
296483
563785
496945
377887
1.73563e+06
2.63766e+06
134654
147463
174452
2.51847e+06
173657
202926
780898
600494
2.22954e+06
2.33539e+06
145326
663404
230024
218945
549156
236597
142656
592961
138037
155994
2.65231e+06
1.15723e+06
643013
479958
432146
309231
878792
811321
744583
226743
2.36312e+06
464322
420285
479640
1.97904e+06
807380
1.18683e+06
163464
255172
192789
886803
545440
726652
134635
311074
424210
897145
316955
201319
172102
340369
2.20394e+06
320340
432761
889363
1.42394e+06
2.01211e+06
1.36066e+06
931236
736092
871044
89745
255335
355659
760266
701806
646056
2.01181e+06
158764
206313
221240
220807
221572
214909
318898
147092
148952
723046
1.82335e+06
517800
1.14591e+06
1.05751e+06
971462
355625
2.05984e+06
660931
753403
901912
777612
1.26306e+06
2.01574e+06
605833
158934
779040
125715
951125
571210
1.03743e+06
1.12713e+06
405062
1.30886e+06
323021
2.72572e+06
934602
150613
1.87991e+06
2.73345e+06
2.35335e+06
556196
144346
1.05529e+06
180152
169386
123735
295515
160911
165731
142467
150017
1.70571e+06
1.79055e+06
149761
1.17385e+06
189728
180396
147305
246732
1.23049e+06
1.23618e+06
280923
1.25247e+06
1.25513e+06
1.60978e+06
529617
198574
249181
339834
680831
738876
250363
66366.7
171973
803848
383735
937928
1.05569e+06
1.1533e+06
1.25332e+06
644438
454427
334216
186953
161356
2.04166e+06
1.12719e+06
137055
234408
1.00702e+06
782766
426130
461606
210502
188306
347655
307735
122706
236834
161989
1.71346e+06
670020
1.62797e+06
153755
141840
2.73415e+06
142695
2.12177e+06
2.09469e+06
150910
976753
492693
1.67885e+06
164748
925153
1.05297e+06
2.29258e+06
256892
161993
136492
519667
246216
336218
680363
623437
573342
167983
134175
192425
183077
1.20209e+06
1.32439e+06
904038
1.54559e+06
1.42037e+06
1.64118e+06
2.33708e+06
293261
745541
2.22583e+06
654575
2.08954e+06
998801
1.08719e+06
1.1786e+06
521890
354213
438201
513533
1.93226e+06
175157
205866
304084
288084
268811
195533
400816
370145
346412
849524
880698
2.58209e+06
285330
132949
183882
2.03951e+06
584508
316927
305990
1.99034e+06
1.03998e+06
717876
114557
214124
136807
1.02528e+06
1.30731e+06
330006
1.47305e+06
201322
195307
2.65812e+06
1.74187e+06
2.13168e+06
415913
552349
966118
302114
762129
2.21962e+06
2.34393e+06
198164
227945
383542
313035
1.10936e+06
1.23925e+06
848284
955585
2.46702e+06
2.27249e+06
292011
193864
113845
1.62324e+06
132614
2.14163e+06
425204
323908
1.15071e+06
367842
151139
1.98681e+06
226388
295270
113039
135064
1.47851e+06
511724
154022
805075
383096
211560
157351
137878
745871
139374
2.03079e+06
1.8251e+06
334978
909322
515548
152714
170076
1.56813e+06
190228
1.05657e+06
271542
583226
1.22593e+06
1.39936e+06
1.93994e+06
209284
331416
2.11423e+06
265608
166886
156404
182745
139528
2.16497e+06
1.69128e+06
390144
537235
929586
931671
1.21722e+06
428967
589401
424799
616908
1.31643e+06
1.21433e+06
1.1137e+06
1.74167e+06
820626
585790
1.67668e+06
589470
1.82404e+06
682942
759480
2.01515e+06
2.72921e+06
2.33847e+06
460437
444280
1.25978e+06
601129
435943
145287
378302
1.93616e+06
163069
190662
2.47278e+06
1.84789e+06
2.12667e+06
987604
1.22492e+06
1.23507e+06
1.06639e+06
134326
126606
190052
129332
762910
829821
901315
420859
295354
648322
2.15655e+06
163338
217922
183382
170350
1.11642e+06
1.00903e+06
202917
1.91941e+06
2.17051e+06
1.28896e+06
1.05286e+06
1.74685e+06
2.01233e+06
128346
964363
612554
1.34071e+06
178723
286310
306368
1.72159e+06
1.71486e+06
790597
398717
122364
147322
251164
527637
1.7999e+06
239939
1.38345e+06
165327
401910
272340
362462
620945
319385
489270
47562.6
13740.1
488788
2.5552e+06
223019
183391
184147
143936
132522
196643
203013
146917
147858
573062
145537
158868
196423
1.07494e+06
1.32543e+06
954088
1.78835e+06
2.27548e+06
157463
218774
417781
181786
1.62955e+06
228590
2.38676e+06
256844
334359
645768
479187
253681
262700
609804
139425
164091
208459
132765
200745
130367
2.12092e+06
116236
170028
309328
130945
99282.7
2.027e+06
226763
1.75438e+06
1.86756e+06
676937
436566
354461
515719
1.15939e+06
1.0813e+06
993375
141997
1.27851e+06
662462
138300
2.1671e+06
146823
154011
404138
1.19103e+06
957057
1.06164e+06
1.45558e+06
209755
158708
452720
670734
1.46541e+06
779827
1.58317e+06
561219
1.35142e+06
1.2396e+06
446981
1.5702e+06
555321
1.4477e+06
659545
1.33555e+06
1.22499e+06
769591
1.57695e+06
199246
658422
513946
163316
206973
1.76861e+06
1.10853e+06
1.50176e+06
1.39706e+06
1.21897e+06
1.50912e+06
1.1137e+06
423657
464394
686661
1.65798e+06
159061
2.4431e+06
195887
158994
1.84292e+06
219081
346923
680593
674084
2.00836e+06
120298
1.27754e+06
1.17978e+06
1.08269e+06
393670
578863
2.46514e+06
415928
318187
737265
190929
771885
356598
374031
133902
217714
226516
197002
589197
131362
723625
387967
294638
988271
1.31718e+06
1.32275e+06
987880
482352
2.32862e+06
145463
146599
2.08027e+06
1.87887e+06
1.14185e+06
2.72156e+06
1.22785e+06
1.05911e+06
1.08996e+06
2.41831e+06
1.21384e+06
971486
2.1483e+06
461314
486825
725196
1.89323e+06
117721
1.61125e+06
192956
282038
441431
740694
806886
875190
429633
306391
489735
81088.3
87001.6
159523
170355
233413
193629
154202
209081
1.20742e+06
2.20064e+06
264530
195124
2.02682e+06
1.47726e+06
583306
791868
159719
167410
1.76482e+06
1.16688e+06
248643
931382
873458
1.16575e+06
141518
159674
164525
142041
1.38214e+06
2.23303e+06
2.1801e+06
1.48087e+06
2.36049e+06
300416
131512
389388
1.18545e+06
1.08797e+06
1.28506e+06
584717
396725
2.49552e+06
549164
693201
906656
294222
249691
1.04006e+06
367865
190014
789507
301726
391527
2.31066e+06
399708
353422
1.24052e+06
1.14577e+06
1.05302e+06
529586
1.57813e+06
1.48666e+06
1.95122e+06
608358
628820
806752
1.66441e+06
793392
568702
1.47963e+06
285910
2.73237e+06
181125
2.08519e+06
557605
637354
151296
678666
1.30254e+06
156660
184076
180284
2.41146e+06
713458
654458
771550
381772
275529
347865
694331
1.57626e+06
701211
1.3661e+06
1.61056e+06
1.48814e+06
467290
1.5123e+06
1.15004e+06
1.21738e+06
1.44136e+06
1.5153e+06
1.15126e+06
1.22784e+06
1.45e+06
836988
698352
53673.5
334691
205284
479129
707556
588129
820498
1.64934e+06
1.52863e+06
1.40944e+06
1.29251e+06
474612
1.31655e+06
653060
178789
123934
129333
222771
118736
563355
1.33849e+06
1.36728e+06
485385
2.2552e+06
184226
165727
1.75556e+06
2.17667e+06
105061
1.39108e+06
549473
744726
1.04053e+06
574667
371569
163698
551032
781044
71759
149635
2.28212e+06
302601
226607
553005
509130
598938
383889
146868
153172
390618
1.36971e+06
2.11917e+06
2.45349e+06
379210
421589
1.77339e+06
1.59864e+06
2.07998e+06
125322
1.15562e+06
2.02641e+06
2.46853e+06
2.54603e+06
2.49103e+06
653130
1.13413e+06
488812
2.3505e+06
1.78004e+06
729114
1.53199e+06
169528
150104
1.82393e+06
1.82565e+06
151598
491237
2.26334e+06
1.90255e+06
1.80984e+06
1.87314e+06
2.55653e+06
1.73612e+06
2.25994e+06
1.95121e+06
170241
308967
1.43926e+06
680342
1.1779e+06
247890
163506
206828
190808
173206
230682
205868
490355
2.2666e+06
1.37767e+06
484842
670628
1.47324e+06
191551
683084
475868
2.61441e+06
367378
356426
653613
374992
606751
269177
209279
2.12816e+06
17478.4
170630
170423
35112
531838
566136
203078
222715
236925
164488
600575
593973
144306
2.27634e+06
1.9416e+06
702097
1.47055e+06
504440
138243
1.71574e+06
379317
2.26061e+06
627628
767508
908472
1.04747e+06
1.98395e+06
1.83819e+06
1.69156e+06
1.5474e+06
626686
766165
1.9829e+06
1.83636e+06
906085
1.6901e+06
1.04537e+06
1.54558e+06
347199
265520
644343
701356
619736
292980
239210
203639
163175
152341
174430
146323
154526
261751
1.05707e+06
1.13489e+06
1.02247e+06
572475
1.11362e+06
1.22727e+06
1.89389e+06
803879
648197
2.01003e+06
671041
230421
143202
197368
161170
317757
292705
296867
155537
427074
337144
439216
902167
154758
234359
1.06353e+06
168877
122228
152910
131620
1.59668e+06
186736
218612
754407
601806
290922
752523
238547
143815
130925
2.38408e+06
2.46012e+06
1.49932e+06
1.22823e+06
1.19809e+06
1.52517e+06
2.41411e+06
1.25005e+06
142085
806825
450316
343898
496232
236944
2.28312e+06
250388
1.35328e+06
1.25124e+06
1.14869e+06
604522
409350
708557
415119
315944
2.30663e+06
265706
142283
756519
755782
345765
215626
263818
446017
913038
1.73277e+06
728948
582397
1.06863e+06
1.41223e+06
385787
563443
1.2215e+06
1.1262e+06
1.03333e+06
582778
627380
1.0121e+06
838133
1.17768e+06
624694
1.29367e+06
1.40714e+06
407264
1.52408e+06
2.72181e+06
1.91757e+06
125598
928221
1.01267e+06
1.10047e+06
336409
227453
1.65318e+06
287405
377734
466993
513636
219388
279497
224412
177332
1.58523e+06
1.21875e+06
1.27833e+06
1.53135e+06
352633
1.91863e+06
2.37845e+06
878731
154548
911219
993294
1.07976e+06
1.01104e+06
1.17187e+06
328729
1.8762e+06
821397
765248
701710
829106
299082
416719
239986
222366
520670
612905
565142
649449
708028
767788
469930
466359
671641
674588
1.3656e+06
1.35894e+06
1.15223e+06
1.2575e+06
1.14611e+06
1.25113e+06
680250
739459
262738
163483
186759
223419
1.35278e+06
872889
150530
1.38832e+06
1.15208e+06
1.10474e+06
1.43008e+06
225545
496608
1.78614e+06
754984
1.64933e+06
1.51496e+06
120979
295956
1.23009e+06
730717
516065
1.63318e+06
569835
77057.1
1.25374e+06
1.15113e+06
1.35952e+06
609181
411504
1.6697e+06
648743
524757
2.22414e+06
651039
921799
220066
158693
374087
349826
320473
1.89624e+06
471666
313914
538301
495651
580546
292257
221772
1.25206e+06
1.40414e+06
224898
805493
169686
1.07698e+06
2.1602e+06
1.35387e+06
668859
500058
1.19215e+06
610455
543408
448786
293793
182367
450579
222152
550988
221238
373396
156219
176698
2.25882e+06
458511
1.93636e+06
1.11498e+06
1.19865e+06
647878
483233
1.15004e+06
2.05814e+06
132377
160833
163758
155310
407781
39490.2
13059.7
407377
859063
157794
911722
406316
278308
189100
608369
850395
1.77462e+06
141673
110995
187498
219482
472942
305546
1.20334e+06
1.0738e+06
257738
167560
132479
2.29268e+06
858945
143803
333139
163499
2.61441e+06
2.13753e+06
331937
250472
941175
452852
643826
1.26756e+06
1.06829e+06
1.16654e+06
2.47324e+06
1.96954e+06
159734
1.84152e+06
2.47662e+06
1.94064e+06
2.16019e+06
929373
189222
1.24626e+06
308327
190443
235423
461165
504458
368844
368417
834275
272108
184191
137924
1.21226e+06
1.49294e+06
1.62422e+06
1.75804e+06
1.87944e+06
844358
719441
593381
466212
294343
133130
577551
26744
282474
282180
14514.5
626233
313782
246932
95965.1
394694
446937
148226
398281
1.19492e+06
947561
653350
461572
527151
2.27417e+06
1.73684e+06
232510
745790
148030
159911
642697
757109
777249
1.53943e+06
452794
493425
154346
2.05497e+06
165360
361163
420246
391995
1.50048e+06
1.63208e+06
847967
898435
897582
642486
823869
1.53609e+06
1.46257e+06
1.46238e+06
506098
702184
126494
137849
130635
313378
147025
674483
1.42792e+06
1.26738e+06
1.55289e+06
1.1343e+06
1.563e+06
1.13304e+06
770152
507977
1.36936e+06
1.0028e+06
1.37025e+06
1.00623e+06
327900
1.50399e+06
1.26839e+06
1.11171e+06
1.44795e+06
1.28157e+06
1.58035e+06
1.14937e+06
1.57929e+06
1.14871e+06
1.42386e+06
2.61987e+06
577138
810225
1.71059e+06
625714
155122
163604
262504
25994.1
262220
22973.6
149935
487368
1.5142e+06
1.3898e+06
1.64109e+06
728862
504636
2.32664e+06
77021.6
142904
290078
999201
333952
920542
453679
2.36218e+06
2.383e+06
1.42273e+06
170318
308746
1.61757e+06
863819
692288
464986
856446
785814
927771
323409
454140
2.42148e+06
569138
2.15706e+06
152872
148860
142124
151245
100924
2.13149e+06
173005
1.57217e+06
98208.4
1.15023e+06
1.4547e+06
174706
151054
222113
657927
232396
557260
512868
376131
407119
440021
186059
407001
549071
680166
456405
1.54029e+06
1.42342e+06
1.30651e+06
1.59646e+06
2.13282e+06
2.35278e+06
138958
135886
136661
149719
313826
184221
340532
2.36521e+06
2.41194e+06
2.42733e+06
1.84539e+06
72959.6
1.26903e+06
2.21094e+06
1.51938e+06
1.19951e+06
1.22357e+06
1.49906e+06
731279
645071
1.31286e+06
868698
1.54309e+06
112285
278371
358205
688310
283972
280188
318796
214169
246202
180500
209687
483430
485518
526457
525241
568588
567766
666158
656081
155395
152586
629960
404727
118529
236169
914443
1.54501e+06
155858
932888
2.0155e+06
624906
1.91898e+06
882112
242419
1.77712e+06
951341
799871
1.26788e+06
2.14899e+06
2.55047e+06
1.00011e+06
430491
2.14561e+06
309086
225567
192585
474408
103358
902184
1.58109e+06
412632
622029
251153
147606
269183
2.30931e+06
417415
488059
471405
346840
990666
311515
246011
979381
216537
2.10712e+06
164609
1.24717e+06
464182
504442
1.95667e+06
1.66957e+06
1.01123e+06
1.81956e+06
1.97189e+06
866278
2.12527e+06
722264
576667
1.67072e+06
1.82042e+06
2.12907e+06
1.97322e+06
578602
869093
1.01469e+06
724458
2.13305e+06
211564
1.67473e+06
182611
123642
159747
9619.27
73220.9
918796
98604.3
1.61016e+06
334905
248653
630239
680630
580082
480227
316663
1.40996e+06
315277
339267
1.27056e+06
105503
499339
463080
459473
1.45494e+06
1.33579e+06
1.57633e+06
692145
582412
247332
424074
836261
1.60881e+06
77408.5
413062
244182
156422
531136
1.69726e+06
963143
825240
1.79154e+06
200845
984574
2.09619e+06
1.06205e+06
1.96395e+06
174425
2.21549e+06
263057
1.47892e+06
531819
656394
152353
16913.3
169500
169255
28905.3
282799
1.5042e+06
215249
1.85555e+06
838728
305494
1.44237e+06
1.38494e+06
1.57406e+06
1.51167e+06
1.70787e+06
1.64058e+06
796726
770400
542589
525586
603185
406494
1.36078e+06
1.25848e+06
1.15518e+06
363537
424183
392355
193456
1.28092e+06
1.1196e+06
99432.1
217541
161654
183350
194444
2.13894e+06
1.79624e+06
471566
1.551e+06
1.42501e+06
1.67791e+06
133374
787227
1.44984e+06
1.51462e+06
151168
141474
1.73047e+06
548066
186171
320377
372769
346256
199284
598638
553448
512093
2.0098e+06
2.61502e+06
1.93035e+06
1.37764e+06
675619
487095
205380
223823
337550
242338
151039
133735
254366
736633
588593
150700
1.58025e+06
1.83316e+06
767834
665069
193587
185413
164213
175701
512567
1.72916e+06
1.35961e+06
1.04935e+06
1.08038e+06
1.28837e+06
144722
164166
244197
146471
150329
335551
2.70205e+06
2.14556e+06
165739
205879
922721
795942
552521
1.71518e+06
1.84804e+06
1.44908e+06
1.58081e+06
927675
485109
416324
450889
208011
262133
1.98205e+06
533430
1.26531e+06
91948.3
1.83405e+06
167747
728882
846709
2.70023e+06
147534
751776
176942
703686
189000
443428
1.34856e+06
619962
1.55617e+06
1.01124e+06
1.6995e+06
1.8448e+06
873859
1.99175e+06
734898
597219
735666
597745
284202
873264
986421
1.29088e+06
155021
251929
1.5786e+06
682650
2.4807e+06
2.0134e+06
2.25677e+06
406125
1.77101e+06
828307
645483
316311
241246
2.42765e+06
1.2546e+06
147401
2.63081e+06
2.22599e+06
76283.4
775431
633706
97019.1
1.01348e+06
820695
118845
207993
1.69533e+06
2.52808e+06
152090
897919
921286
1.83974e+06
1.78202e+06
651281
667441
651580
666937
158395
159218
158451
149093
120632
2.59746e+06
2.02838e+06
1.82627e+06
2.30451e+06
872461
467724
1.8895e+06
1.06222e+06
1.15989e+06
1.26042e+06
81822.5
1.92995e+06
337746
1.44867e+06
2.06397e+06
613603
431986
2.63008e+06
709090
744454
520552
548949
1.39951e+06
1.3523e+06
232417
228311
126850
149987
455140
1.65566e+06
1.52879e+06
1.40451e+06
693807
2.59494e+06
156169
315527
140531
1.38782e+06
1.51413e+06
886700
1.64224e+06
757571
1.78714e+06
640487
1.69609e+06
1.43302e+06
1.56332e+06
1.82837e+06
513514
911296
785705
641512
146901
207175
221556
288338
540882
458456
497678
2.15009e+06
1.00362e+06
1.22442e+06
1.98057e+06
231581
356870
150086
559727
782888
269290
376071
2.00023e+06
214038
144039
146289
149230
144815
92274.4
231897
179644
194071
1.72699e+06
2.0388e+06
177717
154389
197448
341661
745906
2.20019e+06
2.05051e+06
909867
153241
223365
1.75573e+06
156141
156872
2.67047e+06
1.03674e+06
2.01983e+06
571585
1.37022e+06
870753
849181
234013
955219
1.45246e+06
702297
504787
198203
453386
152375
118915
137381
2.1658e+06
1.28819e+06
1.31388e+06
2.14794e+06
335699
360077
186085
680779
166062
149467
159933
430940
337309
34355.3
336990
23524.5
148165
1.34162e+06
406103
589416
1.24778e+06
1.15065e+06
1.05507e+06
210703
2.46403e+06
808911
471160
2.12436e+06
1.27184e+06
1.32171e+06
216648
21288.4
216387
22392.7
1.87562e+06
459566
786599
930861
858720
172795
2.00412e+06
474093
339403
1.09085e+06
838202
143377
45816.8
1.47433e+06
306785
1.47109e+06
377305
502238
922959
1.0327e+06
867354
186510
755587
310434
400954
190912
205034
717392
748004
248295
454095
156803
158008
1.20076e+06
602663
441716
166379
634824
16440.1
61532.1
634209
800736
646998
958538
1.13781e+06
130033
2.45171e+06
2.55176e+06
322534
151768
169222
266763
293368
30342.8
293100
26149.2
1.29423e+06
443369
615888
2.37775e+06
2.41352e+06
2.05576e+06
1.85857e+06
1.11796e+06
990835
948343
841315
2.01338e+06
291811
577858
207023
134020
149052
417395
585962
839304
2.34297e+06
2.36439e+06
297294
154470
778048
845586
283290
1.28443e+06
528017
431951
1.86683e+06
184309
168136
226982
1.2592e+06
1.2673e+06
1.33872e+06
849156
424625
594156
99238.7
101465
1.44757e+06
149861
1.28628e+06
165953
634329
1.03141e+06
903922
1.50163e+06
1.75654e+06
154052
204525
477580
2.08657e+06
10012.6
123890
36749.4
124510
336165
308928
98989.5
2.25087e+06
40125.5
2.13175e+06
555001
53785.1
17343.2
554466
365903
180356
20769
180264
465592
2.0246e+06
468850
2.21814e+06
2.55714e+06
73973.6
739055
873687
806263
1.04248e+06
501302
364546
1.11829e+06
701897
122447
274983
438427
313212
782320
1.03338e+06
288005
289217
2.45734e+06
891821
1.03523e+06
964246
1.11308e+06
1.5567e+06
139517
155425
1.30279e+06
1.58304e+06
529487
302796
348802
178302
357742
529827
158712
278541
404343
156454
109536
1.42394e+06
1.66334e+06
323437
718722
560351
572160
1.77017e+06
808428
349697
268942
681335
560523
138847
410005
1.58384e+06
2.02999e+06
545969
379661
962789
1.13851e+06
1.04991e+06
93435.5
150667
395758
280386
1.50725e+06
546752
119329
58251.8
91407.3
532164
372328
931733
1.10162e+06
1.01608e+06
154467
2.19038e+06
2.5024e+06
170180
172748
164296
160154
2.19431e+06
439164
323660
935939
2.71057e+06
2.17692e+06
622544
215160
573518
529319
322585
301399
343346
190416
165653
166514
468738
2.13078e+06
122612
1.1911e+06
1.29014e+06
2.02895e+06
1.46395e+06
1.42875e+06
547505
539849
738049
749690
339820
384266
330236
149897
146399
869085
280497
1.98326e+06
1.3757e+06
349451
145528
845074
2.53285e+06
143700
1.3642e+06
1.13499e+06
1.07911e+06
1.40906e+06
961858
414470
578776
1.27865e+06
222223
933151
404711
453042
230956
467755
287092
373836
1.02576e+06
509312
214689
185957
248626
1.31972e+06
1.0836e+06
233555
222870
208960
240545
151487
695721
535381
134020
506908
154733
289433
469341
2.31732e+06
2.04027e+06
1.38589e+06
406821
287137
909843
843336
775679
365592
364736
175757
1.25426e+06
170601
714766
929784
269651
231581
2.06589e+06
116759
413644
385710
183829
2.18162e+06
114024
147705
619263
729935
218393
207216
229505
165235
155967
1.38499e+06
122313
170509
21201.9
170366
1.38372e+06
1.31962e+06
2.49863e+06
1.48789e+06
1.87674e+06
153747
1.9375e+06
1.32748e+06
19178.9
139204
330006
248555
563183
611802
659931
862573
485637
2.02384e+06
1.19247e+06
1.29338e+06
204682
135232
131883
152811
165538
174715
273862
1.1582e+06
139278
2.51174e+06
614636
249516
1.30325e+06
857024
434662
606568
278026
241318
343903
516546
333958
688125
623872
247627
155889
894416
1.23373e+06
106317
115680
210802
123881
125910
1.87735e+06
501270
366747
1.06162e+06
1.82287e+06
497405
361085